Title
29212
    1ASP      N    1   4.454   4.197   2.530 -0.0983  0.5524  0.0171
    1ASP    HT1    2   4.517   4.135   2.584  2.7107  1.7567 -1.6976
    1ASP    HT2    3   4.438   4.285   2.583 -0.6382  0.9330 -0.7506
    1ASP    HT3    4   4.499   4.230   2.443 -1.2660 -1.4135 -1.4170
    1ASP     CA    5   4.323   4.140   2.497  0.4137  0.4899  0.5649
    1ASP     HA    6   4.277   4.187   2.411 -1.6063  0.8494  1.7592
    1ASP     CB    7   4.340   3.991   2.472 -0.4336 -0.0182  0.3459
    1ASP    HB1    8   4.239   3.949   2.454 -0.2255  0.2636 -1.6711
    1ASP    HB2    9   4.378   3.945   2.566 -2.2052  0.7968  1.5142
    1ASP     CG   10   4.416   3.959   2.352  0.5293 -0.3966  0.4180
    1ASP    OD1   11   4.438   3.839   2.326 -0.7720  0.2933  0.0922
    1ASP    OD2   12   4.450   4.051   2.272  0.2377 -0.0083  0.3702
    1ASP      C   13   4.226   4.160   2.608  0.8229  0.2293 -0.0911
    1ASP      O   14   4.255   4.172   2.726  0.6535  0.3308 -0.1113
    2GLY      N   15   4.095   4.175   2.564  0.1346 -0.0436  0.5567
    2GLY     HN   16   4.074   4.164   2.467  1.0748 -0.1084  0.3510
    2GLY     CA   17   3.974   4.196   2.650 -0.1770 -0.9747  0.3607
    2GLY    HA1   18   3.884   4.175   2.595 -0.6644 -0.3783  0.9062
    2GLY    HA2   19   3.987   4.298   2.684  0.6194 -0.9824  0.0835
    2GLY      C   20   3.956   4.097   2.769  0.0091 -0.1064 -0.8296
    2GLY      O   21   3.982   3.979   2.757 -0.0567 -0.6088  0.3860
    3ASP      N   22   3.903   4.151   2.879  0.3150  0.7365 -0.5165
    3ASP     HN   23   3.886   4.249   2.874  0.0061  0.7125  0.0313
    3ASP     CA   24   3.828   4.076   2.977 -0.0159  1.3072  0.0775
    3ASP     HA   25   3.898   4.016   3.032  0.1242  0.3193 -1.1496
    3ASP     CB   26   3.769   4.176   3.077  0.9856  0.4144 -0.1977
    3ASP    HB1   27   3.693   4.125   3.141 -0.0010  0.9391 -0.9328
    3ASP    HB2   28   3.728   4.264   3.024  0.6963  1.2202  1.2993
    3ASP     CG   29   3.875   4.214   3.175  0.1795 -0.5808  0.2035
    3ASP    OD1   30   3.997   4.233   3.137  0.2694  0.2763  0.2158
    3ASP    OD2   31   3.841   4.248   3.293 -0.1459 -0.5011  0.3069
    3ASP      C   32   3.727   3.968   2.938 -0.0037  0.5152  0.6424
    3ASP      O   33   3.687   3.959   2.821 -0.4126 -0.8863 -0.0158
    4GLY      N   34   3.687   3.881   3.037  0.4030 -0.3533  0.3273
    4GLY     HN   35   3.723   3.894   3.129  0.7416 -1.6414  0.3970
    4GLY     CA   36   3.584   3.782   3.016 -0.2152  0.2981 -0.4022
    4GLY    HA1   37   3.597   3.721   3.104  3.7055  2.6011  0.8606
    4GLY    HA2   38   3.610   3.743   2.919 -0.7766  2.9778 -1.7359
    4GLY      C   39   3.442   3.846   3.008  0.6404 -0.2532  0.7418
    4GLY      O   40   3.427   3.966   3.028 -0.1004 -0.0846 -0.3038
    5PRO      N   41   3.338   3.774   2.964  0.3145  0.3783 -0.1726
    5PRO     CD   42   3.347   3.633   2.913 -0.0548  0.4908 -0.1036
    5PRO    HD1   43   3.379   3.564   2.994 -0.3724  0.2279 -0.2011
    5PRO    HD2   44   3.432   3.622   2.842  0.6723  1.9688  0.4735
    5PRO     CA   45   3.196   3.814   2.971  0.4787  0.5703  0.8011
    5PRO     HA   46   3.174   3.884   2.892 -2.8619 -2.3627 -1.1554
    5PRO     CB   47   3.118   3.685   2.946 -0.2826  0.1943 -0.7186
    5PRO    HB1   48   3.021   3.710   2.898  0.1334 -2.3886 -3.1666
    5PRO    HB2   49   3.092   3.644   3.046 -0.7183  1.8079 -0.1298
    5PRO     CG   50   3.209   3.597   2.860  0.3491 -0.0074 -0.1567
    5PRO    HG1   51   3.194   3.487   2.864  0.6063 -0.0104  0.8602
    5PRO    HG2   52   3.205   3.639   2.757  0.8150  0.6194  0.0749
    5PRO      C   53   3.150   3.894   3.098 -0.1162  0.2934 -0.3182
    5PRO      O   54   3.187   3.855   3.206 -0.2010  0.4804  0.1653
    6GLY      N   55   3.068   4.004   3.077 -0.3819  0.9008 -0.0920
    6GLY     HN   56   3.032   4.027   2.987  0.1199  2.2278  0.0197
    6GLY     CA   57   3.011   4.086   3.186 -0.2208 -0.0009 -0.1279
    6GLY    HA1   58   2.946   4.156   3.136  1.9461  0.8806 -1.8725
    6GLY    HA2   59   3.092   4.124   3.247 -1.1714  1.7177  0.1219
    6GLY      C   60   2.926   4.005   3.282 -0.1307 -0.5042 -0.8763
    6GLY      O   61   2.876   3.901   3.256  0.0029  0.3628  0.3466
    7ASP      N   62   2.907   4.054   3.401  0.4580  0.6215  0.2640
    7ASP     HN   63   2.952   4.139   3.427  0.1008  1.0162 -0.3916
    7ASP     CA   64   2.825   3.989   3.509 -0.6358  0.2148  0.1363
    7ASP     HA   65   2.861   3.887   3.506 -3.0196 -0.7819  2.1332
    7ASP     CB   66   2.865   4.057   3.645 -0.5983 -0.8142  0.7887
    7ASP    HB1   67   2.796   4.034   3.729  1.0080  0.1037  2.4406
    7ASP    HB2   68   2.866   4.166   3.623  0.0552 -1.1648 -1.0597
    7ASP     CG   69   3.007   4.026   3.685 -0.7216 -0.0380 -0.4212
    7ASP    OD1   70   3.051   4.085   3.785 -0.0310 -0.2063 -0.6229
    7ASP    OD2   71   3.075   3.935   3.626 -0.2349 -0.2257  0.3773
    7ASP      C   72   2.678   3.972   3.488 -0.3831 -0.4794 -0.4415
    7ASP      O   73   2.620   4.051   3.417 -0.1855 -0.2699 -0.7941
    8PRO      N   74   2.608   3.871   3.539  0.5469 -0.1141 -0.1691
    8PRO     CD   75   2.676   3.761   3.601  0.1400  0.1012 -0.3218
    8PRO    HD1   76   2.713   3.779   3.704 -0.2800  1.7310 -0.4426
    8PRO    HD2   77   2.759   3.724   3.537 -0.7181 -0.5234 -1.1249
    8PRO     CA   78   2.473   3.836   3.507 -0.2428 -0.6532 -0.2681
    8PRO     HA   79   2.482   3.819   3.401  0.0615  0.7003 -0.4801
    8PRO     CB   80   2.435   3.707   3.573  0.0733  0.3952 -0.2551
    8PRO    HB1   81   2.367   3.657   3.501 -2.3550  1.4525  1.2068
    8PRO    HB2   82   2.373   3.738   3.660 -1.0228  0.1471 -0.9416
    8PRO     CG   83   2.570   3.648   3.610  0.0084 -0.3271  0.4627
    8PRO    HG1   84   2.577   3.590   3.704  2.4073 -0.1339  0.4861
    8PRO    HG2   85   2.602   3.586   3.523 -1.3698 -1.2095  0.5616
    8PRO      C   86   2.371   3.954   3.532  0.5807  0.3017  0.7821
    8PRO      O   87   2.367   4.012   3.636  0.3527 -0.1860  0.1074
    9GLY      N   88   2.296   3.989   3.424 -0.1587  0.4749  0.1541
    9GLY     HN   89   2.327   3.957   3.335 -0.4929  0.8838 -0.1099
    9GLY     CA   90   2.192   4.089   3.430  0.7791  0.2688  0.4589
    9GLY    HA1   91   2.168   4.118   3.329  0.7313 -0.5856  0.2196
    9GLY    HA2   92   2.230   4.171   3.490  0.7683  0.7440 -0.1680
    9GLY      C   93   2.073   4.035   3.498  0.0042 -0.0307 -0.0438
    9GLY      O   94   2.070   3.929   3.565 -0.6082 -0.1856  0.4115
   10ASP      N   95   1.953   4.099   3.474 -0.7585  0.3422  0.1310
   10ASP     HN   96   1.959   4.184   3.423  3.0812  2.0876  3.0215
   10ASP     CA   97   1.821   4.058   3.517  0.5783 -0.0812  0.0623
   10ASP     HA   98   1.836   4.055   3.624 -0.5900  1.2629  0.3011
   10ASP     CB   99   1.718   4.172   3.491 -0.0510  0.1493 -0.4314
   10ASP    HB1  100   1.636   4.159   3.565  1.2394  1.5007  1.3237
   10ASP    HB2  101   1.682   4.172   3.386 -1.4143  0.1336  0.0165
   10ASP     CG  102   1.762   4.316   3.509  0.4539  0.8255 -0.2553
   10ASP    OD1  103   1.809   4.378   3.411 -0.0736 -0.1999  0.2951
   10ASP    OD2  104   1.769   4.366   3.623 -0.0959 -0.2350  0.2343
   10ASP      C  105   1.772   3.926   3.455  0.1338 -0.0255 -0.1789
   10ASP      O  106   1.805   3.894   3.339 -0.2217  0.2770 -0.3466
   11GLY      N  107   1.688   3.844   3.518 -0.8778  0.5268 -0.1661
   11GLY     HN  108   1.654   3.867   3.609  0.2212  1.1634  0.1029
   11GLY     CA  109   1.651   3.718   3.457 -0.1854  0.6864 -0.2646
   11GLY    HA1  110   1.740   3.676   3.414  0.4058 -1.0667  2.4573
   11GLY    HA2  111   1.571   3.731   3.385  0.9510 -1.5918 -2.0602
   11GLY      C  112   1.606   3.609   3.561 -0.3577  0.1088  0.3223
   11GLY    OT1  113   1.485   3.570   3.563 -0.6001 -0.2311  0.0645
   11GLY    OT2  114   1.698   3.551   3.626  0.4541 -0.4780 -0.3671
   12SOD    SOD  115   0.740   3.418   3.459 -0.5998 -0.0528 -0.3551
   13SOD    SOD  116   2.839   2.100   1.446 -0.3407  0.6113  0.3058
   14SOD    SOD  117   6.257   5.041   0.399  0.0478 -0.1425  0.0529
   15SOD    SOD  118   0.397   3.201   5.150 -0.1423  0.2354 -0.1016
   16SOD    SOD  119   1.166   5.130   0.093 -0.3302  0.2082  0.1501
   17SOD    SOD  120   2.461   3.778   1.813 -0.4210 -0.1649  0.1153
   18SOD    SOD  121   1.824   3.402   2.841 -0.2335  0.2529  0.3843
   19SOD    SOD  122   3.499   2.190   2.661  0.0291 -0.1968 -0.5786
   20SOD    SOD  123   1.256   5.779   3.693 -0.0642 -0.0428  0.3136
   21SOD    SOD  124   5.714   2.294   4.080 -0.1525  0.0335 -0.3923
   22SOD    SOD  125   6.591   6.343   4.416 -0.1573 -0.0476  0.0770
   23SOD    SOD  126   1.791   4.036   4.744 -0.2021  0.3199 -0.0366
   24SOD    SOD  127   0.412   0.602   4.792 -0.5080  0.1016  0.3121
   25SOD    SOD  128   0.108   4.229   0.330 -0.0014 -0.0375  0.1758
   26SOD    SOD  129   1.583   5.680   5.109  0.1432  0.0413  0.2549
   27SOD    SOD  130   6.689   2.496   1.599 -0.1652  0.1770  0.7399
   28SOD    SOD  131   2.484   1.776   0.073 -0.5841 -0.0565  0.1620
   29SOD    SOD  132   4.005   2.237   5.870  0.1783 -0.0347  0.1261
   30SOD    SOD  133   2.489   2.116   5.862 -0.5240 -0.3189  0.1895
   31SOD    SOD  134   6.395   4.395   0.137 -0.0112 -0.2628  0.4237
   32SOD    SOD  135   4.663   1.988   5.394  0.1087  0.0603 -0.0801
   33SOD    SOD  136   5.631   0.077   0.498  0.2140 -0.0312 -0.2524
   34SOD    SOD  137   4.487   3.734   2.964 -0.3383 -0.0789 -0.1075
   35SOD    SOD  138   5.551   4.679   4.702  0.0093 -0.5859  0.2951
   36SOD    SOD  139   0.002   0.054   1.328  0.0193  0.1712 -0.0591
   37SOD    SOD  140   2.584   0.382   3.331 -0.1957 -0.4528  0.4699
   38SOD    SOD  141   3.670   4.675   2.673  0.1178  0.1446 -0.1175
   39SOD    SOD  142   2.045   0.953   1.658  0.2240  0.1084  0.4596
   40SOD    SOD  143   6.081   3.465   5.278 -0.3043  0.6636  0.2127
   41SOD    SOD  144   2.498   4.661   5.553 -0.4257 -0.0863  0.0016
   42SOD    SOD  145   3.326   4.823   2.648  0.0147  0.1222  0.0187
   43CLA    CLA  146   5.168   4.968   4.510  0.3013 -0.1852 -0.0963
   44CLA    CLA  147   5.075   3.430   5.247 -0.4980  0.0270 -0.1631
   45CLA    CLA  148   0.007   2.596   1.433  0.3315  0.0722  0.3681
   46CLA    CLA  149   0.880   0.519   1.320 -0.3444  0.0811 -0.2725
   47CLA    CLA  150   6.737   2.320   3.823  0.1419 -0.2324 -0.3310
   48CLA    CLA  151   3.148   5.303   5.536  0.3648  0.0796 -0.3714
   49CLA    CLA  152   1.099   2.880   5.108  0.0304 -0.3449 -0.1235
   50CLA    CLA  153   1.666   5.988   0.767 -0.1846 -0.1751  0.0770
   51CLA    CLA  154   0.721   5.074   1.536 -0.0257 -0.3394 -0.0618
   52CLA    CLA  155   4.808   1.621   3.882 -0.2293 -0.1506 -0.1485
   53CLA    CLA  156   3.158   2.314   0.805 -0.0361  0.1305 -0.0606
   54CLA    CLA  157   6.041   4.357   3.438  0.2054 -0.2500 -0.1101
   55CLA    CLA  158   5.910   6.729   5.492 -0.4533 -0.2252  0.0736
   56CLA    CLA  159   1.652   4.565   5.844 -0.4037  0.2721  0.0347
   57CLA    CLA  160   2.090   2.288   5.203 -0.1368  0.2466 -0.3013
   58CLA    CLA  161   2.869   4.244   5.569 -0.4583  0.1800  0.2075
   59CLA    CLA  162   0.639   1.286   3.953  0.2394 -0.0534  0.0973
   60CLA    CLA  163   2.709   6.413   2.265 -0.0992 -0.2592  0.2338
   61CLA    CLA  164   5.196   2.752   4.080 -0.1755 -0.3053  0.0720
   62CLA    CLA  165   3.800   3.540   5.072 -0.2690 -0.0019 -0.1515
   63CLA    CLA  166   7.048   4.488   3.278 -0.3697  0.1704 -0.3305
   64CLA    CLA  167   4.229   1.847   1.039 -0.5069  0.2262  0.1858
   65CLA    CLA  168   4.167   1.954   3.258  0.2380  0.1057  0.2336
   66CLA    CLA  169   1.274   4.325   0.294 -0.1559  0.1510 -0.1620
   67CLA    CLA  170   2.543   2.649   3.237 -0.0448  0.0191 -0.3916
   68CLA    CLA  171   2.805   2.787   1.707  0.0692 -0.1101 -0.1869
   69CLA    CLA  172   0.611   5.330   4.180  0.1928 -0.4757 -0.3011
   70TIP3   OH2  173   3.374   4.155   5.135 -0.1509  0.2340 -0.3519
   70TIP3    H1  174   3.448   4.214   5.147 -0.5679  0.8240 -0.6058
   70TIP3    H2  175   3.383   4.123   5.046  0.0482 -0.0472 -0.2308
   71TIP3   OH2  176   0.151   2.430   3.250 -0.1621  0.2157  0.1674
   71TIP3    H1  177   0.069   2.393   3.283  0.3917 -0.1399  1.1861
   71TIP3    H2  178   0.129   2.522   3.230 -1.2479 -0.3126 -1.2865
   72TIP3   OH2  179   2.709   1.307   2.390  0.2071  0.0002  0.4012
   72TIP3    H1  180   2.660   1.262   2.322  0.1948  0.2086  0.2707
   72TIP3    H2  181   2.643   1.348   2.445  0.1596 -1.1882  1.2681
   73TIP3   OH2  182   6.324   4.498   0.356 -0.0675 -0.3154 -0.4276
   73TIP3    H1  183   6.240   4.537   0.380 -0.5088 -0.4853 -1.5997
   73TIP3    H2  184   6.390   4.561   0.384 -0.6728  0.4602 -0.7282
   74TIP3   OH2  185   5.406   2.737   4.543 -0.0049 -0.3406 -0.3312
   74TIP3    H1  186   5.366   2.667   4.594 -0.4705 -1.1195 -1.7183
   74TIP3    H2  187   5.461   2.784   4.606 -0.2453 -1.4968  0.7866
   75TIP3   OH2  188   5.157   2.703   5.239 -0.4327  0.0834  0.2654
   75TIP3    H1  189   5.242   2.740   5.218 -0.1158 -0.3413  0.7652
   75TIP3    H2  190   5.121   2.675   5.155  0.4577 -0.8552  0.1771
   76TIP3   OH2  191   3.909   2.607   0.559 -0.2062 -0.2231  0.7820
   76TIP3    H1  192   3.963   2.650   0.625  1.0303  0.2288 -0.4875
   76TIP3    H2  193   3.823   2.648   0.568  0.3482  0.9103  1.1029
   77TIP3   OH2  194   4.639   3.672   3.844 -0.1094 -0.4501 -0.4501
   77TIP3    H1  195   4.635   3.615   3.767  1.7826  2.0707 -2.6108
   77TIP3    H2  196   4.716   3.642   3.893 -0.8530 -1.5552  0.0769
   78TIP3   OH2  197   6.127   2.768   5.546  0.3088  0.6803  1.1212
   78TIP3    H1  198   6.144   2.781   5.640  1.6897 -0.4068  1.0490
   78TIP3    H2  199   6.044   2.721   5.544  0.0474  1.0885  1.7694
   79TIP3   OH2  200   3.476   6.644   0.259 -0.4762 -0.4091 -0.7391
   79TIP3    H1  201   3.411   6.695   0.306 -0.4693 -0.9276 -0.1589
   79TIP3    H2  202   3.480   6.685   0.172 -0.7216  0.3513 -0.4016
   80TIP3   OH2  203   0.272   4.320   5.855  0.1629 -0.2080 -0.5293
   80TIP3    H1  204   0.342   4.257   5.838  0.7315  0.1900  0.2806
   80TIP3    H2  205   0.245   4.349   5.768  2.2887  1.0131 -0.8584
   81TIP3   OH2  206   5.665   4.893   5.780 -0.2779 -0.5700 -0.2871
   81TIP3    H1  207   5.728   4.966   5.780  0.4937 -1.1173  2.4745
   81TIP3    H2  208   5.667   4.861   5.870 -2.2721 -2.5976 -0.9020
   82TIP3   OH2  209   6.988   1.087   4.364 -0.1718 -0.2707  0.1229
   82TIP3    H1  210   6.946   1.132   4.437 -0.3047  0.7295 -0.5505
   82TIP3    H2  211   7.081   1.090   4.384 -0.1503  0.6105 -0.0634
   83TIP3   OH2  212   6.200   0.571   2.165  0.2247  0.4394  0.4388
   83TIP3    H1  213   6.239   0.545   2.249 -0.1794 -0.4647  0.3650
   83TIP3    H2  214   6.238   0.656   2.146  0.9935  0.2615  1.1142
   84TIP3   OH2  215   5.962   0.642   0.911 -0.1232 -0.0868 -0.6285
   84TIP3    H1  216   5.996   0.684   0.832 -1.3301 -0.3023 -1.2892
   84TIP3    H2  217   5.886   0.694   0.935  0.4590  0.2167  0.6555
   85TIP3   OH2  218   6.604   0.111   1.542  0.4094 -0.0220 -0.1682
   85TIP3    H1  219   6.548   0.189   1.552 -1.7436 -1.2291 -1.8756
   85TIP3    H2  220   6.577   0.053   1.613  0.8110  0.1073  0.0928
   86TIP3   OH2  221   5.970   1.060   4.945  0.0089  0.2985 -0.4877
   86TIP3    H1  222   6.017   1.067   4.863 -0.8109 -1.2083 -1.1261
   86TIP3    H2  223   5.879   1.045   4.920 -0.6681  1.9837  0.7117
   87TIP3   OH2  224   6.628   4.634   1.869 -0.1228 -0.4249  0.0227
   87TIP3    H1  225   6.614   4.588   1.952  0.1620 -0.1540  0.2208
   87TIP3    H2  226   6.572   4.588   1.807  1.3757 -2.0833 -0.1695
   88TIP3   OH2  227   6.001   2.747   5.204  0.5653  0.2996  0.3219
   88TIP3    H1  228   5.948   2.694   5.144 -0.1959  1.0815  0.2690
   88TIP3    H2  229   5.953   2.743   5.287  2.1504 -1.6321  1.2363
   89TIP3   OH2  230   2.079   0.049   2.091  0.2382  0.2052  0.2772
   89TIP3    H1  231   2.172   0.067   2.082  0.2093  2.0097  2.6009
   89TIP3    H2  232   2.053   0.097   2.170 -2.2371 -1.8495  0.8369
   90TIP3   OH2  233   0.758   1.683   3.072 -0.4250  0.2458  0.0467
   90TIP3    H1  234   0.750   1.758   3.013 -0.1219 -0.1345 -0.4888
   90TIP3    H2  235   0.787   1.721   3.155  1.0294  0.6094 -0.5832
   91TIP3   OH2  236   3.663   0.121   2.214  0.0838  0.0838  0.2050
   91TIP3    H1  237   3.742   0.175   2.219  0.1729 -0.0886  0.7470
   91TIP3    H2  238   3.645   0.097   2.305  0.3452 -1.2359 -0.0775
   92TIP3   OH2  239   1.555   4.825   0.079 -0.5954 -0.4534  0.0873
   92TIP3    H1  240   1.627   4.813   0.141  0.0505  0.0270 -0.5393
   92TIP3    H2  241   1.558   4.747   0.023 -0.8408 -0.6368  0.3276
   93TIP3   OH2  242   3.742   2.181   5.371 -0.4603  0.0627  0.0720
   93TIP3    H1  243   3.727   2.136   5.454 -2.8243  0.0311 -0.3149
   93TIP3    H2  244   3.753   2.273   5.396 -0.0606 -0.0885  0.4846
   94TIP3   OH2  245   1.055   0.670   2.408 -0.0826  0.0088  0.6911
   94TIP3    H1  246   1.010   0.588   2.428 -0.2969 -0.5532 -1.8566
   94TIP3    H2  247   0.990   0.722   2.360 -0.0149  1.8207  2.4042
   95TIP3   OH2  248   1.716   2.982   1.706  0.2988  0.2444  0.5618
   95TIP3    H1  249   1.751   2.976   1.617 -1.1933 -2.6546  0.0466
   95TIP3    H2  250   1.769   2.920   1.756  0.7816  1.4655  1.6273
   96TIP3   OH2  251   2.653   4.658   2.457  0.0584 -0.1421  0.0635
   96TIP3    H1  252   2.652   4.628   2.548 -2.8001 -1.7747 -0.4049
   96TIP3    H2  253   2.590   4.730   2.455  0.8034  0.5198 -0.4871
   97TIP3   OH2  254   5.175   4.199   5.253  0.1349 -0.3930  0.1776
   97TIP3    H1  255   5.217   4.269   5.203 -1.2783  0.4660  0.1417
   97TIP3    H2  256   5.086   4.194   5.217 -0.3255 -1.0222  1.3558
   98TIP3   OH2  257   5.777   6.566   2.366 -0.3857  0.0400 -0.4533
   98TIP3    H1  258   5.819   6.639   2.412 -1.1079  0.4172 -0.3841
   98TIP3    H2  259   5.755   6.601   2.279 -0.6320 -0.1297 -0.4615
   99TIP3   OH2  260   5.618   0.186   5.754  0.1890  0.4137  0.4038
   99TIP3    H1  261   5.696   0.219   5.799 -0.3099  4.0473 -1.0457
   99TIP3    H2  262   5.651   0.155   5.670  0.2486  0.6974  0.3204
  100TIP3   OH2  263   4.387   3.547   0.309 -0.3203  0.0592 -0.1089
  100TIP3    H1  264   4.415   3.480   0.246  0.1786  0.1771 -0.0195
  100TIP3    H2  265   4.467   3.596   0.329 -0.9700  1.7138 -1.3731
  101TIP3   OH2  266   2.888   1.904   3.337 -0.2012 -0.3518 -0.2186
  101TIP3    H1  267   2.836   1.838   3.382  1.3615 -0.3822  1.6731
  101TIP3    H2  268   2.855   1.988   3.370  1.4798 -0.3915  1.7455
  102TIP3   OH2  269   0.861   2.755   4.839 -0.5667 -0.1140  0.6430
  102TIP3    H1  270   0.909   2.674   4.826  0.5602  0.7986 -1.3747
  102TIP3    H2  271   0.920   2.810   4.890  0.6510  0.9961 -1.8094
  103TIP3   OH2  272   5.954   0.878   1.350  0.2323 -1.5176  0.3086
  103TIP3    H1  273   5.973   0.845   1.262  1.8369 -1.7011  0.6930
  103TIP3    H2  274   6.035   0.921   1.377 -0.3633 -1.1564  1.5584
  104TIP3   OH2  275   4.312   6.713   5.850  0.0026  0.4516 -0.0303
  104TIP3    H1  276   4.368   6.705   5.927 -0.9269 -0.0025  0.6212
  104TIP3    H2  277   4.298   6.623   5.820 -0.9706  0.4794  0.2786
  105TIP3   OH2  278   4.091   0.949   3.300 -0.0414  0.1604  0.2946
  105TIP3    H1  279   4.120   1.025   3.351 -1.5796  0.8593  0.1877
  105TIP3    H2  280   4.170   0.918   3.256  0.8356  1.0290  1.2010
  106TIP3   OH2  281   4.474   4.653   1.880  0.4820 -0.8586  0.2870
  106TIP3    H1  282   4.475   4.620   1.789 -1.1609 -2.3532  0.7397
  106TIP3    H2  283   4.443   4.743   1.872  2.3234 -0.2649 -0.7769
  107TIP3   OH2  284   4.771   5.909   1.598  0.1107  0.1317  0.0032
  107TIP3    H1  285   4.746   5.996   1.565 -3.8359 -0.7398  0.1717
  107TIP3    H2  286   4.784   5.921   1.692 -1.2424  0.4858  0.1726
  108TIP3   OH2  287   4.196   2.906   4.018 -0.4548 -0.1347  0.0993
  108TIP3    H1  288   4.287   2.926   4.043  0.2610 -1.9939 -0.8195
  108TIP3    H2  289   4.155   2.992   4.007  1.5522  0.7863 -0.7116
  109TIP3   OH2  290   0.008   1.811   0.849  0.2057 -0.3024  0.5150
  109TIP3    H1  291   0.045   1.792   0.762  1.5676  1.0127  0.7870
  109TIP3    H2  292  -0.033   1.896   0.839 -0.8337 -0.7531  0.8287
  110TIP3   OH2  293   3.763   3.662   4.714 -0.3618  0.0023 -0.6631
  110TIP3    H1  294   3.827   3.624   4.774  0.8486  1.1388 -1.1723
  110TIP3    H2  295   3.762   3.603   4.639 -0.2877 -0.2973 -0.4285
  111TIP3   OH2  296   0.719   5.434   0.077  0.2493 -0.3591 -0.0288
  111TIP3    H1  297   0.752   5.430   0.167  1.9148 -0.9056 -0.6234
  111TIP3    H2  298   0.769   5.505   0.036  1.3821 -1.7544 -1.1872
  112TIP3   OH2  299   0.054   3.260   4.263  0.0357  0.5583 -0.3134
  112TIP3    H1  300   0.020   3.196   4.325 -0.9046 -0.5980 -1.9771
  112TIP3    H2  301   0.119   3.310   4.314 -1.0139 -0.0319  1.7092
  113TIP3   OH2  302   3.086   5.314   1.443 -0.2927 -0.0818  0.3336
  113TIP3    H1  303   2.992   5.311   1.462 -0.1644 -0.0272  1.0016
  113TIP3    H2  304   3.104   5.234   1.394 -0.6671 -0.1464  0.3019
  114TIP3   OH2  305   1.915   0.805   3.349 -0.1256  0.4136  0.4603
  114TIP3    H1  306   1.860   0.727   3.340 -1.3435  1.1318  1.2752
  114TIP3    H2  307   1.916   0.844   3.262 -0.2499 -0.0417  0.2513
  115TIP3   OH2  308   3.682   5.864   5.529 -0.0199 -0.0865 -0.1106
  115TIP3    H1  309   3.631   5.783   5.536 -1.8330  0.9208 -0.9079
  115TIP3    H2  310   3.652   5.918   5.602  1.7120 -0.3430  0.8587
  116TIP3   OH2  311   2.330   0.540   4.999 -0.0100  0.3428  0.2032
  116TIP3    H1  312   2.413   0.582   4.977  0.6263 -1.6110 -1.5034
  116TIP3    H2  313   2.272   0.561   4.925  0.1176 -1.1271 -0.3554
  117TIP3   OH2  314   5.641   1.189   2.425  0.3947 -0.1538 -0.2230
  117TIP3    H1  315   5.602   1.265   2.467  0.5210  0.4225 -1.1318
  117TIP3    H2  316   5.582   1.168   2.352  1.7818  0.8193 -1.7122
  118TIP3   OH2  317   4.813   5.374   0.205  0.4066  0.0508 -0.0519
  118TIP3    H1  318   4.864   5.294   0.209 -0.0966 -0.2734 -0.1148
  118TIP3    H2  319   4.791   5.394   0.296  0.5286  0.1130 -0.0366
  119TIP3   OH2  320   1.662   3.495   4.479 -0.4848 -0.0125  0.1102
  119TIP3    H1  321   1.752   3.502   4.446 -1.2870  1.5570 -2.0344
  119TIP3    H2  322   1.612   3.461   4.404 -1.6292 -1.3801  1.4302
  120TIP3   OH2  323   2.199   2.057   4.407 -0.0663 -0.3745 -0.0194
  120TIP3    H1  324   2.258   2.072   4.333  1.9909 -0.6773  1.4693
  120TIP3    H2  325   2.119   2.023   4.367  0.6920  0.1718 -2.1482
  121TIP3   OH2  326   6.654   2.793   0.738 -0.0139 -0.6444 -0.2372
  121TIP3    H1  327   6.722   2.728   0.719  0.7185 -0.1555  0.6547
  121TIP3    H2  328   6.679   2.830   0.822  0.5008  1.9675 -1.4615
  122TIP3   OH2  329   1.377   1.293   5.151  0.2371 -0.0879  0.2599
  122TIP3    H1  330   1.316   1.323   5.083  0.9644  1.5229  0.2624
  122TIP3    H2  331   1.436   1.368   5.164  0.9669 -0.8796  1.6761
  123TIP3   OH2  332   4.937   5.407   1.276 -0.1177  0.0764 -0.6357
  123TIP3    H1  333   5.001   5.352   1.230 -0.9739 -0.7912 -0.8142
  123TIP3    H2  334   4.912   5.473   1.211 -0.7235 -0.6615 -1.1626
  124TIP3   OH2  335   1.296   3.298   3.923 -0.1488 -0.2525  0.0451
  124TIP3    H1  336   1.346   3.378   3.904 -1.7765  0.6420 -0.6623
  124TIP3    H2  337   1.332   3.266   4.005 -0.6608  2.2474  1.3208
  125TIP3   OH2  338   0.601   3.695   4.462  0.1407  0.4199  0.3282
  125TIP3    H1  339   0.506   3.699   4.477 -0.0076  0.8811 -0.6306
  125TIP3    H2  340   0.631   3.785   4.477  0.5490  0.1398  1.2785
  126TIP3   OH2  341   3.011   6.225   0.397  0.5149  0.3745 -0.5428
  126TIP3    H1  342   2.932   6.244   0.347  0.5348 -0.8232 -1.0838
  126TIP3    H2  343   2.980   6.203   0.485  0.4769  2.4773  0.0072
  127TIP3   OH2  344   3.714   4.297   2.303  0.3786  0.7585 -0.2760
  127TIP3    H1  345   3.729   4.208   2.270 -0.1188  0.5419  0.0630
  127TIP3    H2  346   3.802   4.331   2.323  0.5743  0.3547 -0.4409
  128TIP3   OH2  347   0.597   5.267   0.771  0.1964 -0.1218  0.9732
  128TIP3    H1  348   0.563   5.214   0.843 -1.1251  0.4257  0.7908
  128TIP3    H2  349   0.636   5.204   0.711  1.8265 -0.5423  2.3931
  129TIP3   OH2  350   0.803   1.982   5.043  0.5376  0.6840 -0.4197
  129TIP3    H1  351   0.813   1.982   4.947 -0.8776  0.2125 -0.5873
  129TIP3    H2  352   0.733   1.919   5.060  2.3061 -1.0113  1.1258
  130TIP3   OH2  353   0.762   3.782   5.461  0.3984 -0.4763 -0.4935
  130TIP3    H1  354   0.763   3.707   5.521 -2.2125 -0.8730 -0.8134
  130TIP3    H2  355   0.709   3.848   5.506  2.1589  0.9927 -0.4848
  131TIP3   OH2  356   5.156   5.412   3.214 -0.1734 -0.0898 -0.2693
  131TIP3    H1  357   5.150   5.504   3.187  1.4422  0.5028  1.1902
  131TIP3    H2  358   5.069   5.391   3.247 -0.8950  0.5395 -1.6737
  132TIP3   OH2  359   2.715   2.584   2.064  0.2551  0.3665  0.0786
  132TIP3    H1  360   2.645   2.518   2.056  0.8921 -0.2525 -0.5970
  132TIP3    H2  361   2.723   2.600   2.158  0.7829 -1.3017  0.3464
  133TIP3   OH2  362   3.113   2.221   2.652 -0.7010 -0.5932 -0.2193
  133TIP3    H1  363   3.140   2.224   2.743 -0.3581  0.6128 -0.3441
  133TIP3    H2  364   3.019   2.242   2.654 -0.4338  0.6761 -0.2281
  134TIP3   OH2  365   5.914   3.572   1.854 -0.1412  0.5457  0.0569
  134TIP3    H1  366   5.925   3.497   1.912 -0.8737  0.3940 -0.0032
  134TIP3    H2  367   5.938   3.647   1.909 -1.2541  0.4424  0.6966
  135TIP3   OH2  368   5.494   2.414   2.840  0.1726  0.0307 -0.1225
  135TIP3    H1  369   5.444   2.341   2.804 -1.5063  1.1331 -0.1554
  135TIP3    H2  370   5.507   2.473   2.765  1.1543 -0.0324 -0.0101
  136TIP3   OH2  371   2.841   4.689   3.040 -0.5134  0.4671  0.0635
  136TIP3    H1  372   2.856   4.688   3.135 -0.2846  1.3946  0.0410
  136TIP3    H2  373   2.831   4.596   3.017  0.8335  0.1215  0.7650
  137TIP3   OH2  374   5.365   1.221   3.426 -0.0666 -0.2412 -0.5014
  137TIP3    H1  375   5.433   1.154   3.431  0.0440 -0.0803  0.4906
  137TIP3    H2  376   5.406   1.295   3.381  0.7933  0.2608  1.0268
  138TIP3   OH2  377   3.434   1.319   4.478  0.0225  0.0329  0.0155
  138TIP3    H1  378   3.457   1.389   4.539 -0.7548 -2.0588  2.9705
  138TIP3    H2  379   3.358   1.351   4.431 -1.2025  0.7521  2.3239
  139TIP3   OH2  380   4.953   1.420   4.666 -0.7703  0.6534 -0.3502
  139TIP3    H1  381   5.048   1.435   4.665 -0.4014 -1.1436 -2.9924
  139TIP3    H2  382   4.916   1.493   4.616 -0.6699  0.8064 -0.2019
  140TIP3   OH2  383   4.708   1.482   2.667  0.2716 -0.1198 -0.6976
  140TIP3    H1  384   4.680   1.529   2.589 -0.3836  0.8356  0.0813
  140TIP3    H2  385   4.672   1.394   2.656 -1.1738  0.4468 -0.7755
  141TIP3   OH2  386   6.673   2.323   3.237  0.4245  0.3324 -0.2731
  141TIP3    H1  387   6.715   2.313   3.323  0.1071  1.3884  0.0201
  141TIP3    H2  388   6.655   2.233   3.209 -2.9342 -0.0998  2.4897
  142TIP3   OH2  389   3.480   0.004   0.960  0.4558  0.8291  0.1779
  142TIP3    H1  390   3.507   0.040   0.876 -0.7891 -1.3449 -1.2294
  142TIP3    H2  391   3.384   0.000   0.954  0.4692 -1.7107  0.6178
  143TIP3   OH2  392   3.206   3.969   1.759 -0.1735  0.2757 -0.3426
  143TIP3    H1  393   3.222   3.962   1.853 -1.9789  1.9843  0.1600
  143TIP3    H2  394   3.204   4.063   1.741 -2.3117  0.0858 -1.5633
  144TIP3   OH2  395   6.458   1.524   5.234 -0.0663 -0.7841  0.2422
  144TIP3    H1  396   6.482   1.526   5.327  0.9444 -2.9095  0.1008
  144TIP3    H2  397   6.478   1.611   5.202  2.0785 -0.7595  1.4759
  145TIP3   OH2  398   5.605   6.541   2.073 -0.2318 -0.0765  0.2685
  145TIP3    H1  399   5.685   6.590   2.056 -0.2339 -0.8953 -2.5822
  145TIP3    H2  400   5.535   6.607   2.072  0.1050  0.2724 -0.1014
  146TIP3   OH2  401   3.289   4.542   2.987 -0.1841  0.7110  0.2839
  146TIP3    H1  402   3.205   4.558   3.031 -0.4933  1.2935 -0.4958
  146TIP3    H2  403   3.332   4.476   3.042 -0.1864  2.0148  1.9204
  147TIP3   OH2  404   3.865   4.954   1.898  0.2435 -1.2952 -0.1483
  147TIP3    H1  405   3.815   4.917   1.826  0.0022 -0.9031 -0.1857
  147TIP3    H2  406   3.945   4.987   1.858  0.2482 -1.3564 -0.1885
  148TIP3   OH2  407   5.071   1.383   0.647 -0.1171  0.3382  0.5122
  148TIP3    H1  408   5.095   1.325   0.575 -0.1207 -0.2102  0.9497
  148TIP3    H2  409   5.063   1.469   0.606  2.5349  0.5830  0.2897
  149TIP3   OH2  410   7.020   1.974   1.147  0.3865 -0.4796 -0.1223
  149TIP3    H1  411   7.001   2.020   1.229 -0.7404 -1.0955 -0.0206
  149TIP3    H2  412   6.956   1.903   1.144  1.3167 -1.3118 -0.8619
  150TIP3   OH2  413   4.892   5.529   3.244 -0.2528 -0.3803  0.1274
  150TIP3    H1  414   4.822   5.594   3.254  0.3962  0.3732 -0.1055
  150TIP3    H2  415   4.938   5.530   3.328 -0.1315 -0.4103  0.0616
  151TIP3   OH2  416   2.300   2.426   1.596  0.6985 -0.0953  0.3348
  151TIP3    H1  417   2.391   2.418   1.626  1.0673  0.9696 -0.4331
  151TIP3    H2  418   2.283   2.520   1.595  0.2189 -0.1692 -1.2731
  152TIP3   OH2  419   1.334   5.324   0.458 -0.3847 -0.1215 -0.6730
  152TIP3    H1  420   1.265   5.375   0.500 -0.0498 -0.7312  0.6752
  152TIP3    H2  421   1.405   5.387   0.442 -0.2535 -0.0013  0.3174
  153TIP3   OH2  422   5.201   2.317   3.051 -0.4001 -0.5382 -0.0064
  153TIP3    H1  423   5.254   2.390   3.082 -1.6369  0.3122  0.1627
  153TIP3    H2  424   5.201   2.254   3.124 -1.3262  0.3888  0.8204
  154TIP3   OH2  425   0.060   6.461   0.780  0.1750  0.9794  0.3405
  154TIP3    H1  426   0.005   6.516   0.836 -0.0377 -0.4562  1.6222
  154TIP3    H2  427   0.003   6.439   0.706  0.2207  2.3404 -0.1135
  155TIP3   OH2  428   4.274   1.641   4.456 -0.4025 -0.4791 -0.1768
  155TIP3    H1  429   4.310   1.655   4.368 -0.6767  0.7703 -0.1006
  155TIP3    H2  430   4.207   1.574   4.444 -1.6774  0.9288 -1.2608
  156TIP3   OH2  431   2.463   3.713   1.580  0.2758 -0.6402  0.1578
  156TIP3    H1  432   2.519   3.636   1.575  1.2441 -0.0531  1.2848
  156TIP3    H2  433   2.394   3.698   1.515  0.5102 -2.3797  0.2683
  157TIP3   OH2  434   7.076   1.069   3.500 -0.7304  0.0522  0.1561
  157TIP3    H1  435   7.102   1.116   3.420  0.2234 -0.8915 -0.1123
  157TIP3    H2  436   7.000   1.118   3.532 -1.9466 -0.2411 -2.0154
  158TIP3   OH2  437   1.823   4.944   3.817  0.2831  0.3154 -0.2045
  158TIP3    H1  438   1.736   4.934   3.778  0.4014 -1.5200 -0.0960
  158TIP3    H2  439   1.809   4.928   3.910  0.8016 -0.5206 -0.2619
  159TIP3   OH2  440   5.403   0.435   5.132  0.1071  0.2160  0.2362
  159TIP3    H1  441   5.454   0.425   5.052 -2.1008 -0.3198 -1.2040
  159TIP3    H2  442   5.450   0.501   5.183  0.4234  2.3250 -2.5399
  160TIP3   OH2  443   3.791   5.333   0.587 -0.4637  0.6135 -0.2380
  160TIP3    H1  444   3.813   5.244   0.561  0.4362  0.6852  0.2509
  160TIP3    H2  445   3.700   5.345   0.558 -0.7381 -0.6047  0.0943
  161TIP3   OH2  446   3.360   0.721   2.190  0.2277 -0.0083  0.2026
  161TIP3    H1  447   3.421   0.702   2.261  0.5957  0.6527  0.0718
  161TIP3    H2  448   3.281   0.752   2.235  0.0032 -0.7935  0.3684
  162TIP3   OH2  449   1.651   3.742   5.148  0.3631  0.4852  0.0650
  162TIP3    H1  450   1.580   3.718   5.087  0.9874 -2.8266  0.4691
  162TIP3    H2  451   1.730   3.704   5.109  1.5938  2.1765  0.7753
  163TIP3   OH2  452   3.781   4.647   5.389 -0.6090 -0.2187  0.2452
  163TIP3    H1  453   3.826   4.683   5.313 -1.2898  2.5132  1.0353
  163TIP3    H2  454   3.688   4.649   5.366 -0.7767  0.0483  0.9158
  164TIP3   OH2  455   6.692   5.552   1.582 -0.0287  0.2879 -0.2465
  164TIP3    H1  456   6.692   5.457   1.569  1.7068  0.5974 -3.4370
  164TIP3    H2  457   6.603   5.572   1.612 -1.1093 -2.1234 -1.5454
  165TIP3   OH2  458   1.441   2.289   4.414 -0.4358 -0.7985  0.4348
  165TIP3    H1  459   1.469   2.275   4.323 -0.5493 -0.2928  0.3209
  165TIP3    H2  460   1.522   2.310   4.460 -0.6554  1.2511 -0.0084
  166TIP3   OH2  461   6.991   3.121   5.838  0.0184  0.1049  0.1676
  166TIP3    H1  462   6.924   3.178   5.801  0.8403 -0.6799 -2.8791
  166TIP3    H2  463   6.943   3.047   5.873 -0.8519  1.0066  0.9320
  167TIP3   OH2  464   1.778   1.961   4.401 -0.3382  0.0365 -0.0336
  167TIP3    H1  465   1.726   1.929   4.475  0.2656 -1.4825 -0.2185
  167TIP3    H2  466   1.736   1.923   4.324  1.4772 -1.9843 -0.1300
  168TIP3   OH2  467   6.596   4.034   4.343 -0.2341  0.4885  0.2895
  168TIP3    H1  468   6.598   4.110   4.401  1.9240 -1.0549  2.4253
  168TIP3    H2  469   6.684   4.028   4.307 -0.4829 -0.7642 -0.1626
  169TIP3   OH2  470   0.660   3.479   5.116  0.2722  0.4660  0.8841
  169TIP3    H1  471   0.614   3.558   5.085 -0.8666 -0.3313  0.4747
  169TIP3    H2  472   0.644   3.477   5.210 -0.4413  0.2712  0.7656
  170TIP3   OH2  473   1.973   3.780   0.940 -0.2912 -0.9932  0.1912
  170TIP3    H1  474   2.029   3.837   0.992  0.0965 -0.7511 -0.4697
  170TIP3    H2  475   2.033   3.737   0.879 -0.9057 -0.0240 -1.1597
  171TIP3   OH2  476   3.860   0.178   2.656  0.3130 -0.0875  0.4907
  171TIP3    H1  477   3.856   0.215   2.568 -0.0055 -0.7401  0.2271
  171TIP3    H2  478   3.882   0.086   2.643 -2.0471 -0.7904  0.9296
  172TIP3   OH2  479   0.071   3.301   5.513  0.3775  0.1392 -0.3895
  172TIP3    H1  480   0.140   3.365   5.534 -0.7463  1.0525  0.6339
  172TIP3    H2  481  -0.010   3.352   5.514 -0.8610 -1.6077  2.5724
  173TIP3   OH2  482   1.142   1.253   2.319 -0.4250 -0.0920 -0.1359
  173TIP3    H1  483   1.181   1.186   2.375  0.6836 -0.1079 -0.8866
  173TIP3    H2  484   1.188   1.333   2.341 -1.8377  0.4892  0.8508
  174TIP3   OH2  485   6.222   2.836   2.295  0.4773 -0.1564  0.2429
  174TIP3    H1  486   6.156   2.905   2.299  0.3099 -0.2638 -0.4301
  174TIP3    H2  487   6.218   2.793   2.381 -0.4625 -0.2789  0.1472
  175TIP3   OH2  488   6.639   3.792   1.640 -0.0527  0.7400  0.2494
  175TIP3    H1  489   6.641   3.710   1.689  1.6842 -0.1006 -1.1019
  175TIP3    H2  490   6.711   3.843   1.676 -0.4626  1.2367  0.3726
  176TIP3   OH2  491   5.790   5.548   0.862 -0.2613  0.1924 -0.5167
  176TIP3    H1  492   5.841   5.469   0.880  0.2814  0.8206  0.8241
  176TIP3    H2  493   5.798   5.600   0.942 -1.7464  0.9976 -0.8602
  177TIP3   OH2  494   1.635   4.754   4.412  0.0366 -0.2288 -0.1926
  177TIP3    H1  495   1.607   4.733   4.323 -0.4096 -1.3621  0.1960
  177TIP3    H2  496   1.554   4.754   4.464  0.4203 -0.7835  0.4284
  178TIP3   OH2  497   3.578   5.987   1.355 -0.9174  0.1493  0.4802
  178TIP3    H1  498   3.673   5.993   1.361 -0.7861 -0.4578 -0.6911
  178TIP3    H2  499   3.546   6.055   1.415  0.2555  1.1594  0.0084
  179TIP3   OH2  500   4.019   6.745   4.274  0.1802 -0.1825 -0.3426
  179TIP3    H1  501   4.104   6.772   4.240  0.4668  1.3912  1.4696
  179TIP3    H2  502   3.956   6.783   4.213  0.7166  0.5623 -0.4461
  180TIP3   OH2  503   6.636   3.967   3.324  0.5184  0.9569 -0.1254
  180TIP3    H1  504   6.588   3.904   3.379  0.6873  0.7460 -0.2190
  180TIP3    H2  505   6.567   4.016   3.278  0.3862  0.8277 -0.0668
  181TIP3   OH2  506   2.459   6.076   1.954 -0.1161  0.1075  0.4461
  181TIP3    H1  507   2.535   6.090   2.010  0.4891  0.5620 -0.4707
  181TIP3    H2  508   2.492   6.022   1.882 -0.8106 -0.2150  0.3639
  182TIP3   OH2  509   3.037   1.753   5.292 -1.0571 -1.0853 -0.3787
  182TIP3    H1  510   3.023   1.824   5.354  2.2836 -0.9121  0.3542
  182TIP3    H2  511   3.012   1.790   5.207  0.0392  0.8174  0.0627
  183TIP3   OH2  512   3.481   3.241   0.716  0.0599 -0.2002 -0.3211
  183TIP3    H1  513   3.461   3.192   0.796 -1.0384  0.5697 -0.1018
  183TIP3    H2  514   3.456   3.182   0.645  1.1874 -0.9503 -0.1203
  184TIP3   OH2  515   4.910   4.396   2.971 -0.3351 -0.2105 -0.0709
  184TIP3    H1  516   4.945   4.317   2.928 -0.0258  0.0993 -0.3953
  184TIP3    H2  517   4.902   4.371   3.063 -1.5521 -1.0639 -0.3883
  185TIP3   OH2  518   3.596   4.316   5.163 -0.7113  0.0897 -0.0938
  185TIP3    H1  519   3.628   4.340   5.077 -0.1786 -2.5486 -0.7095
  185TIP3    H2  520   3.670   4.274   5.207 -0.8492  1.6892  1.8559
  186TIP3   OH2  521   2.937   1.223   0.442 -0.0362  0.1519 -0.1694
  186TIP3    H1  522   2.885   1.156   0.397 -1.6020  1.1843  0.0377
  186TIP3    H2  523   2.888   1.304   0.430  1.4759  1.1581  0.1730
  187TIP3   OH2  524   4.093   6.104   4.165 -0.3129  0.0456  0.5283
  187TIP3    H1  525   4.124   6.078   4.252  0.6280  1.8428  0.7862
  187TIP3    H2  526   4.000   6.082   4.164  0.1353 -2.0608  1.1347
  188TIP3   OH2  527   6.160   0.283   4.725  0.0645 -0.0386 -0.1909
  188TIP3    H1  528   6.148   0.274   4.820  1.9978  1.2284  0.2424
  188TIP3    H2  529   6.091   0.344   4.699 -0.5910 -0.5249  0.3731
  189TIP3   OH2  530   2.151   3.833   4.927 -0.3905  0.0295  0.2214
  189TIP3    H1  531   2.242   3.850   4.949 -1.0220  1.0928  2.4112
  189TIP3    H2  532   2.117   3.919   4.901 -0.9027 -0.2307  0.0184
  190TIP3   OH2  533   3.660   5.007   1.434 -0.9166 -0.8741 -0.0452
  190TIP3    H1  534   3.747   4.968   1.424 -0.0982  0.9942 -0.6905
  190TIP3    H2  535   3.643   5.004   1.529  1.2704  1.5174  0.5125
  191TIP3   OH2  536   0.788   1.977   0.684 -0.5543 -0.3555 -0.2693
  191TIP3    H1  537   0.786   2.070   0.660 -1.1792 -0.4028 -0.4018
  191TIP3    H2  538   0.876   1.964   0.719 -0.1417  0.0754 -1.1036
  192TIP3   OH2  539   6.761   1.903   2.236  0.0818 -0.1276 -0.0907
  192TIP3    H1  540   6.839   1.947   2.271 -0.3772 -0.2371  1.1293
  192TIP3    H2  541   6.696   1.913   2.305 -1.2742  0.6962 -1.4294
  193TIP3   OH2  542   5.980   2.817   3.316  0.4082 -0.1641 -0.4157
  193TIP3    H1  543   5.948   2.757   3.249  1.1863 -1.1335  0.0501
  193TIP3    H2  544   6.066   2.782   3.341  0.0880  0.0928  1.1714
  194TIP3   OH2  545   5.427   4.084   0.107  0.4088 -0.0465  0.3789
  194TIP3    H1  546   5.432   4.022   0.034 -1.5609  0.0838  0.0727
  194TIP3    H2  547   5.388   4.162   0.068  0.5374  0.4885  1.3096
  195TIP3   OH2  548   5.389   0.373   4.791 -0.8134 -0.2943 -0.1105
  195TIP3    H1  549   5.327   0.362   4.863 -0.3103  0.6005  0.4871
  195TIP3    H2  550   5.462   0.315   4.813  0.0032  1.0578  0.9020
  196TIP3   OH2  551   0.353   2.754   4.444  0.2179 -0.2856  0.0200
  196TIP3    H1  552   0.400   2.838   4.447  2.4386 -1.4368 -0.6400
  196TIP3    H2  553   0.261   2.779   4.436  0.7589  2.0879  0.4187
  197TIP3   OH2  554   1.951   1.578   5.526 -0.3533  0.5357 -0.4319
  197TIP3    H1  555   1.999   1.630   5.461 -1.1055  1.2698 -0.4195
  197TIP3    H2  556   1.963   1.625   5.608 -1.2211  0.8275 -0.4601
  198TIP3   OH2  557   0.057   2.196   2.374 -0.5946 -0.0406 -0.0274
  198TIP3    H1  558   0.130   2.135   2.363 -1.9402 -1.7736  0.2352
  198TIP3    H2  559   0.054   2.245   2.292  1.4583  0.7998  0.3335
  199TIP3   OH2  560   6.855   2.792   5.284 -0.1035 -0.2504  0.5737
  199TIP3    H1  561   6.913   2.867   5.294  0.4252 -0.8235  2.1357
  199TIP3    H2  562   6.767   2.828   5.290  0.1387  0.2727  1.0419
  200TIP3   OH2  563   6.910   5.345   4.147  0.2499  0.0805  0.4445
  200TIP3    H1  564   6.867   5.325   4.064  1.3730 -0.3849 -0.0531
  200TIP3    H2  565   6.943   5.260   4.177  2.8295  0.7002 -0.3830
  201TIP3   OH2  566   0.165   3.622   0.308  0.4435 -0.3591  0.5277
  201TIP3    H1  567   0.239   3.566   0.329  0.9101 -0.5175 -1.3274
  201TIP3    H2  568   0.094   3.561   0.287 -0.1928 -0.2085  2.1125
  202TIP3   OH2  569   1.925   6.290   3.110  0.4938  0.2391  0.0322
  202TIP3    H1  570   1.981   6.300   3.187 -0.3136  0.8572  0.5620
  202TIP3    H2  571   1.974   6.333   3.039  1.0388  0.0679  0.3004
  203TIP3   OH2  572   3.941   4.522   0.741  0.4383  0.6170 -0.2683
  203TIP3    H1  573   3.902   4.556   0.660 -1.4666  1.0270  0.7717
  203TIP3    H2  574   3.940   4.427   0.730 -0.2700  0.6501 -0.5329
  204TIP3   OH2  575   2.191   2.434   0.479 -0.1094 -0.2242  0.0532
  204TIP3    H1  576   2.201   2.524   0.447  0.3068  0.1152  1.0922
  204TIP3    H2  577   2.274   2.392   0.456 -0.0811 -0.1826  0.0802
  205TIP3   OH2  578   2.011   6.132   2.605  0.1364 -0.2758  0.1359
  205TIP3    H1  579   2.006   6.059   2.543 -1.6172  1.7835 -2.3597
  205TIP3    H2  580   1.933   6.185   2.586  1.8994  2.8776  0.9851
  206TIP3   OH2  581   0.357   3.170   5.665 -0.1706 -0.2251 -0.1985
  206TIP3    H1  582   0.352   3.087   5.619 -0.2331  0.2441 -1.0671
  206TIP3    H2  583   0.411   3.225   5.609  1.9979 -0.4294  1.5398
  207TIP3   OH2  584   6.497   3.498   4.206 -0.2300  0.2915  0.3638
  207TIP3    H1  585   6.537   3.477   4.122 -0.7471  1.9921 -0.3639
  207TIP3    H2  586   6.572   3.512   4.264  0.1751  0.4347 -0.1777
  208TIP3   OH2  587   0.316   6.742   3.007  0.3413 -0.1102  0.2908
  208TIP3    H1  588   0.296   6.696   2.926 -2.3221  2.8853 -1.0065
  208TIP3    H2  589   0.410   6.758   3.003  0.2928  0.0732 -2.3740
  209TIP3   OH2  590   2.829   3.645   1.119  0.3690  0.2349 -0.2214
  209TIP3    H1  591   2.898   3.597   1.164  0.1783  0.3747  0.2261
  209TIP3    H2  592   2.769   3.672   1.189 -1.8846 -2.6395 -0.7864
  210TIP3   OH2  593   1.847   2.147   3.448  0.1195 -0.0292  0.4108
  210TIP3    H1  594   1.844   2.053   3.463 -1.9899  0.1071  1.2610
  210TIP3    H2  595   1.911   2.180   3.511 -1.6907 -0.5530  2.6331
  211TIP3   OH2  596   6.357   4.253   5.121  0.1864  0.9238  0.0017
  211TIP3    H1  597   6.340   4.259   5.027  0.8764  0.0259 -0.1909
  211TIP3    H2  598   6.290   4.309   5.161  0.6211  2.2600 -1.0801
  212TIP3   OH2  599   2.327   4.663   0.719 -0.2405 -0.7535 -0.0980
  212TIP3    H1  600   2.239   4.695   0.700 -1.1220 -3.3955 -0.8902
  212TIP3    H2  601   2.313   4.585   0.772  1.7192 -0.5133  0.8478
  213TIP3   OH2  602   4.438   1.017   1.171  0.2704 -0.7672 -0.1878
  213TIP3    H1  603   4.370   1.004   1.236  0.8916 -2.2909  0.2195
  213TIP3    H2  604   4.450   1.112   1.166 -1.7478 -0.4667 -0.1812
  214TIP3   OH2  605   6.885   2.589   0.185 -0.0345  0.0246 -0.1143
  214TIP3    H1  606   6.852   2.565   0.272 -1.1829  0.1332 -0.5079
  214TIP3    H2  607   6.857   2.679   0.172  0.5543  0.1712 -0.4112
  215TIP3   OH2  608   3.519   6.273   0.037  0.2054  0.1266  0.3942
  215TIP3    H1  609   3.435   6.319   0.031 -1.1464 -2.3463 -1.8369
  215TIP3    H2  610   3.575   6.318  -0.027 -0.4079 -0.0189 -0.2573
  216TIP3   OH2  611   3.319   1.188   4.226 -0.2551 -0.2911  0.3193
  216TIP3    H1  612   3.397   1.143   4.258 -1.2287 -1.8434  0.6471
  216TIP3    H2  613   3.286   1.235   4.303  0.5444  0.6691  0.0841
  217TIP3   OH2  614   1.227   1.647   2.760 -0.4249 -0.4963 -0.2495
  217TIP3    H1  615   1.201   1.572   2.707  1.7967 -1.0819 -0.5747
  217TIP3    H2  616   1.219   1.722   2.701 -0.1139 -0.8432 -0.7413
  218TIP3   OH2  617   4.028   1.902   4.003 -0.4330  0.1937 -0.1126
  218TIP3    H1  618   3.980   1.982   3.980 -1.0736 -0.4726 -1.1704
  218TIP3    H2  619   3.981   1.832   3.958 -0.1862 -0.8613  1.1914
  219TIP3   OH2  620   1.303   4.873   0.854  0.1975 -0.0523 -0.1519
  219TIP3    H1  621   1.294   4.796   0.797 -0.6633  0.0762 -0.1975
  219TIP3    H2  622   1.361   4.932   0.806 -0.5221  0.0594 -0.9121
  220TIP3   OH2  623   6.389   0.547   4.393  0.3674 -0.0010  0.2107
  220TIP3    H1  624   6.395   0.491   4.470  1.4912  0.4877  0.5016
  220TIP3    H2  625   6.359   0.489   4.323 -2.4793 -0.0836  1.3604
  221TIP3   OH2  626   1.877   1.539   0.869  0.8537  0.5805  0.6424
  221TIP3    H1  627   1.948   1.480   0.894  1.1350  0.0852 -1.1498
  221TIP3    H2  628   1.848   1.507   0.783 -0.7148  1.5234  0.7754
  222TIP3   OH2  629   0.381   4.027   0.080 -0.0132 -0.0058  0.3751
  222TIP3    H1  630   0.353   3.936   0.074  0.2689 -0.0228 -0.9900
  222TIP3    H2  631   0.474   4.025   0.056 -0.0148  0.6386  0.2970
  223TIP3   OH2  632   0.384   5.701   0.401 -0.3765 -0.1581 -0.6045
  223TIP3    H1  633   0.377   5.606   0.410  0.2999 -0.0293  1.8665
  223TIP3    H2  634   0.476   5.716   0.378 -0.5051 -0.0714 -1.0923
  224TIP3   OH2  635   4.001   0.249   2.396 -0.4350  0.6076  0.1961
  224TIP3    H1  636   4.057   0.303   2.452  1.4930 -1.1736  0.1072
  224TIP3    H2  637   4.005   0.162   2.435 -0.7407 -0.2211 -1.5266
  225TIP3   OH2  638   3.375   6.138   1.815 -0.0500  0.1111  0.2025
  225TIP3    H1  639   3.343   6.206   1.875  0.7120  0.2358  0.4750
  225TIP3    H2  640   3.470   6.141   1.823 -0.0133 -2.1316  1.5098
  226TIP3   OH2  641   1.621   2.852   5.382  0.3751  0.1562 -0.2219
  226TIP3    H1  642   1.529   2.866   5.359 -0.1965 -0.1658  1.6780
  226TIP3    H2  643   1.629   2.757   5.388  1.2204  0.1072 -1.7136
  227TIP3   OH2  644   3.971   2.206   1.493  0.0445 -0.0364 -0.5208
  227TIP3    H1  645   4.064   2.228   1.494 -0.1397  0.7484 -0.6747
  227TIP3    H2  646   3.969   2.112   1.472  0.7858 -0.0039 -0.7555
  228TIP3   OH2  647   2.587   5.984   1.058  0.4319  0.7227 -0.3465
  228TIP3    H1  648   2.616   5.954   0.972  0.1710  0.4563 -0.3462
  228TIP3    H2  649   2.523   6.053   1.040 -1.6234 -1.0775 -0.4795
  229TIP3   OH2  650   2.862   1.577   2.962 -0.0264 -0.2585  0.3008
  229TIP3    H1  651   2.923   1.551   3.032 -0.4725 -1.0253  0.4113
  229TIP3    H2  652   2.897   1.537   2.883 -0.3799 -0.7053  0.3651
  230TIP3   OH2  653   2.485   3.815   5.304 -0.4973 -0.4828 -0.6289
  230TIP3    H1  654   2.447   3.753   5.242  1.6253 -3.0159  0.3985
  230TIP3    H2  655   2.575   3.827   5.274  0.1864 -0.7346  1.1732
  231TIP3   OH2  656   1.587   0.254   5.591  0.0526 -0.1065  0.0696
  231TIP3    H1  657   1.518   0.266   5.526  0.7896 -0.5558 -0.8257
  231TIP3    H2  658   1.668   0.251   5.539  0.5264 -2.1756  0.8318
  232TIP3   OH2  659   3.382   0.248   5.568  0.0394  0.0804  0.1447
  232TIP3    H1  660   3.376   0.329   5.518 -0.1153  0.0455  0.1085
  232TIP3    H2  661   3.334   0.184   5.517  1.7057 -0.5059 -0.7722
  233TIP3   OH2  662   3.023   1.459   3.743  0.2305 -0.1861 -0.5804
  233TIP3    H1  663   2.960   1.445   3.813 -1.3333 -0.2797 -1.9419
  233TIP3    H2  664   3.053   1.371   3.720  0.8739 -0.1429  0.0522
  234TIP3   OH2  665   6.915   5.878   0.543 -0.9875  0.3675  0.0917
  234TIP3    H1  666   6.904   5.968   0.513  0.4681  0.1226 -1.3142
  234TIP3    H2  667   6.992   5.882   0.601 -1.0784  0.0672  0.2342
  235TIP3   OH2  668   2.476   0.707   2.570 -0.0570 -0.2341 -0.4346
  235TIP3    H1  669   2.422   0.660   2.507  0.0044 -1.3984  0.3467
  235TIP3    H2  670   2.545   0.748   2.517  0.0417 -1.2586 -1.1186
  236TIP3   OH2  671   0.270   2.310   1.417 -0.3897  0.5789  0.3903
  236TIP3    H1  672   0.179   2.330   1.394 -0.0309  3.0502  0.8259
  236TIP3    H2  673   0.263   2.239   1.481 -2.1692  1.8383  1.7129
  237TIP3   OH2  674   6.753   6.130   4.390  0.2284  0.2814  0.2345
  237TIP3    H1  675   6.772   6.106   4.299  1.1261  1.7289  0.0041
  237TIP3    H2  676   6.771   6.050   4.440  0.4468 -0.3247 -0.7736
  238TIP3   OH2  677   3.050   5.558   0.255 -0.1406 -0.3343 -0.2018
  238TIP3    H1  678   3.001   5.632   0.291 -1.3473 -0.8177 -0.8105
  238TIP3    H2  679   3.127   5.551   0.312 -1.5221 -0.5002  1.7175
  239TIP3   OH2  680   4.105   0.928   0.435  0.0304 -0.2148  0.4613
  239TIP3    H1  681   4.035   0.872   0.466  0.0457 -0.0737  0.7522
  239TIP3    H2  682   4.153   0.953   0.514  0.1831 -0.0104  0.3054
  240TIP3   OH2  683   3.600   2.952   2.624 -0.2389 -0.2467  0.6294
  240TIP3    H1  684   3.585   2.925   2.714  0.8818 -1.6372  0.4353
  240TIP3    H2  685   3.648   2.879   2.585 -0.6503  0.3451 -1.0788
  241TIP3   OH2  686   1.417   2.697   4.327 -0.0712  0.1699  0.2859
  241TIP3    H1  687   1.347   2.742   4.280  1.4940  2.1832 -0.2583
  241TIP3    H2  688   1.473   2.661   4.258  0.3241  0.0336  0.6739
  242TIP3   OH2  689   0.240   1.382   0.551  0.1274  0.1197  0.1528
  242TIP3    H1  690   0.267   1.471   0.575 -0.0751  0.4591 -0.8141
  242TIP3    H2  691   0.321   1.340   0.521  0.4802 -0.4718  1.8408
  243TIP3   OH2  692   5.467   3.236   2.281  0.3657 -0.1118 -0.1896
  243TIP3    H1  693   5.374   3.254   2.291  0.3338 -0.7032  0.6720
  243TIP3    H2  694   5.479   3.148   2.318  1.4622  0.4108  0.7635
  244TIP3   OH2  695   6.050   5.348   4.972 -1.1082 -0.2334 -0.1230
  244TIP3    H1  696   6.108   5.297   4.916 -0.7748  0.5024 -0.4547
  244TIP3    H2  697   5.980   5.287   4.995  0.0911 -1.3533  0.8051
  245TIP3   OH2  698   3.341   5.194   4.661  0.1763 -0.0514 -0.0676
  245TIP3    H1  699   3.268   5.249   4.635 -1.7224 -1.4559  1.8704
  245TIP3    H2  700   3.300   5.111   4.687  2.4001 -0.7687  1.4410
  246TIP3   OH2  701   4.511   5.205   2.194 -0.6118 -0.1731  0.3856
  246TIP3    H1  702   4.575   5.262   2.151 -1.8212  1.2689  0.4121
  246TIP3    H2  703   4.469   5.159   2.121  0.4645 -1.2019  0.3726
  247TIP3   OH2  704   3.558   2.098   5.642  0.2685  0.2853 -0.3007
  247TIP3    H1  705   3.591   2.011   5.620 -2.8776 -1.0417 -0.2880
  247TIP3    H2  706   3.514   2.087   5.726  0.0462  1.9747 -0.1529
  248TIP3   OH2  707   3.951   4.584   4.632 -0.1504 -0.1789  0.0650
  248TIP3    H1  708   4.028   4.599   4.686 -0.1000  0.1786 -0.1018
  248TIP3    H2  709   3.902   4.516   4.679  0.0276 -0.0689  0.4177
  249TIP3   OH2  710   0.590   0.289   2.724 -0.4764  0.2217 -0.1382
  249TIP3    H1  711   0.640   0.367   2.702 -0.1096  0.1436  0.4196
  249TIP3    H2  712   0.499   0.315   2.711 -0.2811 -0.2997 -3.4042
  250TIP3   OH2  713   6.225   4.713   5.126 -0.4701  0.4569 -0.7685
  250TIP3    H1  714   6.247   4.714   5.219 -0.3865  3.6696 -0.7102
  250TIP3    H2  715   6.294   4.660   5.086  0.2927  0.1646  0.8358
  251TIP3   OH2  716   0.167   2.026   2.638  0.0540  0.2733  0.3409
  251TIP3    H1  717   0.087   2.065   2.673  0.1988 -0.7253  1.8730
  251TIP3    H2  718   0.211   2.098   2.594 -0.7803  1.2923  1.1111
  252TIP3   OH2  719   3.225   6.626   1.450  0.2172  0.1222  0.2037
  252TIP3    H1  720   3.226   6.530   1.454  0.2462  0.1453  0.8161
  252TIP3    H2  721   3.315   6.651   1.432  0.1289  0.0205 -0.4057
  253TIP3   OH2  722   1.020   6.304   4.892 -0.6690  0.3336  0.1656
  253TIP3    H1  723   0.929   6.325   4.872  0.1011  2.6133 -1.3528
  253TIP3    H2  724   1.038   6.353   4.972 -0.5321  0.5787 -0.0162
  254TIP3   OH2  725   4.515   4.140   5.481 -0.4275  0.1136  0.0501
  254TIP3    H1  726   4.536   4.059   5.527  0.9583  1.1925  1.4377
  254TIP3    H2  727   4.566   4.136   5.400  2.1749  0.8863  1.5328
  255TIP3   OH2  728   3.253   2.587   4.415  0.2623  0.4494  0.2089
  255TIP3    H1  729   3.304   2.514   4.451  0.3843  0.3744 -0.1117
  255TIP3    H2  730   3.282   2.664   4.465 -0.7747  0.0846  1.4214
  256TIP3   OH2  731   1.521   5.177   1.132 -0.6072  0.1493 -0.2958
  256TIP3    H1  732   1.508   5.255   1.078  1.0717 -0.2838 -1.3637
  256TIP3    H2  733   1.444   5.123   1.114 -1.4595  1.2299 -0.0592
  257TIP3   OH2  734   2.785   1.857   2.942 -0.0140  0.1820  0.5566
  257TIP3    H1  735   2.798   1.766   2.917  2.9095  0.4694  0.6400
  257TIP3    H2  736   2.780   1.905   2.860 -0.9289  0.0256  0.5167
  258TIP3   OH2  737   6.748   2.289   5.383 -0.2712  0.2326 -0.2980
  258TIP3    H1  738   6.818   2.225   5.381 -0.5711 -0.1385  0.4522
  258TIP3    H2  739   6.792   2.374   5.392  0.1308  0.1576 -1.4317
  259TIP3   OH2  740   7.116   3.313   1.091  0.1957  0.1735  0.0210
  259TIP3    H1  741   7.138   3.339   1.002  2.0513 -0.8209  0.1535
  259TIP3    H2  742   7.163   3.231   1.105 -0.9021 -0.2419  1.5723
  260TIP3   OH2  743   5.694   4.282   3.903 -0.0983 -0.4162 -0.0565
  260TIP3    H1  744   5.610   4.236   3.909  0.0737 -0.6019  1.0404
  260TIP3    H2  745   5.673   4.373   3.925 -0.2178 -0.1896 -1.0275
  261TIP3   OH2  746   0.822   4.942   4.999 -0.2804 -0.0435  0.1056
  261TIP3    H1  747   0.824   5.038   4.997  3.0323  0.0020  0.2053
  261TIP3    H2  748   0.834   4.917   4.907 -0.5626 -0.3810  0.1592
  262TIP3   OH2  749   5.560   1.176   5.360 -0.7711  0.2035 -0.2529
  262TIP3    H1  750   5.563   1.092   5.314 -0.5625  0.1754 -0.1863
  262TIP3    H2  751   5.628   1.229   5.319 -0.9541  0.3691 -0.3487
  263TIP3   OH2  752   2.565   1.240   2.152 -0.0264  0.1601 -0.0495
  263TIP3    H1  753   2.588   1.300   2.081 -1.0861  0.3768 -0.2307
  263TIP3    H2  754   2.490   1.281   2.194  0.0276 -0.4186  0.6307
  264TIP3   OH2  755   4.706   0.292   2.234  0.3051  0.1987  0.3261
  264TIP3    H1  756   4.728   0.344   2.311  1.7952 -1.5843  1.2037
  264TIP3    H2  757   4.791   0.260   2.201 -0.1783  1.6131 -2.6491
  265TIP3   OH2  758   5.202   4.306   1.475 -0.0909  0.6641 -0.4232
  265TIP3    H1  759   5.268   4.241   1.502 -0.1658  0.0418 -1.6980
  265TIP3    H2  760   5.249   4.365   1.416 -0.6732  0.2087 -1.3537
  266TIP3   OH2  761   6.493   1.616   3.900  0.2920 -0.2886 -0.4258
  266TIP3    H1  762   6.576   1.646   3.862  1.2056 -0.3893  1.3776
  266TIP3    H2  763   6.495   1.521   3.888  0.4936 -0.3026 -0.2902
  267TIP3   OH2  764   2.340   3.857   0.979  0.9439  0.4567  0.4711
  267TIP3    H1  765   2.324   3.788   1.043  0.4669 -0.0103 -0.1403
  267TIP3    H2  766   2.334   3.813   0.894  0.7862  1.2132  0.0793
  268TIP3   OH2  767   0.154   1.421   1.891 -0.2525 -0.7418 -0.2478
  268TIP3    H1  768   0.079   1.368   1.865  0.4930 -1.7744 -0.3686
  268TIP3    H2  769   0.229   1.374   1.856  0.7008 -1.3339  2.3753
  269TIP3   OH2  770   2.448   2.227   0.507 -0.5385 -0.7226  0.6669
  269TIP3    H1  771   2.528   2.175   0.515  0.3096  0.1145 -1.4793
  269TIP3    H2  772   2.434   2.234   0.412 -1.0176  2.2766  0.8442
  270TIP3   OH2  773   3.803   3.704   1.035 -0.1749 -0.2120  0.0127
  270TIP3    H1  774   3.821   3.636   1.099  0.8384  0.5590  0.5625
  270TIP3    H2  775   3.879   3.705   0.977 -0.9032 -0.6357 -1.0013
  271TIP3   OH2  776   1.065   4.834   0.672 -0.1589  0.2373  0.2819
  271TIP3    H1  777   1.050   4.899   0.740  0.7088 -0.4031  1.1286
  271TIP3    H2  778   0.981   4.825   0.628 -0.4364  1.5129  0.5039
  272TIP3   OH2  779   0.238   5.022   1.129 -0.0972  0.1192  1.3322
  272TIP3    H1  780   0.277   4.950   1.179 -0.0327 -1.4511 -0.8625
  272TIP3    H2  781   0.149   4.994   1.111 -0.9058  1.7400  2.5371
  273TIP3   OH2  782   0.571   3.749   3.105  0.9665  0.0600 -0.5352
  273TIP3    H1  783   0.663   3.736   3.085  1.1493 -2.5670  1.3795
  273TIP3    H2  784   0.569   3.822   3.167  1.8020 -0.0182 -0.4036
  274TIP3   OH2  785   2.681   3.777   0.234 -0.2927 -0.1491 -0.0102
  274TIP3    H1  786   2.774   3.783   0.255  0.0001  0.3134 -1.3327
  274TIP3    H2  787   2.669   3.689   0.199 -0.3357 -0.1716  0.0599
  275TIP3   OH2  788   4.335   5.609   1.625 -0.5272  0.9866 -0.1986
  275TIP3    H1  789   4.410   5.571   1.580  0.6459  1.6518  1.1109
  275TIP3    H2  790   4.370   5.687   1.669 -2.1763  1.8191 -0.2535
  276TIP3   OH2  791   2.616   4.445   5.534 -0.2517  0.0520 -0.2346
  276TIP3    H1  792   2.574   4.374   5.583 -0.4496  2.0433  2.7388
  276TIP3    H2  793   2.705   4.414   5.519 -0.0447 -0.4948  1.8657
  277TIP3   OH2  794   5.986   4.050   1.061  0.1820  0.5692 -0.1221
  277TIP3    H1  795   5.992   3.955   1.065 -2.9696  0.2419 -0.3470
  277TIP3    H2  796   6.066   4.081   1.103  0.6729 -2.1894  1.2066
  278TIP3   OH2  797   6.847   0.554   2.960 -0.7804 -0.0641 -0.0666
  278TIP3    H1  798   6.900   0.553   2.880 -0.4122  0.9273  0.1525
  278TIP3    H2  799   6.758   0.539   2.929 -0.4849 -1.0134 -0.5166
  279TIP3   OH2  800   1.843   4.492   4.354  0.7298  0.8154  0.4594
  279TIP3    H1  801   1.757   4.511   4.317  1.0005  0.9505 -0.1073
  279TIP3    H2  802   1.829   4.493   4.449 -0.0006  0.3174  0.3662
  280TIP3   OH2  803   1.224   1.560   3.928  0.0862 -0.2485 -0.1442
  280TIP3    H1  804   1.200   1.467   3.924 -1.0101 -0.0660  1.3821
  280TIP3    H2  805   1.203   1.593   3.841 -1.0304 -1.0992 -0.2253
  281TIP3   OH2  806   6.137   1.472   0.968 -0.3061 -0.1025  1.0469
  281TIP3    H1  807   6.212   1.414   0.950  0.5896  0.9425  1.2785
  281TIP3    H2  808   6.138   1.534   0.895 -2.2255 -1.2723 -0.0631
  282TIP3   OH2  809   2.810   3.177   2.968 -0.1751 -0.0981 -0.3373
  282TIP3    H1  810   2.805   3.097   2.917  0.6814 -0.6081  0.3431
  282TIP3    H2  811   2.881   3.227   2.927  0.0831 -0.2200 -0.0401
  283TIP3   OH2  812   5.211   6.089   4.352  0.1069 -0.1903 -0.2007
  283TIP3    H1  813   5.208   6.171   4.401 -0.8630  0.8201 -1.8547
  283TIP3    H2  814   5.121   6.076   4.322  0.2645 -1.8264 -0.0611
  284TIP3   OH2  815   4.146   3.988   3.122 -0.0826 -0.0843 -0.4265
  284TIP3    H1  816   4.138   3.957   3.212  1.7547 -0.2133 -0.2622
  284TIP3    H2  817   4.098   4.071   3.121  0.5260  0.3107  0.8945
  285TIP3   OH2  818   5.230   5.776   5.265 -0.8967  0.0201 -0.3146
  285TIP3    H1  819   5.257   5.736   5.347 -1.6933 -0.8518 -0.4537
  285TIP3    H2  820   5.303   5.833   5.240 -0.1547 -0.6040  0.3962
  286TIP3   OH2  821   5.816   4.480   0.663 -0.1778  0.3785  0.2360
  286TIP3    H1  822   5.771   4.513   0.741  0.0764  1.0390  0.1073
  286TIP3    H2  823   5.806   4.550   0.598  1.5691  0.8217  0.3990
  287TIP3   OH2  824   6.825   1.428   4.023 -0.2786 -0.0324  0.2442
  287TIP3    H1  825   6.877   1.387   3.954 -0.1961 -0.9301  0.8363
  287TIP3    H2  826   6.851   1.520   4.020  2.2691 -0.6438  1.3276
  288TIP3   OH2  827   6.925   0.694   3.179  0.2968  0.2031 -0.3155
  288TIP3    H1  828   6.900   0.625   3.117 -0.0881 -0.5025  0.6002
  288TIP3    H2  829   7.012   0.723   3.150  0.7419 -1.1131 -0.3367
  289TIP3   OH2  830   0.240   3.919   3.662 -0.1105  0.8409  0.4204
  289TIP3    H1  831   0.146   3.934   3.664 -0.3851 -0.5598 -0.5222
  289TIP3    H2  832   0.268   3.927   3.753 -1.1399  1.2599  0.7079
  290TIP3   OH2  833   0.037   5.283   1.127 -0.1769  0.1772  0.2364
  290TIP3    H1  834   0.112   5.279   1.186  2.0836  1.2395 -2.4006
  290TIP3    H2  835  -0.024   5.342   1.172  0.8884 -0.0196  2.0487
  291TIP3   OH2  836   6.810   6.566   2.156 -0.1692 -0.7841  0.2148
  291TIP3    H1  837   6.891   6.520   2.179 -0.4418 -1.9337 -1.0195
  291TIP3    H2  838   6.836   6.626   2.086  0.7353  2.9640  3.4147
  292TIP3   OH2  839   0.869   1.220   2.655 -0.1147  0.3590 -0.5642
  292TIP3    H1  840   0.781   1.255   2.670 -0.7862 -1.1828 -0.7442
  292TIP3    H2  841   0.927   1.283   2.698 -1.4424  0.3261  1.4418
  293TIP3   OH2  842   2.268   0.110   4.785 -0.1156  0.0890 -0.6466
  293TIP3    H1  843   2.305   0.192   4.816 -0.5518  0.0863 -0.0932
  293TIP3    H2  844   2.187   0.100   4.835 -0.0970 -0.6487 -0.7487
  294TIP3   OH2  845  -0.008   2.214   5.109 -0.5146 -0.1669 -0.5389
  294TIP3    H1  846   0.082   2.224   5.078  0.1661 -1.7992  0.7646
  294TIP3    H2  847  -0.041   2.303   5.117  0.7773  0.4361 -1.5804
  295TIP3   OH2  848   4.024   5.793   2.407 -0.3920  0.2561 -0.0872
  295TIP3    H1  849   4.017   5.817   2.500  1.1777  0.7606 -0.0712
  295TIP3    H2  850   4.086   5.856   2.371  0.7411 -1.2962 -0.9782
  296TIP3   OH2  851   3.295   2.022   4.105 -0.3956  0.3190  0.3917
  296TIP3    H1  852   3.259   2.045   4.191  0.3959 -0.1134  0.8519
  296TIP3    H2  853   3.364   2.087   4.090  1.8619 -1.6189  1.7037
  297TIP3   OH2  854   4.331   2.236   5.545 -0.0350  0.0352 -0.8753
  297TIP3    H1  855   4.320   2.258   5.452 -0.7952  0.2426 -0.7456
  297TIP3    H2  856   4.261   2.172   5.562 -0.1046  0.2483 -0.3679
  298TIP3   OH2  857   6.451   1.994   0.107  0.0414  0.5356 -0.1373
  298TIP3    H1  858   6.424   2.077   0.069  0.5332  1.2077  0.9185
  298TIP3    H2  859   6.393   1.929   0.068 -1.1347  1.5371 -0.0925
  299TIP3   OH2  860   6.626   3.441   3.967 -0.1991 -0.1729 -0.5920
  299TIP3    H1  861   6.695   3.386   3.930  1.8736  1.1952  1.0176
  299TIP3    H2  862   6.602   3.501   3.897 -0.4325 -1.2205 -1.4419
  300TIP3   OH2  863   1.276   1.510   0.457  0.3615 -0.5858 -0.7955
  300TIP3    H1  864   1.215   1.454   0.505 -0.4703  1.2450  0.3390
  300TIP3    H2  865   1.347   1.527   0.518  1.6404 -1.9784 -1.8156
  301TIP3   OH2  866   2.040   3.722   5.389  0.4281 -0.1935  0.4021
  301TIP3    H1  867   1.946   3.714   5.399  0.6499 -1.1807  2.0715
  301TIP3    H2  868   2.076   3.643   5.428  1.9240 -0.5861 -1.5584
  302TIP3   OH2  869   3.131   0.615   1.948 -0.0655 -0.0596 -0.3079
  302TIP3    H1  870   3.064   0.649   1.888 -0.0950 -0.6476 -0.6210
  302TIP3    H2  871   3.097   0.635   2.035 -0.5113 -0.0940 -0.4668
  303TIP3   OH2  872   5.796   3.259   2.531 -0.0698 -0.3875  0.0564
  303TIP3    H1  873   5.737   3.297   2.596  0.2018  0.0686  0.0467
  303TIP3    H2  874   5.786   3.165   2.541  0.2222 -0.3326  1.0081
  304TIP3   OH2  875   7.184   4.594   1.498 -0.5053  0.2923  0.2093
  304TIP3    H1  876   7.172   4.617   1.590 -1.2455  0.4155  0.0901
  304TIP3    H2  877   7.134   4.660   1.450 -0.1386  0.2161 -0.2824
  305TIP3   OH2  878   1.315   1.984   1.572  0.5382  0.5244  0.2883
  305TIP3    H1  879   1.274   2.006   1.489 -0.9385  1.3759  1.1951
  305TIP3    H2  880   1.337   1.891   1.564  0.4385  0.5939 -1.0291
  306TIP3   OH2  881   0.460   1.340   5.794 -0.2778 -0.2397  0.2791
  306TIP3    H1  882   0.484   1.415   5.849 -1.4649  0.5559 -0.2517
  306TIP3    H2  883   0.364   1.335   5.801 -0.2619 -1.4059 -0.0998
  307TIP3   OH2  884   2.099   6.183   4.310  0.0371 -0.0464  0.2384
  307TIP3    H1  885   2.114   6.136   4.229 -0.2968 -1.1103  0.7828
  307TIP3    H2  886   2.183   6.180   4.356  0.2618  0.6645 -0.1085
  308TIP3   OH2  887   1.923   5.799   4.420  0.0162 -0.0823 -0.4123
  308TIP3    H1  888   2.013   5.795   4.388  0.2845 -1.3498  0.4191
  308TIP3    H2  889   1.932   5.828   4.511 -0.2068 -2.2254  0.3383
  309TIP3   OH2  890   0.539   4.364   3.122  0.6580 -0.5438 -0.1374
  309TIP3    H1  891   0.567   4.391   3.035  0.0928 -0.6704 -0.3667
  309TIP3    H2  892   0.444   4.352   3.114  0.6920 -1.1949  0.3261
  310TIP3   OH2  893   3.156   6.708   3.286  0.3948  0.0562  0.0739
  310TIP3    H1  894   3.066   6.733   3.306  0.8572  2.5282 -0.5846
  310TIP3    H2  895   3.207   6.736   3.362  0.9066  0.9830 -0.5831
  311TIP3   OH2  896   5.277   4.777   2.537  0.0299  0.1216 -0.3054
  311TIP3    H1  897   5.327   4.857   2.554 -1.8862  0.9823  1.6852
  311TIP3    H2  898   5.285   4.764   2.442  2.5207  1.1560 -0.3199
  312TIP3   OH2  899   5.179   2.168   3.661  0.1135 -0.0567 -0.0552
  312TIP3    H1  900   5.227   2.121   3.729  1.2324  0.3809 -0.5150
  312TIP3    H2  901   5.193   2.116   3.582  3.2049  2.0192 -1.0792
  313TIP3   OH2  902   5.203   3.287   2.199 -0.3078 -0.6274 -0.5767
  313TIP3    H1  903   5.244   3.346   2.135 -0.0578  0.6149  0.6851
  313TIP3    H2  904   5.111   3.283   2.171 -0.4109  0.6735 -0.4805
  314TIP3   OH2  905   0.638   2.927   2.569  0.5276 -0.3637 -0.7491
  314TIP3    H1  906   0.649   3.015   2.605 -0.3652 -0.2604 -0.7014
  314TIP3    H2  907   0.546   2.906   2.584  0.5974 -1.0840 -1.2559
  315TIP3   OH2  908   0.797   5.639   0.897  0.0409  0.2713 -0.6918
  315TIP3    H1  909   0.832   5.550   0.895 -0.1064  0.2128 -0.6758
  315TIP3    H2  910   0.851   5.688   0.834  0.0674  0.1516 -0.7612
  316TIP3   OH2  911   1.790   0.042   2.084 -0.0078  0.1145  0.5326
  316TIP3    H1  912   1.884   0.022   2.090  0.1057 -0.0730 -1.3120
  316TIP3    H2  913   1.753   0.006   2.164  1.6292  1.0675  1.7850
  317TIP3   OH2  914   2.414   4.016   4.320  0.5457  0.8567 -0.0068
  317TIP3    H1  915   2.442   4.107   4.333  1.1045  0.6006  0.7070
  317TIP3    H2  916   2.496   3.967   4.312  0.3579  0.0828  2.1004
  318TIP3   OH2  917   7.160   0.749   5.114 -0.5243 -0.1338  0.3052
  318TIP3    H1  918   7.172   0.730   5.021  1.0775  1.4621  0.1550
  318TIP3    H2  919   7.122   0.668   5.149 -0.4885 -1.0305 -1.5786
  319TIP3   OH2  920   4.826   1.277   0.679  0.3847  0.2803 -0.0128
  319TIP3    H1  921   4.811   1.259   0.772  0.2902  0.2497 -0.0340
  319TIP3    H2  922   4.921   1.292   0.672  0.1438  2.2402  0.4343
  320TIP3   OH2  923   3.149   5.326   4.493  0.3471 -0.5198 -0.1010
  320TIP3    H1  924   3.097   5.251   4.464  2.7864 -2.1025 -0.7019
  320TIP3    H2  925   3.136   5.391   4.424 -0.9223 -0.7934 -0.1485
  321TIP3   OH2  926   0.799   3.231   1.270  0.3468 -0.1569  0.0881
  321TIP3    H1  927   0.847   3.191   1.342  0.1588  1.5134  1.1890
  321TIP3    H2  928   0.866   3.245   1.202  0.3326 -2.6389 -0.5326
  322TIP3   OH2  929   3.061   2.505   3.018  0.3200  0.1403  0.9166
  322TIP3    H1  930   2.977   2.538   3.048  0.9765  1.2917  1.5348
  322TIP3    H2  931   3.059   2.412   3.040 -1.8349 -0.4978 -1.4650
  323TIP3   OH2  932   4.472   6.153   0.078  0.0307  0.2833  0.6820
  323TIP3    H1  933   4.446   6.242   0.102  1.8489  0.7155  1.2602
  323TIP3    H2  934   4.473   6.152  -0.017 -4.1347 -0.4774  0.4394
  324TIP3   OH2  935   6.522   3.892   0.318  0.5569 -1.0151  0.2021
  324TIP3    H1  936   6.442   3.911   0.367  0.9067 -0.0704  0.4376
  324TIP3    H2  937   6.556   3.979   0.294 -0.2944 -1.4155 -2.8769
  325TIP3   OH2  938   6.628   2.455   4.100 -0.4383  0.4000 -0.7826
  325TIP3    H1  939   6.532   2.454   4.110 -0.7627 -1.4764 -3.2832
  325TIP3    H2  940   6.646   2.386   4.036  2.4365  2.0466 -1.8958
  326TIP3   OH2  941   0.861   4.557   2.927 -0.2163  0.2409  0.3315
  326TIP3    H1  942   0.942   4.518   2.893 -0.3342  0.6850 -0.4774
  326TIP3    H2  943   0.849   4.636   2.876 -1.6790 -0.2984 -0.2252
  327TIP3   OH2  944   5.715   3.002   4.076 -0.1083  0.3740 -0.7497
  327TIP3    H1  945   5.706   3.079   4.132 -0.7920 -0.4277  0.2926
  327TIP3    H2  946   5.805   3.005   4.045  0.1200  1.1464 -0.0609
  328TIP3   OH2  947   0.590   5.762   4.558  0.1661  0.2739 -0.8070
  328TIP3    H1  948   0.648   5.708   4.611  2.1195  2.1750 -0.8447
  328TIP3    H2  949   0.562   5.705   4.487  0.3673 -1.2941  0.3124
  329TIP3   OH2  950   5.097   1.209   0.445 -0.2375  0.0218  0.1984
  329TIP3    H1  951   5.108   1.231   0.353 -1.2564  0.5433  0.1903
  329TIP3    H2  952   5.099   1.113   0.447 -2.8436 -0.1458 -0.7654
  330TIP3   OH2  953   0.248   2.253   3.421  0.1689 -0.7492  0.0043
  330TIP3    H1  954   0.194   2.182   3.388 -0.2147 -0.2215 -0.5368
  330TIP3    H2  955   0.216   2.331   3.374 -0.7271  0.1272  1.9263
  331TIP3   OH2  956   3.825   2.252   0.724  0.5756  0.4366 -0.3514
  331TIP3    H1  957   3.828   2.172   0.672  1.9847  0.5326 -0.4668
  331TIP3    H2  958   3.734   2.282   0.718  0.5931  0.2205 -2.3992
  332TIP3   OH2  959   0.845   6.201   5.639  0.4490 -0.5510  0.6172
  332TIP3    H1  960   0.871   6.201   5.547 -0.3300  2.3144  0.3077
  332TIP3    H2  961   0.769   6.142   5.643  1.5077 -2.0361 -0.1780
  333TIP3   OH2  962   6.812   2.208   4.141 -0.5381  0.0190 -0.1838
  333TIP3    H1  963   6.871   2.235   4.211 -1.0288  0.3787  0.1010
  333TIP3    H2  964   6.837   2.263   4.066  0.0867 -0.4724 -0.3383
  334TIP3   OH2  965   1.625   0.331   0.506 -0.1221  0.2625 -0.2922
  334TIP3    H1  966   1.556   0.294   0.561  0.7846  0.2726  0.8606
  334TIP3    H2  967   1.683   0.377   0.566  0.4793  0.9283 -1.3434
  335TIP3   OH2  968   4.418   1.702   2.866 -0.1330 -1.0622 -0.3447
  335TIP3    H1  969   4.363   1.646   2.921 -0.3938 -0.0356  0.4778
  335TIP3    H2  970   4.357   1.754   2.815 -0.1498  1.9298  2.4041
  336TIP3   OH2  971   4.945   4.666   5.009 -0.1605 -0.3089  0.2106
  336TIP3    H1  972   4.885   4.699   5.076  0.1223  0.2746  0.1856
  336TIP3    H2  973   5.016   4.730   5.007 -0.3550 -0.1104 -0.9285
  337TIP3   OH2  974   4.336   5.774   5.274 -0.5421 -0.6310  0.0005
  337TIP3    H1  975   4.407   5.802   5.216 -1.1008 -0.2959 -0.5410
  337TIP3    H2  976   4.262   5.757   5.214 -1.8096  1.7633  0.7243
  338TIP3   OH2  977   3.981   3.283   0.574 -0.0648  0.4127 -0.1329
  338TIP3    H1  978   3.961   3.297   0.481 -0.9324 -1.6569 -0.3068
  338TIP3    H2  979   3.907   3.233   0.607  0.2897  1.0233  1.6715
  339TIP3   OH2  980   1.262   4.719   4.460 -0.0767  0.1084 -0.4723
  339TIP3    H1  981   1.246   4.626   4.444 -0.2415 -0.1943  1.2205
  339TIP3    H2  982   1.257   4.728   4.555  2.1937  1.4193 -0.4024
  340TIP3   OH2  983   6.015   4.511   0.414  0.1239 -0.1900 -0.4103
  340TIP3    H1  984   6.016   4.426   0.372  1.2283 -0.3657 -0.0692
  340TIP3    H2  985   6.018   4.574   0.342  1.7171 -0.4841 -0.6315
  341TIP3   OH2  986   3.776   5.016   2.147 -0.1355 -0.0592  0.0192
  341TIP3    H1  987   3.858   5.011   2.196  0.4662 -2.0961 -1.0530
  341TIP3    H2  988   3.800   4.986   2.059 -1.8850  0.0013 -0.5023
  342TIP3   OH2  989   6.566   0.584   5.594 -0.5569  0.1342  0.3582
  342TIP3    H1  990   6.540   0.495   5.618 -0.9828  0.5696  1.5768
  342TIP3    H2  991   6.484   0.630   5.578 -0.3089 -0.0180 -1.6487
  343TIP3   OH2  992   0.642   1.129   2.978  0.1382  0.2148 -0.0894
  343TIP3    H1  993   0.568   1.160   3.030  1.3271  0.5480  1.4970
  343TIP3    H2  994   0.717   1.135   3.038  1.5629  0.5064 -1.8254
  344TIP3   OH2  995   4.855   5.612   1.117 -0.2349  0.1680  0.3186
  344TIP3    H1  996   4.915   5.674   1.076  0.3890  0.0496  1.0460
  344TIP3    H2  997   4.776   5.615   1.061  0.4874  0.2075 -0.7324
  345TIP3   OH2  998   7.057   3.746   5.167  0.3555 -0.2835 -0.1997
  345TIP3    H1  999   6.993   3.693   5.213 -0.5339 -1.1848 -2.3388
  345TIP3    H2 1000   7.062   3.707   5.079  2.4905  0.8751 -0.6585
  346TIP3   OH2 1001   2.346   2.647   0.895 -0.1688 -0.3465  0.1432
  346TIP3    H1 1002   2.368   2.598   0.974  0.2146  2.2381  1.7753
  346TIP3    H2 1003   2.254   2.668   0.904  0.0985  0.7643  0.4078
  347TIP3   OH2 1004   6.319   0.833   2.158 -0.4451  0.7888  0.1231
  347TIP3    H1 1005   6.267   0.897   2.207  0.3220  1.8479 -0.4032
  347TIP3    H2 1006   6.409   0.847   2.190 -0.2350  0.1366 -0.1761
  348TIP3   OH2 1007   3.950   6.253   1.432 -0.0007 -0.3773  0.1308
  348TIP3    H1 1008   3.912   6.229   1.347  0.1425  0.0297 -0.0493
  348TIP3    H2 1009   3.937   6.175   1.486  1.7568 -1.4091 -0.8594
  349TIP3   OH2 1010   5.307   0.275   1.666 -0.2406 -0.2330  0.7027
  349TIP3    H1 1011   5.357   0.299   1.588  0.3169 -2.0220  0.4701
  349TIP3    H2 1012   5.366   0.219   1.716 -1.0175 -0.0692  1.8370
  350TIP3   OH2 1013   5.016   2.166   5.136  0.3025 -0.0797  0.1560
  350TIP3    H1 1014   4.969   2.095   5.091 -0.7320 -0.0813  1.2101
  350TIP3    H2 1015   4.972   2.175   5.220  0.7307  1.5056  0.2369
  351TIP3   OH2 1016   5.386   5.070   2.057 -0.0277  0.0301 -0.9708
  351TIP3    H1 1017   5.384   5.088   2.151  1.9570  0.0256 -0.8766
  351TIP3    H2 1018   5.297   5.044   2.035 -1.2114  2.5854  0.3676
  352TIP3   OH2 1019   6.566   1.357   2.743  0.1926  0.2311 -0.6070
  352TIP3    H1 1020   6.492   1.354   2.682 -0.9795 -0.1058  0.7709
  352TIP3    H2 1021   6.530   1.397   2.823  1.1466 -1.1046  0.5477
  353TIP3   OH2 1022   1.828   6.623   2.853  0.3304 -0.4804 -0.0004
  353TIP3    H1 1023   1.863   6.535   2.848  0.6511 -0.3652  0.1966
  353TIP3    H2 1024   1.905   6.679   2.867 -0.0841 -0.3865  2.1650
  354TIP3   OH2 1025   0.098   1.634   5.204 -0.1497  0.3821  0.0482
  354TIP3    H1 1026   0.095   1.587   5.287 -2.1248 -0.5925 -0.5312
  354TIP3    H2 1027   0.026   1.696   5.208  0.9283  1.6794 -0.1882
  355TIP3   OH2 1028   4.339   4.901   4.206 -0.2955  0.3317 -0.1420
  355TIP3    H1 1029   4.337   4.916   4.111 -1.3227 -0.3775 -0.2419
  355TIP3    H2 1030   4.306   4.983   4.243 -0.7470  0.2899 -0.4418
  356TIP3   OH2 1031   4.690   2.920   0.097 -0.1411 -0.0929 -0.2727
  356TIP3    H1 1032   4.710   3.013   0.105  1.4057 -0.0124 -3.5196
  356TIP3    H2 1033   4.747   2.877   0.161 -1.5733  1.1503  1.9575
  357TIP3   OH2 1034   1.502   1.347   2.849 -0.8497  0.2930  0.1592
  357TIP3    H1 1035   1.526   1.437   2.827  1.1496 -0.3666 -0.6496
  357TIP3    H2 1036   1.586   1.303   2.864 -1.7424 -1.5307  0.1051
  358TIP3   OH2 1037   5.433   1.753   2.294 -0.4582 -0.4737  0.2390
  358TIP3    H1 1038   5.422   1.672   2.345  1.3895  0.2617  1.9722
  358TIP3    H2 1039   5.424   1.823   2.359 -0.5302  0.6463 -0.9505
  359TIP3   OH2 1040   0.794   6.234   0.578 -0.7085 -0.2867  0.1744
  359TIP3    H1 1041   0.702   6.257   0.593 -0.5819  0.0939  0.3887
  359TIP3    H2 1042   0.797   6.204   0.487 -0.9660  0.1391  0.0191
  360TIP3   OH2 1043   6.061   6.015   2.252  0.5216 -0.1966  0.6590
  360TIP3    H1 1044   6.126   5.999   2.320  1.3617  1.4983  0.2974
  360TIP3    H2 1045   6.096   6.088   2.201 -0.5782 -0.7395 -0.9746
  361TIP3   OH2 1046   0.727   4.045   5.659  0.0312  0.2796  0.4582
  361TIP3    H1 1047   0.759   4.124   5.615  0.7518  0.0012  0.4608
  361TIP3    H2 1048   0.769   4.047   5.745 -1.7098  1.0543  1.3479
  362TIP3   OH2 1049   7.005   5.473   3.128 -0.0861 -0.1215  0.2183
  362TIP3    H1 1050   7.074   5.417   3.093 -0.2508  0.4917 -1.1813
  362TIP3    H2 1051   6.937   5.412   3.158  0.3023 -0.6972 -0.0585
  363TIP3   OH2 1052   6.893   4.008   5.330 -0.1889 -0.5124 -0.3739
  363TIP3    H1 1053   6.902   3.918   5.362  1.2741 -0.7403 -1.3183
  363TIP3    H2 1054   6.937   4.007   5.245 -3.1343  0.2839 -2.0083
  364TIP3   OH2 1055   0.062   4.516   2.513  0.0119 -0.2105  0.1948
  364TIP3    H1 1056   0.053   4.599   2.561 -0.1474  0.0896 -0.3419
  364TIP3    H2 1057  -0.024   4.503   2.473  0.3824 -0.0477 -0.6601
  365TIP3   OH2 1058   4.833   1.426   4.944  0.2169  0.0803 -0.4442
  365TIP3    H1 1059   4.826   1.426   4.849  0.8802  2.5686 -0.5523
  365TIP3    H2 1060   4.758   1.477   4.974 -0.3320 -1.1870  0.4537
  366TIP3   OH2 1061   6.872   6.085   0.837  0.1982 -0.5654  0.2706
  366TIP3    H1 1062   6.887   6.156   0.901 -0.0024 -0.3797  0.1123
  366TIP3    H2 1063   6.936   6.018   0.862  1.0012  0.0287 -0.1146
  367TIP3   OH2 1064   4.251   4.082   0.638 -0.2507 -0.1995 -0.5404
  367TIP3    H1 1065   4.264   4.123   0.553 -0.2038  0.5560 -0.1831
  367TIP3    H2 1066   4.308   4.131   0.697  0.1543 -1.0838 -0.1760
  368TIP3   OH2 1067   6.522   1.024   4.391 -0.5629  0.0053 -0.0611
  368TIP3    H1 1068   6.548   0.932   4.384 -0.7189 -0.0914  0.5898
  368TIP3    H2 1069   6.593   1.072   4.346  0.7194 -0.2640  1.5755
  369TIP3   OH2 1070   0.783   4.524   5.506 -0.1396 -0.1733 -0.0172
  369TIP3    H1 1071   0.769   4.599   5.449 -0.2036 -0.5340 -0.4868
  369TIP3    H2 1072   0.759   4.555   5.593  2.0417  1.0484  0.2192
  370TIP3   OH2 1073   0.765   2.966   4.680 -0.3569  0.3912 -0.6852
  370TIP3    H1 1074   0.686   2.928   4.641 -0.6146 -0.3641  0.5166
  370TIP3    H2 1075   0.801   2.896   4.735  0.0205  1.3848  0.3769
  371TIP3   OH2 1076   6.609   4.234   2.068 -0.0919  0.2414 -0.3786
  371TIP3    H1 1077   6.569   4.320   2.075 -1.6725 -0.4465 -0.6037
  371TIP3    H2 1078   6.655   4.221   2.151 -0.6489  0.8982  0.0346
  372TIP3   OH2 1079   0.342   4.688   5.817 -0.0101  0.2372 -0.0531
  372TIP3    H1 1080   0.327   4.658   5.907 -0.5593  1.4912  0.2987
  372TIP3    H2 1081   0.380   4.776   5.828 -2.9689  1.7788 -1.0030
  373TIP3   OH2 1082   1.580   4.476   4.236  0.7665 -0.6760  0.5744
  373TIP3    H1 1083   1.536   4.547   4.191  1.0932 -0.3436  0.7738
  373TIP3    H2 1084   1.563   4.399   4.181  2.2941 -0.0449 -0.8664
  374TIP3   OH2 1085   1.011   2.350   1.342  0.1119 -0.6196 -0.3765
  374TIP3    H1 1086   1.053   2.305   1.268  1.3711  1.0850 -0.7755
  374TIP3    H2 1087   1.074   2.418   1.367 -1.4011  0.4839  0.6173
  375TIP3   OH2 1088   3.218   1.214   1.199 -0.2890 -0.2949  0.2586
  375TIP3    H1 1089   3.198   1.155   1.126 -0.2722 -0.0335  0.0364
  375TIP3    H2 1090   3.229   1.299   1.157  0.6017 -0.3049  0.4573
  376TIP3   OH2 1091   0.992   3.000   3.624 -0.8331 -0.8063  0.0226
  376TIP3    H1 1092   1.048   3.077   3.630  0.3940 -1.5250 -1.5964
  376TIP3    H2 1093   0.905   3.034   3.602 -0.4321  0.1422 -0.1098
  377TIP3   OH2 1094   3.913   2.844   3.876  0.0597  0.6172  0.3679
  377TIP3    H1 1095   3.972   2.835   3.951  0.7596  1.1320 -0.1112
  377TIP3    H2 1096   3.853   2.770   3.884  0.6898  0.1579  0.9408
  378TIP3   OH2 1097   4.445   0.078   5.393  0.1830  0.1034  0.1715
  378TIP3    H1 1098   4.465   0.014   5.324  2.2375 -0.0173  0.7906
  378TIP3    H2 1099   4.434   0.025   5.472  0.1130  0.3876  0.3529
  379TIP3   OH2 1100   3.817   1.538   0.626  0.7574  0.3831 -0.4657
  379TIP3    H1 1101   3.749   1.556   0.560  1.0443  0.8818 -0.6362
  379TIP3    H2 1102   3.877   1.613   0.618  1.3698 -0.0928 -0.3714
  380TIP3   OH2 1103   5.176   1.569   5.157 -0.4038 -0.3459 -0.7054
  380TIP3    H1 1104   5.158   1.550   5.249 -1.3649 -0.7667 -0.9655
  380TIP3    H2 1105   5.196   1.484   5.119 -0.2235 -0.2032 -0.9294
  381TIP3   OH2 1106   1.491   3.134   0.852 -0.2043 -0.1238  0.2366
  381TIP3    H1 1107   1.580   3.162   0.829 -0.4504 -0.6844 -1.5164
  381TIP3    H2 1108   1.502   3.046   0.887 -0.0905 -0.2415 -0.0973
  382TIP3   OH2 1109   5.222   1.703   5.467  0.3176 -0.1108  0.1343
  382TIP3    H1 1110   5.178   1.788   5.465 -1.4878 -0.9552  1.1619
  382TIP3    H2 1111   5.246   1.690   5.559 -1.1615 -1.4840  0.3838
  383TIP3   OH2 1112   6.667   1.149   5.659 -0.3316  0.4668 -0.1522
  383TIP3    H1 1113   6.681   1.090   5.585 -0.9251  0.0247  0.0842
  383TIP3    H2 1114   6.754   1.161   5.696 -0.0186  0.7210 -0.9376
  384TIP3   OH2 1115   4.702   6.414   4.067  0.1271  0.1380 -0.6391
  384TIP3    H1 1116   4.744   6.494   4.036  0.8797  0.4145  0.9909
  384TIP3    H2 1117   4.626   6.444   4.116 -0.6403 -0.2515 -1.5726
  385TIP3   OH2 1118   5.253   5.869   2.402  0.2587 -0.2160 -0.4267
  385TIP3    H1 1119   5.225   5.956   2.431 -2.1745  0.1072 -3.2870
  385TIP3    H2 1120   5.340   5.884   2.363  0.6697  0.5325  0.7090
  386TIP3   OH2 1121   5.552   1.957   0.122  0.6845  0.0981  0.0822
  386TIP3    H1 1122   5.608   1.985   0.195  0.1269  0.3484  0.4188
  386TIP3    H2 1123   5.463   1.968   0.155  0.4127 -2.1053  0.2397
  387TIP3   OH2 1124   6.242   5.090   5.150  0.4821  0.1530 -0.5957
  387TIP3    H1 1125   6.314   5.057   5.096  0.3662 -0.2582 -0.5014
  387TIP3    H2 1126   6.164   5.050   5.113  0.4612 -0.6477  0.2631
  388TIP3   OH2 1127   1.781   3.685   5.389 -0.2265  0.0862  0.7725
  388TIP3    H1 1128   1.769   3.765   5.439 -0.6889 -0.4125  1.4822
  388TIP3    H2 1129   1.721   3.693   5.315 -0.5508  0.2281  1.0515
  389TIP3   OH2 1130   6.836   5.601   4.975  0.0341  0.3604  0.2164
  389TIP3    H1 1131   6.782   5.628   5.049  0.3989 -1.3697  1.1663
  389TIP3    H2 1132   6.777   5.552   4.918  0.2144 -0.0629  0.3929
  390TIP3   OH2 1133   6.300   6.786   5.751  0.6127  0.3982  0.2394
  390TIP3    H1 1134   6.287   6.854   5.817 -2.1156  0.8335 -0.6315
  390TIP3    H2 1135   6.260   6.708   5.789 -1.9181  0.8906 -1.1334
  391TIP3   OH2 1136   0.054   0.972   1.298 -0.4596 -0.0875  0.4806
  391TIP3    H1 1137   0.009   0.974   1.383 -0.6025  0.0531  0.4033
  391TIP3    H2 1138   0.050   1.063   1.267  1.6514  0.3870  1.3945
  392TIP3   OH2 1139   2.470   0.634   0.263 -0.3835  0.3457 -0.0765
  392TIP3    H1 1140   2.399   0.572   0.275  0.5892 -0.9015 -0.5815
  392TIP3    H2 1141   2.543   0.582   0.231 -0.0201  2.0034 -2.2193
  393TIP3   OH2 1142   3.476   1.806   2.609 -0.6524 -0.1315  0.5830
  393TIP3    H1 1143   3.542   1.783   2.674  0.6464 -1.1056 -0.9905
  393TIP3    H2 1144   3.468   1.729   2.554 -0.3972  1.2003 -1.4512
  394TIP3   OH2 1145   5.166   2.381   5.078 -0.1319  0.0025 -0.0335
  394TIP3    H1 1146   5.110   2.458   5.089 -1.5577 -1.0923  0.7777
  394TIP3    H2 1147   5.109   2.307   5.098  1.4310 -1.2260  0.0891
  395TIP3   OH2 1148   5.873   2.617   1.925  0.2241  0.0741  0.7514
  395TIP3    H1 1149   5.880   2.698   1.975  0.9624 -0.0532  0.8686
  395TIP3    H2 1150   5.926   2.632   1.847  2.5370 -1.1685  1.9750
  396TIP3   OH2 1151   0.232   1.574   0.035 -0.0629  0.1985 -0.4220
  396TIP3    H1 1152   0.287   1.537   0.105 -0.4218  0.0163 -0.2313
  396TIP3    H2 1153   0.146   1.537   0.051 -0.8048  2.2171  0.6578
  397TIP3   OH2 1154   3.913   4.237   0.843  1.2073 -0.3522  0.1009
  397TIP3    H1 1155   3.934   4.166   0.783 -0.6939 -0.6443 -0.2912
  397TIP3    H2 1156   3.839   4.205   0.894  0.0002  1.4436 -0.3811
  398TIP3   OH2 1157   2.305   4.927   2.645 -0.0696  0.1651  0.4435
  398TIP3    H1 1158   2.326   4.833   2.641 -1.0381 -0.0163 -1.2486
  398TIP3    H2 1159   2.252   4.936   2.724  0.5417 -0.5972  0.9614
  399TIP3   OH2 1160   2.993   3.286   0.092  0.3981 -0.7305  0.1670
  399TIP3    H1 1161   3.082   3.278   0.125  1.8707 -0.9934 -3.3983
  399TIP3    H2 1162   2.972   3.198   0.058 -0.3386 -0.1612 -0.9378
  400TIP3   OH2 1163   3.020   6.413   0.636  0.2955  0.3273 -0.1854
  400TIP3    H1 1164   3.061   6.334   0.603 -1.4205  0.0516 -1.7860
  400TIP3    H2 1165   2.975   6.385   0.716 -0.6397 -0.4218 -0.9622
  401TIP3   OH2 1166   3.707   2.232   4.650 -0.2047 -0.0865 -0.5582
  401TIP3    H1 1167   3.685   2.321   4.626 -1.3834 -0.2434 -0.1088
  401TIP3    H2 1168   3.803   2.230   4.650 -0.1705  0.9819 -1.2288
  402TIP3   OH2 1169   6.601   0.356   1.050  0.1590 -0.3782  0.2463
  402TIP3    H1 1170   6.573   0.447   1.036 -1.2037 -0.6062  1.3086
  402TIP3    H2 1171   6.553   0.305   0.985  0.9134 -0.3662 -0.3406
  403TIP3   OH2 1172   1.960   2.329   0.420  0.1350 -0.0018  0.3505
  403TIP3    H1 1173   2.026   2.397   0.435  1.3969 -1.5105  2.1981
  403TIP3    H2 1174   2.002   2.268   0.360 -0.4649  0.1384 -0.2235
  404TIP3   OH2 1175   0.848   0.542   0.996  0.7091 -0.9431 -0.0999
  404TIP3    H1 1176   0.804   0.468   0.954 -1.6405 -0.1021  0.7329
  404TIP3    H2 1177   0.810   0.546   1.083 -0.3009  2.0705 -0.5708
  405TIP3   OH2 1178   3.482   1.975   3.427 -0.3952 -0.0618  0.2126
  405TIP3    H1 1179   3.568   2.005   3.458  1.0982  0.1804 -3.6144
  405TIP3    H2 1180   3.419   2.031   3.472  1.6507  1.7647  0.9622
  406TIP3   OH2 1181   2.564   0.092   5.162 -0.0649  0.1803  0.1251
  406TIP3    H1 1182   2.549   0.072   5.255  1.6581 -0.1035  0.3886
  406TIP3    H2 1183   2.492   0.149   5.137 -0.7469 -0.0196  1.5552
  407TIP3   OH2 1184   7.023   3.624   1.128  0.0858 -0.2093  0.0144
  407TIP3    H1 1185   6.985   3.581   1.205 -2.2660  0.1560 -0.8632
  407TIP3    H2 1186   7.105   3.578   1.113 -0.7977 -2.2553  1.0371
  408TIP3   OH2 1187   0.987   0.383   2.190  0.5852 -0.0589 -0.4211
  408TIP3    H1 1188   0.980   0.297   2.148 -0.6540 -0.4414  0.5167
  408TIP3    H2 1189   0.981   0.445   2.117  2.3444 -0.7282 -1.2128
  409TIP3   OH2 1190   5.598   2.871   4.695  0.4994  0.0649  0.1171
  409TIP3    H1 1191   5.692   2.867   4.712  0.3187  0.0549  1.1612
  409TIP3    H2 1192   5.591   2.920   4.613  1.4124  0.1307  0.0675
  410TIP3   OH2 1193   0.162   6.448   5.870  0.1020 -0.6459  0.3553
  410TIP3    H1 1194   0.233   6.387   5.886  1.7739  1.0873 -0.0759
  410TIP3    H2 1195   0.122   6.416   5.789  1.6432 -0.5991 -0.4667
  411TIP3   OH2 1196   1.488   5.263   5.615 -0.2764 -0.1622  0.4021
  411TIP3    H1 1197   1.517   5.201   5.682 -1.6790 -1.4262 -0.1046
  411TIP3    H2 1198   1.489   5.213   5.533  0.6811  1.1390 -0.4185
  412TIP3   OH2 1199   0.581   3.843   3.649  0.1958 -0.2555 -0.8490
  412TIP3    H1 1200   0.514   3.806   3.591 -0.8015 -0.7341  0.5599
  412TIP3    H2 1201   0.576   3.789   3.728  0.4146  1.3691  0.3091
  413TIP3   OH2 1202   3.673   3.207   2.206 -0.0150  0.0083  0.1417
  413TIP3    H1 1203   3.617   3.138   2.242 -1.1742 -0.0946 -1.7576
  413TIP3    H2 1204   3.696   3.177   2.118  1.3156  1.0383  0.0982
  414TIP3   OH2 1205   0.983   0.170   5.744 -1.1819  0.0404  0.0129
  414TIP3    H1 1206   1.063   0.162   5.693 -1.1800  0.4160 -0.0458
  414TIP3    H2 1207   1.003   0.237   5.810 -1.3359 -0.1054  0.2083
  415TIP3   OH2 1208   5.554   2.840   1.586  0.4898 -0.0521 -0.6704
  415TIP3    H1 1209   5.539   2.933   1.568  0.4057  0.3558  1.2734
  415TIP3    H2 1210   5.470   2.798   1.568  0.3709  0.3357 -1.0334
  416TIP3   OH2 1211   2.519   3.083   4.987 -0.1526  0.0623 -0.5945
  416TIP3    H1 1212   2.560   3.003   4.956 -2.4677 -2.0060  1.2469
  416TIP3    H2 1213   2.439   3.092   4.936 -0.4961  0.5298 -0.0021
  417TIP3   OH2 1214   5.882   4.169   5.450 -0.6098 -0.4107 -0.0303
  417TIP3    H1 1215   5.897   4.150   5.542  1.7852 -0.0620 -0.2765
  417TIP3    H2 1216   5.863   4.263   5.447  1.2059  0.0071  0.0101
  418TIP3   OH2 1217   5.698   3.688   2.138 -0.0766 -0.1738  0.0606
  418TIP3    H1 1218   5.638   3.693   2.213 -1.0101 -1.0761 -0.6017
  418TIP3    H2 1219   5.759   3.617   2.161 -0.6243 -0.7356 -0.2145
  419TIP3   OH2 1220   3.657   2.799   0.174  0.0857 -0.0595  0.6265
  419TIP3    H1 1221   3.718   2.728   0.194  2.5114  1.1176 -1.9520
  419TIP3    H2 1222   3.680   2.869   0.235  0.9652  0.1555  0.0691
  420TIP3   OH2 1223   5.590   3.348   3.396 -0.0526 -0.0254 -0.0838
  420TIP3    H1 1224   5.549   3.434   3.392 -0.8092 -0.4233 -1.4418
  420TIP3    H2 1225   5.545   3.304   3.469  0.0074  0.5580  0.3077
  421TIP3   OH2 1226   6.697   6.356   2.710 -0.1510 -0.7242 -0.4566
  421TIP3    H1 1227   6.762   6.298   2.669  0.7175 -0.7529  0.8945
  421TIP3    H2 1228   6.638   6.297   2.757  1.1769 -0.5474  1.5489
  422TIP3   OH2 1229   3.967   5.844   3.491 -0.2361  0.3345  0.0215
  422TIP3    H1 1230   3.936   5.876   3.406 -0.6940  1.0549  0.4498
  422TIP3    H2 1231   4.051   5.802   3.471  0.6639  2.2605 -0.4953
  423TIP3   OH2 1232   0.835   0.751   2.730 -0.1620  0.5666 -0.1107
  423TIP3    H1 1233   0.748   0.789   2.741 -0.1683  0.6184 -0.3358
  423TIP3    H2 1234   0.890   0.824   2.702 -0.5548  0.0723 -2.2914
  424TIP3   OH2 1235   5.412   0.958   3.146  0.4620  0.1992  0.1275
  424TIP3    H1 1236   5.436   1.020   3.077  0.3607 -0.1071 -0.1811
  424TIP3    H2 1237   5.384   0.879   3.100 -0.5689  0.3358  0.4881
  425TIP3   OH2 1238   2.438   1.157   0.290  0.6343 -0.2675  0.4360
  425TIP3    H1 1239   2.381   1.081   0.297  1.1838 -0.7607 -0.3072
  425TIP3    H2 1240   2.382   1.231   0.315 -0.6329 -0.6161 -1.1802
  426TIP3   OH2 1241   1.003   2.393   0.928 -0.2621  0.0153 -0.2297
  426TIP3    H1 1242   1.006   2.484   0.899 -0.8900  0.0857 -0.0795
  426TIP3    H2 1243   0.922   2.386   0.978 -2.1544 -1.5050 -3.2134
  427TIP3   OH2 1244   6.849   6.695   5.162  0.4571 -0.0054  0.1965
  427TIP3    H1 1245   6.778   6.714   5.223  0.6181  0.7121  0.1673
  427TIP3    H2 1246   6.872   6.604   5.180 -1.9818 -1.0346 -1.3440
  428TIP3   OH2 1247   3.819   6.577   5.069  0.7566 -0.2841 -0.2234
  428TIP3    H1 1248   3.876   6.606   5.140  1.1740 -1.7480  0.0833
  428TIP3    H2 1249   3.801   6.485   5.089  1.6167 -1.0069 -2.4547
  429TIP3   OH2 1250   5.044   0.281   3.997 -0.2998  0.0649 -0.4833
  429TIP3    H1 1251   5.050   0.257   3.905 -0.2977 -1.4294 -0.1286
  429TIP3    H2 1252   5.134   0.288   4.027 -0.2948  1.2301 -0.7454
  430TIP3   OH2 1253   1.827   3.610   0.415  0.2448  0.1432  0.0297
  430TIP3    H1 1254   1.913   3.654   0.413  0.3200 -0.0198 -0.4347
  430TIP3    H2 1255   1.843   3.528   0.462  0.3339  0.1304 -0.0232
  431TIP3   OH2 1256   2.413   5.237   1.313  0.2029  0.1308 -0.8489
  431TIP3    H1 1257   2.341   5.188   1.274 -1.2504  1.2662  0.2980
  431TIP3    H2 1258   2.396   5.234   1.407  1.7183  0.3649 -0.5301
  432TIP3   OH2 1259   4.385   2.870   1.579  0.6088  0.0324 -0.1846
  432TIP3    H1 1260   4.356   2.940   1.637  0.9295  0.7249 -0.8401
  432TIP3    H2 1261   4.416   2.915   1.500  2.3505 -0.7408  0.0161
  433TIP3   OH2 1262   6.044   3.830   3.002  0.8726 -0.0480 -0.3238
  433TIP3    H1 1263   5.989   3.842   3.079  0.2790 -1.0537 -0.5831
  433TIP3    H2 1264   6.104   3.905   3.004  0.1292  0.5475  0.4855
  434TIP3   OH2 1265   4.048   2.680   4.057 -0.2998  0.9150  0.0756
  434TIP3    H1 1266   4.070   2.621   4.129 -1.3946  0.7428  0.2978
  434TIP3    H2 1267   4.099   2.759   4.074 -0.1761  0.6879  0.7800
  435TIP3   OH2 1268   2.867   3.522   3.787  0.3699  0.4584  0.6460
  435TIP3    H1 1269   2.781   3.503   3.824  0.5250 -0.0487  0.7559
  435TIP3    H2 1270   2.926   3.521   3.863  0.4948  0.6822  0.5532
  436TIP3   OH2 1271   0.995   1.238   0.213 -0.2022  0.1174  0.2531
  436TIP3    H1 1272   1.017   1.198   0.129  0.3392  1.1781 -0.1355
  436TIP3    H2 1273   0.999   1.166   0.276 -2.4877 -1.1150 -0.8799
  437TIP3   OH2 1274   0.420   6.416   0.868 -0.5584 -0.1194  0.0464
  437TIP3    H1 1275   0.353   6.383   0.808 -1.8744  1.1220  0.7735
  437TIP3    H2 1276   0.467   6.338   0.897 -1.1761 -0.9388 -1.0662
  438TIP3   OH2 1277   6.606   3.254   1.437  0.7112  0.0225  0.5239
  438TIP3    H1 1278   6.697   3.256   1.409  0.5303 -0.4743 -0.1193
  438TIP3    H2 1279   6.603   3.312   1.513  1.3485  0.8643 -0.0709
  439TIP3   OH2 1280   5.438   5.422   4.972  0.1237 -0.1422 -0.4689
  439TIP3    H1 1281   5.376   5.493   4.986  0.2696 -0.3924  2.0176
  439TIP3    H2 1282   5.523   5.461   4.993  0.3855 -0.6650 -0.5420
  440TIP3   OH2 1283   6.212   6.523   3.741 -0.3944  0.5274  1.0342
  440TIP3    H1 1284   6.232   6.585   3.812 -0.6042 -0.4782  1.9990
  440TIP3    H2 1285   6.297   6.502   3.703 -0.2011  0.5016  1.4746
  441TIP3   OH2 1286   6.108   5.477   0.364  0.6140 -0.1140 -0.2816
  441TIP3    H1 1287   6.177   5.470   0.430  1.2899  2.3347 -0.6469
  441TIP3    H2 1288   6.029   5.499   0.413  0.3981 -1.4009 -0.0193
  442TIP3   OH2 1289   4.980   1.900   0.330  0.5029  0.1884  0.2661
  442TIP3    H1 1290   4.919   1.833   0.363  0.0140  1.3853  1.9209
  442TIP3    H2 1291   5.063   1.879   0.373 -0.1330  1.7445  2.4171
  443TIP3   OH2 1292   2.415   0.157   1.519  0.6762  0.3288  0.2752
  443TIP3    H1 1293   2.423   0.195   1.607  0.1533 -0.1926  0.5580
  443TIP3    H2 1294   2.331   0.111   1.521  1.7704 -1.7505  0.2873
  444TIP3   OH2 1295   2.692   5.802   0.073 -0.0290  0.9122 -0.5751
  444TIP3    H1 1296   2.610   5.833   0.110 -0.0249  0.6945 -0.3779
  444TIP3    H2 1297   2.668   5.765  -0.012 -0.5552 -1.3830  0.4796
  445TIP3   OH2 1298   0.584   1.210   5.325 -0.7135 -0.0797 -0.2235
  445TIP3    H1 1299   0.493   1.189   5.304 -1.0727  2.5439 -1.7298
  445TIP3    H2 1300   0.632   1.190   5.245 -0.5548  1.5785 -0.5752
  446TIP3   OH2 1301   5.689   5.297   0.588  0.1843  0.4658  0.3501
  446TIP3    H1 1302   5.630   5.288   0.663 -0.5790 -0.0986 -0.3056
  446TIP3    H2 1303   5.685   5.212   0.544  1.8729  0.2344  0.5577
  447TIP3   OH2 1304   1.010   1.025   4.791 -0.1940 -0.3840 -0.4984
  447TIP3    H1 1305   1.059   1.044   4.871 -0.1553 -1.3880 -0.2663
  447TIP3    H2 1306   0.926   0.992   4.823 -1.4949  2.3290 -0.8769
  448TIP3   OH2 1307   2.478   5.783   0.848 -0.0986  0.0925 -0.6732
  448TIP3    H1 1308   2.536   5.748   0.781 -2.4870  0.8798 -3.3527
  448TIP3    H2 1309   2.452   5.869   0.815 -1.2285  0.6301  1.3951
  449TIP3   OH2 1310   0.795   5.245   5.320 -0.4679  0.2435 -0.1110
  449TIP3    H1 1311   0.839   5.162   5.335 -1.6291 -0.6264 -1.3171
  449TIP3    H2 1312   0.864   5.303   5.287  0.1449 -0.5329 -0.2119
  450TIP3   OH2 1313   2.004   4.822   5.212  0.0567  0.0057  0.4318
  450TIP3    H1 1314   2.098   4.820   5.193  0.1139  0.8202  0.6133
  450TIP3    H2 1315   1.974   4.905   5.175 -0.5514 -0.1564  0.5592
  451TIP3   OH2 1316   3.326   5.920   2.000 -0.1699  0.6500  0.2291
  451TIP3    H1 1317   3.276   5.852   1.954 -0.2030  1.1434 -0.4874
  451TIP3    H2 1318   3.360   5.976   1.930 -1.5420  2.3508  0.8484
  452TIP3   OH2 1319   2.790   5.477   2.387  0.2080 -0.6409 -0.4597
  452TIP3    H1 1320   2.860   5.533   2.353 -0.1869 -0.2746 -0.6908
  452TIP3    H2 1321   2.772   5.512   2.474  0.6599 -1.0618 -0.1917
  453TIP3   OH2 1322   6.291   5.813   1.514 -0.2171  0.7204 -0.6117
  453TIP3    H1 1323   6.338   5.732   1.538 -1.2835  0.7620  1.8725
  453TIP3    H2 1324   6.336   5.882   1.563 -1.4040  1.0985 -0.0290
  454TIP3   OH2 1325   3.799   4.774   1.680 -0.0345  0.4161  0.0624
  454TIP3    H1 1326   3.733   4.706   1.695 -0.7368  1.1358  0.2526
  454TIP3    H2 1327   3.882   4.732   1.702 -0.2512 -0.9523 -1.5093
  455TIP3   OH2 1328   0.191   3.186   4.604  0.1247  0.1094 -0.4397
  455TIP3    H1 1329   0.278   3.222   4.584  0.1543 -0.4711 -1.4366
  455TIP3    H2 1330   0.173   3.215   4.693  1.6720 -0.3843  0.0641
  456TIP3   OH2 1331   2.290   3.650   3.078  0.1694 -0.3954 -0.1867
  456TIP3    H1 1332   2.300   3.559   3.049  0.2967 -0.4005 -0.1266
  456TIP3    H2 1333   2.196   3.668   3.069  0.0121 -0.7883  0.5546
  457TIP3   OH2 1334   0.945   5.876   3.134  0.6563 -0.1665 -0.3370
  457TIP3    H1 1335   0.913   5.814   3.199  2.4279  0.1696  0.9347
  457TIP3    H2 1336   1.026   5.836   3.101 -0.7669 -0.9085 -3.2893
  458TIP3   OH2 1337   0.637   6.022   1.279  0.1018 -0.0748  0.0644
  458TIP3    H1 1338   0.550   6.002   1.313 -0.4160 -0.1864 -1.2917
  458TIP3    H2 1339   0.673   5.937   1.254  0.5295 -0.0038  0.4161
  459TIP3   OH2 1340   3.257   2.011   5.380 -0.4708  0.1777  0.4338
  459TIP3    H1 1341   3.242   2.032   5.472  1.5697 -0.3567  0.9603
  459TIP3    H2 1342   3.251   2.095   5.335 -0.5267  0.6123  1.2208
  460TIP3   OH2 1343   0.491   1.613   4.209  0.2213  0.1267 -0.4202
  460TIP3    H1 1344   0.548   1.639   4.282 -2.7141  1.2598  1.6977
  460TIP3    H2 1345   0.475   1.520   4.224 -0.5983  0.4179  0.6145
  461TIP3   OH2 1346   3.211   5.952   4.578  0.3438  0.1299  0.4629
  461TIP3    H1 1347   3.146   6.010   4.537 -0.3313 -0.7329  0.2898
  461TIP3    H2 1348   3.281   6.011   4.606 -0.7402  1.1594  1.1204
  462TIP3   OH2 1349   4.308   5.137   2.557  0.0801  0.3265 -0.3221
  462TIP3    H1 1350   4.250   5.061   2.562  0.3289  0.1040 -0.8101
  462TIP3    H2 1351   4.256   5.209   2.593 -0.8397  0.3405 -1.6129
  463TIP3   OH2 1352   1.797   4.834   2.922  0.0711 -0.3684  0.2738
  463TIP3    H1 1353   1.707   4.846   2.952  0.2905  0.4813  0.6193
  463TIP3    H2 1354   1.848   4.821   3.002  0.4510  0.4873  0.1744
  464TIP3   OH2 1355   0.773   6.229   1.423  0.2118  0.8689  0.1518
  464TIP3    H1 1356   0.716   6.153   1.411  1.8433 -0.2980 -0.4495
  464TIP3    H2 1357   0.712   6.303   1.430 -1.3846 -0.3699 -0.0741
  465TIP3   OH2 1358   6.901   6.374   0.426  0.3489  0.0854  0.6486
  465TIP3    H1 1359   6.817   6.406   0.393  0.8735  0.4414 -0.3728
  465TIP3    H2 1360   6.892   6.279   0.427  0.5433  0.0027 -1.2433
  466TIP3   OH2 1361   0.761   6.457   5.533  0.5390 -0.1603  0.2139
  466TIP3    H1 1362   0.767   6.368   5.570  1.9961  0.0576  0.5816
  466TIP3    H2 1363   0.744   6.513   5.609  0.0938 -0.0765  0.0508
  467TIP3   OH2 1364   4.862   5.764   4.814  0.5355  0.2469  0.2532
  467TIP3    H1 1365   4.947   5.728   4.786  1.4186  2.7684 -0.6084
  467TIP3    H2 1366   4.816   5.784   4.732 -0.5546 -0.3159  0.7101
  468TIP3   OH2 1367   7.040   5.369   5.118 -0.1147 -0.4793  0.3753
  468TIP3    H1 1368   7.080   5.294   5.162 -0.2062  0.4689  2.1541
  468TIP3    H2 1369   7.109   5.435   5.116 -0.6198  0.0567  0.5693
  469TIP3   OH2 1370   0.186   0.038   2.749 -0.1365  0.4842  0.2915
  469TIP3    H1 1371   0.159   0.125   2.721 -1.7399 -0.4182 -1.1419
  469TIP3    H2 1372   0.129   0.018   2.823  0.3380  0.7034  0.7200
  470TIP3   OH2 1373   2.263   0.014   1.259 -0.9462 -0.3774  0.1001
  470TIP3    H1 1374   2.223   0.034   1.343 -1.2376 -1.0069  0.1205
  470TIP3    H2 1375   2.245   0.090   1.204 -1.6307 -0.3891  0.3005
  471TIP3   OH2 1376   7.012   5.578   5.680 -0.4036 -0.6377 -0.1969
  471TIP3    H1 1377   7.096   5.592   5.725 -0.9716 -0.0696  0.7233
  471TIP3    H2 1378   7.035   5.529   5.601  0.8274 -0.2984 -0.0746
  472TIP3   OH2 1379   0.246   1.479   2.626 -0.6319  0.0759  0.4356
  472TIP3    H1 1380   0.166   1.444   2.587 -0.8187  2.4288 -1.4721
  472TIP3    H2 1381   0.314   1.463   2.561 -0.5334  2.2346 -0.0622
  473TIP3   OH2 1382   0.446   6.014   2.950  0.3180  0.3415  0.1733
  473TIP3    H1 1383   0.395   5.958   3.009  0.9821  0.6920  1.1114
  473TIP3    H2 1384   0.537   5.998   2.975  0.5112  1.9679  0.6068
  474TIP3   OH2 1385   2.499   0.355   2.355 -0.2265  1.0084 -0.2196
  474TIP3    H1 1386   2.467   0.383   2.441  2.8118  1.8520  0.7663
  474TIP3    H2 1387   2.557   0.426   2.326  1.6903 -0.8239 -1.2162
  475TIP3   OH2 1388   5.783   2.222   5.566  0.2404  0.4439  0.2393
  475TIP3    H1 1389   5.761   2.313   5.587 -0.4517  0.5950 -1.0719
  475TIP3    H2 1390   5.841   2.228   5.490 -1.1379 -0.2563 -0.9113
  476TIP3   OH2 1391   3.565   2.093   1.304 -0.1208 -0.1906  0.1808
  476TIP3    H1 1392   3.544   2.118   1.394 -2.0130  1.9225 -0.7615
  476TIP3    H2 1393   3.642   2.146   1.282 -0.1008 -0.1672  0.3020
  477TIP3   OH2 1394   7.082   3.593   4.364 -0.2510 -0.4672 -0.2399
  477TIP3    H1 1395   7.046   3.567   4.279  2.7281 -0.2878 -1.6934
  477TIP3    H2 1396   7.152   3.530   4.381 -0.2005  0.0419  1.6748
  478TIP3   OH2 1397   3.752   1.870   2.460 -0.3541  0.1888  0.2277
  478TIP3    H1 1398   3.821   1.811   2.430 -0.9565 -1.0150  1.0988
  478TIP3    H2 1399   3.708   1.821   2.529 -2.1938  0.8560 -0.4170
  479TIP3   OH2 1400   5.569   0.822   0.474 -0.6169 -0.2552  0.6809
  479TIP3    H1 1401   5.570   0.808   0.379 -0.5019  0.1053  0.6305
  479TIP3    H2 1402   5.642   0.881   0.491  0.0545 -1.1888  1.1301
  480TIP3   OH2 1403   4.483   6.771   4.227  0.2799 -0.0772  0.0591
  480TIP3    H1 1404   4.575   6.768   4.201  1.0385 -0.0600  2.5008
  480TIP3    H2 1405   4.483   6.812   4.313 -2.2892  2.1434 -0.8576
  481TIP3   OH2 1406   0.679   3.709   0.129 -0.2507 -0.0093 -0.1204
  481TIP3    H1 1407   0.619   3.712   0.054  0.0684 -1.4161 -0.4622
  481TIP3    H2 1408   0.742   3.779   0.111 -1.5935  1.3344  0.1222
  482TIP3   OH2 1409   1.384   0.975   3.173 -0.4183  1.1857 -0.1676
  482TIP3    H1 1410   1.420   0.892   3.202 -0.3300  1.6503  1.1569
  482TIP3    H2 1411   1.323   0.952   3.103 -0.5621 -0.0179  0.3226
  483TIP3   OH2 1412   5.600   4.712   5.553  0.3327 -0.2565  0.6903
  483TIP3    H1 1413   5.615   4.770   5.628  0.4169  1.2639 -0.4455
  483TIP3    H2 1414   5.518   4.744   5.515  1.2799  0.3206 -0.9836
  484TIP3   OH2 1415   3.975   6.556   4.613  0.1689 -0.1990 -0.3075
  484TIP3    H1 1416   3.995   6.650   4.607 -0.8924  0.1179  0.6814
  484TIP3    H2 1417   3.904   6.551   4.677  0.7635 -1.7675  0.2722
  485TIP3   OH2 1418   5.679   2.219   2.939 -0.2043  0.1781 -0.1950
  485TIP3    H1 1419   5.614   2.277   2.899  0.2919  0.2936 -0.8451
  485TIP3    H2 1420   5.697   2.153   2.873  1.2171  0.8243 -0.4954
  486TIP3   OH2 1421   0.591   1.008   3.796  0.3446  0.3816 -0.3542
  486TIP3    H1 1422   0.681   1.020   3.765 -0.4750  0.0981 -3.0821
  486TIP3    H2 1423   0.573   1.087   3.848  2.0821  0.5185  0.0907
  487TIP3   OH2 1424   6.442   1.121   2.222  0.1816 -0.0798  0.1393
  487TIP3    H1 1425   6.366   1.157   2.178  0.7073  1.6136  0.5293
  487TIP3    H2 1426   6.507   1.191   2.220  1.1610 -0.8979  1.2391
  488TIP3   OH2 1427   4.516   2.648   5.043  0.4015 -0.4914  0.0893
  488TIP3    H1 1428   4.482   2.722   5.093 -1.4723 -0.0742 -1.6592
  488TIP3    H2 1429   4.611   2.661   5.044  0.4983 -0.6118  3.5342
  489TIP3   OH2 1430   6.049   0.200   4.967 -0.0742  0.1386  0.7128
  489TIP3    H1 1431   6.036   0.225   5.059 -1.7303 -0.9705  0.8134
  489TIP3    H2 1432   5.967   0.224   4.924  1.4447  2.6423 -1.0006
  490TIP3   OH2 1433   0.339   0.643   3.627 -0.0669 -0.2677 -0.0559
  490TIP3    H1 1434   0.332   0.548   3.619 -0.6727 -0.1578 -1.0181
  490TIP3    H2 1435   0.392   0.657   3.705 -0.3570 -1.3875  0.3542
  491TIP3   OH2 1436   1.155   2.077   1.375  0.1926  0.1629  0.1692
  491TIP3    H1 1437   1.078   2.027   1.350  0.0143  0.6584 -0.3056
  491TIP3    H2 1438   1.155   2.152   1.315  0.9912  0.2124  0.2201
  492TIP3   OH2 1439   3.347   0.216   2.869  0.6794 -0.4274  0.3170
  492TIP3    H1 1440   3.264   0.170   2.859  0.4060  0.2800 -0.9839
  492TIP3    H2 1441   3.355   0.233   2.963 -0.1295 -1.4252  0.5755
  493TIP3   OH2 1442   0.961   6.665   2.309 -0.0676 -0.1107 -0.7949
  493TIP3    H1 1443   1.042   6.715   2.321 -0.6930  0.8847 -0.6242
  493TIP3    H2 1444   0.935   6.639   2.397 -0.4417  0.3963 -0.7530
  494TIP3   OH2 1445   3.733   4.432   1.810  0.2779  0.1529  0.2616
  494TIP3    H1 1446   3.638   4.430   1.823  0.0793 -0.9767 -1.0573
  494TIP3    H2 1447   3.762   4.345   1.839  1.3924  1.4558  3.4686
  495TIP3   OH2 1448   0.683   4.135   3.652  0.3416 -0.4828 -0.5625
  495TIP3    H1 1449   0.643   4.049   3.654  0.9484 -0.7661 -0.2171
  495TIP3    H2 1450   0.645   4.179   3.576 -0.4123 -0.8357 -0.3949
  496TIP3   OH2 1451   7.050   1.407   0.981 -0.1462 -0.2949 -0.1770
  496TIP3    H1 1452   7.031   1.443   0.894  0.2309  0.8754  0.2088
  496TIP3    H2 1453   6.994   1.457   1.040 -1.5500 -2.1214  0.1169
  497TIP3   OH2 1454   2.099   4.075   1.332  0.4657  0.4051  0.6069
  497TIP3    H1 1455   2.101   4.169   1.351  0.7765  0.7044 -0.8171
  497TIP3    H2 1456   2.179   4.041   1.372  1.5671  1.1707 -0.8935
  498TIP3   OH2 1457   6.739   4.935   0.503  0.6524  0.4003 -0.1748
  498TIP3    H1 1458   6.758   4.842   0.516  1.4211  0.5581 -0.0695
  498TIP3    H2 1459   6.824   4.972   0.479  0.4121  1.1252  0.0873
  499TIP3   OH2 1460   0.226   4.301   0.509 -0.3097  0.1456  0.4569
  499TIP3    H1 1461   0.313   4.338   0.525 -0.2417  1.6868 -2.6102
  499TIP3    H2 1462   0.209   4.246   0.585  2.4191  1.4450  2.1927
  500TIP3   OH2 1463   7.200   2.807   0.902 -0.6061  0.0432 -0.6491
  500TIP3    H1 1464   7.201   2.796   0.997 -0.1787  2.1283 -0.3773
  500TIP3    H2 1465   7.119   2.854   0.884 -0.1754  0.5994 -1.1838
  501TIP3   OH2 1466   0.983   3.853   1.479  0.3299 -0.6343 -0.2056
  501TIP3    H1 1467   1.066   3.878   1.520 -0.7038  0.4356  1.3581
  501TIP3    H2 1468   0.978   3.758   1.492  0.1100 -0.3592  2.1530
  502TIP3   OH2 1469   1.223   4.896   3.181  0.5732  0.4277 -0.2663
  502TIP3    H1 1470   1.133   4.881   3.152  1.1184 -0.6792 -1.4764
  502TIP3    H2 1471   1.233   4.842   3.259  0.6529 -0.7565 -1.0659
  503TIP3   OH2 1472   0.213   3.508   1.501 -0.2427 -0.4498  0.2952
  503TIP3    H1 1473   0.271   3.432   1.510  0.3406 -0.1506 -0.7412
  503TIP3    H2 1474   0.132   3.472   1.463 -0.4591 -0.7514  1.0367
  504TIP3   OH2 1475   1.860   5.983   2.239 -0.2819  0.1565 -0.1027
  504TIP3    H1 1476   1.922   5.952   2.304 -2.2936  0.7470  2.2329
  504TIP3    H2 1477   1.800   5.910   2.226 -1.0724  0.7240  0.2700
  505TIP3   OH2 1478   3.412   6.442   3.179  0.0667 -0.1974  0.3086
  505TIP3    H1 1479   3.366   6.490   3.110  2.5213 -0.2677 -1.5128
  505TIP3    H2 1480   3.418   6.353   3.146  1.1569 -0.2723  0.6822
  506TIP3   OH2 1481   2.646   4.500   1.259 -0.0302  0.2475  0.3731
  506TIP3    H1 1482   2.691   4.578   1.292 -0.1251  0.3557  0.2482
  506TIP3    H2 1483   2.564   4.534   1.223  0.2160  0.1737 -0.2718
  507TIP3   OH2 1484   0.727   0.814   3.532  0.2020  0.0248  0.2406
  507TIP3    H1 1485   0.636   0.837   3.513  0.2808 -0.6088 -1.0658
  507TIP3    H2 1486   0.726   0.718   3.535  0.8981 -0.0057 -0.2649
  508TIP3   OH2 1487   1.039   4.853   0.948  0.1180 -0.0332 -0.3799
  508TIP3    H1 1488   1.023   4.771   0.995 -1.5910  0.1839 -0.5363
  508TIP3    H2 1489   1.134   4.855   0.936  0.1709 -2.1375 -0.6676
  509TIP3   OH2 1490   4.743   0.073   4.123  0.1762  0.6064  0.2213
  509TIP3    H1 1491   4.754   0.141   4.190  0.5472  0.5142  0.2560
  509TIP3    H2 1492   4.813   0.010   4.140  3.1205  2.6663 -2.7620
  510TIP3   OH2 1493   6.252   5.351   4.470  0.3845 -0.1075 -0.2419
  510TIP3    H1 1494   6.249   5.408   4.393  2.2298 -0.1113 -0.3406
  510TIP3    H2 1495   6.263   5.411   4.544  0.6666 -0.2280 -0.1847
  511TIP3   OH2 1496   4.460   3.893   0.313  0.0762 -0.4615 -0.2070
  511TIP3    H1 1497   4.376   3.927   0.283 -0.4710 -1.7939 -0.2846
  511TIP3    H2 1498   4.439   3.846   0.394  1.2199  1.5049  1.3279
  512TIP3   OH2 1499   3.284   5.612   0.401 -0.0741  0.2776  0.5503
  512TIP3    H1 1500   3.277   5.707   0.391  0.8919  0.1890 -1.6275
  512TIP3    H2 1501   3.374   5.592   0.374 -0.7578 -1.3973 -0.6660
  513TIP3   OH2 1502   4.532   0.882   5.633  0.2903  0.4185 -0.1092
  513TIP3    H1 1503   4.619   0.893   5.595  0.6792  0.4716  0.7864
  513TIP3    H2 1504   4.510   0.969   5.667  0.5147  0.0650  0.9676
  514TIP3   OH2 1505   0.402   4.880   4.886 -0.1992 -0.6271 -0.0245
  514TIP3    H1 1506   0.388   4.916   4.799  0.4083 -1.3465 -0.4367
  514TIP3    H2 1507   0.331   4.816   4.897 -0.6072 -0.1322  0.2431
  515TIP3   OH2 1508   4.903   0.614   4.286 -0.0732 -0.1405  0.0953
  515TIP3    H1 1509   4.861   0.646   4.366  0.0283  0.5460 -0.1168
  515TIP3    H2 1510   4.836   0.624   4.219 -0.5971 -1.9017  0.3053
  516TIP3   OH2 1511   1.509   0.102   2.314 -0.1845 -0.4278 -0.0930
  516TIP3    H1 1512   1.598   0.126   2.340  0.4550 -1.7302 -0.9718
  516TIP3    H2 1513   1.480   0.175   2.260  0.7767 -0.4874 -0.7137
  517TIP3   OH2 1514   1.146   1.503   2.981 -0.3989 -0.1070 -0.1549
  517TIP3    H1 1515   1.214   1.506   3.049  0.9085 -0.5183 -1.3914
  517TIP3    H2 1516   1.183   1.553   2.909 -2.1185  1.0117 -0.2924
  518TIP3   OH2 1517   6.265   0.522   3.342  0.0009 -0.5583  0.1277
  518TIP3    H1 1518   6.222   0.523   3.428 -1.4795  0.3300 -0.5758
  518TIP3    H2 1519   6.206   0.470   3.287  0.2544 -0.0415 -0.6485
  519TIP3   OH2 1520   0.424   4.936   1.492 -0.3335 -0.5469  0.2096
  519TIP3    H1 1521   0.371   5.000   1.539  0.1096  0.2522 -0.3529
  519TIP3    H2 1522   0.511   4.976   1.486 -0.0912 -1.1290 -0.2941
  520TIP3   OH2 1523   2.217   6.445   4.843  0.2813 -0.5600 -0.0428
  520TIP3    H1 1524   2.155   6.490   4.786 -0.1154 -0.3040  0.5877
  520TIP3    H2 1525   2.167   6.426   4.923  0.5817 -1.6829 -0.1117
  521TIP3   OH2 1526   0.683   6.105   0.372  0.2337  0.2903  0.2843
  521TIP3    H1 1527   0.677   6.113   0.277  0.6863  2.5999  0.3918
  521TIP3    H2 1528   0.615   6.163   0.406  1.0458  0.6641  1.3541
  522TIP3   OH2 1529   6.402   4.492   1.741  0.2566 -0.2304  0.0811
  522TIP3    H1 1530   6.350   4.457   1.813  0.8494 -0.6669  0.3101
  522TIP3    H2 1531   6.345   4.486   1.664 -0.7123  1.0762  0.6597
  523TIP3   OH2 1532   5.680   5.553   4.313  0.8319 -0.0812  0.2087
  523TIP3    H1 1533   5.742   5.622   4.336  1.1135  0.0916 -1.0026
  523TIP3    H2 1534   5.642   5.527   4.397  0.2869  1.9231  0.6414
  524TIP3   OH2 1535   4.725   2.437   5.570 -0.2400  0.6805  0.0329
  524TIP3    H1 1536   4.806   2.408   5.612  0.1516 -3.1373 -2.7925
  524TIP3    H2 1537   4.753   2.484   5.492 -0.4359 -2.4156 -2.0894
  525TIP3   OH2 1538   4.907   1.537   2.828 -0.9941 -0.1380 -0.2054
  525TIP3    H1 1539   4.875   1.468   2.885 -2.9098  1.8577  1.2843
  525TIP3    H2 1540   4.855   1.529   2.748 -0.9677 -0.6301 -0.1717
  526TIP3   OH2 1541   3.094   0.273   3.394 -0.5258 -0.1027  0.3040
  526TIP3    H1 1542   3.115   0.236   3.480  0.1149  1.2605  0.7595
  526TIP3    H2 1543   3.094   0.368   3.408 -2.3261  0.0924 -0.7857
  527TIP3   OH2 1544   6.561   1.038   0.327 -0.3169  0.3440 -0.4271
  527TIP3    H1 1545   6.578   1.094   0.402  0.1903 -0.1342 -0.1831
  527TIP3    H2 1546   6.614   1.075   0.257  2.6465 -1.6914  0.5663
  528TIP3   OH2 1547   4.509   0.517   5.495 -0.1274  0.2909 -0.0225
  528TIP3    H1 1548   4.588   0.549   5.451 -1.2534  2.2661 -0.7473
  528TIP3    H2 1549   4.540   0.490   5.582  1.5237 -0.1297 -0.7011
  529TIP3   OH2 1550   1.628   2.073   5.872 -1.0032 -0.5612 -0.1024
  529TIP3    H1 1551   1.537   2.070   5.846 -1.0781 -0.9449  0.1962
  529TIP3    H2 1552   1.648   1.984   5.902 -0.0553 -0.9507 -1.7450
  530TIP3   OH2 1553   2.689   4.623   1.812  0.0507 -0.4151  0.5288
  530TIP3    H1 1554   2.728   4.710   1.820 -0.5079 -0.2230  1.3395
  530TIP3    H2 1555   2.643   4.625   1.728  1.5272 -0.5579 -0.3119
  531TIP3   OH2 1556   5.009   2.081   5.667 -0.1029 -0.0621  0.6199
  531TIP3    H1 1557   5.043   1.994   5.686  0.6886 -0.4189 -2.0121
  531TIP3    H2 1558   5.085   2.139   5.678 -0.0884 -0.0216  0.3078
  532TIP3   OH2 1559   6.479   4.688   1.469  0.3666  0.6218  0.0560
  532TIP3    H1 1560   6.538   4.745   1.421  1.3255 -0.2936  0.1113
  532TIP3    H2 1561   6.477   4.725   1.557  2.0405 -0.1606  0.4553
  533TIP3   OH2 1562   6.977   1.125   0.622 -0.3242  0.0581 -0.5782
  533TIP3    H1 1563   7.063   1.168   0.623 -0.3900  0.1830  0.1402
  533TIP3    H2 1564   6.955   1.118   0.529  1.0694 -1.1960 -0.8477
  534TIP3   OH2 1565   1.645   3.985   3.812 -0.3088  0.2276  0.2722
  534TIP3    H1 1566   1.712   4.050   3.831 -0.4687  0.7825 -0.9485
  534TIP3    H2 1567   1.568   4.014   3.861 -1.7611  3.4804 -3.3387
  535TIP3   OH2 1568   4.540   4.632   2.454 -0.3763  0.6811 -0.3142
  535TIP3    H1 1569   4.502   4.716   2.427 -0.7917  0.2067 -1.2721
  535TIP3    H2 1570   4.635   4.648   2.454 -0.4048  0.9569 -1.2539
  536TIP3   OH2 1571   5.035   3.514   4.132 -0.6141 -0.1112  0.0924
  536TIP3    H1 1572   4.983   3.519   4.213  0.5595 -0.1326  0.8791
  536TIP3    H2 1573   4.974   3.540   4.063 -1.7086 -0.2819  0.9516
  537TIP3   OH2 1574   1.583   5.914   0.475  0.3988  0.2279 -0.1751
  537TIP3    H1 1575   1.656   5.967   0.442  0.3872  0.2073 -0.2339
  537TIP3    H2 1576   1.579   5.934   0.568  1.8707 -1.3685  0.2915
  538TIP3   OH2 1577   0.915   4.661   4.949  0.0926 -0.5845 -0.1783
  538TIP3    H1 1578   0.943   4.603   5.020  1.3217  0.5467  0.2860
  538TIP3    H2 1579   0.892   4.743   4.992 -1.7370 -0.7257 -0.8211
  539TIP3   OH2 1580   4.137   1.556   2.259  0.1183  0.2334 -0.2872
  539TIP3    H1 1581   4.090   1.474   2.271  1.8779 -0.4579  3.2255
  539TIP3    H2 1582   4.226   1.530   2.236  1.4193  0.7586  3.3443
  540TIP3   OH2 1583   0.746   5.871   2.341 -0.4203 -0.6044  0.3903
  540TIP3    H1 1584   0.717   5.913   2.422  1.8405 -0.5788  1.2487
  540TIP3    H2 1585   0.811   5.807   2.370  0.8053 -0.2363 -1.4518
  541TIP3   OH2 1586   6.763   2.309   0.051 -0.6249  0.1218  0.1878
  541TIP3    H1 1587   6.854   2.282   0.042 -0.9470 -1.2473  0.8559
  541TIP3    H2 1588   6.767   2.405   0.053  0.7889  0.0861  0.1907
  542TIP3   OH2 1589   2.317   1.881   0.496  0.0401 -0.1934  0.5347
  542TIP3    H1 1590   2.326   1.793   0.458 -2.7771 -0.8029  1.1160
  542TIP3    H2 1591   2.379   1.882   0.569  1.8363 -0.7951 -0.9054
  543TIP3   OH2 1592   0.003   5.400   4.246 -0.2722  0.3240 -0.2440
  543TIP3    H1 1593   0.046   5.327   4.290  0.2540  0.3201 -0.7506
  543TIP3    H2 1594   0.014   5.382   4.152 -2.5475 -0.3714 -0.4496
  544TIP3   OH2 1595   4.842   2.139   4.695 -0.1496 -0.2330 -0.3420
  544TIP3    H1 1596   4.758   2.124   4.651  1.1533 -0.3404 -2.9778
  544TIP3    H2 1597   4.864   2.055   4.733 -0.7961 -0.4518 -0.4301
  545TIP3   OH2 1598   6.743   5.026   0.133  0.1917  0.0644  0.4166
  545TIP3    H1 1599   6.824   4.981   0.109  1.2940  2.4398 -0.6925
  545TIP3    H2 1600   6.763   5.119   0.122 -2.8750  0.7543 -0.5512
  546TIP3   OH2 1601   0.175   6.615   4.162  0.0951 -0.0680  0.0258
  546TIP3    H1 1602   0.267   6.638   4.149  0.0194 -0.0874 -0.5731
  546TIP3    H2 1603   0.165   6.610   4.257  0.8535 -0.6512  0.0873
  547TIP3   OH2 1604   1.008   3.032   5.372  0.5983 -0.0532 -0.1969
  547TIP3    H1 1605   1.055   2.969   5.426  0.1703  0.2185  0.5028
  547TIP3    H2 1606   1.009   2.994   5.284 -0.9711 -1.8000  0.4793
  548TIP3   OH2 1607   6.313   6.588   0.706  0.7164 -0.5521  1.0385
  548TIP3    H1 1608   6.302   6.666   0.651 -0.1243 -1.4191 -0.0567
  548TIP3    H2 1609   6.261   6.520   0.663 -1.1218 -0.9484  3.6439
  549TIP3   OH2 1610   6.694   4.484   2.506  0.1853 -0.0155  0.5937
  549TIP3    H1 1611   6.740   4.431   2.441 -0.5611  0.6875 -0.5206
  549TIP3    H2 1612   6.601   4.467   2.491 -0.0052 -0.0069  1.6332
  550TIP3   OH2 1613   2.992   2.262   3.957  0.0065 -0.4536  0.5820
  550TIP3    H1 1614   2.966   2.201   4.025  0.2665 -1.6090 -0.3248
  550TIP3    H2 1615   3.088   2.260   3.958  0.0964  1.4090  1.8037
  551TIP3   OH2 1616   1.472   6.529   2.989 -0.3647 -0.2601  0.3778
  551TIP3    H1 1617   1.508   6.583   3.059  2.1008  0.2587 -1.1542
  551TIP3    H2 1618   1.407   6.585   2.947 -0.4294  0.1505  1.0072
  552TIP3   OH2 1619   0.887   4.068   1.611 -0.1212  0.2948 -0.2125
  552TIP3    H1 1620   0.808   4.102   1.568 -0.1695 -1.0060 -1.1980
  552TIP3    H2 1621   0.911   3.991   1.560  0.7912 -0.3387  1.1242
  553TIP3   OH2 1622   4.916   0.846   3.139 -0.6123  0.2518  0.2228
  553TIP3    H1 1623   4.993   0.825   3.193 -0.1788 -2.4212 -1.2652
  553TIP3    H2 1624   4.918   0.941   3.132  1.1535  0.4605  2.2219
  554TIP3   OH2 1625   1.207   0.066   4.380 -0.0252  0.0658  0.5340
  554TIP3    H1 1626   1.123   0.040   4.417 -0.2912 -0.5211 -0.4198
  554TIP3    H2 1627   1.229   0.148   4.423 -1.5549  0.7304  0.1219
  555TIP3   OH2 1628   5.210   5.655   3.994 -0.2535 -0.2748 -0.1271
  555TIP3    H1 1629   5.150   5.693   4.058  0.4305  0.4688  0.0967
  555TIP3    H2 1630   5.168   5.574   3.967 -0.3541 -0.8584  1.6240
  556TIP3   OH2 1631   1.899   3.701   1.983 -0.1260  0.5432 -0.2103
  556TIP3    H1 1632   1.926   3.706   1.892  0.9935 -0.8305  0.0161
  556TIP3    H2 1633   1.823   3.642   1.983  1.2487 -1.3066 -0.0252
  557TIP3   OH2 1634   3.701   5.548   3.418  0.3043 -0.2153  0.7072
  557TIP3    H1 1635   3.649   5.609   3.365  2.5325  1.1459 -0.0221
  557TIP3    H2 1636   3.716   5.473   3.360  0.3578  0.0270  0.4043
  558TIP3   OH2 1637   3.779   5.570   1.342 -0.2734 -0.3862  0.6089
  558TIP3    H1 1638   3.690   5.582   1.308  0.0514 -1.0744 -0.5419
  558TIP3    H2 1639   3.793   5.475   1.340  1.0019 -0.2128 -0.6509
  559TIP3   OH2 1640   4.649   3.671   2.380  0.7884 -0.0064 -0.4735
  559TIP3    H1 1641   4.573   3.725   2.359  1.3456  1.2412  0.5842
  559TIP3    H2 1642   4.704   3.676   2.303  0.4330  0.2201 -0.7173
  560TIP3   OH2 1643  -0.008   3.872   0.333  0.3017 -0.0415 -0.5497
  560TIP3    H1 1644   0.019   3.780   0.326  0.2866 -0.1866  0.9333
  560TIP3    H2 1645   0.075   3.920   0.340  0.2886 -0.1711  0.7733
  561TIP3   OH2 1646   5.713   5.006   1.743 -0.3607  0.4613  0.3823
  561TIP3    H1 1647   5.740   5.097   1.756  0.3227  0.0122  2.4450
  561TIP3    H2 1648   5.674   4.980   1.826 -0.3418 -1.2201 -0.0970
  562TIP3   OH2 1649   3.456   0.369   4.164  0.0368 -0.0748 -0.2896
  562TIP3    H1 1650   3.364   0.343   4.153 -0.5182  1.6017  0.1193
  562TIP3    H2 1651   3.452   0.451   4.213  1.7734  0.0212 -0.2492
  563TIP3   OH2 1652   5.169   0.802   5.125  1.0031  0.2483 -0.2236
  563TIP3    H1 1653   5.153   0.718   5.082 -0.8230  0.4013  0.0906
  563TIP3    H2 1654   5.213   0.778   5.207 -0.2262 -0.5090  0.2511
  564TIP3   OH2 1655   4.471   2.805   5.543 -0.2404 -0.4263  0.0651
  564TIP3    H1 1656   4.506   2.743   5.479  0.3278 -1.3237  1.2079
  564TIP3    H2 1657   4.377   2.786   5.545 -0.2656 -0.3770 -0.5112
  565TIP3   OH2 1658   5.002   4.736   2.825 -0.0985  0.0637  0.2087
  565TIP3    H1 1659   5.034   4.825   2.812  2.7982 -0.9535 -0.4198
  565TIP3    H2 1660   4.920   4.733   2.776 -0.6621  2.5265  0.8441
  566TIP3   OH2 1661   3.591   6.082   5.150 -0.4681 -0.2426  1.0489
  566TIP3    H1 1662   3.565   6.008   5.094  2.0884 -1.1944  0.9777
  566TIP3    H2 1663   3.683   6.098   5.126 -0.0486  0.9248  3.2633
  567TIP3   OH2 1664   0.311   5.225   0.169  0.2226  0.0537 -0.3131
  567TIP3    H1 1665   0.373   5.294   0.143 -0.1637  0.3700 -0.4187
  567TIP3    H2 1666   0.365   5.155   0.204  0.6912  0.0287 -1.0772
  568TIP3   OH2 1667   6.867   0.594   4.300  0.3714 -0.1644  0.0515
  568TIP3    H1 1668   6.859   0.514   4.352  0.6703  0.2652  0.7859
  568TIP3    H2 1669   6.811   0.580   4.224 -1.1867 -0.2636  1.1743
  569TIP3   OH2 1670   1.778   4.909   2.597  0.3752 -0.3289  0.2664
  569TIP3    H1 1671   1.871   4.897   2.578  0.6734  1.4185  0.4606
  569TIP3    H2 1672   1.769   5.003   2.617 -1.8379  0.1090 -2.1906
  570TIP3   OH2 1673   5.798   3.552   4.929 -0.0194  0.5214  0.5697
  570TIP3    H1 1674   5.736   3.531   4.999 -1.0303 -1.5047 -0.8136
  570TIP3    H2 1675   5.770   3.638   4.897 -1.5494  0.0811  0.6212
  571TIP3   OH2 1676   5.752   1.158   2.991  0.7181  0.0194 -0.3109
  571TIP3    H1 1677   5.803   1.197   2.920  1.4824  1.5212  1.0083
  571TIP3    H2 1678   5.785   1.199   3.070 -1.8519  0.3508  0.7097
  572TIP3   OH2 1679   1.856   5.832   4.696  0.3426  0.4632  0.2583
  572TIP3    H1 1680   1.913   5.872   4.762 -0.6517  0.6186  1.0489
  572TIP3    H2 1681   1.852   5.739   4.721 -0.1914  0.5583  0.5639
  573TIP3   OH2 1682   3.158   2.187   1.842 -0.1295 -0.7368 -0.3152
  573TIP3    H1 1683   3.160   2.238   1.761  1.7750 -0.4008 -0.1054
  573TIP3    H2 1684   3.225   2.121   1.830  1.0627  0.0782  1.4407
  574TIP3   OH2 1685   0.256   0.132   5.877 -0.1122  0.5113  0.3410
  574TIP3    H1 1686   0.223   0.189   5.807 -0.6627  0.3737  0.4779
  574TIP3    H2 1687   0.344   0.107   5.848  0.1823  1.5063  0.3363
  575TIP3   OH2 1688   2.824   1.982   0.720  0.3748  0.4003 -0.1320
  575TIP3    H1 1689   2.835   2.061   0.772  0.4034 -0.3022  0.9527
  575TIP3    H2 1690   2.902   1.930   0.737 -0.1333 -0.3343  0.0198
  576TIP3   OH2 1691   0.867   1.082   1.505 -0.4568 -0.0843 -0.2617
  576TIP3    H1 1692   0.778   1.106   1.529 -0.4186 -1.1020  1.0056
  576TIP3    H2 1693   0.858   1.000   1.456 -0.3506  0.8448 -1.8981
  577TIP3   OH2 1694   1.213   0.341   2.370  0.3410 -0.1516  0.0653
  577TIP3    H1 1695   1.185   0.318   2.458  0.7670  1.2171  0.5940
  577TIP3    H2 1696   1.136   0.380   2.329  0.0229 -1.1823 -0.3221
  578TIP3   OH2 1697   0.336   6.145   2.752  0.2514  0.2373  0.1825
  578TIP3    H1 1698   0.381   6.104   2.827  0.1298  2.7497  1.7555
  578TIP3    H2 1699   0.308   6.071   2.698  1.8843 -1.6292  1.7043
  579TIP3   OH2 1700   6.396   6.052   3.322  0.2758  0.1065  0.1452
  579TIP3    H1 1701   6.460   5.986   3.350  0.8134  0.1667 -0.8928
  579TIP3    H2 1702   6.413   6.063   3.229 -1.6727 -0.3468 -0.3048
  580TIP3   OH2 1703   0.242   4.687   3.073 -0.5717 -0.7483  0.1210
  580TIP3    H1 1704   0.253   4.619   3.140  0.5485  0.7944  1.5927
  580TIP3    H2 1705   0.149   4.681   3.048 -0.9490 -1.5940  1.5878
  581TIP3   OH2 1706   4.654   2.964   0.416 -0.2005  0.3290 -0.6015
  581TIP3    H1 1707   4.666   2.928   0.504  0.4413  0.5643 -0.5908
  581TIP3    H2 1708   4.714   2.914   0.361  0.3502  1.0470 -0.6718
  582TIP3   OH2 1709   1.775   2.695   3.365 -0.0488 -0.0536  0.1127
  582TIP3    H1 1710   1.711   2.636   3.403 -0.5911 -0.5663 -1.5028
  582TIP3    H2 1711   1.781   2.768   3.427  0.8127 -1.8485  2.2628
  583TIP3   OH2 1712   0.015   0.272   2.122  0.0925 -0.4618 -0.3343
  583TIP3    H1 1713   0.109   0.283   2.135 -0.1787  0.4939  1.1859
  583TIP3    H2 1714  -0.008   0.335   2.053  0.1444  1.5697  1.3922
  584TIP3   OH2 1715   3.732   4.332   3.744  0.0366  0.1646  0.0807
  584TIP3    H1 1716   3.643   4.344   3.775  0.2039  0.5969  0.4015
  584TIP3    H2 1717   3.784   4.319   3.823  0.4360  1.0709 -0.0194
  585TIP3   OH2 1718   4.017   2.480   3.881  0.4448  0.1016  0.1481
  585TIP3    H1 1719   4.034   2.554   3.939  2.1728  0.5450 -0.8469
  585TIP3    H2 1720   4.071   2.409   3.915  0.9624  0.1647 -0.5290
  586TIP3   OH2 1721   4.204   2.427   0.284  0.6119 -0.3757 -0.0048
  586TIP3    H1 1722   4.229   2.519   0.273 -0.7558 -0.0329 -0.4149
  586TIP3    H2 1723   4.268   2.379   0.231  0.4811  0.4681 -0.9773
  587TIP3   OH2 1724   4.844   4.343   0.991 -0.2128 -0.2072 -0.5279
  587TIP3    H1 1725   4.845   4.438   0.989  1.6282 -0.1809  0.0183
  587TIP3    H2 1726   4.836   4.317   0.899 -1.1201  0.4502 -0.6475
  588TIP3   OH2 1727   5.884   6.107   5.396  0.1526  0.5369  1.3625
  588TIP3    H1 1728   5.789   6.091   5.389  0.2019 -0.3691  2.4011
  588TIP3    H2 1729   5.893   6.202   5.391 -0.7550  0.5965  0.6321
  589TIP3   OH2 1730   2.938   4.225   0.356 -0.1921 -0.1479  0.1412
  589TIP3    H1 1731   2.956   4.216   0.263 -2.8338 -1.5270 -0.3283
  589TIP3    H2 1732   2.872   4.294   0.362  0.3143  0.2764  1.0500
  590TIP3   OH2 1733   4.803   6.119   3.693 -0.2222 -0.0741 -0.0897
  590TIP3    H1 1734   4.786   6.178   3.620 -0.2854  0.3157  0.2355
  590TIP3    H2 1735   4.897   6.100   3.687  0.0445  0.9650  0.4612
  591TIP3   OH2 1736   0.697   5.173   2.392 -0.1639 -0.4352 -0.0084
  591TIP3    H1 1737   0.742   5.090   2.402  0.4391  0.0920  1.9601
  591TIP3    H2 1738   0.655   5.189   2.476 -1.2334  0.7149 -0.7179
  592TIP3   OH2 1739   5.930   5.340   3.007 -0.9421 -0.3164 -0.5285
  592TIP3    H1 1740   5.961   5.260   3.050 -0.9198 -1.0173 -1.8012
  592TIP3    H2 1741   5.943   5.324   2.914 -1.5469  0.9267 -0.8524
  593TIP3   OH2 1742   1.989   0.088   1.029  0.2053 -0.0830 -0.3959
  593TIP3    H1 1743   1.991   0.073   1.123  1.0063 -0.1497 -0.4207
  593TIP3    H2 1744   1.986  -0.000   0.991 -1.6933 -0.0468 -0.4171
  594TIP3   OH2 1745   5.120   0.737   3.279  0.5501  0.1857 -0.2978
  594TIP3    H1 1746   5.091   0.691   3.358  0.5430  0.6921  0.0026
  594TIP3    H2 1747   5.174   0.809   3.312 -0.9552  1.5201 -0.6222
  595TIP3   OH2 1748   0.923   4.981   5.335 -0.3409  0.0777  0.2925
  595TIP3    H1 1749   0.994   4.932   5.376  0.2551 -0.0342 -0.8442
  595TIP3    H2 1750   0.927   4.958   5.243 -1.3989  0.6355  0.0844
  596TIP3   OH2 1751   5.760   2.861   0.552  0.1993 -0.3568 -0.1094
  596TIP3    H1 1752   5.778   2.946   0.511 -3.6728 -0.0731 -1.6295
  596TIP3    H2 1753   5.734   2.883   0.641  0.1996 -0.0463 -0.1833
  597TIP3   OH2 1754   5.095   3.284   4.655 -0.1898 -0.3709  0.4784
  597TIP3    H1 1755   5.057   3.278   4.743 -1.7631 -1.8268 -0.2364
  597TIP3    H2 1756   5.020   3.299   4.598  0.8553  0.9323 -0.6049
  598TIP3   OH2 1757   3.391   2.305   2.822  0.1653  0.7047  0.2115
  598TIP3    H1 1758   3.356   2.387   2.788  1.1086  1.7280  1.6339
  598TIP3    H2 1759   3.357   2.299   2.911  0.0806 -0.4893  0.1255
  599TIP3   OH2 1760   3.320   3.750   2.241 -0.3577  0.4352 -0.3874
  599TIP3    H1 1761   3.404   3.705   2.251 -0.5153  0.0797 -0.6236
  599TIP3    H2 1762   3.334   3.838   2.277 -0.3702 -0.1608  1.1112
  600TIP3   OH2 1763   1.179   4.144   0.644 -0.2298  0.1030 -0.1764
  600TIP3    H1 1764   1.235   4.068   0.626 -0.2300  0.0408  0.0873
  600TIP3    H2 1765   1.120   4.115   0.713  1.6934  1.2345  2.1256
  601TIP3   OH2 1766   4.333   4.491   3.502  0.2584  0.6857 -0.1807
  601TIP3    H1 1767   4.258   4.448   3.543  1.5773 -0.8136  0.7794
  601TIP3    H2 1768   4.355   4.562   3.561 -0.4460  1.2048 -0.5240
  602TIP3   OH2 1769   2.182   1.838   2.394  0.1644  0.0814  0.5251
  602TIP3    H1 1770   2.199   1.931   2.374 -0.8705 -0.2401 -2.1920
  602TIP3    H2 1771   2.143   1.840   2.481 -0.2879  2.2541  0.3418
  603TIP3   OH2 1772   5.855   6.437   0.462 -0.0438 -0.0603 -0.2239
  603TIP3    H1 1773   5.813   6.465   0.543 -0.9171 -2.0396  0.0832
  603TIP3    H2 1774   5.795   6.371   0.426  2.5122 -2.7430  0.0207
  604TIP3   OH2 1775   3.893   2.187   2.738 -0.1627 -0.1212  0.0855
  604TIP3    H1 1776   3.943   2.205   2.658  1.4523 -1.5688  0.7168
  604TIP3    H2 1777   3.809   2.231   2.724  0.3127  0.1898 -2.1393
  605TIP3   OH2 1778   4.994   5.164   5.339  0.3703  0.2326 -0.4172
  605TIP3    H1 1779   4.912   5.115   5.345  1.4673 -1.8550 -1.3971
  605TIP3    H2 1780   5.017   5.161   5.246  0.6964  2.3282 -0.4454
  606TIP3   OH2 1781   6.304   1.447   1.762  0.3057  0.1071 -0.4152
  606TIP3    H1 1782   6.283   1.535   1.731 -2.0128 -0.4420 -0.5867
  606TIP3    H2 1783   6.290   1.451   1.857 -1.8702 -0.5037 -0.6362
  607TIP3   OH2 1784   4.427   0.406   4.365  0.4289 -0.4177  0.0702
  607TIP3    H1 1785   4.460   0.355   4.438 -2.1813 -0.6186  1.2184
  607TIP3    H2 1786   4.413   0.342   4.295  0.3601 -0.6864  0.3317
  608TIP3   OH2 1787   4.622   1.644   2.426  0.4117 -0.4949  0.1443
  608TIP3    H1 1788   4.679   1.673   2.355  0.7203 -1.7088 -0.1182
  608TIP3    H2 1789   4.583   1.725   2.459  1.0113  0.1874 -0.7571
  609TIP3   OH2 1790   3.254   3.593   5.533  0.0041 -0.2800  0.6933
  609TIP3    H1 1791   3.285   3.646   5.460  1.4476 -0.3988  1.1959
  609TIP3    H2 1792   3.229   3.657   5.600 -1.2025 -0.1756  0.1688
  610TIP3   OH2 1793   5.050   6.478   0.688  0.8542  0.3340 -0.6391
  610TIP3    H1 1794   4.954   6.474   0.684  0.7007  1.8997  0.4987
  610TIP3    H2 1795   5.079   6.412   0.625 -0.9676  0.0950 -1.3029
  611TIP3   OH2 1796   1.825   6.285   1.825  0.6477  0.4364  0.1591
  611TIP3    H1 1797   1.896   6.344   1.852 -0.1661  1.1742  0.7727
  611TIP3    H2 1798   1.746   6.327   1.859  0.1348 -1.6298  1.6908
  612TIP3   OH2 1799   5.756   2.181   0.773 -0.4309 -0.6921 -0.5317
  612TIP3    H1 1800   5.716   2.159   0.857  1.2701  1.1006  0.8205
  612TIP3    H2 1801   5.807   2.104   0.749  2.1776  0.0697  2.0812
  613TIP3   OH2 1802   2.768   1.426   4.910  0.0828 -0.0403 -0.1467
  613TIP3    H1 1803   2.798   1.508   4.873  2.2382 -1.0386 -0.7808
  613TIP3    H2 1804   2.840   1.397   4.967 -1.6908 -0.2646  2.1664
  614TIP3   OH2 1805   1.661   5.792   4.465  0.4837  0.0309 -0.6500
  614TIP3    H1 1806   1.750   5.792   4.431  0.8053 -0.1199  0.1642
  614TIP3    H2 1807   1.669   5.826   4.555 -0.2885  0.1047 -0.5973
  615TIP3   OH2 1808   4.875   6.130   0.599 -0.2256  0.5678 -0.1901
  615TIP3    H1 1809   4.874   6.167   0.687  0.6998 -0.3238  0.2090
  615TIP3    H2 1810   4.933   6.187   0.550 -0.1714  0.6428 -0.0394
  616TIP3   OH2 1811   4.186   2.558   5.286  0.0537 -0.2355 -0.3023
  616TIP3    H1 1812   4.198   2.464   5.281 -0.1318 -0.2533 -0.4387
  616TIP3    H2 1813   4.145   2.573   5.371  1.7288 -0.0949  0.5008
  617TIP3   OH2 1814   6.294   3.268   1.119 -0.0744  0.0712 -0.0383
  617TIP3    H1 1815   6.328   3.335   1.179 -0.1482  0.0401  0.0377
  617TIP3    H2 1816   6.199   3.274   1.127 -0.0843 -1.2416  1.3071
  618TIP3   OH2 1817   1.632   0.814   3.849 -0.2562 -0.1599 -0.6477
  618TIP3    H1 1818   1.600   0.880   3.787  2.8140  1.9476 -0.2288
  618TIP3    H2 1819   1.591   0.837   3.932  0.7189  1.2526 -0.5277
  619TIP3   OH2 1820   1.048   0.410   3.012 -0.9746 -0.5190 -0.3404
  619TIP3    H1 1821   1.099   0.331   3.030  1.2380  1.1041  1.0856
  619TIP3    H2 1822   1.083   0.443   2.930  1.1786  1.1324  1.1267
  620TIP3   OH2 1823   6.773   4.809   1.705  0.6316  0.0811  0.1138
  620TIP3    H1 1824   6.844   4.815   1.768  2.0304 -1.4819 -1.2089
  620TIP3    H2 1825   6.700   4.772   1.754  1.4276 -0.3370  1.0053
  621TIP3   OH2 1826   1.302   3.231   0.687  0.0483  0.0312  0.3109
  621TIP3    H1 1827   1.356   3.203   0.761 -1.1462 -2.1920  0.4462
  621TIP3    H2 1828   1.364   3.267   0.623  1.3729 -0.2119  1.4128
  622TIP3   OH2 1829   3.884   0.019   5.078 -0.0588 -0.5172  0.0644
  622TIP3    H1 1830   3.802   0.054   5.041  0.3362 -2.4084 -2.8904
  622TIP3    H2 1831   3.934   0.097   5.102 -2.3103  0.7098  1.1327
  623TIP3   OH2 1832   6.389   0.161   2.285 -0.7816  0.0330 -0.3159
  623TIP3    H1 1833   6.311   0.210   2.311 -0.8266  0.4208 -1.1287
  623TIP3    H2 1834   6.461   0.204   2.331 -0.9945 -0.0174  0.0621
  624TIP3   OH2 1835   0.950   1.284   4.366  0.5410  0.1832  0.2151
  624TIP3    H1 1836   0.988   1.241   4.443 -0.2464 -0.9968 -0.0306
  624TIP3    H2 1837   1.023   1.294   4.306  1.2393  1.4155  1.2127
  625TIP3   OH2 1838   4.145   2.602   2.910  0.6308 -0.1448  0.9312
  625TIP3    H1 1839   4.166   2.685   2.866 -1.5806 -0.5611 -1.1754
  625TIP3    H2 1840   4.090   2.628   2.984  0.0821  0.3162  0.3803
  626TIP3   OH2 1841   4.117   1.131   4.866 -0.3908 -0.1827  0.0588
  626TIP3    H1 1842   4.099   1.104   4.956 -1.3390 -2.6245 -0.7945
  626TIP3    H2 1843   4.192   1.191   4.873 -0.8109  0.1564  2.4925
  627TIP3   OH2 1844   6.165   1.918   0.293  0.6147  0.3966  0.4733
  627TIP3    H1 1845   6.164   2.005   0.253  1.8737  1.2640  2.1864
  627TIP3    H2 1846   6.086   1.875   0.260 -0.2051  2.3038 -0.1759
  628TIP3   OH2 1847   6.886   0.405   0.319  0.0220 -0.3764  0.4609
  628TIP3    H1 1848   6.895   0.371   0.230 -0.3413  0.0464  0.2604
  628TIP3    H2 1849   6.968   0.452   0.335 -0.3847  0.5547 -0.0953
  629TIP3   OH2 1850   1.706   2.731   3.779 -0.7695  0.1778 -0.5875
  629TIP3    H1 1851   1.623   2.687   3.760 -1.1028  0.8408 -0.6590
  629TIP3    H2 1852   1.720   2.791   3.706 -1.2119  1.4936  0.3681
  630TIP3   OH2 1853   3.370   1.657   2.270 -0.1722 -0.0629  0.0522
  630TIP3    H1 1854   3.432   1.690   2.205 -0.3157 -0.5615 -0.3423
  630TIP3    H2 1855   3.423   1.613   2.335 -0.0353  0.3553  0.2282
  631TIP3   OH2 1856   1.309   2.052   3.208  0.3937 -0.1899 -0.2877
  631TIP3    H1 1857   1.362   1.996   3.151  0.5626 -0.6806  0.3325
  631TIP3    H2 1858   1.258   1.990   3.261  2.0446  0.1499  1.8070
  632TIP3   OH2 1859   6.322   1.524   4.901  0.3481  0.2977  0.3792
  632TIP3    H1 1860   6.305   1.471   4.823  0.3471  1.0327 -0.1193
  632TIP3    H2 1861   6.415   1.543   4.898  0.2824  0.6147  0.3838
  633TIP3   OH2 1862   6.983   5.473   2.112 -0.2242 -0.5717  0.7075
  633TIP3    H1 1863   6.907   5.528   2.091 -0.1584 -1.0553 -0.8880
  633TIP3    H2 1864   7.000   5.492   2.204 -0.4685  1.7879  0.3507
  634TIP3   OH2 1865   6.028   6.711   4.918  0.0273  0.3765 -0.1717
  634TIP3    H1 1866   6.071   6.771   4.979  0.0460 -0.1236  0.3157
  634TIP3    H2 1867   6.092   6.641   4.903 -1.2148 -1.4161  2.0816
  635TIP3   OH2 1868   5.761   0.800   5.076 -0.0736  0.0186 -0.8040
  635TIP3    H1 1869   5.841   0.749   5.062  0.2079  0.5106 -0.9907
  635TIP3    H2 1870   5.730   0.822   4.988 -0.6440 -0.5179 -0.7451
  636TIP3   OH2 1871   2.417   4.539   0.427  0.3502  0.1354 -0.6109
  636TIP3    H1 1872   2.433   4.465   0.485  0.9309 -1.0402 -2.2247
  636TIP3    H2 1873   2.479   4.606   0.457  1.4837 -0.8804 -0.6145
  637TIP3   OH2 1874   2.107   2.963   3.629 -0.0490  0.1475 -0.0667
  637TIP3    H1 1875   2.137   2.883   3.585  0.3213  1.2226 -1.8224
  637TIP3    H2 1876   2.029   2.990   3.581 -1.0509  0.0788  1.4436
  638TIP3   OH2 1877   4.951   4.779   5.622  0.2224  0.1489  0.4611
  638TIP3    H1 1878   4.944   4.714   5.692  1.6029 -0.3988  0.1189
  638TIP3    H2 1879   4.861   4.794   5.594 -0.0962 -2.3872 -0.1483
  639TIP3   OH2 1880   2.821   4.683   3.463  0.2236 -0.3280  0.9693
  639TIP3    H1 1881   2.789   4.593   3.456 -0.5605 -0.0156  0.4306
  639TIP3    H2 1882   2.762   4.724   3.526 -1.7725  0.7898 -1.4593
  640TIP3   OH2 1883   0.417   4.790   1.259 -0.2633 -0.4002  0.1331
  640TIP3    H1 1884   0.485   4.840   1.214 -0.5567  0.0647  0.2015
  640TIP3    H2 1885   0.423   4.819   1.350 -3.1526  2.7011 -0.4660
  641TIP3   OH2 1886   6.677   1.748   5.608 -0.0079 -0.7018 -0.3717
  641TIP3    H1 1887   6.640   1.826   5.650 -0.9403 -1.2442 -0.1524
  641TIP3    H2 1888   6.695   1.689   5.680 -1.8128 -1.7232 -0.6992
  642TIP3   OH2 1889   6.488   1.401   3.009 -0.2146  0.1148  0.0225
  642TIP3    H1 1890   6.399   1.367   3.010  0.0380 -0.6539 -1.1121
  642TIP3    H2 1891   6.531   1.357   3.083 -0.4054 -0.6248 -0.2908
  643TIP3   OH2 1892   3.998   2.308   0.085 -0.3181 -0.2889  0.0136
  643TIP3    H1 1893   3.910   2.287   0.055 -0.9489  2.7215 -0.4929
  643TIP3    H2 1894   3.986   2.339   0.175 -0.0946  1.8712 -0.6565
  644TIP3   OH2 1895   4.215   2.128   2.827  0.7859 -0.0959 -0.0416
  644TIP3    H1 1896   4.220   2.222   2.846 -0.5242  0.0619 -0.3752
  644TIP3    H2 1897   4.145   2.095   2.883  0.2217 -0.5703 -1.0005
  645TIP3   OH2 1898   1.920   6.590   4.401 -0.1376  0.0822  0.1365
  645TIP3    H1 1899   1.855   6.611   4.468 -0.9582 -0.2410 -0.5498
  645TIP3    H2 1900   1.981   6.530   4.445  0.6419  1.6103  1.2673
  646TIP3   OH2 1901   5.615   5.452   1.186 -0.1035  0.1110 -0.0270
  646TIP3    H1 1902   5.655   5.384   1.239 -2.5075 -1.8675 -0.5958
  646TIP3    H2 1903   5.542   5.485   1.239 -1.8433 -1.1200 -1.5280
  647TIP3   OH2 1904   7.146   3.029   4.698  0.2093  0.3608  0.0529
  647TIP3    H1 1905   7.131   3.090   4.771  0.7580  1.7835 -0.9581
  647TIP3    H2 1906   7.059   2.999   4.674 -0.0318  0.3393  0.9082
  648TIP3   OH2 1907   6.500   2.649   3.405 -0.1283  0.2412 -0.2380
  648TIP3    H1 1908   6.545   2.573   3.443  1.0582  0.6779 -0.7446
  648TIP3    H2 1909   6.570   2.712   3.386 -1.0027  1.1231 -0.6265
  649TIP3   OH2 1910   4.976   5.399   4.665 -0.4191 -0.7494  0.2002
  649TIP3    H1 1911   5.024   5.352   4.733 -2.3700 -0.4483  1.9087
  649TIP3    H2 1912   4.973   5.490   4.696  0.2727 -0.1932 -1.2724
  650TIP3   OH2 1913   4.675   4.874   3.243  0.3485  0.2028 -0.1776
  650TIP3    H1 1914   4.623   4.937   3.293 -1.7192 -1.3856 -0.1659
  650TIP3    H2 1915   4.684   4.913   3.156  0.8062  1.3499  0.3625
  651TIP3   OH2 1916   3.290   4.124   2.810 -0.2148  0.6681 -0.2206
  651TIP3    H1 1917   3.311   4.031   2.821 -0.2821  0.5955 -0.7073
  651TIP3    H2 1918   3.312   4.163   2.894 -0.6258  0.1285  0.1456
  652TIP3   OH2 1919   6.296   2.598   4.175 -0.2155 -0.1676 -0.5666
  652TIP3    H1 1920   6.206   2.597   4.142 -0.6988  0.1450  0.7029
  652TIP3    H2 1921   6.331   2.512   4.151 -1.5731 -1.1537  0.8361
  653TIP3   OH2 1922   2.780   2.151   5.426 -0.0918 -0.0211 -0.7234
  653TIP3    H1 1923   2.689   2.126   5.408 -0.1538  1.0853 -2.1292
  653TIP3    H2 1924   2.774   2.212   5.499 -0.1208 -2.4084  1.4039
  654TIP3   OH2 1925   5.195   1.425   3.933  1.0593 -0.0131  0.3896
  654TIP3    H1 1926   5.145   1.431   4.014  2.4243 -0.7616  1.3169
  654TIP3    H2 1927   5.129   1.405   3.866 -0.1626  1.2273  1.1817
  655TIP3   OH2 1928   6.292   0.980   5.294  0.6936 -0.1334  0.2565
  655TIP3    H1 1929   6.249   1.022   5.219  1.1922 -1.0564 -0.5671
  655TIP3    H2 1930   6.320   1.053   5.349 -2.3650  0.5183  1.1345
  656TIP3   OH2 1931   6.483   3.538   2.618 -0.3629  0.6473 -0.0819
  656TIP3    H1 1932   6.506   3.485   2.542  0.1493 -0.2611  0.6912
  656TIP3    H2 1933   6.398   3.505   2.646 -1.3822  2.1230 -1.2436
  657TIP3   OH2 1934   2.027   1.456   4.814  0.4312 -0.6836  0.2402
  657TIP3    H1 1935   1.999   1.375   4.855 -0.6126 -0.9900 -1.0211
  657TIP3    H2 1936   2.113   1.436   4.776  1.2906 -0.4718  1.9309
  658TIP3   OH2 1937   3.441   3.364   3.359  0.8092 -0.0461 -0.9292
  658TIP3    H1 1938   3.426   3.278   3.321 -1.9733  0.6775 -1.7142
  658TIP3    H2 1939   3.381   3.422   3.312  1.8545  2.1534  0.2629
  659TIP3   OH2 1940   2.350   6.055   2.376 -0.5002 -0.3752  0.3395
  659TIP3    H1 1941   2.410   5.980   2.373 -0.6046 -0.4465  0.0406
  659TIP3    H2 1942   2.374   6.109   2.301  0.4773  0.5933  1.3022
  660TIP3   OH2 1943   4.156   4.198   5.161 -0.1815  0.3875  0.2959
  660TIP3    H1 1944   4.079   4.147   5.136  0.4887 -1.4414  1.6820
  660TIP3    H2 1945   4.188   4.155   5.241  1.7640  1.6294  0.2541
  661TIP3   OH2 1946   0.306   0.814   4.817  0.2211  0.4323  0.4293
  661TIP3    H1 1947   0.218   0.832   4.852 -0.0572  1.5208 -0.7861
  661TIP3    H2 1948   0.360   0.884   4.853  0.1317  1.0024 -0.5294
  662TIP3   OH2 1949   3.529   3.419   3.926 -0.5004 -0.1615  0.5407
  662TIP3    H1 1950   3.613   3.458   3.951 -1.8992  1.8899  2.4808
  662TIP3    H2 1951   3.526   3.427   3.831  0.5291  1.9315  0.6356
  663TIP3   OH2 1952   0.895   4.145   0.874  0.3278 -0.4038 -0.2571
  663TIP3    H1 1953   0.843   4.079   0.919  0.0239  0.0239  0.0239
  663TIP3    H2 1954   0.928   4.202   0.944 -0.0909  0.2247 -0.5637
  664TIP3   OH2 1955   6.909   0.173   2.771  0.3009  0.3526  0.4874
  664TIP3    H1 1956   6.916   0.132   2.857 -1.7193  1.3892  1.2077
  664TIP3    H2 1957   7.000   0.179   2.740  1.1181  0.2507  2.6686
  665TIP3   OH2 1958   4.373   0.517   0.378  0.0674 -0.4087 -0.0091
  665TIP3    H1 1959   4.436   0.446   0.370  0.9411  0.5324 -2.2349
  665TIP3    H2 1960   4.290   0.478   0.350  0.0540 -1.1190  0.9712
  666TIP3   OH2 1961   1.904   3.579   0.146 -0.2467  0.3220  0.0195
  666TIP3    H1 1962   1.966   3.507   0.158 -0.4532  0.2581  0.7311
  666TIP3    H2 1963   1.861   3.589   0.231  0.3098  1.7803  0.1621
  667TIP3   OH2 1964   4.023   6.375   1.735 -0.1710 -0.8331 -0.0622
  667TIP3    H1 1965   3.991   6.423   1.658 -0.4142 -0.4674  0.2631
  667TIP3    H2 1966   4.087   6.314   1.699  0.9833  0.5051 -0.3706
  668TIP3   OH2 1967   5.590   1.871   5.746 -0.0291 -0.1179 -0.1990
  668TIP3    H1 1968   5.536   1.898   5.671  1.3620  1.3580 -0.7360
  668TIP3    H2 1969   5.548   1.913   5.821  0.5570  1.3950 -0.6709
  669TIP3   OH2 1970   5.040   3.883   1.355  0.2743  0.6506 -0.0651
  669TIP3    H1 1971   5.100   3.810   1.339 -1.1880 -0.1289 -2.4486
  669TIP3    H2 1972   4.992   3.893   1.273 -1.6118  2.4097  1.1655
  670TIP3   OH2 1973   3.007   6.315   1.889  0.6835 -0.3291 -0.4997
  670TIP3    H1 1974   2.939   6.367   1.931  0.9007 -1.8310  1.8581
  670TIP3    H2 1975   3.087   6.365   1.902  0.5381 -0.1360 -0.3456
  671TIP3   OH2 1976   0.376   0.167   4.031 -0.0925 -0.4573 -0.3478
  671TIP3    H1 1977   0.378   0.113   3.952  1.3827  1.0983 -1.4561
  671TIP3    H2 1978   0.427   0.245   4.008 -0.2155  0.3730  1.9232
  672TIP3   OH2 1979   4.716   4.026   4.593 -0.2580 -0.4829 -0.0433
  672TIP3    H1 1980   4.657   4.047   4.521  0.0208  1.6906  0.2705
  672TIP3    H2 1981   4.798   4.003   4.550 -0.1142  0.7274 -0.4792
  673TIP3   OH2 1982   5.346   4.300   4.761  0.1163  0.5334  0.0017
  673TIP3    H1 1983   5.395   4.275   4.839  0.8503  0.2868 -0.5254
  673TIP3    H2 1984   5.256   4.307   4.790  0.2580 -0.3725  0.6932
  674TIP3   OH2 1985   5.942   4.653   4.515 -0.2646  0.3583 -0.5508
  674TIP3    H1 1986   5.922   4.665   4.423 -2.4131  2.4762  0.0920
  674TIP3    H2 1987   5.934   4.741   4.553 -0.5132 -0.6166  1.8300
  675TIP3   OH2 1988   2.883   3.043   5.146  0.4464 -0.2942 -0.1530
  675TIP3    H1 1989   2.947   2.975   5.165  0.4844 -0.2731 -0.2022
  675TIP3    H2 1990   2.898   3.064   5.053  1.6089  0.9750  0.2779
  676TIP3   OH2 1991   0.080   2.739   4.454 -0.2947 -0.2227 -0.0163
  676TIP3    H1 1992   0.010   2.713   4.514  0.4427  0.5392  1.1972
  676TIP3    H2 1993   0.047   2.714   4.368 -1.3717 -1.3437  0.6887
  677TIP3   OH2 1994   2.150   4.965   0.778 -0.3005  0.1382 -0.0308
  677TIP3    H1 1995   2.130   4.872   0.789 -1.7450  0.4136 -0.0866
  677TIP3    H2 1996   2.219   4.968   0.711 -1.0568 -0.8444 -0.8862
  678TIP3   OH2 1997   4.998   2.373   3.525  0.1805 -0.0633 -0.1669
  678TIP3    H1 1998   5.045   2.324   3.592 -0.3802 -0.2869  0.0689
  678TIP3    H2 1999   4.933   2.424   3.573  0.3778  0.4793 -0.4622
  679TIP3   OH2 2000   4.769   4.168   0.701 -0.6942  0.2953 -0.7907
  679TIP3    H1 2001   4.710   4.238   0.727  0.3411  1.6240 -1.8220
  679TIP3    H2 2002   4.720   4.118   0.635 -1.8403 -0.6708  0.7238
  680TIP3   OH2 2003   3.561   1.795   4.826  0.1111  0.2234  0.3474
  680TIP3    H1 2004   3.496   1.742   4.873 -0.5001 -0.3174 -1.0468
  680TIP3    H2 2005   3.634   1.803   4.887 -1.1310  0.5889  1.8376
  681TIP3   OH2 2006   1.304   3.239   2.514  0.4945  0.2336  0.5473
  681TIP3    H1 2007   1.244   3.164   2.514  1.4267 -0.5420  0.0584
  681TIP3    H2 2008   1.377   3.211   2.570  1.9612 -0.1950 -1.4470
  682TIP3   OH2 2009   6.359   2.863   2.068  0.1160  0.0683  0.2038
  682TIP3    H1 2010   6.428   2.918   2.108  0.2052  1.2247 -1.4292
  682TIP3    H2 2011   6.303   2.838   2.141  1.4319  0.3476  1.3572
  683TIP3   OH2 2012   3.010   1.408   5.062  0.4547 -1.0202 -0.3189
  683TIP3    H1 2013   3.020   1.501   5.041 -1.6253 -0.8062 -0.6164
  683TIP3    H2 2014   3.058   1.396   5.144  1.4371  0.1157 -0.7028
  684TIP3   OH2 2015   2.522   5.114   1.771 -0.6445 -0.0393  0.6630
  684TIP3    H1 2016   2.527   5.209   1.755  0.5875 -0.1139  0.5369
  684TIP3    H2 2017   2.590   5.077   1.715 -1.9649 -1.1499 -0.2834
  685TIP3   OH2 2018   2.994   6.262   1.201 -0.0307 -0.2674  0.2772
  685TIP3    H1 2019   2.941   6.198   1.247 -0.2378 -0.3960 -0.1311
  685TIP3    H2 2020   2.991   6.341   1.255 -1.0825 -0.1013 -0.0064
  686TIP3   OH2 2021   4.913   1.691   1.845 -0.1729 -0.5680  0.4371
  686TIP3    H1 2022   4.998   1.728   1.819 -0.5280 -0.3443 -0.4602
  686TIP3    H2 2023   4.934   1.607   1.884  0.3615 -1.3568 -1.4461
  687TIP3   OH2 2024   2.322   0.805   0.610  0.2220 -0.2996 -0.3708
  687TIP3    H1 2025   2.327   0.709   0.610  1.0166 -0.2623 -0.1429
  687TIP3    H2 2026   2.253   0.825   0.547 -0.6043 -1.0532  0.2579
  688TIP3   OH2 2027   6.571   6.184   0.701  0.5782  0.0820  0.3740
  688TIP3    H1 2028   6.513   6.217   0.770  0.3257 -0.6296  0.5041
  688TIP3    H2 2029   6.544   6.093   0.689  0.2394  0.3587 -1.0709
  689TIP3   OH2 2030   5.622   5.448   2.784  0.5483 -0.3997  0.4474
  689TIP3    H1 2031   5.631   5.405   2.699 -0.6705 -0.7073  0.4647
  689TIP3    H2 2032   5.675   5.528   2.776 -0.4899  0.1815 -1.0188
  690TIP3   OH2 2033   1.003   1.987   0.884 -0.2541 -0.1296 -0.6457
  690TIP3    H1 2034   1.072   1.935   0.923  1.4186  2.5127  0.1821
  690TIP3    H2 2035   0.944   2.007   0.956  1.0688  2.0047 -0.0566
  691TIP3   OH2 2036   6.795   2.473   4.307  0.0617 -0.1294  0.4758
  691TIP3    H1 2037   6.716   2.483   4.253  0.9005  1.2487 -0.5645
  691TIP3    H2 2038   6.866   2.466   4.244  0.9030 -0.1221  1.4113
  692TIP3   OH2 2039   4.021   2.754   3.152 -0.1728  0.3784 -0.2107
  692TIP3    H1 2040   3.967   2.816   3.201 -0.5633 -1.0609  1.2654
  692TIP3    H2 2041   3.974   2.671   3.157  1.3230 -0.5234 -0.3634
  693TIP3   OH2 2042   4.427   5.138   3.582  0.0603 -0.7998  0.2756
  693TIP3    H1 2043   4.376   5.114   3.660  0.0401 -0.8374  0.2506
  693TIP3    H2 2044   4.518   5.134   3.610  0.0128  1.4961  1.0031
  694TIP3   OH2 2045   0.229   4.941   0.013 -0.1236 -0.0194  0.2285
  694TIP3    H1 2046   0.175   4.882   0.065 -2.2816  1.4232 -0.2560
  694TIP3    H2 2047   0.299   4.969   0.073  0.0168 -1.7808  0.9348
  695TIP3   OH2 2048   5.246   0.342   1.341 -0.1988 -0.0752  0.2150
  695TIP3    H1 2049   5.325   0.342   1.394  1.6991 -0.3681 -2.4364
  695TIP3    H2 2050   5.216   0.433   1.343  0.1349  0.0269  1.2760
  696TIP3   OH2 2051   5.685   5.937   3.422  0.3383 -0.1972 -0.1807
  696TIP3    H1 2052   5.689   5.849   3.385 -0.0166 -0.1194 -0.4203
  696TIP3    H2 2053   5.718   5.928   3.511  0.8814 -0.4569 -0.4041
  697TIP3   OH2 2054   1.383   2.747   1.493  0.0273 -0.2548  0.3570
  697TIP3    H1 2055   1.401   2.660   1.528 -0.0338 -1.4647 -2.3167
  697TIP3    H2 2056   1.469   2.786   1.480  0.1651 -0.7840 -0.3704
  698TIP3   OH2 2057   6.547   0.513   2.594 -0.5131  0.1939 -0.1241
  698TIP3    H1 2058   6.631   0.478   2.623  0.3477  1.0470 -1.4780
  698TIP3    H2 2059   6.496   0.435   2.570  0.1735 -0.2991 -0.0232
  699TIP3   OH2 2060   5.212   0.868   0.635  0.1968 -0.0817  0.2845
  699TIP3    H1 2061   5.299   0.902   0.613  0.5081 -0.4570  0.8940
  699TIP3    H2 2062   5.158   0.887   0.558  0.6520  0.7282  0.1527
  700TIP3   OH2 2063   0.800   1.817   4.282  0.3169 -0.1641  0.2240
  700TIP3    H1 2064   0.745   1.752   4.327 -1.6274 -0.3389 -2.1776
  700TIP3    H2 2065   0.779   1.805   4.189  0.8647  3.0451 -0.4128
  701TIP3   OH2 2066   2.306   3.041   4.821  0.7468  0.0101  0.2016
  701TIP3    H1 2067   2.297   2.946   4.830 -0.4609  0.0487 -0.3183
  701TIP3    H2 2068   2.230   3.077   4.867  1.2223  0.7273  0.4410
  702TIP3   OH2 2069   5.363   0.601   3.899  0.3100  0.0507  0.2230
  702TIP3    H1 2070   5.284   0.554   3.873 -1.2844  2.1969  0.9418
  702TIP3    H2 2071   5.332   0.686   3.929  3.0050  1.4344 -0.5904
  703TIP3   OH2 2072   5.216   4.178   2.884  0.0677  0.8140 -0.0252
  703TIP3    H1 2073   5.309   4.168   2.860 -0.2731  0.7922 -1.3904
  703TIP3    H2 2074   5.199   4.272   2.875 -0.2003  0.7311 -0.3814
  704TIP3   OH2 2075   2.313   1.744   1.202  0.3227  0.2194  0.3859
  704TIP3    H1 2076   2.359   1.790   1.132  2.4447 -0.5896  1.1506
  704TIP3    H2 2077   2.228   1.722   1.164  1.1325  0.4103 -1.7060
  705TIP3   OH2 2078   1.235   0.914   1.414  0.2362 -0.3875  0.3052
  705TIP3    H1 2079   1.179   0.923   1.491 -0.1856 -0.0144 -0.0398
  705TIP3    H2 2080   1.185   0.859   1.353  0.5808 -0.7077  0.3028
  706TIP3   OH2 2081   3.518   2.176   4.007 -0.1023  0.2723  0.2214
  706TIP3    H1 2082   3.571   2.142   4.080  0.0043  2.7353  1.3936
  706TIP3    H2 2083   3.564   2.255   3.979 -0.3128 -0.4649 -2.3835
  707TIP3   OH2 2084   6.900   0.948   1.257 -0.3275  0.1070 -0.5913
  707TIP3    H1 2085   6.939   1.002   1.188 -1.1406  1.0191 -0.3789
  707TIP3    H2 2086   6.902   1.004   1.335  2.1560 -1.5084  0.6482
  708TIP3   OH2 2087   0.090   1.228   1.205 -0.1902  0.3483 -0.2226
  708TIP3    H1 2088   0.110   1.254   1.115  2.1553 -0.8096 -0.1087
  708TIP3    H2 2089   0.103   1.308   1.256 -0.2878  0.7156 -0.7591
  709TIP3   OH2 2090   5.133   1.929   0.627  0.2944 -0.1638 -0.3012
  709TIP3    H1 2091   5.096   1.856   0.676  0.0591 -1.2067 -1.9520
  709TIP3    H2 2092   5.060   1.989   0.615 -0.0528 -0.6597 -0.7178
  710TIP3   OH2 2093   2.872   4.523   0.050  0.0688  0.1387  0.0259
  710TIP3    H1 2094   2.881   4.601  -0.004 -0.2014  0.3192  0.2380
  710TIP3    H2 2095   2.956   4.515   0.096  0.0188  0.4306  0.1716
  711TIP3   OH2 2096   0.046   5.809   2.981  0.0921 -0.2464 -0.2123
  711TIP3    H1 2097   0.009   5.795   3.068 -0.8984  0.3014 -0.5281
  711TIP3    H2 2098   0.139   5.786   2.990  0.3039  1.0176  1.3112
  712TIP3   OH2 2099   2.506   6.212   4.980  0.0955  0.2649 -0.4112
  712TIP3    H1 2100   2.573   6.169   5.034  0.2045  0.4138 -0.4274
  712TIP3    H2 2101   2.549   6.226   4.896  1.6959  4.5456  0.8870
  713TIP3   OH2 2102   6.256   1.066   0.897  0.3300  0.3894  0.6979
  713TIP3    H1 2103   6.287   0.976   0.894 -0.0567  0.2717 -0.0200
  713TIP3    H2 2104   6.310   1.108   0.963 -0.6045 -0.7933  2.2780
  714TIP3   OH2 2105   1.671   6.259   2.909  0.9672  0.0460  0.5352
  714TIP3    H1 2106   1.756   6.302   2.904  0.9513  0.0274  0.0986
  714TIP3    H2 2107   1.657   6.245   3.003  0.9938  0.9449  0.6806
  715TIP3   OH2 2108   0.830   5.476   2.577 -0.1523 -0.3877 -0.9221
  715TIP3    H1 2109   0.852   5.441   2.491  1.6682 -1.8933  0.0718
  715TIP3    H2 2110   0.799   5.400   2.627  2.5351 -0.4549  0.8769
  716TIP3   OH2 2111   4.690   2.258   0.308  0.2359 -0.0334 -0.6322
  716TIP3    H1 2112   4.645   2.180   0.277 -0.7492  1.1360 -2.3515
  716TIP3    H2 2113   4.778   2.229   0.331 -0.8135 -2.0797  1.2012
  717TIP3   OH2 2114   3.337   2.315   2.187 -0.0064  0.0991  0.0534
  717TIP3    H1 2115   3.414   2.259   2.200 -0.5622 -0.9190 -0.8555
  717TIP3    H2 2116   3.372   2.404   2.190  0.9920 -0.2875  0.9877
  718TIP3   OH2 2117   0.810   2.558   0.701  0.0795  0.1677 -0.5060
  718TIP3    H1 2118   0.837   2.626   0.639 -0.9869  0.0638 -1.1214
  718TIP3    H2 2119   0.787   2.606   0.781  0.1586  0.4499 -0.6506
  719TIP3   OH2 2120   6.840   0.333   2.184 -0.6369 -0.4577 -0.2003
  719TIP3    H1 2121   6.784   0.269   2.139 -0.0011 -1.3196  0.2225
  719TIP3    H2 2122   6.877   0.385   2.113 -1.6852 -0.1025 -0.5098
  720TIP3   OH2 2123   3.414   4.963   0.504 -0.0020  0.3199 -0.3302
  720TIP3    H1 2124   3.379   4.931   0.587 -0.7751 -0.4960 -0.9543
  720TIP3    H2 2125   3.337   4.979   0.450  0.4909  0.8601 -0.8939
  721TIP3   OH2 2126   4.948   0.146   2.159  0.0449  0.7567  0.3387
  721TIP3    H1 2127   5.023   0.109   2.207 -0.6351 -1.0419  0.0709
  721TIP3    H2 2128   4.900   0.070   2.127 -1.6321  1.8843  0.0615
  722TIP3   OH2 2129  -0.017   3.318   2.391 -0.3887 -0.0213 -0.1705
  722TIP3    H1 2130   0.067   3.357   2.367  0.6415 -1.4806  0.8794
  722TIP3    H2 2131  -0.039   3.263   2.316  1.6229 -2.7047  1.0519
  723TIP3   OH2 2132   2.861   6.569   0.504  0.1758  0.5158  0.0532
  723TIP3    H1 2133   2.852   6.536   0.415  1.5744  0.4681 -0.0945
  723TIP3    H2 2134   2.920   6.507   0.547 -0.9258  0.2147  1.2074
  724TIP3   OH2 2135   1.309   2.567   5.742  0.1621  0.5352  0.8930
  724TIP3    H1 2136   1.277   2.597   5.827 -1.0296 -1.0640  1.0545
  724TIP3    H2 2137   1.235   2.579   5.683  0.3557 -0.1053  0.5144
  725TIP3   OH2 2138   2.342   5.076   3.563 -0.1263 -0.0736 -0.1537
  725TIP3    H1 2139   2.342   5.156   3.616  1.2341 -1.5550  2.2669
  725TIP3    H2 2140   2.257   5.076   3.519 -0.7690  1.9366  0.9489
  726TIP3   OH2 2141   5.429   1.467   0.469 -0.2870  0.4310  0.0584
  726TIP3    H1 2142   5.403   1.496   0.557  1.5271  0.8849  0.4840
  726TIP3    H2 2143   5.475   1.542   0.432  1.3188 -0.6577 -0.2331
  727TIP3   OH2 2144   7.141   2.511   3.416 -0.2655  0.2087 -0.3405
  727TIP3    H1 2145   7.182   2.569   3.480  3.1002 -1.7664 -0.4832
  727TIP3    H2 2146   7.101   2.442   3.468  2.2287 -1.2449 -0.1932
  728TIP3   OH2 2147   1.882   5.639   4.151 -0.1121  0.2429  0.2249
  728TIP3    H1 2148   1.933   5.558   4.148 -3.1788 -1.9107  0.8799
  728TIP3    H2 2149   1.888   5.667   4.242 -0.4985 -0.3303  0.4361
  729TIP3   OH2 2150   6.313   0.325   2.530 -0.3643  0.2866  0.3819
  729TIP3    H1 2151   6.241   0.303   2.590 -0.3812 -0.7513  0.0108
  729TIP3    H2 2152   6.280   0.398   2.478 -2.3366 -1.8726 -1.6990
  730TIP3   OH2 2153   4.799   0.041   2.522  0.5324  0.0311  0.1657
  730TIP3    H1 2154   4.709   0.009   2.514 -0.0987  2.1115 -2.2801
  730TIP3    H2 2155   4.854  -0.032   2.494 -0.4981 -0.6596 -0.0802
  731TIP3   OH2 2156   7.058   6.553   3.058 -0.1570  0.0665 -0.0102
  731TIP3    H1 2157   7.139   6.511   3.029 -0.5948 -1.4394  0.8513
  731TIP3    H2 2158   6.990   6.513   3.004 -0.2495  2.3610 -1.7605
  732TIP3   OH2 2159   1.705   6.219   3.813  0.1776  0.4016  0.2246
  732TIP3    H1 2160   1.790   6.176   3.816 -0.1329 -0.2074  2.2489
  732TIP3    H2 2161   1.678   6.225   3.905 -1.0383  2.4822 -0.1899
  733TIP3   OH2 2162   4.992   2.960   3.921 -0.6540 -0.4610 -0.0200
  733TIP3    H1 2163   5.023   2.964   3.830  0.5366  2.6273  0.3795
  733TIP3    H2 2164   5.050   2.897   3.963  0.7459  0.2334 -0.8166
  734TIP3   OH2 2165   6.156   1.756   4.941  0.0509  0.1735 -0.3070
  734TIP3    H1 2166   6.188   1.833   4.894 -0.1586  1.7965  2.0179
  734TIP3    H2 2167   6.219   1.687   4.922  2.9257  2.2262  1.1971
  735TIP3   OH2 2168   5.581   2.049   4.778  0.1613  0.0255  0.0226
  735TIP3    H1 2169   5.564   1.995   4.855  0.2105 -1.5469 -1.0211
  735TIP3    H2 2170   5.668   2.086   4.793 -0.0850  0.2385  0.9824
  736TIP3   OH2 2171   6.017   1.131   5.216  0.0912  0.3573 -0.5390
  736TIP3    H1 2172   6.008   1.101   5.125 -0.8358 -0.0597 -0.3295
  736TIP3    H2 2173   5.952   1.200   5.225  1.2258  1.4598 -0.6047
  737TIP3   OH2 2174   4.900   3.530   5.754 -0.6935 -0.8637  0.6373
  737TIP3    H1 2175   4.990   3.560   5.747 -0.7379 -0.7415  0.5918
  737TIP3    H2 2176   4.874   3.509   5.664 -1.5429  1.5189  0.2425
  738TIP3   OH2 2177   7.157   0.810   3.129 -0.0204  0.0232 -0.4690
  738TIP3    H1 2178   7.225   0.877   3.120 -0.1597  0.3113  0.4235
  738TIP3    H2 2179   7.135   0.812   3.223  1.2102 -2.4815 -0.0456
  739TIP3   OH2 2180   4.836   0.118   5.589 -0.0587 -0.2733 -0.1557
  739TIP3    H1 2181   4.818   0.025   5.574  0.0041 -0.6352  1.7750
  739TIP3    H2 2182   4.790   0.163   5.517 -1.2807 -1.7094 -0.3234
  740TIP3   OH2 2183   3.082   1.178   3.692  0.4163  0.0564  0.2362
  740TIP3    H1 2184   3.064   1.125   3.769  0.4257  1.4399  1.2320
  740TIP3    H2 2185   3.039   1.132   3.620 -0.9646 -0.4350  1.3341
  741TIP3   OH2 2186   1.716   1.988   3.158  0.2301 -0.7554  0.4646
  741TIP3    H1 2187   1.752   2.075   3.176  1.8427 -1.5737  1.4436
  741TIP3    H2 2188   1.657   1.970   3.231 -0.3979 -0.3460  0.0648
  742TIP3   OH2 2189   6.557   6.689   0.910 -0.4186  0.1651 -0.0941
  742TIP3    H1 2190   6.487   6.655   0.966 -1.0233  1.2008 -0.1849
  742TIP3    H2 2191   6.512   6.723   0.833  0.0407  1.7934  0.3030
  743TIP3   OH2 2192   1.908   2.782   1.230 -0.1136  0.1555 -0.0509
  743TIP3    H1 2193   1.878   2.730   1.305 -2.5792  0.5606 -0.6647
  743TIP3    H2 2194   1.887   2.728   1.154  1.0732  0.3449 -0.5333
  744TIP3   OH2 2195   3.873   6.509   4.331  0.6315  0.0630 -0.1432
  744TIP3    H1 2196   3.839   6.505   4.421  0.8642 -0.0325 -0.0612
  744TIP3    H2 2197   3.920   6.592   4.327  1.4433 -0.3825  0.1084
  745TIP3   OH2 2198   0.036   5.600   5.814 -0.0888  0.4749 -0.1457
  745TIP3    H1 2199   0.051   5.542   5.889 -1.6910  0.4901  0.2244
  745TIP3    H2 2200   0.054   5.688   5.848 -0.1309  0.4193  0.0216
  746TIP3   OH2 2201   3.388   1.873   4.591  0.1423 -0.3270  0.3212
  746TIP3    H1 2202   3.326   1.945   4.583 -1.2676 -1.5516 -0.2665
  746TIP3    H2 2203   3.446   1.899   4.663 -0.1964  1.4546 -0.0038
  747TIP3   OH2 2204   0.268   4.034   2.459 -0.1459 -0.0571 -0.1158
  747TIP3    H1 2205   0.207   3.993   2.520  0.6913 -1.8906 -0.4203
  747TIP3    H2 2206   0.343   3.974   2.457  0.0881  0.2278 -2.5014
  748TIP3   OH2 2207   4.852   6.751   0.790 -0.1797  0.5726 -0.0538
  748TIP3    H1 2208   4.767   6.746   0.834 -1.2852 -1.5531 -2.2108
  748TIP3    H2 2209   4.831   6.759   0.697  1.9188 -1.3092 -0.7795
  749TIP3   OH2 2210   3.470   1.439   0.805 -0.9225  0.0518  0.0786
  749TIP3    H1 2211   3.426   1.456   0.721 -1.1532  0.6116  0.3108
  749TIP3    H2 2212   3.539   1.504   0.810 -0.3333 -0.5514 -0.0803
  750TIP3   OH2 2213   0.666   4.043   4.715 -0.2087  0.5523 -0.4833
  750TIP3    H1 2214   0.616   4.117   4.682 -1.7078 -0.9829 -1.8249
  750TIP3    H2 2215   0.720   4.080   4.785 -2.5634  2.4528  0.4423
  751TIP3   OH2 2216   1.750   4.598   2.048  0.0941 -0.0356  0.4856
  751TIP3    H1 2217   1.746   4.535   1.976  0.3153  0.1176  0.3370
  751TIP3    H2 2218   1.828   4.573   2.097 -0.5078 -0.6508  1.1552
  752TIP3   OH2 2219   4.302   0.885   5.203 -0.4842 -0.3179  0.1628
  752TIP3    H1 2220   4.232   0.950   5.191  0.4506  0.6687 -0.0738
  752TIP3    H2 2221   4.261   0.802   5.179 -0.9949  0.5136 -2.1462
  753TIP3   OH2 2222   1.894   4.699   0.971  0.1910 -0.2515  0.0919
  753TIP3    H1 2223   1.834   4.627   0.950  1.6734 -1.3753 -0.5026
  753TIP3    H2 2224   1.977   4.671   0.934  1.1223  1.1917  1.0236
  754TIP3   OH2 2225   6.281   1.697   1.638 -0.1055 -0.1231 -0.3620
  754TIP3    H1 2226   6.240   1.682   1.553  0.3930 -3.1479 -0.1989
  754TIP3    H2 2227   6.358   1.750   1.618 -0.1327 -0.5683 -1.7867
  755TIP3   OH2 2228   6.344   5.115   4.587  0.0873 -0.2513  0.8917
  755TIP3    H1 2229   6.363   5.082   4.499  0.1187  0.8162  0.4843
  755TIP3    H2 2230   6.288   5.191   4.573  0.6780  0.3633  1.7584
  756TIP3   OH2 2231   1.445   1.987   1.962  0.6120  0.3526 -0.3512
  756TIP3    H1 2232   1.423   2.080   1.967 -2.2608 -0.2446  0.1685
  756TIP3    H2 2233   1.455   1.959   2.053 -1.4965 -0.3646 -0.2718
  757TIP3   OH2 2234   2.846   3.470   4.377 -0.5741  0.6141  0.5216
  757TIP3    H1 2235   2.884   3.524   4.308 -0.5194  1.9401  1.5391
  757TIP3    H2 2236   2.833   3.530   4.450 -3.1005 -0.1327  0.7920
  758TIP3   OH2 2237   2.115   0.831   0.374 -0.3977  0.4163  0.3518
  758TIP3    H1 2238   2.056   0.797   0.306  0.2291 -1.9158  0.9022
  758TIP3    H2 2239   2.080   0.918   0.394 -0.6398  1.1853 -2.8785
  759TIP3   OH2 2240   6.364   3.274   3.942 -0.1234 -0.4651  0.2231
  759TIP3    H1 2241   6.413   3.252   4.022  1.7235  1.7136 -0.1950
  759TIP3    H2 2242   6.357   3.369   3.944 -1.3220 -0.4785 -1.5220
  760TIP3   OH2 2243   4.233   5.355   0.718  0.5477  0.9467  0.3535
  760TIP3    H1 2244   4.187   5.322   0.641 -3.3333  4.7719  0.6649
  760TIP3    H2 2245   4.181   5.323   0.792  1.1250  1.6455  1.0781
  761TIP3   OH2 2246   6.052   3.926   5.334  0.6056 -0.2372 -0.3065
  761TIP3    H1 2247   5.967   3.885   5.348  0.2988  0.2739 -0.6037
  761TIP3    H2 2248   6.035   4.020   5.347  0.5709  0.1570 -2.6407
  762TIP3   OH2 2249   0.141   3.813   4.330 -0.4001  0.0551  0.1849
  762TIP3    H1 2250   0.091   3.768   4.398 -0.6967 -0.5041 -0.3876
  762TIP3    H2 2251   0.121   3.906   4.342 -1.7782 -0.1733 -0.1769
  763TIP3   OH2 2252   2.555   5.382   1.721 -0.0985  0.0810  0.3599
  763TIP3    H1 2253   2.536   5.470   1.754 -2.3862 -0.1422 -0.2447
  763TIP3    H2 2254   2.557   5.392   1.626 -1.1669 -0.6414  0.2516
  764TIP3   OH2 2255   2.886   4.970   2.719 -0.3473 -0.1644 -0.1017
  764TIP3    H1 2256   2.808   4.957   2.774 -2.2370  0.2220 -2.4921
  764TIP3    H2 2257   2.889   4.893   2.663  1.0061 -0.1618 -0.0563
  765TIP3   OH2 2258   6.307   5.084   5.413 -0.2448  0.1385 -0.0490
  765TIP3    H1 2259   6.217   5.098   5.442 -0.1023 -1.9924  1.7524
  765TIP3    H2 2260   6.301   5.070   5.318 -1.7860  0.2573  0.0195
  766TIP3   OH2 2261   6.837   1.625   3.117  0.0055  0.1324  0.0718
  766TIP3    H1 2262   6.781   1.634   3.194 -0.9908 -1.4031 -0.4065
  766TIP3    H2 2263   6.778   1.640   3.043  0.1197 -1.6817 -0.4496
  767TIP3   OH2 2264   6.095   1.483   1.403 -0.1586  0.1582  0.0972
  767TIP3    H1 2265   6.059   1.558   1.356 -0.4230  0.0582  0.1425
  767TIP3    H2 2266   6.084   1.409   1.343  0.9716  0.3192 -0.3482
  768TIP3   OH2 2267   6.712   6.485   0.793 -0.3365  0.2492  0.1433
  768TIP3    H1 2268   6.650   6.414   0.777 -0.5074  0.4533 -0.1116
  768TIP3    H2 2269   6.664   6.549   0.845  0.1811 -0.3538  1.3876
  769TIP3   OH2 2270   7.064   4.046   0.037 -0.3596 -0.6410  0.1635
  769TIP3    H1 2271   7.128   3.976   0.020 -0.4170 -0.6280 -0.1076
  769TIP3    H2 2272   7.095   4.120  -0.015 -1.9737 -1.4016 -1.9869
  770TIP3   OH2 2273   4.441   4.883   5.462  0.0508 -0.2463 -0.0758
  770TIP3    H1 2274   4.463   4.967   5.501  1.2397 -0.1967 -0.8001
  770TIP3    H2 2275   4.351   4.893   5.431  0.5013  1.1000 -1.0159
  771TIP3   OH2 2276   1.297   3.033   3.262 -0.1905 -0.1793 -0.2350
  771TIP3    H1 2277   1.339   3.106   3.216 -2.1880  2.0468  1.2075
  771TIP3    H2 2278   1.232   3.075   3.319 -3.0023 -3.2151 -0.8746
  772TIP3   OH2 2279   4.976   4.636   2.454  0.4388  0.0810 -0.4026
  772TIP3    H1 2280   5.053   4.590   2.487  0.5108  0.1116 -0.5287
  772TIP3    H2 2281   4.960   4.598   2.368 -0.1653 -0.4884 -0.0493
  773TIP3   OH2 2282   4.059   1.112   2.917  0.3017 -0.0017 -0.2821
  773TIP3    H1 2283   4.145   1.146   2.895 -0.7146  0.5508 -4.1414
  773TIP3    H2 2284   4.009   1.190   2.943 -0.2347  0.5679 -2.7495
  774TIP3   OH2 2285   2.154   1.550   2.738  0.1100  0.1938  0.0654
  774TIP3    H1 2286   2.230   1.526   2.686 -0.6223 -1.4758 -0.2907
  774TIP3    H2 2287   2.090   1.582   2.674 -0.6047 -1.3831 -0.0590
  775TIP3   OH2 2288   6.101   3.660   0.389 -0.0356 -0.1514  0.8180
  775TIP3    H1 2289   6.023   3.610   0.412  0.1392 -1.3553 -0.9792
  775TIP3    H2 2290   6.075   3.712   0.313  0.7302 -0.1272  0.5621
  776TIP3   OH2 2291   1.046   6.714   4.489 -0.0667  0.2226 -0.1127
  776TIP3    H1 2292   1.015   6.623   4.487  0.5570  0.0220 -1.1602
  776TIP3    H2 2293   1.073   6.732   4.399  1.8009  0.7464  0.5102
  777TIP3   OH2 2294   3.221   5.386   0.579  0.5263 -0.0892 -0.1127
  777TIP3    H1 2295   3.250   5.462   0.529 -2.8253  0.1871 -1.9541
  777TIP3    H2 2296   3.193   5.422   0.664 -2.2508  1.1498 -1.4143
  778TIP3   OH2 2297   5.997   1.767   1.734  0.3860 -0.5614 -0.3852
  778TIP3    H1 2298   6.081   1.800   1.703  0.0927 -1.3236 -2.0782
  778TIP3    H2 2299   6.000   1.673   1.717 -0.6827 -0.6475 -0.1683
  779TIP3   OH2 2300   4.684   1.896   3.919 -0.1659 -0.1949 -0.0696
  779TIP3    H1 2301   4.714   1.807   3.901 -0.2566 -0.4565  0.9658
  779TIP3    H2 2302   4.713   1.947   3.844  1.7411 -0.6877  0.2498
  780TIP3   OH2 2303   6.850   5.110   4.303  0.4508 -0.5786 -0.6567
  780TIP3    H1 2304   6.798   5.094   4.382  0.8066 -1.7781 -0.6338
  780TIP3    H2 2305   6.785   5.123   4.234  0.1223 -0.8974 -0.4125
  781TIP3   OH2 2306   1.544   3.666   2.774 -0.3968 -0.0579  0.1333
  781TIP3    H1 2307   1.520   3.695   2.686 -1.5260 -0.9087  0.1330
  781TIP3    H2 2308   1.521   3.573   2.775  0.7043 -0.3368  0.9538
  782TIP3   OH2 2309   2.808   2.006   4.059  0.6622 -0.2963 -0.2903
  782TIP3    H1 2310   2.884   1.957   4.091 -0.4859 -1.6169  0.5446
  782TIP3    H2 2311   2.733   1.954   4.087 -0.6096  1.5657 -0.0535
  783TIP3   OH2 2312   6.727   1.650   2.640  0.3786  0.2916  0.1195
  783TIP3    H1 2313   6.818   1.628   2.620  0.0396 -0.7274 -0.3480
  783TIP3    H2 2314   6.713   1.615   2.728  0.1412 -0.4700 -0.2171
  784TIP3   OH2 2315   1.938   2.962   0.964  0.1659  0.3255 -0.0222
  784TIP3    H1 2316   1.984   3.030   0.916 -0.8602  0.9088 -0.2161
  784TIP3    H2 2317   1.879   3.010   1.023  0.5186 -0.3892  0.9428
  785TIP3   OH2 2318   4.935   6.613   4.581  0.0392  0.2242 -0.3968
  785TIP3    H1 2319   4.879   6.670   4.529  1.0089 -0.0518 -1.8232
  785TIP3    H2 2320   5.000   6.580   4.518  1.6251  0.3171  1.1318
  786TIP3   OH2 2321   0.466   3.171   3.208 -0.5503 -0.2709  0.3204
  786TIP3    H1 2322   0.386   3.125   3.233 -0.2216 -0.5549  0.8794
  786TIP3    H2 2323   0.499   3.123   3.132 -1.3925  0.4060 -0.4853
  787TIP3   OH2 2324   1.122   0.174   3.372 -0.0758  0.1713  0.5201
  787TIP3    H1 2325   1.207   0.206   3.402  0.2919 -1.3582  1.2392
  787TIP3    H2 2326   1.059   0.212   3.434  0.2998 -0.1459  1.1103
  788TIP3   OH2 2327   1.467   3.684   4.952 -0.5485  0.4694 -0.3641
  788TIP3    H1 2328   1.469   3.707   4.859 -0.7294 -1.3041 -0.8426
  788TIP3    H2 2329   1.377   3.700   4.979 -0.4296  1.2446 -0.4149
  789TIP3   OH2 2330   2.718   5.182   3.176 -0.0124 -0.1071 -0.7633
  789TIP3    H1 2331   2.737   5.206   3.267 -0.3754  1.6017 -1.1136
  789TIP3    H2 2332   2.763   5.098   3.164 -0.7782 -0.8610  1.2736
  790TIP3   OH2 2333   0.759   0.832   1.461  0.1697 -0.8612  0.7673
  790TIP3    H1 2334   0.674   0.851   1.421  0.5384 -0.3401  0.2190
  790TIP3    H2 2335   0.788   0.751   1.419  1.4821  0.7179 -1.5836
  791TIP3   OH2 2336   2.961   3.300   1.027 -0.0286  0.8951  0.1398
  791TIP3    H1 2337   2.963   3.250   1.109  0.1935 -0.9102 -0.9224
  791TIP3    H2 2338   2.876   3.344   1.029 -1.2215 -1.2525  0.1783
  792TIP3   OH2 2339   4.251   6.273   0.630  0.3705  0.4146  0.3868
  792TIP3    H1 2340   4.225   6.291   0.721 -0.4346  0.0479  0.2381
  792TIP3    H2 2341   4.203   6.337   0.578  1.4083  1.1188  0.2645
  793TIP3   OH2 2342   6.331   1.814   2.884 -0.1949  0.2343 -0.3042
  793TIP3    H1 2343   6.394   1.886   2.877 -0.0111 -0.0680 -2.6399
  793TIP3    H2 2344   6.252   1.848   2.842 -0.0473 -0.9203 -1.6224
  794TIP3   OH2 2345   0.699   3.286   4.215  0.0377  0.2482  0.3812
  794TIP3    H1 2346   0.621   3.297   4.160 -0.6150 -0.1028  1.2202
  794TIP3    H2 2347   0.694   3.358   4.278 -0.1760 -0.3692  1.0847
  795TIP3   OH2 2348   2.122   3.092   0.071 -0.0581  0.3204  0.0586
  795TIP3    H1 2349   2.169   3.035   0.132  2.6696  3.0454  0.7897
  795TIP3    H2 2350   2.035   3.101   0.110  0.3667 -1.0687  1.4472
  796TIP3   OH2 2351   4.267   6.252   2.175  0.5686  0.2518 -0.3442
  796TIP3    H1 2352   4.221   6.320   2.125  2.0272  2.8869  1.6556
  796TIP3    H2 2353   4.259   6.279   2.266  1.9579 -1.8416  0.4769
  797TIP3   OH2 2354   3.566   6.287   2.541  0.5591 -0.4709  0.1526
  797TIP3    H1 2355   3.526   6.235   2.611  0.9208  0.8709  1.4200
  797TIP3    H2 2356   3.636   6.232   2.507  0.1267 -1.3116  0.5918
  798TIP3   OH2 2357   1.110   3.861   4.356  0.1393 -0.3980  0.2143
  798TIP3    H1 2358   1.093   3.953   4.377  1.3079  0.1920 -1.2477
  798TIP3    H2 2359   1.163   3.829   4.429 -0.0711  0.1508  0.6145
  799TIP3   OH2 2360   6.429   2.097   4.093 -0.7246  0.2240 -0.5407
  799TIP3    H1 2361   6.357   2.037   4.114 -0.9553  0.1262 -1.5414
  799TIP3    H2 2362   6.466   2.061   4.012  1.4125 -0.5858  0.7050
  800TIP3   OH2 2363   0.251   1.148   3.621  0.1433 -0.0185 -0.4589
  800TIP3    H1 2364   0.300   1.174   3.699  2.3474 -0.1941 -1.6966
  800TIP3    H2 2365   0.266   1.220   3.558 -0.1986 -0.6481 -1.2811
  801TIP3   OH2 2366   2.680   3.604   5.368 -0.3151 -0.9463 -0.3278
  801TIP3    H1 2367   2.588   3.624   5.349 -0.3626 -1.7779 -1.0332
  801TIP3    H2 2368   2.677   3.527   5.424 -0.0966  0.2804  1.4427
  802TIP3   OH2 2369   5.183   6.185   0.268 -0.2468 -0.3890  0.6271
  802TIP3    H1 2370   5.194   6.269   0.224  0.8292 -0.0448  1.5156
  802TIP3    H2 2371   5.198   6.120   0.199 -0.7683  0.1371  0.0071
  803TIP3   OH2 2372   2.016   6.408   0.453 -0.1997 -0.2891  0.2076
  803TIP3    H1 2373   1.955   6.473   0.486 -0.0849  1.0309 -1.9838
  803TIP3    H2 2374   2.071   6.386   0.528 -0.8423  1.4500  1.2471
  804TIP3   OH2 2375   4.222   0.904   3.779  0.5705  0.0330 -0.1867
  804TIP3    H1 2376   4.240   0.821   3.823  2.1346  0.4575  0.0450
  804TIP3    H2 2377   4.262   0.894   3.692  0.5646  0.4497 -0.2396
  805TIP3   OH2 2378   1.494   0.413   2.444 -0.2950 -0.3780  0.3284
  805TIP3    H1 2379   1.468   0.460   2.523 -1.7538  0.9351 -0.8580
  805TIP3    H2 2380   1.414   0.370   2.414 -0.1839  0.3970 -1.2208
  806TIP3   OH2 2381   5.144   2.162   4.601 -0.8687 -0.6353 -0.2125
  806TIP3    H1 2382   5.053   2.179   4.626 -1.1397 -0.1690 -1.4935
  806TIP3    H2 2383   5.168   2.234   4.544  0.9443  0.2813  1.5694
  807TIP3   OH2 2384   3.424   2.585   5.172 -0.0116  0.0011  0.3924
  807TIP3    H1 2385   3.338   2.543   5.182 -0.7122  1.6428  1.8915
  807TIP3    H2 2386   3.404   2.671   5.135  0.9946  0.3788  0.7068
  808TIP3   OH2 2387   1.802   3.577   4.787  0.3084  0.1636 -0.1016
  808TIP3    H1 2388   1.766   3.495   4.822 -1.3266  0.3594 -1.2076
  808TIP3    H2 2389   1.830   3.625   4.865 -0.8713 -0.4871  0.7654
  809TIP3   OH2 2390   2.711   3.265   4.890 -0.1962 -0.0112  0.0253
  809TIP3    H1 2391   2.646   3.233   4.953 -1.2771  2.7103  0.4373
  809TIP3    H2 2392   2.660   3.281   4.810  0.4803 -0.1771 -0.4445
  810TIP3   OH2 2393   5.498   4.165   2.793  0.1099  0.5980  0.4445
  810TIP3    H1 2394   5.567   4.232   2.799 -0.3178  1.2882 -1.6115
  810TIP3    H2 2395   5.527   4.096   2.852  3.3449  0.2430 -1.3104
  811TIP3   OH2 2396   5.541   6.100   0.653 -0.7741 -0.1110 -0.1368
  811TIP3    H1 2397   5.604   6.084   0.722 -2.8242 -0.7007  1.7076
  811TIP3    H2 2398   5.524   6.014   0.615 -0.5190  0.0341 -0.5847
  812TIP3   OH2 2399   7.059   1.810   0.027 -0.2301  0.1409  0.2565
  812TIP3    H1 2400   7.088   1.774  -0.057 -1.7798 -0.2966 -0.1202
  812TIP3    H2 2401   7.139   1.815   0.080  0.4460 -1.4393 -0.5670
  813TIP3   OH2 2402   2.939   6.505   2.444  0.4858  0.3266  0.0631
  813TIP3    H1 2403   2.883   6.499   2.367 -1.0422 -1.6735  1.2539
  813TIP3    H2 2404   2.936   6.598   2.468 -1.0310  0.5428 -0.8444
  814TIP3   OH2 2405   4.895   5.280   0.870 -0.5231 -0.5461 -0.5130
  814TIP3    H1 2406   4.963   5.308   0.931 -0.4799 -0.5309 -0.5677
  814TIP3    H2 2407   4.814   5.281   0.921 -0.9222  1.8700 -1.0797
  815TIP3   OH2 2408   2.803   2.541   3.111  0.5154 -0.8860  0.2825
  815TIP3    H1 2409   2.806   2.457   3.157  0.7489 -0.2162  1.5263
  815TIP3    H2 2410   2.746   2.596   3.165 -0.6220 -0.5901 -1.1473
  816TIP3   OH2 2411   1.736   5.707   1.547 -0.5362  0.0722 -0.1578
  816TIP3    H1 2412   1.783   5.752   1.617 -1.9707  0.1100  0.8441
  816TIP3    H2 2413   1.734   5.770   1.475 -0.5350  0.7243  0.4013
  817TIP3   OH2 2414   0.821   3.455   0.132 -0.4572 -0.0451 -0.0756
  817TIP3    H1 2415   0.815   3.540   0.087 -2.4328 -0.3181 -0.4276
  817TIP3    H2 2416   0.760   3.399   0.084  0.4120 -1.5223  0.5002
  818TIP3   OH2 2417   3.567   1.866   0.549  0.3388  0.5921  0.1146
  818TIP3    H1 2418   3.646   1.880   0.497  1.5024  1.5377  2.0587
  818TIP3    H2 2419   3.539   1.953   0.574  0.3953  0.1220  1.9154
  819TIP3   OH2 2420   4.189   6.619   3.249 -0.1517 -0.0832  0.3281
  819TIP3    H1 2421   4.157   6.534   3.281  1.5092 -0.8099  0.2005
  819TIP3    H2 2422   4.253   6.647   3.315 -0.1613  0.7126  0.0066
  820TIP3   OH2 2423   0.069   2.745   2.516 -0.8573 -0.5800 -0.0276
  820TIP3    H1 2424   0.028   2.784   2.593 -2.1981  0.7413 -1.3332
  820TIP3    H2 2425  -0.004   2.719   2.461  0.0646 -0.8595 -1.1607
  821TIP3   OH2 2426   2.258   4.400   0.022  0.3398  0.2463 -0.3259
  821TIP3    H1 2427   2.299   4.437   0.100  0.1315 -0.2302  0.0108
  821TIP3    H2 2428   2.217   4.319   0.052 -0.6252  0.5796 -0.7195
  822TIP3   OH2 2429   4.354   3.020   2.884 -0.1747 -0.5871 -0.5620
  822TIP3    H1 2430   4.430   2.964   2.903 -0.9369 -1.2072  0.7994
  822TIP3    H2 2431   4.320   2.986   2.801  0.4972 -0.8927 -0.7220
  823TIP3   OH2 2432   3.981   2.136   4.617  0.3536  0.2904  0.3700
  823TIP3    H1 2433   3.937   2.140   4.533 -1.9785  0.7879  1.5445
  823TIP3    H2 2434   4.012   2.045   4.624 -0.2466  0.0048 -0.6101
  824TIP3   OH2 2435   6.294   0.345   1.367 -0.1716 -0.0841 -0.0699
  824TIP3    H1 2436   6.387   0.322   1.365 -0.2833 -0.9468  2.1329
  824TIP3    H2 2437   6.285   0.417   1.304  1.6078 -1.2043 -1.7121
  825TIP3   OH2 2438   2.200   2.892   0.760  0.0352  0.4949 -0.1631
  825TIP3    H1 2439   2.184   2.978   0.722  0.0984  0.4682 -0.2494
  825TIP3    H2 2440   2.191   2.906   0.854 -1.9493  0.1725 -0.2767
  826TIP3   OH2 2441   6.720   2.945   0.500  0.5872  0.4883  0.3206
  826TIP3    H1 2442   6.670   3.026   0.492  0.0205  0.1340  0.1908
  826TIP3    H2 2443   6.684   2.902   0.578 -0.3591 -0.4631 -0.5977
  827TIP3   OH2 2444   5.670   3.354   0.148 -0.1168  0.3366 -0.2218
  827TIP3    H1 2445   5.677   3.260   0.130 -0.4732  0.5435 -1.4642
  827TIP3    H2 2446   5.738   3.394   0.094  1.1770  0.6813  1.5452
  828TIP3   OH2 2447   0.304   6.326   4.186  0.4850 -0.5994  0.0078
  828TIP3    H1 2448   0.341   6.336   4.099  0.1386  0.4838 -0.0180
  828TIP3    H2 2449   0.349   6.391   4.239 -1.7099  1.1688 -0.1377
  829TIP3   OH2 2450   4.194   2.758   1.128  0.3176 -0.2112 -0.3806
  829TIP3    H1 2451   4.193   2.717   1.041 -0.7878 -2.4297  0.5790
  829TIP3    H2 2452   4.272   2.723   1.170  0.6795  0.6125 -0.3449
  830TIP3   OH2 2453   2.805   5.894   1.979 -0.0217  0.1744  0.2591
  830TIP3    H1 2454   2.857   5.972   2.001  1.1873 -0.4431 -0.3232
  830TIP3    H2 2455   2.869   5.831   1.947 -0.9618 -1.1349  0.8826
  831TIP3   OH2 2456   0.353   6.543   1.386  0.4096 -0.0324  0.3979
  831TIP3    H1 2457   0.325   6.627   1.421 -0.3379 -0.0442 -0.1601
  831TIP3    H2 2458   0.277   6.509   1.339  1.0008 -0.5822 -0.1898
  832TIP3   OH2 2459   2.462   2.203   2.301 -0.5811 -0.4017  0.0013
  832TIP3    H1 2460   2.390   2.167   2.353  0.2649 -0.6217  1.0533
  832TIP3    H2 2461   2.493   2.129   2.249 -0.1611 -0.6940  0.6552
  833TIP3   OH2 2462   5.356   5.532   0.321  0.0919  0.0362  0.3166
  833TIP3    H1 2463   5.264   5.556   0.328  0.7686  2.4924  3.3587
  833TIP3    H2 2464   5.360   5.440   0.347 -1.6666 -0.9175 -2.4076
  834TIP3   OH2 2465   5.950   2.933   1.242 -0.2865  0.2714  0.2155
  834TIP3    H1 2466   6.026   2.947   1.299  0.1741 -0.4100 -0.2185
  834TIP3    H2 2467   5.924   2.843   1.259 -1.4472  0.7029  0.8721
  835TIP3   OH2 2468   1.075   0.760   5.026 -0.4307  0.8272  0.3202
  835TIP3    H1 2469   1.169   0.744   5.029  0.0683  2.4635 -2.5926
  835TIP3    H2 2470   1.048   0.725   4.941 -2.4202  0.6547  0.9811
  836TIP3   OH2 2471   6.848   3.963   1.721  0.8370 -0.0028  0.8177
  836TIP3    H1 2472   6.833   4.024   1.649 -0.4817 -1.1863  0.0334
  836TIP3    H2 2473   6.823   4.011   1.800  0.3224  0.6354  0.2705
  837TIP3   OH2 2474   5.233   2.639   2.768  0.4424  0.1959  0.0160
  837TIP3    H1 2475   5.177   2.607   2.839 -0.2536 -0.9696 -1.0130
  837TIP3    H2 2476   5.222   2.574   2.699  3.9684 -0.7874  0.1738
  838TIP3   OH2 2477   3.492   4.747   3.803 -0.3872  0.1192  0.5682
  838TIP3    H1 2478   3.436   4.686   3.755 -1.1412  2.2892 -1.4998
  838TIP3    H2 2479   3.432   4.797   3.858  0.1238 -0.4039  1.6365
  839TIP3   OH2 2480   5.830   1.569   2.245 -0.1332 -0.2160 -0.3826
  839TIP3    H1 2481   5.909   1.616   2.271 -0.0044  0.0323 -1.1951
  839TIP3    H2 2482   5.848   1.538   2.156 -0.4721 -1.2466 -0.1075
  840TIP3   OH2 2483   1.157   3.585   0.474 -0.6829  0.3791  0.3327
  840TIP3    H1 2484   1.140   3.659   0.416  0.5177  0.5580  0.1743
  840TIP3    H2 2485   1.117   3.510   0.431 -2.0015  0.9309  0.5385
  841TIP3   OH2 2486   2.318   5.196   2.579 -0.2435  0.6252 -0.5120
  841TIP3    H1 2487   2.350   5.106   2.580 -0.6078  0.4964  0.3680
  841TIP3    H2 2488   2.395   5.250   2.596 -0.3900  0.3367  1.2504
  842TIP3   OH2 2489   2.724   1.683   2.071  0.3833 -0.0493 -0.2059
  842TIP3    H1 2490   2.710   1.692   2.165  0.1264 -0.6190 -0.1837
  842TIP3    H2 2491   2.709   1.770   2.036  0.0895  0.0828  0.2390
  843TIP3   OH2 2492   0.307   2.578   1.331 -0.9702  0.6131 -0.4005
  843TIP3    H1 2493   0.308   2.494   1.286 -0.8870  0.4123 -0.0290
  843TIP3    H2 2494   0.226   2.577   1.382 -1.7202  1.3736 -1.5329
  844TIP3   OH2 2495   0.899   4.257   0.123 -0.2084 -0.0600 -0.0359
  844TIP3    H1 2496   0.944   4.341   0.134 -1.1971  0.3693  0.9553
  844TIP3    H2 2497   0.816   4.279   0.081 -1.5230 -0.1557  2.3200
  845TIP3   OH2 2498   4.606   2.351   4.247 -0.4430 -0.1071 -0.1345
  845TIP3    H1 2499   4.598   2.283   4.180 -1.3755 -1.3598  1.1788
  845TIP3    H2 2500   4.700   2.360   4.261 -0.2567 -0.1520 -1.2824
  846TIP3   OH2 2501   2.872   4.481   5.780 -0.2517  0.2905 -0.3238
  846TIP3    H1 2502   2.894   4.422   5.708  0.7966  1.3200 -0.8889
  846TIP3    H2 2503   2.791   4.445   5.816  1.0762 -2.3258  0.3027
  847TIP3   OH2 2504   3.484   0.292   2.648  0.3154 -0.0101  0.9097
  847TIP3    H1 2505   3.448   0.229   2.585 -2.0952  2.3229 -0.2113
  847TIP3    H2 2506   3.431   0.280   2.726 -1.8525  2.1587 -0.1216
  848TIP3   OH2 2507   5.788   3.793   1.314  0.1365  0.2334 -0.2200
  848TIP3    H1 2508   5.756   3.862   1.256 -0.7886  0.4116  0.4760
  848TIP3    H2 2509   5.781   3.713   1.262  0.3946  0.5455 -0.7399
  849TIP3   OH2 2510   0.868   3.499   3.858 -0.3558 -0.4109  0.3653
  849TIP3    H1 2511   0.881   3.426   3.919  0.2504 -1.0503 -0.4956
  849TIP3    H2 2512   0.957   3.525   3.833 -0.5808  0.2981  0.2913
  850TIP3   OH2 2513   6.139   3.316   5.475 -0.4227 -0.3985  0.5147
  850TIP3    H1 2514   6.086   3.325   5.555 -0.5459 -0.3982  0.4326
  850TIP3    H2 2515   6.170   3.226   5.477 -1.2517 -0.7075  0.0465
  851TIP3   OH2 2516   0.183   4.746   4.769 -0.9194 -0.3501  0.1275
  851TIP3    H1 2517   0.107   4.688   4.770 -1.1438 -0.0733  1.5705
  851TIP3    H2 2518   0.169   4.803   4.694  0.2304 -3.2809 -2.5759
  852TIP3   OH2 2519   0.531   5.615   2.490 -0.4402  0.4239  0.8930
  852TIP3    H1 2520   0.599   5.597   2.425  0.1425 -1.9847  2.0337
  852TIP3    H2 2521   0.571   5.680   2.549  0.9868 -0.9764  1.5701
  853TIP3   OH2 2522   0.635   5.298   2.672  0.4395 -0.3990  0.6335
  853TIP3    H1 2523   0.542   5.316   2.659  0.3229 -1.8074 -0.8109
  853TIP3    H2 2524   0.638   5.243   2.751 -0.3384 -2.8694 -0.9500
  854TIP3   OH2 2525   5.978   6.369   5.332  0.2541  0.1143  0.3228
  854TIP3    H1 2526   5.893   6.397   5.297  0.1536  0.4493  0.8274
  854TIP3    H2 2527   6.042   6.409   5.274  0.0957  0.9404  0.7047
  855TIP3   OH2 2528   2.133   4.295   2.538 -0.1273  0.2214 -0.1699
  855TIP3    H1 2529   2.084   4.328   2.613  0.3709  1.2217 -0.2613
  855TIP3    H2 2530   2.175   4.215   2.569 -2.4845 -1.1813 -0.3443
  856TIP3   OH2 2531   4.569   3.810   4.434 -0.1483  0.3425 -0.0085
  856TIP3    H1 2532   4.660   3.836   4.444  0.0938 -0.7547  0.8992
  856TIP3    H2 2533   4.523   3.891   4.413  0.8500  1.1344  0.7525
  857TIP3   OH2 2534   3.981   2.994   4.231  0.0817  0.4366 -0.1762
  857TIP3    H1 2535   4.047   2.926   4.219 -1.3801 -0.9738 -0.6128
  857TIP3    H2 2536   3.959   2.989   4.324 -1.8740 -1.5876 -0.6518
  858TIP3   OH2 2537   6.572   3.203   3.279  0.2826  0.6061 -0.0825
  858TIP3    H1 2538   6.574   3.285   3.230 -0.6064  0.2240 -0.8024
  858TIP3    H2 2539   6.523   3.223   3.358  1.1852  1.0769  0.3699
  859TIP3   OH2 2540   4.663   3.337   4.420 -0.7785 -0.2352  0.0860
  859TIP3    H1 2541   4.754   3.307   4.416 -0.4945  0.5878  0.1254
  859TIP3    H2 2542   4.618   3.286   4.353  0.0741  0.5007 -1.0942
  860TIP3   OH2 2543   0.531   5.125   5.727 -0.2585 -0.0596 -0.2933
  860TIP3    H1 2544   0.452   5.124   5.673 -1.2456  1.0215  1.0565
  860TIP3    H2 2545   0.537   5.036   5.763 -1.1087 -0.0424 -0.0899
  861TIP3   OH2 2546   3.332   0.489   2.927 -0.3017 -0.2157 -0.5759
  861TIP3    H1 2547   3.318   0.427   2.856 -1.5211 -2.3416  1.3667
  861TIP3    H2 2548   3.427   0.487   2.942 -0.1688 -0.5781 -1.4235
  862TIP3   OH2 2549   2.552   2.453   2.965 -0.1246 -0.3155 -0.3189
  862TIP3    H1 2550   2.618   2.478   3.029 -1.1473  0.7995  0.3531
  862TIP3    H2 2551   2.586   2.485   2.881 -0.2134  1.1157  0.1594
  863TIP3   OH2 2552   3.545   4.568   0.638  0.2863 -0.1655  0.5078
  863TIP3    H1 2553   3.565   4.480   0.668  1.2705  0.4401  1.7363
  863TIP3    H2 2554   3.462   4.560   0.591 -0.9597 -1.3297  2.7573
  864TIP3   OH2 2555   0.620   3.168   2.752  0.2189 -0.5279  0.0162
  864TIP3    H1 2556   0.675   3.233   2.709 -1.5050  1.2146  0.3501
  864TIP3    H2 2557   0.572   3.216   2.819  0.0608 -2.4662  1.4116
  865TIP3   OH2 2558   6.641   1.036   1.756 -0.0236  0.0987  0.1190
  865TIP3    H1 2559   6.572   1.048   1.822  0.3893 -0.4729  0.6710
  865TIP3    H2 2560   6.712   1.092   1.786 -0.2895  0.8139 -0.5383
  866TIP3   OH2 2561   1.785   0.036   3.622 -0.3151  0.1190 -0.0454
  866TIP3    H1 2562   1.838   0.021   3.701 -2.0430 -3.0884  0.6780
  866TIP3    H2 2563   1.724   0.105   3.647 -1.9674 -1.9952  2.1600
  867TIP3   OH2 2564   6.219   1.010   5.677  0.4311 -0.0315  0.1033
  867TIP3    H1 2565   6.178   1.001   5.592  1.8691 -2.7516 -0.4101
  867TIP3    H2 2566   6.162   0.962   5.737 -0.0295  0.9978  0.5261
  868TIP3   OH2 2567   5.462   1.415   3.221 -0.3350  0.5746  0.0483
  868TIP3    H1 2568   5.387   1.473   3.223 -2.1428 -1.6229  0.4008
  868TIP3    H2 2569   5.520   1.452   3.155 -2.9166  1.0393 -2.1073
  869TIP3   OH2 2570   1.032   0.510   0.347 -0.5143 -0.4829 -0.0610
  869TIP3    H1 2571   1.107   0.538   0.400 -0.7678 -0.7298  0.4338
  869TIP3    H2 2572   1.012   0.422   0.380 -0.1379 -0.9913 -1.1490
  870TIP3   OH2 2573   6.242   2.783   0.969  0.5201  0.1890 -0.2458
  870TIP3    H1 2574   6.201   2.725   0.904 -0.8329  0.5234  0.2842
  870TIP3    H2 2575   6.316   2.733   1.003  0.9675 -0.1799 -1.6895
  871TIP3   OH2 2576   3.139   6.440   5.168 -0.0957 -0.1735 -0.5423
  871TIP3    H1 2577   3.217   6.444   5.113 -0.6169 -1.0433 -1.3721
  871TIP3    H2 2578   3.111   6.532   5.177  0.4663  0.0515 -1.0291
  872TIP3   OH2 2579   4.341   3.585   4.014  0.5016 -0.1117  0.1814
  872TIP3    H1 2580   4.434   3.563   4.011  0.6441  0.4324  0.4412
  872TIP3    H2 2581   4.300   3.509   4.055  1.2182  0.7375  2.7114
  873TIP3   OH2 2582   5.504   3.398   3.889 -0.4558 -0.2015  0.1224
  873TIP3    H1 2583   5.558   3.393   3.968  0.3459  1.1747 -0.3017
  873TIP3    H2 2584   5.473   3.489   3.887 -1.6987 -0.6138 -0.3733
  874TIP3   OH2 2585   3.058   4.269   2.710 -0.7204  0.4123  0.0543
  874TIP3    H1 2586   3.089   4.180   2.722  2.2700  1.0819 -1.6795
  874TIP3    H2 2587   3.043   4.301   2.799  0.9376 -0.9509  0.8890
  875TIP3   OH2 2588   6.947   1.582   0.099  0.2073  0.3366 -0.5657
  875TIP3    H1 2589   6.875   1.594   0.162 -1.1573 -0.3745 -1.9177
  875TIP3    H2 2590   6.977   1.670   0.080 -0.4376  0.6644 -0.1139
  876TIP3   OH2 2591   2.555   3.092   0.859  0.0391  0.7251 -0.5639
  876TIP3    H1 2592   2.510   3.126   0.782 -0.3164  0.8759 -0.2907
  876TIP3    H2 2593   2.596   3.169   0.899  0.9922  0.5164 -1.1001
  877TIP3   OH2 2594   5.220   3.452   2.988  0.6465 -0.2022  0.4002
  877TIP3    H1 2595   5.138   3.501   2.984  1.5566  1.4094  0.2765
  877TIP3    H2 2596   5.239   3.443   3.081  0.6113 -0.0351  0.4247
  878TIP3   OH2 2597   6.828   3.297   3.855 -0.1876  0.5824  0.8230
  878TIP3    H1 2598   6.852   3.319   3.765  0.8874 -0.2095  0.8939
  878TIP3    H2 2599   6.898   3.239   3.885 -0.2656  1.2167  2.3362
  879TIP3   OH2 2600   2.348   6.314   5.682  0.0008 -0.1500  0.5029
  879TIP3    H1 2601   2.356   6.409   5.687 -0.6066 -0.1118  0.7220
  879TIP3    H2 2602   2.319   6.297   5.593  0.1189 -0.1331  0.4608
  880TIP3   OH2 2603   4.928   3.663   3.933  0.3533 -0.6344 -0.1826
  880TIP3    H1 2604   4.946   3.750   3.967  0.2135 -1.2927  1.7293
  880TIP3    H2 2605   4.955   3.666   3.841 -1.5280  2.0011 -0.7756
  881TIP3   OH2 2606   0.051   0.569   2.034  0.3078 -0.2609  0.3268
  881TIP3    H1 2607   0.083   0.618   2.110  0.5534 -0.8341  0.5997
  881TIP3    H2 2608   0.130   0.535   1.993  0.1270 -0.6661  0.3062
  882TIP3   OH2 2609   5.126   5.107   1.224 -0.1619  0.1468  0.2643
  882TIP3    H1 2610   5.117   5.048   1.149  1.9197 -1.1070  0.9123
  882TIP3    H2 2611   5.201   5.072   1.273 -1.2455  1.0918  2.7697
  883TIP3   OH2 2612   3.199   0.486   0.448  0.5606  0.6607 -0.6024
  883TIP3    H1 2613   3.142   0.465   0.522 -0.3124  1.0111 -1.1538
  883TIP3    H2 2614   3.278   0.522   0.487 -0.1803  1.5122  0.1458
  884TIP3   OH2 2615   7.066   2.231   3.288 -0.4297 -0.3247 -0.0247
  884TIP3    H1 2616   6.995   2.198   3.342  0.7628  0.5335  2.1722
  884TIP3    H2 2617   7.130   2.159   3.285  0.3164  0.2515  1.2955
  885TIP3   OH2 2618   7.101   1.447   4.347  0.3548  0.0632 -0.3741
  885TIP3    H1 2619   7.101   1.382   4.276 -2.2040  1.4144 -1.8001
  885TIP3    H2 2620   7.029   1.506   4.324  1.0665  2.0488  2.0844
  886TIP3   OH2 2621   1.351   2.693   0.258 -0.0895  0.0854  0.1644
  886TIP3    H1 2622   1.406   2.618   0.234 -1.7937 -1.1030 -0.2411
  886TIP3    H2 2623   1.335   2.738   0.175  0.3077  0.4890  0.2979
  887TIP3   OH2 2624   3.929   1.712   1.032 -0.1463  0.2223  0.1485
  887TIP3    H1 2625   3.872   1.784   1.058  0.5909  0.6958  0.5040
  887TIP3    H2 2626   4.018   1.748   1.039  0.4819 -1.6122  3.3885
  888TIP3   OH2 2627   5.905   1.226   3.905  0.1491 -0.0517  0.3537
  888TIP3    H1 2628   5.988   1.187   3.878 -0.8785 -1.5528 -0.8385
  888TIP3    H2 2629   5.927   1.316   3.929  2.1054 -0.4122  0.0438
  889TIP3   OH2 2630   4.964   5.000   1.431  0.2218 -0.1656 -0.6515
  889TIP3    H1 2631   5.002   5.061   1.368 -1.7920  2.4436  0.4686
  889TIP3    H2 2632   4.911   4.940   1.379  2.3514 -1.1620 -1.7939
  890TIP3   OH2 2633   4.807   0.426   5.824 -0.0565 -0.5342 -0.7406
  890TIP3    H1 2634   4.847   0.409   5.739  0.1573 -0.0020 -0.7449
  890TIP3    H2 2635   4.879   0.420   5.887 -0.2394 -1.0770 -0.5736
  891TIP3   OH2 2636   4.745   4.820   2.422 -0.2724  0.0740 -0.3928
  891TIP3    H1 2637   4.692   4.899   2.413 -2.3196 -1.0595  0.8452
  891TIP3    H2 2638   4.745   4.781   2.334 -2.1571 -0.2421 -0.2972
  892TIP3   OH2 2639   2.884   3.754   2.559 -0.4812  0.1172  0.2157
  892TIP3    H1 2640   2.867   3.708   2.641  1.2502 -0.2630  0.3951
  892TIP3    H2 2641   2.832   3.708   2.494 -0.6770 -0.5364  0.8260
  893TIP3   OH2 2642   3.782   3.265   4.327  0.3589  0.4843 -0.0255
  893TIP3    H1 2643   3.773   3.341   4.386 -0.4567  0.1619  0.2831
  893TIP3    H2 2644   3.698   3.219   4.335  0.0640  0.6666 -1.7800
  894TIP3   OH2 2645   0.609   6.749   3.069 -0.2615 -0.1808  0.2054
  894TIP3    H1 2646   0.583   6.834   3.106  0.0045 -0.0480  0.0857
  894TIP3    H2 2647   0.644   6.700   3.143  1.7225  0.6480 -0.1447
  895TIP3   OH2 2648   1.363   6.153   1.114  0.3583 -0.3705  0.1340
  895TIP3    H1 2649   1.280   6.107   1.129  1.1063 -1.5898  0.6542
  895TIP3    H2 2650   1.366   6.219   1.184 -0.4811  0.1664 -0.3086
  896TIP3   OH2 2651   6.419   1.203   2.515 -0.2606  0.3179  0.6799
  896TIP3    H1 2652   6.353   1.256   2.558  0.8803  1.3235  1.2720
  896TIP3    H2 2653   6.387   1.191   2.425 -1.4261  0.4143  1.0799
  897TIP3   OH2 2654   5.077   4.585   1.017  0.7143 -0.0062 -0.2034
  897TIP3    H1 2655   5.125   4.557   1.095 -0.4957 -0.2731  0.4683
  897TIP3    H2 2656   5.093   4.515   0.953  0.3319 -0.6464  0.3888
  898TIP3   OH2 2657   7.086   2.639   2.059  0.1783 -0.4113 -0.0744
  898TIP3    H1 2658   7.060   2.721   2.018 -0.0334 -0.7524 -0.6383
  898TIP3    H2 2659   7.171   2.618   2.019  0.6531 -0.0124  0.7263
  899TIP3   OH2 2660   3.457   5.514   4.378 -0.4760  0.2041 -0.2505
  899TIP3    H1 2661   3.469   5.422   4.403  0.7705  0.0053 -1.4497
  899TIP3    H2 2662   3.409   5.511   4.296  1.5777  0.4495 -1.5391
  900TIP3   OH2 2663   4.159   5.699   2.138  0.2649  0.9803 -0.6829
  900TIP3    H1 2664   4.139   5.787   2.171  0.2278 -0.0090  2.1784
  900TIP3    H2 2665   4.217   5.661   2.203  1.0813 -0.8139 -2.3471
  901TIP3   OH2 2666   2.775   4.144   1.847  0.2456 -0.3592  0.1256
  901TIP3    H1 2667   2.715   4.218   1.837 -0.2749 -0.8799 -0.7184
  901TIP3    H2 2668   2.751   4.084   1.777  1.0935 -1.0398  0.3991
  902TIP3   OH2 2669   6.617   5.261   2.595 -1.2122  0.1151  0.0027
  902TIP3    H1 2670   6.699   5.214   2.581 -0.3022  1.7809 -0.6080
  902TIP3    H2 2671   6.597   5.247   2.687  0.4498  0.6528  0.4894
  903TIP3   OH2 2672   5.969   4.264   2.872 -0.2191 -0.2876 -0.1712
  903TIP3    H1 2673   5.955   4.185   2.925  0.3151 -0.8949 -0.9104
  903TIP3    H2 2674   6.054   4.251   2.831 -1.1556 -0.4694 -2.2061
  904TIP3   OH2 2675   0.607   0.995   1.857 -0.1358  0.6406 -0.2893
  904TIP3    H1 2676   0.589   0.901   1.854  1.3378  0.3544 -2.3149
  904TIP3    H2 2677   0.612   1.015   1.950  1.2593 -1.6809  0.2263
  905TIP3   OH2 2678   2.230   1.663   5.020 -0.1318 -0.3489 -0.0816
  905TIP3    H1 2679   2.194   1.732   5.076 -2.4030 -0.0747 -1.7315
  905TIP3    H2 2680   2.204   1.688   4.931 -0.0570 -2.7413 -0.8520
  906TIP3   OH2 2681   2.802   0.891   3.772 -0.0618  0.3025  0.2783
  906TIP3    H1 2682   2.743   0.828   3.732  0.7670 -0.6775  0.5592
  906TIP3    H2 2683   2.746   0.944   3.829 -0.6767 -0.5750  0.5062
  907TIP3   OH2 2684   2.555   1.705   1.378 -0.0845  0.1990  0.4565
  907TIP3    H1 2685   2.464   1.720   1.354  0.0945  0.7298  0.1143
  907TIP3    H2 2686   2.555   1.710   1.474 -0.2390  1.1989  0.4141
  908TIP3   OH2 2687   3.025   1.093   0.674 -0.1106  0.7731 -0.0103
  908TIP3    H1 2688   2.992   1.142   0.599  0.7784 -1.4341 -1.9576
  908TIP3    H2 2689   3.116   1.119   0.682 -0.2903  1.2518  0.5421
  909TIP3   OH2 2690   6.047   0.198   1.357  0.5276 -0.3546 -0.0808
  909TIP3    H1 2691   6.114   0.262   1.381  0.6031 -0.4841  0.0584
  909TIP3    H2 2692   6.068   0.175   1.267  2.2050 -2.2452  0.7009
  910TIP3   OH2 2693   5.709   3.211   2.945 -0.1769  0.0666  0.3278
  910TIP3    H1 2694   5.777   3.277   2.958  0.1400  0.3446 -2.2168
  910TIP3    H2 2695   5.757   3.129   2.935 -0.5964 -0.8069  4.0872
  911TIP3   OH2 2696   1.485   1.692   3.092  0.5050  0.0210  0.3033
  911TIP3    H1 2697   1.412   1.678   3.152  0.8921  1.3148  1.1169
  911TIP3    H2 2698   1.550   1.627   3.118 -1.0598 -2.5579 -1.7561
  912TIP3   OH2 2699   5.591   5.312   2.524  0.0795 -0.1989 -0.0123
  912TIP3    H1 2700   5.612   5.277   2.437  0.2402 -1.6497  0.5684
  912TIP3    H2 2701   5.522   5.376   2.509  0.5221  0.0110 -1.2694
  913TIP3   OH2 2702   6.278   0.249   1.631  0.3950 -0.9735 -0.3491
  913TIP3    H1 2703   6.303   0.292   1.550 -0.0556 -1.4231 -0.7329
  913TIP3    H2 2704   6.228   0.315   1.679  1.0024 -0.5780 -0.2598
  914TIP3   OH2 2705   0.972   1.800   3.228 -0.3382  0.3499 -0.0433
  914TIP3    H1 2706   1.015   1.789   3.143 -1.0149 -1.1776 -0.2259
  914TIP3    H2 2707   1.032   1.854   3.279  1.0380 -0.4012 -0.8180
  915TIP3   OH2 2708   2.311   1.099   2.051  0.1611 -0.1123  0.3540
  915TIP3    H1 2709   2.381   1.147   2.094 -0.4788  1.8485 -0.6812
  915TIP3    H2 2710   2.332   1.103   1.958  0.1102 -1.9365  0.2305
  916TIP3   OH2 2711   2.489   5.457   5.725 -0.0401 -0.3449  0.4555
  916TIP3    H1 2712   2.456   5.532   5.774  1.8583  0.8243  0.0153
  916TIP3    H2 2713   2.436   5.456   5.645  0.3758  0.9980  0.1344
  917TIP3   OH2 2714   3.119   1.601   0.373 -0.0142 -0.4372  0.0576
  917TIP3    H1 2715   3.029   1.582   0.401 -0.2357  0.4422 -0.0301
  917TIP3    H2 2716   3.118   1.591   0.278  0.3553 -1.8764  0.1800
  918TIP3   OH2 2717   3.479   1.706   5.104 -0.1375  0.0823 -0.1075
  918TIP3    H1 2718   3.501   1.760   5.180  1.7449 -0.1106 -0.4785
  918TIP3    H2 2719   3.532   1.627   5.114 -1.1636 -0.7152 -0.7556
  919TIP3   OH2 2720   0.634   0.704   5.718  0.1635  0.1692 -0.0574
  919TIP3    H1 2721   0.714   0.714   5.666 -0.2051 -0.3433 -0.7432
  919TIP3    H2 2722   0.564   0.697   5.653 -0.5986  1.8084  0.5422
  920TIP3   OH2 2723   0.975   0.773   3.871  0.5369 -0.1750  0.2346
  920TIP3    H1 2724   0.989   0.678   3.872  1.6492 -0.0284  0.3261
  920TIP3    H2 2725   0.925   0.791   3.950  1.6826 -0.5153  1.0718
  921TIP3   OH2 2726   2.446   1.107   1.401  0.5605  0.0459 -0.2195
  921TIP3    H1 2727   2.490   1.169   1.344 -1.9613  0.3072 -2.0302
  921TIP3    H2 2728   2.401   1.161   1.466  2.8113 -0.2240  1.7074
  922TIP3   OH2 2729   2.289   3.962   4.073  0.6547  0.8312 -0.6645
  922TIP3    H1 2730   2.331   4.005   4.147  0.3388  0.6548 -0.3806
  922TIP3    H2 2731   2.198   3.952   4.100  0.9305 -0.9978 -0.2608
  923TIP3   OH2 2732   2.883   6.657   0.765 -0.0493  0.2228  0.9517
  923TIP3    H1 2733   2.896   6.591   0.696 -2.0993 -0.7512  1.3948
  923TIP3    H2 2734   2.862   6.737   0.717  0.9338  0.1753  0.4195
  924TIP3   OH2 2735   0.402   4.514   2.684 -0.2302 -0.2453  0.6587
  924TIP3    H1 2736   0.358   4.439   2.644 -1.2751  0.4852  0.4088
  924TIP3    H2 2737   0.342   4.544   2.753  0.1759  0.3571  0.7572
  925TIP3   OH2 2738   0.610   6.688   0.683  1.0660 -0.3573  0.0500
  925TIP3    H1 2739   0.663   6.617   0.721  1.9750 -0.0735 -0.6566
  925TIP3    H2 2740   0.565   6.648   0.609  1.3058 -0.2810 -0.1368
  926TIP3   OH2 2741   1.674   5.178   3.247 -0.0943 -0.1260  0.1281
  926TIP3    H1 2742   1.598   5.121   3.243 -0.3686  0.2589 -0.1178
  926TIP3    H2 2743   1.671   5.216   3.335 -0.0793 -0.2585  0.1854
  927TIP3   OH2 2744   6.720   1.927   4.095 -0.1030 -0.3299  0.7491
  927TIP3    H1 2745   6.662   1.937   4.020 -0.5251  3.2466  1.4085
  927TIP3    H2 2746   6.771   2.008   4.099  1.1317 -1.0904  3.3372
  928TIP3   OH2 2747   0.328   5.146   5.542 -0.1284  0.0863 -0.2269
  928TIP3    H1 2748   0.330   5.240   5.562  0.4318  0.1093 -0.3579
  928TIP3    H2 2749   0.395   5.135   5.474 -1.2594 -0.1632 -1.3264
  929TIP3   OH2 2750   2.070   4.890   2.466 -0.2454  0.1045  0.6746
  929TIP3    H1 2751   2.160   4.889   2.497 -0.0477  1.0036  0.1785
  929TIP3    H2 2752   2.053   4.982   2.445 -0.6751 -0.3061 -0.9204
  930TIP3   OH2 2753   4.994   2.819   0.709  0.0536 -0.3097  0.5052
  930TIP3    H1 2754   4.992   2.724   0.708  0.4529 -0.3321 -1.6509
  930TIP3    H2 2755   4.908   2.844   0.743 -0.4323 -1.4260  0.1296
  931TIP3   OH2 2756   4.228   5.760   4.096  0.1319 -0.3787  0.2391
  931TIP3    H1 2757   4.226   5.665   4.108  0.7531 -0.5293 -0.6934
  931TIP3    H2 2758   4.161   5.793   4.155 -0.7346 -1.4754 -0.0849
  932TIP3   OH2 2759   1.794   1.327   5.382 -0.7442 -0.4096  0.4083
  932TIP3    H1 2760   1.699   1.316   5.377 -0.7553 -0.9371  1.4320
  932TIP3    H2 2761   1.806   1.392   5.451 -0.3613 -0.3206  0.2557
  933TIP3   OH2 2762   5.526   3.527   3.017 -0.1068 -0.2145 -0.4274
  933TIP3    H1 2763   5.467   3.462   2.979  1.3072 -1.8139 -0.0337
  933TIP3    H2 2764   5.609   3.516   2.969  0.1965  1.2751 -0.3007
  934TIP3   OH2 2765   1.210   3.994   1.564 -0.6294  0.4857  0.3232
  934TIP3    H1 2766   1.184   4.068   1.509  1.7196  1.3585  0.2901
  934TIP3    H2 2767   1.271   4.031   1.627  0.5787 -1.3984  0.3320
  935TIP3   OH2 2768   5.494   0.638   2.460 -0.2751  0.0936  0.4254
  935TIP3    H1 2769   5.525   0.729   2.456  0.0793 -0.0133  0.7043
  935TIP3    H2 2770   5.423   0.634   2.396 -0.8603  0.7824  1.0150
  936TIP3   OH2 2771   4.218   1.510   3.037  0.5218  0.0403 -0.1857
  936TIP3    H1 2772   4.170   1.502   2.954  1.6310 -0.7684 -0.7681
  936TIP3    H2 2773   4.170   1.578   3.085  0.4419  1.2780 -1.9099
  937TIP3   OH2 2774   2.095   5.866   0.467  0.0942  0.5188 -0.3831
  937TIP3    H1 2775   2.183   5.888   0.498  0.3022 -0.4260 -0.2438
  937TIP3    H2 2776   2.037   5.926   0.513  0.7746  2.1710 -1.6143
  938TIP3   OH2 2777   5.085   6.570   0.358 -0.3608 -0.0282 -0.2892
  938TIP3    H1 2778   5.032   6.591   0.281 -1.7113 -0.1297  0.5848
  938TIP3    H2 2779   5.167   6.535   0.322 -0.0751  1.9426 -1.7029
  939TIP3   OH2 2780   2.205   6.185   5.501 -0.0139  0.5139 -0.1119
  939TIP3    H1 2781   2.245   6.188   5.414  0.8375 -0.4066  0.2264
  939TIP3    H2 2782   2.111   6.180   5.483 -0.0395  2.7682 -0.9189
  940TIP3   OH2 2783   0.305   1.711   2.764 -0.0687 -0.0848 -0.4517
  940TIP3    H1 2784   0.298   1.803   2.738 -0.3224 -0.1211 -0.5153
  940TIP3    H2 2785   0.281   1.662   2.686 -0.1043 -0.2028 -0.3676
  941TIP3   OH2 2786   4.631   5.450   5.243 -0.2903  0.1000  0.0603
  941TIP3    H1 2787   4.626   5.514   5.314  3.1682 -1.1443  1.6322
  941TIP3    H2 2788   4.666   5.500   5.169 -0.8127  0.7084  0.2112
  942TIP3   OH2 2789   3.800   4.624   0.533  0.3105 -0.2570  0.0406
  942TIP3    H1 2790   3.705   4.612   0.531  0.0512  1.5407 -1.4856
  942TIP3    H2 2791   3.824   4.638   0.441  1.8983  0.4107  0.5183
  943TIP3   OH2 2792   6.902   2.705   2.539 -0.0085 -0.0208  0.0164
  943TIP3    H1 2793   6.971   2.662   2.489  0.7994  1.2957 -0.0502
  943TIP3    H2 2794   6.915   2.675   2.629  0.9879  0.6057  0.0965
  944TIP3   OH2 2795   5.353   4.632   3.427 -0.5239  0.2836 -0.0924
  944TIP3    H1 2796   5.326   4.665   3.341  1.6107  0.5092 -0.7334
  944TIP3    H2 2797   5.275   4.587   3.461 -2.1729  2.2584 -1.0577
  945TIP3   OH2 2798   5.936   5.625   4.145 -0.0286  0.1365 -0.1772
  945TIP3    H1 2799   5.871   5.631   4.075 -0.3225  2.1828  0.2045
  945TIP3    H2 2800   5.900   5.679   4.215  1.2474 -0.1664  0.7350
  946TIP3   OH2 2801   4.306   3.583   5.704 -0.3579 -0.3276  0.1927
  946TIP3    H1 2802   4.388   3.565   5.658 -0.9220 -1.8887 -0.2683
  946TIP3    H2 2803   4.238   3.563   5.639 -1.1263 -0.4731  1.0353
  947TIP3   OH2 2804   4.773   4.640   2.647  0.4815 -0.2552  0.1320
  947TIP3    H1 2805   4.707   4.707   2.665  0.4476 -0.5926  1.2913
  947TIP3    H2 2806   4.812   4.668   2.564  1.3095  1.8744  1.1877
  948TIP3   OH2 2807   1.342   0.949   2.745  0.4076 -0.2154  0.4746
  948TIP3    H1 2808   1.296   0.917   2.822 -1.1019  0.0941 -0.2700
  948TIP3    H2 2809   1.435   0.949   2.770  0.0358 -1.1291  1.9029
  949TIP3   OH2 2810   4.211   0.625   3.560  0.2940  0.1139  0.0032
  949TIP3    H1 2811   4.219   0.531   3.544 -1.0322 -0.5760  2.8425
  949TIP3    H2 2812   4.135   0.652   3.508 -0.0491 -0.6502  0.0969
  950TIP3   OH2 2813   7.153   1.139   2.870 -0.3057 -0.2024 -0.0578
  950TIP3    H1 2814   7.113   1.138   2.957 -0.6027 -2.0216 -0.1697
  950TIP3    H2 2815   7.079   1.131   2.809 -0.0819  0.8005 -0.4776
  951TIP3   OH2 2816   0.888   3.983   0.571  0.4569  0.1583  0.8449
  951TIP3    H1 2817   0.963   3.982   0.511  1.9222  1.2776  2.5500
  951TIP3    H2 2818   0.878   4.075   0.595 -0.9482 -0.0960  1.2961
  952TIP3   OH2 2819   1.855   0.277   2.580 -0.3032  0.2824 -0.1058
  952TIP3    H1 2820   1.943   0.310   2.594 -0.4579  0.3649  0.7978
  952TIP3    H2 2821   1.801   0.355   2.570 -0.4894  0.3030  0.8681
  953TIP3   OH2 2822   0.594   4.691   5.047 -0.2494 -0.2291 -0.3735
  953TIP3    H1 2823   0.580   4.616   4.990  0.1314  0.1787 -1.0048
  953TIP3    H2 2824   0.576   4.768   4.992  1.7330  0.2351 -0.4537
  954TIP3   OH2 2825   1.866   0.926   4.541  0.6466 -0.0943 -0.0444
  954TIP3    H1 2826   1.954   0.918   4.504 -0.1526  0.2630 -2.1611
  954TIP3    H2 2827   1.820   0.987   4.482 -1.2131 -0.7545  0.6385
  955TIP3   OH2 2828   5.751   4.373   1.496 -0.0472 -0.2859  0.3990
  955TIP3    H1 2829   5.777   4.441   1.559  0.8537 -1.0274  0.8456
  955TIP3    H2 2830   5.736   4.295   1.549  2.1271 -1.3264 -0.3838
  956TIP3   OH2 2831   0.180   4.998   5.148  0.2791 -0.1475 -0.5314
  956TIP3    H1 2832   0.249   4.932   5.162 -1.1625 -1.9380 -1.4300
  956TIP3    H2 2833   0.198   5.032   5.060 -0.8864 -1.8733 -1.5037
  957TIP3   OH2 2834   1.376   6.106   0.838 -0.5838 -0.1056  0.5166
  957TIP3    H1 2835   1.465   6.076   0.819 -0.4237 -0.4972  1.7909
  957TIP3    H2 2836   1.381   6.143   0.926 -1.9965 -1.6580  1.3323
  958TIP3   OH2 2837   4.146   6.304   0.879 -0.6605 -0.4273  0.0792
  958TIP3    H1 2838   4.068   6.250   0.869 -1.1784  0.0940  1.0964
  958TIP3    H2 2839   4.128   6.359   0.956  0.4132  0.2095 -0.0922
  959TIP3   OH2 2840   6.469   0.202   2.877 -0.5359 -0.2647  0.3413
  959TIP3    H1 2841   6.477   0.180   2.784  0.2133  0.2528  0.2789
  959TIP3    H2 2842   6.498   0.123   2.923 -0.1944 -0.2627  0.1318
  960TIP3   OH2 2843   3.556   4.902   2.618 -0.5318 -0.2148 -0.1538
  960TIP3    H1 2844   3.599   4.938   2.541  0.9491 -1.9131 -0.1913
  960TIP3    H2 2845   3.563   4.971   2.684  1.8010 -0.1888 -0.3489
  961TIP3   OH2 2846   5.501   5.430   3.427 -1.1485 -0.5289 -0.4782
  961TIP3    H1 2847   5.407   5.438   3.439 -1.2480 -1.8116 -0.2291
  961TIP3    H2 2848   5.540   5.486   3.494 -1.7362 -1.2282  0.4738
  962TIP3   OH2 2849   0.250   1.134   2.034  0.5365 -0.2161  0.0093
  962TIP3    H1 2850   0.233   1.115   2.127  0.8344 -0.7446 -0.0427
  962TIP3    H2 2851   0.170   1.106   1.989  0.6779 -0.6573  0.0241
  963TIP3   OH2 2852   0.917   3.632   5.091  0.3595  0.3907  0.0326
  963TIP3    H1 2853   0.900   3.725   5.109 -1.7827 -0.0412  0.5309
  963TIP3    H2 2854   0.831   3.590   5.100  0.9823 -1.4118 -1.7257
  964TIP3   OH2 2855   1.169   0.955   4.454 -0.3008  0.1766 -0.0009
  964TIP3    H1 2856   1.206   0.936   4.540 -2.6620 -2.1005  0.6326
  964TIP3    H2 2857   1.143   1.047   4.459 -2.6227 -0.4833  2.7316
  965TIP3   OH2 2858   3.941   5.972   0.398 -0.3415 -0.7718 -0.2087
  965TIP3    H1 2859   3.994   5.963   0.477  1.5065 -1.3575 -1.4329
  965TIP3    H2 2860   3.939   5.883   0.361 -0.5114 -0.3694 -1.1977
  966TIP3   OH2 2861   1.819   0.983   2.261 -0.2648  0.6834  0.1626
  966TIP3    H1 2862   1.810   1.021   2.174  2.2303 -0.7765 -0.8278
  966TIP3    H2 2863   1.730   0.956   2.284 -0.6770 -1.5585 -3.2583
  967TIP3   OH2 2864   6.922   6.307   1.869  0.3185 -0.0738  0.6617
  967TIP3    H1 2865   6.914   6.254   1.949 -2.5939  0.9554  1.1602
  967TIP3    H2 2866   6.927   6.397   1.901 -0.5457  0.3277 -0.2724
  968TIP3   OH2 2867   3.905   5.981   4.635  0.0363 -0.2352 -0.4167
  968TIP3    H1 2868   3.984   5.988   4.581  0.5230 -1.9476  0.0093
  968TIP3    H2 2869   3.906   5.891   4.667 -2.8816 -0.7766 -1.5768
  969TIP3   OH2 2870   4.541   5.047   2.779 -0.3867 -0.7570 -0.0140
  969TIP3    H1 2871   4.543   5.094   2.863  2.0395 -0.1100 -0.3752
  969TIP3    H2 2872   4.468   5.088   2.732 -0.2504  0.5844  0.8572
  970TIP3   OH2 2873   5.608   1.719   3.700  0.0039  0.5040 -0.4920
  970TIP3    H1 2874   5.592   1.664   3.624 -0.3242  0.1601 -0.1835
  970TIP3    H2 2875   5.612   1.658   3.774 -0.4582  0.8961 -0.1301
  971TIP3   OH2 2876   2.762   2.373   1.822  0.4370 -0.3859 -0.3574
  971TIP3    H1 2877   2.783   2.310   1.892  0.0341 -0.9441 -0.7319
  971TIP3    H2 2878   2.800   2.455   1.853 -2.6948  0.2959  2.2267
  972TIP3   OH2 2879   6.962   2.925   0.872 -0.8050 -0.3206  0.0685
  972TIP3    H1 2880   6.902   2.997   0.894 -0.0493  0.0613  0.9275
  972TIP3    H2 2881   6.921   2.847   0.910 -0.5202  0.0184  1.0894
  973TIP3   OH2 2882   2.774   6.425   4.969  0.0286  0.2047 -0.1980
  973TIP3    H1 2883   2.815   6.415   5.055 -0.1887  1.1222  0.0341
  973TIP3    H2 2884   2.846   6.420   4.907 -0.0988 -3.3968 -0.2651
  974TIP3   OH2 2885   6.568   0.650   5.275  0.4906 -0.1187  0.3270
  974TIP3    H1 2886   6.619   0.569   5.277  1.0199  0.2201  0.8506
  974TIP3    H2 2887   6.601   0.698   5.199  0.6412 -0.0960  0.4074
  975TIP3   OH2 2888   2.663   0.429   5.079  0.2803 -0.1891 -0.4113
  975TIP3    H1 2889   2.592   0.368   5.099 -1.0900  0.6973 -2.2256
  975TIP3    H2 2890   2.707   0.390   5.003 -0.3054  0.7541 -1.2749
  976TIP3   OH2 2891   5.249   5.521   1.147 -0.0727  0.0365 -0.0697
  976TIP3    H1 2892   5.199   5.597   1.177  1.7254  1.8718 -1.4317
  976TIP3    H2 2893   5.314   5.505   1.215  1.9688  2.2094 -1.3484
  977TIP3   OH2 2894   5.393   3.349   3.637  0.1898 -0.1855 -0.4100
  977TIP3    H1 2895   5.454   3.374   3.706 -0.3745 -0.4504  0.1863
  977TIP3    H2 2896   5.306   3.360   3.676 -0.1155 -2.2686 -0.3896
  978TIP3   OH2 2897   1.478   2.321   4.149  0.2106 -0.0399  0.1687
  978TIP3    H1 2898   1.424   2.373   4.090  0.1410 -1.1155 -0.7485
  978TIP3    H2 2899   1.563   2.365   4.149 -0.4165  1.2554  1.0680
  979TIP3   OH2 2900   0.439   4.579   0.232  0.1106 -0.1823  0.0078
  979TIP3    H1 2901   0.386   4.620   0.300  0.4736 -0.5754  0.5361
  979TIP3    H2 2902   0.525   4.567   0.272  0.3707 -0.2824 -0.5685
  980TIP3   OH2 2903   1.041   0.415   4.477  0.3687 -0.0687 -0.6673
  980TIP3    H1 2904   0.985   0.342   4.502 -1.0268  0.9016 -0.8688
  980TIP3    H2 2905   0.989   0.465   4.413  0.8953  1.6254  0.1651
  981TIP3   OH2 2906   3.308   4.946   1.618 -0.1538 -0.5621 -0.2055
  981TIP3    H1 2907   3.238   4.896   1.577 -0.8435 -0.8957  1.2879
  981TIP3    H2 2908   3.361   4.880   1.664  1.0529 -0.2916 -1.1326
  982TIP3   OH2 2909   5.878   5.197   5.231  0.3389  0.8079  0.2416
  982TIP3    H1 2910   5.870   5.176   5.138  1.1119 -0.1812  0.3849
  982TIP3    H2 2911   5.850   5.118   5.276  0.2814  1.1706  0.8573
  983TIP3   OH2 2912   1.610   2.721   2.847  0.2127 -0.3594 -0.0660
  983TIP3    H1 2913   1.684   2.749   2.901  0.5624 -2.1303  0.4275
  983TIP3    H2 2914   1.532   2.744   2.897  0.4997 -0.6400  0.5117
  984TIP3   OH2 2915   5.033   6.650   0.113  0.3421  0.7329  0.5679
  984TIP3    H1 2916   4.989   6.586   0.057 -0.8503  0.5645  1.6587
  984TIP3    H2 2917   5.092   6.697   0.053 -1.0681  0.7499 -0.8914
  985TIP3   OH2 2918   6.505   0.444   3.483  0.7879  0.6135 -0.4089
  985TIP3    H1 2919   6.446   0.486   3.420 -0.3217 -0.7852 -0.3440
  985TIP3    H2 2920   6.455   0.439   3.564  2.2228  2.4292  0.6679
  986TIP3   OH2 2921   1.808   4.961   1.024 -0.7031 -0.2283  0.4831
  986TIP3    H1 2922   1.824   4.868   1.008 -1.4964 -0.3051  0.0825
  986TIP3    H2 2923   1.759   4.991   0.948 -0.1209  0.6175  0.4248
  987TIP3   OH2 2924   0.364   6.158   0.164  0.2413  0.6048 -0.3110
  987TIP3    H1 2925   0.317   6.156   0.247  0.2487  0.6412 -0.3056
  987TIP3    H2 2926   0.371   6.067   0.137  1.8999  0.4082  0.6519
  988TIP3   OH2 2927   2.613   5.747   3.918 -0.3394 -0.1732 -0.6483
  988TIP3    H1 2928   2.562   5.739   3.838 -0.5005 -1.0157 -0.4781
  988TIP3    H2 2929   2.551   5.732   3.989 -0.5451  2.2223 -0.2516
  989TIP3   OH2 2930   5.854   1.760   0.478  0.3784 -0.0152  0.2084
  989TIP3    H1 2931   5.827   1.705   0.405  0.0634  0.0548  0.2709
  989TIP3    H2 2932   5.863   1.700   0.552 -1.2893  0.1996  0.6178
  990TIP3   OH2 2933   3.748   1.917   4.409  0.2772 -0.3114 -0.3267
  990TIP3    H1 2934   3.712   1.834   4.377  0.7278 -0.2372 -1.0406
  990TIP3    H2 2935   3.742   1.910   4.504  0.2811 -1.1514 -0.3765
  991TIP3   OH2 2936   6.186   0.023   1.721 -0.0673  0.7470 -0.0494
  991TIP3    H1 2937   6.095   0.049   1.734 -0.1143  1.3688 -1.3910
  991TIP3    H2 2938   6.226   0.099   1.678  0.4941 -0.3395 -1.5400
  992TIP3   OH2 2939   5.101   0.196   2.999 -0.0805 -0.6952 -0.3175
  992TIP3    H1 2940   5.136   0.276   3.037 -2.3808 -0.0020  0.5212
  992TIP3    H2 2941   5.156   0.126   3.033  1.5976  0.4526 -0.5928
  993TIP3   OH2 2942   5.945   0.643   2.223  0.6302 -0.7828  0.2141
  993TIP3    H1 2943   6.034   0.651   2.191  0.6806  0.3877  0.5979
  993TIP3    H2 2944   5.895   0.610   2.149  1.1698 -0.3170 -0.3621
  994TIP3   OH2 2945   5.844   0.147   4.074 -0.5002 -0.5753 -0.1776
  994TIP3    H1 2946   5.784   0.206   4.120 -0.7524 -0.1188 -1.0678
  994TIP3    H2 2947   5.836   0.064   4.120 -1.8761 -0.5403 -0.3157
  995TIP3   OH2 2948   6.806   4.192   1.896  0.7614 -0.3095 -0.0982
  995TIP3    H1 2949   6.725   4.187   1.946  0.0035 -0.2601 -1.2871
  995TIP3    H2 2950   6.863   4.250   1.947 -0.8975  1.7890 -0.5349
  996TIP3   OH2 2951   0.112   4.033   3.973 -0.1510 -0.3585  0.0628
  996TIP3    H1 2952   0.112   4.122   4.008 -1.0069 -0.3196 -0.0262
  996TIP3    H2 2953   0.204   4.017   3.951  0.1138  0.2727  0.6458
  997TIP3   OH2 2954   2.789   0.072   3.407  0.0671 -0.1054 -0.7782
  997TIP3    H1 2955   2.872   0.026   3.409  0.0504 -0.1529 -1.2440
  997TIP3    H2 2956   2.732   0.021   3.465 -0.0748 -0.9037 -1.6110
  998TIP3   OH2 2957   5.624   6.722   5.691 -0.2643 -0.6178 -0.2496
  998TIP3    H1 2958   5.674   6.697   5.614 -0.5817  2.0216 -1.4210
  998TIP3    H2 2959   5.664   6.804   5.720 -0.1459 -1.5324  2.4581
  999TIP3   OH2 2960   5.204   5.238   0.809 -0.0311  0.0586  0.6943
  999TIP3    H1 2961   5.205   5.315   0.753  1.2816 -0.0372  0.5691
  999TIP3    H2 2962   5.148   5.262   0.883 -0.0555  0.9343  0.3938
 1000TIP3   OH2 2963   1.567   0.825   4.903  0.5048 -0.2287 -0.2353
 1000TIP3    H1 2964   1.575   0.868   4.988  0.0783  0.2282 -0.4236
 1000TIP3    H2 2965   1.553   0.896   4.841 -3.6970 -0.7478 -0.1390
 1001TIP3   OH2 2966   0.105   0.570   1.549  0.5604  0.0971 -0.1101
 1001TIP3    H1 2967   0.157   0.500   1.510  0.2451  0.5414 -1.3595
 1001TIP3    H2 2968   0.116   0.558   1.643  1.0618 -1.2090 -0.3156
 1002TIP3   OH2 2969   5.878   2.649   5.445 -0.3824  0.0546 -0.0337
 1002TIP3    H1 2970   5.814   2.599   5.495  1.6250  0.5876  3.3540
 1002TIP3    H2 2971   5.937   2.583   5.408 -0.7139 -0.2677  0.0097
 1003TIP3   OH2 2972   4.847   0.203   2.936  0.2228  0.3933 -0.3146
 1003TIP3    H1 2973   4.919   0.221   2.996  1.8861 -3.1270 -0.9882
 1003TIP3    H2 2974   4.873   0.243   2.853  0.7194  0.3683 -0.1691
 1004TIP3   OH2 2975   1.133   1.733   4.912 -0.0626  0.4529 -0.8081
 1004TIP3    H1 2976   1.047   1.725   4.870 -0.8201 -0.2361  0.7681
 1004TIP3    H2 2977   1.116   1.787   4.989  0.6557 -0.6623  0.1678
 1005TIP3   OH2 2978   0.969   5.303   1.561 -0.4466 -0.0660 -0.1218
 1005TIP3    H1 2979   1.013   5.316   1.477 -0.1318 -0.5055 -0.0244
 1005TIP3    H2 2980   0.889   5.255   1.539 -1.9744  2.5124 -0.5811
 1006TIP3   OH2 2981   0.361   3.064   2.617  0.4341  0.0994 -0.0547
 1006TIP3    H1 2982   0.427   3.115   2.663  0.9498  0.2109 -0.8976
 1006TIP3    H2 2983   0.288   3.126   2.604  0.9268  0.5445 -0.7864
 1007TIP3   OH2 2984   1.051   5.136   0.710 -0.5638 -0.0325 -0.1902
 1007TIP3    H1 2985   1.104   5.139   0.789  1.6030 -0.4967 -1.5441
 1007TIP3    H2 2986   0.966   5.105   0.739  0.3484 -0.7437  1.8662
 1008TIP3   OH2 2987   5.681   5.107   3.146 -0.0032 -0.7880  0.1497
 1008TIP3    H1 2988   5.638   5.131   3.228  0.7824  1.1009  0.0556
 1008TIP3    H2 2989   5.676   5.186   3.093  1.8015 -1.1502 -0.6177
 1009TIP3   OH2 2990   5.257   0.617   4.697  0.1479  0.7127 -0.2074
 1009TIP3    H1 2991   5.281   0.526   4.718 -0.4013  0.5089 -0.4514
 1009TIP3    H2 2992   5.182   0.635   4.753  1.1619  1.5251  0.9323
 1010TIP3   OH2 2993   5.945   5.358   5.443  0.0240 -0.0752 -0.1719
 1010TIP3    H1 2994   5.854   5.347   5.471  0.0626 -0.0272 -0.0252
 1010TIP3    H2 2995   5.948   5.320   5.355 -0.3950  0.9496 -0.6387
 1011TIP3   OH2 2996   1.751   5.468   0.654 -0.0288 -0.2651 -0.0032
 1011TIP3    H1 2997   1.743   5.528   0.579 -1.0484 -2.0801 -1.4187
 1011TIP3    H2 2998   1.842   5.478   0.683 -0.3182  2.3831  0.2297
 1012TIP3   OH2 2999   4.749   6.216   0.021  0.4007  0.5118 -0.6138
 1012TIP3    H1 3000   4.778   6.129   0.049 -0.8136  1.1764  3.3010
 1012TIP3    H2 3001   4.660   6.224   0.056 -0.4525  2.5374 -2.9316
 1013TIP3   OH2 3002   2.756   5.870   5.456 -0.1041  0.0593  0.1904
 1013TIP3    H1 3003   2.695   5.849   5.527  0.2774 -0.5256  0.3517
 1013TIP3    H2 3004   2.700   5.879   5.378 -0.7910  2.6543  0.8721
 1014TIP3   OH2 3005   2.505   6.496   0.244 -0.0947  0.4303 -0.1322
 1014TIP3    H1 3006   2.416   6.516   0.274  0.1010  0.1564  0.6646
 1014TIP3    H2 3007   2.495   6.474   0.151 -0.7578  1.0621 -0.2163
 1015TIP3   OH2 3008   3.726   3.999   0.129  0.0614 -0.4593  0.6224
 1015TIP3    H1 3009   3.760   4.008   0.218  2.3970  0.3946 -0.2798
 1015TIP3    H2 3010   3.786   3.938   0.086  0.3765  0.8873 -0.9806
 1016TIP3   OH2 3011   4.537   3.363   1.450 -0.4015  0.3036 -0.2609
 1016TIP3    H1 3012   4.494   3.427   1.393 -0.7916  0.3766  0.1085
 1016TIP3    H2 3013   4.486   3.365   1.532  0.6355  0.7922  0.3925
 1017TIP3   OH2 3014   4.530   0.429   2.703 -0.5185 -0.0884 -0.5730
 1017TIP3    H1 3015   4.469   0.503   2.702  1.8335  2.0165 -0.5404
 1017TIP3    H2 3016   4.580   0.438   2.622  0.2378 -1.2860 -0.2695
 1018TIP3   OH2 3017   5.292   5.112   4.275  0.0591  0.1440 -0.7663
 1018TIP3    H1 3018   5.267   5.080   4.362  1.1975  0.0219 -0.4683
 1018TIP3    H2 3019   5.257   5.048   4.214 -2.3809  1.1634 -0.5677
 1019TIP3   OH2 3020   3.537   6.585   1.683 -0.4835 -0.2629  0.6377
 1019TIP3    H1 3021   3.618   6.535   1.688  1.5442  2.5962 -0.4508
 1019TIP3    H2 3022   3.527   6.623   1.771  0.7595  1.2293  0.1842
 1020TIP3   OH2 3023   5.540   0.790   5.532 -0.0343  0.1987  0.1751
 1020TIP3    H1 3024   5.584   0.705   5.531 -1.4915 -0.5952  0.7944
 1020TIP3    H2 3025   5.611   0.853   5.543  1.1398 -0.8807 -0.8561
 1021TIP3   OH2 3026   2.986   1.914   5.079 -0.4326  0.0164 -0.2555
 1021TIP3    H1 3027   3.019   1.997   5.043  0.3379  0.1012  0.5901
 1021TIP3    H2 3028   2.894   1.931   5.100 -0.5278  0.3657 -0.9388
 1022TIP3   OH2 3029   2.977   3.344   1.554 -0.4882  0.3319  0.2829
 1022TIP3    H1 3030   2.999   3.268   1.608 -1.4237  0.5174  0.9592
 1022TIP3    H2 3031   3.028   3.416   1.591 -0.6682  0.3278  0.5409
 1023TIP3   OH2 3032   5.927   3.715   4.197  0.0723  0.3450 -0.0702
 1023TIP3    H1 3033   5.951   3.807   4.185  0.1935  0.2015 -1.0194
 1023TIP3    H2 3034   5.869   3.715   4.273 -0.0674  1.2339 -0.1644
 1024TIP3   OH2 3035   5.792   1.557   5.022  0.8518 -0.0617  0.2806
 1024TIP3    H1 3036   5.822   1.486   4.966 -0.3823  0.3409 -0.9544
 1024TIP3    H2 3037   5.701   1.536   5.041  0.7903  0.6323  0.8044
 1025TIP3   OH2 3038   1.390   4.581   5.145  0.7249 -0.6843  0.2802
 1025TIP3    H1 3039   1.457   4.549   5.206 -0.1528 -1.3851  0.8960
 1025TIP3    H2 3040   1.307   4.563   5.188  0.1285  1.6746  0.2820
 1026TIP3   OH2 3041   4.206   5.962   2.318  0.1024 -0.2107 -0.6477
 1026TIP3    H1 3042   4.278   5.902   2.337  0.2794  0.3556  0.5434
 1026TIP3    H2 3043   4.247   6.048   2.316 -0.4666  0.0649 -0.4447
 1027TIP3   OH2 3044   3.791   1.270   1.916 -0.3628 -0.2404  0.0238
 1027TIP3    H1 3045   3.717   1.314   1.874 -1.0514 -0.1504  1.2668
 1027TIP3    H2 3046   3.764   1.179   1.924 -0.0219 -0.3625 -0.1836
 1028TIP3   OH2 3047   5.161   3.575   5.747 -0.3135  0.8275  0.0968
 1028TIP3    H1 3048   5.256   3.582   5.755 -0.3404  0.3252  0.9498
 1028TIP3    H2 3049   5.129   3.664   5.757  0.1660  1.2724 -1.8984
 1029TIP3   OH2 3050   3.284   4.016   5.468 -0.4726  0.1819 -0.3315
 1029TIP3    H1 3051   3.255   4.013   5.377 -0.8072  0.6326 -0.2420
 1029TIP3    H2 3052   3.204   4.007   5.520 -0.2585 -0.3268 -0.0727
 1030TIP3   OH2 3053   2.701   1.247   3.658 -0.9430 -0.0788 -0.2292
 1030TIP3    H1 3054   2.727   1.177   3.598 -0.8707 -0.5686  0.3712
 1030TIP3    H2 3055   2.704   1.207   3.744 -2.5801  0.1903 -0.0327
 1031TIP3   OH2 3056   2.858   1.258   5.849  0.0899 -0.1473  0.1887
 1031TIP3    H1 3057   2.861   1.291   5.938 -1.0414 -0.7578  0.4718
 1031TIP3    H2 3058   2.943   1.281   5.811  0.6077  0.0400  1.4448
 1032TIP3   OH2 3059   1.166   2.440   3.335 -0.7850 -0.4796  0.3657
 1032TIP3    H1 3060   1.202   2.373   3.277 -1.1327 -0.2473 -0.1269
 1032TIP3    H2 3061   1.212   2.520   3.311 -0.9411 -0.3797  0.3933
 1033TIP3   OH2 3062   1.159   6.262   2.190 -0.5689  0.5071 -0.0634
 1033TIP3    H1 3063   1.247   6.275   2.224 -1.0521 -0.7133  1.7688
 1033TIP3    H2 3064   1.172   6.211   2.110  0.3553 -0.2483  0.5512
 1034TIP3   OH2 3065   1.999   4.317   3.196  0.3511 -0.0280 -0.2564
 1034TIP3    H1 3066   2.035   4.390   3.246  0.3460 -0.4888  0.4319
 1034TIP3    H2 3067   1.904   4.323   3.210  0.3659 -0.2816 -0.0213
 1035TIP3   OH2 3068   6.940   3.165  -0.036  0.1823  0.4247  0.1614
 1035TIP3    H1 3069   6.965   3.242   0.016  1.1442  1.0145 -1.0996
 1035TIP3    H2 3070   6.961   3.091   0.020  0.4091  1.0508  0.9342
 1036TIP3   OH2 3071   1.617   3.126   5.196 -0.8835 -0.1104 -0.2893
 1036TIP3    H1 3072   1.576   3.077   5.267 -0.2145  1.3019  1.1662
 1036TIP3    H2 3073   1.545   3.153   5.140 -1.4391 -1.2119 -0.1207
 1037TIP3   OH2 3074   3.300   3.072   4.031 -0.1476  0.1839 -0.5462
 1037TIP3    H1 3075   3.235   3.087   4.099 -1.6370  1.6857 -2.1891
 1037TIP3    H2 3076   3.365   3.141   4.045 -0.7543  0.8564 -0.9446
 1038TIP3   OH2 3077   4.708   5.314   2.014  0.4927  0.2365 -0.0969
 1038TIP3    H1 3078   4.792   5.357   1.996  0.5076  0.6066  0.7814
 1038TIP3    H2 3079   4.650   5.344   1.944  0.2868  2.3519  0.8978
 1039TIP3   OH2 3080   3.585   4.992   3.337 -0.4984 -0.2139  0.3418
 1039TIP3    H1 3081   3.640   4.960   3.409  0.1025 -1.3211 -0.5743
 1039TIP3    H2 3082   3.518   5.045   3.380  0.5322  0.1251  1.6039
 1040TIP3   OH2 3083   4.691   3.128   4.648 -0.2477  0.0196  0.8602
 1040TIP3    H1 3084   4.775   3.144   4.690 -0.3459 -1.1230  1.5392
 1040TIP3    H2 3085   4.649   3.214   4.643  0.6490  0.4846  1.1829
 1041TIP3   OH2 3086   1.180   2.106   0.180  0.0255  0.0642 -0.3231
 1041TIP3    H1 3087   1.095   2.076   0.214  0.0675 -0.8508 -0.9950
 1041TIP3    H2 3088   1.231   2.126   0.258 -0.8118  0.6603  0.0911
 1042TIP3   OH2 3089   6.549   4.361   4.325  0.0273 -0.4461  0.8679
 1042TIP3    H1 3090   6.606   4.338   4.252  0.7246  3.9398 -0.2287
 1042TIP3    H2 3091   6.466   4.318   4.305  0.6650 -0.6377 -1.7077
 1043TIP3   OH2 3092   0.549   5.382   1.976 -0.0017  0.3224  0.2617
 1043TIP3    H1 3093   0.579   5.372   1.886  0.1994  0.4686  0.3097
 1043TIP3    H2 3094   0.566   5.474   1.997 -0.7566  0.4836  0.1967
 1044TIP3   OH2 3095   3.837   4.711   5.119 -0.3873  0.2906 -0.2421
 1044TIP3    H1 3096   3.912   4.727   5.061  0.1478 -2.1686 -0.3390
 1044TIP3    H2 3097   3.773   4.778   5.095  1.2479  1.6425 -1.0638
 1045TIP3   OH2 3098   6.816   6.131   0.547  0.5242  0.0951 -0.1820
 1045TIP3    H1 3099   6.737   6.175   0.578 -0.0411  0.0958 -1.5206
 1045TIP3    H2 3100   6.857   6.095   0.625 -1.2044 -0.5657  0.4671
 1046TIP3   OH2 3101   6.004   2.116   2.059  0.2257  0.2862  0.1618
 1046TIP3    H1 3102   6.041   2.182   2.001 -0.2303  1.7136  1.4103
 1046TIP3    H2 3103   5.910   2.135   2.060  0.3834  1.4621  2.6154
 1047TIP3   OH2 3104   0.510   0.343   5.242 -0.2096 -0.2639 -0.3700
 1047TIP3    H1 3105   0.415   0.348   5.236 -0.2220 -1.1240 -0.9725
 1047TIP3    H2 3106   0.541   0.334   5.152  0.3467 -1.4272 -0.0815
 1048TIP3   OH2 3107   2.167   4.484   5.765 -0.1506 -0.2322  0.0578
 1048TIP3    H1 3108   2.203   4.452   5.848  0.8422  1.1892  0.2150
 1048TIP3    H2 3109   2.123   4.566   5.788  0.5273  0.4138 -0.8676
 1049TIP3   OH2 3110   1.525   5.964   2.898  0.1846  0.3955  0.3733
 1049TIP3    H1 3111   1.502   5.986   2.988  1.6282  1.9987  0.4096
 1049TIP3    H2 3112   1.462   6.012   2.845  0.7315  1.3256  0.5315
 1050TIP3   OH2 3113   4.821   2.720   3.723 -0.3230  0.5413 -0.1356
 1050TIP3    H1 3114   4.819   2.725   3.819 -0.9059 -1.5597  0.0112
 1050TIP3    H2 3115   4.806   2.627   3.704  0.8176  0.7399 -2.2400
 1051TIP3   OH2 3116   1.259   5.384   0.070 -0.0068 -0.4010  0.1185
 1051TIP3    H1 3117   1.232   5.447   0.136  0.6068  0.2466 -0.2274
 1051TIP3    H2 3118   1.248   5.430  -0.013  1.3802 -0.3670 -0.0804
 1052TIP3   OH2 3119   1.131   3.560   1.560 -0.6200  0.2525  0.1231
 1052TIP3    H1 3120   1.204   3.614   1.591 -1.3188  1.1536  0.2244
 1052TIP3    H2 3121   1.167   3.512   1.486 -0.3082  1.7941 -0.7677
 1053TIP3   OH2 3122   5.473   0.052   0.649  0.3443 -0.0451 -0.3199
 1053TIP3    H1 3123   5.500   0.043   0.741  2.2547  2.2422 -0.5701
 1053TIP3    H2 3124   5.385   0.091   0.654  0.1438 -0.5811  0.5233
 1054TIP3   OH2 3125   1.187   4.270  -0.003  0.1055  0.3456  0.5948
 1054TIP3    H1 3126   1.235   4.263   0.079  0.3643 -0.8036  0.3682
 1054TIP3    H2 3127   1.097   4.246   0.019  0.0895  0.4374  0.6269
 1055TIP3   OH2 3128   4.728   1.274   0.179  0.3485 -0.0325 -0.4995
 1055TIP3    H1 3129   4.668   1.310   0.244  2.4001 -2.0761  2.8209
 1055TIP3    H2 3130   4.769   1.350   0.139 -1.6422  1.3260 -0.1191
 1056TIP3   OH2 3131   4.259   5.887   3.221 -0.5397 -0.4018  0.1575
 1056TIP3    H1 3132   4.256   5.858   3.312 -1.4826  0.4653  0.4260
 1056TIP3    H2 3133   4.266   5.982   3.227 -1.3217 -0.2779 -0.6629
 1057TIP3   OH2 3134   0.737   1.361   0.265  0.1764  0.1264 -0.5759
 1057TIP3    H1 3135   0.820   1.329   0.229  1.4576 -0.3335  2.4477
 1057TIP3    H2 3136   0.751   1.455   0.277  0.1730  0.0993 -0.3479
 1058TIP3   OH2 3137   5.986   1.293   1.212  0.4113 -0.1468 -0.2929
 1058TIP3    H1 3138   5.912   1.285   1.152 -0.5034  0.2494  0.7422
 1058TIP3    H2 3139   6.020   1.204   1.221  0.6967 -0.1824 -1.5229
 1059TIP3   OH2 3140   0.531   4.877   2.661  0.1175  0.2829  0.1007
 1059TIP3    H1 3141   0.625   4.883   2.676  0.1175 -0.7658  0.5854
 1059TIP3    H2 3142   0.495   4.956   2.703  0.7176  0.3974  0.4098
 1060TIP3   OH2 3143   2.308   2.558   2.892  0.3295  0.5379  0.1327
 1060TIP3    H1 3144   2.399   2.542   2.917  0.5058  0.7699 -0.3469
 1060TIP3    H2 3145   2.256   2.510   2.956  0.7614  1.2535  1.0436
 1061TIP3   OH2 3146   5.041   0.858   1.886  0.1287  0.1439 -0.3865
 1061TIP3    H1 3147   5.081   0.782   1.845 -0.6005  0.2792 -1.3909
 1061TIP3    H2 3148   4.980   0.892   1.820 -0.9400  0.4871  0.7396
 1062TIP3   OH2 3149   7.004   0.903   0.096 -1.0755 -0.2845 -0.2975
 1062TIP3    H1 3150   6.983   0.865   0.181  1.8784  1.2234  1.2771
 1062TIP3    H2 3151   7.037   0.829   0.044 -3.2064 -1.2793 -0.3476
 1063TIP3   OH2 3152   5.145   0.691   2.764 -0.1255 -0.0660  0.0722
 1063TIP3    H1 3153   5.068   0.694   2.820 -0.7762  0.0729 -0.7947
 1063TIP3    H2 3154   5.175   0.600   2.768 -0.2744 -0.0981  0.4842
 1064TIP3   OH2 3155   5.097   0.369   2.568 -0.2066  0.2700  0.2385
 1064TIP3    H1 3156   5.074   0.461   2.561 -1.2962 -0.1177 -2.9641
 1064TIP3    H2 3157   5.021   0.328   2.607  0.0609  0.6299  1.1544
 1065TIP3   OH2 3158   3.551   0.934   3.451 -0.4716  0.5589 -0.0778
 1065TIP3    H1 3159   3.617   0.932   3.381 -0.7834  0.8409 -0.3876
 1065TIP3    H2 3160   3.539   1.027   3.470 -0.7112  0.5063  0.0359
 1066TIP3   OH2 3161   0.941   0.846   1.972  0.5182 -0.1318 -0.1007
 1066TIP3    H1 3162   1.019   0.901   1.986  1.5307 -1.4217 -0.4898
 1066TIP3    H2 3163   0.921   0.856   1.879  1.4842 -1.3883 -0.4616
 1067TIP3   OH2 3164   4.050   2.789   1.829 -0.1227 -0.0042  0.2553
 1067TIP3    H1 3165   4.014   2.708   1.863 -0.4591 -0.0277 -0.1457
 1067TIP3    H2 3166   4.027   2.788   1.736 -0.4794  0.7344  0.3287
 1068TIP3   OH2 3167   2.749   1.029   3.200 -0.2975  0.1596 -0.5944
 1068TIP3    H1 3168   2.770   1.065   3.114 -0.6002  0.8889 -0.3694
 1068TIP3    H2 3169   2.653   1.029   3.203 -0.3021 -0.6366 -0.5727
 1069TIP3   OH2 3170   4.231   2.625   1.514  0.1611 -0.1423 -0.5095
 1069TIP3    H1 3171   4.272   2.711   1.521  1.5275 -0.8179  0.1811
 1069TIP3    H2 3172   4.229   2.607   1.420 -0.9254  0.9924 -0.7201
 1070TIP3   OH2 3173   0.621   1.497   0.680 -0.4009  0.0263 -0.1893
 1070TIP3    H1 3174   0.628   1.476   0.773 -0.5309 -1.3616 -0.4729
 1070TIP3    H2 3175   0.701   1.546   0.660  1.0001 -2.0361  0.0725
 1071TIP3   OH2 3176   6.774   1.417   4.427 -0.5265  0.1675 -0.0957
 1071TIP3    H1 3177   6.847   1.431   4.486 -0.9501  1.3045  0.1962
 1071TIP3    H2 3178   6.772   1.496   4.372 -1.5628  0.1962 -0.0486
 1072TIP3   OH2 3179   2.170   3.620   2.708  0.0914  0.3516  0.8031
 1072TIP3    H1 3180   2.104   3.678   2.671 -0.3398 -0.3289  0.4861
 1072TIP3    H2 3181   2.210   3.672   2.779 -0.3776  0.9771  0.6225
 1073TIP3   OH2 3182   0.178   3.961   0.721 -0.1799 -0.0520  0.1535
 1073TIP3    H1 3183   0.125   3.997   0.791 -1.5683 -1.2939 -0.2128
 1073TIP3    H2 3184   0.264   3.947   0.761  0.1389  2.5954  0.5759
 1074TIP3   OH2 3185   5.868   6.745   4.708 -0.0940  0.0927 -0.4616
 1074TIP3    H1 3186   5.938   6.737   4.773 -0.3245  0.6676 -0.1443
 1074TIP3    H2 3187   5.857   6.655   4.675 -1.6444 -0.7160  2.0260
 1075TIP3   OH2 3188   0.789   5.152   5.810 -0.4461 -0.1322  0.7410
 1075TIP3    H1 3189   0.704   5.155   5.767 -0.6673 -2.3673  0.9238
 1075TIP3    H2 3190   0.779   5.207   5.887 -1.4382  0.3392  0.2936
 1076TIP3   OH2 3191   5.628   2.422   1.127 -0.0351 -0.5592 -0.4833
 1076TIP3    H1 3192   5.633   2.327   1.141 -0.1685 -0.4869  0.0864
 1076TIP3    H2 3193   5.584   2.455   1.206 -3.3266 -0.4282 -2.1841
 1077TIP3   OH2 3194   0.096   1.576   5.674 -0.7253 -0.3488 -0.1616
 1077TIP3    H1 3195   0.162   1.531   5.621 -1.1622 -0.1460 -0.8989
 1077TIP3    H2 3196   0.045   1.626   5.610 -1.0170  0.2182  0.5032
 1078TIP3   OH2 3197   0.270   0.315   2.196 -0.0292  0.3735  0.4685
 1078TIP3    H1 3198   0.341   0.378   2.184  0.5266 -0.3763 -0.3337
 1078TIP3    H2 3199   0.266   0.302   2.291  2.8992 -1.7233  0.4295
 1079TIP3   OH2 3200   3.762   3.605   5.692  0.0306  0.1218 -0.3525
 1079TIP3    H1 3201   3.687   3.546   5.682  2.0867 -2.8763  0.6620
 1079TIP3    H2 3202   3.796   3.615   5.603 -0.2037 -0.4451 -0.5128
 1080TIP3   OH2 3203   6.402   1.187   5.468  0.1134  0.1672 -0.5651
 1080TIP3    H1 3204   6.435   1.108   5.511 -0.4375 -0.9028 -2.0367
 1080TIP3    H2 3205   6.448   1.259   5.512 -0.3164 -0.8426  1.6935
 1081TIP3   OH2 3206   1.199   4.755   1.865 -0.6783  0.1764  0.1764
 1081TIP3    H1 3207   1.193   4.765   1.960 -1.7038  2.4415 -0.0615
 1081TIP3    H2 3208   1.142   4.681   1.845 -0.6341 -0.1760  1.2838
 1082TIP3   OH2 3209   7.018   0.095   3.374  0.2075 -0.3726  0.8195
 1082TIP3    H1 3210   6.925   0.094   3.351  0.8370  0.8125 -2.2314
 1082TIP3    H2 3211   7.044   0.003   3.372 -0.3499 -0.5299 -1.1424
 1083TIP3   OH2 3212   4.962   5.755   1.900 -0.6156 -0.1465 -0.1811
 1083TIP3    H1 3213   4.953   5.690   1.970 -1.2469 -0.3058 -0.4029
 1083TIP3    H2 3214   5.039   5.806   1.924 -1.5402  0.6227  1.3040
 1084TIP3   OH2 3215   6.514   6.426   0.580 -0.7624 -0.5213 -0.4391
 1084TIP3    H1 3216   6.537   6.338   0.611  0.8174  0.1860  0.5103
 1084TIP3    H2 3217   6.449   6.457   0.643  1.4325  0.3831  1.4937
 1085TIP3   OH2 3218   1.315   6.092   1.691  0.3178 -0.2875  0.6125
 1085TIP3    H1 3219   1.384   6.028   1.707 -0.1768 -0.6089  1.4873
 1085TIP3    H2 3220   1.357   6.159   1.636  0.8770 -1.2713 -0.1961
 1086TIP3   OH2 3221   4.735   6.380   5.620  0.3272  0.4398 -0.2881
 1086TIP3    H1 3222   4.755   6.310   5.683  0.2554  0.0616 -0.6801
 1086TIP3    H2 3223   4.734   6.460   5.673  1.7026  0.3268 -0.0566
 1087TIP3   OH2 3224   7.071   0.555   0.483  0.0671  0.7174  0.4435
 1087TIP3    H1 3225   7.138   0.498   0.521  1.5447 -0.2911 -3.2585
 1087TIP3    H2 3226   6.995   0.542   0.540  2.1399 -0.1145  3.3185
 1088TIP3   OH2 3227   5.653   4.232   1.725 -0.1409  0.6576  0.4871
 1088TIP3    H1 3228   5.610   4.315   1.705  1.2129  1.8318  2.1954
 1088TIP3    H2 3229   5.613   4.203   1.807  1.8974  1.5669  1.8835
 1089TIP3   OH2 3230   5.989   4.566   5.243  0.0223 -0.0330 -0.2355
 1089TIP3    H1 3231   5.974   4.611   5.326 -1.9323 -3.7181  1.6178
 1089TIP3    H2 3232   6.082   4.547   5.242 -0.0111 -0.4136  1.4097
 1090TIP3   OH2 3233   2.755   2.101   5.070 -0.1156  0.2953 -0.5063
 1090TIP3    H1 3234   2.726   2.063   4.987  2.6197 -1.0350 -0.9675
 1090TIP3    H2 3235   2.701   2.058   5.137  0.4600 -1.8210 -1.3154
 1091TIP3   OH2 3236   3.092   6.475   4.828  0.5224  0.1028  0.0551
 1091TIP3    H1 3237   3.100   6.396   4.881  1.9864 -0.7549 -1.3433
 1091TIP3    H2 3238   3.148   6.539   4.872  0.1746  0.0321  0.6069
 1092TIP3   OH2 3239   3.515   0.139   4.679  0.1052 -0.4775 -0.5173
 1092TIP3    H1 3240   3.438   0.162   4.733  0.6592  0.0103  0.0799
 1092TIP3    H2 3241   3.490   0.056   4.637 -0.8548 -0.1928 -0.5497
 1093TIP3   OH2 3242   3.711   6.170   5.891 -0.0680  0.2735 -0.0566
 1093TIP3    H1 3243   3.698   6.262   5.871 -0.8051  0.0075 -0.8481
 1093TIP3    H2 3244   3.803   6.154   5.869  0.2052  0.9323  0.5817
 1094TIP3   OH2 3245   0.281   4.123   3.436 -0.6583 -0.2495 -0.5314
 1094TIP3    H1 3246   0.314   4.060   3.500 -0.7732 -0.1108 -0.3361
 1094TIP3    H2 3247   0.349   4.190   3.431 -1.5093  0.7948  0.9357
 1095TIP3   OH2 3248   5.090   0.593   5.369 -0.0812  0.4009 -0.0648
 1095TIP3    H1 3249   5.080   0.620   5.460 -0.0678 -2.1882  0.7626
 1095TIP3    H2 3250   5.183   0.606   5.350 -0.3039  2.1382 -0.1790
 1096TIP3   OH2 3251   4.355   6.543   0.794 -0.4144  0.1188  0.2524
 1096TIP3    H1 3252   4.413   6.475   0.761 -0.6495 -0.3477  0.7770
 1096TIP3    H2 3253   4.284   6.547   0.731  0.9253  1.7905 -1.2596
 1097TIP3   OH2 3254   7.192   5.588   0.803  0.2192  0.2592  0.3157
 1097TIP3    H1 3255   7.158   5.556   0.720  2.7996 -0.1746 -0.6431
 1097TIP3    H2 3256   7.115   5.592   0.860 -1.5549  0.1764 -1.9282
 1098TIP3   OH2 3257   1.965   1.395   5.742 -0.1570  0.0158 -0.1490
 1098TIP3    H1 3258   1.958   1.434   5.655 -0.9063 -0.8032 -0.4666
 1098TIP3    H2 3259   2.036   1.444   5.784  1.2053 -0.5009 -1.7218
 1099TIP3   OH2 3260   2.567   6.680   3.075 -0.0576  0.1919 -0.2211
 1099TIP3    H1 3261   2.530   6.640   2.996 -1.2060 -1.5149  1.0952
 1099TIP3    H2 3262   2.633   6.617   3.105  1.8634  1.7819 -0.8708
 1100TIP3   OH2 3263   2.101   2.047   0.879  0.8175  0.0532  0.0439
 1100TIP3    H1 3264   2.015   2.005   0.879  1.5593 -1.5883  1.7904
 1100TIP3    H2 3265   2.081   2.141   0.875 -1.0293 -0.3031 -0.0190
 1101TIP3   OH2 3266   2.559   2.445   5.467  0.3951  0.3268  0.1491
 1101TIP3    H1 3267   2.546   2.538   5.449 -0.5984 -0.1024 -1.5347
 1101TIP3    H2 3268   2.479   2.403   5.436  1.7560 -1.3330 -1.3053
 1102TIP3   OH2 3269   0.493   5.252   5.284 -0.4178 -0.0385 -0.4242
 1102TIP3    H1 3270   0.588   5.248   5.274 -0.3358  1.0887 -0.1908
 1102TIP3    H2 3271   0.460   5.186   5.222  0.4646  0.4354 -1.4415
 1103TIP3   OH2 3272   0.458   3.400   0.705  0.2091  0.3080  0.7090
 1103TIP3    H1 3273   0.545   3.377   0.671 -0.1661 -0.3862  0.2093
 1103TIP3    H2 3274   0.467   3.393   0.800  0.6244 -0.0375  0.6474
 1104TIP3   OH2 3275   0.100   0.093   0.192 -0.0128 -0.7875  0.4737
 1104TIP3    H1 3276   0.011   0.092   0.228 -0.3663  1.5150 -0.1817
 1104TIP3    H2 3277   0.110   0.007   0.151 -1.7182 -1.2992  1.0463
 1105TIP3   OH2 3278   1.903   5.897   3.705  0.1240 -0.0742  0.3040
 1105TIP3    H1 3279   1.939   5.982   3.729  1.3957  0.2696 -2.3770
 1105TIP3    H2 3280   1.953   5.834   3.756  0.1163  0.7001  1.3015
 1106TIP3   OH2 3281   4.246   4.572   2.370 -0.2110  0.0447 -0.0824
 1106TIP3    H1 3282   4.245   4.667   2.376 -2.3409  0.0953 -0.4481
 1106TIP3    H2 3283   4.279   4.542   2.454  0.1421  1.1007  0.1610
 1107TIP3   OH2 3284   2.896   4.158   1.520  0.1279  0.3453 -0.3084
 1107TIP3    H1 3285   2.846   4.134   1.443 -0.3310  0.3235 -0.0061
 1107TIP3    H2 3286   2.832   4.160   1.591  0.9819 -2.5078  0.6723
 1108TIP3   OH2 3287   3.680   6.632   1.375 -0.2711  0.3076  0.9397
 1108TIP3    H1 3288   3.729   6.588   1.444  1.6328  1.0966  0.1723
 1108TIP3    H2 3289   3.601   6.666   1.418  0.1452 -0.4919  2.3641
 1109TIP3   OH2 3290   2.162   3.971   4.622 -0.4793 -0.2995  0.3649
 1109TIP3    H1 3291   2.138   3.884   4.588 -1.3861 -0.1301  0.5276
 1109TIP3    H2 3292   2.153   4.029   4.547  1.7034 -0.5684 -0.1590
 1110TIP3   OH2 3293   6.563   0.466   0.528 -0.3829  0.3823  0.0189
 1110TIP3    H1 3294   6.623   0.538   0.511  0.7629 -0.7182 -0.7824
 1110TIP3    H2 3295   6.476   0.506   0.527  0.0456  1.4080 -2.5923
 1111TIP3   OH2 3296   6.966   2.210   0.504 -0.0262  0.0998 -0.3130
 1111TIP3    H1 3297   7.020   2.241   0.432  0.6695  0.1871  0.2377
 1111TIP3    H2 3298   6.878   2.241   0.482  0.3864  1.1833 -0.5259
 1112TIP3   OH2 3299   3.057   6.556   3.031  0.9296 -0.0329 -0.6515
 1112TIP3    H1 3300   3.103   6.610   2.968  0.9391 -0.8381 -1.3549
 1112TIP3    H2 3301   3.105   6.567   3.113  1.1731  0.6813 -0.8894
 1113TIP3   OH2 3302   6.475   3.707   3.438  0.5179 -0.1406  0.0521
 1113TIP3    H1 3303   6.405   3.653   3.403 -0.7968  1.6219 -0.2083
 1113TIP3    H2 3304   6.434   3.753   3.512  1.7312  0.1135  0.5926
 1114TIP3   OH2 3305   2.106   1.351   2.945  0.1936 -0.1751 -0.6809
 1114TIP3    H1 3306   2.114   1.396   2.861  0.2821  0.7315 -0.2030
 1114TIP3    H2 3307   2.194   1.351   2.982  0.4794 -1.9622 -1.2512
 1115TIP3   OH2 3308   5.040   6.223   4.012 -0.3253 -0.3508  0.0598
 1115TIP3    H1 3309   5.094   6.234   3.933 -1.0637 -0.8067 -0.5240
 1115TIP3    H2 3310   5.003   6.135   4.003 -0.9181 -0.1593  0.6090
 1116TIP3   OH2 3311   2.770   0.799   0.167  0.2479  0.1133  0.5959
 1116TIP3    H1 3312   2.733   0.727   0.217  0.4658 -0.5922 -0.2329
 1116TIP3    H2 3313   2.725   0.795   0.082  2.9489 -1.4906 -0.8765
 1117TIP3   OH2 3314   6.098   1.176   0.696 -0.3367  0.0877  0.7086
 1117TIP3    H1 3315   6.159   1.239   0.657  0.3778 -1.2275 -0.3979
 1117TIP3    H2 3316   6.149   1.131   0.763 -0.0646 -0.9627 -0.1688
 1118TIP3   OH2 3317   3.466   2.588   0.123 -0.2762  0.2105  0.1937
 1118TIP3    H1 3318   3.510   2.673   0.111 -0.0836 -0.2031 -2.7280
 1118TIP3    H2 3319   3.387   2.610   0.171 -0.3153  2.1253 -0.6217
 1119TIP3   OH2 3320   7.140   2.254   5.746 -0.7144 -0.4422  0.7352
 1119TIP3    H1 3321   7.187   2.194   5.803 -1.3930 -0.7807  0.9524
 1119TIP3    H2 3322   7.054   2.265   5.787 -0.6939  0.4811  0.5660
 1120TIP3   OH2 3323   2.434   1.323   4.445  0.2671 -0.5008 -0.4151
 1120TIP3    H1 3324   2.519   1.362   4.425  0.1231 -0.1013 -0.2428
 1120TIP3    H2 3325   2.445   1.287   4.533  0.2870 -0.5315 -0.4302
 1121TIP3   OH2 3326   5.253   2.129   0.811  0.0952 -0.5687 -0.2700
 1121TIP3    H1 3327   5.276   2.062   0.875 -2.2703 -1.0185  0.1978
 1121TIP3    H2 3328   5.227   2.080   0.733  0.3516 -0.1269 -0.6354
 1122TIP3   OH2 3329   4.923   2.506   1.590 -0.8737  0.4430 -0.0462
 1122TIP3    H1 3330   4.897   2.438   1.528 -0.2960  0.2873 -0.1176
 1122TIP3    H2 3331   4.846   2.517   1.646 -0.1378 -2.0892  1.6170
 1123TIP3   OH2 3332   1.301   5.662   1.024  0.2514 -0.8581 -0.3298
 1123TIP3    H1 3333   1.268   5.727   0.962  1.3172 -0.6033 -0.6515
 1123TIP3    H2 3334   1.364   5.710   1.078  0.8367 -1.5399 -0.3852
 1124TIP3   OH2 3335   2.510   2.441   0.756  0.6485  0.5078 -0.0787
 1124TIP3    H1 3336   2.440   2.500   0.784 -0.5431 -1.8051  2.2216
 1124TIP3    H2 3337   2.465   2.359   0.733  2.5395 -1.1184  1.6278
 1125TIP3   OH2 3338   6.360   0.795   3.281  0.0430 -0.2131  0.1583
 1125TIP3    H1 3339   6.335   0.704   3.293  0.5636 -0.6390 -1.6940
 1125TIP3    H2 3340   6.401   0.798   3.194  0.0136  1.7844  0.1589
 1126TIP3   OH2 3341   5.563   3.884   2.587  0.0963 -0.1937 -0.1346
 1126TIP3    H1 3342   5.608   3.800   2.595  1.9142  0.8075  0.9785
 1126TIP3    H2 3343   5.607   3.940   2.651 -2.2327  1.1260  0.4094
 1127TIP3   OH2 3344   6.367   3.906   3.179  0.4599  0.0392 -0.1413
 1127TIP3    H1 3345   6.362   3.919   3.274 -0.9573 -0.2501 -0.1562
 1127TIP3    H2 3346   6.369   3.812   3.167 -0.3965  0.0464 -0.4205
 1128TIP3   OH2 3347   1.321   6.505   0.620  0.1709  0.0266 -0.3367
 1128TIP3    H1 3348   1.253   6.567   0.595 -0.5650 -0.9691 -0.8704
 1128TIP3    H2 3349   1.339   6.525   0.712  0.4882  1.5000 -0.6882
 1129TIP3   OH2 3350   4.592   2.257   2.744  0.1989  0.1509  0.8716
 1129TIP3    H1 3351   4.516   2.309   2.768  1.3405  1.7318  1.2295
 1129TIP3    H2 3352   4.624   2.221   2.827 -1.1662 -2.0863  0.5291
 1130TIP3   OH2 3353   2.246   6.171   4.890 -0.1971 -0.1889  0.5643
 1130TIP3    H1 3354   2.335   6.176   4.923  0.1605 -0.8961 -0.2451
 1130TIP3    H2 3355   2.221   6.262   4.873  0.1855  0.0470  1.2655
 1131TIP3   OH2 3356   6.324   2.721   5.393 -0.7966  0.3383 -0.2621
 1131TIP3    H1 3357   6.382   2.698   5.466 -2.3258 -2.2460  0.2538
 1131TIP3    H2 3358   6.250   2.765   5.434 -2.0986 -1.9199 -0.0006
 1132TIP3   OH2 3359   1.658   1.843   2.127  0.1928 -0.1214 -0.8332
 1132TIP3    H1 3360   1.574   1.799   2.143 -0.0486  0.2737 -0.9958
 1132TIP3    H2 3361   1.724   1.776   2.142 -0.2048 -0.7626 -1.8245
 1133TIP3   OH2 3362   0.556   6.388   2.836  0.3387  0.8005 -0.0985
 1133TIP3    H1 3363   0.507   6.325   2.783 -0.1898 -1.2816  2.6097
 1133TIP3    H2 3364   0.644   6.388   2.799  0.1068 -0.8802 -0.7510
 1134TIP3   OH2 3365   6.559   2.244   4.292  0.5540  0.1405 -0.2204
 1134TIP3    H1 3366   6.500   2.188   4.242  2.3085 -1.4642 -0.5544
 1134TIP3    H2 3367   6.644   2.236   4.249  1.1213  2.2415  0.3737
 1135TIP3   OH2 3368   3.457   3.636   1.796 -0.2848  0.0874 -0.1042
 1135TIP3    H1 3369   3.486   3.570   1.734 -0.2765 -0.5720  0.5884
 1135TIP3    H2 3370   3.506   3.715   1.771  0.7150 -0.5132 -0.1115
 1136TIP3   OH2 3371   3.746   6.167   5.598  0.1154 -0.0575 -0.5628
 1136TIP3    H1 3372   3.781   6.122   5.521  0.5064  0.6955 -0.8372
 1136TIP3    H2 3373   3.651   6.160   5.588  0.1633 -0.0779 -1.0465
 1137TIP3   OH2 3374   5.327   2.741   2.487 -0.2307 -0.6653 -0.3531
 1137TIP3    H1 3375   5.372   2.698   2.414  3.4113  1.1144  0.6014
 1137TIP3    H2 3376   5.333   2.678   2.559  0.5499 -0.5661 -0.3191
 1138TIP3   OH2 3377   1.944   5.958   4.954 -0.0722 -0.0237 -0.0229
 1138TIP3    H1 3378   1.879   5.926   5.017  0.8987 -0.7083  0.6441
 1138TIP3    H2 3379   2.028   5.936   4.993  0.5612 -1.3634 -1.9924
 1139TIP3   OH2 3380   5.479   3.613   3.293  0.2984  1.0934  0.4994
 1139TIP3    H1 3381   5.386   3.632   3.306  0.5321  1.8243  1.1819
 1139TIP3    H2 3382   5.486   3.587   3.201 -0.6265  0.7217  0.5243
 1140TIP3   OH2 3383   1.179   5.769   5.454  0.0017 -0.1482 -0.2627
 1140TIP3    H1 3384   1.169   5.675   5.471 -1.9240 -0.1842 -1.2828
 1140TIP3    H2 3385   1.114   5.811   5.510  0.1384  0.4922 -0.5680
 1141TIP3   OH2 3386   0.232   3.557   4.742 -0.4397 -0.1830 -0.7185
 1141TIP3    H1 3387   0.170   3.511   4.799 -0.0017  0.7891  0.5886
 1141TIP3    H2 3388   0.240   3.644   4.781 -0.8791  0.8810 -2.8419
 1142TIP3   OH2 3389   4.922   0.432   0.007 -0.6397 -0.5201  0.0706
 1142TIP3    H1 3390   4.992   0.400   0.064  0.2508 -0.7116 -1.0901
 1142TIP3    H2 3391   4.882   0.352  -0.029  0.5050 -0.4047 -1.5547
 1143TIP3   OH2 3392   1.351   4.941   5.645 -0.0517  0.0610 -0.3029
 1143TIP3    H1 3393   1.407   5.016   5.665  0.4964 -0.4735  0.2344
 1143TIP3    H2 3394   1.409   4.879   5.601  0.0203 -0.8438  0.9956
 1144TIP3   OH2 3395   5.475   1.265   3.821 -0.4346 -0.0928 -0.8311
 1144TIP3    H1 3396   5.404   1.328   3.833  0.1102  0.1674  1.6089
 1144TIP3    H2 3397   5.432   1.179   3.822 -1.0934  0.1524 -3.4013
 1145TIP3   OH2 3398   1.842   4.015   1.091  0.1110  0.1866  0.1123
 1145TIP3    H1 3399   1.854   3.960   1.169 -0.4040  1.4181  1.0952
 1145TIP3    H2 3400   1.929   4.050   1.073 -0.0582  1.2291  1.1890
 1146TIP3   OH2 3401   0.382   4.803   5.230  0.3484 -0.0415 -0.5139
 1146TIP3    H1 3402   0.445   4.747   5.185  0.8662  0.2921 -0.2035
 1146TIP3    H2 3403   0.415   4.811   5.319  0.9243  1.6968 -0.8392
 1147TIP3   OH2 3404   5.990   5.341   0.946  0.2065 -0.6119 -0.7539
 1147TIP3    H1 3405   5.993   5.281   1.020  0.9001  1.3425  0.8834
 1147TIP3    H2 3406   6.069   5.321   0.896  1.8178  0.5886  1.1951
 1148TIP3   OH2 3407   3.599   6.621   3.284 -0.7265  0.1620 -0.3363
 1148TIP3    H1 3408   3.683   6.578   3.272 -0.4464  0.3190  0.9459
 1148TIP3    H2 3409   3.535   6.550   3.283 -0.3963 -0.1565  0.4148
 1149TIP3   OH2 3410   0.865   2.310   0.662 -0.0030 -0.5380  0.0073
 1149TIP3    H1 3411   0.923   2.287   0.735 -0.1061 -2.5047 -0.4849
 1149TIP3    H2 3412   0.825   2.393   0.689  0.5424 -0.8302  1.8440
 1150TIP3   OH2 3413   2.491   0.196   1.794  0.0920 -0.6279 -0.6783
 1150TIP3    H1 3414   2.559   0.248   1.752  0.2993 -2.6030 -2.9988
 1150TIP3    H2 3415   2.533   0.112   1.813 -0.7684 -0.6940  1.1399
 1151TIP3   OH2 3416   3.190   3.012   0.579  0.0964  0.8951 -0.0829
 1151TIP3    H1 3417   3.146   2.974   0.503  0.7724 -0.7613  0.2946
 1151TIP3    H2 3418   3.161   2.957   0.652  2.9707 -0.5257  0.1401
 1152TIP3   OH2 3419   4.910   1.534   2.202  0.2008  0.2878 -0.7934
 1152TIP3    H1 3420   4.960   1.490   2.133 -0.2323 -1.4350 -0.0456
 1152TIP3    H2 3421   4.976   1.556   2.269  0.4443  0.9526 -1.2434
 1153TIP3   OH2 3422   2.136   6.735   0.382  0.0573 -0.0778  0.4212
 1153TIP3    H1 3423   2.117   6.818   0.424 -2.2697 -0.7705  0.9071
 1153TIP3    H2 3424   2.184   6.684   0.448  2.3268  1.1125 -0.2014
 1154TIP3   OH2 3425   5.034   3.720   4.504 -0.2196  0.4771  0.0615
 1154TIP3    H1 3426   5.080   3.698   4.586  2.4987  1.0402 -1.1845
 1154TIP3    H2 3427   4.986   3.641   4.482  1.9864 -1.0640  0.3863
 1155TIP3   OH2 3428   6.138   1.585   3.321  0.1686 -0.3703  0.1561
 1155TIP3    H1 3429   6.073   1.522   3.289 -1.3304  0.6221  1.0913
 1155TIP3    H2 3430   6.124   1.586   3.416 -0.0234  1.5174  0.1403
 1156TIP3   OH2 3431   5.180   4.030   3.794 -0.4567  0.5942 -0.2272
 1156TIP3    H1 3432   5.271   4.018   3.770  0.0779  1.3355  1.2742
 1156TIP3    H2 3433   5.149   4.102   3.738  0.0795  0.7913 -0.2703
 1157TIP3   OH2 3434   1.057   1.903   2.148  0.3913  0.2948 -0.5023
 1157TIP3    H1 3435   1.083   1.829   2.092 -0.5433 -0.2024 -0.2994
 1157TIP3    H2 3436   1.031   1.972   2.087  0.5662  0.1928 -0.6905
 1158TIP3   OH2 3437   6.953   0.197   0.080 -0.3351  0.0260  0.2238
 1158TIP3    H1 3438   7.009   0.275   0.081 -0.8611  0.5202 -2.0614
 1158TIP3    H2 3439   6.972   0.155  -0.004 -0.7509 -1.8206  1.0076
 1159TIP3   OH2 3440   1.571   1.641   2.760  0.6060 -0.1897  0.2604
 1159TIP3    H1 3441   1.500   1.703   2.776 -0.2230 -1.1274  0.3062
 1159TIP3    H2 3442   1.628   1.650   2.836  0.8161  0.9316 -0.0158
 1160TIP3   OH2 3443   2.426   6.167   3.572  0.0884  0.2027  0.1096
 1160TIP3    H1 3444   2.386   6.196   3.654  0.6258  2.8407 -0.4873
 1160TIP3    H2 3445   2.520   6.163   3.592  0.2543  1.1527 -0.4343
 1161TIP3   OH2 3446   2.858   3.034   2.557  0.4831 -0.4569  0.8461
 1161TIP3    H1 3447   2.780   2.997   2.516 -0.0674  0.5453  0.9465
 1161TIP3    H2 3448   2.919   3.046   2.485 -0.7644  2.0423  0.0673
 1162TIP3   OH2 3449   4.526   2.104   4.049 -0.6196 -0.1167  0.3286
 1162TIP3    H1 3450   4.545   2.013   4.026 -1.3264  0.3283 -2.2568
 1162TIP3    H2 3451   4.431   2.106   4.062 -1.0606  0.7578 -2.5114
 1163TIP3   OH2 3452   4.329   0.593   2.665  0.0620  0.1042 -0.3609
 1163TIP3    H1 3453   4.302   0.679   2.696 -2.0212 -0.5701 -0.1044
 1163TIP3    H2 3454   4.332   0.601   2.569  1.0103  0.7397 -0.2850
 1164TIP3   OH2 3455   4.007   0.872   0.182  0.7060  0.3346 -0.0875
 1164TIP3    H1 3456   3.993   0.886   0.275 -2.5702 -0.4558 -0.3702
 1164TIP3    H2 3457   4.095   0.908   0.166  0.7981  1.7919  2.9730
 1165TIP3   OH2 3458   6.701   4.367   3.140  0.1724  0.3403 -0.0098
 1165TIP3    H1 3459   6.759   4.389   3.213  0.3395  0.0821 -0.0619
 1165TIP3    H2 3460   6.629   4.318   3.181 -1.1013  2.4303  0.3620
 1166TIP3   OH2 3461   5.672   5.384   3.062 -0.0051  0.5753 -0.7666
 1166TIP3    H1 3462   5.630   5.425   2.987 -0.1038  0.5144 -0.7450
 1166TIP3    H2 3463   5.765   5.391   3.044 -0.0270 -1.8133 -2.1943
 1167TIP3   OH2 3464   2.043   2.429   4.500 -0.3970  0.5938 -0.0841
 1167TIP3    H1 3465   2.075   2.366   4.436  0.8433 -0.2456  1.2900
 1167TIP3    H2 3466   2.115   2.439   4.562 -1.1627  2.1685  0.6157
 1168TIP3   OH2 3467   1.863   1.639   1.547  0.2279  0.0902  0.2938
 1168TIP3    H1 3468   1.836   1.683   1.627  0.1958 -0.7282  0.7526
 1168TIP3    H2 3469   1.815   1.683   1.477 -1.5239 -0.6453  0.9710
 1169TIP3   OH2 3470   1.517   2.592   3.154 -0.4085 -0.3044  0.4519
 1169TIP3    H1 3471   1.486   2.627   3.237  1.9936  0.1624  1.2441
 1169TIP3    H2 3472   1.477   2.506   3.147 -0.8203 -0.2668  1.9984
 1170TIP3   OH2 3473   0.721   0.182   2.345  0.3479  0.6309 -0.3198
 1170TIP3    H1 3474   0.776   0.116   2.303 -0.5374 -0.1214 -0.3258
 1170TIP3    H2 3475   0.686   0.234   2.272 -0.3629 -0.0190 -0.4479
 1171TIP3   OH2 3476   2.265   1.220   1.115 -0.3532 -0.2719  0.3560
 1171TIP3    H1 3477   2.309   1.304   1.129 -1.2782  0.1747  0.6596
 1171TIP3    H2 3478   2.335   1.160   1.091  0.2859  0.6418 -0.1031
 1172TIP3   OH2 3479   5.021   1.075   5.665 -0.3664 -0.0437  0.3766
 1172TIP3    H1 3480   5.056   1.161   5.687  1.0386 -0.0122 -1.7225
 1172TIP3    H2 3481   5.085   1.037   5.605 -2.0747 -1.6320 -0.5499
 1173TIP3   OH2 3482   1.235   2.838   4.161  0.0250 -0.1236 -0.4330
 1173TIP3    H1 3483   1.257   2.891   4.084 -2.0541  0.7286 -0.5114
 1173TIP3    H2 3484   1.160   2.883   4.200  0.4986 -1.0061  1.6362
 1174TIP3   OH2 3485   4.496   4.336   1.283 -0.2528 -0.2354 -0.1302
 1174TIP3    H1 3486   4.487   4.431   1.293 -0.5029 -0.1077 -1.3257
 1174TIP3    H2 3487   4.590   4.321   1.278 -0.1783 -0.1657  0.9481
 1175TIP3   OH2 3488   6.231   1.225   4.456  0.1795  0.2675 -0.4691
 1175TIP3    H1 3489   6.203   1.312   4.482  2.2729  0.8173  0.1075
 1175TIP3    H2 3490   6.326   1.231   4.447  0.4260 -2.0208 -0.1490
 1176TIP3   OH2 3491   4.508   6.623   4.790 -0.4901 -0.0762 -0.2399
 1176TIP3    H1 3492   4.601   6.636   4.776 -0.1569 -2.4374 -0.7281
 1176TIP3    H2 3493   4.499   6.608   4.884 -0.0888 -1.4533 -0.3970
 1177TIP3   OH2 3494   2.320   0.507   4.649 -0.0944  0.0338 -0.1021
 1177TIP3    H1 3495   2.351   0.596   4.664 -0.6312 -0.0931  2.2335
 1177TIP3    H2 3496   2.375   0.453   4.707  0.4002 -1.2185 -1.6639
 1178TIP3   OH2 3497   4.577   1.338   4.666 -0.3342 -0.1228 -0.2070
 1178TIP3    H1 3498   4.592   1.342   4.571 -0.8415 -0.7729 -0.3247
 1178TIP3    H2 3499   4.519   1.412   4.684  0.4384  0.5091 -0.2575
 1179TIP3   OH2 3500   2.377   0.563   3.615  0.1801 -0.3388 -0.2258
 1179TIP3    H1 3501   2.291   0.589   3.581  0.1100 -1.0890 -0.6437
 1179TIP3    H2 3502   2.357   0.505   3.688  0.3299  1.3469  1.2192
 1180TIP3   OH2 3503   2.064   5.396   3.049  0.4253 -0.1686  0.1372
 1180TIP3    H1 3504   1.981   5.348   3.048 -0.7548  1.7435  0.1535
 1180TIP3    H2 3505   2.071   5.432   2.960  0.2449  1.2275  0.6637
 1181TIP3   OH2 3506   6.538   0.169   4.468  0.1729 -0.4747  0.3716
 1181TIP3    H1 3507   6.483   0.190   4.544  0.4186  0.4899  0.3080
 1181TIP3    H2 3508   6.534   0.074   4.460 -2.0652 -0.3876 -0.0803
 1182TIP3   OH2 3509   5.295   5.913   4.929  0.3197 -0.3412  0.2598
 1182TIP3    H1 3510   5.277   5.935   4.838  1.3670 -0.1518  0.0935
 1182TIP3    H2 3511   5.247   5.980   4.979  2.0542  1.3391 -0.2184
 1183TIP3   OH2 3512   5.345   1.651   2.539 -0.3340  0.1318  0.2287
 1183TIP3    H1 3513   5.297   1.714   2.593  0.3743  0.0242  1.0089
 1183TIP3    H2 3514   5.424   1.632   2.590 -0.8311 -1.8807  0.3166
 1184TIP3   OH2 3515   3.866   6.763   2.514 -0.3150 -0.1419 -0.2622
 1184TIP3    H1 3516   3.927   6.805   2.575 -0.7191 -1.1657  0.8673
 1184TIP3    H2 3517   3.806   6.714   2.569  0.7898 -3.1516 -1.5502
 1185TIP3   OH2 3518   0.195   4.223   0.108 -0.3549  0.1049  0.3699
 1185TIP3    H1 3519   0.265   4.161   0.086  0.4011  0.3126  2.0264
 1185TIP3    H2 3520   0.127   4.206   0.043  0.5659 -1.2271 -0.3029
 1186TIP3   OH2 3521   2.778   4.480   2.045 -0.0367 -0.0540  0.0221
 1186TIP3    H1 3522   2.699   4.481   2.100 -0.3180  0.0001 -0.3762
 1186TIP3    H2 3523   2.750   4.520   1.962  0.5884  0.5752  0.1099
 1187TIP3   OH2 3524   5.460   5.908   3.663  0.3054  0.7610 -0.1896
 1187TIP3    H1 3525   5.414   5.866   3.735  2.1723 -0.1968  0.5123
 1187TIP3    H2 3526   5.493   5.990   3.701 -0.9393  1.5567 -0.7547
 1188TIP3   OH2 3527   4.400   0.853   3.585 -0.5331 -0.0022 -0.2710
 1188TIP3    H1 3528   4.352   0.855   3.503 -2.4577  0.2829  0.8009
 1188TIP3    H2 3529   4.418   0.760   3.600 -0.7346 -0.1124 -0.6946
 1189TIP3   OH2 3530   6.143   4.360   5.684  0.5130  0.1630 -0.0411
 1189TIP3    H1 3531   6.133   4.268   5.662  0.2929  0.0149  0.6348
 1189TIP3    H2 3532   6.233   4.381   5.661  0.9518 -0.5571  0.9217
 1190TIP3   OH2 3533   2.233   2.118   2.442 -0.1640 -0.2734 -0.0724
 1190TIP3    H1 3534   2.164   2.162   2.392 -1.5706 -1.3778  0.7787
 1190TIP3    H2 3535   2.194   2.105   2.529  0.5867 -2.1281  0.0402
 1191TIP3   OH2 3536   4.244   6.077   0.239  0.1047  0.0054 -0.2495
 1191TIP3    H1 3537   4.205   6.098   0.154 -1.8536 -1.2973  0.2565
 1191TIP3    H2 3538   4.279   5.988   0.227 -1.8923 -0.9718  0.7884
 1192TIP3   OH2 3539   1.946   4.164   5.368  0.0934  0.1839  0.0756
 1192TIP3    H1 3540   1.877   4.118   5.416 -1.8218  0.1447 -2.5459
 1192TIP3    H2 3541   1.926   4.149   5.276  1.9988  2.5899 -0.8326
 1193TIP3   OH2 3542   0.013   6.362   2.350  0.0312 -0.0234 -0.3536
 1193TIP3    H1 3543   0.094   6.381   2.396  0.0059 -0.0517 -0.2978
 1193TIP3    H2 3544  -0.015   6.277   2.384  0.1279 -0.1471 -0.5785
 1194TIP3   OH2 3545   2.223   5.720   1.816 -0.0063  0.0575 -0.6452
 1194TIP3    H1 3546   2.194   5.692   1.729 -2.0005 -1.0176  0.3069
 1194TIP3    H2 3547   2.283   5.651   1.844 -0.8478 -0.6074 -0.4274
 1195TIP3   OH2 3548   7.215   4.754   5.300 -0.0543 -0.4461  0.6212
 1195TIP3    H1 3549   7.222   4.843   5.334  0.9388  0.3902 -1.5905
 1195TIP3    H2 3550   7.121   4.740   5.288 -0.1739  0.6020  0.2737
 1196TIP3   OH2 3551   3.328   1.841   3.222 -0.1602  0.1515  0.5935
 1196TIP3    H1 3552   3.233   1.839   3.215 -0.2667 -1.1982  2.0556
 1196TIP3    H2 3553   3.346   1.896   3.298  0.1771 -0.6546  1.0980
 1197TIP3   OH2 3554   4.657   2.866   5.755  0.5933 -0.0484 -0.9563
 1197TIP3    H1 3555   4.591   2.855   5.686 -0.3096  1.2094 -0.3328
 1197TIP3    H2 3556   4.608   2.900   5.830  2.0031  1.3052 -0.5963
 1198TIP3   OH2 3557   3.567   5.380   0.205 -0.3363 -0.6083 -0.7990
 1198TIP3    H1 3558   3.592   5.469   0.229  0.5574 -0.4534 -2.2087
 1198TIP3    H2 3559   3.578   5.329   0.286  0.3719  0.3084 -0.2992
 1199TIP3   OH2 3560   3.569   2.998   1.998 -0.5163  0.3991 -0.4641
 1199TIP3    H1 3561   3.501   3.047   2.046  0.1098  1.2197 -0.3832
 1199TIP3    H2 3562   3.577   3.044   1.914  1.0329  1.3248  0.1396
 1200TIP3   OH2 3563   3.918   1.108   1.471 -0.0182 -0.3130  0.5516
 1200TIP3    H1 3564   3.957   1.102   1.384 -1.0996  0.4130 -0.0009
 1200TIP3    H2 3565   3.823   1.109   1.456 -0.2190  0.4875  1.6833
 1201TIP3   OH2 3566   6.976   3.718   1.723 -0.3109 -0.0709  0.2987
 1201TIP3    H1 3567   7.063   3.724   1.763 -1.0076 -0.5041  1.9699
 1201TIP3    H2 3568   6.941   3.807   1.728  0.2239  0.2204 -0.8744
 1202TIP3   OH2 3569   3.703   2.989   5.708  0.1970 -0.2958  0.2720
 1202TIP3    H1 3570   3.641   2.991   5.635 -0.9325 -0.0824  1.2156
 1202TIP3    H2 3571   3.703   3.078   5.743 -1.0208 -0.8972  1.9323
 1203TIP3   OH2 3572   6.219   2.396   5.453  0.2274 -0.4435  0.2540
 1203TIP3    H1 3573   6.210   2.404   5.548  1.6171  0.3942  0.3459
 1203TIP3    H2 3574   6.308   2.365   5.440  0.2683  0.0783 -0.7966
 1204TIP3   OH2 3575   6.013   0.509   4.620  0.4014 -0.1265  0.4110
 1204TIP3    H1 3576   5.924   0.544   4.625  0.2549 -0.4032 -0.1251
 1204TIP3    H2 3577   6.060   0.572   4.566 -0.3280 -1.5970 -2.1351
 1205TIP3   OH2 3578   0.217   2.440   3.828 -0.3193  0.2962 -0.5623
 1205TIP3    H1 3579   0.279   2.452   3.900 -0.3044 -1.0534 -0.3275
 1205TIP3    H2 3580   0.196   2.529   3.799  1.3096  0.7955 -0.2999
 1206TIP3   OH2 3581   0.913   3.314   5.873  0.2127 -0.0741  0.3147
 1206TIP3    H1 3582   0.885   3.401   5.845  0.3525 -0.3276 -0.6507
 1206TIP3    H2 3583   0.969   3.283   5.802  0.8557 -0.6139  1.0393
 1207TIP3   OH2 3584   5.297   6.379   5.306  0.5824 -0.6220 -0.3829
 1207TIP3    H1 3585   5.355   6.395   5.232  1.0072 -0.4581 -0.0158
 1207TIP3    H2 3586   5.245   6.459   5.312  1.8916  0.1814  0.7097
 1208TIP3   OH2 3587   1.671   5.018   1.609  1.0636  0.1502  0.3047
 1208TIP3    H1 3588   1.714   5.103   1.619  1.0519 -0.0836  3.0342
 1208TIP3    H2 3589   1.622   5.006   1.690 -1.1447 -1.3006 -1.1308
 1209TIP3   OH2 3590   6.084   5.260   4.665  0.4618 -0.3021 -0.1833
 1209TIP3    H1 3591   6.018   5.226   4.605 -0.0543 -0.2992  0.3787
 1209TIP3    H2 3592   6.101   5.349   4.634 -0.1875 -0.1124 -0.0123
 1210TIP3   OH2 3593   6.439   4.123   2.498  0.4030 -0.1308  0.2488
 1210TIP3    H1 3594   6.373   4.082   2.554 -0.6679 -0.4007 -1.1572
 1210TIP3    H2 3595   6.435   4.073   2.416  1.6248  0.5185 -0.2265
 1211TIP3   OH2 3596   5.121   4.591   1.662 -0.0798  0.1395  0.1078
 1211TIP3    H1 3597   5.034   4.631   1.662 -0.8001 -1.3700  0.2036
 1211TIP3    H2 3598   5.105   4.497   1.669  1.6188 -0.0539  2.5686
 1212TIP3   OH2 3599   6.213   4.142   0.762 -0.4036  0.0312  0.6665
 1212TIP3    H1 3600   6.293   4.171   0.718  0.2595 -1.2903  0.9526
 1212TIP3    H2 3601   6.181   4.069   0.709  0.5375 -1.7498  2.3922
 1213TIP3   OH2 3602   3.029   3.655   1.905  0.0444  0.5782 -0.0759
 1213TIP3    H1 3603   3.123   3.645   1.890  0.0415  1.1736 -0.4974
 1213TIP3    H2 3604   2.996   3.565   1.913  0.8549  0.3851  1.4015
 1214TIP3   OH2 3605   2.187   3.996   2.019  0.3154 -0.2650  0.0602
 1214TIP3    H1 3606   2.271   3.958   1.995 -0.3490 -1.2672 -0.7741
 1214TIP3    H2 3607   2.181   4.077   1.967  0.0012 -1.1152 -1.2734
 1215TIP3   OH2 3608   2.212   4.520   1.616  0.4547  0.2702  0.3185
 1215TIP3    H1 3609   2.148   4.539   1.548  0.6955  2.6007  0.6623
 1215TIP3    H2 3610   2.173   4.553   1.697  1.5606  0.6124  0.7408
 1216TIP3   OH2 3611   3.158   0.447   2.699  0.4282  0.6101  0.5864
 1216TIP3    H1 3612   3.073   0.415   2.731  0.7988  0.4782  1.4774
 1216TIP3    H2 3613   3.162   0.538   2.727 -0.5892  1.5063 -1.8796
 1217TIP3   OH2 3614   2.082   2.073   5.699  0.4869  0.0632  0.0962
 1217TIP3    H1 3615   1.991   2.043   5.692  0.5922 -0.0007 -1.3120
 1217TIP3    H2 3616   2.076   2.169   5.696  0.4590  0.0611  0.0848
 1218TIP3   OH2 3617   0.284   2.241   4.101  0.3769  0.8574 -0.3462
 1218TIP3    H1 3618   0.191   2.224   4.113  0.6381 -2.0080 -1.6022
 1218TIP3    H2 3619   0.326   2.203   4.178  0.7362 -2.0101 -1.8073
 1219TIP3   OH2 3620   6.209   6.620   1.402 -0.6433  0.9079 -0.3540
 1219TIP3    H1 3621   6.184   6.688   1.341 -0.2115  0.8493 -0.5966
 1219TIP3    H2 3622   6.200   6.660   1.489 -1.1636  1.0178 -0.4592
 1220TIP3   OH2 3623   4.237   0.176   5.244 -0.0207  0.1210 -0.3229
 1220TIP3    H1 3624   4.318   0.152   5.289 -1.3431 -1.8901  1.2184
 1220TIP3    H2 3625   4.247   0.139   5.156  0.9373  0.3530 -0.3222
 1221TIP3   OH2 3626   6.799   6.040   5.589 -0.2466 -0.1261  0.1915
 1221TIP3    H1 3627   6.756   6.040   5.503 -3.1204  0.7753  1.5279
 1221TIP3    H2 3628   6.823   5.948   5.603  0.5965 -0.2389 -1.6855
 1222TIP3   OH2 3629   1.699   6.751   4.262 -0.2220 -0.8051  0.4031
 1222TIP3    H1 3630   1.690   6.806   4.184 -0.2641 -0.3674  0.7128
 1222TIP3    H2 3631   1.705   6.662   4.227 -0.5949 -0.6487 -0.0826
 1223TIP3   OH2 3632   4.635   3.110   1.602  0.0296 -0.0177  0.3766
 1223TIP3    H1 3633   4.540   3.123   1.594  0.1511  1.0214  0.4402
 1223TIP3    H2 3634   4.673   3.176   1.544  0.7165 -0.5482  0.2170
 1224TIP3   OH2 3635   7.033   4.216   4.225  0.2079 -0.5789  0.5637
 1224TIP3    H1 3636   7.054   4.145   4.164  0.4507  0.1968 -0.2774
 1224TIP3    H2 3637   7.082   4.196   4.304 -0.6561 -1.9790  0.7703
 1225TIP3   OH2 3638   6.851   4.658   4.133 -0.3396 -0.7083 -0.7043
 1225TIP3    H1 3639   6.831   4.729   4.193 -0.7779  0.6480 -2.3717
 1225TIP3    H2 3640   6.920   4.607   4.177  1.6321  2.0318 -0.3663
 1226TIP3   OH2 3641   6.595   6.697   4.110  0.9242 -0.1498  0.1993
 1226TIP3    H1 3642   6.527   6.720   4.173  0.2506  1.1157 -0.9293
 1226TIP3    H2 3643   6.675   6.736   4.146  0.6857 -0.0693  0.6413
 1227TIP3   OH2 3644   2.287   6.580   4.313  0.2480 -0.6547 -0.3070
 1227TIP3    H1 3645   2.278   6.554   4.221 -1.5967  1.1403 -0.7041
 1227TIP3    H2 3646   2.237   6.514   4.361 -0.9097 -0.2246 -0.8781
 1228TIP3   OH2 3647   1.524   5.039   3.514  0.2017  0.1059  0.4650
 1228TIP3    H1 3648   1.541   5.126   3.550  0.5575 -0.3809  1.5133
 1228TIP3    H2 3649   1.429   5.032   3.508  0.1907  1.0105 -0.7824
 1229TIP3   OH2 3650   1.172   1.474   1.752  0.1347 -0.3202 -0.1168
 1229TIP3    H1 3651   1.121   1.549   1.720 -0.5520 -1.2419 -1.2829
 1229TIP3    H2 3652   1.108   1.404   1.759  1.2321 -1.5425 -1.6892
 1230TIP3   OH2 3653   1.208   1.962   0.698  0.2322 -0.0194  0.2276
 1230TIP3    H1 3654   1.278   2.024   0.721 -0.0953  0.6649 -0.5780
 1230TIP3    H2 3655   1.131   1.994   0.745 -0.1969  0.8180 -0.9989
 1231TIP3   OH2 3656   3.850   6.553   0.661 -0.0951  0.2417  0.2374
 1231TIP3    H1 3657   3.820   6.462   0.662  0.4559  0.0068 -1.6753
 1231TIP3    H2 3658   3.792   6.597   0.723 -0.7895 -1.2729  0.7272
 1232TIP3   OH2 3659   0.046   6.044   4.033 -0.3571  0.0999 -0.0134
 1232TIP3    H1 3660   0.129   6.041   3.986  0.5667 -0.3030  1.5879
 1232TIP3    H2 3661  -0.010   5.982   3.986  0.8274 -0.9609 -0.0689
 1233TIP3   OH2 3662   1.536   0.824   4.112  0.5157  0.4343  0.2418
 1233TIP3    H1 3663   1.573   0.785   4.191  0.5273 -0.0889 -0.0212
 1233TIP3    H2 3664   1.451   0.857   4.139 -0.4869 -1.7796 -0.0622
 1234TIP3   OH2 3665   5.346   4.753   1.662 -0.4642  0.0507 -0.0904
 1234TIP3    H1 3666   5.300   4.820   1.712 -0.4173  0.8419 -1.0769
 1234TIP3    H2 3667   5.284   4.681   1.654  0.3320 -1.1613  3.1527
 1235TIP3   OH2 3668   1.413   3.809   3.192 -0.7430 -0.0678  0.2313
 1235TIP3    H1 3669   1.387   3.717   3.188 -0.0930 -0.2154 -1.5344
 1235TIP3    H2 3670   1.498   3.812   3.148  0.4149  1.0206  2.4196
 1236TIP3   OH2 3671   6.581   4.159   5.725  0.0356 -0.2478  0.1260
 1236TIP3    H1 3672   6.627   4.112   5.656  1.1192  0.1027  0.5861
 1236TIP3    H2 3673   6.562   4.092   5.791 -0.4039 -0.4537 -0.2046
 1237TIP3   OH2 3674   0.698   1.426   5.100  0.2601  0.1121  0.1470
 1237TIP3    H1 3675   0.619   1.412   5.048  0.9535  1.4061 -1.3240
 1237TIP3    H2 3676   0.743   1.342   5.099 -1.0366 -0.6192  0.9374
 1238TIP3   OH2 3677   0.817   5.432   3.728  0.6619 -0.5351 -0.3033
 1238TIP3    H1 3678   0.739   5.487   3.731  1.3535  0.4800 -0.0921
 1238TIP3    H2 3679   0.803   5.364   3.794  0.2661  0.0778  0.2543
 1239TIP3   OH2 3680   3.527   5.620   5.541 -0.3354 -0.4007 -0.6140
 1239TIP3    H1 3681   3.433   5.610   5.556 -1.1457 -0.8000 -4.7272
 1239TIP3    H2 3682   3.567   5.547   5.588 -1.8167  0.4992  2.2857
 1240TIP3   OH2 3683   1.163   5.929   4.579  0.4714  0.1683  0.6956
 1240TIP3    H1 3684   1.212   5.976   4.511 -1.3214 -0.6657 -1.3089
 1240TIP3    H2 3685   1.072   5.936   4.551 -0.0883 -2.4096  1.6280
 1241TIP3   OH2 3686   3.639   0.770   0.119  0.4392  0.2011 -0.5693
 1241TIP3    H1 3687   3.698   0.695   0.109 -0.9248 -0.7944 -1.4404
 1241TIP3    H2 3688   3.697   0.846   0.113  1.7782 -0.7483 -0.2421
 1242TIP3   OH2 3689   1.052   4.098   0.302  0.5487  0.0081  0.0429
 1242TIP3    H1 3690   1.128   4.155   0.312  0.8504  0.5311 -3.7188
 1242TIP3    H2 3691   1.002   4.137   0.231 -1.4597 -2.1939  0.1191
 1243TIP3   OH2 3692   6.584   6.536   5.685 -0.4161 -0.2640 -0.3257
 1243TIP3    H1 3693   6.633   6.454   5.675 -0.5571 -0.6540  1.8720
 1243TIP3    H2 3694   6.492   6.510   5.686 -0.4523 -0.1167  0.6223
 1244TIP3   OH2 3695   4.716   5.717   5.356 -0.4053 -0.0218  0.2617
 1244TIP3    H1 3696   4.673   5.746   5.276  1.4006 -0.1451 -0.8092
 1244TIP3    H2 3697   4.708   5.791   5.416  2.8731  2.3914 -1.9180
 1245TIP3   OH2 3698   0.107   0.970   0.774  0.2924  0.3805  0.1920
 1245TIP3    H1 3699   0.098   0.889   0.723 -1.6187  1.0963 -0.7098
 1245TIP3    H2 3700   0.033   0.967   0.836  0.3619  1.3008  0.3313
 1246TIP3   OH2 3701   4.053   3.832   0.083 -0.0362 -0.0895  0.9655
 1246TIP3    H1 3702   4.113   3.803   0.014  0.1468  1.5380  0.3907
 1246TIP3    H2 3703   4.091   3.914   0.115 -0.8994 -0.0675  2.0105
 1247TIP3   OH2 3704   5.448   5.523   2.454 -0.1053 -0.2042  0.1104
 1247TIP3    H1 3705   5.439   5.495   2.363 -1.6488  0.3850  0.0643
 1247TIP3    H2 3706   5.511   5.596   2.450 -2.6530  2.1274 -1.0454
 1248TIP3   OH2 3707   3.560   0.039   1.969 -0.1478  0.2284 -0.4233
 1248TIP3    H1 3708   3.548  -0.055   1.974  0.6148  0.1283 -0.2471
 1248TIP3    H2 3709   3.607   0.061   2.050 -0.2749  0.7473 -0.4876
 1249TIP3   OH2 3710   0.505   5.120   3.598 -0.2584  0.5631 -0.3212
 1249TIP3    H1 3711   0.446   5.063   3.647 -0.8932  1.1072 -0.4332
 1249TIP3    H2 3712   0.503   5.085   3.509 -0.1359  0.3653 -0.2455
 1250TIP3   OH2 3713   6.307   1.861   4.529 -0.1544 -0.8015 -0.4176
 1250TIP3    H1 3714   6.225   1.847   4.576 -0.5722 -0.2923 -0.9744
 1250TIP3    H2 3715   6.279   1.887   4.441  0.5860 -2.6964 -1.2817
 1251TIP3   OH2 3716   3.851   6.243   4.369  1.0366  0.2173 -1.1258
 1251TIP3    H1 3717   3.851   6.329   4.325  2.3634  0.3009 -0.9846
 1251TIP3    H2 3718   3.848   6.180   4.298  2.3580  0.3640 -1.3244
 1252TIP3   OH2 3719   3.861   0.313   1.490 -0.3202  0.5427 -0.3242
 1252TIP3    H1 3720   3.770   0.342   1.494 -1.1240 -1.8669  0.6718
 1252TIP3    H2 3721   3.883   0.288   1.580  0.2401 -1.7965 -1.0330
 1253TIP3   OH2 3722   2.205   0.127   3.293 -0.3740 -0.0673  0.7387
 1253TIP3    H1 3723   2.271   0.058   3.287 -2.1143 -1.8271  0.5085
 1253TIP3    H2 3724   2.168   0.134   3.205 -1.4391 -0.1541  1.1569
 1254TIP3   OH2 3725   2.567   6.198   3.820  0.2848 -0.2291  0.2773
 1254TIP3    H1 3726   2.606   6.244   3.894  0.4203 -1.2105  0.8361
 1254TIP3    H2 3727   2.576   6.259   3.747  0.1625  0.7564  1.0522
 1255TIP3   OH2 3728   6.054   1.697   2.326 -0.0786  0.1781  0.1160
 1255TIP3    H1 3729   6.048   1.767   2.261 -0.5279 -0.5992 -0.7075
 1255TIP3    H2 3730   6.131   1.719   2.378 -0.1295  1.2007 -0.2265
 1256TIP3   OH2 3731   2.483   1.708   4.967  0.6222 -0.0650 -0.1701
 1256TIP3    H1 3732   2.392   1.686   4.988  1.2166 -1.1780  1.5191
 1256TIP3    H2 3733   2.506   1.651   4.894  0.1657 -0.3400 -0.1004
 1257TIP3   OH2 3734   3.849   0.441   2.134  0.0992 -0.6302  0.3713
 1257TIP3    H1 3735   3.788   0.419   2.064  0.7151 -1.2443  0.0090
 1257TIP3    H2 3736   3.936   0.434   2.093  0.3928  1.5386  0.5043
 1258TIP3   OH2 3737   5.245   5.662   5.021 -0.1933  0.1340 -0.1045
 1258TIP3    H1 3738   5.229   5.687   5.112  0.4896  1.9500 -0.4506
 1258TIP3    H2 3739   5.261   5.744   4.976 -1.8011 -0.5892 -2.1587
 1259TIP3   OH2 3740   2.666   1.388   0.034  0.2394 -0.4692 -0.3546
 1259TIP3    H1 3741   2.645   1.297   0.015  0.4978 -1.2950  2.8727
 1259TIP3    H2 3742   2.610   1.412   0.108 -0.0058  2.1209 -1.2461
 1260TIP3   OH2 3743   2.056   4.120   4.846  0.3205 -0.2733  0.8780
 1260TIP3    H1 3744   2.111   4.077   4.781 -1.1030 -0.4563 -0.2786
 1260TIP3    H2 3745   2.088   4.210   4.849  0.3642 -0.2340 -0.1654
 1261TIP3   OH2 3746   3.961   3.611   3.318  0.3054 -0.5429 -0.6856
 1261TIP3    H1 3747   3.970   3.564   3.401 -1.4556 -0.1467 -0.2330
 1261TIP3    H2 3748   4.002   3.696   3.334  1.1448 -0.9382 -0.6673
 1262TIP3   OH2 3749   3.256   5.488   0.845 -0.2884  0.1468  0.1915
 1262TIP3    H1 3750   3.250   5.559   0.909 -0.3963 -0.2886  0.6722
 1262TIP3    H2 3751   3.349   5.465   0.843 -0.4419 -0.6452  1.1029
 1263TIP3   OH2 3752   5.747   0.011   2.498  0.5410 -0.1700 -0.1531
 1263TIP3    H1 3753   5.687   0.035   2.569 -1.0981 -1.8460 -0.8797
 1263TIP3    H2 3754   5.731   0.077   2.430  0.0194 -0.1741 -0.0420
 1264TIP3   OH2 3755   4.978   1.756   0.779  0.0956 -0.0901 -0.2729
 1264TIP3    H1 3756   5.018   1.776   0.864  0.5762  0.0124 -0.5167
 1264TIP3    H2 3757   4.895   1.713   0.801 -0.3130  0.9428  0.2512
 1265TIP3   OH2 3758   1.979   1.268   1.921  0.1213  0.0273 -0.1231
 1265TIP3    H1 3759   1.933   1.296   2.000  2.0628  0.1986  1.0174
 1265TIP3    H2 3760   2.046   1.335   1.907 -0.6674  0.4460 -2.4427
 1266TIP3   OH2 3761   2.967   6.757   0.113  0.0819  0.1000 -0.2740
 1266TIP3    H1 3762   2.992   6.695   0.045 -1.0147 -0.3898 -0.2448
 1266TIP3    H2 3763   2.873   6.771   0.100  0.1910  1.3208  0.0765
 1267TIP3   OH2 3764   2.972   1.596   4.833 -0.5365 -0.2368  0.2538
 1267TIP3    H1 3765   3.028   1.671   4.855 -0.6129 -0.1649  0.2049
 1267TIP3    H2 3766   2.971   1.595   4.737 -0.5557 -0.2855  0.2545
 1268TIP3   OH2 3767   1.875   0.669   3.870 -0.1765 -0.4898 -0.0526
 1268TIP3    H1 3768   1.805   0.735   3.867  1.0847  0.8659 -1.8706
 1268TIP3    H2 3769   1.850   0.606   3.803 -0.4694 -0.9116  0.4457
 1269TIP3   OH2 3770   3.070   1.674   0.061  0.2131 -0.3540 -0.2084
 1269TIP3    H1 3771   3.141   1.609   0.059  1.2144  0.5755  2.0409
 1269TIP3    H2 3772   3.001   1.633   0.112 -0.9090 -1.2051 -2.2882
 1270TIP3   OH2 3773   3.967   2.241   2.484  0.2650  0.7605 -0.5271
 1270TIP3    H1 3774   4.055   2.206   2.466  0.0340  0.8152 -1.9377
 1270TIP3    H2 3775   3.981   2.334   2.500  0.3980  0.9931 -1.8122
 1271TIP3   OH2 3776   5.972   4.078   4.907 -0.0255  0.6285 -0.0609
 1271TIP3    H1 3777   6.045   4.022   4.932 -0.7093 -0.3955 -0.2779
 1271TIP3    H2 3778   5.989   4.160   4.952  0.5916 -0.0209  0.9473
 1272TIP3   OH2 3779   6.152   6.109   5.490  0.0371  0.0172  0.1749
 1272TIP3    H1 3780   6.137   6.104   5.584  0.5571 -2.6865  0.2026
 1272TIP3    H2 3781   6.065   6.104   5.451 -0.0949 -0.3282  0.5074
 1273TIP3   OH2 3782   3.795   2.308   4.385 -0.1780  0.2019 -0.2254
 1273TIP3    H1 3783   3.718   2.350   4.423  0.8433  1.2461  0.7726
 1273TIP3    H2 3784   3.830   2.373   4.323  0.5903  0.2550  0.2481
 1274TIP3   OH2 3785   5.240   1.755   0.351 -0.2490 -1.0200 -0.4649
 1274TIP3    H1 3786   5.246   1.781   0.259 -2.4721  2.2766  0.1204
 1274TIP3    H2 3787   5.329   1.731   0.375  1.6150  3.0763 -2.2441
 1275TIP3   OH2 3788   4.252   5.143   0.138  0.3655  0.6902 -1.0658
 1275TIP3    H1 3789   4.162   5.171   0.157  0.3437  0.2131 -0.4494
 1275TIP3    H2 3790   4.300   5.225   0.125 -0.5535  0.9504 -3.3629
 1276TIP3   OH2 3791   6.410   1.167   5.835  0.1230  0.7694 -0.1554
 1276TIP3    H1 3792   6.487   1.132   5.791 -0.3821 -1.2354  0.4593
 1276TIP3    H2 3793   6.336   1.123   5.792 -0.4845  0.3449  1.2578
 1277TIP3   OH2 3794   4.952   1.860   4.298  0.7826 -0.0633 -0.3411
 1277TIP3    H1 3795   5.037   1.867   4.342  0.6967  0.5200 -0.2578
 1277TIP3    H2 3796   4.927   1.768   4.307  1.2312 -0.1559 -0.0409
 1278TIP3   OH2 3797   0.914   1.068   2.224 -0.1768 -0.4315  0.2347
 1278TIP3    H1 3798   0.959   1.091   2.306  1.8999 -1.3174 -0.5791
 1278TIP3    H2 3799   0.907   0.973   2.226  1.8562 -0.7075 -1.4699
 1279TIP3   OH2 3800   3.747   3.432   2.363 -0.6069  0.5339  0.8590
 1279TIP3    H1 3801   3.730   3.351   2.316 -0.8016  2.0126 -1.8530
 1279TIP3    H2 3802   3.699   3.424   2.445 -1.0670 -1.8223  0.4098
 1280TIP3   OH2 3803   4.115   3.395   4.748 -0.1086 -0.3464  0.2171
 1280TIP3    H1 3804   4.084   3.421   4.661  1.1541 -1.2822 -0.5470
 1280TIP3    H2 3805   4.161   3.472   4.781  0.2413 -0.2950 -0.3692
 1281TIP3   OH2 3806   4.190   6.018   5.615 -0.4514 -0.1527  0.3710
 1281TIP3    H1 3807   4.254   6.048   5.550 -0.9427  1.5357  0.6145
 1281TIP3    H2 3808   4.113   5.995   5.563 -0.7344  0.8945  0.3005
 1282TIP3   OH2 3809   6.171   1.599   3.003 -0.3044  0.0859  0.1048
 1282TIP3    H1 3810   6.224   1.671   2.968  0.2657  0.0442  0.8545
 1282TIP3    H2 3811   6.132   1.635   3.083  0.4507 -0.6040  0.8019
 1283TIP3   OH2 3812   2.854   2.250   5.697  0.1788  0.2444 -0.0693
 1283TIP3    H1 3813   2.910   2.284   5.767  1.2211 -0.4762 -0.5262
 1283TIP3    H2 3814   2.799   2.184   5.740 -1.4587  2.0178  0.7019
 1284TIP3   OH2 3815   0.590   1.979   3.565 -0.2563 -0.4431  0.0339
 1284TIP3    H1 3816   0.540   2.060   3.576  0.3353  0.0487 -0.8139
 1284TIP3    H2 3817   0.539   1.927   3.503  0.9521  0.6808 -2.0092
 1285TIP3   OH2 3818   5.686   2.265   3.481 -0.4103  0.3970 -0.1896
 1285TIP3    H1 3819   5.670   2.346   3.530 -2.7079 -0.4078  0.5575
 1285TIP3    H2 3820   5.656   2.284   3.392 -0.6655  0.4727 -0.0898
 1286TIP3   OH2 3821   4.649   4.728   0.797  0.1581  0.6492 -0.2792
 1286TIP3    H1 3822   4.720   4.679   0.839  0.9982  2.2319  0.2613
 1286TIP3    H2 3823   4.686   4.755   0.712  0.1267  1.2407 -0.1132
 1287TIP3   OH2 3824   0.753   5.564   1.578 -0.5054 -0.2473  0.3884
 1287TIP3    H1 3825   0.688   5.548   1.510 -0.6007  0.2442  0.3594
 1287TIP3    H2 3826   0.815   5.626   1.538 -0.4192 -0.1557  0.6594
 1288TIP3   OH2 3827   1.807   4.457   4.639 -0.6312 -0.2983  0.8799
 1288TIP3    H1 3828   1.784   4.519   4.708 -1.2527  0.5899 -0.0741
 1288TIP3    H2 3829   1.818   4.373   4.683 -0.0590  0.4312  2.1688
 1289TIP3   OH2 3830   5.008   4.120   3.434 -0.5292 -0.3667  0.1944
 1289TIP3    H1 3831   5.026   4.206   3.395  0.1251  0.1454  1.5708
 1289TIP3    H2 3832   4.920   4.098   3.403  0.8994 -1.3302 -3.8664
 1290TIP3   OH2 3833   2.975   0.210   5.182  0.6019 -0.3169  0.0214
 1290TIP3    H1 3834   2.941   0.194   5.270  0.9623 -0.7837  0.0771
 1290TIP3    H2 3835   3.005   0.124   5.151  3.1298  0.2931  0.5626
 1291TIP3   OH2 3836   2.890   6.238   4.736 -0.3650 -0.2442  0.0101
 1291TIP3    H1 3837   2.857   6.159   4.779 -0.3888 -0.2707 -0.0573
 1291TIP3    H2 3838   2.982   6.243   4.763  0.0044 -1.0263 -1.0443
 1292TIP3   OH2 3839   2.871   2.318   1.497 -0.0213 -0.0391 -0.0769
 1292TIP3    H1 3840   2.882   2.359   1.583 -0.4196 -1.3034  0.5990
 1292TIP3    H2 3841   2.935   2.363   1.441  1.1248 -0.0288  1.1790
 1293TIP3   OH2 3842   5.862   6.099   1.818 -0.2162  0.2591 -0.7891
 1293TIP3    H1 3843   5.950   6.114   1.854 -0.1106 -0.1024 -0.8978
 1293TIP3    H2 3844   5.809   6.168   1.857  0.0495  0.2922 -0.4801
 1294TIP3   OH2 3845   5.852   0.317   4.828 -0.3819  0.3072  0.2913
 1294TIP3    H1 3846   5.859   0.411   4.848  1.1052 -0.1121  2.1509
 1294TIP3    H2 3847   5.785   0.311   4.761  1.2507  2.9576 -1.7882
 1295TIP3   OH2 3848   4.262   3.127   0.222 -0.4860  0.3647  0.0240
 1295TIP3    H1 3849   4.296   3.207   0.182 -0.8779  0.5786  0.1162
 1295TIP3    H2 3850   4.187   3.103   0.167 -1.1989  0.8137  0.7955
 1296TIP3   OH2 3851   5.759   2.738   5.733  0.3118  0.0530  0.0761
 1296TIP3    H1 3852   5.674   2.776   5.713 -0.0557 -0.4097  0.7003
 1296TIP3    H2 3853   5.822   2.805   5.709 -0.2122  0.2765 -0.6876
 1297TIP3   OH2 3854   2.204   0.166   4.522  0.1847  0.0471  0.6526
 1297TIP3    H1 3855   2.225   0.149   4.614 -1.7467 -1.1950  0.9241
 1297TIP3    H2 3856   2.273   0.225   4.492  0.9920  0.2997  2.8274
 1298TIP3   OH2 3857   1.215   2.677   2.578  0.0834  0.1591 -0.9535
 1298TIP3    H1 3858   1.129   2.712   2.604  0.6333  0.9036 -0.0629
 1298TIP3    H2 3859   1.198   2.628   2.498 -1.5803 -1.6415  0.4224
 1299TIP3   OH2 3860   6.055   5.583   5.611  0.1007  0.2341 -0.0876
 1299TIP3    H1 3861   6.061   5.658   5.552 -2.3001  0.2589 -0.4228
 1299TIP3    H2 3862   6.038   5.509   5.553  3.3823 -0.8563  0.1496
 1300TIP3   OH2 3863   3.972   0.695   2.863  0.1228 -0.0982 -0.2779
 1300TIP3    H1 3864   3.937   0.608   2.885  0.9485 -0.0550  1.3399
 1300TIP3    H2 3865   3.899   0.740   2.820 -0.4873 -1.3927 -0.6485
 1301TIP3   OH2 3866   0.767   6.675   3.285  0.1926  0.5906  0.3011
 1301TIP3    H1 3867   0.808   6.728   3.353 -0.4710  1.5083  0.0037
 1301TIP3    H2 3868   0.762   6.587   3.323  1.1459  0.7644  0.8636
 1302TIP3   OH2 3869   5.563   4.664   4.185  0.8556  0.3502  0.2722
 1302TIP3    H1 3870   5.592   4.754   4.173 -0.4650  0.8306  0.5433
 1302TIP3    H2 3871   5.499   4.668   4.256  1.1701 -0.8853  0.6585
 1303TIP3   OH2 3872   3.210   5.251   4.214  0.3289 -0.1681  0.2340
 1303TIP3    H1 3873   3.161   5.211   4.286  1.0095  0.5057  1.0980
 1303TIP3    H2 3874   3.166   5.334   4.198  0.3721 -0.1742  0.0779
 1304TIP3   OH2 3875   1.037   0.922   3.339 -0.3520 -0.0498 -0.6102
 1304TIP3    H1 3876   1.006   0.961   3.257 -1.0975  0.9582  0.1275
 1304TIP3    H2 3877   1.041   0.828   3.320 -0.2993  0.1858 -1.8651
 1305TIP3   OH2 3878   5.024   5.207   0.575  0.0285 -0.2687  0.6545
 1305TIP3    H1 3879   4.953   5.251   0.528 -0.6774 -0.5858  1.3865
 1305TIP3    H2 3880   5.007   5.227   0.667  1.1029 -0.0603  0.8172
 1306TIP3   OH2 3881   5.132   4.477   5.156  0.0339 -0.4033  0.3348
 1306TIP3    H1 3882   5.141   4.498   5.249  0.8842  2.2362 -0.2772
 1306TIP3    H2 3883   5.071   4.543   5.122  0.8028 -0.4654 -1.2586
 1307TIP3   OH2 3884   1.871   3.137   3.565  0.0914  0.3667  0.2154
 1307TIP3    H1 3885   1.875   3.227   3.533 -1.7822  0.6886  0.7668
 1307TIP3    H2 3886   1.867   3.145   3.660 -0.2591 -0.2753  0.2662
 1308TIP3   OH2 3887   4.126   1.040   2.347  0.0386 -0.1504  0.2852
 1308TIP3    H1 3888   4.057   1.000   2.401 -0.5063 -0.2502 -0.4733
 1308TIP3    H2 3889   4.136   0.980   2.273  0.6458  0.0859  0.1737
 1309TIP3   OH2 3890   4.227   1.651   3.488 -0.0563  0.3460  0.1688
 1309TIP3    H1 3891   4.157   1.716   3.484  1.3366  1.9354  0.3187
 1309TIP3    H2 3892   4.255   1.639   3.397  0.7538  1.2281  0.2799
 1310TIP3   OH2 3893   6.172   4.548   0.638  0.2149 -0.2931  0.1368
 1310TIP3    H1 3894   6.132   4.544   0.725  1.7271  1.2623  0.9665
 1310TIP3    H2 3895   6.110   4.502   0.581 -1.4235 -0.2697  1.7968
 1311TIP3   OH2 3896   6.248   3.954   4.296  0.3849 -0.3046 -0.0020
 1311TIP3    H1 3897   6.231   3.922   4.385  0.9156 -0.4205  0.0646
 1311TIP3    H2 3898   6.267   3.875   4.245  1.1799 -0.1558  0.0423
 1312TIP3   OH2 3899   5.233   1.833   0.080  0.1733 -0.0953 -0.1502
 1312TIP3    H1 3900   5.276   1.799   0.002 -0.6644  0.6082 -0.9464
 1312TIP3    H2 3901   5.142   1.807   0.071 -0.0960  0.6900  0.1677
 1313TIP3   OH2 3902   1.723   3.276   4.036  0.0426 -0.6869 -0.0565
 1313TIP3    H1 3903   1.731   3.365   4.001  0.9171 -0.7724 -0.0832
 1313TIP3    H2 3904   1.776   3.222   3.978  1.1851 -0.8925  1.1295
 1314TIP3   OH2 3905   5.067   4.758   3.833 -0.1767 -0.2585 -0.5045
 1314TIP3    H1 3906   5.052   4.680   3.886  1.8567  0.2312  0.9151
 1314TIP3    H2 3907   5.068   4.830   3.897 -0.7051  0.7556 -1.6151
 1315TIP3   OH2 3908   0.786   2.770   1.783  0.7204 -0.0799 -0.4654
 1315TIP3    H1 3909   0.842   2.828   1.731 -0.5031  1.3487 -0.2442
 1315TIP3    H2 3910   0.828   2.768   1.870  1.1983 -0.1709 -0.6952
 1316TIP3   OH2 3911   6.942   2.764   0.524  0.0619  0.3165 -0.8873
 1316TIP3    H1 3912   6.899   2.848   0.508  1.4775  0.8973 -1.8934
 1316TIP3    H2 3913   6.880   2.698   0.494 -1.7708  0.8548  1.4373
 1317TIP3   OH2 3914   3.727   0.996   1.902  0.1762  0.4191  0.3330
 1317TIP3    H1 3915   3.683   0.925   1.949  0.0848  0.9529  1.0672
 1317TIP3    H2 3916   3.741   0.961   1.814 -0.1071 -0.4109  0.6079
 1318TIP3   OH2 3917   4.459   6.333   4.412  0.1883  0.1915  0.3753
 1318TIP3    H1 3918   4.405   6.373   4.344 -0.3397  0.8054  1.1327
 1318TIP3    H2 3919   4.506   6.407   4.451  1.8177 -0.3512 -0.4485
 1319TIP3   OH2 3920   6.433   2.163   1.692  0.1326  0.5029  0.0516
 1319TIP3    H1 3921   6.399   2.156   1.782 -2.1426  1.2167 -0.6768
 1319TIP3    H2 3922   6.455   2.256   1.682  3.5004 -0.1042  0.8306
 1320TIP3   OH2 3923   2.706   5.959   2.912 -0.0290 -0.0431  0.1032
 1320TIP3    H1 3924   2.676   6.048   2.893  0.3586  0.4724  1.7118
 1320TIP3    H2 3925   2.801   5.964   2.905 -0.0119 -0.3627  0.1032
 1321TIP3   OH2 3926   0.174   2.855   1.482 -0.4485 -0.1510 -0.2841
 1321TIP3    H1 3927   0.116   2.778   1.483 -0.5886 -0.0742 -1.4009
 1321TIP3    H2 3928   0.230   2.842   1.406  1.1471 -0.2998  0.8651
 1322TIP3   OH2 3929   6.051   2.581   0.324  0.1951 -0.2190 -0.4024
 1322TIP3    H1 3930   5.999   2.538   0.255  0.1543 -0.4786 -0.2120
 1322TIP3    H2 3931   5.986   2.616   0.384  0.2390 -0.8970  0.0505
 1323TIP3   OH2 3932   6.165   5.960   3.841 -0.0690 -0.7220  0.4933
 1323TIP3    H1 3933   6.218   6.011   3.902 -0.1859  0.4919 -0.3825
 1323TIP3    H2 3934   6.224   5.941   3.769 -0.0520 -1.7813  0.7742
 1324TIP3   OH2 3935   0.045   1.024   4.872 -0.1092 -0.1131 -0.3058
 1324TIP3    H1 3936  -0.050   1.013   4.871 -0.4383  2.2062 -0.3899
 1324TIP3    H2 3937   0.062   1.077   4.950  1.0546 -0.0834 -0.5678
 1325TIP3   OH2 3938   2.928   6.459   1.386 -0.1983  0.5249  0.3211
 1325TIP3    H1 3939   2.931   6.543   1.431  1.5624 -0.1413  1.5153
 1325TIP3    H2 3940   2.943   6.394   1.454 -1.9258 -0.8444 -0.4996
 1326TIP3   OH2 3941   0.797   2.855   0.377 -0.4623 -0.2859  0.0639
 1326TIP3    H1 3942   0.777   2.798   0.302 -2.5391  0.2353  0.1420
 1326TIP3    H2 3943   0.793   2.944   0.340  0.7575 -0.1048  0.3486
 1327TIP3   OH2 3944   5.625   0.159   1.233  0.0707  0.0055 -0.0643
 1327TIP3    H1 3945   5.590   0.070   1.223  1.3239 -0.5909  0.6336
 1327TIP3    H2 3946   5.575   0.196   1.305 -1.9782  0.6978 -1.7358
 1328TIP3   OH2 3947   6.969   5.084   1.815 -0.3843  0.5512  0.4014
 1328TIP3    H1 3948   6.883   5.095   1.855 -0.0188  1.1109  1.0287
 1328TIP3    H2 3949   7.029   5.135   1.869  0.6725 -1.2643  1.0592
 1329TIP3   OH2 3950   7.088   4.620   1.757 -0.1952  0.1245  0.5683
 1329TIP3    H1 3951   7.016   4.624   1.820  0.4927 -1.2217  1.4914
 1329TIP3    H2 3952   7.147   4.554   1.793  0.8108  0.1903 -0.8941
 1330TIP3   OH2 3953   4.451   0.447   1.988 -0.2991 -0.2913  0.0557
 1330TIP3    H1 3954   4.488   0.360   2.002  0.4842  0.2349  1.5509
 1330TIP3    H2 3955   4.476   0.496   2.067 -1.1742  1.1305 -0.5151
 1331TIP3   OH2 3956   1.590   2.012   1.465  0.3013 -0.3959 -0.6620
 1331TIP3    H1 3957   1.499   2.000   1.494  0.9191 -1.7365  0.8985
 1331TIP3    H2 3958   1.632   2.059   1.537  1.1963 -1.2114 -0.6245
 1332TIP3   OH2 3959   2.491   5.025   5.295 -0.5285 -0.0993  0.1699
 1332TIP3    H1 3960   2.448   5.093   5.348 -0.2159 -1.4301  2.2408
 1332TIP3    H2 3961   2.537   5.074   5.227  1.1573  1.9779  2.6152
 1333TIP3   OH2 3962   4.001   2.474   2.600  0.2972  0.3058  0.1665
 1333TIP3    H1 3963   3.960   2.543   2.549 -0.7790 -0.0432  0.5311
 1333TIP3    H2 3964   3.991   2.501   2.691  0.0550 -0.2241  0.3019
 1334TIP3   OH2 3965   0.886   0.763   0.391  0.3754 -0.2412 -0.1055
 1334TIP3    H1 3966   0.827   0.782   0.318 -0.6657 -1.7578  0.2818
 1334TIP3    H2 3967   0.928   0.680   0.366  0.1462 -0.6796  0.9269
 1335TIP3   OH2 3968   2.129   2.951   1.267  0.1202  0.0408 -0.1817
 1335TIP3    H1 3969   2.044   2.906   1.260  0.1686 -0.0510 -0.1798
 1335TIP3    H2 3970   2.119   3.030   1.214  0.6378 -0.8754 -1.6990
 1336TIP3   OH2 3971   5.946   0.365   4.340  0.0939 -0.2360 -0.0150
 1336TIP3    H1 3972   5.918   0.383   4.429  0.0176  0.1006 -0.1068
 1336TIP3    H2 3973   5.914   0.439   4.289 -1.5996 -1.3353 -0.6672
 1337TIP3   OH2 3974   0.215   6.656   3.233 -0.5566  0.2708 -0.0898
 1337TIP3    H1 3975   0.243   6.703   3.154 -1.4624 -0.1612 -0.6741
 1337TIP3    H2 3976   0.286   6.594   3.250 -0.5614  0.0685 -0.8099
 1338TIP3   OH2 3977   5.672   1.717   5.383 -0.4148  0.3634 -0.8001
 1338TIP3    H1 3978   5.695   1.791   5.440  0.9423 -0.8926  0.3690
 1338TIP3    H2 3979   5.731   1.725   5.308 -0.3980  0.5632 -0.7666
 1339TIP3   OH2 3980   2.857   1.381   3.968 -0.2661 -0.5360 -0.0188
 1339TIP3    H1 3981   2.813   1.464   3.985  1.0566  0.1454  0.1303
 1339TIP3    H2 3982   2.785   1.320   3.948 -1.1632  1.1167 -2.3037
 1340TIP3   OH2 3983   0.955   4.699   2.702 -0.1407  0.1122 -0.3064
 1340TIP3    H1 3984   0.886   4.745   2.654  1.0691  0.1729 -2.0643
 1340TIP3    H2 3985   1.010   4.769   2.737  1.3155  0.1012 -2.4084
 1341TIP3   OH2 3986   4.026   0.340   0.815 -0.2654 -0.1278 -0.1931
 1341TIP3    H1 3987   4.076   0.380   0.744  0.7562  0.4541  0.8434
 1341TIP3    H2 3988   4.080   0.267   0.845 -0.4031  0.0164  0.4156
 1342TIP3   OH2 3989   2.391   0.860   3.499  0.3808  0.0887 -0.0940
 1342TIP3    H1 3990   2.410   0.953   3.482  0.6431  0.2714  1.0642
 1342TIP3    H2 3991   2.375   0.857   3.593  0.8724 -1.1247 -0.0359
 1343TIP3   OH2 3992   0.458   2.966   1.062  0.0283  0.1285  0.0550
 1343TIP3    H1 3993   0.544   2.931   1.036  0.1233  0.2671  0.1773
 1343TIP3    H2 3994   0.475   3.058   1.082 -0.3068  0.3640 -0.7076
 1344TIP3   OH2 3995   2.067   4.693   0.712  0.3210 -0.2143 -0.7797
 1344TIP3    H1 3996   2.061   4.599   0.700  1.2145 -0.3942  0.0840
 1344TIP3    H2 3997   1.983   4.726   0.680 -0.8832 -1.5171  0.8725
 1345TIP3   OH2 3998   4.250   3.822   3.341  0.3768  0.0417  0.2082
 1345TIP3    H1 3999   4.195   3.836   3.418 -0.9388  0.8485 -0.8109
 1345TIP3    H2 4000   4.301   3.902   3.334  0.8132 -0.2097  0.4710
 1346TIP3   OH2 4001   4.460   2.509   4.542 -0.1652  0.2593  0.2091
 1346TIP3    H1 4002   4.459   2.502   4.637 -1.5347 -1.9552  0.0946
 1346TIP3    H2 4003   4.545   2.548   4.522  0.0249  1.0491  2.3334
 1347TIP3   OH2 4004   1.032   1.944   1.747  0.0362  0.3249  0.1182
 1347TIP3    H1 4005   1.019   1.856   1.713  1.9830  0.1576 -0.2824
 1347TIP3    H2 4006   1.097   1.983   1.689  1.5812  0.8917  2.1199
 1348TIP3   OH2 4007   4.721   0.786   3.772  0.1146 -0.2449 -0.0145
 1348TIP3    H1 4008   4.791   0.852   3.775 -0.8491  0.8083  2.1409
 1348TIP3    H2 4009   4.651   0.824   3.825 -1.9122 -1.4978 -1.6522
 1349TIP3   OH2 4010   6.800   3.453   5.418  0.0928 -1.2180 -0.3250
 1349TIP3    H1 4011   6.719   3.407   5.441 -1.6383  2.0193  0.6770
 1349TIP3    H2 4012   6.802   3.451   5.323 -0.3896 -2.4829 -0.3410
 1350TIP3   OH2 4013   1.585   0.277   4.997  0.4066  0.1406 -0.1815
 1350TIP3    H1 4014   1.510   0.335   4.989  0.4906  0.1884 -0.6800
 1350TIP3    H2 4015   1.654   0.332   5.034  0.2346  0.1291  0.1590
 1351TIP3   OH2 4016   1.773   6.274   0.475  0.5579  0.1650 -0.0702
 1351TIP3    H1 4017   1.844   6.338   0.476 -0.7867  1.7140  0.3158
 1351TIP3    H2 4018   1.693   6.327   0.467 -0.7805 -1.2775  2.6387
 1352TIP3   OH2 4019   3.181   4.308   3.694  0.4839  0.2203  0.6415
 1352TIP3    H1 4020   3.152   4.221   3.723  2.2510 -0.5707  0.1523
 1352TIP3    H2 4021   3.100   4.356   3.678 -0.5341 -1.3614  0.8364
 1353TIP3   OH2 4022   7.127   0.609   5.526  0.3370  0.2152  0.4640
 1353TIP3    H1 4023   7.136   0.613   5.621  2.2815  0.5170  0.3121
 1353TIP3    H2 4024   7.035   0.626   5.510  0.3524  2.3130  2.1944
 1354TIP3   OH2 4025   4.479   4.491   3.927 -0.2163  0.3041  0.2715
 1354TIP3    H1 4026   4.552   4.552   3.939 -1.5047  2.1797 -0.9777
 1354TIP3    H2 4027   4.449   4.472   4.016  1.0637  0.3699  0.7410
 1355TIP3   OH2 4028   6.190   3.634   2.122 -0.3304  0.1841 -0.4839
 1355TIP3    H1 4029   6.265   3.593   2.079 -0.0475  1.5762 -1.3874
 1355TIP3    H2 4030   6.182   3.719   2.079  0.2526  1.9010  2.5152
 1356TIP3   OH2 4031   2.241   6.489   0.280 -0.2583  0.1012  0.4205
 1356TIP3    H1 4032   2.196   6.413   0.243  0.7866  0.8701 -2.7658
 1356TIP3    H2 4033   2.171   6.545   0.313 -1.5545  0.0491 -1.9707
 1357TIP3   OH2 4034   3.900   6.095   5.077  0.3578 -0.5717  0.3289
 1357TIP3    H1 4035   3.938   6.125   4.995 -0.2292  0.4275  0.4114
 1357TIP3    H2 4036   3.940   6.009   5.092  1.3254 -0.2653 -0.4093
 1358TIP3   OH2 4037   3.310   4.702   2.445  0.3960  0.1740 -0.3615
 1358TIP3    H1 4038   3.293   4.609   2.431 -0.1294 -0.0503  1.4809
 1358TIP3    H2 4039   3.306   4.740   2.358  1.4573 -1.6461 -1.2713
 1359TIP3   OH2 4040   1.954   1.517   0.027 -0.4841  0.4358  0.0165
 1359TIP3    H1 4041   1.930   1.456   0.097  0.8538 -0.4029 -0.1974
 1359TIP3    H2 4042   1.934   1.469  -0.054 -1.3324  1.1065 -0.1781
 1360TIP3   OH2 4043   5.277   1.095   1.244  0.3065 -0.3308 -0.3655
 1360TIP3    H1 4044   5.236   1.012   1.266 -1.3599  0.0604 -1.7943
 1360TIP3    H2 4045   5.220   1.161   1.283  1.1911  0.1965  0.0925
 1361TIP3   OH2 4046   1.149   1.187   1.290 -0.0129  0.5531 -0.3834
 1361TIP3    H1 4047   1.124   1.103   1.329 -0.5278 -1.1950 -4.0241
 1361TIP3    H2 4048   1.239   1.202   1.321 -0.5527 -0.3245  1.7985
 1362TIP3   OH2 4049   0.103   0.382   5.769  0.5264  0.3012 -0.0149
 1362TIP3    H1 4050   0.037   0.430   5.819 -1.4203  0.2106 -2.2632
 1362TIP3    H2 4051   0.185   0.427   5.787 -0.1361  0.6054  2.6888
 1363TIP3   OH2 4052   5.035   1.414   3.367  0.4794 -0.3681 -0.5569
 1363TIP3    H1 4053   5.013   1.321   3.361 -1.2003 -0.0537  0.2309
 1363TIP3    H2 4054   4.954   1.459   3.346  0.9692  0.9035  0.1690
 1364TIP3   OH2 4055   2.235   4.313   4.973 -0.0504  0.1610  0.1060
 1364TIP3    H1 4056   2.231   4.260   5.053  2.2107  1.0481  0.9090
 1364TIP3    H2 4057   2.319   4.290   4.934 -0.7592  0.3666 -1.6173
 1365TIP3   OH2 4058   4.363   2.454   1.679 -0.0408  0.3534 -0.6001
 1365TIP3    H1 4059   4.447   2.474   1.637  1.0173 -0.4431  1.0212
 1365TIP3    H2 4060   4.298   2.500   1.626  1.5727  2.3843 -0.9518
 1366TIP3   OH2 4061   6.256   2.065   5.315  0.0693  0.2417 -0.0048
 1366TIP3    H1 4062   6.297   2.128   5.256  0.8106  0.7955  1.0652
 1366TIP3    H2 4063   6.226   2.117   5.390 -1.5378 -0.3377 -0.2080
 1367TIP3   OH2 4064   4.529   5.002   0.895  0.2578  0.1293 -0.4556
 1367TIP3    H1 4065   4.536   4.920   0.845 -1.6808  0.8012 -1.9325
 1367TIP3    H2 4066   4.437   5.005   0.922  0.5308  1.3839  0.3721
 1368TIP3   OH2 4067   4.572   5.662   1.053  0.2010 -0.1849 -0.3011
 1368TIP3    H1 4068   4.588   5.736   0.993 -0.6872  1.0795  0.9558
 1368TIP3    H2 4069   4.501   5.613   1.011 -0.9215  1.1016  0.0043
 1369TIP3   OH2 4070   2.922   3.677   4.200  0.5751 -0.1398  0.0855
 1369TIP3    H1 4071   2.833   3.704   4.220  0.9991  0.9022  0.6513
 1369TIP3    H2 4072   2.949   3.735   4.129  0.5704 -0.9309 -0.5798
 1370TIP3   OH2 4073   3.911   4.423   2.945  0.2637 -0.5291 -0.1446
 1370TIP3    H1 4074   3.972   4.367   2.995 -0.2692 -0.7867  0.2230
 1370TIP3    H2 4075   3.919   4.509   2.986 -1.2156 -1.0511  1.3507
 1371TIP3   OH2 4076   3.424   3.061   0.906 -0.1137  0.6065  0.0277
 1371TIP3    H1 4077   3.357   3.107   0.957  1.0339  1.0707  1.1906
 1371TIP3    H2 4078   3.384   2.978   0.883 -2.1194  1.9868 -1.7976
 1372TIP3   OH2 4079   4.897   4.290   5.311 -0.2186 -0.4516 -0.2994
 1372TIP3    H1 4080   4.900   4.318   5.219  1.5482 -2.9976 -1.1110
 1372TIP3    H2 4081   4.821   4.232   5.316 -0.0903 -0.6169 -0.2551
 1373TIP3   OH2 4082   2.339   4.177   3.097 -0.4432  0.2300  0.6391
 1373TIP3    H1 4083   2.362   4.088   3.122 -0.7697  0.2862  1.1574
 1373TIP3    H2 4084   2.281   4.167   3.021  2.1380  0.1164 -1.4643
 1374TIP3   OH2 4085   3.499   2.349   1.885  0.1200 -0.1483 -0.1134
 1374TIP3    H1 4086   3.504   2.253   1.886  2.0162 -0.0879 -0.3276
 1374TIP3    H2 4087   3.498   2.372   1.792 -1.0490  0.0327 -0.0657
 1375TIP3   OH2 4088   6.685   5.811   1.244  0.1130  0.2169  0.3837
 1375TIP3    H1 4089   6.595   5.834   1.262 -0.1398 -0.2867 -0.1756
 1375TIP3    H2 4090   6.737   5.878   1.289 -0.4693 -0.5485  2.2932
 1376TIP3   OH2 4091   4.690   4.638   4.022 -0.7125  0.4958  0.2923
 1376TIP3    H1 4092   4.711   4.730   4.004  1.7215 -0.0016  0.3090
 1376TIP3    H2 4093   4.685   4.633   4.118  0.9208  0.3003  0.3888
 1377TIP3   OH2 4094   1.989   3.492   4.601  0.1846 -0.1763  0.0702
 1377TIP3    H1 4095   1.946   3.507   4.686  0.4149 -0.9903  0.3487
 1377TIP3    H2 4096   1.999   3.397   4.597 -0.3164 -0.1951 -1.1215
 1378TIP3   OH2 4097   5.680   5.836   5.048  0.0238  0.2311 -0.3628
 1378TIP3    H1 4098   5.735   5.901   5.092 -0.2273 -0.2928  0.7892
 1378TIP3    H2 4099   5.604   5.828   5.105 -0.6700  0.0439 -1.2981
 1379TIP3   OH2 4100   3.850   5.437   5.310  0.0974 -0.7411 -0.4926
 1379TIP3    H1 4101   3.840   5.392   5.394  1.5723 -2.4989 -1.2021
 1379TIP3    H2 4102   3.786   5.395   5.253 -0.2309 -0.2173 -0.5150
 1380TIP3   OH2 4103   6.167   2.177   2.530  0.3218  0.7267 -0.4578
 1380TIP3    H1 4104   6.110   2.162   2.606  0.4249 -1.2792 -0.7093
 1380TIP3    H2 4105   6.107   2.199   2.459 -0.1512 -0.7401 -0.5659
 1381TIP3   OH2 4106   1.822   3.030   1.438  0.3931 -0.2800  0.1328
 1381TIP3    H1 4107   1.809   3.077   1.356 -1.1283 -1.6775 -0.4978
 1381TIP3    H2 4108   1.911   2.996   1.433  0.1908 -0.6741 -1.1433
 1382TIP3   OH2 4109   6.118   6.127   3.418 -0.2324  0.0780  0.2581
 1382TIP3    H1 4110   6.070   6.062   3.470 -0.7572  1.0188  0.9790
 1382TIP3    H2 4111   6.210   6.106   3.433 -0.3936 -0.7846  0.1052
 1383TIP3   OH2 4112   1.043   5.488   5.827 -0.2978  0.3892  0.3062
 1383TIP3    H1 4113   1.057   5.438   5.747 -0.5614  0.1513  0.4063
 1383TIP3    H2 4114   1.012   5.573   5.797 -2.6390 -0.4297  0.1981
 1384TIP3   OH2 4115   6.040   2.321   0.954 -0.7352 -0.6502 -0.1880
 1384TIP3    H1 4116   6.130   2.342   0.980 -1.1267  0.0947  0.6352
 1384TIP3    H2 4117   6.044   2.309   0.859  1.1871 -5.5242  0.2169
 1385TIP3   OH2 4118   2.900   5.163   1.102  0.0167 -0.5896  0.0540
 1385TIP3    H1 4119   2.813   5.158   1.142 -0.3049  1.7976 -0.2128
 1385TIP3    H2 4120   2.958   5.119   1.164 -1.2646 -1.6357  0.5464
 1386TIP3   OH2 4121   4.679   2.912   3.610  0.2492 -0.6470 -0.1466
 1386TIP3    H1 4122   4.725   2.995   3.621  0.2456 -0.7516  0.7891
 1386TIP3    H2 4123   4.730   2.850   3.662  0.0711 -1.1613 -0.5835
 1387TIP3   OH2 4124   0.944   4.352   3.331  0.3333 -0.0940  0.2826
 1387TIP3    H1 4125   0.905   4.305   3.257  2.4639 -2.0817  0.2810
 1387TIP3    H2 4126   1.006   4.289   3.369  1.5795  1.9403  1.8502
 1388TIP3   OH2 4127   1.209   5.071   1.543  0.8336  0.3289 -0.2837
 1388TIP3    H1 4128   1.272   5.009   1.578  0.3221 -0.0630 -0.0511
 1388TIP3    H2 4129   1.187   5.128   1.617  0.5788  0.1841 -0.2466
 1389TIP3   OH2 4130   2.395   5.736   1.492 -0.0656  0.0855  0.1970
 1389TIP3    H1 4131   2.309   5.778   1.497 -0.2350 -0.2178 -0.1873
 1389TIP3    H2 4132   2.384   5.665   1.429  0.3975 -0.1218  0.3449
 1390TIP3   OH2 4133   4.824   6.616   0.477 -0.0277 -0.3573 -0.7403
 1390TIP3    H1 4134   4.902   6.609   0.423 -0.7068 -0.7575 -1.7045
 1390TIP3    H2 4135   4.779   6.694   0.444  0.9222  1.0788  1.1462
 1391TIP3   OH2 4136   0.616   4.698   1.845  0.1150 -0.2884  0.0401
 1391TIP3    H1 4137   0.529   4.657   1.846  1.0243 -2.3489 -0.1147
 1391TIP3    H2 4138   0.666   4.646   1.782  0.8996  2.1632 -1.4722
 1392TIP3   OH2 4139   0.757   0.538   1.763  0.8382  0.1263 -0.1929
 1392TIP3    H1 4140   0.835   0.482   1.765  1.6643  1.2633  0.9757
 1392TIP3    H2 4141   0.744   0.558   1.670  1.4418 -0.7488 -0.4745
 1393TIP3   OH2 4142   6.040   6.417   2.142 -0.9708  0.0030  0.0208
 1393TIP3    H1 4143   6.017   6.351   2.208  1.0538 -0.8857 -0.0897
 1393TIP3    H2 4144   6.127   6.392   2.113 -1.2944  1.1391 -2.0901
 1394TIP3   OH2 4145   0.436   1.018   1.101 -0.3058  0.5191 -0.7748
 1394TIP3    H1 4146   0.403   1.057   1.020 -0.2288 -1.6510 -1.9250
 1394TIP3    H2 4147   0.457   0.928   1.077  0.5433  0.0630  1.4731
 1395TIP3   OH2 4148   5.558   3.486   4.197  0.2720  0.6007  0.1794
 1395TIP3    H1 4149   5.465   3.463   4.202  1.2328 -4.2496  0.7673
 1395TIP3    H2 4150   5.576   3.531   4.280 -1.3547  1.0181  0.3422
 1396TIP3   OH2 4151   6.912   2.183   1.303 -0.1329  0.1690 -0.1291
 1396TIP3    H1 4152   7.003   2.203   1.281  0.4231 -0.8450  1.0946
 1396TIP3    H2 4153   6.861   2.220   1.231  1.2876  0.2266 -1.1489
 1397TIP3   OH2 4154   6.527   0.927   3.445  0.0259 -0.0903  0.4876
 1397TIP3    H1 4155   6.605   0.873   3.459 -0.6890 -1.0293  1.0071
 1397TIP3    H2 4156   6.474   0.876   3.385 -0.1518  0.5911  0.0630
 1398TIP3   OH2 4157   2.734   1.509   0.757  0.0865 -0.2936 -0.6024
 1398TIP3    H1 4158   2.827   1.483   0.755  0.1922 -0.2789  1.4266
 1398TIP3    H2 4159   2.736   1.599   0.790 -0.6241 -0.1363 -0.9896
 1399TIP3   OH2 4160   2.642   2.208   4.106  0.2318  0.6679  0.2600
 1399TIP3    H1 4161   2.692   2.282   4.141  2.0201 -0.0328 -0.7104
 1399TIP3    H2 4162   2.705   2.136   4.104 -1.3789 -0.8090  0.8505
 1400TIP3   OH2 4163   2.535   6.568   1.412  0.1805 -0.1634  0.3232
 1400TIP3    H1 4164   2.461   6.600   1.361  0.2543 -0.7816 -0.1741
 1400TIP3    H2 4165   2.567   6.645   1.459 -0.8034  0.1057  0.5822
 1401TIP3   OH2 4166   0.542   4.521   1.280 -0.4157 -0.0544 -0.0605
 1401TIP3    H1 4167   0.557   4.567   1.362  1.4521  0.5485 -0.6843
 1401TIP3    H2 4168   0.586   4.575   1.214  2.3698 -2.8832 -0.7904
 1402TIP3   OH2 4169   4.088   1.845   1.873  0.4858  0.1674  0.0904
 1402TIP3    H1 4170   4.146   1.785   1.920  0.0319 -0.0141  0.4245
 1402TIP3    H2 4171   4.096   1.818   1.781  1.5322  0.6605  0.0231
 1403TIP3   OH2 4172   5.301   3.516   2.384  0.2463  0.5641  0.0877
 1403TIP3    H1 4173   5.247   3.467   2.321  0.6368  0.5348 -0.2223
 1403TIP3    H2 4174   5.353   3.448   2.428  0.1102  0.6046  0.3128
 1404TIP3   OH2 4175   1.659   0.823   1.118  0.0645 -0.1396  0.2978
 1404TIP3    H1 4176   1.630   0.883   1.187  2.6038  1.5940 -0.0372
 1404TIP3    H2 4177   1.690   0.880   1.048  1.0120 -1.8713 -0.7545
 1405TIP3   OH2 4178   3.005   0.390   4.126  0.0014  0.1996 -1.0059
 1405TIP3    H1 4179   2.973   0.453   4.190  2.0795 -2.0292  2.6518
 1405TIP3    H2 4180   3.083   0.431   4.088  0.9954  0.1723  0.8928
 1406TIP3   OH2 4181   0.850   4.913   0.239 -0.3215  0.1165 -0.4408
 1406TIP3    H1 4182   0.845   4.855   0.163  1.5634  0.6952 -1.0532
 1406TIP3    H2 4183   0.942   4.936   0.246 -1.0134  3.4518 -0.5296
 1407TIP3   OH2 4184   4.942   5.389   5.026 -0.2805 -0.0746  0.4592
 1407TIP3    H1 4185   4.999   5.318   4.997  0.1021  0.6424 -0.6478
 1407TIP3    H2 4186   4.979   5.417   5.110  2.5849  1.9207 -1.2770
 1408TIP3   OH2 4187   6.635   5.773   4.363 -0.0438 -0.0993 -0.0947
 1408TIP3    H1 4188   6.686   5.696   4.336 -0.3930  0.1606 -1.6184
 1408TIP3    H2 4189   6.688   5.814   4.432  1.3410 -0.3801 -0.9351
 1409TIP3   OH2 4190   0.086   4.962   1.367 -0.5492 -0.0573 -0.0352
 1409TIP3    H1 4191   0.088   5.058   1.368 -0.6068 -0.0587  0.9426
 1409TIP3    H2 4192   0.041   4.938   1.448 -1.9102 -0.8911 -0.9928
 1410TIP3   OH2 4193   7.126   6.009   3.284  0.4177  0.3576 -0.0676
 1410TIP3    H1 4194   7.128   5.916   3.258  3.0631  0.6359 -1.1912
 1410TIP3    H2 4195   7.046   6.043   3.243 -0.7514 -1.4359  0.5764
 1411TIP3   OH2 4196   5.240   2.301   1.186 -0.4495 -0.4612 -0.4164
 1411TIP3    H1 4197   5.189   2.309   1.105  1.0459 -0.8071 -1.4445
 1411TIP3    H2 4198   5.273   2.211   1.185  0.6283 -0.0884 -0.0929
 1412TIP3   OH2 4199   1.862   3.120   4.234  0.1121  0.6209  0.4696
 1412TIP3    H1 4200   1.774   3.115   4.195  0.1296 -0.1297  0.5086
 1412TIP3    H2 4201   1.868   3.041   4.288  0.7366  0.7767  0.6269
 1413TIP3   OH2 4202   6.915   2.593   4.903 -0.6774  0.3529  0.5389
 1413TIP3    H1 4203   6.859   2.577   4.827 -1.6080 -3.7364  1.8155
 1413TIP3    H2 4204   6.856   2.585   4.978  1.0840 -1.7489  1.8311
 1414TIP3   OH2 4205   0.875   5.592   1.297 -0.3982  0.1140 -0.3593
 1414TIP3    H1 4206   0.858   5.506   1.258 -0.7982 -0.5551  1.1857
 1414TIP3    H2 4207   0.967   5.588   1.325 -0.2137  0.4583 -0.9012
 1415TIP3   OH2 4208   3.009   6.490   4.543 -0.1670 -0.1628  0.4334
 1415TIP3    H1 4209   2.955   6.566   4.564 -1.4978 -0.7388 -0.7134
 1415TIP3    H2 4210   3.018   6.444   4.627 -0.7314  0.4040  0.8149
 1416TIP3   OH2 4211   4.735   1.660   0.887  0.3774  0.5569 -0.4660
 1416TIP3    H1 4212   4.750   1.667   0.982  0.1425 -1.1093 -0.2888
 1416TIP3    H2 4213   4.664   1.597   0.878  1.6844 -0.8162 -1.8198
 1417TIP3   OH2 4214   1.093   1.238   2.886  0.1022 -0.2276  0.1578
 1417TIP3    H1 4215   1.110   1.331   2.902 -0.7107 -0.2872  1.5809
 1417TIP3    H2 4216   1.160   1.212   2.823 -0.3872  1.5937 -1.1796
 1418TIP3   OH2 4217   3.216   2.654   0.246  0.1525 -0.1069  0.0779
 1418TIP3    H1 4218   3.154   2.592   0.209 -0.5551  1.5088 -1.6429
 1418TIP3    H2 4219   3.162   2.728   0.274  1.1036  0.4599  0.4697
 1419TIP3   OH2 4220   0.979   1.385   3.205  0.3903  0.3456  0.0435
 1419TIP3    H1 4221   1.019   1.434   3.133 -2.0437  2.6372  0.1143
 1419TIP3    H2 4222   1.020   1.420   3.284  1.4460 -0.5876 -0.0583
 1420TIP3   OH2 4223   0.279   1.987   1.890 -0.4439 -0.4186 -0.0366
 1420TIP3    H1 4224   0.195   2.032   1.901 -2.0303 -3.3046  0.6407
 1420TIP3    H2 4225   0.277   1.953   1.801 -0.0939 -0.7144  0.0671
 1421TIP3   OH2 4226   0.951   6.567   2.045 -0.1972 -0.0779 -0.3852
 1421TIP3    H1 4227   0.991   6.635   2.099 -0.6802 -0.6868  0.7656
 1421TIP3    H2 4228   0.974   6.485   2.088  0.8756 -0.7204 -2.0823
 1422TIP3   OH2 4229   2.150   6.195   0.336 -0.0163 -0.4201  0.2811
 1422TIP3    H1 4230   2.174   6.117   0.386 -0.5222  0.1966  1.5309
 1422TIP3    H2 4231   2.116   6.256   0.402  0.6899  0.9977 -0.6139
 1423TIP3   OH2 4232   1.998   1.540   3.812  0.0492  0.2877 -0.1488
 1423TIP3    H1 4233   2.042   1.610   3.764 -0.8927  1.6147  0.8410
 1423TIP3    H2 4234   1.914   1.529   3.767 -0.3672  0.7615  0.4879
 1424TIP3   OH2 4235   0.520   0.793   2.179  0.2175  0.2585  0.1772
 1424TIP3    H1 4236   0.481   0.819   2.262 -0.5997 -0.7200  0.1123
 1424TIP3    H2 4237   0.561   0.873   2.146 -0.0491  0.8265  1.1839
 1425TIP3   OH2 4238   1.407   0.576   4.592  0.2197  0.4660  0.0298
 1425TIP3    H1 4239   1.468   0.526   4.647  1.5752  1.8208 -0.1792
 1425TIP3    H2 4240   1.363   0.635   4.653 -0.3467  0.0311  0.0566
 1426TIP3   OH2 4241   5.708   1.014   1.308 -0.6047  0.2946 -0.3695
 1426TIP3    H1 4242   5.691   1.042   1.219  0.3656  2.2772  0.0152
 1426TIP3    H2 4243   5.782   0.954   1.301 -0.0365  1.0318 -0.8530
 1427TIP3   OH2 4244   1.424   2.228   1.653 -0.0344  0.4764 -0.9131
 1427TIP3    H1 4245   1.386   2.143   1.630 -0.3673  0.1870  0.6003
 1427TIP3    H2 4246   1.514   2.208   1.679 -0.7323  0.2224  1.5213
 1428TIP3   OH2 4247   6.398   3.849   1.194  0.1699  0.7354 -0.1695
 1428TIP3    H1 4248   6.443   3.930   1.215  1.7266 -0.2760  0.5868
 1428TIP3    H2 4249   6.366   3.862   1.105  0.7206  2.0321 -0.2014
 1429TIP3   OH2 4250   2.555   4.515   2.247  0.2506 -0.2370  0.2194
 1429TIP3    H1 4251   2.596   4.536   2.331 -1.5890  1.6722  0.7234
 1429TIP3    H2 4252   2.480   4.574   2.242 -0.2756 -1.0185 -2.3296
 1430TIP3   OH2 4253   6.460   3.498   1.240 -0.3354  0.2020 -0.2991
 1430TIP3    H1 4254   6.496   3.416   1.273  1.2311  0.5588 -0.9785
 1430TIP3    H2 4255   6.524   3.565   1.268 -0.3553  0.8483 -1.7131
 1431TIP3   OH2 4256   5.182   2.668   1.289 -0.2745 -0.0757 -0.5265
 1431TIP3    H1 4257   5.232   2.749   1.279  1.1029 -0.9718 -1.2360
 1431TIP3    H2 4258   5.135   2.679   1.372  0.1933  1.2837 -0.4171
 1432TIP3   OH2 4259   4.858   0.833   2.693 -0.2445 -0.8664 -0.1833
 1432TIP3    H1 4260   4.877   0.756   2.746  0.6354 -1.7255 -1.6758
 1432TIP3    H2 4261   4.943   0.875   2.679 -0.5648 -0.2251 -0.2750
 1433TIP3   OH2 4262   3.939   4.000   5.144  0.0781  0.3289  0.8233
 1433TIP3    H1 4263   3.859   4.022   5.097  0.1561 -1.6610 -0.3472
 1433TIP3    H2 4264   3.912   3.992   5.236 -0.9873 -0.0013  0.4904
 1434TIP3   OH2 4265   3.710   5.153   3.804  0.7514  0.0044  0.3221
 1434TIP3    H1 4266   3.738   5.214   3.735  0.2233 -1.3832 -1.1580
 1434TIP3    H2 4267   3.615   5.156   3.802  0.7319 -0.2820  0.7697
 1435TIP3   OH2 4268   5.862   4.824   4.323 -0.1095  0.4565 -0.0694
 1435TIP3    H1 4269   5.847   4.817   4.229  2.6324  1.2217 -0.6603
 1435TIP3    H2 4270   5.878   4.917   4.338  0.6506  0.1860  0.9309
 1436TIP3   OH2 4271   0.204   4.692   3.696  0.3020  0.4899 -0.2389
 1436TIP3    H1 4272   0.121   4.675   3.650  0.2663  2.5532 -1.0081
 1436TIP3    H2 4273   0.272   4.666   3.633  0.2459  0.2212 -0.1897
 1437TIP3   OH2 4274   3.081   4.851   0.494  0.4427  0.2898 -0.5560
 1437TIP3    H1 4275   3.061   4.915   0.426 -0.1897 -0.5724 -1.2068
 1437TIP3    H2 4276   3.040   4.886   0.573 -3.5402 -1.1877 -1.7271
 1438TIP3   OH2 4277   0.341   5.614   3.833 -0.0708  0.1911 -0.1132
 1438TIP3    H1 4278   0.350   5.679   3.902  2.0556 -0.0777 -0.0886
 1438TIP3    H2 4279   0.246   5.610   3.817 -0.4044  1.9892  1.0848
 1439TIP3   OH2 4280   0.115  -0.013   4.061  0.3837  0.1015  0.4748
 1439TIP3    H1 4281   0.101   0.038   3.981  0.3499  0.4508  0.6989
 1439TIP3    H2 4282   0.178   0.039   4.112  2.9343 -1.6207 -0.6999
 1440TIP3   OH2 4283   2.306   2.932   1.748  1.0603  0.5236 -0.0049
 1440TIP3    H1 4284   2.246   2.873   1.793  1.9682 -0.6862 -0.3406
 1440TIP3    H2 4285   2.392   2.909   1.781  1.5853  0.6519 -1.2116
 1441TIP3   OH2 4286   5.055   3.074   2.841  0.6333 -0.1523 -0.2943
 1441TIP3    H1 4287   5.067   3.002   2.778 -0.1107 -0.3311 -0.2341
 1441TIP3    H2 4288   5.072   3.152   2.789 -0.6406 -0.2567 -0.9213
 1442TIP3   OH2 4289   6.635   5.942   5.798 -0.4553 -0.0691  0.1291
 1442TIP3    H1 4290   6.697   5.871   5.816 -2.1157 -1.8057 -0.6559
 1442TIP3    H2 4291   6.683   6.003   5.742  0.3683 -1.6471 -0.9337
 1443TIP3   OH2 4292   0.495   1.768   4.669 -0.3760  0.3044 -0.5059
 1443TIP3    H1 4293   0.498   1.741   4.760 -0.9328  1.4142 -0.1389
 1443TIP3    H2 4294   0.405   1.748   4.642 -0.1806 -0.1268 -0.8569
 1444TIP3   OH2 4295   5.499   3.756   5.229  0.2180 -1.0464  0.1914
 1444TIP3    H1 4296   5.426   3.793   5.181  0.8003  0.1474  0.1909
 1444TIP3    H2 4297   5.495   3.662   5.211 -0.4353 -0.8050 -0.9912
 1445TIP3   OH2 4298   6.682   0.864   1.130 -0.4788 -0.8351  0.2850
 1445TIP3    H1 4299   6.704   0.899   1.043 -1.4591 -0.2476  0.2615
 1445TIP3    H2 4300   6.748   0.901   1.188  0.2411 -1.3065 -0.2213
 1446TIP3   OH2 4301   6.009   6.700   5.805  0.0985 -0.0137  0.5145
 1446TIP3    H1 4302   5.993   6.717   5.712 -0.3571  0.7408  0.7235
 1446TIP3    H2 4303   5.926   6.664   5.837  0.2820 -0.3533  0.6103
 1447TIP3   OH2 4304   3.582   1.561  -0.011  0.0092 -0.2973 -0.1755
 1447TIP3    H1 4305   3.601   1.483  -0.063  1.0668  0.4306 -0.9241
 1447TIP3    H2 4306   3.587   1.531   0.080  2.2798 -0.7378 -0.3861
 1448TIP3   OH2 4307   0.454   4.408   0.016  0.0483  0.3731 -0.2667
 1448TIP3    H1 4308   0.453   4.468   0.090 -0.1256 -1.0322  0.9090
 1448TIP3    H2 4309   0.366   4.370   0.015  0.4972 -0.6852 -0.2871
 1449TIP3   OH2 4310   6.772   0.068   0.648  0.4263  0.0929 -0.1711
 1449TIP3    H1 4311   6.795   0.039   0.736  0.1670 -0.9859 -0.4321
 1449TIP3    H2 4312   6.760   0.162   0.655  2.2779  0.3123  0.5370
 1450TIP3   OH2 4313   2.092   0.265   5.178 -0.4616 -0.3890  0.0817
 1450TIP3    H1 4314   2.114   0.272   5.085 -1.1294  0.8603 -0.0068
 1450TIP3    H2 4315   2.020   0.203   5.181 -1.5923  0.8419 -0.4725
 1451TIP3   OH2 4316   4.865   3.843   5.426  0.2391  0.2707 -0.2230
 1451TIP3    H1 4317   4.846   3.775   5.491  1.1578 -1.4127 -1.5969
 1451TIP3    H2 4318   4.957   3.829   5.404  0.2952  1.6377 -0.9465
 1452TIP3   OH2 4319   1.161   3.084   5.704  0.0406 -0.2104  0.2688
 1452TIP3    H1 4320   1.139   3.161   5.652  1.2648 -0.3935 -0.5510
 1452TIP3    H2 4321   1.238   3.111   5.754 -1.6605  0.3167  2.8581
 1453TIP3   OH2 4322   5.646   2.308   4.930 -0.1745  0.5863 -0.3831
 1453TIP3    H1 4323   5.574   2.321   4.869  0.1734 -0.0466 -0.9418
 1453TIP3    H2 4324   5.675   2.218   4.914 -0.0400  0.4392  0.6765
 1454TIP3   OH2 4325   0.260   1.936   0.727 -0.5722 -0.0417 -0.0540
 1454TIP3    H1 4326   0.218   1.889   0.655  0.0808  0.1345 -0.5638
 1454TIP3    H2 4327   0.334   1.980   0.686  1.2086 -1.7857  1.0895
 1455TIP3   OH2 4328   2.030   0.349   0.436  0.4511 -0.2408  0.1229
 1455TIP3    H1 4329   2.036   0.254   0.433  0.5474 -0.3051  1.5639
 1455TIP3    H2 4330   1.942   0.369   0.403  0.2076 -0.8715  0.3771
 1456TIP3   OH2 4331   4.642   3.963   1.496  0.2682 -0.2681 -0.1360
 1456TIP3    H1 4332   4.594   3.976   1.414 -0.1881  0.7147  0.2644
 1456TIP3    H2 4333   4.670   3.872   1.494 -0.1649 -0.3882 -1.1589
 1457TIP3   OH2 4334   3.776   1.059   0.855  0.2172 -0.5260  0.0445
 1457TIP3    H1 4335   3.738   1.039   0.940 -0.5937 -0.9459 -0.3960
 1457TIP3    H2 4336   3.761   0.980   0.803 -0.9798  0.3559 -1.0306
 1458TIP3   OH2 4337   1.288   3.842   2.801  0.3473  0.6985  0.5259
 1458TIP3    H1 4338   1.345   3.768   2.779  2.7255  1.7380  2.6231
 1458TIP3    H2 4339   1.349   3.915   2.818 -1.8551  2.9995 -0.8302
 1459TIP3   OH2 4340   6.775   1.521   2.031  0.1595  0.0615 -0.3564
 1459TIP3    H1 4341   6.802   1.472   2.110 -1.1352 -2.1069 -1.1483
 1459TIP3    H2 4342   6.685   1.548   2.050 -0.2887 -0.7811 -1.1610
 1460TIP3   OH2 4343   1.685   2.473   0.779  0.1365 -0.1045 -0.4225
 1460TIP3    H1 4344   1.654   2.434   0.861  0.2979 -1.1138 -0.8253
 1460TIP3    H2 4345   1.780   2.475   0.788  0.1176  0.3916 -0.3229
 1461TIP3   OH2 4346   3.647   5.515   3.848 -0.1060  0.2903  0.1273
 1461TIP3    H1 4347   3.696   5.484   3.924  1.1467  0.0870 -0.7357
 1461TIP3    H2 4348   3.714   5.550   3.789 -0.9732 -0.2155 -1.1915
 1462TIP3   OH2 4349   2.406   1.990   0.231 -0.1468 -0.1504  0.1129
 1462TIP3    H1 4350   2.423   1.971   0.324  3.5651 -0.4145 -0.4612
 1462TIP3    H2 4351   2.440   2.078   0.219 -0.3783 -0.2146 -1.0713
 1463TIP3   OH2 4352   0.285   1.021   2.329  0.0321 -0.3377  0.1432
 1463TIP3    H1 4353   0.364   0.988   2.371 -0.1219  1.2216  1.7976
 1463TIP3    H2 4354   0.227   1.043   2.402 -1.4593 -0.3141 -1.0001
 1464TIP3   OH2 4355   5.296   1.200   4.494 -0.1851 -0.2637 -0.7436
 1464TIP3    H1 4356   5.326   1.117   4.457  1.2266 -0.4017  0.5775
 1464TIP3    H2 4357   5.302   1.262   4.421 -0.4952 -1.1468 -1.5384
 1465TIP3   OH2 4358   2.762   4.638   0.265  0.0014 -0.1157  0.2034
 1465TIP3    H1 4359   2.750   4.596   0.350 -0.7418  1.3790  0.8824
 1465TIP3    H2 4360   2.816   4.577   0.215 -0.6088 -1.6101  1.2962
 1466TIP3   OH2 4361   2.197   4.204   0.361  0.2576  0.3180  0.0161
 1466TIP3    H1 4362   2.181   4.178   0.270 -3.1097  1.2935  0.1959
 1466TIP3    H2 4363   2.168   4.129   0.413 -0.2367  0.6989  0.3029
 1467TIP3   OH2 4364   7.062   3.829   5.636 -0.3877  0.8224 -0.0683
 1467TIP3    H1 4365   7.040   3.912   5.679 -0.8735 -0.2097  1.8008
 1467TIP3    H2 4366   6.987   3.809   5.581 -1.3372  0.5314  1.2684
 1468TIP3   OH2 4367   2.679   4.978   2.424 -0.2049  0.4050 -0.1497
 1468TIP3    H1 4368   2.719   5.064   2.438 -1.7360  0.9145  1.3829
 1468TIP3    H2 4369   2.742   4.917   2.461 -0.1584  1.0869  0.9624
 1469TIP3   OH2 4370   4.711   2.873   2.699 -0.1970 -0.1148 -0.0871
 1469TIP3    H1 4371   4.731   2.938   2.767 -1.5614 -0.0151  0.2499
 1469TIP3    H2 4372   4.641   2.819   2.737 -1.0948  0.0352 -1.4467
 1470TIP3   OH2 4373   6.132   1.047   1.525  0.1877  0.3093  0.5254
 1470TIP3    H1 4374   6.195   1.069   1.594 -0.6475 -0.1658  1.4661
 1470TIP3    H2 4375   6.166   1.091   1.447 -0.3118  3.2147  1.8211
 1471TIP3   OH2 4376   1.723   2.742   5.878  0.6790  0.1774  0.1013
 1471TIP3    H1 4377   1.708   2.671   5.816  2.6340 -0.2390  0.0394
 1471TIP3    H2 4378   1.747   2.817   5.823  0.7146  0.2861  0.2640
 1472TIP3   OH2 4379   4.762   6.411   1.572  0.4982  0.9484  0.0320
 1472TIP3    H1 4380   4.810   6.382   1.649  1.2446  0.1549 -0.7061
 1472TIP3    H2 4381   4.759   6.334   1.515 -1.9235  0.8651  0.1618
 1473TIP3   OH2 4382   5.713   0.736   3.641  0.0801 -0.3401 -0.4869
 1473TIP3    H1 4383   5.664   0.727   3.559 -0.8618 -1.2315  0.1437
 1473TIP3    H2 4384   5.647   0.763   3.705  0.3609 -1.6654  0.4099
 1474TIP3   OH2 4385   1.432   1.065   1.879 -0.4873  0.4965  0.1661
 1474TIP3    H1 4386   1.424   1.159   1.862  0.1721  0.3429 -1.1491
 1474TIP3    H2 4387   1.503   1.037   1.822  0.2969 -0.5529  1.6228
 1475TIP3   OH2 4388   2.043   5.440   2.434 -0.3201 -0.5926 -0.4631
 1475TIP3    H1 4389   2.094   5.372   2.389 -1.0821 -1.2127 -0.4133
 1475TIP3    H2 4390   1.959   5.399   2.451 -0.8311  0.4055 -0.5121
 1476TIP3   OH2 4391   5.399   2.349   3.732 -0.5300 -0.2920  0.3177
 1476TIP3    H1 4392   5.463   2.416   3.708 -0.7956 -0.1062  0.1144
 1476TIP3    H2 4393   5.383   2.302   3.650 -1.9352  0.7658 -0.0556
 1477TIP3   OH2 4394   3.207   5.879   5.047  0.0560 -0.1304  0.1285
 1477TIP3    H1 4395   3.242   5.844   5.129 -0.8622 -0.4297  0.4080
 1477TIP3    H2 4396   3.120   5.910   5.070 -0.2009 -0.1932 -0.7298
 1478TIP3   OH2 4397   4.089   1.003   1.130 -0.2468  0.8618  0.2146
 1478TIP3    H1 4398   4.016   0.942   1.145  0.0258  0.7309  1.0794
 1478TIP3    H2 4399   4.108   0.995   1.036 -0.0231 -0.6179  0.3565
 1479TIP3   OH2 4400   5.009   0.937   0.458  0.5051 -0.4499 -0.4416
 1479TIP3    H1 4401   4.964   0.896   0.384  0.6389 -1.2521 -0.0948
 1479TIP3    H2 4402   4.940   0.962   0.518  0.4951 -1.9738  0.2395
 1480TIP3   OH2 4403   3.022   5.921   5.866 -0.2390 -0.8616 -0.1356
 1480TIP3    H1 4404   2.929   5.908   5.882  0.0573 -2.0890  0.7529
 1480TIP3    H2 4405   3.029   5.933   5.772 -1.2070 -1.5698 -0.3104
 1481TIP3   OH2 4406   6.092   3.953   2.324 -0.2634  0.2972  0.3220
 1481TIP3    H1 4407   6.032   3.915   2.261 -0.3161 -1.6068  1.4386
 1481TIP3    H2 4408   6.040   3.961   2.404  1.0177 -1.8968  1.4694
 1482TIP3   OH2 4409   2.327   0.882   3.779  0.3304  0.3632  0.1610
 1482TIP3    H1 4410   2.269   0.823   3.827  1.3997 -0.9054 -0.0388
 1482TIP3    H2 4411   2.415   0.848   3.796  0.7921  0.1391 -2.2720
 1483TIP3   OH2 4412   7.127   6.431   4.570  0.2529  0.4046 -0.6625
 1483TIP3    H1 4413   7.144   6.337   4.571 -0.7528  0.1988 -1.5017
 1483TIP3    H2 4414   7.052   6.442   4.628 -0.5854  0.4671 -1.7243
 1484TIP3   OH2 4415   1.483   1.580   0.241  0.7725  0.0573  0.3640
 1484TIP3    H1 4416   1.459   1.493   0.208  0.2876 -0.1079  1.1139
 1484TIP3    H2 4417   1.507   1.565   0.332 -2.1466  1.0811  1.4253
 1485TIP3   OH2 4418   4.403   4.297   0.751  0.0098 -0.2607  0.2953
 1485TIP3    H1 4419   4.412   4.326   0.660 -0.1552 -2.7851 -0.5875
 1485TIP3    H2 4420   4.381   4.377   0.799  2.5336  1.6198 -1.4398
 1486TIP3   OH2 4421   7.188   4.151   4.946  0.0050  0.1761 -0.2764
 1486TIP3    H1 4422   7.112   4.102   4.979  0.6510  0.5328  1.9072
 1486TIP3    H2 4423   7.160   4.242   4.947  0.7749  0.4410  1.6855
 1487TIP3   OH2 4424   2.957   3.146   4.910 -0.5022  0.4275 -0.8131
 1487TIP3    H1 4425   2.873   3.179   4.879  0.0194  1.9987 -0.6210
 1487TIP3    H2 4426   3.022   3.208   4.875  0.4576 -0.0567  0.0598
 1488TIP3   OH2 4427   0.807   4.128   5.251 -0.3447 -0.9468 -0.0687
 1488TIP3    H1 4428   0.813   4.169   5.337  2.0278  1.7054 -1.3398
 1488TIP3    H2 4429   0.748   4.184   5.201  0.9044 -0.4877 -1.0858
 1489TIP3   OH2 4430   1.914   3.730   5.761  0.0855 -0.1890 -0.2547
 1489TIP3    H1 4431   1.922   3.754   5.853  1.0778  0.2183 -0.4343
 1489TIP3    H2 4432   1.819   3.722   5.746 -0.1395  0.7630  0.5404
 1490TIP3   OH2 4433   1.065   5.296   5.055  0.0582 -0.0781  0.3038
 1490TIP3    H1 4434   0.995   5.254   5.005 -1.8260  0.4845  2.3471
 1490TIP3    H2 4435   1.127   5.225   5.073  0.5811 -0.3893 -2.3389
 1491TIP3   OH2 4436   4.961   5.595   1.687 -0.5647  0.5202 -0.1518
 1491TIP3    H1 4437   4.967   5.652   1.763 -0.9964  0.3945 -0.0232
 1491TIP3    H2 4438   5.040   5.614   1.637 -0.3027  0.6361  0.3019
 1492TIP3   OH2 4439   2.603   5.485   5.446 -0.4995  0.3427 -0.5481
 1492TIP3    H1 4440   2.698   5.477   5.457 -0.4941  1.0158 -0.0570
 1492TIP3    H2 4441   2.573   5.533   5.523 -0.9884  1.7238 -1.5558
 1493TIP3   OH2 4442   7.113   2.679   4.696  0.3070 -0.3330 -0.1527
 1493TIP3    H1 4443   7.184   2.677   4.760  1.2066  1.5182 -1.0276
 1493TIP3    H2 4444   7.033   2.684   4.749  0.9777  0.1375  0.8395
 1494TIP3   OH2 4445  -0.003   3.387   1.804  0.4510 -0.3085 -0.6436
 1494TIP3    H1 4446  -0.018   3.443   1.880 -1.8120 -1.2566 -0.3146
 1494TIP3    H2 4447   0.082   3.346   1.822  0.2298 -0.0912  1.1411
 1495TIP3   OH2 4448   1.174   5.046   5.078 -0.3522 -0.7945 -0.1130
 1495TIP3    H1 4449   1.230   4.983   5.124 -0.3356 -0.8887 -0.2603
 1495TIP3    H2 4450   1.161   5.007   4.992 -0.0814 -0.4425 -0.3153
 1496TIP3   OH2 4451   4.300   6.441   3.431 -0.2466  0.3428  0.0225
 1496TIP3    H1 4452   4.395   6.442   3.434 -0.2363 -1.0014  0.5868
 1496TIP3    H2 4453   4.273   6.506   3.496  0.2650  1.5093 -0.8920
 1497TIP3   OH2 4454   5.508   3.408   1.863 -0.3193  0.0914  0.5247
 1497TIP3    H1 4455   5.548   3.429   1.779 -2.1777 -3.4627 -1.5156
 1497TIP3    H2 4456   5.566   3.342   1.902 -1.5792 -1.5373 -0.1979
 1498TIP3   OH2 4457   1.290   2.732   4.935  0.5471 -0.0691 -0.2982
 1498TIP3    H1 4458   1.316   2.807   4.881  1.2424 -1.4060 -1.9325
 1498TIP3    H2 4459   1.202   2.753   4.965  0.1263  0.7692 -1.9916
 1499TIP3   OH2 4460   1.629   2.863   2.601 -0.0426  0.3661  0.1121
 1499TIP3    H1 4461   1.626   2.804   2.676 -0.9253 -0.1546 -0.3175
 1499TIP3    H2 4462   1.720   2.892   2.597 -0.4736  2.5603  3.0113
 1500TIP3   OH2 4463   5.153   6.005   1.950  0.0111  0.3479 -0.4493
 1500TIP3    H1 4464   5.213   6.079   1.943 -1.6985  1.7732 -1.0049
 1500TIP3    H2 4465   5.067   6.046   1.960 -0.7998 -1.5979  1.1661
 1501TIP3   OH2 4466   0.885   0.501   5.393  0.3278 -0.6539 -0.5659
 1501TIP3    H1 4467   0.902   0.579   5.340 -0.7772 -0.7599 -1.0877
 1501TIP3    H2 4468   0.920   0.428   5.341 -0.1987 -0.6904 -0.8719
 1502TIP3   OH2 4469   1.931   1.420   5.155 -0.4007  0.1289 -0.3892
 1502TIP3    H1 4470   1.922   1.353   5.088 -0.1011  0.5885 -0.9008
 1502TIP3    H2 4471   1.905   1.377   5.236  3.0144 -1.6568 -0.0720
 1503TIP3   OH2 4472   3.427   5.737   0.122 -0.0992  0.3484  0.1735
 1503TIP3    H1 4473   3.380   5.803   0.071  1.7316  1.0456 -0.7059
 1503TIP3    H2 4474   3.408   5.654   0.077  0.0104  0.7010 -0.5333
 1504TIP3   OH2 4475   1.485   3.641   0.008 -0.2739 -0.1379 -0.3319
 1504TIP3    H1 4476   1.464   3.733  -0.009 -0.2842 -0.4294 -2.0849
 1504TIP3    H2 4477   1.453   3.625   0.097 -1.2468  1.2581 -0.3982
 1505TIP3   OH2 4478   1.292   4.382   3.196 -0.0694  0.1807 -1.1318
 1505TIP3    H1 4479   1.240   4.313   3.155  1.4336 -1.4743 -0.3857
 1505TIP3    H2 4480   1.264   4.384   3.287  2.1720 -1.8905 -0.2918
 1506TIP3   OH2 4481   6.719   1.340   5.263  0.2574 -0.3607 -0.0642
 1506TIP3    H1 4482   6.659   1.285   5.314  0.8514 -0.9548  0.0036
 1506TIP3    H2 4483   6.682   1.428   5.270 -1.1362 -0.8673 -0.8193
 1507TIP3   OH2 4484   5.214   2.239   5.505  0.0269  0.2076 -0.3591
 1507TIP3    H1 4485   5.306   2.236   5.479  0.2162 -0.3408  0.3525
 1507TIP3    H2 4486   5.185   2.326   5.478  1.2168  1.0554  0.9199
 1508TIP3   OH2 4487   6.737   4.363   2.824  0.3754  0.1545 -0.1850
 1508TIP3    H1 4488   6.689   4.287   2.790  1.0463  0.1333 -1.1157
 1508TIP3    H2 4489   6.719   4.362   2.918  1.4539 -1.9544  0.0540
 1509TIP3   OH2 4490   2.192   4.239   0.913 -0.9605 -0.1949 -0.2356
 1509TIP3    H1 4491   2.274   4.207   0.950 -2.6479 -2.8842  1.6363
 1509TIP3    H2 4492   2.185   4.196   0.828 -0.9346 -0.9155  0.1183
 1510TIP3   OH2 4493   2.029   0.596   0.560 -0.6255  0.4605  0.8004
 1510TIP3    H1 4494   2.012   0.516   0.509  1.1957  0.9079 -0.6072
 1510TIP3    H2 4495   2.036   0.665   0.494 -1.9660  1.7965  1.9824
 1511TIP3   OH2 4496   0.317   5.845   3.108 -0.4835 -0.2076 -0.0772
 1511TIP3    H1 4497   0.283   5.876   3.193 -2.0638  0.4541 -0.9015
 1511TIP3    H2 4498   0.348   5.756   3.125 -1.4326 -0.3473  1.0440
 1512TIP3   OH2 4499   6.228   4.752   1.352  0.1834  0.1717 -0.5379
 1512TIP3    H1 4500   6.168   4.678   1.350  1.8148 -1.2271 -1.5817
 1512TIP3    H2 4501   6.307   4.718   1.394  0.2840  1.9523  0.8317
 1513TIP3   OH2 4502   6.229   5.235   1.409  0.4139 -0.4382 -0.7777
 1513TIP3    H1 4503   6.207   5.167   1.472  0.0672 -0.4665 -0.9249
 1513TIP3    H2 4504   6.316   5.212   1.376  0.9482  0.0138  0.2785
 1514TIP3   OH2 4505   2.875   6.490   2.023  0.0739  0.4688  0.3112
 1514TIP3    H1 4506   2.940   6.547   2.066  0.7128 -0.3752  0.4839
 1514TIP3    H2 4507   2.830   6.446   2.095  1.3037 -1.1220  0.1632
 1515TIP3   OH2 4508   3.358   2.313   4.291 -0.3567  0.1096 -0.3320
 1515TIP3    H1 4509   3.439   2.264   4.278 -0.7394 -0.5722 -0.2124
 1515TIP3    H2 4510   3.324   2.327   4.202  0.7582  1.9477 -0.5291
 1516TIP3   OH2 4511   2.339   2.583   2.289  0.6158 -0.0321 -0.4339
 1516TIP3    H1 4512   2.329   2.664   2.239  1.6548 -0.8964 -2.1338
 1516TIP3    H2 4513   2.298   2.516   2.234 -0.4511 -0.6420  1.0629
 1517TIP3   OH2 4514   2.534   3.063   2.669 -0.2820  0.8263 -0.8664
 1517TIP3    H1 4515   2.509   3.082   2.759 -2.2953 -0.3421 -1.1200
 1517TIP3    H2 4516   2.596   2.991   2.676 -0.3629  0.7998 -0.4202
 1518TIP3   OH2 4517   0.887   0.152   5.045 -0.3671 -0.1209 -0.5153
 1518TIP3    H1 4518   0.866   0.089   4.976 -0.7475  0.5459 -1.0127
 1518TIP3    H2 4519   0.936   0.100   5.110 -2.4820 -1.4518  0.1211
 1519TIP3   OH2 4520   1.988   3.408   3.638  0.0628 -0.3074  0.1941
 1519TIP3    H1 4521   1.997   3.500   3.615 -1.5558 -0.7457 -2.6576
 1519TIP3    H2 4522   1.953   3.409   3.727  0.6476  1.8029  0.4448
 1520TIP3   OH2 4523   6.238   0.762   1.881 -0.2507 -0.0289 -0.0684
 1520TIP3    H1 4524   6.317   0.740   1.930  0.7195 -2.0260 -2.3250
 1520TIP3    H2 4525   6.264   0.756   1.789 -1.9720  3.5099 -0.9671
 1521TIP3   OH2 4526   2.875   2.396   2.321  0.1920  0.4638 -0.3792
 1521TIP3    H1 4527   2.821   2.328   2.362 -0.4898 -0.4959 -2.6741
 1521TIP3    H2 4528   2.962   2.382   2.357 -0.4426  0.0141  1.0744
 1522TIP3   OH2 4529   6.489   4.891   0.043 -0.0183  0.0931 -0.1678
 1522TIP3    H1 4530   6.572   4.923   0.007 -0.7537  0.2771 -1.7860
 1522TIP3    H2 4531   6.458   4.828  -0.022 -1.6733  0.8381 -0.1447
 1523TIP3   OH2 4532   1.781   5.819   5.108  0.8780  0.2892 -0.1461
 1523TIP3    H1 4533   1.715   5.862   5.162  1.8985  0.8071  0.7210
 1523TIP3    H2 4534   1.832   5.766   5.169  2.5063  1.4470 -0.4260
 1524TIP3   OH2 4535   3.211   2.056   4.679 -0.1858 -0.5818 -0.2655
 1524TIP3    H1 4536   3.187   2.127   4.620  0.3845 -0.0524  0.1315
 1524TIP3    H2 4537   3.304   2.070   4.697 -0.5381 -0.2582  1.4058
 1525TIP3   OH2 4538   6.659   3.497   4.673  0.0422 -0.6977 -0.3777
 1525TIP3    H1 4539   6.601   3.553   4.622  1.0760  0.5607 -0.2122
 1525TIP3    H2 4540   6.717   3.457   4.608  0.5095 -0.1161 -0.3228
 1526TIP3   OH2 4541   0.602   2.603   4.974 -0.2603  0.1265  0.0414
 1526TIP3    H1 4542   0.612   2.604   4.879  1.5045 -1.5787  0.1520
 1526TIP3    H2 4543   0.625   2.691   5.002 -0.2842  0.4968 -1.0483
 1527TIP3   OH2 4544   4.431   1.235   3.919 -0.0823 -0.0388 -0.3850
 1527TIP3    H1 4545   4.525   1.248   3.923  0.1667 -0.9814 -2.1615
 1527TIP3    H2 4546   4.398   1.309   3.868 -0.2132 -0.0799 -0.3629
 1528TIP3   OH2 4547   7.180   0.269   3.067  0.1161  0.4588  0.0506
 1528TIP3    H1 4548   7.263   0.302   3.035  1.6440 -1.3439  1.8937
 1528TIP3    H2 4549   7.158   0.327   3.141  0.7855 -0.2183  0.8021
 1529TIP3   OH2 4550   5.663   3.149   3.206  0.2289  0.2846 -0.0620
 1529TIP3    H1 4551   5.605   3.202   3.261 -0.4612 -0.5691  0.0581
 1529TIP3    H2 4552   5.646   3.178   3.117  0.3771  0.7550  0.0623
 1530TIP3   OH2 4553   1.563   4.335   1.884  0.1592 -0.0209 -0.0162
 1530TIP3    H1 4554   1.551   4.343   1.979  1.8623 -1.5766  0.4097
 1530TIP3    H2 4555   1.566   4.425   1.852 -2.0034  0.5312  1.1308
 1531TIP3   OH2 4556   2.093   5.714   3.726  0.1077  0.2211  0.0204
 1531TIP3    H1 4557   2.084   5.634   3.675  2.4924  0.0989 -0.3184
 1531TIP3    H2 4558   2.107   5.685   3.816 -1.2027  0.3615  0.2944
 1532TIP3   OH2 4559   3.166   4.134   1.112 -0.4331 -0.2716 -0.3537
 1532TIP3    H1 4560   3.203   4.084   1.039 -1.6690 -0.5999 -0.7775
 1532TIP3    H2 4561   3.143   4.218   1.074 -1.2710 -0.5165 -0.3999
 1533TIP3   OH2 4562   5.042   3.850   3.430  0.1475 -0.1254 -0.1791
 1533TIP3    H1 4563   5.061   3.943   3.426 -0.9111  0.1032 -0.2751
 1533TIP3    H2 4564   4.959   3.845   3.478 -0.2859 -0.9429 -0.9824
 1534TIP3   OH2 4565   4.645   4.212   5.249  0.4632  0.5669  0.1091
 1534TIP3    H1 4566   4.583   4.199   5.177 -2.0460  0.1318  2.1995
 1534TIP3    H2 4567   4.641   4.306   5.267  0.9253  0.6422 -0.1849
 1535TIP3   OH2 4568   2.867   3.936   5.232 -0.0929 -0.3046 -0.2945
 1535TIP3    H1 4569   2.893   3.875   5.301 -0.4937 -0.8172 -0.5993
 1535TIP3    H2 4570   2.950   3.973   5.201  0.0227  1.2496  1.6367
 1536TIP3   OH2 4571   3.259   4.314   4.335 -0.5155 -0.6179 -0.2178
 1536TIP3    H1 4572   3.345   4.326   4.294  0.2973 -0.5041  1.4667
 1536TIP3    H2 4573   3.216   4.400   4.325 -0.4409 -0.6665 -1.0300
 1537TIP3   OH2 4574   1.184   6.648   5.269  0.2442 -0.6306 -0.7203
 1537TIP3    H1 4575   1.144   6.647   5.356 -2.3926 -0.8366 -1.8531
 1537TIP3    H2 4576   1.171   6.738   5.238  3.1528  0.1131 -0.1573
 1538TIP3   OH2 4577   2.664   5.594   1.982 -0.6988  0.6431 -0.3599
 1538TIP3    H1 4578   2.625   5.644   2.054  0.8764  2.1507 -0.4816
 1538TIP3    H2 4579   2.642   5.645   1.903 -0.3397  0.3285 -0.6668
 1539TIP3   OH2 4580   5.639   3.196   5.765  0.8136 -0.2890  0.4841
 1539TIP3    H1 4581   5.556   3.196   5.716  1.1452 -0.7238 -0.0903
 1539TIP3    H2 4582   5.703   3.161   5.703  1.6163  0.9132  0.6214
 1540TIP3   OH2 4583   2.668   1.382   0.353  0.0252 -0.6236  0.0697
 1540TIP3    H1 4584   2.611   1.429   0.413 -0.0360  0.0902 -0.5364
 1540TIP3    H2 4585   2.633   1.293   0.350 -0.3177 -0.5062  0.6334
 1541TIP3   OH2 4586   4.011   0.785   2.519 -0.3375 -0.1054 -0.3495
 1541TIP3    H1 4587   3.927   0.751   2.551 -0.1651  1.2041  1.6085
 1541TIP3    H2 4588   4.064   0.797   2.597  0.5927  1.9964 -1.2322
 1542TIP3   OH2 4589   6.658   5.612   5.210 -0.3631  0.2087 -0.1521
 1542TIP3    H1 4590   6.731   5.553   5.228 -0.8669 -0.1030  0.9834
 1542TIP3    H2 4591   6.618   5.628   5.296 -1.4808  0.5664 -0.7108
 1543TIP3   OH2 4592   3.118   6.628   3.676  0.1727 -0.1430  0.5760
 1543TIP3    H1 4593   3.041   6.646   3.622  0.8635  0.1045 -0.3407
 1543TIP3    H2 4594   3.187   6.681   3.637  0.6675  0.0995  1.7615
 1544TIP3   OH2 4595   2.195   4.194   5.205 -0.1034 -0.7725  0.2658
 1544TIP3    H1 4596   2.270   4.215   5.260 -0.3827  0.3348  0.2442
 1544TIP3    H2 4597   2.163   4.111   5.239  0.7889 -0.9771  0.6318
 1545TIP3   OH2 4598   2.049   5.312   0.464  0.2550  0.3276 -0.2294
 1545TIP3    H1 4599   2.034   5.403   0.439 -0.0111  0.2123 -0.4964
 1545TIP3    H2 4600   1.995   5.261   0.403  0.6408 -0.0224 -0.2816
 1546TIP3   OH2 4601   4.298   3.341   2.581 -0.0584  0.5055 -0.1433
 1546TIP3    H1 4602   4.222   3.398   2.569  0.0363  0.8650  0.8816
 1546TIP3    H2 4603   4.331   3.364   2.668  0.8542 -0.0854 -0.3298
 1547TIP3   OH2 4604   6.951   1.628   0.494  0.0079  0.3014  0.2628
 1547TIP3    H1 4605   6.931   1.542   0.459  1.5577  0.3356 -0.8101
 1547TIP3    H2 4606   6.917   1.689   0.428  0.5695  0.4408  0.0951
 1548TIP3   OH2 4607   1.989   5.387   4.967 -0.3087  0.9417  0.3130
 1548TIP3    H1 4608   1.982   5.292   4.979 -2.2648  0.9631 -0.2059
 1548TIP3    H2 4609   2.039   5.417   5.043 -0.2599 -0.4299  0.8581
 1549TIP3   OH2 4610   2.534   6.452   5.084 -1.3509  0.3282  0.1059
 1549TIP3    H1 4611   2.623   6.460   5.048 -1.0681 -0.5754  0.5934
 1549TIP3    H2 4612   2.509   6.361   5.067 -2.4932  0.7569 -0.6997
 1550TIP3   OH2 4613   2.840   6.023   0.168  0.6369 -0.2204 -0.3801
 1550TIP3    H1 4614   2.808   6.094   0.112 -0.5057 -1.5303 -1.4759
 1550TIP3    H2 4615   2.802   5.944   0.129  0.2884 -1.2557  1.9420
 1551TIP3   OH2 4616   4.779   0.038   0.128  0.3744 -0.0987 -0.2231
 1551TIP3    H1 4617   4.778   0.071   0.039  2.8108 -1.6294 -0.9069
 1551TIP3    H2 4618   4.791  -0.056   0.119 -1.4607 -0.6044  1.7263
 1552TIP3   OH2 4619   6.235   2.720   2.854 -0.6871  0.1087  0.0727
 1552TIP3    H1 4620   6.271   2.777   2.786  1.6367  1.3519  2.1841
 1552TIP3    H2 4621   6.306   2.659   2.875  0.0421  1.9112  3.6008
 1553TIP3   OH2 4622   2.135   4.990   4.136 -0.0293  0.0825 -0.5651
 1553TIP3    H1 4623   2.117   4.943   4.217 -0.3947  1.0356 -0.0728
 1553TIP3    H2 4624   2.219   4.956   4.106  0.0993 -0.2876  0.2071
 1554TIP3   OH2 4625   0.135   4.119   3.173 -0.4516  0.0963 -0.1967
 1554TIP3    H1 4626   0.142   4.074   3.257 -1.6830 -1.2390 -0.7580
 1554TIP3    H2 4627   0.204   4.081   3.119 -2.3099 -2.2678 -1.1032
 1555TIP3   OH2 4628   6.043   3.023   0.504 -0.1059  0.5306 -0.2804
 1555TIP3    H1 4629   5.954   3.046   0.478 -0.0248  1.5780  0.3070
 1555TIP3    H2 4630   6.072   2.961   0.437 -1.7477 -0.9284  0.2653
 1556TIP3   OH2 4631   5.363   6.639   0.167 -0.4166 -0.1071 -0.1477
 1556TIP3    H1 4632   5.328   6.703   0.105 -1.4280 -1.0950 -0.6256
 1556TIP3    H2 4633   5.444   6.679   0.199  0.2221  0.3579 -2.2329
 1557TIP3   OH2 4634   1.813   2.585   1.419  0.1300 -0.3283 -0.1181
 1557TIP3    H1 4635   1.851   2.526   1.483  2.1984 -0.8744 -1.7485
 1557TIP3    H2 4636   1.838   2.548   1.334  0.3113  2.1113 -1.2099
 1558TIP3   OH2 4637   3.973   4.611   1.850 -0.2166  0.3914  0.3198
 1558TIP3    H1 4638   4.044   4.553   1.822 -0.1506 -0.4410  2.0465
 1558TIP3    H2 4639   3.896   4.554   1.854 -0.5936  0.8811  0.1607
 1559TIP3   OH2 4640   1.513   3.146   4.137  0.1695 -0.0694  0.8603
 1559TIP3    H1 4641   1.582   3.201   4.102 -2.1665  1.2841 -2.0603
 1559TIP3    H2 4642   1.541   3.057   4.115  0.4643  0.5249 -1.5489
 1560TIP3   OH2 4643   4.247   3.818   1.430 -0.2662 -0.0087  0.0214
 1560TIP3    H1 4644   4.283   3.879   1.495  0.4793 -0.5582  0.1352
 1560TIP3    H2 4645   4.241   3.870   1.349 -0.1335  0.3647  0.2486
 1561TIP3   OH2 4646   5.322   5.116   5.716  0.1546 -0.0160 -0.5549
 1561TIP3    H1 4647   5.233   5.097   5.746 -0.1037 -1.7497 -2.1700
 1561TIP3    H2 4648   5.373   5.124   5.796 -1.6436  2.4460  0.4835
 1562TIP3   OH2 4649   5.884   5.755   3.041 -0.3421  0.2599  0.4315
 1562TIP3    H1 4650   5.809   5.737   3.098 -2.8171  0.4007 -2.4831
 1562TIP3    H2 4651   5.877   5.848   3.021 -0.7546 -0.1511 -1.5406
 1563TIP3   OH2 4652   5.642   5.974   4.313  0.1452 -0.2549 -0.1944
 1563TIP3    H1 4653   5.607   5.985   4.225  0.8975  0.4163 -0.4267
 1563TIP3    H2 4654   5.572   5.930   4.361 -0.7742  0.5158 -0.7830
 1564TIP3   OH2 4655   4.783   4.902   2.719 -0.4464 -0.3200 -0.6254
 1564TIP3    H1 4656   4.815   4.889   2.630  1.8804 -0.5741  0.1610
 1564TIP3    H2 4657   4.709   4.961   2.710  0.2464  0.3208 -2.6473
 1565TIP3   OH2 4658   0.399   6.601   4.486  0.6092  0.1841 -0.0829
 1565TIP3    H1 4659   0.307   6.575   4.481  0.2650  1.4087 -0.6667
 1565TIP3    H2 4660   0.398   6.695   4.465  1.8038  0.5912  1.4521
 1566TIP3   OH2 4661   5.295   4.088   4.542 -0.4124  0.0976 -0.6599
 1566TIP3    H1 4662   5.389   4.071   4.535 -0.0909  1.1655  0.6170
 1566TIP3    H2 4663   5.282   4.113   4.634 -2.0284 -0.5077 -0.6985
 1567TIP3   OH2 4664   1.998   4.852   3.603  0.0684 -0.5464 -0.1956
 1567TIP3    H1 4665   1.973   4.854   3.696  0.6441  2.0873 -0.0150
 1567TIP3    H2 4666   1.916   4.866   3.556 -0.0584 -0.7374 -0.0353
 1568TIP3   OH2 4667   5.892   4.681   5.485 -0.0526 -0.3570  0.3630
 1568TIP3    H1 4668   5.802   4.649   5.474 -0.3068 -0.0631  1.5132
 1568TIP3    H2 4669   5.915   4.659   5.575  1.4775 -1.4814 -0.2493
 1569TIP3   OH2 4670   3.891   4.752   0.863  0.0449  0.3523 -0.1991
 1569TIP3    H1 4671   3.910   4.664   0.831  0.3733 -0.8114  2.8659
 1569TIP3    H2 4672   3.795   4.757   0.863  0.0330  0.5198 -1.5617
 1570TIP3   OH2 4673   3.841   3.366   4.812 -0.0828 -0.5802 -0.4783
 1570TIP3    H1 4674   3.815   3.412   4.892 -0.4241 -2.3441  0.4701
 1570TIP3    H2 4675   3.936   3.363   4.814 -0.0758 -0.2547 -0.3606
 1571TIP3   OH2 4676   4.810   4.110   3.871 -0.2369  0.1094  0.7558
 1571TIP3    H1 4677   4.877   4.142   3.810  1.0351 -2.8282  0.4008
 1571TIP3    H2 4678   4.734   4.091   3.815  0.7150 -1.9974  0.0678
 1572TIP3   OH2 4679   6.622   1.996   5.794 -0.5973  0.2494 -0.1832
 1572TIP3    H1 4680   6.572   1.994   5.876 -0.6002  1.6520 -0.1142
 1572TIP3    H2 4681   6.564   2.041   5.732  0.9114  3.0142  0.2094
 1573TIP3   OH2 4682   1.235   3.055   0.988 -0.0044 -0.1401 -0.1499
 1573TIP3    H1 4683   1.295   3.015   1.051 -0.4942  1.2481  1.2451
 1573TIP3    H2 4684   1.151   3.058   1.033 -0.1996  1.5604 -0.5581
 1574TIP3   OH2 4685   2.192   3.313   3.454  0.8162  0.6231  0.2610
 1574TIP3    H1 4686   2.259   3.317   3.522 -0.1911 -3.0822  1.7607
 1574TIP3    H2 4687   2.109   3.326   3.501  0.2261  0.1698 -0.6126
 1575TIP3   OH2 4688   4.183   1.199   5.590 -0.3038  0.0761 -0.0300
 1575TIP3    H1 4689   4.273   1.181   5.565 -0.0844  0.1240  0.6895
 1575TIP3    H2 4690   4.132   1.132   5.546  0.1541 -0.3245  0.0395
 1576TIP3   OH2 4691   0.012   3.270   3.483  0.4270  0.7458  0.7823
 1576TIP3    H1 4692   0.004   3.323   3.404 -0.5204  0.3505  0.5922
 1576TIP3    H2 4693  -0.013   3.329   3.554  1.3662  1.1272  0.8115
 1577TIP3   OH2 4694   6.315   2.451   3.688  0.2171 -0.4693 -0.2097
 1577TIP3    H1 4695   6.236   2.454   3.635 -0.8680  1.2532  1.3852
 1577TIP3    H2 4696   6.346   2.541   3.692  2.0049 -1.0226 -0.3717
 1578TIP3   OH2 4697   5.279   1.734   0.863 -0.0760 -0.3162 -0.5532
 1578TIP3    H1 4698   5.230   1.654   0.842  0.6699 -0.7071 -0.8504
 1578TIP3    H2 4699   5.218   1.787   0.914 -0.8128 -0.7788 -0.9379
 1579TIP3   OH2 4700   1.281   0.316   1.860 -0.0045  0.1496 -0.1259
 1579TIP3    H1 4701   1.334   0.255   1.809  0.5425 -0.0023  0.6110
 1579TIP3    H2 4702   1.268   0.391   1.802  3.8505  1.7236  0.7189
 1580TIP3   OH2 4703   4.853   4.211   2.185  0.3054 -0.2012  0.0174
 1580TIP3    H1 4704   4.814   4.130   2.218 -0.7544  0.6344  0.9113
 1580TIP3    H2 4705   4.815   4.221   2.097  0.8661 -0.9375 -0.3189
 1581TIP3   OH2 4706   4.432   5.385   5.088 -0.3845  0.1024  0.0337
 1581TIP3    H1 4707   4.395   5.463   5.046  0.5233  0.8421  0.5940
 1581TIP3    H2 4708   4.493   5.419   5.153  1.1000 -1.0821 -0.6750
 1582TIP3   OH2 4709   4.476   3.738   2.739  0.0621  0.0944  0.8452
 1582TIP3    H1 4710   4.520   3.697   2.665 -0.2466 -1.1155  1.3149
 1582TIP3    H2 4711   4.388   3.757   2.707  0.0593 -0.0458  0.7716
 1583TIP3   OH2 4712   3.029   4.899   1.156  0.3708 -0.0219 -1.0790
 1583TIP3    H1 4713   3.100   4.871   1.098  0.7052 -0.1521 -0.6146
 1583TIP3    H2 4714   2.951   4.857   1.120  0.7438 -0.9594 -0.8251
 1584TIP3   OH2 4715   5.894   3.881   2.142 -0.1878 -0.2993 -0.0912
 1584TIP3    H1 4716   5.957   3.877   2.070  0.8925  0.1869  0.7953
 1584TIP3    H2 4717   5.829   3.814   2.121  0.1109 -0.1788 -1.4979
 1585TIP3   OH2 4718   3.985   5.807   5.552  0.7628  0.1662  0.3228
 1585TIP3    H1 4719   3.890   5.810   5.539  0.2648 -2.3030  2.5022
 1585TIP3    H2 4720   4.015   5.740   5.490  1.0890  0.8375 -0.2579
 1586TIP3   OH2 4721   2.116   3.254   1.193  0.3706  0.0174 -0.0854
 1586TIP3    H1 4722   2.197   3.258   1.243  0.5110  1.3948 -0.3668
 1586TIP3    H2 4723   2.131   3.314   1.120 -1.3962  1.4291  0.6333
 1587TIP3   OH2 4724   4.726   6.028   4.332  0.3669  0.0583  0.6846
 1587TIP3    H1 4725   4.654   6.018   4.270 -0.5081 -0.2057  1.7112
 1587TIP3    H2 4726   4.694   6.092   4.396  0.5605 -0.9330  1.8138
 1588TIP3   OH2 4727   1.010   3.150   0.527 -0.2046 -0.1525 -0.2463
 1588TIP3    H1 4728   1.089   3.183   0.570 -0.0338 -1.9464  0.9055
 1588TIP3    H2 4729   0.939   3.178   0.584 -0.3539  0.7596 -0.8563
 1589TIP3   OH2 4730   0.070   2.162   1.894  0.9122  0.0946 -0.1569
 1589TIP3    H1 4731   0.062   2.167   1.799 -0.7492  0.4692 -0.0393
 1589TIP3    H2 4732   0.089   2.251   1.921  2.3238 -0.1805 -0.1810
 1590TIP3   OH2 4733   1.117   2.607   4.651 -0.2251 -0.0323  0.0644
 1590TIP3    H1 4734   1.208   2.623   4.674  0.2342 -2.3920  0.0852
 1590TIP3    H2 4735   1.120   2.584   4.558 -0.7123 -0.7364  0.2198
 1591TIP3   OH2 4736   1.240   6.101   1.995  0.3960  0.4813 -0.5100
 1591TIP3    H1 4737   1.189   6.057   1.927 -0.6619  0.3336  0.3428
 1591TIP3    H2 4738   1.302   6.036   2.025  0.6852  0.4603 -1.1329
 1592TIP3   OH2 4739   1.029   5.462   0.890 -0.3383  0.2554 -0.2690
 1592TIP3    H1 4740   1.053   5.385   0.839  0.3402  0.2919 -0.0193
 1592TIP3    H2 4741   1.110   5.487   0.935 -0.9303  0.2094  0.8444
 1593TIP3   OH2 4742   5.138   4.927   0.995 -0.4099  0.1637  0.1234
 1593TIP3    H1 4743   5.216   4.945   0.942 -1.4232  0.9181 -1.1489
 1593TIP3    H2 4744   5.170   4.867   1.063  2.1540  3.2524  1.9355
 1594TIP3   OH2 4745   3.469   4.160   5.841  0.4006 -1.3237  1.0918
 1594TIP3    H1 4746   3.472   4.196   5.753 -0.2378  0.6579  1.8256
 1594TIP3    H2 4747   3.385   4.116   5.847  1.4054 -3.5446  0.0163
 1595TIP3   OH2 4748   5.446   4.270   5.717  0.1221 -0.1924  0.0553
 1595TIP3    H1 4749   5.426   4.208   5.647 -1.1973  0.1105  0.1273
 1595TIP3    H2 4750   5.506   4.333   5.678 -1.5426  0.6737 -1.2151
 1596TIP3   OH2 4751   0.142   4.933   2.885  0.3477 -0.0103  0.2973
 1596TIP3    H1 4752   0.160   4.986   2.963 -2.0872 -0.3597  1.1777
 1596TIP3    H2 4753   0.088   4.989   2.830 -0.5102 -0.8170  0.2919
 1597TIP3   OH2 4754   1.422   4.087   5.558 -0.1234 -0.5277 -0.2103
 1597TIP3    H1 4755   1.483   4.109   5.488  1.4008  1.3615  1.5982
 1597TIP3    H2 4756   1.451   4.139   5.633 -2.5511 -1.3582  1.4325
 1598TIP3   OH2 4757   6.620   1.626   1.225 -0.8380 -0.4979  0.5285
 1598TIP3    H1 4758   6.621   1.698   1.287 -1.5356 -0.1581  0.1521
 1598TIP3    H2 4759   6.544   1.573   1.251  0.4395 -1.8630  1.6516
 1599TIP3   OH2 4760   2.268   0.956   5.130 -0.1292 -0.2949 -0.0372
 1599TIP3    H1 4761   2.281   1.041   5.172 -0.4394  0.1457 -0.8182
 1599TIP3    H2 4762   2.248   0.896   5.202  2.3284 -0.2115  0.8075
 1600TIP3   OH2 4763   2.678   4.799   2.872 -0.4077 -0.1835 -0.3344
 1600TIP3    H1 4764   2.656   4.706   2.864  0.8517 -0.5652  0.3576
 1600TIP3    H2 4765   2.746   4.802   2.939 -1.8230  1.4571  1.1289
 1601TIP3   OH2 4766   3.996   5.747   1.730  0.1663 -0.0354 -0.3526
 1601TIP3    H1 4767   4.044   5.672   1.763 -0.1926  0.4385  1.3364
 1601TIP3    H2 4768   4.061   5.817   1.725  0.0551  0.1136  0.1841
 1602TIP3   OH2 4769   6.876   3.206   1.333  0.2208 -0.1867  0.0227
 1602TIP3    H1 4770   6.868   3.161   1.249  1.1023 -0.4217  0.0632
 1602TIP3    H2 4771   6.968   3.197   1.357 -0.1325 -0.5936  1.2789
 1603TIP3   OH2 4772   7.162   3.986   3.735 -0.3591  0.1983 -0.1896
 1603TIP3    H1 4773   7.072   3.971   3.763  0.1727  0.7117  1.9939
 1603TIP3    H2 4774   7.215   3.970   3.813  1.2557  1.8738 -0.8427
 1604TIP3   OH2 4775   0.851   2.134   3.922 -0.2847 -0.3202 -0.1652
 1604TIP3    H1 4776   0.770   2.084   3.913  0.1956 -1.0658 -0.5683
 1604TIP3    H2 4777   0.899   2.088   3.991 -1.0749  1.3707  1.5894
 1605TIP3   OH2 4778   2.838   3.476   2.959  0.5614  0.1404 -1.0333
 1605TIP3    H1 4779   2.906   3.409   2.958  0.8936  0.4112  0.4572
 1605TIP3    H2 4780   2.822   3.491   3.052 -1.0379  0.5953 -1.3571
 1606TIP3   OH2 4781   5.456   6.351   0.302  0.5353 -0.5823 -0.1254
 1606TIP3    H1 4782   5.436   6.403   0.224 -0.2150 -1.6770 -0.7110
 1606TIP3    H2 4783   5.426   6.404   0.375  0.5721  0.1600 -0.6425
 1607TIP3   OH2 4784   2.499   1.036   3.081  0.0478 -0.0335  0.3128
 1607TIP3    H1 4785   2.404   1.030   3.066  0.1233 -1.4379  0.2518
 1607TIP3    H2 4786   2.532   1.085   3.005 -0.5652 -0.0232  0.0432
 1608TIP3   OH2 4787   4.360   4.457   2.612  0.1707 -0.6635 -0.1262
 1608TIP3    H1 4788   4.329   4.506   2.687  1.5808 -1.4172  1.0087
 1608TIP3    H2 4789   4.421   4.516   2.568  0.3881 -0.7087  0.1150
 1609TIP3   OH2 4790   0.455   2.383   4.646 -0.2764  0.7103 -0.2247
 1609TIP3    H1 4791   0.409   2.309   4.686 -0.7084  0.9420 -0.2778
 1609TIP3    H2 4792   0.384   2.438   4.611  0.0792  0.4347 -1.4521
 1610TIP3   OH2 4793   0.450   2.496   2.410 -0.2660 -0.2329  0.1232
 1610TIP3    H1 4794   0.426   2.476   2.501  0.9487  2.5203  1.1829
 1610TIP3    H2 4795   0.371   2.535   2.372  0.1051  1.6404  1.1250
 1611TIP3   OH2 4796   5.721   3.734   4.466  0.5827 -0.2117  0.3188
 1611TIP3    H1 4797   5.625   3.728   4.468  0.5332 -2.2562 -2.3471
 1611TIP3    H2 4798   5.751   3.650   4.502  1.2055 -0.9098 -1.6779
 1612TIP3   OH2 4799   4.465   0.454   3.768  0.0527 -0.2895 -0.0520
 1612TIP3    H1 4800   4.523   0.384   3.739  0.4330  0.4004 -1.0164
 1612TIP3    H2 4801   4.390   0.408   3.808  0.1679 -1.2483 -0.8960
 1613TIP3   OH2 4802   4.669   3.230   0.109 -0.2485 -0.0208 -0.1864
 1613TIP3    H1 4803   4.654   3.224   0.015 -1.3906  1.3006 -0.1141
 1613TIP3    H2 4804   4.764   3.242   0.118 -0.4400  3.5043 -1.4301
 1614TIP3   OH2 4805   5.572   2.350   0.221  0.0341  0.3719 -0.3851
 1614TIP3    H1 4806   5.573   2.440   0.188  1.5058 -0.2816 -2.3488
 1614TIP3    H2 4807   5.519   2.302   0.158 -0.8833 -0.1481  0.7415
 1615TIP3   OH2 4808   0.458   1.401   0.182 -0.3672 -0.4944 -0.5500
 1615TIP3    H1 4809   0.413   1.321   0.211  0.6618 -1.0437 -0.4246
 1615TIP3    H2 4810   0.551   1.377   0.181 -0.0630  0.6471 -0.7111
 1616TIP3   OH2 4811   6.449   4.675   2.299 -0.0324  0.1394 -0.2700
 1616TIP3    H1 4812   6.482   4.667   2.388 -2.3751 -2.1477  0.5313
 1616TIP3    H2 4813   6.355   4.691   2.309 -0.4728 -0.8081 -2.3030
 1617TIP3   OH2 4814   3.535   1.936   2.280  0.2287  0.4374  0.0172
 1617TIP3    H1 4815   3.553   2.027   2.303 -0.2018  0.8764 -1.2791
 1617TIP3    H2 4816   3.612   1.888   2.310  1.1769  1.4711 -0.6760
 1618TIP3   OH2 4817   4.797   1.739   1.388 -0.8500  0.0554  0.5564
 1618TIP3    H1 4818   4.875   1.786   1.417 -0.4191 -0.4692  0.2689
 1618TIP3    H2 4819   4.731   1.758   1.454 -0.0071 -0.7890  1.6869
 1619TIP3   OH2 4820   1.547   0.622   5.452  0.1973  0.3396  0.3110
 1619TIP3    H1 4821   1.457   0.649   5.432  0.3043  0.0291 -0.6163
 1619TIP3    H2 4822   1.539   0.531   5.480  0.3174  0.0112 -0.6819
 1620TIP3   OH2 4823   6.901   6.539   4.053 -0.4761  0.3269 -0.2560
 1620TIP3    H1 4824   6.958   6.464   4.035 -0.6722 -0.8325  3.1821
 1620TIP3    H2 4825   6.960   6.613   4.065 -0.2210  0.6088 -2.8177
 1621TIP3   OH2 4826   4.606   0.653   2.411 -0.3601 -0.4385  0.1487
 1621TIP3    H1 4827   4.519   0.691   2.404 -0.7257 -0.6260  2.6821
 1621TIP3    H2 4828   4.663   0.725   2.435 -0.3851 -0.8123  1.3870
 1622TIP3   OH2 4829   4.973   0.564   2.418  0.5016  0.6635  0.5525
 1622TIP3    H1 4830   5.034   0.551   2.346 -0.7128  0.2265 -0.4373
 1622TIP3    H2 4831   4.962   0.659   2.424  0.0745  0.6802 -0.3296
 1623TIP3   OH2 4832   1.140   4.175   3.077  0.4437  0.1689  0.3503
 1623TIP3    H1 4833   1.050   4.200   3.055  0.5531  0.0373 -0.2621
 1623TIP3    H2 4834   1.130   4.101   3.137  0.1011 -2.2148 -2.4064
 1624TIP3   OH2 4835   6.097   3.160   0.762 -0.1350 -0.1717 -0.1976
 1624TIP3    H1 4836   6.110   3.094   0.694 -0.6815 -0.0500 -0.4219
 1624TIP3    H2 4837   6.113   3.113   0.844 -0.1561 -0.4893 -0.3734
 1625TIP3   OH2 4838   3.872   5.966   1.411 -0.3424  0.2441  0.3088
 1625TIP3    H1 4839   3.927   5.925   1.344  0.0952  1.2527  0.0411
 1625TIP3    H2 4840   3.855   5.896   1.474  0.1778 -0.4165 -0.2715
 1626TIP3   OH2 4841   5.078   4.423   4.228 -0.4332  0.1618 -0.1555
 1626TIP3    H1 4842   5.011   4.395   4.291 -0.4791  1.4384  0.3874
 1626TIP3    H2 4843   5.153   4.367   4.248 -0.8651 -0.3065  0.1967
 1627TIP3   OH2 4844   6.218   5.172   5.744 -0.1468 -0.5616  0.1788
 1627TIP3    H1 4845   6.290   5.227   5.712 -0.5225 -0.1103  0.0904
 1627TIP3    H2 4846   6.256   5.084   5.750  0.6719 -0.1688  1.0185
 1628TIP3   OH2 4847   4.381   1.200   2.453  0.3051  0.2698  0.2125
 1628TIP3    H1 4848   4.302   1.181   2.404  0.5285 -2.4530  0.7547
 1628TIP3    H2 4849   4.359   1.180   2.544  1.6198 -0.7082  0.3508
 1629TIP3   OH2 4850   0.442   3.959   5.146  0.4404 -0.3733  0.2680
 1629TIP3    H1 4851   0.462   4.051   5.160  1.6217 -0.1535 -2.1825
 1629TIP3    H2 4852   0.355   3.959   5.106 -0.6085 -0.5638  2.4579
 1630TIP3   OH2 4853   3.853   2.481   3.161 -0.1639  0.2001  0.4373
 1630TIP3    H1 4854   3.895   2.401   3.130 -0.0190 -1.1161  3.6599
 1630TIP3    H2 4855   3.764   2.477   3.125  0.4347 -0.2926 -1.1019
 1631TIP3   OH2 4856   2.374   4.087   0.752  0.2269 -0.0899 -0.2100
 1631TIP3    H1 4857   2.435   4.098   0.680  1.2206 -1.1106  0.4485
 1631TIP3    H2 4858   2.427   4.054   0.825 -1.1237 -1.1705  0.3416
 1632TIP3   OH2 4859   0.692   1.430   3.191 -0.7415 -0.6043  0.1760
 1632TIP3    H1 4860   0.749   1.427   3.267 -1.1681  0.4673  0.5545
 1632TIP3    H2 4861   0.731   1.497   3.134 -2.1903  0.9626  0.9451
 1633TIP3   OH2 4862   3.219   3.240   0.241  0.1012 -0.5477 -0.4094
 1633TIP3    H1 4863   3.234   3.181   0.315  1.9112  1.1247  0.6615
 1633TIP3    H2 4864   3.291   3.303   0.246 -1.5733  1.5971 -1.6447
 1634TIP3   OH2 4865   0.318   1.697   5.806 -0.0063 -0.2984 -0.2044
 1634TIP3    H1 4866   0.269   1.676   5.886  0.5631  1.5490  0.6849
 1634TIP3    H2 4867   0.254   1.684   5.736 -1.5874  1.2610  0.8405
 1635TIP3   OH2 4868   5.585   6.401   2.719 -0.0586 -0.2177  0.2701
 1635TIP3    H1 4869   5.633   6.461   2.776 -0.6593  0.6195 -0.1022
 1635TIP3    H2 4870   5.512   6.370   2.773  0.0468 -0.3524  0.3389
 1636TIP3   OH2 4871   3.490   1.706   1.201 -0.3137 -0.3589  0.0094
 1636TIP3    H1 4872   3.438   1.755   1.264  1.8839  1.0326  0.8502
 1636TIP3    H2 4873   3.522   1.630   1.251  0.8894  0.3942  0.4125
 1637TIP3   OH2 4874   2.726   5.803   2.214  0.1295  0.1653 -0.0414
 1637TIP3    H1 4875   2.744   5.819   2.122  1.6599  1.0894  0.3860
 1637TIP3    H2 4876   2.790   5.855   2.261  0.3575 -1.4298  1.5404
 1638TIP3   OH2 4877   5.797   2.533   4.647  0.6613 -0.0457  0.0070
 1638TIP3    H1 4878   5.746   2.529   4.566  0.2350  1.9237  0.1443
 1638TIP3    H2 4879   5.887   2.514   4.620  1.0783  3.4538 -1.5257
 1639TIP3   OH2 4880   1.681   0.546   3.082  0.1754  0.0890 -0.0343
 1639TIP3    H1 4881   1.750   0.542   3.148  0.7176 -0.6914 -0.6334
 1639TIP3    H2 4882   1.624   0.471   3.102  0.4947 -0.3145 -0.6087
 1640TIP3   OH2 4883   2.472   4.868   3.728  0.6437  0.4031  0.4575
 1640TIP3    H1 4884   2.507   4.909   3.807  0.9624  2.0854 -0.5216
 1640TIP3    H2 4885   2.422   4.937   3.685 -0.3704 -0.7718 -0.3373
 1641TIP3   OH2 4886   2.848   4.800   4.700  0.1215 -0.7580 -0.1083
 1641TIP3    H1 4887   2.861   4.844   4.784  1.7485  0.9746 -1.1639
 1641TIP3    H2 4888   2.773   4.743   4.713  1.5543 -2.1506  3.1122
 1642TIP3   OH2 4889   1.919   2.812   0.526  0.1079 -0.1985 -0.3617
 1642TIP3    H1 4890   1.932   2.780   0.616  0.3222  0.1282 -0.2778
 1642TIP3    H2 4891   1.868   2.743   0.484 -2.9570  1.0896  0.9503
 1643TIP3   OH2 4892   6.020   0.839   0.732  0.3920  0.2062  0.0556
 1643TIP3    H1 4893   5.986   0.907   0.790 -1.4741 -0.1492 -0.5536
 1643TIP3    H2 4894   5.985   0.861   0.646  1.5568 -0.3306 -0.5796
 1644TIP3   OH2 4895   6.966   1.332   1.630  0.1489 -0.1656 -0.0648
 1644TIP3    H1 4896   7.003   1.406   1.679 -1.0775  0.4116  0.0562
 1644TIP3    H2 4897   7.041   1.282   1.599  0.9933 -0.3857  2.1654
 1645TIP3   OH2 4898   1.417   3.521   3.812 -0.1772 -0.0396  0.7683
 1645TIP3    H1 4899   1.491   3.574   3.841  0.8996 -1.8216  1.4962
 1645TIP3    H2 4900   1.415   3.530   3.717  0.5677  0.5399  0.8082
 1646TIP3   OH2 4901   4.559   1.566   1.950  0.1989  0.6563 -0.1167
 1646TIP3    H1 4902   4.467   1.562   1.924  0.0932 -1.1057  0.3733
 1646TIP3    H2 4903   4.607   1.528   1.876  0.5202  1.3421 -0.2686
 1647TIP3   OH2 4904   6.863   1.756   1.688 -0.0785 -0.3471 -0.5047
 1647TIP3    H1 4905   6.873   1.767   1.594 -1.6080 -0.3104 -0.6755
 1647TIP3    H2 4906   6.914   1.829   1.726  0.0132  0.0160 -1.3119
 1648TIP3   OH2 4907   4.603   6.160   3.473  0.3331 -0.0555 -0.1949
 1648TIP3    H1 4908   4.544   6.106   3.526  1.2997 -0.7024  0.2599
 1648TIP3    H2 4909   4.587   6.249   3.503  0.6781 -0.3828  1.0294
 1649TIP3   OH2 4910   5.284   4.420   3.992  0.0647  0.3310 -0.6668
 1649TIP3    H1 4911   5.204   4.455   4.032  0.7325 -0.0470  1.0805
 1649TIP3    H2 4912   5.352   4.436   4.057  0.7303 -2.7203 -0.4806
 1650TIP3   OH2 4913   0.344   3.975   1.720  0.2115  0.2342  0.1869
 1650TIP3    H1 4914   0.364   4.011   1.807  3.8808  0.1168 -0.4358
 1650TIP3    H2 4915   0.355   3.880   1.731 -0.7038  0.0880 -0.1193
 1651TIP3   OH2 4916   0.645   2.847   3.171 -0.4042  0.2493  0.1312
 1651TIP3    H1 4917   0.740   2.845   3.177 -0.4439  0.9171  1.1858
 1651TIP3    H2 4918   0.626   2.924   3.118 -0.3461 -0.4203 -0.8962
 1652TIP3   OH2 4919   3.143   5.251   2.787  0.1759 -0.1642 -0.1309
 1652TIP3    H1 4920   3.124   5.182   2.849 -1.4210  0.3571  0.0005
 1652TIP3    H2 4921   3.196   5.209   2.719  2.1876 -0.6834  1.6619
 1653TIP3   OH2 4922   3.366   6.473   5.058 -0.2259 -0.1882 -0.2017
 1653TIP3    H1 4923   3.422   6.535   5.010  0.5668  0.9174  2.0335
 1653TIP3    H2 4924   3.426   6.410   5.096 -0.8805 -1.2701 -0.8973
 1654TIP3   OH2 4925   2.499   3.326   0.357 -0.0943  0.1640 -0.2148
 1654TIP3    H1 4926   2.594   3.316   0.356 -0.0868 -1.4895 -4.8783
 1654TIP3    H2 4927   2.466   3.243   0.391  0.0276  0.5653  0.9535
 1655TIP3   OH2 4928   4.735   1.869   5.821  0.1684 -0.3547 -0.1730
 1655TIP3    H1 4929   4.641   1.886   5.826  0.0279 -0.4319 -1.8237
 1655TIP3    H2 4930   4.753   1.867   5.727  1.2457 -3.3681 -0.0016
 1656TIP3   OH2 4931   1.598   2.237   5.408 -0.8740 -0.4097  0.0434
 1656TIP3    H1 4932   1.659   2.169   5.438 -0.6054 -0.4727 -0.6145
 1656TIP3    H2 4933   1.568   2.280   5.488  1.6606  1.0429  0.3317
 1657TIP3   OH2 4934   6.216   5.362   5.188  0.3892  1.0616  0.4289
 1657TIP3    H1 4935   6.224   5.266   5.193 -0.2366  1.0691  2.5628
 1657TIP3    H2 4936   6.194   5.379   5.096  0.8232 -0.8057 -0.0680
 1658TIP3   OH2 4937   6.495   4.645   3.632  0.7446 -0.1204 -0.0981
 1658TIP3    H1 4938   6.569   4.603   3.675  0.2123 -1.1574 -0.1617
 1658TIP3    H2 4939   6.498   4.736   3.661  2.3077 -0.0419 -0.4624
 1659TIP3   OH2 4940   4.739   4.872   1.596  0.1784  0.1370  0.5087
 1659TIP3    H1 4941   4.768   4.908   1.680 -0.9242  0.2604  0.8503
 1659TIP3    H2 4942   4.691   4.943   1.554  1.3810  0.3361 -0.6002
 1660TIP3   OH2 4943   4.750   0.127   3.844  0.1175  0.3444  0.0524
 1660TIP3    H1 4944   4.665   0.170   3.837 -0.0034  0.2966  1.0757
 1660TIP3    H2 4945   4.772   0.132   3.937  1.8449  1.5020 -0.3686
 1661TIP3   OH2 4946   5.041   1.834   3.877  0.6636 -0.1337 -0.3208
 1661TIP3    H1 4947   5.034   1.830   3.782  1.4659  1.0661 -0.4574
 1661TIP3    H2 4948   4.976   1.772   3.909  1.4862 -1.7568 -1.6688
 1662TIP3   OH2 4949   0.919   2.116   3.279  0.1572  0.2630  0.0668
 1662TIP3    H1 4950   0.955   2.170   3.350  0.0135  2.3837 -1.4020
 1662TIP3    H2 4951   0.827   2.105   3.302  0.6185 -1.1275  1.3983
 1663TIP3   OH2 4952   2.703   0.932   1.752 -0.9174  0.0728 -0.1889
 1663TIP3    H1 4953   2.679   0.899   1.665 -2.2762 -0.3106  0.3060
 1663TIP3    H2 4954   2.684   1.025   1.749 -0.7009  0.1125 -0.3801
 1664TIP3   OH2 4955   1.205   3.407   1.341 -0.3881 -0.0371 -0.2009
 1664TIP3    H1 4956   1.224   3.369   1.255 -0.0942  0.0068 -0.1558
 1664TIP3    H2 4957   1.251   3.350   1.402 -1.3426 -0.6087  0.0015
 1665TIP3   OH2 4958   4.316   2.186   1.995  0.1146 -0.3208 -0.1020
 1665TIP3    H1 4959   4.240   2.197   2.052  0.4085 -0.3392  0.2978
 1665TIP3    H2 4960   4.331   2.092   1.994 -0.0261 -0.3386 -0.3872
 1666TIP3   OH2 4961   0.237   0.381   3.074  0.1929  0.1896 -0.3023
 1666TIP3    H1 4962   0.253   0.475   3.082 -0.7983  0.3951 -0.5070
 1666TIP3    H2 4963   0.292   0.341   3.141  0.7627  0.8991 -0.3358
 1667TIP3   OH2 4964   1.041   3.367   2.281 -0.8235  0.2803  0.0133
 1667TIP3    H1 4965   1.075   3.278   2.270 -1.4120 -0.0153  0.5377
 1667TIP3    H2 4966   1.109   3.413   2.331 -0.5601  0.1049 -0.1810
 1668TIP3   OH2 4967   5.249   1.468   0.249  0.1978  0.0920  0.4000
 1668TIP3    H1 4968   5.288   1.476   0.336 -0.7330  0.3042  0.8087
 1668TIP3    H2 4969   5.185   1.539   0.245  0.1597  0.0144 -0.4193
 1669TIP3   OH2 4970   3.605   0.925   2.596 -0.6127  0.2828  0.5129
 1669TIP3    H1 4971   3.659   1.001   2.574 -0.3600  0.3060  1.1879
 1669TIP3    H2 4972   3.543   0.957   2.661 -2.7911  0.7553 -1.6648
 1670TIP3   OH2 4973   4.938   5.168   3.350  0.1166  0.0507  0.0148
 1670TIP3    H1 4974   4.950   5.153   3.444 -0.3476  0.5481  0.1586
 1670TIP3    H2 4975   4.977   5.091   3.309  0.0516 -0.3231  0.6280
 1671TIP3   OH2 4976   6.522   1.893   3.504  0.1130  0.0958  0.4603
 1671TIP3    H1 4977   6.603   1.922   3.547  0.6322 -1.8737  0.8995
 1671TIP3    H2 4978   6.472   1.974   3.491  2.2661  1.4079 -0.1252
 1672TIP3   OH2 4979  -0.013   2.294   1.025 -0.5630  0.1184  0.1460
 1672TIP3    H1 4980   0.006   2.378   0.982  0.1470 -0.1134 -0.0098
 1672TIP3    H2 4981   0.034   2.230   0.973  0.0663 -0.2101  1.0948
 1673TIP3   OH2 4982   4.272   6.493   4.871  0.9152  0.0414  0.2017
 1673TIP3    H1 4983   4.344   6.530   4.820  2.0312 -1.3798  0.6667
 1673TIP3    H2 4984   4.291   6.399   4.875 -0.0615 -0.1354  1.7664
 1674TIP3   OH2 4985   1.361   2.925   3.927 -0.4346 -0.2866 -0.2755
 1674TIP3    H1 4986   1.430   2.944   3.863  0.8351  0.6167  1.2765
 1674TIP3    H2 4987   1.288   2.893   3.875  0.7960 -0.2788 -2.0948
 1675TIP3   OH2 4988   2.485   5.481   0.041  0.1012 -0.2017 -0.6737
 1675TIP3    H1 4989   2.575   5.454   0.063 -0.2423 -0.4286  0.5083
 1675TIP3    H2 4990   2.430   5.437   0.106 -1.2044 -2.4784 -3.1587
 1676TIP3   OH2 4991   2.896   1.657   4.575 -0.3497 -0.1217  0.2263
 1676TIP3    H1 4992   2.810   1.695   4.557 -0.2280 -1.2593 -3.5617
 1676TIP3    H2 4993   2.958   1.727   4.556 -0.3401  0.1621  1.2404
 1677TIP3   OH2 4994   6.833   5.420   5.856  0.2898  0.1555 -0.0269
 1677TIP3    H1 4995   6.758   5.396   5.800  1.3185 -2.3264 -0.4603
 1677TIP3    H2 4996   6.897   5.457   5.795 -0.2298  1.5351  0.2271
 1678TIP3   OH2 4997   0.823   1.986   1.074 -0.9912  0.0726 -0.0166
 1678TIP3    H1 4998   0.731   1.974   1.052 -1.0582 -0.8273  0.7279
 1678TIP3    H2 4999   0.825   2.065   1.128 -1.2746  0.2951 -0.3281
 1679TIP3   OH2 5000   3.989   6.701   2.199 -0.3694  0.0349  0.4929
 1679TIP3    H1 5001   3.994   6.707   2.103 -1.5358 -0.6218  0.3771
 1679TIP3    H2 5002   3.974   6.792   2.227 -0.0583  0.2260  0.0531
 1680TIP3   OH2 5003   2.702   4.577   0.890  0.0367  0.4315 -0.1851
 1680TIP3    H1 5004   2.614   4.558   0.858 -0.2426 -0.3943  1.0096
 1680TIP3    H2 5005   2.721   4.508   0.953  1.4195  0.7826 -0.1680
 1681TIP3   OH2 5006   6.162   6.539   2.440  0.0923  0.3014 -0.1634
 1681TIP3    H1 5007   6.208   6.456   2.456 -0.3232  0.1632  0.3832
 1681TIP3    H2 5008   6.173   6.556   2.347 -1.4485 -1.3801 -0.7108
 1682TIP3   OH2 5009   1.994   1.086   1.220  0.0335 -0.4838 -0.3219
 1682TIP3    H1 5010   1.937   1.141   1.167 -0.4850  0.1824  0.8843
 1682TIP3    H2 5011   2.072   1.139   1.235 -1.3003  0.9005  2.5895
 1683TIP3   OH2 5012   2.314   2.476   5.079 -0.2525  0.1254 -0.2627
 1683TIP3    H1 5013   2.245   2.425   5.123  1.5473 -3.0799 -0.8678
 1683TIP3    H2 5014   2.304   2.454   4.987  1.8301 -0.8757 -0.3069
 1684TIP3   OH2 5015   5.390   0.831   3.377  0.2256 -0.2437 -0.6376
 1684TIP3    H1 5016   5.406   0.912   3.427  3.5281 -1.3746  0.4394
 1684TIP3    H2 5017   5.426   0.849   3.290 -3.0097  0.7867 -1.8887
 1685TIP3   OH2 5018   4.703   5.251   1.059  0.4711 -0.3602 -0.1236
 1685TIP3    H1 5019   4.723   5.177   1.117 -0.9438 -0.2262  0.5678
 1685TIP3    H2 5020   4.627   5.293   1.098  0.4050  0.6570 -1.2686
 1686TIP3   OH2 5021   2.170   5.114   0.275  0.4117  0.4885 -0.3954
 1686TIP3    H1 5022   2.087   5.079   0.308 -0.9091  3.8762  0.2633
 1686TIP3    H2 5023   2.175   5.083   0.185 -0.0762 -2.1082  0.3935
 1687TIP3   OH2 5024   1.223   5.058   0.484  0.8736  0.4816  0.0028
 1687TIP3    H1 5025   1.260   5.145   0.473  2.4855 -0.1894 -0.0973
 1687TIP3    H2 5026   1.164   5.066   0.559  1.8425  1.4159  0.6923
 1688TIP3   OH2 5027   6.211   3.749   1.684  0.2093  0.0295  0.8320
 1688TIP3    H1 5028   6.282   3.744   1.620 -0.4963 -1.6287  0.1360
 1688TIP3    H2 5029   6.135   3.779   1.635  0.2817  1.4150  1.4987
 1689TIP3   OH2 5030   1.535   5.153   5.112 -0.0289 -0.2716  0.3786
 1689TIP3    H1 5031   1.450   5.195   5.122 -0.4415 -0.9964 -0.0439
 1689TIP3    H2 5032   1.519   5.078   5.056  0.5705 -1.3664  1.6103
 1690TIP3   OH2 5033   6.610   2.186   4.535  0.3958 -0.8671  0.0116
 1690TIP3    H1 5034   6.553   2.235   4.596  0.0340 -1.5259  0.2124
 1690TIP3    H2 5035   6.588   2.220   4.449  0.6246 -0.2053  0.2089
 1691TIP3   OH2 5036   3.673   3.839   2.137  0.1122  0.0517 -0.3091
 1691TIP3    H1 5037   3.723   3.796   2.068  0.8856 -1.8391  1.3216
 1691TIP3    H2 5038   3.639   3.767   2.190  0.5708  1.4072  1.9623
 1692TIP3   OH2 5039   0.013   2.312   1.298  0.3677 -0.3614  0.0687
 1692TIP3    H1 5040   0.004   2.401   1.333  0.9717  0.2870 -1.3327
 1692TIP3    H2 5041   0.004   2.323   1.203  0.6958 -1.7730 -0.1485
 1693TIP3   OH2 5042   5.794   0.209   2.073  0.3809 -0.0753  0.1263
 1693TIP3    H1 5043   5.747   0.152   2.011  1.9764 -3.4354  1.7252
 1693TIP3    H2 5044   5.884   0.209   2.042  0.9749 -0.8759  1.7419
 1694TIP3   OH2 5045   3.167   0.622   4.285 -0.3884 -0.5573 -0.2396
 1694TIP3    H1 5046   3.257   0.611   4.255 -0.3858  1.6519 -1.2299
 1694TIP3    H2 5047   3.122   0.662   4.210 -2.1712 -1.4598  0.2960
 1695TIP3   OH2 5048   2.053   0.075   4.951 -0.7254  0.0629 -0.3043
 1695TIP3    H1 5049   2.076   0.032   5.033 -0.1298  0.4327 -0.2717
 1695TIP3    H2 5050   1.958   0.064   4.943 -0.9323  0.8656  0.9111
 1696TIP3   OH2 5051   0.995   6.653   5.459  0.0212 -0.3960 -0.7156
 1696TIP3    H1 5052   0.951   6.728   5.418 -2.0859 -1.8636 -1.2816
 1696TIP3    H2 5053   0.924   6.594   5.484  1.5466 -1.6560  0.8948
 1697TIP3   OH2 5054   5.753   1.377   1.667  0.2943 -0.2151  0.1854
 1697TIP3    H1 5055   5.687   1.396   1.601 -0.6598 -0.0460  1.1687
 1697TIP3    H2 5056   5.792   1.294   1.638 -1.0793 -0.8757  0.1315
 1698TIP3   OH2 5057   3.287   1.221   3.247 -0.2916 -0.2800 -0.5780
 1698TIP3    H1 5058   3.357   1.239   3.309  0.1251 -0.6431 -0.9356
 1698TIP3    H2 5059   3.206   1.233   3.297  0.0394 -0.5095  0.0142
 1699TIP3   OH2 5060   0.312   2.979   5.108  0.5425  0.1561 -0.3585
 1699TIP3    H1 5061   0.367   2.902   5.118  0.3107  0.0261 -0.0487
 1699TIP3    H2 5062   0.223   2.946   5.120  0.4663  0.5375  0.1944
 1700TIP3   OH2 5063   4.495   6.396   2.347 -0.3956  0.5554  0.4359
 1700TIP3    H1 5064   4.513   6.433   2.434 -0.4889 -0.6171  0.9687
 1700TIP3    H2 5065   4.430   6.328   2.363  0.4793 -0.4969 -0.3861
 1701TIP3   OH2 5066   3.695   0.645   1.264  0.0696  0.3790  0.0902
 1701TIP3    H1 5067   3.704   0.673   1.173  0.8849  2.0815  0.6498
 1701TIP3    H2 5068   3.784   0.620   1.290 -0.1725 -0.1727  0.4097
 1702TIP3   OH2 5069   2.931   6.118   5.431  0.1159  0.1259 -0.3346
 1702TIP3    H1 5070   2.895   6.194   5.476  1.3403  0.0813  0.7705
 1702TIP3    H2 5071   2.858   6.055   5.429 -0.0686  0.2554  1.3039
 1703TIP3   OH2 5072   6.205   0.371   4.244  0.0916 -0.1652 -0.1511
 1703TIP3    H1 5073   6.133   0.354   4.304  0.2400 -0.0326  0.0690
 1703TIP3    H2 5074   6.164   0.389   4.160 -0.1089 -0.5837 -0.1420
 1704TIP3   OH2 5075   5.365   3.110   2.916 -0.3899  0.2345  0.1001
 1704TIP3    H1 5076   5.316   3.034   2.949 -1.3526 -0.0415 -1.8130
 1704TIP3    H2 5077   5.317   3.186   2.951  0.0298 -0.0047  1.2558
 1705TIP3   OH2 5078   4.356   1.917   2.070 -0.0994  0.2390 -0.1340
 1705TIP3    H1 5079   4.399   1.926   2.155 -1.6140 -0.9680  0.8309
 1705TIP3    H2 5080   4.328   1.825   2.068  0.9618 -0.0972 -2.4928
 1706TIP3   OH2 5081   1.428   6.623   1.697 -0.2344  0.0650 -0.3452
 1706TIP3    H1 5082   1.422   6.531   1.670 -2.0021  0.1933 -0.5122
 1706TIP3    H2 5083   1.470   6.667   1.622  0.2987 -0.5323 -0.4098
 1707TIP3   OH2 5084   3.566   6.165   3.206  0.2978  0.1204 -0.1009
 1707TIP3    H1 5085   3.575   6.109   3.284  1.8145 -0.5402 -0.6966
 1707TIP3    H2 5086   3.479   6.146   3.172 -0.4250  0.4933  1.4782
 1708TIP3   OH2 5087   5.026   1.041   2.583  0.0447  0.0135  0.0826
 1708TIP3    H1 5088   4.989   1.113   2.634 -0.4789 -0.8951  1.0540
 1708TIP3    H2 5089   5.117   1.036   2.611  0.2651  0.7186 -0.4951
 1709TIP3   OH2 5090   1.531   4.634   0.747 -0.1158 -0.0869 -0.1004
 1709TIP3    H1 5091   1.451   4.583   0.753 -0.3217  0.2325 -0.1005
 1709TIP3    H2 5092   1.553   4.635   0.654  0.3497 -0.8748 -0.0041
 1710TIP3   OH2 5093   2.700   5.054   0.839  0.1265 -0.1240  0.3753
 1710TIP3    H1 5094   2.640   5.093   0.903  0.2547 -0.0040  0.4226
 1710TIP3    H2 5095   2.642   5.012   0.775 -0.0618  1.3190 -0.4341
 1711TIP3   OH2 5096   0.318   5.743   5.723  0.6252  0.7364  0.3902
 1711TIP3    H1 5097   0.251   5.770   5.659  0.6735  0.8088  0.3697
 1711TIP3    H2 5098   0.299   5.651   5.741  0.2915  0.8586  0.6626
 1712TIP3   OH2 5099   0.909   2.447   4.835  0.9268 -0.7064  0.6853
 1712TIP3    H1 5100   0.968   2.452   4.760  1.6539 -1.3633  1.1974
 1712TIP3    H2 5101   0.951   2.385   4.894  0.3028 -0.2864  1.5875
 1713TIP3   OH2 5102   1.748   2.593   2.211 -0.2021 -0.1996  0.2705
 1713TIP3    H1 5103   1.838   2.621   2.229 -0.4140 -0.7053  2.4899
 1713TIP3    H2 5104   1.695   2.672   2.225 -0.1798 -0.0642 -0.3759
 1714TIP3   OH2 5105   0.162   4.946   3.183 -0.9492  0.2772 -0.3394
 1714TIP3    H1 5106   0.174   4.883   3.112 -0.6501 -0.7111  0.5659
 1714TIP3    H2 5107   0.070   4.937   3.207 -0.4810 -1.2194  1.0444
 1715TIP3   OH2 5108   5.262   4.727   2.276  0.1302 -0.2080 -0.0621
 1715TIP3    H1 5109   5.288   4.761   2.190  0.1772  0.0763  0.0638
 1715TIP3    H2 5110   5.243   4.634   2.260  1.2205 -0.4240 -0.1488
 1716TIP3   OH2 5111   6.068   0.122   2.038  0.2573  0.0733 -0.1447
 1716TIP3    H1 5112   6.080   0.132   2.132 -0.7695 -0.5391  0.0664
 1716TIP3    H2 5113   6.109   0.200   2.000 -0.5244  1.0297  0.9067
 1717TIP3   OH2 5114   7.107  -0.006   4.521 -0.2110 -0.4609  0.1542
 1717TIP3    H1 5115   7.162   0.049   4.578  1.7362  0.2333 -2.2310
 1717TIP3    H2 5116   7.018   0.025   4.538  0.3908  0.4399  2.0243
 1718TIP3   OH2 5117   1.716   4.549   5.542 -0.2995 -0.3891  0.1400
 1718TIP3    H1 5118   1.681   4.540   5.631 -1.0419  0.1122 -0.0880
 1718TIP3    H2 5119   1.810   4.537   5.551 -0.0829  1.6689  1.3293
 1719TIP3   OH2 5120   3.396   5.578   1.735 -0.2533 -0.5703 -0.3958
 1719TIP3    H1 5121   3.415   5.670   1.756  0.2257 -0.6396 -0.5001
 1719TIP3    H2 5122   3.480   5.543   1.705 -0.9056 -0.4526 -2.5277
 1720TIP3   OH2 5123   4.974   4.905   3.314  0.2464  0.2227  0.2863
 1720TIP3    H1 5124   4.881   4.897   3.337 -0.2020  2.4893 -0.4793
 1720TIP3    H2 5125   4.985   4.846   3.240 -1.3740  1.9709 -1.4723
 1721TIP3   OH2 5126   6.464   5.932   1.315  0.2070  0.0981  0.1937
 1721TIP3    H1 5127   6.431   6.013   1.276  1.3740  0.7394  0.5136
 1721TIP3    H2 5128   6.474   5.952   1.408 -1.1664 -0.9758  0.6037
 1722TIP3   OH2 5129   1.500   0.170   0.913  0.7757 -0.0710  0.4680
 1722TIP3    H1 5130   1.569   0.220   0.957  0.6075  2.1969 -1.6510
 1722TIP3    H2 5131   1.546   0.106   0.860  1.2597  1.0064 -0.4379
 1723TIP3   OH2 5132   6.707   2.204   5.113  0.5442  0.3464  0.1331
 1723TIP3    H1 5133   6.801   2.187   5.119  0.4642  0.3154  1.4318
 1723TIP3    H2 5134   6.683   2.242   5.197 -0.8606 -0.9593  0.3811
 1724TIP3   OH2 5135   6.868   5.993   3.164  0.1863 -0.0481 -0.0485
 1724TIP3    H1 5136   6.811   5.917   3.158 -2.2484  1.7239 -1.3714
 1724TIP3    H2 5137   6.833   6.044   3.237 -2.3029  2.6501 -2.7962
 1725TIP3   OH2 5138   6.742   1.608   5.833  0.3167 -0.0693  0.7419
 1725TIP3    H1 5139   6.681   1.605   5.907  1.6718  1.5243  2.0101
 1725TIP3    H2 5140   6.780   1.520   5.830 -1.7708 -1.0143  0.0859
 1726TIP3   OH2 5141   3.654   2.799   4.919  0.0853 -0.1446  0.3138
 1726TIP3    H1 5142   3.657   2.800   4.824 -0.4426  0.4875  0.2989
 1726TIP3    H2 5143   3.629   2.888   4.944 -0.6693 -0.5350  1.0005
 1727TIP3   OH2 5144   3.547   3.171   0.346  0.2519 -0.0990  0.1123
 1727TIP3    H1 5145   3.554   3.266   0.338  1.6567 -0.2206 -0.3420
 1727TIP3    H2 5146   3.523   3.141   0.259  1.7180 -0.2940 -0.2500
 1728TIP3   OH2 5147   6.270   4.332   1.913  0.1858  0.6026  0.0838
 1728TIP3    H1 5148   6.290   4.258   1.856  0.3110  0.4812  0.2834
 1728TIP3    H2 5149   6.305   4.306   1.999 -1.4412  0.0845  0.6313
 1729TIP3   OH2 5150   0.184   2.710   3.800  0.0872  0.0841  0.7725
 1729TIP3    H1 5151   0.210   2.734   3.889 -0.1400  0.0258  0.8554
 1729TIP3    H2 5152   0.254   2.744   3.744  0.3277 -0.0535  0.9904
 1730TIP3   OH2 5153   6.802   5.311   3.865 -0.2307  0.0512  0.2318
 1730TIP3    H1 5154   6.762   5.398   3.859 -1.0528 -0.4043 -2.1784
 1730TIP3    H2 5155   6.774   5.267   3.784  3.2618 -1.1249 -0.5011
 1731TIP3   OH2 5156   1.574   3.694   1.834  0.6198 -0.5193 -0.1520
 1731TIP3    H1 5157   1.582   3.601   1.857  1.5433 -0.3150  0.3939
 1731TIP3    H2 5158   1.497   3.698   1.777  0.2109 -1.5264  0.3075
 1732TIP3   OH2 5159   3.423   3.506   1.178  0.3908 -0.0296 -0.0714
 1732TIP3    H1 5160   3.473   3.580   1.211  2.5607 -0.5027 -2.0341
 1732TIP3    H2 5161   3.348   3.545   1.134  0.6666  0.9055  0.2605
 1733TIP3   OH2 5162   6.486   5.130   1.333 -0.7700 -0.6611  0.1541
 1733TIP3    H1 5163   6.479   5.141   1.238 -0.3968 -0.3885  0.1535
 1733TIP3    H2 5164   6.535   5.049   1.344 -1.4308 -1.0691  0.1251
 1734TIP3   OH2 5165   6.190   0.287   2.801  0.3222 -0.2538  0.1662
 1734TIP3    H1 5166   6.173   0.380   2.783  0.4448 -0.4681 -1.1767
 1734TIP3    H2 5167   6.284   0.277   2.787  0.3595 -0.5257  0.6014
 1735TIP3   OH2 5168   5.646   6.241   4.223  0.5126 -0.2928  0.2537
 1735TIP3    H1 5169   5.641   6.152   4.257  0.8255 -0.2094  0.5329
 1735TIP3    H2 5170   5.738   6.265   4.232  0.9328 -0.8031 -2.0880
 1736TIP3   OH2 5171   1.324   1.338   1.058  0.5725 -0.3655  0.1236
 1736TIP3    H1 5172   1.280   1.272   1.111  3.0716 -1.4135  1.0735
 1736TIP3    H2 5173   1.316   1.419   1.108 -0.9416 -0.3242 -0.1495
 1737TIP3   OH2 5174   4.955   1.529   0.279 -0.0848 -0.1079 -0.1482
 1737TIP3    H1 5175   4.976   1.573   0.361  0.6469  0.2583 -0.5274
 1737TIP3    H2 5176   4.930   1.440   0.305  0.8759 -0.2230  0.4082
 1738TIP3   OH2 5177   6.143   3.072   4.402  0.0088 -0.2147  0.6483
 1738TIP3    H1 5178   6.193   3.064   4.321  0.6089  0.1938  0.9761
 1738TIP3    H2 5179   6.103   3.158   4.398 -1.7173 -1.0049 -0.1897
 1739TIP3   OH2 5180   3.788   3.148   3.723 -0.4606  0.2033  0.5109
 1739TIP3    H1 5181   3.732   3.160   3.646  2.2472  0.6890 -1.5094
 1739TIP3    H2 5182   3.769   3.059   3.753 -2.0586  0.2483 -0.2501
 1740TIP3   OH2 5183   1.432   4.048   3.386 -0.7867 -0.3717  0.1115
 1740TIP3    H1 5184   1.411   3.964   3.347 -1.1355 -1.2793  2.1480
 1740TIP3    H2 5185   1.442   4.030   3.479 -0.0921  1.7078  0.5001
 1741TIP3   OH2 5186   2.559   5.765   3.295  0.1671 -0.4923  0.1642
 1741TIP3    H1 5187   2.473   5.806   3.303  0.8898  1.0541  0.2957
 1741TIP3    H2 5188   2.550   5.705   3.221 -1.4728 -1.6043  1.2025
 1742TIP3   OH2 5189   4.241   4.685   0.120  0.0012 -0.3784  0.3696
 1742TIP3    H1 5190   4.272   4.707   0.032 -1.8949  2.2781  0.2288
 1742TIP3    H2 5191   4.243   4.768   0.168 -2.2229 -1.0239  1.7633
 1743TIP3   OH2 5192   5.035   3.227   1.784  0.1751 -0.0787 -0.4008
 1743TIP3    H1 5193   5.095   3.215   1.711 -1.0076  1.1956 -1.6378
 1743TIP3    H2 5194   4.968   3.160   1.772 -1.0072  1.2746 -1.5670
 1744TIP3   OH2 5195   3.907   3.254   2.858  0.2103  0.0416  0.1809
 1744TIP3    H1 5196   3.850   3.213   2.923 -3.0432  0.5819 -2.0748
 1744TIP3    H2 5197   3.903   3.347   2.879 -1.4808  0.3135 -1.0722
 1745TIP3   OH2 5198   1.685   5.381   5.023 -0.5636  0.2177 -0.3645
 1745TIP3    H1 5199   1.734   5.340   4.952 -1.2103  2.6550 -2.3502
 1745TIP3    H2 5200   1.630   5.311   5.059  2.8884 -2.1976  0.7906
 1746TIP3   OH2 5201   3.339   3.494   0.155 -0.0183 -0.0106  0.0707
 1746TIP3    H1 5202   3.302   3.517   0.070  0.1777 -0.9699 -0.2876
 1746TIP3    H2 5203   3.325   3.572   0.209  0.2883  0.7894 -0.9683
 1747TIP3   OH2 5204   4.643   5.611   2.214 -0.5458  0.1852 -0.0524
 1747TIP3    H1 5205   4.601   5.554   2.278  0.9200 -2.3837 -1.2313
 1747TIP3    H2 5206   4.599   5.592   2.132  1.7525 -1.4107 -1.0077
 1748TIP3   OH2 5207   2.155   0.567   2.816  0.0815 -0.3019 -0.3123
 1748TIP3    H1 5208   2.142   0.607   2.730 -2.1474 -0.4602 -0.1089
 1748TIP3    H2 5209   2.096   0.492   2.817  0.3230 -0.5083  1.2389
 1749TIP3   OH2 5210   1.979   5.465   1.953  0.0054  0.1473  0.2043
 1749TIP3    H1 5211   2.046   5.520   1.994 -0.0083 -1.8512  3.1353
 1749TIP3    H2 5212   1.934   5.525   1.893  1.8981  2.5206  0.9584
 1750TIP3   OH2 5213   2.730   6.306   5.452  0.0520  0.7332  0.0977
 1750TIP3    H1 5214   2.715   6.395   5.486  1.6766  0.6909  1.0603
 1750TIP3    H2 5215   2.671   6.251   5.504 -0.7537  1.1951 -0.3015
 1751TIP3   OH2 5216   2.865   5.104   1.909 -0.3081 -0.0297 -0.1462
 1751TIP3    H1 5217   2.856   5.190   1.869 -0.6862 -0.0133 -0.0372
 1751TIP3    H2 5218   2.803   5.106   1.982  0.9074  0.2247  0.9193
 1752TIP3   OH2 5219   2.299   0.896   2.638  0.2986  0.0068 -0.2208
 1752TIP3    H1 5220   2.368   0.829   2.639  0.2925 -0.0151 -0.9263
 1752TIP3    H2 5221   2.308   0.938   2.553 -0.1370  0.4515 -0.0485
 1753TIP3   OH2 5222   0.309   0.291   3.754 -0.0300 -0.1041 -0.2432
 1753TIP3    H1 5223   0.321   0.197   3.766  1.2445  0.0077 -0.5606
 1753TIP3    H2 5224   0.347   0.310   3.669  1.1582  0.9391  0.4781
 1754TIP3   OH2 5225   2.457   0.439   1.582  0.5861  0.2769 -0.3424
 1754TIP3    H1 5226   2.430   0.355   1.545 -0.6158 -0.1539  1.3535
 1754TIP3    H2 5227   2.375   0.487   1.594  0.7748  0.1192  2.2130
 1755TIP3   OH2 5228   3.231   1.254   4.775 -0.0830 -0.7804 -0.3255
 1755TIP3    H1 5229   3.184   1.182   4.816  1.2768 -1.5484 -0.0738
 1755TIP3    H2 5230   3.162   1.309   4.737 -1.2988 -0.8318  1.6820
 1756TIP3   OH2 5231   0.381   4.219   3.959 -0.1890 -0.0950  0.4976
 1756TIP3    H1 5232   0.419   4.149   3.906 -1.9237  0.0136 -0.9634
 1756TIP3    H2 5233   0.393   4.298   3.907 -1.9823  0.0048  0.1813
 1757TIP3   OH2 5234   0.227   6.706   5.790  0.3907 -0.2820 -0.0278
 1757TIP3    H1 5235   0.226   6.616   5.823 -2.4120 -0.0148  0.8938
 1757TIP3    H2 5236   0.159   6.707   5.722 -0.0404  1.2602  0.3883
 1758TIP3   OH2 5237   6.902   4.652   3.041  0.0435  0.3379  0.3734
 1758TIP3    H1 5238   6.824   4.692   3.081  0.3851  1.2449  0.1510
 1758TIP3    H2 5239   6.952   4.618   3.115  0.1612  1.0839  0.6447
 1759TIP3   OH2 5240   5.392   4.657   0.878  0.1176 -0.0602  0.3997
 1759TIP3    H1 5241   5.323   4.670   0.943  2.7162 -0.0403  3.4062
 1759TIP3    H2 5242   5.355   4.594   0.815 -2.6618  0.1367  1.7022
 1760TIP3   OH2 5243   5.113   6.569   4.006  0.0216 -0.0485 -0.0277
 1760TIP3    H1 5244   5.043   6.633   4.017 -2.3583 -2.3513 -0.6381
 1760TIP3    H2 5245   5.133   6.539   4.095  0.3012  0.6781  0.1587
 1761TIP3   OH2 5246   0.295   6.348   1.808 -0.0166  0.1061  0.0820
 1761TIP3    H1 5247   0.300   6.289   1.732  1.0484 -0.5676  0.6578
 1761TIP3    H2 5248   0.256   6.294   1.877 -0.2929  0.4967  0.2322
 1762TIP3   OH2 5249   6.703   3.689   0.248 -0.2281  0.0129 -0.0991
 1762TIP3    H1 5250   6.781   3.728   0.288 -0.0063  0.5248 -1.0231
 1762TIP3    H2 5251   6.631   3.746   0.276 -0.1979 -0.1425  0.3003
 1763TIP3   OH2 5252   5.596   1.402   4.217 -0.0537  0.2967 -0.8152
 1763TIP3    H1 5253   5.677   1.432   4.177  0.0543  1.1947  0.0441
 1763TIP3    H2 5254   5.527   1.431   4.157  0.1736  0.7894 -0.8438
 1764TIP3   OH2 5255   0.727   2.952   1.000 -0.0609  0.2841  0.9767
 1764TIP3    H1 5256   0.761   2.931   0.912 -1.6093 -1.0213  0.6299
 1764TIP3    H2 5257   0.687   3.039   0.990 -4.7702 -1.7169 -1.2031
 1765TIP3   OH2 5258   1.255   0.891   2.253 -0.1174 -0.6314 -0.7174
 1765TIP3    H1 5259   1.200   0.927   2.184  0.8059 -3.8273 -3.3859
 1765TIP3    H2 5260   1.219   0.804   2.269  1.5119 -1.0949  0.7040
 1766TIP3   OH2 5261   3.084   4.022   5.670 -0.6815  0.0837 -0.2625
 1766TIP3    H1 5262   3.106   4.069   5.750  1.6706 -0.0937 -0.7425
 1766TIP3    H2 5263   3.024   4.080   5.623 -0.1053  1.2937  0.4742
 1767TIP3   OH2 5264   6.876   1.506   1.199  0.3728  0.3564  0.8861
 1767TIP3    H1 5265   6.847   1.416   1.214  0.3795 -0.2102 -1.8642
 1767TIP3    H2 5266   6.799   1.559   1.218  0.1911 -0.2796  1.9834
 1768TIP3   OH2 5267   0.025   2.298  -0.014 -0.1007  0.0889  0.0654
 1768TIP3    H1 5268   0.077   2.270   0.061  1.9089 -1.4002 -1.7563
 1768TIP3    H2 5269  -0.060   2.255  -0.001  0.3884 -0.5857  1.2063
 1769TIP3   OH2 5270   5.152   2.892   4.743 -0.5487 -0.4086  0.0323
 1769TIP3    H1 5271   5.234   2.907   4.790 -0.5776 -0.2146  0.0224
 1769TIP3    H2 5272   5.084   2.919   4.805 -0.5898 -0.2317 -0.0905
 1770TIP3   OH2 5273   0.425   6.697   0.965  0.0123  0.0949 -0.5532
 1770TIP3    H1 5274   0.445   6.617   0.917  1.5603 -0.0161  0.1961
 1770TIP3    H2 5275   0.439   6.674   1.057 -1.0851  0.8058 -0.1855
 1771TIP3   OH2 5276   4.700   5.528   0.647  0.3654 -0.3230 -0.5867
 1771TIP3    H1 5277   4.608   5.514   0.670  0.9245 -1.6676  0.9739
 1771TIP3    H2 5278   4.728   5.598   0.707  0.1281  0.8439 -1.7816
 1772TIP3   OH2 5279   3.443   4.375   1.654 -0.1665  0.4301  0.1139
 1772TIP3    H1 5280   3.350   4.356   1.644 -0.2093  0.4780  0.4097
 1772TIP3    H2 5281   3.459   4.371   1.749  0.3939 -0.7980 -0.0103
 1773TIP3   OH2 5282   7.142   4.286   3.067 -0.1894  0.8010  0.3200
 1773TIP3    H1 5283   7.161   4.201   3.106 -0.1197  0.8076  0.3016
 1773TIP3    H2 5284   7.123   4.343   3.141  0.6836  1.0013  0.4020
 1774TIP3   OH2 5285   7.183   1.108   1.952 -0.2973 -0.3588  0.2138
 1774TIP3    H1 5286   7.107   1.159   1.983  0.2891  0.3993  0.4522
 1774TIP3    H2 5287   7.156   1.017   1.961 -1.4630 -0.1003 -0.4355
 1775TIP3   OH2 5288   0.874   2.594   1.344 -0.4419 -0.0634  0.0974
 1775TIP3    H1 5289   0.922   2.511   1.340 -0.0915  0.0683  1.2476
 1775TIP3    H2 5290   0.794   2.578   1.293  0.1528 -0.7389 -0.6473
 1776TIP3   OH2 5291   6.533   4.696   0.381  0.3345  0.2941  0.0920
 1776TIP3    H1 5292   6.623   4.685   0.413  0.9279 -0.1326 -1.5956
 1776TIP3    H2 5293   6.511   4.787   0.400  0.6476  0.0763  1.6273
 1777TIP3   OH2 5294   6.458   3.348   4.791 -0.1251 -0.4543  0.1012
 1777TIP3    H1 5295   6.545   3.348   4.752 -0.3478 -2.2018 -0.4955
 1777TIP3    H2 5296   6.469   3.306   4.876 -0.4877 -1.5517 -0.3602
 1778TIP3   OH2 5297   5.874   6.631   2.076 -0.4953 -0.4842  0.2133
 1778TIP3    H1 5298   5.949   6.688   2.061  0.4246 -1.7832 -0.3116
 1778TIP3    H2 5299   5.910   6.542   2.073 -2.7127 -1.6530 -5.7150
 1779TIP3   OH2 5300   0.797   0.069   3.581  0.2308 -0.2155 -0.3473
 1779TIP3    H1 5301   0.714   0.031   3.551  0.3150 -1.3668  0.7844
 1779TIP3    H2 5302   0.864   0.018   3.537  0.3473 -1.5340  1.2518
 1780TIP3   OH2 5303   2.901   3.442   2.257  0.4114 -0.2463  0.6614
 1780TIP3    H1 5304   2.838   3.468   2.324 -0.6725  1.0945 -0.8158
 1780TIP3    H2 5305   2.978   3.496   2.275 -0.3065  0.9936  0.1670
 1781TIP3   OH2 5306   4.099   1.908   0.398  0.0231  0.0597  0.1718
 1781TIP3    H1 5307   4.118   1.856   0.320 -0.4916  0.3484 -0.1551
 1781TIP3    H2 5308   4.185   1.928   0.435  0.2311 -1.0156  0.3124
 1782TIP3   OH2 5309   4.028   5.421   0.477  0.1246 -0.2483 -0.1075
 1782TIP3    H1 5310   3.936   5.410   0.497  0.0109 -0.0245 -0.5043
 1782TIP3    H2 5311   4.064   5.332   0.476 -0.0511 -0.3228  0.2028
 1783TIP3   OH2 5312   4.166   2.477   4.215 -0.1715 -0.2513 -0.3497
 1783TIP3    H1 5313   4.258   2.496   4.196 -0.2310  0.7591  0.2931
 1783TIP3    H2 5314   4.163   2.463   4.310 -0.5828 -0.9433 -0.4533
 1784TIP3   OH2 5315   3.337   4.379   2.677  0.0145 -0.0523  0.2981
 1784TIP3    H1 5316   3.328   4.312   2.745 -0.0617  1.3346  1.7357
 1784TIP3    H2 5317   3.375   4.334   2.602 -1.7795 -2.0876  0.5404
 1785TIP3   OH2 5318   6.389   5.888   3.676 -0.0723  0.2957 -0.0365
 1785TIP3    H1 5319   6.459   5.919   3.619  0.2317 -0.1823  0.0691
 1785TIP3    H2 5320   6.352   5.812   3.631  2.4315 -2.2869  1.8830
 1786TIP3   OH2 5321   4.598   0.254   1.504  0.4888 -0.2853  0.0651
 1786TIP3    H1 5322   4.668   0.319   1.498  0.1778  0.0202 -0.4106
 1786TIP3    H2 5323   4.518   0.305   1.489  0.2214 -0.7337 -0.0439
 1787TIP3   OH2 5324   6.944   3.184   2.824 -0.2279 -0.5641  0.5941
 1787TIP3    H1 5325   6.885   3.159   2.896  0.0173 -0.7969  0.7184
 1787TIP3    H2 5326   7.032   3.173   2.861 -0.1106  0.6471  0.7053
 1788TIP3   OH2 5327   2.032   0.920   1.436 -0.0913  0.7666  0.5989
 1788TIP3    H1 5328   2.125   0.927   1.416  0.0235  1.0684  1.1972
 1788TIP3    H2 5329   1.988   0.962   1.362  0.2046 -0.0319 -0.0427
 1789TIP3   OH2 5330   5.748   0.096   5.092 -0.0211  0.3157 -0.6602
 1789TIP3    H1 5331   5.735   0.187   5.119  1.0146  0.3006 -0.0469
 1789TIP3    H2 5332   5.721   0.044   5.168 -0.6984  0.1023 -1.0426
 1790TIP3   OH2 5333   2.878   1.301   2.107 -0.0560 -0.0758 -0.0871
 1790TIP3    H1 5334   2.973   1.302   2.124  0.1836  0.4932 -1.3533
 1790TIP3    H2 5335   2.857   1.392   2.086 -0.6285 -0.4472 -1.1500
 1791TIP3   OH2 5336   6.830   1.110   3.277 -0.1837  0.0849 -0.2737
 1791TIP3    H1 5337   6.805   1.036   3.331  0.5800 -1.4567 -1.9212
 1791TIP3    H2 5338   6.925   1.116   3.287 -0.3300  1.4198  0.5076
 1792TIP3   OH2 5339   6.422   5.383   3.145 -0.1787 -0.1564 -0.2694
 1792TIP3    H1 5340   6.414   5.458   3.204 -1.7218 -1.3562  1.1279
 1792TIP3    H2 5341   6.364   5.404   3.072 -0.3989  0.1362 -0.0124
 1793TIP3   OH2 5342   6.190   3.570   1.264 -0.2871  0.2099  0.3623
 1793TIP3    H1 5343   6.183   3.596   1.356  0.0260  0.6594  0.2672
 1793TIP3    H2 5344   6.284   3.579   1.245 -0.1428 -1.1568  0.3624
 1794TIP3   OH2 5345   6.530   0.342   5.344 -0.0067 -0.1901  0.0259
 1794TIP3    H1 5346   6.492   0.262   5.306 -0.6325 -0.5153  1.2801
 1794TIP3    H2 5347   6.489   0.413   5.294 -1.4386 -0.5785  0.5877
 1795TIP3   OH2 5348   6.427   6.732   2.629  0.3158  0.0686  0.3019
 1795TIP3    H1 5349   6.366   6.712   2.558  0.2165  0.2410  0.3393
 1795TIP3    H2 5350   6.513   6.725   2.589  0.2946 -0.6864  0.3725
 1796TIP3   OH2 5351   0.845   6.765   1.541 -0.7131 -0.1166 -0.0934
 1796TIP3    H1 5352   0.813   6.742   1.628  2.8354  3.4711  2.5459
 1796TIP3    H2 5353   0.881   6.684   1.506 -0.9494 -1.4297  2.4572
 1797TIP3   OH2 5354   5.821   5.721   0.328  0.2204 -0.1958 -0.1582
 1797TIP3    H1 5355   5.853   5.742   0.415  0.0918 -0.1486 -0.1229
 1797TIP3    H2 5356   5.770   5.797   0.302  0.2781 -0.1994 -0.2838
 1798TIP3   OH2 5357   1.542   3.665   4.225 -0.5231 -0.3473  0.6013
 1798TIP3    H1 5358   1.488   3.598   4.267  0.2775 -0.6250  1.1925
 1798TIP3    H2 5359   1.577   3.622   4.147  0.2763 -0.7326  1.1705
 1799TIP3   OH2 5360   0.720   1.332   2.413 -0.3964  0.5097 -0.0476
 1799TIP3    H1 5361   0.797   1.388   2.399 -1.6082  2.4223  0.4459
 1799TIP3    H2 5362   0.749   1.268   2.478  0.7808  1.2317  0.1761
 1800TIP3   OH2 5363   5.334   2.868   3.179  1.0943 -0.2819  0.2364
 1800TIP3    H1 5364   5.256   2.905   3.139  0.4419 -1.9374 -0.1282
 1800TIP3    H2 5365   5.332   2.898   3.270 -0.9658 -1.6973  0.7281
 1801TIP3   OH2 5366   0.707   2.278  -0.023 -0.6002 -0.0988  0.0066
 1801TIP3    H1 5367   0.695   2.362   0.022 -1.5617 -0.3327  0.2115
 1801TIP3    H2 5368   0.745   2.221   0.043 -1.5169 -0.2912  0.3869
 1802TIP3   OH2 5369   4.977   3.562   1.106 -0.2003  0.6003 -0.1727
 1802TIP3    H1 5370   5.008   3.648   1.078 -0.4075  0.1059 -2.0314
 1802TIP3    H2 5371   4.882   3.569   1.102 -0.2954  0.9142  1.7660
 1803TIP3   OH2 5372   6.433   2.146   1.065  0.5882  0.2929  0.0284
 1803TIP3    H1 5373   6.362   2.093   1.101 -0.5539  1.5574 -0.2626
 1803TIP3    H2 5374   6.406   2.165   0.975  1.6946  0.1213 -0.3531
 1804TIP3   OH2 5375   6.566   1.931   4.639 -0.0567 -0.4116  0.2606
 1804TIP3    H1 5376   6.476   1.917   4.608  0.3566  0.5892 -1.5149
 1804TIP3    H2 5377   6.592   2.015   4.601  1.6093 -0.6396  0.8066
 1805TIP3   OH2 5378   6.183   5.751   1.265  0.0212  0.0839 -0.1958
 1805TIP3    H1 5379   6.206   5.661   1.289  0.5563 -0.2653 -1.8396
 1805TIP3    H2 5380   6.229   5.806   1.328 -0.8324 -0.7837  1.2361
 1806TIP3   OH2 5381   4.655   2.443   2.335 -0.7633 -0.0834 -0.2006
 1806TIP3    H1 5382   4.623   2.353   2.340  0.2618 -0.6285 -2.1929
 1806TIP3    H2 5383   4.614   2.478   2.256  0.2648  0.5797 -0.4570
 1807TIP3   OH2 5384   4.833   3.285   2.966  0.3081 -0.1961  0.2340
 1807TIP3    H1 5385   4.831   3.334   2.884  0.9399 -0.3533  0.1206
 1807TIP3    H2 5386   4.883   3.206   2.946 -0.0257 -0.5156  0.6236
 1808TIP3   OH2 5387   6.558   4.643   5.762 -0.5749 -0.0716  0.0856
 1808TIP3    H1 5388   6.579   4.637   5.669 -1.9342 -2.7772 -0.1756
 1808TIP3    H2 5389   6.642   4.638   5.807 -0.0200 -0.8415 -0.9996
 1809TIP3   OH2 5390   6.077   2.993   4.984  0.4618 -0.0305 -0.4172
 1809TIP3    H1 5391   6.081   3.082   4.949 -1.0945  0.1899 -0.1151
 1809TIP3    H2 5392   5.994   2.958   4.950  0.6159 -1.0360  0.2129
 1810TIP3   OH2 5393   6.540   3.167   5.869  0.1570 -0.4503  0.7488
 1810TIP3    H1 5394   6.607   3.167   5.800  0.4258  0.9408  0.9714
 1810TIP3    H2 5395   6.469   3.222   5.834 -0.3261 -0.8971  1.0133
 1811TIP3   OH2 5396   2.959   2.290   0.575 -0.1895  0.0051  0.3868
 1811TIP3    H1 5397   3.004   2.339   0.644 -1.8483  1.7245  0.3179
 1811TIP3    H2 5398   2.878   2.339   0.560 -1.2472 -1.9978 -0.7289
 1812TIP3   OH2 5399   6.087   1.415   3.548  0.8901  0.3780  0.5920
 1812TIP3    H1 5400   6.001   1.375   3.539 -0.4207  2.6651  1.9301
 1812TIP3    H2 5401   6.147   1.341   3.560 -0.8159 -1.2851 -0.6307
 1813TIP3   OH2 5402   2.252   2.406   4.804  0.1717  0.0960 -0.0107
 1813TIP3    H1 5403   2.208   2.326   4.776 -0.7333  0.4177  0.4442
 1813TIP3    H2 5404   2.292   2.441   4.724  0.8309 -0.9577 -0.1512
 1814TIP3   OH2 5405   2.354   2.164   4.156 -0.1541  0.5255  0.4463
 1814TIP3    H1 5406   2.347   2.086   4.101 -0.4812  1.2889 -0.6524
 1814TIP3    H2 5407   2.448   2.174   4.172 -0.1443 -0.3063  0.9220
 1815TIP3   OH2 5408   2.701   3.871   2.848  0.3247 -0.6436 -0.0416
 1815TIP3    H1 5409   2.691   3.871   2.943 -1.6615 -1.4396 -0.2037
 1815TIP3    H2 5410   2.735   3.784   2.828 -1.7802 -1.4818 -0.2172
 1816TIP3   OH2 5411   6.153   0.693   4.491  0.3743  0.7410  0.3133
 1816TIP3    H1 5412   6.165   0.778   4.449 -1.3895  1.7984  1.7932
 1816TIP3    H2 5413   6.230   0.642   4.464  0.3306  1.9635 -2.5244
 1817TIP3   OH2 5414   6.355   5.756   4.531  0.2273 -0.1251 -0.1218
 1817TIP3    H1 5415   6.323   5.844   4.547 -0.8917 -0.1640 -1.8656
 1817TIP3    H2 5416   6.408   5.763   4.452 -2.9911 -1.5432 -2.6310
 1818TIP3   OH2 5417   5.234   3.325   0.919  0.4421 -0.1908  0.4785
 1818TIP3    H1 5418   5.301   3.301   0.856  0.6191 -0.5895  0.8128
 1818TIP3    H2 5419   5.282   3.358   0.995  0.2109  0.8630  0.1779
 1819TIP3   OH2 5420   2.659   4.021   1.639 -0.1536 -0.1368  0.2394
 1819TIP3    H1 5421   2.626   4.072   1.565  0.7945  0.1281 -0.0233
 1819TIP3    H2 5422   2.708   3.950   1.598  0.1901 -0.1143  0.6039
 1820TIP3   OH2 5423   4.320   6.749   0.400  0.1428 -0.6455  0.1547
 1820TIP3    H1 5424   4.317   6.758   0.495 -1.1168 -0.7153  0.1366
 1820TIP3    H2 5425   4.282   6.830   0.367  0.3721 -0.7143 -0.2886
 1821TIP3   OH2 5426   1.226   4.990   3.869 -0.0045 -0.4245  0.2618
 1821TIP3    H1 5427   1.165   5.059   3.843  0.4303 -0.0526  0.2073
 1821TIP3    H2 5428   1.173   4.927   3.918 -0.4580 -0.1833  0.0826
 1822TIP3   OH2 5429   3.653   4.482   5.642  0.2024 -0.2772 -0.1753
 1822TIP3    H1 5430   3.652   4.480   5.737  2.7110 -0.9273 -0.0725
 1822TIP3    H2 5431   3.657   4.575   5.620 -0.3036 -0.1277  0.3406
 1823TIP3   OH2 5432   3.474   4.028   3.296 -0.0091  0.1590  0.1019
 1823TIP3    H1 5433   3.445   4.029   3.205 -0.2228 -0.7430  0.1566
 1823TIP3    H2 5434   3.393   4.030   3.347  0.0856 -0.1210  0.2668
 1824TIP3   OH2 5435   6.799   1.996   0.911  0.2874 -0.6117  0.5441
 1824TIP3    H1 5436   6.882   1.971   0.951  0.5641 -4.4056 -1.8909
 1824TIP3    H2 5437   6.733   1.948   0.960 -0.1886  0.2746  0.7867
 1825TIP3   OH2 5438   5.678   5.776   0.742 -0.3485  0.1770  0.1491
 1825TIP3    H1 5439   5.610   5.759   0.677 -0.5468  0.6539  0.2358
 1825TIP3    H2 5440   5.678   5.697   0.797 -1.1714  0.3887  0.4592
 1826TIP3   OH2 5441   1.895   3.095   0.585 -0.1793  0.0821 -0.3980
 1826TIP3    H1 5442   1.950   3.086   0.663  0.1089  0.1404 -0.5927
 1826TIP3    H2 5443   1.884   3.006   0.553  1.4064  0.2061 -1.4523
 1827TIP3   OH2 5444   4.017   6.592   0.323 -0.1554  0.4504 -0.4050
 1827TIP3    H1 5445   3.972   6.518   0.282  0.8526  0.2947 -1.2772
 1827TIP3    H2 5446   3.947   6.653   0.347 -0.8284  0.2956 -1.8829
 1828TIP3   OH2 5447   4.746   3.789   5.741  0.0874 -0.1540 -0.1878
 1828TIP3    H1 5448   4.827   3.755   5.780 -0.6555  0.5549  2.1137
 1828TIP3    H2 5449   4.683   3.717   5.752  0.1160 -0.3176 -1.0331
 1829TIP3   OH2 5450   2.092   4.759  -0.004 -0.2235  0.3769  0.0606
 1829TIP3    H1 5451   2.133   4.780   0.080  1.4049  0.6770 -0.7679
 1829TIP3    H2 5452   2.028   4.691   0.017 -0.4313  1.0123  1.6560
 1830TIP3   OH2 5453   7.004   1.262   2.071 -0.5392  0.0208 -0.3159
 1830TIP3    H1 5454   7.047   1.347   2.064 -1.8108  0.7511  0.5702
 1830TIP3    H2 5455   6.976   1.255   2.162 -1.7489 -0.6930 -0.7120
 1831TIP3   OH2 5456   4.000   3.850   1.867  0.6251  0.4391 -0.0871
 1831TIP3    H1 5457   3.977   3.846   1.960  1.1888  0.5232  0.0598
 1831TIP3    H2 5458   4.012   3.758   1.842 -2.7550  0.0923 -0.9351
 1832TIP3   OH2 5459   0.496   0.272   5.635  0.2810  0.0681 -0.1255
 1832TIP3    H1 5460   0.574   0.311   5.595  0.2326  1.1980  0.8560
 1832TIP3    H2 5461   0.525   0.186   5.665  0.6997 -0.2050 -1.2455
 1833TIP3   OH2 5462   4.045   3.154   3.230 -0.0501  0.6200  0.1930
 1833TIP3    H1 5463   4.139   3.152   3.252  0.2305  0.8204 -0.9304
 1833TIP3    H2 5464   4.009   3.077   3.274  0.8297 -0.0082 -0.1498
 1834TIP3   OH2 5465   0.601   5.813   2.646 -0.0046 -0.0822 -0.0459
 1834TIP3    H1 5466   0.626   5.905   2.633 -0.5038  0.1794  0.7564
 1834TIP3    H2 5467   0.657   5.783   2.718 -1.1915  0.1913  1.0333
 1835TIP3   OH2 5468   5.841   1.987   3.823  0.3054 -0.1439 -0.1692
 1835TIP3    H1 5469   5.868   1.897   3.805 -0.3637 -0.5764  0.9319
 1835TIP3    H2 5470   5.756   1.996   3.780 -0.1897 -0.4275  0.7407
 1836TIP3   OH2 5471   3.077   3.315   4.741  0.0460 -0.1113 -0.3562
 1836TIP3    H1 5472   3.138   3.387   4.721  1.5926 -0.9811  0.9325
 1836TIP3    H2 5473   3.057   3.276   4.656  0.3392  0.9402 -0.9298
 1837TIP3   OH2 5474   5.942   2.332   2.975  0.4792 -0.1897  0.0317
 1837TIP3    H1 5475   5.919   2.419   3.009  0.1286 -0.5389  0.7191
 1837TIP3    H2 5476   5.869   2.307   2.919  0.3296 -0.2644  0.2594
 1838TIP3   OH2 5477   2.111   4.918   2.827 -0.3102 -0.0988 -0.2186
 1838TIP3    H1 5478   2.134   4.989   2.888 -0.1312 -0.4964  0.1830
 1838TIP3    H2 5479   2.086   4.845   2.883 -0.1736 -0.4640 -0.6269
 1839TIP3   OH2 5480   5.166   3.383   3.800 -0.2185 -0.3135 -0.5488
 1839TIP3    H1 5481   5.077   3.379   3.767 -0.4793  0.2454  0.0653
 1839TIP3    H2 5482   5.160   3.436   3.879  0.7945  0.4587 -0.9643
 1840TIP3   OH2 5483   5.986   0.683   1.943  0.0502 -0.2084 -0.5374
 1840TIP3    H1 5484   5.938   0.737   1.881 -0.3256 -0.4621 -0.4692
 1840TIP3    H2 5485   6.077   0.713   1.935  0.0228 -0.2949 -1.2660
 1841TIP3   OH2 5486   3.544   3.811   4.283 -0.0874 -0.2144  0.4227
 1841TIP3    H1 5487   3.594   3.730   4.292 -1.1151 -0.9161  0.0125
 1841TIP3    H2 5488   3.453   3.783   4.280 -0.4553  0.9509  0.0611
 1842TIP3   OH2 5489   6.203   4.654   2.981  0.3266 -0.2068 -0.4907
 1842TIP3    H1 5490   6.247   4.596   3.043 -0.9951 -0.4580  0.2551
 1842TIP3    H2 5491   6.111   4.625   2.983 -0.2709  1.6114 -0.4417
 1843TIP3   OH2 5492   5.961   6.799   1.830  0.6129 -0.3784 -0.3676
 1843TIP3    H1 5493   5.998   6.714   1.808  0.6147 -0.4306 -0.1652
 1843TIP3    H2 5494   5.961   6.848   1.747  1.2585 -0.3342 -0.3472
 1844TIP3   OH2 5495   5.439   3.847   0.587 -0.0778 -0.7608  0.1009
 1844TIP3    H1 5496   5.503   3.840   0.658  0.3368  0.8951 -0.0591
 1844TIP3    H2 5497   5.481   3.904   0.523 -1.9472  0.9712  0.3070
 1845TIP3   OH2 5498   0.229   2.970   0.183  0.5054 -0.6074  0.1669
 1845TIP3    H1 5499   0.296   2.906   0.161  0.0384 -1.4487  1.0892
 1845TIP3    H2 5500   0.152   2.941   0.134  0.4552 -0.3986  0.1202
 1846TIP3   OH2 5501   0.695   1.057   5.523 -0.4788  0.6010  0.2262
 1846TIP3    H1 5502   0.630   0.993   5.552 -0.9679  0.5789 -0.8551
 1846TIP3    H2 5503   0.651   1.103   5.451  0.4617  1.0512 -0.0648
 1847TIP3   OH2 5504   5.456   0.029   0.952 -0.3414 -0.5121  0.2266
 1847TIP3    H1 5505   5.464  -0.009   1.040 -1.3328 -0.8616  0.1847
 1847TIP3    H2 5506   5.377  -0.013   0.916  0.5995 -1.1065 -1.2008
 1848TIP3   OH2 5507   0.898   4.497   4.432 -0.3027 -0.1757  0.6784
 1848TIP3    H1 5508   0.922   4.557   4.502  3.3078  1.5067 -1.7153
 1848TIP3    H2 5509   0.822   4.538   4.391 -0.8405  0.1626  1.9384
 1849TIP3   OH2 5510   0.906   0.670   5.616 -0.1697  0.1217 -0.1190
 1849TIP3    H1 5511   0.945   0.609   5.554  1.6534  0.8770  0.2173
 1849TIP3    H2 5512   0.927   0.634   5.702  0.6815  1.0364  0.0798
 1850TIP3   OH2 5513   1.245   2.741   1.103 -0.0254 -0.0304 -0.3518
 1850TIP3    H1 5514   1.267   2.655   1.139  1.2075 -0.0712 -1.1646
 1850TIP3    H2 5515   1.199   2.722   1.021 -0.9461  0.0919  0.1168
 1851TIP3   OH2 5516   5.798   3.674   0.170  0.2726  0.3948 -0.3392
 1851TIP3    H1 5517   5.776   3.614   0.098 -1.0488 -0.1455  0.4905
 1851TIP3    H2 5518   5.838   3.618   0.236  0.7715  0.7668 -0.3171
 1852TIP3   OH2 5519   4.206   0.685   4.545 -0.1652 -0.1265  0.1781
 1852TIP3    H1 5520   4.206   0.720   4.456  0.0589  0.6674  0.4807
 1852TIP3    H2 5521   4.254   0.750   4.597  1.1092 -1.3526  0.5904
 1853TIP3   OH2 5522   3.824   3.121   1.330 -0.5417  0.2474 -0.7069
 1853TIP3    H1 5523   3.917   3.107   1.346 -0.7921 -0.6996 -0.0110
 1853TIP3    H2 5524   3.782   3.098   1.413 -1.4698 -0.2848 -1.3117
 1854TIP3   OH2 5525   5.597   6.376   4.688 -0.3528 -0.1411  0.4086
 1854TIP3    H1 5526   5.544   6.297   4.679  1.0639 -0.9203 -2.0884
 1854TIP3    H2 5527   5.534   6.448   4.683 -1.4957 -1.0801  0.9579
 1855TIP3   OH2 5528   6.292   6.282   5.286 -0.4875  0.0663 -0.6498
 1855TIP3    H1 5529   6.227   6.243   5.346 -1.6123 -0.1246 -1.9389
 1855TIP3    H2 5530   6.331   6.207   5.242 -0.6550  0.2583 -1.1299
 1856TIP3   OH2 5531   3.187   6.088   1.426 -0.1586 -0.2538 -0.0399
 1856TIP3    H1 5532   3.094   6.069   1.417  0.0055 -1.6028  0.7723
 1856TIP3    H2 5533   3.229   6.002   1.434  1.1255  0.3340 -0.0708
 1857TIP3   OH2 5534   0.874   3.579   3.584 -0.0338 -0.6020 -0.3430
 1857TIP3    H1 5535   0.872   3.576   3.680  1.8848 -1.2288 -0.2931
 1857TIP3    H2 5536   0.959   3.543   3.560 -0.3154 -0.0945 -2.2889
 1858TIP3   OH2 5537   2.281   1.593   2.497  0.6779 -0.2123  0.3389
 1858TIP3    H1 5538   2.232   1.514   2.475  1.5911 -0.1639 -2.0737
 1858TIP3    H2 5539   2.213   1.660   2.510 -0.1037 -1.3220  2.4666
 1859TIP3   OH2 5540   4.214   4.670   3.057 -0.7022  0.0116  0.7781
 1859TIP3    H1 5541   4.152   4.604   3.088 -0.6029  0.0960  1.1649
 1859TIP3    H2 5542   4.279   4.676   3.127 -0.0920 -0.2940  0.2439
 1860TIP3   OH2 5543   4.773   6.695   4.797 -0.0157  0.8766 -0.4530
 1860TIP3    H1 5544   4.793   6.661   4.884  0.2298  1.5800 -0.2255
 1860TIP3    H2 5545   4.840   6.657   4.740  0.5118  1.3004 -0.1271
 1861TIP3   OH2 5546   4.975   6.093   4.795  0.4354 -0.4937  0.0737
 1861TIP3    H1 5547   4.992   6.067   4.885  1.4680  2.2774  0.7809
 1861TIP3    H2 5548   5.015   6.023   4.742 -0.2761 -2.2229  1.6978
 1862TIP3   OH2 5549   5.735   2.420   1.778 -0.1733 -0.8816 -0.8290
 1862TIP3    H1 5550   5.759   2.503   1.819 -1.7263 -0.5464 -0.5583
 1862TIP3    H2 5551   5.721   2.442   1.686  3.6854 -1.6993 -1.8099
 1863TIP3   OH2 5552   6.367   5.829   4.115  0.4512 -0.3211 -0.5415
 1863TIP3    H1 5553   6.337   5.918   4.093  0.5317 -0.0111  0.5297
 1863TIP3    H2 5554   6.297   5.793   4.168  0.3629 -0.9637 -1.0788
 1864TIP3   OH2 5555   1.089   4.131   3.411  0.1230 -0.9800 -0.1132
 1864TIP3    H1 5556   1.103   4.089   3.496  0.5157 -1.3684 -0.3679
 1864TIP3    H2 5557   1.121   4.068   3.347 -0.0701 -0.6446 -0.5489
 1865TIP3   OH2 5558   5.032   4.718   3.137 -0.6261  0.5260 -0.2080
 1865TIP3    H1 5559   5.127   4.711   3.145 -0.5141  1.0098 -1.0247
 1865TIP3    H2 5560   5.015   4.709   3.043 -1.4323 -0.0465 -0.0147
 1866TIP3   OH2 5561   0.910   0.537   0.109 -0.5208 -0.5327 -0.0440
 1866TIP3    H1 5562   0.956   0.466   0.064 -0.0237  0.3900 -1.0090
 1866TIP3    H2 5563   0.956   0.547   0.192  0.6083 -0.0744 -0.7140
 1867TIP3   OH2 5564   1.404   5.355   3.440 -0.3917 -0.4825 -0.0721
 1867TIP3    H1 5565   1.490   5.335   3.476 -0.8229  1.0725  2.0091
 1867TIP3    H2 5566   1.422   5.416   3.368  0.2875 -0.7123 -0.0998
 1868TIP3   OH2 5567   3.256   3.842   4.208  0.3105  0.3906  0.0773
 1868TIP3    H1 5568   3.244   3.936   4.224 -1.7510  0.2046 -0.1093
 1868TIP3    H2 5569   3.257   3.835   4.112  1.1614  0.2950  0.0927
 1869TIP3   OH2 5570   2.111   3.481   5.505 -0.6497 -0.1568 -0.0910
 1869TIP3    H1 5571   2.139   3.493   5.595  0.4603  2.8553 -0.7112
 1869TIP3    H2 5572   2.048   3.408   5.509 -2.2050  1.1296  3.4357
 1870TIP3   OH2 5573   3.232   1.104   5.154 -0.7106  0.0481 -0.4267
 1870TIP3    H1 5574   3.167   1.114   5.084 -0.4426  0.6402 -0.5917
 1870TIP3    H2 5575   3.261   1.013   5.146 -0.2539  0.2674 -1.4698
 1871TIP3   OH2 5576   5.259   2.962   4.488  0.5572 -0.0803  0.0545
 1871TIP3    H1 5577   5.194   2.941   4.555 -0.9244 -1.0856 -1.5991
 1871TIP3    H2 5578   5.321   2.890   4.491  0.3342 -0.2685  0.1651
 1872TIP3   OH2 5579   3.158   0.318   1.605 -0.6883 -0.4590 -0.1637
 1872TIP3    H1 5580   3.067   0.301   1.632 -1.0502  2.0892  0.4982
 1872TIP3    H2 5581   3.154   0.403   1.560  1.3504 -0.3355 -0.2045
 1873TIP3   OH2 5582   0.594   5.921   3.257  0.1652  0.0608 -0.4797
 1873TIP3    H1 5583   0.624   5.921   3.166 -0.3906  1.3101 -0.6925
 1873TIP3    H2 5584   0.656   5.864   3.302 -0.7787 -2.2970 -1.9864
 1874TIP3   OH2 5585   4.896   5.075   2.205 -0.0972 -0.4095  0.0072
 1874TIP3    H1 5586   4.803   5.070   2.226  0.0245 -0.8882  0.4682
 1874TIP3    H2 5587   4.937   5.010   2.263  0.5711  0.0945  0.1174
 1875TIP3   OH2 5588   4.704   1.280   3.911  0.3932 -0.1880  0.0633
 1875TIP3    H1 5589   4.736   1.369   3.902 -0.7268  0.0955 -1.4883
 1875TIP3    H2 5590   4.780   1.225   3.893  0.2477  0.4711 -3.0756
 1876TIP3   OH2 5591   2.005   3.310   2.983 -0.1636 -0.0639 -0.5676
 1876TIP3    H1 5592   2.099   3.317   2.968  0.0119  0.7404  0.7595
 1876TIP3    H2 5593   1.991   3.351   3.068 -2.0245  1.9078 -1.7288
 1877TIP3   OH2 5594   2.884   2.033   3.809 -0.2818  0.0416  0.1242
 1877TIP3    H1 5595   2.841   2.020   3.893  2.3246 -1.5304  1.3389
 1877TIP3    H2 5596   2.917   2.123   3.812  0.9968 -0.4263  1.4673
 1878TIP3   OH2 5597   3.198   5.080   2.347  0.1860 -0.2583  0.3905
 1878TIP3    H1 5598   3.117   5.125   2.321 -0.4540 -2.4289 -1.8069
 1878TIP3    H2 5599   3.265   5.116   2.290  0.1022 -0.5925  0.0743
 1879TIP3   OH2 5600   5.397   2.953   3.452  0.5310  0.4383  0.6760
 1879TIP3    H1 5601   5.424   2.869   3.490  0.6768  0.8308  1.4756
 1879TIP3    H2 5602   5.466   3.014   3.479  0.7882  0.6799 -0.4913
 1880TIP3   OH2 5603   6.496   4.080   4.063 -0.5367  0.2228  0.4118
 1880TIP3    H1 5604   6.589   4.065   4.083 -0.3701 -1.2572 -1.2216
 1880TIP3    H2 5605   6.449   4.033   4.132 -0.0413 -1.0069 -0.0676
 1881TIP3   OH2 5606   4.771   5.932   1.865  0.0677  0.0495  0.1155
 1881TIP3    H1 5607   4.716   5.920   1.943  0.0010  1.1503  0.2579
 1881TIP3    H2 5608   4.840   5.867   1.874 -1.2559 -1.4722 -0.1346
 1882TIP3   OH2 5609   5.906   0.468   2.735 -0.3686 -0.4501  0.3505
 1882TIP3    H1 5610   5.894   0.518   2.816 -1.9248 -0.1519 -0.0333
 1882TIP3    H2 5611   5.897   0.533   2.665  0.3363 -0.8085 -0.0796
 1883TIP3   OH2 5612   1.253   0.044   3.646 -0.2657  0.0520 -0.2530
 1883TIP3    H1 5613   1.243  -0.051   3.642  0.5762 -0.0116 -3.5099
 1883TIP3    H2 5614   1.324   0.063   3.585  0.2574  2.7349  1.0519
 1884TIP3   OH2 5615   4.757   6.435   0.657 -0.0082  0.1013  0.4257
 1884TIP3    H1 5616   4.775   6.497   0.586 -0.0311 -0.2399  0.1165
 1884TIP3    H2 5617   4.692   6.375   0.620 -0.3454  0.1767  0.8829
 1885TIP3   OH2 5618   7.169   6.784   3.768 -0.5925 -0.2442 -0.2124
 1885TIP3    H1 5619   7.112   6.718   3.729 -0.2560  0.0002 -1.1426
 1885TIP3    H2 5620   7.109   6.855   3.794 -0.9675 -0.9374  0.8943
 1886TIP3   OH2 5621   0.968   1.553   1.403  0.5670  0.5930  0.0772
 1886TIP3    H1 5622   0.936   1.477   1.450 -2.0423  1.6410  0.1944
 1886TIP3    H2 5623   0.910   1.624   1.430  1.9691  2.2954 -1.1382
 1887TIP3   OH2 5624   4.291   0.716   1.398 -0.1738 -0.1081 -0.1767
 1887TIP3    H1 5625   4.356   0.778   1.365  0.0421 -0.6038 -0.6909
 1887TIP3    H2 5626   4.221   0.771   1.432  0.8088  0.4444  1.0139
 1888TIP3   OH2 5627   1.321   2.889   4.707 -0.6582 -0.3813 -0.0243
 1888TIP3    H1 5628   1.346   2.809   4.660  0.7503 -0.2260  0.4146
 1888TIP3    H2 5629   1.318   2.956   4.639 -0.2601 -0.4885 -0.1540
 1889TIP3   OH2 5630   4.806   0.445   1.558 -0.0647 -0.3330  0.1026
 1889TIP3    H1 5631   4.766   0.469   1.642  1.9257  2.8194  0.3194
 1889TIP3    H2 5632   4.891   0.407   1.583 -0.4866 -1.7125 -0.4767
 1890TIP3   OH2 5633   4.128   5.755   3.036 -0.4025 -0.1168  0.4100
 1890TIP3    H1 5634   4.180   5.790   3.108  0.6396 -1.2594  0.2332
 1890TIP3    H2 5635   4.107   5.832   2.982  0.7908  0.4177  0.6795
 1891TIP3   OH2 5636   4.020   4.992   0.797  0.2691  0.2712  0.2475
 1891TIP3    H1 5637   4.021   4.965   0.705  0.9912  1.6040 -0.1814
 1891TIP3    H2 5638   3.986   4.917   0.845 -0.3674 -0.3585 -1.1401
 1892TIP3   OH2 5639   3.593   6.252   1.141 -0.1044  0.3136  0.2023
 1892TIP3    H1 5640   3.528   6.219   1.204 -0.2398 -1.6333 -0.8881
 1892TIP3    H2 5641   3.573   6.346   1.135 -0.5167  0.4525  2.5115
 1893TIP3   OH2 5642   3.953   2.501   1.353  0.1060  0.2557 -0.0585
 1893TIP3    H1 5643   3.939   2.591   1.325 -1.3956  0.0977  0.1049
 1893TIP3    H2 5644   4.000   2.460   1.281  2.2172  1.5451  0.5186
 1894TIP3   OH2 5645   4.066   1.724   1.310 -0.3025  0.4421  0.1587
 1894TIP3    H1 5646   4.106   1.778   1.241  2.6329 -0.4199  1.0148
 1894TIP3    H2 5647   4.005   1.667   1.264 -0.5589  1.8468 -1.3040
 1895TIP3   OH2 5648   6.885   2.049   5.370  0.1763  0.3036 -0.0194
 1895TIP3    H1 5649   6.968   2.020   5.332  0.5434  2.2794 -0.8055
 1895TIP3    H2 5650   6.889   2.017   5.461  1.4150 -0.3449 -0.2672
 1896TIP3   OH2 5651   3.023   0.793   2.609 -0.3227 -0.2421  0.1418
 1896TIP3    H1 5652   3.068   0.876   2.624 -0.5930 -0.2054  0.8108
 1896TIP3    H2 5653   3.049   0.738   2.684 -0.8417 -0.4511  0.1743
 1897TIP3   OH2 5654   0.447   0.087   5.055  0.3690  0.2877  0.2330
 1897TIP3    H1 5655   0.490   0.055   5.135  0.0365 -1.1565 -0.1371
 1897TIP3    H2 5656   0.354   0.077   5.073  0.3006 -0.4407 -0.4657
 1898TIP3   OH2 5657   3.946   0.246   5.199  0.0543 -0.0567  0.0118
 1898TIP3    H1 5658   3.932   0.322   5.142 -3.7320  1.2709  2.3078
 1898TIP3    H2 5659   4.021   0.269   5.253 -0.8368  2.0384  0.4560
 1899TIP3   OH2 5660   4.958   0.658   0.645 -0.1687  0.4735 -0.2677
 1899TIP3    H1 5661   4.949   0.599   0.570 -1.6241  0.7620 -0.3543
 1899TIP3    H2 5662   4.982   0.743   0.607 -1.6768  0.8191 -0.5265
 1900TIP3   OH2 5663   1.689   1.606   3.437 -1.0031  0.3476  0.1477
 1900TIP3    H1 5664   1.705   1.597   3.531 -0.2415 -1.1707 -0.0968
 1900TIP3    H2 5665   1.729   1.528   3.398  0.6436  2.0041 -1.6823
 1901TIP3   OH2 5666   3.964   2.403   0.385  0.2890  0.1837  0.1106
 1901TIP3    H1 5667   3.934   2.466   0.451 -1.8685  1.9145 -2.3046
 1901TIP3    H2 5668   4.052   2.433   0.363  0.9306 -0.2480  1.9214
 1902TIP3   OH2 5669   3.983   0.569   1.308 -0.1672 -0.4131  0.3216
 1902TIP3    H1 5670   3.995   0.530   1.395 -1.9503  0.6265  1.0962
 1902TIP3    H2 5671   4.034   0.513   1.249  2.3665 -0.2698  2.2006
 1903TIP3   OH2 5672   1.936   2.678   4.286 -0.2131 -0.4150  0.0098
 1903TIP3    H1 5673   1.866   2.633   4.334 -1.1997  0.8700 -0.1610
 1903TIP3    H2 5674   1.941   2.765   4.326  2.0624 -0.8178  0.7267
 1904TIP3   OH2 5675   1.932   3.643   5.015 -0.2114 -0.1161 -0.1923
 1904TIP3    H1 5676   1.951   3.549   5.023  2.6364  0.3393 -0.4892
 1904TIP3    H2 5677   2.017   3.685   5.029 -1.2645  2.3925 -0.8849
 1905TIP3   OH2 5678   2.101   4.420   0.637  0.2166 -0.4669  0.0447
 1905TIP3    H1 5679   2.029   4.450   0.581  0.2979 -3.7543 -2.1134
 1905TIP3    H2 5680   2.064   4.347   0.687  2.4675 -4.8652 -3.8185
 1906TIP3   OH2 5681   2.701   6.757   0.015  0.4440  0.2341 -0.2764
 1906TIP3    H1 5682   2.697   6.686  -0.049 -0.5782  1.0835 -1.1698
 1906TIP3    H2 5683   2.617   6.754   0.060 -0.3928  2.0578 -1.6291
 1907TIP3   OH2 5684   4.673   4.644   3.584  0.5145  0.1212  0.6870
 1907TIP3    H1 5685   4.711   4.726   3.615  0.0943  0.8940 -0.7387
 1907TIP3    H2 5686   4.588   4.640   3.626  0.0529  1.0307 -0.1047
 1908TIP3   OH2 5687   7.059   2.031   3.647  0.1043 -0.1489  0.4279
 1908TIP3    H1 5688   7.128   2.094   3.668 -0.7804  1.3204 -0.8649
 1908TIP3    H2 5689   7.103   1.959   3.603  0.6092  1.8369 -2.5431
 1909TIP3   OH2 5690   5.098   6.177   1.077  0.0757  0.2325 -0.6179
 1909TIP3    H1 5691   5.050   6.144   1.152 -0.0902  0.8532 -0.4488
 1909TIP3    H2 5692   5.188   6.186   1.108 -0.0056  0.5503 -0.4732
 1910TIP3   OH2 5693   6.474   5.903   0.697  0.3880 -0.2213  0.3876
 1910TIP3    H1 5694   6.550   5.884   0.642  0.5821 -1.7279  1.1161
 1910TIP3    H2 5695   6.510   5.910   0.785 -0.2682 -0.6113  0.6932
 1911TIP3   OH2 5696   0.768   4.976   3.652  0.2677  0.4810 -0.1719
 1911TIP3    H1 5697   0.722   5.031   3.589  0.4293 -0.4294 -1.1237
 1911TIP3    H2 5698   0.711   4.975   3.729 -0.2574  1.0915 -0.5399
 1912TIP3   OH2 5699   5.559   3.970   4.092  0.3706  0.4550 -0.1395
 1912TIP3    H1 5700   5.547   3.992   4.000 -1.7236 -0.6306 -0.1690
 1912TIP3    H2 5701   5.482   3.918   4.116  0.7055  0.9202  2.2969
 1913TIP3   OH2 5702   3.025   1.291   1.408 -0.8828  0.3855 -0.6884
 1913TIP3    H1 5703   2.961   1.220   1.412 -0.4032 -0.0881 -1.3909
 1913TIP3    H2 5704   3.086   1.266   1.338 -0.3086  1.1496 -0.4784
 1914TIP3   OH2 5705   0.407   1.350   0.968  0.3415 -0.6799 -0.0148
 1914TIP3    H1 5706   0.405   1.271   0.915 -2.0576 -1.5499  1.2341
 1914TIP3    H2 5707   0.315   1.376   0.975  0.3685 -1.1001  4.3172
 1915TIP3   OH2 5708   0.122   2.949   1.805  0.2339 -0.1624 -0.1980
 1915TIP3    H1 5709   0.193   2.986   1.752  2.3698 -0.2917  2.3349
 1915TIP3    H2 5710   0.057   3.019   1.811  1.2762  0.8756 -0.6375
 1916TIP3   OH2 5711   6.011   5.156   1.158  0.4677 -0.1974  0.1272
 1916TIP3    H1 5712   6.054   5.074   1.181  4.1465  1.3668 -0.5292
 1916TIP3    H2 5713   6.039   5.218   1.225 -1.2879  0.8779 -0.0473
 1917TIP3   OH2 5714   3.172   0.935   1.815  0.1481  0.1208  0.3701
 1917TIP3    H1 5715   3.228   0.867   1.778  0.0459 -0.6240  1.5452
 1917TIP3    H2 5716   3.177   1.007   1.752  0.6800 -0.7622 -0.6278
 1918TIP3   OH2 5717   7.047   5.580   0.564 -0.3999  0.6629  0.0937
 1918TIP3    H1 5718   7.043   5.662   0.515 -0.9680  0.5155 -0.1242
 1918TIP3    H2 5719   6.971   5.584   0.622  0.2762  0.8369  0.9691
 1919TIP3   OH2 5720   5.858   1.702   3.266 -0.4261  0.2748  0.0458
 1919TIP3    H1 5721   5.836   1.660   3.349  0.8881 -1.3440 -0.3822
 1919TIP3    H2 5722   5.925   1.767   3.288  0.0214 -0.2497  0.2395
 1920TIP3   OH2 5723   1.074   0.010   5.200 -0.0778  0.0486 -0.2880
 1920TIP3    H1 5724   1.160   0.039   5.168 -0.7557 -0.5674 -2.9239
 1920TIP3    H2 5725   1.088  -0.009   5.293  2.5433  0.3051 -0.5522
 1921TIP3   OH2 5726   6.890   1.162   5.142  0.4741  0.5303  0.0471
 1921TIP3    H1 5727   6.966   1.135   5.192  0.7416  0.2145 -0.5199
 1921TIP3    H2 5728   6.849   1.230   5.195  1.4512  1.0883  0.1170
 1922TIP3   OH2 5729   5.533   0.841   3.818  0.9142 -0.5993 -0.2890
 1922TIP3    H1 5730   5.583   0.908   3.866 -0.6627 -0.7170  1.6563
 1922TIP3    H2 5731   5.515   0.773   3.883 -1.5464 -0.6612 -0.9333
 1923TIP3   OH2 5732   0.353   2.460   0.018  0.3150 -0.0768 -0.2819
 1923TIP3    H1 5733   0.270   2.491  -0.018  0.9998  1.7390 -0.4108
 1923TIP3    H2 5734   0.343   2.470   0.113  0.6407  0.8925 -0.3390
 1924TIP3   OH2 5735   3.302   3.707   4.865 -0.2541  0.3781  0.1085
 1924TIP3    H1 5736   3.232   3.701   4.930  0.0313  0.6135  0.4385
 1924TIP3    H2 5737   3.270   3.655   4.791 -0.3072 -0.4142  0.6797
 1925TIP3   OH2 5738   4.455   4.570   0.852  0.1588 -0.1044  0.3223
 1925TIP3    H1 5739   4.374   4.608   0.818 -0.1218 -1.6984 -0.8908
 1925TIP3    H2 5740   4.522   4.636   0.835 -0.6654  0.7285  0.2409
 1926TIP3   OH2 5741   3.320   3.958   0.542  0.3747 -0.1759 -0.1468
 1926TIP3    H1 5742   3.232   3.944   0.509 -0.0783 -0.4581  1.1514
 1926TIP3    H2 5743   3.358   3.870   0.549  1.1663 -0.0106 -1.6769
 1927TIP3   OH2 5744   1.387   2.260   1.972  0.4705 -0.0135  0.1638
 1927TIP3    H1 5745   1.311   2.302   2.011 -0.6761 -0.4095 -1.5022
 1927TIP3    H2 5746   1.462   2.297   2.017 -0.7312 -1.1975  3.4264
 1928TIP3   OH2 5747   6.672   5.191   3.634  0.1588 -0.3774 -0.2302
 1928TIP3    H1 5748   6.595   5.166   3.685 -1.2499  3.0888 -0.3710
 1928TIP3    H2 5749   6.669   5.135   3.557 -0.4560 -2.3696  1.1555
 1929TIP3   OH2 5750   2.750   4.440   3.021 -0.4766  0.5095 -0.1265
 1929TIP3    H1 5751   2.675   4.481   2.978 -0.6880  2.2352  1.7894
 1929TIP3    H2 5752   2.714   4.361   3.062 -0.9019  0.5228 -0.4663
 1930TIP3   OH2 5753   5.314   4.308   1.857 -0.3687 -0.2432 -0.3123
 1930TIP3    H1 5754   5.234   4.328   1.808  0.9163 -0.0217 -2.4721
 1930TIP3    H2 5755   5.379   4.370   1.822  1.2863 -1.8623 -0.2366
 1931TIP3   OH2 5756   1.756   6.234   2.277 -0.1904  0.4700 -0.6844
 1931TIP3    H1 5757   1.756   6.259   2.369  0.2942  0.0658 -0.5695
 1931TIP3    H2 5758   1.812   6.156   2.273 -1.3426 -0.3658 -1.0913
 1932TIP3   OH2 5759   1.593   1.313   4.951  0.0928 -0.1284 -0.1617
 1932TIP3    H1 5760   1.610   1.337   5.043 -0.3682 -2.9537  0.7598
 1932TIP3    H2 5761   1.530   1.378   4.921 -0.4181  0.3806  1.8248
 1933TIP3   OH2 5762   0.181   3.248   3.822 -0.9984  0.4667  0.2074
 1933TIP3    H1 5763   0.126   3.185   3.869  0.9613  0.5353  2.8365
 1933TIP3    H2 5764   0.137   3.333   3.835 -1.0050  0.3352  1.1439
 1934TIP3   OH2 5765   5.507   1.723   0.398 -0.0465  0.2660 -0.4462
 1934TIP3    H1 5766   5.602   1.713   0.392  0.0953  0.8845  0.6169
 1934TIP3    H2 5767   5.493   1.798   0.456 -1.1818  0.6279 -1.1392
 1935TIP3   OH2 5768   0.035   3.226   0.514  0.2400 -0.0477  0.1037
 1935TIP3    H1 5769   0.097   3.297   0.503 -0.4015  0.1476 -3.1458
 1935TIP3    H2 5770   0.089   3.150   0.535  1.0187  1.0748  2.5057
 1936TIP3   OH2 5771   5.002   5.287   2.571 -0.0710  0.5156 -0.1800
 1936TIP3    H1 5772   5.029   5.265   2.482 -2.7690 -2.1695 -0.5053
 1936TIP3    H2 5773   5.072   5.254   2.626  0.7029  0.3709 -1.2251
 1937TIP3   OH2 5774   6.516   4.481   4.703 -0.0724  0.5152 -0.3294
 1937TIP3    H1 5775   6.462   4.407   4.674 -2.5911  1.6993  1.0814
 1937TIP3    H2 5776   6.517   4.540   4.627 -0.1405  0.1525 -0.6177
 1938TIP3   OH2 5777   3.005   2.901   0.775  0.3976  0.4882  0.3726
 1938TIP3    H1 5778   2.978   2.816   0.810 -0.6508  1.4817  2.0853
 1938TIP3    H2 5779   2.937   2.922   0.710  1.1897 -0.3758 -0.7906
 1939TIP3   OH2 5780   6.351   3.637   3.033  0.9676 -0.6363  0.1730
 1939TIP3    H1 5781   6.271   3.615   2.985 -0.5128  0.3353  2.0351
 1939TIP3    H2 5782   6.394   3.703   2.979  1.0551 -1.8553 -1.3205
 1940TIP3   OH2 5783   5.395   2.889   4.865  0.7462 -0.5832  0.2278
 1940TIP3    H1 5784   5.462   2.912   4.801 -0.3933  0.0319 -0.7873
 1940TIP3    H2 5785   5.389   2.794   4.861  1.4419 -0.6343  0.2304
 1941TIP3   OH2 5786   1.025   3.688   2.685  0.3085  0.1120  0.0638
 1941TIP3    H1 5787   0.960   3.754   2.711 -0.7145 -1.2266  1.0306
 1941TIP3    H2 5788   1.109   3.734   2.691 -0.3987  1.3994  0.4646
 1942TIP3   OH2 5789   2.258   6.260   3.089  0.0506 -0.5525 -0.3657
 1942TIP3    H1 5790   2.199   6.332   3.065 -0.4712 -1.0661 -0.6538
 1942TIP3    H2 5791   2.231   6.188   3.032 -0.2487 -1.3498  0.7689
 1943TIP3   OH2 5792   2.981   3.230   2.114  0.5553  0.0579  0.1329
 1943TIP3    H1 5793   2.929   3.155   2.143 -1.7119  1.2955 -0.4865
 1943TIP3    H2 5794   2.946   3.304   2.163  1.0858  1.0875 -0.9896
 1944TIP3   OH2 5795   1.885   5.973  -0.009 -0.0893  0.4429 -0.3100
 1944TIP3    H1 5796   1.975   5.967  -0.040  0.2787  2.0007  0.3484
 1944TIP3    H2 5797   1.890   6.028   0.069 -1.1702 -2.2979  1.8090
 1945TIP3   OH2 5798   0.657   6.030   0.729  0.4997 -0.6654 -0.2346
 1945TIP3    H1 5799   0.709   6.088   0.674 -1.1905 -0.3951 -1.6160
 1945TIP3    H2 5800   0.628   5.961   0.670 -0.3620 -1.0288  0.5922
 1946TIP3   OH2 5801   4.828   4.136   1.614 -0.0092  0.0135 -1.3547
 1946TIP3    H1 5802   4.826   4.227   1.586 -1.0136 -0.1916 -1.9852
 1946TIP3    H2 5803   4.755   4.095   1.567 -1.1489 -0.5575  0.7846
 1947TIP3   OH2 5804   6.094   6.014   5.221  0.1034 -0.0515  0.1745
 1947TIP3    H1 5805   6.046   5.968   5.291 -0.2125 -0.7462 -0.4881
 1947TIP3    H2 5806   6.026   6.054   5.168  0.4003  1.9034  1.1986
 1948TIP3   OH2 5807   4.106   5.142   0.497 -0.1470 -0.2761  0.4428
 1948TIP3    H1 5808   4.056   5.067   0.528  0.6221 -0.7475  0.5440
 1948TIP3    H2 5809   4.151   5.111   0.418 -0.3237  0.2659  0.1164
 1949TIP3   OH2 5810   3.951   2.686   4.394  0.3265  0.3035 -0.1332
 1949TIP3    H1 5811   3.943   2.768   4.442  1.7891  0.8340 -0.7510
 1949TIP3    H2 5812   4.037   2.652   4.418 -0.2680 -1.0790  0.1284
 1950TIP3   OH2 5813   2.177   3.050   2.727  0.2935 -0.2483  0.0497
 1950TIP3    H1 5814   2.264   3.039   2.766  0.0992  0.5182  0.7156
 1950TIP3    H2 5815   2.116   3.018   2.793 -0.0176  0.7165  0.2480
 1951TIP3   OH2 5816   4.030   6.439   4.084 -0.1047  0.2779  0.7963
 1951TIP3    H1 5817   3.990   6.462   4.167 -0.0353  0.5100  0.7672
 1951TIP3    H2 5818   3.988   6.357   4.058  2.9349 -2.2890  3.1987
 1952TIP3   OH2 5819   0.288   6.205   3.579 -0.3259 -0.9934 -0.7576
 1952TIP3    H1 5820   0.215   6.255   3.543 -0.1991  0.7016  1.1270
 1952TIP3    H2 5821   0.331   6.265   3.640  1.8153 -2.3953 -0.7449
 1953TIP3   OH2 5822   6.319   4.925   5.776  0.1496 -0.0998 -0.4133
 1953TIP3    H1 5823   6.335   4.831   5.772 -4.9078 -1.2440 -0.1343
 1953TIP3    H2 5824   6.333   4.947   5.868 -0.0682 -0.9023 -0.1793
 1954TIP3   OH2 5825   6.873   5.374   2.800  0.3918 -0.0816  0.4413
 1954TIP3    H1 5826   6.953   5.351   2.847  0.8929 -0.5751 -0.6096
 1954TIP3    H2 5827   6.822   5.292   2.798 -0.6751  0.4925  2.0589
 1955TIP3   OH2 5828   1.661   1.895   0.754 -0.1810  0.5291 -0.5798
 1955TIP3    H1 5829   1.586   1.947   0.724  0.5971  2.2012  0.2532
 1955TIP3    H2 5830   1.630   1.854   0.835 -0.1566  1.3579 -0.1400
 1956TIP3   OH2 5831   7.160   0.937   0.505  0.0263 -0.0449  0.2667
 1956TIP3    H1 5832   7.119   1.009   0.552 -0.3908 -0.9394  1.3215
 1956TIP3    H2 5833   7.091   0.903   0.448  0.0292 -0.0328  0.2558
 1957TIP3   OH2 5834   5.796   1.322   5.307  0.0940 -0.4617  0.2815
 1957TIP3    H1 5835   5.826   1.400   5.259 -1.2477 -0.7133 -1.0598
 1957TIP3    H2 5836   5.809   1.343   5.399 -0.6727  1.5389 -0.0324
 1958TIP3   OH2 5837   0.984   1.849   1.259 -0.0035  0.5245  0.6650
 1958TIP3    H1 5838   0.932   1.882   1.185 -0.7813  0.9728  1.3849
 1958TIP3    H2 5839   1.024   1.769   1.227  0.3110  1.1328 -0.4937
 1959TIP3   OH2 5840   2.867   6.204   2.688  0.3742 -0.2252 -0.7332
 1959TIP3    H1 5841   2.859   6.274   2.752  0.4340  0.1294 -1.1067
 1959TIP3    H2 5842   2.902   6.246   2.610 -0.8535 -0.3880 -1.4078
 1960TIP3   OH2 5843   0.771   4.410   4.871 -0.0934  0.0499  0.1639
 1960TIP3    H1 5844   0.860   4.384   4.896  1.1217  0.5111 -3.0907
 1960TIP3    H2 5845   0.780   4.501   4.844 -1.2405 -0.2532 -1.3582
 1961TIP3   OH2 5846   0.352   1.041   1.540 -0.1691  0.6208 -0.3851
 1961TIP3    H1 5847   0.349   1.101   1.465  0.8639  0.3482 -0.6657
 1961TIP3    H2 5848   0.388   0.960   1.504 -1.5551 -0.1962 -0.0170
 1962TIP3   OH2 5849   5.297   3.236   3.183  1.0650  0.3939  0.3537
 1962TIP3    H1 5850   5.292   3.250   3.278 -1.2904  0.5043  0.2746
 1962TIP3    H2 5851   5.211   3.201   3.160  1.6567  0.2108 -1.7331
 1963TIP3   OH2 5852   1.216   5.381   4.754  0.6812  0.2335 -0.4217
 1963TIP3    H1 5853   1.133   5.352   4.717  0.6526  0.9888 -0.9798
 1963TIP3    H2 5854   1.279   5.370   4.682  1.0447 -0.2003 -0.0473
 1964TIP3   OH2 5855   4.836   0.838   0.244  0.1996  0.0247  0.2154
 1964TIP3    H1 5856   4.747   0.853   0.278  0.0835 -2.3210  1.1018
 1964TIP3    H2 5857   4.841   0.893   0.166 -1.6194  1.0868  0.7864
 1965TIP3   OH2 5858   5.780   3.316   1.060  0.1705 -0.4661 -0.0840
 1965TIP3    H1 5859   5.873   3.339   1.073  0.6899 -1.2384 -2.0924
 1965TIP3    H2 5860   5.779   3.265   0.980 -1.9307 -1.1544  0.3284
 1966TIP3   OH2 5861   4.434   0.874   4.954 -0.0694  0.0645  0.4401
 1966TIP3    H1 5862   4.435   0.917   5.039 -0.9641  1.1765 -0.0675
 1966TIP3    H2 5863   4.348   0.831   4.950  0.0114 -0.0745  0.1412
 1967TIP3   OH2 5864   5.317   0.730   5.334 -0.1612  0.1732 -0.6220
 1967TIP3    H1 5865   5.405   0.704   5.306 -0.0958  1.6368 -1.9064
 1967TIP3    H2 5866   5.333   0.803   5.394 -0.4821 -0.2439 -0.0170
 1968TIP3   OH2 5867   5.580   2.042   3.125  0.0574  0.7964  0.0451
 1968TIP3    H1 5868   5.516   2.092   3.176  1.0068  0.4841  1.5774
 1968TIP3    H2 5869   5.618   2.107   3.066  0.2988  1.6005  1.0577
 1969TIP3   OH2 5870   1.552   0.722   1.949  0.1288 -0.1658  0.0799
 1969TIP3    H1 5871   1.638   0.763   1.964  0.9212 -1.3947 -0.8798
 1969TIP3    H2 5872   1.524   0.693   2.036  1.5481 -1.3149  0.1996
 1970TIP3   OH2 5873   0.064   0.215   1.168 -0.1926  0.3869  0.1690
 1970TIP3    H1 5874   0.116   0.165   1.104 -0.8603 -1.3058  0.8776
 1970TIP3    H2 5875   0.028   0.288   1.118  1.9013  0.9548 -0.6090
 1971TIP3   OH2 5876   6.344   6.071   0.508  0.3245 -0.2134 -0.6410
 1971TIP3    H1 5877   6.393   6.023   0.441  0.8414 -0.2225 -0.2677
 1971TIP3    H2 5878   6.375   6.033   0.591  0.9660  0.9554 -0.3201
 1972TIP3   OH2 5879   6.678   1.968   1.979  0.2554 -0.2909  0.1746
 1972TIP3    H1 5880   6.662   1.898   1.915  0.4587 -0.0676 -0.1246
 1972TIP3    H2 5881   6.727   1.925   2.049  1.2123 -0.2559 -0.4473
 1973TIP3   OH2 5882   6.066   2.124   3.727  0.6707 -0.2240 -0.3940
 1973TIP3    H1 5883   6.035   2.210   3.757  1.9099  0.6788 -1.5641
 1973TIP3    H2 5884   5.990   2.067   3.735 -0.1266  0.9311  0.6205
 1974TIP3   OH2 5885   4.796   0.880   5.231  0.2111  0.4753  0.6989
 1974TIP3    H1 5886   4.717   0.922   5.195  0.4810  2.1811  1.9580
 1974TIP3    H2 5887   4.765   0.797   5.266 -0.7279  0.4099 -0.2381
 1975TIP3   OH2 5888   4.596   4.921   0.254 -0.0711 -0.1260 -0.2930
 1975TIP3    H1 5889   4.599   4.996   0.195 -1.4874 -0.1882 -0.4843
 1975TIP3    H2 5890   4.688   4.902   0.275  0.4756 -0.0598 -2.4254
 1976TIP3   OH2 5891   5.721   1.069   2.093  0.8802  0.4558  0.2405
 1976TIP3    H1 5892   5.812   1.077   2.122  0.6218  1.8196  0.7238
 1976TIP3    H2 5893   5.726   1.069   1.997  1.2950  1.9528  0.2510
 1977TIP3   OH2 5894   1.464   4.621   1.769 -0.0150  0.1075 -0.3350
 1977TIP3    H1 5895   1.392   4.562   1.748 -0.6058  0.7669 -0.1767
 1977TIP3    H2 5896   1.438   4.705   1.732  0.9643  0.2047 -0.8417
 1978TIP3   OH2 5897   4.183   1.156   0.612 -0.1754 -0.4706 -0.2646
 1978TIP3    H1 5898   4.147   1.180   0.697  1.5178  1.3531  0.0233
 1978TIP3    H2 5899   4.252   1.093   0.632  2.7340  2.5914  0.2889
 1979TIP3   OH2 5900   6.968   3.959   2.870  0.2959 -0.2051  0.7694
 1979TIP3    H1 5901   6.994   4.047   2.842 -1.7847  1.0320  2.4774
 1979TIP3    H2 5902   6.969   3.963   2.965 -1.2014 -1.6010  0.8720
 1980TIP3   OH2 5903   2.408   3.067   2.915  0.0782  0.1275  0.1388
 1980TIP3    H1 5904   2.326   3.028   2.946 -0.8327 -0.3678 -2.6426
 1980TIP3    H2 5905   2.464   3.070   2.993 -2.0121 -0.9818  1.7827
 1981TIP3   OH2 5906   3.881   3.279   2.584  0.1459  0.5952  0.0285
 1981TIP3    H1 5907   3.899   3.275   2.678 -1.0738 -0.6735  0.2410
 1981TIP3    H2 5908   3.786   3.271   2.577  0.1933  0.8489 -1.3224
 1982TIP3   OH2 5909   6.953   3.755   0.318 -0.4162 -0.0312  0.3347
 1982TIP3    H1 5910   6.994   3.687   0.371  0.7717  0.6057  0.2473
 1982TIP3    H2 5911   6.997   3.836   0.343 -0.2357  0.3725 -1.1858
 1983TIP3   OH2 5912   3.824   4.264   0.495 -0.0267 -0.1906  0.0760
 1983TIP3    H1 5913   3.807   4.170   0.490 -2.4843  0.2376 -1.0711
 1983TIP3    H2 5914   3.756   4.298   0.554  0.2068  0.9966 -0.2996
 1984TIP3   OH2 5915   5.541   3.114   1.466 -0.2325 -0.1785  0.1242
 1984TIP3    H1 5916   5.520   3.123   1.373  1.1232  2.0181 -0.0235
 1984TIP3    H2 5917   5.636   3.105   1.469  0.0809  2.6218  1.4004
 1985TIP3   OH2 5918   2.910   6.668   3.978 -1.1138  0.3457  0.5575
 1985TIP3    H1 5919   2.884   6.715   4.057 -1.7176  0.5075  0.2710
 1985TIP3    H2 5920   3.003   6.690   3.967 -0.7863 -0.3964  1.7044
 1986TIP3   OH2 5921   5.819   3.486   4.570  0.6420 -0.6096  0.1996
 1986TIP3    H1 5922   5.824   3.451   4.660  1.4395  0.6867  0.6808
 1986TIP3    H2 5923   5.909   3.509   4.548  0.3986 -0.6017 -0.8193
 1987TIP3   OH2 5924   2.173   0.280   1.638  0.2637 -0.0003 -0.0092
 1987TIP3    H1 5925   2.143   0.317   1.555 -1.0141  0.5118  0.6441
 1987TIP3    H2 5926   2.146   0.188   1.635  1.3260 -0.3013 -0.6587
 1988TIP3   OH2 5927   6.656   4.474   4.923 -0.5412 -0.3172  0.3842
 1988TIP3    H1 5928   6.742   4.480   4.881 -0.8767  2.0471 -0.0555
 1988TIP3    H2 5929   6.594   4.470   4.851 -0.8727 -1.9180  0.7034
 1989TIP3   OH2 5930   2.822   2.015   1.230  0.1641 -0.1855 -0.3128
 1989TIP3    H1 5931   2.892   2.010   1.164 -0.7500  0.6785 -1.3919
 1989TIP3    H2 5932   2.771   1.936   1.218  0.7835 -0.6899  0.2984
 1990TIP3   OH2 5933   4.724   2.801   3.186  0.9374 -0.5587 -0.3108
 1990TIP3    H1 5934   4.792   2.801   3.254  3.3194 -2.2017 -2.4888
 1990TIP3    H2 5935   4.773   2.796   3.104 -1.7269  2.4700 -2.3196
 1991TIP3   OH2 5936   1.276   5.111   4.601  0.4027 -0.1922  0.2917
 1991TIP3    H1 5937   1.274   5.191   4.548 -1.3902  0.1120  0.7556
 1991TIP3    H2 5938   1.318   5.046   4.544 -1.2471  0.1880 -1.4786
 1992TIP3   OH2 5939   2.268   0.549   2.132  0.8182  0.7242  0.8861
 1992TIP3    H1 5940   2.314   0.465   2.128  0.6532  0.6457  0.6113
 1992TIP3    H2 5941   2.183   0.529   2.169  1.2137  0.9659  1.9625
 1993TIP3   OH2 5942   0.498   3.720   1.737  0.0931  0.0611  0.1357
 1993TIP3    H1 5943   0.541   3.677   1.810 -0.4901 -3.8324 -1.5510
 1993TIP3    H2 5944   0.568   3.740   1.675  0.1967  0.1852  0.2913
 1994TIP3   OH2 5945   5.470   4.488   1.691  0.5275  0.1461 -0.0178
 1994TIP3    H1 5946   5.447   4.581   1.695  2.4695  0.6734 -0.0470
 1994TIP3    H2 5947   5.471   4.468   1.598 -0.4101 -0.0455  0.0128
 1995TIP3   OH2 5948   4.418   1.982   5.486 -0.4100 -0.1366 -0.0760
 1995TIP3    H1 5949   4.393   2.075   5.483 -1.9169 -0.5351 -2.0345
 1995TIP3    H2 5950   4.360   1.940   5.422  1.4213 -2.1545 -0.5148
 1996TIP3   OH2 5951   1.312   1.281   5.811  0.5765 -0.3291 -0.2744
 1996TIP3    H1 5952   1.343   1.218   5.747  1.9495  0.8748 -0.8496
 1996TIP3    H2 5953   1.263   1.229   5.874 -1.6441 -1.4616 -2.7417
 1997TIP3   OH2 5954   4.648   6.609   3.330 -0.7459 -0.0516 -0.2571
 1997TIP3    H1 5955   4.629   6.516   3.320 -0.6631 -0.0953 -0.0163
 1997TIP3    H2 5956   4.742   6.617   3.313 -0.9835  0.1759 -1.5167
 1998TIP3   OH2 5957   2.441   1.957   2.132  0.1345 -0.5494 -0.0818
 1998TIP3    H1 5958   2.357   2.003   2.135  0.5735  0.3083 -0.6172
 1998TIP3    H2 5959   2.420   1.867   2.159 -0.7295 -0.0386  1.0235
 1999TIP3   OH2 5960   2.578   6.668   4.641  0.2249 -0.4651  0.1753
 1999TIP3    H1 5961   2.538   6.648   4.726 -2.0474  1.0984 -0.4364
 1999TIP3    H2 5962   2.526   6.619   4.578 -2.0382  2.8379 -0.8060
 2000TIP3   OH2 5963   4.203   0.645   0.945 -0.1854 -0.7107  0.2213
 2000TIP3    H1 5964   4.195   0.577   1.012  0.4315 -0.2746  0.7560
 2000TIP3    H2 5965   4.276   0.699   0.975  2.1122 -2.1639 -2.2513
 2001TIP3   OH2 5966   1.584   6.469   1.989  0.1542 -0.4278  0.4333
 2001TIP3    H1 5967   1.520   6.418   1.941 -0.4529  0.1258  0.6429
 2001TIP3    H2 5968   1.621   6.529   1.924 -0.4669  0.1305  0.5901
 2002TIP3   OH2 5969   1.658   5.304   3.521  0.1479 -0.3493 -0.0626
 2002TIP3    H1 5970   1.677   5.393   3.551  1.0291  0.5436 -2.9482
 2002TIP3    H2 5971   1.740   5.256   3.536  0.4412 -0.0328 -0.6480
 2003TIP3   OH2 5972   7.017   5.614   1.045 -0.6347  0.1271 -0.6562
 2003TIP3    H1 5973   7.087   5.564   1.087 -1.6200 -0.6824  0.0976
 2003TIP3    H2 5974   6.938   5.563   1.063 -1.2821  0.4563 -2.4011
 2004TIP3   OH2 5975   6.291   5.168   4.851 -0.0511 -0.6160 -0.7071
 2004TIP3    H1 5976   6.292   5.173   4.755  0.0318 -0.7573 -0.7123
 2004TIP3    H2 5977   6.328   5.083   4.871  0.0340 -0.5400 -0.5440
 2005TIP3   OH2 5978   5.988   3.645   5.135 -0.3646 -0.2817 -0.0530
 2005TIP3    H1 5979   5.941   3.723   5.164  1.5033  1.0621 -0.3932
 2005TIP3    H2 5980   5.969   3.638   5.042  0.5402  0.6329 -0.3282
 2006TIP3   OH2 5981   1.059   1.774   4.414  0.0402  0.1815 -0.4339
 2006TIP3    H1 5982   1.090   1.864   4.404 -1.2311  0.8196  0.9019
 2006TIP3    H2 5983   0.991   1.765   4.347 -1.1531  0.8940  0.6336
 2007TIP3   OH2 5984   5.933   5.084   4.248  0.2165  0.1250 -0.6155
 2007TIP3    H1 5985   5.932   5.016   4.181 -2.8895  0.3532 -0.9755
 2007TIP3    H2 5986   5.978   5.158   4.206  0.7801 -0.6547 -1.4123
 2008TIP3   OH2 5987   2.931   6.055   1.539  0.3909  0.0543 -0.3031
 2008TIP3    H1 5988   2.848   6.006   1.539  0.4875 -0.1261 -0.9150
 2008TIP3    H2 5989   2.986   6.009   1.602 -0.2045  0.5855  0.6150
 2009TIP3   OH2 5990   5.898   5.171   4.504 -0.3319  0.5633  0.2243
 2009TIP3    H1 5991   5.893   5.133   4.417 -1.6458  0.5038  0.2934
 2009TIP3    H2 5992   5.899   5.266   4.489 -1.6487  0.5876  0.1399
 2010TIP3   OH2 5993   4.927   0.190   4.794  0.1047  0.2247 -0.7515
 2010TIP3    H1 5994   4.959   0.102   4.773 -1.4290 -0.9330  1.3547
 2010TIP3    H2 5995   4.883   0.219   4.715 -1.6986 -2.0875 -0.6966
 2011TIP3   OH2 5996   7.228   6.695   4.662  0.1249  0.1652 -0.0107
 2011TIP3    H1 5997   7.178   6.614   4.660 -1.5440  1.1682 -0.9155
 2011TIP3    H2 5998   7.175   6.755   4.714  1.2576  0.7408  0.5185
 2012TIP3   OH2 5999   0.099   0.664   4.208  0.3103  0.3331  0.5859
 2012TIP3    H1 6000   0.028   0.727   4.220 -0.9566 -0.9528  0.1237
 2012TIP3    H2 6001   0.087   0.600   4.278  0.5542 -0.2986  0.0629
 2013TIP3   OH2 6002   6.183   0.829   2.535 -0.3999  0.1106  0.7496
 2013TIP3    H1 6003   6.169   0.885   2.612 -0.9150  0.7139  0.2282
 2013TIP3    H2 6004   6.096   0.817   2.498 -0.0882  0.2956 -0.0659
 2014TIP3   OH2 6005   5.695   2.697   2.518 -0.6029  0.2013  0.1035
 2014TIP3    H1 6006   5.641   2.715   2.595 -1.9506 -0.5419 -0.6282
 2014TIP3    H2 6007   5.710   2.602   2.522 -0.8844  0.1144 -0.6525
 2015TIP3   OH2 6008   1.647   6.083   0.197  0.0521  0.1155 -0.1775
 2015TIP3    H1 6009   1.592   6.139   0.252 -1.8407 -0.9940 -0.8488
 2015TIP3    H2 6010   1.585   6.035   0.142  1.7609 -0.6064 -1.5588
 2016TIP3   OH2 6011   5.828   3.991   0.566 -0.1550 -0.0291  0.1267
 2016TIP3    H1 6012   5.859   3.941   0.641 -1.4567 -0.7961  0.1921
 2016TIP3    H2 6013   5.861   4.080   0.580  0.6038 -0.4292  0.9837
 2017TIP3   OH2 6014   3.883   5.279   5.902 -0.2545  0.4945 -0.2594
 2017TIP3    H1 6015   3.877   5.227   5.822  0.1563  0.6966 -0.4245
 2017TIP3    H2 6016   3.967   5.324   5.895 -0.2030  0.4972  0.2951
 2018TIP3   OH2 6017   4.500   0.115   2.297  0.0963  0.3951 -0.5556
 2018TIP3    H1 6018   4.583   0.161   2.302  0.7401 -0.7615 -0.2568
 2018TIP3    H2 6019   4.463   0.123   2.385  0.2271  0.3061 -0.4919
 2019TIP3   OH2 6020   0.263   2.035   2.270  0.5734  0.2283  0.3719
 2019TIP3    H1 6021   0.319   1.970   2.312  1.2138  0.8925  0.5479
 2019TIP3    H2 6022   0.246   1.998   2.183 -0.2305 -0.8362  0.9508
 2020TIP3   OH2 6023   5.973   2.798   2.558 -0.0322  0.0612 -0.0485
 2020TIP3    H1 6024   5.887   2.804   2.601  0.0502 -0.6688  0.2304
 2020TIP3    H2 6025   6.003   2.709   2.577 -0.0474 -0.3303 -1.7366
 2021TIP3   OH2 6026   2.837   5.900   4.840  0.2635 -0.0155  0.2307
 2021TIP3    H1 6027   2.927   5.935   4.844 -0.0659  0.9327 -0.3680
 2021TIP3    H2 6028   2.828   5.848   4.920  0.6319  1.6506  1.3971
 2022TIP3   OH2 6029   2.310   1.978   3.762 -0.5696  0.5001 -0.1724
 2022TIP3    H1 6030   2.377   1.909   3.767 -0.1975  0.8201 -0.6186
 2022TIP3    H2 6031   2.344   2.048   3.817 -1.7402 -0.2986  1.6566
 2023TIP3   OH2 6032   5.306   5.300   0.092 -0.3807 -0.2839 -0.0796
 2023TIP3    H1 6033   5.384   5.347   0.063 -0.7460  0.8425  0.6791
 2023TIP3    H2 6034   5.313   5.298   0.187 -0.7969 -1.0409 -0.0574
 2024TIP3   OH2 6035   0.245   3.031   3.238  0.2153 -0.0620 -0.0963
 2024TIP3    H1 6036   0.209   2.982   3.164 -0.8575  0.6166 -0.0386
 2024TIP3    H2 6037   0.170   3.052   3.293  0.5465  2.0109 -0.3335
 2025TIP3   OH2 6038   4.318   2.764   3.267  0.5387  0.2370 -0.0341
 2025TIP3    H1 6039   4.352   2.677   3.246  1.7717  1.0315 -1.5538
 2025TIP3    H2 6040   4.226   2.761   3.240  0.0074 -1.1499  1.7469
 2026TIP3   OH2 6041   2.275   4.290   3.719  0.9251 -0.1084  0.7588
 2026TIP3    H1 6042   2.269   4.196   3.736  0.3340 -0.2240 -0.0321
 2026TIP3    H2 6043   2.186   4.322   3.730  0.9721  0.2159  0.2400
 2027TIP3   OH2 6044   7.214   0.261   2.559 -0.2189 -0.3969 -0.3521
 2027TIP3    H1 6045   7.144   0.283   2.497 -1.4813 -0.1670  1.1130
 2027TIP3    H2 6046   7.194   0.312   2.637 -0.4428 -2.9631  1.3902
 2028TIP3   OH2 6047   4.791   4.607   1.013 -0.1034 -0.4783 -0.4827
 2028TIP3    H1 6048   4.880   4.618   1.047 -0.4512  0.3368  0.1938
 2028TIP3    H2 6049   4.736   4.657   1.074 -0.9003 -0.0520 -1.5322
 2029TIP3   OH2 6050   2.358   3.358   1.697  0.6505 -0.1190  0.2071
 2029TIP3    H1 6051   2.428   3.321   1.643  0.1602 -2.5100  1.0856
 2029TIP3    H2 6052   2.337   3.289   1.760 -2.4343  0.5085  0.0307
 2030TIP3   OH2 6053   6.955   3.373   0.162 -0.3056 -0.0405  0.0581
 2030TIP3    H1 6054   6.975   3.332   0.247  0.4284 -1.8418 -0.9121
 2030TIP3    H2 6055   6.973   3.466   0.175 -0.0743 -0.2916  1.8272
 2031TIP3   OH2 6056   3.839   5.862   2.881 -0.1904 -0.2951  0.1475
 2031TIP3    H1 6057   3.830   5.767   2.883  0.0931 -0.3987 -1.6786
 2031TIP3    H2 6058   3.750   5.895   2.894 -0.1465 -0.7399  1.8314
 2032TIP3   OH2 6059   1.205   4.672   2.956  0.1493 -0.5707 -0.3473
 2032TIP3    H1 6060   1.202   4.726   3.035 -0.4316 -2.0067  0.6709
 2032TIP3    H2 6061   1.164   4.725   2.888 -1.6659 -0.2302  0.9426
 2033TIP3   OH2 6062   5.605   3.731   1.877  0.7273 -0.0689 -0.5423
 2033TIP3    H1 6063   5.625   3.820   1.847 -2.2833  1.0967  0.4703
 2033TIP3    H2 6064   5.613   3.735   1.972 -0.2361 -0.6232 -0.4241
 2034TIP3   OH2 6065   3.469   3.730   1.390 -0.1552  0.2707 -0.3422
 2034TIP3    H1 6066   3.530   3.766   1.325 -0.9306 -0.8984 -1.7887
 2034TIP3    H2 6067   3.427   3.807   1.428  1.9305  1.0819  0.4499
 2035TIP3   OH2 6068   7.035   2.235   3.888 -0.2970  0.2574 -0.4006
 2035TIP3    H1 6069   7.067   2.291   3.959 -0.3740  1.8426 -1.5686
 2035TIP3    H2 6070   6.944   2.262   3.876 -0.4044 -0.2887 -0.8503
 2036TIP3   OH2 6071   4.904   1.135   3.155  0.1388 -0.3673  0.1894
 2036TIP3    H1 6072   4.996   1.164   3.151  0.7600 -2.2613 -0.5866
 2036TIP3    H2 6073   4.886   1.127   3.248  1.1751 -1.0344  0.3626
 2037TIP3   OH2 6074   0.929   1.822   5.774 -0.3085 -0.2593  0.5217
 2037TIP3    H1 6075   0.967   1.787   5.693 -0.6551  0.5425 -0.0083
 2037TIP3    H2 6076   0.853   1.872   5.745  0.3162  1.1499  1.1870
 2038TIP3   OH2 6077   6.703   3.962   5.066  0.7780  0.2955  0.5884
 2038TIP3    H1 6078   6.681   3.890   5.125  0.9302  0.2827  0.6316
 2038TIP3    H2 6079   6.674   4.041   5.112 -2.5924  0.0766 -0.9339
 2039TIP3   OH2 6080   1.720   0.688   3.611 -0.3721  0.1922 -0.3941
 2039TIP3    H1 6081   1.669   0.726   3.540 -2.1150  1.2626  1.3313
 2039TIP3    H2 6082   1.692   0.736   3.689  0.3486 -1.9315  1.2717
 2040TIP3   OH2 6083   0.061   5.099   4.899 -0.1869 -0.7014  0.0251
 2040TIP3    H1 6084   0.111   5.110   4.818 -0.8987 -3.9220 -1.0140
 2040TIP3    H2 6085  -0.018   5.152   4.886  0.8908  0.9313 -0.1748
 2041TIP3   OH2 6086   7.172   4.415   0.872  0.2314  0.1472 -0.4033
 2041TIP3    H1 6087   7.189   4.508   0.883 -2.9154  0.8041 -0.1357
 2041TIP3    H2 6088   7.235   4.372   0.930  2.5362  1.9706 -1.4221
 2042TIP3   OH2 6089   6.251   0.918   4.400 -0.2288 -0.3184 -0.1750
 2042TIP3    H1 6090   6.339   0.955   4.407 -0.2369 -0.2339 -0.5155
 2042TIP3    H2 6091   6.194   0.995   4.394 -0.5331 -0.3002  2.1867
 2043TIP3   OH2 6092   6.138   3.618   3.836 -0.1534  0.5619  0.6784
 2043TIP3    H1 6093   6.174   3.703   3.861 -1.7573  1.3594  0.4678
 2043TIP3    H2 6094   6.053   3.639   3.797 -0.9486 -1.1934  1.3265
 2044TIP3   OH2 6095   0.627   3.605   1.947 -0.3422 -0.0597  0.4361
 2044TIP3    H1 6096   0.571   3.612   2.024 -1.4550 -0.1041 -0.3391
 2044TIP3    H2 6097   0.640   3.511   1.935 -1.1515 -0.1141 -0.0954
 2045TIP3   OH2 6098   6.913   6.271   5.680 -0.4028  0.2828 -0.7632
 2045TIP3    H1 6099   6.882   6.266   5.770  0.7869  0.3561 -0.3314
 2045TIP3    H2 6100   6.913   6.180   5.650  2.5166 -0.2560  0.5253
 2046TIP3   OH2 6101   0.574   3.725   5.051 -0.1340  0.3534  0.0980
 2046TIP3    H1 6102   0.567   3.751   4.959 -1.5097  1.2356  0.4309
 2046TIP3    H2 6103   0.552   3.804   5.101 -0.7420 -0.4544  1.1672
 2047TIP3   OH2 6104   1.848   6.610   1.835 -0.5969  0.1879  0.0496
 2047TIP3    H1 6105   1.934   6.577   1.863 -0.1077  1.6258  0.3317
 2047TIP3    H2 6106   1.866   6.655   1.752 -1.2962 -0.4707 -0.4683
 2048TIP3   OH2 6107   7.104   0.040   2.184 -0.3472  0.0543  0.0771
 2048TIP3    H1 6108   7.135   0.129   2.172 -0.3095  0.1779  1.0518
 2048TIP3    H2 6109   7.151  -0.011   2.117  2.0961  0.2092  1.5469
 2049TIP3   OH2 6110   5.633   5.913   3.983 -0.6542 -0.0189 -0.5015
 2049TIP3    H1 6111   5.558   5.908   3.924  0.1220  0.9282 -1.6349
 2049TIP3    H2 6112   5.696   5.969   3.936  1.0845 -1.4290  0.0200
 2050TIP3   OH2 6113   5.393   1.704   2.931  0.4308  0.1571 -0.1343
 2050TIP3    H1 6114   5.322   1.648   2.899  1.0774  0.5608 -2.4854
 2050TIP3    H2 6115   5.458   1.702   2.861  2.4034  0.4547  1.5966
 2051TIP3   OH2 6116   7.035   5.561   4.379 -0.5094 -0.2791 -0.2553
 2051TIP3    H1 6117   7.065   5.646   4.344  1.4514 -1.1292 -0.7903
 2051TIP3    H2 6118   7.089   5.497   4.333 -0.1857 -1.6682  1.9598
 2052TIP3   OH2 6119   3.290   4.943   4.171 -0.0587  0.4067 -0.0478
 2052TIP3    H1 6120   3.359   4.898   4.220 -0.0271 -0.6959 -1.0723
 2052TIP3    H2 6121   3.336   5.007   4.117 -0.0697  1.4111  1.0809
 2053TIP3   OH2 6122   1.824   6.589   0.268  0.0891  0.0483  0.3517
 2053TIP3    H1 6123   1.853   6.661   0.212 -1.5798  1.7575  1.5525
 2053TIP3    H2 6124   1.793   6.522   0.206 -0.4538  1.3107 -0.8006
 2054TIP3   OH2 6125   2.418   6.607   3.754 -0.2727  0.0513 -0.1926
 2054TIP3    H1 6126   2.430   6.578   3.664  0.7236  0.7132 -0.2864
 2054TIP3    H2 6127   2.430   6.702   3.751 -2.5704  0.4218  0.2538
 2055TIP3   OH2 6128   0.362   0.823   4.088  0.2453  0.3780  0.3646
 2055TIP3    H1 6129   0.353   0.879   4.011 -0.2789  1.9470  1.5178
 2055TIP3    H2 6130   0.278   0.776   4.094 -0.3058  1.3873  0.8072
 2056TIP3   OH2 6131   4.386   5.184   5.372 -0.1895 -0.1051 -0.0171
 2056TIP3    H1 6132   4.332   5.231   5.309  2.3538  0.1730 -2.1391
 2056TIP3    H2 6133   4.401   5.098   5.332  2.8553  0.6522 -0.7721
 2057TIP3   OH2 6134   0.604   3.063   1.835 -0.1384  0.6417 -0.2818
 2057TIP3    H1 6135   0.575   3.035   1.749  0.3898 -0.8150 -0.0280
 2057TIP3    H2 6136   0.700   3.054   1.832 -0.2581 -2.2595  1.3067
 2058TIP3   OH2 6137   4.926   3.424   4.475  0.0184 -0.1967 -0.5737
 2058TIP3    H1 6138   4.859   3.480   4.436 -2.2073 -2.5890 -0.4541
 2058TIP3    H2 6139   4.945   3.359   4.407 -0.8841 -1.9841  0.8110
 2059TIP3   OH2 6140   1.259   0.817   4.752  0.3091  0.1281 -0.6922
 2059TIP3    H1 6141   1.260   0.902   4.796  1.3086  1.2754 -2.7697
 2059TIP3    H2 6142   1.167   0.790   4.754  0.2096  0.4357  1.3984
 2060TIP3   OH2 6143   0.578   6.425   1.469  0.7069 -0.3026 -0.0731
 2060TIP3    H1 6144   0.587   6.468   1.554 -0.8204 -0.1952  0.0612
 2060TIP3    H2 6145   0.507   6.472   1.426  0.3872 -1.3886 -0.7606
 2061TIP3   OH2 6146   1.531   2.076   3.756 -0.7091 -0.0096 -0.2512
 2061TIP3    H1 6147   1.602   2.071   3.820 -3.3375  1.6406  3.1052
 2061TIP3    H2 6148   1.494   1.988   3.754  1.0535 -0.7954 -1.7812
 2062TIP3   OH2 6149   5.032   6.101   1.329 -0.2839  0.1029  0.2084
 2062TIP3    H1 6150   5.077   6.039   1.386 -0.6870 -0.0632  0.3472
 2062TIP3    H2 6151   5.021   6.180   1.383 -0.6773 -0.0589  0.3646
 2063TIP3   OH2 6152   4.265   4.026   4.193 -0.0795 -0.3396  0.1022
 2063TIP3    H1 6153   4.217   4.085   4.135  0.7367 -0.0043 -0.2419
 2063TIP3    H2 6154   4.357   4.053   4.185  0.0873 -0.4852  1.3235
 2064TIP3   OH2 6155   6.211   2.498   3.160  0.1910  0.2605  0.2049
 2064TIP3    H1 6156   6.287   2.507   3.102  0.6248 -0.9850  0.5565
 2064TIP3    H2 6157   6.136   2.522   3.104  0.5850 -1.0360 -0.9370
 2065TIP3   OH2 6158   5.189   3.656   3.293 -0.4573  0.3256 -0.5600
 2065TIP3    H1 6159   5.132   3.592   3.252  1.5534 -3.4926  2.0397
 2065TIP3    H2 6160   5.129   3.716   3.338 -2.3993 -0.3127 -2.1335
 2066TIP3   OH2 6161   2.921   3.819   5.508 -0.2155  0.3913  0.3289
 2066TIP3    H1 6162   2.977   3.841   5.582 -0.0169 -0.5922  0.4816
 2066TIP3    H2 6163   2.834   3.848   5.535 -0.5052 -1.6261  1.7658
 2067TIP3   OH2 6164   5.485   6.116   2.299  0.4642 -0.1193 -0.3061
 2067TIP3    H1 6165   5.562   6.164   2.268 -1.0286  2.6905  0.0374
 2067TIP3    H2 6166   5.456   6.164   2.376 -2.3939 -0.2433 -1.1962
 2068TIP3   OH2 6167   1.105   5.198   2.276 -0.0895 -0.4877  0.3983
 2068TIP3    H1 6168   1.196   5.168   2.287  0.4542  0.9294  0.0754
 2068TIP3    H2 6169   1.055   5.119   2.259  1.2345 -1.2276 -0.2084
 2069TIP3   OH2 6170   1.692   0.170   4.596 -0.0954  0.1554 -0.4240
 2069TIP3    H1 6171   1.750   0.243   4.616 -0.0613 -0.0610  0.2992
 2069TIP3    H2 6172   1.605   0.202   4.616 -0.0976  0.0547 -0.2723
 2070TIP3   OH2 6173   6.911   1.878   5.594 -0.1198  0.3514  0.8695
 2070TIP3    H1 6174   6.947   1.791   5.577 -0.3901  0.2756  0.6752
 2070TIP3    H2 6175   6.825   1.862   5.632  0.1358  0.5298  1.5285
 2071TIP3   OH2 6176   7.170   3.699   3.130 -1.4369 -0.1882 -0.0040
 2071TIP3    H1 6177   7.154   3.772   3.191 -2.8477  0.6295 -1.2868
 2071TIP3    H2 6178   7.184   3.741   3.045  1.3749 -1.2612 -0.1690
 2072TIP3   OH2 6179   0.892   0.451   2.441  0.1195 -0.0868  0.4050
 2072TIP3    H1 6180   0.811   0.500   2.427 -0.3416 -0.1431  2.6040
 2072TIP3    H2 6181   0.915   0.418   2.354 -1.3519  1.2387 -0.5368
 2073TIP3   OH2 6182   1.708   1.566   5.804  0.1630  0.2477  0.5338
 2073TIP3    H1 6183   1.756   1.586   5.885 -0.1700  1.0349  0.5404
 2073TIP3    H2 6184   1.671   1.649   5.777  0.7255  0.1092 -0.7435
 2074TIP3   OH2 6185   0.256   4.526   2.312 -0.2669 -0.3707  0.2859
 2074TIP3    H1 6186   0.285   4.436   2.296 -0.0373 -0.1734 -0.4717
 2074TIP3    H2 6187   0.189   4.518   2.379 -0.5634 -1.1603 -0.0868
 2075TIP3   OH2 6188   5.710   5.062   2.619  0.1397  0.2026  0.3545
 2075TIP3    H1 6189   5.781   5.049   2.556  2.0968  0.5157  2.3940
 2075TIP3    H2 6190   5.690   5.155   2.614 -3.0540 -0.3826 -3.0244
 2076TIP3   OH2 6191   1.707   3.536   3.188 -0.2299  0.2762  0.6262
 2076TIP3    H1 6192   1.656   3.612   3.161 -2.1096 -0.3167  2.2453
 2076TIP3    H2 6193   1.676   3.465   3.132  1.2798  0.5975 -0.6565
 2077TIP3   OH2 6194   2.959   0.275   1.195  0.3525  0.5416 -0.2071
 2077TIP3    H1 6195   3.017   0.205   1.224 -1.2463 -0.6642  0.2510
 2077TIP3    H2 6196   2.916   0.239   1.117  1.1249  1.9119 -1.3202
 2078TIP3   OH2 6197   2.571   6.435   4.373  0.1749 -0.0553 -0.3528
 2078TIP3    H1 6198   2.500   6.428   4.437  0.5137 -2.0885 -0.1118
 2078TIP3    H2 6199   2.532   6.403   4.292  0.6877 -0.7755 -0.3186
 2079TIP3   OH2 6200   3.226   1.007   2.233  0.0113 -0.5338  0.3910
 2079TIP3    H1 6201   3.240   1.076   2.298  1.7386  0.3611 -0.8329
 2079TIP3    H2 6202   3.208   0.928   2.284  0.9352  0.2032  1.9321
 2080TIP3   OH2 6203   5.714   3.568   2.835  0.3805 -0.2729 -0.1662
 2080TIP3    H1 6204   5.715   3.606   2.748  2.9053 -0.6338 -0.3901
 2080TIP3    H2 6205   5.802   3.585   2.869  0.2272 -2.1990  1.3748
 2081TIP3   OH2 6206   3.374   4.289   3.118  0.1785  0.3057  0.8035
 2081TIP3    H1 6207   3.455   4.303   3.167  0.4667 -1.5876  0.9466
 2081TIP3    H2 6208   3.314   4.248   3.181  0.6397 -2.4120 -0.3682
 2082TIP3   OH2 6209   0.803   5.900   1.497 -0.2387  0.1711 -0.1702
 2082TIP3    H1 6210   0.877   5.930   1.443  0.0943 -1.3639 -0.6148
 2082TIP3    H2 6211   0.739   5.868   1.434 -0.5463 -0.1228  0.2875
 2083TIP3   OH2 6212   0.954   5.278   4.143 -0.1330 -0.3712 -0.0134
 2083TIP3    H1 6213   0.865   5.295   4.114 -0.6578 -4.1708 -1.0602
 2083TIP3    H2 6214   0.945   5.246   4.232  0.2625 -0.3111  0.0511
 2084TIP3   OH2 6215   4.692   4.389   1.816 -0.1434 -0.0210 -0.2815
 2084TIP3    H1 6216   4.733   4.383   1.730  2.3934 -0.3808  0.8666
 2084TIP3    H2 6217   4.699   4.301   1.853  1.9791  0.8435  1.5880
 2085TIP3   OH2 6218   3.680   5.289   3.288  0.3250  0.2488 -0.7820
 2085TIP3    H1 6219   3.619   5.218   3.306  0.2599  0.6360  0.7169
 2085TIP3    H2 6220   3.763   5.246   3.268  0.5828 -0.2843  1.2432
 2086TIP3   OH2 6221   6.536   2.161   1.376 -0.1283 -0.9558 -0.0408
 2086TIP3    H1 6222   6.601   2.193   1.438 -0.5601  1.0457 -0.5153
 2086TIP3    H2 6223   6.460   2.138   1.430 -0.8426  1.6448  0.2118
 2087TIP3   OH2 6224   5.290   2.706   1.579  0.1490 -0.2649 -0.3426
 2087TIP3    H1 6225   5.199   2.728   1.558  0.2249  0.1501 -0.2463
 2087TIP3    H2 6226   5.293   2.610   1.573 -0.7563 -0.4693  1.4073
 2088TIP3   OH2 6227   0.912   3.441   4.367 -0.4080  0.2396  0.2269
 2088TIP3    H1 6228   0.920   3.519   4.312  0.8727  0.8694  1.2476
 2088TIP3    H2 6229   0.996   3.396   4.357 -1.0073 -0.8382 -0.0765
 2089TIP3   OH2 6230   5.236   1.059   3.887  0.5307  0.0558  0.1608
 2089TIP3    H1 6231   5.182   1.107   3.950  1.2212 -1.1050  1.6976
 2089TIP3    H2 6232   5.250   0.974   3.928  0.0593 -1.1776 -2.0926
 2090TIP3   OH2 6233   5.480   2.017   4.104  0.6439 -0.1481 -0.4481
 2090TIP3    H1 6234   5.555   2.061   4.145 -1.1097  2.5744  0.0884
 2090TIP3    H2 6235   5.404   2.069   4.130 -1.2609 -1.7075 -2.4665
 2091TIP3   OH2 6236   1.890   2.127   0.579  0.1098  0.1922  0.2529
 2091TIP3    H1 6237   1.948   2.183   0.528 -1.4799  0.5032 -1.2985
 2091TIP3    H2 6238   1.936   2.043   0.584  1.3460  0.8556  0.3661
 2092TIP3   OH2 6239   0.379   4.034   4.478 -0.1981  0.0567  0.0997
 2092TIP3    H1 6240   0.417   4.112   4.519  0.9138 -0.8154  0.7862
 2092TIP3    H2 6241   0.401   3.962   4.538 -1.9227 -0.6782 -0.0918
 2093TIP3   OH2 6242   1.010   0.373   5.186 -0.1178  0.2338  0.3419
 2093TIP3    H1 6243   0.955   0.327   5.122 -0.5349 -0.3166  1.0789
 2093TIP3    H2 6244   1.020   0.311   5.258  1.2265  0.4438  0.3697
 2094TIP3   OH2 6245   4.614   4.001   2.659  0.4557  0.3929  0.1509
 2094TIP3    H1 6246   4.566   3.951   2.724  0.6197 -2.0248 -1.4583
 2094TIP3    H2 6247   4.700   4.017   2.698  1.0659 -2.2892  0.0649
 2095TIP3   OH2 6248   4.828   3.618   4.288 -0.2754 -1.4641  0.3346
 2095TIP3    H1 6249   4.849   3.711   4.297 -0.4682 -1.3837 -0.0272
 2095TIP3    H2 6250   4.743   3.617   4.244 -1.0194 -1.7794  1.7300
 2096TIP3   OH2 6251   2.970   3.160   3.240 -0.0601 -0.6594  0.5998
 2096TIP3    H1 6252   2.911   3.203   3.178  0.6310 -0.8245 -0.1788
 2096TIP3    H2 6253   3.004   3.231   3.294  3.6397  0.4697 -2.7341
 2097TIP3   OH2 6254   2.994   5.647   2.326  0.3953  0.1327  0.2669
 2097TIP3    H1 6255   3.088   5.646   2.344  0.5470  1.7312 -0.2740
 2097TIP3    H2 6256   2.959   5.713   2.387 -0.2452  0.1148 -0.0696
 2098TIP3   OH2 6257   5.911   1.590   0.687  0.2187  0.6061  0.4557
 2098TIP3    H1 6258   5.976   1.620   0.750  0.4808 -0.5990  0.7871
 2098TIP3    H2 6259   5.837   1.561   0.740  0.2237  0.0887  0.1865
 2099TIP3   OH2 6260   3.554   1.254   2.407  0.3337 -0.1716  0.5063
 2099TIP3    H1 6261   3.586   1.306   2.333 -1.7562 -1.0285 -1.0824
 2099TIP3    H2 6262   3.563   1.163   2.378 -1.4012 -0.4923  0.8686
 2100TIP3   OH2 6263   6.263   5.303   3.402 -0.4227  0.3837  0.5697
 2100TIP3    H1 6264   6.194   5.252   3.358 -0.5399  0.5924  0.5123
 2100TIP3    H2 6265   6.239   5.300   3.494  0.6894 -1.4262  0.8630
 2101TIP3   OH2 6266   3.651   6.505   2.975  0.5693  0.4812 -0.5114
 2101TIP3    H1 6267   3.636   6.594   3.009 -1.4133 -0.4389  1.2657
 2101TIP3    H2 6268   3.572   6.485   2.925 -0.7125 -1.4850  2.0614
 2102TIP3   OH2 6269   5.485   6.400   3.328 -0.4708  0.4298  0.0878
 2102TIP3    H1 6270   5.557   6.415   3.267  0.7641  0.5221  1.5070
 2102TIP3    H2 6271   5.437   6.483   3.331  1.1079  1.3312  1.3019
 2103TIP3   OH2 6272   3.581   4.354   4.859 -0.1898  0.0091  0.4392
 2103TIP3    H1 6273   3.660   4.385   4.814 -0.4642 -1.0764 -0.8248
 2103TIP3    H2 6274   3.510   4.403   4.818 -0.6465 -2.3054 -1.6931
 2104TIP3   OH2 6275   4.475   5.285   0.490  0.6951  0.0656  0.1529
 2104TIP3    H1 6276   4.428   5.368   0.503  1.9320  0.7881  0.1216
 2104TIP3    H2 6277   4.488   5.251   0.578  2.5474  1.2671  0.3794
 2105TIP3   OH2 6278   6.403   6.324   2.777  0.1178 -0.1040  0.0905
 2105TIP3    H1 6279   6.435   6.323   2.687  1.4922 -1.1596  0.5535
 2105TIP3    H2 6280   6.435   6.406   2.814  0.1730 -0.0099 -0.1679
 2106TIP3   OH2 6281   0.953   5.811   0.224  0.4902  0.2017  0.4224
 2106TIP3    H1 6282   0.939   5.898   0.186 -0.0615  0.3417  0.9182
 2106TIP3    H2 6283   0.975   5.829   0.316  0.5104 -0.1749  0.4926
 2107TIP3   OH2 6284   2.311   1.382   5.036  0.5618  0.3543  0.3938
 2107TIP3    H1 6285   2.272   1.364   5.121 -0.6598 -3.2961 -0.7276
 2107TIP3    H2 6286   2.249   1.442   4.993 -1.0177 -1.0171  0.6571
 2108TIP3   OH2 6287   3.048   1.254   3.345 -0.7769 -0.1511 -0.4404
 2108TIP3    H1 6288   3.011   1.341   3.329 -2.7829 -0.6250  1.1266
 2108TIP3    H2 6289   2.972   1.199   3.363  0.5772 -1.7668  0.6797
 2109TIP3   OH2 6290   4.710   3.590   0.026 -0.0749  0.2373  0.2811
 2109TIP3    H1 6291   4.799   3.572   0.058 -0.0300  0.1939  0.1305
 2109TIP3    H2 6292   4.653   3.566   0.099 -0.1497 -2.0917 -0.4480
 2110TIP3   OH2 6293   4.551   6.132   3.198 -0.4450  0.0171  0.0556
 2110TIP3    H1 6294   4.567   6.226   3.206 -3.4417  0.6002  0.7392
 2110TIP3    H2 6295   4.582   6.095   3.281  0.2751  0.4945  0.0002
 2111TIP3   OH2 6296   1.811   2.171   1.072  0.6574 -0.0085 -0.1488
 2111TIP3    H1 6297   1.835   2.089   1.030  0.6981  0.6800 -1.5113
 2111TIP3    H2 6298   1.889   2.226   1.063 -0.6462  1.5532 -2.8363
 2112TIP3   OH2 6299   1.738   0.221   1.046 -0.2172 -0.4922  0.2489
 2112TIP3    H1 6300   1.787   0.141   1.027  0.2172  0.0677 -1.0906
 2112TIP3    H2 6301   1.805   0.287   1.061 -0.5641 -0.0056 -0.3313
 2113TIP3   OH2 6302   1.326   6.245   2.505 -0.5860  0.7948 -0.0887
 2113TIP3    H1 6303   1.392   6.258   2.573  0.9046 -1.3685 -0.9993
 2113TIP3    H2 6304   1.288   6.332   2.491 -0.5240  1.4223  3.0236
 2114TIP3   OH2 6305   4.815   2.342   3.278  0.1139 -0.4160 -0.1614
 2114TIP3    H1 6306   4.775   2.343   3.191  0.8419  1.8194 -0.5143
 2114TIP3    H2 6307   4.748   2.379   3.336  0.5895  0.6141 -0.2537
 2115TIP3   OH2 6308   3.901   6.107   0.917 -0.1421  0.1598 -0.0309
 2115TIP3    H1 6309   3.870   6.126   0.828 -1.5380 -2.2205 -0.1564
 2115TIP3    H2 6310   3.833   6.050   0.954  2.0335 -1.7880  1.2590
 2116TIP3   OH2 6311   6.737   1.363   4.979 -0.2110 -0.1172  0.1652
 2116TIP3    H1 6312   6.745   1.343   5.072 -1.0301 -0.8304  0.0974
 2116TIP3    H2 6313   6.826   1.357   4.945  0.2084  0.8803  1.0327
 2117TIP3   OH2 6314   4.205   5.971   1.815 -0.0315 -0.3291  0.0726
 2117TIP3    H1 6315   4.131   5.993   1.872 -0.6094 -1.6212 -0.1270
 2117TIP3    H2 6316   4.276   5.947   1.875  0.0797  0.4589  0.2622
 2118TIP3   OH2 6317   1.818   6.332   3.457  0.1038  0.5876 -0.1080
 2118TIP3    H1 6318   1.817   6.425   3.480  1.8926  0.4371  0.7671
 2118TIP3    H2 6319   1.902   6.320   3.412 -1.4148 -0.0371 -2.9982
 2119TIP3   OH2 6320   7.165   0.664   4.838  0.2538  0.3076 -0.5319
 2119TIP3    H1 6321   7.167   0.703   4.751 -1.8902  1.1530 -0.2598
 2119TIP3    H2 6322   7.113   0.584   4.827  0.3703  0.1763 -0.1331
 2120TIP3   OH2 6323   1.839   3.261   4.870  0.1266 -0.0935  0.3735
 2120TIP3    H1 6324   1.786   3.200   4.819 -0.8255  1.3247 -0.3895
 2120TIP3    H2 6325   1.782   3.291   4.941  0.7097 -0.3543  0.9675
 2121TIP3   OH2 6326   3.943   2.258   3.048 -0.2276 -0.8066 -0.0340
 2121TIP3    H1 6327   3.936   2.253   2.953 -0.0609 -0.1313 -0.0846
 2121TIP3    H2 6328   3.905   2.176   3.079 -1.1876 -0.6020 -0.6373
 2122TIP3   OH2 6329   1.886   6.460   3.781  0.3907  0.0836 -0.4482
 2122TIP3    H1 6330   1.843   6.386   3.738 -0.0286  1.1350 -1.9034
 2122TIP3    H2 6331   1.835   6.474   3.861  1.1802 -1.8987  0.4784
 2123TIP3   OH2 6332   3.096   1.685   2.495  1.1167  0.2189 -0.1948
 2123TIP3    H1 6333   3.149   1.730   2.561 -1.6626  2.3699  0.8091
 2123TIP3    H2 6334   3.067   1.754   2.436  0.8401 -1.1365 -1.7206
 2124TIP3   OH2 6335   3.359   6.081   2.299  0.1728 -0.5550 -0.0360
 2124TIP3    H1 6336   3.289   6.060   2.361  0.4550 -2.4790 -0.3002
 2124TIP3    H2 6337   3.389   5.995   2.267  1.0464  0.3246 -1.6994
 2125TIP3   OH2 6338   3.817   5.832   0.684  0.9342  0.4843  0.2145
 2125TIP3    H1 6339   3.838   5.811   0.775 -0.6285 -0.3288  0.4245
 2125TIP3    H2 6340   3.866   5.767   0.633  0.1404 -0.4290  0.5975
 2126TIP3   OH2 6341   2.194   1.184   4.842  0.0144  0.1192 -0.2431
 2126TIP3    H1 6342   2.227   1.208   4.755  0.7868 -0.4770 -0.1248
 2126TIP3    H2 6343   2.273   1.159   4.890 -0.5884 -1.0567  0.1469
 2127TIP3   OH2 6344   4.217   5.696   3.437 -0.1855 -0.4009 -0.1715
 2127TIP3    H1 6345   4.223   5.637   3.512  0.6301 -0.4334 -0.2551
 2127TIP3    H2 6346   4.199   5.639   3.362 -1.7226 -0.3031  0.0797
 2128TIP3   OH2 6347   5.206   1.810   2.669  0.4481 -0.5759 -0.6804
 2128TIP3    H1 6348   5.127   1.823   2.721  0.6992  0.7875 -0.5971
 2128TIP3    H2 6349   5.190   1.860   2.589  0.2825 -2.2109 -1.7125
 2129TIP3   OH2 6350   3.272   0.295   4.782 -0.1571 -0.7240  0.3624
 2129TIP3    H1 6351   3.207   0.244   4.829 -1.2974  0.2980 -0.0594
 2129TIP3    H2 6352   3.252   0.280   4.690  0.4522 -0.7007  0.2231
 2130TIP3   OH2 6353   4.965   4.741   1.877  0.8510 -0.0246 -0.0383
 2130TIP3    H1 6354   4.940   4.659   1.920 -0.6294 -0.8593 -2.2561
 2130TIP3    H2 6355   4.897   4.803   1.903 -0.2705 -0.6365 -1.3735
 2131TIP3   OH2 6356   6.822   3.303   4.841  0.3010 -0.3555  0.1412
 2131TIP3    H1 6357   6.775   3.224   4.869 -0.4466 -0.0449 -0.1850
 2131TIP3    H2 6358   6.843   3.287   4.749 -0.0374 -0.1005  0.0142
 2132TIP3   OH2 6359   3.268   6.732   5.307 -0.2518  0.2863  0.0934
 2132TIP3    H1 6360   3.315   6.659   5.346  0.1782  1.0085  0.9432
 2132TIP3    H2 6361   3.177   6.718   5.330  0.1098  1.2702  2.3509
 2133TIP3   OH2 6362   2.511   6.308   0.696 -0.1988  1.2093  0.3294
 2133TIP3    H1 6363   2.499   6.350   0.781 -0.8120  0.9027  0.4022
 2133TIP3    H2 6364   2.554   6.374   0.643  1.3865  0.9559  1.2505
 2134TIP3   OH2 6365   6.421   0.735   2.789  0.2613 -0.8389  0.2141
 2134TIP3    H1 6366   6.441   0.655   2.739 -0.0698  0.4262 -2.0791
 2134TIP3    H2 6367   6.433   0.806   2.726 -0.6511  0.8407  1.8480
 2135TIP3   OH2 6368   6.673   4.480   5.217 -0.4935 -0.5772 -0.3364
 2135TIP3    H1 6369   6.741   4.547   5.224 -2.2402  1.3966 -1.3138
 2135TIP3    H2 6370   6.651   4.478   5.124 -2.2659 -0.6074  0.0458
 2136TIP3   OH2 6371   1.965   1.441   4.170  0.1557 -0.4722  0.4691
 2136TIP3    H1 6372   2.024   1.366   4.161  0.8280 -0.2142  2.2878
 2136TIP3    H2 6373   2.023   1.515   4.189 -0.6892 -0.0353  1.3942
 2137TIP3   OH2 6374   4.104   5.371   3.023 -0.0007 -0.5546  0.2059
 2137TIP3    H1 6375   4.059   5.425   3.088  0.2680  0.4031 -0.3776
 2137TIP3    H2 6376   4.119   5.430   2.949 -0.1122 -1.5633 -0.6442
 2138TIP3   OH2 6377   2.720   5.388   5.831 -0.4813 -0.1090 -0.0853
 2138TIP3    H1 6378   2.627   5.398   5.811 -0.7727 -0.3043  1.1100
 2138TIP3    H2 6379   2.759   5.471   5.806 -1.0548  0.1557 -0.1218
 2139TIP3   OH2 6380   7.122   5.919   4.500  0.1869  0.1791  0.3228
 2139TIP3    H1 6381   7.157   6.006   4.520 -1.1642  0.6097  0.9357
 2139TIP3    H2 6382   7.156   5.899   4.413  1.7984  0.6254  0.8131
 2140TIP3   OH2 6383   6.931   6.133   1.645  0.0889 -0.2403 -0.0913
 2140TIP3    H1 6384   6.962   6.046   1.671 -1.4075 -0.4057  1.2757
 2140TIP3    H2 6385   6.921   6.181   1.727 -2.6338 -0.0177 -0.4540
 2141TIP3   OH2 6386   2.276   1.388   5.627 -0.5874  0.1970  0.1640
 2141TIP3    H1 6387   2.239   1.412   5.712  1.2624 -0.7305  1.2900
 2141TIP3    H2 6388   2.257   1.464   5.572 -0.5443  1.4760  1.8152
 2142TIP3   OH2 6389   6.653   1.993   2.497  0.3250 -0.6114  0.8473
 2142TIP3    H1 6390   6.691   2.063   2.444 -1.0384  0.0196  0.6650
 2142TIP3    H2 6391   6.682   2.011   2.586  0.4770 -0.1484  0.7059
 2143TIP3   OH2 6392   4.171   2.124   1.202 -0.1722  0.3052 -0.1799
 2143TIP3    H1 6393   4.076   2.136   1.194 -0.0933  1.1801  0.1141
 2143TIP3    H2 6394   4.188   2.043   1.154 -0.8787  0.8603 -1.4533
 2144TIP3   OH2 6395   3.701   2.230   3.735  0.5911  0.5503 -0.0743
 2144TIP3    H1 6396   3.778   2.174   3.750  0.1180  0.0332  0.4817
 2144TIP3    H2 6397   3.738   2.317   3.720  1.2298  0.7895  2.4539
 2145TIP3   OH2 6398   0.134   1.810   3.349 -0.5894 -0.8474  0.0841
 2145TIP3    H1 6399   0.054   1.785   3.303 -0.5591 -0.9346  0.0800
 2145TIP3    H2 6400   0.204   1.765   3.302 -0.0327  2.3256 -2.5275
 2146TIP3   OH2 6401   4.043   5.219   0.928  0.6173  0.8761  0.4506
 2146TIP3    H1 6402   3.963   5.238   0.978  0.6402  0.9573  0.4551
 2146TIP3    H2 6403   4.016   5.150   0.867 -0.4056  3.2675 -1.9749
 2147TIP3   OH2 6404   6.036   4.945   1.363 -0.0399 -0.1580 -0.2126
 2147TIP3    H1 6405   6.110   4.885   1.356  1.5503  1.5742  0.7195
 2147TIP3    H2 6406   6.005   4.933   1.453  0.0951  0.2049 -0.1176
 2148TIP3   OH2 6407   6.596   2.728   1.617 -0.0696 -0.1977  0.7080
 2148TIP3    H1 6408   6.597   2.785   1.541  1.5258  0.1978  0.9884
 2148TIP3    H2 6409   6.595   2.787   1.692  0.7560 -0.5424  0.9991
 2149TIP3   OH2 6410   1.418   5.951   3.671 -0.3697 -0.0102  0.6840
 2149TIP3    H1 6411   1.450   6.041   3.677 -1.2838  0.2878  1.2624
 2149TIP3    H2 6412   1.497   5.898   3.671  0.2516  0.8368 -1.0013
 2150TIP3   OH2 6413   4.729   5.887   2.162 -0.9716  0.2446 -0.1602
 2150TIP3    H1 6414   4.712   5.912   2.253  2.3605  0.2066  0.5938
 2150TIP3    H2 6415   4.716   5.792   2.161  1.3556 -0.1475  0.9979
 2151TIP3   OH2 6416   5.446   0.109   0.350 -0.2872 -0.4064  0.3073
 2151TIP3    H1 6417   5.383   0.059   0.402 -1.5091 -1.7013 -2.2193
 2151TIP3    H2 6418   5.429   0.082   0.260  3.5833 -0.4355 -0.5860
 2152TIP3   OH2 6419   1.442   2.318   3.197  0.1649  0.3449 -0.2454
 2152TIP3    H1 6420   1.414   2.327   3.106  0.9696  0.1220 -0.5299
 2152TIP3    H2 6421   1.424   2.226   3.218  2.3966 -0.3602 -1.0722
 2153TIP3   OH2 6422   6.018   4.024   2.570 -0.5633  0.2699 -0.2054
 2153TIP3    H1 6423   6.107   4.025   2.604 -0.2123  0.1212 -1.0946
 2153TIP3    H2 6424   5.963   4.009   2.647  0.1598  0.5941  0.3798
 2154TIP3   OH2 6425   1.163   4.668   3.531  0.1335 -0.5178 -0.2971
 2154TIP3    H1 6426   1.163   4.581   3.491  0.6172  0.0276 -1.5400
 2154TIP3    H2 6427   1.076   4.704   3.512 -0.1037 -0.7525  0.3063
 2155TIP3   OH2 6428   6.414   6.472   4.383  0.3257  0.1718  0.3512
 2155TIP3    H1 6429   6.322   6.476   4.358  0.4058  1.5156  0.1796
 2155TIP3    H2 6430   6.429   6.553   4.431  1.5531  0.2267 -0.0942
 2156TIP3   OH2 6431   3.137   5.522   4.260  0.3489 -0.5212  0.4061
 2156TIP3    H1 6432   3.077   5.541   4.189  1.4038 -0.6898 -0.5590
 2156TIP3    H2 6433   3.170   5.608   4.288  2.2083 -0.5612 -1.3805
 2157TIP3   OH2 6434   3.863   3.291   5.587  0.2326  0.0074 -0.1330
 2157TIP3    H1 6435   3.787   3.288   5.645 -0.0772 -0.7088 -0.5606
 2157TIP3    H2 6436   3.853   3.373   5.539  0.5923  0.6962  0.9446
 2158TIP3   OH2 6437   6.563   3.587   0.950  0.5951  0.3771  0.2052
 2158TIP3    H1 6438   6.569   3.682   0.952  3.2344  0.2750  0.6651
 2158TIP3    H2 6439   6.482   3.567   0.996 -0.7034  2.4062 -1.0383
 2159TIP3   OH2 6440   6.138   1.010   0.074  0.1839  0.0225  0.2567
 2159TIP3    H1 6441   6.175   1.070   0.138 -1.1114  2.5985 -1.2764
 2159TIP3    H2 6442   6.179   1.035  -0.009  0.4570 -2.0186 -0.2889
 2160TIP3   OH2 6443   5.382   6.321   0.677 -0.0653 -0.4798 -0.2088
 2160TIP3    H1 6444   5.438   6.247   0.655 -1.0723 -0.9568 -1.2440
 2160TIP3    H2 6445   5.302   6.281   0.712  0.4583  0.2034  1.9520
 2161TIP3   OH2 6446   4.170   2.276   3.211 -0.4004  0.2267  0.0808
 2161TIP3    H1 6447   4.163   2.184   3.239 -1.0688  0.5712  1.1234
 2161TIP3    H2 6448   4.105   2.284   3.141  0.9899 -0.5447 -1.3426
 2162TIP3   OH2 6449   2.317   5.372   2.346  0.1067 -0.0521  0.8187
 2162TIP3    H1 6450   2.312   5.463   2.319  0.1394 -0.0918  0.6754
 2162TIP3    H2 6451   2.367   5.373   2.428  0.3108  0.0338  0.6934
 2163TIP3   OH2 6452   1.366   3.595   0.261  0.2111  0.0090  0.0618
 2163TIP3    H1 6453   1.281   3.588   0.217 -0.2243  2.5615  0.3628
 2163TIP3    H2 6454   1.400   3.506   0.262 -2.4896 -1.1033 -0.0037
 2164TIP3   OH2 6455   0.413   2.984   4.766 -0.3143  0.2685  0.4301
 2164TIP3    H1 6456   0.322   2.967   4.741  0.1699 -0.4091 -1.0013
 2164TIP3    H2 6457   0.463   2.963   4.687  1.2307 -0.7975  1.6423
 2165TIP3   OH2 6458   2.368   3.904   3.155 -0.1497  0.0500 -0.2631
 2165TIP3    H1 6459   2.342   3.822   3.114 -0.7686  0.9389 -1.7528
 2165TIP3    H2 6460   2.464   3.898   3.162  0.0929  0.1113 -2.5545
 2166TIP3   OH2 6461   0.204   3.642   1.736  0.4308 -0.3444 -0.4215
 2166TIP3    H1 6462   0.290   3.665   1.703  0.3989 -0.9095 -0.9039
 2166TIP3    H2 6463   0.169   3.579   1.673  0.1076 -0.9475  0.3392
 2167TIP3   OH2 6464   6.217   4.170   1.151 -0.0594 -0.0832 -0.4504
 2167TIP3    H1 6465   6.193   4.262   1.161  0.9442  0.1105  0.3387
 2167TIP3    H2 6466   6.312   4.170   1.143  0.3283 -1.2400  2.7152
 2168TIP3   OH2 6467   6.089   5.713   0.676  0.0522 -0.1137 -0.6417
 2168TIP3    H1 6468   6.014   5.735   0.621 -0.3830 -0.3726 -0.1658
 2168TIP3    H2 6469   6.127   5.798   0.700 -0.5864  0.0651 -0.2222
 2169TIP3   OH2 6470   0.669   5.916   5.851 -0.0932 -0.8231 -0.1987
 2169TIP3    H1 6471   0.662   5.946   5.761 -0.1095 -1.0525 -0.2725
 2169TIP3    H2 6472   0.654   5.995   5.903 -2.2387 -1.0515 -0.3516
 2170TIP3   OH2 6473   3.858   4.095   4.843 -0.3748 -0.0030  0.5215
 2170TIP3    H1 6474   3.777   4.047   4.856  0.6418 -1.5715  1.3673
 2170TIP3    H2 6475   3.893   4.062   4.760 -0.4626  0.5034  0.2739
 2171TIP3   OH2 6476   1.523   5.918   1.717 -0.3170  0.2972 -0.1188
 2171TIP3    H1 6477   1.613   5.939   1.693  0.2063 -0.7576  0.8377
 2171TIP3    H2 6478   1.493   5.856   1.651 -0.1453  0.2092 -0.1128
 2172TIP3   OH2 6479   0.117   6.452   1.305  0.6614 -0.4752  0.2388
 2172TIP3    H1 6480   0.043   6.485   1.256  1.4548 -0.1365 -0.7601
 2172TIP3    H2 6481   0.126   6.360   1.278  1.4184 -0.1462 -0.6789
 2173TIP3   OH2 6482   0.471   4.134   5.760 -0.3643 -0.0544 -0.2716
 2173TIP3    H1 6483   0.562   4.108   5.751 -0.3167 -0.1719  0.4860
 2173TIP3    H2 6484   0.436   4.130   5.670 -0.0136 -1.4326 -0.3810
 2174TIP3   OH2 6485   0.651   4.584   4.392 -0.1608  0.0961  0.0816
 2174TIP3    H1 6486   0.640   4.616   4.482 -0.8689  1.0537 -0.3231
 2174TIP3    H2 6487   0.657   4.664   4.339 -0.1165 -0.4543 -0.7573
 2175TIP3   OH2 6488   0.121   1.692   1.856  0.0746  0.0306  0.2668
 2175TIP3    H1 6489   0.086   1.723   1.940  1.1949  0.7220  0.4987
 2175TIP3    H2 6490   0.127   1.597   1.866 -0.3283  0.0517  0.7528
 2176TIP3   OH2 6491   4.492   5.422   1.510  0.2627  0.6912  0.1695
 2176TIP3    H1 6492   4.454   5.419   1.422 -1.1334 -2.7996  0.7155
 2176TIP3    H2 6493   4.583   5.396   1.497 -0.1621 -0.7172 -0.2388
 2177TIP3   OH2 6494   4.225   3.324   4.072 -0.3583  0.2876  0.1520
 2177TIP3    H1 6495   4.131   3.315   4.090 -0.5444 -0.2351 -0.9913
 2177TIP3    H2 6496   4.267   3.268   4.138 -0.8895  0.0502  0.3005
 2178TIP3   OH2 6497   2.105   4.881   1.104  0.4192 -0.7871  0.2365
 2178TIP3    H1 6498   2.017   4.903   1.073 -0.0600 -2.0269  0.6508
 2178TIP3    H2 6499   2.141   4.964   1.135 -0.6793 -0.2925  0.2401
 2179TIP3   OH2 6500   3.189   4.655   3.380  0.5051 -0.1754 -0.2523
 2179TIP3    H1 6501   3.275   4.615   3.369 -0.2472 -2.7421  2.1529
 2179TIP3    H2 6502   3.175   4.657   3.475 -0.6366  3.6457 -0.3266
 2180TIP3   OH2 6503   6.848   3.396   5.131  0.4764 -0.1924  0.3724
 2180TIP3    H1 6504   6.799   3.476   5.151  2.0113  0.6914  0.7052
 2180TIP3    H2 6505   6.862   3.399   5.036  0.1898 -0.2771  0.3263
 2181TIP3   OH2 6506   1.725   2.443   2.508  0.2495  0.5183  0.2433
 2181TIP3    H1 6507   1.809   2.431   2.553  0.0946 -0.2198  0.3541
 2181TIP3    H2 6508   1.749   2.472   2.420  0.6548 -0.2455  0.0883
 2182TIP3   OH2 6509   2.074   6.741   1.280 -0.1825 -0.0040  0.2046
 2182TIP3    H1 6510   2.169   6.749   1.267 -0.2417  1.4862  0.4269
 2182TIP3    H2 6511   2.043   6.832   1.284 -1.5511 -0.4616  0.6378
 2183TIP3   OH2 6512   3.319   0.043   3.465 -0.2271  0.0902  0.2299
 2183TIP3    H1 6513   3.256   0.087   3.522  1.0330  1.6979  0.4527
 2183TIP3    H2 6514   3.403   0.084   3.486  0.6833 -1.0667 -0.9904
 2184TIP3   OH2 6515   3.243   2.962   2.183  0.9518  0.3654  0.2850
 2184TIP3    H1 6516   3.187   2.895   2.223  1.5724  0.3996  1.2576
 2184TIP3    H2 6517   3.275   3.013   2.257  1.9737  0.5760 -0.2783
 2185TIP3   OH2 6518   2.443   3.245   3.563 -0.0181  0.0844 -0.1730
 2185TIP3    H1 6519   2.438   3.259   3.658 -0.3666 -0.2120 -0.1468
 2185TIP3    H2 6520   2.469   3.153   3.554  1.7799  0.5731 -0.3505
 2186TIP3   OH2 6521   1.326   1.460   1.434 -0.1356 -0.2434 -0.7780
 2186TIP3    H1 6522   1.337   1.366   1.448  0.2514 -0.4129 -2.0737
 2186TIP3    H2 6523   1.260   1.466   1.364 -1.4219  0.5121  0.4452
 2187TIP3   OH2 6524   4.973   3.045   4.872  0.4060 -0.0579 -0.3577
 2187TIP3    H1 6525   4.985   3.043   4.967  1.1039 -1.0993 -0.4561
 2187TIP3    H2 6526   4.937   3.132   4.855 -0.8455 -0.2580  0.9851
 2188TIP3   OH2 6527   5.726   4.698   0.121 -0.3796  0.0461  0.0498
 2188TIP3    H1 6528   5.698   4.608   0.103 -1.8363  1.0485 -3.3894
 2188TIP3    H2 6529   5.655   4.734   0.174 -0.0200 -0.6347  1.0354
 2189TIP3   OH2 6530   2.500   6.374   2.497 -0.3387 -0.0896  0.9619
 2189TIP3    H1 6531   2.581   6.364   2.447  0.0625 -1.6933  1.8540
 2189TIP3    H2 6532   2.446   6.432   2.445  0.3061 -1.1852 -1.0276
 2190TIP3   OH2 6533   3.354   0.384   1.829 -0.0660  0.4522  0.5945
 2190TIP3    H1 6534   3.295   0.421   1.896 -0.1298  2.5331 -0.5133
 2190TIP3    H2 6535   3.300   0.318   1.785 -0.6440  0.3818  1.3652
 2191TIP3   OH2 6536   2.640   4.339   1.574 -0.1770  0.5486  0.4463
 2191TIP3    H1 6537   2.615   4.330   1.666  0.4671  1.6878  0.7510
 2191TIP3    H2 6538   2.610   4.427   1.549 -1.1745 -0.0960 -0.7075
 2192TIP3   OH2 6539   1.901   3.579   4.362 -0.6542  0.2974 -0.1606
 2192TIP3    H1 6540   1.939   3.551   4.446  0.2635 -0.0104 -0.6637
 2192TIP3    H2 6541   1.975   3.578   4.301 -1.6090 -1.0026 -1.3399
 2193TIP3   OH2 6542   0.693   3.233   4.725 -0.1504 -0.4004 -0.0814
 2193TIP3    H1 6543   0.714   3.282   4.645  1.9150  0.9982  1.2374
 2193TIP3    H2 6544   0.739   3.150   4.715  2.3042  0.7727  0.6795
 2194TIP3   OH2 6545   3.931   1.272   0.036 -0.1031  0.1305  0.0198
 2194TIP3    H1 6546   3.939   1.326   0.114 -1.2209 -1.0401  0.9819
 2194TIP3    H2 6547   4.022   1.248   0.014  0.1861 -0.2161  1.4695
 2195TIP3   OH2 6548   1.688   2.077   2.300  0.1662  0.2372 -0.2756
 2195TIP3    H1 6549   1.662   2.046   2.213  1.9404 -1.1777 -0.3416
 2195TIP3    H2 6550   1.606   2.104   2.341 -0.8765 -0.3677 -1.8809
 2196TIP3   OH2 6551   4.167   5.510   5.505  0.2010 -0.3936 -0.3342
 2196TIP3    H1 6552   4.252   5.467   5.505  1.2309  1.5170 -0.2930
 2196TIP3    H2 6553   4.151   5.531   5.597  0.3698  0.4917 -0.4989
 2197TIP3   OH2 6554   0.461   2.782   0.180  0.0670 -0.6785  0.2454
 2197TIP3    H1 6555   0.522   2.713   0.151  1.4577  0.0382  1.3353
 2197TIP3    H2 6556   0.438   2.757   0.269  0.5442  0.2220  0.6318
 2198TIP3   OH2 6557   5.294   3.646   3.665 -0.1931  0.3438  0.4408
 2198TIP3    H1 6558   5.276   3.624   3.756 -1.1931  1.5222  0.5541
 2198TIP3    H2 6559   5.356   3.580   3.636 -0.1656 -0.2817  1.8592
 2199TIP3   OH2 6560   5.644   2.359   3.203  0.3291  0.0315 -0.0557
 2199TIP3    H1 6561   5.551   2.364   3.181  0.0393 -0.7292  0.9225
 2199TIP3    H2 6562   5.687   2.331   3.122 -0.1188  1.5175 -0.8511
 2200TIP3   OH2 6563   3.085   2.210   2.100 -0.0429 -0.4632 -0.1811
 2200TIP3    H1 6564   3.161   2.254   2.139 -0.7328  0.6942 -0.0882
 2200TIP3    H2 6565   3.095   2.224   2.006 -1.2565  1.6696 -0.0548
 2201TIP3   OH2 6566   3.672   2.968   1.532 -0.1034 -0.3040 -0.1161
 2201TIP3    H1 6567   3.688   2.875   1.543 -1.0433 -0.4985 -0.2928
 2201TIP3    H2 6568   3.578   2.978   1.547  0.1132  0.7388  0.6929
 2202TIP3   OH2 6569   5.504   1.042   1.084 -0.2624  0.1040  0.0048
 2202TIP3    H1 6570   5.481   0.955   1.053 -0.1353  0.3454 -0.8006
 2202TIP3    H2 6571   5.421   1.080   1.113 -0.3101 -0.2985  0.4056
 2203TIP3   OH2 6572   6.859   0.020   1.048 -0.1657  0.2256 -0.7733
 2203TIP3    H1 6573   6.869   0.114   1.033  0.3474  0.4833  0.9642
 2203TIP3    H2 6574   6.932  -0.003   1.106 -1.9050 -0.6300  1.1968
 2204TIP3   OH2 6575   1.597   3.454   5.022  0.2256  0.4014  0.3600
 2204TIP3    H1 6576   1.532   3.406   5.073 -0.7643 -0.4547 -1.6014
 2204TIP3    H2 6577   1.548   3.529   4.986  0.5114  0.2118 -0.4495
 2205TIP3   OH2 6578   5.393   2.499   5.155 -0.3385 -0.6063  0.2815
 2205TIP3    H1 6579   5.324   2.435   5.138  1.7117 -2.9252  0.1530
 2205TIP3    H2 6580   5.454   2.453   5.213  1.1373  1.3404  0.3728
 2206TIP3   OH2 6581   4.214   4.381   2.161 -0.2371  0.6139  0.3713
 2206TIP3    H1 6582   4.294   4.331   2.145  0.7223  2.7892 -2.3434
 2206TIP3    H2 6583   4.243   4.457   2.211 -0.7343  1.0068  0.0675
 2207TIP3   OH2 6584   6.805   6.400   5.275  0.3691 -0.0974 -0.6230
 2207TIP3    H1 6585   6.890   6.359   5.292  0.4969  0.9662  1.7627
 2207TIP3    H2 6586   6.748   6.328   5.251  1.6219 -1.0324 -0.8909
 2208TIP3   OH2 6587   1.828   1.282   1.087  1.3502 -0.4926 -0.1017
 2208TIP3    H1 6588   1.870   1.266   1.002 -0.3043 -1.6446 -0.7677
 2208TIP3    H2 6589   1.735   1.267   1.070  0.1399  4.5494  0.5949
 2209TIP3   OH2 6590   3.810   1.805   2.072  0.1982  0.2424  0.3546
 2209TIP3    H1 6591   3.829   1.729   2.017  0.4530  0.2971  0.3657
 2209TIP3    H2 6592   3.885   1.863   2.059  0.2786  0.2414  0.7858
 2210TIP3   OH2 6593   5.913   6.205   0.241  0.5559 -0.1439 -0.1689
 2210TIP3    H1 6594   5.882   6.162   0.161  0.3778  0.5057 -0.4521
 2210TIP3    H2 6595   5.839   6.202   0.301  0.7656 -0.8457  0.0635
 2211TIP3   OH2 6596   0.807   5.503   4.548  0.0237  0.0678  0.1462
 2211TIP3    H1 6597   0.842   5.544   4.627  0.1009 -0.7094  0.5203
 2211TIP3    H2 6598   0.714   5.488   4.568  0.6812 -3.1048  1.4026
 2212TIP3   OH2 6599   4.845   3.491   5.496  0.1300  0.2338 -0.2512
 2212TIP3    H1 6600   4.774   3.527   5.443 -0.3383  1.0475  0.8674
 2212TIP3    H2 6601   4.916   3.476   5.435 -0.7782  0.0339 -1.2955
 2213TIP3   OH2 6602   0.655   0.610   0.206  0.4515 -0.3287  0.7075
 2213TIP3    H1 6603   0.730   0.563   0.170  1.4475  1.3005  0.5494
 2213TIP3    H2 6604   0.598   0.626   0.131 -0.0445 -1.5292  0.8185
 2214TIP3   OH2 6605   6.101   5.955   0.016  0.4539  0.1794  0.3047
 2214TIP3    H1 6606   6.085   5.863   0.037  1.8414 -0.4493 -1.1438
 2214TIP3    H2 6607   6.020   5.984  -0.027 -0.3519 -0.0589  1.6253
 2215TIP3   OH2 6608   1.369   5.988   5.457  0.0355  0.3629 -0.2138
 2215TIP3    H1 6609   1.304   5.918   5.461  0.8758 -0.4706 -0.7505
 2215TIP3    H2 6610   1.407   5.991   5.544  0.3785 -0.2331 -0.3397
 2216TIP3   OH2 6611   1.451   5.309   2.569 -0.3852 -0.1246  0.0775
 2216TIP3    H1 6612   1.457   5.354   2.485 -1.2945 -0.0973  0.0253
 2216TIP3    H2 6613   1.543   5.291   2.593 -0.0484  1.0746 -0.2505
 2217TIP3   OH2 6614   3.522   3.406   3.627  0.6649 -0.2558  0.4050
 2217TIP3    H1 6615   3.480   3.397   3.542 -1.1425 -0.0802  1.2267
 2217TIP3    H2 6616   3.609   3.366   3.616  1.1579  1.3061 -1.9492
 2218TIP3   OH2 6617   4.216   0.350   5.693 -0.1867  0.3679 -0.5942
 2218TIP3    H1 6618   4.175   0.397   5.621  0.7146  0.0554 -1.3273
 2218TIP3    H2 6619   4.303   0.389   5.702  0.6924 -1.3004 -1.4013
 2219TIP3   OH2 6620   5.901   4.748   0.573  0.7236  0.5645  0.3803
 2219TIP3    H1 6621   5.896   4.755   0.668 -0.3006 -0.3271  0.4194
 2219TIP3    H2 6622   5.968   4.682   0.557  0.2130 -0.0023  0.5350
 2220TIP3   OH2 6623   2.781   4.988   4.451  0.3361  0.4334 -0.0387
 2220TIP3    H1 6624   2.801   4.899   4.482  3.1076  0.5597 -1.1344
 2220TIP3    H2 6625   2.777   5.041   4.530  1.8066 -0.1758  0.4929
 2221TIP3   OH2 6626   5.408   5.656   5.745 -0.1819 -0.0564  0.1831
 2221TIP3    H1 6627   5.456   5.739   5.741 -0.4314  0.0460 -0.9131
 2221TIP3    H2 6628   5.477   5.589   5.737  0.1395 -0.0163  2.0877
 2222TIP3   OH2 6629   1.179   2.823   3.760  0.4336  1.0374  0.1662
 2222TIP3    H1 6630   1.116   2.874   3.709  0.5090  0.6690 -0.3035
 2222TIP3    H2 6631   1.146   2.733   3.755  0.4353  0.9988  0.7803
 2223TIP3   OH2 6632   0.124   2.138   0.192 -0.3475 -0.8214 -0.9279
 2223TIP3    H1 6633   0.105   2.045   0.204  1.2016 -1.1468 -0.8176
 2223TIP3    H2 6634   0.219   2.144   0.196 -0.4492  0.9012 -0.0408
 2224TIP3   OH2 6635   3.133   3.164   4.251 -0.7171  0.1564 -0.4296
 2224TIP3    H1 6636   3.116   3.255   4.274  0.7573  0.1572  0.8759
 2224TIP3    H2 6637   3.047   3.123   4.248 -1.3383  1.3985 -0.1959
 2225TIP3   OH2 6638   6.697   5.571   3.844 -0.1584  0.1776  0.7253
 2225TIP3    H1 6639   6.749   5.636   3.890 -1.6244  0.9031  1.4061
 2225TIP3    H2 6640   6.606   5.598   3.857 -0.6832  0.1065 -2.1211
 2226TIP3   OH2 6641   6.636   4.272   3.443  0.2193  0.2623  0.4849
 2226TIP3    H1 6642   6.621   4.184   3.478 -1.6499  0.4353  0.2347
 2226TIP3    H2 6643   6.550   4.315   3.448  0.7864  1.6276 -0.6493
 2227TIP3   OH2 6644   0.326   0.271   2.841 -0.6962  0.4912 -0.3089
 2227TIP3    H1 6645   0.391   0.205   2.867  0.3354  1.2552 -0.8708
 2227TIP3    H2 6646   0.292   0.305   2.924 -0.5598 -0.0899 -0.0082
 2228TIP3   OH2 6647   6.831   0.905   0.809 -0.3450 -0.2926  0.7561
 2228TIP3    H1 6648   6.744   0.945   0.817  0.2286  0.8906  1.3350
 2228TIP3    H2 6649   6.887   0.976   0.776  0.6219 -0.7101  1.4541
 2229TIP3   OH2 6650   4.442   0.018   3.027  0.1360 -0.5702  0.2620
 2229TIP3    H1 6651   4.522  -0.000   3.077 -0.6499 -0.7376  1.4961
 2229TIP3    H2 6652   4.471   0.079   2.959  1.0439  0.5490  1.5891
 2230TIP3   OH2 6653   2.665   5.085   2.129  0.2121 -0.0926 -0.0573
 2230TIP3    H1 6654   2.637   5.175   2.149  1.1081  0.6731 -1.9606
 2230TIP3    H2 6655   2.652   5.037   2.211  0.0277  1.8429  1.1142
 2231TIP3   OH2 6656   4.885   1.105   4.205 -0.1558  0.1071 -0.3079
 2231TIP3    H1 6657   4.838   1.168   4.259  0.3852  1.2801 -1.1686
 2231TIP3    H2 6658   4.824   1.032   4.195 -2.4839  2.1643 -2.6113
 2232TIP3   OH2 6659   3.647   2.799   3.664 -0.4057  0.0024 -0.0026
 2232TIP3    H1 6660   3.671   2.850   3.741  0.8366  0.2211 -0.4990
 2232TIP3    H2 6661   3.556   2.775   3.678  0.0784 -0.8551  2.0109
 2233TIP3   OH2 6662   0.907   1.776   4.687  0.3420  0.0122 -0.1823
 2233TIP3    H1 6663   0.910   1.681   4.698  1.3171 -0.1785 -1.8682
 2233TIP3    H2 6664   0.977   1.796   4.625 -0.6897  1.6797 -0.8826
 2234TIP3   OH2 6665   3.079   0.469   5.485 -0.0714 -0.3288  0.2622
 2234TIP3    H1 6666   3.032   0.520   5.419  0.6663 -1.7763 -1.4824
 2234TIP3    H2 6667   3.011   0.413   5.523 -0.6645  1.0945  1.3917
 2235TIP3   OH2 6668   1.724   3.937   0.349  0.4758 -0.2345  0.2445
 2235TIP3    H1 6669   1.637   3.898   0.362  0.4745 -0.4472 -0.3671
 2235TIP3    H2 6670   1.751   3.908   0.262  0.7506  0.6213  0.0297
 2236TIP3   OH2 6671   2.780   6.327   3.612 -0.5295 -0.4180  0.3698
 2236TIP3    H1 6672   2.837   6.345   3.688 -1.2726  0.1381  0.8132
 2236TIP3    H2 6673   2.814   6.246   3.576  0.7019  0.0205  0.4789
 2237TIP3   OH2 6674   6.508   1.352   1.544 -0.0103 -0.2116  0.7816
 2237TIP3    H1 6675   6.476   1.351   1.634  0.1736  1.6916  0.9112
 2237TIP3    H2 6676   6.588   1.405   1.548 -0.3938  0.5119 -0.5995
 2238TIP3   OH2 6677   0.279   6.066   1.009  0.0040 -0.1200  0.9228
 2238TIP3    H1 6678   0.201   6.112   0.979  0.3387  0.9429  1.6104
 2238TIP3    H2 6679   0.347   6.134   1.010  0.9330 -1.0278  0.3497
 2239TIP3   OH2 6680   7.017   3.012   5.561 -0.3529 -0.1725  0.2035
 2239TIP3    H1 6681   7.026   2.937   5.619  2.9404  0.7727  1.1328
 2239TIP3    H2 6682   6.980   3.081   5.616 -0.2145 -0.1739  0.2992
 2240TIP3   OH2 6683   3.970   4.753   5.565  0.4208 -0.0658  0.4095
 2240TIP3    H1 6684   3.940   4.706   5.487  2.0207  0.3097 -0.4724
 2240TIP3    H2 6685   3.905   4.731   5.632 -1.6925  0.5368 -1.2954
 2241TIP3   OH2 6686   0.991   3.759   1.012  0.4751 -0.8685 -0.6418
 2241TIP3    H1 6687   1.020   3.717   1.093 -1.2407  0.3711  0.6738
 2241TIP3    H2 6688   1.024   3.848   1.018 -0.8002 -0.3807 -0.6506
 2242TIP3   OH2 6689   6.515   0.137   3.677  0.4659  0.2346 -0.1227
 2242TIP3    H1 6690   6.567   0.217   3.678 -2.5118  2.3038  0.6079
 2242TIP3    H2 6691   6.447   0.153   3.611 -1.1609 -0.9945  1.1831
 2243TIP3   OH2 6692   0.095   2.444   1.909 -0.0069  0.2912 -0.3609
 2243TIP3    H1 6693   0.184   2.454   1.875  0.4186 -1.8575 -0.0300
 2243TIP3    H2 6694   0.041   2.500   1.854  1.4146  0.8801 -1.1909
 2244TIP3   OH2 6695   2.069   4.098   0.616 -0.5332  0.2640  0.4145
 2244TIP3    H1 6696   2.026   4.047   0.684 -2.4786  0.2310 -0.7651
 2244TIP3    H2 6697   2.000   4.118   0.552  0.1420  4.0189  0.5790
 2245TIP3   OH2 6698   3.798   1.651   3.584 -0.4621 -0.4032  0.3825
 2245TIP3    H1 6699   3.858   1.717   3.549 -0.1616 -0.1758  1.2939
 2245TIP3    H2 6700   3.711   1.689   3.574 -0.4577 -0.7025 -0.8810
 2246TIP3   OH2 6701   6.094   0.710   5.061  0.4683 -0.1940 -0.1356
 2246TIP3    H1 6702   6.178   0.752   5.078  0.3694  0.3466 -0.9064
 2246TIP3    H2 6703   6.089   0.705   4.965 -0.1935 -0.5931 -0.0850
 2247TIP3   OH2 6704   3.713   2.929   1.167 -0.4003 -0.1088 -0.2514
 2247TIP3    H1 6705   3.708   2.979   1.086 -0.7676 -0.3130 -0.3580
 2247TIP3    H2 6706   3.751   2.990   1.230 -1.1413  0.4227 -0.2974
 2248TIP3   OH2 6707   6.529   4.834   4.551  0.0101  0.3446 -0.4356
 2248TIP3    H1 6708   6.496   4.875   4.472 -0.4891  1.9513  0.5681
 2248TIP3    H2 6709   6.593   4.770   4.520  1.2767  2.2836 -2.0581
 2249TIP3   OH2 6710   4.079   6.190   3.532  0.3782  0.1619  0.0043
 2249TIP3    H1 6711   4.081   6.220   3.623  1.7072 -2.5356  0.9883
 2249TIP3    H2 6712   4.002   6.133   3.527 -1.2805  2.3788 -1.4106
 2250TIP3   OH2 6713   3.908   5.020   3.951 -0.4516 -0.7579  0.2781
 2250TIP3    H1 6714   3.836   4.992   4.008  0.0579 -2.1954  0.2529
 2250TIP3    H2 6715   3.865   5.055   3.874 -1.1706  1.5294  1.6262
 2251TIP3   OH2 6716   4.228   1.856   2.440 -0.2245 -0.4638 -0.5834
 2251TIP3    H1 6717   4.270   1.773   2.461  1.4570  0.7601  1.2404
 2251TIP3    H2 6718   4.140   1.832   2.412  0.7273 -2.9400 -1.7518
 2252TIP3   OH2 6719   6.769   2.546   0.743  0.1216 -0.2075 -0.6656
 2252TIP3    H1 6720   6.725   2.467   0.774  1.2188 -0.3220  0.6700
 2252TIP3    H2 6721   6.854   2.515   0.710 -0.2693  0.1659 -2.1089
 2253TIP3   OH2 6722   1.351   2.424   1.109 -0.2564  0.3111  0.3699
 2253TIP3    H1 6723   1.283   2.449   1.173 -0.8977  0.4819 -0.3585
 2253TIP3    H2 6724   1.307   2.361   1.052  0.3853 -0.0241  0.2437
 2254TIP3   OH2 6725   2.158   4.912   5.502 -0.4618  0.2759  0.2580
 2254TIP3    H1 6726   2.141   5.006   5.515 -0.4996  0.5081 -1.3298
 2254TIP3    H2 6727   2.083   4.869   5.542 -0.7907  0.9585  0.4034
 2255TIP3   OH2 6728   3.611   0.626   1.718  0.2983  0.3167 -0.0753
 2255TIP3    H1 6729   3.663   0.653   1.642  0.2792 -0.0974 -0.2395
 2255TIP3    H2 6730   3.528   0.596   1.680 -0.3976  1.7491  0.2377
 2256TIP3   OH2 6731   5.720   1.517   5.570 -0.2398 -0.2643  0.1145
 2256TIP3    H1 6732   5.720   1.603   5.528 -0.4345 -0.0619  0.5170
 2256TIP3    H2 6733   5.812   1.492   5.574 -0.1603  0.0382  0.2099
 2257TIP3   OH2 6734   0.787   6.639   4.802 -0.3374 -1.2221 -0.4129
 2257TIP3    H1 6735   0.787   6.550   4.836  1.8995 -1.2442 -0.2735
 2257TIP3    H2 6736   0.809   6.629   4.709 -1.2759 -0.8672 -0.6831
 2258TIP3   OH2 6737   2.304   0.714   5.252 -0.4362  0.4168 -0.2230
 2258TIP3    H1 6738   2.318   0.696   5.159  0.8076 -0.3051  0.0791
 2258TIP3    H2 6739   2.391   0.708   5.290 -1.2314 -1.9045  1.4256
 2259TIP3   OH2 6740   2.401   3.583   0.107 -0.0230  0.3845  0.3813
 2259TIP3    H1 6741   2.366   3.560   0.022 -0.1916  0.4011  0.4458
 2259TIP3    H2 6742   2.496   3.584   0.095 -0.0540  0.5763  0.1466
 2260TIP3   OH2 6743   0.607   1.325   2.753 -0.4624 -0.2625  0.5027
 2260TIP3    H1 6744   0.576   1.268   2.823 -3.5036 -0.9195 -1.2126
 2260TIP3    H2 6745   0.583   1.413   2.782 -1.6766 -0.5276  0.3582
 2261TIP3   OH2 6746   0.301   6.413   0.534  0.8380  0.1918  0.0528
 2261TIP3    H1 6747   0.226   6.411   0.475  1.4763  0.3396 -0.7712
 2261TIP3    H2 6748   0.359   6.479   0.498  1.4616 -0.0610  0.5718
 2262TIP3   OH2 6749   3.445   2.402   2.526  0.1883  0.3791  0.6336
 2262TIP3    H1 6750   3.454   2.391   2.431  1.2815 -0.6822  0.8206
 2262TIP3    H2 6751   3.420   2.493   2.538  3.1708  1.4982 -0.5561
 2263TIP3   OH2 6752   4.073   3.687   5.324  0.6478 -0.3886 -0.4735
 2263TIP3    H1 6753   4.143   3.633   5.359  1.6025  1.0093 -0.1163
 2263TIP3    H2 6754   4.089   3.690   5.230  1.5412  0.5167 -0.3110
 2264TIP3   OH2 6755   2.318   2.917   0.235  0.0008 -0.1358  0.0750
 2264TIP3    H1 6756   2.341   2.914   0.142 -0.5215  0.9055 -0.0989
 2264TIP3    H2 6757   2.235   2.870   0.240  0.5920 -1.1945  0.2112
 2265TIP3   OH2 6758   5.321   1.649   5.715  0.6184 -0.2497  0.4109
 2265TIP3    H1 6759   5.340   1.562   5.679  0.0351 -0.6282  0.9883
 2265TIP3    H2 6760   5.386   1.661   5.783  2.1374  0.7406 -1.1305
 2266TIP3   OH2 6761   1.141   3.029   4.847  0.0140 -0.6678 -0.2037
 2266TIP3    H1 6762   1.138   2.991   4.935  1.5003  0.4943  0.3869
 2266TIP3    H2 6763   1.178   2.959   4.793 -1.5087 -1.6227 -0.0828
 2267TIP3   OH2 6764   5.003   2.300   0.478 -0.1116 -0.4022  0.3103
 2267TIP3    H1 6765   5.030   2.355   0.404  2.7387 -1.0651  0.7223
 2267TIP3    H2 6766   4.937   2.352   0.524  0.8454  1.7140 -0.5688
 2268TIP3   OH2 6767   4.374   4.302   4.461  0.2550 -0.1598  0.0542
 2268TIP3    H1 6768   4.281   4.309   4.438  0.3471 -0.8442 -0.5511
 2268TIP3    H2 6769   4.398   4.390   4.489 -0.0891  0.5030 -1.6336
 2269TIP3   OH2 6770   2.972   2.776   5.108 -0.4336  0.2197  0.5938
 2269TIP3    H1 6771   3.041   2.737   5.054 -1.2257  0.0461 -0.3241
 2269TIP3    H2 6772   2.909   2.705   5.122 -0.9913  0.6704  0.4298
 2270TIP3   OH2 6773   0.501   6.295   4.590  0.1825 -0.1898 -0.2929
 2270TIP3    H1 6774   0.490   6.291   4.685 -2.2705 -0.0556 -0.5120
 2270TIP3    H2 6775   0.566   6.227   4.570 -0.6668 -1.5404  1.3124
 2271TIP3   OH2 6776   4.059   6.197   4.834 -0.1613  0.3269 -0.0224
 2271TIP3    H1 6777   4.099   6.284   4.836 -1.5541  1.0091 -0.4477
 2271TIP3    H2 6778   4.048   6.178   4.741 -0.2452 -0.1238  0.0778
 2272TIP3   OH2 6779   3.883   3.372   3.816  0.2873 -0.0370 -0.7671
 2272TIP3    H1 6780   3.853   3.285   3.789  0.6048 -0.4069  0.0266
 2272TIP3    H2 6781   3.864   3.375   3.910  3.3100 -0.5561 -0.0453
 2273TIP3   OH2 6782   2.288   0.528   3.935  0.3239  0.4600  0.3205
 2273TIP3    H1 6783   2.265   0.445   3.978  0.3783 -0.8331 -1.9761
 2273TIP3    H2 6784   2.372   0.552   3.973 -0.0418 -0.1319  1.5658
 2274TIP3   OH2 6785   2.303   3.406   4.356  0.2003  0.1378 -0.2350
 2274TIP3    H1 6786   2.399   3.397   4.354  0.2831  0.7246  0.6809
 2274TIP3    H2 6787   2.288   3.493   4.393 -0.6792  0.5067 -1.4124
 2275TIP3   OH2 6788   5.066   4.950   3.590 -0.1268  0.0033 -0.1862
 2275TIP3    H1 6789   5.024   4.917   3.510  1.2068 -0.6810 -0.6334
 2275TIP3    H2 6790   5.144   4.895   3.600 -0.3632 -0.0555  1.7014
 2276TIP3   OH2 6791   4.680   0.596   1.777 -0.1886  0.4902  0.0542
 2276TIP3    H1 6792   4.626   0.533   1.824  0.5812 -1.7853 -1.9382
 2276TIP3    H2 6793   4.631   0.615   1.697  0.3877  1.0772 -0.1716
 2277TIP3   OH2 6794   5.385   2.645   3.361  0.2388 -0.3534 -0.0948
 2277TIP3    H1 6795   5.320   2.575   3.351  0.9304 -1.2649  1.4150
 2277TIP3    H2 6796   5.364   2.707   3.291 -1.5486 -1.1605 -0.3432
 2278TIP3   OH2 6797   2.294   3.634   4.765 -0.0558 -0.0979 -0.2460
 2278TIP3    H1 6798   2.381   3.672   4.755 -0.5507  1.2450  0.2637
 2278TIP3    H2 6799   2.234   3.708   4.753 -1.2405 -1.3087 -2.4217
 2279TIP3   OH2 6800   6.540   4.162   1.353  0.0168  0.4988  0.0525
 2279TIP3    H1 6801   6.513   4.238   1.301 -2.4637 -0.0602  0.4102
 2279TIP3    H2 6802   6.470   4.150   1.417  1.3687 -0.8580  1.3673
 2280TIP3   OH2 6803   6.874   2.692   1.005  0.5672  0.5016 -0.0270
 2280TIP3    H1 6804   6.915   2.648   1.079 -1.1625  0.2237  0.8020
 2280TIP3    H2 6805   6.891   2.633   0.931  1.1280  0.1044  0.4026
 2281TIP3   OH2 6806   1.578   4.568   1.163  0.0383  0.6496 -0.2169
 2281TIP3    H1 6807   1.635   4.545   1.089  0.4797  1.2570 -0.0771
 2281TIP3    H2 6808   1.557   4.660   1.149 -1.9146  0.1385 -0.9087
 2282TIP3   OH2 6809   5.948   3.379   2.858  0.0739  0.2173 -0.1933
 2282TIP3    H1 6810   5.969   3.305   2.800 -0.1253 -0.0464  0.0719
 2282TIP3    H2 6811   6.012   3.446   2.834  0.4830 -0.1653 -0.1957
 2283TIP3   OH2 6812   3.338   4.041   2.280 -0.4014  0.3047  0.1169
 2283TIP3    H1 6813   3.393   4.046   2.201  0.4870  1.2467  0.7745
 2283TIP3    H2 6814   3.371   4.111   2.336 -1.4913  0.0948  1.0394
 2284TIP3   OH2 6815   6.612   1.967   1.145 -0.1723 -0.4371  0.5175
 2284TIP3    H1 6816   6.618   1.998   1.235 -2.1109 -1.7219  1.1515
 2284TIP3    H2 6817   6.546   2.023   1.104  1.2364  0.6386 -0.3873
 2285TIP3   OH2 6818   5.822   5.508   2.015 -0.1380 -0.6797 -0.1947
 2285TIP3    H1 6819   5.760   5.458   1.962 -0.1250  0.3722 -1.2385
 2285TIP3    H2 6820   5.827   5.593   1.972  1.6747 -0.5864  0.1384
 2286TIP3   OH2 6821   3.367   2.671   1.731 -0.1516  0.2356 -0.0709
 2286TIP3    H1 6822   3.404   2.650   1.817 -2.9519  2.4726  1.8860
 2286TIP3    H2 6823   3.316   2.593   1.707 -0.0028 -0.1138  0.7149
 2287TIP3   OH2 6824   3.076   0.129   2.549  0.1555  0.0692 -0.0784
 2287TIP3    H1 6825   2.982   0.113   2.557 -0.6747  3.7691 -0.6513
 2287TIP3    H2 6826   3.103   0.165   2.633  0.3314  1.7562 -0.8086
 2288TIP3   OH2 6827   2.332   3.001   5.701  0.0640  0.2423 -0.1065
 2288TIP3    H1 6828   2.328   2.953   5.783  0.8174 -0.6967 -0.5957
 2288TIP3    H2 6829   2.278   3.079   5.715  1.0607  0.6603  1.6370
 2289TIP3   OH2 6830   4.473   0.970   2.329 -0.3128 -0.1462 -0.2703
 2289TIP3    H1 6831   4.487   0.919   2.408 -1.1749 -0.4321 -0.2863
 2289TIP3    H2 6832   4.410   1.037   2.355  0.2042  0.4203 -0.4546
 2290TIP3   OH2 6833   2.897   0.347   2.764  0.1418 -0.4771 -0.7682
 2290TIP3    H1 6834   2.880   0.341   2.671  1.4748  0.2810 -1.0894
 2290TIP3    H2 6835   2.858   0.268   2.801 -2.8007  0.4747 -1.5449
 2291TIP3   OH2 6836   2.188   4.011   2.792 -0.2197 -0.0229 -0.2124
 2291TIP3    H1 6837   2.181   4.058   2.875  0.6037 -0.6768  0.2400
 2291TIP3    H2 6838   2.246   4.065   2.739  0.4289 -0.3224  0.1756
 2292TIP3   OH2 6839   6.438   5.684   2.912 -0.0873 -0.0740  0.4159
 2292TIP3    H1 6840   6.516   5.699   2.964  1.0021 -0.5338 -1.0109
 2292TIP3    H2 6841   6.375   5.646   2.972  1.6942 -2.1979  1.0474
 2293TIP3   OH2 6842   3.878   3.449   3.536  0.2575 -0.7116  0.6193
 2293TIP3    H1 6843   3.863   3.494   3.619  1.4294 -1.9079  1.5220
 2293TIP3    H2 6844   3.806   3.386   3.530  0.2209 -0.6840  0.7696
 2294TIP3   OH2 6845   4.404   1.727   3.263 -0.2813  0.0446 -0.0790
 2294TIP3    H1 6846   4.359   1.799   3.218 -0.4834  1.3310  2.0507
 2294TIP3    H2 6847   4.469   1.770   3.319  0.0824 -1.4647  0.7096
 2295TIP3   OH2 6848   4.433   1.571   1.131 -0.2517 -0.0810  0.5814
 2295TIP3    H1 6849   4.369   1.622   1.081 -0.8685 -0.5344  0.8787
 2295TIP3    H2 6850   4.507   1.630   1.144 -1.0057  0.7986  1.0368
 2296TIP3   OH2 6851   7.008   5.226   1.550 -0.7862  0.0031  0.5105
 2296TIP3    H1 6852   7.047   5.311   1.530 -0.0351 -0.6280 -0.8569
 2296TIP3    H2 6853   7.031   5.210   1.642  0.3066  0.6225  0.3593
 2297TIP3   OH2 6854   5.776   3.604   1.116  0.4526  0.0886  0.7857
 2297TIP3    H1 6855   5.708   3.619   1.049  1.2486  2.7571  0.4372
 2297TIP3    H2 6856   5.782   3.509   1.124 -1.1664 -0.2776 -1.3989
 2298TIP3   OH2 6857   2.081   1.197   0.168  0.1007  0.2404 -0.3460
 2298TIP3    H1 6858   2.133   1.264   0.124  0.1253  1.1358  1.0044
 2298TIP3    H2 6859   2.100   1.117   0.119  0.6996  1.0501 -1.4848
 2299TIP3   OH2 6860   5.694   3.108   5.520  0.2064 -0.3179  0.8019
 2299TIP3    H1 6861   5.707   3.014   5.505  0.7125 -0.1250 -0.0042
 2299TIP3    H2 6862   5.624   3.132   5.460 -0.0971 -0.2219  1.1883
 2300TIP3   OH2 6863   3.634   3.072   5.322  0.4914 -0.2058 -0.0035
 2300TIP3    H1 6864   3.667   3.030   5.243 -0.1707 -0.8312  0.0422
 2300TIP3    H2 6865   3.708   3.070   5.383  1.0875  0.5216 -0.6838
 2301TIP3   OH2 6866   5.516   5.112   0.110  0.0202  0.5322  0.7373
 2301TIP3    H1 6867   5.484   5.149   0.028 -2.1457  0.1625  1.3377
 2301TIP3    H2 6868   5.498   5.018   0.103 -0.6908  0.5615  1.7999
 2302TIP3   OH2 6869   6.740   5.587   1.937  0.6204  0.3414  0.0029
 2302TIP3    H1 6870   6.705   5.677   1.934  1.0055  0.6632 -5.3447
 2302TIP3    H2 6871   6.663   5.531   1.927  0.6780  0.3354 -0.4270
 2303TIP3   OH2 6872   0.203   3.191   2.053  0.1480 -0.3645  0.2821
 2303TIP3    H1 6873   0.230   3.282   2.066 -3.8340  0.9491  0.9272
 2303TIP3    H2 6874   0.219   3.174   1.960  0.6582  1.1106  0.0693
 2304TIP3   OH2 6875   3.639   4.626   4.461 -0.5910 -0.2406  0.9206
 2304TIP3    H1 6876   3.708   4.667   4.410 -0.2544  0.1324  1.6561
 2304TIP3    H2 6877   3.667   4.535   4.470  0.4822  0.1946  2.3099
 2305TIP3   OH2 6878   4.846   6.349   1.816  0.6169 -0.3344  0.0744
 2305TIP3    H1 6879   4.815   6.367   1.905  0.3450 -3.1305  0.6440
 2305TIP3    H2 6880   4.914   6.283   1.827  0.5511 -0.7699 -1.8025
 2306TIP3   OH2 6881   0.625   0.450   1.162 -0.6305 -0.1502 -0.0579
 2306TIP3    H1 6882   0.556   0.418   1.221 -1.6335  1.5486 -0.2496
 2306TIP3    H2 6883   0.702   0.458   1.219 -0.8892 -0.9212  0.4302
 2307TIP3   OH2 6884   5.634   0.284   4.680  0.1322  0.1182 -0.3850
 2307TIP3    H1 6885   5.616   0.192   4.656  1.4720 -0.7656  1.7097
 2307TIP3    H2 6886   5.573   0.335   4.626  0.5196 -1.8611 -2.9249
 2308TIP3   OH2 6887   2.209   5.977   3.698 -0.2315  0.1636  0.1018
 2308TIP3    H1 6888   2.166   5.892   3.689 -0.4307  0.0980  1.3991
 2308TIP3    H2 6889   2.206   6.015   3.611 -0.6354 -0.9226 -0.3839
 2309TIP3   OH2 6890   5.196   3.315   4.924 -1.1059  0.2704 -0.3304
 2309TIP3    H1 6891   5.218   3.266   5.003 -2.9939 -1.4117 -0.7645
 2309TIP3    H2 6892   5.153   3.395   4.957  0.5117  0.8916  0.3569
 2310TIP3   OH2 6893   1.659   0.599   5.032 -0.3218  0.3078  0.1506
 2310TIP3    H1 6894   1.653   0.660   5.106 -1.0909 -1.0447  1.2329
 2310TIP3    H2 6895   1.640   0.653   4.955  1.2433  1.9092  0.8190
 2311TIP3   OH2 6896   7.031   1.447   5.460 -0.1728 -0.0922 -0.2012
 2311TIP3    H1 6897   7.042   1.541   5.449 -0.6602  0.3470  2.5580
 2311TIP3    H2 6898   6.940   1.430   5.435 -0.5005  0.4067  0.6489
 2312TIP3   OH2 6899   4.066   2.186   0.904 -0.3512  0.4590  0.1443
 2312TIP3    H1 6900   3.977   2.180   0.869 -1.5771 -0.7011  3.1194
 2312TIP3    H2 6901   4.091   2.095   0.923  0.5572  0.9368  1.4082
 2313TIP3   OH2 6902   5.401   1.228   1.944  0.3400 -0.1316  0.9550
 2313TIP3    H1 6903   5.490   1.244   1.911  0.5415  0.7320  1.8695
 2313TIP3    H2 6904   5.351   1.204   1.866  1.3013 -0.3186  0.3697
 2314TIP3   OH2 6905   2.193   5.571   2.096 -0.0583  0.2467 -0.0095
 2314TIP3    H1 6906   2.227   5.619   2.172 -1.5577  0.2951  0.6573
 2314TIP3    H2 6907   2.257   5.501   2.081  0.3203  0.3114  1.2317
 2315TIP3   OH2 6908   3.683   4.111   3.451 -0.0204  0.5003 -0.7829
 2315TIP3    H1 6909   3.734   4.168   3.393 -0.5386  1.2332 -0.5364
 2315TIP3    H2 6910   3.625   4.063   3.392  0.8132 -0.2115 -1.0477
 2316TIP3   OH2 6911   0.785   0.442   4.632  0.2416 -0.4482 -0.2488
 2316TIP3    H1 6912   0.727   0.414   4.562 -0.4468 -0.1623  0.2020
 2316TIP3    H2 6913   0.827   0.362   4.663 -1.6678 -1.0300  0.9974
 2317TIP3   OH2 6914   4.575   3.904   0.752 -0.1304 -0.6875 -0.0115
 2317TIP3    H1 6915   4.558   3.965   0.680 -0.3209  1.4194  1.7166
 2317TIP3    H2 6916   4.655   3.859   0.727  1.9626  2.6901  0.0400
 2318TIP3   OH2 6917   4.304   4.146   1.292  0.2214 -0.0224 -0.1697
 2318TIP3    H1 6918   4.372   4.213   1.294 -0.0375  0.2273  0.4816
 2318TIP3    H2 6919   4.350   4.065   1.270  0.6920  0.1889  0.0303
 2319TIP3   OH2 6920   3.866   0.239   3.821  0.3642  0.1154  0.2784
 2319TIP3    H1 6921   3.853   0.203   3.733  0.5223 -1.3238  0.8230
 2319TIP3    H2 6922   3.854   0.334   3.810 -1.7353 -0.2267 -0.8804
 2320TIP3   OH2 6923   1.822   6.169   4.226  0.6625  0.0146 -0.3034
 2320TIP3    H1 6924   1.837   6.093   4.170  1.4676  1.0366 -1.5392
 2320TIP3    H2 6925   1.899   6.171   4.283  0.1764 -0.6225  0.4050
 2321TIP3   OH2 6926   5.130   0.131   5.804 -0.3393  1.0059 -0.1342
 2321TIP3    H1 6927   5.171   0.132   5.890  0.9508 -1.2434 -0.6428
 2321TIP3    H2 6928   5.040   0.106   5.820  0.6476 -2.7149  0.4371
 2322TIP3   OH2 6929   3.885   0.524   5.061  0.3359 -0.4105 -0.4483
 2322TIP3    H1 6930   3.918   0.496   4.975  2.3411  1.8350 -0.5092
 2322TIP3    H2 6931   3.801   0.564   5.041 -2.0408 -4.7848 -0.5064
 2323TIP3   OH2 6932   2.319   4.540   5.536 -0.3164 -0.3678 -0.3049
 2323TIP3    H1 6933   2.273   4.522   5.618  2.2417 -2.2467  0.8588
 2323TIP3    H2 6934   2.261   4.507   5.468 -1.6157 -0.6300  0.8917
 2324TIP3   OH2 6935   5.452   1.175   0.803  0.6043  0.5304 -0.5022
 2324TIP3    H1 6936   5.534   1.128   0.812  0.0950 -0.5494 -1.2813
 2324TIP3    H2 6937   5.389   1.124   0.853  0.4278  1.4479  0.2394
 2325TIP3   OH2 6938   0.819   6.433   4.034  0.2501  0.3397  0.0984
 2325TIP3    H1 6939   0.808   6.342   4.006 -1.7314  0.6040 -0.1064
 2325TIP3    H2 6940   0.730   6.468   4.038  1.0075  2.5146 -0.5869
 2326TIP3   OH2 6941   5.874   2.181   1.754  0.4070 -0.0027 -0.2275
 2326TIP3    H1 6942   5.861   2.179   1.660  0.2183  1.8289 -0.2853
 2326TIP3    H2 6943   5.835   2.264   1.782 -0.3826 -0.9119  1.6053
 2327TIP3   OH2 6944   0.423   3.855   0.858  0.6766 -0.1434  0.1942
 2327TIP3    H1 6945   0.458   3.940   0.829  0.4826  0.1011  0.6657
 2327TIP3    H2 6946   0.442   3.852   0.952 -0.2826 -0.1418  0.4016
 2328TIP3   OH2 6947   5.006   0.111   3.347 -0.0093 -0.3028 -0.1923
 2328TIP3    H1 6948   5.088   0.154   3.323  0.7604 -1.5375  0.1204
 2328TIP3    H2 6949   5.030   0.019   3.360 -1.2942 -0.5531  0.6332
 2329TIP3   OH2 6950   4.276   4.428   0.148  0.7431 -0.4492 -0.1720
 2329TIP3    H1 6951   4.243   4.518   0.147  0.2555 -0.5898 -2.4461
 2329TIP3    H2 6952   4.202   4.375   0.118  0.9694 -1.6650  1.3062
 2330TIP3   OH2 6953   4.008   2.386   1.104  0.0909 -0.0287 -0.2232
 2330TIP3    H1 6954   4.028   2.315   1.043 -2.0727 -0.1692 -0.8437
 2330TIP3    H2 6955   4.062   2.459   1.075 -0.3253 -0.3364 -1.8574
 2331TIP3   OH2 6956   2.225   2.729   5.175  0.1808  0.3555  0.4994
 2331TIP3    H1 6957   2.284   2.780   5.230 -0.4307  0.3405  1.1882
 2331TIP3    H2 6958   2.283   2.675   5.121  0.8043  0.8798  0.6325
 2332TIP3   OH2 6959   5.187   6.122   2.409  0.0559 -0.4042 -0.2128
 2332TIP3    H1 6960   5.237   6.158   2.482  1.5795 -1.3780 -0.7183
 2332TIP3    H2 6961   5.102   6.165   2.414  0.2113 -0.2219  1.9556
 2333TIP3   OH2 6962   3.085   2.864   3.976 -0.2254 -0.6245 -0.3519
 2333TIP3    H1 6963   3.168   2.902   4.005  0.9229 -2.7907 -0.6485
 2333TIP3    H2 6964   3.071   2.790   4.034 -1.4534 -0.8793 -0.9463
 2334TIP3   OH2 6965   3.737   1.960   4.693 -0.5274 -0.1769 -0.5273
 2334TIP3    H1 6966   3.664   1.912   4.733  0.7979  0.3342  2.8616
 2334TIP3    H2 6967   3.710   2.052   4.695  0.0797  0.0037  0.6526
 2335TIP3   OH2 6968   6.014   1.862   4.633 -0.3852 -0.2390  0.5029
 2335TIP3    H1 6969   5.956   1.921   4.585  0.0801  0.8424  1.2142
 2335TIP3    H2 6970   5.969   1.847   4.716 -0.5795 -1.0262  0.2544
 2336TIP3   OH2 6971   0.695   3.641   4.086 -0.6314  0.2450 -0.3128
 2336TIP3    H1 6972   0.779   3.595   4.088 -0.5588  0.1015 -3.0077
 2336TIP3    H2 6973   0.710   3.720   4.138  0.5565 -0.6432  0.7856
 2337TIP3   OH2 6974   1.137   0.444   4.743  0.1361  0.9363  0.0125
 2337TIP3    H1 6975   1.147   0.428   4.649  0.1128  0.2609  0.1209
 2337TIP3    H2 6976   1.103   0.533   4.749  0.8215  1.2509 -0.5922
 2338TIP3   OH2 6977   6.099   0.107   1.106  0.3150  0.4161  0.3003
 2338TIP3    H1 6978   6.125   0.171   1.039 -0.5599  0.9164  0.4263
 2338TIP3    H2 6979   6.179   0.057   1.123  0.7401  0.7678 -0.5810
 2339TIP3   OH2 6980   7.074   6.343   5.315  0.1198 -0.1263  0.4601
 2339TIP3    H1 6981   7.112   6.257   5.330  0.9899  0.0172 -0.7576
 2339TIP3    H2 6982   7.134   6.385   5.252 -2.4880 -0.2377 -2.3251
 2340TIP3   OH2 6983   0.117   3.744   5.202 -0.4105 -0.2140  0.1225
 2340TIP3    H1 6984   0.126   3.823   5.256 -1.1152  0.6231 -0.9431
 2340TIP3    H2 6985   0.022   3.733   5.193 -0.3052 -0.8019 -0.2737
 2341TIP3   OH2 6986   4.862   4.081   2.750 -0.0560  0.1619 -0.9283
 2341TIP3    H1 6987   4.914   4.155   2.719 -0.3134  0.4307 -0.7296
 2341TIP3    H2 6988   4.866   4.088   2.846 -0.1194 -0.0538 -0.9103
 2342TIP3   OH2 6989   6.851   1.771   1.101  0.1635  0.7081 -0.0991
 2342TIP3    H1 6990   6.759   1.749   1.115  0.2198  0.6863  0.2533
 2342TIP3    H2 6991   6.893   1.688   1.082 -0.3430  1.0101 -2.9638
 2343TIP3   OH2 6992   0.347   5.455   1.786 -0.2526  0.0032 -0.2110
 2343TIP3    H1 6993   0.302   5.399   1.722  0.0228  1.7983 -2.0897
 2343TIP3    H2 6994   0.420   5.401   1.817 -0.3813 -0.9382 -1.4551
 2344TIP3   OH2 6995   4.474   4.634   4.754  0.2266 -0.0852  0.1524
 2344TIP3    H1 6996   4.567   4.643   4.773  0.4716 -0.5656 -0.7904
 2344TIP3    H2 6997   4.438   4.589   4.831  0.4201  1.6687  1.3460
 2345TIP3   OH2 6998   2.860   3.046   0.070  0.4916 -0.1008 -0.5003
 2345TIP3    H1 6999   2.828   3.066   0.157 -1.5589  1.3832 -1.5417
 2345TIP3    H2 7000   2.913   2.966   0.082  1.5546  0.9127  2.2956
 2346TIP3   OH2 7001   4.672   3.762   4.804  0.5499  0.1888  0.3160
 2346TIP3    H1 7002   4.709   3.685   4.761 -0.3032 -0.4343  0.6593
 2346TIP3    H2 7003   4.596   3.785   4.750  0.3225  0.2875  0.6752
 2347TIP3   OH2 7004   4.749   6.655   4.288  0.0866 -0.7231  0.5736
 2347TIP3    H1 7005   4.811   6.714   4.245 -1.5835  0.6094 -0.1518
 2347TIP3    H2 7006   4.722   6.702   4.367  0.9498 -1.8749  1.5809
 2348TIP3   OH2 7007   4.275   4.959   1.234  0.2543  0.0856 -0.4838
 2348TIP3    H1 7008   4.276   4.922   1.146  0.2310  1.3628 -1.0402
 2348TIP3    H2 7009   4.214   4.903   1.283 -0.3605 -0.1563 -1.4945
 2349TIP3   OH2 7010   3.471   4.600   4.066 -0.2032 -0.3760  0.0152
 2349TIP3    H1 7011   3.394   4.628   4.017  0.5083  1.9137  0.1033
 2349TIP3    H2 7012   3.545   4.619   4.008  0.3628 -3.3493 -0.4439
 2350TIP3   OH2 7013   6.380   0.750   0.508  0.3322 -0.3753  0.2593
 2350TIP3    H1 7014   6.373   0.780   0.417 -3.5020 -0.4659  0.3866
 2350TIP3    H2 7015   6.411   0.827   0.556  0.6792  0.2158 -0.8626
 2351TIP3   OH2 7016   2.358   4.855   3.992 -0.5269 -0.0704  0.0441
 2351TIP3    H1 7017   2.355   4.825   3.901 -2.9708  2.1913 -0.7262
 2351TIP3    H2 7018   2.355   4.774   4.044  1.7256 -1.4564 -1.7854
 2352TIP3   OH2 7019   2.743   2.668   0.053  0.0349  0.5307 -0.3337
 2352TIP3    H1 7020   2.758   2.683   0.146  2.1472  0.3520 -0.5936
 2352TIP3    H2 7021   2.814   2.609   0.026 -1.5853 -0.9317 -1.6931
 2353TIP3   OH2 7022   1.500   4.349   1.531  0.3927 -0.3145  0.0509
 2353TIP3    H1 7023   1.542   4.263   1.531  1.8570  0.3685 -0.3680
 2353TIP3    H2 7024   1.437   4.345   1.603  0.0785 -1.8926 -0.2781
 2354TIP3   OH2 7025   0.137   6.570   4.430 -0.2503 -0.5459 -0.2439
 2354TIP3    H1 7026   0.098   6.594   4.514  1.2755 -2.1939  1.0308
 2354TIP3    H2 7027   0.065   6.533   4.379 -0.8909 -1.1469  1.0428
 2355TIP3   OH2 7028   1.025   2.732   1.957 -0.1699  0.1024 -0.0220
 2355TIP3    H1 7029   1.020   2.697   2.046  0.4943  2.5222  1.0220
 2355TIP3    H2 7030   1.065   2.661   1.906  0.1218 -1.0473  1.7344
 2356TIP3   OH2 7031   5.105   2.489   5.376  0.1270  0.0605  0.2108
 2356TIP3    H1 7032   5.080   2.539   5.454  1.1467  1.0135 -0.0366
 2356TIP3    H2 7033   5.119   2.556   5.308 -1.7923 -0.8103 -1.1216
 2357TIP3   OH2 7034   4.228   4.875   2.038 -0.4375  0.3229 -0.0469
 2357TIP3    H1 7035   4.148   4.823   2.049 -0.2140 -0.1289 -0.4895
 2357TIP3    H2 7036   4.228   4.935   2.113 -1.4932  0.7431 -0.3629
 2358TIP3   OH2 7037   6.561   2.523   0.200 -0.0075 -0.0941 -0.2884
 2358TIP3    H1 7038   6.525   2.443   0.163  1.5919 -2.0306  2.0026
 2358TIP3    H2 7039   6.485   2.569   0.235 -0.9810 -0.4790 -1.7957
 2359TIP3   OH2 7040   4.645   5.269   4.635  0.6063  0.3894 -0.5099
 2359TIP3    H1 7041   4.709   5.318   4.685  0.3207 -2.0709  2.6256
 2359TIP3    H2 7042   4.566   5.270   4.689 -0.7083 -0.0978 -2.3029
 2360TIP3   OH2 7043   6.042   3.890   5.832 -0.6474 -0.4938  0.2142
 2360TIP3    H1 7044   6.092   3.893   5.750 -3.3855 -0.4517 -1.5879
 2360TIP3    H2 7045   5.981   3.817   5.819 -1.6953  0.0558  1.8901
 2361TIP3   OH2 7046   1.382   2.939   1.188  0.4315  0.2457  0.0222
 2361TIP3    H1 7047   1.467   2.897   1.204 -0.1562 -0.1860  2.3280
 2361TIP3    H2 7048   1.323   2.867   1.167 -0.0135  0.1626  1.4654
 2362TIP3   OH2 7049   0.149   3.795   1.963  0.7289  0.0111 -0.1912
 2362TIP3    H1 7050   0.141   3.742   1.884  1.0039 -1.2641  0.6063
 2362TIP3    H2 7051   0.233   3.770   2.001  1.1238  1.4376 -0.0681
 2363TIP3   OH2 7052   0.580   4.532   0.920 -0.4194  0.4403  0.2544
 2363TIP3    H1 7053   0.675   4.547   0.922 -0.5087  0.9789  0.7823
 2363TIP3    H2 7054   0.570   4.442   0.953 -0.1773  0.8939  1.6582
 2364TIP3   OH2 7055   1.100   6.588   1.122  0.2615  0.1648 -0.1185
 2364TIP3    H1 7056   1.091   6.672   1.077 -0.2943  1.3380  1.9977
 2364TIP3    H2 7057   1.020   6.541   1.102 -0.4142  1.0676  0.3835
 2365TIP3   OH2 7058   0.596   0.537   1.487  0.0574 -0.2538  0.0639
 2365TIP3    H1 7059   0.577   0.444   1.498  1.1916 -0.4447  0.5113
 2365TIP3    H2 7060   0.667   0.539   1.423  0.6732  0.2416  0.7493
 2366TIP3   OH2 7061   4.000   1.316   5.335  0.4324 -0.5179 -0.2138
 2366TIP3    H1 7062   3.977   1.360   5.416 -0.3185  1.7283 -1.5414
 2366TIP3    H2 7063   3.917   1.297   5.292  0.8089  0.5140 -1.4956
 2367TIP3   OH2 7064   2.045   1.901   0.599 -0.0186  0.6102 -0.0151
 2367TIP3    H1 7065   2.127   1.934   0.562  0.4923 -0.9412 -0.3418
 2367TIP3    H2 7066   2.072   1.830   0.656 -1.0178  1.3019  1.3703
 2368TIP3   OH2 7067   5.173   4.541   2.636 -0.5652  0.3187  0.1931
 2368TIP3    H1 7068   5.094   4.583   2.671 -1.2430 -1.3420  0.7240
 2368TIP3    H2 7069   5.226   4.614   2.604 -1.7703  1.5657  0.9297
 2369TIP3   OH2 7070   0.487   1.903   2.028 -0.2698 -0.7189 -0.2206
 2369TIP3    H1 7071   0.549   1.868   1.965  0.1553 -0.1604 -0.1233
 2369TIP3    H2 7072   0.409   1.923   1.976  0.4982  0.9023 -0.8486
 2370TIP3   OH2 7073   7.132   5.729   0.311 -0.1818 -1.0083 -0.7731
 2370TIP3    H1 7074   7.221   5.705   0.284 -0.2690 -0.9079 -1.1639
 2370TIP3    H2 7075   7.144   5.808   0.364 -0.1656  0.0139 -2.2338
 2371TIP3   OH2 7076   6.945   3.377   2.037 -0.6235 -0.2902 -0.1856
 2371TIP3    H1 7077   6.925   3.392   2.129 -0.3122  1.5744 -0.3867
 2371TIP3    H2 7078   7.037   3.348   2.036  0.2181  2.1402 -0.0284
 2372TIP3   OH2 7079   2.711   5.507   5.140 -0.1579  0.5701 -0.5390
 2372TIP3    H1 7080   2.630   5.506   5.192 -0.3768  2.8274 -0.7566
 2372TIP3    H2 7081   2.763   5.434   5.176 -1.3797  0.4361  1.0831
 2373TIP3   OH2 7082   1.508   3.195   4.963  0.1487  0.1714  0.4497
 2373TIP3    H1 7083   1.418   3.164   4.945  0.4349  0.4382 -1.7452
 2373TIP3    H2 7084   1.514   3.278   4.916  2.0282 -0.6169 -0.7940
 2374TIP3   OH2 7085   6.829   0.630   0.600  0.2564  0.4599 -0.2164
 2374TIP3    H1 7086   6.776   0.608   0.676 -0.3520  0.3690 -0.6613
 2374TIP3    H2 7087   6.797   0.715   0.571  0.6313  0.5943 -0.2452
 2375TIP3   OH2 7088   3.020   6.095   3.806  0.0323 -0.1082 -0.1372
 2375TIP3    H1 7089   2.955   6.036   3.843  1.2347 -0.6426  1.2228
 2375TIP3    H2 7090   2.981   6.182   3.814 -1.2975 -0.5832 -1.1410
 2376TIP3   OH2 7091   4.939   4.040   0.326 -0.0003  0.1248 -0.1664
 2376TIP3    H1 7092   4.923   3.954   0.365 -2.4127  0.5661 -0.0178
 2376TIP3    H2 7093   5.026   4.034   0.289 -0.9307 -3.1713 -2.1585
 2377TIP3   OH2 7094   3.932   3.470   2.161 -0.2858 -0.5899 -0.3209
 2377TIP3    H1 7095   3.870   3.459   2.089 -0.4728 -1.6204 -0.0108
 2377TIP3    H2 7096   3.878   3.467   2.240  0.0579 -0.6596 -0.0849
 2378TIP3   OH2 7097   6.801   0.129   3.853  0.1421 -0.0433 -0.6601
 2378TIP3    H1 7098   6.805   0.200   3.789 -0.2175  0.9938  0.4524
 2378TIP3    H2 7099   6.857   0.157   3.925 -1.2213 -0.1440  0.4869
 2379TIP3   OH2 7100   6.979   2.942   2.235  0.2979 -0.7923  0.4862
 2379TIP3    H1 7101   7.068   2.911   2.248  0.7803  0.7898  1.2227
 2379TIP3    H2 7102   6.952   2.975   2.321 -0.1679  0.7284 -0.2052
 2380TIP3   OH2 7103   6.504   6.697   0.454 -0.0643 -0.3554 -0.1518
 2380TIP3    H1 7104   6.511   6.619   0.510  0.6210 -0.2104 -0.0293
 2380TIP3    H2 7105   6.581   6.693   0.398 -0.5109 -0.2530 -0.7799
 2381TIP3   OH2 7106   1.810   1.870   3.456  0.0060 -0.5484 -0.0341
 2381TIP3    H1 7107   1.888   1.837   3.412 -0.6374  0.9562 -2.5272
 2381TIP3    H2 7108   1.741   1.809   3.432 -0.2588  0.0445 -0.8428
 2382TIP3   OH2 7109   2.838   5.301   2.785  0.2085  0.5057 -0.5655
 2382TIP3    H1 7110   2.843   5.361   2.859 -0.3988  0.1221 -0.2057
 2382TIP3    H2 7111   2.927   5.267   2.776 -0.0174 -0.6019  0.9776
 2383TIP3   OH2 7112   3.273   1.198   0.697 -0.3311 -0.0476 -0.4419
 2383TIP3    H1 7113   3.270   1.289   0.667  1.3886  0.2396  0.1490
 2383TIP3    H2 7114   3.366   1.181   0.714 -0.6174 -1.9028 -0.4690
 2384TIP3   OH2 7115   4.653   1.631   2.956 -0.1837 -0.6206 -0.0095
 2384TIP3    H1 7116   4.686   1.559   2.901  2.9948  1.0741 -0.5850
 2384TIP3    H2 7117   4.570   1.656   2.916  1.0641 -0.7548 -2.9256
 2385TIP3   OH2 7118   7.058   3.698   3.930  0.2036  0.2257 -0.1039
 2385TIP3    H1 7119   7.118   3.626   3.948 -0.1569 -0.3459 -1.1103
 2385TIP3    H2 7120   7.073   3.761   4.001  2.0793  0.1696 -0.4151
 2386TIP3   OH2 7121   1.779   6.027   2.835 -1.0149  0.0402 -0.0480
 2386TIP3    H1 7122   1.685   6.010   2.832 -1.1548  0.8916 -0.9860
 2386TIP3    H2 7123   1.786   6.117   2.868 -0.5994  0.4166 -1.1160
 2387TIP3   OH2 7124   2.662   4.992   4.955 -0.4943 -0.3398 -0.0353
 2387TIP3    H1 7125   2.595   4.936   4.993 -0.3082  0.1718  1.0813
 2387TIP3    H2 7126   2.626   5.081   4.961  0.4238 -0.0081  0.9550
 2388TIP3   OH2 7127   4.762   2.580   1.808 -0.7992 -0.1035 -0.4227
 2388TIP3    H1 7128   4.711   2.509   1.847 -1.8459  0.2698 -1.0702
 2388TIP3    H2 7129   4.699   2.651   1.796  0.1792  0.8723  0.0116
 2389TIP3   OH2 7130   3.843   0.491   3.648 -0.1017 -0.1065 -0.0313
 2389TIP3    H1 7131   3.769   0.500   3.589 -0.4608 -1.0927  0.2424
 2389TIP3    H2 7132   3.840   0.569   3.703 -0.0012  0.6121 -1.0439
 2390TIP3   OH2 7133   5.623   2.936   0.782  0.1250  0.0319 -0.3245
 2390TIP3    H1 7134   5.537   2.943   0.824  0.4280 -0.3845  0.3795
 2390TIP3    H2 7135   5.667   2.865   0.829  0.6900 -0.0582 -0.9734
 2391TIP3   OH2 7136   0.333   5.747   4.075 -0.1345 -0.3147  0.3648
 2391TIP3    H1 7137   0.386   5.803   4.130 -0.2784  0.1072  0.0828
 2391TIP3    H2 7138   0.320   5.667   4.126  1.2023 -0.6422  0.2286
 2392TIP3   OH2 7139   1.517   5.773   0.107  0.3162  0.2063  0.1865
 2392TIP3    H1 7140   1.459   5.779   0.183  1.4864  0.6195  1.0785
 2392TIP3    H2 7141   1.516   5.861   0.069 -0.2251  0.0142 -0.2477
 2393TIP3   OH2 7142   6.729   6.409   4.917  0.4137 -0.4771 -0.0556
 2393TIP3    H1 7143   6.697   6.492   4.954 -0.0170  0.4954 -2.4736
 2393TIP3    H2 7144   6.710   6.344   4.986 -1.2282  1.0550  1.0413
 2394TIP3   OH2 7145   6.300   2.350   4.478 -0.1120  0.4285  0.1597
 2394TIP3    H1 7146   6.332   2.316   4.394 -0.5317  1.0808 -0.2769
 2394TIP3    H2 7147   6.303   2.275   4.537  1.6873  0.3212 -0.0036
 2395TIP3   OH2 7148   0.266   0.270   2.482 -0.2647 -0.0064  0.5999
 2395TIP3    H1 7149   0.301   0.242   2.567  1.1627  3.9824  1.5359
 2395TIP3    H2 7150   0.171   0.268   2.494 -0.1181 -0.5444  1.8926
 2396TIP3   OH2 7151   4.152   4.325   4.333  0.6543  0.5638 -0.0579
 2396TIP3    H1 7152   4.093   4.250   4.340 -0.0171  1.2248  2.4283
 2396TIP3    H2 7153   4.094   4.399   4.316  0.9175  1.0000  0.9034
 2397TIP3   OH2 7154   3.541   4.278   0.233  0.3170 -0.0071  0.2434
 2397TIP3    H1 7155   3.476   4.246   0.296 -0.4345  1.7598  0.3988
 2397TIP3    H2 7156   3.496   4.274   0.149  0.4092  0.1330  0.1877
 2398TIP3   OH2 7157   4.049   3.442   4.501 -0.9325  0.0851 -0.3752
 2398TIP3    H1 7158   4.082   3.526   4.468 -1.7099 -0.1258 -1.7667
 2398TIP3    H2 7159   4.085   3.377   4.441 -0.0256 -0.6508  0.9230
 2399TIP3   OH2 7160   2.926   6.446   3.406 -0.3367 -0.5808  0.7225
 2399TIP3    H1 7161   2.894   6.382   3.342  1.7728 -0.5403 -0.4252
 2399TIP3    H2 7162   2.865   6.436   3.480 -2.4125 -1.1388 -0.9362
 2400TIP3   OH2 7163   0.623   5.325   1.241  0.0078 -0.3117 -0.8379
 2400TIP3    H1 7164   0.649   5.245   1.286 -0.6500  0.2621  0.6385
 2400TIP3    H2 7165   0.692   5.340   1.176  2.3054  0.0547  1.5293
 2401TIP3   OH2 7166   7.028   0.211   3.626 -0.3103  1.0313 -0.4663
 2401TIP3    H1 7167   7.019   0.220   3.531 -0.2675  1.2651 -0.4479
 2401TIP3    H2 7168   7.010   0.298   3.661 -2.8361  0.4191 -0.0664
 2402TIP3   OH2 7169   1.623   2.234   0.287  0.3279  0.1514  0.3022
 2402TIP3    H1 7170   1.644   2.141   0.302  1.5589  0.7955  3.2178
 2402TIP3    H2 7171   1.704   2.280   0.309 -1.0206  2.0760  1.4318
 2403TIP3   OH2 7172   3.553   5.563   0.677  0.3241  0.2004 -0.2573
 2403TIP3    H1 7173   3.567   5.478   0.636  1.4412 -0.2178  0.9307
 2403TIP3    H2 7174   3.619   5.568   0.746 -3.4726 -0.6280  3.8820
 2404TIP3   OH2 7175   3.665   5.114   4.699  0.7735 -0.1655  0.4242
 2404TIP3    H1 7176   3.616   5.184   4.742 -2.8075 -0.6496 -2.4148
 2404TIP3    H2 7177   3.632   5.034   4.740  1.1515 -0.3980  0.2738
 2405TIP3   OH2 7178   3.453   0.239   3.169 -0.2033  0.1321 -0.1078
 2405TIP3    H1 7179   3.547   0.237   3.186 -0.2562 -0.1934  0.1562
 2405TIP3    H2 7180   3.426   0.148   3.174 -0.6316  0.2844  0.3688
 2406TIP3   OH2 7181   3.084   0.818   0.633  0.3363  0.3472  0.1165
 2406TIP3    H1 7182   3.006   0.766   0.616  1.0864 -0.7653 -0.0378
 2406TIP3    H2 7183   3.051   0.905   0.655 -0.8884  0.2775 -1.3245
 2407TIP3   OH2 7184   0.511   0.198   1.915 -0.7282 -0.6435 -0.0758
 2407TIP3    H1 7185   0.429   0.152   1.931 -0.7437 -0.7726 -0.5075
 2407TIP3    H2 7186   0.492   0.255   1.840 -0.9318  0.6456  0.9160
 2408TIP3   OH2 7187   5.899   5.919   1.048 -0.4344  0.6069 -0.1766
 2408TIP3    H1 7188   5.897   5.824   1.054  1.2177  0.5914  0.4992
 2408TIP3    H2 7189   5.983   5.945   1.087 -0.9932  2.3617 -0.0242
 2409TIP3   OH2 7190   5.900   4.848   1.633  0.0206  0.1139 -0.3420
 2409TIP3    H1 7191   5.841   4.897   1.690  0.9424  1.2277 -0.2944
 2409TIP3    H2 7192   5.843   4.804   1.570 -0.8811  0.7589  0.0042
 2410TIP3   OH2 7193   4.920   1.901   4.747  0.3923  0.0525  0.7534
 2410TIP3    H1 7194   4.985   1.877   4.680  1.6134  0.1549  1.8782
 2410TIP3    H2 7195   4.953   1.863   4.828  0.7033  2.7576  1.9875
 2411TIP3   OH2 7196   1.220   4.416   5.288  0.4071  0.3982  0.1211
 2411TIP3    H1 7197   1.288   4.353   5.263 -0.4627 -1.2654  1.6358
 2411TIP3    H2 7198   1.174   4.373   5.361 -3.0244  0.8586 -1.5538
 2412TIP3   OH2 7199   4.103   2.036   5.206  0.2668  0.0388 -0.5107
 2412TIP3    H1 7200   4.032   2.074   5.257  0.3090 -0.6351  0.0656
 2412TIP3    H2 7201   4.128   2.105   5.144  0.1349  0.8312  0.3011
 2413TIP3   OH2 7202   0.352   5.271   2.345 -0.7085 -0.2733 -0.2278
 2413TIP3    H1 7203   0.412   5.198   2.358  1.9871  1.8764  0.3798
 2413TIP3    H2 7204   0.326   5.297   2.434 -0.4770  0.3792 -0.3459
 2414TIP3   OH2 7205   4.067   0.934   5.530 -0.2776 -0.1736 -0.5634
 2414TIP3    H1 7206   3.993   0.888   5.491 -0.2638  0.9007 -1.9314
 2414TIP3    H2 7207   4.142   0.876   5.513 -0.7710 -1.2942  0.8884
 2415TIP3   OH2 7208   6.245   1.785   5.576 -0.6397  0.2475 -0.2251
 2415TIP3    H1 7209   6.309   1.793   5.504 -0.2693  1.7071  0.2353
 2415TIP3    H2 7210   6.162   1.814   5.537 -0.2595  1.9523  0.1271
 2416TIP3   OH2 7211   4.512   5.802   3.488 -0.3046  0.4377  0.2869
 2416TIP3    H1 7212   4.431   5.760   3.460 -0.3709  0.0897  0.9807
 2416TIP3    H2 7213   4.483   5.875   3.543 -0.1731  1.0318 -0.4126
 2417TIP3   OH2 7214   5.817   5.562   4.704 -0.3740  0.1126  0.0015
 2417TIP3    H1 7215   5.874   5.515   4.643 -1.9817  1.3786 -2.6992
 2417TIP3    H2 7216   5.875   5.593   4.773  1.7949 -0.5260 -1.4260
 2418TIP3   OH2 7217   6.187   5.660   1.826 -0.2429 -0.0514 -0.3046
 2418TIP3    H1 7218   6.143   5.585   1.865  0.2463 -0.1863  0.0092
 2418TIP3    H2 7219   6.179   5.729   1.892  0.3148 -0.1851 -0.0874
 2419TIP3   OH2 7220   1.179   3.845   2.455 -0.1873  0.5330  0.0690
 2419TIP3    H1 7221   1.109   3.780   2.446  0.5161 -0.0938 -1.0733
 2419TIP3    H2 7222   1.217   3.852   2.368  1.8966  0.0447  0.8817
 2420TIP3   OH2 7223   0.458   1.525   1.273  0.6694 -0.0522  0.0833
 2420TIP3    H1 7224   0.491   1.505   1.185  0.9838 -0.7083  0.3426
 2420TIP3    H2 7225   0.377   1.574   1.257  0.6841 -0.2246 -0.5741
 2421TIP3   OH2 7226   5.559   2.012   2.152 -0.2616  0.0264  0.4711
 2421TIP3    H1 7227   5.599   1.926   2.142 -1.2475 -0.3781 -0.0661
 2421TIP3    H2 7228   5.620   2.072   2.108 -0.1619 -0.5481 -0.1794
 2422TIP3   OH2 7229   2.844   6.763   4.544 -0.0501  0.0867  0.4978
 2422TIP3    H1 7230   2.752   6.746   4.567 -0.1046 -0.5791 -0.1698
 2422TIP3    H2 7231   2.847   6.857   4.527 -1.2619 -0.2802 -2.2184
 2423TIP3   OH2 7232   2.183   5.300   3.891  0.3253  0.0643 -0.4487
 2423TIP3    H1 7233   2.148   5.212   3.903 -0.8409  0.5695  0.0439
 2423TIP3    H2 7234   2.195   5.308   3.796 -1.2265 -0.0384 -0.6786
 2424TIP3   OH2 7235   4.540   5.849   5.741 -0.5093 -0.7294  0.1403
 2424TIP3    H1 7236   4.630   5.841   5.711 -0.6983 -1.3141 -0.2713
 2424TIP3    H2 7237   4.488   5.801   5.677 -1.2151  0.3355 -0.1106
 2425TIP3   OH2 7238   3.546   1.581   2.036  0.3039 -0.7170  0.3964
 2425TIP3    H1 7239   3.521   1.489   2.026  1.5853 -0.9232 -1.4406
 2425TIP3    H2 7240   3.622   1.579   2.093 -0.6166 -0.6125  1.6579
 2426TIP3   OH2 7241   0.193   6.072   4.261 -0.5262  0.1701  0.1857
 2426TIP3    H1 7242   0.138   6.049   4.186 -0.2123 -0.7553  0.2321
 2426TIP3    H2 7243   0.256   6.134   4.225  0.6240 -1.4571 -0.7251
 2427TIP3   OH2 7244   6.533   6.513   0.132  0.1802 -0.7935 -0.0991
 2427TIP3    H1 7245   6.449   6.555   0.152  0.3220  0.7215 -2.3095
 2427TIP3    H2 7246   6.511   6.445   0.068  0.5297 -1.0282  0.0273
 2428TIP3   OH2 7247   3.917   2.446   1.613  0.1663 -0.3294 -0.1903
 2428TIP3    H1 7248   3.943   2.360   1.579  0.1645 -0.7564  0.8707
 2428TIP3    H2 7249   3.928   2.505   1.538  1.0147 -1.0937 -0.6901
 2429TIP3   OH2 7250   1.544   4.498   4.520  0.1996 -0.1792 -0.2209
 2429TIP3    H1 7251   1.544   4.497   4.424 -0.2024 -0.9323 -0.2246
 2429TIP3    H2 7252   1.632   4.526   4.544  0.5833 -0.8296 -0.8199
 2430TIP3   OH2 7253   4.923   6.371   3.760 -0.0608  0.4976 -0.4573
 2430TIP3    H1 7254   4.882   6.446   3.801 -0.8974 -0.0591 -0.2525
 2430TIP3    H2 7255   4.916   6.301   3.825  2.4759  0.7162  0.1704
 2431TIP3   OH2 7256   3.944   5.822   0.098 -0.0011  0.5211  0.4522
 2431TIP3    H1 7257   3.919   5.912   0.078  0.4010  0.5921  0.2447
 2431TIP3    H2 7258   3.891   5.769   0.038  0.7198  0.6994 -0.3625
 2432TIP3   OH2 7259   6.093   2.797   5.823 -0.4544 -0.1338  0.0043
 2432TIP3    H1 7260   6.029   2.727   5.835 -1.3683  0.6879 -0.0104
 2432TIP3    H2 7261   6.044   2.878   5.835  0.6860  0.5165  0.5145
 2433TIP3   OH2 7262   7.076   6.205   3.465 -0.0963  0.4443  0.4568
 2433TIP3    H1 7263   7.017   6.265   3.419  0.4695 -0.0123 -0.9261
 2433TIP3    H2 7264   7.109   6.147   3.396  2.6590  1.2471  0.9618
 2434TIP3   OH2 7265   4.643   3.568   5.841  0.0669 -0.5597  0.0358
 2434TIP3    H1 7266   4.618   3.532   5.755 -2.3022 -0.1701  0.4844
 2434TIP3    H2 7267   4.736   3.547   5.850  0.2116 -1.2152 -2.3197
 2435TIP3   OH2 7268   1.812   1.736   0.593 -0.0819  0.1182 -0.1051
 2435TIP3    H1 7269   1.755   1.801   0.635 -0.9894 -0.2097 -0.7902
 2435TIP3    H2 7270   1.901   1.770   0.607 -0.2093 -0.4798  2.9708
 2436TIP3   OH2 7271   6.010   3.022   1.662 -0.3740 -0.2229 -0.2692
 2436TIP3    H1 7272   5.967   2.937   1.649 -1.4728 -0.1246  2.1767
 2436TIP3    H2 7273   6.060   3.011   1.743 -1.3871  1.7149  0.6944
 2437TIP3   OH2 7274   0.856   6.140   1.139 -0.4093  0.2655  0.1482
 2437TIP3    H1 7275   0.816   6.065   1.095 -0.1974 -0.4357  1.1103
 2437TIP3    H2 7276   0.797   6.159   1.212 -0.4676  1.0538 -0.0910
 2438TIP3   OH2 7277   6.302   4.450   1.467 -0.4345  0.1283 -0.5766
 2438TIP3    H1 7278   6.285   4.426   1.376  1.0292  0.4038 -0.9533
 2438TIP3    H2 7279   6.386   4.496   1.465  0.9372 -2.0410  1.1977
 2439TIP3   OH2 7280   2.110   2.991   1.546  0.7461  0.5382  0.0396
 2439TIP3    H1 7281   2.164   2.982   1.467  0.9609 -0.2827  0.2610
 2439TIP3    H2 7282   2.172   2.983   1.618  0.3576 -0.3068  0.2970
 2440TIP3   OH2 7283   1.116   2.595   2.919 -0.0052  0.4371  0.0727
 2440TIP3    H1 7284   1.027   2.569   2.940 -1.0911  3.6209 -0.0329
 2440TIP3    H2 7285   1.146   2.531   2.855 -2.0944 -0.8498  0.2966
 2441TIP3   OH2 7286   5.793   4.841   3.045  0.0971  0.4053 -0.5928
 2441TIP3    H1 7287   5.730   4.913   3.052 -0.7539 -0.2808 -1.0521
 2441TIP3    H2 7288   5.791   4.815   2.953  0.6963  0.0567 -0.5152
 2442TIP3   OH2 7289   6.161   2.303   0.358 -0.0199 -0.0464  0.1203
 2442TIP3    H1 7290   6.113   2.261   0.287  0.2222  0.0756 -0.1161
 2442TIP3    H2 7291   6.144   2.397   0.347  2.1747  0.2416 -1.4154
 2443TIP3   OH2 7292   1.081   6.572   3.630 -0.1646 -0.5677 -1.1700
 2443TIP3    H1 7293   1.156   6.622   3.661 -1.5262  1.6632 -1.2196
 2443TIP3    H2 7294   1.037   6.631   3.569 -2.5960 -1.3109 -0.2578
 2444TIP3   OH2 7295   0.616   3.885   2.072 -0.2774 -0.0231  0.5101
 2444TIP3    H1 7296   0.655   3.817   2.127 -0.1849 -0.5543 -0.2010
 2444TIP3    H2 7297   0.675   3.892   1.998  0.4576  1.8003  1.2051
 2445TIP3   OH2 7298   5.679   4.044   1.251 -0.7539  0.0480  0.4152
 2445TIP3    H1 7299   5.697   4.024   1.343  2.1119  1.0546  0.1948
 2445TIP3    H2 7300   5.708   4.135   1.240 -0.9294 -0.0834 -1.4974
 2446TIP3   OH2 7301   0.807   1.191   5.078 -0.0641 -0.3659  0.0431
 2446TIP3    H1 7302   0.866   1.215   5.006 -0.3133  0.6243  0.1615
 2446TIP3    H2 7303   0.858   1.129   5.131  1.2961  1.2552  0.7312
 2447TIP3   OH2 7304   0.845   5.925   0.498  0.2842 -0.0697  0.2093
 2447TIP3    H1 7305   0.812   5.992   0.439  0.2923 -0.7383 -0.5799
 2447TIP3    H2 7306   0.918   5.965   0.543  1.1595  0.0344 -1.2442
 2448TIP3   OH2 7307   6.986   6.689   5.734 -0.5645  0.0835 -0.1295
 2448TIP3    H1 7308   6.923   6.759   5.719 -1.4792 -0.7390 -0.1840
 2448TIP3    H2 7309   6.951   6.614   5.687  1.4459  0.1006 -1.7954
 2449TIP3   OH2 7310   3.043   4.371   2.456  0.1370 -0.3946 -0.1576
 2449TIP3    H1 7311   2.958   4.331   2.436  1.3525 -2.2537 -2.0973
 2449TIP3    H2 7312   3.064   4.339   2.544 -0.3138 -1.5438 -0.4495
 2450TIP3   OH2 7313   2.867   5.610   1.598  0.0113  0.5023 -0.3043
 2450TIP3    H1 7314   2.925   5.605   1.522  1.1830 -1.5845  0.6493
 2450TIP3    H2 7315   2.779   5.603   1.561  0.3207  2.9206 -1.7080
 2451TIP3   OH2 7316   2.885   1.537   1.928  0.2794  0.5870 -1.0554
 2451TIP3    H1 7317   2.968   1.557   1.971 -0.2161 -1.0859  0.8508
 2451TIP3    H2 7318   2.824   1.603   1.961  0.5373  0.9620 -1.3348
 2452TIP3   OH2 7319   4.491   3.546   4.396 -0.1092 -0.2565 -0.0608
 2452TIP3    H1 7320   4.553   3.613   4.368 -0.3478  1.1992  2.6010
 2452TIP3    H2 7321   4.539   3.463   4.387  1.4178  0.6137 -0.1755
 2453TIP3   OH2 7322   5.166   0.387   0.613  0.2593  0.0918 -0.2726
 2453TIP3    H1 7323   5.100   0.422   0.553 -0.6209  0.3838  0.8443
 2453TIP3    H2 7324   5.168   0.449   0.686 -0.4761 -1.5155  1.1764
 2454TIP3   OH2 7325   1.227   6.248   4.161  0.5064 -0.7615  0.0165
 2454TIP3    H1 7326   1.195   6.337   4.147  0.5870 -0.1732  3.0246
 2454TIP3    H2 7327   1.148   6.194   4.165  0.2286 -0.2936  1.2538
 2455TIP3   OH2 7328   4.255   6.344   2.762 -0.0949 -0.4982 -0.2659
 2455TIP3    H1 7329   4.201   6.269   2.738 -0.8678 -1.1429  3.0661
 2455TIP3    H2 7330   4.200   6.420   2.742 -0.4187 -0.9207 -1.0525
 2456TIP3   OH2 7331   3.936   3.811   4.379 -0.3458 -0.1471  0.3169
 2456TIP3    H1 7332   4.027   3.833   4.398 -0.4567  0.0491  0.6158
 2456TIP3    H2 7333   3.923   3.844   4.290 -1.1506  3.0989  1.4951
 2457TIP3   OH2 7334   2.580   3.776   1.285 -0.3622  0.2631 -0.2480
 2457TIP3    H1 7335   2.565   3.720   1.361 -1.4628  0.1555 -0.5280
 2457TIP3    H2 7336   2.620   3.855   1.320 -2.6968  1.0755  0.7572
 2458TIP3   OH2 7337   5.157   6.583   2.213  0.3091 -0.2836  0.0110
 2458TIP3    H1 7338   5.181   6.557   2.302  1.2411 -0.7739 -0.3772
 2458TIP3    H2 7339   5.240   6.595   2.168 -0.1575 -0.6313 -0.9694
 2459TIP3   OH2 7340   4.752   2.307   4.933 -0.9098 -0.2157 -0.0473
 2459TIP3    H1 7341   4.818   2.368   4.899 -0.0407 -0.7157  0.6896
 2459TIP3    H2 7342   4.700   2.283   4.856 -1.3114  1.4687 -0.3558
 2460TIP3   OH2 7343   5.935   5.398   3.554 -0.1148  0.2857  0.1236
 2460TIP3    H1 7344   5.936   5.482   3.508  1.5748  0.2946  0.1235
 2460TIP3    H2 7345   5.896   5.337   3.491 -1.0725  0.9999  0.0090
 2461TIP3   OH2 7346   5.033   2.187   3.267 -0.3437  0.0523  0.1629
 2461TIP3    H1 7347   4.973   2.261   3.276  1.5791  2.2145 -2.8055
 2461TIP3    H2 7348   5.098   2.199   3.336 -1.1707 -0.0875  0.9739
 2462TIP3   OH2 7349   7.192   0.147   5.274 -0.1895 -0.4738 -0.2403
 2462TIP3    H1 7350   7.159   0.184   5.357  0.9769  0.5815 -0.2288
 2462TIP3    H2 7351   7.112   0.124   5.226 -0.9126 -2.0742  1.5549
 2463TIP3   OH2 7352   2.327   4.616   2.128  0.0861 -0.1404 -0.0677
 2463TIP3    H1 7353   2.294   4.656   2.047  1.4132  0.9740 -0.0917
 2463TIP3    H2 7354   2.272   4.653   2.197  1.4379  2.0479 -0.0582
 2464TIP3   OH2 7355   0.270   0.903   5.134  0.3017 -0.4781 -0.4995
 2464TIP3    H1 7356   0.321   0.842   5.187 -0.4717 -0.5723  0.1641
 2464TIP3    H2 7357   0.181   0.898   5.170  0.0641  0.5074 -0.9018
 2465TIP3   OH2 7358   7.021   0.174   1.336  0.3232 -0.1219  0.4203
 2465TIP3    H1 7359   6.954   0.155   1.401  0.4960  0.1711  0.6894
 2465TIP3    H2 7360   6.976   0.226   1.269 -0.1808 -1.5568 -0.3870
 2466TIP3   OH2 7361   6.093   3.828   1.934 -0.1374  0.1729 -0.0191
 2466TIP3    H1 7362   6.152   3.813   1.861  0.4369  2.9351 -0.2503
 2466TIP3    H2 7363   6.104   3.921   1.955 -2.4175  0.1502  1.7066
 2467TIP3   OH2 7364   1.599   0.198   2.717 -0.0207  0.2846 -0.7031
 2467TIP3    H1 7365   1.584   0.110   2.681  0.4667 -1.0828  2.1487
 2467TIP3    H2 7366   1.688   0.220   2.691  0.3337 -0.6759 -0.3410
 2468TIP3   OH2 7367   5.522   5.519   1.616 -0.2077 -0.6350  0.2462
 2468TIP3    H1 7368   5.618   5.522   1.620 -0.1872  0.0039 -0.4080
 2468TIP3    H2 7369   5.496   5.480   1.699  0.6125 -0.5362  0.5651
 2469TIP3   OH2 7370   3.203   1.854   2.694 -0.1742  0.0145  0.2364
 2469TIP3    H1 7371   3.233   1.828   2.781  0.2208 -0.0873  0.0730
 2469TIP3    H2 7372   3.282   1.852   2.640 -0.7089 -1.6608 -0.5441
 2470TIP3   OH2 7373   3.342   0.453   5.405  0.0684 -0.4171 -0.1555
 2470TIP3    H1 7374   3.339   0.442   5.310  1.4755  1.1788 -0.4186
 2470TIP3    H2 7375   3.251   0.450   5.432 -0.4411  0.2668 -1.7013
 2471TIP3   OH2 7376   4.532   6.740   3.656 -0.2558 -0.0972  0.4510
 2471TIP3    H1 7377   4.495   6.772   3.739  0.1712  1.0708  0.2211
 2471TIP3    H2 7378   4.575   6.818   3.618 -0.7456 -0.5299 -1.0392
 2472TIP3   OH2 7379   0.155   5.698   3.409  0.0789 -0.5502  0.3445
 2472TIP3    H1 7380   0.167   5.665   3.320  0.5944  1.5086 -0.4228
 2472TIP3    H2 7381   0.232   5.752   3.425 -2.1349  3.1246  0.0460
 2473TIP3   OH2 7382   1.266   2.841   0.518  0.0017  0.4660  0.1433
 2473TIP3    H1 7383   1.361   2.848   0.513  0.2028 -1.2786  0.7690
 2473TIP3    H2 7384   1.241   2.794   0.438 -0.0678 -1.0145  1.0101
 2474TIP3   OH2 7385   7.134  -0.005   2.449  0.2647 -0.1066 -0.3552
 2474TIP3    H1 7386   7.122   0.024   2.358  0.3955  2.6692  0.4132
 2474TIP3    H2 7387   7.177   0.069   2.492 -0.4063 -1.0751  2.1375
 2475TIP3   OH2 7388   5.949   2.119   4.373  0.2083  0.1369 -0.5437
 2475TIP3    H1 7389   5.965   2.060   4.299 -3.6929  2.4261 -3.6306
 2475TIP3    H2 7390   5.876   2.079   4.420  0.4225  0.3597 -0.0169
 2476TIP3   OH2 7391   4.303   3.828   0.548 -0.2659  0.3251  0.3002
 2476TIP3    H1 7392   4.214   3.801   0.529 -0.3211  1.4035 -1.2598
 2476TIP3    H2 7393   4.294   3.906   0.603 -0.2407 -0.0665  0.8707
 2477TIP3   OH2 7394   6.648   5.523   2.369  0.4721 -0.2763 -0.3531
 2477TIP3    H1 7395   6.626   5.449   2.425 -0.3728 -1.2868 -1.9487
 2477TIP3    H2 7396   6.710   5.487   2.305 -0.3315  0.2447 -1.4545
 2478TIP3   OH2 7397   6.215   4.032   2.978 -0.5150 -0.0094 -0.8535
 2478TIP3    H1 7398   6.291   3.996   3.023  0.4399 -0.8263 -2.9426
 2478TIP3    H2 7399   6.169   4.084   3.044  0.3819 -1.6504  1.1810
 2479TIP3   OH2 7400   2.812   0.501   1.879  0.9751  0.2791  0.1277
 2479TIP3    H1 7401   2.716   0.504   1.880  0.9685  0.0540  0.7301
 2479TIP3    H2 7402   2.838   0.584   1.840  0.5438  0.6937  0.7002
 2480TIP3   OH2 7403   0.333   2.258   2.544 -0.2969 -0.0403 -0.3443
 2480TIP3    H1 7404   0.265   2.268   2.477 -0.4138 -0.4829 -0.2899
 2480TIP3    H2 7405   0.411   2.233   2.496 -0.2592  0.1164 -0.3663
 2481TIP3   OH2 7406   5.117   2.720   1.002 -0.0782 -0.2365  0.1860
 2481TIP3    H1 7407   5.126   2.708   1.097  0.0896 -0.0017  0.1993
 2481TIP3    H2 7408   5.175   2.793   0.981  0.3057 -0.6345 -0.1825
 2482TIP3   OH2 7409   2.906   3.078   0.525  0.2789  0.4368 -0.2490
 2482TIP3    H1 7410   2.916   3.155   0.582  2.1907 -1.3679  2.0333
 2482TIP3    H2 7411   2.813   3.055   0.534 -0.1394  1.9673 -0.3192
 2483TIP3   OH2 7412   0.908   2.371   3.400  0.1289  0.3826 -0.0015
 2483TIP3    H1 7413   0.985   2.407   3.357 -0.1365 -0.0178 -0.8469
 2483TIP3    H2 7414   0.869   2.445   3.447 -0.0587  1.0625 -1.1896
 2484TIP3   OH2 7415   1.754   4.097   4.299  0.3675 -0.1184 -0.5776
 2484TIP3    H1 7416   1.743   4.004   4.314  1.1481  0.0964  1.8201
 2484TIP3    H2 7417   1.672   4.126   4.258 -0.0109 -1.7599 -1.0286
 2485TIP3   OH2 7418   0.115   5.414   0.087  0.2788 -0.0637 -0.1255
 2485TIP3    H1 7419   0.190   5.356   0.101 -0.5847 -0.8976  1.4170
 2485TIP3    H2 7420   0.058   5.366   0.027 -0.3013 -0.7448  0.9266
 2486TIP3   OH2 7421   3.830   5.493   1.947  0.4446 -0.1448 -0.2223
 2486TIP3    H1 7422   3.819   5.406   1.909  1.6464  0.1108 -1.2149
 2486TIP3    H2 7423   3.924   5.507   1.948  0.3445  0.5309  1.3871
 2487TIP3   OH2 7424   7.169   4.900   5.872 -0.0551  0.2973  0.1958
 2487TIP3    H1 7425   7.159   4.991   5.900 -3.2531  0.3362 -0.7080
 2487TIP3    H2 7426   7.233   4.904   5.800  0.7062  1.6291  0.9210
 2488TIP3   OH2 7427   7.092   1.266   4.129  0.5379 -0.1133 -0.1330
 2488TIP3    H1 7428   6.997   1.279   4.139  0.2707 -1.9654  0.0573
 2488TIP3    H2 7429   7.101   1.214   4.049  1.3802 -0.2669  0.0535
 2489TIP3   OH2 7430   1.452   4.092   1.393 -0.1298 -0.2434  0.2931
 2489TIP3    H1 7431   1.408   4.171   1.426  1.4265  0.9692 -0.3731
 2489TIP3    H2 7432   1.486   4.118   1.307  0.9992 -1.4365  0.3527
 2490TIP3   OH2 7433   1.832   1.923   3.791  0.7949  0.4638 -0.6510
 2490TIP3    H1 7434   1.824   1.905   3.697 -0.5796  1.0778 -0.6798
 2490TIP3    H2 7435   1.813   1.840   3.834  0.0521  0.4901 -0.9052
 2491TIP3   OH2 7436   0.926   2.437   3.007 -0.1574  0.2425 -0.3681
 2491TIP3    H1 7437   0.998   2.383   3.039  1.3981  0.7118 -2.8080
 2491TIP3    H2 7438   0.884   2.385   2.938 -0.4016  1.0260 -0.8376
 2492TIP3   OH2 7439   2.557   0.722   3.760 -0.0001  0.4761 -0.6495
 2492TIP3    H1 7440   2.630   0.662   3.774 -0.1511  0.2296 -0.8925
 2492TIP3    H2 7441   2.489   0.667   3.720  0.5706  1.2391 -2.7968
 2493TIP3   OH2 7442   2.702   0.016   1.565  0.2708 -0.9210 -0.5381
 2493TIP3    H1 7443   2.635   0.078   1.537  1.3212  0.2849 -0.4786
 2493TIP3    H2 7444   2.659  -0.037   1.632 -0.5404  0.0218 -0.2850
 2494TIP3   OH2 7445   4.636   3.426   4.032 -0.6991 -0.6916  0.0171
 2494TIP3    H1 7446   4.609   3.352   4.086  0.2823 -1.3447 -0.3637
 2494TIP3    H2 7447   4.630   3.502   4.090 -1.8756 -1.0284  0.3652
 2495TIP3   OH2 7448   6.573   6.724   1.662  0.0347 -0.1406 -0.2031
 2495TIP3    H1 7449   6.601   6.796   1.718  1.3258 -1.0019  0.3082
 2495TIP3    H2 7450   6.527   6.766   1.590 -0.2694  1.1015  0.6859
 2496TIP3   OH2 7451   4.539   0.392   5.722  0.7685  0.0640 -0.2854
 2496TIP3    H1 7452   4.628   0.381   5.755  1.2029  0.7540 -1.2017
 2496TIP3    H2 7453   4.507   0.302   5.710  1.6506 -0.1915 -0.7737
 2497TIP3   OH2 7454   5.718   2.942   2.421 -0.5650  0.5393  0.1391
 2497TIP3    H1 7455   5.735   2.851   2.448  1.7320  0.3646 -1.6015
 2497TIP3    H2 7456   5.649   2.934   2.356  1.0311 -0.2803 -1.5375
 2498TIP3   OH2 7457   4.913   3.204   4.301  0.4131 -0.4049  0.5853
 2498TIP3    H1 7458   4.910   3.215   4.206 -0.6332 -0.3152  0.6211
 2498TIP3    H2 7459   4.935   3.112   4.314  2.0035 -0.0930  0.2702
 2499TIP3   OH2 7460   6.637   1.251   0.517  0.1773  0.2260  0.1226
 2499TIP3    H1 7461   6.675   1.304   0.447 -0.4676 -0.1430 -0.5099
 2499TIP3    H2 7462   6.687   1.277   0.595  1.2509  0.2643 -0.5526
 2500TIP3   OH2 7463   5.286   3.938   1.746  0.1307  0.0014 -0.4304
 2500TIP3    H1 7464   5.347   3.995   1.700  0.1982 -0.9755 -1.6136
 2500TIP3    H2 7465   5.202   3.953   1.703 -0.0196 -0.2012 -0.2094
 2501TIP3   OH2 7466   4.381   0.395   2.271  0.9691 -0.6469 -0.2855
 2501TIP3    H1 7467   4.332   0.335   2.215  0.4866 -0.8443  0.3374
 2501TIP3    H2 7468   4.468   0.356   2.279  0.8060 -1.0134 -0.2817
 2502TIP3   OH2 7469   5.137   5.962   0.085  0.4677  0.1351  0.1912
 2502TIP3    H1 7470   5.108   5.892   0.026 -1.5686  0.5216  0.6284
 2502TIP3    H2 7471   5.153   6.037   0.028  0.0934  0.0474 -0.0325
 2503TIP3   OH2 7472   2.785   4.346   2.681  0.6202  0.6775 -0.3294
 2503TIP3    H1 7473   2.875   4.315   2.671 -0.1170 -1.4180 -1.2583
 2503TIP3    H2 7474   2.733   4.265   2.684 -1.0944  1.7635  1.9842
 2504TIP3   OH2 7475   0.274   0.682   3.167  0.4013  0.2932  0.4449
 2504TIP3    H1 7476   0.284   0.701   3.261  1.7612  1.0178  0.1761
 2504TIP3    H2 7477   0.342   0.734   3.125  1.8030 -2.3087 -0.6858
 2505TIP3   OH2 7478   2.040   4.438   1.012 -0.6479  0.0037  0.2605
 2505TIP3    H1 7479   1.955   4.394   1.013 -0.5813 -0.2645 -1.5288
 2505TIP3    H2 7480   2.102   4.369   0.984 -0.4341  0.9749 -1.9093
 2506TIP3   OH2 7481   2.899   2.183   0.906  0.4381  0.3087  0.1037
 2506TIP3    H1 7482   2.852   2.248   0.958  0.6253 -0.7311  1.6316
 2506TIP3    H2 7483   2.978   2.228   0.877  0.5952  0.7673  1.1918
 2507TIP3   OH2 7484   2.974   0.474   0.710  0.2080  0.9528  0.4519
 2507TIP3    H1 7485   2.911   0.410   0.744  0.9426  1.4011  2.8002
 2507TIP3    H2 7486   2.950   0.483   0.617 -2.3039  0.1025  0.9265
 2508TIP3   OH2 7487   2.748   4.120   0.514  0.4258 -0.0120 -0.3676
 2508TIP3    H1 7488   2.813   4.124   0.444 -0.5434  1.0617 -1.2541
 2508TIP3    H2 7489   2.750   4.030   0.545  2.2820 -0.0156 -0.4002
 2509TIP3   OH2 7490   4.499   2.253   0.535 -0.6557  0.0919 -0.1732
 2509TIP3    H1 7491   4.407   2.240   0.513 -0.8338 -0.1375  0.6928
 2509TIP3    H2 7492   4.537   2.290   0.455 -1.1744 -1.1935 -1.0529
 2510TIP3   OH2 7493   3.516   6.196   3.891 -0.2088 -0.1680  0.3197
 2510TIP3    H1 7494   3.558   6.270   3.934  2.0862 -1.9351  1.3101
 2510TIP3    H2 7495   3.558   6.191   3.805 -0.9563  0.1500 -0.0728
 2511TIP3   OH2 7496   5.097   5.196   3.069  0.4985 -0.0466 -0.3143
 2511TIP3    H1 7497   5.106   5.288   3.094  1.9322  0.4747 -2.5057
 2511TIP3    H2 7498   5.158   5.150   3.127  1.7662  0.7629 -0.9669
 2512TIP3   OH2 7499   4.684   1.477   5.657  0.1975  0.7115 -0.2064
 2512TIP3    H1 7500   4.640   1.403   5.616  0.7531  0.7129 -0.8245
 2512TIP3    H2 7501   4.770   1.480   5.615 -0.4527  2.8083 -1.5762
 2513TIP3   OH2 7502   7.215   4.103   0.873  0.6664 -0.5676  1.0845
 2513TIP3    H1 7503   7.122   4.113   0.893  0.4896 -0.2648  0.1631
 2513TIP3    H2 7504   7.260   4.150   0.943  0.0166  1.9730 -0.0901
 2514TIP3   OH2 7505   0.965   0.435   0.718 -0.1641  0.2177 -0.1851
 2514TIP3    H1 7506   0.949   0.525   0.688  2.1038  0.1906 -1.7395
 2514TIP3    H2 7507   0.998   0.444   0.807  0.7523  1.0191 -0.5889
 2515TIP3   OH2 7508   0.166   5.661   0.217  0.0643  0.1507 -0.0469
 2515TIP3    H1 7509   0.234   5.675   0.283 -0.0418 -1.2991  0.4055
 2515TIP3    H2 7510   0.183   5.573   0.184 -1.6072 -0.2593  0.0964
 2516TIP3   OH2 7511   1.346   1.525   4.553  0.2769 -0.2096 -0.3630
 2516TIP3    H1 7512   1.258   1.495   4.572 -0.7540  0.9407 -2.8510
 2516TIP3    H2 7513   1.354   1.608   4.601  0.4038 -0.8281  0.6905
 2517TIP3   OH2 7514   2.631   5.235   1.173  0.2907 -0.4129  0.3638
 2517TIP3    H1 7515   2.554   5.233   1.230  0.7548  0.1032  1.0252
 2517TIP3    H2 7516   2.595   5.225   1.085 -0.7746  1.7374  0.4628
 2518TIP3   OH2 7517   1.074   5.584   3.714  0.1824  0.4597 -0.2887
 2518TIP3    H1 7518   0.980   5.565   3.718  0.2353  0.4117  1.3107
 2518TIP3    H2 7519   1.106   5.530   3.642 -0.9858  0.3916 -0.7870
 2519TIP3   OH2 7520   5.397   0.978   4.364 -0.4414 -0.6509 -0.5809
 2519TIP3    H1 7521   5.466   0.928   4.321 -0.8064 -1.3726 -0.3467
 2519TIP3    H2 7522   5.338   0.912   4.401  0.3821 -0.1151  1.8947
 2520TIP3   OH2 7523   0.519   0.046   5.775 -0.2164  0.5856  0.6296
 2520TIP3    H1 7524   0.612   0.034   5.754 -0.5673  1.0568 -1.4646
 2520TIP3    H2 7525   0.509   0.008   5.862  1.8481  0.1577  0.7438
 2521TIP3   OH2 7526   0.098   6.411   3.094  0.4190 -0.2404  0.1105
 2521TIP3    H1 7527   0.187   6.418   3.127  0.4475  0.2421 -0.0551
 2521TIP3    H2 7528   0.095   6.326   3.050  0.9911  0.0085 -0.4343
 2522TIP3   OH2 7529   2.585   0.173   1.312  0.1042  0.4802 -0.1605
 2522TIP3    H1 7530   2.522   0.169   1.384  0.7960 -0.2627  0.4150
 2522TIP3    H2 7531   2.591   0.084   1.280  1.3454  0.4163  0.2162
 2523TIP3   OH2 7532   5.385   6.655   1.521 -0.5456  0.2120  0.8314
 2523TIP3    H1 7533   5.304   6.604   1.513 -0.5785  0.3527  0.2648
 2523TIP3    H2 7534   5.379   6.696   1.608 -1.7742  1.3916  0.2307
 2524TIP3   OH2 7535   7.127   4.143   3.526  0.4093 -0.1322  0.3544
 2524TIP3    H1 7536   7.078   4.215   3.568 -0.9564 -1.1378  0.5409
 2524TIP3    H2 7537   7.166   4.095   3.599  0.9526  0.1495  0.2543
 2525TIP3   OH2 7538   3.947   5.803   5.818  0.2561  0.0612 -0.3903
 2525TIP3    H1 7539   3.875   5.741   5.829 -0.4065  0.6887 -1.0712
 2525TIP3    H2 7540   3.960   5.808   5.723 -0.1312  1.4312 -0.3956
 2526TIP3   OH2 7541   7.026   4.486   4.284  0.1399  0.1756 -0.2640
 2526TIP3    H1 7542   7.037   4.402   4.241  1.9779  0.6256 -0.7393
 2526TIP3    H2 7543   7.034   4.467   4.377 -3.4859 -0.7435  0.0038
 2527TIP3   OH2 7544   3.243   2.953   4.801 -0.1741 -0.4815 -0.2180
 2527TIP3    H1 7545   3.260   3.030   4.856 -1.4434 -0.4218  0.1290
 2527TIP3    H2 7546   3.288   2.971   4.719 -1.4987  1.2207 -0.6107
 2528TIP3   OH2 7547   1.379   4.708   5.839  0.2961  0.4468  0.6489
 2528TIP3    H1 7548   1.457   4.654   5.854  0.7341  0.7009 -0.5897
 2528TIP3    H2 7549   1.413   4.792   5.809 -0.4659  0.1411 -1.1815
 2529TIP3   OH2 7550   4.157   3.104   2.257 -0.1787 -0.0068 -0.0180
 2529TIP3    H1 7551   4.139   3.197   2.273 -0.4274  0.1193 -1.0020
 2529TIP3    H2 7552   4.105   3.083   2.180  0.5623 -0.7489 -0.3148
 2530TIP3   OH2 7553   7.102   6.472   2.631  0.0013  0.7558  0.5160
 2530TIP3    H1 7554   7.092   6.393   2.684  1.7067  1.4111  1.9426
 2530TIP3    H2 7555   7.105   6.441   2.541 -1.3610 -0.5785  0.9021
 2531TIP3   OH2 7556   4.733   1.159   1.340 -0.1401  0.8664 -0.3424
 2531TIP3    H1 7557   4.684   1.221   1.393  1.1074  0.2853  1.5854
 2531TIP3    H2 7558   4.727   1.194   1.251 -4.7787  0.3091 -0.4872
 2532TIP3   OH2 7559   6.733   6.120   3.965 -0.3065  0.2644 -0.3148
 2532TIP3    H1 7560   6.682   6.039   3.967  0.7183 -0.4270 -1.0261
 2532TIP3    H2 7561   6.805   6.104   4.026  2.0098 -0.8741 -3.1330
 2533TIP3   OH2 7562   0.521   5.569   4.364 -0.3575  0.1426  0.4940
 2533TIP3    H1 7563   0.536   5.496   4.303  0.5166 -0.1703  1.0540
 2533TIP3    H2 7564   0.438   5.607   4.337  0.0157  0.0218 -0.9036
 2534TIP3   OH2 7565   6.053   2.494   2.533  0.2853 -0.4094 -0.2049
 2534TIP3    H1 7566   6.077   2.440   2.607 -0.3396 -1.5774 -0.8241
 2534TIP3    H2 7567   6.134   2.536   2.505  0.9448 -1.6911 -0.2367
 2535TIP3   OH2 7568   4.397   1.921   4.494 -0.4200  0.2830 -0.2185
 2535TIP3    H1 7569   4.426   1.945   4.406 -0.9540  0.3050 -0.3921
 2535TIP3    H2 7570   4.424   1.830   4.504 -1.8867 -0.2719 -1.0781
 2536TIP3   OH2 7571   3.395   5.182   1.737  0.1759 -0.1848  0.4288
 2536TIP3    H1 7572   3.356   5.110   1.688  0.9268 -0.3106  0.0039
 2536TIP3    H2 7573   3.337   5.194   1.813 -0.2521 -0.8692  0.2152
 2537TIP3   OH2 7574   1.410   4.353   0.628 -0.3124 -0.2347 -0.2108
 2537TIP3    H1 7575   1.339   4.346   0.692  0.4031  0.6189  0.7112
 2537TIP3    H2 7576   1.366   4.364   0.544 -1.2820  1.0863  0.4292
 2538TIP3   OH2 7577   0.520   4.249   1.257  0.2713 -0.0778 -0.3643
 2538TIP3    H1 7578   0.531   4.343   1.274  0.5803 -0.5095  2.1760
 2538TIP3    H2 7579   0.436   4.228   1.297 -0.8355 -0.5502 -2.7570
 2539TIP3   OH2 7580   4.363   1.605   2.513 -0.1065 -0.2288 -0.5378
 2539TIP3    H1 7581   4.371   1.546   2.438  1.2249  0.0022 -0.5915
 2539TIP3    H2 7582   4.451   1.609   2.551  0.0531  2.3355 -0.9990
 2540TIP3   OH2 7583   1.800   6.504   2.222 -0.0252  0.0369  0.0414
 2540TIP3    H1 7584   1.785   6.409   2.226  2.1319 -0.3545 -0.2268
 2540TIP3    H2 7585   1.743   6.534   2.151 -1.3190 -0.8974  0.6233
 2541TIP3   OH2 7586  -0.007   4.942   2.108  0.5226 -0.3179  0.0434
 2541TIP3    H1 7587   0.042   4.862   2.129  1.3655  0.5894  1.7810
 2541TIP3    H2 7588   0.038   4.979   2.032  0.4548 -1.2124 -0.4393
 2542TIP3   OH2 7589   0.215   4.169   4.245 -0.5504 -0.3702 -0.1044
 2542TIP3    H1 7590   0.273   4.098   4.217 -2.4677 -1.4213 -1.7613
 2542TIP3    H2 7591   0.225   4.235   4.176  0.3828  0.5074  0.8436
 2543TIP3   OH2 7592   4.731   3.337   0.428  0.1245  0.4644  0.4077
 2543TIP3    H1 7593   4.656   3.316   0.483  1.0195 -0.6865  1.2581
 2543TIP3    H2 7594   4.722   3.280   0.351 -0.1496  0.7327  0.2370
 2544TIP3   OH2 7595   3.978   6.152   3.076 -0.5923 -0.2488  0.0211
 2544TIP3    H1 7596   3.942   6.208   3.007  0.0936 -0.9592 -0.9401
 2544TIP3    H2 7597   3.987   6.210   3.151  0.3837  1.0352 -1.0382
 2545TIP3   OH2 7598   1.107   2.259   3.133  0.6676 -0.1714 -0.5557
 2545TIP3    H1 7599   1.027   2.219   3.166  1.0869 -1.0651 -0.5930
 2545TIP3    H2 7600   1.174   2.191   3.143  1.0526 -0.0527 -2.1475
 2546TIP3   OH2 7601   1.456   4.257   4.894 -0.0070 -0.3788  0.4208
 2546TIP3    H1 7602   1.406   4.251   4.812  3.1943  1.0144 -1.8665
 2546TIP3    H2 7603   1.401   4.311   4.951 -1.5174  0.2988 -1.5444
 2547TIP3   OH2 7604   4.069   3.074   5.229  0.5690  0.0954  0.6640
 2547TIP3    H1 7605   4.084   2.982   5.210  1.0062  0.3047 -0.0632
 2547TIP3    H2 7606   4.148   3.118   5.199 -0.6022  0.9950 -1.3122
 2548TIP3   OH2 7607   5.635   2.180   4.276 -0.2664  0.3371 -0.5807
 2548TIP3    H1 7608   5.612   2.116   4.344  0.0155 -0.4855 -1.2465
 2548TIP3    H2 7609   5.588   2.260   4.301 -1.8893 -0.5813 -0.5909
 2549TIP3   OH2 7610   0.610   1.093   0.279  0.2219  0.5735 -0.5282
 2549TIP3    H1 7611   0.525   1.125   0.248 -1.4094 -0.5235  2.3322
 2549TIP3    H2 7612   0.644   1.164   0.334  0.6397  0.5943 -0.8112
 2550TIP3   OH2 7613   6.389   1.814   5.337  0.1591 -1.0878  0.4810
 2550TIP3    H1 7614   6.448   1.791   5.266  1.2179 -0.2109  1.0406
 2550TIP3    H2 7615   6.338   1.887   5.303  2.2697  0.9137  1.3207
 2551TIP3   OH2 7616   6.044   3.165   2.748  0.2683  0.5234 -0.2693
 2551TIP3    H1 7617   5.973   3.101   2.747  0.3647  0.4039 -1.4163
 2551TIP3    H2 7618   6.114   3.122   2.796 -0.0167  0.1585 -0.1735
 2552TIP3   OH2 7619   2.625   6.673   2.449 -0.3476  0.1017  0.0145
 2552TIP3    H1 7620   2.665   6.594   2.411 -0.1392  0.3028 -0.1875
 2552TIP3    H2 7621   2.681   6.744   2.420  0.7197  0.1201  1.9748
 2553TIP3   OH2 7622   5.031   4.287   2.625 -0.6103 -0.0406 -0.4003
 2553TIP3    H1 7623   5.090   4.229   2.576 -0.8094 -0.4441 -0.1649
 2553TIP3    H2 7624   5.081   4.367   2.637  0.1011 -0.5736  0.2671
 2554TIP3   OH2 7625   0.267   2.245   0.472 -0.3400  0.3445 -0.1271
 2554TIP3    H1 7626   0.285   2.155   0.500 -0.2391  0.5957  0.6066
 2554TIP3    H2 7627   0.312   2.252   0.388 -0.2827 -0.2651 -0.1564
 2555TIP3   OH2 7628   6.265   4.595   1.978  0.6432  0.4990  0.0184
 2555TIP3    H1 7629   6.200   4.623   2.043  0.2093  0.7061 -0.4990
 2555TIP3    H2 7630   6.232   4.510   1.946  0.6010  0.6273 -0.2801
 2556TIP3   OH2 7631   0.060   5.354   1.696  0.2723 -0.2974 -0.4131
 2556TIP3    H1 7632   0.038   5.344   1.789  0.9457 -0.7562 -0.2972
 2556TIP3    H2 7633  -0.004   5.418   1.663 -0.9280 -1.2366  0.0143
 2557TIP3   OH2 7634   1.217   1.703   0.950  0.4770 -0.0431  0.3812
 2557TIP3    H1 7635   1.266   1.671   0.874  1.0315  1.4806  0.0534
 2557TIP3    H2 7636   1.143   1.643   0.958  2.0472 -2.0561  0.5076
 2558TIP3   OH2 7637   4.134   0.790   4.307  0.6208  0.1543  0.1765
 2558TIP3    H1 7638   4.097   0.870   4.270  1.1453  0.0180 -0.6835
 2558TIP3    H2 7639   4.116   0.723   4.241 -0.8643 -0.7072  1.4208
 2559TIP3   OH2 7640   3.845   1.100   5.518  0.1528 -0.1479  0.3254
 2559TIP3    H1 7641   3.930   1.058   5.502  0.1057  0.4585 -1.8743
 2559TIP3    H2 7642   3.784   1.027   5.531  0.6869 -0.6477  0.0751
 2560TIP3   OH2 7643   0.221   2.499   0.269  0.3732  0.1928 -0.2100
 2560TIP3    H1 7644   0.127   2.507   0.250  0.1046  0.3904  1.1109
 2560TIP3    H2 7645   0.241   2.575   0.322  1.1392 -0.1951  0.0703
 2561TIP3   OH2 7646   6.857   5.352   5.334 -0.3239  0.1176  0.0489
 2561TIP3    H1 7647   6.913   5.368   5.258  0.3333 -0.7722  0.3310
 2561TIP3    H2 7648   6.917   5.338   5.406 -0.9429  2.3638  1.0821
 2562TIP3   OH2 7649   2.382   4.844   5.642  0.5764  0.1393 -0.2513
 2562TIP3    H1 7650   2.389   4.939   5.657 -1.9495 -0.0533  3.3086
 2562TIP3    H2 7651   2.303   4.834   5.589 -0.1424  0.0168  0.8048
 2563TIP3   OH2 7652   0.106   4.431   2.889 -0.2819 -0.5778 -0.4902
 2563TIP3    H1 7653   0.051   4.491   2.839 -0.1530 -1.3184 -1.5490
 2563TIP3    H2 7654   0.045   4.387   2.950 -0.4488  0.2788 -0.0308
 2564TIP3   OH2 7655   3.444   1.736   5.835  0.5916  0.7100  0.0104
 2564TIP3    H1 7656   3.421   1.726   5.927 -0.8606 -1.0108 -0.4763
 2564TIP3    H2 7657   3.422   1.651   5.796 -2.5697  2.4937 -2.6274
 2565TIP3   OH2 7658   2.013   2.564   5.053  0.4681 -0.6523  0.2968
 2565TIP3    H1 7659   2.002   2.470   5.069  1.0022 -0.6207  0.8901
 2565TIP3    H2 7660   2.099   2.585   5.088  0.4515  0.0222 -0.0354
 2566TIP3   OH2 7661   0.346   2.493   4.975 -0.3800  0.1238 -0.4531
 2566TIP3    H1 7662   0.438   2.478   4.956 -0.2832  0.1723 -0.0297
 2566TIP3    H2 7663   0.320   2.563   4.916 -0.2394 -0.1329 -0.8218
 2567TIP3   OH2 7664   6.918   1.622   4.247 -0.3675  0.3325  0.1394
 2567TIP3    H1 7665   6.838   1.673   4.259 -2.0751 -2.0778 -0.1849
 2567TIP3    H2 7666   6.928   1.615   4.152 -1.8065 -2.1526  0.0820
 2568TIP3   OH2 7667   6.348   3.892   0.924  0.1967  0.0188 -0.6831
 2568TIP3    H1 7668   6.317   3.974   0.884 -0.4602 -0.0936 -0.4253
 2568TIP3    H2 7669   6.424   3.868   0.873  0.1959  0.6174 -0.9797
 2569TIP3   OH2 7670   6.560   1.331   1.915 -0.2920  0.5859 -0.1590
 2569TIP3    H1 7671   6.640   1.278   1.906 -0.4178  0.4539 -0.5038
 2569TIP3    H2 7672   6.587   1.419   1.892 -0.6721  0.2102 -2.1807
 2570TIP3   OH2 7673   5.129   3.090   5.430  0.3560 -0.7503  0.1682
 2570TIP3    H1 7674   5.183   3.169   5.431 -0.4416 -0.1253 -1.6603
 2570TIP3    H2 7675   5.039   3.124   5.432 -0.0519 -1.7501  2.8482
 2571TIP3   OH2 7676   2.205   3.416   0.597 -0.1988  0.6143 -0.7357
 2571TIP3    H1 7677   2.120   3.387   0.564 -0.2778  0.0223 -0.0281
 2571TIP3    H2 7678   2.245   3.462   0.523 -0.4509 -0.5274 -1.6154
 2572TIP3   OH2 7679   5.483   1.473   2.282  0.5678  0.7359  0.2397
 2572TIP3    H1 7680   5.439   1.516   2.208  1.4490  0.9350 -0.1842
 2572TIP3    H2 7681   5.485   1.380   2.258 -1.8659  0.2949  1.4230
 2573TIP3   OH2 7682   0.336   0.052   1.649  0.4364  0.2614 -0.6317
 2573TIP3    H1 7683   0.283  -0.003   1.591  0.1117 -0.2540  0.1422
 2573TIP3    H2 7684   0.306   0.031   1.737  1.2402  0.7010 -0.2381
 2574TIP3   OH2 7685   4.688   1.724   1.154 -0.3231 -0.1439  0.5711
 2574TIP3    H1 7686   4.741   1.693   1.227 -3.1752 -1.7287  2.1709
 2574TIP3    H2 7687   4.665   1.814   1.177 -1.2054 -0.6309  1.7172
 2575TIP3   OH2 7688   1.052   2.093   3.612 -0.0754 -0.3080 -0.5553
 2575TIP3    H1 7689   1.107   2.094   3.690 -1.2303 -0.7429  0.2768
 2575TIP3    H2 7690   0.983   2.030   3.631 -2.0376  1.6576 -0.7706
 2576TIP3   OH2 7691   5.149   5.744   1.253  0.0509 -0.5036  0.4130
 2576TIP3    H1 7692   5.078   5.773   1.195 -0.1789  0.0188  0.9535
 2576TIP3    H2 7693   5.108   5.735   1.339  1.0066  1.5954  1.1626
 2577TIP3   OH2 7694   7.005   1.215   2.535  0.2303 -0.3450  0.1362
 2577TIP3    H1 7695   6.991   1.122   2.549  1.0300 -0.6356 -0.8642
 2577TIP3    H2 7696   6.958   1.258   2.606 -2.7251 -1.3640 -1.0811
 2578TIP3   OH2 7697   1.642   2.810   1.445 -0.1750  0.8104  0.0885
 2578TIP3    H1 7698   1.693   2.890   1.454 -1.4766  1.6385  0.4218
 2578TIP3    H2 7699   1.706   2.743   1.418  0.5504  2.4851 -2.7684
 2579TIP3   OH2 7700   5.096   3.754   5.347 -0.3554 -0.0719  1.0517
 2579TIP3    H1 7701   5.081   3.672   5.300 -0.3813  0.9307 -0.8238
 2579TIP3    H2 7702   5.141   3.810   5.283 -0.4300  1.3960  2.2297
 2580TIP3   OH2 7703   1.705   0.170   5.851 -0.0641 -0.0214 -0.1907
 2580TIP3    H1 7704   1.681   0.209   5.767  1.6967  1.7113  0.0126
 2580TIP3    H2 7705   1.775   0.108   5.830  0.6097  0.6546 -0.0239
 2581TIP3   OH2 7706   4.491   4.374   3.078  0.0375 -0.2839  0.3286
 2581TIP3    H1 7707   4.532   4.460   3.089  1.9413 -1.1707  0.7121
 2581TIP3    H2 7708   4.469   4.347   3.167  0.5367 -0.6690  0.3420
 2582TIP3   OH2 7709   3.462   0.397   0.325  0.0154 -0.0899  0.4081
 2582TIP3    H1 7710   3.418   0.342   0.389 -0.4470  1.1835  1.2114
 2582TIP3    H2 7711   3.492   0.473   0.375 -0.7962  1.1680 -0.9718
 2583TIP3   OH2 7712   3.843   2.635   2.395  0.0067 -0.2501  0.1493
 2583TIP3    H1 7713   3.818   2.561   2.339 -1.0445 -1.4729  2.1021
 2583TIP3    H2 7714   3.903   2.687   2.341  0.0227 -1.9958 -1.6417
 2584TIP3   OH2 7715   0.595   6.485   4.359 -0.0272  0.2022 -0.0004
 2584TIP3    H1 7716   0.535   6.473   4.433  0.1724  1.0008  0.3084
 2584TIP3    H2 7717   0.557   6.558   4.309  0.3613  0.3146 -0.1316
 2585TIP3   OH2 7718   6.269   0.484   3.670 -0.1299  0.3988 -0.4985
 2585TIP3    H1 7719   6.182   0.524   3.679 -0.0735  0.2731  0.8618
 2585TIP3    H2 7720   6.259   0.397   3.710  0.7885  0.6589  0.3566
 2586TIP3   OH2 7721   1.557   4.896   2.747  0.1461  0.1823 -0.0320
 2586TIP3    H1 7722   1.648   4.872   2.728  0.5266  1.6098 -0.1266
 2586TIP3    H2 7723   1.562   4.945   2.829 -0.9801 -2.4467  1.7501
 2587TIP3   OH2 7724   5.773   4.475   4.306  0.2123  0.5587  0.5706
 2587TIP3    H1 7725   5.743   4.434   4.387  0.1577 -0.2630  0.1407
 2587TIP3    H2 7726   5.692   4.494   4.258  0.2862 -2.4663 -0.9901
 2588TIP3   OH2 7727   6.523   5.993   4.737  0.2194 -0.3124 -0.0917
 2588TIP3    H1 7728   6.505   5.907   4.775  1.1081 -0.8398 -0.8231
 2588TIP3    H2 7729   6.569   6.040   4.805  1.5698 -1.1596 -0.3761
 2589TIP3   OH2 7730   5.577   4.993   1.242 -0.1416  0.6885 -0.2086
 2589TIP3    H1 7731   5.619   4.907   1.238  0.0857  0.7312  0.8517
 2589TIP3    H2 7732   5.544   4.999   1.332 -0.7345  1.4421 -0.4699
 2590TIP3   OH2 7733   6.290   1.182   1.697 -0.3359  0.0839 -0.1350
 2590TIP3    H1 7734   6.298   1.276   1.713 -1.5578  0.0001  1.0903
 2590TIP3    H2 7735   6.336   1.141   1.770  1.5483 -0.3291 -1.4512
 2591TIP3   OH2 7736   4.948   3.867   3.162  0.1699 -0.1322 -0.2554
 2591TIP3    H1 7737   5.034   3.854   3.122 -0.8178  0.4490 -2.7187
 2591TIP3    H2 7738   4.965   3.868   3.256  2.8651  0.0927 -0.6846
 2592TIP3   OH2 7739   3.872   4.814   3.448 -0.2980 -0.6396 -0.2946
 2592TIP3    H1 7740   3.856   4.730   3.405  0.8190 -0.9931 -0.0459
 2592TIP3    H2 7741   3.811   4.815   3.521  0.8728 -2.0636  0.7770
 2593TIP3   OH2 7742   3.493   4.274   3.870 -0.3075 -0.2480 -0.0766
 2593TIP3    H1 7743   3.411   4.280   3.820 -0.4248 -0.2156  0.1195
 2593TIP3    H2 7744   3.510   4.180   3.877 -0.3929 -0.2576 -0.0085
 2594TIP3   OH2 7745   5.930   4.392   3.990 -0.2725 -0.4152 -0.4249
 2594TIP3    H1 7746   5.869   4.332   3.947 -1.1247 -0.5566  0.9222
 2594TIP3    H2 7747   5.878   4.433   4.060  0.9131  0.2052  0.1202
 2595TIP3   OH2 7748   3.285   6.102   3.754  0.4781 -0.0966  0.1951
 2595TIP3    H1 7749   3.203   6.074   3.794  0.9440 -1.5893  0.1564
 2595TIP3    H2 7750   3.353   6.062   3.809  1.1452 -0.5991 -0.9581
 2596TIP3   OH2 7751   3.323   2.661   2.466 -0.2454  0.2904  0.2300
 2596TIP3    H1 7752   3.273   2.733   2.504  2.5085  1.9599  0.8983
 2596TIP3    H2 7753   3.370   2.700   2.393  3.3394 -0.0323  2.1600
 2597TIP3   OH2 7754   0.356   0.957   2.883  0.5157 -0.8515  0.4800
 2597TIP3    H1 7755   0.285   0.970   2.946 -1.3693 -2.6925 -1.0991
 2597TIP3    H2 7756   0.335   1.018   2.812 -0.4917 -2.5247 -0.7220
 2598TIP3   OH2 7757   4.820   4.377   5.041  0.3987 -0.1108  0.1934
 2598TIP3    H1 7758   4.820   4.422   4.956 -2.0242 -1.6148 -0.7149
 2598TIP3    H2 7759   4.775   4.438   5.099  0.7167  0.3063  0.0080
 2599TIP3   OH2 7760   6.059   5.995   1.486  0.4485  0.0297  0.6456
 2599TIP3    H1 7761   5.970   5.999   1.520 -0.3557 -1.7108 -1.1129
 2599TIP3    H2 7762   6.091   5.909   1.511  0.1493 -0.9512 -2.0749
 2600TIP3   OH2 7763   1.741   5.325   5.403 -0.2347  0.0746  0.4827
 2600TIP3    H1 7764   1.647   5.340   5.403 -0.2982  0.0548 -2.0593
 2600TIP3    H2 7765   1.752   5.233   5.383  0.3192  0.4119 -0.8472
 2601TIP3   OH2 7766   3.262   5.196   1.109 -0.1434  0.3519 -0.1570
 2601TIP3    H1 7767   3.301   5.273   1.149  0.6661 -0.4182  0.5935
 2601TIP3    H2 7768   3.220   5.149   1.182 -0.0423 -0.2517 -0.4775
 2602TIP3   OH2 7769   4.431   5.828   2.251  0.3126 -0.0776  0.3477
 2602TIP3    H1 7770   4.480   5.746   2.259  1.9305  0.8571  0.4624
 2602TIP3    H2 7771   4.470   5.872   2.177 -1.2999  0.1342 -0.4254
 2603TIP3   OH2 7772   0.705   1.913   4.764 -0.6230  0.3148 -0.3378
 2603TIP3    H1 7773   0.781   1.869   4.725 -0.2883 -0.6337  1.2976
 2603TIP3    H2 7774   0.630   1.877   4.718 -0.3356 -1.8549  0.7833
 2604TIP3   OH2 7775   5.236   4.493   2.915 -0.0085 -0.1365  0.2108
 2604TIP3    H1 7776   5.206   4.501   2.825  1.3375 -1.2347 -0.3663
 2604TIP3    H2 7777   5.270   4.580   2.937  0.8119 -0.1879 -0.7903
 2605TIP3   OH2 7778   1.835   2.232   2.950  0.1065  0.0014 -0.2241
 2605TIP3    H1 7779   1.897   2.247   3.021  0.1035  0.0612 -0.2344
 2605TIP3    H2 7780   1.771   2.303   2.959  1.1348  1.1222 -1.4405
 2606TIP3   OH2 7781   1.010   0.759   4.330 -0.4405  0.0040  0.1602
 2606TIP3    H1 7782   1.063   0.834   4.356  0.2355 -0.0629 -0.9567
 2606TIP3    H2 7783   1.064   0.683   4.351 -0.9040 -0.1545  0.7986
 2607TIP3   OH2 7784   1.800   5.082   2.861 -0.0060  0.1145 -0.4458
 2607TIP3    H1 7785   1.861   5.105   2.790  1.7609  0.6183  1.1365
 2607TIP3    H2 7786   1.823   4.992   2.883 -0.8182 -0.1725 -0.7654
 2608TIP3   OH2 7787   5.422   4.225   3.861 -0.1674  0.2706 -0.3645
 2608TIP3    H1 7788   5.337   4.181   3.857 -0.0415 -0.0610  0.4473
 2608TIP3    H2 7789   5.406   4.303   3.916  0.2614 -0.3078  0.6025
 2609TIP3   OH2 7790   4.255   2.584   3.550  0.6362 -0.2684  0.0139
 2609TIP3    H1 7791   4.270   2.606   3.642 -0.7944  0.5061  0.0928
 2609TIP3    H2 7792   4.326   2.627   3.503  0.3374  0.9004  0.6002
 2610TIP3   OH2 7793   5.209   1.968   4.398  0.0277 -0.1581  0.5647
 2610TIP3    H1 7794   5.167   2.029   4.459  0.0239  0.7322 -0.3070
 2610TIP3    H2 7795   5.230   2.021   4.321  0.6256 -1.1147  0.0436
 2611TIP3   OH2 7796   0.104   3.065   4.073 -0.3726 -0.4667  0.2432
 2611TIP3    H1 7797   0.085   3.122   4.147 -0.9248 -0.9955  0.5129
 2611TIP3    H2 7798   0.197   3.043   4.083 -1.0566 -2.7873  2.3807
 2612TIP3   OH2 7799   6.599   2.294   0.396 -0.1794  0.2131  0.3936
 2612TIP3    H1 7800   6.588   2.279   0.303  1.2393 -0.4605  0.3042
 2612TIP3    H2 7801   6.638   2.381   0.403 -1.2027  0.6809  0.4352
 2613TIP3   OH2 7802   4.136   3.261   5.608 -0.6430  0.0395  0.1345
 2613TIP3    H1 7803   4.044   3.286   5.617 -0.0216  1.7697  2.8367
 2613TIP3    H2 7804   4.176   3.337   5.566  0.3801  1.8012  3.8806
 2614TIP3   OH2 7805   5.285   4.904   4.093 -0.3526  0.2020 -0.2409
 2614TIP3    H1 7806   5.330   4.915   4.009  0.4531  0.1571  0.1737
 2614TIP3    H2 7807   5.306   4.814   4.119  2.3546  1.2400  1.6534
 2615TIP3   OH2 7808   3.140   6.326   2.485 -0.5390 -0.7691 -0.1374
 2615TIP3    H1 7809   3.066   6.384   2.465  1.0072  0.5710 -2.4981
 2615TIP3    H2 7810   3.166   6.290   2.400  0.9542 -1.9089  0.7542
 2616TIP3   OH2 7811   1.757   0.855   1.569  0.0844 -0.0512 -0.3726
 2616TIP3    H1 7812   1.743   0.779   1.627  2.9468  0.9226  1.8670
 2616TIP3    H2 7813   1.807   0.819   1.495 -0.6675 -0.7376 -0.5634
 2617TIP3   OH2 7814   6.217   2.664   3.391 -0.0567 -0.1125  0.6997
 2617TIP3    H1 7815   6.304   2.702   3.406 -0.1034  0.4009 -0.2431
 2617TIP3    H2 7816   6.230   2.604   3.317 -0.3424 -0.6570  1.0842
 2618TIP3   OH2 7817   1.529   4.223   0.892  0.0128  0.3140 -0.2708
 2618TIP3    H1 7818   1.498   4.259   0.809 -0.0013 -0.2081 -0.4988
 2618TIP3    H2 7819   1.535   4.128   0.876  0.8686  0.3051  0.0365
 2619TIP3   OH2 7820   6.392   3.772   5.690  0.3571 -0.0627  0.0458
 2619TIP3    H1 7821   6.376   3.694   5.743  1.4013  0.2576  0.8691
 2619TIP3    H2 7822   6.310   3.786   5.642 -0.0416 -1.3124  0.3350
 2620TIP3   OH2 7823   5.656   4.388   5.041  0.1884 -0.5719  0.5148
 2620TIP3    H1 7824   5.573   4.410   5.082  0.0093 -1.1307  0.4568
 2620TIP3    H2 7825   5.640   4.305   4.995  0.2931  0.1719 -0.9516
 2621TIP3   OH2 7826   5.308   1.366   2.963  0.1932 -0.1930  0.0067
 2621TIP3    H1 7827   5.238   1.432   2.956 -1.0864 -1.5062  0.0266
 2621TIP3    H2 7828   5.319   1.352   3.057  0.4377 -0.0377  0.0014
 2622TIP3   OH2 7829   6.612   2.155   2.181  0.7222  0.2924 -0.2171
 2622TIP3    H1 7830   6.626   2.077   2.128  0.8137  0.4800 -0.4714
 2622TIP3    H2 7831   6.557   2.212   2.127  0.4133  0.2844  0.0836
 2623TIP3   OH2 7832   5.858   4.981   3.418  0.6846 -0.1671 -0.4912
 2623TIP3    H1 7833   5.794   5.049   3.438  0.3213 -1.0512  1.5694
 2623TIP3    H2 7834   5.809   4.917   3.367  0.4335  0.0516 -0.5291
 2624TIP3   OH2 7835   5.631   4.905   4.814  0.2372 -0.1839 -0.3647
 2624TIP3    H1 7836   5.724   4.926   4.818  0.5604 -1.6621  1.2433
 2624TIP3    H2 7837   5.602   4.907   4.905 -0.7290 -2.0069 -0.5848
 2625TIP3   OH2 7838   1.308   5.753   0.664 -0.2144 -0.2694 -0.3150
 2625TIP3    H1 7839   1.394   5.713   0.678 -0.2402 -0.2814 -0.1957
 2625TIP3    H2 7840   1.283   5.788   0.749  0.2506  0.8807 -0.6234
 2626TIP3   OH2 7841   4.731   6.135   1.429 -0.3613  0.4717 -0.6041
 2626TIP3    H1 7842   4.636   6.145   1.428 -0.1344  4.9673  0.2526
 2626TIP3    H2 7843   4.758   6.156   1.340 -0.1092  1.1685 -0.3698
 2627TIP3   OH2 7844   2.675   1.411   4.376 -0.1218  0.0613 -0.2459
 2627TIP3    H1 7845   2.745   1.467   4.339 -0.2691  0.1018 -0.4679
 2627TIP3    H2 7846   2.722   1.343   4.423  0.0562  1.0954  1.1276
 2628TIP3   OH2 7847   6.901   5.838   5.909 -0.3642 -0.0781 -0.3755
 2628TIP3    H1 7848   6.905   5.814   5.817  1.4557 -0.2622 -0.2785
 2628TIP3    H2 7849   6.932   5.929   5.912  0.9628 -0.5202  0.1783
 2629TIP3   OH2 7850   6.416   6.056   5.535 -0.4142  0.3070  0.1804
 2629TIP3    H1 7851   6.411   5.964   5.564  0.4857 -0.2204 -1.2653
 2629TIP3    H2 7852   6.334   6.070   5.489 -0.7150  0.3565  0.7169
 2630TIP3   OH2 7853   3.208   4.232   5.810 -0.0667  0.1649  0.1293
 2630TIP3    H1 7854   3.209   4.322   5.777 -0.7760  0.1443  0.0315
 2630TIP3    H2 7855   3.196   4.242   5.905  0.9964  0.1960  0.2759
 2631TIP3   OH2 7856   1.823   6.161   5.116  0.4355 -0.1345 -0.3409
 2631TIP3    H1 7857   1.797   6.115   5.037 -0.9689  0.3703 -0.2191
 2631TIP3    H2 7858   1.767   6.239   5.117 -0.3818 -0.6782  1.6886
 2632TIP3   OH2 7859   3.943   0.515   3.277  0.0687  0.5512  0.0179
 2632TIP3    H1 7860   3.940   0.593   3.333  0.8397  0.2587  0.4766
 2632TIP3    H2 7861   4.018   0.528   3.220 -0.4004  0.6012 -0.6042
 2633TIP3   OH2 7862   4.618   1.225   2.618  0.0072 -0.3095  0.1713
 2633TIP3    H1 7863   4.627   1.139   2.660 -2.4378 -0.1913  1.1204
 2633TIP3    H2 7864   4.554   1.210   2.548  0.6663  0.4461 -0.6051
 2634TIP3   OH2 7865   3.405   1.277   1.968  0.0654  0.2214 -0.5222
 2634TIP3    H1 7866   3.439   1.197   2.008 -0.2611  1.0261  1.4435
 2634TIP3    H2 7867   3.397   1.255   1.875  0.3638 -1.8886 -0.0998
 2635TIP3   OH2 7868   6.409   1.070   4.675 -0.2695  0.4030 -0.5450
 2635TIP3    H1 7869   6.504   1.059   4.677 -0.3966 -0.7769  0.2338
 2635TIP3    H2 7870   6.390   1.100   4.586  0.8588  0.9997 -0.5959
 2636TIP3   OH2 7871   7.107   3.670   0.768  0.7785  0.2006 -0.3624
 2636TIP3    H1 7872   7.175   3.702   0.709  1.6260  1.1475  1.0637
 2636TIP3    H2 7873   7.154   3.645   0.847 -0.5151  0.8016  0.6339
 2637TIP3   OH2 7874   0.678   3.346   1.500 -0.2354 -0.6075 -0.3282
 2637TIP3    H1 7875   0.760   3.351   1.550  0.4180 -2.0566 -1.1654
 2637TIP3    H2 7876   0.706   3.350   1.408 -1.2813  0.6277 -0.6156
 2638TIP3   OH2 7877   2.066   4.297   2.091 -0.1769 -0.5773 -0.5616
 2638TIP3    H1 7878   2.088   4.298   2.184  1.0125  0.4076 -0.8398
 2638TIP3    H2 7879   1.971   4.313   2.089 -0.5788 -2.4068  0.5349
 2639TIP3   OH2 7880   5.782   3.103   0.124 -0.1915  0.2523 -0.1148
 2639TIP3    H1 7881   5.748   3.015   0.105  1.7777 -0.5828 -0.0161
 2639TIP3    H2 7882   5.877   3.093   0.123  0.0825  2.2980  0.4009
 2640TIP3   OH2 7883   3.396   6.122   0.416  0.1709 -0.5451 -0.2911
 2640TIP3    H1 7884   3.368   6.031   0.431  1.1624 -1.1168 -1.7032
 2640TIP3    H2 7885   3.480   6.114   0.371  0.6865  1.1016  0.3112
 2641TIP3   OH2 7886   5.421   2.475   3.098  0.0083  0.3754 -0.3909
 2641TIP3    H1 7887   5.437   2.457   3.005 -0.8361  0.9556 -0.6549
 2641TIP3    H2 7888   5.458   2.562   3.112  0.5477  0.0981 -0.0659
 2642TIP3   OH2 7889   4.116   2.817   3.639 -0.4470  0.1226 -0.2773
 2642TIP3    H1 7890   4.188   2.768   3.679 -0.9379 -0.3309  0.0499
 2642TIP3    H2 7891   4.061   2.844   3.712 -0.8392  0.1143 -0.5651
 2643TIP3   OH2 7892   0.331   5.493   5.261 -0.2195 -0.4949  0.8783
 2643TIP3    H1 7893   0.319   5.499   5.167 -0.7262 -0.8626  0.9197
 2643TIP3    H2 7894   0.373   5.408   5.275  0.9704  0.0580  0.8870
 2644TIP3   OH2 7895   1.451   4.540   3.966  0.0419  0.2549  0.0936
 2644TIP3    H1 7896   1.392   4.587   3.907  0.3926 -0.2112 -0.6272
 2644TIP3    H2 7897   1.511   4.608   3.998  0.4885  0.3196 -0.8717
 2645TIP3   OH2 7898   3.583   0.365   1.501  0.3813 -0.1372 -0.2347
 2645TIP3    H1 7899   3.543   0.419   1.434 -0.4344 -0.3917  0.0369
 2645TIP3    H2 7900   3.510   0.316   1.539  1.0880 -1.4201 -0.4692
 2646TIP3   OH2 7901   6.299   1.679   4.075 -0.5669  0.2283 -0.1160
 2646TIP3    H1 7902   6.386   1.694   4.038  0.1513 -0.4953  1.1904
 2646TIP3    H2 7903   6.260   1.611   4.020 -0.5582  0.9653 -1.0598
 2647TIP3   OH2 7904   2.047   5.935   2.434 -0.1852  0.2795  0.2214
 2647TIP3    H1 7905   2.132   5.922   2.391  0.4859  1.0190  1.2583
 2647TIP3    H2 7906   2.013   5.847   2.447  0.8921 -0.0857  0.6872
 2648TIP3   OH2 7907   5.161   2.173   1.566  0.1036 -0.1465  0.0182
 2648TIP3    H1 7908   5.077   2.137   1.593  0.4071 -1.2182 -0.3629
 2648TIP3    H2 7909   5.226   2.121   1.615  0.5387  2.1381  2.0228
 2649TIP3   OH2 7910   0.144   5.263   1.439  0.3672  0.0017 -0.0794
 2649TIP3    H1 7911   0.090   5.291   1.513  0.5110 -0.4512  0.1995
 2649TIP3    H2 7912   0.229   5.244   1.477  0.1636 -1.1874 -0.1881
 2650TIP3   OH2 7913   6.863   5.275   1.067 -0.0177 -0.3370 -0.0628
 2650TIP3    H1 7914   6.917   5.332   1.122 -0.2701  0.8905 -1.0526
 2650TIP3    H2 7915   6.905   5.278   0.981 -1.2946  0.1744 -0.6929
 2651TIP3   OH2 7916   1.229   2.273   4.600 -0.0639  0.4215 -0.0439
 2651TIP3    H1 7917   1.312   2.288   4.555 -0.1644 -0.9676 -0.7403
 2651TIP3    H2 7918   1.253   2.224   4.679 -0.2736 -0.8433 -0.7286
 2652TIP3   OH2 7919   1.450   6.126   4.562  0.2121 -0.2794  0.1826
 2652TIP3    H1 7920   1.379   6.158   4.618 -0.9420 -1.6553 -0.3980
 2652TIP3    H2 7921   1.498   6.064   4.617 -0.6490 -1.2919 -0.1549
 2653TIP3   OH2 7922   0.097   2.073   3.267  0.2623 -0.9158 -0.2265
 2653TIP3    H1 7923   0.120   2.098   3.177 -0.7467 -0.5067 -0.3811
 2653TIP3    H2 7924   0.098   1.978   3.267  2.2736 -0.9385 -0.1294
 2654TIP3   OH2 7925   5.950   0.045   4.731  0.0674 -0.4362  0.1105
 2654TIP3    H1 7926   5.956   0.138   4.754  1.9291 -0.6592  0.7078
 2654TIP3    H2 7927   5.889   0.042   4.657  0.1232  1.2896 -0.0437
 2655TIP3   OH2 7928   3.881   4.653   2.620 -0.2402 -0.1398 -0.0614
 2655TIP3    H1 7929   3.962   4.607   2.643 -0.3054 -0.3635 -0.2713
 2655TIP3    H2 7930   3.883   4.658   2.525 -0.3035  0.1692 -0.0475
 2656TIP3   OH2 7931   0.799   6.156   4.048 -0.4804 -0.6431  0.6316
 2656TIP3    H1 7932   0.825   6.065   4.059 -1.7578 -0.9802  1.0244
 2656TIP3    H2 7933   0.754   6.178   4.129  0.3169  0.5383  0.7859
 2657TIP3   OH2 7934   4.461   0.652   4.277 -0.2385 -0.6006 -0.1332
 2657TIP3    H1 7935   4.454   0.565   4.316 -1.3684 -1.3952 -1.9785
 2657TIP3    H2 7936   4.373   0.670   4.243  0.7822 -0.3103 -2.8953
 2658TIP3   OH2 7937   3.270   6.581   4.560 -0.0653  0.2064 -0.6740
 2658TIP3    H1 7938   3.180   6.552   4.571 -0.1903  1.0478  0.6870
 2658TIP3    H2 7939   3.319   6.533   4.626  0.3788  0.2645 -0.9558
 2659TIP3   OH2 7940   3.427   3.562   0.845  0.2804  0.8095 -0.2771
 2659TIP3    H1 7941   3.442   3.652   0.875 -0.3209  0.2090  2.0751
 2659TIP3    H2 7942   3.332   3.551   0.850  0.5040 -0.8529  2.6411
 2660TIP3   OH2 7943   4.265   4.649   5.092  0.3694  0.2444  0.1021
 2660TIP3    H1 7944   4.194   4.641   5.156  0.6994  1.1954  0.5997
 2660TIP3    H2 7945   4.228   4.705   5.023 -0.2405 -1.3752 -0.9298
 2661TIP3   OH2 7946   6.072   1.079   4.213  0.5491  0.1356  0.8951
 2661TIP3    H1 7947   6.159   1.117   4.201  0.4210  0.6653  1.6105
 2661TIP3    H2 7948   6.034   1.079   4.125  0.9274  0.7550  0.7277
 2662TIP3   OH2 7949   6.640   4.925   2.334  0.1414  0.0221 -0.0767
 2662TIP3    H1 7950   6.573   4.987   2.304 -0.4667 -1.8309 -2.9946
 2662TIP3    H2 7951   6.594   4.867   2.395 -0.2344  0.2955 -0.0990
 2663TIP3   OH2 7952   5.193   4.115   5.761  0.0111  0.0951  0.2727
 2663TIP3    H1 7953   5.195   4.131   5.667  1.4634  1.8448  0.5605
 2663TIP3    H2 7954   5.276   4.148   5.794 -1.0582  0.9086  2.3762
 2664TIP3   OH2 7955   0.365   4.550   4.814 -0.1940  0.5314  0.3066
 2664TIP3    H1 7956   0.309   4.622   4.786  0.9812  0.7714 -1.5540
 2664TIP3    H2 7957   0.318   4.471   4.787 -0.3491  0.6828  0.1323
 2665TIP3   OH2 7958   5.523   6.401   1.406 -0.3888  0.2134  0.0318
 2665TIP3    H1 7959   5.574   6.410   1.325 -0.6087 -0.2400 -0.1589
 2665TIP3    H2 7960   5.514   6.490   1.438  2.2990  0.1798  1.1606
 2666TIP3   OH2 7961   0.513   3.587   5.429 -0.3483  0.4678 -0.2917
 2666TIP3    H1 7962   0.583   3.649   5.410 -0.0995  0.3539  0.2398
 2666TIP3    H2 7963   0.446   3.639   5.473 -0.6994  0.6229 -0.9952
 2667TIP3   OH2 7964   6.801   6.583   1.077 -0.2260  0.1800 -0.1687
 2667TIP3    H1 7965   6.891   6.584   1.109 -0.1552  0.8343 -0.3743
 2667TIP3    H2 7966   6.809   6.558   0.985 -0.2365  0.4003 -0.2305
 2668TIP3   OH2 7967   6.151   6.408   2.920 -1.0913  0.3396 -0.2915
 2668TIP3    H1 7968   6.152   6.486   2.865 -0.5157 -0.0492 -0.8370
 2668TIP3    H2 7969   6.230   6.360   2.896 -0.8359  0.1496  0.8558
 2669TIP3   OH2 7970   1.512   5.358   0.720  0.0099  0.0305 -0.1038
 2669TIP3    H1 7971   1.600   5.393   0.710  0.1078  0.3951  1.6695
 2669TIP3    H2 7972   1.467   5.381   0.639  1.3518  0.4350 -0.7458
 2670TIP3   OH2 7973   2.170   1.797   2.096  0.2907  0.0919 -0.1815
 2670TIP3    H1 7974   2.213   1.790   2.181  1.0437 -2.7298 -0.6755
 2670TIP3    H2 7975   2.170   1.890   2.077  1.4986  0.6679  2.2000
 2671TIP3   OH2 7976   4.503   0.960   1.738 -0.3983 -0.6752  0.5611
 2671TIP3    H1 7977   4.456   1.000   1.810  0.2367  0.3049  0.4542
 2671TIP3    H2 7978   4.445   0.891   1.707 -0.0114 -2.2090  3.0087
 2672TIP3   OH2 7979   1.998   0.529   5.019 -0.0470 -0.9052  0.4068
 2672TIP3    H1 7980   1.973   0.622   5.021  0.9639 -0.5831 -0.7656
 2672TIP3    H2 7981   1.992   0.504   4.927 -0.0505 -1.9344  0.6780
 2673TIP3   OH2 7982   3.198   6.459   0.856 -0.2668  0.7207  0.1044
 2673TIP3    H1 7983   3.163   6.433   0.771  1.2067  1.1007 -0.6521
 2673TIP3    H2 7984   3.209   6.377   0.905 -1.7329  0.5617  0.1903
 2674TIP3   OH2 7985   2.549   5.761   5.617 -0.0115  0.2037  0.1133
 2674TIP3    H1 7986   2.522   5.734   5.705  0.4068 -1.1062 -0.1414
 2674TIP3    H2 7987   2.468   5.789   5.575 -0.3543  0.0335  0.6483
 2675TIP3   OH2 7988   1.881   1.933   0.180 -0.0197 -0.5149 -0.1362
 2675TIP3    H1 7989   1.819   1.933   0.254 -0.2958 -0.8361 -0.3633
 2675TIP3    H2 7990   1.828   1.961   0.105  0.1507 -0.6317 -0.3008
 2676TIP3   OH2 7991   5.376   2.591   4.907  0.8335  0.5000 -0.4100
 2676TIP3    H1 7992   5.377   2.577   5.002 -0.9437 -1.3164 -0.5993
 2676TIP3    H2 7993   5.402   2.507   4.870  0.4805  0.8670 -1.5515
 2677TIP3   OH2 7994   3.632   5.598   2.519 -0.6603 -0.1660  0.3273
 2677TIP3    H1 7995   3.617   5.549   2.439 -0.4555 -0.7790  0.6575
 2677TIP3    H2 7996   3.622   5.690   2.494 -3.0537 -0.4303  0.1000
 2678TIP3   OH2 7997   4.732   0.517   5.077  0.2656 -0.2754  0.3488
 2678TIP3    H1 7998   4.747   0.585   5.011 -1.1490  0.1388  0.4097
 2678TIP3    H2 7999   4.637   0.515   5.087  0.4015 -1.0166  1.6670
 2679TIP3   OH2 8000   6.458   2.483   1.563 -0.3212 -0.3549  0.4094
 2679TIP3    H1 8001   6.435   2.576   1.559 -1.4851 -0.5397  1.8276
 2679TIP3    H2 8002   6.382   2.438   1.525 -0.0656 -0.7689  0.3817
 2680TIP3   OH2 8003   0.287   5.432   0.412  0.5546 -0.6839  0.1277
 2680TIP3    H1 8004   0.366   5.382   0.390 -0.4737 -2.0035 -0.7304
 2680TIP3    H2 8005   0.219   5.365   0.424 -0.4201  0.4175  0.9118
 2681TIP3   OH2 8006   1.440   3.656   1.612  0.0583 -0.4699  0.0069
 2681TIP3    H1 8007   1.475   3.567   1.606  1.7268 -0.1684  3.1361
 2681TIP3    H2 8008   1.484   3.704   1.542  0.5530 -1.6743 -0.5421
 2682TIP3   OH2 8009   6.612   1.044   0.870 -0.8180 -0.4752 -0.1943
 2682TIP3    H1 8010   6.544   1.063   0.935 -1.6297 -0.5166 -1.0104
 2682TIP3    H2 8011   6.654   1.129   0.855 -0.1129 -0.6078  0.9279
 2683TIP3   OH2 8012   5.312   3.704   0.947  0.2423 -0.1369 -0.0779
 2683TIP3    H1 8013   5.252   3.664   0.885  0.0578  0.3796 -0.2400
 2683TIP3    H2 8014   5.267   3.783   0.977 -0.0060 -0.7811  1.3132
 2684TIP3   OH2 8015   2.706   0.337   1.686 -0.3572  0.2816  0.0146
 2684TIP3    H1 8016   2.772   0.379   1.741 -1.4013  0.6441  1.0117
 2684TIP3    H2 8017   2.740   0.349   1.597  0.6743  0.9005  0.4619
 2685TIP3   OH2 8018   6.991   1.681   4.748  0.1213 -0.4022 -0.1781
 2685TIP3    H1 8019   7.056   1.721   4.690  0.2810  2.9894  2.0232
 2685TIP3    H2 8020   6.910   1.682   4.697  0.5171  1.2773 -0.8493
 2686TIP3   OH2 8021   6.258   4.569   3.794  0.8092 -0.4504  0.3565
 2686TIP3    H1 8022   6.350   4.549   3.780  1.7414  1.2566  3.2050
 2686TIP3    H2 8023   6.222   4.583   3.707  3.1437 -1.4313 -0.8404
 2687TIP3   OH2 8024   3.882   0.257   0.481 -0.5133  0.1718  0.8160
 2687TIP3    H1 8025   3.940   0.235   0.408 -1.3524 -2.2667  0.8120
 2687TIP3    H2 8026   3.928   0.328   0.527  1.5241 -0.3627 -0.2588
 2688TIP3   OH2 8027   5.100   1.336   5.704 -0.0678  0.1095  0.9458
 2688TIP3    H1 8028   5.039   1.394   5.750  0.2391 -0.4661  2.1324
 2688TIP3    H2 8029   5.185   1.354   5.743  0.6113  1.0850 -0.8756
 2689TIP3   OH2 8030   5.054   4.878   2.368  0.6686 -0.2095  0.1353
 2689TIP3    H1 8031   5.121   4.820   2.331 -0.7405 -2.0126  0.2875
 2689TIP3    H2 8032   5.018   4.829   2.441 -1.1538  0.5046 -0.2419
 2690TIP3   OH2 8033   0.974   1.767   5.515 -0.1942  0.0842  0.0893
 2690TIP3    H1 8034   0.892   1.725   5.488  0.2120 -1.5939  1.3012
 2690TIP3    H2 8035   1.040   1.730   5.457 -0.1697  0.7924 -0.3341
 2691TIP3   OH2 8036   6.899   2.853   1.615  0.3238  0.4225  0.3475
 2691TIP3    H1 8037   6.841   2.911   1.665  1.4195  2.3579 -0.4963
 2691TIP3    H2 8038   6.973   2.909   1.592  1.7128 -1.5145 -0.0517
 2692TIP3   OH2 8039   4.631   4.259   5.706 -0.3708 -0.2451 -0.5646
 2692TIP3    H1 8040   4.691   4.187   5.686  1.6064  1.7543 -2.5813
 2692TIP3    H2 8041   4.571   4.262   5.631 -0.2845  0.3066 -0.6195
 2693TIP3   OH2 8042   2.067   6.551   2.189 -0.3122 -0.5659 -0.8041
 2693TIP3    H1 8043   2.119   6.473   2.207  0.5656  0.6788  2.6516
 2693TIP3    H2 8044   1.977   6.525   2.209  0.1893 -0.3134  2.1435
 2694TIP3   OH2 8045   3.920   6.149   1.831  0.1197 -0.5352  1.1578
 2694TIP3    H1 8046   3.946   6.238   1.806  2.7417 -1.1279  1.4598
 2694TIP3    H2 8047   3.962   6.134   1.916 -3.9612 -0.5737  3.4431
 2695TIP3   OH2 8048   2.059   5.118   5.047 -0.3611  0.2368 -0.2717
 2695TIP3    H1 8049   2.113   5.144   5.122 -1.0271 -0.4290  0.4561
 2695TIP3    H2 8050   2.121   5.074   4.988  0.1060  0.4547  0.0482
 2696TIP3   OH2 8051   1.898   0.647   4.501  0.3882 -0.2750 -0.3499
 2696TIP3    H1 8052   1.942   0.732   4.509  0.0348  0.1859 -2.7403
 2696TIP3    H2 8053   1.805   0.668   4.508  0.2136 -0.2057 -2.3723
 2697TIP3   OH2 8054   4.394   2.530   4.811 -0.4107  0.4270  0.0437
 2697TIP3    H1 8055   4.312   2.579   4.808  0.4095  1.8589  0.1288
 2697TIP3    H2 8056   4.446   2.575   4.877 -0.5851 -2.1834  2.0753
 2698TIP3   OH2 8057   3.147   2.470   5.240 -0.1332 -0.0747 -0.1768
 2698TIP3    H1 8058   3.094   2.530   5.293 -0.2883 -0.6277  0.2941
 2698TIP3    H2 8059   3.083   2.419   5.190 -0.0887 -1.1501  0.8272
 2699TIP3   OH2 8060   4.603   1.855   3.425 -0.3993 -0.1766  0.6029
 2699TIP3    H1 8061   4.619   1.779   3.480  3.5120 -1.2635 -1.6699
 2699TIP3    H2 8062   4.676   1.914   3.443 -0.0823  0.3006 -1.8572
 2700TIP3   OH2 8063   2.387   6.658   5.176  0.1319 -0.4411 -0.0366
 2700TIP3    H1 8064   2.446   6.730   5.200 -0.8245  0.3677 -0.0536
 2700TIP3    H2 8065   2.444   6.593   5.135  0.7738  1.0068 -1.5241
 2701TIP3   OH2 8066   6.522   1.402   3.527  0.5993  0.3097 -0.3201
 2701TIP3    H1 8067   6.505   1.496   3.530 -0.7048  0.1526 -1.5055
 2701TIP3    H2 8068   6.459   1.369   3.462 -0.2035 -1.6490  1.3463
 2702TIP3   OH2 8069   4.551   0.178   2.792  0.0278  0.1560 -0.4206
 2702TIP3    H1 8070   4.642   0.198   2.812  0.1528 -0.4605 -0.3607
 2702TIP3    H2 8071   4.518   0.258   2.750  0.1132  0.9997  1.0682
 2703TIP3   OH2 8072   2.614   3.027   5.234  0.8947 -0.4933 -0.1194
 2703TIP3    H1 8073   2.708   3.038   5.244  1.0131 -0.9951 -0.6377
 2703TIP3    H2 8074   2.590   3.089   5.166  0.6569  0.4345  0.7816
 2704TIP3   OH2 8075   0.872   4.060   3.275  0.1689  0.0169 -0.7640
 2704TIP3    H1 8076   0.918   4.124   3.329  0.0013  0.3220 -0.9803
 2704TIP3    H2 8077   0.838   3.996   3.337  0.4095  0.0947 -0.5527
 2705TIP3   OH2 8078   0.981   1.521   0.418  0.3049 -0.0236 -0.0425
 2705TIP3    H1 8079   0.986   1.578   0.494  0.8192 -0.0541 -0.0518
 2705TIP3    H2 8080   1.072   1.504   0.394  0.1500 -0.1594 -0.5557
 2706TIP3   OH2 8081   6.323   2.170   5.701  0.3674  0.9171  0.0667
 2706TIP3    H1 8082   6.229   2.155   5.704  0.4712  0.3368  0.5044
 2706TIP3    H2 8083   6.338   2.241   5.764  0.2218  1.0430 -0.0387
 2707TIP3   OH2 8084   2.238   0.713   0.864 -0.0646  0.2608  0.0800
 2707TIP3    H1 8085   2.225   0.781   0.931  1.3956  0.8104 -0.1676
 2707TIP3    H2 8086   2.271   0.760   0.788  0.4867 -0.6657 -0.2667
 2708TIP3   OH2 8087   1.438   3.695   2.524 -0.3409  0.4010 -0.1779
 2708TIP3    H1 8088   1.428   3.762   2.457 -1.2744  0.8888  0.4342
 2708TIP3    H2 8089   1.475   3.620   2.477  1.2651  1.5150 -0.7512
 2709TIP3   OH2 8090   0.856   2.900   0.761  0.4632 -0.2698 -0.5562
 2709TIP3    H1 8091   0.799   2.928   0.690 -0.8738 -2.3018 -0.3764
 2709TIP3    H2 8092   0.944   2.910   0.727 -0.0363  1.4850 -1.4256
 2710TIP3   OH2 8093   7.030   1.442   2.967  0.1390  0.2026  0.1264
 2710TIP3    H1 8094   6.981   1.392   2.901  1.9990  1.1890 -2.1813
 2710TIP3    H2 8095   6.965   1.502   3.004 -0.4684  1.8503 -3.2066
 2711TIP3   OH2 8096   4.808   2.834   2.445 -0.5164 -0.1186 -0.0907
 2711TIP3    H1 8097   4.785   2.844   2.537 -0.6930  0.2766 -0.1764
 2711TIP3    H2 8098   4.902   2.813   2.446 -0.6523 -0.7547  0.2074
 2712TIP3   OH2 8099   3.427   6.156   1.521 -0.0678 -0.0522  0.3261
 2712TIP3    H1 8100   3.335   6.144   1.499 -0.5271  1.3317  1.3049
 2712TIP3    H2 8101   3.435   6.122   1.610 -0.0879  1.4479  0.9376
 2713TIP3   OH2 8102   4.585   4.042   0.505 -0.2472 -0.7227 -0.0357
 2713TIP3    H1 8103   4.549   3.997   0.428 -2.8313  1.0680 -0.0147
 2713TIP3    H2 8104   4.587   4.134   0.480  1.3258 -0.3769  1.2084
 2714TIP3   OH2 8105   4.590   2.504   3.432  0.2945 -0.3180 -0.8023
 2714TIP3    H1 8106   4.570   2.596   3.447  0.1876 -0.1800 -1.7273
 2714TIP3    H2 8107   4.512   2.469   3.388 -0.0285 -1.0708  0.3192
 2715TIP3   OH2 8108   1.578   2.064   3.392 -0.4660 -0.5625  0.6097
 2715TIP3    H1 8109   1.522   2.125   3.439  1.1363  1.3476  0.1827
 2715TIP3    H2 8110   1.667   2.097   3.406  0.6029 -3.3810  1.1559
 2716TIP3   OH2 8111   1.152   1.198   5.438  1.0624 -0.0328  0.4604
 2716TIP3    H1 8112   1.064   1.211   5.472  0.0130 -0.8361 -1.7582
 2716TIP3    H2 8113   1.184   1.286   5.419  0.7595  0.2640  1.2796
 2717TIP3   OH2 8114   4.921   1.423   1.898  0.8488  0.8652 -0.1094
 2717TIP3    H1 8115   4.846   1.372   1.929  0.8104  0.9645 -0.0400
 2717TIP3    H2 8116   4.997   1.371   1.924  0.7890  0.4275 -0.7760
 2718TIP3   OH2 8117   1.956   6.583   4.130  0.0749 -0.3582  0.1101
 2718TIP3    H1 8118   1.868   6.567   4.098  0.2892 -0.6648 -0.3449
 2718TIP3    H2 8119   1.954   6.558   4.222 -0.4981  0.3361  0.2993
 2719TIP3   OH2 8120   2.030   3.330   1.878 -0.4266  0.2653  0.5710
 2719TIP3    H1 8121   2.031   3.422   1.904 -0.5675  0.9961 -1.7368
 2719TIP3    H2 8122   2.122   3.304   1.880 -0.4048  0.3781  1.4225
 2720TIP3   OH2 8123   6.486   0.093   2.612  0.2581 -0.5642  0.0451
 2720TIP3    H1 8124   6.522   0.027   2.552  3.2461  1.8605 -1.0797
 2720TIP3    H2 8125   6.475   0.171   2.557 -2.5240  0.1749  1.4701
 2721TIP3   OH2 8126   4.936   3.215   4.005 -0.0149 -0.1882  0.0588
 2721TIP3    H1 8127   4.904   3.273   3.936 -0.1860 -1.3747 -0.9062
 2721TIP3    H2 8128   4.964   3.136   3.959 -1.0688 -1.4303  1.4072
 2722TIP3   OH2 8129   1.556   4.596   1.428  0.3026 -0.2610  0.3276
 2722TIP3    H1 8130   1.576   4.576   1.337 -1.8292 -0.0502 -0.2462
 2722TIP3    H2 8131   1.509   4.519   1.460 -0.1807  0.2273  0.8191
 2723TIP3   OH2 8132   5.321   3.099   3.893 -0.0115 -0.2371  0.3652
 2723TIP3    H1 8133   5.256   3.029   3.904  0.7696 -1.2059 -0.9257
 2723TIP3    H2 8134   5.269   3.178   3.878 -0.9941 -1.3785 -3.0232
 2724TIP3   OH2 8135   6.826   0.613   1.091 -0.6970 -0.3666 -0.4271
 2724TIP3    H1 8136   6.764   0.686   1.082 -2.9806 -2.2291 -0.6589
 2724TIP3    H2 8137   6.892   0.630   1.024 -1.2180  1.3957 -0.5645
 2725TIP3   OH2 8138   2.098   5.782   1.572 -0.2992 -0.2610  0.0189
 2725TIP3    H1 8139   2.039   5.856   1.589 -0.5865 -0.4544 -0.1212
 2725TIP3    H2 8140   2.039   5.706   1.567 -0.0441 -0.4416 -0.2270
 2726TIP3   OH2 8141   2.017   3.385   3.249 -0.5955 -0.1324 -0.8336
 2726TIP3    H1 8142   1.945   3.398   3.311  0.1324  0.2099 -0.0514
 2726TIP3    H2 8143   2.088   3.348   3.301 -0.6760 -1.8879 -1.8790
 2727TIP3   OH2 8144   3.084   0.523   3.539 -0.9841  0.5541  0.0848
 2727TIP3    H1 8145   3.176   0.549   3.551 -0.5951 -0.7155  0.0736
 2727TIP3    H2 8146   3.052   0.580   3.469 -0.5661  1.8246  0.8979
 2728TIP3   OH2 8147   3.611   0.426   2.915 -0.0109  0.3053  0.2312
 2728TIP3    H1 8148   3.617   0.332   2.898  0.1214  0.6010 -1.5124
 2728TIP3    H2 8149   3.629   0.435   3.009  1.2857 -1.2855  0.1642
 2729TIP3   OH2 8150   1.307   3.010   2.961  0.0006 -0.0364  0.4332
 2729TIP3    H1 8151   1.225   3.002   2.913 -0.3620 -0.0558  1.0488
 2729TIP3    H2 8152   1.318   2.926   3.005 -0.2925  0.4109  1.3635
 2730TIP3   OH2 8153   5.094   6.344   2.578 -0.7344  0.4854 -0.5869
 2730TIP3    H1 8154   5.018   6.384   2.621 -1.4565 -0.7536 -0.6821
 2730TIP3    H2 8155   5.132   6.415   2.526 -0.9681  1.5047  0.5757
 2731TIP3   OH2 8156   4.751   0.361   4.346 -0.5612  0.3022  0.3930
 2731TIP3    H1 8157   4.815   0.433   4.348  0.3191 -0.4542  0.5786
 2731TIP3    H2 8158   4.687   0.387   4.280 -1.1716  1.9858  1.5730
 2732TIP3   OH2 8159   7.078   0.716   1.466  0.1024 -0.3280  0.1752
 2732TIP3    H1 8160   7.076   0.659   1.389 -3.2179 -0.0864 -0.0520
 2732TIP3    H2 8161   7.142   0.676   1.524 -1.8601 -4.2334 -0.0424
 2733TIP3   OH2 8162   3.560   5.809   2.939 -0.2310 -0.7124  0.6109
 2733TIP3    H1 8163   3.548   5.904   2.945  0.1020 -0.6879  0.9122
 2733TIP3    H2 8164   3.498   5.781   2.871 -0.7095 -0.3539  0.8988
 2734TIP3   OH2 8165   2.849   5.772   4.368  0.2828 -0.3845 -0.1671
 2734TIP3    H1 8166   2.931   5.723   4.370  0.6035  0.1387 -0.5923
 2734TIP3    H2 8167   2.814   5.762   4.457  1.3872  0.3817  0.3693
 2735TIP3   OH2 8168   2.041   6.447   5.333 -0.3884 -0.6134 -0.3824
 2735TIP3    H1 8169   2.041   6.479   5.423  0.6279 -1.5538 -0.0189
 2735TIP3    H2 8170   2.044   6.526   5.279 -0.9274 -0.0453  0.4054
 2736TIP3   OH2 8171   5.286   2.944   5.141  0.6866  0.1312 -0.8167
 2736TIP3    H1 8172   5.272   3.035   5.117  0.7787 -0.5353 -3.7117
 2736TIP3    H2 8173   5.268   2.894   5.061  0.9816 -2.3794  0.5649
 2737TIP3   OH2 8174   0.451   3.429   1.659 -0.0010 -0.2149 -0.0341
 2737TIP3    H1 8175   0.477   3.521   1.668 -0.1856 -0.1599 -0.0489
 2737TIP3    H2 8176   0.524   3.388   1.615  0.7161 -0.3929  1.2737
 2738TIP3   OH2 8177   2.568   5.074   0.527  0.3913 -0.2859 -0.2682
 2738TIP3    H1 8178   2.657   5.038   0.524  1.2071  1.1709  2.4552
 2738TIP3    H2 8179   2.578   5.167   0.506 -0.4103 -0.0152  0.4731
 2739TIP3   OH2 8180   2.582   2.575   1.691 -0.6561  0.0925  0.7159
 2739TIP3    H1 8181   2.651   2.640   1.686 -0.8156  0.2220  0.1568
 2739TIP3    H2 8182   2.589   2.539   1.780  0.4322 -0.2412  0.5102
 2740TIP3   OH2 8183   1.075   3.182   3.803  0.1155 -0.4575  0.2185
 2740TIP3    H1 8184   1.022   3.245   3.852  0.7264  0.4033 -0.2053
 2740TIP3    H2 8185   1.164   3.194   3.837  0.6283  0.4397 -1.3408
 2741TIP3   OH2 8186   7.106   4.422   0.559 -0.7339  0.1978  0.8210
 2741TIP3    H1 8187   7.105   4.428   0.463  0.9511  1.1080  0.8154
 2741TIP3    H2 8188   7.112   4.328   0.576  1.2482  0.1054 -0.0765
 2742TIP3   OH2 8189   1.524   4.306   2.158  0.2330  0.0172  0.2350
 2742TIP3    H1 8190   1.471   4.253   2.216  0.5118 -0.5459 -0.0174
 2742TIP3    H2 8191   1.523   4.393   2.198 -2.1786  0.4487 -0.5835
 2743TIP3   OH2 8192   1.648   2.774   0.143 -0.2531  0.0406 -0.4755
 2743TIP3    H1 8193   1.725   2.717   0.149 -0.1201  0.1982 -0.6540
 2743TIP3    H2 8194   1.644   2.799   0.050 -1.0780 -0.7299 -0.6704
 2744TIP3   OH2 8195   4.706   4.671   2.188 -0.3465  0.2288 -0.1683
 2744TIP3    H1 8196   4.616   4.651   2.165 -0.6112  1.3929 -0.2405
 2744TIP3    H2 8197   4.750   4.586   2.194 -0.9725 -0.2726 -2.0229
 2745TIP3   OH2 8198   4.447   1.606   5.452  0.5800  0.0325 -0.1008
 2745TIP3    H1 8199   4.419   1.548   5.381 -2.6231  0.9580  0.2320
 2745TIP3    H2 8200   4.443   1.694   5.414  1.9927  0.3370  0.3748
 2746TIP3   OH2 8201   0.243   1.429   3.524 -0.0894 -0.2163  0.3353
 2746TIP3    H1 8202   0.258   1.498   3.589  1.5510 -0.2568  0.0370
 2746TIP3    H2 8203   0.283   1.462   3.444 -4.3680  1.0370 -1.5758
 2747TIP3   OH2 8204   6.347   6.766   0.142  0.3521  0.1885  0.4407
 2747TIP3    H1 8205   6.258   6.789   0.113  1.0158  1.0178 -1.0713
 2747TIP3    H2 8206   6.348   6.786   0.235 -0.8403  0.8622  0.3332
 2748TIP3   OH2 8207   1.456   5.107   5.388  0.5724 -0.2018  0.1305
 2748TIP3    H1 8208   1.497   5.125   5.303  0.5454  0.0432  0.1684
 2748TIP3    H2 8209   1.377   5.058   5.366  1.8788 -2.4570  0.1742
 2749TIP3   OH2 8210   2.896   4.853   1.778  0.4595 -0.7842  0.1116
 2749TIP3    H1 8211   2.905   4.931   1.833  1.3112 -0.6607 -0.1836
 2749TIP3    H2 8212   2.938   4.783   1.828 -1.9824 -1.5446  1.2600
 2750TIP3   OH2 8213   6.305   0.055   5.523 -0.2378 -0.0919 -0.0330
 2750TIP3    H1 8214   6.385   0.024   5.566  1.1658 -0.8167 -2.9180
 2750TIP3    H2 8215   6.243  -0.016   5.535  0.1192 -0.2734  0.7938
 2751TIP3   OH2 8216   1.635   3.786   3.031  0.9859  0.2690  0.0402
 2751TIP3    H1 8217   1.630   3.760   2.939  2.0208 -1.6928  0.4940
 2751TIP3    H2 8218   1.717   3.835   3.036  0.1467  1.7800 -0.3601
 2752TIP3   OH2 8219   3.090   0.738   4.963 -0.2168 -0.0503 -0.7120
 2752TIP3    H1 8220   3.079   0.698   4.877  1.1271  2.2311 -2.0202
 2752TIP3    H2 8221   3.001   0.741   5.000 -0.8015 -1.1294 -1.9555
 2753TIP3   OH2 8222   5.989   0.264   5.562  0.2645 -0.1451  0.2379
 2753TIP3    H1 8223   5.914   0.209   5.539 -0.0985  0.3676  0.1813
 2753TIP3    H2 8224   6.035   0.214   5.630  1.8122 -2.0785 -2.0736
 2754TIP3   OH2 8225   1.609   2.324   4.657 -0.3943  0.2998 -0.6018
 2754TIP3    H1 8226   1.566   2.386   4.716 -0.3165  0.0682 -0.2979
 2754TIP3    H2 8227   1.673   2.377   4.610  0.8254  0.1718  0.8205
 2755TIP3   OH2 8228   4.571   1.973   0.252  0.4342 -0.0700  0.1897
 2755TIP3    H1 8229   4.482   1.951   0.225  0.4461 -0.6428  0.5848
 2755TIP3    H2 8230   4.576   1.941   0.342  1.4635 -1.3008 -0.2670
 2756TIP3   OH2 8231   0.763   3.127   3.636  0.2703  0.3033  0.5926
 2756TIP3    H1 8232   0.775   3.210   3.681 -1.6378  0.9481  0.0393
 2756TIP3    H2 8233   0.682   3.139   3.585  0.7914 -1.3590 -0.7356
 2757TIP3   OH2 8234   6.375   3.057   0.165 -0.5059 -0.4565  0.2745
 2757TIP3    H1 8235   6.339   3.085   0.249  0.0378 -1.3516  0.8226
 2757TIP3    H2 8236   6.468   3.080   0.170 -0.5646 -0.0920 -0.2689
 2758TIP3   OH2 8237   5.786   0.504   1.918 -0.2411  0.1081 -0.3749
 2758TIP3    H1 8238   5.850   0.574   1.929  0.5053 -0.5365 -0.5510
 2758TIP3    H2 8239   5.834   0.433   1.876 -0.7053 -0.9244  0.7857
 2759TIP3   OH2 8240   0.533   0.367   1.692  1.1421  0.1756 -0.2616
 2759TIP3    H1 8241   0.604   0.408   1.741  0.0015  0.2984  1.3545
 2759TIP3    H2 8242   0.577   0.301   1.637  2.4416 -0.3673  1.3394
 2760TIP3   OH2 8243   3.419   6.395   2.309 -0.3421 -0.2751 -0.1463
 2760TIP3    H1 8244   3.421   6.351   2.224 -1.6018  0.9323 -0.8214
 2760TIP3    H2 8245   3.474   6.339   2.365  0.9837 -0.7931 -1.8594
 2761TIP3   OH2 8246   2.712   2.471   5.691  0.5286  0.4255  0.4697
 2761TIP3    H1 8247   2.657   2.485   5.614 -0.4225  0.9286  1.2118
 2761TIP3    H2 8248   2.771   2.401   5.666  0.8299  1.1690 -1.0189
 2762TIP3   OH2 8249   0.373   5.401   2.583  0.0138  0.0454  0.3058
 2762TIP3    H1 8250   0.430   5.455   2.529  1.4612 -0.2809  1.4437
 2762TIP3    H2 8251   0.355   5.455   2.660 -0.4688 -0.2211  0.3874
 2763TIP3   OH2 8252   2.687   5.912   1.476  0.2108  0.6263  0.3619
 2763TIP3    H1 8253   2.677   5.847   1.405  0.6966  0.2857  0.5992
 2763TIP3    H2 8254   2.686   5.996   1.431 -0.8807  0.4811  0.0919
 2764TIP3   OH2 8255   7.038   0.720   2.751 -0.3273 -0.6021  0.1033
 2764TIP3    H1 8256   6.999   0.734   2.838 -0.0050  0.7055  0.0549
 2764TIP3    H2 8257   7.132   0.711   2.768 -0.4115 -1.7037  0.0167
 2765TIP3   OH2 8258   0.754   2.730   0.144 -0.1075 -0.5710  0.1517
 2765TIP3    H1 8259   0.848   2.739   0.132 -0.2667  0.9108 -0.0924
 2765TIP3    H2 8260   0.723   2.693   0.061  0.3671 -2.0741  0.6154
 2766TIP3   OH2 8261   7.150   5.288   3.446  0.0136 -0.1066 -0.2870
 2766TIP3    H1 8262   7.123   5.362   3.501  0.5269  0.0466 -0.2371
 2766TIP3    H2 8263   7.235   5.314   3.411 -0.4452 -0.0690 -1.4192
 2767TIP3   OH2 8264   2.972   2.419   3.690  0.7949  0.1555 -0.0679
 2767TIP3    H1 8265   3.008   2.331   3.682  0.6022 -0.1239  1.6526
 2767TIP3    H2 8266   2.912   2.413   3.765 -1.0513  1.1758 -1.3929
 2768TIP3   OH2 8267   3.400   1.653   0.576  0.2798 -0.7799  0.0595
 2768TIP3    H1 8268   3.431   1.703   0.652 -0.9654 -0.0827  0.1259
 2768TIP3    H2 8269   3.375   1.719   0.512  0.9049 -1.3625 -0.8165
 2769TIP3   OH2 8270   2.603   0.512   4.020  0.4173 -0.1677 -0.0830
 2769TIP3    H1 8271   2.629   0.445   4.082 -0.4143  0.4911  1.0070
 2769TIP3    H2 8272   2.685   0.551   3.991  0.8391 -0.8248  0.2042
 2770TIP3   OH2 8273   3.235   3.285   0.978  0.8802 -0.2123  0.1979
 2770TIP3    H1 8274   3.246   3.287   1.073  1.5806 -0.7569  0.1381
 2770TIP3    H2 8275   3.141   3.292   0.964  0.5045 -2.6573  1.0433
 2771TIP3   OH2 8276   3.747   0.022   1.027  0.1554  0.3746 -0.0248
 2771TIP3    H1 8277   3.659  -0.001   0.999  0.6510 -0.3416 -1.0643
 2771TIP3    H2 8278   3.752  -0.007   1.118 -1.1967  1.9170  0.5987
 2772TIP3   OH2 8279   6.801   1.805   0.246  0.6889  0.3965 -0.0204
 2772TIP3    H1 8280   6.725   1.797   0.304 -0.4569  1.3090 -1.3122
 2772TIP3    H2 8281   6.797   1.895   0.213  0.9841 -0.2123 -1.8656
 2773TIP3   OH2 8282   0.926   4.348   1.086  0.1364  0.2756 -0.4443
 2773TIP3    H1 8283   0.985   4.412   1.048  1.8869 -0.9601  0.0746
 2773TIP3    H2 8284   0.910   4.380   1.175  0.1298  0.5369 -0.5378
 2774TIP3   OH2 8285   4.516   5.730   3.086  0.0704  0.1444 -0.2233
 2774TIP3    H1 8286   4.441   5.742   3.144 -0.5700 -1.9019 -0.5359
 2774TIP3    H2 8287   4.505   5.642   3.050  2.8287 -0.4097  0.0323
 2775TIP3   OH2 8288   7.228   6.203   0.932 -0.0470 -0.5125 -0.0819
 2775TIP3    H1 8289   7.171   6.166   0.865  0.7266 -0.5761 -0.7251
 2775TIP3    H2 8290   7.169   6.234   1.001 -1.0317  1.5281 -1.7366
 2776TIP3   OH2 8291   4.080   6.546   2.678  0.6408 -0.0417  0.0440
 2776TIP3    H1 8292   3.985   6.535   2.676  0.5900 -0.3439  1.9823
 2776TIP3    H2 8293   4.101   6.585   2.593 -1.5148  2.2390  0.4300
 2777TIP3   OH2 8294   5.787   6.615   3.170  0.3278  0.2660  0.5350
 2777TIP3    H1 8295   5.768   6.525   3.146 -2.0124  0.8082  0.0308
 2777TIP3    H2 8296   5.865   6.638   3.119  0.8927 -1.4166  0.5930
 2778TIP3   OH2 8297   5.210   0.226   0.053 -0.3808 -0.0869 -0.1045
 2778TIP3    H1 8298   5.180   0.207   0.142 -1.5245  0.3878 -0.3667
 2778TIP3    H2 8299   5.173   0.155  -0.000 -1.1841  0.5906 -0.4600
 2779TIP3   OH2 8300   4.089   0.377   4.155  0.0626 -0.1515 -0.5849
 2779TIP3    H1 8301   4.039   0.350   4.232 -0.5693  0.4376 -0.7744
 2779TIP3    H2 8302   4.092   0.299   4.099 -2.4354  0.3203 -1.5005
 2780TIP3   OH2 8303   4.540   6.338   2.669 -0.7793  0.8139  0.8705
 2780TIP3    H1 8304   4.541   6.428   2.635 -3.5301 -0.0971 -2.0533
 2780TIP3    H2 8305   4.452   6.327   2.705 -0.0987 -0.4255  2.2985
 2781TIP3   OH2 8306   7.227   6.625   5.591 -0.4304  0.1409  0.3933
 2781TIP3    H1 8307   7.164   6.660   5.655  0.0424  0.7897  0.5199
 2781TIP3    H2 8308   7.196   6.536   5.573 -0.5735 -0.0605  1.5293
 2782TIP3   OH2 8309   6.659   5.616   0.040 -0.1519  0.2475  0.0774
 2782TIP3    H1 8310   6.656   5.570   0.124  0.4504  0.0410 -0.0046
 2782TIP3    H2 8311   6.751   5.640   0.030 -0.1583 -0.0290 -0.6830
 2783TIP3   OH2 8312   0.968   5.463   5.282 -0.7257  0.2130 -0.4917
 2783TIP3    H1 8313   0.968   5.555   5.309  1.0967  0.4660 -1.2022
 2783TIP3    H2 8314   0.967   5.466   5.186  0.5811 -0.4637 -0.5442
 2784TIP3   OH2 8315   0.380   4.316   0.743 -0.0495  0.4004 -0.3337
 2784TIP3    H1 8316   0.417   4.229   0.726 -0.9552 -0.2476  0.8561
 2784TIP3    H2 8317   0.412   4.339   0.830 -0.3947  0.9464 -0.3462
 2785TIP3   OH2 8318   0.688   0.279   0.081  0.3934 -0.0650  0.0154
 2785TIP3    H1 8319   0.767   0.237   0.116 -0.1496 -2.3054 -1.2035
 2785TIP3    H2 8320   0.638   0.206   0.042 -2.5140  1.1678  1.1624
 2786TIP3   OH2 8321   3.289   3.102   5.057 -0.7286  0.7364 -0.4747
 2786TIP3    H1 8322   3.323   3.017   5.084 -0.8916  1.0629  0.8036
 2786TIP3    H2 8323   3.201   3.106   5.093 -0.9848  1.1625 -1.1312
 2787TIP3   OH2 8324   0.560   4.992   3.879  0.0043 -0.2119  0.1392
 2787TIP3    H1 8325   0.520   4.974   3.964  1.3316 -0.9764  0.6220
 2787TIP3    H2 8326   0.490   4.975   3.816 -0.2669 -2.2174  0.9129
 2788TIP3   OH2 8327   1.399   1.739   2.212  0.0950 -0.5531  0.6129
 2788TIP3    H1 8328   1.348   1.819   2.219 -0.6287 -0.8783 -0.5333
 2788TIP3    H2 8329   1.396   1.701   2.300 -0.5438  0.0871  0.8841
 2789TIP3   OH2 8330   1.646   5.810   3.699 -0.1402  0.0736 -0.4019
 2789TIP3    H1 8331   1.732   5.853   3.696 -0.0720 -0.0135  0.1632
 2789TIP3    H2 8332   1.626   5.804   3.792 -0.6228 -0.1865 -0.5202
 2790TIP3   OH2 8333   2.643   1.887   5.229 -0.5247 -0.2745  0.5805
 2790TIP3    H1 8334   2.562   1.852   5.193 -1.1255  0.5849  1.0430
 2790TIP3    H2 8335   2.614   1.944   5.301  0.5897 -1.6602  2.2107
 2791TIP3   OH2 8336   0.664   1.359   1.958 -0.1712 -0.3954  0.3376
 2791TIP3    H1 8337   0.629   1.349   2.047 -2.3651  1.1391 -0.2676
 2791TIP3    H2 8338   0.633   1.445   1.929  0.5731 -0.8080 -1.8860
 2792TIP3   OH2 8339   0.188   5.015   0.436  0.5553  0.0610 -0.2081
 2792TIP3    H1 8340   0.121   4.970   0.487  1.4462 -0.6758  0.3419
 2792TIP3    H2 8341   0.144   5.092   0.401 -0.7162 -0.6765 -0.2823
 2793TIP3   OH2 8342   1.427   0.222   4.709  1.0717  0.2267 -0.6666
 2793TIP3    H1 8343   1.408   0.131   4.732  2.4990 -0.0110 -0.3087
 2793TIP3    H2 8344   1.347   0.270   4.730  0.8122 -0.7101  0.5956
 2794TIP3   OH2 8345   3.477   6.702   4.960 -0.1931  0.3759 -0.2750
 2794TIP3    H1 8346   3.524   6.741   4.886  2.7416  0.1880  1.3200
 2794TIP3    H2 8347   3.424   6.774   4.995  0.9557  1.4155 -0.6075
 2795TIP3   OH2 8348   1.158   6.331   0.893 -0.4121  0.4005  0.1632
 2795TIP3    H1 8349   1.131   6.295   0.808 -1.3060 -0.0469  0.6318
 2795TIP3    H2 8350   1.252   6.312   0.897 -0.3711  0.3496 -0.6875
 2796TIP3   OH2 8351   4.785   0.692   4.514  0.1057 -0.3107  0.2061
 2796TIP3    H1 8352   4.819   0.710   4.601 -1.2883  1.4588  0.4449
 2796TIP3    H2 8353   4.723   0.763   4.497 -1.3199 -1.8307 -1.3326
 2797TIP3   OH2 8354   2.693   3.949   5.604  0.4181 -0.3343 -0.1880
 2797TIP3    H1 8355   2.738   4.029   5.631  0.9264 -0.6228 -0.1500
 2797TIP3    H2 8356   2.655   3.970   5.519  2.2879 -0.6548 -1.1674
 2798TIP3   OH2 8357   6.972   5.873   1.496 -0.3315  0.1281 -0.3588
 2798TIP3    H1 8358   6.960   5.959   1.456 -1.7442 -0.2625 -0.8425
 2798TIP3    H2 8359   7.031   5.827   1.436  0.2656  0.6729 -0.2039
 2799TIP3   OH2 8360   4.394   5.078   1.980 -0.1081 -0.2108  0.1487
 2799TIP3    H1 8361   4.440   5.105   1.900 -0.9241  1.6477  0.2703
 2799TIP3    H2 8362   4.331   5.012   1.950  0.2213 -0.1983 -0.5919
 2800TIP3   OH2 8363   5.037   3.131   5.156  0.1414  0.3725 -0.3372
 2800TIP3    H1 8364   5.038   3.226   5.155 -2.0413  0.4618  0.0323
 2800TIP3    H2 8365   5.064   3.107   5.245 -1.1378  0.7722  0.1905
 2801TIP3   OH2 8366   0.262   4.716   2.798 -0.0591 -0.1632 -0.3740
 2801TIP3    H1 8367   0.291   4.702   2.889  0.8842 -1.1871 -0.8105
 2801TIP3    H2 8368   0.217   4.801   2.800 -1.8302 -1.0518  1.4546
 2802TIP3   OH2 8369   2.590   4.780   4.191 -0.1864 -0.1448  0.5615
 2802TIP3    H1 8370   2.581   4.830   4.109  0.3153  2.7980  2.1473
 2802TIP3    H2 8371   2.516   4.720   4.191 -1.5761  1.4512 -1.0049
 2803TIP3   OH2 8372   4.550   3.308   2.429 -0.0000 -0.2196  0.0316
 2803TIP3    H1 8373   4.546   3.312   2.333  0.2076  1.1848  0.0634
 2803TIP3    H2 8374   4.476   3.361   2.458  1.4001  1.5023  0.6221
 2804TIP3   OH2 8375   3.173   4.117   1.376 -0.0911  0.0221  0.1905
 2804TIP3    H1 8376   3.188   4.139   1.284 -0.5168 -2.1828 -0.4587
 2804TIP3    H2 8377   3.086   4.153   1.395  0.1510  0.8085 -0.1487
 2805TIP3   OH2 8378   4.017   5.917   2.664  0.2800  0.3803  0.0932
 2805TIP3    H1 8379   3.962   5.893   2.739 -0.6872 -0.4824 -0.8570
 2805TIP3    H2 8380   4.105   5.928   2.701  0.4942 -3.0925  0.9187
 2806TIP3   OH2 8381   4.006   2.316   5.651  0.3088  0.0375 -0.0226
 2806TIP3    H1 8382   3.924   2.351   5.618  0.7450  0.8774 -0.2335
 2806TIP3    H2 8383   4.068   2.388   5.644  1.1651 -0.6975 -0.2372
 2807TIP3   OH2 8384   1.336   5.389   0.945  0.0351  0.0836  0.4184
 2807TIP3    H1 8385   1.387   5.374   0.866 -0.4366  0.4366  0.0400
 2807TIP3    H2 8386   1.346   5.482   0.964  0.1817 -0.0062  0.8034
 2808TIP3   OH2 8387   2.220   0.509   1.793 -0.1654 -0.2227 -0.1426
 2808TIP3    H1 8388   2.191   0.428   1.751  0.8935 -2.3298  2.8381
 2808TIP3    H2 8389   2.185   0.503   1.883  2.4024  1.1549  1.0506
 2809TIP3   OH2 8390   2.255   0.931   2.954  0.8620 -0.9824  0.0566
 2809TIP3    H1 8391   2.230   0.843   2.982 -3.0935 -0.0851 -0.0086
 2809TIP3    H2 8392   2.278   0.921   2.862  0.6854 -2.0138  0.1073
 2810TIP3   OH2 8393   3.725   1.717   2.681 -0.0480  0.0536 -0.4980
 2810TIP3    H1 8394   3.808   1.764   2.693 -0.5786  0.6965  0.8375
 2810TIP3    H2 8395   3.700   1.690   2.770 -1.2445 -0.1819 -0.8939
 2811TIP3   OH2 8396   6.845   3.875   3.836  0.4812 -0.3229 -0.0181
 2811TIP3    H1 8397   6.756   3.863   3.802  0.3063 -0.4881  0.4822
 2811TIP3    H2 8398   6.881   3.786   3.841  0.3217 -0.3505  0.7033
 2812TIP3   OH2 8399   2.242   2.320   3.937  0.5848  0.1887 -0.0395
 2812TIP3    H1 8400   2.314   2.260   3.956  1.1001  0.4503 -1.1229
 2812TIP3    H2 8401   2.284   2.394   3.893 -0.2362  0.7297  0.0705
 2813TIP3   OH2 8402   5.053   2.528   0.737  0.7045  0.0565 -0.1249
 2813TIP3    H1 8403   5.048   2.513   0.832  0.4924 -0.6850 -0.2488
 2813TIP3    H2 8404   5.139   2.568   0.724  0.7424  0.1467  0.3787
 2814TIP3   OH2 8405   0.891   1.227   5.865  0.0238 -0.6072  0.6352
 2814TIP3    H1 8406   0.893   1.322   5.849  0.7933 -0.5510  1.0019
 2814TIP3    H2 8407   0.918   1.188   5.782  1.8257 -0.4047  1.0877
 2815TIP3   OH2 8408   3.232   0.059   1.050  0.3372 -0.2232  0.1329
 2815TIP3    H1 8409   3.195   0.140   1.015  0.4827  0.6162  1.8432
 2815TIP3    H2 8410   3.171  -0.009   1.021 -1.3427  0.8481  1.0058
 2816TIP3   OH2 8411   2.818   1.766   3.780  0.2143 -0.3506  0.4257
 2816TIP3    H1 8412   2.841   1.738   3.868 -0.0174 -2.0486 -0.0132
 2816TIP3    H2 8413   2.835   1.860   3.779  0.0395 -0.2707  2.3196
 2817TIP3   OH2 8414   3.603   4.218   2.682 -0.1224 -0.4492 -0.4649
 2817TIP3    H1 8415   3.625   4.130   2.713  0.1013  0.1566  1.1952
 2817TIP3    H2 8416   3.581   4.206   2.590  1.6507 -1.9613 -0.7564
 2818TIP3   OH2 8417   3.007   4.954   0.731  0.0654  0.0127 -1.0785
 2818TIP3    H1 8418   3.053   5.033   0.703 -0.0653  0.4085 -0.1999
 2818TIP3    H2 8419   2.921   4.985   0.760  1.3213  0.2086  3.1157
 2819TIP3   OH2 8420   1.776   2.307   5.802  0.5883  0.1672  0.0130
 2819TIP3    H1 8421   1.718   2.320   5.877  1.1347  1.4485  0.2451
 2819TIP3    H2 8422   1.771   2.214   5.783  1.3758 -0.4334  2.4119
 2820TIP3   OH2 8423   5.221   0.256   2.106  0.0370  0.0679  0.6211
 2820TIP3    H1 8424   5.276   0.320   2.060  1.0362 -1.5257 -0.5250
 2820TIP3    H2 8425   5.132   0.278   2.080  0.2854  1.4149  0.8252
 2821TIP3   OH2 8426   4.808   3.885   1.746 -0.2057 -0.3032  0.3472
 2821TIP3    H1 8427   4.815   3.827   1.670 -1.5260  1.8693 -1.5506
 2821TIP3    H2 8428   4.822   3.973   1.711 -0.4950  0.7751  2.7144
 2822TIP3   OH2 8429   0.683   2.849   5.440  0.1487  0.1435  0.0201
 2822TIP3    H1 8430   0.697   2.833   5.534 -0.3140 -1.5130 -0.1495
 2822TIP3    H2 8431   0.693   2.762   5.400 -2.0043  0.3683 -1.1580
 2823TIP3   OH2 8432   3.528   3.190   4.091 -0.5174  0.1138 -0.0409
 2823TIP3    H1 8433   3.543   3.269   4.039  1.5147 -0.2803 -0.1001
 2823TIP3    H2 8434   3.524   3.221   4.182 -0.9189  0.4012 -0.1496
 2824TIP3   OH2 8435   3.807   3.501   1.228  0.2356 -0.0305  0.0592
 2824TIP3    H1 8436   3.835   3.455   1.149 -0.4289  1.6887 -1.2182
 2824TIP3    H2 8437   3.887   3.539   1.264  0.5590 -0.9319  0.3388
 2825TIP3   OH2 8438   3.569   4.516   1.443  0.2039 -0.2294  0.1086
 2825TIP3    H1 8439   3.538   4.461   1.515 -1.7381  0.8812  0.1947
 2825TIP3    H2 8440   3.664   4.505   1.444  0.2281 -0.4671  2.6949
 2826TIP3   OH2 8441   3.434   1.785   4.134 -0.1963 -0.0996 -0.2367
 2826TIP3    H1 8442   3.371   1.857   4.125  0.8142  1.1083  1.8342
 2826TIP3    H2 8443   3.412   1.744   4.218 -0.9960 -2.5462 -1.5267
 2827TIP3   OH2 8444   1.858   1.678   5.195 -0.6193 -0.1511  0.1806
 2827TIP3    H1 8445   1.854   1.712   5.106 -1.0954  1.8446  0.9026
 2827TIP3    H2 8446   1.887   1.587   5.185 -0.7624 -0.0115 -1.9896
 2828TIP3   OH2 8447   4.849   1.612   4.500  0.1573  0.1199 -0.3721
 2828TIP3    H1 8448   4.806   1.695   4.521 -0.7395 -0.7287  1.3672
 2828TIP3    H2 8449   4.854   1.612   4.405  0.0432  2.0944 -0.4248
 2829TIP3   OH2 8450   2.086   4.044   3.846 -0.0955  0.1540 -0.1235
 2829TIP3    H1 8451   2.091   3.965   3.900  0.4895  0.9828  1.0698
 2829TIP3    H2 8452   2.119   4.016   3.761 -0.1349 -0.9480  0.2063
 2830TIP3   OH2 8453   6.439   6.202   1.311  0.7315 -0.1503 -0.2765
 2830TIP3    H1 8454   6.376   6.249   1.256  0.1877 -1.7994 -1.1181
 2830TIP3    H2 8455   6.399   6.202   1.398 -0.5636 -1.3304 -0.8347
 2831TIP3   OH2 8456   0.920   6.383   1.042  0.3669  0.1348  0.5286
 2831TIP3    H1 8457   0.935   6.295   1.076  0.8442  0.1907  0.4593
 2831TIP3    H2 8458   0.993   6.400   0.983 -0.6364 -0.1034 -0.8464
 2832TIP3   OH2 8459   1.886   0.573   1.592 -0.9306  0.1720  0.5268
 2832TIP3    H1 8460   1.894   0.535   1.504  1.4774 -0.0441  0.7663
 2832TIP3    H2 8461   1.873   0.498   1.650  1.1106 -0.1160  0.6955
 2833TIP3   OH2 8462   3.306   2.001   1.269  0.4118 -0.0679 -0.2229
 2833TIP3    H1 8463   3.390   2.045   1.261  0.5905  0.4133  2.9180
 2833TIP3    H2 8464   3.324   1.923   1.322 -0.9171 -0.5758 -0.4716
 2834TIP3   OH2 8465   0.208   0.954   0.365  0.0827 -0.3309  0.4412
 2834TIP3    H1 8466   0.122   0.966   0.405 -0.2074 -0.2428 -0.1992
 2834TIP3    H2 8467   0.195   0.883   0.301  0.8901 -1.5208  1.5354
 2835TIP3   OH2 8468   4.964   4.510   0.653 -0.3116 -0.2883 -0.4613
 2835TIP3    H1 8469   4.885   4.464   0.683  0.0968  0.3405  1.7801
 2835TIP3    H2 8470   5.036   4.467   0.699  0.3251  0.9965 -0.2114
 2836TIP3   OH2 8471   0.097   0.748   2.241 -0.0473 -0.6709 -0.1435
 2836TIP3    H1 8472   0.096   0.817   2.308 -2.2211 -0.0151 -0.7585
 2836TIP3    H2 8473   0.161   0.779   2.176  0.3026 -0.1116  0.4543
 2837TIP3   OH2 8474   5.272   3.187   4.268  0.0180  0.1839  0.0258
 2837TIP3    H1 8475   5.335   3.120   4.242 -0.9940 -0.4769 -0.8017
 2837TIP3    H2 8476   5.189   3.140   4.277 -0.3350  0.9896  1.3440
 2838TIP3   OH2 8477   0.335   3.956   3.038  0.6285  0.5740 -0.1772
 2838TIP3    H1 8478   0.320   3.867   3.072 -0.0784  0.4999 -0.6664
 2838TIP3    H2 8479   0.416   3.949   2.987  0.6348  0.2404 -0.1241
 2839TIP3   OH2 8480   5.405   0.163   3.848 -0.8147 -0.8626  0.9298
 2839TIP3    H1 8481   5.463   0.124   3.782 -0.8284 -1.5364  1.3094
 2839TIP3    H2 8482   5.332   0.102   3.855 -2.1765  0.5218 -0.3521
 2840TIP3   OH2 8483   0.665   0.683   3.233  0.1817  0.1370  0.4296
 2840TIP3    H1 8484   0.616   0.754   3.191 -0.3922 -0.6884 -0.3411
 2840TIP3    H2 8485   0.747   0.678   3.183 -0.8636 -1.4247 -1.2647
 2841TIP3   OH2 8486   0.209   4.360   5.591  0.3026 -0.2669  0.2799
 2841TIP3    H1 8487   0.219   4.418   5.516 -0.1106  0.0847  0.4940
 2841TIP3    H2 8488   0.176   4.278   5.554 -0.3724  0.0666  0.1306
 2842TIP3   OH2 8489   0.402   1.635   4.901  0.3544  0.6126 -0.4535
 2842TIP3    H1 8490   0.327   1.664   4.954  1.1076  1.2549  0.2871
 2842TIP3    H2 8491   0.391   1.540   4.895  0.8544  0.3510  1.8559
 2843TIP3   OH2 8492   0.167   4.588   5.455  0.2149  0.0410 -0.3066
 2843TIP3    H1 8493   0.116   4.643   5.396 -1.4870  1.6097  2.3939
 2843TIP3    H2 8494   0.233   4.647   5.491  0.3227 -0.4860  0.3724
 2844TIP3   OH2 8495   4.373   6.701   0.127  0.2326 -0.3417  0.0063
 2844TIP3    H1 8496   4.407   6.724   0.214  0.2120 -0.4343  0.0396
 2844TIP3    H2 8497   4.393   6.608   0.117 -1.9353 -0.9902  0.9577
 2845TIP3   OH2 8498   4.370   6.719   2.747  0.2326  0.1386 -0.5263
 2845TIP3    H1 8499   4.395   6.811   2.741  0.7201  0.1667  1.3046
 2845TIP3    H2 8500   4.288   6.719   2.797 -0.7418 -0.3295 -2.0538
 2846TIP3   OH2 8501   0.830   1.157   3.157 -0.6007 -0.1359  0.4499
 2846TIP3    H1 8502   0.799   1.147   3.247 -2.1846 -0.5064 -0.1110
 2846TIP3    H2 8503   0.875   1.242   3.157  0.1581 -0.5089  1.7693
 2847TIP3   OH2 8504   6.000   1.504   1.677 -0.3834 -0.0885 -0.3431
 2847TIP3    H1 8505   5.906   1.486   1.667 -0.4949  0.2477  0.0759
 2847TIP3    H2 8506   6.040   1.469   1.597 -1.0689  1.3188 -1.3438
 2848TIP3   OH2 8507   2.166   6.418   3.785  0.6170  0.0228 -0.2613
 2848TIP3    H1 8508   2.085   6.464   3.764  0.7807  1.3790  1.8234
 2848TIP3    H2 8509   2.235   6.483   3.769  1.0501 -0.2214  0.5829
 2849TIP3   OH2 8510   5.321   5.793   0.830 -0.3905 -0.2706  0.6571
 2849TIP3    H1 8511   5.365   5.849   0.894 -0.8207 -0.7036  1.3416
 2849TIP3    H2 8512   5.381   5.718   0.818 -0.2661 -0.1439  0.4733
 2850TIP3   OH2 8513   5.210   5.742   5.551  0.0673 -0.3834 -0.4536
 2850TIP3    H1 8514   5.131   5.728   5.604  1.3884  0.9635  2.0703
 2850TIP3    H2 8515   5.277   5.687   5.592  0.5768 -1.2264 -2.3338
 2851TIP3   OH2 8516   2.999   3.133   1.254  0.3158 -0.2488 -0.0973
 2851TIP3    H1 8517   3.068   3.135   1.320  2.0737  1.5776 -1.8465
 2851TIP3    H2 8518   3.031   3.074   1.187  0.9918  1.7572 -1.6390
 2852TIP3   OH2 8519   5.423   2.793   0.083 -0.0962 -0.6687 -0.0310
 2852TIP3    H1 8520   5.433   2.790   0.178  0.6350  1.5216 -0.0034
 2852TIP3    H2 8521   5.337   2.832   0.069 -0.1939 -0.9671 -0.2943
 2853TIP3   OH2 8522   1.240   3.855   2.119 -0.0928  0.0564  0.2797
 2853TIP3    H1 8523   1.208   3.944   2.107  0.8517  0.2361 -1.1457
 2853TIP3    H2 8524   1.335   3.865   2.128 -0.0636 -0.7430  1.0207
 2854TIP3   OH2 8525   1.330   4.221   4.648 -0.1529 -0.6639  0.6938
 2854TIP3    H1 8526   1.408   4.209   4.595 -0.6227 -2.2302  0.2964
 2854TIP3    H2 8527   1.279   4.141   4.634 -2.6463  0.9502 -0.4226
 2855TIP3   OH2 8528   4.493   0.289   4.626  0.3619 -0.1061 -0.0822
 2855TIP3    H1 8529   4.535   0.204   4.642  1.9177  0.5264 -0.5935
 2855TIP3    H2 8530   4.559   0.353   4.651 -0.5220  0.9634 -0.4013
 2856TIP3   OH2 8531   1.700   3.854   0.090 -0.0156 -0.3164 -0.0594
 2856TIP3    H1 8532   1.688   3.766   0.055 -3.2332  0.1476 -0.4554
 2856TIP3    H2 8533   1.675   3.912   0.017  1.0482  0.8989  0.5045
 2857TIP3   OH2 8534   7.004   4.696   5.776 -0.5204  0.2123 -0.0634
 2857TIP3    H1 8535   7.067   4.759   5.813 -1.0536  1.1049 -0.6519
 2857TIP3    H2 8536   7.054   4.615   5.769  0.2099  0.5808  0.6250
 2858TIP3   OH2 8537   5.175   6.611   5.268 -0.4678  0.0399 -0.1034
 2858TIP3    H1 8538   5.142   6.627   5.356  0.4358 -1.9037  0.6435
 2858TIP3    H2 8539   5.140   6.683   5.215 -1.2080  1.1130  1.7803
 2859TIP3   OH2 8540   3.125   5.081   1.323  0.1229  0.1185 -0.0599
 2859TIP3    H1 8541   3.111   5.014   1.256  0.1283  0.8306 -0.7964
 2859TIP3    H2 8542   3.135   5.033   1.405  2.5219 -0.9637 -0.8880
 2860TIP3   OH2 8543   5.239   6.162   5.495  0.3762  0.1412 -0.2899
 2860TIP3    H1 8544   5.198   6.192   5.576 -0.8832  0.1059 -0.8909
 2860TIP3    H2 8545   5.266   6.243   5.451  2.7578  0.1220  0.9560
 2861TIP3   OH2 8546   1.087   1.799   2.969 -0.3362 -0.9670  0.3806
 2861TIP3    H1 8547   1.149   1.804   2.896  0.1615  0.3196  0.8746
 2861TIP3    H2 8548   1.030   1.725   2.946  0.6551 -1.4511 -0.6371
 2862TIP3   OH2 8549   6.312   2.882   5.098 -0.0557  0.0016  0.0546
 2862TIP3    H1 8550   6.253   2.887   5.023  0.9988  1.0811 -0.7614
 2862TIP3    H2 8551   6.279   2.810   5.151 -0.7443 -0.8935 -1.5323
 2863TIP3   OH2 8552   6.163   6.145   4.843  0.2683  0.1354  0.5261
 2863TIP3    H1 8553   6.124   6.231   4.858  0.0759  0.8719 -3.2416
 2863TIP3    H2 8554   6.256   6.157   4.860  0.1980  0.9980  0.3234
 2864TIP3   OH2 8555   3.784   1.071   4.553  0.2329  0.6479 -0.2475
 2864TIP3    H1 8556   3.803   0.985   4.589  0.5650  1.0100  0.4495
 2864TIP3    H2 8557   3.769   1.055   4.459 -1.4494 -0.4246  0.1517
 2865TIP3   OH2 8558   5.688   1.508   2.477  0.1736 -0.4274 -0.2301
 2865TIP3    H1 8559   5.741   1.509   2.398  0.2570  0.3669 -0.1732
 2865TIP3    H2 8560   5.598   1.506   2.446  0.2002  0.1693 -0.3511
 2866TIP3   OH2 8561   3.677   1.449   5.888  0.0457  0.6589 -0.2607
 2866TIP3    H1 8562   3.729   1.502   5.828 -0.0542  1.0493 -0.0078
 2866TIP3    H2 8563   3.588   1.452   5.853 -0.0195  0.9167 -0.0750
 2867TIP3   OH2 8564   6.887   3.502   1.361  0.5443  0.4357 -0.4612
 2867TIP3    H1 8565   6.911   3.494   1.454  1.0953 -0.4448 -0.6688
 2867TIP3    H2 8566   6.854   3.416   1.337  1.1355  0.4269 -1.2863
 2868TIP3   OH2 8567   3.163   1.680   3.837  0.1649 -0.2420 -0.4486
 2868TIP3    H1 8568   3.116   1.621   3.778  1.0465 -1.2913 -0.1327
 2868TIP3    H2 8569   3.247   1.637   3.852  0.6232  0.8455  0.2218
 2869TIP3   OH2 8570   2.347   4.244   2.279 -0.5446  0.0156 -0.0238
 2869TIP3    H1 8571   2.292   4.242   2.357  0.5986 -0.1962  0.8036
 2869TIP3    H2 8572   2.396   4.325   2.286  2.4927 -1.7883  1.6246
 2870TIP3   OH2 8573   5.011   4.631   5.353  0.2297  0.5536 -0.4063
 2870TIP3    H1 8574   4.923   4.602   5.332  0.2309 -2.7427  2.9801
 2870TIP3    H2 8575   4.999   4.708   5.409 -0.6329 -0.3506  0.6981
 2871TIP3   OH2 8576   0.521   6.239   3.984  0.0894 -0.5515  0.3133
 2871TIP3    H1 8577   0.533   6.223   4.078 -0.9156  0.9271  0.7317
 2871TIP3    H2 8578   0.605   6.216   3.945  1.1044  0.4273  1.8140
 2872TIP3   OH2 8579   3.675   5.705   3.151 -0.4609  0.7740 -0.0068
 2872TIP3    H1 8580   3.598   5.651   3.167 -0.0576  0.0448 -0.4418
 2872TIP3    H2 8581   3.653   5.755   3.072  0.5906 -1.7063 -2.0588
 2873TIP3   OH2 8582   3.194   3.627   1.067 -0.2938  0.2999 -0.1394
 2873TIP3    H1 8583   3.167   3.580   0.989 -0.1321 -1.9586  1.0660
 2873TIP3    H2 8584   3.131   3.698   1.076 -0.5640  0.3385 -2.0515
 2874TIP3   OH2 8585   2.619   3.924   0.740  0.5968  0.3839 -0.8030
 2874TIP3    H1 8586   2.649   3.893   0.826  0.7426  2.7034  0.0441
 2874TIP3    H2 8587   2.636   3.850   0.681  0.6236 -1.2326  1.1067
 2875TIP3   OH2 8588   0.867   3.941   0.101  0.3152  0.5791  0.0745
 2875TIP3    H1 8589   0.814   4.014   0.068 -0.9007 -0.1655  0.3164
 2875TIP3    H2 8590   0.860   3.949   0.196  0.4927  0.3715  0.1042
 2876TIP3   OH2 8591   2.814   0.085   4.449 -0.4130 -0.6048  0.4776
 2876TIP3    H1 8592   2.885   0.135   4.490  0.1067 -0.6657 -0.3463
 2876TIP3    H2 8593   2.819   0.107   4.356  1.1027 -3.6927 -0.2974
 2877TIP3   OH2 8594   2.434   1.741   3.116  0.0978 -0.2174 -0.1869
 2877TIP3    H1 8595   2.448   1.743   3.021 -2.4137 -1.0688 -0.6640
 2877TIP3    H2 8596   2.516   1.706   3.152  1.0197 -0.1041 -2.0553
 2878TIP3   OH2 8597   4.536   3.434   5.647  0.0628 -0.1837  0.0181
 2878TIP3    H1 8598   4.536   3.347   5.686  1.4272 -0.5022 -0.6565
 2878TIP3    H2 8599   4.534   3.418   5.553  1.5145  0.4711 -0.1461
 2879TIP3   OH2 8600   3.248   4.867   5.842  0.6201  0.0445  0.0749
 2879TIP3    H1 8601   3.182   4.801   5.824  0.0264  0.8215 -0.6594
 2879TIP3    H2 8602   3.330   4.827   5.814  0.2123 -0.2378 -0.7270
 2880TIP3   OH2 8603   5.712   0.145   5.511  0.4669 -0.3964 -0.2443
 2880TIP3    H1 8604   5.638   0.205   5.506  0.6340 -0.2317 -0.8158
 2880TIP3    H2 8605   5.706   0.092   5.432  1.3028  0.0279 -0.6124
 2881TIP3   OH2 8606   0.571   3.029   1.570  0.3484  0.5021  0.1368
 2881TIP3    H1 8607   0.583   2.938   1.543  0.9139  0.1594  1.4677
 2881TIP3    H2 8608   0.595   3.080   1.493  1.8529 -0.4324 -0.0532
 2882TIP3   OH2 8609   6.419   2.400   1.249  0.1097  0.0284 -0.1767
 2882TIP3    H1 8610   6.360   2.384   1.322 -0.5522 -0.0049 -0.7062
 2882TIP3    H2 8611   6.462   2.316   1.234 -0.0479 -0.0693 -0.0809
 2883TIP3   OH2 8612   3.284   1.269   2.952 -0.7949 -0.4782  0.0337
 2883TIP3    H1 8613   3.316   1.229   3.033 -0.1505 -0.9916 -0.4694
 2883TIP3    H2 8614   3.211   1.324   2.981 -2.0586 -2.3997  0.7007
 2884TIP3   OH2 8615   4.788   3.073   1.819  0.1879  0.1297 -0.0190
 2884TIP3    H1 8616   4.820   2.984   1.801 -2.9706 -1.0928 -0.1400
 2884TIP3    H2 8617   4.767   3.109   1.733 -0.5601  0.1720  0.1817
 2885TIP3   OH2 8618   6.904   0.252   5.589 -0.6799  0.3132  0.9633
 2885TIP3    H1 8619   6.829   0.277   5.644 -1.0655 -0.0933  0.6386
 2885TIP3    H2 8620   6.957   0.196   5.645  0.0954  1.6716  1.6334
 2886TIP3   OH2 8621   2.922   0.759   1.802 -0.3223 -0.2116 -0.3110
 2886TIP3    H1 8622   2.860   0.831   1.792  2.3392  2.2021 -0.6635
 2886TIP3    H2 8623   2.963   0.750   1.716  0.6514 -0.9031  0.2021
 2887TIP3   OH2 8624   1.502   3.381   4.706 -0.2321  0.0838  0.1560
 2887TIP3    H1 8625   1.513   3.475   4.717 -1.2187  0.0661  1.6421
 2887TIP3    H2 8626   1.552   3.360   4.628  0.2190  1.7955 -0.0612
 2888TIP3   OH2 8627   2.176   2.007   3.522  0.1275 -0.8006  0.1355
 2888TIP3    H1 8628   2.221   1.961   3.450  1.6950 -0.9178  1.1552
 2888TIP3    H2 8629   2.217   1.973   3.601  0.7900  1.7454  0.9746
 2889TIP3   OH2 8630   3.288   2.833   5.140  0.3579 -0.1525 -0.3157
 2889TIP3    H1 8631   3.207   2.828   5.190  0.3513 -2.3096 -0.4680
 2889TIP3    H2 8632   3.261   2.818   5.049  1.0588 -2.6883 -0.1729
 2890TIP3   OH2 8633   6.276   6.695   4.719 -0.3479  0.0461  0.0499
 2890TIP3    H1 8634   6.244   6.605   4.713 -0.1632 -0.1137  1.2478
 2890TIP3    H2 8635   6.320   6.710   4.635 -1.3213 -0.5987 -0.5928
 2891TIP3   OH2 8636   6.627   3.456   0.113  0.0617 -0.3781 -0.4632
 2891TIP3    H1 8637   6.680   3.444   0.035  2.0932 -2.9588  1.1627
 2891TIP3    H2 8638   6.656   3.541   0.149  2.6729 -1.3636 -0.0366
 2892TIP3   OH2 8639   3.189   2.869   2.566  0.3441 -0.1657 -0.0400
 2892TIP3    H1 8640   3.265   2.863   2.625 -0.5892  1.7157  1.4670
 2892TIP3    H2 8641   3.169   2.962   2.562 -2.0844 -0.6285 -0.1250
 2893TIP3   OH2 8642   6.528   2.591   5.643 -0.0881  0.1439 -0.5079
 2893TIP3    H1 8643   6.500   2.506   5.609  0.6972  0.0078 -0.8320
 2893TIP3    H2 8644   6.600   2.571   5.702  1.0200  0.6691 -1.6230
 2894TIP3   OH2 8645   4.787   0.567   5.339 -0.0636 -0.1401 -0.3229
 2894TIP3    H1 8646   4.876   0.548   5.367 -0.1683  0.4195  0.4033
 2894TIP3    H2 8647   4.786   0.541   5.247  0.6874 -0.6670 -0.1942
 2895TIP3   OH2 8648   5.112   1.862   1.641  0.2431 -0.0218 -0.0443
 2895TIP3    H1 8649   5.194   1.888   1.683  0.7802 -0.8553 -0.5578
 2895TIP3    H2 8650   5.138   1.831   1.555 -0.6258 -0.2675 -0.2250
 2896TIP3   OH2 8651   4.366   4.051   1.559 -0.2141 -0.6500 -0.1188
 2896TIP3    H1 8652   4.344   4.097   1.478 -0.8198 -1.1885 -0.2713
 2896TIP3    H2 8653   4.460   4.035   1.552 -0.2567 -0.6894 -0.7263
 2897TIP3   OH2 8654   1.254   0.659   5.428 -0.1338  0.0935  0.1480
 2897TIP3    H1 8655   1.218   0.638   5.514  0.5272  0.2372  0.4721
 2897TIP3    H2 8656   1.275   0.752   5.433  1.4068 -0.2424  0.4105
 2898TIP3   OH2 8657   1.080   6.282   0.357 -0.1596 -0.6222  0.0511
 2898TIP3    H1 8658   1.038   6.368   0.355  0.9668 -0.0529 -0.6999
 2898TIP3    H2 8659   1.164   6.296   0.312 -0.6882 -2.5144 -1.6476
 2899TIP3   OH2 8660   6.983   0.465   4.812  0.1933  0.7719 -0.2031
 2899TIP3    H1 8661   7.038   0.389   4.830  0.8571  1.0104 -1.1455
 2899TIP3    H2 8662   6.901   0.429   4.779 -0.0608  0.4305  0.7690
 2900TIP3   OH2 8663   2.322   4.392   1.307  0.2699 -0.6004  0.0852
 2900TIP3    H1 8664   2.249   4.353   1.258  0.8526 -2.1597  0.4107
 2900TIP3    H2 8665   2.285   4.472   1.344 -0.4385  0.1810 -2.1440
 2901TIP3   OH2 8666   3.302   3.026   1.896  0.4012 -0.1682  0.0288
 2901TIP3    H1 8667   3.281   2.988   1.981 -0.3595 -0.3011 -0.2087
 2901TIP3    H2 8668   3.302   3.121   1.911  0.8931 -0.2127  0.3120
 2902TIP3   OH2 8669   5.792   2.818   1.711 -0.0918  0.1997  0.0919
 2902TIP3    H1 8670   5.779   2.841   1.803 -0.8165 -1.0746  0.3409
 2902TIP3    H2 8671   5.703   2.812   1.675  0.1050 -0.9950 -0.2339
 2903TIP3   OH2 8672   4.922   5.166   4.551  0.3498  0.3576  0.1598
 2903TIP3    H1 8673   5.002   5.116   4.565  0.5958  1.0711  1.3843
 2903TIP3    H2 8674   4.941   5.253   4.586 -0.6670  0.8040 -0.3412
 2904TIP3   OH2 8675   3.139   2.263   1.120 -0.0990  0.3903  0.2160
 2904TIP3    H1 8676   3.158   2.280   1.028  0.5091 -0.4972  0.1682
 2904TIP3    H2 8677   3.073   2.194   1.119 -0.9848  1.2093  0.4405
 2905TIP3   OH2 8678   5.376   6.145   3.214 -0.1786  0.2857  0.2328
 2905TIP3    H1 8679   5.380   6.231   3.256 -0.9274  0.4778 -0.0724
 2905TIP3    H2 8680   5.367   6.083   3.286  1.6377  0.3393  0.5369
 2906TIP3   OH2 8681   3.544   1.239   0.049  0.2048  0.6473  0.4069
 2906TIP3    H1 8682   3.578   1.206   0.132  0.2211 -0.4886 -0.0344
 2906TIP3    H2 8683   3.449   1.224   0.054  0.2687  0.0457  0.0124
 2907TIP3   OH2 8684   3.788   1.791   3.088  0.2510 -0.4219 -0.5141
 2907TIP3    H1 8685   3.741   1.870   3.116  1.1510  0.8254 -2.3211
 2907TIP3    H2 8686   3.719   1.726   3.075 -0.3700 -0.5450  2.6489
 2908TIP3   OH2 8687   5.596   0.255   4.273 -0.0114  0.3373  0.0732
 2908TIP3    H1 8688   5.524   0.260   4.209  0.5981 -0.6217 -0.7273
 2908TIP3    H2 8689   5.615   0.346   4.295 -0.3562  0.6857 -0.9831
 2909TIP3   OH2 8690   0.376   2.628   5.683 -0.1409  0.2675 -0.1389
 2909TIP3    H1 8691   0.395   2.606   5.592 -0.1576  0.6947 -0.2499
 2909TIP3    H2 8692   0.281   2.638   5.685 -0.3021 -1.1359  0.2475
 2910TIP3   OH2 8693   2.755   4.591   5.167 -0.2076  0.2041  1.1804
 2910TIP3    H1 8694   2.823   4.631   5.112 -0.0126  1.6413  2.3930
 2910TIP3    H2 8695   2.803   4.556   5.242 -0.6244 -0.3856  1.1721
 2911TIP3   OH2 8696   2.957   6.312   1.610 -0.1881 -0.3554 -0.1041
 2911TIP3    H1 8697   2.976   6.310   1.704  0.0548 -1.3647 -0.1629
 2911TIP3    H2 8698   2.954   6.220   1.584 -0.5991 -0.0954 -1.0201
 2912TIP3   OH2 8699   7.000   2.933   3.422  0.5587  0.2151  0.7402
 2912TIP3    H1 8700   6.948   2.880   3.483  0.3275  0.0259  0.3777
 2912TIP3    H2 8701   7.082   2.949   3.469  1.1270 -1.4632  0.3881
 2913TIP3   OH2 8702   1.997   5.833   1.937  0.4112 -0.1431  0.0625
 2913TIP3    H1 8703   2.076   5.799   1.894  1.3880  0.6580  1.1712
 2913TIP3    H2 8704   2.030   5.892   2.005 -1.1568  0.3130  0.4622
 2914TIP3   OH2 8705   5.653   2.836   5.459  0.1080  0.0581 -0.1201
 2914TIP3    H1 8706   5.720   2.803   5.399 -2.1139 -0.2105 -2.6718
 2914TIP3    H2 8707   5.580   2.774   5.450 -2.0802  2.5282 -0.7817
 2915TIP3   OH2 8708   4.148   0.962   0.877  0.3674 -0.3641 -0.8796
 2915TIP3    H1 8709   4.118   1.045   0.839 -2.0011 -1.9491 -2.7630
 2915TIP3    H2 8710   4.215   0.931   0.816  1.7696  0.4275  0.2035
 2916TIP3   OH2 8711   0.738   4.665   5.276 -0.5314  0.5965 -0.0668
 2916TIP3    H1 8712   0.686   4.694   5.201  1.2427  0.9417 -1.2485
 2916TIP3    H2 8713   0.819   4.631   5.236  0.2212  0.2406  1.6785
 2917TIP3   OH2 8714   0.080   5.329   5.725 -0.0086  0.0565  0.1082
 2917TIP3    H1 8715   0.017   5.305   5.793  1.4360 -2.7725  0.5931
 2917TIP3    H2 8716   0.103   5.420   5.745 -0.4893 -0.3074  2.7187
 2918TIP3   OH2 8717   1.723   1.881   5.443  0.1321  0.0205 -0.0426
 2918TIP3    H1 8718   1.641   1.922   5.416 -0.9715 -1.9663  0.0954
 2918TIP3    H2 8719   1.745   1.822   5.371 -1.4650 -3.3787  1.9894
 2919TIP3   OH2 8720   1.546   0.189   3.738  0.0135 -0.0051  0.2557
 2919TIP3    H1 8721   1.455   0.173   3.713  0.0276 -0.8605  0.7097
 2919TIP3    H2 8722   1.541   0.249   3.812 -0.1413  0.5228 -0.1761
 2920TIP3   OH2 8723   0.032   1.808   3.603 -0.2694  0.1026  0.1088
 2920TIP3    H1 8724   0.082   1.834   3.526  0.5245 -1.2555  0.1269
 2920TIP3    H2 8725   0.001   1.720   3.582 -0.2346 -0.1942  1.2542
 2921TIP3   OH2 8726   3.438   2.288   0.916 -0.2409 -0.8464  0.2090
 2921TIP3    H1 8727   3.442   2.337   0.998 -0.4334  0.0760 -0.3216
 2921TIP3    H2 8728   3.350   2.304   0.883  0.3315  0.1143 -0.9533
 2922TIP3   OH2 8729   0.205   1.616   1.206 -0.2039  0.2284 -0.1775
 2922TIP3    H1 8730   0.251   1.698   1.188  0.6634  0.1043  1.3131
 2922TIP3    H2 8731   0.126   1.643   1.252  0.2740  0.2295  0.6663
 2923TIP3   OH2 8732   3.928   3.588   0.722 -0.1704  0.2550 -0.5489
 2923TIP3    H1 8733   3.860   3.521   0.722 -1.0445  1.1048  0.5725
 2923TIP3    H2 8734   3.941   3.608   0.629  0.0128 -1.3340 -0.8939
 2924TIP3   OH2 8735   3.718   3.405   0.714 -0.2910 -0.4204  0.0507
 2924TIP3    H1 8736   3.640   3.393   0.769 -0.8866 -0.7330 -0.8557
 2924TIP3    H2 8737   3.732   3.320   0.673 -0.8696  0.2448 -1.6065
 2925TIP3   OH2 8738   2.993   5.169   3.569 -0.2306  1.0248  0.1061
 2925TIP3    H1 8739   3.020   5.244   3.623  0.9076  0.1428  0.8054
 2925TIP3    H2 8740   3.074   5.137   3.530 -0.5930 -0.2542  0.3612
 2926TIP3   OH2 8741   5.152   2.822   0.056 -0.0694 -0.1814 -0.1995
 2926TIP3    H1 8742   5.151   2.794   0.148  1.2425 -0.1350 -0.1546
 2926TIP3    H2 8743   5.118   2.746   0.008 -1.6888  0.1350  0.3875
 2927TIP3   OH2 8744   4.205   3.371   1.169 -0.0416  0.1692 -0.1798
 2927TIP3    H1 8745   4.234   3.291   1.213 -0.2186 -0.4490 -1.1540
 2927TIP3    H2 8746   4.117   3.350   1.137  0.3445  0.3821 -1.3919
 2928TIP3   OH2 8747   2.178   1.421   5.261  0.6286  0.2613 -0.3858
 2928TIP3    H1 8748   2.213   1.472   5.334  1.9190 -1.4877  0.2976
 2928TIP3    H2 8749   2.092   1.459   5.243 -0.0395  0.3127  2.5101
 2929TIP3   OH2 8750   5.429   6.701   1.803 -0.6594  0.9673 -0.2124
 2929TIP3    H1 8751   5.512   6.749   1.802 -0.1485  0.1079 -0.2531
 2929TIP3    H2 8752   5.376   6.747   1.868  1.3078 -0.7980  2.9414
 2930TIP3   OH2 8753   2.146   5.783   4.663  0.4602 -0.6718 -0.0829
 2930TIP3    H1 8754   2.171   5.692   4.675  0.4003 -0.6015  0.6563
 2930TIP3    H2 8755   2.215   5.833   4.708 -0.8737 -0.4732  1.9026
 2931TIP3   OH2 8756   4.635   4.590   3.180 -0.1182 -0.0906  0.0376
 2931TIP3    H1 8757   4.711   4.551   3.136 -0.1126 -1.2144  0.9855
 2931TIP3    H2 8758   4.666   4.676   3.209  0.8674 -0.5855  0.5316
 2932TIP3   OH2 8759   1.160   1.249   4.594 -0.4481  0.1802  0.3086
 2932TIP3    H1 8760   1.154   1.188   4.667 -1.9125  0.3521  0.3711
 2932TIP3    H2 8761   1.250   1.280   4.595 -0.3454 -0.1119  1.8012
 2933TIP3   OH2 8762   5.221   2.353   2.295  0.1859 -0.7683 -0.0480
 2933TIP3    H1 8763   5.174   2.383   2.373 -0.5166 -1.2762 -0.2656
 2933TIP3    H2 8764   5.196   2.415   2.226  0.5614 -0.5009  0.0566
 2934TIP3   OH2 8765   3.813   2.576   2.794 -0.6993  0.4794  0.3001
 2934TIP3    H1 8766   3.783   2.609   2.878  0.0211  0.1556  0.6958
 2934TIP3    H2 8767   3.822   2.654   2.739 -0.1969  0.8126  0.8418
 2935TIP3   OH2 8768   0.347   2.676   4.023 -0.5630  0.1994 -0.2606
 2935TIP3    H1 8769   0.414   2.609   4.018 -0.2816  0.3892  0.6802
 2935TIP3    H2 8770   0.378   2.737   4.091 -3.0067 -1.2447  2.3998
 2936TIP3   OH2 8771   4.338   1.252   4.171  0.1791  0.4081 -0.0791
 2936TIP3    H1 8772   4.386   1.234   4.091 -1.6000 -1.5245 -0.7797
 2936TIP3    H2 8773   4.270   1.314   4.145  0.2811  0.6388  0.1944
 2937TIP3   OH2 8774   2.748   5.238   2.492  0.2718  0.3211  0.2724
 2937TIP3    H1 8775   2.768   5.277   2.578 -2.4137  0.5725  0.8794
 2937TIP3    H2 8776   2.766   5.308   2.430  1.2134  0.5023  0.7296
 2938TIP3   OH2 8777   4.263   2.878   4.341  0.2652  0.0876 -0.2180
 2938TIP3    H1 8778   4.246   2.817   4.414 -0.0855  0.1706 -0.2303
 2938TIP3    H2 8779   4.352   2.908   4.356 -0.1095  0.7946  0.6890
 2939TIP3   OH2 8780   0.505   3.892   2.451  0.1064 -0.0010  0.4201
 2939TIP3    H1 8781   0.575   3.942   2.410 -1.0659  1.5180  0.2008
 2939TIP3    H2 8782   0.533   3.883   2.542 -0.3000  2.3677  0.8325
 2940TIP3   OH2 8783   4.700   5.693   2.583  0.4114  0.0648 -0.1038
 2940TIP3    H1 8784   4.725   5.646   2.663  1.8350  0.9160 -0.0276
 2940TIP3    H2 8785   4.769   5.673   2.521 -0.3774 -0.1005 -0.9515
 2941TIP3   OH2 8786   1.704   2.606   0.421  0.2524  0.6457 -0.2783
 2941TIP3    H1 8787   1.657   2.595   0.504  0.0207 -2.4430 -0.7220
 2941TIP3    H2 8788   1.640   2.582   0.354  1.6748 -1.1420 -1.0559
 2942TIP3   OH2 8789   3.800   3.127   4.675  0.1312  0.2067 -0.0405
 2942TIP3    H1 8790   3.782   3.067   4.748  3.8072 -1.2275 -0.1230
 2942TIP3    H2 8791   3.829   3.208   4.717 -0.2405  0.2961  0.0522
 2943TIP3   OH2 8792   4.348   2.353   2.290 -0.9172  0.1315 -0.2284
 2943TIP3    H1 8793   4.369   2.437   2.248 -0.4129  0.0361 -0.1622
 2943TIP3    H2 8794   4.374   2.287   2.226 -0.9660  0.0099 -0.1234
 2944TIP3   OH2 8795   1.964   5.230   5.797  0.4139 -0.0327 -0.5435
 2944TIP3    H1 8796   1.913   5.273   5.865  0.2645 -0.2779 -0.4998
 2944TIP3    H2 8797   2.046   5.205   5.841  0.4081  0.0058 -0.5109
 2945TIP3   OH2 8798   4.151   6.790   5.629  0.2465 -0.2930 -0.3762
 2945TIP3    H1 8799   4.203   6.779   5.708 -1.5051 -0.3874  0.8274
 2945TIP3    H2 8800   4.187   6.726   5.567  0.7768 -1.2043  0.8270
 2946TIP3   OH2 8801   6.500   6.329   2.183  0.7363  0.4632  0.7986
 2946TIP3    H1 8802   6.511   6.397   2.250  1.0904  0.5008  0.7050
 2946TIP3    H2 8803   6.516   6.374   2.100  1.5769  0.1419  0.7731
 2947TIP3   OH2 8804   4.909   6.089   5.483 -0.1423 -0.2090 -0.1188
 2947TIP3    H1 8805   4.994   6.129   5.501 -0.3151 -0.4721  1.3885
 2947TIP3    H2 8806   4.930   5.997   5.465 -0.1803 -0.5341  1.3758
 2948TIP3   OH2 8807   3.400   5.619   3.467  0.2310  0.2111 -0.2840
 2948TIP3    H1 8808   3.410   5.568   3.387 -0.3435 -0.8504  0.3044
 2948TIP3    H2 8809   3.306   5.640   3.470  0.1809 -0.0756  0.2945
 2949TIP3   OH2 8810   2.398   1.131   1.788 -0.1989  0.5118  0.0462
 2949TIP3    H1 8811   2.492   1.143   1.773 -0.0821 -0.0398  0.3198
 2949TIP3    H2 8812   2.360   1.218   1.772  0.3767  0.7724  0.0721
 2950TIP3   OH2 8813   3.443   2.191   3.621  0.7629 -0.3077  0.0851
 2950TIP3    H1 8814   3.523   2.212   3.670 -1.0413  0.2469  3.0628
 2950TIP3    H2 8815   3.398   2.127   3.676 -0.7833 -0.7367 -1.5889
 2951TIP3   OH2 8816   3.076   4.576   0.538 -0.5604  0.1547 -0.7804
 2951TIP3    H1 8817   3.082   4.671   0.537  0.9861  0.1236  0.7066
 2951TIP3    H2 8818   2.983   4.557   0.546 -0.8248  1.5718 -0.2867
 2952TIP3   OH2 8819   2.838   3.748   4.843 -0.1481 -0.0939  0.0725
 2952TIP3    H1 8820   2.875   3.661   4.856 -1.8730 -1.0783 -1.1963
 2952TIP3    H2 8821   2.913   3.807   4.851  1.2838 -1.7875 -0.1725
 2953TIP3   OH2 8822   2.230   5.651   0.840 -0.1660  0.2425 -0.1030
 2953TIP3    H1 8823   2.309   5.704   0.851  0.1345 -0.5175  1.8436
 2953TIP3    H2 8824   2.168   5.687   0.904 -0.3345 -1.0198  0.4684
 2954TIP3   OH2 8825   5.607   3.270   5.240  0.1966  0.5380 -0.2579
 2954TIP3    H1 8826   5.617   3.361   5.268  1.2792 -0.0810  1.4983
 2954TIP3    H2 8827   5.670   3.260   5.168 -0.1163  1.2247 -0.6417
 2955TIP3   OH2 8828   6.971   3.999   5.048  0.4539 -0.0547  0.0404
 2955TIP3    H1 8829   6.877   3.985   5.037  0.8256 -1.7629 -1.4450
 2955TIP3    H2 8830   7.006   3.914   5.073  1.5700  0.6590  1.0061
 2956TIP3   OH2 8831   4.238   1.473   5.291 -0.0680  0.3234  0.5287
 2956TIP3    H1 8832   4.170   1.417   5.326 -0.1561  0.6765  0.9271
 2956TIP3    H2 8833   4.221   1.476   5.197  0.0337 -0.4394  0.4767
 2957TIP3   OH2 8834   5.670   2.894   3.279 -0.1478  0.6080  0.0467
 2957TIP3    H1 8835   5.660   2.982   3.242 -1.9423  0.9302  1.1999
 2957TIP3    H2 8836   5.696   2.908   3.370  3.1477 -0.1673 -0.6430
 2958TIP3   OH2 8837   5.468   3.688   0.269  0.2091  0.0045  0.3328
 2958TIP3    H1 8838   5.412   3.693   0.347  0.0798 -2.4144  0.4744
 2958TIP3    H2 8839   5.507   3.775   0.262 -2.1153  1.2277  1.3095
 2959TIP3   OH2 8840   1.262   6.377   1.253 -1.0936 -0.6101 -0.0106
 2959TIP3    H1 8841   1.181   6.342   1.291 -0.0211 -1.1484  1.9143
 2959TIP3    H2 8842   1.234   6.459   1.211 -2.9259 -1.6699 -1.0060
 2960TIP3   OH2 8843   0.315   2.094   4.638 -0.0354  0.2705 -0.2827
 2960TIP3    H1 8844   0.248   2.085   4.569 -1.2508  0.2194  0.8552
 2960TIP3    H2 8845   0.324   2.005   4.673  1.0375  0.1774 -0.7784
 2961TIP3   OH2 8846   5.604   3.949   2.921  0.2508 -0.9081  0.3261
 2961TIP3    H1 8847   5.616   3.963   3.015  0.9806 -0.3607  0.1608
 2961TIP3    H2 8848   5.546   3.873   2.916  0.8191 -1.4305  1.2179
 2962TIP3   OH2 8849   5.090   2.725   2.334 -0.9341  0.0507 -0.0956
 2962TIP3    H1 8850   5.071   2.809   2.292 -1.4631  0.3851  0.7896
 2962TIP3    H2 8851   5.184   2.727   2.351 -0.8394  0.2058 -0.6135
 2963TIP3   OH2 8852   6.525   2.912   2.277 -0.1949  0.6951 -0.4692
 2963TIP3    H1 8853   6.534   2.825   2.316  1.1574  2.0008  2.4861
 2963TIP3    H2 8854   6.471   2.961   2.340  1.4597  2.7283 -0.5164
 2964TIP3   OH2 8855   5.721   1.081   5.612  0.3139 -0.0856 -0.1798
 2964TIP3    H1 8856   5.631   1.105   5.590  0.7773  2.8251  0.5975
 2964TIP3    H2 8857   5.765   1.072   5.528 -0.2087  0.7107 -0.5486
 2965TIP3   OH2 8858   4.286   0.110   4.477  0.3043 -0.7590 -0.8646
 2965TIP3    H1 8859   4.253   0.059   4.403  1.1819  1.8671 -3.2405
 2965TIP3    H2 8860   4.381   0.108   4.468  0.4869 -0.9541  0.6816
 2966TIP3   OH2 8861   5.603   2.702   3.800 -0.4609 -0.4470  0.4805
 2966TIP3    H1 8862   5.670   2.744   3.746 -1.4816  0.1109 -0.3879
 2966TIP3    H2 8863   5.636   2.712   3.890  1.2806 -1.4199  0.0099
 2967TIP3   OH2 8864   3.977   2.069   1.763 -0.0567 -0.4998  0.0085
 2967TIP3    H1 8865   4.020   2.154   1.767 -0.4181 -0.2823 -0.5278
 2967TIP3    H2 8866   4.037   2.009   1.807  1.0201 -0.2995 -1.1463
 2968TIP3   OH2 8867   0.872   3.215   2.624 -0.3160  0.3017  0.4971
 2968TIP3    H1 8868   0.952   3.166   2.604  1.1482  1.4258  3.0349
 2968TIP3    H2 8869   0.861   3.274   2.549  1.6256  0.5419  0.3365
 2969TIP3   OH2 8870   5.516   0.094   4.483  0.6281 -0.2374  0.3860
 2969TIP3    H1 8871   5.539   0.144   4.405 -1.8936  1.2940  0.5107
 2969TIP3    H2 8872   5.482   0.011   4.449  0.9740 -0.1919 -0.0738
 2970TIP3   OH2 8873   6.704   1.370   2.483  0.4074  0.2399  0.2401
 2970TIP3    H1 8874   6.730   1.317   2.558 -0.2644  0.5758  0.7245
 2970TIP3    H2 8875   6.608   1.362   2.481  0.4947 -0.6791 -1.2719
 2971TIP3   OH2 8876   5.575   3.397   0.442 -0.8988  0.3016  0.0314
 2971TIP3    H1 8877   5.655   3.419   0.395 -1.0136  1.2412  0.2525
 2971TIP3    H2 8878   5.506   3.404   0.376 -0.6928 -1.6692 -0.4531
 2972TIP3   OH2 8879   6.776   1.269   0.859 -0.0334  0.1853  0.6059
 2972TIP3    H1 8880   6.713   1.336   0.888  1.0602  1.5940 -0.1307
 2972TIP3    H2 8881   6.824   1.312   0.789  2.9539 -0.1791  2.2899
 2973TIP3   OH2 8882   5.563   4.149   4.970  0.2289 -0.5605 -0.0014
 2973TIP3    H1 8883   5.591   4.100   5.047  1.2083 -1.7730 -1.0916
 2973TIP3    H2 8884   5.569   4.086   4.898  0.0044  0.7415 -1.1901
 2974TIP3   OH2 8885   6.337   5.793   5.647 -0.0881  0.7335  0.4619
 2974TIP3    H1 8886   6.364   5.705   5.675  1.5534  0.6768 -1.1194
 2974TIP3    H2 8887   6.312   5.837   5.728  0.2924 -0.7646  1.4459
 2975TIP3   OH2 8888   4.345   5.184   3.316  0.0991  0.4537  0.1268
 2975TIP3    H1 8889   4.259   5.147   3.338  0.2124 -0.4844 -0.8830
 2975TIP3    H2 8890   4.399   5.169   3.393 -0.5823  0.8784  0.7013
 2976TIP3   OH2 8891   2.345   5.488   0.626 -0.6472  0.0524 -0.1792
 2976TIP3    H1 8892   2.274   5.532   0.672 -1.3045  0.0539 -1.1558
 2976TIP3    H2 8893   2.351   5.534   0.542  1.0058  0.5193  0.1678
 2977TIP3   OH2 8894   4.749   4.634   4.812  0.1183  0.0062 -0.4500
 2977TIP3    H1 8895   4.812   4.635   4.885  0.3506 -0.1363 -0.6435
 2977TIP3    H2 8896   4.789   4.690   4.745  0.3279 -0.5445 -0.8019
 2978TIP3   OH2 8897   4.825   3.195   2.549 -0.0031 -0.3681 -0.1786
 2978TIP3    H1 8898   4.776   3.236   2.478 -0.2207 -2.8253 -1.5877
 2978TIP3    H2 8899   4.847   3.266   2.609 -3.0843  1.2412 -0.7752
 2979TIP3   OH2 8900   3.559   5.460   2.300  0.0366 -0.2945  0.2861
 2979TIP3    H1 8901   3.564   5.399   2.226  0.2775  0.2805 -0.1734
 2979TIP3    H2 8902   3.468   5.491   2.299  0.1952  0.1532 -0.1202
 2980TIP3   OH2 8903   3.388   0.177   2.178 -0.2244 -0.1928 -0.0761
 2980TIP3    H1 8904   3.484   0.167   2.177 -0.3441 -2.0343 -2.4538
 2980TIP3    H2 8905   3.374   0.271   2.171  1.4042  0.0906 -0.0245
 2981TIP3   OH2 8906   6.305   0.791   0.847  0.4164 -0.8707 -0.0552
 2981TIP3    H1 8907   6.222   0.784   0.800 -0.3914 -0.2316  1.2057
 2981TIP3    H2 8908   6.369   0.814   0.780 -1.2642  3.5736 -0.4718
 2982TIP3   OH2 8909   6.458   3.242   2.709 -0.0267  0.3310 -0.0661
 2982TIP3    H1 8910   6.487   3.165   2.757  1.5544 -0.1338 -1.6595
 2982TIP3    H2 8911   6.533   3.301   2.709 -0.9511  1.5688  0.4379
 2983TIP3   OH2 8912   2.310   3.532   0.346 -0.1052  0.2413 -0.2683
 2983TIP3    H1 8913   2.332   3.534   0.253 -2.4765 -0.1411 -0.8815
 2983TIP3    H2 8914   2.385   3.488   0.387  0.7787  0.0132 -2.0502
 2984TIP3   OH2 8915   0.226   3.532   5.485  0.2372  0.4272 -0.0837
 2984TIP3    H1 8916   0.174   3.612   5.496  0.3960  0.5385 -0.1506
 2984TIP3    H2 8917   0.287   3.552   5.415  1.7960  1.0344  1.3877
 2985TIP3   OH2 8918   5.276   0.799   1.293  0.0210 -0.5682  0.2570
 2985TIP3    H1 8919   5.363   0.775   1.326 -0.0671  0.0685  0.9761
 2985TIP3    H2 8920   5.216   0.737   1.336  0.2712 -2.2902 -1.7039
 2986TIP3   OH2 8921   5.177   1.980   4.067  0.2564  0.0003  0.1596
 2986TIP3    H1 8922   5.129   1.938   3.997 -1.7045 -0.3286  1.6213
 2986TIP3    H2 8923   5.122   2.053   4.094  0.7621 -0.0991  1.5768
 2987TIP3   OH2 8924   0.471   0.661   5.015 -0.2227 -0.0117  0.2060
 2987TIP3    H1 8925   0.538   0.628   5.076 -0.9793 -0.1678  0.9766
 2987TIP3    H2 8926   0.433   0.736   5.061 -2.0382 -1.2115  0.7641
 2988TIP3   OH2 8927   1.103   5.259   3.184  0.1056 -0.1739  0.3875
 2988TIP3    H1 8928   1.192   5.284   3.161 -0.1664 -0.4533 -1.1150
 2988TIP3    H2 8929   1.111   5.213   3.268  1.0022  2.0929  1.6095
 2989TIP3   OH2 8930   3.264   3.186   3.231  0.1874 -0.9577 -1.0934
 2989TIP3    H1 8931   3.184   3.134   3.224 -0.2506 -0.7911  1.6008
 2989TIP3    H2 8932   3.234   3.276   3.242  0.6329 -1.0180  1.0039
 2990TIP3   OH2 8933   1.767   5.139   1.232  0.8498  0.4386  0.1122
 2990TIP3    H1 8934   1.680   5.176   1.219  1.0506  1.3070  1.0929
 2990TIP3    H2 8935   1.772   5.067   1.170 -0.8930 -0.1927  0.6616
 2991TIP3   OH2 8936   1.909   1.675   2.013 -0.6796 -0.6762  0.3980
 2991TIP3    H1 8937   1.911   1.674   1.918 -0.0909 -1.6087  0.4166
 2991TIP3    H2 8938   1.992   1.715   2.039 -1.0086 -0.0517  0.5284
 2992TIP3   OH2 8939   3.683   0.783   0.734 -0.4853 -0.1051 -0.5338
 2992TIP3    H1 8940   3.648   0.700   0.765 -1.2288  0.1715 -0.6237
 2992TIP3    H2 8941   3.771   0.787   0.772 -0.5257 -0.8277 -0.3539
 2993TIP3   OH2 8942   2.069   1.557   0.396 -0.5827  0.1838  0.1830
 2993TIP3    H1 8943   2.064   1.629   0.332 -1.6527  0.1947  0.2763
 2993TIP3    H2 8944   1.981   1.550   0.432  0.3219  1.2183  2.8096
 2994TIP3   OH2 8945   2.966   4.843   4.035 -0.1012 -0.2519 -0.0752
 2994TIP3    H1 8946   2.882   4.830   3.991 -0.8489 -0.7026  1.4091
 2994TIP3    H2 8947   2.999   4.925   3.999 -1.1059 -0.1477 -0.8043
 2995TIP3   OH2 8948   3.963   3.563   4.229 -0.1442 -0.2875  0.2577
 2995TIP3    H1 8949   3.976   3.641   4.283  0.9312 -0.4924  0.3155
 2995TIP3    H2 8950   4.043   3.512   4.241 -0.3492 -0.8515 -0.6863
 2996TIP3   OH2 8951   5.296   1.970   3.806  0.3627  0.2876  0.2535
 2996TIP3    H1 8952   5.206   1.938   3.795  0.7091 -0.7499  0.3009
 2996TIP3    H2 8953   5.306   1.980   3.901  1.0366 -1.9374  0.4733
 2997TIP3   OH2 8954   0.764   0.116   2.602 -0.1151  0.2987 -0.4356
 2997TIP3    H1 8955   0.709   0.189   2.629  1.5990  1.8368 -0.8418
 2997TIP3    H2 8956   0.777   0.130   2.508 -0.7089 -1.2332 -0.7717
 2998TIP3   OH2 8957   4.033   5.090   1.720 -0.2485  0.2881 -0.0614
 2998TIP3    H1 8958   4.108   5.148   1.735 -0.7868  1.0629 -0.2526
 2998TIP3    H2 8959   4.046   5.058   1.630 -0.0175  0.2201 -0.0055
 2999TIP3   OH2 8960   4.277   3.400   2.234 -0.4330  0.1295  0.3775
 2999TIP3    H1 8961   4.294   3.478   2.181  0.5961 -0.8629 -0.8154
 2999TIP3    H2 8962   4.214   3.429   2.300 -0.0121  1.9808  0.0178
 3000TIP3   OH2 8963   3.059   0.967   3.841  0.0341  0.2744  0.1361
 3000TIP3    H1 8964   3.131   0.927   3.792 -0.2933  1.1619 -1.1127
 3000TIP3    H2 8965   2.983   0.913   3.820 -0.3693  1.3937 -1.3997
 3001TIP3   OH2 8966   1.745   3.156   2.448  0.6684  0.1120 -0.7602
 3001TIP3    H1 8967   1.826   3.198   2.417  1.0062 -0.4652 -0.6979
 3001TIP3    H2 8968   1.683   3.168   2.376  0.8776  0.3894 -0.8957
 3002TIP3   OH2 8969   4.833   2.200   1.667 -0.1861 -0.0229 -0.3639
 3002TIP3    H1 8970   4.832   2.176   1.759 -0.5798 -0.3342 -0.4465
 3002TIP3    H2 8971   4.754   2.254   1.655 -1.2314 -1.6076 -0.9347
 3003TIP3   OH2 8972   5.950   2.225   5.114  0.0773  0.0506 -0.3294
 3003TIP3    H1 8973   5.909   2.146   5.078 -0.5517  0.1236  0.1856
 3003TIP3    H2 8974   6.043   2.212   5.101 -0.0573 -0.5069 -0.7959
 3004TIP3   OH2 8975   2.676   3.791   4.354  0.0173 -0.0481  0.2304
 3004TIP3    H1 8976   2.674   3.732   4.429 -0.6221  1.6911  1.6368
 3004TIP3    H2 8977   2.698   3.876   4.390 -0.6311  0.9171 -1.5075
 3005TIP3   OH2 8978   0.071   4.671   0.887  0.5403 -0.9227  0.3541
 3005TIP3    H1 8979   0.030   4.755   0.908  0.2959 -1.4417  2.1361
 3005TIP3    H2 8980   0.164   4.684   0.906  0.3464 -1.3379  1.6949
 3006TIP3   OH2 8981   1.848   6.415   0.908 -0.3331  0.0771  0.4883
 3006TIP3    H1 8982   1.772   6.360   0.892  0.9361 -1.9028  0.8298
 3006TIP3    H2 8983   1.882   6.436   0.821 -0.1694 -0.6996  0.3598
 3007TIP3   OH2 8984   0.392   3.668   0.612 -0.0928 -0.2876  0.2989
 3007TIP3    H1 8985   0.407   3.585   0.657  1.8508  0.5429  1.3059
 3007TIP3    H2 8986   0.417   3.735   0.676  0.4557  1.0063 -1.2000
 3008TIP3   OH2 8987   3.273   4.572   3.680 -0.2003 -0.3457 -0.2673
 3008TIP3    H1 8988   3.203   4.607   3.735  1.1760  1.9994  0.1282
 3008TIP3    H2 8989   3.267   4.478   3.691 -1.4401 -0.0743  2.0505
 3009TIP3   OH2 8990   0.465   0.930   3.551 -0.3678  1.0396 -0.5056
 3009TIP3    H1 8991   0.465   1.003   3.613  1.5276  2.1592 -1.7351
 3009TIP3    H2 8992   0.395   0.873   3.582 -0.8655  2.5809  1.4271
 3010TIP3   OH2 8993   6.870   0.829   5.374  0.5097 -0.0853  0.4214
 3010TIP3    H1 8994   6.857   0.802   5.283  1.2458  0.7197  0.0648
 3010TIP3    H2 8995   6.842   0.753   5.425 -2.0561  0.2093 -0.3671
 3011TIP3   OH2 8996   5.795   1.018   0.095  0.3983  0.0874  0.1405
 3011TIP3    H1 8997   5.837   1.011   0.009  0.9102  0.4598  0.3538
 3011TIP3    H2 8998   5.847   0.962   0.152 -0.8637 -1.4146 -0.1060
 3012TIP3   OH2 8999   0.854   1.890   3.607  0.3745 -0.2540  0.6093
 3012TIP3    H1 9000   0.771   1.938   3.607 -0.6049 -1.8004  2.4500
 3012TIP3    H2 9001   0.847   1.829   3.534  0.5498  0.6202 -0.1558
 3013TIP3   OH2 9002   0.468   6.649   4.170 -0.0002 -0.1373  0.0314
 3013TIP3    H1 9003   0.526   6.641   4.095 -0.3812 -1.4343 -0.1354
 3013TIP3    H2 9004   0.448   6.743   4.174  3.5333  0.7389  1.1976
 3014TIP3   OH2 9005   5.115   2.995   3.098 -0.2823 -0.9630  0.0375
 3014TIP3    H1 9006   5.097   3.027   3.010  1.7654  0.0647 -0.0431
 3014TIP3    H2 9007   5.036   3.017   3.148  0.0846  2.1849 -0.5737
 3015TIP3   OH2 9008   6.919   4.263   1.337  0.4162 -0.5316 -0.3461
 3015TIP3    H1 9009   7.004   4.250   1.379  0.5923 -0.2633 -0.6124
 3015TIP3    H2 9010   6.855   4.240   1.404  0.7006 -1.2228 -0.3038
 3016TIP3   OH2 9011   5.705   2.773   4.337 -0.2458 -0.1374 -0.3787
 3016TIP3    H1 9012   5.634   2.831   4.365  0.8155  0.2343  1.7657
 3016TIP3    H2 9013   5.784   2.820   4.361  0.7518 -0.6936 -2.4221
 3017TIP3   OH2 9014   1.341   5.074   2.637  0.6852 -0.1454 -0.5122
 3017TIP3    H1 9015   1.375   5.161   2.614  0.6499 -0.6697 -2.6856
 3017TIP3    H2 9016   1.415   5.031   2.680  0.5229  1.1274  1.1645
 3018TIP3   OH2 9017   6.605   4.178   5.186  0.3649 -0.1312  0.4672
 3018TIP3    H1 9018   6.661   4.255   5.192  0.9848 -0.6094  0.9942
 3018TIP3    H2 9019   6.517   4.213   5.172  0.2951  0.7975  2.7065
 3019TIP3   OH2 9020   1.912   6.069   3.295 -0.0898  0.3542  0.5044
 3019TIP3    H1 9021   1.917   5.989   3.244 -0.9799  0.2221  0.6134
 3019TIP3    H2 9022   1.901   6.139   3.230 -2.1343  0.1019  0.5101
 3020TIP3   OH2 9023   5.195   1.736   2.158  0.0228  0.4484  0.2539
 3020TIP3    H1 9024   5.235   1.662   2.111  1.0373  1.2716 -0.2024
 3020TIP3    H2 9025   5.265   1.770   2.213 -0.1194  1.7358 -0.3375
 3021TIP3   OH2 9026   0.386   3.735   2.099  0.6328 -0.1609  0.2220
 3021TIP3    H1 9027   0.449   3.712   2.167  1.0648 -1.0869 -0.4692
 3021TIP3    H2 9028   0.409   3.824   2.074  0.4508  0.2042  1.2934
 3022TIP3   OH2 9029   1.257   1.132   4.871  0.4005 -0.2393  0.0046
 3022TIP3    H1 9030   1.352   1.139   4.862  0.5035 -0.4568  0.8516
 3022TIP3    H2 9031   1.241   1.132   4.965 -0.5843  1.6517 -0.1216
 3023TIP3   OH2 9032   4.425   5.378   4.049 -0.3752  0.2895  0.1521
 3023TIP3    H1 9033   4.472   5.400   4.129 -0.0476  0.3354 -0.0470
 3023TIP3    H2 9034   4.494   5.356   3.986 -0.5101  1.9758 -0.6493
 3024TIP3   OH2 9035   4.892   2.809   2.967 -0.2090  0.1502 -0.2204
 3024TIP3    H1 9036   4.948   2.731   2.962  0.0208  0.3075 -0.1359
 3024TIP3    H2 9037   4.944   2.879   2.927  0.2478  0.6190  1.1280
 3025TIP3   OH2 9038   3.292   1.412   5.493  0.0086 -0.0955 -0.2325
 3025TIP3    H1 9039   3.301   1.498   5.454  1.8689 -0.5671 -0.9556
 3025TIP3    H2 9040   3.369   1.363   5.462 -0.3830 -1.6406  1.0775
 3026TIP3   OH2 9041   5.231   4.755   1.203  0.6564 -0.2918 -0.0566
 3026TIP3    H1 9042   5.234   4.818   1.274 -0.5875 -0.5866  0.2912
 3026TIP3    H2 9043   5.227   4.670   1.246  1.2448 -0.5559 -0.5048
 3027TIP3   OH2 9044   1.695   3.490   2.589  0.0719  0.0287  0.1510
 3027TIP3    H1 9045   1.746   3.516   2.512  0.5129 -1.0279  0.0674
 3027TIP3    H2 9046   1.623   3.438   2.553  1.3859 -2.2038  0.5222
 3028TIP3   OH2 9047   6.939   4.138   4.646 -0.2197 -0.2099  0.1103
 3028TIP3    H1 9048   7.014   4.099   4.691  0.7272  0.5097 -0.7764
 3028TIP3    H2 9049   6.864   4.084   4.671  0.4090 -0.3131  1.8566
 3029TIP3   OH2 9050   1.356   4.301   3.839 -0.5378  0.2584  0.1705
 3029TIP3    H1 9051   1.311   4.376   3.877 -1.2774 -0.5735  0.9722
 3029TIP3    H2 9052   1.415   4.339   3.774 -0.0077  1.6193  1.4078
 3030TIP3   OH2 9053   0.093   0.798   2.606 -0.3561 -0.3849  0.3712
 3030TIP3    H1 9054   0.180   0.771   2.635 -0.8095  0.1711  2.3833
 3030TIP3    H2 9055   0.110   0.873   2.549  0.4999 -0.5190  0.4265
 3031TIP3   OH2 9056   4.173   4.898   5.409 -0.3411  0.3924  0.3465
 3031TIP3    H1 9057   4.105   4.849   5.455  1.4913 -0.2549  2.5810
 3031TIP3    H2 9058   4.131   4.929   5.329 -2.6978 -1.5104  0.7368
 3032TIP3   OH2 9059   4.703   1.500   0.571  0.2567  0.0984  0.1387
 3032TIP3    H1 9060   4.755   1.580   0.576  1.8071 -0.9406  1.8680
 3032TIP3    H2 9061   4.752   1.436   0.623 -2.6327 -1.0498  1.6440
 3033TIP3   OH2 9062   3.989   3.045   5.782 -0.1237  0.3646  0.0406
 3033TIP3    H1 9063   3.901   3.023   5.750 -0.9347 -0.7829  2.8032
 3033TIP3    H2 9064   4.001   3.137   5.759 -1.5946  0.2746 -1.2776
 3034TIP3   OH2 9065   6.065   2.254   0.683  0.2124  0.3244 -0.2088
 3034TIP3    H1 9066   5.995   2.201   0.644 -1.2465  1.2861  1.0023
 3034TIP3    H2 9067   6.081   2.324   0.619  0.1717  0.0291 -0.5456
 3035TIP3   OH2 9068   1.500   2.455   1.377  0.3632 -0.7689 -0.7657
 3035TIP3    H1 9069   1.556   2.384   1.348  1.1165  0.0958 -1.4962
 3035TIP3    H2 9070   1.530   2.475   1.466  0.0411 -1.4510 -0.4958
 3036TIP3   OH2 9071   6.446   5.854   0.070  0.4271  0.3552  0.1848
 3036TIP3    H1 9072   6.533   5.891   0.055  1.3878 -1.9490 -0.3483
 3036TIP3    H2 9073   6.388   5.902   0.012  0.8758  3.3896  2.0532
 3037TIP3   OH2 9074   4.762   0.149   0.398  0.2314 -0.3865 -0.6727
 3037TIP3    H1 9075   4.756   0.090   0.323 -1.5533 -0.9504 -0.1420
 3037TIP3    H2 9076   4.723   0.230   0.367  0.0203 -0.4361 -0.5404
 3038TIP3   OH2 9077   4.185   0.196   1.698  0.2554  0.1451 -0.3062
 3038TIP3    H1 9078   4.103   0.163   1.733  0.1550  0.9020  0.1958
 3038TIP3    H2 9079   4.172   0.195   1.603 -1.1645  2.2273 -0.2089
 3039TIP3   OH2 9080   2.062   3.068   0.377 -0.2182  0.1058 -0.2850
 3039TIP3    H1 9081   1.994   3.094   0.439 -0.6431 -0.9896 -0.2671
 3039TIP3    H2 9082   2.032   2.984   0.343  1.5609 -0.8400  0.3860
 3040TIP3   OH2 9083   1.337   3.723   5.721  0.0597  0.2698 -0.2891
 3040TIP3    H1 9084   1.305   3.638   5.751 -0.7029  0.1104 -1.4896
 3040TIP3    H2 9085   1.334   3.779   5.799 -0.7371 -0.4297  0.2006
 3041TIP3   OH2 9086   6.608   0.933   5.491 -0.1264 -0.4627 -0.2462
 3041TIP3    H1 9087   6.627   0.891   5.407 -1.9011  0.0490 -0.9522
 3041TIP3    H2 9088   6.582   0.861   5.548 -2.0052 -0.5352 -1.1070
 3042TIP3   OH2 9089   2.694   5.110   4.159  0.7699  0.0811 -0.6450
 3042TIP3    H1 9090   2.687   5.035   4.219  0.0912  0.5485 -0.1241
 3042TIP3    H2 9091   2.652   5.182   4.206  0.2849  0.4776 -1.6580
 3043TIP3   OH2 9092   5.164   1.417   5.437  0.2069 -0.4637  0.1287
 3043TIP3    H1 9093   5.153   1.381   5.526  4.2021 -2.1022  0.1591
 3043TIP3    H2 9094   5.179   1.511   5.451 -0.8017 -0.4106  0.9892
 3044TIP3   OH2 9095   2.679   2.733   3.808 -0.1921  0.5066  0.0632
 3044TIP3    H1 9096   2.751   2.790   3.784  1.0586 -0.9464  0.1909
 3044TIP3    H2 9097   2.659   2.685   3.728  0.8285 -0.9889  0.6427
 3045TIP3   OH2 9098   4.536   1.113   5.857  0.7504 -0.0323  0.3594
 3045TIP3    H1 9099   4.500   1.192   5.897 -1.7553 -0.1559 -1.4142
 3045TIP3    H2 9100   4.475   1.044   5.883  1.6758 -0.9663  0.0924
 3046TIP3   OH2 9101   6.287   0.914   3.616  0.0629 -0.0393  0.6411
 3046TIP3    H1 9102   6.365   0.918   3.560 -0.5865 -2.9952 -0.6917
 3046TIP3    H2 9103   6.302   0.836   3.670 -1.9729 -0.7223  0.2823
 3047TIP3   OH2 9104   2.740   2.792   5.728  0.1422  0.2089  0.7949
 3047TIP3    H1 9105   2.803   2.819   5.661 -0.9080 -0.1430 -0.3840
 3047TIP3    H2 9106   2.666   2.755   5.678 -0.3933 -0.6787  2.1726
 3048TIP3   OH2 9107   5.885   6.743   2.622 -0.0051 -0.0921  0.8092
 3048TIP3    H1 9108   5.856   6.834   2.627 -0.4301 -0.1313 -0.5134
 3048TIP3    H2 9109   5.950   6.742   2.551 -2.0374 -1.2615 -1.1879
 3049TIP3   OH2 9110   6.028   3.015   2.387  0.4188 -0.4303 -0.2016
 3049TIP3    H1 9111   5.944   3.055   2.366  0.1265 -1.6410 -1.5319
 3049TIP3    H2 9112   6.010   2.961   2.464  0.0582 -0.3772 -0.2451
 3050TIP3   OH2 9113   2.433   3.512   2.251  0.4983  0.0279 -0.0825
 3050TIP3    H1 9114   2.384   3.496   2.331 -0.8338  1.2792 -0.6048
 3050TIP3    H2 9115   2.427   3.607   2.238  3.7395  0.4111  0.2350
 3051TIP3   OH2 9116   4.777   2.050   5.033  0.5074 -0.3129  0.3877
 3051TIP3    H1 9117   4.737   2.086   5.112 -0.2846  0.2316 -0.2423
 3051TIP3    H2 9118   4.774   2.122   4.970 -0.8504 -1.3710 -0.8136
 3052TIP3   OH2 9119   4.427   3.414   5.225 -0.7904  0.1600  0.3722
 3052TIP3    H1 9120   4.469   3.498   5.205  0.3377 -0.6551 -0.8829
 3052TIP3    H2 9121   4.366   3.400   5.153  0.8933 -1.2527 -0.8657
 3053TIP3   OH2 9122   6.512   1.625   2.046  0.8280 -0.6277  0.4524
 3053TIP3    H1 9123   6.493   1.670   2.128  0.5427  1.2375 -0.5685
 3053TIP3    H2 9124   6.426   1.611   2.006  1.0558  0.2347 -0.3768
 3054TIP3   OH2 9125   1.224   3.622   3.515 -0.7309  0.8084 -0.3937
 3054TIP3    H1 9126   1.318   3.603   3.518 -0.8601 -0.2517 -1.8701
 3054TIP3    H2 9127   1.208   3.647   3.424 -2.3328 -1.8977 -0.9942
 3055TIP3   OH2 9128   2.661   2.122   2.695 -0.7221  0.0771  0.1824
 3055TIP3    H1 9129   2.719   2.051   2.670 -1.6178  0.0795 -2.1231
 3055TIP3    H2 9130   2.712   2.202   2.681 -0.6383 -0.0013  0.0453
 3056TIP3   OH2 9131   6.875   1.535   3.594  0.1267 -0.0678  0.2751
 3056TIP3    H1 9132   6.950   1.540   3.534  0.2721 -0.4613  0.4203
 3056TIP3    H2 9133   6.913   1.535   3.681 -0.1168  1.0935  0.3975
 3057TIP3   OH2 9134   3.346   6.663   4.210  0.0173  0.4549  0.0087
 3057TIP3    H1 9135   3.420   6.619   4.169  0.2391 -0.0616  0.9320
 3057TIP3    H2 9136   3.275   6.656   4.146  0.0296 -1.3107  0.1551
 3058TIP3   OH2 9137   4.053   4.275   0.056  0.1918  0.2870 -0.0870
 3058TIP3    H1 9138   4.034   4.262  -0.037  0.8814  2.2564 -0.5580
 3058TIP3    H2 9139   3.966   4.281   0.097 -0.1270  0.0393 -0.7130
 3059TIP3   OH2 9140   4.988   5.650   0.123  0.0507  0.1388  0.3509
 3059TIP3    H1 9141   4.942   5.733   0.137 -1.8705 -0.6664 -0.7576
 3059TIP3    H2 9142   5.028   5.630   0.207  0.1571  1.9508  0.7638
 3060TIP3   OH2 9143   2.691   2.296   3.201  0.3008 -0.2604  0.7043
 3060TIP3    H1 9144   2.625   2.251   3.149  1.5351 -0.7121 -0.5683
 3060TIP3    H2 9145   2.772   2.248   3.184  1.6045  2.0983 -0.3910
 3061TIP3   OH2 9146   3.005   3.484   1.286 -0.4574 -0.1186  0.3766
 3061TIP3    H1 9147   3.048   3.440   1.213  0.2339 -0.4430  0.9706
 3061TIP3    H2 9148   3.008   3.420   1.357  1.2668  1.1380  1.5094
 3062TIP3   OH2 9149   5.133   0.613   0.084 -0.2495  0.1383 -0.6759
 3062TIP3    H1 9150   5.186   0.631   0.006 -0.7471  0.7275 -0.8865
 3062TIP3    H2 9151   5.045   0.598   0.050 -0.4296  0.2055 -0.2480
 3063TIP3   OH2 9152   7.081   3.526   0.492 -0.1012 -0.4120  0.4424
 3063TIP3    H1 9153   7.132   3.445   0.494  0.7951  0.1221  0.1956
 3063TIP3    H2 9154   7.125   3.584   0.554  0.5331  0.5725 -0.8488
 3064TIP3   OH2 9155   2.503   0.331   3.537  0.5281 -0.3878  0.5007
 3064TIP3    H1 9156   2.409   0.314   3.535  0.8020 -2.0222 -1.0834
 3064TIP3    H2 9157   2.521   0.353   3.629 -1.4989  0.8257  0.6617
 3065TIP3   OH2 9158   3.460   2.041   0.791 -0.0892 -0.2793 -0.0914
 3065TIP3    H1 9159   3.448   2.125   0.836  1.1270  0.0401 -0.3233
 3065TIP3    H2 9160   3.375   1.997   0.799 -0.4504  0.5540  0.8885
 3066TIP3   OH2 9161   2.442   4.863   0.233 -0.0586  0.4229 -0.3416
 3066TIP3    H1 9162   2.411   4.774   0.245 -0.3834  0.7468  1.5902
 3066TIP3    H2 9163   2.363   4.916   0.226  0.1072  0.7127 -0.0793
 3067TIP3   OH2 9164   5.493   4.278   1.169  0.4751 -0.6165  0.3429
 3067TIP3    H1 9165   5.441   4.216   1.118 -1.5966  1.6774 -0.5169
 3067TIP3    H2 9166   5.579   4.279   1.126 -1.0923  1.0399 -3.1408
 3068TIP3   OH2 9167   2.812   0.340   3.390  0.0187  0.8436 -0.3479
 3068TIP3    H1 9168   2.825   0.247   3.377 -1.7085  0.2854  1.4629
 3068TIP3    H2 9169   2.849   0.381   3.311  0.4440 -1.3704 -1.3614
 3069TIP3   OH2 9170   5.255   4.651   4.217  0.4954  0.2903 -0.1624
 3069TIP3    H1 9171   5.212   4.722   4.265  1.3493  0.2872  0.6272
 3069TIP3    H2 9172   5.186   4.586   4.204  0.2773  0.2120  1.2275
 3070TIP3   OH2 9173   7.051   5.905   0.971  0.2683 -0.4652  0.1981
 3070TIP3    H1 9174   7.072   5.946   1.055  1.0132  0.4803 -0.4334
 3070TIP3    H2 9175   7.099   5.822   0.972 -0.0095 -0.6213  0.8439
 3071TIP3   OH2 9176   1.455   1.948   0.550  0.6960  0.1929 -0.2436
 3071TIP3    H1 9177   1.455   1.906   0.464  0.4589  0.0290 -0.1669
 3071TIP3    H2 9178   1.377   1.912   0.593  0.4982  0.6961 -0.1686
 3072TIP3   OH2 9179   5.755   1.573   4.705  0.3009 -1.1447 -0.1760
 3072TIP3    H1 9180   5.803   1.555   4.624  0.7099 -1.2748  0.0914
 3072TIP3    H2 9181   5.785   1.505   4.766  1.0815 -0.1912  0.5235
 3073TIP3   OH2 9182   3.649   6.714   5.523  0.3658 -0.2682  0.1828
 3073TIP3    H1 9183   3.663   6.739   5.432  0.4992 -1.9968 -0.3026
 3073TIP3    H2 9184   3.565   6.668   5.523  1.7918 -3.0712  0.2693
 3074TIP3   OH2 9185   4.179   1.270   1.433  0.4305 -0.5185  0.0377
 3074TIP3    H1 9186   4.149   1.307   1.516  1.0680 -1.5631  0.7497
 3074TIP3    H2 9187   4.099   1.251   1.385  0.0434 -0.3298  0.5980
 3075TIP3   OH2 9188   2.155   5.518   0.144 -0.0261  0.1133  0.4184
 3075TIP3    H1 9189   2.129   5.448   0.084 -1.7122 -0.2613  1.5087
 3075TIP3    H2 9190   2.225   5.479   0.197  0.2486 -0.1486 -0.1304
 3076TIP3   OH2 9191   6.215   0.547   2.692  0.1739 -0.1777  0.2695
 3076TIP3    H1 9192   6.225   0.612   2.762 -1.9698  0.1320  0.3775
 3076TIP3    H2 9193   6.233   0.596   2.612 -2.3934  0.9307  0.2687
 3077TIP3   OH2 9194   4.021   5.257   5.051 -0.0975 -0.0879 -0.7762
 3077TIP3    H1 9195   3.984   5.344   5.034 -0.1732  0.0646  0.0873
 3077TIP3    H2 9196   4.035   5.219   4.965 -1.8246  0.0439 -1.1575
 3078TIP3   OH2 9197   1.970   1.181   1.664  0.1223 -0.1417 -0.0271
 3078TIP3    H1 9198   1.944   1.212   1.577  1.3401  0.0932 -0.3220
 3078TIP3    H2 9199   1.981   1.261   1.716 -1.4752 -0.3002  0.6431
 3079TIP3   OH2 9200   0.445   6.373   3.722 -0.8444 -0.4973 -0.3725
 3079TIP3    H1 9201   0.506   6.312   3.762 -0.0602  1.0200  0.8758
 3079TIP3    H2 9202   0.375   6.383   3.786 -2.2673 -1.9042 -1.6166
 3080TIP3   OH2 9203   5.632   6.334   3.577  0.0189  0.0669 -0.5031
 3080TIP3    H1 9204   5.723   6.313   3.555  0.1892  0.7143 -0.4181
 3080TIP3    H2 9205   5.585   6.322   3.494 -0.1533 -2.0411 -0.1540
 3081TIP3   OH2 9206   0.218   0.082   0.977 -0.0248 -0.1429  0.0743
 3081TIP3    H1 9207   0.304   0.071   0.938 -0.2813  0.0922 -0.5787
 3081TIP3    H2 9208   0.162   0.022   0.928 -0.0850 -0.8646  1.0096
 3082TIP3   OH2 9209   3.674   1.635   4.436  0.2571  0.5115  0.6599
 3082TIP3    H1 9210   3.742   1.581   4.475 -1.0895 -0.6577  1.4761
 3082TIP3    H2 9211   3.593   1.608   4.480 -0.9265  1.0074 -1.0944
 3083TIP3   OH2 9212   1.991   5.496   0.752 -0.1097 -0.2694 -0.2571
 3083TIP3    H1 9213   2.009   5.402   0.760  0.5873 -0.1202  0.0358
 3083TIP3    H2 9214   2.047   5.536   0.818 -1.1245  0.2859  0.2810
 3084TIP3   OH2 9215   2.711   5.208   5.304  0.5130  0.0768 -0.5457
 3084TIP3    H1 9216   2.798   5.234   5.332  0.2330 -0.1683  0.6369
 3084TIP3    H2 9217   2.657   5.216   5.383 -0.3737 -0.4538 -1.0745
 3085TIP3   OH2 9218   1.467   5.719   1.537 -0.0072 -0.1798  0.1065
 3085TIP3    H1 9219   1.557   5.686   1.540  0.1784  0.1291 -1.2686
 3085TIP3    H2 9220   1.428   5.674   1.462 -1.2451 -0.8635  1.1300
 3086TIP3   OH2 9221   1.130   6.350   1.585 -0.0913  0.1668 -0.4025
 3086TIP3    H1 9222   1.100   6.279   1.527  1.2687 -1.3461  0.6470
 3086TIP3    H2 9223   1.092   6.328   1.670  1.0941  0.1603  0.1437
 3087TIP3   OH2 9224   5.757   1.904   4.497 -0.5857 -0.0102 -0.4474
 3087TIP3    H1 9225   5.678   1.958   4.502 -0.4914  0.1221 -0.3808
 3087TIP3    H2 9226   5.729   1.825   4.451 -1.2582 -0.8717  1.3433
 3088TIP3   OH2 9227   0.075   3.554   0.978  0.4438 -0.0581 -0.1673
 3088TIP3    H1 9228   0.115   3.486   0.923  0.8096  1.4274 -1.8469
 3088TIP3    H2 9229   0.147   3.588   1.031 -0.0493 -1.9911  1.8998
 3089TIP3   OH2 9230   6.464   6.633   1.902 -0.0236  0.4130 -0.6255
 3089TIP3    H1 9231   6.520   6.654   1.827  1.1202  1.0470  0.3781
 3089TIP3    H2 9232   6.502   6.681   1.975 -2.6551  1.9421 -0.1476
 3090TIP3   OH2 9233   3.042   5.227   0.864 -0.1441  0.2143  0.6190
 3090TIP3    H1 9234   3.133   5.206   0.883 -0.2539 -0.4825  0.3935
 3090TIP3    H2 9235   2.993   5.191   0.937 -0.2461  0.5732  0.7314
 3091TIP3   OH2 9236   1.555   2.328   3.514  0.2472  0.2754  0.4475
 3091TIP3    H1 9237   1.549   2.314   3.608  1.0078  0.4697  0.5286
 3091TIP3    H2 9238   1.542   2.422   3.503  1.1477  0.4050  0.4530
 3092TIP3   OH2 9239   5.482   5.895   1.047 -0.8994 -0.3324  0.5711
 3092TIP3    H1 9240   5.450   5.907   1.137 -0.7322  0.3729  0.5405
 3092TIP3    H2 9241   5.495   5.800   1.039 -0.0972 -0.3264  1.5784
 3093TIP3   OH2 9242   1.246   2.511   1.340  0.4483 -0.3398  1.4957
 3093TIP3    H1 9243   1.331   2.473   1.360 -0.2156 -1.2771  2.6249
 3093TIP3    H2 9244   1.247   2.597   1.383  0.4701 -0.7400  2.2925
 3094TIP3   OH2 9245   4.630   2.546   2.634 -0.3799 -0.5098  0.1448
 3094TIP3    H1 9246   4.588   2.596   2.564  0.6461  0.2333  0.0342
 3094TIP3    H2 9247   4.648   2.460   2.595 -0.1671 -0.2292 -0.3866
 3095TIP3   OH2 9248   5.167   5.898   2.965 -0.1144  0.0651 -0.2099
 3095TIP3    H1 9249   5.181   5.847   2.885 -0.9574  0.8452 -0.8929
 3095TIP3    H2 9250   5.072   5.902   2.974 -0.0307 -0.7908  1.3774
 3096TIP3   OH2 9251   6.514   4.507   2.087  0.5316  0.3542 -0.0223
 3096TIP3    H1 9252   6.512   4.544   2.175 -1.4816 -0.6478  0.4123
 3096TIP3    H2 9253   6.431   4.534   2.047  0.3606 -1.1282 -0.7435
 3097TIP3   OH2 9254   6.263   6.429   1.967  0.6335  0.2456  0.1196
 3097TIP3    H1 9255   6.275   6.475   2.050 -1.6915  2.7127 -0.7798
 3097TIP3    H2 9256   6.335   6.461   1.912  0.9735  0.2047  0.5329
 3098TIP3   OH2 9257   7.166   6.083   5.358  0.1553 -0.1319 -0.1163
 3098TIP3    H1 9258   7.228   6.025   5.314  0.8209 -0.5359  1.3039
 3098TIP3    H2 9259   7.101   6.025   5.396 -1.6953  0.3293 -2.3483
 3099TIP3   OH2 9260   4.800   3.984   5.199  0.1270 -0.1904 -0.3052
 3099TIP3    H1 9261   4.733   4.049   5.222 -0.8192 -0.9938 -0.7432
 3099TIP3    H2 9262   4.813   3.933   5.279 -1.5768 -1.5806 -0.8508
 3100TIP3   OH2 9263   6.002   1.903   2.953  0.1052  0.2472  0.2514
 3100TIP3    H1 9264   6.010   1.966   3.024 -0.5374 -0.7256  1.2085
 3100TIP3    H2 9265   5.920   1.858   2.970  1.3681 -2.0433  0.5869
 3101TIP3   OH2 9266   2.089   1.333   0.944  0.0230  0.2403 -0.2497
 3101TIP3    H1 9267   2.143   1.281   1.003  0.8283  3.0395  1.6479
 3101TIP3    H2 9268   2.152   1.381   0.890 -0.6355  0.9405 -0.4101
 3102TIP3   OH2 9269   1.112   0.030   1.032  0.2399  0.4677  0.0235
 3102TIP3    H1 9270   1.038   0.007   1.089 -0.4692  1.0499 -0.6321
 3102TIP3    H2 9271   1.187   0.035   1.091 -0.3993  0.6281  0.8458
 3103TIP3   OH2 9272   5.839   5.180   4.959  0.0052  0.3005 -0.1020
 3103TIP3    H1 9273   5.748   5.204   4.946  0.2503  1.4986  0.2429
 3103TIP3    H2 9274   5.860   5.121   4.887 -0.5873  1.3187 -1.1347
 3104TIP3   OH2 9275   4.831   3.489   0.660 -0.2040 -0.1272  0.0529
 3104TIP3    H1 9276   4.778   3.436   0.720  0.7393 -0.8486  0.2724
 3104TIP3    H2 9277   4.795   3.469   0.573 -0.1917 -0.7517  0.1825
 3105TIP3   OH2 9278   0.948   1.306   1.163  0.3179  0.0811 -0.3599
 3105TIP3    H1 9279   0.886   1.235   1.150 -0.2708  0.2689  1.2155
 3105TIP3    H2 9280   1.024   1.265   1.203  0.3356  0.1997 -0.2711
 3106TIP3   OH2 9281   2.643   1.963   4.854 -0.4204  0.9264 -0.3020
 3106TIP3    H1 9282   2.582   1.984   4.784 -0.6037 -1.5825 -1.0194
 3106TIP3    H2 9283   2.604   1.885   4.896  1.6865 -0.0726 -0.0668
 3107TIP3   OH2 9284   7.045   1.311   4.918  0.4220  0.0337  0.1521
 3107TIP3    H1 9285   7.123   1.329   4.971 -1.2353  0.3956  2.6452
 3107TIP3    H2 9286   7.051   1.218   4.897  1.8194  0.1904 -0.2739
 3108TIP3   OH2 9287   2.541   3.787   2.028  0.5320  0.1632  0.1350
 3108TIP3    H1 9288   2.606   3.718   2.040 -0.2769 -0.6232  0.1077
 3108TIP3    H2 9289   2.586   3.867   2.055  2.3775  0.0640 -2.3673
 3109TIP3   OH2 9290   4.519   0.631   1.573  0.1019  0.4293  0.1986
 3109TIP3    H1 9291   4.489   0.690   1.504 -1.2218  0.3528  0.6798
 3109TIP3    H2 9292   4.466   0.552   1.562  0.1605  0.2591  1.0549
 3110TIP3   OH2 9293   3.961   6.217   5.769  0.0106  0.7225  0.1227
 3110TIP3    H1 9294   4.015   6.283   5.727  1.3077 -1.0654 -1.1719
 3110TIP3    H2 9295   3.913   6.176   5.697  0.4429 -0.7859  0.6536
 3111TIP3   OH2 9296   5.775   4.840   2.772  0.4333  0.3530  0.5731
 3111TIP3    H1 9297   5.750   4.922   2.730  0.8768  1.1314  1.7537
 3111TIP3    H2 9298   5.863   4.823   2.741  0.1325  0.0088 -0.1118
 3112TIP3   OH2 9299   1.212   1.025   2.493 -0.1314  0.1375 -0.4646
 3112TIP3    H1 9300   1.241   0.971   2.421 -1.7046 -0.8120 -0.4334
 3112TIP3    H2 9301   1.273   1.006   2.564 -0.6152 -1.5893 -0.4681
 3113TIP3   OH2 9302   6.087   3.018   1.001 -0.3230  0.2181  0.1414
 3113TIP3    H1 9303   6.038   3.015   1.083  0.0071  0.8408  0.3693
 3113TIP3    H2 9304   6.121   2.929   0.990 -0.9025 -0.0294  0.3483
 3114TIP3   OH2 9305   1.361   5.355   4.979 -0.8650  0.0280  0.1164
 3114TIP3    H1 9306   1.293   5.359   4.912  0.1855 -0.1096 -0.9844
 3114TIP3    H2 9307   1.429   5.414   4.947  0.3383 -1.2375  0.2559
 3115TIP3   OH2 9308   5.861   1.896   0.187 -0.5512  0.5432  0.4302
 3115TIP3    H1 9309   5.799   1.909   0.258 -1.5602  1.4796 -0.5702
 3115TIP3    H2 9310   5.842   1.967   0.126  1.3702  0.7223 -0.0235
 3116TIP3   OH2 9311   2.839   0.087   5.719  0.1271  0.1483 -0.1255
 3116TIP3    H1 9312   2.793   0.022   5.773 -0.5678 -0.0995 -1.0017
 3116TIP3    H2 9313   2.770   0.145   5.687  0.8840  2.3418  1.9342
 3117TIP3   OH2 9314   3.944   0.906   5.225 -0.3559  0.2833 -0.2627
 3117TIP3    H1 9315   3.849   0.916   5.223 -0.3197  0.7006  0.0204
 3117TIP3    H2 9316   3.958   0.813   5.243 -0.7240  0.5411  1.5452
 3118TIP3   OH2 9317   1.005   6.049   5.049  0.0193 -0.2752  0.3166
 3118TIP3    H1 9318   0.930   6.091   5.092  0.2165 -0.8782  1.2843
 3118TIP3    H2 9319   1.013   6.093   4.965 -0.3517  0.9772  0.9252
 3119TIP3   OH2 9320   2.695   1.922   1.524  0.1908  0.1763  0.0498
 3119TIP3    H1 9321   2.655   1.847   1.481  0.6123 -0.7296  1.1761
 3119TIP3    H2 9322   2.701   1.896   1.616  0.6931  1.4474  0.3949
 3120TIP3   OH2 9323   3.570   1.080   5.353  0.4758 -0.3809 -0.4453
 3120TIP3    H1 9324   3.551   1.049   5.441  1.9218  1.2606  0.5237
 3120TIP3    H2 9325   3.614   1.007   5.310  0.7460 -0.8277  0.5762
 3121TIP3   OH2 9326   4.705   0.243   4.909  0.3100  0.1228  0.1337
 3121TIP3    H1 9327   4.704   0.332   4.873  0.6143  0.0043 -0.1717
 3121TIP3    H2 9328   4.794   0.211   4.892  0.1273 -0.3313  0.0121
 3122TIP3   OH2 9329   0.052   6.456   3.398 -0.0537  0.2393 -0.2767
 3122TIP3    H1 9330   0.140   6.492   3.396 -0.6389  1.7012 -0.5882
 3122TIP3    H2 9331   0.017   6.472   3.311 -0.6662 -0.2466 -0.1318
 3123TIP3   OH2 9332   0.245   6.565   5.451  0.3141 -0.1647  0.4417
 3123TIP3    H1 9333   0.315   6.597   5.508  0.9422 -1.0964  0.2221
 3123TIP3    H2 9334   0.165   6.580   5.500  0.5017  2.2321  0.1201
 3124TIP3   OH2 9335   6.644   6.226   1.624  0.5607 -0.4145  0.4269
 3124TIP3    H1 9336   6.737   6.206   1.607 -0.0372 -2.1189 -1.2229
 3124TIP3    H2 9337   6.631   6.314   1.588  1.5735 -0.0735  0.8591
 3125TIP3   OH2 9338   4.231   0.271   3.040 -0.3508 -0.0146 -0.2811
 3125TIP3    H1 9339   4.200   0.268   3.131 -2.3773 -0.0936 -0.9276
 3125TIP3    H2 9340   4.171   0.213   2.993  1.5660 -1.1193 -1.4393
 3126TIP3   OH2 9341   3.772   6.628   0.021  0.1681  0.3069  0.6534
 3126TIP3    H1 9342   3.800   6.551   0.070 -0.8202 -0.9534 -0.6650
 3126TIP3    H2 9343   3.846   6.649  -0.036  0.9606  1.2101  1.9691
 3127TIP3   OH2 9344   4.081   2.013   5.855  0.8265  0.2978  0.3641
 3127TIP3    H1 9345   4.166   2.049   5.879  2.0750 -1.6017 -0.8849
 3127TIP3    H2 9346   4.074   1.932   5.905 -0.0959  0.2547  0.1884
 3128TIP3   OH2 9347   1.644   4.915   0.821  0.1597 -0.2970 -0.0695
 3128TIP3    H1 9348   1.587   4.839   0.813 -0.0551 -0.4054  1.9860
 3128TIP3    H2 9349   1.592   4.988   0.788 -0.2826 -0.7614 -0.4082
 3129TIP3   OH2 9350   2.672   5.539   1.427  0.1363  0.1662  0.4530
 3129TIP3    H1 9351   2.581   5.540   1.396  0.5781  1.8174 -1.0044
 3129TIP3    H2 9352   2.720   5.590   1.361  1.7169  1.3404  2.3766
 3130TIP3   OH2 9353   1.442   1.910   5.264 -0.2230  0.4794 -0.2399
 3130TIP3    H1 9354   1.417   1.945   5.349  0.4231  0.6562 -0.1230
 3130TIP3    H2 9355   1.379   1.839   5.249 -0.6760  0.7875  0.1364
 3131TIP3   OH2 9356   7.150   4.886   5.006 -0.7063 -0.2362  0.7188
 3131TIP3    H1 9357   7.214   4.849   5.066 -1.4844 -0.0064  1.7148
 3131TIP3    H2 9358   7.191   4.965   4.971  0.4065 -1.2343 -0.3460
 3132TIP3   OH2 9359   5.151   4.135   0.812  0.0139 -0.3799  0.7557
 3132TIP3    H1 9360   5.104   4.129   0.728 -1.7102  0.2255  1.6435
 3132TIP3    H2 9361   5.179   4.045   0.829 -0.2937 -0.6555 -0.1045
 3133TIP3   OH2 9362   0.466   1.497   3.353 -0.2537  0.4083 -0.0039
 3133TIP3    H1 9363   0.561   1.511   3.348 -0.1327  0.1466  1.1525
 3133TIP3    H2 9364   0.452   1.416   3.304  0.3667 -0.4232  1.1320
 3134TIP3   OH2 9365   1.651   4.840   5.281  0.1101 -0.0539  0.3426
 3134TIP3    H1 9366   1.590   4.882   5.221 -0.9376 -0.5337  1.0420
 3134TIP3    H2 9367   1.735   4.882   5.263  0.1085 -1.0081 -2.2796
 3135TIP3   OH2 9368   4.951   1.749   5.479 -0.2410 -0.3766 -0.0507
 3135TIP3    H1 9369   4.983   1.756   5.569 -2.0248 -0.3982  0.6123
 3135TIP3    H2 9370   5.006   1.681   5.439 -0.9004 -2.0306  1.7109
 3136TIP3   OH2 9371   5.138   2.396   4.801 -0.0605  0.4218  0.1108
 3136TIP3    H1 9372   5.141   2.387   4.896 -0.5674 -0.2523  0.0722
 3136TIP3    H2 9373   5.226   2.374   4.772 -0.3803 -1.3005  0.2998
 3137TIP3   OH2 9374   1.140   2.248   5.541  0.2325  0.3554  0.0100
 3137TIP3    H1 9375   1.126   2.335   5.503  0.2894 -0.2824 -1.5230
 3137TIP3    H2 9376   1.105   2.187   5.476 -2.2072 -0.7132  2.1494
 3138TIP3   OH2 9377   3.240   1.243   0.341  0.1358 -0.1418  0.3120
 3138TIP3    H1 9378   3.196   1.159   0.356  1.3472 -0.9387 -0.4782
 3138TIP3    H2 9379   3.330   1.228   0.368  0.2600  1.0651  0.6145
 3139TIP3   OH2 9380   0.354   4.452   3.839 -0.3419  0.1872  0.4060
 3139TIP3    H1 9381   0.387   4.533   3.877 -1.6658 -0.2796  2.6947
 3139TIP3    H2 9382   0.259   4.464   3.836 -0.5713 -1.3185  0.9544
 3140TIP3   OH2 9383   5.763   3.166   0.835  0.1294 -0.3479 -0.2795
 3140TIP3    H1 9384   5.699   3.105   0.801 -0.8261  0.7104 -0.4415
 3140TIP3    H2 9385   5.843   3.147   0.786 -0.4671 -0.6928 -1.1373
 3141TIP3   OH2 9386   4.915   3.400   2.713  0.0356 -0.0137 -0.1001
 3141TIP3    H1 9387   4.883   3.481   2.674  1.9173 -0.0194 -1.8117
 3141TIP3    H2 9388   5.009   3.398   2.692  0.4488 -1.6975  1.5889
 3142TIP3   OH2 9389   2.734   6.443   3.158 -0.3295 -0.2366  0.6078
 3142TIP3    H1 9390   2.658   6.432   3.100 -0.0159 -1.1494  0.3444
 3142TIP3    H2 9391   2.753   6.354   3.190 -0.8309  0.3074  2.5702
 3143TIP3   OH2 9392   3.108   3.302   5.189 -0.5803  0.3054 -0.4993
 3143TIP3    H1 9393   3.090   3.388   5.153 -0.0149  0.6005 -0.0842
 3143TIP3    H2 9394   3.025   3.255   5.181 -0.9267  0.9266 -0.6069
 3144TIP3   OH2 9395   5.706   0.382   3.754 -0.0960 -0.7560 -0.4455
 3144TIP3    H1 9396   5.614   0.404   3.738  0.4400  0.7982 -1.7296
 3144TIP3    H2 9397   5.753   0.424   3.682  1.7615 -0.2528  0.9851
 3145TIP3   OH2 9398   4.311   6.174   3.071 -0.4196 -0.0088 -0.0616
 3145TIP3    H1 9399   4.399   6.163   3.107 -0.7548 -0.6297  0.6059
 3145TIP3    H2 9400   4.319   6.247   3.010  0.2397  0.8833  1.0625
 3146TIP3   OH2 9401   5.867   6.415   1.090 -0.1806 -0.5679  0.2226
 3146TIP3    H1 9402   5.919   6.366   1.027 -0.5520 -1.4349  0.5845
 3146TIP3    H2 9403   5.825   6.483   1.038 -1.3653 -1.9430 -0.6911
 3147TIP3   OH2 9404   0.059   3.089   5.864  0.2052  0.0313  0.1364
 3147TIP3    H1 9405   0.087   3.065   5.776  4.3010  0.5027  1.1123
 3147TIP3    H2 9406  -0.032   3.117   5.853  0.7131  0.7605 -4.0560
 3148TIP3   OH2 9407   4.786   1.589   3.201 -0.2736 -0.5685  0.5331
 3148TIP3    H1 9408   4.699   1.548   3.205 -1.0371  0.6504 -1.9056
 3148TIP3    H2 9409   4.803   1.599   3.108 -0.6625  5.6046  0.7333
 3149TIP3   OH2 9410   3.351   3.438   2.549 -0.0763  0.0013 -0.4993
 3149TIP3    H1 9411   3.268   3.393   2.533  0.6309 -0.8216 -1.9986
 3149TIP3    H2 9412   3.361   3.498   2.476  0.8615 -0.2260 -0.5707
 3150TIP3   OH2 9413   3.228   4.788   5.323 -0.5040  0.2607  0.1883
 3150TIP3    H1 9414   3.195   4.794   5.233 -1.2125 -0.8661  0.3492
 3150TIP3    H2 9415   3.296   4.720   5.319 -0.1257  0.6223  0.3978
 3151TIP3   OH2 9416   5.326   5.880   3.900 -0.4357  0.4209 -0.0309
 3151TIP3    H1 9417   5.312   5.935   3.977 -0.2856  0.8548 -0.3169
 3151TIP3    H2 9418   5.296   5.793   3.928 -1.2623  0.7789  0.2054
 3152TIP3   OH2 9419   3.168   0.765   2.372 -0.2956 -0.1572  0.3180
 3152TIP3    H1 9420   3.106   0.789   2.441  0.4767 -1.4570  1.5209
 3152TIP3    H2 9421   3.206   0.683   2.402  2.3868  0.8418 -0.1191
 3153TIP3   OH2 9422   6.249   2.329   1.440 -0.0906  0.5073 -0.4040
 3153TIP3    H1 9423   6.248   2.236   1.415 -2.7982  0.3405  0.0405
 3153TIP3    H2 9424   6.212   2.331   1.529  0.2699  1.9887 -0.2552
 3154TIP3   OH2 9425   3.651   3.875   0.884  0.3917 -0.0161  0.1367
 3154TIP3    H1 9426   3.701   3.820   0.944  0.8853  0.0085 -0.2461
 3154TIP3    H2 9427   3.565   3.833   0.877  0.5984 -0.4530  0.2391
 3155TIP3   OH2 9428   4.211   3.278   5.050  0.1147  0.4289  0.0217
 3155TIP3    H1 9429   4.194   3.278   4.956  0.3288 -1.3591 -0.0358
 3155TIP3    H2 9430   4.286   3.220   5.061 -0.1881  0.2694  1.3534
 3156TIP3   OH2 9431   5.982   4.224   4.466 -0.6211  0.2618 -0.4778
 3156TIP3    H1 9432   5.947   4.159   4.406  0.0651  0.7267 -1.3988
 3156TIP3    H2 9433   5.944   4.201   4.551 -1.1546 -0.7402 -0.9732
 3157TIP3   OH2 9434   1.112   0.962   1.668  0.3261  0.4868 -0.3659
 3157TIP3    H1 9435   1.105   1.057   1.657 -1.6520  0.8136  2.4996
 3157TIP3    H2 9436   1.021   0.932   1.672  0.9036 -1.2744  0.4674
 3158TIP3   OH2 9437   0.556   3.553   3.481  0.9154  0.1919  0.3223
 3158TIP3    H1 9438   0.506   3.631   3.457  0.6619 -0.1002 -0.1255
 3158TIP3    H2 9439   0.502   3.509   3.547  0.1880 -0.5210 -0.7111
 3159TIP3   OH2 9440   5.255   0.993   1.786 -0.0866 -0.1833  0.1916
 3159TIP3    H1 9441   5.197   0.923   1.816 -0.6850 -0.0947 -0.6970
 3159TIP3    H2 9442   5.227   1.009   1.695  0.2382  1.0058  0.2895
 3160TIP3   OH2 9443   3.489   0.715   5.583 -0.4497 -0.4789 -0.1149
 3160TIP3    H1 9444   3.515   0.628   5.614 -1.6733 -0.6402  0.5273
 3160TIP3    H2 9445   3.456   0.700   5.494  1.2011 -0.3325 -0.7814
 3161TIP3   OH2 9446   2.057   2.266   4.178  0.0270 -0.1220  0.1245
 3161TIP3    H1 9447   2.011   2.329   4.122  0.2032 -0.0451  0.0656
 3161TIP3    H2 9448   2.145   2.262   4.142 -0.1847 -0.9641 -0.3288
 3162TIP3   OH2 9449   6.998   6.525   1.264 -0.2695  0.4132 -0.0537
 3162TIP3    H1 9450   6.966   6.518   1.353 -1.0664 -0.8329 -0.4168
 3162TIP3    H2 9451   7.023   6.617   1.255 -0.1508  0.5531  1.4412
 3163TIP3   OH2 9452   0.029   6.458   5.103  0.0929 -0.2068 -0.0533
 3163TIP3    H1 9453   0.055   6.530   5.045 -0.6977 -0.0746 -0.2568
 3163TIP3    H2 9454  -0.010   6.393   5.044 -1.0224  0.0685  0.3582
 3164TIP3   OH2 9455   6.002   6.437   5.575 -0.1021 -0.1256  0.1865
 3164TIP3    H1 9456   5.978   6.393   5.493 -1.0683  1.1840 -0.2625
 3164TIP3    H2 9457   5.995   6.530   5.555  0.5012  0.2244  1.5291
 3165TIP3   OH2 9458   5.675   3.529   1.681 -0.1075 -0.3033 -0.2215
 3165TIP3    H1 9459   5.762   3.488   1.682 -0.7474 -1.7377  1.2816
 3165TIP3    H2 9460   5.674   3.586   1.758 -0.4499 -0.1772 -0.3164
 3166TIP3   OH2 9461   1.501   5.030   1.387  0.1248  0.2059 -0.6930
 3166TIP3    H1 9462   1.567   5.014   1.454 -2.4165 -3.5976  1.2984
 3166TIP3    H2 9463   1.492   5.125   1.383  1.1754  0.6834  3.6811
 3167TIP3   OH2 9464   3.173   4.949   3.701 -0.1881 -0.1795 -0.0313
 3167TIP3    H1 9465   3.203   4.893   3.773 -1.8997 -0.3334  0.6044
 3167TIP3    H2 9466   3.239   4.936   3.632  0.9957 -0.7359  1.1494
 3168TIP3   OH2 9467   1.193   1.005   1.999 -0.4523  0.5030  0.1520
 3168TIP3    H1 9468   1.283   1.007   1.965 -1.0033  1.0544 -1.3429
 3168TIP3    H2 9469   1.154   1.088   1.970 -0.8558  1.2498  2.5560
 3169TIP3   OH2 9470   3.192   4.232   1.659  0.4848  0.5654  0.2109
 3169TIP3    H1 9471   3.116   4.289   1.672  1.0850  1.4168  0.0125
 3169TIP3    H2 9472   3.181   4.197   1.571  0.4626  0.8931  0.0837
 3170TIP3   OH2 9473   5.090   6.535   4.364  0.0489 -1.2074 -0.2011
 3170TIP3    H1 9474   5.149   6.489   4.424  0.4635 -2.1168 -1.2841
 3170TIP3    H2 9475   5.054   6.466   4.309 -1.3477 -0.5534 -0.1555
 3171TIP3   OH2 9476   6.963   4.155   3.318  0.3730 -0.0028  0.8049
 3171TIP3    H1 9477   7.033   4.152   3.383  1.1007  1.1938  0.1117
 3171TIP3    H2 9478   6.941   4.248   3.311 -1.5790 -0.3819  1.2911
 3172TIP3   OH2 9479   4.112   6.431   2.021 -0.3112  0.4608 -0.1004
 3172TIP3    H1 9480   4.106   6.519   2.057  2.5823  0.9079 -0.4627
 3172TIP3    H2 9481   4.086   6.440   1.930 -0.5408  0.8423  0.0048
 3173TIP3   OH2 9482   0.965   3.458   5.329 -0.2021 -0.7747  0.7199
 3173TIP3    H1 9483   0.937   3.404   5.255 -1.3900 -2.5859  2.3930
 3173TIP3    H2 9484   1.000   3.538   5.289  0.1356 -2.0927 -1.8067
 3174TIP3   OH2 9485   3.333   0.174   0.484 -0.4693  0.0520 -0.1415
 3174TIP3    H1 9486   3.303   0.169   0.575 -0.3419 -1.2727 -0.1627
 3174TIP3    H2 9487   3.333   0.084   0.453 -1.5980  0.5660 -1.8215
 3175TIP3   OH2 9488   2.494   1.148   3.469 -0.0941 -0.0298  0.3327
 3175TIP3    H1 9489   2.589   1.156   3.457 -0.3647  2.1227 -0.9249
 3175TIP3    H2 9490   2.479   1.185   3.556  0.0207  1.9741 -0.4511
 3176TIP3   OH2 9491   2.500   1.975   4.373 -0.3498  0.2192 -0.0724
 3176TIP3    H1 9492   2.417   1.930   4.360 -0.6983  1.1233 -1.1699
 3176TIP3    H2 9493   2.548   1.961   4.291  0.7596 -0.6402  0.7044
 3177TIP3   OH2 9494   6.570   6.272   4.178 -0.0113  0.0778  0.5753
 3177TIP3    H1 9495   6.576   6.330   4.103  1.5703 -0.0119  0.6169
 3177TIP3    H2 9496   6.591   6.185   4.144 -0.6702 -0.1995  0.8502
 3178TIP3   OH2 9497   0.055   3.453   5.239  0.0078 -0.0425 -0.2830
 3178TIP3    H1 9498   0.055   3.543   5.269  0.3075 -0.9329  2.7364
 3178TIP3    H2 9499   0.147   3.431   5.227 -0.0148 -0.1709 -0.2262
 3179TIP3   OH2 9500   1.677   0.036   4.906 -0.1685 -0.2993 -0.2512
 3179TIP3    H1 9501   1.654   0.012   4.816  1.9097  1.2206 -1.2597
 3179TIP3    H2 9502   1.637   0.123   4.918 -1.0916 -0.8145  0.6194
 3180TIP3   OH2 9503   3.341   1.982   3.793  0.0815 -0.3883  0.1294
 3180TIP3    H1 9504   3.333   1.888   3.775  0.4695 -0.4902  0.4903
 3180TIP3    H2 9505   3.334   1.989   3.888 -0.7233  0.0303  0.0550
 3181TIP3   OH2 9506   2.359   0.382   3.208 -0.0280 -0.0115 -0.2031
 3181TIP3    H1 9507   2.282   0.438   3.198 -2.6584 -3.5916 -1.8410
 3181TIP3    H2 9508   2.327   0.302   3.248  3.0232 -1.3943 -0.2160
 3182TIP3   OH2 9509   6.036   5.036   1.971 -0.7454 -0.0492 -0.2495
 3182TIP3    H1 9510   6.017   5.119   1.928 -0.9680 -0.5861 -1.2202
 3182TIP3    H2 9511   6.083   4.984   1.905  1.2210  0.0231  0.9897
 3183TIP3   OH2 9512   6.114   5.497   3.945  0.2397  0.1800 -0.4592
 3183TIP3    H1 9513   6.033   5.542   3.970 -0.4992 -1.1667 -0.3014
 3183TIP3    H2 9514   6.116   5.503   3.849 -0.4085 -0.3076 -0.5204
 3184TIP3   OH2 9515   1.865   5.189   4.220  0.2059  0.4809  0.4044
 3184TIP3    H1 9516   1.868   5.094   4.231  0.9571  0.3396 -0.8634
 3184TIP3    H2 9517   1.910   5.223   4.297  0.1943 -0.1997  0.7168
 3185TIP3   OH2 9518   4.898   1.471   1.106  0.1639 -0.4265  0.9089
 3185TIP3    H1 9519   4.832   1.410   1.071 -0.3734  1.2236 -1.1148
 3185TIP3    H2 9520   4.876   1.478   1.199 -0.0571 -2.8983  1.1148
 3186TIP3   OH2 9521   6.077   4.086   1.981 -0.0792  0.0748 -0.2932
 3186TIP3    H1 9522   6.105   4.132   2.060 -1.0174 -1.3913  0.9543
 3186TIP3    H2 9523   6.013   4.144   1.940  0.3042  0.7865  0.1020
 3187TIP3   OH2 9524   5.596   2.209   3.891 -0.0986 -0.4487  0.0951
 3187TIP3    H1 9525   5.531   2.255   3.839 -0.5000  1.4587  2.0933
 3187TIP3    H2 9526   5.581   2.117   3.873 -2.0804  0.0251 -0.9750
 3188TIP3   OH2 9527   1.999   3.396   2.683 -0.1833  0.0589  0.0605
 3188TIP3    H1 9528   1.981   3.363   2.595  3.8360 -1.8937 -0.2347
 3188TIP3    H2 9529   2.061   3.467   2.669 -0.0873  0.2334  1.3145
 3189TIP3   OH2 9530   4.726   5.308   2.557 -0.2749 -0.1515  0.0098
 3189TIP3    H1 9531   4.687   5.351   2.633  1.4786  2.9838 -0.6870
 3189TIP3    H2 9532   4.819   5.303   2.578  0.0850 -0.1668 -1.5167
 3190TIP3   OH2 9533   4.268   0.739   5.516  0.0114  0.4946 -0.0522
 3190TIP3    H1 9534   4.364   0.736   5.519  0.0285  1.2767  0.4624
 3190TIP3    H2 9535   4.245   0.683   5.442  0.7561 -1.5815  1.1963
 3191TIP3   OH2 9536   5.301   0.837   4.024 -0.1919 -0.3961 -0.2738
 3191TIP3    H1 9537   5.386   0.856   4.063 -0.0957 -0.5200 -0.4194
 3191TIP3    H2 9538   5.246   0.809   4.097 -0.7698  1.8298  0.1968
 3192TIP3   OH2 9539   3.217   4.332   0.846 -0.6047 -0.6629 -0.5303
 3192TIP3    H1 9540   3.231   4.418   0.887 -0.6134 -0.4036 -1.0595
 3192TIP3    H2 9541   3.122   4.325   0.836 -0.5807 -0.5488 -0.8648
 3193TIP3   OH2 9542   6.188   1.785   3.601 -0.3629 -0.0133 -0.2683
 3193TIP3    H1 9543   6.242   1.857   3.635  0.7374 -0.9780  0.0868
 3193TIP3    H2 9544   6.112   1.829   3.563 -0.0158  1.3030  0.4725
 3194TIP3   OH2 9545   0.153   4.255   3.733 -0.4089  0.2023 -0.1783
 3194TIP3    H1 9546   0.064   4.287   3.718 -0.2778  0.3279 -0.7160
 3194TIP3    H2 9547   0.187   4.236   3.646  0.1831  0.3982 -0.0019
 3195TIP3   OH2 9548   6.948   2.295   3.052 -0.0616  0.6190  0.0889
 3195TIP3    H1 9549   6.907   2.209   3.053 -0.3339  0.7476  0.7816
 3195TIP3    H2 9550   6.974   2.310   3.143  0.8701  0.8494 -0.2116
 3196TIP3   OH2 9551   6.591   1.302   4.069  0.2433 -0.0255 -0.0973
 3196TIP3    H1 9552   6.627   1.262   4.149 -0.2881  0.0333  0.1730
 3196TIP3    H2 9553   6.659   1.364   4.041  0.8238 -0.6970 -0.2022
 3197TIP3   OH2 9554   5.943   1.926   4.150  0.2786 -0.5210 -0.2568
 3197TIP3    H1 9555   5.990   1.870   4.212  0.8583  0.3620  0.1173
 3197TIP3    H2 9556   5.865   1.875   4.126  0.4309 -1.1907  0.6224
 3198TIP3   OH2 9557   4.516   5.838   4.708  0.2809  0.2967 -0.1287
 3198TIP3    H1 9558   4.587   5.873   4.655  0.5628  0.3543  0.2847
 3198TIP3    H2 9559   4.528   5.743   4.704  1.5528  0.3465  1.5093
 3199TIP3   OH2 9560   0.228   0.013   1.331  0.0982  0.2083 -0.5670
 3199TIP3    H1 9561   0.266  -0.066   1.293 -1.8820 -1.6967  1.1380
 3199TIP3    H2 9562   0.284   0.084   1.299  2.4188 -1.9140 -1.5892
 3200TIP3   OH2 9563   5.492   2.475   5.776  0.0289  0.3202  0.1847
 3200TIP3    H1 9564   5.470   2.542   5.841  0.4441 -0.2379  0.9263
 3200TIP3    H2 9565   5.547   2.414   5.824  0.0460 -0.3006 -0.6140
 3201TIP3   OH2 9566   5.540   0.565   1.802 -0.0847  0.4529  0.1318
 3201TIP3    H1 9567   5.618   0.529   1.844 -0.7654 -0.7447  0.4176
 3201TIP3    H2 9568   5.552   0.546   1.709  0.2616  0.8581  0.0913
 3202TIP3   OH2 9569   2.706   1.140   3.909  0.3273  0.2832  0.3023
 3202TIP3    H1 9570   2.613   1.149   3.931 -0.1301 -0.0096 -1.3271
 3202TIP3    H2 9571   2.741   1.082   3.976 -1.4450 -2.2853 -0.8205
 3203TIP3   OH2 9572   2.351   0.167   0.251  0.2186  0.2628  0.1815
 3203TIP3    H1 9573   2.343   0.211   0.166  1.3654 -2.4223 -1.4612
 3203TIP3    H2 9574   2.264   0.130   0.267  0.2899 -0.2231 -0.4836
 3204TIP3   OH2 9575   2.102   2.698   1.013 -0.4449  0.0023  0.1171
 3204TIP3    H1 9576   2.060   2.780   0.988  0.9573  0.8433  0.3825
 3204TIP3    H2 9577   2.101   2.699   1.109  0.8526  0.4441  0.1509
 3205TIP3   OH2 9578   4.308   5.335   1.957 -0.0121  0.0517  0.0471
 3205TIP3    H1 9579   4.286   5.342   1.864 -1.6531 -0.2370  0.3953
 3205TIP3    H2 9580   4.349   5.249   1.964 -0.5681 -0.2495 -0.2880
 3206TIP3   OH2 9581   3.212   2.545   2.776 -0.1134  0.0697  0.7300
 3206TIP3    H1 9582   3.152   2.527   2.704  1.3273 -2.5450  0.0376
 3206TIP3    H2 9583   3.162   2.524   2.855 -1.3965  2.0503  0.5174
 3207TIP3   OH2 9584   5.088   6.262   1.609 -0.0364 -0.4290  0.2043
 3207TIP3    H1 9585   5.127   6.273   1.696  0.0716  0.4624  0.0515
 3207TIP3    H2 9586   5.163   6.248   1.551  0.0929  1.3606 -0.1009
 3208TIP3   OH2 9587   1.112   5.614   1.419 -0.0011 -0.6933  0.1850
 3208TIP3    H1 9588   1.204   5.589   1.419  0.4277  0.8047 -0.1267
 3208TIP3    H2 9589   1.094   5.637   1.510  0.4902  0.8771 -0.0896
 3209TIP3   OH2 9590   3.569   0.452   1.974 -0.0737 -0.0746 -0.0566
 3209TIP3    H1 9591   3.521   0.439   1.893  0.5640 -0.1037 -0.4390
 3209TIP3    H2 9592   3.504   0.442   2.043 -0.7775  0.6696 -0.5891
 3210TIP3   OH2 9593   5.209   0.121   0.664  0.1510  0.1524  0.3740
 3210TIP3    H1 9594   5.196   0.216   0.656 -1.0358  0.0486  0.7924
 3210TIP3    H2 9595   5.122   0.084   0.647  0.4914 -0.8355  0.7193
 3211TIP3   OH2 9596   5.285   3.323   5.455 -0.4403  0.1773 -0.3581
 3211TIP3    H1 9597   5.243   3.363   5.379  1.9742 -1.2104 -2.5904
 3211TIP3    H2 9598   5.337   3.394   5.493 -0.3986  0.4931 -0.9936
 3212TIP3   OH2 9599   3.636   5.960   3.401  0.1159  0.2571 -0.1299
 3212TIP3    H1 9600   3.712   5.975   3.345  0.3656  0.2109  0.1989
 3212TIP3    H2 9601   3.672   5.953   3.489 -0.3366  0.8757  0.1080
 3213TIP3   OH2 9602   5.720   5.047   0.979 -0.1959  0.0067  0.5706
 3213TIP3    H1 9603   5.704   5.129   0.931 -1.6255 -1.2298 -1.1873
 3213TIP3    H2 9604   5.690   5.065   1.068  2.7705  2.4647  1.2486
 3214TIP3   OH2 9605   0.296   1.588   3.735 -0.1421  0.6660 -0.2622
 3214TIP3    H1 9606   0.358   1.584   3.808 -1.1192  1.4694  0.6465
 3214TIP3    H2 9607   0.284   1.681   3.719  0.1779  0.5004 -1.5826
 3215TIP3   OH2 9608   0.604   3.162   5.257  0.5510  0.0592  0.2073
 3215TIP3    H1 9609   0.691   3.131   5.233  0.6602 -0.0169  0.6883
 3215TIP3    H2 9610   0.608   3.172   5.352  0.4196  1.2388  0.1037
 3216TIP3   OH2 9611   6.771   5.302   2.220  0.0667 -0.1602 -0.2994
 3216TIP3    H1 9612   6.742   5.224   2.267  1.4575 -0.4427  0.1566
 3216TIP3    H2 9613   6.865   5.289   2.207  0.5755  1.8937  0.7448
 3217TIP3   OH2 9614   1.460   1.066   3.796  0.3256  0.2203 -0.0306
 3217TIP3    H1 9615   1.376   1.041   3.833  0.8655 -0.0656  1.0487
 3217TIP3    H2 9616   1.455   1.161   3.785 -0.0683  0.2213  0.1808
 3218TIP3   OH2 9617   1.008   5.762   2.802 -0.2294 -0.5974  0.8867
 3218TIP3    H1 9618   1.048   5.801   2.880  0.0037 -0.2815  0.6144
 3218TIP3    H2 9619   1.005   5.834   2.739  1.6229 -1.3753 -0.1736
 3219TIP3   OH2 9620   3.465   5.414   3.673  0.0057  0.4416  0.0146
 3219TIP3    H1 9621   3.446   5.469   3.597 -0.1000  1.7976  0.9689
 3219TIP3    H2 9622   3.534   5.461   3.720  2.3264 -1.9155 -0.7844
 3220TIP3   OH2 9623   1.500   3.140   0.448  0.1716  0.0165  0.2810
 3220TIP3    H1 9624   1.515   3.095   0.365  2.7245  0.6543  0.3191
 3220TIP3    H2 9625   1.487   3.069   0.511  1.3221 -0.5821 -0.1410
 3221TIP3   OH2 9626   3.280   4.749   4.542  0.0892 -0.0266 -0.3701
 3221TIP3    H1 9627   3.231   4.830   4.525 -0.1046  0.0050  0.3178
 3221TIP3    H2 9628   3.341   4.742   4.468  0.1783  0.7990 -0.3815
 3222TIP3   OH2 9629   6.580   5.607   5.731 -0.1853  0.2564 -0.4737
 3222TIP3    H1 9630   6.578   5.512   5.724  0.1147  0.2989 -1.3073
 3222TIP3    H2 9631   6.540   5.627   5.816 -4.3358 -0.3914 -2.0335
 3223TIP3   OH2 9632   4.495   3.367   1.079  0.4856  0.0668 -0.0265
 3223TIP3    H1 9633   4.405   3.350   1.106  0.6717  1.2980  1.5325
 3223TIP3    H2 9634   4.546   3.299   1.122  0.2228 -1.3259 -1.8271
 3224TIP3   OH2 9635   4.167   5.108   2.923 -0.0250  0.2637 -0.3457
 3224TIP3    H1 9636   4.155   5.195   2.961 -0.1105  0.8787 -1.7079
 3224TIP3    H2 9637   4.232   5.066   2.979  0.8477  1.6196 -0.2925
 3225TIP3   OH2 9638   1.774   1.691   2.943  0.4913 -0.7025 -0.2405
 3225TIP3    H1 9639   1.753   1.768   2.995  0.6729  1.8846 -3.6087
 3225TIP3    H2 9640   1.869   1.683   2.950  0.8323  1.0906 -1.7739
 3226TIP3   OH2 9641   5.245   1.197   2.731 -0.2125 -0.1880  0.8530
 3226TIP3    H1 9642   5.152   1.217   2.736 -0.3343 -0.9265  1.8296
 3226TIP3    H2 9643   5.284   1.249   2.801  0.1806  0.4569  0.1664
 3227TIP3   OH2 9644   0.943   3.807   4.753  0.0025  0.6172 -0.6963
 3227TIP3    H1 9645   0.894   3.724   4.752  0.3548  0.4109 -1.2835
 3227TIP3    H2 9646   0.896   3.862   4.816 -0.4802  0.1190 -0.6163
 3228TIP3   OH2 9647   3.527   4.183   1.489 -0.1607  0.3079 -0.2939
 3228TIP3    H1 9648   3.623   4.179   1.486  0.0400  0.3690  2.7793
 3228TIP3    H2 9649   3.508   4.251   1.554 -2.1503 -2.1117  1.8627
 3229TIP3   OH2 9650   5.245   5.362   4.481  0.2855 -0.1190 -0.0040
 3229TIP3    H1 9651   5.236   5.392   4.572 -0.7164  1.0834 -0.4739
 3229TIP3    H2 9652   5.333   5.389   4.456 -0.4482  2.2481 -0.2913
 3230TIP3   OH2 9653   1.239   4.905   5.365  0.6843 -0.0431 -0.3592
 3230TIP3    H1 9654   1.167   4.879   5.422  0.5487 -1.8789 -1.2976
 3230TIP3    H2 9655   1.309   4.841   5.384 -0.3862 -2.6934 -4.2186
 3231TIP3   OH2 9656   2.948   4.986   0.032  0.1361  0.7269 -0.5408
 3231TIP3    H1 9657   2.866   5.026   0.003 -0.1879  1.4409  1.2157
 3231TIP3    H2 9658   2.957   5.014   0.123 -0.0866 -3.2256  0.8790
 3232TIP3   OH2 9659   1.297   0.159   1.463  0.2103  0.4470 -0.7066
 3232TIP3    H1 9660   1.332   0.208   1.537 -0.3063  0.8630 -0.7302
 3232TIP3    H2 9661   1.271   0.226   1.400 -1.1585  0.1890 -0.4511
 3233TIP3   OH2 9662   6.636   4.145   1.038 -0.1602  0.2966  0.3007
 3233TIP3    H1 9663   6.639   4.097   1.121 -0.4297 -0.6545 -0.2283
 3233TIP3    H2 9664   6.709   4.207   1.044 -0.1897  0.2541  1.2538
 3234TIP3   OH2 9665   3.030   1.639   5.587 -0.0360 -0.1672 -0.0476
 3234TIP3    H1 9666   3.025   1.653   5.493 -0.2458 -1.3989 -0.2436
 3234TIP3    H2 9667   2.960   1.575   5.606  1.3801 -1.6101  0.5735
 3235TIP3   OH2 9668   4.522   0.363   3.019  0.0390 -0.0362 -0.0136
 3235TIP3    H1 9669   4.497   0.343   2.929 -1.1781  1.6066 -0.0798
 3235TIP3    H2 9670   4.444   0.344   3.071  0.4755 -0.2080  0.5923
 3236TIP3   OH2 9671   5.747   4.413   5.364 -0.3438  0.2355  0.4208
 3236TIP3    H1 9672   5.655   4.400   5.342  0.2888 -3.1983 -1.0033
 3236TIP3    H2 9673   5.782   4.464   5.292 -0.7737 -0.0516  0.0026
 3237TIP3   OH2 9674   1.319   0.298   0.592 -0.3217  0.2305  0.3986
 3237TIP3    H1 9675   1.281   0.285   0.679 -0.8543  0.2044  0.1650
 3237TIP3    H2 9676   1.270   0.371   0.555 -0.2570  0.0897  0.0287
 3238TIP3   OH2 9677   0.717   4.852   1.039  0.3608 -0.2370  0.4604
 3238TIP3    H1 9678   0.728   4.790   0.968 -0.3113 -1.3115  1.2645
 3238TIP3    H2 9679   0.736   4.802   1.118  0.8113  0.8571  1.0664
 3239TIP3   OH2 9680   2.793   0.334   2.500 -0.3683  0.3873  0.1311
 3239TIP3    H1 9681   2.764   0.246   2.475 -2.1115  0.6714  1.0191
 3239TIP3    H2 9682   2.743   0.393   2.445  1.0942  0.8608 -0.7531
 3240TIP3   OH2 9683   0.770   1.932   2.546 -0.3588 -0.4202 -0.0825
 3240TIP3    H1 9684   0.730   1.983   2.616 -1.7125  1.5922 -2.1395
 3240TIP3    H2 9685   0.720   1.956   2.468  2.2419 -1.0417 -2.1017
 3241TIP3   OH2 9686   3.384   3.639   3.253  0.5740 -0.1354 -0.5405
 3241TIP3    H1 9687   3.298   3.678   3.240  0.0607 -1.2662 -0.6379
 3241TIP3    H2 9688   3.420   3.685   3.328  0.2095  0.8724 -0.9646
 3242TIP3   OH2 9689   2.108   2.687   4.692  0.2286 -0.0501 -0.0520
 3242TIP3    H1 9690   2.048   2.762   4.688 -1.9921 -1.6855  0.4120
 3242TIP3    H2 9691   2.089   2.646   4.776  0.0335 -2.1369 -1.0573
 3243TIP3   OH2 9692   0.043   5.919   4.965  0.4532  0.3276 -0.3630
 3243TIP3    H1 9693   0.022   5.835   5.007 -0.0103  1.6327  2.2465
 3243TIP3    H2 9694   0.114   5.899   4.905 -0.0490 -2.0301 -0.2696
 3244TIP3   OH2 9695   3.137   5.428   3.640  0.5789 -0.4047 -0.2084
 3244TIP3    H1 9696   3.148   5.483   3.717  0.0887 -0.1046 -0.3495
 3244TIP3    H2 9697   3.209   5.453   3.582  1.5062 -1.2833  0.5158
 3245TIP3   OH2 9698   3.380   1.425   1.060  0.3856  0.3784  0.2977
 3245TIP3    H1 9699   3.420   1.434   0.974 -0.4540  1.7554  0.0047
 3245TIP3    H2 9700   3.433   1.361   1.106  1.4218  0.3455 -0.9134
 3246TIP3   OH2 9701   7.011   2.040   2.398 -0.0060  0.3861  0.0263
 3246TIP3    H1 9702   7.100   2.013   2.420  0.2017  2.1688  1.6955
 3246TIP3    H2 9703   6.965   2.041   2.482 -0.7014  2.4794 -0.3080
 3247TIP3   OH2 9704   5.543   5.635   3.600 -0.6286  0.1467 -0.1477
 3247TIP3    H1 9705   5.466   5.692   3.604 -0.3084  0.6812 -1.2090
 3247TIP3    H2 9706   5.615   5.690   3.631 -0.4992 -0.0338 -0.1242
 3248TIP3   OH2 9707   4.469   0.501   5.144  0.4687 -0.1291 -0.0398
 3248TIP3    H1 9708   4.402   0.526   5.208  1.2306  2.5213 -0.1482
 3248TIP3    H2 9709   4.420   0.467   5.069 -0.5809 -0.7360  0.8995
 3249TIP3   OH2 9710   6.623   0.271   2.401 -0.2315 -0.0494 -0.1454
 3249TIP3    H1 9711   6.662   0.287   2.487 -0.0012 -0.0350 -0.2500
 3249TIP3    H2 9712   6.697   0.276   2.340 -0.3711 -0.1895 -0.3291
 3250TIP3   OH2 9713   0.227   2.875   2.985 -0.0937  0.2075  0.5220
 3250TIP3    H1 9714   0.303   2.831   3.024  1.8694  1.9783 -1.1022
 3250TIP3    H2 9715   0.176   2.803   2.947  1.1263 -0.9906  1.0402
 3251TIP3   OH2 9716   0.611   4.670   4.748  0.1074  0.3147 -0.0893
 3251TIP3    H1 9717   0.521   4.638   4.750 -0.0580  0.5315 -2.3784
 3251TIP3    H2 9718   0.606   4.756   4.707  1.3063  0.5454  0.1962
 3252TIP3   OH2 9719   1.337   2.826   5.341  0.0542  0.7141 -0.6923
 3252TIP3    H1 9720   1.262   2.809   5.284  0.5444  0.5345 -1.3054
 3252TIP3    H2 9721   1.302   2.822   5.429 -0.1779 -2.2125 -0.8065
 3253TIP3   OH2 9722   4.319   0.630   2.394  0.7664  0.1177 -0.5087
 3253TIP3    H1 9723   4.324   0.546   2.350  1.3985 -0.9604  1.5113
 3253TIP3    H2 9724   4.244   0.674   2.353  0.4181 -1.4024 -1.5884
 3254TIP3   OH2 9725   0.848   0.866   1.714  0.0589 -0.1952 -0.2846
 3254TIP3    H1 9726   0.821   0.855   1.623  1.4554 -2.5897 -0.5089
 3254TIP3    H2 9727   0.768   0.887   1.762 -1.3044 -2.0860 -1.6219
 3255TIP3   OH2 9728   6.598   0.016   4.019 -0.0078  0.4990 -0.0006
 3255TIP3    H1 9729   6.628   0.068   3.945  0.5437  0.5412  0.2449
 3255TIP3    H2 9730   6.643  -0.067   4.010  0.0497  0.4990  0.2754
 3256TIP3   OH2 9731   6.312   6.333   0.362  0.1398  0.3599  0.3486
 3256TIP3    H1 9732   6.275   6.274   0.296  1.0986  0.9674 -0.7745
 3256TIP3    H2 9733   6.381   6.282   0.404  1.0789  0.6932 -0.7343
 3257TIP3   OH2 9734   2.914   2.899   4.732 -0.0402  0.1930 -0.1380
 3257TIP3    H1 9735   2.975   2.965   4.767 -0.6735 -0.4442  2.3707
 3257TIP3    H2 9736   2.871   2.943   4.659  1.3961  1.6360 -0.1783
 3258TIP3   OH2 9737   6.163   6.424   4.913  0.0048 -0.1722  0.0120
 3258TIP3    H1 9738   6.256   6.400   4.916 -0.1785 -0.8317  2.4377
 3258TIP3    H2 9739   6.143   6.452   5.002 -2.0094  0.4682 -0.6078
 3259TIP3   OH2 9740   2.479   2.715   5.574 -0.0963 -0.0628  0.0488
 3259TIP3    H1 9741   2.423   2.658   5.627  0.7202 -0.8239  0.1190
 3259TIP3    H2 9742   2.419   2.780   5.538 -1.1081 -1.1046 -0.2251
 3260TIP3   OH2 9743   2.281   0.075   0.819 -0.1380  0.0771  0.2752
 3260TIP3    H1 9744   2.255   0.166   0.829 -0.8026 -0.0057 -0.5833
 3260TIP3    H2 9745   2.375   0.078   0.803 -0.4474  0.7920 -1.7174
 3261TIP3   OH2 9746   1.269   1.702   5.201 -0.3277 -0.0786  1.0023
 3261TIP3    H1 9747   1.239   1.616   5.171  0.0451 -0.0447  0.5255
 3261TIP3    H2 9748   1.193   1.760   5.188 -0.7626 -0.4393  1.8417
 3262TIP3   OH2 9749   0.885   5.430   3.098 -0.1447  0.4208  0.0804
 3262TIP3    H1 9750   0.917   5.368   3.164 -0.4500 -2.0735 -1.9441
 3262TIP3    H2 9751   0.949   5.424   3.027 -1.1352  1.0763 -0.8943
 3263TIP3   OH2 9752   3.099   3.431   0.465 -0.4563  0.3833 -0.0465
 3263TIP3    H1 9753   3.094   3.349   0.416 -1.7811  0.0816  0.5421
 3263TIP3    H2 9754   3.115   3.405   0.556 -0.2498  0.8189  0.0487
 3264TIP3   OH2 9755   3.544   2.398   0.337  0.0069  0.1534 -0.0467
 3264TIP3    H1 9756   3.511   2.464   0.276  1.1263  0.8587  0.1014
 3264TIP3    H2 9757   3.503   2.421   0.421 -1.2479 -0.6048 -0.4147
 3265TIP3   OH2 9758   1.547   5.826   3.959 -0.5943 -0.1348  0.0938
 3265TIP3    H1 9759   1.515   5.916   3.959 -0.2207  0.0003  0.8319
 3265TIP3    H2 9760   1.612   5.823   4.029  0.4987 -0.5829 -0.8917
 3266TIP3   OH2 9761   2.669   0.459   5.369  0.1816 -0.1595 -0.2097
 3266TIP3    H1 9762   2.664   0.470   5.274 -0.8438  0.9501 -0.0447
 3266TIP3    H2 9763   2.615   0.530   5.405  2.4470  0.9549  1.2773
 3267TIP3   OH2 9764   5.427   4.698   4.902  0.4347 -0.5077 -0.3924
 3267TIP3    H1 9765   5.456   4.762   4.967 -1.7224  1.0133 -0.8220
 3267TIP3    H2 9766   5.429   4.614   4.948  0.0017  0.3809  1.3137
 3268TIP3   OH2 9767   0.606   2.040   3.996 -0.2607 -0.3957  0.9022
 3268TIP3    H1 9768   0.582   2.027   4.088  1.2373 -1.1198  1.2361
 3268TIP3    H2 9769   0.560   1.971   3.949  0.3836 -1.1881  1.3921
 3269TIP3   OH2 9770   5.200   3.876   0.714  0.2867 -0.1898  0.5158
 3269TIP3    H1 9771   5.271   3.860   0.652  1.5450  0.1718  1.7965
 3269TIP3    H2 9772   5.144   3.799   0.708  3.1760 -2.6872  2.5446
 3270TIP3   OH2 9773   5.181   4.409   0.859  0.1865  0.3817  0.6534
 3270TIP3    H1 9774   5.133   4.332   0.891  1.8678 -0.8031  0.4488
 3270TIP3    H2 9775   5.241   4.373   0.793  2.3934  1.5596  1.9378
 3271TIP3   OH2 9776   2.324   1.466   3.075 -0.0786  0.0139 -0.3846
 3271TIP3    H1 9777   2.342   1.560   3.073  0.8092 -0.1345  0.2190
 3271TIP3    H2 9778   2.312   1.446   3.168 -1.5930 -0.2395 -0.6073
 3272TIP3   OH2 9779   3.392   2.767   2.724  0.1551  0.0298  0.2898
 3272TIP3    H1 9780   3.343   2.687   2.742 -0.5560  0.4622  0.3540
 3272TIP3    H2 9781   3.464   2.740   2.668 -0.5412 -0.5341 -0.3522
 3273TIP3   OH2 9782   1.527   6.299   2.688  0.1728 -0.2735  0.2687
 3273TIP3    H1 9783   1.550   6.279   2.779  1.8547 -1.5945 -0.3908
 3273TIP3    H2 9784   1.544   6.393   2.679  0.7962 -0.3006  1.0821
 3274TIP3   OH2 9785   5.955   3.832   4.593 -0.4923  0.2977  0.3506
 3274TIP3    H1 9786   5.889   3.847   4.525  0.7300  1.7986 -0.5573
 3274TIP3    H2 9787   5.976   3.739   4.586 -0.3107  0.4369 -1.4251
 3275TIP3   OH2 9788   3.317   6.144   3.075 -0.1676  0.6332  0.3285
 3275TIP3    H1 9789   3.309   6.051   3.096 -0.9259  1.0802  2.2961
 3275TIP3    H2 9790   3.234   6.166   3.034  0.2129  0.3606 -0.6212
 3276TIP3   OH2 9791   3.877   1.758   3.866  0.4943  0.5801  0.2737
 3276TIP3    H1 9792   3.860   1.723   3.778  0.7098 -2.0998  1.2090
 3276TIP3    H2 9793   3.809   1.824   3.879 -0.2716  0.2032 -1.4433
 3277TIP3   OH2 9794   3.004   2.526   0.130 -0.0371 -0.1205  0.0746
 3277TIP3    H1 9795   2.927   2.513   0.186 -0.2772  0.4721 -0.1191
 3277TIP3    H2 9796   3.030   2.437   0.104 -0.2041 -0.3724  0.7445
 3278TIP3   OH2 9797   7.156   3.548   3.619  0.2705  0.0289 -0.0159
 3278TIP3    H1 9798   7.219   3.590   3.560  0.1832  1.9947  1.2080
 3278TIP3    H2 9799   7.071   3.561   3.577  0.5368 -2.0042 -1.3170
 3279TIP3   OH2 9800   3.261   4.001   3.943 -0.3044  0.0191 -0.4094
 3279TIP3    H1 9801   3.197   4.045   3.887 -1.7626  0.2308  1.3246
 3279TIP3    H2 9802   3.250   4.041   4.029  1.3526 -0.7804  0.2222
 3280TIP3   OH2 9803   7.191   2.831   0.070  0.4292 -0.4358 -0.2647
 3280TIP3    H1 9804   7.172   2.857  -0.020  0.4472  0.7693  0.0554
 3280TIP3    H2 9805   7.158   2.903   0.123  1.9391 -0.3134  0.5835
 3281TIP3   OH2 9806   3.909   4.634   3.120 -0.3348  0.2155  0.1443
 3281TIP3    H1 9807   3.817   4.653   3.103  0.0547  2.6344  0.4298
 3281TIP3    H2 9808   3.908   4.571   3.192 -1.7492  0.2210  0.1519
 3282TIP3   OH2 9809   2.322   5.394   4.976 -0.0525  0.0019 -0.5997
 3282TIP3    H1 9810   2.387   5.436   4.921 -0.0034  0.0582 -0.4983
 3282TIP3    H2 9811   2.261   5.354   4.914  0.2740 -0.3567 -0.6970
 3283TIP3   OH2 9812   1.293   3.135   1.402 -0.0559 -0.2224 -0.3816
 3283TIP3    H1 9813   1.266   3.074   1.471 -0.2208  0.1728 -0.0846
 3283TIP3    H2 9814   1.316   3.080   1.328 -1.4091 -0.5991 -0.5497
 3284TIP3   OH2 9815   3.224   1.860   0.470 -0.0628 -1.0100  0.0194
 3284TIP3    H1 9816   3.183   1.936   0.512  0.7386 -1.2000  1.2012
 3284TIP3    H2 9817   3.172   1.786   0.498 -0.5177 -0.9633 -0.6888
 3285TIP3   OH2 9818   3.299   3.439   1.469  0.3616 -0.0278 -0.2280
 3285TIP3    H1 9819   3.240   3.514   1.458  0.2348  0.1703  1.5661
 3285TIP3    H2 9820   3.378   3.476   1.507  0.3811 -0.7622  0.4694
 3286TIP3   OH2 9821   0.794   6.084   1.717 -0.4316  0.0724 -0.5082
 3286TIP3    H1 9822   0.768   6.050   1.631 -0.4188  0.6589 -0.7449
 3286TIP3    H2 9823   0.879   6.043   1.734 -0.4397 -0.0566 -0.7708
 3287TIP3   OH2 9824   0.778   6.603   5.766  0.3842 -0.3191  0.1733
 3287TIP3    H1 9825   0.871   6.605   5.786  1.2910  1.1028 -3.3124
 3287TIP3    H2 9826   0.740   6.677   5.813  0.9557 -0.9453  1.6591
 3288TIP3   OH2 9827   3.411   1.450   5.743 -0.0231  0.3279 -0.3440
 3288TIP3    H1 9828   3.362   1.395   5.804 -1.1613 -0.1467 -1.6295
 3288TIP3    H2 9829   3.361   1.446   5.662  0.3510  2.5350 -0.7511
 3289TIP3   OH2 9830   0.397   5.187   1.584 -0.3048  0.1494 -0.4496
 3289TIP3    H1 9831   0.423   5.242   1.657  1.1992 -1.5496  0.3735
 3289TIP3    H2 9832   0.479   5.163   1.541 -1.0274 -0.2907 -1.6490
 3290TIP3   OH2 9833   5.827   1.097   1.609  0.0556 -0.0653  0.0099
 3290TIP3    H1 9834   5.767   1.112   1.536  1.1770  0.8010 -0.7632
 3290TIP3    H2 9835   5.904   1.055   1.568  1.1941  1.5035  0.4474
 3291TIP3   OH2 9836   2.849   3.174   5.457 -0.3918  0.1895  0.3121
 3291TIP3    H1 9837   2.869   3.223   5.378  0.1319  0.3886  0.5581
 3291TIP3    H2 9838   2.812   3.238   5.518  0.7100  0.3932  0.7924
 3292TIP3   OH2 9839   3.168   4.463   5.617 -0.1165 -0.2110 -0.1564
 3292TIP3    H1 9840   3.084   4.417   5.617 -0.3875  0.0839  2.6521
 3292TIP3    H2 9841   3.147   4.551   5.647  0.7542  1.1151 -3.0664
 3293TIP3   OH2 9842   2.845   2.883   5.496  0.1198 -0.3280  0.1340
 3293TIP3    H1 9843   2.844   2.976   5.474 -0.9629 -0.2936  0.2695
 3293TIP3    H2 9844   2.775   2.845   5.442  0.4789 -1.0378  0.1668
 3294TIP3   OH2 9845   4.685   2.971   1.053 -0.2920  0.1585 -0.7904
 3294TIP3    H1 9846   4.674   3.058   1.091 -1.8942  0.6172 -2.1737
 3294TIP3    H2 9847   4.768   2.976   1.005  0.3241  0.4503  0.2820
 3295TIP3   OH2 9848   3.668   4.357   4.391  0.1917  0.1831  0.4348
 3295TIP3    H1 9849   3.666   4.286   4.455 -0.0207 -0.6027 -0.4159
 3295TIP3    H2 9850   3.586   4.347   4.342 -0.2754  1.5777  0.8811
 3296TIP3   OH2 9851   6.931   2.669   3.236 -0.4083 -0.7602  0.2154
 3296TIP3    H1 9852   7.009   2.646   3.286 -0.4853  0.4474  0.9407
 3296TIP3    H2 9853   6.873   2.710   3.301 -1.4873 -1.3033 -0.3874
 3297TIP3   OH2 9854   4.759   4.913   1.064  0.0706  0.3290 -0.2056
 3297TIP3    H1 9855   4.678   4.867   1.040  0.5773 -0.6535 -0.0899
 3297TIP3    H2 9856   4.800   4.935   0.981  0.2474 -0.2121 -0.2656
 3298TIP3   OH2 9857   6.276   0.732   5.712 -0.3836 -0.3869  0.2099
 3298TIP3    H1 9858   6.275   0.737   5.617  0.5982 -0.8792  0.1620
 3298TIP3    H2 9859   6.217   0.659   5.733 -2.5222  1.2248  0.1384
 3299TIP3   OH2 9860   5.410   1.770   5.204 -0.4030  0.5258  0.1570
 3299TIP3    H1 9861   5.337   1.709   5.193 -0.5796  0.4205  1.6905
 3299TIP3    H2 9862   5.480   1.717   5.240  0.2261  0.7768 -0.6583
 3300TIP3   OH2 9863   0.226   1.710   4.589  0.1619  0.4215 -0.3140
 3300TIP3    H1 9864   0.254   1.619   4.600  0.1593  0.5085  0.4576
 3300TIP3    H2 9865   0.134   1.704   4.565  0.3571  0.1969 -1.0219
 3301TIP3   OH2 9866   1.268   5.412   5.266 -0.1138  0.2855  0.3706
 3301TIP3    H1 9867   1.175   5.393   5.253 -0.5109  2.9906 -1.6190
 3301TIP3    H2 9868   1.306   5.401   5.179  1.7437 -1.9458  1.3892
 3302TIP3   OH2 9869   4.164   0.304   2.127  0.1163  0.1797 -0.1596
 3302TIP3    H1 9870   4.102   0.276   2.194  0.5169  0.3092  0.2655
 3302TIP3    H2 9871   4.133   0.260   2.047  0.4996 -1.1726  0.4049
 3303TIP3   OH2 9872   4.776   1.003   5.551 -0.3370  0.0478 -0.7487
 3303TIP3    H1 9873   4.868   1.026   5.562 -0.3622 -0.2222  0.0733
 3303TIP3    H2 9874   4.729   1.086   5.559 -0.2407  0.0509 -0.2215
 3304TIP3   OH2 9875   4.205   4.615   4.727 -0.1017 -0.1723 -0.3554
 3304TIP3    H1 9876   4.199   4.520   4.714 -1.9429 -0.6378  2.8523
 3304TIP3    H2 9877   4.299   4.630   4.742  0.0645 -1.7307  0.4354
 3305TIP3   OH2 9878   1.811   6.565   0.539  0.2978  0.2080  0.1899
 3305TIP3    H1 9879   1.801   6.572   0.444  0.1564  2.1747  0.3150
 3305TIP3    H2 9880   1.730   6.602   0.574  0.8474  0.5951  1.0818
 3306TIP3   OH2 9881   2.898   4.738   2.556  0.0748 -0.1144  0.4171
 3306TIP3    H1 9882   2.815   4.708   2.518  0.1424  1.3425 -1.0008
 3306TIP3    H2 9883   2.959   4.738   2.482  0.7160  1.0592  0.9223
 3307TIP3   OH2 9884   6.888   4.592   2.776  0.2395  0.0392 -0.0072
 3307TIP3    H1 9885   6.830   4.520   2.751  0.2739 -0.4883  1.3527
 3307TIP3    H2 9886   6.890   4.589   2.872 -2.2275  3.7176  0.3959
 3308TIP3   OH2 9887   2.738   4.187   4.430 -0.8163 -0.2222  0.2039
 3308TIP3    H1 9888   2.656   4.227   4.459 -0.7150 -1.5508  2.5895
 3308TIP3    H2 9889   2.803   4.256   4.440 -1.0911 -0.1361  1.6518
 3309TIP3   OH2 9890   0.866   5.663   0.001  0.6713  0.0893  0.2959
 3309TIP3    H1 9891   0.935   5.675  -0.064  0.6460  2.2865  0.5824
 3309TIP3    H2 9892   0.907   5.687   0.084  0.1571 -0.7243  0.7963
 3310TIP3   OH2 9893   5.984   3.368   3.864 -0.2086  0.1334 -0.7515
 3310TIP3    H1 9894   5.931   3.350   3.786 -0.4334 -2.1147 -0.1411
 3310TIP3    H2 9895   5.998   3.463   3.862 -1.8143  0.3888 -2.4814
 3311TIP3   OH2 9896   6.985   0.191   1.934  0.2947  0.1830 -0.1329
 3311TIP3    H1 9897   7.052   0.220   1.997  0.0545 -0.2900  0.3511
 3311TIP3    H2 9898   6.919   0.147   1.988  0.7238 -1.4044 -0.8239
 3312TIP3   OH2 9899   1.398   2.861   3.547  0.4627 -0.2279 -0.0052
 3312TIP3    H1 9900   1.343   2.905   3.482 -0.2056 -2.6961 -1.2341
 3312TIP3    H2 9901   1.339   2.846   3.621  0.4085  0.0299  0.0060
 3313TIP3   OH2 9902   4.534   2.209   2.471 -0.5397  0.4391 -0.1954
 3313TIP3    H1 9903   4.439   2.217   2.460 -0.8134  0.0092  1.5034
 3313TIP3    H2 9904   4.546   2.190   2.564  1.1925 -0.0707 -0.4777
 3314TIP3   OH2 9905   4.301   1.369   0.445  0.4515  0.4779 -0.2030
 3314TIP3    H1 9906   4.221   1.418   0.424 -0.5587 -1.8298 -2.2883
 3314TIP3    H2 9907   4.270   1.297   0.501  0.5005 -1.7759 -2.8578
 3315TIP3   OH2 9908   0.530   4.248   1.874 -0.4791 -0.5846 -0.2982
 3315TIP3    H1 9909   0.445   4.287   1.893 -0.4251 -0.3130 -0.5883
 3315TIP3    H2 9910   0.539   4.257   1.779  0.1201 -0.0914 -0.2058
 3316TIP3   OH2 9911   6.017   6.645   0.804 -0.7188  0.8073 -0.3023
 3316TIP3    H1 9912   6.073   6.687   0.738  1.0692  0.9102  1.2096
 3316TIP3    H2 9913   5.942   6.705   0.813 -0.2567  1.5446 -1.1650
 3317TIP3   OH2 9914   2.607   1.518   4.008 -0.3757 -0.4270  0.0568
 3317TIP3    H1 9915   2.532   1.506   4.067 -0.0344  0.6535  0.7248
 3317TIP3    H2 9916   2.569   1.508   3.920 -1.7452  2.0618  0.2744
 3318TIP3   OH2 9917   1.384   1.289   4.304  0.6478  0.4816  0.3068
 3318TIP3    H1 9918   1.425   1.278   4.218  0.0668  2.5548 -0.2735
 3318TIP3    H2 9919   1.313   1.351   4.290  2.5201  3.5245  2.8346
 3319TIP3   OH2 9920   2.996   2.485   1.299  0.2003 -0.0019 -0.1728
 3319TIP3    H1 9921   3.067   2.435   1.258  2.9780  1.4904  2.4028
 3319TIP3    H2 9922   3.040   2.554   1.348 -3.3157  3.9090 -1.9124
 3320TIP3   OH2 9923   4.845   2.415   2.887 -0.4243  0.3486  0.3205
 3320TIP3    H1 9924   4.851   2.454   2.800  1.9064  1.5998  0.9651
 3320TIP3    H2 9925   4.771   2.459   2.928 -2.1790 -0.9413 -1.2753
 3321TIP3   OH2 9926   3.021   1.387   2.800  0.5134  0.9176 -0.2740
 3321TIP3    H1 9927   2.990   1.299   2.817 -0.6525  0.9216 -2.1102
 3321TIP3    H2 9928   3.060   1.416   2.883  0.1865 -0.9952  0.5857
 3322TIP3   OH2 9929   5.210   2.813   1.902  0.2554 -0.0522 -0.1938
 3322TIP3    H1 9930   5.151   2.863   1.846  0.3234 -0.5812 -0.7501
 3322TIP3    H2 9931   5.255   2.879   1.955  1.5300  0.6668 -2.0416
 3323TIP3   OH2 9932   3.002   0.863   3.493  0.3233 -0.0618  0.7022
 3323TIP3    H1 9933   3.061   0.861   3.568  1.0008  0.7416  0.2178
 3323TIP3    H2 9934   3.058   0.889   3.420 -0.2922 -0.9572 -0.1188
 3324TIP3   OH2 9935   6.416   4.615   4.982 -0.1657 -0.3353  0.4989
 3324TIP3    H1 9936   6.501   4.571   4.983 -0.1098 -0.2174  1.1881
 3324TIP3    H2 9937   6.415   4.662   4.899 -0.3115 -1.7707 -0.3486
 3325TIP3   OH2 9938   4.259   3.450   0.555 -0.1038 -0.6940  0.1776
 3325TIP3    H1 9939   4.295   3.484   0.473  0.8532 -1.5490  0.2252
 3325TIP3    H2 9940   4.197   3.383   0.527  0.1653 -0.9313  0.1381
 3326TIP3   OH2 9941   4.230   4.702   0.792 -0.1686  0.0573 -0.3708
 3326TIP3    H1 9942   4.245   4.724   0.700 -1.0731 -1.2392 -0.8689
 3326TIP3    H2 9943   4.137   4.679   0.796  0.1095 -1.0168  0.6007
 3327TIP3   OH2 9944   0.687   5.771   1.219  0.1292  0.2209 -0.0926
 3327TIP3    H1 9945   0.766   5.721   1.242  0.6992  1.4456  0.6686
 3327TIP3    H2 9946   0.636   5.710   1.164  1.6391 -0.5525 -0.6959
 3328TIP3   OH2 9947   1.324   3.593   2.148 -0.1231 -0.4249  0.3119
 3328TIP3    H1 9948   1.281   3.676   2.127  0.9536  0.5434  1.6705
 3328TIP3    H2 9949   1.283   3.565   2.230  0.6489 -0.3639  0.7258
 3329TIP3   OH2 9950   4.258   0.020   5.705 -0.0623  0.2812  0.0557
 3329TIP3    H1 9951   4.203  -0.057   5.700 -0.5024  0.6493 -1.1259
 3329TIP3    H2 9952   4.229   0.075   5.633  1.3453  0.8169 -0.1401
 3330TIP3   OH2 9953   0.946   5.420   2.339 -0.0831 -0.1176  0.3893
 3330TIP3    H1 9954   0.999   5.344   2.314 -0.4166 -0.0546 -0.5288
 3330TIP3    H2 9955   0.876   5.423   2.274 -0.4308  0.6154  0.7871
 3331TIP3   OH2 9956   0.421   6.684   2.205  0.0579 -0.3840  0.4030
 3331TIP3    H1 9957   0.421   6.590   2.185 -1.1344  0.0329 -1.8810
 3331TIP3    H2 9958   0.514   6.707   2.210  0.4993 -1.0544 -2.6731
 3332TIP3   OH2 9959   3.295   3.245   1.248 -0.2490  0.0206 -0.3641
 3332TIP3    H1 9960   3.351   3.319   1.226  0.7017 -1.1108 -1.9267
 3332TIP3    H2 9961   3.285   3.250   1.343  2.2996  0.4502 -0.0487
 3333TIP3   OH2 9962   0.597   3.211   1.091 -0.2175  0.2988 -0.5016
 3333TIP3    H1 9963   0.592   3.294   1.045  1.2107 -0.0509 -1.3336
 3333TIP3    H2 9964   0.680   3.214   1.139  0.1283 -0.8583 -0.9896
 3334TIP3   OH2 9965   1.956   0.836   5.030  0.4704  0.4170  0.2011
 3334TIP3    H1 9966   1.867   0.841   5.066  0.1144 -0.6608 -0.4956
 3334TIP3    H2 9967   1.955   0.892   4.953  0.0267 -0.5614 -0.5186
 3335TIP3   OH2 9968   1.390   5.156   0.184  0.4613  0.6796  0.4423
 3335TIP3    H1 9969   1.383   5.207   0.265  1.1141  0.1787  0.8210
 3335TIP3    H2 9970   1.412   5.221   0.117  1.8550  0.8500  1.0251
 3336TIP3   OH2 9971   2.755   0.185   5.411  0.3630  0.3943  0.2925
 3336TIP3    H1 9972   2.671   0.142   5.428  1.0510 -1.4286 -0.5775
 3336TIP3    H2 9973   2.732   0.269   5.372 -1.0459  0.4767  1.2216
 3337TIP3   OH2 9974   4.478   5.590   2.000 -0.2982 -0.1619 -0.3483
 3337TIP3    H1 9975   4.519   5.536   1.933 -1.7658  0.5198 -1.8918
 3337TIP3    H2 9976   4.399   5.541   2.025 -1.3632  0.9576 -1.3826
 3338TIP3   OH2 9977   4.487   6.277   1.877 -0.2312  0.3090 -0.0778
 3338TIP3    H1 9978   4.566   6.283   1.824  0.7896  0.2192  1.3691
 3338TIP3    H2 9979   4.506   6.208   1.942 -1.1255  0.9246  0.8849
 3339TIP3   OH2 9980   5.885   4.943   5.352 -0.6116  0.3266  0.2752
 3339TIP3    H1 9981   5.944   4.993   5.408 -0.3024  0.8373 -0.4788
 3339TIP3    H2 9982   5.880   4.857   5.393 -2.4496  1.4109  2.5260
 3340TIP3   OH2 9983   5.198   4.411   3.707 -0.0246  0.5213  0.3047
 3340TIP3    H1 9984   5.215   4.421   3.800  1.3640 -1.0482  0.2594
 3340TIP3    H2 9985   5.250   4.479   3.665 -0.2497  0.8973  0.6313
 3341TIP3   OH2 9986   0.504   0.832   5.270 -0.2046 -0.3183  0.2083
 3341TIP3    H1 9987   0.485   0.858   5.361 -0.4599  0.7994 -0.1470
 3341TIP3    H2 9988   0.569   0.761   5.279  2.8060  2.2939  1.2471
 3342TIP3   OH2 9989   1.951   6.747   1.638  0.5784 -0.3816  0.1474
 3342TIP3    H1 9990   1.911   6.818   1.587  1.5866  1.1178  1.3493
 3342TIP3    H2 9991   2.028   6.787   1.678  1.2375 -2.2070  0.8013
 3343TIP3   OH2 9992   1.449   6.696   5.338 -0.4247 -0.2002  0.7450
 3343TIP3    H1 9993   1.358   6.675   5.318 -0.8287  1.8531  0.2405
 3343TIP3    H2 9994   1.487   6.721   5.254  1.0661 -2.4016  0.6732
 3344TIP3   OH2 9995   4.265   5.749   4.614  0.0935 -0.1876 -0.1972
 3344TIP3    H1 9996   4.213   5.720   4.689 -0.8963 -1.8047 -1.4358
 3344TIP3    H2 9997   4.356   5.743   4.644 -0.3229  0.5712  1.3100
 3345TIP3   OH2 9998   1.325   0.547   3.736  0.6809 -0.2086  0.3373
 3345TIP3    H1 9999   1.249   0.517   3.685  1.0228 -1.0438  0.3087
 3345TIP3    H210000   1.400   0.534   3.677  0.8545  0.6377  0.3541
 3346TIP3   OH210001   1.086   5.690   1.688 -0.4443  0.4220  0.0234
 3346TIP3    H110002   1.042   5.630   1.748 -1.3525  0.3385 -0.7223
 3346TIP3    H210003   1.177   5.692   1.720 -0.3919 -1.3189  0.0872
 3347TIP3   OH210004   4.491   3.273   0.597 -0.9922 -0.2776  0.6331
 3347TIP3    H110005   4.474   3.195   0.651 -0.7193 -1.1524 -0.4895
 3347TIP3    H210006   4.404   3.302   0.570 -1.1068 -0.0815  1.2119
 3348TIP3   OH210007   5.551   2.961   5.079  0.5163  0.0710  0.4900
 3348TIP3    H110008   5.474   2.958   5.134 -0.1066  0.6680 -0.3175
 3348TIP3    H210009   5.520   2.934   4.992  1.3768 -0.4309  0.3218
 3349TIP3   OH210010   0.482   2.715   0.798 -0.5251  0.0105 -0.2060
 3349TIP3    H110011   0.535   2.783   0.756  0.4295 -0.7992 -0.3310
 3349TIP3    H210012   0.392   2.739   0.776 -0.2173  1.2553 -0.2137
 3350TIP3   OH210013   0.517   1.608   2.394 -0.5204  0.1974  0.1821
 3350TIP3    H110014   0.598   1.620   2.443 -0.4032 -1.4313  0.4615
 3350TIP3    H210015   0.516   1.514   2.374 -1.8802  0.3640 -0.6324
 3351TIP3   OH210016   3.219   0.490   2.436 -0.5571 -0.7371  0.2637
 3351TIP3    H110017   3.303   0.443   2.433 -0.9113 -1.3678 -1.3811
 3351TIP3    H210018   3.181   0.467   2.521  0.4215 -1.4129  0.5313
 3352TIP3   OH210019   2.982   5.083   2.955  0.0443 -0.0434  0.1902
 3352TIP3    H110020   2.920   5.059   2.887 -1.9430 -0.9309  2.2051
 3352TIP3    H210021   3.025   5.001   2.979  2.1384  0.5621 -1.1984
 3353TIP3   OH210022   6.223   5.341   0.826 -0.4393 -0.3205 -0.0484
 3353TIP3    H110023   6.274   5.399   0.883  1.3944 -0.6462 -1.2655
 3353TIP3    H210024   6.239   5.374   0.738 -1.4225 -1.1489 -0.5598
 3354TIP3   OH210025   2.216   3.223   2.525  0.0051  0.2078  0.1270
 3354TIP3    H110026   2.137   3.203   2.475 -0.0330  1.6157 -0.4346
 3354TIP3    H210027   2.200   3.184   2.611 -1.2392  0.3136 -0.0243
 3355TIP3   OH210028   2.117   2.493   1.310 -0.0275  0.6079  0.4033
 3355TIP3    H110029   2.067   2.464   1.387 -1.2399 -0.2323 -0.6625
 3355TIP3    H210030   2.171   2.565   1.343  0.3568 -0.4717  2.3078
 3356TIP3   OH210031   4.170   2.142   3.666  0.1951 -0.6879  0.1413
 3356TIP3    H110032   4.182   2.109   3.577  0.6300 -1.7699  0.5792
 3356TIP3    H210033   4.204   2.231   3.664 -0.5922 -0.3981 -0.9773
 3357TIP3   OH210034   4.003   4.585   4.364 -0.3206  0.4506  0.2442
 3357TIP3    H110035   4.023   4.678   4.358 -1.5972  0.6887 -0.8119
 3357TIP3    H210036   3.977   4.572   4.456  3.0408  0.3817  1.3017
 3358TIP3   OH210037   6.928   3.057   5.306  0.4575 -0.1865  0.0403
 3358TIP3    H110038   6.985   3.117   5.257 -1.2470  0.1113 -1.7125
 3358TIP3    H210039   6.970   3.049   5.391  1.6204  2.2257 -0.2028
 3359TIP3   OH210040   3.519   4.093   1.789 -0.1626 -0.3649  0.5063
 3359TIP3    H110041   3.530   4.014   1.736 -0.3082 -0.4894  0.6642
 3359TIP3    H210042   3.608   4.117   1.815 -0.1722 -0.8131  0.9560
 3360TIP3   OH210043   5.440   3.683  -0.025 -0.2646  0.0520  0.3701
 3360TIP3    H110044   5.384   3.607  -0.042 -1.7869  1.7053 -3.2295
 3360TIP3    H210045   5.434   3.698   0.069 -0.9701 -3.4018  0.9922
 3361TIP3   OH210046   2.477   1.506   3.744 -0.3031  0.1796 -0.2160
 3361TIP3    H110047   2.545   1.502   3.676 -0.7777  1.6544 -0.8057
 3361TIP3    H210048   2.428   1.424   3.733 -0.0361  0.1466 -1.3106
 3362TIP3   OH210049   1.434   3.899   2.344  0.2928 -0.2024 -0.2278
 3362TIP3    H110050   1.376   3.975   2.348  1.0093  0.3868 -0.6506
 3362TIP3    H210051   1.522   3.936   2.339  0.7756 -1.0806  1.1845
 3363TIP3   OH210052   4.296   6.210   4.631  0.4699 -0.3677 -0.4675
 3363TIP3    H110053   4.215   6.235   4.587 -0.3982 -0.2678  1.1026
 3363TIP3    H210054   4.358   6.192   4.560 -0.7098  0.2447 -1.6923
 3364TIP3   OH210055   5.170   3.903   2.990  0.4750  0.7805 -0.1672
 3364TIP3    H110056   5.241   3.851   2.952  2.1036  1.5260  1.6892
 3364TIP3    H210057   5.145   3.963   2.920 -1.4859 -2.3046 -2.4011
 3365TIP3   OH210058   2.745   4.453   3.344  0.1766  0.0357  0.4381
 3365TIP3    H110059   2.834   4.418   3.345 -0.1533 -0.8722 -0.1479
 3365TIP3    H210060   2.690   4.377   3.325 -0.9369  0.1609  2.7999
 3366TIP3   OH210061   0.936   5.493   1.787  0.7558 -0.4310 -0.2966
 3366TIP3    H110062   0.892   5.507   1.703 -0.5119 -1.3398  0.1832
 3366TIP3    H210063   0.884   5.425   1.830  0.5764  0.9342  1.7759
 3367TIP3   OH210064   2.063   6.444   1.884  0.5372  0.0912  0.4695
 3367TIP3    H110065   2.088   6.352   1.892  0.3670  0.1490  1.8327
 3367TIP3    H210066   2.146   6.492   1.885  0.5608  0.0456  1.3342
 3368TIP3   OH210067   2.447   1.212   5.814  0.2743 -0.3932 -0.0168
 3368TIP3    H110068   2.477   1.299   5.791 -0.7687  0.4808  1.6881
 3368TIP3    H210069   2.368   1.198   5.762 -1.3906  1.0716  1.9330
 3369TIP3   OH210070   1.154   4.964   4.792 -0.0292 -0.3214 -0.1260
 3369TIP3    H110071   1.181   5.047   4.753 -0.5800 -1.3095 -2.8222
 3369TIP3    H210072   1.214   4.899   4.754  0.2722 -1.2279  1.7837
 3370TIP3   OH210073   4.184   4.338   2.928 -0.7826 -0.1435 -0.0060
 3370TIP3    H110074   4.169   4.278   3.001 -0.7200  0.7970  0.7921
 3370TIP3    H210075   4.231   4.285   2.863 -2.2642 -1.4616 -0.0741
 3371TIP3   OH210076   2.429   4.467   2.945  0.0878  0.3843  0.2438
 3371TIP3    H110077   2.370   4.415   3.000  0.9308  1.1551  1.9553
 3371TIP3    H210078   2.406   4.558   2.965  0.7737  0.6751 -0.2826
 3372TIP3   OH210079   4.089   0.160   1.437  0.0053  0.0938 -0.0639
 3372TIP3    H110080   4.035   0.240   1.432 -0.3490 -0.1679 -0.5939
 3372TIP3    H210081   4.044   0.098   1.380  0.3845 -0.4268  0.1983
 3373TIP3   OH210082   0.442   3.398   4.161  0.0907 -0.2158  0.6324
 3373TIP3    H110083   0.481   3.466   4.107 -0.5651 -1.5015 -1.6100
 3373TIP3    H210084   0.350   3.425   4.172  0.3553  0.3250  1.6431
 3374TIP3   OH210085   3.185   1.088   5.601  0.2273 -0.6051  0.2393
 3374TIP3    H110086   3.278   1.100   5.580  0.3984  0.0639  1.2823
 3374TIP3    H210087   3.185   1.028   5.676 -0.0794  0.4624  1.1256
 3375TIP3   OH210088   1.608   1.041   5.082  0.4326 -0.0323 -0.4142
 3375TIP3    H110089   1.636   1.104   5.016  2.8132 -0.0280  0.5301
 3375TIP3    H210090   1.520   1.070   5.108  0.2101  1.0153 -2.2227
 3376TIP3   OH210091   2.909   3.286   0.705 -0.0113 -0.2403  0.0233
 3376TIP3    H110092   2.849   3.359   0.717  2.8454  2.2101  0.5761
 3376TIP3    H210093   2.916   3.246   0.792  0.7996  0.8844  0.4940
 3377TIP3   OH210094   6.818   5.842   2.524  0.4567  0.5577 -0.8456
 3377TIP3    H110095   6.848   5.757   2.557 -0.0797  0.2074 -1.2424
 3377TIP3    H210096   6.723   5.841   2.539  0.6411  1.8352  0.8353
 3378TIP3   OH210097   1.182   2.044   4.407 -0.3479  0.2244 -0.3616
 3378TIP3    H110098   1.272   2.031   4.376  0.0382  1.3855  0.2229
 3378TIP3    H210099   1.189   2.053   4.502 -1.1007  0.1481 -0.2883
 3379TIP3   OH210100   3.875   6.314   2.170  0.2651  0.2950 -0.4980
 3379TIP3    H110101   3.894   6.384   2.233 -0.3002  0.9434 -1.0219
 3379TIP3    H210102   3.933   6.334   2.096 -1.3732  1.4775 -1.5294
 3380TIP3   OH210103   2.167   6.508   2.902 -0.4645  0.2616 -0.2954
 3380TIP3    H110104   2.218   6.589   2.900 -0.3929  0.2083 -0.8067
 3380TIP3    H210105   2.190   6.463   2.821 -1.1170  0.1101 -0.4043
 3381TIP3   OH210106   5.714   1.207   4.621  0.1807 -0.0235 -0.1378
 3381TIP3    H110107   5.692   1.190   4.529 -0.5085 -0.6692  0.1313
 3381TIP3    H210108   5.629   1.223   4.663  0.1881 -2.1476  0.8556
 3382TIP3   OH210109   1.255   6.595   2.121  0.3699 -0.6312 -0.2253
 3382TIP3    H110110   1.224   6.517   2.076  0.6479 -1.2703  0.6478
 3382TIP3    H210111   1.324   6.630   2.065 -0.8925 -0.0188 -1.4670
 3383TIP3   OH210112   3.354   5.766   0.726  0.0709  0.3247  0.2187
 3383TIP3    H110113   3.310   5.796   0.646  0.8600  2.0178  0.3699
 3383TIP3    H210114   3.428   5.715   0.694  1.6419  2.7360 -0.3158
 3384TIP3   OH210115   3.181   0.541   1.426 -0.1519  0.0647 -0.0006
 3384TIP3    H110116   3.275   0.558   1.418 -0.5009  2.3167  0.0316
 3384TIP3    H210117   3.146   0.551   1.338 -0.3904 -0.6956 -0.0020
 3385TIP3   OH210118   1.540   4.278   5.758 -0.2116  0.2517 -0.6783
 3385TIP3    H110119   1.580   4.357   5.795  0.4148  0.4186 -1.6748
 3385TIP3    H210120   1.607   4.210   5.771 -0.3379  0.1184 -0.7338
 3386TIP3   OH210121   4.576   2.150   4.676 -0.0942  0.0809  0.4366
 3386TIP3    H110122   4.501   2.095   4.701 -0.2528  1.2882  2.9433
 3386TIP3    H210123   4.545   2.199   4.599 -1.6938  0.1239  1.0591
 3387TIP3   OH210124   5.688   1.182   4.347  0.2155  0.2022 -0.1961
 3387TIP3    H110125   5.632   1.238   4.294 -0.3644 -0.6026 -0.4652
 3387TIP3    H210126   5.736   1.128   4.284 -0.8245 -1.0889  0.0578
 3388TIP3   OH210127   3.666   2.759   0.563  0.1810 -0.0775  0.0130
 3388TIP3    H110128   3.678   2.827   0.497  1.5106  1.6990  1.9411
 3388TIP3    H210129   3.587   2.785   0.611  1.0907  0.5674  1.2110
 3389TIP3   OH210130   6.514   2.104   4.954 -0.4938  1.1566  0.7666
 3389TIP3    H110131   6.571   2.045   4.904  0.6547  0.8099  2.3787
 3389TIP3    H210132   6.564   2.122   5.034 -0.9561  4.0915  0.4873
 3390TIP3   OH210133   2.860   6.126   2.282 -0.3155 -0.6389  0.7439
 3390TIP3    H110134   2.783   6.143   2.337 -1.0575 -0.7317 -0.2434
 3390TIP3    H210135   2.900   6.212   2.270 -1.4061 -0.2567 -0.3676
 3391TIP3   OH210136   2.086   0.081   0.370 -0.1936 -0.1356  0.3581
 3391TIP3    H110137   2.006   0.031   0.355 -0.8085  0.5330  1.3017
 3391TIP3    H210138   2.144   0.021   0.416 -0.4776 -0.3549  0.4302
 3392TIP3   OH210139   0.727   5.234   3.914 -0.3762 -0.2650  0.3128
 3392TIP3    H110140   0.684   5.254   3.997  1.9206 -4.6794  2.9393
 3392TIP3    H210141   0.680   5.159   3.880 -1.3030  1.4957 -2.6235
 3393TIP3   OH210142   3.430   1.736   0.892  0.3696  0.3641  0.4647
 3393TIP3    H110143   3.496   1.804   0.910  1.9333 -0.6915 -0.9666
 3393TIP3    H210144   3.426   1.686   0.973 -0.0803  1.5430  1.2025
 3394TIP3   OH210145   3.728   4.603   3.965  0.0301 -0.4600  0.2808
 3394TIP3    H110146   3.786   4.567   4.032  0.7113 -2.0477 -1.0919
 3394TIP3    H210147   3.786   4.620   3.891 -0.3162  3.2925  0.7139
 3395TIP3   OH210148   1.289   6.043   5.042  0.5213  0.2870 -0.4668
 3395TIP3    H110149   1.284   6.102   5.118  0.9258  0.7417 -0.7864
 3395TIP3    H210150   1.202   6.005   5.035  0.1322  1.1642 -0.5073
 3396TIP3   OH210151   4.612   3.314   5.392  0.1001  0.5710  0.1892
 3396TIP3    H110152   4.586   3.223   5.377 -0.2867  0.7270 -0.1253
 3396TIP3    H210153   4.542   3.365   5.351 -0.3003  1.0181  1.3849
 3397TIP3   OH210154   3.105   3.363   3.370 -0.2761  0.0187 -0.6308
 3397TIP3    H110155   3.126   3.339   3.460 -0.1340 -0.1850 -0.7181
 3397TIP3    H210156   3.090   3.457   3.373  0.6945  0.1800 -0.5710
 3398TIP3   OH210157   0.824   6.226   2.361 -0.3247 -0.4369  0.4195
 3398TIP3    H110158   0.760   6.274   2.308  0.5136 -1.0554 -1.2052
 3398TIP3    H210159   0.884   6.294   2.393 -0.8953 -0.0475  0.6846
 3399TIP3   OH210160   6.392   0.660   4.989  0.3428 -0.5877 -0.2734
 3399TIP3    H110161   6.486   0.661   5.004  0.3536  0.7686 -0.2706
 3399TIP3    H210162   6.375   0.741   4.939 -1.1123  0.4696  1.7968
 3400TIP3   OH210163   5.434   1.190   4.774  0.0957  0.0892  0.4020
 3400TIP3    H110164   5.403   1.266   4.823 -1.1327 -0.2012  0.1037
 3400TIP3    H210165   5.394   1.198   4.688 -1.4566 -1.7408  0.8798
 3401TIP3   OH210166   6.127   6.404   0.563  0.0504  0.1324  0.2339
 3401TIP3    H110167   6.189   6.384   0.492  0.1580  1.2873 -0.0142
 3401TIP3    H210168   6.045   6.425   0.518  0.3649  1.7983  0.3611
 3402TIP3   OH210169   7.074   2.463   5.112 -0.7091  0.5100  0.3728
 3402TIP3    H110170   7.128   2.541   5.098 -0.7148  0.1832 -1.7513
 3402TIP3    H210171   6.988   2.487   5.077 -1.3388  0.2464  1.6660
 3403TIP3   OH210172   2.944   4.454   1.362  0.8455 -0.2895 -0.1008
 3403TIP3    H110173   2.955   4.521   1.429 -0.7584 -0.9648  0.8851
 3403TIP3    H210174   2.879   4.393   1.398 -1.9263  0.5649 -3.1539
 3404TIP3   OH210175   4.735   6.441   5.237  0.8416 -0.1839 -0.0714
 3404TIP3    H110176   4.666   6.382   5.268 -0.1725  0.3067 -1.3059
 3404TIP3    H210177   4.807   6.427   5.298 -0.3977 -0.5920  1.3721
 3405TIP3   OH210178   3.102   4.012   0.077 -0.0808 -0.1842 -0.3468
 3405TIP3    H110179   3.137   4.089   0.122 -0.3487  0.4791 -1.2472
 3405TIP3    H210180   3.083   4.042  -0.012  1.2278 -1.6546 -1.1927
 3406TIP3   OH210181   6.372   2.948   0.737 -0.4497 -0.4822  0.5381
 3406TIP3    H110182   6.460   2.913   0.751 -1.4868 -3.2955  0.7823
 3406TIP3    H210183   6.349   2.988   0.821  0.2202 -0.6501  0.8104
 3407TIP3   OH210184   1.496   1.123   2.497  0.3636 -0.3177 -0.2201
 3407TIP3    H110185   1.581   1.163   2.476  1.3512 -1.7268  0.8790
 3407TIP3    H210186   1.463   1.092   2.413  0.9910  0.1411 -0.6493
 3408TIP3   OH210187   6.035   1.090   3.574 -0.4856 -0.0953 -0.2058
 3408TIP3    H110188   6.040   1.031   3.498 -1.1195  0.0816 -0.3908
 3408TIP3    H210189   6.037   1.032   3.650  2.4700 -0.2007 -0.2232
 3409TIP3   OH210190   3.988   1.410   3.805 -0.0903  0.1963  0.1502
 3409TIP3    H110191   3.991   1.357   3.725 -1.3599  0.0890  0.1562
 3409TIP3    H210192   3.963   1.497   3.775 -0.3006  0.2229  0.4043
 3410TIP3   OH210193   6.278   3.582   5.333  0.2382 -0.4749 -0.1583
 3410TIP3    H110194   6.298   3.650   5.398 -0.8481 -0.2384 -0.0634
 3410TIP3    H210195   6.364   3.560   5.295  0.4814  2.0192 -1.2747
 3411TIP3   OH210196   0.519   6.426   0.287 -0.2832 -0.1190 -0.1472
 3411TIP3    H110197   0.473   6.498   0.330  0.0885 -0.0016  0.0479
 3411TIP3    H210198   0.453   6.389   0.227 -1.2618 -1.1689  1.5007
 3412TIP3   OH210199   3.445   0.422   4.491 -0.2950  0.0940  0.3888
 3412TIP3    H110200   3.392   0.343   4.484 -1.7248  1.0580 -0.0933
 3412TIP3    H210201   3.427   0.455   4.579 -1.9372  1.3571 -0.3649
 3413TIP3   OH210202   4.434   4.630   3.709  0.3830  0.0278 -0.2702
 3413TIP3    H110203   4.370   4.697   3.731  1.3126  1.0419 -0.5407
 3413TIP3    H210204   4.459   4.591   3.793  0.5591  0.7026 -0.0077
 3414TIP3   OH210205   0.553   1.598   1.881  0.0919  0.5561 -0.5612
 3414TIP3    H110206   0.569   1.689   1.857  0.0732  0.1537 -2.1778
 3414TIP3    H210207   0.481   1.570   1.824  0.4306 -0.6123 -0.4383
 3415TIP3   OH210208   1.240   1.364   0.191 -0.1236  0.1792 -0.3890
 3415TIP3    H110209   1.147   1.343   0.185 -0.1620  0.0482  0.4658
 3415TIP3    H210210   1.242   1.450   0.233  0.1501  0.0165 -0.0659
 3416TIP3   OH210211   5.404   5.214   2.878  0.0517 -0.5219  0.5340
 3416TIP3    H110212   5.483   5.264   2.857 -1.2511  1.5284  0.1779
 3416TIP3    H210213   5.405   5.207   2.973  0.1422  0.4331  0.6125
 3417TIP3   OH210214   4.715   1.788   2.227 -0.5058 -0.3857 -0.2484
 3417TIP3    H110215   4.663   1.776   2.147  0.1969  0.4930 -0.8551
 3417TIP3    H210216   4.788   1.843   2.200 -0.3190  0.0295  1.0361
 3418TIP3   OH210217   0.086   2.735   4.143  0.5626  0.4435  0.1258
 3418TIP3    H110218   0.066   2.644   4.167 -2.1976  0.5761 -1.1853
 3418TIP3    H210219   0.158   2.728   4.081  2.3834 -0.5340  2.2196
 3419TIP3   OH210220   4.551   1.386   0.366  0.9696 -0.1271  0.0741
 3419TIP3    H110221   4.595   1.430   0.440  1.1212 -0.7407  0.3509
 3419TIP3    H210222   4.460   1.377   0.395  1.3435 -1.7370  0.8301
 3420TIP3   OH210223   1.789   3.500   3.870 -0.0632 -0.0293 -0.2027
 3420TIP3    H110224   1.755   3.516   3.782  1.3500  0.2942 -0.7141
 3420TIP3    H210225   1.728   3.546   3.928  0.4953  2.0869 -1.2119
 3421TIP3   OH210226   0.565   0.112   4.472  0.5939 -0.4199 -0.3100
 3421TIP3    H110227   0.623   0.184   4.447  2.0874 -1.6620 -0.6040
 3421TIP3    H210228   0.609   0.070   4.546 -0.9082 -0.2612  0.7200
 3422TIP3   OH210229   1.738   5.684   0.420  0.7453 -0.3984 -0.0649
 3422TIP3    H110230   1.673   5.752   0.400  1.0549 -0.2453 -0.5753
 3422TIP3    H210231   1.797   5.726   0.483  0.8347 -0.2437 -0.2468
 3423TIP3   OH210232   0.621   0.306   2.133 -0.4797 -0.3605  0.4532
 3423TIP3    H110233   0.567   0.385   2.137 -0.6879 -0.4801  0.0945
 3423TIP3    H210234   0.579   0.253   2.065 -0.8001 -1.1262  1.2310
 3424TIP3   OH210235   3.543   0.534   3.955 -0.3672 -0.7593 -0.4677
 3424TIP3    H110236   3.491   0.540   3.874 -1.0393  1.0953  0.0629
 3424TIP3    H210237   3.513   0.454   3.996 -0.4574 -1.4180 -1.7521
 3425TIP3   OH210238   2.604   1.160   4.914  0.3599  0.1831  0.3377
 3425TIP3    H110239   2.632   1.211   4.990 -2.1186  0.7207  0.9737
 3425TIP3    H210240   2.593   1.071   4.948 -0.5207  0.3770  0.6082
 3426TIP3   OH210241   2.454   0.654   2.972 -0.1932  0.5380 -0.1596
 3426TIP3    H110242   2.369   0.612   2.958  0.4860 -0.2683 -2.2909
 3426TIP3    H210243   2.508   0.622   2.900  1.7121  1.6057  0.7296
 3427TIP3   OH210244   5.182   1.574   2.819 -0.0510  0.3438  0.1854
 3427TIP3    H110245   5.088   1.580   2.831 -0.2024 -0.0102 -0.7556
 3427TIP3    H210246   5.199   1.620   2.737  0.2717 -1.6030 -0.8987
 3428TIP3   OH210247   3.463   6.026   4.703  0.3379  0.2338  0.3822
 3428TIP3    H110248   3.533   6.085   4.674 -1.4883  2.1155 -0.4501
 3428TIP3    H210249   3.501   5.938   4.695  3.1685  1.2412  1.6810
 3429TIP3   OH210250   0.974   2.077   4.820  0.3566  0.0443  0.2769
 3429TIP3    H110251   1.030   2.029   4.759  0.7781  2.4102 -1.3322
 3429TIP3    H210252   0.897   2.101   4.769  1.5684  3.7579 -0.1564
 3430TIP3   OH210253   1.231   0.683   2.673 -0.1774  0.6988  0.3038
 3430TIP3    H110254   1.172   0.664   2.600 -1.0449  1.5364  0.7658
 3430TIP3    H210255   1.242   0.778   2.671  1.2861  0.5423  0.1483
 3431TIP3   OH210256   1.249   5.571   2.346  0.4139 -0.5544  0.8527
 3431TIP3    H110257   1.305   5.494   2.333  2.6427  1.0501  0.3611
 3431TIP3    H210258   1.178   5.560   2.282  1.7148 -1.3257 -0.5348
 3432TIP3   OH210259   3.145   5.527   2.763 -0.2031 -0.0477  0.3547
 3432TIP3    H110260   3.196   5.520   2.682 -1.4466 -2.3590 -0.3310
 3432TIP3    H210261   3.152   5.440   2.803  0.1935  0.9687  2.6684
 3433TIP3   OH210262   1.262   6.606   0.051 -0.1454 -0.2344  0.3426
 3433TIP3    H110263   1.218   6.625   0.134  0.2615  2.8179 -0.0352
 3433TIP3    H210264   1.350   6.640   0.062  1.1631 -3.1221 -0.1569
 3434TIP3   OH210265   5.819   0.902   1.840  0.2990  0.1547  0.0411
 3434TIP3    H110266   5.867   0.938   1.915 -2.6854  1.9227  1.2986
 3434TIP3    H210267   5.844   0.958   1.767  0.3666  0.9067  0.6223
 3435TIP3   OH210268   5.626   5.170   3.414 -0.1900  0.5137  0.1507
 3435TIP3    H110269   5.615   5.265   3.416  0.6664  0.6508 -0.8792
 3435TIP3    H210270   5.536   5.136   3.412 -0.5376  1.3958 -1.7067
 3436TIP3   OH210271   3.001   6.689   5.262  0.1525  0.2983 -0.3308
 3436TIP3    H110272   2.949   6.610   5.274  2.8778 -1.7932 -1.3421
 3436TIP3    H210273   2.995   6.707   5.168 -0.5347  1.4050 -0.0903
 3437TIP3   OH210274   4.551   3.817   1.820  0.0200 -0.4621 -0.1161
 3437TIP3    H110275   4.571   3.849   1.908  1.5238 -0.0260 -0.5942
 3437TIP3    H210276   4.626   3.844   1.767 -0.3794 -1.6158 -1.3177
 3438TIP3   OH210277   0.044   1.242   5.092  0.1508  0.5748  0.7029
 3438TIP3    H110278   0.032   1.151   5.120 -0.5169  0.8248  1.2360
 3438TIP3    H210279   0.067   1.289   5.172 -0.1931  1.0093  0.5469
 3439TIP3   OH210280   6.610   2.016   5.514  0.8059  0.6408 -0.1449
 3439TIP3    H110281   6.604   1.925   5.486 -1.2880  0.1143  1.7609
 3439TIP3    H210282   6.641   2.063   5.436 -1.2547 -1.2183 -2.2562
 3440TIP3   OH210283   4.655   5.801   0.792  0.1747  0.1332 -0.1582
 3440TIP3    H110284   4.749   5.803   0.779  0.5218  1.3162  2.1131
 3440TIP3    H210285   4.624   5.886   0.761 -0.1638 -0.1894 -0.7494
 3441TIP3   OH210286   0.273   1.416   5.557 -0.3782  0.5639  0.0664
 3441TIP3    H110287   0.289   1.322   5.560  0.4168  0.7204  1.8545
 3441TIP3    H210288   0.341   1.450   5.500  0.0991  0.1953  0.4092
 3442TIP3   OH210289   0.333   2.301   0.878  0.5302 -0.1004  0.0566
 3442TIP3    H110290   0.275   2.352   0.822  1.0500  2.0210  1.3540
 3442TIP3    H210291   0.292   2.214   0.883 -0.4246  0.1621 -2.1553
 3443TIP3   OH210292   2.631   2.789   1.438 -0.4693  0.2828 -0.6548
 3443TIP3    H110293   2.666   2.796   1.526  0.1340 -1.6884 -0.6947
 3443TIP3    H210294   2.683   2.851   1.386 -0.7398  1.3539  0.3021
 3444TIP3   OH210295   6.814   0.042   5.351 -0.0856  0.2924  0.1496
 3444TIP3    H110296   6.739   0.053   5.410 -1.1292  1.4006 -1.3177
 3444TIP3    H210297   6.888   0.026   5.409 -1.2431  0.3679  1.7044
 3445TIP3   OH210298   2.122   5.551   3.965  0.3646 -0.1987  0.3759
 3445TIP3    H110299   2.150   5.470   3.923 -0.9640 -0.5350  0.1016
 3445TIP3    H210300   2.098   5.525   4.054  1.2491  0.1571  0.7339
 3446TIP3   OH210301   1.273   0.430   4.010  0.4141  0.5017  0.4692
 3446TIP3    H110302   1.242   0.346   3.977  1.7466  0.6282 -1.3173
 3446TIP3    H210303   1.284   0.483   3.931  0.5410  2.0253  1.4753
 3447TIP3   OH210304   3.585   4.540   0.205  0.2835  0.2363  0.2595
 3447TIP3    H110305   3.551   4.450   0.209 -1.0144  0.7181  0.7354
 3447TIP3    H210306   3.508   4.594   0.183  1.1783  1.1658 -0.6850
 3448TIP3   OH210307   5.499   1.954   5.418  0.4776  0.0416 -0.8102
 3448TIP3    H110308   5.446   1.885   5.378 -0.5293  1.9169 -2.9293
 3448TIP3    H210309   5.544   1.996   5.345  2.1841  0.7659  0.5666
 3449TIP3   OH210310   5.955   3.047   5.509  0.4254 -0.1908  0.0384
 3449TIP3    H110311   5.869   3.086   5.523 -1.3622 -3.6844 -0.0736
 3449TIP3    H210312   5.964   3.041   5.414  0.7899  0.1687  0.0508
 3450TIP3   OH210313   2.891   1.509   2.330 -0.3358 -0.8638  0.4924
 3450TIP3    H110314   2.973   1.466   2.354  0.1143 -0.6712 -0.6534
 3450TIP3    H210315   2.830   1.437   2.313  0.1650 -1.0601 -0.5611
 3451TIP3   OH210316   4.927   0.380   1.249  0.4673 -0.6001 -0.1249
 3451TIP3    H110317   4.984   0.431   1.308  2.6671 -1.4271 -1.4173
 3451TIP3    H210318   4.919   0.295   1.292  1.8306 -1.1082 -0.8420
 3452TIP3   OH210319   6.089   5.980   4.615 -0.1617 -0.2692 -0.3120
 3452TIP3    H110320   6.051   5.914   4.672 -1.2019  0.6662  0.1241
 3452TIP3    H210321   6.101   6.056   4.671  3.1196 -0.7120 -0.2439
 3453TIP3   OH210322   0.231   1.381   1.421 -0.2065  0.1817 -0.2339
 3453TIP3    H110323   0.297   1.356   1.356  1.1544 -0.2843  1.2516
 3453TIP3    H210324   0.211   1.473   1.401  0.6303  0.2207 -0.9622
 3454TIP3   OH210325   3.443   0.161   3.750  0.0374 -0.3086  0.2738
 3454TIP3    H110326   3.352   0.131   3.751 -0.2051 -0.0762 -3.0003
 3454TIP3    H210327   3.489   0.094   3.700  1.3149  0.3988  0.4655
 3455TIP3   OH210328   3.444   5.055   0.097 -0.0568  0.2174  0.3135
 3455TIP3    H110329   3.356   5.021   0.114 -0.8304  2.3120  0.8463
 3455TIP3    H210330   3.433   5.113   0.021  0.6108  1.3143  1.0237
 3456TIP3   OH210331   0.460   4.455   3.477 -0.4469  0.2796  0.0326
 3456TIP3    H110332   0.467   4.517   3.405 -1.2397  0.6794  0.2878
 3456TIP3    H210333   0.373   4.418   3.469 -0.3793 -0.0016  0.5203
 3457TIP3   OH210334   1.473   2.504   1.650 -0.3035  0.0506 -0.4191
 3457TIP3    H110335   1.449   2.419   1.686  0.0338  0.9551  2.1441
 3457TIP3    H210336   1.522   2.547   1.720  3.2576  0.7926 -3.0826
 3458TIP3   OH210337   2.184   4.750   0.274  0.5901  1.3907 -0.4588
 3458TIP3    H110338   2.125   4.813   0.315  0.1332  1.8034 -1.7289
 3458TIP3    H210339   2.157   4.666   0.311 -1.2363  1.4788 -1.4467
 3459TIP3   OH210340   5.776   2.769   0.957  0.4776  0.4324  0.1291
 3459TIP3    H110341   5.871   2.778   0.951  0.5073 -0.4750 -1.0951
 3459TIP3    H210342   5.760   2.676   0.944 -0.6766  0.7927 -1.2920
 3460TIP3   OH210343   0.147   1.980   2.996 -0.0282 -0.3392  0.4053
 3460TIP3    H110344   0.242   1.979   2.982 -0.0337 -0.6809  0.3802
 3460TIP3    H210345   0.118   2.063   2.957  0.3539  0.1299  1.0882
 3461TIP3   OH210346   6.489   3.013   3.844  0.0319 -0.2655  0.4813
 3461TIP3    H110347   6.474   2.973   3.930 -2.1281  0.6260  0.5825
 3461TIP3    H210348   6.498   3.107   3.863  1.4656 -0.2613 -0.1097
 3462TIP3   OH210349   4.862   0.069   5.853 -0.1587 -0.6129 -0.4379
 3462TIP3    H110350   4.852   0.095   5.762  0.7942  0.1441 -0.3418
 3462TIP3    H210351   4.793   0.118   5.899 -1.2210 -1.6722 -0.8422
 3463TIP3   OH210352   0.870   1.515   5.603 -0.3085 -0.7122  0.4972
 3463TIP3    H110353   0.889   1.522   5.697 -1.3450  1.5862  0.6025
 3463TIP3    H210354   0.784   1.473   5.599  0.1635 -1.7098  0.4995
 3464TIP3   OH210355   2.155   5.127   2.366 -1.0072 -0.2616  0.0112
 3464TIP3    H110356   2.124   5.168   2.286 -1.4489 -1.3495 -0.3907
 3464TIP3    H210357   2.241   5.166   2.381 -1.0216  0.1231 -0.8534
 3465TIP3   OH210358   5.985   5.378   2.723  0.3756 -0.2132  0.5638
 3465TIP3    H110359   5.895   5.410   2.712  0.5745 -0.2511 -1.7835
 3465TIP3    H210360   6.039   5.457   2.726  0.4619 -0.2006 -0.6946
 3466TIP3   OH210361   2.330   3.322   1.371 -0.1942  0.2150  0.1081
 3466TIP3    H110362   2.265   3.311   1.440  0.0712 -2.9197 -0.0290
 3466TIP3    H210363   2.412   3.295   1.412 -0.1366 -2.3612 -1.5199
 3467TIP3   OH210364   6.323   2.841   4.010  0.4006 -0.0774  0.2590
 3467TIP3    H110365   6.308   2.762   4.062 -1.7446  1.1725  1.7226
 3467TIP3    H210366   6.312   2.813   3.919 -0.0615 -1.5140  0.7417
 3468TIP3   OH210367   4.677   0.170   1.165  0.1462 -0.2587 -0.6875
 3468TIP3    H110368   4.739   0.195   1.096 -0.0523  1.2140 -0.3537
 3468TIP3    H210369   4.716   0.204   1.246 -0.0389 -1.2328 -0.1737
 3469TIP3   OH210370   3.670   0.349   5.208  0.5253  0.1392 -0.0686
 3469TIP3    H110371   3.741   0.334   5.269 -0.4195 -0.0290  1.0277
 3469TIP3    H210372   3.667   0.445   5.198  1.2735  0.1162 -0.5977
 3470TIP3   OH210373   3.339   3.209   2.361  0.6101 -0.5437  0.9633
 3470TIP3    H110374   3.362   3.295   2.325 -0.5057  0.5883  2.7951
 3470TIP3    H210375   3.424   3.171   2.384  1.2047 -0.4571 -0.8709
 3471TIP3   OH210376   6.696   5.473   3.574 -0.6551  0.5850 -0.0894
 3471TIP3    H110377   6.730   5.395   3.619 -1.6488  0.3726  0.3280
 3471TIP3    H210378   6.692   5.539   3.642  1.1003  1.3307 -0.6492
 3472TIP3   OH210379   1.005   4.079   4.479  0.2203 -0.0919  0.3157
 3472TIP3    H110380   1.015   4.157   4.533 -1.2020 -1.6999  3.0750
 3472TIP3    H210381   0.911   4.070   4.466  0.2283 -2.0612  1.2392
 3473TIP3   OH210382   6.242   6.204   1.522 -0.2181  0.1512 -0.0827
 3473TIP3    H110383   6.184   6.129   1.509 -1.6357  0.9266  1.2931
 3473TIP3    H210384   6.197   6.257   1.589  2.2624  0.6425  1.3127
 3474TIP3   OH210385   5.075   6.232   5.223  0.2432  0.2928  0.0721
 3474TIP3    H110386   5.009   6.265   5.284 -0.7581  0.9352 -1.3112
 3474TIP3    H210387   5.155   6.281   5.246  0.0731  0.0358  1.2852
 3475TIP3   OH210388   3.449   0.841   4.953 -0.0290 -0.1621 -0.1383
 3475TIP3    H110389   3.451   0.936   4.939 -0.5079 -0.2429 -0.7953
 3475TIP3    H210390   3.392   0.828   5.028 -1.5792 -0.0513 -1.2590
 3476TIP3   OH210391   3.686   5.681   5.843  0.1389 -0.0166  0.0080
 3476TIP3    H110392   3.652   5.606   5.794 -2.3422  1.6179 -0.9600
 3476TIP3    H210393   3.672   5.657   5.935 -0.3234 -0.8539 -0.2700
 3477TIP3   OH210394   3.762   3.890   2.556 -0.5212  0.2091 -0.1310
 3477TIP3    H110395   3.832   3.826   2.543 -0.5870 -0.2366  1.5573
 3477TIP3    H210396   3.753   3.898   2.651 -1.7361  1.3942 -0.3131
 3478TIP3   OH210397   2.485   2.439   2.453  0.6038 -0.4110 -0.2347
 3478TIP3    H110398   2.496   2.378   2.381 -0.3449  1.3398 -1.9420
 3478TIP3    H210399   2.432   2.510   2.417 -1.1682 -0.1403  2.5968
 3479TIP3   OH210400   0.301   5.161   3.161  0.6491 -0.1654  0.3145
 3479TIP3    H110401   0.254   5.078   3.172 -0.8843  0.8132  1.5394
 3479TIP3    H210402   0.369   5.141   3.097 -0.9804 -1.8644 -1.0091
 3480TIP3   OH210403   5.572   5.181   4.917  0.2136 -0.5603 -0.4104
 3480TIP3    H110404   5.562   5.159   4.824  0.4327  1.6628 -1.0104
 3480TIP3    H210405   5.531   5.267   4.926  1.3020 -0.1667  1.2842
 3481TIP3   OH210406   2.053   6.339   5.066  0.3040 -0.8274 -1.0757
 3481TIP3    H110407   2.058   6.374   5.155  0.4734 -1.5905 -0.7758
 3481TIP3    H210408   1.967   6.297   5.061 -0.5128  0.8683 -1.9155
 3482TIP3   OH210409   1.569   4.844   3.074 -0.1135 -0.0344 -0.3466
 3482TIP3    H110410   1.534   4.925   3.109 -1.2080 -0.4478 -0.4625
 3482TIP3    H210411   1.500   4.779   3.088  1.4335 -1.3949  1.4554
 3483TIP3   OH210412   2.019   4.622   1.437 -0.2431  0.2951 -0.9456
 3483TIP3    H110413   1.944   4.681   1.447 -0.9812 -0.5405 -1.3003
 3483TIP3    H210414   2.024   4.605   1.343  1.1480  1.2635 -1.0639
 3484TIP3   OH210415   3.984   1.766   2.375 -0.1217 -0.1466 -0.5691
 3484TIP3    H110416   3.998   1.828   2.303  1.6334 -0.3139 -0.4031
 3484TIP3    H210417   4.041   1.692   2.355 -1.9813 -1.6674 -0.6330
 3485TIP3   OH210418   1.206   4.943   3.602 -0.2249  0.6944 -0.0798
 3485TIP3    H110419   1.181   4.852   3.586  1.2083  0.2661 -0.0912
 3485TIP3    H210420   1.232   4.945   3.694 -0.4990  1.1624 -0.0105
 3486TIP3   OH210421   4.745   2.919   5.325  0.2758 -0.1220  0.0216
 3486TIP3    H110422   4.789   2.873   5.396 -0.6446 -1.1001 -0.0068
 3486TIP3    H210423   4.789   3.003   5.320 -1.1462  0.9981  3.3646
 3487TIP3   OH210424   0.980   3.352   3.415  0.5138 -0.3060 -0.3885
 3487TIP3    H110425   0.971   3.269   3.367  0.9161 -0.2645 -0.5409
 3487TIP3    H210426   1.067   3.347   3.454  1.6653  1.1427 -2.5409
 3488TIP3   OH210427   1.614   1.572   0.500 -0.2162  0.1528  0.3991
 3488TIP3    H110428   1.685   1.636   0.503 -0.8451  0.8461  0.6687
 3488TIP3    H210429   1.588   1.561   0.592 -1.6124  1.2321  0.1748
 3489TIP3   OH210430   3.519   5.014   4.030  0.3213  0.0553  0.4785
 3489TIP3    H110431   3.506   5.052   3.943 -0.8007 -0.8413  0.2216
 3489TIP3    H210432   3.497   5.084   4.091 -1.2496  0.0224  0.0114
 3490TIP3   OH210433   4.819   2.415   0.664  0.5025 -0.3521  0.0009
 3490TIP3    H110434   4.895   2.466   0.692 -0.6152  0.8052  1.0573
 3490TIP3    H210435   4.752   2.434   0.729 -1.3007  0.1574 -1.8828
 3491TIP3   OH210436   1.433   1.816   3.429 -0.4315  0.3864  0.5119
 3491TIP3    H110437   1.491   1.891   3.441 -0.3366  0.3519  0.2728
 3491TIP3    H210438   1.492   1.740   3.425 -0.5403  0.2727  0.9754
 3492TIP3   OH210439   4.322   6.224   4.109  0.1183  0.4269 -0.1725
 3492TIP3    H110440   4.366   6.261   4.186  0.4083 -0.1546 -0.0487
 3492TIP3    H210441   4.246   6.178   4.144  0.2933  0.0957 -0.2200
 3493TIP3   OH210442   2.851   0.639   1.386 -0.3037  0.4421  0.2411
 3493TIP3    H110443   2.758   0.652   1.406 -0.6741  0.1080 -1.1477
 3493TIP3    H210444   2.866   0.546   1.402 -0.0703  0.5985  0.9576
 3494TIP3   OH210445   6.237   3.877   3.930  0.3067  0.2934  0.3066
 3494TIP3    H110446   6.162   3.933   3.907 -0.1607 -0.4928 -0.1404
 3494TIP3    H210447   6.313   3.925   3.898 -0.1307  0.4419 -0.5507
 3495TIP3   OH210448   3.115   3.649   3.370  1.0664 -0.0812  0.2237
 3495TIP3    H110449   3.097   3.731   3.324  1.4733 -0.8993 -1.4572
 3495TIP3    H210450   3.094   3.668   3.462  0.2373  1.6040 -0.2777
 3496TIP3   OH210451   1.720   1.995   0.415 -0.2936  0.5133  0.2231
 3496TIP3    H110452   1.654   1.945   0.463 -0.7120  1.7633  0.9820
 3496TIP3    H210453   1.768   2.043   0.482  0.3885  0.8057 -0.4540
 3497TIP3   OH210454   5.296   5.187   1.644 -0.0085 -0.3968  0.1346
 3497TIP3    H110455   5.273   5.254   1.708 -0.2366  1.2686 -1.6192
 3497TIP3    H210456   5.224   5.123   1.650  0.9900 -1.4129  2.9226
 3498TIP3   OH210457   6.812   2.956   4.007  0.2822  0.3360 -0.2213
 3498TIP3    H110458   6.769   2.876   4.040  0.6281 -0.0110 -0.6025
 3498TIP3    H210459   6.804   2.950   3.912 -0.7334  1.3461 -0.2249
 3499TIP3   OH210460   0.174   2.900   4.670  0.2865 -0.3127  0.3612
 3499TIP3    H110461   0.162   2.855   4.587  2.4883 -0.3481 -0.0035
 3499TIP3    H210462   0.088   2.939   4.689 -0.2742 -0.3129 -1.9071
 3500TIP3   OH210463   2.814   4.659   0.593  0.0210 -0.1297 -0.1267
 3500TIP3    H110464   2.736   4.684   0.643  0.6397 -0.6255  1.1364
 3500TIP3    H210465   2.856   4.742   0.571 -1.7842  0.2522 -2.4347
 3501TIP3   OH210466   4.385   0.188   1.227 -0.1241 -0.4309 -0.5150
 3501TIP3    H110467   4.372   0.241   1.305 -0.5707 -0.7298 -0.3860
 3501TIP3    H210468   4.397   0.252   1.156  1.0220 -0.1555 -0.0911
 3502TIP3   OH210469   6.748   6.717   3.873  0.1530  0.5511 -0.6618
 3502TIP3    H110470   6.704   6.784   3.926  1.9153  1.0235  0.3004
 3502TIP3    H210471   6.787   6.658   3.938 -0.8167 -1.0752 -1.4913
 3503TIP3   OH210472   6.483   6.285   0.941  0.1708 -0.3520  0.0241
 3503TIP3    H110473   6.554   6.249   0.995  1.1132 -1.9486 -2.1360
 3503TIP3    H210474   6.418   6.315   1.004  2.0332 -0.3519  2.0661
 3504TIP3   OH210475   3.873   2.125   0.307 -0.1999  0.7270 -0.0163
 3504TIP3    H110476   3.953   2.166   0.340  0.0645  2.6843 -2.6782
 3504TIP3    H210477   3.812   2.198   0.296 -2.1065 -0.6058  1.1482
 3505TIP3   OH210478   3.618   5.280   2.084 -0.0218  0.3975 -0.0038
 3505TIP3    H110479   3.670   5.200   2.097  0.1817  0.8081  1.9998
 3505TIP3    H210480   3.680   5.341   2.043  1.5265  1.1709  3.1263
 3506TIP3   OH210481   1.826   3.156   1.978 -0.3739 -0.3290 -0.2367
 3506TIP3    H110482   1.885   3.215   1.929 -1.8581  1.0892 -0.3973
 3506TIP3    H210483   1.748   3.148   1.923 -0.3520 -2.2461 -0.0598
 3507TIP3   OH210484   0.456   0.073   0.850 -0.2452 -0.4644  0.3833
 3507TIP3    H110485   0.443   0.024   0.768 -1.6359  1.6477 -0.7498
 3507TIP3    H210486   0.506   0.150   0.824  3.0883 -1.7562  2.3662
 3508TIP3   OH210487   2.111   3.990   1.055  0.1839  0.2944 -0.3916
 3508TIP3    H110488   2.138   4.028   1.139  1.7762 -1.2497 -0.1502
 3508TIP3    H210489   2.192   3.961   1.014 -0.6403  0.3210 -2.1371
 3509TIP3   OH210490   4.105   2.929   4.761  0.1457 -0.1535  0.1402
 3509TIP3    H110491   4.148   3.012   4.745 -1.3010  0.3299 -1.6068
 3509TIP3    H210492   4.032   2.951   4.819 -0.0826 -0.2413 -0.1116
 3510TIP3   OH210493   5.347   2.009   1.730  0.8455 -0.4969  0.2215
 3510TIP3    H110494   5.323   2.027   1.820  0.8086  1.3953 -0.1360
 3510TIP3    H210495   5.430   2.055   1.717  0.0563  0.6418 -1.1441
 3511TIP3   OH210496   0.405   1.997   2.984 -0.4899 -0.2341  0.2231
 3511TIP3    H110497   0.409   2.070   2.923 -0.3125 -0.7666 -0.4183
 3511TIP3    H210498   0.474   1.937   2.954 -2.2141 -1.8116 -0.7828
 3512TIP3   OH210499   2.599   0.250   5.681  0.3756  0.1013  0.3208
 3512TIP3    H110500   2.516   0.229   5.638  0.0004  1.0650  0.5674
 3512TIP3    H210501   2.588   0.339   5.714  1.7578  0.5138 -0.2492
 3513TIP3   OH210502   6.204   1.045   2.797  0.4187  0.2350  0.1779
 3513TIP3    H110503   6.293   1.059   2.829  0.6807  1.4598 -0.9972
 3513TIP3    H210504   6.202   1.088   2.712 -1.3629  0.4434  0.2851
 3514TIP3   OH210505   0.135   3.203   2.581  0.2132 -1.0349 -0.5438
 3514TIP3    H110506   0.075   3.221   2.508  0.3518 -1.0804 -0.6673
 3514TIP3    H210507   0.100   3.256   2.653  0.5347 -0.3671 -0.8634
 3515TIP3   OH210508   5.236   1.728   4.181  0.3514 -0.2241  0.2913
 3515TIP3    H110509   5.216   1.812   4.141  0.8784 -0.1219  0.2437
 3515TIP3    H210510   5.330   1.729   4.195  0.3516 -0.7785  0.3579
 3516TIP3   OH210511   6.952   4.650   5.295  0.4218  0.4372 -0.5780
 3516TIP3    H110512   6.893   4.691   5.359 -1.8303 -0.4901 -1.9518
 3516TIP3    H210513   6.967   4.562   5.329  0.2794  0.3701 -0.6915
 3517TIP3   OH210514   1.467   4.970   0.375 -0.3434  0.3443  0.0913
 3517TIP3    H110515   1.380   4.954   0.410 -0.3986  0.8980  0.2213
 3517TIP3    H210516   1.452   5.019   0.294 -0.1362  1.1649  0.5308
 3518TIP3   OH210517   2.931   2.927   3.075  0.2109 -0.6405 -0.2204
 3518TIP3    H110518   2.954   3.019   3.089  0.5355 -0.5142 -1.4138
 3518TIP3    H210519   2.837   2.924   3.088 -0.3446  0.5536 -3.1961
 3519TIP3   OH210520   4.691   0.463   4.675  0.5172 -0.4792  0.3727
 3519TIP3    H110521   4.673   0.544   4.722 -0.0387 -0.7992  0.7230
 3519TIP3    H210522   4.729   0.491   4.591  0.1666  0.1444  0.4181
 3520TIP3   OH210523   3.638   6.314   3.622  0.0869 -0.4354 -0.0343
 3520TIP3    H110524   3.713   6.347   3.574  0.9003 -0.4191  1.2010
 3520TIP3    H210525   3.577   6.283   3.555  1.0252 -0.0929 -1.0582
 3521TIP3   OH210526   2.976   5.127   4.335  0.2588 -0.1003 -0.0898
 3521TIP3    H110527   2.931   5.164   4.258  0.5951 -0.7434 -0.6044
 3521TIP3    H210528   2.912   5.068   4.373 -0.2557  0.9270  0.6956
 3522TIP3   OH210529   3.294   0.509   5.141 -0.2996  0.0949  0.1636
 3522TIP3    H110530   3.200   0.505   5.125 -0.3589  0.8545  0.2957
 3522TIP3    H210531   3.334   0.500   5.054 -0.5780  2.5767 -0.2797
 3523TIP3   OH210532   2.407   6.390   5.355 -0.1068  0.3706  0.2178
 3523TIP3    H110533   2.341   6.329   5.323  0.7278 -0.2090 -0.4200
 3523TIP3    H210534   2.442   6.432   5.276  2.4887 -1.6049  0.1895
 3524TIP3   OH210535   0.526   0.138   0.428 -0.3095  0.7742 -0.5335
 3524TIP3    H110536   0.533   0.212   0.368  0.6328  0.2855 -1.0478
 3524TIP3    H210537   0.433   0.115   0.426 -0.1211 -0.1681 -3.0141
 3525TIP3   OH210538   3.257   0.335   0.873  0.1671 -0.3143  0.3976
 3525TIP3    H110539   3.208   0.411   0.903  0.3332 -0.1347  0.2203
 3525TIP3    H210540   3.301   0.365   0.793 -1.0345 -1.0605 -0.5755
 3526TIP3   OH210541   5.735   2.179   2.370 -0.3864 -0.0532  0.3428
 3526TIP3    H110542   5.828   2.183   2.394 -0.2330  0.4461 -0.2930
 3526TIP3    H210543   5.736   2.183   2.274 -1.0705 -0.0039  0.3382
 3527TIP3   OH210544   5.517   2.194   0.464  0.3915 -0.9085  0.2322
 3527TIP3    H110545   5.482   2.202   0.375 -0.2342 -0.7580  0.4862
 3527TIP3    H210546   5.439   2.192   0.520  0.7919 -0.1010  0.8468
 3528TIP3   OH210547   6.672   6.098   0.210 -0.1976  0.0115 -0.0883
 3528TIP3    H110548   6.659   6.138   0.295 -1.9765 -2.7137  1.0696
 3528TIP3    H210549   6.593   6.120   0.160 -0.4141 -0.6184 -0.0345
 3529TIP3   OH210550   6.716   3.367   0.977 -0.4582  0.1930 -0.1294
 3529TIP3    H110551   6.772   3.393   0.904 -0.3196  0.7361  0.1660
 3529TIP3    H210552   6.658   3.441   0.990 -0.1656  0.2964  0.6243
 3530TIP3   OH210553   3.179   0.060   4.005 -0.4504 -0.3083 -0.2624
 3530TIP3    H110554   3.205  -0.006   3.941  0.8009 -0.3187  0.2146
 3530TIP3    H210555   3.109   0.109   3.962 -0.1120 -0.7516 -1.3651
 3531TIP3   OH210556   1.874   2.916   4.419 -0.3937  0.0350  0.1274
 3531TIP3    H110557   1.787   2.905   4.459 -1.5892  1.7539 -1.7830
 3531TIP3    H210558   1.927   2.954   4.489 -1.2156 -0.8126  1.2688
 3532TIP3   OH210559   2.060   4.560   1.863  0.1444 -0.4038  0.9353
 3532TIP3    H110560   2.124   4.580   1.931  1.2721 -1.9199  0.3809
 3532TIP3    H210561   2.008   4.488   1.899 -1.0627  0.5994  1.2511
 3533TIP3   OH210562   3.237   3.998   3.434 -0.0461  0.4553 -0.3595
 3533TIP3    H110563   3.206   3.939   3.365 -0.9205  1.6651 -1.0331
 3533TIP3    H210564   3.185   3.975   3.511  0.9359 -0.9065 -0.0678
 3534TIP3   OH210565   4.917   6.144   2.057 -0.2836  0.0776  0.4300
 3534TIP3    H110566   4.960   6.164   2.140 -1.6556  0.0242  1.1821
 3534TIP3    H210567   4.857   6.073   2.078  1.2788 -1.8613 -1.2180
 3535TIP3   OH210568   5.910   6.704   0.456 -0.1230  0.3729  0.0931
 3535TIP3    H110569   5.899   6.612   0.431 -0.1279  0.3417  0.2089
 3535TIP3    H210570   5.824   6.730   0.488  0.1629  0.0854  1.1396
 3536TIP3   OH210571   6.786   2.847   0.242 -0.7031 -0.0606 -0.0453
 3536TIP3    H110572   6.766   2.887   0.327 -0.3222 -1.5641  0.7959
 3536TIP3    H210573   6.729   2.893   0.180 -0.7480  1.2977  0.9617
 3537TIP3   OH210574   6.609   4.786   5.215  0.4917  0.0342  0.4962
 3537TIP3    H110575   6.586   4.803   5.124 -0.0599 -2.5669  0.0672
 3537TIP3    H210576   6.529   4.755   5.256  0.9579  0.2612  1.6414
 3538TIP3   OH210577   4.473   5.485   2.897 -0.0090 -0.6715 -0.9067
 3538TIP3    H110578   4.397   5.467   2.841 -0.7611 -0.6356  0.0687
 3538TIP3    H210579   4.503   5.399   2.925 -0.4425 -0.6462 -0.3387
 3539TIP3   OH210580   6.203   4.561   2.371  0.6205 -0.5577  0.1982
 3539TIP3    H110581   6.115   4.590   2.347  1.7056  1.9721 -1.2039
 3539TIP3    H210582   6.205   4.566   2.466 -0.5015  0.2722  0.2074
 3540TIP3   OH210583   6.163   4.208   3.988  0.1900 -0.3077 -0.2308
 3540TIP3    H110584   6.087   4.264   4.007  0.5840  0.1144  0.1237
 3540TIP3    H210585   6.172   4.212   3.893  0.6893  0.8864 -0.1519
 3541TIP3   OH210586   5.424   3.118   1.147  1.1724 -0.1581 -0.0736
 3541TIP3    H110587   5.510   3.079   1.160  0.8760 -1.1186 -0.8515
 3541TIP3    H210588   5.385   3.067   1.076  0.0709  0.4449  0.0722
 3542TIP3   OH210589   0.573   3.023   0.055 -0.0726 -0.0131  0.5403
 3542TIP3    H110590   0.651   3.001   0.107 -0.8304  0.0302  1.7336
 3542TIP3    H210591   0.518   2.945   0.060 -0.0814 -0.0672 -0.3513
 3543TIP3   OH210592   4.110   1.931   4.920 -0.5764 -0.4822  0.4747
 3543TIP3    H110593   4.034   1.884   4.885 -0.7918  0.6274 -0.5782
 3543TIP3    H210594   4.073   2.006   4.966 -0.1058  0.7546 -1.0856
 3544TIP3   OH210595   3.474   6.580   2.630 -0.2665  0.5332 -0.4685
 3544TIP3    H110596   3.432   6.653   2.586  0.1618  0.0880 -1.6534
 3544TIP3    H210597   3.472   6.509   2.566  0.4690 -0.1035  0.1952
 3545TIP3   OH210598   1.339   6.043   4.336 -0.1785  0.0718  0.2445
 3545TIP3    H110599   1.382   6.057   4.420  1.6257  0.4104 -0.6806
 3545TIP3    H210600   1.327   6.131   4.299 -0.3927 -0.1023 -0.1134
 3546TIP3   OH210601   2.233   0.348   4.147  0.1636  0.0776 -0.1062
 3546TIP3    H110602   2.193   0.408   4.210 -0.5302  1.2567 -1.5892
 3546TIP3    H210603   2.268   0.277   4.200 -0.3581  1.0302  1.5948
 3547TIP3   OH210604   6.885   5.209   3.034  0.1807  0.6828  0.1681
 3547TIP3    H110605   6.797   5.246   3.028  0.2081  0.5172 -2.0050
 3547TIP3    H210606   6.872   5.119   3.064 -0.0540  1.6099  3.2351
 3548TIP3   OH210607   4.291   0.655   1.930 -0.3522 -0.3057  0.6612
 3548TIP3    H110608   4.294   0.689   1.840 -0.2186  0.0088  0.7838
 3548TIP3    H210609   4.345   0.576   1.927 -0.1712 -0.1774  0.5156
 3549TIP3   OH210610   5.839   2.091   4.868 -0.4890  0.0213  0.0485
 3549TIP3    H110611   5.916   2.123   4.823  0.1994  0.9952  1.8293
 3549TIP3    H210612   5.852   1.996   4.872  1.1255  0.2597  1.1772
 3550TIP3   OH210613   2.333   2.448   4.536  0.2422 -0.2051  0.0921
 3550TIP3    H110614   2.375   2.504   4.471 -0.5814  0.8392  0.4184
 3550TIP3    H210615   2.404   2.395   4.572  1.4161  1.7664  0.9151
 3551TIP3   OH210616   5.515   2.883   2.225 -0.2356  0.4148  0.1068
 3551TIP3    H110617   5.525   2.914   2.135 -2.1820  2.3425  0.4828
 3551TIP3    H210618   5.431   2.837   2.226  0.1529 -0.3136  0.7827
 3552TIP3   OH210619   0.935   4.505   5.173 -0.0720 -0.5289  0.2732
 3552TIP3    H110620   1.017   4.491   5.220  0.2148 -0.4206 -0.1801
 3552TIP3    H210621   0.887   4.424   5.183  0.5187 -0.9584 -0.2793
 3553TIP3   OH210622   5.725   4.421   0.157  0.0253 -0.2641 -0.4549
 3553TIP3    H110623   5.778   4.350   0.192  1.5179 -0.2028 -2.4467
 3553TIP3    H210624   5.693   4.468   0.235  2.5776 -0.5326  0.8502
 3554TIP3   OH210625   4.601   2.588   1.509  0.5929 -0.6500  0.2697
 3554TIP3    H110626   4.659   2.526   1.465 -0.0745 -0.5367 -0.7826
 3554TIP3    H210627   4.629   2.673   1.477 -0.1785 -0.5977 -0.2727
 3555TIP3   OH210628   3.645   1.626   0.424 -0.4803 -0.1553  0.2574
 3555TIP3    H110629   3.692   1.708   0.408 -0.2938 -0.1810  0.6634
 3555TIP3    H210630   3.567   1.652   0.472 -0.5819 -0.1809  0.1071
 3556TIP3   OH210631   2.208   3.129   3.861 -0.3862  0.2571 -0.1044
 3556TIP3    H110632   2.254   3.080   3.929  1.3021  0.3691 -1.1112
 3556TIP3    H210633   2.205   3.070   3.786 -2.3450  0.0845  0.0604
 3557TIP3   OH210634   3.911   1.335   2.987  0.2078  1.0883 -0.0922
 3557TIP3    H110635   3.952   1.395   2.924 -0.7614  1.9173  0.0419
 3557TIP3    H210636   3.851   1.390   3.037 -3.6355 -0.5655 -2.4699
 3558TIP3   OH210637   6.481   3.795   2.802  0.3463 -0.3784  0.4322
 3558TIP3    H110638   6.554   3.850   2.774 -0.0667 -1.1746 -2.5596
 3558TIP3    H210639   6.503   3.708   2.771 -1.3029 -0.8751  0.5497
 3559TIP3   OH210640   2.976   5.062   3.867  0.0474  0.1590  0.4356
 3559TIP3    H110641   3.039   5.050   3.796 -0.0943 -0.2838  0.3817
 3559TIP3    H210642   2.895   5.087   3.822  0.1347  0.5403  0.4908
 3560TIP3   OH210643   4.531   6.578   1.635  0.3328 -0.4999 -0.0110
 3560TIP3    H110644   4.463   6.519   1.603 -0.6551  1.0553 -0.8984
 3560TIP3    H210645   4.613   6.539   1.605 -0.3509 -0.9744 -1.3347
 3561TIP3   OH210646   4.703   4.155   1.935  0.2540  0.3986 -0.0858
 3561TIP3    H110647   4.786   4.111   1.919  1.0488  0.3380  3.4092
 3561TIP3    H210648   4.636   4.089   1.912  1.2010 -0.3441 -0.7955
 3562TIP3   OH210649   1.255   6.226   4.724 -0.0800 -0.2834  0.0127
 3562TIP3    H110650   1.289   6.316   4.726  0.6668 -0.4341 -2.5018
 3562TIP3    H210651   1.164   6.234   4.750 -0.1576  1.2848 -0.6367
 3563TIP3   OH210652   2.185   5.978   2.074  0.0761  0.3027 -0.1252
 3563TIP3    H110653   2.244   6.034   2.024 -1.5392  1.2907 -1.0150
 3563TIP3    H210654   2.121   6.038   2.111 -0.5457 -0.7546  0.5639
 3564TIP3   OH210655   5.533   0.798   4.830  0.6680 -0.6285 -0.5465
 3564TIP3    H110656   5.537   0.773   4.738 -0.4620  2.4110 -1.5489
 3564TIP3    H210657   5.442   0.786   4.855  0.2029  1.6879 -0.9154
 3565TIP3   OH210658   6.294   0.213   3.500  0.0307  0.7271 -0.1170
 3565TIP3    H110659   6.219   0.157   3.519 -0.9253  1.1296 -2.3466
 3565TIP3    H210660   6.256   0.300   3.489  1.0464  1.2194  0.1571
 3566TIP3   OH210661   4.461   5.339   0.217 -0.3000  0.0635 -0.8119
 3566TIP3    H110662   4.478   5.301   0.303  2.1281  0.1425 -1.1784
 3566TIP3    H210663   4.463   5.434   0.232 -0.2302  0.0771 -0.9065
 3567TIP3   OH210664   5.266   3.865   5.558 -0.0307 -0.3216 -0.3283
 3567TIP3    H110665   5.352   3.892   5.525 -0.4354  0.5276 -0.7253
 3567TIP3    H210666   5.210   3.861   5.480 -0.3947 -0.6906 -0.0539
 3568TIP3   OH210667   1.751   4.123   2.772  0.0131  0.0690 -0.3329
 3568TIP3    H110668   1.737   4.211   2.805 -1.8464  0.0435 -0.9295
 3568TIP3    H210669   1.696   4.118   2.693  0.3361 -1.5158 -0.4906
 3569TIP3   OH210670   6.732   1.900   4.866 -0.0145 -0.0588 -0.5776
 3569TIP3    H110671   6.685   1.914   4.784 -0.1724  0.7895 -0.3585
 3569TIP3    H210672   6.821   1.876   4.839 -0.0760  0.1795 -1.0010
 3570TIP3   OH210673   6.691   0.780   0.417  0.6628 -0.5353 -0.3038
 3570TIP3    H110674   6.652   0.710   0.365 -0.5229  0.3440 -0.6470
 3570TIP3    H210675   6.637   0.857   0.397  1.4758  0.2997  0.6330
 3571TIP3   OH210676   4.526  -0.029   2.609 -0.1704  0.0791 -0.2066
 3571TIP3    H110677   4.572   0.022   2.677 -0.0874 -0.8138  0.4187
 3571TIP3    H210678   4.450   0.025   2.587 -0.5849  0.0767  1.1086
 3572TIP3   OH210679   7.119   1.711   5.435 -0.4370 -0.1814 -0.1002
 3572TIP3    H110680   7.102   1.765   5.358  2.2217  1.1418  0.1492
 3572TIP3    H210681   7.151   1.772   5.501 -1.0761 -1.5341  1.5439
 3573TIP3   OH210682   1.933   4.531   2.253 -0.2139  0.5210 -0.1468
 3573TIP3    H110683   1.866   4.464   2.269  0.7028  0.0923  2.3317
 3573TIP3    H210684   1.930   4.587   2.331  3.3307 -0.4415  0.8495
 3574TIP3   OH210685   1.233   5.895   5.791 -0.3820 -0.0701 -0.1546
 3574TIP3    H110686   1.149   5.857   5.764 -0.3455 -0.5344  0.3686
 3574TIP3    H210687   1.213   5.944   5.871 -0.4115  0.9616 -0.7733
 3575TIP3   OH210688   2.131   4.441   5.338  0.1470 -0.2457  0.0961
 3575TIP3    H110689   2.194   4.501   5.297 -0.7236  0.8482  0.3304
 3575TIP3    H210690   2.147   4.357   5.295  2.3217 -0.2047  0.7088
 3576TIP3   OH210691   0.270   5.990   5.828 -0.2485  0.5236  0.1283
 3576TIP3    H110692   0.213   5.942   5.888 -0.5519  1.8852  0.9585
 3576TIP3    H210693   0.320   5.921   5.782 -1.5105 -0.6185  0.4158
 3577TIP3   OH210694   1.900   1.369   2.614  0.3764 -0.1217  0.1971
 3577TIP3    H110695   1.873   1.308   2.684 -0.5661 -1.5173 -1.3053
 3577TIP3    H210696   1.883   1.456   2.651 -2.2510 -0.8442  0.9527
 3578TIP3   OH210697   0.653   2.295   4.878 -0.8015  0.1798 -0.1524
 3578TIP3    H110698   0.718   2.361   4.905 -0.2262 -0.6267  0.5056
 3578TIP3    H210699   0.696   2.249   4.806 -0.3913 -0.7255  0.6546
 3579TIP3   OH210700   6.366   0.133   5.267 -0.2134 -0.1152  0.3054
 3579TIP3    H110701   6.435   0.070   5.244 -1.2013 -0.9622 -0.4410
 3579TIP3    H210702   6.344   0.112   5.358 -0.9165 -1.2503 -0.1074
 3580TIP3   OH210703   5.925   2.866   2.018 -0.4409 -0.0683 -0.4683
 3580TIP3    H110704   6.003   2.898   1.973 -0.2514 -0.3761 -0.3637
 3580TIP3    H210705   5.899   2.938   2.075  1.2690 -0.8505  1.4147
 3581TIP3   OH210706   1.565   4.853   1.190 -0.0996  0.2229 -0.5068
 3581TIP3    H110707   1.555   4.912   1.265 -1.3528 -0.6805  0.0666
 3581TIP3    H210708   1.615   4.904   1.126 -1.4683  2.0686 -0.1840
 3582TIP3   OH210709   5.782   1.702   5.856  0.6317 -0.1064  0.3118
 3582TIP3    H110710   5.713   1.762   5.826  1.3393  0.7405  0.3687
 3582TIP3    H210711   5.751   1.616   5.827 -0.1218  0.3417 -0.2836
 3583TIP3   OH210712   3.205   0.221   4.211  0.0728  0.0143 -0.0598
 3583TIP3    H110713   3.222   0.156   4.142  2.2057  2.1877 -1.7963
 3583TIP3    H210714   3.111   0.237   4.207 -0.0975 -1.1442 -1.3250
 3584TIP3   OH210715   2.618   4.672   4.744 -0.4189  0.2376  0.9933
 3584TIP3    H110716   2.636   4.589   4.700  0.0471  1.2452 -0.8278
 3584TIP3    H210717   2.622   4.651   4.837  1.5151 -1.4042  0.6168
 3585TIP3   OH210718   2.952   0.899   0.929 -0.3720 -0.1617 -0.6287
 3585TIP3    H110719   2.908   0.855   0.856 -0.5604  0.8271 -1.1200
 3585TIP3    H210720   2.918   0.855   1.007  0.3423 -1.7060 -1.1256
 3586TIP3   OH210721   2.501   1.161   0.027 -0.0566  0.3441 -0.0592
 3586TIP3    H110722   2.505   1.089  -0.036 -0.9989  1.2349 -1.1805
 3586TIP3    H210723   2.511   1.119   0.112  2.3454 -0.7901 -0.8131
 3587TIP3   OH210724   3.673   0.985   0.533 -0.2141  0.4730 -0.7819
 3587TIP3    H110725   3.585   1.022   0.523 -0.7252 -0.7006 -0.8730
 3587TIP3    H210726   3.662   0.916   0.598  0.2434 -0.8761 -2.0820
 3588TIP3   OH210727   2.442   2.213   1.851  0.4894  0.4427  0.1930
 3588TIP3    H110728   2.486   2.256   1.925  1.9124 -0.4441 -0.0831
 3588TIP3    H210729   2.492   2.241   1.774 -1.0380  1.4377 -0.4774
 3589TIP3   OH210730   4.179   6.105   1.151  0.4148  0.1391  0.0827
 3589TIP3    H110731   4.088   6.120   1.177  0.5746  0.1204  0.6885
 3589TIP3    H210732   4.179   6.018   1.112  0.4964 -0.6878  1.8313
 3590TIP3   OH210733   3.031   0.752   1.548 -0.0807  0.2391 -0.3716
 3590TIP3    H110734   3.095   0.681   1.539 -0.6941 -0.3632 -0.0949
 3590TIP3    H210735   2.960   0.728   1.488 -1.4808 -0.7472  1.5672
 3591TIP3   OH210736   1.527   6.221   3.625 -0.7134  0.8556  0.1872
 3591TIP3    H110737   1.574   6.193   3.547  0.3269 -1.4498  1.5318
 3591TIP3    H210738   1.595   6.227   3.693 -1.7699  1.4979  1.2350
 3592TIP3   OH210739   4.052   2.005   0.033 -0.2585  0.0753  0.1058
 3592TIP3    H110740   4.016   2.063   0.101 -3.1145 -2.5200  1.0329
 3592TIP3    H210741   4.017   2.040  -0.049  1.0303  1.6957  0.2074
 3593TIP3   OH210742   5.667   2.995   3.543  0.1173 -0.4077  0.8337
 3593TIP3    H110743   5.632   3.021   3.629 -0.0549  0.9307  0.3835
 3593TIP3    H210744   5.746   3.047   3.533 -0.3886  0.1785 -0.2349
 3594TIP3   OH210745   5.658   3.463   2.373 -0.1456 -0.3566  0.8234
 3594TIP3    H110746   5.579   3.417   2.343  1.1371 -1.1035 -1.6704
 3594TIP3    H210747   5.714   3.394   2.408  0.3603 -0.2079  0.3283
 3595TIP3   OH210748   3.307   6.257   4.385 -0.6577  0.1894  0.1368
 3595TIP3    H110749   3.381   6.309   4.415 -2.1208  1.8440  1.0578
 3595TIP3    H210750   3.309   6.264   4.289  0.2829  0.3083  0.1641
 3596TIP3   OH210751   2.712   4.716   5.602  0.0775 -0.0414 -0.3197
 3596TIP3    H110752   2.727   4.692   5.693  0.2016  0.9986 -0.0470
 3596TIP3    H210753   2.798   4.714   5.561 -0.1572 -1.8823 -0.7878
 3597TIP3   OH210754   3.798   0.395   5.818 -0.1511 -0.3460  0.2551
 3597TIP3    H110755   3.801   0.490   5.810 -1.3765 -0.3023  0.1089
 3597TIP3    H210756   3.879   0.372   5.865  1.1305  0.5623 -1.4040
 3598TIP3   OH210757   6.038   5.253   4.062 -0.6387 -0.0958  0.1178
 3598TIP3    H110758   6.102   5.206   4.008 -1.6689  0.1433 -1.3728
 3598TIP3    H210759   6.058   5.345   4.048 -0.7277 -0.0383  0.3773
 3599TIP3   OH210760   6.112   4.594   2.635 -0.2582  0.2606  0.0832
 3599TIP3    H110761   6.036   4.537   2.649  0.3638  0.1327  3.9938
 3599TIP3    H210762   6.184   4.550   2.679  1.5424  1.6126 -1.3447
 3600TIP3   OH210763   6.509   3.607   0.552 -0.6075 -0.2767  0.1397
 3600TIP3    H110764   6.601   3.603   0.525 -0.9682 -0.2677 -1.1719
 3600TIP3    H210765   6.499   3.694   0.590 -0.2891  0.0771 -0.5650
 3601TIP3   OH210766   5.771   4.464   3.271  0.3832  0.4387 -0.0041
 3601TIP3    H110767   5.851   4.413   3.285 -1.1336 -1.9448  0.5144
 3601TIP3    H210768   5.745   4.493   3.358  1.1800  2.1116 -0.2842
 3602TIP3   OH210769   0.378   0.824   0.564  0.5956  0.1629 -0.1691
 3602TIP3    H110770   0.422   0.893   0.613 -0.1460  0.4267  0.1480
 3602TIP3    H210771   0.344   0.867   0.486 -1.6281  0.6696  0.9874
 3603TIP3   OH210772   7.045   4.371   4.547 -0.1179  0.0069  0.0267
 3603TIP3    H110773   7.003   4.285   4.558  0.4244 -0.2957 -0.2145
 3603TIP3    H210774   7.025   4.418   4.628 -2.3228  0.5065 -0.7458
 3604TIP3   OH210775   3.768   0.842   5.484 -0.2980  0.2627  0.2207
 3604TIP3    H110776   3.716   0.836   5.404  0.1694  0.4023 -0.0988
 3604TIP3    H210777   3.778   0.751   5.513 -0.1177  0.1714 -0.1128
 3605TIP3   OH210778   3.644   1.290   5.577 -0.0305 -0.2530 -0.0340
 3605TIP3    H110779   3.701   1.225   5.538  1.7805 -0.2291  2.3278
 3605TIP3    H210780   3.616   1.251   5.660 -0.5652  1.1345  0.4762
 3606TIP3   OH210781   6.376   2.279   2.940 -0.2687  0.1168 -0.0753
 3606TIP3    H110782   6.419   2.232   2.868 -0.9355 -0.7736  0.1041
 3606TIP3    H210783   6.392   2.225   3.017  0.8387  1.2933  0.5765
 3607TIP3   OH210784   7.213   4.563   4.682  0.5009  1.1306  0.0644
 3607TIP3    H110785   7.127   4.605   4.682  0.5457  1.2253  0.5398
 3607TIP3    H210786   7.232   4.549   4.589 -0.5048  0.1229 -0.0129
 3608TIP3   OH210787   2.559   0.227   2.132  0.7116 -0.3212 -0.3404
 3608TIP3    H110788   2.640   0.260   2.092  0.1401  0.2959 -1.0185
 3608TIP3    H210789   2.560   0.261   2.221  0.0078  1.8160 -1.0994
 3609TIP3   OH210790   4.713   1.095   2.150  0.0825  0.4214  0.2892
 3609TIP3    H110791   4.787   1.134   2.197 -1.6049  2.8053  1.1530
 3609TIP3    H210792   4.646   1.084   2.217 -0.9916  0.0828 -0.8150
 3610TIP3   OH210793   3.749   4.773   2.859 -0.4633 -0.0504 -0.0780
 3610TIP3    H110794   3.825   4.827   2.879  0.4518 -1.6407  0.9508
 3610TIP3    H210795   3.712   4.750   2.944 -2.6584  1.3695 -0.5637
 3611TIP3   OH210796   1.250   0.225   0.868 -0.8380  0.4070  0.2056
 3611TIP3    H110797   1.191   0.153   0.891 -0.7571  0.0158 -0.7892
 3611TIP3    H210798   1.336   0.195   0.897 -0.7672  0.0043 -0.4171
 3612TIP3   OH210799   2.660   2.940   3.167  0.1586 -0.6983  0.0584
 3612TIP3    H110800   2.597   2.871   3.186  0.9843 -1.2731  0.8101
 3612TIP3    H210801   2.616   3.021   3.192  0.1585 -1.1997  1.7989
 3613TIP3   OH210802   2.574   0.879   1.504  0.5354  0.1260  0.0978
 3613TIP3    H110803   2.526   0.958   1.480  0.7673  0.5293  0.9409
 3613TIP3    H210804   2.535   0.810   1.450 -0.4725  0.5903  0.2114
 3614TIP3   OH210805   5.273   3.614   3.956 -0.0622 -0.0433  0.0315
 3614TIP3    H110806   5.266   3.708   3.976 -0.4574 -0.0335 -0.1402
 3614TIP3    H210807   5.286   3.572   4.041 -2.1631 -0.0456  0.3939
 3615TIP3   OH210808   7.116   2.601   3.851 -0.5955 -0.6937  0.1298
 3615TIP3    H110809   7.204   2.638   3.853 -0.1720 -1.3143 -2.8589
 3615TIP3    H210810   7.116   2.536   3.921  1.1484 -0.3443  0.4990
 3616TIP3   OH210811   1.725   2.987   5.737  0.2291  0.9192 -0.5729
 3616TIP3    H110812   1.753   3.001   5.647 -0.3888 -0.3585 -0.9791
 3616TIP3    H210813   1.643   3.037   5.744 -0.6882 -0.4123 -1.2950
 3617TIP3   OH210814   0.727   5.945   0.987 -0.5101  0.4848  0.4392
 3617TIP3    H110815   0.752   5.856   1.013 -0.4549 -0.2414 -1.8917
 3617TIP3    H210816   0.718   5.940   0.892  0.2431  3.1923  0.1686
 3618TIP3   OH210817   6.272   5.337   1.737 -0.3774  0.1543  0.1880
 3618TIP3    H110818   6.271   5.256   1.788 -2.4057  0.4381  0.6498
 3618TIP3    H210819   6.313   5.401   1.795 -0.5856 -0.0615  0.5764
 3619TIP3   OH210820   0.609   4.975   1.806  0.1138  0.1492 -0.3480
 3619TIP3    H110821   0.644   5.011   1.724  2.8791  1.1186  1.1156
 3619TIP3    H210822   0.644   4.885   1.809  1.9685  0.8437  0.7210
 3620TIP3   OH210823   3.990   0.182   4.371  0.2054  0.4237  0.3926
 3620TIP3    H110824   3.920   0.157   4.431 -0.4334  0.1632 -0.4393
 3620TIP3    H210825   4.038   0.101   4.354  0.6475  0.5796  0.8714
 3621TIP3   OH210826   6.936   4.978   1.059 -0.3528  0.4154 -0.0658
 3621TIP3    H110827   6.902   4.903   1.108  2.2210 -0.8137 -0.0020
 3621TIP3    H210828   6.902   5.054   1.106 -2.0697 -0.6701  0.5773
 3622TIP3   OH210829   3.764   1.482   4.121  0.1664  0.2949  0.5905
 3622TIP3    H110830   3.810   1.554   4.164  0.5307  0.0570  0.6046
 3622TIP3    H210831   3.730   1.429   4.193  0.3662  0.1567  0.5835
 3623TIP3   OH210832   5.687   0.302   3.325 -0.5126  0.1084  0.1237
 3623TIP3    H110833   5.743   0.228   3.349  1.0248  1.0851 -0.2831
 3623TIP3    H210834   5.734   0.379   3.358 -1.4386  1.0020 -0.5812
 3624TIP3   OH210835   4.372   2.972   0.404 -0.1946 -0.7115  0.7316
 3624TIP3    H110836   4.332   3.022   0.334 -0.9564 -2.0693  0.1591
 3624TIP3    H210837   4.464   2.997   0.402 -0.1052 -1.0564 -1.0717
 3625TIP3   OH210838   5.511   1.133   4.108 -0.1128 -0.1003  0.0383
 3625TIP3    H110839   5.501   1.228   4.104  1.2509  0.0325 -2.1675
 3625TIP3    H210840   5.466   1.107   4.188  1.2498  2.6109  1.8264
 3626TIP3   OH210841   4.055   3.419   2.405 -0.2353  0.3975 -0.2491
 3626TIP3    H110842   4.011   3.357   2.464  1.4127 -2.1036 -1.5156
 3626TIP3    H210843   3.988   3.442   2.341 -1.0713  0.5353  0.6433
 3627TIP3   OH210844   6.294   4.053   4.781  0.6202 -0.6694 -0.0062
 3627TIP3    H110845   6.384   4.034   4.752 -0.3913 -1.0036 -3.3335
 3627TIP3    H210846   6.278   4.142   4.750 -0.7774 -1.2980 -1.2100
 3628TIP3   OH210847   1.224   2.960   1.612  0.3120  0.2021 -0.0354
 3628TIP3    H110848   1.151   2.905   1.639 -0.9674  1.0634 -1.6122
 3628TIP3    H210849   1.282   2.901   1.564  0.8901 -0.5651  1.5358
 3629TIP3   OH210850   0.503   3.958   3.302  0.1210  0.8721 -0.1596
 3629TIP3    H110851   0.463   3.981   3.218 -0.6948  1.5213  0.3897
 3629TIP3    H210852   0.543   4.039   3.332  0.6545  0.5685 -0.0511
 3630TIP3   OH210853   6.263   4.972   4.001  0.2199 -0.2972  0.3313
 3630TIP3    H110854   6.250   4.912   4.073  0.6041  0.6832  1.2437
 3630TIP3    H210855   6.246   4.920   3.922  1.1413 -1.7410  1.0525
 3631TIP3   OH210856   0.771   2.598   3.522 -0.2302  0.1263 -0.1180
 3631TIP3    H110857   0.761   2.567   3.612  1.6208  1.2515  0.5375
 3631TIP3    H210858   0.695   2.654   3.507 -0.6842 -0.2770  0.6403
 3632TIP3   OH210859   0.146   5.847   1.157  0.1226  0.0735  0.4455
 3632TIP3    H110860   0.165   5.759   1.125 -0.8918  0.0199 -0.0495
 3632TIP3    H210861   0.217   5.901   1.122  1.2759 -0.6827  1.5263
 3633TIP3   OH210862   2.799   2.619   0.874  0.2170  0.7024 -0.1429
 3633TIP3    H110863   2.861   2.646   0.942 -0.0059  0.0516  0.3398
 3633TIP3    H210864   2.735   2.689   0.870 -0.3853  0.2507  1.1201
 3634TIP3   OH210865   5.253   5.864   0.358  0.6160 -0.1436  0.7789
 3634TIP3    H110866   5.218   5.945   0.395 -2.9662 -0.6471 -1.0671
 3634TIP3    H210867   5.221   5.864   0.268 -1.6712 -4.6507  1.3482
 3635TIP3   OH210868   4.721   5.494   2.773  0.0960  0.3875 -0.4934
 3635TIP3    H110869   4.754   5.416   2.817 -0.8639 -0.7031 -1.5997
 3635TIP3    H210870   4.658   5.531   2.835 -0.0228 -0.1740 -0.2684
 3636TIP3   OH210871   3.325   2.417   3.490 -0.1936 -0.1347 -0.1253
 3636TIP3    H110872   3.420   2.424   3.481 -0.2348  0.4987 -0.1003
 3636TIP3    H210873   3.312   2.331   3.530  0.4930  0.5293  1.6363
 3637TIP3   OH210874   2.392   4.159   4.831 -0.1621 -0.1522 -0.8248
 3637TIP3    H110875   2.483   4.176   4.806 -0.7380  1.5200 -2.0179
 3637TIP3    H210876   2.375   4.071   4.798  1.5434 -1.2900  1.1214
 3638TIP3   OH210877   1.774   0.587   1.224  0.5067  0.2349 -0.0553
 3638TIP3    H110878   1.699   0.541   1.263  1.1535 -0.0008  0.9610
 3638TIP3    H210879   1.736   0.664   1.183 -0.3785 -0.2520 -0.1866
 3639TIP3   OH210880   4.807   1.124   5.901 -0.5574 -0.2891  0.2258
 3639TIP3    H110881   4.718   1.135   5.868 -0.0453  1.0897 -0.7582
 3639TIP3    H210882   4.858   1.095   5.825  0.3469  1.4957  0.1121
 3640TIP3   OH210883   4.255   0.057   0.598  0.4566 -0.3738  0.3146
 3640TIP3    H110884   4.276  -0.036   0.586  0.7636 -0.6193  2.4065
 3640TIP3    H210885   4.338   0.102   0.585  0.7775 -0.6224  1.4449
 3641TIP3   OH210886   5.433   6.421   1.778  0.6843 -0.5836  0.1006
 3641TIP3    H110887   5.426   6.516   1.766 -0.2067 -0.5565  0.7201
 3641TIP3    H210888   5.523   6.408   1.807  0.7728  0.0934  0.1558
 3642TIP3   OH210889   0.759   0.286   0.620  0.1263 -0.4849  0.3447
 3642TIP3    H110890   0.668   0.297   0.646 -0.1298 -0.1405 -0.6531
 3642TIP3    H210891   0.809   0.333   0.687 -0.3382 -1.5478  1.4855
 3643TIP3   OH210892   1.101   6.688   0.613  0.3204  0.8424  0.4094
 3643TIP3    H110893   1.011   6.657   0.623  0.3036  0.5399 -0.5570
 3643TIP3    H210894   1.099   6.779   0.641 -0.8023  1.5361 -1.7133
 3644TIP3   OH210895   0.183   2.760   0.711  0.2472  0.0424  0.0638
 3644TIP3    H110896   0.111   2.714   0.667  0.6725 -0.3180 -0.2722
 3644TIP3    H210897   0.141   2.814   0.777 -0.3431 -0.0553 -0.2284
 3645TIP3   OH210898   5.634   3.823   0.770  0.0379  0.7408 -0.2301
 3645TIP3    H110899   5.657   3.892   0.832  0.4607  0.5607 -0.1882
 3645TIP3    H210900   5.589   3.758   0.823  1.1392  0.1929  0.0580
 3646TIP3   OH210901   6.428   5.868   0.356  0.3278  0.2676 -0.0349
 3646TIP3    H110902   6.345   5.831   0.385  0.9838 -0.0788  1.5283
 3646TIP3    H210903   6.419   5.876   0.261 -1.0538 -0.8399 -0.0335
 3647TIP3   OH210904   4.295   3.071   1.764  0.3994 -0.4504  0.0613
 3647TIP3    H110905   4.303   3.022   1.846 -0.0180 -1.4763 -0.5041
 3647TIP3    H210906   4.322   3.160   1.787  1.8661 -1.0947  0.9364
 3648TIP3   OH210907   7.032   1.501   1.839  0.3170 -0.3105  0.5311
 3648TIP3    H110908   6.965   1.491   1.906 -0.5947 -2.4754 -0.5730
 3648TIP3    H210909   7.028   1.593   1.813 -1.1943 -0.0713  1.5403
 3649TIP3   OH210910   2.553   1.511   2.585  0.2971  0.3526  0.6685
 3649TIP3    H110911   2.471   1.560   2.581  0.7244  1.1292  1.1166
 3649TIP3    H210912   2.528   1.423   2.614 -0.6578 -0.1496 -1.4727
 3650TIP3   OH210913   2.965   1.997   1.626 -0.2342 -0.1216  0.3230
 3650TIP3    H110914   2.987   1.904   1.628  1.6275  0.2815  1.1000
 3650TIP3    H210915   2.973   2.025   1.717 -2.6854  0.4459  0.4366
 3651TIP3   OH210916   5.916   2.455   2.123  0.2810  0.5073 -0.1381
 3651TIP3    H110917   5.913   2.500   2.038 -0.1544  2.1138  0.6709
 3651TIP3    H210918   5.888   2.522   2.186  0.7261 -0.6009  1.2940
 3652TIP3   OH210919   1.589   1.083   1.257 -0.2393 -0.3901  0.0395
 3652TIP3    H110920   1.556   1.107   1.170 -0.0321 -0.4700 -0.0624
 3652TIP3    H210921   1.519   1.108   1.317  0.5365  1.7974  0.1008
 3653TIP3   OH210922   1.653   6.779   2.490  0.5402  1.1278 -0.1917
 3653TIP3    H110923   1.715   6.706   2.486  1.3585  1.4719  3.2871
 3653TIP3    H210924   1.569   6.740   2.467  1.0609 -0.7974  0.9310
 3654TIP3   OH210925   7.102   3.484   4.629 -0.0660 -0.6668 -0.6042
 3654TIP3    H110926   7.034   3.417   4.637 -1.8946  1.2741  1.5970
 3654TIP3    H210927   7.086   3.525   4.544 -3.9269  1.8010  1.0253
 3655TIP3   OH210928   6.068   3.882   3.320 -0.2407  0.4977  0.5152
 3655TIP3    H110929   5.973   3.893   3.317 -0.1140  1.5465 -0.6267
 3655TIP3    H210930   6.087   3.856   3.410 -1.5241  1.1979  1.0073
 3656TIP3   OH210931   4.729   6.424   0.932 -0.0941 -0.0308 -0.0986
 3656TIP3    H110932   4.745   6.451   0.841 -0.0684 -1.0000 -0.3875
 3656TIP3    H210933   4.636   6.404   0.935  0.1414 -1.1907 -0.2383
 3657TIP3   OH210934   1.391   4.427   5.547 -0.0878 -0.3182 -0.1871
 3657TIP3    H110935   1.445   4.375   5.607 -0.9202 -1.3792 -0.3250
 3657TIP3    H210936   1.413   4.392   5.460 -1.1203 -0.8972 -0.2280
 3658TIP3   OH210937   6.646   2.445   1.815  0.0439  0.3628 -0.0559
 3658TIP3    H110938   6.702   2.502   1.868  0.9874 -0.8695  0.3311
 3658TIP3    H210939   6.558   2.457   1.851  0.3789  0.9132  0.5900
 3659TIP3   OH210940   2.110   3.210   4.949 -0.0877  0.1867  0.2458
 3659TIP3    H110941   2.074   3.152   5.017  0.5844 -0.8311 -0.2368
 3659TIP3    H210942   2.033   3.248   4.907 -0.5177  1.9961  2.4986
 3660TIP3   OH210943   0.011   5.364   3.973 -0.2140  0.7181 -0.0049
 3660TIP3    H110944   0.078   5.308   3.933  0.2903  1.0545  0.3644
 3660TIP3    H210945  -0.072   5.319   3.954 -0.0548  1.1238 -1.9018
 3661TIP3   OH210946   1.215   0.521   1.693 -0.4001  0.1247  0.4079
 3661TIP3    H110947   1.264   0.595   1.729  0.9858  0.1028 -1.3092
 3661TIP3    H210948   1.224   0.529   1.598 -1.1974 -1.6003  0.1407
 3662TIP3   OH210949   0.602   2.784   1.482 -0.1059 -0.0388  0.2444
 3662TIP3    H110950   0.626   2.739   1.401  0.6841 -0.1307  0.5206
 3662TIP3    H210951   0.555   2.718   1.534 -0.4970 -0.0172 -0.0746
 3663TIP3   OH210952   0.176   5.909   2.005 -0.1763 -0.1744 -0.2984
 3663TIP3    H110953   0.107   5.924   1.941 -1.3851 -1.4400  0.6576
 3663TIP3    H210954   0.137   5.850   2.070  1.5521 -0.3080  0.6879
 3664TIP3   OH210955   2.548   6.373   1.868 -0.3734  0.4108 -0.1086
 3664TIP3    H110956   2.558   6.372   1.773  0.2277  1.6190 -0.0725
 3664TIP3    H210957   2.625   6.325   1.901  0.2480  1.3448 -0.1828
 3665TIP3   OH210958   4.357   4.456   0.531 -0.3037  0.0858  0.4294
 3665TIP3    H110959   4.262   4.446   0.521 -0.0783 -1.5285 -0.5497
 3665TIP3    H210960   4.377   4.535   0.480 -1.1402  0.5679  0.8210
 3666TIP3   OH210961   6.961   5.663   2.916  0.0424  0.2057  0.3813
 3666TIP3    H110962   7.050   5.666   2.881 -0.3628  0.8762 -0.6538
 3666TIP3    H210963   6.954   5.578   2.958  0.2556 -1.1145 -2.0723
 3667TIP3   OH210964   1.442   0.274   3.075 -0.2012  0.1411  0.6401
 3667TIP3    H110965   1.488   0.200   3.116  0.8872  1.0152  1.0296
 3667TIP3    H210966   1.350   0.256   3.090  0.1153 -0.3181  2.1775
 3668TIP3   OH210967   1.488   6.496   4.195  0.0625  0.9543  0.1646
 3668TIP3    H110968   1.462   6.586   4.177 -0.8088  0.5890 -0.4779
 3668TIP3    H210969   1.454   6.477   4.282 -0.3718  1.0302  0.0158
 3669TIP3   OH210970   7.221   0.990   5.205  0.0931  0.0098 -0.3158
 3669TIP3    H110971   7.185   0.903   5.188  0.3256 -0.1205 -0.1433
 3669TIP3    H210972   7.188   1.013   5.292 -0.5709  0.4055 -0.6643
 3670TIP3   OH210973   5.765   4.617   3.672  0.2360  0.1545  0.0186
 3670TIP3    H110974   5.715   4.564   3.610 -0.7411 -0.0610  0.9635
 3670TIP3    H210975   5.852   4.578   3.672  0.2228  0.0781 -1.1110
 3671TIP3   OH210976   5.610   0.537   5.580 -0.5249 -0.3149 -0.1180
 3671TIP3    H110977   5.693   0.517   5.624 -0.2657  2.2902  0.7454
 3671TIP3    H210978   5.602   0.470   5.512  0.9228 -2.2346  1.4958
 3672TIP3   OH210979   5.080   2.970   4.278 -0.2151 -0.3166  0.3169
 3672TIP3    H110980   5.100   2.905   4.212  1.4276  0.4951 -0.0375
 3672TIP3    H210981   5.141   2.953   4.349 -0.9641 -0.2497  1.0012
 3673TIP3   OH210982   6.376   0.516   3.029 -0.2142 -0.0321 -0.0644
 3673TIP3    H110983   6.375   0.423   3.053 -2.0441  0.6242  2.8932
 3673TIP3    H210984   6.453   0.552   3.074 -0.4033  0.1771  0.0909
 3674TIP3   OH210985   6.822   4.830   4.681  0.0572  0.3952  0.4292
 3674TIP3    H110986   6.902   4.815   4.731  0.5015  0.6294 -0.1882
 3674TIP3    H210987   6.753   4.838   4.747  0.3033 -1.1893  0.9047
 3675TIP3   OH210988   2.019   2.348   1.073 -0.1271 -0.6643  0.3155
 3675TIP3    H110989   2.044   2.382   1.160  2.0310  0.1264 -0.5516
 3675TIP3    H210990   2.101   2.344   1.024 -1.4281 -0.0787 -2.0590
 3676TIP3   OH210991   2.681   4.258   5.053  0.3416 -0.3110 -0.1855
 3676TIP3    H110992   2.709   4.174   5.088 -0.2725 -0.8714 -1.0104
 3676TIP3    H210993   2.670   4.313   5.130  1.4095 -0.7612  0.3210
 3677TIP3   OH210994   0.542   3.156   3.462 -0.0357  0.0015 -0.0748
 3677TIP3    H110995   0.460   3.150   3.510  0.2693  2.1896  0.8416
 3677TIP3    H210996   0.516   3.159   3.370 -0.9910  0.6162  0.2024
 3678TIP3   OH210997   3.297   4.068   0.876  0.6439 -0.3274  0.0060
 3678TIP3    H110998   3.314   4.159   0.899 -2.1797 -0.3727  3.0227
 3678TIP3    H210999   3.235   4.072   0.804  1.4882  0.0676 -0.7129
 3679TIP3   OH211000   3.292   3.553   3.754  0.3628 -0.5172  0.3362
 3679TIP3    H111001   3.376   3.514   3.730  1.2927  0.0794  2.3921
 3679TIP3    H211002   3.284   3.629   3.696  0.4552 -1.4534 -0.9513
 3680TIP3   OH211003   1.761   4.619   2.759  0.3479  0.1094  0.0076
 3680TIP3    H111004   1.791   4.657   2.676 -0.0721  0.5006  0.0306
 3680TIP3    H211005   1.741   4.695   2.814  2.1502 -0.1167  1.0489
 3681TIP3   OH211006   4.550   0.955   3.927 -0.1274 -0.0326 -0.3313
 3681TIP3    H111007   4.522   1.044   3.905  1.2922  0.4462 -0.3335
 3681TIP3    H211008   4.474   0.900   3.910 -1.0164  1.1818 -0.3634
 3682TIP3   OH211009   0.316   0.539   1.901 -0.1784 -0.6818 -0.3269
 3682TIP3    H111010   0.310   0.466   1.840  0.9328 -0.9133 -0.1687
 3682TIP3    H211011   0.331   0.615   1.845 -1.0794 -0.5949 -0.4715
 3683TIP3   OH211012   7.156   1.552   3.455 -0.8176 -0.0959 -0.0234
 3683TIP3    H111013   7.233   1.501   3.481 -0.3306  1.3488  1.5255
 3683TIP3    H211014   7.098   1.488   3.414  0.0853 -1.7409  1.1472
 3684TIP3   OH211015   1.356   4.641   4.713 -0.1278  0.0552  0.8262
 3684TIP3    H111016   1.285   4.586   4.747  1.4401 -1.9391  1.0424
 3684TIP3    H211017   1.401   4.585   4.650  1.2891  1.2525  0.7354
 3685TIP3   OH211018   2.987   1.118   2.792 -0.4121 -0.0569 -0.1063
 3685TIP3    H111019   3.078   1.133   2.817 -0.8300  0.0561  1.4010
 3685TIP3    H211020   2.991   1.094   2.699  1.2339 -0.9712  0.1798
 3686TIP3   OH211021   6.924   6.116   4.167  0.1338  0.4348  0.6369
 3686TIP3    H111022   6.934   6.204   4.203  2.2598 -0.4181  2.3933
 3686TIP3    H211023   7.008   6.098   4.124 -0.0916 -0.8978  0.7142
 3687TIP3   OH211024   6.446   0.969   0.669  0.0291  0.4629 -0.4571
 3687TIP3    H111025   6.381   1.032   0.639 -1.0354 -0.0229  0.7560
 3687TIP3    H211026   6.505   1.020   0.724  0.2725  0.7600 -0.9842
 3688TIP3   OH211027   0.514   5.903   4.194  0.5620 -0.2962  0.1949
 3688TIP3    H111028   0.609   5.910   4.180  0.6252 -0.2159  0.6701
 3688TIP3    H211029   0.499   5.943   4.279 -0.1746  1.6201 -0.7771
 3689TIP3   OH211030   2.131   3.910   5.232  0.0013  0.3699  0.6583
 3689TIP3    H111031   2.084   3.850   5.290  1.6737  0.0284  1.7368
 3689TIP3    H211032   2.162   3.856   5.160 -3.1042  0.9990 -1.3686
 3690TIP3   OH211033   1.192   4.429   4.787  0.0384 -0.4701  0.2876
 3690TIP3    H111034   1.131   4.400   4.855 -0.0825 -1.0470 -0.0622
 3690TIP3    H211035   1.215   4.349   4.739 -0.5272  0.0490 -0.8804
 3691TIP3   OH211036   5.587   5.126   3.797  0.1012 -0.6201  0.1387
 3691TIP3    H111037   5.541   5.208   3.780 -0.5503 -1.0349 -0.1366
 3691TIP3    H211038   5.630   5.139   3.881 -1.3041 -0.5524  0.8645
 3692TIP3   OH211039   0.205   6.167   5.605 -0.2597  0.4770 -0.0621
 3692TIP3    H111040   0.295   6.182   5.635  0.2812 -1.8053 -0.2944
 3692TIP3    H211041   0.172   6.098   5.663 -2.1074  1.7021  0.4094
 3693TIP3   OH211042   4.727   1.221   1.916  0.1482  0.6493  0.2777
 3693TIP3    H111043   4.636   1.249   1.930 -0.1489 -0.6834  1.2299
 3693TIP3    H211044   4.734   1.140   1.966  1.8461  0.6783  0.1182
 3694TIP3   OH211045   5.051   0.350   1.652  0.4277  0.0447 -0.3927
 3694TIP3    H111046   5.141   0.316   1.643  0.4294  0.1850 -0.9846
 3694TIP3    H211047   5.013   0.300   1.724  0.8489 -0.3113 -0.4144
 3695TIP3   OH211048   5.608   4.432   5.600  0.0215  0.3984  0.2882
 3695TIP3    H111049   5.687   4.417   5.547  1.5079  0.7354  2.2938
 3695TIP3    H211050   5.600   4.527   5.603  0.3104  0.3981  1.1532
 3696TIP3   OH211051   5.167   5.133   2.719 -0.4285  0.1493 -0.3584
 3696TIP3    H111052   5.243   5.163   2.768 -0.4278  1.3835 -1.0674
 3696TIP3    H211053   5.144   5.049   2.759  0.3278  0.5137  0.9027
 3697TIP3   OH211054   6.083   1.688   5.790 -0.4059 -0.0721 -0.2102
 3697TIP3    H111055   6.126   1.738   5.720  2.2093 -2.3350 -0.3451
 3697TIP3    H211056   6.101   1.597   5.769 -0.1297 -0.8674  3.0720
 3698TIP3   OH211057   6.274   1.474   2.040 -0.2074  0.1263 -0.0754
 3698TIP3    H111058   6.210   1.536   2.007  0.8462  1.9491  1.1547
 3698TIP3    H211059   6.292   1.502   2.130  1.9170 -0.6094 -0.2007
 3699TIP3   OH211060   0.221   5.251   3.827 -0.1699  1.2141 -0.2543
 3699TIP3    H111061   0.187   5.166   3.797  2.3913  0.0422 -0.1372
 3699TIP3    H211062   0.265   5.288   3.751  0.3816  1.5168  0.2048
 3700TIP3   OH211063   0.419   5.153   1.963 -0.0486  0.2468  0.0854
 3700TIP3    H111064   0.456   5.227   2.011  0.2832 -1.1098  2.0413
 3700TIP3    H211065   0.496   5.103   1.932 -0.2679  0.5347 -0.9640
 3701TIP3   OH211066   6.570   3.935   1.985 -0.5527 -0.3584  0.2021
 3701TIP3    H111067   6.517   4.014   1.986  0.8592  0.7583  4.0063
 3701TIP3    H211068   6.507   3.863   1.980 -1.9184  0.8812 -2.1963
 3702TIP3   OH211069   1.315   5.725   4.767  0.5642  0.4049  0.1525
 3702TIP3    H111070   1.383   5.703   4.704 -0.0803  0.2999 -0.5200
 3702TIP3    H211071   1.259   5.788   4.722 -1.3480 -1.5408 -0.3514
 3703TIP3   OH211072   0.854   4.759   0.013 -0.0169  0.5005 -0.5358
 3703TIP3    H111073   0.941   4.720   0.021  0.7380  2.3694  1.1439
 3703TIP3    H211074   0.794   4.690   0.040  1.0788 -0.3233 -0.1454
 3704TIP3   OH211075   3.089   2.059   0.596 -0.8420  0.2715 -0.3956
 3704TIP3    H111076   3.003   2.091   0.572 -1.0697  1.4458  1.7271
 3704TIP3    H211077   3.122   2.123   0.660  0.9907 -0.8890 -0.0936
 3705TIP3   OH211078   5.837   0.585   4.890 -0.5622  0.5080 -0.1849
 3705TIP3    H111079   5.793   0.620   4.812  1.0275  0.5004 -1.1320
 3705TIP3    H211080   5.930   0.606   4.876  0.3511 -2.9796 -0.2481
 3706TIP3   OH211081   5.643   6.083   5.787  0.4525  0.2420  0.3966
 3706TIP3    H111082   5.642   6.055   5.878 -0.2536  2.0586  0.9847
 3706TIP3    H211083   5.645   6.001   5.737 -1.6004 -0.8804  1.9847
 3707TIP3   OH211084   6.810   4.994   3.249  0.0044  0.0382  0.1405
 3707TIP3    H111085   6.902   5.016   3.266 -0.5332  0.8728  2.3183
 3707TIP3    H211086   6.763   5.076   3.262 -1.1615 -0.5983  0.0788
 3708TIP3   OH211087   4.123   0.632   5.780  0.2009 -0.3064  0.0786
 3708TIP3    H111088   4.135   0.541   5.809 -0.7456  0.0802  1.8303
 3708TIP3    H211089   4.212   0.667   5.776  0.6271 -1.4437 -1.1807
 3709TIP3   OH211090   1.490   0.668   0.391 -0.1138 -0.4242  0.4550
 3709TIP3    H111091   1.560   0.731   0.411 -1.3672  1.7122 -1.4551
 3709TIP3    H211092   1.472   0.625   0.474  4.5297 -2.3487  0.8004
 3710TIP3   OH211093   2.778   2.647   2.333  0.2027  0.0333  0.2468
 3710TIP3    H111094   2.721   2.637   2.409  1.5358  0.9630  1.4362
 3710TIP3    H211095   2.812   2.559   2.317  1.3321  0.1174  1.9406
 3711TIP3   OH211096   5.478   4.106   1.944  0.5236 -0.5415  0.3047
 3711TIP3    H111097   5.405   4.155   1.906  0.2310 -1.8386 -0.8867
 3711TIP3    H211098   5.439   4.024   1.975  1.6839 -2.1547 -2.1518
 3712TIP3   OH211099   4.593   3.538   2.908  0.2045  0.1136 -0.9031
 3712TIP3    H111100   4.551   3.459   2.873 -0.4642 -0.1880  0.5338
 3712TIP3    H211101   4.684   3.529   2.882  0.5576 -2.0857  0.7642
 3713TIP3   OH211102   3.990   4.009   0.608 -0.3806  0.1799 -0.2557
 3713TIP3    H111103   4.007   3.942   0.675 -1.5285 -0.7335 -0.8348
 3713TIP3    H211104   4.065   4.068   0.614  1.5485 -2.0594 -0.8272
 3714TIP3   OH211105   7.157   4.979   5.467  0.2372  0.2439  0.3883
 3714TIP3    H111106   7.076   4.990   5.516  0.4885 -0.4128  0.9659
 3714TIP3    H211107   7.226   4.973   5.534  0.7713  0.8466 -0.0922
 3715TIP3   OH211108   6.597   2.593   2.661  0.1293 -0.0312 -0.2554
 3715TIP3    H111109   6.668   2.567   2.719  0.2835 -0.5721 -0.6876
 3715TIP3    H211110   6.551   2.512   2.641 -0.4515  0.2777 -0.1946
 3716TIP3   OH211111   2.703   3.777   1.792 -0.0507  0.0230  0.5922
 3716TIP3    H111112   2.724   3.691   1.755 -0.2501  0.5710 -0.8526
 3716TIP3    H211113   2.780   3.831   1.773 -1.3933  1.1993 -1.9840
 3717TIP3   OH211114   5.787   2.870   3.022 -0.1317  0.5815 -0.2491
 3717TIP3    H111115   5.697   2.837   3.020 -0.0237  0.0119  1.7549
 3717TIP3    H211116   5.807   2.878   3.115  2.0948  0.1589 -0.6368
 3718TIP3   OH211117   5.501   6.402   5.143 -0.5718 -0.1686 -0.2068
 3718TIP3    H111118   5.518   6.311   5.121 -0.3336  0.0195 -0.8078
 3718TIP3    H211119   5.588   6.441   5.153 -0.6658  0.1605 -0.6572
 3719TIP3   OH211120   4.629   2.328   3.097 -0.1148  0.4983 -0.1583
 3719TIP3    H111121   4.556   2.277   3.132  1.2474 -1.6147 -0.2591
 3719TIP3    H211122   4.587   2.399   3.049 -2.1114 -0.8976 -0.5988
 3720TIP3   OH211123   0.842   4.564   2.019  0.2095  0.0511  0.2855
 3720TIP3    H111124   0.777   4.604   1.961  0.1499 -0.6860 -0.1787
 3720TIP3    H211125   0.810   4.475   2.032 -0.6095  0.6165  2.7336
 3721TIP3   OH211126   2.935   1.437   4.237 -0.1969 -0.4447 -0.4298
 3721TIP3    H111127   2.925   1.523   4.197 -1.4808 -0.4601 -0.1754
 3721TIP3    H211128   2.904   1.376   4.171 -0.8302 -0.5837 -0.0169
 3722TIP3   OH211129   2.894   6.793   4.244 -0.6451 -0.0893  0.2360
 3722TIP3    H111130   2.840   6.754   4.312 -1.0668 -0.6682 -0.4091
 3722TIP3    H211131   2.983   6.762   4.263 -0.3628  1.5406  1.7834
 3723TIP3   OH211132   6.979   0.797   0.345  0.4031 -0.7811  0.0251
 3723TIP3    H111133   7.023   0.714   0.361 -0.4599 -1.2546 -0.0151
 3723TIP3    H211134   6.896   0.790   0.392  0.9533  0.6610  1.3214
 3724TIP3   OH211135   6.306   1.777   0.034 -0.5445 -0.0295  0.4836
 3724TIP3    H111136   6.251   1.773   0.112  0.1629 -1.2148  0.9555
 3724TIP3    H211137   6.341   1.688   0.026  2.7230  1.0446  1.2753
 3725TIP3   OH211138   0.419   3.447   3.804 -0.0273 -0.4240 -0.2661
 3725TIP3    H111139   0.383   3.387   3.870  0.5381  0.2952  0.7190
 3725TIP3    H211140   0.352   3.449   3.735 -1.2335 -0.2211  0.8612
 3726TIP3   OH211141   1.468   5.516   4.321  0.0795 -0.3958 -0.0804
 3726TIP3    H111142   1.495   5.467   4.243  0.2866 -0.5623  0.0926
 3726TIP3    H211143   1.447   5.604   4.289 -1.9620 -1.0454 -0.6757
 3727TIP3   OH211144   2.588   4.779   1.427  0.0585  0.4058  0.0668
 3727TIP3    H111145   2.563   4.811   1.340 -0.9141 -1.2215 -0.3132
 3727TIP3    H211146   2.573   4.853   1.485 -4.2571  0.1795 -0.4089
 3728TIP3   OH211147   3.052   5.885   0.651 -0.6449 -0.1319  0.0135
 3728TIP3    H111148   3.085   5.880   0.740  2.0540  1.8163 -0.7339
 3728TIP3    H211149   3.019   5.974   0.642  0.4998  0.2041 -1.2872
 3729TIP3   OH211150   4.038   4.059   2.295  0.1818  0.9161  0.0386
 3729TIP3    H111151   4.054   3.967   2.316  1.3306  1.1745  0.3494
 3729TIP3    H211152   3.943   4.064   2.284  0.1715 -0.4839 -0.8609
 3730TIP3   OH211153   1.391   2.202   0.428 -0.1790  0.1242 -0.9121
 3730TIP3    H111154   1.467   2.210   0.371  0.6612 -0.2611  0.1211
 3730TIP3    H211155   1.406   2.121   0.477 -0.7041  0.6247  0.1027
 3731TIP3   OH211156   4.258   5.790   0.311 -0.3190  0.1981 -0.0964
 3731TIP3    H111157   4.326   5.722   0.307 -0.4076  0.1003  0.0368
 3731TIP3    H211158   4.176   5.742   0.304 -0.3606  0.4193 -1.5337
 3732TIP3   OH211159   1.267   2.022   1.034  0.2125  0.0239  0.3243
 3732TIP3    H111160   1.340   2.008   1.095 -0.3640 -3.9923  0.3971
 3732TIP3    H211161   1.309   2.035   0.949  0.9780  2.1795  0.9718
 3733TIP3   OH211162   3.988   1.239   1.235 -0.3229  0.0352 -0.3942
 3733TIP3    H111163   4.033   1.193   1.164  0.9595  1.2965 -0.4456
 3733TIP3    H211164   3.937   1.307   1.191 -0.8415 -0.2126 -0.1940
 3734TIP3   OH211165   6.054   0.646   3.527  0.4488  0.4082 -0.4367
 3734TIP3    H111166   6.031   0.687   3.610 -1.0368 -1.4729  0.1748
 3734TIP3    H211167   6.065   0.719   3.466  1.1951  1.8149  1.2897
 3735TIP3   OH211168   0.907   3.436   1.628  0.0709  0.2077 -0.1899
 3735TIP3    H111169   0.988   3.453   1.579  0.3498  0.0931  0.2262
 3735TIP3    H211170   0.906   3.502   1.697 -0.5898  0.7037 -0.6619
 3736TIP3   OH211171   3.528   0.740   2.420 -0.1975 -0.6044 -0.0380
 3736TIP3    H111172   3.539   0.811   2.484 -1.0198 -0.0409 -0.4964
 3736TIP3    H211173   3.555   0.661   2.466 -1.5522 -0.3330  1.2917
 3737TIP3   OH211174   6.763   6.032   1.391 -0.6651 -0.1717 -0.3602
 3737TIP3    H111175   6.834   6.096   1.393 -0.6347 -0.1968 -0.6821
 3737TIP3    H211176   6.688   6.080   1.426 -0.2271 -0.4792  1.0657
 3738TIP3   OH211177   4.092   6.717   4.902  0.2117 -0.4349  0.4490
 3738TIP3    H111178   4.151   6.643   4.890 -0.9209 -1.2459 -0.3487
 3738TIP3    H211179   4.009   6.689   4.863  0.3779  2.1347 -2.0539
 3739TIP3   OH211180   0.477   4.561   0.671 -0.2811  0.1353  0.0400
 3739TIP3    H111181   0.428   4.478   0.672 -0.5675  0.2688 -1.2926
 3739TIP3    H211182   0.527   4.560   0.753 -1.1419 -0.8312  0.5787
 3740TIP3   OH211183   6.465   4.621   4.001  0.4253  0.6127 -0.1415
 3740TIP3    H111184   6.493   4.529   3.995  0.6846  0.7669 -1.9882
 3740TIP3    H211185   6.380   4.622   3.957 -1.4668  0.6255  3.1553
 3741TIP3   OH211186   1.898   0.359   1.416 -1.1390  0.0324 -0.0927
 3741TIP3    H111187   1.835   0.287   1.412  0.2140 -1.4447  2.5700
 3741TIP3    H211188   1.978   0.322   1.379 -0.5716  0.3194  0.8309
 3742TIP3   OH211189   3.388   4.005   4.903 -0.2654 -0.0922  0.5076
 3742TIP3    H111190   3.470   3.976   4.863 -0.7288  0.6378 -1.0863
 3742TIP3    H211191   3.328   3.931   4.891 -0.0691 -0.3100  0.8969
 3743TIP3   OH211192   6.533   3.761   4.736  0.1364  0.3571 -0.4275
 3743TIP3    H111193   6.511   3.759   4.643 -0.1104  0.4074 -0.3710
 3743TIP3    H211194   6.597   3.831   4.745  0.5309  0.0286 -0.6388
 3744TIP3   OH211195   6.149   4.773   1.070  0.0308  0.2870 -0.0629
 3744TIP3    H111196   6.186   4.852   1.032  1.2462 -0.5005 -0.5823
 3744TIP3    H211197   6.189   4.767   1.157 -0.2535  0.3827  0.0737
 3745TIP3   OH211198   4.156   2.656   4.803 -0.2767 -0.1706 -0.2842
 3745TIP3    H111199   4.120   2.645   4.891 -0.9946  0.8793 -0.4303
 3745TIP3    H211200   4.143   2.748   4.783  3.5110  0.5898  0.0628
 3746TIP3   OH211201   4.159   6.407   1.305 -0.0784 -0.3513  0.6628
 3746TIP3    H111202   4.229   6.358   1.263  0.6678 -0.1137  1.6078
 3746TIP3    H211203   4.104   6.340   1.346  0.4059 -0.4616  1.1413
 3747TIP3   OH211204   1.714   3.931   2.331  0.3601 -0.3659  0.7001
 3747TIP3    H111205   1.774   3.963   2.398  0.4307 -0.8927  0.8889
 3747TIP3    H211206   1.771   3.892   2.265  0.1790 -2.1272  1.5360
 3748TIP3   OH211207   2.872   2.024   4.696 -0.2437  0.1845  0.0148
 3748TIP3    H111208   2.806   2.005   4.762 -0.7726 -1.0286 -0.8286
 3748TIP3    H211209   2.953   2.036   4.746 -1.3258  3.5994  1.2594
 3749TIP3   OH211210   2.192   1.930   4.880  0.5277 -0.5784  0.0003
 3749TIP3    H111211   2.244   2.010   4.888  0.8037 -0.8140  0.6401
 3749TIP3    H211212   2.143   1.926   4.962 -1.1654  0.0904 -0.9445
 3750TIP3   OH211213   4.283   6.531   5.266  0.2553  0.3901  0.0612
 3750TIP3    H111214   4.296   6.566   5.355  1.1515 -0.3462  0.2402
 3750TIP3    H211215   4.270   6.437   5.280 -0.7713  0.4361 -0.5127
 3751TIP3   OH211216   5.090   0.079   5.459 -0.4973 -0.0296  0.6993
 3751TIP3    H111217   5.028   0.086   5.532 -0.4338 -0.4349  0.7923
 3751TIP3    H211218   5.037   0.097   5.382 -1.1079 -1.9293  0.6224
 3752TIP3   OH211219   0.964   2.241   2.214  0.2303  0.3920  0.2976
 3752TIP3    H111220   0.903   2.174   2.181 -1.2054  0.9690  1.6291
 3752TIP3    H211221   0.929   2.264   2.300  2.4170  0.7138  1.1462
 3753TIP3   OH211222   6.316   5.195   0.567 -1.3775  0.0017 -0.4102
 3753TIP3    H111223   6.365   5.131   0.618 -1.4327 -0.3091 -0.7486
 3753TIP3    H211224   6.377   5.268   0.554 -1.1920 -0.1435 -0.3477
 3754TIP3   OH211225   0.559   4.270   0.991  0.1006 -0.0698  0.0105
 3754TIP3    H111226   0.607   4.190   0.966 -0.1419 -0.5153  0.9233
 3754TIP3    H211227   0.540   4.258   1.084  0.5010  1.2876  0.2923
 3755TIP3   OH211228   6.467   6.185   0.068  0.6892 -0.8477  0.3003
 3755TIP3    H111229   6.480   6.227  -0.017  2.0412 -0.7084  0.5542
 3755TIP3    H211230   6.373   6.168   0.072  0.6654 -1.3470 -1.4443
 3756TIP3   OH211231   3.768   1.778   5.267  0.2728  0.3602  0.3025
 3756TIP3    H111232   3.789   1.690   5.237  0.4458  0.3159  0.5555
 3756TIP3    H211233   3.683   1.769   5.311  0.0992  0.3941 -0.0224
 3757TIP3   OH211234   2.121   3.269   4.591  0.1447  0.4868  0.5317
 3757TIP3    H111235   2.181   3.278   4.666  2.1385  2.1722 -1.1442
 3757TIP3    H211236   2.176   3.231   4.522 -1.8031 -1.6041  0.0217
 3758TIP3   OH211237   2.205   5.928   5.041  0.1114  0.3567 -0.3628
 3758TIP3    H111238   2.201   6.024   5.033 -0.6602  0.3720  0.0237
 3758TIP3    H211239   2.265   5.900   4.972  1.7232  1.2483  0.6143
 3759TIP3   OH211240   4.859   0.264   2.664  0.2234  0.1909  0.4267
 3759TIP3    H111241   4.799   0.331   2.629 -0.0312  0.6802  1.7424
 3759TIP3    H211242   4.837   0.185   2.616 -1.1354  0.4908  0.5220
 3760TIP3   OH211243   6.904   3.634   4.785  0.1462 -0.2030 -0.4895
 3760TIP3    H111244   6.995   3.606   4.796  0.4221  1.0208  0.8378
 3760TIP3    H211245   6.852   3.555   4.797  1.0090 -0.7486 -0.2886
 3761TIP3   OH211246   0.976   4.835   3.220 -0.1109  0.3212 -0.1464
 3761TIP3    H111247   0.891   4.808   3.255 -0.6186  1.7211 -0.2509
 3761TIP3    H211248   1.035   4.765   3.247 -1.0465 -0.0606  1.0357
 3762TIP3   OH211249   6.260   1.947   2.101  0.8595  0.0592 -0.6501
 3762TIP3    H111250   6.174   1.985   2.118  0.1830 -1.1251 -1.2743
 3762TIP3    H211251   6.307   1.955   2.184 -0.9581 -2.0571  0.6915
 3763TIP3   OH211252   3.620   3.166   1.745  0.0431 -0.1508  0.1159
 3763TIP3    H111253   3.659   3.134   1.663  0.2279 -0.6120  0.3805
 3763TIP3    H211254   3.534   3.199   1.719  1.4312  3.0925 -0.9157
 3764TIP3   OH211255   5.632   4.755   0.552  0.6637 -0.4978 -0.1204
 3764TIP3    H111256   5.719   4.791   0.535 -0.6819  2.2940 -1.9000
 3764TIP3    H211257   5.613   4.780   0.642  1.2764 -0.0722 -0.1001
 3765TIP3   OH211258   1.246   3.239   4.978  0.0842  0.3807  0.3887
 3765TIP3    H111259   1.199   3.173   4.927  0.9582 -0.0398  0.1099
 3765TIP3    H211260   1.208   3.323   4.949 -0.8752  0.0243  0.5878
 3766TIP3   OH211261   6.042   4.655   3.962  0.3759 -0.3348 -0.2364
 3766TIP3    H111262   6.120   4.619   3.919 -0.0722 -0.6346 -0.8073
 3766TIP3    H211263   5.977   4.586   3.955  0.2923 -0.4015  0.9523
 3767TIP3   OH211264   2.200   4.542   3.922 -0.2496 -0.6823 -0.5095
 3767TIP3    H111265   2.169   4.456   3.951 -0.2810 -0.1849  1.0445
 3767TIP3    H211266   2.281   4.523   3.876  0.5936 -1.4669  1.1765
 3768TIP3   OH211267   7.128   5.793   4.237 -0.0845  0.1541  0.0138
 3768TIP3    H111268   7.181   5.754   4.168  0.2858 -0.8781  0.8414
 3768TIP3    H211269   7.070   5.855   4.192 -0.3075 -0.9665 -1.2984
 3769TIP3   OH211270   4.519   5.418   2.403 -0.5601  0.1955 -0.1170
 3769TIP3    H111271   4.507   5.334   2.358 -0.0181  0.0564 -0.0114
 3769TIP3    H211272   4.575   5.397   2.478  1.9552  1.0957 -1.6133
 3770TIP3   OH211273   3.465   6.214   2.061 -0.5138  0.3515  0.3598
 3770TIP3    H111274   3.552   6.175   2.056  0.0458  1.3404  1.8293
 3770TIP3    H211275   3.421   6.167   2.131 -1.2852 -0.3380 -0.5720
 3771TIP3   OH211276   2.169   4.146   5.536  0.4420  0.0165 -0.1502
 3771TIP3    H111277   2.097   4.152   5.473  1.6579 -0.1850 -1.6490
 3771TIP3    H211278   2.162   4.058   5.573 -0.1283  0.0260 -0.2305
 3772TIP3   OH211279   6.172   3.853   4.936 -0.5180  0.3034  0.0427
 3772TIP3    H111280   6.236   3.911   4.895  1.8199  0.1290  3.0975
 3772TIP3    H211281   6.176   3.773   4.885  2.5454 -0.0599  0.6538
 3773TIP3   OH211282   6.553   2.618   4.761 -0.2044 -0.1093  0.3094
 3773TIP3    H111283   6.458   2.630   4.748  0.0031  0.3738 -0.8591
 3773TIP3    H211284   6.586   2.592   4.675  0.7345 -0.2390  0.6987
 3774TIP3   OH211285   3.442   6.030   0.777  0.0656 -0.3719  0.1292
 3774TIP3    H111286   3.422   5.943   0.743 -0.4844  0.1499 -0.9318
 3774TIP3    H211287   3.378   6.044   0.846  0.8457 -1.2245  1.0667
 3775TIP3   OH211288   6.556   6.073   2.301  0.0671 -0.6583 -0.2440
 3775TIP3    H111289   6.549   6.152   2.247  1.3162  0.2828  0.9109
 3775TIP3    H211290   6.540   6.001   2.240 -1.1300  0.4599 -1.3214
 3776TIP3   OH211291   3.089   5.023   4.622  0.0543  0.4662  0.1058
 3776TIP3    H111292   3.000   4.989   4.637 -0.0135  1.4622  2.2929
 3776TIP3    H211293   3.099   5.093   4.686  2.3805  0.4754 -0.1953
 3777TIP3   OH211294   2.522   2.218   5.663 -0.3356 -0.2794 -0.4223
 3777TIP3    H111295   2.433   2.238   5.633 -1.0664  1.9599  2.7648
 3777TIP3    H211296   2.565   2.304   5.669  0.9392 -0.9824  1.1695
 3778TIP3   OH211297   3.538   1.416   0.294 -0.2661 -0.2145 -0.7447
 3778TIP3    H111298   3.593   1.487   0.327 -2.3140  1.1061  0.0255
 3778TIP3    H211299   3.595   1.339   0.295  1.8050  1.2428 -0.8790
 3779TIP3   OH211300   4.392   0.420   1.382  0.3474  0.3120 -0.0304
 3779TIP3    H111301   4.321   0.470   1.343 -0.2133 -1.5032 -1.4682
 3779TIP3    H211302   4.472   0.463   1.351 -0.1119  0.1876 -1.4657
 3780TIP3   OH211303   3.810   0.151   1.265  0.0361  0.3101 -0.1032
 3780TIP3    H111304   3.754   0.083   1.303 -1.1543  1.1460 -0.3133
 3780TIP3    H211305   3.851   0.193   1.341  0.8249 -0.6592  0.0249
 3781TIP3   OH211306   4.449   4.745   2.163 -0.0414  0.2838 -0.0089
 3781TIP3    H111307   4.375   4.770   2.108 -0.0433  0.6293  0.1490
 3781TIP3    H211308   4.450   4.810   2.233 -0.1052 -0.2139  0.4645
 3782TIP3   OH211309   2.152   4.866   4.383  0.2305  0.5674 -0.5579
 3782TIP3    H111310   2.122   4.779   4.355 -0.7971  0.1064  1.7522
 3782TIP3    H211311   2.245   4.867   4.363  0.2826 -1.0957 -0.5369
 3783TIP3   OH211312   0.167   5.666   2.673 -0.0856  0.3388 -0.1246
 3783TIP3    H111313   0.122   5.602   2.728 -1.2659  0.4223 -0.9543
 3783TIP3    H211314   0.256   5.671   2.710 -0.2345 -1.0892  0.5052
 3784TIP3   OH211315   3.778   2.422   5.583 -0.0849  0.1497 -0.5920
 3784TIP3    H111316   3.690   2.430   5.546 -0.7943  0.3600  1.0816
 3784TIP3    H211317   3.822   2.503   5.559 -0.3442  0.0710 -1.3757
 3785TIP3   OH211318   0.889   3.298   5.115  0.2101  0.4569 -0.3191
 3785TIP3    H111319   0.810   3.350   5.101  1.0261  1.3993 -1.6229
 3785TIP3    H211320   0.864   3.209   5.089 -0.8131  0.4342  0.6537
 3786TIP3   OH211321   6.728   3.656   2.107  0.1334 -0.1895 -0.1471
 3786TIP3    H111322   6.643   3.674   2.148  0.1303  0.1877 -0.3207
 3786TIP3    H211323   6.733   3.716   2.033  1.4960  1.3601  1.1240
 3787TIP3   OH211324   3.653   6.766   3.517 -0.4663 -0.4672 -0.2392
 3787TIP3    H111325   3.704   6.711   3.577 -1.1461  1.2007  2.0218
 3787TIP3    H211326   3.657   6.721   3.433  2.1679 -1.9555  0.5789
 3788TIP3   OH211327   3.994   1.981   2.995  0.5128  0.2105 -0.2900
 3788TIP3    H111328   3.920   1.937   3.037  0.6783 -0.3298 -0.5427
 3788TIP3    H211329   4.068   1.967   3.054  0.8844 -1.0631 -1.0007
 3789TIP3   OH211330   5.889   2.079   0.997  0.0424 -0.6116  0.2586
 3789TIP3    H111331   5.956   2.143   0.972 -0.9268  0.5002  0.4448
 3789TIP3    H211332   5.883   2.088   1.092  1.0100 -2.1246  0.4964
 3790TIP3   OH211333   5.277   5.268   0.385  0.0019 -0.2185  0.0943
 3790TIP3    H111334   5.185   5.260   0.407 -0.0974  0.2720 -0.1248
 3790TIP3    H211335   5.323   5.220   0.454 -0.3656  0.3382  0.7358
 3791TIP3   OH211336   1.060   3.503   5.682  0.3777 -0.0565 -0.1096
 3791TIP3    H111337   1.096   3.445   5.615 -0.1496 -0.6254  0.0899
 3791TIP3    H211338   1.128   3.510   5.748 -0.5439 -2.7332  1.2640
 3792TIP3   OH211339   6.797   5.827   4.804  0.4616 -0.2291 -0.8552
 3792TIP3    H111340   6.831   5.751   4.851 -0.1111  1.5015  2.7569
 3792TIP3    H211341   6.703   5.810   4.796  0.1570  0.4227  0.8661
 3793TIP3   OH211342   1.286   4.775   0.114  0.1805  0.0851  0.0764
 3793TIP3    H111343   1.275   4.751   0.022  1.6681 -0.6047  0.0538
 3793TIP3    H211344   1.378   4.801   0.122 -0.1091  0.8648  1.2229
 3794TIP3   OH211345   4.229   6.677   4.451 -0.2301  0.0311 -0.0874
 3794TIP3    H111346   4.145   6.670   4.405  0.0437  1.7094 -0.9078
 3794TIP3    H211347   4.238   6.593   4.497 -0.6822 -1.6876 -2.8443
 3795TIP3   OH211348   3.636   6.045   0.131  0.1929 -0.6440  0.6205
 3795TIP3    H111349   3.724   6.081   0.139 -0.0906 -0.1944  1.9715
 3795TIP3    H211350   3.583   6.117   0.099 -0.0278 -0.3671  1.5870
 3796TIP3   OH211351   4.033   5.169   4.550  0.3679  0.4032  0.0831
 3796TIP3    H111352   3.959   5.184   4.490  2.1867  0.8471 -2.1901
 3796TIP3    H211353   4.055   5.077   4.537 -0.7238 -0.2062  2.0150
 3797TIP3   OH211354   4.665   3.322   3.391  0.1358  0.1476 -0.3477
 3797TIP3    H111355   4.666   3.236   3.348  2.9207  0.3202 -0.8387
 3797TIP3    H211356   4.701   3.381   3.325 -0.1191  1.3704  0.5854
 3798TIP3   OH211357   2.291   6.300   1.637  0.0373 -0.7602  0.2522
 3798TIP3    H111358   2.363   6.319   1.577  0.0055 -0.3394  0.3410
 3798TIP3    H211359   2.333   6.286   1.722  0.0964 -1.5238  0.1001
 3799TIP3   OH211360   4.361   0.023   0.187 -0.0089  0.3170 -0.1421
 3799TIP3    H111361   4.395   0.109   0.161  1.2582 -0.0438  0.2296
 3799TIP3    H211362   4.434  -0.017   0.235 -0.9040 -0.6079  0.4672
 3800TIP3   OH211363   4.708   5.701   3.321  0.3948  0.1337  0.5753
 3800TIP3    H111364   4.644   5.732   3.385  1.7019  2.1316  0.9786
 3800TIP3    H211365   4.685   5.746   3.240  0.2751 -0.4688  0.2632
 3801TIP3   OH211366   1.939   6.000   5.489  0.1823  0.0737  0.4159
 3801TIP3    H111367   1.930   6.024   5.582  1.9916  2.1803  0.1357
 3801TIP3    H211368   1.911   6.079   5.442  0.4854 -0.5252 -0.7987
 3802TIP3   OH211369   1.831   2.695   4.848 -0.1388  0.0336  0.1673
 3802TIP3    H111370   1.863   2.615   4.890  0.1853 -0.3157 -0.7316
 3802TIP3    H211371   1.778   2.738   4.916 -1.0853 -1.3882  0.3702
 3803TIP3   OH211372   1.641   3.183   3.161 -0.3401 -0.0913 -0.0849
 3803TIP3    H111373   1.630   3.089   3.168  0.7566 -0.3019 -0.8671
 3803TIP3    H211374   1.676   3.209   3.247  0.9070 -0.6688 -0.3898
 3804TIP3   OH211375   0.382   4.593   4.228  0.4522  0.2255  0.4448
 3804TIP3    H111376   0.434   4.513   4.233 -0.3995 -0.5042 -1.3789
 3804TIP3    H211377   0.429   4.656   4.281  4.1739  0.1403 -2.3953
 3805TIP3   OH211378   3.825   5.096   0.420  0.2693 -0.5178  0.4149
 3805TIP3    H111379   3.835   5.018   0.475  0.4291  0.8213  2.3879
 3805TIP3    H211380   3.733   5.094   0.393 -0.4541 -0.0547  2.6534
 3806TIP3   OH211381   3.855   4.256   5.276 -0.2585 -0.2695  0.5856
 3806TIP3    H111382   3.949   4.237   5.281  0.5559  3.3137  1.2581
 3806TIP3    H211383   3.822   4.236   5.364 -0.3500 -2.1461  0.1740
 3807TIP3   OH211384   3.679   4.152   4.581  0.4018 -0.6515  0.2498
 3807TIP3    H111385   3.590   4.119   4.574  0.8403 -1.6887 -0.9049
 3807TIP3    H211386   3.730   4.076   4.610  0.9004 -0.0384  1.0249
 3808TIP3   OH211387   0.292   3.448   3.581 -0.1920 -0.1565 -0.1265
 3808TIP3    H111388   0.257   3.359   3.575  2.4889 -1.3743  0.9275
 3808TIP3    H211389   0.216   3.504   3.563 -3.0880 -2.4779  3.3086
 3809TIP3   OH211390   7.031   0.979   1.573  0.1818 -0.1133  0.2499
 3809TIP3    H111391   7.035   0.890   1.537 -0.9118 -0.8985  1.9022
 3809TIP3    H211392   7.118   0.994   1.609  0.6038 -0.1933 -0.6929
 3810TIP3   OH211393   3.612   0.159   0.428 -0.4085 -0.1756  0.7822
 3810TIP3    H111394   3.540   0.191   0.482 -0.7195  2.0508 -0.8330
 3810TIP3    H211395   3.690   0.199   0.465 -0.5786  1.0494 -0.1251
 3811TIP3   OH211396   6.926   4.528   4.846 -0.2873 -0.0622  0.5836
 3811TIP3    H111397   7.012   4.489   4.866 -0.0639 -0.0093 -0.2506
 3811TIP3    H211398   6.922   4.606   4.902 -0.1439 -0.5039  1.2290
 3812TIP3   OH211399   6.309   3.516   0.736  0.3196 -0.1443  0.6498
 3812TIP3    H111400   6.335   3.432   0.774  1.7019  0.4730  1.1090
 3812TIP3    H211401   6.385   3.544   0.685  0.7806  1.8863  2.3264
 3813TIP3   OH211402   3.973   4.062   1.696 -0.6823  0.0348  0.2652
 3813TIP3    H111403   3.968   3.985   1.753 -4.4938  1.4005  2.0769
 3813TIP3    H211404   4.059   4.099   1.714  1.6328 -3.9623 -1.1734
 3814TIP3   OH211405   5.606   1.310   0.232 -0.0364 -0.7642 -0.3021
 3814TIP3    H111406   5.515   1.328   0.256 -0.3671  1.2769 -2.6837
 3814TIP3    H211407   5.635   1.245   0.296 -2.6840 -0.3873  1.4473
 3815TIP3   OH211408   4.117   3.655   0.329  0.2995 -0.4433  0.0412
 3815TIP3    H111409   4.212   3.640   0.322  0.2114 -1.0442  0.1185
 3815TIP3    H211410   4.091   3.682   0.241  0.7791  1.1318  0.3538
 3816TIP3   OH211411   0.402   2.822   3.692 -0.4150  0.1250  0.0542
 3816TIP3    H111412   0.455   2.810   3.613 -0.4237 -0.5503  0.1469
 3816TIP3    H211413   0.461   2.867   3.753 -0.7387  1.6352 -0.6807
 3817TIP3   OH211414   2.185   4.492   3.314  0.2023  0.2411  0.1384
 3817TIP3    H111415   2.227   4.545   3.381  1.6635  0.4775 -0.9021
 3817TIP3    H211416   2.258   4.456   3.263 -0.8257 -0.9046 -0.5823
 3818TIP3   OH211417   5.823   3.901   3.198 -0.5419  0.8724 -0.3676
 3818TIP3    H111418   5.797   3.833   3.261  0.7934 -1.1486 -1.8904
 3818TIP3    H211419   5.745   3.957   3.190 -2.1287 -1.1590  0.0652
 3819TIP3   OH211420   6.527   5.535   1.316 -0.4712 -0.3195  0.0636
 3819TIP3    H111421   6.507   5.614   1.266  0.9558 -0.0887 -0.1816
 3819TIP3    H211422   6.622   5.532   1.319 -0.5136 -1.5094  0.9183
 3820TIP3   OH211423   6.130   4.870   1.784 -0.3830 -0.4086  0.0533
 3820TIP3    H111424   6.059   4.836   1.730 -0.5697 -0.6851  0.4682
 3820TIP3    H211425   6.182   4.792   1.807  1.7701  0.0747 -2.6490
 3821TIP3   OH211426   3.537   2.123   0.112  0.2885 -0.5917  0.3481
 3821TIP3    H111427   3.541   2.033   0.080  0.8013 -0.3386 -0.3338
 3821TIP3    H211428   3.507   2.116   0.202 -0.6152 -1.3777 -0.0048
 3822TIP3   OH211429   3.957   4.161   5.798 -0.7045  0.1818 -0.1081
 3822TIP3    H111430   3.914   4.182   5.715 -2.4549 -0.4202  0.5904
 3822TIP3    H211431   3.905   4.089   5.834  1.0276 -0.6966  0.7401
 3823TIP3   OH211432   5.801   4.068   5.729 -0.2915  0.0431 -0.2349
 3823TIP3    H111433   5.777   4.155   5.763 -1.2688 -0.4371  0.3524
 3823TIP3    H211434   5.882   4.046   5.776 -1.0234 -0.1258  1.0169
 3824TIP3   OH211435   0.017   6.511   1.597 -0.5421 -0.7257 -0.2564
 3824TIP3    H111436   0.051   6.475   1.514 -1.6347  0.8783 -1.4544
 3824TIP3    H211437   0.093   6.553   1.637  0.0316 -1.6358 -0.3541
 3825TIP3   OH211438   0.577   0.610   4.079 -0.1402 -0.0012 -0.0084
 3825TIP3    H111439   0.512   0.645   4.140  0.7622 -1.2644  1.7346
 3825TIP3    H211440   0.659   0.651   4.105  0.4818 -1.4991  0.4705
 3826TIP3   OH211441   2.110   5.862   3.043 -0.7619 -0.6203 -0.3310
 3826TIP3    H111442   2.107   5.932   2.978 -0.3175  1.2031  1.5039
 3826TIP3    H211443   2.018   5.842   3.062 -0.9132  0.1446 -0.2219
 3827TIP3   OH211444   1.642   6.291   0.755  0.3093  0.2357  0.0487
 3827TIP3    H111445   1.600   6.321   0.674  1.6984 -0.4425 -0.9650
 3827TIP3    H211446   1.653   6.197   0.744  0.9456  0.2053  0.8204
 3828TIP3   OH211447   4.504   0.121   5.764  0.3199  0.0562  0.4797
 3828TIP3    H111448   4.544   0.065   5.830 -1.6078 -0.3221  1.3935
 3828TIP3    H211449   4.434   0.069   5.726  0.5682  0.7287 -0.9882
 3829TIP3   OH211450   2.666   1.560   3.150 -0.1526  0.2936 -0.4485
 3829TIP3    H111451   2.637   1.473   3.121 -0.1878  0.2264 -0.2180
 3829TIP3    H211452   2.705   1.600   3.072 -2.3588  1.0502 -1.2486
 3830TIP3   OH211453   1.639   0.113   4.234 -0.2961 -0.2512 -0.1453
 3830TIP3    H111454   1.691   0.181   4.277 -1.2758 -0.0154  0.6951
 3830TIP3    H211455   1.549   0.143   4.243 -0.7033 -1.4297 -0.1972
 3831TIP3   OH211456   1.457   3.598   0.526  0.3136  0.4243 -0.2114
 3831TIP3    H111457   1.465   3.631   0.437 -0.2644 -1.0413 -0.8462
 3831TIP3    H211458   1.370   3.559   0.529  0.4323  0.2148  0.9219
 3832TIP3   OH211459   6.310   3.899   5.215  0.1902  0.0146 -0.0876
 3832TIP3    H111460   6.297   3.884   5.121  0.0330 -1.7180  0.1802
 3832TIP3    H211461   6.222   3.918   5.248  0.0103 -0.7785 -0.0807
 3833TIP3   OH211462   0.102   1.057   4.163 -0.2334 -0.8511  0.1192
 3833TIP3    H111463   0.012   1.068   4.194 -1.3353 -1.0356 -2.7260
 3833TIP3    H211464   0.154   1.049   4.243 -2.8581 -1.7487  1.8610
 3834TIP3   OH211465   0.019   1.291   1.604 -0.0531 -0.0490  0.2961
 3834TIP3    H111466   0.041   1.203   1.634  0.8393  0.3339  0.8209
 3834TIP3    H211467   0.096   1.320   1.556  0.9782  1.5567  2.6778
 3835TIP3   OH211468   6.232   2.087   4.364  0.1083  0.0240 -0.4170
 3835TIP3    H111469   6.232   2.030   4.287 -0.2279 -0.8883  0.2381
 3835TIP3    H211470   6.139   2.104   4.381  0.2227  1.9317 -1.4115
 3836TIP3   OH211471   3.115   3.551   3.968  0.2816  0.4861 -0.2393
 3836TIP3    H111472   3.164   3.526   3.889 -0.4732  0.6205 -0.7653
 3836TIP3    H211473   3.089   3.641   3.952  0.1865  0.5393  0.2051
 3837TIP3   OH211474   4.294   5.042   4.898  0.0677 -0.2500 -0.0010
 3837TIP3    H111475   4.207   5.046   4.858  0.3176  1.4331 -0.4557
 3837TIP3    H211476   4.353   5.019   4.825  0.2410  0.6714 -0.1734
 3838TIP3   OH211477   6.856   3.304   3.555  0.3274  0.5851  0.2690
 3838TIP3    H111478   6.940   3.347   3.542  0.2031  1.5825  2.4146
 3838TIP3    H211479   6.791   3.367   3.523  0.3342 -0.2283 -1.4908
 3839TIP3   OH211480   3.539   3.167   4.625 -0.1284 -0.2349 -0.3788
 3839TIP3    H111481   3.620   3.121   4.644  0.4578  0.2307 -1.5836
 3839TIP3    H211482   3.510   3.203   4.709  1.1506 -0.0497  0.0013
 3840TIP3   OH211483   2.080   1.854   5.163  0.6296 -0.1231  0.0632
 3840TIP3    H111484   2.036   1.938   5.150  2.0561  1.0496  2.1235
 3840TIP3    H211485   2.011   1.795   5.191 -0.6205 -0.0458 -2.6246
 3841TIP3   OH211486   6.097   2.659   4.779  0.6594 -0.5251 -0.1824
 3841TIP3    H111487   6.097   2.753   4.765  1.6714 -0.5535 -0.4047
 3841TIP3    H211488   6.167   2.626   4.723  1.7201 -1.1643  1.4348
 3842TIP3   OH211489   0.559   5.626   5.008  0.1162  0.0931  0.1303
 3842TIP3    H111490   0.468   5.652   5.022  0.4403  1.7900 -0.6741
 3842TIP3    H211491   0.600   5.635   5.094 -0.3530 -0.1953  0.3883
 3843TIP3   OH211492   4.524   6.229   3.892 -0.1815  0.1378  0.6166
 3843TIP3    H111493   4.457   6.240   3.959 -1.0703  1.1613 -0.4134
 3843TIP3    H211494   4.601   6.274   3.926 -0.4975  0.2988  1.1167
 3844TIP3   OH211495   1.517   4.255   1.158 -0.9318 -0.3837 -0.1530
 3844TIP3    H111496   1.535   4.349   1.149 -0.8401 -0.3007  0.7617
 3844TIP3    H211497   1.517   4.222   1.069  1.5685  0.0113 -0.3678
 3845TIP3   OH211498   4.777   5.514   4.502 -0.0682  0.1782 -0.0328
 3845TIP3    H111499   4.822   5.527   4.419  0.0953  1.9351  0.3048
 3845TIP3    H211500   4.835   5.456   4.552  0.3040 -0.0819 -0.7590
 3846TIP3   OH211501   1.098   1.697   0.658 -0.1928 -0.6582 -0.1973
 3846TIP3    H111502   1.121   1.786   0.686 -0.5700 -0.2877 -0.9980
 3846TIP3    H211503   1.145   1.685   0.575  0.0193 -1.2889  0.0102
 3847TIP3   OH211504   1.082   3.458   2.804  0.1750  0.4187  0.1171
 3847TIP3    H111505   1.045   3.537   2.766  1.6747  0.8852 -0.4430
 3847TIP3    H211506   1.025   3.387   2.774  0.3737  0.9693 -1.6349
 3848TIP3   OH211507   0.289   2.859   2.416 -0.3395  0.1707  0.1024
 3848TIP3    H111508   0.216   2.808   2.451 -0.5473 -0.0426 -0.6238
 3848TIP3    H211509   0.323   2.908   2.491 -1.2394  0.2848  0.4468
 3849TIP3   OH211510   2.806   0.293   2.049  0.0738 -0.7156 -0.0863
 3849TIP3    H111511   2.826   0.374   2.000  0.2159 -0.1591  0.8657
 3849TIP3    H211512   2.837   0.223   1.992 -1.8550 -0.2377 -1.8462
 3850TIP3   OH211513   0.528   2.742   3.456 -0.2561  0.2233  0.1407
 3850TIP3    H111514   0.466   2.675   3.428  0.3597 -0.6768  0.8537
 3850TIP3    H211515   0.562   2.779   3.374  0.2150 -1.1241 -0.2940
 3851TIP3   OH211516   5.290   3.351   5.821 -0.7549 -0.3945 -0.4450
 3851TIP3    H111517   5.324   3.435   5.852  0.3201 -1.1280  0.4400
 3851TIP3    H211518   5.195   3.362   5.822 -0.6239  0.9934 -0.9021
 3852TIP3   OH211519   5.513   5.250   0.861 -0.2192 -0.2911 -0.0015
 3852TIP3    H111520   5.429   5.224   0.822 -1.1340  1.9421  0.3169
 3852TIP3    H211521   5.496   5.253   0.955  0.4435 -0.5228  0.1324
 3853TIP3   OH211522   3.086   6.641   4.310 -0.2533  0.0178  0.2412
 3853TIP3    H111523   3.095   6.580   4.384 -0.4943  1.6210  1.6765
 3853TIP3    H211524   3.176   6.668   4.291 -0.1311 -0.8668 -0.5014
 3854TIP3   OH211525   6.972   6.641   4.353  0.0606 -0.2519  0.0274
 3854TIP3    H111526   7.040   6.577   4.372  0.9403  0.8055  0.5508
 3854TIP3    H211527   6.927   6.655   4.437  0.9324  0.9934  0.3084
 3855TIP3   OH211528   0.583   2.387   5.144 -0.1284 -0.0467  0.3203
 3855TIP3    H111529   0.578   2.465   5.089  0.4921 -0.6622 -0.6412
 3855TIP3    H211530   0.665   2.345   5.118 -1.0583 -1.6872 -0.0946
 3856TIP3   OH211531   2.777   1.828   0.367 -0.0850 -0.4706 -0.2141
 3856TIP3    H111532   2.869   1.836   0.393 -0.4165 -0.5691  1.0769
 3856TIP3    H211533   2.732   1.899   0.413 -0.8374 -1.1686  0.1684
 3857TIP3   OH211534   0.762   1.072   3.402  0.0120  0.0754 -0.2349
 3857TIP3    H111535   0.765   0.984   3.438 -2.4105  0.3530  0.8484
 3857TIP3    H211536   0.827   1.121   3.453  2.3901 -1.2834 -1.7623
 3858TIP3   OH211537   3.448   6.529   5.426 -0.1001  0.5282 -0.3242
 3858TIP3    H111538   3.426   6.463   5.492 -2.9419  1.2567 -0.4399
 3858TIP3    H211539   3.488   6.479   5.355  0.3155 -0.6558  0.6967
 3859TIP3   OH211540   2.961   0.906   4.737  0.1669  0.6079  0.2339
 3859TIP3    H111541   2.933   0.816   4.720 -1.0385  1.1277 -0.7629
 3859TIP3    H211542   3.056   0.904   4.729  0.1775 -0.6389  0.5615
 3860TIP3   OH211543   2.458   5.143   0.956  0.2700 -0.2385 -0.1048
 3860TIP3    H111544   2.415   5.059   0.936 -0.3386  0.6429 -2.9508
 3860TIP3    H211545   2.385   5.205   0.964  0.6995  0.0374  2.2212
 3861TIP3   OH211546   0.671   0.251   1.491 -0.1244  0.2840 -0.2297
 3861TIP3    H111547   0.608   0.193   1.449 -1.1037 -0.0765  1.6795
 3861TIP3    H211548   0.750   0.244   1.436 -0.9623 -1.0617 -1.3115
 3862TIP3   OH211549   5.986   1.499   5.516  0.1949 -0.1482 -0.2049
 3862TIP3    H111550   5.976   1.562   5.445  1.6054  0.5525  0.1739
 3862TIP3    H211551   6.061   1.446   5.490  0.2256 -0.3951  0.3822
 3863TIP3   OH211552   5.796   0.045   1.703  0.0691  0.2118  0.0758
 3863TIP3    H111553   5.841   0.120   1.665  4.0131 -1.0240  1.7560
 3863TIP3    H211554   5.830  -0.031   1.655 -2.7219 -0.7318 -0.6275
 3864TIP3   OH211555   3.482   4.781   4.299 -0.2173  0.3403 -0.7367
 3864TIP3    H111556   3.481   4.705   4.241 -1.1562 -0.0663 -0.2050
 3864TIP3    H211557   3.557   4.766   4.357  0.1141  0.2561 -1.1729
 3865TIP3   OH211558   6.362   5.964   5.856  0.0885 -0.0765 -0.5641
 3865TIP3    H111559   6.364   5.881   5.903 -0.1556  0.8915  1.2790
 3865TIP3    H211560   6.449   5.973   5.818  1.2664  0.3279  2.0584
 3866TIP3   OH211561   3.582   2.140   4.297  0.2422 -0.4415 -0.0230
 3866TIP3    H111562   3.620   2.203   4.358 -1.7659  1.8273 -0.9551
 3866TIP3    H211563   3.612   2.054   4.329  0.3115  0.6950  3.3966
 3867TIP3   OH211564   1.909   5.038   3.193  0.3483 -0.3148  0.7944
 3867TIP3    H111565   1.835   5.096   3.212 -0.3951 -0.0785 -2.2379
 3867TIP3    H211566   1.947   5.074   3.113  1.2470 -2.7186  0.0621
 3868TIP3   OH211567   0.070   4.757   3.969  0.5151 -0.6090  0.6583
 3868TIP3    H111568   0.127   4.731   3.897 -1.5329 -0.7721 -0.9817
 3868TIP3    H211569   0.076   4.686   4.032  0.9933 -1.3156 -0.1709
 3869TIP3   OH211570   3.948   1.280   5.765 -0.1272 -0.5503  0.1551
 3869TIP3    H111571   3.917   1.358   5.718 -0.9789 -1.1975 -0.3999
 3869TIP3    H211572   4.008   1.238   5.703 -2.3176 -2.1581 -1.0333
 3870TIP3   OH211573   4.259   4.910   0.946  0.1127 -0.0362 -0.3363
 3870TIP3    H111574   4.196   4.973   0.910  0.3061 -0.4418 -1.4323
 3870TIP3    H211575   4.249   4.832   0.890  1.2751 -0.2619 -0.2510
 3871TIP3   OH211576   5.261   4.458   2.210  0.4659 -0.0557  0.1315
 3871TIP3    H111577   5.345   4.422   2.241 -0.7107 -2.2482  1.0089
 3871TIP3    H211578   5.212   4.381   2.181 -1.0367  1.2554 -0.9213
 3872TIP3   OH211579   6.002   5.264   0.667  0.4755  0.2410  0.2420
 3872TIP3    H111580   6.082   5.283   0.715  0.6643 -0.4626  0.2184
 3872TIP3    H211581   5.994   5.334   0.603  0.7937  0.5985  0.5927
 3873TIP3   OH211582   4.379   3.943   2.966 -0.0863  0.0890  0.3359
 3873TIP3    H111583   4.407   4.030   2.936 -0.4400  0.2925  0.5797
 3873TIP3    H211584   4.296   3.960   3.011 -0.9374 -0.5827 -0.9158
 3874TIP3   OH211585   4.715   5.279   3.221 -0.0974 -0.2690 -0.2971
 3874TIP3    H111586   4.797   5.241   3.252  0.3598  0.0771 -1.0522
 3874TIP3    H211587   4.683   5.332   3.295 -0.0393 -1.0058  0.2668
 3875TIP3   OH211588   4.578   6.287   4.916 -0.2728 -0.1404  0.3975
 3875TIP3    H111589   4.521   6.353   4.954  1.9505  0.9720  2.0720
 3875TIP3    H211590   4.638   6.335   4.860 -0.3044 -1.1219 -0.5123
 3876TIP3   OH211591   4.442   2.255   4.447 -0.4072  0.4097  0.0342
 3876TIP3    H111592   4.461   2.347   4.428  0.1565  0.3598  0.3170
 3876TIP3    H211593   4.348   2.246   4.433 -0.3987  0.9282 -0.4114
 3877TIP3   OH211594   5.535   5.229   4.375 -0.0915 -0.6811  0.1529
 3877TIP3    H111595   5.587   5.279   4.312  0.2808 -2.9736 -1.4973
 3877TIP3    H211596   5.463   5.193   4.324 -0.4255 -1.7172  1.2973
 3878TIP3   OH211597   6.431   3.008   1.621  0.0403  0.1648 -0.3537
 3878TIP3    H111598   6.438   3.053   1.705  0.9734 -0.6952  0.0427
 3878TIP3    H211599   6.522   3.000   1.591 -0.3586  2.4953 -2.5675
 3879TIP3   OH211600   0.777   6.356   2.632  0.7517  0.0766 -0.1197
 3879TIP3    H111601   0.732   6.430   2.592 -0.2560 -1.1074 -1.3015
 3879TIP3    H211602   0.868   6.364   2.600  0.1897 -0.2977 -1.9675
 3880TIP3   OH211603   3.454   0.641   0.500  0.2722  0.2763 -0.1538
 3880TIP3    H111604   3.472   0.704   0.430  0.3999  1.0247  0.5424
 3880TIP3    H211605   3.421   0.694   0.572 -1.5712 -0.6852 -0.2250
 3881TIP3   OH211606   0.543   1.833   3.791  0.4292  0.4964 -0.0860
 3881TIP3    H111607   0.567   1.891   3.719 -0.3282  1.5234  0.4648
 3881TIP3    H211608   0.449   1.849   3.804  0.4995  0.1372  0.9602
 3882TIP3   OH211609   2.758   0.655   4.607 -0.2581 -0.0147 -0.0340
 3882TIP3    H111610   2.840   0.657   4.558 -0.9650  1.0383 -1.2427
 3882TIP3    H211611   2.727   0.565   4.598  0.2608 -0.1581 -0.4467
 3883TIP3   OH211612   2.653   1.600   1.654  0.3093 -0.2350  0.5974
 3883TIP3    H111613   2.736   1.554   1.638  0.4773 -0.2227  1.3718
 3883TIP3    H211614   2.678   1.675   1.707 -0.2184 -0.3119  0.9572
 3884TIP3   OH211615   4.760   4.900   3.647  0.2524  0.4566  0.4110
 3884TIP3    H111616   4.830   4.937   3.700  1.3300  1.1379 -1.4159
 3884TIP3    H211617   4.692   4.967   3.647  0.5741  0.7874  0.2921
 3885TIP3   OH211618   3.390   2.044   2.519  0.2447 -0.2212 -0.2517
 3885TIP3    H111619   3.314   2.027   2.463 -1.9358  0.7342  2.2457
 3885TIP3    H211620   3.428   1.957   2.534 -1.4556 -0.9794 -0.0939
 3886TIP3   OH211621   6.554   1.383   2.179  0.0991  0.8276  0.0165
 3886TIP3    H111622   6.538   1.370   2.086 -2.6865  1.1099  0.3870
 3886TIP3    H211623   6.539   1.476   2.193 -1.3771  0.4575  1.0412
 3887TIP3   OH211624   0.138   1.364   2.195 -0.1960 -0.1698  0.1521
 3887TIP3    H111625   0.078   1.437   2.178  0.3813  0.4527  0.7162
 3887TIP3    H211626   0.182   1.350   2.112  1.1130  1.4687  0.5005
 3888TIP3   OH211627   6.139   2.644   0.773 -0.5089  0.1481 -0.0485
 3888TIP3    H111628   6.060   2.595   0.754 -1.9475  2.4479 -0.3705
 3888TIP3    H211629   6.160   2.690   0.692  0.2338  0.7910  0.4839
 3889TIP3   OH211630   0.853   4.833   0.505  0.1577  0.0171  0.0123
 3889TIP3    H111631   0.863   4.738   0.504 -2.7450 -0.3980 -0.8030
 3889TIP3    H211632   0.829   4.856   0.415 -2.4301  0.9951  0.8595
 3890TIP3   OH211633   1.844   6.596   2.470  0.2249  1.0575 -0.1606
 3890TIP3    H111634   1.933   6.587   2.506 -0.2320 -1.4143  0.5969
 3890TIP3    H211635   1.851   6.563   2.381 -0.2540 -1.2836  0.5857
 3891TIP3   OH211636   4.934   5.622   2.145 -0.3987  0.4278 -0.2563
 3891TIP3    H111637   4.856   5.592   2.192 -1.4010  1.4890 -1.1965
 3891TIP3    H211638   4.958   5.704   2.187 -0.1149  0.3934 -0.3465
 3892TIP3   OH211639   6.901   6.751   0.655  0.0412 -0.4306  0.5293
 3892TIP3    H111640   6.922   6.659   0.671  2.7143 -0.0478 -0.3612
 3892TIP3    H211641   6.959   6.800   0.712  0.0004  0.7116 -0.3657
 3893TIP3   OH211642   4.199   3.870   4.411 -0.2722  0.1620  0.3388
 3893TIP3    H111643   4.190   3.941   4.475 -1.8380  1.1865 -0.9309
 3893TIP3    H211644   4.227   3.914   4.331  1.6915 -1.1064  0.2601
 3894TIP3   OH211645   1.346   2.789   1.870  0.1637  0.4615 -0.1500
 3894TIP3    H111646   1.292   2.868   1.872  0.3290  0.5720  0.0405
 3894TIP3    H211647   1.286   2.718   1.848 -0.3704  0.3340  1.5863
 3895TIP3   OH211648   4.540   3.074   2.613  0.4440  0.0192 -0.3570
 3895TIP3    H111649   4.576   3.147   2.562 -0.7158  0.7080 -0.2328
 3895TIP3    H211650   4.601   3.002   2.598  1.7719  1.0719 -0.2890
 3896TIP3   OH211651   4.445   2.570   4.198 -0.2617  0.2380 -0.2233
 3896TIP3    H111652   4.449   2.585   4.104  0.8386 -1.3655 -0.4846
 3896TIP3    H211653   4.497   2.490   4.211 -1.3818 -0.2486  1.5896
 3897TIP3   OH211654   5.000   3.517   0.104 -0.6384 -0.3736  0.0320
 3897TIP3    H111655   5.030   3.594   0.056 -1.9102 -0.5856 -1.1841
 3897TIP3    H211656   4.988   3.450   0.036 -0.7376 -1.2525  0.8979
 3898TIP3   OH211657   2.294   6.692   1.612 -0.3448 -0.0498 -0.1453
 3898TIP3    H111658   2.229   6.741   1.662 -1.1587 -0.3760 -0.8813
 3898TIP3    H211659   2.375   6.703   1.663 -1.0724 -0.1018  1.0785
 3899TIP3   OH211660   4.213   5.663   5.751  0.1267  0.0265  0.4075
 3899TIP3    H111661   4.142   5.724   5.769  0.5758  0.3352  1.2391
 3899TIP3    H211662   4.281   5.717   5.712  0.5042  0.0694  1.0943
 3900TIP3   OH211663   1.719   6.062   3.465 -0.1602 -0.6093  0.2239
 3900TIP3    H111664   1.756   6.124   3.528 -1.1973 -0.4945  0.7356
 3900TIP3    H211665   1.788   6.051   3.399  1.0975 -0.9885  1.5390
 3901TIP3   OH211666   3.709   2.983   4.158  0.3781 -0.5036  0.2091
 3901TIP3    H111667   3.655   3.062   4.153 -0.2920 -1.0022 -0.7062
 3901TIP3    H211668   3.798   3.016   4.167  0.1640  0.3754 -0.6856
 3902TIP3   OH211669   0.276   4.234   2.262  0.9653  0.8994  0.1987
 3902TIP3    H111670   0.326   4.182   2.199 -0.2225  0.3857 -0.3648
 3902TIP3    H211671   0.276   4.181   2.342  0.2978  0.3092 -0.1791
 3903TIP3   OH211672   6.194   0.382   1.950 -0.0952 -0.3615 -0.0240
 3903TIP3    H111673   6.183   0.443   2.023  1.8989  1.1319 -0.9066
 3903TIP3    H211674   6.280   0.343   1.964 -0.6097 -1.7247 -0.4400
 3904TIP3   OH211675   4.473   1.097   3.633  0.3021 -0.7093  0.0819
 3904TIP3    H111676   4.473   1.001   3.633  0.4298 -0.7106 -0.2939
 3904TIP3    H211677   4.412   1.121   3.702 -1.1211 -1.0657 -1.0059
 3905TIP3   OH211678   2.896   3.739   0.842  0.3474  0.2238  0.2507
 3905TIP3    H111679   2.847   3.701   0.915  0.5252  1.2667  0.9390
 3905TIP3    H211680   2.965   3.791   0.884  1.9326 -1.0096 -0.6887
 3906TIP3   OH211681   5.502   5.838   0.487 -0.0349 -0.4698 -0.1644
 3906TIP3    H111682   5.557   5.862   0.413  1.6320  0.1131  1.1960
 3906TIP3    H211683   5.415   5.823   0.449  0.6417  0.3059 -2.1318
 3907TIP3   OH211684   1.269   0.750   1.820 -0.6698  0.1196  0.4137
 3907TIP3    H111685   1.233   0.815   1.761 -0.6157 -0.1610  0.0695
 3907TIP3    H211686   1.316   0.801   1.886 -1.5084  0.4787  0.7523
 3908TIP3   OH211687   6.447   6.557   2.942 -0.0970 -0.3183 -0.3542
 3908TIP3    H111688   6.489   6.642   2.933  0.9254 -0.7531  0.1320
 3908TIP3    H211689   6.408   6.559   3.029  1.5770 -1.0109  0.4680
 3909TIP3   OH211690   1.408   6.515   5.618 -0.4857  0.3330  0.2036
 3909TIP3    H111691   1.478   6.515   5.553 -0.9849  1.6594 -0.3625
 3909TIP3    H211692   1.440   6.573   5.687 -1.1372  1.1974 -0.2036
 3910TIP3   OH211693   5.334   2.913   1.296  0.2324  0.0978 -0.5802
 3910TIP3    H111694   5.380   2.993   1.271 -1.4714  0.7230 -1.9085
 3910TIP3    H211695   5.285   2.938   1.375 -3.2175  1.6527 -2.9681
 3911TIP3   OH211696   4.085   4.387   0.465 -0.1564  0.4378  0.2034
 3911TIP3    H111697   4.136   4.310   0.438  0.8476  1.3389 -0.5540
 3911TIP3    H211698   4.001   4.351   0.494  0.2587 -0.9372 -0.2158
 3912TIP3   OH211699   6.648   6.489   1.530  0.5058 -0.9800  0.1993
 3912TIP3    H111700   6.608   6.494   1.443  0.8722  1.4636  0.0811
 3912TIP3    H211701   6.642   6.579   1.564  0.4429 -1.8506  2.6867
 3913TIP3   OH211702   0.865   6.594   1.789 -0.1014  0.2670  0.3138
 3913TIP3    H111703   0.873   6.606   1.884  2.3062  1.2297  0.0682
 3913TIP3    H211704   0.902   6.507   1.772  1.0401  0.7783  0.1149
 3914TIP3   OH211705   5.595   6.134   5.389  0.3062 -0.1096 -0.0078
 3914TIP3    H111706   5.532   6.084   5.442 -0.0509 -1.0562 -1.2614
 3914TIP3    H211707   5.560   6.223   5.387 -0.6912 -0.4897 -0.1959
 3915TIP3   OH211708   2.858   6.777   3.075 -0.1787 -0.4151  0.2768
 3915TIP3    H111709   2.823   6.756   3.161  0.8341 -2.5421  0.2316
 3915TIP3    H211710   2.911   6.701   3.051  2.7075  1.6740 -0.5787
 3916TIP3   OH211711   2.897   2.003   1.907  0.1875 -0.3118  0.1224
 3916TIP3    H111712   2.938   1.966   1.986  1.5916  0.5385 -0.1824
 3916TIP3    H211713   2.871   2.091   1.933  3.1059  1.0082 -1.0504
 3917TIP3   OH211714   0.907   6.297   2.066  0.2182  0.2987 -0.1630
 3917TIP3    H111715   0.981   6.301   2.127 -0.9421  2.0430  1.2468
 3917TIP3    H211716   0.866   6.212   2.084  2.3080 -1.1005 -1.6067
 3918TIP3   OH211717   3.872   5.516   2.616  0.0037 -0.3645  0.6610
 3918TIP3    H111718   3.932   5.492   2.546  0.2531  0.5075  0.5566
 3918TIP3    H211719   3.794   5.547   2.570 -0.5171 -1.4297  0.7958
 3919TIP3   OH211720   0.775   5.474   0.358  0.1338  0.1790 -0.6325
 3919TIP3    H111721   0.843   5.416   0.393 -1.4914 -2.2930 -1.3113
 3919TIP3    H211722   0.718   5.491   0.433 -0.9122 -1.4794 -0.9992
 3920TIP3   OH211723   0.816   5.344   1.055  0.2108  0.7462 -0.0630
 3920TIP3    H111724   0.843   5.254   1.038  0.8345  0.0015  4.0065
 3920TIP3    H211725   0.893   5.397   1.034  0.6936  0.0434 -0.0957
 3921TIP3   OH211726   0.972   2.765   2.604  0.3426 -0.0664  0.1330
 3921TIP3    H111727   0.910   2.692   2.603  1.6693 -1.2652  0.7031
 3921TIP3    H211728   0.934   2.830   2.546 -1.5243 -0.6692  0.6205
 3922TIP3   OH211729   1.432   1.914   2.888  0.3023 -0.2929 -0.1700
 3922TIP3    H111730   1.519   1.953   2.887  1.1835 -2.1624 -1.6116
 3922TIP3    H211731   1.439   1.841   2.949 -0.8367  0.6472  1.1518
 3923TIP3   OH211732   1.462   5.508   5.775 -0.3937  0.0086  0.0222
 3923TIP3    H111733   1.524   5.556   5.722  0.4020  0.5247  1.3664
 3923TIP3    H211734   1.469   5.417   5.744 -0.5448  0.4218 -1.2648
 3924TIP3   OH211735   5.308   3.669   1.242 -0.2072  0.7438  0.2869
 3924TIP3    H111736   5.306   3.711   1.156 -1.5376  0.8917  0.3654
 3924TIP3    H211737   5.280   3.579   1.227  1.0190  0.3315  0.3654
 3925TIP3   OH211738   7.163   1.691   4.533  0.2480  0.1081 -0.6057
 3925TIP3    H111739   7.159   1.608   4.485  2.1165  0.0970 -0.8445
 3925TIP3    H211740   7.146   1.758   4.467 -0.3380 -0.0434 -0.6105
 3926TIP3   OH211741   3.636   5.015   1.718 -0.3679  0.2355 -0.2407
 3926TIP3    H111742   3.561   5.075   1.718 -0.5862  0.0556 -2.4903
 3926TIP3    H211743   3.603   4.934   1.756 -0.5483  0.9691  1.2290
 3927TIP3   OH211744   6.306   0.251   5.030 -0.3966 -0.0519 -0.7683
 3927TIP3    H111745   6.238   0.214   4.974 -0.8436  0.0244 -0.2812
 3927TIP3    H211746   6.305   0.195   5.109  0.6581 -0.5552 -1.0893
 3928TIP3   OH211747   0.629   0.188   4.171  0.2892 -0.1774  0.3917
 3928TIP3    H111748   0.604   0.219   4.084 -0.3996  1.4481  1.1252
 3928TIP3    H211749   0.559   0.127   4.196  1.2229 -1.7718 -0.7276
 3929TIP3   OH211750   6.648   3.649   1.353 -0.1023 -0.9164 -0.1035
 3929TIP3    H111751   6.643   3.645   1.448  0.4413  1.1299  0.0725
 3929TIP3    H211752   6.734   3.612   1.331  0.8610  0.8668  0.4688
 3930TIP3   OH211753   5.566   3.009   4.440  0.2876 -0.3138 -0.1381
 3930TIP3    H111754   5.524   2.999   4.355  2.6976 -1.1352 -1.3199
 3930TIP3    H211755   5.605   3.096   4.439 -1.1218  0.3694  0.8717
 3931TIP3   OH211756   4.305   2.291   5.293  0.3473 -0.2165  0.8470
 3931TIP3    H111757   4.235   2.262   5.234  0.4409  0.3176  0.4647
 3931TIP3    H211758   4.381   2.302   5.236  0.2540  0.9832  0.9374
 3932TIP3   OH211759   0.873   0.041   2.850  0.0309 -0.3252 -0.4421
 3932TIP3    H111760   0.839   0.052   2.761  0.9975 -0.9400 -0.9093
 3932TIP3    H211761   0.966   0.063   2.843  0.0687 -0.1772  0.4669
 3933TIP3   OH211762   1.356   5.685   2.583  0.3179  0.0970 -0.0835
 3933TIP3    H111763   1.370   5.773   2.547 -1.0134  0.8304  1.0966
 3933TIP3    H211764   1.309   5.639   2.514 -0.1998  0.7647 -0.1922
 3934TIP3   OH211765   4.799   2.521   1.310 -0.2087  0.6246 -0.2169
 3934TIP3    H111766   4.884   2.544   1.273  0.1757 -0.5693 -0.1146
 3934TIP3    H211767   4.753   2.476   1.239 -0.3314  0.3006  0.0634
 3935TIP3   OH211768   1.382   4.564   2.041 -0.5280 -0.2206 -0.3007
 3935TIP3    H111769   1.401   4.594   1.952 -0.8293 -0.0768 -0.3199
 3935TIP3    H211770   1.420   4.632   2.098  2.0590 -1.6456 -0.2228
 3936TIP3   OH211771   3.347   0.597   3.519 -0.1299  0.1442  0.1690
 3936TIP3    H111772   3.435   0.628   3.544 -0.0968  0.7972 -0.7284
 3936TIP3    H211773   3.360   0.550   3.437 -0.6896  0.7270 -0.2682
 3937TIP3   OH211774   0.608   5.229   4.638 -0.2573 -0.2242 -0.6644
 3937TIP3    H111775   0.537   5.276   4.594 -1.3963 -0.5935  0.6795
 3937TIP3    H211776   0.631   5.285   4.713 -0.3472 -0.9149 -0.1093
 3938TIP3   OH211777   0.838   3.759   3.018  0.5426  0.4076  0.9326
 3938TIP3    H111778   0.927   3.795   3.012  0.3339  0.8500  0.4283
 3938TIP3    H211779   0.781   3.835   3.006  0.0931 -0.1384 -0.6013
 3939TIP3   OH211780   5.180   1.125   3.621 -0.1154  0.1159 -0.4607
 3939TIP3    H111781   5.220   1.098   3.703 -0.8423 -1.8617 -0.7094
 3939TIP3    H211782   5.254   1.156   3.568  0.6190 -0.3450  0.2685
 3940TIP3   OH211783   2.580   3.196   3.127 -0.8245 -0.4251  0.4960
 3940TIP3    H111784   2.642   3.185   3.055 -2.2146 -0.3163 -0.7581
 3940TIP3    H211785   2.611   3.275   3.173  0.0627 -0.4858  0.0221
 3941TIP3   OH211786   3.094   3.653   5.032 -0.1138 -0.2325 -0.3447
 3941TIP3    H111787   3.154   3.605   5.088  0.1942 -1.1870 -1.4661
 3941TIP3    H211788   3.016   3.598   5.027 -0.0756 -0.2367 -0.9835
 3942TIP3   OH211789   4.326   1.988   3.825 -0.3433  0.4492 -0.4823
 3942TIP3    H111790   4.260   2.030   3.771 -0.1880 -0.2436 -1.2302
 3942TIP3    H211791   4.363   1.919   3.769 -0.7471 -0.8296  0.7776
 3943TIP3   OH211792   0.531   5.528   1.428 -0.1865 -0.4078 -0.6753
 3943TIP3    H111793   0.437   5.539   1.411 -0.1259 -1.6538 -2.0215
 3943TIP3    H211794   0.562   5.475   1.355  1.4051 -0.7505  0.2138
 3944TIP3   OH211795   0.161   1.871   4.985  0.5592  1.2448  0.5787
 3944TIP3    H111796   0.228   1.925   5.027  0.3046  1.1756  1.0868
 3944TIP3    H211797   0.104   1.844   5.057  1.0569 -0.2600  0.4487
 3945TIP3   OH211798   2.467   4.151   0.153 -0.0577  0.8074 -0.1083
 3945TIP3    H111799   2.520   4.174   0.229 -0.3277 -0.3657  0.4686
 3945TIP3    H211800   2.398   4.095   0.188 -0.3090  0.4131 -1.1850
 3946TIP3   OH211801   5.976   5.871   4.839  0.2734 -0.8043 -0.3124
 3946TIP3    H111802   5.981   5.796   4.897  0.4312  0.1443  0.9575
 3946TIP3    H211803   6.016   5.943   4.889 -0.1723  0.1979 -1.3395
 3947TIP3   OH211804   5.376   5.293   3.714  0.1678 -0.2681  0.0503
 3947TIP3    H111805   5.352   5.346   3.638 -0.4642 -1.3566 -0.5439
 3947TIP3    H211806   5.296   5.245   3.736  0.1254  0.5640  1.8866
 3948TIP3   OH211807   6.607   5.017   2.943  0.1682  0.0393  0.7554
 3948TIP3    H111808   6.541   5.052   2.883  1.0932 -0.0655 -0.3431
 3948TIP3    H211809   6.691   5.038   2.903  0.8105 -0.4283  1.7969
 3949TIP3   OH211810   7.209   2.710   5.390 -0.0078  0.4058 -0.2941
 3949TIP3    H111811   7.123   2.725   5.427 -0.6743  2.3934 -2.4124
 3949TIP3    H211812   7.241   2.631   5.433 -2.5739  0.0153  1.0341
 3950TIP3   OH211813   0.741   3.521   5.831 -0.2905  0.3260 -0.7056
 3950TIP3    H111814   0.668   3.499   5.888 -0.5723  0.5439 -0.9760
 3950TIP3    H211815   0.792   3.585   5.880 -0.1545  0.0087 -0.4256
 3951TIP3   OH211816   4.820   5.351   1.527 -0.3095 -0.6403  0.5352
 3951TIP3    H111817   4.852   5.365   1.438  0.2443  0.9932  0.9654
 3951TIP3    H211818   4.814   5.438   1.565 -2.1336 -1.1715  1.5767
 3952TIP3   OH211819   2.809   2.137   2.385 -0.2025 -0.4171 -0.3448
 3952TIP3    H111820   2.751   2.066   2.358 -0.9385 -0.8317  2.0920
 3952TIP3    H211821   2.880   2.093   2.432  0.8969  0.2771 -1.2829
 3953TIP3   OH211822   0.697   1.732   5.447 -0.5063 -0.3611  0.0308
 3953TIP3    H111823   0.630   1.750   5.513  0.0756  0.6018  0.3742
 3953TIP3    H211824   0.651   1.682   5.379 -1.7661  0.9514 -0.1174
 3954TIP3   OH211825   6.989   6.295   1.078  0.4221 -0.9111  0.2001
 3954TIP3    H111826   7.014   6.376   1.033  3.0862 -1.7797 -0.0543
 3954TIP3    H211827   6.927   6.324   1.146  0.9388  1.2635 -0.1708
 3955TIP3   OH211828   1.871   2.170   5.394 -0.5027  0.1887  0.2635
 3955TIP3    H111829   1.947   2.178   5.337 -0.2912 -0.1970  0.4889
 3955TIP3    H211830   1.819   2.249   5.376 -1.0073 -0.4565 -1.2907
 3956TIP3   OH211831   4.282   1.405   1.905 -0.0118  0.3083 -0.2307
 3956TIP3    H111832   4.190   1.379   1.905  0.2691 -0.9470  1.8218
 3956TIP3    H211833   4.325   1.342   1.848 -0.4738  1.2325 -1.6330
 3957TIP3   OH211834   1.389   1.843   0.292  0.4228 -0.0303  0.0213
 3957TIP3    H111835   1.415   1.752   0.286  2.5359  0.5154  0.2563
 3957TIP3    H211836   1.403   1.878   0.204  0.9229  0.3873  0.2640
 3958TIP3   OH211837   3.271   1.620   5.307  0.3189  0.2157  0.2748
 3958TIP3    H111838   3.205   1.688   5.296  0.1222  0.1170  0.8229
 3958TIP3    H211839   3.313   1.612   5.221  0.9162  1.6039  0.4129
 3959TIP3   OH211840   0.234   4.314   2.673  0.3743 -0.9568  0.5010
 3959TIP3    H111841   0.174   4.298   2.600  0.7825 -0.0988 -0.0349
 3959TIP3    H211842   0.182   4.358   2.739 -0.1772 -2.3565  1.0424
 3960TIP3   OH211843   5.267   0.493   2.328 -0.3312 -0.0611 -0.3882
 3960TIP3    H111844   5.237   0.548   2.401 -1.7179 -1.3794  0.0915
 3960TIP3    H211845   5.209   0.516   2.256 -1.3270 -1.2753 -0.0102
 3961TIP3   OH211846   5.917   1.289   2.767 -0.0762  0.3307 -0.1024
 3961TIP3    H111847   5.992   1.337   2.733 -1.3875  1.4997 -1.5138
 3961TIP3    H211848   5.915   1.207   2.717  0.3180  0.2355  0.0347
 3962TIP3   OH211849   0.544   3.315   1.972  0.0018  0.3773  0.1462
 3962TIP3    H111850   0.537   3.257   1.896 -1.1518 -1.3355  1.4754
 3962TIP3    H211851   0.463   3.367   1.970  0.7619  1.5884 -0.7091
 3963TIP3   OH211852   5.990   4.851   2.609 -0.6375  0.6183 -0.0583
 3963TIP3    H111853   6.052   4.779   2.600  0.4114  1.6578 -1.5775
 3963TIP3    H211854   5.972   4.878   2.519 -1.7147  1.6716  0.4483
 3964TIP3   OH211855   1.591   3.435   1.909 -0.1075 -0.0651  0.2458
 3964TIP3    H111856   1.618   3.354   1.865  1.1765  0.1198  0.6294
 3964TIP3    H211857   1.531   3.407   1.977 -1.7469 -0.4074 -1.2784
 3965TIP3   OH211858   4.102   3.110   1.334 -0.7886 -0.0662  0.3421
 3965TIP3    H111859   4.187   3.067   1.320  0.2359  2.2742 -1.3985
 3965TIP3    H211860   4.119   3.173   1.405 -1.7012 -1.0638  1.4734
 3966TIP3   OH211861   4.599   4.076   3.645  0.4751  0.8848  0.4779
 3966TIP3    H111862   4.575   4.047   3.556  3.0327  0.4204 -0.1482
 3966TIP3    H211863   4.575   4.169   3.647 -0.8603  0.5937 -0.1735
 3967TIP3   OH211864   6.511   3.435   3.131 -0.0914 -0.1050  0.2486
 3967TIP3    H111865   6.484   3.376   3.061  0.0453  0.4232 -0.2596
 3967TIP3    H211866   6.459   3.514   3.117  0.0791  0.0786  0.6306
 3968TIP3   OH211867   2.698   6.076   2.507 -0.9140 -0.0317 -0.3849
 3968TIP3    H111868   2.638   6.150   2.519  1.1458  1.5665  0.4903
 3968TIP3    H211869   2.773   6.096   2.562  2.0006 -0.2408 -3.9351
 3969TIP3   OH211870   4.044   4.380   3.632  0.1900 -0.3380  0.1768
 3969TIP3    H111871   3.956   4.348   3.609 -0.0765  0.5881 -0.1611
 3969TIP3    H211872   4.097   4.301   3.638 -0.9668 -1.0439  1.7901
 3970TIP3   OH211873   4.702   4.409   4.581  0.0038  0.3081 -0.8525
 3970TIP3    H111874   4.656   4.333   4.617  1.0002  0.0555 -0.0883
 3970TIP3    H211875   4.735   4.456   4.657  1.3444  0.2700 -1.3869
 3971TIP3   OH211876   1.352   3.602   5.317  1.1186  0.0872  0.0635
 3971TIP3    H111877   1.430   3.636   5.275 -0.3855  3.7533 -0.1408
 3971TIP3    H211878   1.341   3.657   5.395 -0.9337 -0.6909  0.3866
 3972TIP3   OH211879   3.206   4.885   0.005 -0.3844  0.2678 -0.0339
 3972TIP3    H111880   3.113   4.906  -0.004 -0.9020 -2.3001 -1.7655
 3972TIP3    H211881   3.218   4.868   0.098 -0.8559  3.5402  0.7557
 3973TIP3   OH211882   4.758   0.497   3.059  0.0951 -0.1802  0.1418
 3973TIP3    H111883   4.798   0.431   3.117  1.0710 -1.3818 -1.8038
 3973TIP3    H211884   4.675   0.457   3.032 -0.7431  0.7213  1.2505
 3974TIP3   OH211885   0.536   1.796   1.430  0.3236 -0.0463  0.2704
 3974TIP3    H111886   0.462   1.797   1.491  0.2015 -0.6602  0.1389
 3974TIP3    H211887   0.496   1.793   1.344  0.4393 -2.7642  0.2129
 3975TIP3   OH211888   4.167   1.431   4.061 -0.6308 -0.0663 -0.5704
 3975TIP3    H111889   4.131   1.407   3.976 -0.9647  1.1878 -0.8083
 3975TIP3    H211890   4.217   1.511   4.044 -0.0095 -0.2650  0.2612
 3976TIP3   OH211891   4.428   5.844   1.383 -0.2219  0.0560 -0.3194
 3976TIP3    H111892   4.345   5.801   1.362  0.0503 -0.9153  0.4821
 3976TIP3    H211893   4.495   5.780   1.357  0.3452  1.2160 -1.8618
 3977TIP3   OH211894   5.131   6.237   5.721 -0.5533  0.0227 -0.0079
 3977TIP3    H111895   5.090   6.323   5.724  2.0051  1.3820 -0.8074
 3977TIP3    H211896   5.123   6.203   5.810  1.3786  2.6525  1.2907
 3978TIP3   OH211897   6.467   1.138   1.079 -0.2886 -0.2550 -0.3847
 3978TIP3    H111898   6.549   1.161   1.123 -0.1013 -1.5122 -0.0275
 3978TIP3    H211899   6.403   1.201   1.114  0.5368  0.8335 -0.7816
 3979TIP3   OH211900   6.659   5.037   5.316  0.5797  0.8262  0.2660
 3979TIP3    H111901   6.747   5.034   5.279  0.4457  1.4055 -0.1038
 3979TIP3    H211902   6.621   4.953   5.291  1.1342  0.4312  0.7123
 3980TIP3   OH211903   1.113   5.514   0.266 -0.3614 -0.4545 -0.3859
 3980TIP3    H111904   1.128   5.506   0.360  0.6674  2.0276 -0.2562
 3980TIP3    H211905   1.066   5.598   0.256  0.4903 -0.1348 -2.1448
 3981TIP3   OH211906   2.694   6.520   0.886 -0.5029 -0.0774  0.2274
 3981TIP3    H111907   2.700   6.567   0.969 -2.3157  0.5634  0.0445
 3981TIP3    H211908   2.766   6.554   0.833 -0.1792  0.5285  1.0432
 3982TIP3   OH211909   4.109   2.507   1.971 -0.0903 -0.1264  0.0992
 3982TIP3    H111910   4.128   2.423   1.929  0.2983 -0.6898  1.3632
 3982TIP3    H211911   4.193   2.553   1.973 -0.2480  0.1905 -0.3429
 3983TIP3   OH211912   4.766   0.871   1.738  0.8467  0.0417 -0.4650
 3983TIP3    H111913   4.689   0.925   1.725  1.7167  1.0046 -1.8808
 3983TIP3    H211914   4.734   0.794   1.784 -0.5904  1.3341  0.8124
 3984TIP3   OH211915   2.347   3.399   3.852  0.0914  0.6625 -0.0414
 3984TIP3    H111916   2.374   3.341   3.923 -0.6407  0.5646  0.1646
 3984TIP3    H211917   2.263   3.364   3.824  0.2458  0.8664 -0.7744
 3985TIP3   OH211918   6.050   2.592   1.717 -0.0989 -0.1237  0.1231
 3985TIP3    H111919   6.123   2.651   1.698  0.4317 -0.4901  0.9648
 3985TIP3    H211920   5.992   2.600   1.641  1.7079 -1.2354 -1.4544
 3986TIP3   OH211921   2.154   5.651   2.562 -0.5860 -0.4245  0.0843
 3986TIP3    H111922   2.106   5.609   2.491 -1.5727  1.6933 -0.6007
 3986TIP3    H211923   2.218   5.586   2.591 -0.6802 -1.6207 -2.2111
 3987TIP3   OH211924   2.214   1.154   5.335 -0.7891 -0.1004  0.5035
 3987TIP3    H111925   2.265   1.169   5.415 -1.6576 -0.9465  1.2414
 3987TIP3    H211926   2.186   1.242   5.307  0.2958  0.2852  0.5928
 3988TIP3   OH211927   6.762   2.899   5.792 -0.4707  0.2152  0.2616
 3988TIP3    H111928   6.760   2.841   5.716 -1.3334  1.7961 -0.9577
 3988TIP3    H211929   6.747   2.840   5.867  0.3185 -1.3569 -0.7573
 3989TIP3   OH211930   3.460   0.694   5.308 -0.4688 -0.1960 -0.3912
 3989TIP3    H111931   3.401   0.743   5.252 -1.0026 -0.5989 -0.1851
 3989TIP3    H211932   3.417   0.610   5.322  0.0646 -0.4291 -0.0905
 3990TIP3   OH211933   3.488   1.210   3.474 -0.2166  0.3334  0.6119
 3990TIP3    H111934   3.427   1.207   3.547  0.1007  2.0360  0.9895
 3990TIP3    H211935   3.563   1.260   3.507  0.8888 -0.6963 -0.2107
 3991TIP3   OH211936   0.092   0.485   0.623  0.2034  0.6933 -0.4090
 3991TIP3    H111937   0.149   0.438   0.562  2.4949  2.5339  0.1949
 3991TIP3    H211938   0.112   0.448   0.709 -1.4651 -0.4218 -0.4570
 3992TIP3   OH211939   4.325   6.170   5.050  0.2485 -0.1109 -0.6751
 3992TIP3    H111940   4.300   6.155   4.959  1.1779  0.1506 -0.9837
 3992TIP3    H211941   4.410   6.127   5.059  0.8782  1.1388 -0.3601
 3993TIP3   OH211942   7.000   3.911   0.598  0.0077 -0.3666 -0.5036
 3993TIP3    H111943   7.075   3.852   0.595 -0.2472 -0.7198 -0.1278
 3993TIP3    H211944   6.945   3.875   0.668  0.2706  0.8073  0.3486
 3994TIP3   OH211945   5.181   6.082   3.791  0.6108  0.1002 -0.2368
 3994TIP3    H111946   5.236   6.135   3.734 -1.1306  0.5166 -1.6418
 3994TIP3    H211947   5.236   6.009   3.819  1.2817 -0.7058 -3.3390
 3995TIP3   OH211948   5.796   1.533   4.410 -0.0303  0.4100 -0.2601
 3995TIP3    H111949   5.739   1.596   4.364  2.1150  1.2390 -1.9555
 3995TIP3    H211950   5.807   1.462   4.347  1.7157  0.8266 -0.4611
 3996TIP3   OH211951   4.837   4.273   3.201  0.6579  0.4372 -0.2271
 3996TIP3    H111952   4.745   4.246   3.196  0.5645  0.7638 -0.2671
 3996TIP3    H211953   4.840   4.334   3.275  1.1913 -0.9795  0.9751
 3997TIP3   OH211954   4.582   6.353   0.246  0.3945 -0.1439 -0.5656
 3997TIP3    H111955   4.573   6.261   0.269  1.5559  0.0350  0.7363
 3997TIP3    H211956   4.509   6.396   0.290  0.5136 -0.3019 -0.2060
 3998TIP3   OH211957   1.665   2.906   4.171  0.3180  0.0694 -0.4067
 3998TIP3    H111958   1.644   2.894   4.264  0.5060  1.7153 -0.1326
 3998TIP3    H211959   1.651   2.819   4.133 -2.0362 -0.1346  0.7118
 3999TIP3   OH211960   0.681   2.086   1.718 -0.6231 -0.3336  0.3731
 3999TIP3    H111961   0.626   2.132   1.782 -1.1823 -0.4271 -0.0371
 3999TIP3    H211962   0.752   2.147   1.699  0.2860 -0.8048  2.0708
 4000TIP3   OH211963   4.318   6.000   4.805 -1.0695  0.1175  0.0459
 4000TIP3    H111964   4.401   5.961   4.777 -0.6930  0.0533  1.1624
 4000TIP3    H211965   4.297   6.064   4.738 -0.5387 -0.4448 -0.6725
 4001TIP3   OH211966   5.966   3.333   1.421 -0.1946 -0.4180 -0.0896
 4001TIP3    H111967   6.001   3.360   1.506 -0.9380  0.8572 -0.1678
 4001TIP3    H211968   5.999   3.398   1.359 -0.5965 -0.6803 -0.5825
 4002TIP3   OH211969   1.798   4.212   2.152  0.0723 -0.9195 -0.1707
 4002TIP3    H111970   1.800   4.121   2.122 -1.0729 -0.5860 -1.3137
 4002TIP3    H211971   1.705   4.233   2.161  0.3123  0.2686 -0.2988
 4003TIP3   OH211972   6.711   1.737   3.763 -0.3180 -0.4517  0.1112
 4003TIP3    H111973   6.744   1.827   3.763  2.2261 -1.2862  0.1086
 4003TIP3    H211974   6.747   1.699   3.683  0.1922 -1.9484  1.0137
 4004TIP3   OH211975   3.558   4.918   4.832  0.8375 -0.1846  0.4355
 4004TIP3    H111976   3.473   4.961   4.832  1.2105  0.6014 -0.3398
 4004TIP3    H211977   3.540   4.828   4.806  0.4522  0.5508 -2.2120
 4005TIP3   OH211978   5.973   1.022   0.473 -0.0462 -0.5686 -0.3123
 4005TIP3    H111979   5.988   1.090   0.540 -0.6566 -2.0647  1.4445
 4005TIP3    H211980   5.893   1.051   0.428  0.4180  0.5147 -0.4734
 4006TIP3   OH211981   2.547   5.888   4.308 -0.3672 -0.4853 -0.1617
 4006TIP3    H111982   2.514   5.861   4.222  0.0645 -0.8757 -0.2081
 4006TIP3    H211983   2.633   5.846   4.315 -0.1460  0.0228  0.2147
 4007TIP3   OH211984   4.929   3.516   0.355 -0.0238  0.0595 -0.2912
 4007TIP3    H111985   4.973   3.507   0.270  0.0199 -0.2004 -0.2414
 4007TIP3    H211986   4.879   3.435   0.365  0.0133  0.0665 -0.0461
 4008TIP3   OH211987   0.853   2.565   1.637  0.3699  1.0568  0.0386
 4008TIP3    H111988   0.827   2.631   1.701 -2.2136  1.1466 -0.9988
 4008TIP3    H211989   0.866   2.615   1.556  2.2164  0.7538  0.1059
 4009TIP3   OH211990   3.165   6.488   5.448  0.3116  0.0669  0.1844
 4009TIP3    H111991   3.162   6.470   5.354  0.3951 -0.3081  0.2519
 4009TIP3    H211992   3.226   6.422   5.483  0.0862  0.0452  0.5357
 4010TIP3   OH211993   6.448   4.402   2.375 -0.6585  0.6728 -0.0493
 4010TIP3    H111994   6.444   4.337   2.445 -0.9075  0.4169 -0.2921
 4010TIP3    H211995   6.361   4.443   2.375 -0.9297  0.1254 -0.7076
 4011TIP3   OH211996   5.670   5.568   4.955  0.4700  0.3537  0.1091
 4011TIP3    H111997   5.736   5.576   4.886  0.8433 -0.7119  0.3311
 4011TIP3    H211998   5.683   5.645   5.010 -0.5270  1.8140 -1.5666
 4012TIP3   OH211999   1.166   1.276   0.562 -0.1877  0.0569 -0.3885
 4012TIP3    H112000   1.224   1.205   0.535  3.3624  3.5837 -3.2666
 4012TIP3    H212001   1.089   1.267   0.506  1.4804 -0.0437 -2.8255
 4013TIP3   OH212002   5.243   1.573   3.254 -0.3201 -0.0211 -0.2169
 4013TIP3    H112003   5.173   1.515   3.281 -0.4108 -0.0925 -0.6149
 4013TIP3    H212004   5.207   1.661   3.265 -0.9618 -0.0777 -1.7571
 4014TIP3   OH212005   5.394   0.217   2.924 -0.0407  0.2680  0.3822
 4014TIP3    H112006   5.334   0.148   2.897 -0.0706  0.9089 -1.2926
 4014TIP3    H212007   5.407   0.201   3.018 -1.7293 -0.7073  0.5087
 4015TIP3   OH212008   3.465   5.508   3.227  0.1089 -0.3462 -0.7217
 4015TIP3    H112009   3.399   5.509   3.158 -0.1553  0.0552 -0.4624
 4015TIP3    H212010   3.516   5.429   3.210 -1.3989 -1.5173 -0.0089
 4016TIP3   OH212011   5.593   2.575   2.069  0.1651 -0.7482  0.2695
 4016TIP3    H112012   5.548   2.609   1.992  1.1823 -2.4255 -1.1364
 4016TIP3    H212013   5.669   2.632   2.080 -0.0998 -0.3739  0.1744
 4017TIP3   OH212014   5.003   1.911   3.046  0.2553  0.1143  0.4979
 4017TIP3    H112015   4.960   1.996   3.053  1.1696  1.0500 -2.9224
 4017TIP3    H212016   4.988   1.884   2.955  0.7341 -2.9996  1.2296
 4018TIP3   OH212017   2.449   4.602   3.645  0.5159 -0.7085 -0.2887
 4018TIP3    H112018   2.495   4.591   3.562  1.3574  0.3722  0.0151
 4018TIP3    H212019   2.471   4.691   3.674 -0.1812 -0.8730  0.8425
 4019TIP3   OH212020   3.464   2.429   1.588 -0.4912 -0.6502  0.0208
 4019TIP3    H112021   3.534   2.424   1.523 -2.2735  1.7400 -2.2731
 4019TIP3    H212022   3.420   2.344   1.584  0.8826 -1.3810 -0.0883
 4020TIP3   OH212023   6.889   2.114   4.641 -0.7307 -0.6079 -0.3757
 4020TIP3    H112024   6.829   2.184   4.667 -1.1666 -0.5914 -1.3939
 4020TIP3    H212025   6.938   2.094   4.721 -2.6972 -1.2266  0.7532
 4021TIP3   OH212026   2.953   4.397   4.631  0.2877  0.0433 -0.4171
 4021TIP3    H112027   3.018   4.457   4.668 -0.4392  1.0062 -0.6605
 4021TIP3    H212028   2.967   4.403   4.536  0.7491 -0.8122 -0.4160
 4022TIP3   OH212029   0.653   4.480   3.755 -0.4729 -0.0538  0.4886
 4022TIP3    H112030   0.696   4.524   3.681 -0.1767  0.4626  0.9542
 4022TIP3    H212031   0.560   4.493   3.740 -0.3992  0.4431  0.4386
 4023TIP3   OH212032   3.073   2.007   1.084  0.0332 -0.4149 -0.6380
 4023TIP3    H112033   3.165   2.015   1.112  0.2397  1.9395 -1.7015
 4023TIP3    H212034   3.075   1.946   1.011  0.6772 -0.7978 -0.3094
 4024TIP3   OH212035   4.031   5.634   0.672 -0.5045 -0.5955  0.4987
 4024TIP3    H112036   4.115   5.677   0.660  0.8734 -2.8293  1.5547
 4024TIP3    H212037   4.033   5.560   0.611 -1.5558 -0.9071  0.8239
 4025TIP3   OH212038   4.489   0.257   0.066 -0.5763  0.0930  0.1215
 4025TIP3    H112039   4.420   0.211   0.018 -1.6726  1.5952  0.2136
 4025TIP3    H212040   4.495   0.343   0.024  1.1918  0.0435  0.1743
 4026TIP3   OH212041   6.998   4.115   2.433  0.2219 -0.2727 -0.4699
 4026TIP3    H112042   6.997   4.026   2.399 -0.7051 -0.8586  1.0408
 4026TIP3    H212043   7.072   4.118   2.493 -0.7514 -0.5378  0.7649
 4027TIP3   OH212044   6.291   4.203   0.206 -0.0687 -0.4348 -0.5197
 4027TIP3    H112045   6.215   4.231   0.256  0.4440 -0.6947  0.4382
 4027TIP3    H212046   6.319   4.122   0.249  2.5117  1.1651  1.1048
 4028TIP3   OH212047   3.827   4.509   1.536 -0.0155 -0.1482  0.0879
 4028TIP3    H112048   3.799   4.460   1.613  0.1063  0.3285  0.4412
 4028TIP3    H212049   3.918   4.483   1.523 -0.3423 -1.0032 -0.5103
 4029TIP3   OH212050   1.753   5.554   1.805 -0.2792  0.4781 -0.1662
 4029TIP3    H112051   1.802   5.543   1.723 -0.5060 -0.2695 -0.2105
 4029TIP3    H212052   1.682   5.490   1.799 -0.0477  0.1116  0.8017
 4030TIP3   OH212053   5.001   1.943   1.230 -0.5788  0.0149 -0.4260
 4030TIP3    H112054   5.090   1.977   1.222 -0.5367 -0.4612 -2.3070
 4030TIP3    H212055   4.955   2.010   1.281  0.6262  0.6894 -0.1809
 4031TIP3   OH212056   5.104   6.526   3.607  0.1260  0.5923  0.2847
 4031TIP3    H112057   5.038   6.472   3.652 -0.5644  1.5192  0.4285
 4031TIP3    H212058   5.186   6.479   3.619 -0.5715 -0.8732 -0.3394
 4032TIP3   OH212059   4.865   2.077   1.916 -0.6864 -0.2405 -0.2075
 4032TIP3    H112060   4.784   2.033   1.940  0.3347 -1.8415  0.4561
 4032TIP3    H212061   4.934   2.025   1.957  0.6185  1.8749  0.4920
 4033TIP3   OH212062   2.605   5.918   1.762 -0.0361 -0.0549  0.0139
 4033TIP3    H112063   2.627   5.902   1.670 -0.3990 -2.1857  0.2324
 4033TIP3    H212064   2.690   5.924   1.805  0.1731 -1.0884 -0.2046
 4034TIP3   OH212065   1.804   5.297   3.033 -0.1736 -0.5538 -0.1272
 4034TIP3    H112066   1.773   5.245   2.959 -0.6125  0.9188 -1.0238
 4034TIP3    H212067   1.760   5.259   3.109 -1.8978 -0.4013 -0.9858
 4035TIP3   OH212068   6.705   5.139   4.042  0.0796  0.3607 -0.8923
 4035TIP3    H112069   6.648   5.076   3.999 -0.3687  0.8715 -1.0605
 4035TIP3    H212070   6.712   5.212   3.980  0.6619  0.4408 -0.7405
 4036TIP3   OH212071   5.068   3.837   5.766  0.1589 -0.3052 -0.1532
 4036TIP3    H112072   5.120   3.860   5.688 -0.2625 -1.2858 -0.7335
 4036TIP3    H212073   5.057   3.921   5.812 -0.8908  0.6049 -1.9415
 4037TIP3   OH212074   1.819   4.063   1.565 -0.8479  0.3184 -0.4119
 4037TIP3    H112075   1.838   3.979   1.522  2.1009  0.1923  0.8307
 4037TIP3    H212076   1.749   4.043   1.627 -0.5495 -1.1288 -0.4986
 4038TIP3   OH212077   5.238   5.379   5.625  0.1807  0.2740 -0.0947
 4038TIP3    H112078   5.152   5.339   5.609  0.2429 -0.1164  0.4990
 4038TIP3    H212079   5.295   5.304   5.645  0.6005  0.5540 -0.2432
 4039TIP3   OH212080   5.460   1.789   4.667 -0.0821 -0.1085 -0.2655
 4039TIP3    H112081   5.434   1.743   4.747  2.1828  0.9523  1.2025
 4039TIP3    H212082   5.504   1.868   4.698  1.3244  0.1105 -2.5532
 4040TIP3   OH212083   0.904   0.955   1.130 -0.5147  0.2148 -0.2932
 4040TIP3    H112084   0.832   1.018   1.134 -1.8901 -1.1485 -1.8609
 4040TIP3    H212085   0.886   0.904   1.051 -0.2925 -3.0604  1.5926
 4041TIP3   OH212086   0.350   4.926   4.330  0.3232  0.2331 -0.1749
 4041TIP3    H112087   0.375   4.963   4.246  1.1810 -0.3457 -0.1819
 4041TIP3    H212088   0.255   4.935   4.333  0.3696  1.0208 -0.8377
 4042TIP3   OH212089   2.637   4.542   2.751 -0.0976 -0.4643  0.9805
 4042TIP3    H112090   2.553   4.509   2.785 -1.2769 -0.7441 -1.9748
 4042TIP3    H212091   2.677   4.465   2.710  0.0956  0.3608 -0.4088
 4043TIP3   OH212092   3.569   5.632   0.404  0.8500 -0.2690 -0.1990
 4043TIP3    H112093   3.588   5.722   0.380  1.2466 -0.3885 -0.3340
 4043TIP3    H212094   3.571   5.632   0.500  0.6805 -0.1010 -0.1938
 4044TIP3   OH212095   4.178   2.298   1.795 -0.5037 -0.1259  0.1403
 4044TIP3    H112096   4.242   2.256   1.852  0.6809  2.4203  0.8214
 4044TIP3    H212097   4.229   2.360   1.743 -1.8618 -0.9473 -2.2997
 4045TIP3   OH212098   0.834   3.664   0.485  0.0173  0.0294  0.5843
 4045TIP3    H112099   0.905   3.721   0.455  0.6846 -0.7369  0.6735
 4045TIP3    H212100   0.813   3.696   0.573  0.6225 -0.0615  0.7689
 4046TIP3   OH212101   6.573   5.837   5.053  0.2908 -0.3268 -0.3921
 4046TIP3    H112102   6.583   5.758   5.106 -0.8046 -1.5548 -1.9175
 4046TIP3    H212103   6.550   5.805   4.966  0.5289  1.6629 -1.2450
 4047TIP3   OH212104   2.995   2.306   3.185 -0.2398 -0.2327  0.0381
 4047TIP3    H112105   3.084   2.271   3.183 -0.6203 -1.2098 -1.1052
 4047TIP3    H212106   2.961   2.283   3.272  1.2031  1.7840  1.2232
 4048TIP3   OH212107   0.874   3.659   1.799 -0.7824 -0.1937 -0.4539
 4048TIP3    H112108   0.792   3.693   1.834 -1.1315 -0.8680 -0.5980
 4048TIP3    H212109   0.937   3.672   1.870 -1.1418 -0.1839 -0.1335
 4049TIP3   OH212110   1.043   5.192   3.464 -0.2730  0.0247  0.6144
 4049TIP3    H112111   1.054   5.099   3.485 -1.6121 -0.6557 -1.4473
 4049TIP3    H212112   1.089   5.238   3.535  2.0266 -2.2082  0.7124
 4050TIP3   OH212113   0.634   5.667   5.285  0.1067  0.1189  0.5997
 4050TIP3    H112114   0.725   5.690   5.304  0.6250 -1.1039 -0.2344
 4050TIP3    H212115   0.619   5.585   5.333 -0.0726 -0.4603 -0.4142
 4051TIP3   OH212116   6.275   4.056   3.404 -0.6239  0.6464 -0.5896
 4051TIP3    H112117   6.321   4.119   3.349  0.6264  0.6828  0.4391
 4051TIP3    H212118   6.192   4.041   3.360 -1.7011  4.2398 -0.0635
 4052TIP3   OH212119   2.761   6.112   4.493 -0.2072 -0.1944 -0.0400
 4052TIP3    H112120   2.749   6.180   4.427  0.6148  1.8769  1.8329
 4052TIP3    H212121   2.855   6.111   4.509 -0.2596 -1.4835  0.2950
 4053TIP3   OH212122   6.231   1.824   2.504  0.6606  0.5209 -0.4181
 4053TIP3    H112123   6.157   1.850   2.559 -0.4837 -0.9252 -1.2019
 4053TIP3    H212124   6.279   1.760   2.557  0.1662 -0.0708 -0.6709
 4054TIP3   OH212125   4.703   5.184   3.644 -0.1973 -0.1271  0.2795
 4054TIP3    H112126   4.718   5.199   3.737 -3.0727  2.0378  0.5346
 4054TIP3    H212127   4.705   5.271   3.604 -1.9749 -0.6403 -1.1044
 4055TIP3   OH212128   6.455   6.537   5.250 -0.5048 -0.1193  0.1423
 4055TIP3    H112129   6.491   6.601   5.310  0.7790 -1.7045  1.1514
 4055TIP3    H212130   6.399   6.481   5.304  1.4183 -2.1501  0.1480
 4056TIP3   OH212131   4.295   6.426   5.734  0.1258  0.0524 -0.2182
 4056TIP3    H112132   4.222   6.393   5.682 -1.5843  0.6622  1.6682
 4056TIP3    H212133   4.328   6.350   5.781 -0.1868  0.0195 -0.0525
 4057TIP3   OH212134   5.137   3.594   0.770  0.3673  0.5128 -0.1109
 4057TIP3    H112135   5.175   3.553   0.693  0.0688 -0.1518  0.0864
 4057TIP3    H212136   5.058   3.543   0.788  2.7116 -2.3861  3.3363
 4058TIP3   OH212137   3.316   0.708   1.747  0.6021  0.4067  0.0244
 4058TIP3    H112138   3.251   0.655   1.793 -0.0972  0.9150 -0.3574
 4058TIP3    H212139   3.377   0.736   1.815 -0.5443  1.3332  0.7038
 4059TIP3   OH212140   0.078   2.037   1.336  0.4435  0.0950 -0.6006
 4059TIP3    H112141   0.035   2.108   1.290  0.0214 -0.0780 -0.4770
 4059TIP3    H212142   0.164   2.030   1.295 -0.0774 -0.3283 -1.6486
 4060TIP3   OH212143   1.489   1.741   5.720  0.2396  0.1377 -0.1039
 4060TIP3    H112144   1.428   1.775   5.785  0.4174  0.3082 -0.0275
 4060TIP3    H212145   1.439   1.673   5.674  0.2570 -0.2935  0.5037
 4061TIP3   OH212146   0.837   3.609   1.409 -0.4401  0.1988 -0.1908
 4061TIP3    H112147   0.777   3.574   1.343  0.2646  0.5842 -1.0586
 4061TIP3    H212148   0.816   3.560   1.489  0.0168 -1.7395 -1.1813
 4062TIP3   OH212149   0.463   1.686   0.350 -0.0465  0.6991  0.2759
 4062TIP3    H112150   0.530   1.655   0.289 -0.6412 -0.7233  0.3052
 4062TIP3    H212151   0.422   1.760   0.305  0.1278  0.2407 -0.6648
 4063TIP3   OH212152   1.714   3.903   5.517 -0.0323  0.2254 -0.2843
 4063TIP3    H112153   1.705   3.989   5.476 -1.0208 -0.6240 -1.9541
 4063TIP3    H212154   1.725   3.921   5.610  1.4500  2.2184 -0.7837
 4064TIP3   OH212155   0.401   2.588   5.418 -0.2263 -0.1481 -0.1304
 4064TIP3    H112156   0.388   2.505   5.373  0.8706 -0.0827 -0.6143
 4064TIP3    H212157   0.488   2.618   5.388  0.2145  0.2585  1.4687
 4065TIP3   OH212158   1.110   2.207   1.126 -0.4804  0.0307  0.6519
 4065TIP3    H112159   1.162   2.129   1.107  0.5339  0.8245  0.0602
 4065TIP3    H212160   1.078   2.236   1.041 -0.7422  0.3406  0.8538
 4066TIP3   OH212161   3.598   4.379   3.249 -0.3507 -0.1923  0.0876
 4066TIP3    H112162   3.662   4.310   3.234  1.1598  1.1898 -0.1249
 4066TIP3    H212163   3.607   4.400   3.342 -0.9832 -0.4190  0.2088
 4067TIP3   OH212164   7.066   6.500   2.169  0.2709 -0.2320 -0.5954
 4067TIP3    H112165   7.123   6.508   2.093  1.7079 -1.5712  0.2861
 4067TIP3    H212166   7.111   6.438   2.227 -1.0832  0.2605  1.0695
 4068TIP3   OH212167   7.024   0.914   2.310 -0.3226 -0.5029 -0.2255
 4068TIP3    H112168   6.980   0.839   2.350 -1.9698  0.6500  0.2667
 4068TIP3    H212169   6.960   0.985   2.318  1.8934  1.4665  1.0727
 4069TIP3   OH212170   3.227   1.435   0.597  0.5432  0.0843 -0.0695
 4069TIP3    H112171   3.280   1.514   0.584  0.6926  0.1448  0.8292
 4069TIP3    H212172   3.207   1.405   0.508  1.4943  0.4583 -0.4314
 4070TIP3   OH212173   1.997   4.694   4.217 -0.1162  0.4364 -0.0597
 4070TIP3    H112174   1.981   4.653   4.133  1.1127  0.7870 -0.4796
 4070TIP3    H212175   1.965   4.631   4.281 -1.6647  0.4420 -0.7815
 4071TIP3   OH212176   3.897   6.133   0.179  0.4646 -0.4288  0.0451
 4071TIP3    H112177   3.975   6.168   0.137 -0.4194 -0.1909 -1.4773
 4071TIP3    H212178   3.930   6.084   0.254  2.0476 -0.1408 -0.4289
 4072TIP3   OH212179   0.850   5.435   3.446  0.2944 -0.3805  0.5845
 4072TIP3    H112180   0.887   5.347   3.436 -3.0427 -1.8501 -0.2572
 4072TIP3    H212181   0.818   5.439   3.536  0.5610  0.0361  0.6648
 4073TIP3   OH212182   1.637   3.420   0.043  0.2064  0.3011 -0.1983
 4073TIP3    H112183   1.579   3.475  -0.011  0.6899 -0.4211 -1.4877
 4073TIP3    H212184   1.718   3.470   0.050 -0.0665  0.6671  0.3826
 4074TIP3   OH212185   5.544   4.881   0.769  0.2018  0.3079 -0.1818
 4074TIP3    H112186   5.609   4.919   0.828 -1.1250  0.8861  0.9370
 4074TIP3    H212187   5.489   4.826   0.824 -2.8130  3.0012 -0.1885
 4075TIP3   OH212188   0.474   0.803   1.459  0.1432  0.3908 -0.9587
 4075TIP3    H112189   0.401   0.777   1.403 -1.1362  0.8883  0.4506
 4075TIP3    H212190   0.492   0.725   1.512 -2.5332  1.6007  2.0136
 4076TIP3   OH212191   4.664   2.351   1.944 -0.1066 -0.5276  0.7834
 4076TIP3    H112192   4.644   2.262   1.972 -0.0921 -0.3024  1.5305
 4076TIP3    H212193   4.748   2.371   1.985 -0.0762 -0.1957  0.5617
 4077TIP3   OH212194   2.118   5.896   1.229 -0.5233 -0.4847  0.7660
 4077TIP3    H112195   2.213   5.885   1.236 -0.2506  0.3324 -0.9385
 4077TIP3    H212196   2.106   5.991   1.222 -1.4103 -0.6199  0.3956
 4078TIP3   OH212197   5.411   5.962   5.531 -0.2257  0.3934  0.2670
 4078TIP3    H112198   5.353   6.037   5.540  0.1647  0.6826  0.4463
 4078TIP3    H212199   5.356   5.886   5.551 -1.6347  0.2097 -3.5508
 4079TIP3   OH212200   3.025   0.894   0.169  0.3433 -0.1114 -0.3631
 4079TIP3    H112201   3.020   0.975   0.119  0.0422 -0.8121 -1.4992
 4079TIP3    H212202   2.938   0.856   0.163  1.1194 -1.8038 -2.1172
 4080TIP3   OH212203   6.546   1.918   3.884 -0.1129 -0.6501  0.3427
 4080TIP3    H112204   6.507   1.832   3.898  0.1162 -1.1054 -1.5600
 4080TIP3    H212205   6.497   1.955   3.811  2.7192 -1.1414 -1.9742
 4081TIP3   OH212206   4.966   3.517   4.965  0.3213  0.1351 -0.3022
 4081TIP3    H112207   4.971   3.491   5.057 -1.1911  0.1320 -0.2020
 4081TIP3    H212208   4.947   3.610   4.967  1.3854  0.3758 -0.6387
 4082TIP3   OH212209   1.442   6.555   5.041 -0.1979  0.1750 -0.3459
 4082TIP3    H112210   1.462   6.644   5.071  0.0585  0.3683 -1.0750
 4082TIP3    H212211   1.360   6.565   4.993 -1.1672 -0.3110  1.1175
 4083TIP3   OH212212   6.583   4.551   2.991 -0.5892 -0.5013  0.3322
 4083TIP3    H112213   6.569   4.633   3.038  1.8084  0.3830 -0.3885
 4083TIP3    H212214   6.613   4.490   3.059  0.0026 -0.0736  0.4610
 4084TIP3   OH212215   3.662   1.420   3.878 -0.1179 -0.5144  0.4606
 4084TIP3    H112216   3.719   1.458   3.944  2.3639  0.1949 -1.9313
 4084TIP3    H212217   3.590   1.381   3.928  1.4128  0.2876  3.4969
 4085TIP3   OH212218   6.363   0.864   0.265  0.2071 -0.2222 -0.5958
 4085TIP3    H112219   6.423   0.929   0.301 -0.8397  0.6578 -0.3612
 4085TIP3    H212220   6.291   0.915   0.229 -0.1110 -1.2172 -1.4346
 4086TIP3   OH212221   2.412   2.530   3.597  0.8811  0.1969  0.3516
 4086TIP3    H112222   2.398   2.454   3.540  0.8086  1.0449 -0.7995
 4086TIP3    H212223   2.490   2.572   3.562 -0.7737  2.3552 -0.9999
 4087TIP3   OH212224   5.544   3.974   4.501  0.1740 -0.7000  0.0281
 4087TIP3    H112225   5.625   3.959   4.451  1.1750  0.1598  1.3173
 4087TIP3    H212226   5.572   3.973   4.593 -1.3978 -0.9658  0.5309
 4088TIP3   OH212227   3.873   0.386   0.108  0.1996  0.5605  0.2767
 4088TIP3    H112228   3.827   0.465   0.080 -0.6239  0.1059  0.3366
 4088TIP3    H212229   3.805   0.328   0.140  0.8907  0.1902  1.1314
 4089TIP3   OH212230   5.006   5.872   2.280 -0.4672  0.2855 -1.2944
 4089TIP3    H112231   5.093   5.867   2.319  0.9376 -1.0026 -4.2482
 4089TIP3    H212232   4.986   5.965   2.278  0.1574  0.5006  0.7699
 4090TIP3   OH212233   5.337   1.894   1.450 -0.0759 -0.3764 -0.2451
 4090TIP3    H112234   5.325   1.800   1.465  0.6128 -0.4787 -0.2743
 4090TIP3    H212235   5.376   1.926   1.531  1.0264 -0.3950 -0.7466
 4091TIP3   OH212236   4.309   2.695   2.586  0.1630  0.3416 -0.4882
 4091TIP3    H112237   4.320   2.602   2.562  0.1651  0.8189 -2.5416
 4091TIP3    H212238   4.389   2.737   2.556 -0.5259  1.2678 -1.0659
 4092TIP3   OH212239   1.126   2.944   0.754  0.2002 -0.1413  0.5711
 4092TIP3    H112240   1.175   3.007   0.806  0.3141  1.9108 -1.8280
 4092TIP3    H212241   1.186   2.921   0.683 -1.4328  0.6720 -1.1576
 4093TIP3   OH212242   4.732   3.622   0.957 -0.2893 -0.1629  0.7270
 4093TIP3    H112243   4.661   3.639   0.895  1.4301  4.3988 -0.3762
 4093TIP3    H212244   4.811   3.618   0.902  0.7933 -1.2235  2.2587
 4094TIP3   OH212245   2.010   2.482   4.027  0.4056 -0.4845 -0.1655
 4094TIP3    H112246   2.000   2.565   3.981  1.1437  0.1499  0.7827
 4094TIP3    H212247   2.088   2.442   3.989 -0.0978 -0.8903 -0.8058
 4095TIP3   OH212248   2.062   1.736   3.662  0.5767  0.2195  0.5623
 4095TIP3    H112249   2.048   1.714   3.570  0.8508  1.2769  0.2503
 4095TIP3    H212250   2.115   1.815   3.660  1.7620 -0.5071  1.6579
 4096TIP3   OH212251   4.264   3.078   2.625  0.1424  0.5961  0.1782
 4096TIP3    H112252   4.357   3.057   2.618 -0.2575 -1.4127  0.1585
 4096TIP3    H212253   4.258   3.170   2.603  2.3444  1.2323  1.8352
 4097TIP3   OH212254   4.983   4.543   3.968  0.2861  0.9029 -0.1131
 4097TIP3    H112255   4.889   4.553   3.955 -0.1043 -0.8591  0.9845
 4097TIP3    H212256   4.993   4.531   4.062  1.1828 -2.1946 -0.4880
 4098TIP3   OH212257   4.283   0.840   2.125 -0.0688 -0.5344 -0.0350
 4098TIP3    H112258   4.350   0.858   2.192  0.1788 -0.8042 -0.2070
 4098TIP3    H212259   4.322   0.772   2.070 -0.9271 -1.5000  0.5132
 4099TIP3   OH212260   4.943   3.961   4.797  0.3304  0.2033 -0.6159
 4099TIP3    H112261   4.852   3.933   4.794  0.9612 -1.9581 -1.5551
 4099TIP3    H212262   4.963   3.988   4.707  0.5746  0.8547 -0.3717
 4100TIP3   OH212263   3.073   4.524   3.168  0.5398 -0.0200 -0.7314
 4100TIP3    H112264   3.050   4.449   3.223 -0.7389  0.5598 -0.4358
 4100TIP3    H212265   3.111   4.588   3.228  0.3692  0.1004 -0.7520
 4101TIP3   OH212266   6.696   6.063   2.678 -0.1756 -0.0149 -0.3993
 4101TIP3    H112267   6.754   6.083   2.605 -0.4790  0.7243 -0.4551
 4101TIP3    H212268   6.753   6.024   2.744  0.2454  0.0148 -0.7410
 4102TIP3   OH212269   1.554   6.311   5.126 -0.0207  0.1013 -0.0391
 4102TIP3    H112270   1.498   6.374   5.080 -0.2415 -0.3616 -0.4169
 4102TIP3    H212271   1.493   6.257   5.175  0.1552  0.0746  0.1481
 4103TIP3   OH212272   6.890   4.980   5.147  0.4743  0.2545  0.1314
 4103TIP3    H112273   6.978   4.983   5.110  0.6389  2.3768  0.5464
 4103TIP3    H212274   6.835   4.946   5.077  1.3682  0.5587 -0.7383
 4104TIP3   OH212275   3.472   4.241   2.442 -0.0758 -0.2798 -0.1219
 4104TIP3    H112276   3.414   4.314   2.422  0.3615  0.3275  0.7834
 4104TIP3    H212277   3.544   4.249   2.378 -0.6189 -0.6321 -0.7926
 4105TIP3   OH212278   2.985   2.754   2.795 -0.0588 -0.6404 -0.3182
 4105TIP3    H112279   3.026   2.769   2.880 -0.9802 -0.4155  0.1008
 4105TIP3    H212280   3.051   2.778   2.731 -0.3188  2.0484  0.3179
 4106TIP3   OH212281   5.290   3.605   5.024 -0.0758  0.1324  0.4929
 4106TIP3    H112282   5.242   3.682   4.993  0.0705  0.2492  0.5516
 4106TIP3    H212283   5.228   3.559   5.079 -0.7050 -0.6602 -0.8248
 4107TIP3   OH212284   2.841   4.815   0.983  0.1714 -0.0324 -0.2692
 4107TIP3    H112285   2.770   4.860   0.936  0.2671 -0.6626 -1.0315
 4107TIP3    H212286   2.827   4.722   0.964 -0.0860 -0.3595  1.3709
 4108TIP3   OH212287   2.089   3.725   3.911  0.2144  0.3522 -0.8194
 4108TIP3    H112288   2.034   3.704   3.835  1.3711 -0.5984 -1.4064
 4108TIP3    H212289   2.094   3.643   3.960  1.1242  0.4276 -0.7837
 4109TIP3   OH212290   2.807   5.481   3.868  0.3325 -0.2700 -0.0774
 4109TIP3    H112291   2.797   5.455   3.777  2.2485 -0.7651 -0.1903
 4109TIP3    H212292   2.764   5.566   3.874  0.3500 -0.1480 -1.4859
 4110TIP3   OH212293   6.287   0.215   3.835 -0.5172  0.2612  0.7299
 4110TIP3    H112294   6.352   0.255   3.893  0.1032  0.4876 -0.0995
 4110TIP3    H212295   6.337   0.152   3.783 -1.3972 -1.3226  1.7209
 4111TIP3   OH212296   0.743   4.272   4.442 -0.1321  0.2226  0.3469
 4111TIP3    H112297   0.802   4.347   4.443 -0.7846  0.7469  0.5724
 4111TIP3    H212298   0.754   4.234   4.355 -0.1278  0.8647  0.0597
 4112TIP3   OH212299   3.003   0.142   1.935 -0.2386 -0.5207 -0.1901
 4112TIP3    H112300   3.098   0.133   1.927 -0.2176  0.1196 -0.7203
 4112TIP3    H212301   2.969   0.105   1.854 -0.3500  0.6482 -0.6933
 4113TIP3   OH212302   3.903   3.521   0.433  0.6345 -0.6409 -0.2950
 4113TIP3    H112303   3.989   3.560   0.415 -0.1271  1.2792  0.0063
 4113TIP3    H212304   3.889   3.459   0.361  1.6072  0.1435 -1.1830
 4114TIP3   OH212305   4.828   0.540   3.366  0.6197 -0.2407 -0.3485
 4114TIP3    H112306   4.868   0.589   3.438 -0.5203 -0.4094  0.4451
 4114TIP3    H212307   4.878   0.564   3.289  0.3851  1.8325  0.0894
 4115TIP3   OH212308   3.444   3.253   5.215 -0.1295  0.1241  0.4918
 4115TIP3    H112309   3.401   3.206   5.144 -0.3038  0.3447  0.4494
 4115TIP3    H212310   3.517   3.197   5.241  0.2754  0.3006 -0.2370
 4116TIP3   OH212311   0.898   4.886   1.718  0.0889  0.3674  0.0599
 4116TIP3    H112312   0.846   4.951   1.672  0.8533  1.4203  0.6356
 4116TIP3    H212313   0.943   4.935   1.787 -1.6627 -1.2673  2.5338
 4117TIP3   OH212314   4.465   3.277   2.820 -0.2255 -0.0785  0.5203
 4117TIP3    H112315   4.482   3.189   2.786  0.5798 -0.7289  2.4048
 4117TIP3    H212316   4.390   3.266   2.878  0.0412  0.3882  0.9696
 4118TIP3   OH212317   2.641   1.637   2.361 -0.3827 -0.6411 -0.0283
 4118TIP3    H112318   2.614   1.600   2.445  0.6173 -0.4825  0.3718
 4118TIP3    H212319   2.734   1.615   2.353  0.2515  1.7512  0.2135
 4119TIP3   OH212320   6.482   6.570   1.306 -0.6593  0.4548 -0.2684
 4119TIP3    H112321   6.400   6.588   1.353 -0.0478 -0.7943  1.3740
 4119TIP3    H212322   6.453   6.535   1.222 -1.8098  0.7909 -0.0361
 4120TIP3   OH212323   6.603   5.688   2.645 -0.3967  0.2263 -0.1666
 4120TIP3    H112324   6.521   5.709   2.599 -2.1654  1.1445  3.1175
 4120TIP3    H212325   6.576   5.666   2.734  2.8202 -1.4778  0.5301
 4121TIP3   OH212326   1.022   1.015   0.347 -0.3580  0.7858 -0.5233
 4121TIP3    H112327   1.082   0.950   0.311  0.2356  0.6795  0.6345
 4121TIP3    H212328   1.005   0.986   0.436 -1.1158  1.5215 -0.4132
 4122TIP3   OH212329   3.522   1.183   0.830  0.0580  0.2767 -0.0515
 4122TIP3    H112330   3.509   1.276   0.850  1.2706  0.5163 -0.2829
 4122TIP3    H212331   3.614   1.176   0.806 -0.5731 -0.5515 -2.5281
 4123TIP3   OH212332   2.692   2.497   3.488  0.1565 -0.1999  0.3443
 4123TIP3    H112333   2.757   2.564   3.508  0.4570 -0.3541 -0.1059
 4123TIP3    H212334   2.650   2.527   3.407 -0.1034 -0.2652  0.4547
 4124TIP3   OH212335   1.543   2.852   0.478 -0.3248  0.3751 -0.4570
 4124TIP3    H112336   1.595   2.827   0.402  0.3873 -1.3353  0.5304
 4124TIP3    H212337   1.552   2.779   0.538 -1.7021  1.2338  0.8696
 4125TIP3   OH212338   1.435   6.083   3.987  0.1620 -0.2175  0.1917
 4125TIP3    H112339   1.361   6.099   4.046  0.6504 -0.8585  0.9960
 4125TIP3    H212340   1.493   6.158   4.001 -0.6626  0.6893 -1.0089
 4126TIP3   OH212341   3.087   3.081   2.379 -0.3827  0.3204  0.3788
 4126TIP3    H112342   3.057   3.068   2.289 -0.8215  0.6864  0.4684
 4126TIP3    H212343   3.166   3.134   2.371 -0.7344  0.8315  0.2382
 4127TIP3   OH212344   0.842   6.703   0.437 -0.7015 -0.4959  0.1042
 4127TIP3    H112345   0.841   6.654   0.355  0.5314 -1.9465  0.9025
 4127TIP3    H212346   0.845   6.635   0.505  2.4609  0.6213  1.2221
 4128TIP3   OH212347   2.610   4.339   1.852  0.2383 -0.8916 -0.0045
 4128TIP3    H112348   2.532   4.334   1.907 -0.3575  0.7366 -0.6347
 4128TIP3    H212349   2.631   4.432   1.848  1.1654 -1.1185 -1.2738
 4129TIP3   OH212350   0.694   0.594   5.160 -0.3908  0.2761  0.2453
 4129TIP3    H112351   0.789   0.594   5.174 -0.2424 -0.8055 -0.6643
 4129TIP3    H212352   0.671   0.502   5.153 -1.5884  0.5160  0.8809
 4130TIP3   OH212353   0.276   0.043   1.908  0.8283  0.6435  0.0797
 4130TIP3    H112354   0.286  -0.022   1.978 -0.0155  1.8149  1.3420
 4130TIP3    H212355   0.190   0.025   1.871  0.8942  0.5955 -0.0505
 4131TIP3   OH212356   0.997   2.634   2.221  0.8519  0.4397  0.1145
 4131TIP3    H112357   0.914   2.608   2.261  1.7829 -0.4926  1.5556
 4131TIP3    H212358   1.064   2.601   2.281  2.3027  0.4101 -1.4319
 4132TIP3   OH212359   1.021   1.511   4.586  0.5575  0.3985  0.6750
 4132TIP3    H112360   1.046   1.425   4.550  1.0391 -0.6649  3.3339
 4132TIP3    H212361   1.012   1.567   4.509 -0.4131 -2.1679 -1.2359
 4133TIP3   OH212362   6.365   2.355   4.041 -0.0230 -0.5153  0.7735
 4133TIP3    H112363   6.354   2.371   3.947 -0.2150  0.1044  0.8923
 4133TIP3    H212364   6.371   2.260   4.049 -2.6186 -0.8067  0.3942
 4134TIP3   OH212365   3.655   1.586   2.956 -0.6319 -0.2010  0.6545
 4134TIP3    H112366   3.577   1.553   2.911 -1.8589  1.0258  1.7522
 4134TIP3    H212367   3.667   1.527   3.030  0.1071 -0.9788 -0.0737
 4135TIP3   OH212368   4.072   4.127   3.398  0.2889  0.2822 -0.8244
 4135TIP3    H112369   4.030   4.194   3.344 -0.7044  1.8872  1.7481
 4135TIP3    H212370   4.003   4.097   3.458  1.0783 -2.1071 -0.9905
 4136TIP3   OH212371   3.590   2.450   4.551 -0.4229  0.1460  0.5037
 4136TIP3    H112372   3.507   2.442   4.598 -0.7241  1.1570  0.1599
 4136TIP3    H212373   3.584   2.534   4.506  0.0085 -0.6076 -1.0462
 4137TIP3   OH212374   3.828   5.544   2.875 -0.1744  0.3596  0.3248
 4137TIP3    H112375   3.823   5.545   2.779  0.6515  0.1585  0.2689
 4137TIP3    H212376   3.850   5.453   2.896 -1.3944  0.1434  0.7821
 4138TIP3   OH212377   4.408   1.538   1.644  0.3701  0.6424  0.8216
 4138TIP3    H112378   4.357   1.569   1.569  0.3715 -0.4184  0.3727
 4138TIP3    H212379   4.365   1.457   1.671  2.3291 -0.7998 -0.1688
 4139TIP3   OH212380   3.135   0.085   1.318  0.0862  0.4036 -0.1527
 4139TIP3    H112381   3.193   0.076   1.242 -0.1806 -0.5003 -0.2673
 4139TIP3    H212382   3.190   0.063   1.392  0.2227  0.8117 -0.1335
 4140TIP3   OH212383   3.300   3.567   2.008 -0.5175  0.0969 -0.3204
 4140TIP3    H112384   3.317   3.636   2.073 -1.5310  0.7339 -0.7033
 4140TIP3    H212385   3.347   3.597   1.930  0.4194 -0.5003 -0.0089
 4141TIP3   OH212386   3.665   4.880   3.635 -0.3190 -0.2986  0.8283
 4141TIP3    H112387   3.686   4.950   3.697  0.6068 -0.6451  0.9117
 4141TIP3    H212388   3.604   4.824   3.684 -2.3097  1.2306  0.2446
 4142TIP3   OH212389   2.819   6.583   1.133  0.6275 -0.5064  0.0333
 4142TIP3    H112390   2.831   6.526   1.209 -1.3724 -0.1436  0.6790
 4142TIP3    H212391   2.822   6.671   1.169 -0.2241 -0.3295 -0.3099
 4143TIP3   OH212392   4.537   2.794   2.467  0.5353 -0.0151  0.3654
 4143TIP3    H112393   4.629   2.803   2.444  0.6080 -2.3010 -0.5230
 4143TIP3    H212394   4.494   2.867   2.422  1.6604 -0.1614 -1.0388
 4144TIP3   OH212395   0.704   5.966   3.004 -0.6741 -0.3453  0.2604
 4144TIP3    H112396   0.741   6.017   2.932  0.6892 -0.8266  0.5987
 4144TIP3    H212397   0.778   5.916   3.039 -1.6925 -1.5621  0.7746
 4145TIP3   OH212398   4.701   4.560   5.549  0.6619 -0.1945 -0.4366
 4145TIP3    H112399   4.768   4.495   5.572  1.8607  0.7360 -1.1482
 4145TIP3    H212400   4.637   4.555   5.620  1.8952 -0.5760  0.6915
 4146TIP3   OH212401   3.348   5.792   5.284 -0.0828 -0.5196 -0.0311
 4146TIP3    H112402   3.435   5.753   5.276 -0.0409 -0.1837 -1.7612
 4146TIP3    H212403   3.292   5.721   5.315  0.7271 -0.8440  0.7144
 4147TIP3   OH212404   6.850   4.470   2.260 -0.2093  0.6215  0.3907
 4147TIP3    H112405   6.920   4.471   2.325 -0.5322 -1.7034  0.8888
 4147TIP3    H212406   6.887   4.419   2.187 -0.4358  1.7768 -0.5577
 4148TIP3   OH212407   3.381   5.785   4.106  0.1179  0.0027  0.1292
 4148TIP3    H112408   3.358   5.694   4.087  0.9218 -0.5163  1.4921
 4148TIP3    H212409   3.335   5.804   4.188  1.2102  0.2863  0.6927
 4149TIP3   OH212410   1.117   3.000   1.966 -0.0528 -0.4602 -0.1065
 4149TIP3    H112411   1.044   3.032   1.912  1.2180  0.6805 -1.2389
 4149TIP3    H212412   1.092   2.911   1.990 -2.5123  0.3641  0.8521
 4150TIP3   OH212413   5.823   1.263   0.779  0.7702  0.4654 -0.3382
 4150TIP3    H112414   5.915   1.255   0.754  0.4266 -1.5655 -1.1149
 4150TIP3    H212415   5.789   1.174   0.775 -0.4268  0.6078  3.1829
 4151TIP3   OH212416   0.370   6.116   5.341 -0.0560 -0.5449  0.0585
 4151TIP3    H112417   0.311   6.187   5.316 -0.5441 -0.5354  1.1894
 4151TIP3    H212418   0.357   6.105   5.435  1.4485 -0.8196  0.2711
 4152TIP3   OH212419   3.377   0.903   3.018 -0.0600 -0.0993  0.8842
 4152TIP3    H112420   3.465   0.869   3.000 -0.5728 -0.6339 -0.7849
 4152TIP3    H212421   3.342   0.844   3.085  0.6024 -0.2914  1.0710
 4153TIP3   OH212422   1.541   2.490   0.192  0.1391  0.2498 -0.5625
 4153TIP3    H112423   1.533   2.477   0.098 -1.9672 -0.8213 -0.3105
 4153TIP3    H212424   1.557   2.402   0.227  1.7865  0.7527  0.0491
 4154TIP3   OH212425   5.445   3.456   1.519 -0.1755  0.1122  0.0019
 4154TIP3    H112426   5.514   3.414   1.468  2.3857  2.1469  1.4970
 4154TIP3    H212427   5.489   3.481   1.601 -2.9478  0.8174  1.3808
 4155TIP3   OH212428   6.627   2.962   4.470  0.1696 -0.3952  0.6668
 4155TIP3    H112429   6.677   3.009   4.404 -0.3769 -0.2217  0.3684
 4155TIP3    H212430   6.544   3.010   4.477 -0.3686 -1.2474  0.4093
 4156TIP3   OH212431   1.762   2.242   4.911  0.3991  0.3448  0.1368
 4156TIP3    H112432   1.676   2.240   4.869 -0.3441  0.9836  1.5316
 4156TIP3    H212433   1.825   2.241   4.839 -0.7367 -1.4676 -0.8969
 4157TIP3   OH212434   4.224   0.266   3.672  0.4223  0.1187  0.0038
 4157TIP3    H112435   4.238   0.236   3.582  1.1932  2.3021 -0.6873
 4157TIP3    H212436   4.133   0.295   3.675  0.0342 -1.0976  0.3156
 4158TIP3   OH212437   2.378   0.106   4.253  0.1563  0.2993 -0.6416
 4158TIP3    H112438   2.383   0.036   4.187 -0.9368 -0.1722 -0.2562
 4158TIP3    H212439   2.367   0.059   4.335  0.1736  0.9215 -0.2838
 4159TIP3   OH212440   4.755   6.202   5.858 -0.6548  0.3805  0.0708
 4159TIP3    H112441   4.795   6.116   5.868  2.1156  1.5182 -0.2321
 4159TIP3    H212442   4.674   6.186   5.809 -0.9120 -2.1410  1.1679
 4160TIP3   OH212443   6.755   1.726   4.598  0.0871  0.7792  0.3609
 4160TIP3    H112444   6.667   1.757   4.616 -0.0030  1.0791 -0.5745
 4160TIP3    H212445   6.760   1.720   4.503  1.2967  1.4302  0.3646
 4161TIP3   OH212446   6.897   6.041   2.285  0.0910 -0.1922 -0.6500
 4161TIP3    H112447   6.836   5.981   2.329 -0.9455  1.0873 -0.2811
 4161TIP3    H212448   6.930   5.990   2.211  0.7284 -1.8695  0.7127
 4162TIP3   OH212449   0.968   3.013   1.077  0.5919 -0.4185 -0.0782
 4162TIP3    H112450   0.882   2.985   1.046  1.2451 -3.3707  0.5089
 4162TIP3    H212451   0.991   2.951   1.146  2.4482  1.3943  1.0643
 4163TIP3   OH212452   5.927   0.775   5.619 -0.0466  0.0934 -0.3582
 4163TIP3    H112453   5.955   0.800   5.707 -1.4101  0.9977 -0.1496
 4163TIP3    H212454   5.923   0.857   5.571 -0.5032 -0.2437 -0.9047
 4164TIP3   OH212455   0.351   3.442   0.317  0.5596 -0.4059  0.0544
 4164TIP3    H112456   0.441   3.468   0.337 -0.0614  0.3757  2.1166
 4164TIP3    H212457   0.359   3.351   0.288  1.9956 -0.4403  0.4475
 4165TIP3   OH212458   0.389   2.932   5.556 -0.0661  0.0429 -0.3083
 4165TIP3    H112459   0.456   2.895   5.498 -0.8120  0.5496 -1.5132
 4165TIP3    H212460   0.323   2.863   5.563 -0.1964  0.1523 -0.4437
 4166TIP3   OH212461   4.508   0.279   4.111  0.2664  0.1234 -0.1199
 4166TIP3    H112462   4.566   0.353   4.091 -0.8344  0.8674 -0.6418
 4166TIP3    H212463   4.567   0.204   4.116  1.6867  1.2842  2.2643
 4167TIP3   OH212464   2.265   1.363   0.047 -0.3873  0.2275 -0.1848
 4167TIP3    H112465   2.329   1.293   0.061 -1.0181 -0.4953 -0.8076
 4167TIP3    H212466   2.255   1.367  -0.048 -0.1606  1.3735 -0.1851
 4168TIP3   OH212467   1.596   4.558   5.296  0.5722 -0.0180  0.2581
 4168TIP3    H112468   1.636   4.637   5.261 -1.2997  1.8514  2.0385
 4168TIP3    H212469   1.644   4.540   5.376  1.5799 -1.2782 -0.5970
 4169TIP3   OH212470   5.870   2.395   4.245  0.5186  0.1215 -0.6634
 4169TIP3    H112471   5.952   2.444   4.244  0.8456 -0.4260 -0.7042
 4169TIP3    H212472   5.879   2.333   4.317  0.8936 -1.1920 -1.7917
 4170TIP3   OH212473   0.345   0.773   1.741 -0.2226 -0.3384 -0.2280
 4170TIP3    H112474   0.434   0.751   1.767  0.1960 -1.0088 -2.0266
 4170TIP3    H212475   0.355   0.847   1.680 -1.1585  1.2973  1.4756
 4171TIP3   OH212476   5.596   4.495   3.499 -0.3670  0.4065  0.0958
 4171TIP3    H112477   5.519   4.542   3.467  0.0031 -0.1264 -1.6738
 4171TIP3    H212478   5.563   4.408   3.523 -0.3451  0.2235 -0.5319
 4172TIP3   OH212479   4.604   3.981   0.095 -0.4810  0.0093 -0.1175
 4172TIP3    H112480   4.570   4.070   0.087 -2.7008 -0.8348 -0.8970
 4172TIP3    H212481   4.539   3.935   0.148  1.2465 -0.9082  1.3507
 4173TIP3   OH212482   3.137   5.619   3.394 -0.1917  0.3772  0.2173
 4173TIP3    H112483   3.110   5.544   3.341 -0.9489  1.0470 -0.3843
 4173TIP3    H212484   3.061   5.636   3.450 -0.1140  0.8206  0.1910
 4174TIP3   OH212485   5.963   3.983   4.154  0.3389  0.1750  0.4219
 4174TIP3    H112486   5.927   3.991   4.066  0.8681 -3.7277 -0.3725
 4174TIP3    H212487   6.058   3.993   4.142  0.2618  1.6400  0.9375
 4175TIP3   OH212488   5.653   2.503   0.874 -0.6781  0.0070  0.6869
 4175TIP3    H112489   5.663   2.500   0.969  2.0103 -0.2629  0.4722
 4175TIP3    H212490   5.625   2.415   0.850 -0.3646 -0.2233  1.1455
 4176TIP3   OH212491   5.970   0.862   0.264  0.3983  0.5223 -0.2180
 4176TIP3    H112492   5.985   0.916   0.341  0.4162  1.0374 -0.5766
 4176TIP3    H212493   6.056   0.855   0.222  0.2048  1.0630 -0.7178
 4177TIP3   OH212494   2.561   0.873   1.991  0.4994  0.2082 -0.0438
 4177TIP3    H112495   2.626   0.891   1.923 -1.1744 -1.3342 -2.2167
 4177TIP3    H212496   2.533   0.960   2.021  2.2922  0.9045 -0.2552
 4178TIP3   OH212497   0.616   6.243   4.243 -0.0781  0.1046  0.8308
 4178TIP3    H112498   0.619   6.337   4.261 -1.9700  0.4805 -0.5588
 4178TIP3    H212499   0.589   6.204   4.326 -0.8163  0.9722  1.0212
 4179TIP3   OH212500   0.921   5.683   3.365 -0.0792 -0.3008 -0.3040
 4179TIP3    H112501   0.913   5.588   3.375  0.1873 -0.4587 -1.4956
 4179TIP3    H212502   0.874   5.718   3.441  0.7139 -1.3845  0.7284
 4180TIP3   OH212503   4.773   3.514   4.691  0.1207  0.2779  0.3920
 4180TIP3    H112504   4.811   3.478   4.771  1.3595 -0.2189 -0.3774
 4180TIP3    H212505   4.820   3.468   4.620 -2.2187 -0.6868 -0.6484
 4181TIP3   OH212506   1.071   2.886   2.860  0.0520  0.5103 -0.1289
 4181TIP3    H112507   1.076   2.914   2.769  0.7300  0.1644 -0.2047
 4181TIP3    H212508   1.093   2.793   2.857 -0.2800  0.4129  0.3478
 4182TIP3   OH212509   6.711   2.885   2.664 -0.2272 -0.5986  0.6066
 4182TIP3    H112510   6.728   2.922   2.578 -1.2194  0.5433  0.8770
 4182TIP3    H212511   6.785   2.827   2.680  0.5062 -0.0221 -0.5574
 4183TIP3   OH212512   5.525   4.802   3.598  0.1598 -0.0049  0.2093
 4183TIP3    H112513   5.457   4.738   3.575 -1.9574  2.3446 -0.5659
 4183TIP3    H212514   5.593   4.790   3.532  0.3939 -2.1975  0.7900
 4184TIP3   OH212515   6.357   3.254   4.263  0.4472  0.3450  0.3504
 4184TIP3    H112516   6.290   3.322   4.252  1.0717  0.8449 -0.5518
 4184TIP3    H212517   6.407   3.282   4.340  1.2383  1.4245 -0.5013
 4185TIP3   OH212518   2.982   1.064   4.202  0.1411 -0.2381 -0.3195
 4185TIP3    H112519   2.942   1.138   4.248 -1.4311 -1.2724  0.0310
 4185TIP3    H212520   3.058   1.041   4.256  1.8414  2.3011 -1.4653
 4186TIP3   OH212521   0.309   2.832   1.978 -0.0505 -0.2073 -0.5506
 4186TIP3    H112522   0.375   2.829   1.908 -0.2685  0.4504 -0.7894
 4186TIP3    H212523   0.235   2.877   1.938 -0.3155 -0.1600 -0.0054
 4187TIP3   OH212524   2.371   4.617   4.221 -0.0031  0.3720 -0.5435
 4187TIP3    H112525   2.359   4.529   4.183 -1.2726  0.9973 -1.6603
 4187TIP3    H212526   2.385   4.601   4.314 -1.1265 -0.9797 -0.5745
 4188TIP3   OH212527   6.375   5.177   4.138  0.2501 -0.1275 -0.3896
 4188TIP3    H112528   6.331   5.114   4.080 -0.1579  0.1728 -0.4157
 4188TIP3    H212529   6.306   5.241   4.159  0.1133 -0.7498  1.1929
 4189TIP3   OH212530   5.609   4.511   0.898 -0.3565  0.0500  0.1888
 4189TIP3    H112531   5.530   4.559   0.871 -0.4974 -1.0417 -1.4915
 4189TIP3    H212532   5.593   4.421   0.870  1.3996 -0.2271  0.0080
 4190TIP3   OH212533   0.608   4.704   1.483 -0.0222 -0.0265  0.2944
 4190TIP3    H112534   0.539   4.757   1.523 -0.3060 -0.2488  0.1023
 4190TIP3    H212535   0.654   4.665   1.557 -0.1379  0.0811  0.4229
 4191TIP3   OH212536   4.524   5.815   4.317  0.3936  0.0929 -0.1040
 4191TIP3    H112537   4.468   5.737   4.320  0.0135  0.3218 -0.9650
 4191TIP3    H212538   4.521   5.843   4.226 -0.1760  1.6183  0.3569
 4192TIP3   OH212539   1.984   2.937   2.072  0.0998  0.2303 -0.5402
 4192TIP3    H112540   1.938   3.017   2.047 -0.2076 -0.0516 -0.8869
 4192TIP3    H212541   2.037   2.962   2.148 -1.3638  0.3244  0.4926
 4193TIP3   OH212542   2.437   4.563   4.493  0.4506 -0.6075  0.2120
 4193TIP3    H112543   2.496   4.564   4.568  1.7861  0.1650 -0.8215
 4193TIP3    H212544   2.355   4.600   4.527  1.3750  0.7569  1.0342
 4194TIP3   OH212545   1.729   4.739   0.468 -0.1924 -0.3593 -0.4731
 4194TIP3    H112546   1.637   4.756   0.447  0.1518  0.3985 -1.4675
 4194TIP3    H212547   1.759   4.820   0.509 -0.0074 -0.6682  0.0084
 4195TIP3   OH212548   5.004   4.180   1.338  0.2918  0.2171 -0.3695
 4195TIP3    H112549   4.964   4.095   1.352  0.2412  0.1563 -0.8684
 4195TIP3    H212550   5.065   4.191   1.411  1.1843 -0.7705 -0.9406
 4196TIP3   OH212551   1.221   5.333   3.639  0.5740 -0.3970 -0.1926
 4196TIP3    H112552   1.264   5.380   3.710 -0.7587  1.3313 -0.4632
 4196TIP3    H212553   1.280   5.342   3.564  1.0701 -0.5664  0.1697
 4197TIP3   OH212554   6.175   1.440   0.604  0.4156 -0.1789  0.0519
 4197TIP3    H112555   6.210   1.528   0.592 -0.9521  0.3345 -0.3026
 4197TIP3    H212556   6.081   1.450   0.595  0.1279 -1.4752  1.2995
 4198TIP3   OH212557   7.087   2.070   2.095  0.1606 -0.0662 -0.1025
 4198TIP3    H112558   7.138   2.149   2.076  1.8315 -1.4880 -1.9371
 4198TIP3    H212559   7.072   2.073   2.189  2.4460  1.1455  0.2920
 4199TIP3   OH212560   2.792   3.509   3.222  0.2740 -0.0663  0.1856
 4199TIP3    H112561   2.714   3.565   3.224  0.4305  0.1444  0.6061
 4199TIP3    H212562   2.834   3.524   3.307 -1.2336 -2.9947  1.6564
 4200TIP3   OH212563   5.745   5.449   0.278 -0.6641  0.8970 -0.1331
 4200TIP3    H112564   5.750   5.397   0.358 -0.7399 -1.3654 -1.5252
 4200TIP3    H212565   5.782   5.534   0.303  1.7496 -0.5490  1.6547
 4201TIP3   OH212566   1.793   2.778   0.778  1.1060 -0.4448  0.0426
 4201TIP3    H112567   1.698   2.790   0.777  0.9689 -0.6362 -3.4807
 4201TIP3    H212568   1.827   2.852   0.828 -0.8091  0.9143 -0.5651
 4202TIP3   OH212569   2.379   2.733   4.873  0.5658  0.0687 -0.4244
 4202TIP3    H112570   2.325   2.699   4.801 -0.1586  1.2042 -0.4443
 4202TIP3    H212571   2.468   2.706   4.852  0.2326 -0.3945 -1.2728
 4203TIP3   OH212572   0.268   1.865   3.728  0.0982  0.7445  0.3457
 4203TIP3    H112573   0.182   1.848   3.690 -0.0136  0.5481  0.6832
 4203TIP3    H212574   0.261   1.952   3.767  0.3377  1.1211 -0.4321
 4204TIP3   OH212575   7.094   6.015   1.208  0.1360  0.3615 -0.6778
 4204TIP3    H112576   7.064   6.096   1.251  1.0367  0.9586 -1.1346
 4204TIP3    H212577   7.184   6.005   1.238 -0.1557 -0.8176 -0.1609
 4205TIP3   OH212578   4.318   5.925   2.699  0.1963  0.1611 -0.4235
 4205TIP3    H112579   4.406   5.963   2.707  1.0890 -1.6830 -0.9777
 4205TIP3    H212580   4.281   5.934   2.787  1.6517 -0.6278  0.3120
 4206TIP3   OH212581   1.152   6.207   0.645  0.3122 -0.0886  0.4396
 4206TIP3    H112582   1.157   6.227   0.551  1.4426 -1.5601  0.1566
 4206TIP3    H212583   1.243   6.195   0.672 -0.1456 -4.0473  0.6984
 4207TIP3   OH212584   0.837   3.897   3.797 -0.4944  0.7245  0.1102
 4207TIP3    H112585   0.784   3.883   3.718  0.0424 -0.3439 -0.0839
 4207TIP3    H212586   0.824   3.818   3.849  0.4718  0.6798  0.3039
 4208TIP3   OH212587   4.311   3.421   3.260  0.7017 -0.0240 -0.1324
 4208TIP3    H112588   4.238   3.420   3.198  0.5638 -1.1497  0.0351
 4208TIP3    H212589   4.371   3.353   3.229  1.4127  0.4963  0.0637
 4209TIP3   OH212590   4.982   4.229   3.690 -0.3630  0.1688 -0.4214
 4209TIP3    H112591   4.984   4.206   3.597  1.2922  0.0571 -0.3988
 4209TIP3    H212592   5.052   4.294   3.699 -1.2574  1.0227  0.5505
 4210TIP3   OH212593   2.825   6.005   4.198  0.0317 -0.1400 -0.5408
 4210TIP3    H112594   2.753   6.031   4.256  0.5103 -0.2649  0.1259
 4210TIP3    H212595   2.860   5.925   4.237 -0.7810 -1.2606 -2.0128
 4211TIP3   OH212596   1.360   5.604   2.827 -0.1728  0.4366  0.2785
 4211TIP3    H112597   1.266   5.602   2.845  0.1021 -0.2467  1.8378
 4211TIP3    H212598   1.367   5.644   2.740 -1.9996 -1.1067 -0.6647
 4212TIP3   OH212599   6.797   3.272   2.613 -0.6741 -0.2695  0.0417
 4212TIP3    H112600   6.812   3.365   2.630 -0.4100 -0.4346  0.7426
 4212TIP3    H212601   6.838   3.227   2.687 -2.0319 -0.8795  0.4634
 4213TIP3   OH212602   1.754   4.039   5.748  0.5131  0.6086 -0.1463
 4213TIP3    H112603   1.702   4.042   5.828  0.8065 -1.9300  0.2497
 4213TIP3    H212604   1.844   4.031   5.778  0.4616 -3.7822 -0.4015
 4214TIP3   OH212605   4.630   1.893   3.130  0.2273 -0.5067  0.3717
 4214TIP3    H112606   4.657   1.822   3.072  1.7023 -0.9242  1.5076
 4214TIP3    H212607   4.669   1.871   3.214 -0.2648  1.0673  1.0434
 4215TIP3   OH212608   0.636   5.408   2.281 -0.5793  0.7122 -0.2254
 4215TIP3    H112609   0.667   5.319   2.297  1.9519  1.9132  2.4273
 4215TIP3    H212610   0.541   5.402   2.285 -0.5151 -1.9889 -1.1195
 4216TIP3   OH212611   4.193   4.433   1.872 -0.5600  0.0689  0.5529
 4216TIP3    H112612   4.203   4.433   1.967 -2.6697 -2.1573  0.8794
 4216TIP3    H212613   4.251   4.364   1.841  0.7947  1.3780  0.0655
 4217TIP3   OH212614   6.053   5.143   3.316  0.3790 -0.1241 -0.1460
 4217TIP3    H112615   6.030   5.122   3.225  1.1423 -0.3533 -0.2950
 4217TIP3    H212616   5.986   5.100   3.368 -0.8175  1.0876 -0.6383
 4218TIP3   OH212617   3.366   2.744   3.750 -0.5183 -0.3464  0.4871
 4218TIP3    H112618   3.280   2.730   3.710  0.0808  0.1588 -1.0492
 4218TIP3    H212619   3.368   2.838   3.768  0.1574 -0.1115 -0.6622
 4219TIP3   OH212620   0.083   5.858   5.609  0.0983 -0.0905  0.0713
 4219TIP3    H112621   0.023   5.856   5.534 -0.6248 -2.3812  0.6114
 4219TIP3    H212622   0.036   5.908   5.675  0.2318  0.9436 -0.6040
 4220TIP3   OH212623   3.575   4.785   2.128  0.3129 -0.3754  0.2301
 4220TIP3    H112624   3.604   4.694   2.130  1.2032 -0.1281 -0.7175
 4220TIP3    H212625   3.643   4.834   2.175 -0.4768 -0.2551  1.3034
 4221TIP3   OH212626   4.793   0.574   2.060 -0.6641 -0.2207 -0.6186
 4221TIP3    H112627   4.768   0.557   1.969 -0.5004 -2.5925 -0.2704
 4221TIP3    H212628   4.738   0.648   2.086 -1.4383 -0.1359 -2.3292
 4222TIP3   OH212629   1.399   2.213   5.226 -0.4101  0.8283 -0.4634
 4222TIP3    H112630   1.314   2.199   5.268  0.5079 -1.2256  0.8826
 4222TIP3    H212631   1.461   2.218   5.299  0.9694 -0.5973 -1.4830
 4223TIP3   OH212632   5.194   4.517   4.482 -0.3569 -0.5349  0.0470
 4223TIP3    H112633   5.136   4.567   4.424 -0.0153 -0.3743 -0.1601
 4223TIP3    H212634   5.268   4.576   4.498 -0.2703 -0.7246  0.3394
 4224TIP3   OH212635   5.773   1.357   1.023 -0.3442 -0.3094 -0.3733
 4224TIP3    H112636   5.808   1.446   1.023 -1.7426  0.3110  1.6216
 4224TIP3    H212637   5.779   1.329   0.931  3.1136  0.5384 -0.5571
 4225TIP3   OH212638   3.448   0.741   4.706  0.2561  0.0180 -0.3277
 4225TIP3    H112639   3.440   0.753   4.801  0.3245  1.8041 -0.5024
 4225TIP3    H212640   3.539   0.716   4.693  0.4447  0.4887  0.0363
 4226TIP3   OH212641   2.059   1.690   2.953 -0.1249  0.4924  0.0564
 4226TIP3    H112642   2.122   1.761   2.945  0.3389 -0.0045 -0.7176
 4226TIP3    H212643   2.077   1.632   2.880 -1.0697  0.0141  0.1813
 4227TIP3   OH212644   4.744   2.918   4.438 -0.8429 -0.0874  0.2553
 4227TIP3    H112645   4.713   2.996   4.484  0.2577  0.2086  0.5337
 4227TIP3    H212646   4.676   2.899   4.374 -0.4436  2.0138 -0.8670
 4228TIP3   OH212647   4.114   4.332   4.632 -0.6508 -0.7979  0.1703
 4228TIP3    H112648   4.154   4.245   4.625 -0.2083 -0.5734 -0.1035
 4228TIP3    H212649   4.056   4.338   4.556  0.9569 -0.0196 -1.0679
 4229TIP3   OH212650   5.787   1.914   5.540  0.4254  0.1142  0.7281
 4229TIP3    H112651   5.748   1.895   5.626 -3.0339  1.6091 -0.3309
 4229TIP3    H212652   5.792   2.010   5.538 -0.8767  0.1856 -1.1970
 4230TIP3   OH212653   3.284   6.058   5.733 -0.2663  0.6868 -0.3317
 4230TIP3    H112654   3.241   5.981   5.696  0.8841 -0.8471  1.3685
 4230TIP3    H212655   3.368   6.025   5.765 -0.4355  2.2907  1.9533
 4231TIP3   OH212656   7.123   0.927   1.063  0.3923 -0.0373  0.1731
 4231TIP3    H112657   7.147   0.922   1.155 -1.8160  0.7580  0.8371
 4231TIP3    H212658   7.078   1.011   1.054 -0.1923 -0.4807 -1.4448
 4232TIP3   OH212659   6.747   5.559   4.244 -0.8067 -0.6264 -0.4099
 4232TIP3    H112660   6.834   5.519   4.254 -0.6361 -0.0100  0.6661
 4232TIP3    H212661   6.702   5.501   4.182  1.0550  0.1598 -2.6718
 4233TIP3   OH212662   4.897   5.895   2.927  0.6452 -0.0106 -0.1879
 4233TIP3    H112663   4.913   5.801   2.936 -0.4773 -0.3528 -1.3576
 4233TIP3    H212664   4.802   5.902   2.916  0.6804  1.2929  0.1570
 4234TIP3   OH212665   2.989   0.234   3.899  0.1484 -0.3391  0.1729
 4234TIP3    H112666   2.977   0.294   3.972 -1.1848 -1.7050  1.1481
 4234TIP3    H212667   2.922   0.259   3.836  0.1117 -0.3106  0.2235
 4235TIP3   OH212668   1.536   4.168   4.490 -0.1438  0.3757  0.6103
 4235TIP3    H112669   1.529   4.148   4.396  0.2453  0.0643  0.6445
 4235TIP3    H212670   1.551   4.262   4.493 -1.7250  0.6550  0.4372
 4236TIP3   OH212671   5.695   2.854   0.041 -0.6833 -0.0749  0.0304
 4236TIP3    H112672   5.696   2.879  -0.052 -1.3820  2.8759  0.7171
 4236TIP3    H212673   5.609   2.814   0.054 -0.8698  0.1551 -0.4511
 4237TIP3   OH212674   5.409   6.173   0.949 -0.2161  0.3767 -0.0160
 4237TIP3    H112675   5.454   6.089   0.939 -1.3972 -0.1350 -1.3888
 4237TIP3    H212676   5.480   6.238   0.947  0.6557 -0.5344  0.3284
 4238TIP3   OH212677   3.223   5.129   3.971 -0.8496 -0.4013 -0.0455
 4238TIP3    H112678   3.216   5.168   4.058  0.5543  0.2200 -0.1984
 4238TIP3    H212679   3.145   5.160   3.924  0.0907  2.0849 -0.1018
 4239TIP3   OH212680   2.160   0.292   2.516  0.9493  0.5346 -0.2855
 4239TIP3    H112681   2.180   0.276   2.608  1.3912 -0.6578 -0.5687
 4239TIP3    H212682   2.169   0.207   2.474  0.0316  0.9108 -1.3153
 4240TIP3   OH212683   6.926   6.372   3.319 -0.9443 -0.2865  0.8951
 4240TIP3    H112684   6.964   6.391   3.233 -3.3136 -2.1960 -0.7100
 4240TIP3    H212685   6.859   6.439   3.331 -1.4570 -0.7436  0.6387
 4241TIP3   OH212686   5.930   5.129   2.393 -0.3403  0.3750  0.6239
 4241TIP3    H112687   5.897   5.208   2.351  0.6096  0.6674  0.3898
 4241TIP3    H212688   5.903   5.058   2.334  0.4974  0.7294 -0.2268
 4242TIP3   OH212689   2.701   4.353   3.864  0.4041  0.1976 -0.0101
 4242TIP3    H112690   2.739   4.403   3.937  0.3949  0.3611 -0.1174
 4242TIP3    H212691   2.615   4.392   3.851 -0.2852 -0.9090  0.9872
 4243TIP3   OH212692   0.207   6.752   1.151  0.3811  0.2189  0.5141
 4243TIP3    H112693   0.301   6.754   1.134  0.2661 -1.5209 -0.6600
 4243TIP3    H212694   0.184   6.660   1.141 -1.6252  0.7623 -0.2824
 4244TIP3   OH212695   4.896   0.139   1.372  0.0998 -0.2066 -0.2032
 4244TIP3    H112696   4.978   0.125   1.418  0.2778 -0.5653 -0.6225
 4244TIP3    H212697   4.858   0.051   1.362 -0.5542  0.0010  0.3916
 4245TIP3   OH212698   0.843   1.815   0.325  0.1723 -0.5593  0.3631
 4245TIP3    H112699   0.817   1.755   0.395  0.0290 -0.3199  0.5158
 4245TIP3    H212700   0.937   1.827   0.338  0.2111 -0.7885  0.3017
 4246TIP3   OH212701   3.054   2.769   2.348 -0.1689 -0.4032  0.4187
 4246TIP3    H112702   3.083   2.801   2.434  1.6077  0.2299 -0.3776
 4246TIP3    H212703   2.967   2.734   2.364 -0.3662  0.7875  2.2507
 4247TIP3   OH212704   1.980   3.347   2.408 -0.0744  0.7968  0.0438
 4247TIP3    H112705   1.919   3.415   2.381 -0.1404  1.8332  2.5226
 4247TIP3    H212706   2.030   3.326   2.329 -2.0211  1.5809 -1.4863
 4248TIP3   OH212707   2.663   2.052   3.387  0.2033 -0.2724 -0.2941
 4248TIP3    H112708   2.609   1.976   3.410 -1.3213  0.9973  0.5410
 4248TIP3    H212709   2.655   2.110   3.462  0.1874  1.3183 -1.4806
 4249TIP3   OH212710   1.082   3.541   4.611  0.2171 -0.1904 -0.9092
 4249TIP3    H112711   1.059   3.487   4.535 -0.8460 -1.2187  0.1180
 4249TIP3    H212712   1.047   3.494   4.686  0.4607  1.2634  0.1589
 4250TIP3   OH212713   3.176   1.608   1.213 -0.5552 -0.3344 -0.6817
 4250TIP3    H112714   3.182   1.597   1.308 -0.5434 -0.1503 -0.6606
 4250TIP3    H212715   3.264   1.588   1.181 -0.2987  0.5414 -0.5558
 4251TIP3   OH212716   0.780   3.815   2.676  0.6430 -0.6203  0.7275
 4251TIP3    H112717   0.770   3.735   2.624  0.3218 -0.0953 -0.0454
 4251TIP3    H212718   0.701   3.819   2.730 -0.8651  0.7097 -1.4284
 4252TIP3   OH212719   4.677   3.527   2.626 -0.0185 -0.1775 -0.1156
 4252TIP3    H112720   4.608   3.463   2.611 -0.2041 -0.6230  2.3113
 4252TIP3    H212721   4.681   3.577   2.544 -1.5317 -1.6821 -1.1828
 4253TIP3   OH212722   2.115   5.812   4.104  0.1147 -0.1520 -0.4234
 4253TIP3    H112723   2.117   5.716   4.094  0.5458 -0.2242  0.2767
 4253TIP3    H212724   2.138   5.826   4.196 -1.5640  0.5492 -0.0798
 4254TIP3   OH212725   0.128   6.176   1.252  0.8586 -0.2432 -0.1565
 4254TIP3    H112726   0.137   6.127   1.333 -2.2316  0.4733  0.7763
 4254TIP3    H212727   0.152   6.114   1.183  3.2389 -0.9564  1.2219
 4255TIP3   OH212728   2.865   5.329   0.651 -0.3754 -0.3662 -0.0016
 4255TIP3    H112729   2.933   5.313   0.717 -1.1882 -0.9284  0.7295
 4255TIP3    H212730   2.787   5.352   0.702 -0.9731 -0.6337 -0.7764
 4256TIP3   OH212731   4.715   2.738   3.992  0.3365 -0.2591 -0.2451
 4256TIP3    H112732   4.752   2.817   4.032  0.4352 -0.2953 -0.2643
 4256TIP3    H212733   4.758   2.665   4.037  1.0767 -0.3030 -0.9827
 4257TIP3   OH212734   5.895   1.126   2.455 -0.1604  0.2352  0.1836
 4257TIP3    H112735   5.901   1.033   2.476  0.1568  0.1650 -0.2034
 4257TIP3    H212736   5.801   1.145   2.457 -0.1565  0.2219  1.5709
 4258TIP3   OH212737   6.377   2.550   1.016  0.1202 -0.3999  0.0936
 4258TIP3    H112738   6.378   2.528   1.109 -1.8301 -0.8305  0.0635
 4258TIP3    H212739   6.460   2.519   0.982 -0.0492 -2.2704  1.2654
 4259TIP3   OH212740   5.388   0.909   2.787  0.2145  0.4274  0.0660
 4259TIP3    H112741   5.379   0.977   2.853  0.3111  0.7782 -0.2757
 4259TIP3    H212742   5.306   0.911   2.739 -0.2349 -0.4767  0.7733
 4260TIP3   OH212743   5.739   5.282   1.795 -0.1467  0.3607  0.3000
 4260TIP3    H112744   5.827   5.285   1.832 -0.3518  1.5410  0.7367
 4260TIP3    H212745   5.739   5.350   1.727 -0.2899 -0.6349 -0.7338
 4261TIP3   OH212746   1.943   3.673   3.658 -0.4643  0.9198 -0.2104
 4261TIP3    H112747   1.859   3.638   3.629  0.4443 -2.1084  0.4081
 4261TIP3    H212748   1.992   3.688   3.577 -0.0195 -1.8667 -0.5720
 4262TIP3   OH212749   3.838   0.891   1.677 -0.1320 -0.3197  0.4509
 4262TIP3    H112750   3.881   0.806   1.676 -0.9144 -0.7243 -0.3651
 4262TIP3    H212751   3.782   0.891   1.600 -1.5175  0.2091  1.3986
 4263TIP3   OH212752   0.034   5.115   2.402 -0.0406 -0.1741  0.0130
 4263TIP3    H112753   0.105   5.127   2.339 -0.2292 -0.2813 -0.2262
 4263TIP3    H212754   0.066   5.048   2.462 -0.0165 -0.3669 -0.2126
 4264TIP3   OH212755   6.821   1.265   2.773  1.2224 -0.4341 -0.0356
 4264TIP3    H112756   6.823   1.178   2.813  1.7858 -0.3169  0.1957
 4264TIP3    H212757   6.728   1.284   2.763  1.0830 -1.3680 -0.7512
 4265TIP3   OH212758   1.523   6.500   3.552  0.1106 -0.2517  0.3770
 4265TIP3    H112759   1.614   6.530   3.548  0.0722 -0.2775 -1.2244
 4265TIP3    H212760   1.530   6.405   3.565  0.4688 -0.8575 -3.2505
 4266TIP3   OH212761   3.483   3.803   3.446 -0.1686 -0.4455 -0.2763
 4266TIP3    H112762   3.476   3.896   3.425  1.4510  0.1343  1.4309
 4266TIP3    H212763   3.439   3.794   3.531  0.3355 -1.0515 -0.0677
 4267TIP3   OH212764   5.810   2.203   1.492 -0.0349 -0.0627 -0.6721
 4267TIP3    H112765   5.807   2.295   1.468 -0.8675 -0.4258 -2.0520
 4267TIP3    H212766   5.816   2.156   1.409 -2.2146 -1.3437 -0.2036
 4268TIP3   OH212767   1.611   2.839   4.445 -0.8493 -0.8741 -0.0285
 4268TIP3    H112768   1.546   2.792   4.393  0.7706 -2.7633 -0.4747
 4268TIP3    H212769   1.651   2.772   4.500  0.4263  0.3159  0.5578
 4269TIP3   OH212770   0.878   2.519   0.279  0.2674 -0.0277  0.6840
 4269TIP3    H112771   0.882   2.585   0.348  2.0703 -1.0346  1.6376
 4269TIP3    H212772   0.921   2.560   0.204  0.3073  0.2939  0.8802
 4270TIP3   OH212773   2.928   0.152   0.943 -0.6937 -0.2549  0.2437
 4270TIP3    H112774   2.860   0.194   0.890 -1.1092 -0.5026  0.5776
 4270TIP3    H212775   2.927   0.061   0.916  0.0712 -0.1080 -0.3319
 4271TIP3   OH212776   3.152   2.627   3.608 -0.3916 -0.3449 -0.2373
 4271TIP3    H112777   3.079   2.570   3.633 -0.6642 -0.1020 -0.4661
 4271TIP3    H212778   3.224   2.567   3.590 -1.0495 -0.7295 -1.7653
 4272TIP3   OH212779   3.088   0.462   1.061 -0.1556 -0.4320 -0.2309
 4272TIP3    H112780   3.049   0.383   1.098 -1.3596  0.7433  1.1088
 4272TIP3    H212781   3.020   0.529   1.067  1.8033  1.5977  1.7916
 4273TIP3   OH212782   1.084   6.755   4.228  0.6046 -0.3120 -0.2856
 4273TIP3    H112783   1.002   6.804   4.238  1.0955  0.1476  2.5550
 4273TIP3    H212784   1.125   6.792   4.151 -0.8219  1.0662 -0.4466
 4274TIP3   OH212785   1.566   2.642   4.089  0.2926  0.0550  0.1449
 4274TIP3    H112786   1.637   2.584   4.063  0.0528  0.3218 -1.1725
 4274TIP3    H212787   1.490   2.611   4.040 -0.3850  0.0947  1.1416
 4275TIP3   OH212788   4.861   6.441   2.336  0.0385 -0.1713 -0.0200
 4275TIP3    H112789   4.830   6.351   2.345 -0.4039  0.0966  1.4887
 4275TIP3    H212790   4.854   6.459   2.242 -0.8049 -1.3820 -0.2215
 4276TIP3   OH212791   2.536   3.292   0.082 -0.0073 -1.4527 -0.7613
 4276TIP3    H112792   2.520   3.289   0.176 -1.5902  0.9901 -0.8732
 4276TIP3    H212793   2.574   3.379   0.067  2.3237 -2.6078 -2.1507
 4277TIP3   OH212794   4.323   5.508   3.225 -0.6614 -0.4467 -0.1621
 4277TIP3    H112795   4.305   5.476   3.137 -0.4285 -1.8606  0.2892
 4277TIP3    H212796   4.326   5.430   3.280 -0.4306  0.3748  1.0477
 4278TIP3   OH212797   0.262   5.553   4.253 -0.5293 -0.0151  0.2259
 4278TIP3    H112798   0.260   5.466   4.212 -1.2245  0.8825 -1.7600
 4278TIP3    H212799   0.170   5.580   4.256 -0.2678  0.8767  0.3389
 4279TIP3   OH212800   3.289   5.301   0.157  0.0533  0.3369 -0.1753
 4279TIP3    H112801   3.378   5.317   0.186  0.0984  1.2228 -0.7660
 4279TIP3    H212802   3.297   5.278   0.064 -0.2093 -1.1549  0.1327
 4280TIP3   OH212803   0.332   6.371   3.301  0.3386  0.0868 -1.0614
 4280TIP3    H112804   0.405   6.355   3.240 -0.7212 -0.2848 -2.2689
 4280TIP3    H212805   0.270   6.301   3.282 -0.7488  0.9360 -0.7125
 4281TIP3   OH212806   4.628   3.085   3.229 -0.4199 -0.4138  0.0654
 4281TIP3    H112807   4.533   3.076   3.231 -0.5624  0.6281  2.9079
 4281TIP3    H212808   4.660   2.996   3.213 -1.8588 -0.9692  0.1429
 4282TIP3   OH212809   2.447   2.933   3.922 -0.1574  0.0976 -0.5734
 4282TIP3    H112810   2.370   2.883   3.894 -0.3476 -0.3335  0.6434
 4282TIP3    H212811   2.511   2.920   3.852 -0.9226 -0.1739 -1.2401
 4283TIP3   OH212812   2.552   0.135   4.563  0.1852 -0.2646 -0.0293
 4283TIP3    H112813   2.519   0.053   4.598 -1.6212 -0.0027 -1.0212
 4283TIP3    H212814   2.634   0.111   4.519 -0.0359 -1.4169  0.1663
 4284TIP3   OH212815   2.787   0.373   1.418 -0.5802  0.1951 -0.3370
 4284TIP3    H112816   2.712   0.332   1.374 -1.4244  0.8814  0.4147
 4284TIP3    H212817   2.863   0.322   1.390 -1.5069 -1.4230  0.0190
 4285TIP3   OH212818   5.403   5.759   2.989  0.4282 -0.6567 -0.3312
 4285TIP3    H112819   5.371   5.683   2.939 -1.1830 -0.1981 -0.0760
 4285TIP3    H212820   5.324   5.796   3.029  1.1008  1.3583 -0.7311
 4286TIP3   OH212821   5.583   4.360   2.035 -0.3695 -0.4496 -0.4998
 4286TIP3    H112822   5.664   4.310   2.038  0.5233  0.9339 -0.7061
 4286TIP3    H212823   5.515   4.294   2.018  0.6957 -1.6202 -0.4046
 4287TIP3   OH212824   1.545   3.936   0.823  0.1850  0.2263 -0.3736
 4287TIP3    H112825   1.594   3.857   0.846  2.0718  0.7465 -2.2402
 4287TIP3    H212826   1.476   3.905   0.764 -1.0164 -0.3645  1.2927
 4288TIP3   OH212827   5.691   6.118   1.135  1.2171  0.1333 -0.0127
 4288TIP3    H112828   5.784   6.097   1.135  0.7615 -2.1238 -0.3179
 4288TIP3    H212829   5.648   6.038   1.105 -0.8602  0.9753  0.5233
 4289TIP3   OH212830   5.661   4.280   4.501  0.2719 -0.0742  0.4806
 4289TIP3    H112831   5.721   4.245   4.566 -0.0096 -1.7194 -0.0942
 4289TIP3    H212832   5.669   4.220   4.426 -1.6278 -0.0026  0.1651
 4290TIP3   OH212833   5.670   6.308   1.917 -0.9329  0.5318  0.8152
 4290TIP3    H112834   5.600   6.245   1.933 -1.4802  0.6770 -0.8134
 4290TIP3    H212835   5.659   6.374   1.986 -0.8584 -0.6822  2.0456
 4291TIP3   OH212836   2.139   4.612   1.183 -0.3174 -0.5804 -0.4053
 4291TIP3    H112837   2.101   4.691   1.145 -1.0767 -0.3474  0.7737
 4291TIP3    H212838   2.100   4.540   1.133  0.3521 -0.2350 -1.4625
 4292TIP3   OH212839   3.427   5.759   2.667 -0.1353 -0.1732 -0.4330
 4292TIP3    H112840   3.396   5.681   2.622  0.3796 -1.2462  1.0031
 4292TIP3    H212841   3.478   5.806   2.600 -3.1576  0.7106 -2.2984
 4293TIP3   OH212842   6.157   5.148   3.829  0.1649  0.3139  0.1648
 4293TIP3    H112843   6.132   5.106   3.747  0.1576  0.1027  0.2750
 4293TIP3    H212844   6.195   5.078   3.882 -0.0050  0.4092  0.4162
 4294TIP3   OH212845   5.651   2.976   1.199  0.5599 -0.0011 -0.2403
 4294TIP3    H112846   5.620   2.888   1.217  1.1597 -0.1941 -0.1281
 4294TIP3    H212847   5.737   2.963   1.158  0.1208  0.4896 -1.3668
 4295TIP3   OH212848   4.638   5.655   1.316  0.2736 -0.1543  0.0345
 4295TIP3    H112849   4.610   5.661   1.225 -0.0541  0.9310  0.1855
 4295TIP3    H212850   4.732   5.670   1.313 -0.2059  4.9513  0.1905
 4296TIP3   OH212851   2.142   5.485   5.181  0.3681  0.0188 -0.1449
 4296TIP3    H112852   2.235   5.464   5.182  0.3013 -1.0271  3.7102
 4296TIP3    H212853   2.138   5.579   5.196  0.8137  0.0498 -0.2145
 4297TIP3   OH212854   2.707   6.222   0.037 -0.1906 -0.5828 -0.0256
 4297TIP3    H112855   2.688   6.222  -0.057 -1.6452  0.6395  0.2182
 4297TIP3    H212856   2.763   6.299   0.050 -0.4160 -0.4509  0.1726
 4298TIP3   OH212857   1.779   3.465   1.389  0.0850 -0.0120  0.1202
 4298TIP3    H112858   1.785   3.398   1.457  2.1248  0.0108  0.0262
 4298TIP3    H212859   1.756   3.545   1.435 -2.8777 -0.7706  0.1815
 4299TIP3   OH212860   3.329   2.813   0.855 -0.2252  0.4178  0.1467
 4299TIP3    H112861   3.324   2.737   0.914  3.1050 -1.3147 -1.5147
 4299TIP3    H212862   3.286   2.784   0.775  3.1018 -0.8659 -1.3649
 4300TIP3   OH212863   4.157   6.312   0.373  0.2718  0.2523  0.1708
 4300TIP3    H112864   4.075   6.265   0.385  1.3529 -1.8953 -0.2744
 4300TIP3    H212865   4.189   6.282   0.288  0.2981  3.0619 -0.9067
 4301TIP3   OH212866   5.180   2.452   3.350 -0.4714 -0.5399  0.0090
 4301TIP3    H112867   5.137   2.513   3.289  1.1024  0.6485 -0.0006
 4301TIP3    H212868   5.117   2.440   3.421 -1.2815  0.1982 -0.5615
 4302TIP3   OH212869   1.870   4.925   4.332  0.0091  0.5669  0.3865
 4302TIP3    H112870   1.818   4.847   4.348  0.1560  0.3394 -0.2285
 4302TIP3    H212871   1.954   4.907   4.375  1.1217 -0.8676 -2.1631
 4303TIP3   OH212872   2.785   3.066   1.538  0.2465  0.0682  0.5163
 4303TIP3    H112873   2.872   3.104   1.527  0.3751 -0.5189 -0.6423
 4303TIP3    H212874   2.799   2.990   1.595  0.3511  0.4541  1.0078
 4304TIP3   OH212875   0.400   4.985   0.253 -0.4486 -0.1334  0.1492
 4304TIP3    H112876   0.418   4.891   0.255  3.1424  0.4136  1.2475
 4304TIP3    H212877   0.323   4.996   0.308 -1.1533 -2.4488 -0.2641
 4305TIP3   OH212878   0.243   6.222   0.739 -1.0315 -0.5283  0.1373
 4305TIP3    H112879   0.159   6.238   0.781 -1.6328  0.8709 -1.4593
 4305TIP3    H212880   0.240   6.275   0.659  1.7314  0.2839  0.4697
 4306TIP3   OH212881   6.132   3.229   3.466 -0.4826 -0.1511  1.1095
 4306TIP3    H112882   6.176   3.225   3.551  0.5150 -1.7064  0.5572
 4306TIP3    H212883   6.053   3.176   3.478 -0.5905  0.0239  1.1874
 4307TIP3   OH212884   4.312   3.675   2.492  0.1561  0.0259 -0.1807
 4307TIP3    H112885   4.244   3.661   2.426  0.2465 -2.2144  0.1305
 4307TIP3    H212886   4.380   3.725   2.447 -1.1427  1.2608 -0.8382
 4308TIP3   OH212887   5.621   4.995   5.326 -0.2548  0.0812 -0.2554
 4308TIP3    H112888   5.566   4.968   5.399 -2.1046 -0.5381 -1.8004
 4308TIP3    H212889   5.707   4.956   5.346 -0.2839  1.0779  2.2149
 4309TIP3   OH212890   6.341   0.961   4.968  0.3619 -0.3946  0.0442
 4309TIP3    H112891   6.332   1.016   4.890 -3.6824  1.1339  1.3129
 4309TIP3    H212892   6.405   1.006   5.022 -1.3634  2.1569  0.1476
 4310TIP3   OH212893   5.595   4.655   2.680  0.5509 -0.3418 -0.0653
 4310TIP3    H112894   5.648   4.714   2.734  0.9098  0.5945 -1.3840
 4310TIP3    H212895   5.592   4.698   2.594  0.2806 -1.9463 -0.8911
 4311TIP3   OH212896   1.748   5.718  -0.025  0.5452  0.3248 -0.3900
 4311TIP3    H112897   1.714   5.791   0.026  1.0342  0.4991 -0.3101
 4311TIP3    H212898   1.833   5.698   0.014  0.4648 -0.2218 -0.4730
 4312TIP3   OH212899   4.933   4.471   1.938  0.3461 -0.8702  0.0800
 4312TIP3    H112900   4.850   4.460   1.892  0.4175 -3.1782  0.3676
 4312TIP3    H212901   4.998   4.427   1.883  1.3751  0.6896 -0.0225
 4313TIP3   OH212902   3.444   3.243   5.616 -0.1288 -0.1716  0.5600
 4313TIP3    H112903   3.357   3.240   5.655 -0.1143 -1.6557  0.5049
 4313TIP3    H212904   3.449   3.167   5.558  1.3964 -0.4714  1.0173
 4314TIP3   OH212905   1.688   0.282   3.382 -0.2861  0.9723 -1.0850
 4314TIP3    H112906   1.616   0.223   3.359 -0.0944  0.4167 -0.3110
 4314TIP3    H212907   1.767   0.233   3.361 -0.1294  1.2122 -1.0534
 4315TIP3   OH212908   4.690   1.775   5.511 -0.4357  0.2181 -0.4261
 4315TIP3    H112909   4.640   1.700   5.543  1.8308 -0.8805  0.7944
 4315TIP3    H212910   4.779   1.741   5.498  0.8589  2.8253  0.8489
 4316TIP3   OH212911   0.665   1.842   1.832  0.2309 -0.2113  0.1953
 4316TIP3    H112912   0.752   1.803   1.846  1.2399  1.8815  0.0369
 4316TIP3    H212913   0.681   1.916   1.775 -1.3961  1.3289  1.6328
 4317TIP3   OH212914   6.700   1.230   1.202 -0.0881 -0.2681 -0.3850
 4317TIP3    H112915   6.771   1.183   1.157 -0.2081 -1.4593  0.6048
 4317TIP3    H212916   6.723   1.223   1.295 -0.5156  1.0120 -0.1776
 4318TIP3   OH212917   3.835   4.826   1.420  0.1976 -0.6082 -0.3326
 4318TIP3    H112918   3.829   4.745   1.370 -1.7244  0.2913 -1.6557
 4318TIP3    H212919   3.806   4.802   1.508 -1.3842 -1.1900 -0.9738
 4319TIP3   OH212920   6.575   5.225   3.307 -0.4436 -0.7322 -0.3401
 4319TIP3    H112921   6.513   5.289   3.273 -0.4732 -0.4424  0.2464
 4319TIP3    H212922   6.656   5.273   3.317 -0.1483 -1.0822 -0.9918
 4320TIP3   OH212923   5.767   6.556   2.861  0.3470  1.1924 -0.2983
 4320TIP3    H112924   5.711   6.555   2.939  2.5788 -0.5498  1.4186
 4320TIP3    H212925   5.763   6.646   2.830 -1.8896  1.5642  0.8569
 4321TIP3   OH212926   5.932   2.203   4.622  0.2707  0.8926  0.0978
 4321TIP3    H112927   5.901   2.294   4.619 -0.1223  0.8540  1.8221
 4321TIP3    H212928   5.931   2.174   4.531 -3.9982  1.1390 -0.1269
 4322TIP3   OH212929   0.590   1.316   4.855  0.4990  0.3072  0.2919
 4322TIP3    H112930   0.683   1.312   4.880  0.3790  0.1522  0.7378
 4322TIP3    H212931   0.586   1.381   4.785  1.0690 -0.2848 -0.3045
 4323TIP3   OH212932   4.723   1.839   4.547  0.2135  0.0046 -0.3835
 4323TIP3    H112933   4.800   1.885   4.580 -0.5543 -0.4404  2.3084
 4323TIP3    H212934   4.676   1.904   4.495  1.1965  0.9985 -0.0741
 4324TIP3   OH212935   3.061   5.798   3.697 -0.1930 -0.0484 -0.8206
 4324TIP3    H112936   3.073   5.889   3.670  0.3954  0.0207 -0.3341
 4324TIP3    H212937   3.145   5.756   3.678 -0.2983 -0.3721 -0.5728
 4325TIP3   OH212938   3.719   1.883   1.172 -0.2151 -0.1549 -0.0260
 4325TIP3    H112939   3.643   1.827   1.161 -1.3843  0.9495  1.8612
 4325TIP3    H212940   3.684   1.964   1.208  1.7078  0.9067 -0.4029
 4326TIP3   OH212941   0.067   0.230   4.699 -0.4073  0.3805  0.2953
 4326TIP3    H112942  -0.010   0.270   4.657 -0.4329  0.2399  0.2092
 4326TIP3    H212943   0.047   0.234   4.792 -0.3138  0.7707  0.3032
 4327TIP3   OH212944   0.043   6.386   0.388 -0.2130 -0.1600  0.3718
 4327TIP3    H112945   0.056   6.434   0.306 -2.6898 -0.9951 -0.6337
 4327TIP3    H212946  -0.052   6.384   0.399  0.0361 -0.7947  2.8577
 4328TIP3   OH212947   6.928   3.041   2.492  0.2295 -0.5727  0.2398
 4328TIP3    H112948   6.973   3.016   2.573  0.6636 -0.3411  0.0769
 4328TIP3    H212949   6.869   3.112   2.518  0.8705 -0.0200  0.2386
 4329TIP3   OH212950   3.269   0.201   4.471  0.4075 -0.2003  0.4692
 4329TIP3    H112951   3.251   0.220   4.379 -0.0618 -1.3592  0.3151
 4329TIP3    H212952   3.306   0.113   4.471  2.0770  0.4694  1.2296
 4330TIP3   OH212953   5.178   1.206   3.207 -0.0191  1.0477  0.4489
 4330TIP3    H112954   5.232   1.229   3.282  0.0624  1.8273  0.1574
 4330TIP3    H212955   5.159   1.113   3.219  0.7268  0.9526  0.9685
 4331TIP3   OH212956   4.996   6.778   5.135 -0.3361  0.1619  0.1260
 4331TIP3    H112957   4.952   6.709   5.085 -1.3479  1.1104 -0.3392
 4331TIP3    H212958   4.925   6.839   5.159  0.5517  1.1458  0.3287
 4332TIP3   OH212959   5.713   1.042   3.970 -0.4215  0.3724 -0.0950
 4332TIP3    H112960   5.654   1.085   4.032  2.8897  1.1130  2.9262
 4332TIP3    H212961   5.776   1.110   3.946  1.4245 -1.2328 -0.0283
 4333TIP3   OH212962   5.163   6.072   0.519  0.1197 -0.1390 -0.0207
 4333TIP3    H112963   5.156   6.107   0.607 -1.1031 -1.0059  0.2485
 4333TIP3    H212964   5.170   6.149   0.463 -0.5557  0.4774  0.7205
 4334TIP3   OH212965   4.666   3.614   5.332 -0.0479  0.1655  0.4036
 4334TIP3    H112966   4.659   3.666   5.252  0.6250  1.3000  1.0619
 4334TIP3    H212967   4.586   3.634   5.381  0.7775  1.5982  1.2235
 4335TIP3   OH212968   3.942   6.486   2.387  0.2955 -0.0951  0.6160
 4335TIP3    H112969   3.884   6.462   2.459  0.3188 -0.0418  0.6529
 4335TIP3    H212970   3.955   6.580   2.398  1.9389 -0.4190  1.7501
 4336TIP3   OH212971   1.606   0.444   4.738  0.6173 -0.2962 -0.2202
 4336TIP3    H112972   1.555   0.369   4.768 -0.2159 -0.3518 -1.6893
 4336TIP3    H212973   1.665   0.464   4.811  0.0005 -1.5972  0.6655
 4337TIP3   OH212974   0.109   0.302   0.840 -0.3964 -0.3334  1.1458
 4337TIP3    H112975   0.155   0.221   0.864  0.6758 -0.7210 -1.8402
 4337TIP3    H212976   0.017   0.277   0.839 -0.1279 -1.3672  0.8518
 4338TIP3   OH212977   1.584   3.667   2.224 -0.2002  0.4162  0.4474
 4338TIP3    H112978   1.497   3.654   2.185 -0.3215  1.9046  0.1817
 4338TIP3    H212979   1.583   3.757   2.256  0.5189 -0.2027  2.3540
 4339TIP3   OH212980   6.849   5.528   0.754  0.5287  0.6165  0.4152
 4339TIP3    H112981   6.768   5.481   0.778  0.3015  1.0330  0.4686
 4339TIP3    H212982   6.836   5.617   0.787  0.3552  1.1245 -0.9590
 4340TIP3   OH212983   5.011   5.161   1.661 -0.4186  0.1518 -0.7715
 4340TIP3    H112984   4.957   5.214   1.601 -3.3653 -0.3845  1.1652
 4340TIP3    H212985   4.986   5.071   1.642  0.2894 -0.1562 -0.2573
 4341TIP3   OH212986   5.019   4.053   1.924 -0.0816 -0.1953 -0.4809
 4341TIP3    H112987   5.045   4.001   1.849 -0.3851  0.7400 -1.2583
 4341TIP3    H212988   4.992   3.989   1.990 -0.6346 -1.0089 -1.4680
 4342TIP3   OH212989   1.849   2.926   3.964 -0.4486 -0.6101  0.3449
 4342TIP3    H112990   1.790   2.926   4.039 -0.4222 -2.3029  0.4035
 4342TIP3    H212991   1.813   2.859   3.905  0.9424 -1.1140  0.0247
 4343TIP3   OH212992   3.424   5.144   3.789  0.3438 -0.3964  0.1749
 4343TIP3    H112993   3.390   5.230   3.762 -0.7250 -0.8936 -0.1269
 4343TIP3    H212994   3.350   5.101   3.831  0.7939 -1.2721  0.1063
 4344TIP3   OH212995   5.476   1.696   1.669 -0.2753 -0.2459 -0.2170
 4344TIP3    H112996   5.500   1.744   1.748 -0.2650  0.7935 -0.8439
 4344TIP3    H212997   5.428   1.619   1.702 -1.2408  0.7310  0.7442
 4345TIP3   OH212998   1.169   0.399   1.371 -0.2336  0.1181 -0.2514
 4345TIP3    H112999   1.226   0.462   1.414 -0.2016 -1.0671  1.5634
 4345TIP3    H213000   1.081   0.435   1.382 -0.1040  0.5100 -0.4641
 4346TIP3   OH213001   0.401   5.118   2.710 -0.1618 -0.5114  0.0270
 4346TIP3    H113002   0.317   5.072   2.705 -0.4616  0.0366 -4.6143
 4346TIP3    H213003   0.384   5.203   2.671  1.8011  1.2984  2.7376
 4347TIP3   OH213004   5.977   0.438   0.230  0.1453  0.3654 -0.1672
 4347TIP3    H113005   6.065   0.435   0.192  0.9547  1.9377  1.4236
 4347TIP3    H213006   5.990   0.412   0.321 -1.3901 -1.2406 -0.3486
 4348TIP3   OH213007   6.369   5.435   5.382  0.2059 -0.2325 -0.1680
 4348TIP3    H113008   6.287   5.398   5.349 -0.4571  0.6874  0.3895
 4348TIP3    H213009   6.432   5.364   5.375 -1.2428 -1.8188  1.7117
 4349TIP3   OH213010   1.966   1.205   4.976 -0.2034 -0.2195 -0.5301
 4349TIP3    H113011   2.051   1.176   4.941 -0.4002 -1.4660 -0.0232
 4349TIP3    H213012   1.904   1.139   4.945 -0.7281 -0.1665  0.3909
 4350TIP3   OH213013   6.126   2.148   0.114 -0.6250 -0.2281 -0.3883
 4350TIP3    H113014   6.032   2.153   0.095 -0.6457 -0.1782 -0.2770
 4350TIP3    H213015   6.165   2.112   0.035 -0.7479 -0.3210 -0.4073
 4351TIP3   OH213016   6.298   2.961   3.403  0.3737 -0.2338  0.1982
 4351TIP3    H113017   6.382   2.964   3.450  0.5847 -0.1447 -0.1749
 4351TIP3    H213018   6.232   2.951   3.471  0.7201 -0.7179  0.4713
 4352TIP3   OH213019   5.072   2.316   0.948  0.2666 -0.2681  0.0866
 4352TIP3    H113020   4.988   2.270   0.948  0.8768 -1.4245 -0.1956
 4352TIP3    H213021   5.114   2.288   0.867  0.9398  0.2892  0.2354
 4353TIP3   OH213022   0.512   0.058   2.871 -0.0776  0.3045 -0.8600
 4353TIP3    H113023   0.550   0.143   2.847 -0.6638  0.7483 -0.2531
 4353TIP3    H213024   0.552  -0.004   2.811  2.9254  0.4546  0.8168
 4354TIP3   OH213025   3.440   3.725   0.588 -0.2069 -0.2775 -0.0829
 4354TIP3    H113026   3.484   3.670   0.523 -1.2841 -2.3871  0.8906
 4354TIP3    H213027   3.411   3.664   0.656 -1.2690  1.5432  1.1859
 4355TIP3   OH213028   3.936   2.981   4.973 -0.1192  0.3045  0.3878
 4355TIP3    H113029   3.884   3.057   5.001  1.0861  0.0625  3.8349
 4355TIP3    H213030   3.913   2.912   5.035  3.7289  0.0410  1.8408
 4356TIP3   OH213031   1.427   6.742   4.083  0.1673  0.8923 -0.7440
 4356TIP3    H113032   1.507   6.794   4.072  0.0806  1.5519  1.2635
 4356TIP3    H213033   1.359   6.794   4.040  0.6698  0.7208 -1.7665
 4357TIP3   OH213034   3.843   2.058   3.218 -0.1102 -0.3116 -0.2752
 4357TIP3    H113035   3.774   2.048   3.284  0.4602 -2.5619  0.0537
 4357TIP3    H213036   3.925   2.050   3.267  0.3318 -3.1984 -1.3085
 4358TIP3   OH213037   1.180   5.154   0.968 -0.0531 -0.3905 -0.2397
 4358TIP3    H113038   1.202   5.104   1.046 -1.6326  0.0538  0.5197
 4358TIP3    H213039   1.243   5.226   0.967  0.4907 -0.8559  0.1577
 4359TIP3   OH213040   0.505   3.849   2.765  0.0398  0.0980  0.1119
 4359TIP3    H113041   0.420   3.812   2.789  0.4520 -0.9374  0.0057
 4359TIP3    H213042   0.487   3.942   2.750 -0.8065  0.1787  1.4454
 4360TIP3   OH213043   4.341   4.860   2.430 -0.6857  0.3270  0.0497
 4360TIP3    H113044   4.323   4.941   2.382 -0.4558 -0.4086 -1.3300
 4360TIP3    H213045   4.349   4.887   2.521  0.6506  2.0691 -0.5288
 4361TIP3   OH213046   1.205   0.810   3.726  0.0191 -0.3612  0.2098
 4361TIP3    H113047   1.256   0.730   3.725 -0.0994 -0.4372  0.1644
 4361TIP3    H213048   1.114   0.780   3.739 -0.3791 -0.4333 -2.2432
 4362TIP3   OH213049   6.915   4.584   0.698  0.6053 -0.0744 -0.4391
 4362TIP3    H113050   6.982   4.522   0.669  2.1520  1.7754 -1.0231
 4362TIP3    H213051   6.946   4.616   0.782  0.0415  0.2319 -0.3400
 4363TIP3   OH213052   3.558   5.144   0.348  0.2743 -0.9064 -0.8786
 4363TIP3    H113053   3.551   5.109   0.259  1.5664 -0.6673 -1.0867
 4363TIP3    H213054   3.510   5.082   0.403  0.1869 -1.4992 -1.6203
 4364TIP3   OH213055   7.179   4.641   3.549 -0.2681 -0.0247  0.2244
 4364TIP3    H113056   7.127   4.611   3.475 -1.2201 -3.1770  1.9775
 4364TIP3    H213057   7.115   4.678   3.610  0.0377 -0.4147  0.7921
 4365TIP3   OH213058   3.586   3.855   1.681 -0.8319  0.2283  0.3581
 4365TIP3    H113059   3.674   3.832   1.653 -0.4136  1.2697  0.7471
 4365TIP3    H213060   3.537   3.868   1.600 -0.5264  0.0325  0.1405
 4366TIP3   OH213061   0.251   0.122   0.437 -0.1477  0.4495 -0.4639
 4366TIP3    H113062   0.171   0.126   0.489  0.7753  1.8585  0.9579
 4366TIP3    H213063   0.222   0.105   0.348 -2.1727  2.4058 -0.2642
 4367TIP3   OH213064   7.016   1.687   2.382 -0.0260  0.3870 -0.3970
 4367TIP3    H113065   7.058   1.773   2.384  1.0819 -0.0417 -2.1401
 4367TIP3    H213066   7.005   1.662   2.473  0.8013  1.8336  0.1213
 4368TIP3   OH213067   1.425   4.932   4.468  0.1156  0.4226 -0.1367
 4368TIP3    H113068   1.369   4.865   4.428 -0.0132 -0.2904  1.1829
 4368TIP3    H213069   1.466   4.977   4.394 -0.3998 -0.6067 -1.0668
 4369TIP3   OH213070   2.871   5.053   5.816 -0.2056  0.1008  0.8080
 4369TIP3    H113071   2.930   5.002   5.871 -0.3426 -1.8957 -0.7522
 4369TIP3    H213072   2.784   5.036   5.851 -0.1585  0.1515  0.9500
 4370TIP3   OH213073   4.376   6.074   4.353 -0.5176  0.1409 -0.6319
 4370TIP3    H113074   4.451   6.121   4.388 -1.4979 -0.2541  2.2802
 4370TIP3    H213075   4.412   5.992   4.319  0.3819 -0.3286  1.3030
 4371TIP3   OH213076   1.842   1.376   3.316  0.2458 -0.3099 -0.0485
 4371TIP3    H113077   1.908   1.427   3.269 -0.3484  0.4105 -0.1098
 4371TIP3    H213078   1.893   1.312   3.366  0.9791  0.0836 -0.2759
 4372TIP3   OH213079   0.667   4.523   0.380  0.2331  0.3244  0.3834
 4372TIP3    H113080   0.640   4.437   0.412 -1.8814  0.9279  0.3307
 4372TIP3    H213081   0.750   4.540   0.425  0.3577 -1.4442  0.8870
 4373TIP3   OH213082   4.666   4.482   5.259 -0.3560 -0.2870  0.5424
 4373TIP3    H113083   4.699   4.488   5.349  0.3287  1.1241  0.2357
 4373TIP3    H213084   4.647   4.573   5.236  2.5508 -0.1395 -1.8485
 4374TIP3   OH213085   5.970   3.107   4.017 -0.1638 -0.1481 -0.7159
 4374TIP3    H113086   6.050   3.111   4.069  0.2535 -0.4546 -1.3196
 4374TIP3    H213087   5.977   3.180   3.956 -0.6142  0.1670 -0.3926
 4375TIP3   OH213088   3.643   5.914   0.392 -0.0261 -0.4070 -0.1983
 4375TIP3    H113089   3.733   5.928   0.419  0.1632  2.1339 -1.8232
 4375TIP3    H213090   3.640   5.942   0.301 -2.5887  0.3338  0.0240
 4376TIP3   OH213091   1.471   2.674   2.167  0.3465  0.6204 -0.5649
 4376TIP3    H113092   1.459   2.769   2.174  0.7966  0.7794 -1.7746
 4376TIP3    H213093   1.460   2.655   2.074  0.4415 -0.5015 -0.3630
 4377TIP3   OH213094   5.589   4.030   0.451  0.1410 -0.3422 -0.5271
 4377TIP3    H113095   5.623   4.000   0.367  1.6090 -0.0424 -0.0575
 4377TIP3    H213096   5.657   4.009   0.514 -1.7581 -2.4317  0.9929
 4378TIP3   OH213097   4.763   2.990   4.072 -0.1540 -0.0416  0.1860
 4378TIP3    H113098   4.848   2.992   4.028 -2.1681  2.0535 -4.2156
 4378TIP3    H213099   4.760   3.070   4.123 -0.5829  1.6819 -2.3753
 4379TIP3   OH213100   5.516   2.500   0.613 -0.4440  0.1914  0.5757
 4379TIP3    H113101   5.471   2.430   0.662  0.6226 -0.6151  0.4391
 4379TIP3    H213102   5.574   2.541   0.677  1.3146 -1.1824 -0.0665
 4380TIP3   OH213103   2.464   2.554   0.115  0.2859 -0.7379  0.0256
 4380TIP3    H113104   2.536   2.609   0.145 -0.2197  0.4183 -0.8315
 4380TIP3    H213105   2.506   2.485   0.063  0.8937 -1.0134  0.8552
 4381TIP3   OH213106   5.584   4.330   3.125  0.1114  0.3453  0.0027
 4381TIP3    H113107   5.625   4.335   3.038 -0.0662 -0.0844 -0.1094
 4381TIP3    H213108   5.631   4.395   3.177 -0.1276  0.9756 -0.5560
 4382TIP3   OH213109   5.100   1.129   1.585  0.2216 -1.0944  0.2579
 4382TIP3    H113110   5.072   1.092   1.501 -0.3070 -0.0586 -0.0310
 4382TIP3    H213111   5.021   1.131   1.638  0.0398  0.4285 -0.0385
 4383TIP3   OH213112   5.344   2.623   2.243 -0.4301 -0.1149  0.1340
 4383TIP3    H113113   5.436   2.617   2.217 -0.3438 -0.6043  0.5298
 4383TIP3    H213114   5.295   2.615   2.161 -0.1159  0.3026 -0.0952
 4384TIP3   OH213115   7.117   2.424   4.072  0.6615 -0.3969  0.4457
 4384TIP3    H113116   7.210   2.418   4.051  0.8878 -0.2531  1.3971
 4384TIP3    H213117   7.108   2.382   4.158 -0.1844 -0.6022  0.2738
 4385TIP3   OH213118  -0.011   6.631   1.936 -0.6031  0.1044 -0.0165
 4385TIP3    H113119   0.026   6.683   2.007 -0.6036 -1.3318  1.0826
 4385TIP3    H213120   0.058   6.628   1.870  0.4460 -0.6952  1.0569
 4386TIP3   OH213121   3.335   0.159   2.442  0.0656 -0.3937 -1.0884
 4386TIP3    H113122   3.340   0.176   2.348  0.9114  0.3227 -0.9172
 4386TIP3    H213123   3.244   0.179   2.465 -0.0467 -0.2124 -1.6721
 4387TIP3   OH213124   4.667   4.454   2.818  0.7321 -0.5089 -0.1375
 4387TIP3    H113125   4.695   4.504   2.742 -0.4085 -0.5335 -0.5914
 4387TIP3    H213126   4.746   4.444   2.871  0.9436  2.1792  0.2159
 4388TIP3   OH213127   1.658   2.918   3.219 -0.1604 -0.0273 -0.1148
 4388TIP3    H113128   1.606   2.849   3.180 -0.9163  0.8328 -0.6624
 4388TIP3    H213129   1.735   2.873   3.254 -0.4920 -1.0930 -0.7161
 4389TIP3   OH213130   0.135   4.551   4.119  0.0489  0.1267 -0.3499
 4389TIP3    H113131   0.136   4.462   4.085  0.5603  0.1480 -0.3948
 4389TIP3    H213132   0.221   4.563   4.160 -0.2572  0.3789  0.2310
 4390TIP3   OH213133   4.044   6.552   5.837 -0.3349  0.4935 -0.2744
 4390TIP3    H113134   4.044   6.530   5.744  0.4290  1.0348 -0.4177
 4390TIP3    H213135   4.057   6.647   5.839  2.0033  0.2340  0.4031
 4391TIP3   OH213136   6.906   4.874   3.935 -0.1168  0.1500 -0.0232
 4391TIP3    H113137   6.819   4.877   3.975  0.1972 -0.0979  0.6979
 4391TIP3    H213138   6.908   4.791   3.888 -0.1103 -0.0506  0.3316
 4392TIP3   OH213139   1.883   4.523   0.515  0.1800 -0.5647 -0.0916
 4392TIP3    H113140   1.877   4.473   0.433  2.6435 -0.6173 -0.3055
 4392TIP3    H213141   1.811   4.586   0.510 -0.2209 -1.1047 -1.9118
 4393TIP3   OH213142   1.907   2.552   3.185  0.0559 -0.1633  0.1513
 4393TIP3    H113143   1.840   2.483   3.182  1.3497 -1.4585 -0.0169
 4393TIP3    H213144   1.877   2.611   3.254 -1.9103  0.0006 -0.7794
 4394TIP3   OH213145   1.396   3.156   2.755 -0.0038 -0.5522 -0.1060
 4394TIP3    H113146   1.357   3.107   2.828  3.5609 -0.9283  1.7369
 4394TIP3    H213147   1.483   3.118   2.744  0.8872  1.8457 -2.2596
 4395TIP3   OH213148   3.551   1.977   1.992 -0.7304  0.5332 -0.0533
 4395TIP3    H113149   3.545   1.957   2.086 -1.6940  0.9368 -0.0143
 4395TIP3    H213150   3.613   2.050   1.987 -0.7508  0.5784  0.2802
 4396TIP3   OH213151   4.224   4.762   3.809 -0.6457  0.1442  0.1279
 4396TIP3    H113152   4.210   4.836   3.869 -2.2332 -1.6924  2.1869
 4396TIP3    H213153   4.150   4.704   3.825  0.3770 -1.7783 -1.6386
 4397TIP3   OH213154   3.627   2.468   3.448  0.1810  0.2249  0.4402
 4397TIP3    H113155   3.693   2.537   3.451  0.8299 -0.3603  0.1528
 4397TIP3    H213156   3.671   2.391   3.485  0.5488 -0.8584 -2.0553
 4398TIP3   OH213157   3.070   1.917   0.243  0.7023 -0.2413 -0.1935
 4398TIP3    H113158   3.050   1.851   0.177  2.1424 -0.0910 -0.8092
 4398TIP3    H213159   3.161   1.899   0.268  0.4821  0.2960  1.0604
 4399TIP3   OH213160   4.258   3.991   3.752 -0.3924  0.0555 -0.4768
 4399TIP3    H113161   4.295   3.906   3.731  0.2804  0.1675  0.2058
 4399TIP3    H213162   4.198   3.975   3.825 -0.7421  0.0718 -0.7576
 4400TIP3   OH213163   0.027   5.312   3.043  0.2395 -0.3613 -0.4646
 4400TIP3    H113164   0.082   5.263   3.103  0.3460  0.7376  0.3658
 4400TIP3    H213165  -0.015   5.245   2.989 -1.5045 -1.5752  2.1843
 4401TIP3   OH213166   1.304   1.988   2.242 -0.1728  0.2550 -0.0396
 4401TIP3    H113167   1.208   1.991   2.237 -0.4379 -0.2235  2.8240
 4401TIP3    H213168   1.327   2.066   2.293  0.8351 -0.3136  0.3996
 4402TIP3   OH213169   1.134   4.377   4.126 -0.1278  0.5667 -0.2793
 4402TIP3    H113170   1.158   4.289   4.097 -0.6195  0.4393 -0.3149
 4402TIP3    H213171   1.093   4.417   4.049  0.2623  0.8939 -0.3195
 4403TIP3   OH213172   5.517   6.141   5.048  0.4472  0.4797  0.2118
 4403TIP3    H113173   5.453   6.089   5.097 -1.4031  0.0592 -2.4086
 4403TIP3    H213174   5.541   6.085   4.974  1.0775  2.0301 -0.8079
 4404TIP3   OH213175   2.599   3.866   4.738 -0.3519  0.0581 -0.1513
 4404TIP3    H113176   2.642   3.924   4.676  0.8355  2.8757  2.9725
 4404TIP3    H213177   2.670   3.830   4.791 -1.3366  2.9657  3.6243
 4405TIP3   OH213178   2.989   1.422   0.707  0.3839 -0.0148  0.4069
 4405TIP3    H113179   3.056   1.453   0.768 -0.2379  1.7751  0.2696
 4405TIP3    H213180   3.037   1.395   0.630  1.0399 -0.0641  0.8268
 4406TIP3   OH213181   5.910   6.297   2.914  0.4261 -0.1056  0.6978
 4406TIP3    H113182   5.999   6.329   2.924  0.1636  0.5696  0.8851
 4406TIP3    H213183   5.880   6.333   2.830  0.2491 -0.1550  0.7387
 4407TIP3   OH213184   4.886   2.021   0.671 -0.5663  0.1372  0.0578
 4407TIP3    H113185   4.831   1.981   0.738 -0.2680  0.2510  0.3750
 4407TIP3    H213186   4.863   2.114   0.674 -0.3549  0.1859  0.1963
 4408TIP3   OH213187   0.882   2.402   1.904  0.5664 -0.7242  0.6649
 4408TIP3    H113188   0.873   2.307   1.911 -1.9193 -0.5260  0.8869
 4408TIP3    H213189   0.865   2.421   1.812  0.1718 -0.4331  0.7954
 4409TIP3   OH213190   1.719   3.703   1.575  0.0531  0.3761  0.3185
 4409TIP3    H113191   1.661   3.759   1.523 -0.3803 -0.8518 -0.5629
 4409TIP3    H213192   1.685   3.710   1.664  0.4990  2.1199  0.3886
 4410TIP3   OH213193   4.884   2.157   2.698 -0.4430  0.4328 -0.5939
 4410TIP3    H113194   4.929   2.208   2.765 -1.4083 -0.9825  1.2123
 4410TIP3    H213195   4.792   2.181   2.707 -0.8045 -0.9973 -0.2493
 4411TIP3   OH213196   4.663   4.559   4.323 -0.1541  0.4404 -0.1617
 4411TIP3    H113197   4.662   4.506   4.403 -1.9996 -1.2178 -1.1854
 4411TIP3    H213198   4.577   4.545   4.284  1.6613 -1.4283 -4.0805
 4412TIP3   OH213199   5.357   0.289   5.711  0.1122  0.0235 -0.4697
 4412TIP3    H113200   5.293   0.218   5.710  0.6784 -0.4907 -1.3834
 4412TIP3    H213201   5.442   0.245   5.718  0.3446  0.7428  2.0871
 4413TIP3   OH213202   6.641   3.013   0.912  0.1717  0.6352  0.3877
 4413TIP3    H113203   6.657   3.094   0.864  0.4418  0.8567  0.8487
 4413TIP3    H213204   6.561   3.029   0.961 -0.3925  0.2300 -0.3630
 4414TIP3   OH213205   3.527   2.608   1.963  0.4845 -0.1410  0.9262
 4414TIP3    H113206   3.467   2.638   2.031 -0.8996  0.4112 -0.4945
 4414TIP3    H213207   3.515   2.514   1.959  0.7818 -0.2164  1.6090
 4415TIP3   OH213208   0.418   5.830   0.912  0.1635 -0.0401  0.3496
 4415TIP3    H113209   0.386   5.911   0.951  1.3834  0.1024  1.0954
 4415TIP3    H213210   0.473   5.791   0.980  2.3606  0.2094 -1.2073
 4416TIP3   OH213211   0.811   3.039   5.102  0.3416 -0.0223 -0.0365
 4416TIP3    H113212   0.902   3.013   5.115 -0.3510 -1.6510  2.2206
 4416TIP3    H213213   0.766   2.957   5.078 -0.6956  0.5515 -0.1216
 4417TIP3   OH213214   4.047   4.760   0.356  0.3982  0.4750 -0.0827
 4417TIP3    H113215   3.992   4.698   0.309  0.4108 -0.5333  1.1703
 4417TIP3    H213216   4.122   4.775   0.299 -1.0081  1.6813 -1.7201
 4418TIP3   OH213217   4.972   1.834   3.603 -0.3618  0.3607  0.0764
 4418TIP3    H113218   5.055   1.845   3.556 -0.9569  1.5503 -0.7279
 4418TIP3    H213219   4.919   1.780   3.545 -0.3605  0.0810  0.3334
 4419TIP3   OH213220   1.096   3.024   2.518 -0.3818  0.2120  0.2260
 4419TIP3    H113221   1.069   3.016   2.427  1.3654  1.8747 -0.5176
 4419TIP3    H213222   1.182   2.984   2.521 -0.7792 -0.5934  1.3710
 4420TIP3   OH213223   7.005   2.036   5.046 -0.0737 -0.2537  0.1792
 4420TIP3    H113224   7.046   2.118   5.076 -2.5035  0.5309  1.6079
 4420TIP3    H213225   7.049   2.017   4.963  0.3440  2.7308 -0.4167
 4421TIP3   OH213226   4.594   0.365   0.306  0.2080 -0.4041  0.3640
 4421TIP3    H113227   4.658   0.431   0.281 -0.2127 -0.4591 -0.9766
 4421TIP3    H213228   4.562   0.330   0.222  0.0578 -1.9445  1.0334
 4422TIP3   OH213229   2.200   0.380   1.389 -0.3467  0.3169 -0.0790
 4422TIP3    H113230   2.184   0.471   1.363  0.1150  0.3600 -0.2207
 4422TIP3    H213231   2.222   0.335   1.307  1.3939  0.5116  0.2394
 4423TIP3   OH213232   6.327   3.584   4.840 -0.0696 -0.4260  0.2731
 4423TIP3    H113233   6.394   3.645   4.808 -2.2209  1.7456 -0.3430
 4423TIP3    H213234   6.370   3.499   4.837  2.6515  0.8423 -0.1205
 4424TIP3   OH213235   2.258   0.648   1.504  0.0042  0.2988  0.3908
 4424TIP3    H113236   2.263   0.696   1.421  0.6166 -0.5257 -0.0588
 4424TIP3    H213237   2.181   0.684   1.548 -0.4938  0.5414 -0.6599
 4425TIP3   OH213238   2.721   6.533   5.643  0.3754  0.0810  0.2552
 4425TIP3    H113239   2.689   6.553   5.731 -0.8769  2.7504 -0.6995
 4425TIP3    H213240   2.810   6.567   5.641 -0.2503  1.7737 -0.0312
 4426TIP3   OH213241   0.796   4.722   1.253  0.5695 -0.2785  0.4607
 4426TIP3    H113242   0.868   4.660   1.265 -0.3309 -1.3647  0.3702
 4426TIP3    H213243   0.743   4.714   1.332  0.2282  0.0948  0.2765
 4427TIP3   OH213244   4.673   1.381   2.259  0.0606  0.6261 -0.2390
 4427TIP3    H113245   4.748   1.429   2.224 -0.7268  1.0788 -1.3736
 4427TIP3    H213246   4.693   1.368   2.352  1.4703  0.8485 -0.4972
 4428TIP3   OH213247   1.318   1.816   2.554 -0.6047  0.4349 -0.2927
 4428TIP3    H113248   1.343   1.898   2.597 -1.8326  0.2296  0.8769
 4428TIP3    H213249   1.239   1.838   2.503 -0.3195  0.2114 -0.8453
 4429TIP3   OH213250   0.888   3.233   4.024  0.3009  0.3036  0.2987
 4429TIP3    H113251   0.882   3.140   4.003  0.0441  0.3236  0.2798
 4429TIP3    H213252   0.845   3.240   4.110 -0.7651  0.5950 -0.2460
 4430TIP3   OH213253   6.270   6.600   2.198 -0.7110 -0.4703 -0.2130
 4430TIP3    H113254   6.353   6.643   2.219  0.5431 -2.0040 -1.7379
 4430TIP3    H213255   6.219   6.668   2.154  1.7175 -0.6365 -3.7298
 4431TIP3   OH213256   3.246   5.953   2.791  0.0970  0.6702  0.2121
 4431TIP3    H113257   3.310   5.917   2.729  1.0842  2.8695 -0.1461
 4431TIP3    H213258   3.278   5.925   2.877  0.2214 -0.1577 -0.0895
 4432TIP3   OH213259   1.596   4.814   2.087  0.1040 -0.1646 -0.7219
 4432TIP3    H113260   1.650   4.871   2.141 -0.4306 -1.5142  1.3662
 4432TIP3    H213261   1.645   4.732   2.081 -1.1149 -1.0119  0.2247
 4433TIP3   OH213262   1.423   5.064   3.147 -0.5976 -0.1958 -0.1486
 4433TIP3    H113263   1.342   5.014   3.156 -0.8687 -0.1694 -1.9454
 4433TIP3    H213264   1.393   5.154   3.130 -0.2356 -0.2457 -1.1487
 4434TIP3   OH213265   6.481   0.820   3.040  0.2244  0.4055 -0.0302
 4434TIP3    H113266   6.448   0.910   3.037  0.0374  0.4417  2.1481
 4434TIP3    H213267   6.443   0.778   2.962 -3.5000  0.9598  1.2907
 4435TIP3   OH213268   2.989   5.237   2.215 -0.3969 -0.0584 -0.1203
 4435TIP3    H113269   2.897   5.215   2.223 -0.6810  0.8121 -0.8085
 4435TIP3    H213270   2.993   5.301   2.144  0.3283  2.2951  1.9037
 4436TIP3   OH213271   1.700   2.271   1.303  0.1369 -0.3255  0.4557
 4436TIP3    H113272   1.766   2.240   1.365 -0.5455 -0.9598  0.8867
 4436TIP3    H213273   1.734   2.245   1.217  0.0483 -1.4538  0.7406
 4437TIP3   OH213274   7.085   4.184   0.287 -0.2730 -0.9886  0.2153
 4437TIP3    H113275   7.067   4.118   0.221 -1.6460  0.7955 -1.3038
 4437TIP3    H213276   7.011   4.177   0.348 -0.2321 -1.0842  0.2542
 4438TIP3   OH213277   0.236   1.691   2.304  0.3020 -0.1981 -0.3449
 4438TIP3    H113278   0.190   1.629   2.248  1.4036  0.6682 -2.3114
 4438TIP3    H213279   0.315   1.645   2.332 -0.4236 -0.7592  0.8585
 4439TIP3   OH213280   2.156   3.463   5.212 -0.5951  0.2932  0.0704
 4439TIP3    H113281   2.089   3.396   5.206  0.0659 -0.2922 -1.0741
 4439TIP3    H213282   2.145   3.501   5.300 -1.4194 -0.8265  0.4626
 4440TIP3   OH213283   4.211   5.367   5.240  0.2561  0.4905 -0.2629
 4440TIP3    H113284   4.289   5.385   5.187  0.3392  0.5516 -0.1226
 4440TIP3    H213285   4.148   5.330   5.179  0.7743 -0.5910 -0.1654
 4441TIP3   OH213286   2.208   2.547   4.216 -0.7886  0.0674  0.0722
 4441TIP3    H113287   2.191   2.473   4.276 -0.6598  1.4109  1.8508
 4441TIP3    H213288   2.120   2.578   4.192 -0.8423 -0.4986 -0.4742
 4442TIP3   OH213289   4.630   2.840   2.114  0.0370  0.1794 -0.1637
 4442TIP3    H113290   4.721   2.812   2.112  0.0082  0.1192 -0.8129
 4442TIP3    H213291   4.600   2.819   2.203  1.0949  1.6325  0.5730
 4443TIP3   OH213292   7.147   0.367   2.810  0.2098  0.3836  0.1129
 4443TIP3    H113293   7.174   0.459   2.817 -0.4112  0.4561  2.5596
 4443TIP3    H213294   7.111   0.346   2.896 -0.3935 -1.9487 -0.6308
 4444TIP3   OH213295   4.100   2.070   5.534 -0.2170 -0.2806 -0.0525
 4444TIP3    H113296   4.051   2.142   5.574  0.9585 -0.6382  2.1755
 4444TIP3    H213297   4.033   2.006   5.510 -1.2057  1.1361 -1.3154
 4445TIP3   OH213298   0.544   3.687   3.852 -0.2178  0.0667  0.1433
 4445TIP3    H113299   0.468   3.630   3.837 -1.8894  1.7419  1.8025
 4445TIP3    H213300   0.584   3.653   3.932 -0.5983  0.5644  0.5505
 4446TIP3   OH213301   2.575   0.760   0.779  0.3796 -0.1392  0.0577
 4446TIP3    H113302   2.600   0.816   0.705  0.7996  2.3020  1.9167
 4446TIP3    H213303   2.659   0.736   0.820  0.1043 -0.4140  0.4678
 4447TIP3   OH213304   2.067   5.229   0.740 -0.2504  0.6873 -0.9475
 4447TIP3    H113305   2.083   5.135   0.735  1.1110  0.7511  1.0140
 4447TIP3    H213306   2.065   5.258   0.649  1.6404 -0.8913 -1.5711
 4448TIP3   OH213307   2.436   2.975   1.276 -0.1786  0.1678 -0.2612
 4448TIP3    H113308   2.482   2.933   1.204 -0.1607 -0.7806  0.2893
 4448TIP3    H213309   2.505   3.005   1.335 -0.2218 -0.9712  0.4060
 4449TIP3   OH213310   1.245   3.791   1.740  0.1283  0.1581 -0.0037
 4449TIP3    H113311   1.232   3.851   1.667  1.8532  0.8128  0.1833
 4449TIP3    H213312   1.306   3.726   1.707  1.0581  0.5528  0.8876
 4450TIP3   OH213313   7.079   2.611   2.348 -0.0860 -0.2781 -0.0828
 4450TIP3    H113314   7.039   2.621   2.261  2.8029 -1.0580 -1.6502
 4450TIP3    H213315   7.096   2.517   2.355  0.4935 -0.1043  0.9488
 4451TIP3   OH213316   2.084   4.131   3.011 -0.1248  0.2819 -0.0507
 4451TIP3    H113317   2.012   4.072   3.030 -0.5591  0.2033 -1.7362
 4451TIP3    H213318   2.070   4.206   3.068 -0.8062 -0.2965  0.5521
 4452TIP3   OH213319   4.215   5.325   4.733 -0.7506 -0.0944 -0.0857
 4452TIP3    H113320   4.165   5.286   4.661  0.2727  0.4614 -1.1274
 4452TIP3    H213321   4.164   5.402   4.758 -0.1206  0.8738 -1.6135
 4453TIP3   OH213322   2.018   5.056   1.784 -0.2155 -0.2115  0.6779
 4453TIP3    H113323   2.104   5.078   1.819  1.1189  0.3454 -2.6394
 4453TIP3    H213324   2.030   5.052   1.689 -4.2095  1.8009 -0.1659
 4454TIP3   OH213325   2.284   6.583   0.581 -0.0563 -0.2992 -0.0827
 4454TIP3    H113326   2.364   6.557   0.537 -0.5150 -1.0881 -0.4782
 4454TIP3    H213327   2.290   6.543   0.668 -0.7402 -1.7667 -0.6743
 4455TIP3   OH213328   6.855   2.473   5.625 -0.3695  0.2810 -0.1948
 4455TIP3    H113329   6.929   2.465   5.565  1.3823  0.6454  1.8247
 4455TIP3    H213330   6.839   2.384   5.656 -0.1017  0.3575  0.1588
 4456TIP3   OH213331   2.751   0.355   0.806  0.1798  0.3435 -0.2157
 4456TIP3    H113332   2.676   0.408   0.779 -0.0537  0.1136 -0.0294
 4456TIP3    H213333   2.768   0.298   0.731 -0.2805 -0.0901  0.0025
 4457TIP3   OH213334   3.140   2.271   2.389  0.5966 -0.5355 -0.3954
 4457TIP3    H113335   3.178   2.242   2.472 -1.7205  1.0171  1.3333
 4457TIP3    H213336   3.214   2.308   2.341  1.8339 -0.4101  1.4911
 4458TIP3   OH213337   6.993   5.526   1.827 -0.0799  0.2650 -0.0122
 4458TIP3    H113338   6.901   5.551   1.823 -0.4046 -0.5644  1.4272
 4458TIP3    H213339   7.007   5.500   1.918  1.3775 -0.3803 -0.3842
 4459TIP3   OH213340   4.045   0.066   5.479  0.0053  1.1461  0.6372
 4459TIP3    H113341   4.032   0.154   5.444  1.2020  0.7690 -0.8871
 4459TIP3    H213342   3.983   0.012   5.430  0.6234  0.8548  0.1547
 4460TIP3   OH213343   1.933   1.519   1.249  0.4931 -0.2183  0.1696
 4460TIP3    H113344   1.885   1.461   1.190  0.8860 -0.5234  0.1398
 4460TIP3    H213345   1.937   1.472   1.332  0.4315 -0.0409  0.2735
 4461TIP3   OH213346   0.261   0.323   1.707  0.3460 -0.1175 -0.4505
 4461TIP3    H113347   0.356   0.320   1.708  0.3275 -1.0053  0.4586
 4461TIP3    H213348   0.235   0.250   1.650  0.2039 -0.5270  0.1318
 4462TIP3   OH213349   1.658   1.347   0.085  0.4864  0.6037  0.7490
 4462TIP3    H113350   1.683   1.349  -0.007  0.4102  1.1459  0.7349
 4462TIP3    H213351   1.588   1.282   0.090  1.3655 -0.3792  0.6580
 4463TIP3   OH213352   3.886   1.910   5.716 -0.0542  0.2065 -0.1123
 4463TIP3    H113353   3.935   1.855   5.655  0.6432  1.8795 -1.1078
 4463TIP3    H213354   3.952   1.947   5.774 -0.7143 -1.5023  1.8993
 4464TIP3   OH213355   4.779   1.889   0.108 -0.1165 -0.2745  0.1249
 4464TIP3    H113356   4.712   1.861   0.171 -0.4908 -0.0725 -0.1810
 4464TIP3    H213357   4.826   1.959   0.153 -0.1952 -0.3254  0.2904
 4465TIP3   OH213358   4.832   6.582   1.132  0.3530 -0.2494  0.9004
 4465TIP3    H113359   4.808   6.513   1.070 -1.7078  0.9466  0.2599
 4465TIP3    H213360   4.927   6.585   1.129  0.3672 -0.6833 -1.7167
 4466TIP3   OH213361   0.972   6.253   2.930  0.8388 -0.1726 -0.2747
 4466TIP3    H113362   0.901   6.205   2.887  1.0908 -0.5194 -0.3036
 4466TIP3    H213363   0.947   6.255   3.022 -1.0363  2.8151 -0.7067
 4467TIP3   OH213364   2.624   1.891   2.445  0.3668  0.4324 -0.3236
 4467TIP3    H113365   2.629   1.813   2.389  1.0195 -0.3667  0.7990
 4467TIP3    H213366   2.700   1.883   2.503 -0.2175  1.3095  0.5822
 4468TIP3   OH213367   0.654   6.749   5.118 -0.2375  0.3347  0.3541
 4468TIP3    H113368   0.699   6.668   5.095 -0.3895  0.1007  0.8469
 4468TIP3    H213369   0.581   6.720   5.173  1.2995  0.9894  2.9345
 4469TIP3   OH213370   0.536   2.138   5.599 -0.0724 -0.2628  0.3687
 4469TIP3    H113371   0.572   2.081   5.531 -1.6707 -2.2024  1.0527
 4469TIP3    H213372   0.611   2.161   5.653  0.7275 -1.1606 -0.3230
 4470TIP3   OH213373   1.083   3.709   1.977  0.2088  0.5652 -0.0653
 4470TIP3    H113374   1.129   3.741   1.899 -1.1108  1.3907 -0.5275
 4470TIP3    H213375   1.123   3.757   2.050  1.8149 -0.5901 -0.1250
 4471TIP3   OH213376   0.385   4.927   4.606 -0.0242 -0.0424 -0.5050
 4471TIP3    H113377   0.476   4.941   4.630 -0.6225  2.1946  0.7634
 4471TIP3    H213378   0.383   4.939   4.511  0.8937  0.5164 -0.4610
 4472TIP3   OH213379   2.230   1.253   0.605 -0.2684 -0.3862  0.3913
 4472TIP3    H113380   2.244   1.329   0.660  0.9718  0.4299 -0.9848
 4472TIP3    H213381   2.279   1.183   0.647 -1.1326 -0.3571  1.4763
 4473TIP3   OH213382   1.100   3.969   3.623  0.1634  0.7710 -0.1044
 4473TIP3    H113383   1.065   3.987   3.710 -1.5583  3.6866 -1.2449
 4473TIP3    H213384   1.039   3.904   3.586 -0.2574  0.9840  0.1993
 4474TIP3   OH213385   0.806   0.771   4.139 -0.4893  0.6174 -0.2160
 4474TIP3    H113386   0.785   0.864   4.142 -1.1109  0.4679  2.4847
 4474TIP3    H213387   0.881   0.760   4.198 -0.1797 -0.5548 -0.7767
 4475TIP3   OH213388   3.220   2.583   0.988  0.6350  0.0323  0.4408
 4475TIP3    H113389   3.301   2.536   1.008 -0.0613 -1.5137 -0.2189
 4475TIP3    H213390   3.170   2.523   0.933 -1.2622  0.6735  1.3617
 4476TIP3   OH213391   4.531   2.616   5.336  0.4138  0.2449  0.3486
 4476TIP3    H113392   4.471   2.545   5.314  0.8632 -0.5442  1.5627
 4476TIP3    H213393   4.593   2.619   5.263 -0.6121  0.5474 -0.5309
 4477TIP3   OH213394   1.548   1.519   5.152  0.2867 -0.2353  0.0076
 4477TIP3    H113395   1.619   1.581   5.167  0.4335 -0.2407 -0.6217
 4477TIP3    H213396   1.482   1.569   5.104 -1.6422  0.7464  3.3289
 4478TIP3   OH213397   4.915   6.364   5.414 -0.0162  0.3978  0.7603
 4478TIP3    H113398   4.962   6.442   5.445 -2.2248  2.1524 -0.0681
 4478TIP3    H213399   4.871   6.330   5.491  0.0345  0.6535  0.9016
 4479TIP3   OH213400   5.519   6.396   5.469  0.1534  0.2085 -0.0401
 4479TIP3    H113401   5.503   6.433   5.556  0.6651  1.6927 -0.5425
 4479TIP3    H213402   5.440   6.416   5.419 -0.1045 -0.5673  0.0363
 4480TIP3   OH213403   6.292   5.559   4.881  0.5749 -0.1823  0.2148
 4480TIP3    H113404   6.270   5.620   4.951  0.1440 -0.7926  0.6271
 4480TIP3    H213405   6.356   5.500   4.920 -0.1307 -0.9078  0.2996
 4481TIP3   OH213406   7.144   3.142   4.957  0.4033 -0.2932  0.8673
 4481TIP3    H113407   7.107   3.174   5.039  0.7207  0.0796  0.8641
 4481TIP3    H213408   7.177   3.055   4.979 -0.2837 -0.5499  0.9192
 4482TIP3   OH213409   4.974   1.249   2.737 -0.2473 -0.9002 -0.1699
 4482TIP3    H113410   4.920   1.264   2.815  0.1161  0.5326 -0.1708
 4482TIP3    H213411   4.942   1.312   2.673  0.1182 -1.3914 -0.8449
 4483TIP3   OH213412   0.841   0.064   1.827  0.2677 -0.8316 -1.0390
 4483TIP3    H113413   0.901   0.122   1.875 -1.1163 -0.3631  0.2023
 4483TIP3    H213414   0.874   0.064   1.737 -0.1544  2.6118 -1.3376
 4484TIP3   OH213415   2.580   1.339   1.391 -0.0251 -0.4456  0.1340
 4484TIP3    H113416   2.526   1.387   1.328  2.2909  0.8025 -1.0440
 4484TIP3    H213417   2.620   1.407   1.445  0.7368 -1.2810  0.6505
 4485TIP3   OH213418   4.963   1.157   3.445  0.5540  0.2876 -0.1701
 4485TIP3    H113419   4.877   1.160   3.487 -0.4773  1.2269 -2.2174
 4485TIP3    H213420   5.025   1.157   3.518 -1.1419  1.4133  1.3679
 4486TIP3   OH213421   1.817   0.892   1.930 -0.0443  0.3401  0.5972
 4486TIP3    H113422   1.765   0.962   1.970 -0.6973  0.3623 -0.2480
 4486TIP3    H213423   1.903   0.930   1.917 -0.9931  1.8733 -2.0239
 4487TIP3   OH213424   0.767   2.389   1.057 -0.5034  0.1399  0.7048
 4487TIP3    H113425   0.681   2.369   1.020 -0.1963  0.9707 -0.5267
 4487TIP3    H213426   0.776   2.328   1.130 -1.4007 -1.1627 -0.2167
 4488TIP3   OH213427   4.787   0.015   0.849 -0.1918 -0.0540 -0.1061
 4488TIP3    H113428   4.802   0.088   0.909 -3.0509  2.7917 -2.4966
 4488TIP3    H213429   4.850   0.030   0.778  0.3327 -0.9268  0.1682
 4489TIP3   OH213430   6.515   6.685   3.202 -0.1351 -0.2755 -0.7131
 4489TIP3    H113431   6.531   6.748   3.132 -0.7965 -0.3482 -0.9322
 4489TIP3    H213432   6.597   6.683   3.251 -0.3993  1.4703 -0.1187
 4490TIP3   OH213433   7.074   3.632   0.116 -0.1337 -0.1527  0.0718
 4490TIP3    H113434   7.122   3.707   0.079  0.4693 -0.0811  0.9845
 4490TIP3    H213435   6.996   3.671   0.155 -0.9055 -0.2550 -1.2978
 4491TIP3   OH213436   3.905   0.165   3.088  0.7352  0.3654 -0.0165
 4491TIP3    H113437   3.838   0.188   3.023 -0.8635  2.7124  2.2580
 4491TIP3    H213438   3.909   0.069   3.084  0.1884  0.3480 -2.9734
 4492TIP3   OH213439   1.193   4.921   2.462 -0.3685  0.0448 -0.5084
 4492TIP3    H113440   1.102   4.948   2.478 -0.0594  1.7239 -1.3118
 4492TIP3    H213441   1.245   4.980   2.517  0.3111  0.6733 -1.7811
 4493TIP3   OH213442   4.428   1.776   5.649 -0.3689  0.1372 -0.2387
 4493TIP3    H113443   4.465   1.845   5.594  2.2491 -1.1590 -0.2548
 4493TIP3    H213444   4.457   1.694   5.607 -2.0731 -0.9706  0.6273
 4494TIP3   OH213445   6.592   4.526   0.161 -0.3893  0.2585 -0.7397
 4494TIP3    H113446   6.653   4.576   0.106  0.3291 -0.0338 -0.2377
 4494TIP3    H213447   6.563   4.588   0.227  0.1074  0.1643 -0.4212
 4495TIP3   OH213448   6.663   5.438   4.871  0.2640  0.2665 -0.2339
 4495TIP3    H113449   6.660   5.417   4.778  1.5710 -0.0485 -0.2154
 4495TIP3    H213450   6.588   5.392   4.908  0.4744 -0.6630 -0.9300
 4496TIP3   OH213451   2.332   1.080   2.407 -0.1441  0.2953  0.2533
 4496TIP3    H113452   2.402   1.018   2.387 -1.8416 -1.4219 -0.7293
 4496TIP3    H213453   2.360   1.162   2.366 -0.0197 -1.1620 -2.8945
 4497TIP3   OH213454   3.284   0.877   0.018 -0.5156 -0.2711  0.7561
 4497TIP3    H113455   3.193   0.865  -0.010 -0.1212  2.6662 -2.5651
 4497TIP3    H213456   3.281   0.953   0.077 -0.1358  1.3210 -1.1462
 4498TIP3   OH213457   2.361   3.681   4.371  0.4803  0.2521 -0.6458
 4498TIP3    H113458   2.430   3.631   4.327  1.7204  0.9707  0.4160
 4498TIP3    H213459   2.333   3.746   4.306  0.0256 -0.7228 -1.4513
 4499TIP3   OH213460   0.134   4.615   5.107 -0.6458  0.0950 -0.2461
 4499TIP3    H113461   0.230   4.623   5.106 -0.5375 -0.5459  1.4418
 4499TIP3    H213462   0.107   4.662   5.186 -1.4403 -1.9637  0.7832
 4500TIP3   OH213463   1.005   3.080   1.369 -0.0409 -0.2636 -0.1844
 4500TIP3    H113464   1.014   2.996   1.325 -0.5619 -0.7771  0.6680
 4500TIP3    H213465   1.095   3.106   1.390  0.0958 -0.7612 -0.1564
 4501TIP3   OH213466   1.624   1.087   1.588  0.2251  0.6082 -0.1224
 4501TIP3    H113467   1.678   1.013   1.558 -0.7497  0.1920 -0.9402
 4501TIP3    H213468   1.661   1.112   1.672  0.8883 -0.5000 -0.0652
 4502TIP3   OH213469   1.254   1.344   3.198  0.3746  0.4266 -0.8168
 4502TIP3    H113470   1.232   1.338   3.105 -0.2182  1.2395 -0.7409
 4502TIP3    H213471   1.297   1.261   3.218 -1.7506 -0.8268 -1.1921
 4503TIP3   OH213472   5.603   0.503   4.001  0.1182  0.1148 -0.0972
 4503TIP3    H113473   5.511   0.518   3.978 -0.0975 -1.2725 -0.2087
 4503TIP3    H213474   5.634   0.437   3.939  1.5310  1.3460 -0.7621
 4504TIP3   OH213475   1.939   0.188   2.984  0.1517 -0.1108 -0.2007
 4504TIP3    H113476   1.934   0.266   3.039 -0.6731 -0.0956 -0.2869
 4504TIP3    H213477   1.995   0.128   3.032  0.5960  0.4451 -0.0218
 4505TIP3   OH213478   5.419   2.334   0.796  0.2012  0.1509 -0.1195
 4505TIP3    H113479   5.365   2.257   0.782  0.8702 -0.2117 -0.7356
 4505TIP3    H213480   5.384   2.373   0.877  0.0365 -0.9423  0.3539
 4506TIP3   OH213481   2.845   4.677   4.245  0.2233  0.2559  0.3218
 4506TIP3    H113482   2.927   4.727   4.238  0.3172  0.1995  1.0300
 4506TIP3    H213483   2.776   4.742   4.230  0.3347  0.6686  1.4924
 4507TIP3   OH213484   4.555   6.597   2.537  0.3597 -0.1145  0.2995
 4507TIP3    H113485   4.515   6.669   2.586 -0.7800  0.9076 -1.9815
 4507TIP3    H213486   4.639   6.632   2.507 -0.6765  0.7908 -1.7645
 4508TIP3   OH213487   6.743   6.486   4.321 -0.4168  0.5010  0.2265
 4508TIP3    H113488   6.825   6.527   4.349 -0.0807 -0.7481  1.1048
 4508TIP3    H213489   6.741   6.501   4.226 -0.1555  2.2507  0.4533
 4509TIP3   OH213490   3.276   3.322   1.910 -0.5127  0.4329 -0.0503
 4509TIP3    H113491   3.281   3.409   1.950 -1.8911  0.9271 -0.8881
 4509TIP3    H213492   3.188   3.290   1.933  0.3904 -1.2689  1.2518
 4510TIP3   OH213493   1.553   6.088   5.691  0.7807  0.0717 -0.0450
 4510TIP3    H113494   1.519   6.159   5.745  0.6613 -0.7779  1.0383
 4510TIP3    H213495   1.648   6.097   5.697  0.7651  0.3943 -0.2653
 4511TIP3   OH213496   3.600   5.225   2.672  0.6691  0.5122 -1.5189
 4511TIP3    H113497   3.623   5.277   2.749  2.6559 -1.3067 -0.7905
 4511TIP3    H213498   3.663   5.251   2.606 -0.5495  1.5011 -2.3534
 4512TIP3   OH213499   2.719   6.615   2.737  0.1721 -0.3095  0.1168
 4512TIP3    H113500   2.729   6.710   2.751  1.0787 -0.3975  0.1122
 4512TIP3    H213501   2.684   6.608   2.648 -0.0911  0.0283  0.1887
 4513TIP3   OH213502   7.068   6.588   3.602 -0.9193  0.3811 -0.4209
 4513TIP3    H113503   7.013   6.661   3.574  0.2176  1.8784  1.0718
 4513TIP3    H213504   7.109   6.557   3.522 -0.8240  1.9114 -0.9947
 4514TIP3   OH213505   3.300   1.009   3.999 -0.1407  0.2157  0.6425
 4514TIP3    H113506   3.223   1.034   3.947 -0.1032 -0.5440  0.2157
 4514TIP3    H213507   3.308   1.079   4.064 -0.4322  0.9706 -0.1152
 4515TIP3   OH213508   7.156   5.747   3.229  0.2852  0.5679 -0.4480
 4515TIP3    H113509   7.182   5.660   3.199 -2.9537 -0.1425 -1.6888
 4515TIP3    H213510   7.206   5.761   3.309  1.0277 -2.4000 -0.2626
 4516TIP3   OH213511   1.348   0.466   1.008 -0.1216  0.7760  0.0399
 4516TIP3    H113512   1.307   0.402   0.949  0.4364  0.6969 -0.2737
 4516TIP3    H213513   1.277   0.522   1.037 -0.4371  0.6982 -0.5695
 4517TIP3   OH213514   4.527   4.909   3.953 -0.1450  0.0271 -0.1644
 4517TIP3    H113515   4.467   4.981   3.934  1.3313  0.5953 -3.1439
 4517TIP3    H213516   4.612   4.951   3.965  0.0425 -0.9071  2.5287
 4518TIP3   OH213517   6.518   6.310   3.360 -0.0714  0.2913  0.0760
 4518TIP3    H113518   6.437   6.359   3.343 -0.5499 -0.5211 -0.0244
 4518TIP3    H213519   6.490   6.219   3.370  0.9066 -0.1218 -0.6825
 4519TIP3   OH213520   5.002   1.181   1.110 -0.3412  0.2414  0.5910
 4519TIP3    H113521   5.008   1.249   1.178 -1.6616  0.2089  0.7581
 4519TIP3    H213522   5.075   1.200   1.052  1.0311  0.0777  2.1750
 4520TIP3   OH213523   1.033   4.691   1.519  0.5438 -0.1263  0.2692
 4520TIP3    H113524   1.070   4.769   1.478 -1.0750 -0.1604 -1.3901
 4520TIP3    H213525   0.992   4.723   1.599 -1.8263  1.1942 -1.3351
 4521TIP3   OH213526   3.957   1.575   0.175  0.3889  0.0712  0.2651
 4521TIP3    H113527   3.971   1.669   0.177 -0.4739  0.2348 -0.4545
 4521TIP3    H213528   3.951   1.549   0.267 -1.4117  1.0820  0.4869
 4522TIP3   OH213529   5.622   1.906   2.569 -0.0235 -0.0239  0.0500
 4522TIP3    H113530   5.570   1.981   2.539 -0.1778  0.0984  0.6034
 4522TIP3    H213531   5.704   1.913   2.520  0.3201  1.0223  0.7273
 4523TIP3   OH213532   5.882   2.364   0.227 -0.2027  0.2248 -0.1675
 4523TIP3    H113533   5.848   2.385   0.140 -0.1393 -1.6169 -0.6757
 4523TIP3    H213534   5.804   2.360   0.283 -0.5609 -1.1294 -0.7172
 4524TIP3   OH213535   5.731   6.024   0.825  0.0461 -0.6544  0.0237
 4524TIP3    H113536   5.779   6.015   0.907  0.7107  0.7172 -0.1982
 4524TIP3    H213537   5.686   5.940   0.814  0.1783 -0.9564  1.6382
 4525TIP3   OH213538   5.442   0.708   3.001 -0.4912 -0.5041  0.2970
 4525TIP3    H113539   5.487   0.635   2.959 -0.2101  0.2778 -0.8310
 4525TIP3    H213540   5.420   0.767   2.929 -1.4257  0.1453  1.0852
 4526TIP3   OH213541   6.733   5.038   1.973  0.6082 -0.1999 -0.7922
 4526TIP3    H113542   6.766   5.017   2.060  0.2332 -0.0421 -0.6058
 4526TIP3    H213543   6.645   4.999   1.971  0.2025  0.6853 -0.7166
 4527TIP3   OH213544   2.863   0.495   0.462 -0.5852 -0.0880  0.0251
 4527TIP3    H113545   2.911   0.527   0.386 -1.1349  0.8577  0.0540
 4527TIP3    H213546   2.802   0.430   0.427 -0.1946 -0.3320 -0.2007
 4528TIP3   OH213547   3.470   4.187   5.567 -0.8428  0.2103  0.1557
 4528TIP3    H113548   3.420   4.253   5.518 -0.8986  0.0533 -0.0035
 4528TIP3    H213549   3.421   4.106   5.553 -0.5748  0.0667  0.0505
 4529TIP3   OH213550   1.913   6.143   1.626  0.3740  0.2590  0.5512
 4529TIP3    H113551   1.876   6.194   1.698 -0.9589 -0.5166  0.4337
 4529TIP3    H213552   1.895   6.194   1.548 -1.3211 -0.5408  0.3867
 4530TIP3   OH213553   0.252   3.708   3.191  0.0191 -0.1005 -0.5291
 4530TIP3    H113554   0.158   3.718   3.207  0.2971  0.0662  1.2526
 4530TIP3    H213555   0.273   3.621   3.224  0.7269  0.4187  0.4581
 4531TIP3   OH213556   2.464   2.724   2.740  0.4981 -0.2415  0.3670
 4531TIP3    H113557   2.397   2.658   2.761  0.2400 -0.2139 -0.3469
 4531TIP3    H213558   2.498   2.751   2.825 -1.0567  0.4151  0.8199
 4532TIP3   OH213559   3.909   0.003   0.421  0.0972  0.5579 -0.1154
 4532TIP3    H113560   3.887   0.073   0.483  0.8914 -0.2558  1.1345
 4532TIP3    H213561   3.939  -0.069   0.476  0.0141 -0.5142 -1.4192
 4533TIP3   OH213562   2.036   1.852   4.676 -0.3094  0.9104 -1.0558
 4533TIP3    H113563   2.059   1.900   4.756 -0.6944  0.4372 -0.6620
 4533TIP3    H213564   2.032   1.920   4.608  2.1302  1.0779 -1.1515
 4534TIP3   OH213565   0.319   4.764   0.945 -0.4229 -0.1519 -0.4269
 4534TIP3    H113566   0.376   4.819   0.890  0.8755 -2.8294 -1.9897
 4534TIP3    H213567   0.368   4.682   0.955 -1.8899 -0.7972  2.4766
 4535TIP3   OH213568   3.810   2.471   1.866 -0.2209 -0.1697 -0.4117
 4535TIP3    H113569   3.786   2.564   1.859 -1.7149 -0.4801  0.2359
 4535TIP3    H213570   3.847   2.450   1.780 -1.4570  0.6044 -1.1715
 4536TIP3   OH213571   3.772   4.211   5.551 -0.2607  0.0937 -0.4502
 4536TIP3    H113572   3.752   4.135   5.605 -0.0163  1.0352  1.0440
 4536TIP3    H213573   3.688   4.254   5.538 -0.3817 -0.3605 -1.1935
 4537TIP3   OH213574   6.252   3.533   4.358 -0.0050  0.5473  0.1055
 4537TIP3    H113575   6.342   3.555   4.332 -0.4167  1.7477 -0.3621
 4537TIP3    H213576   6.200   3.545   4.279 -0.6576  0.2504  0.4763
 4538TIP3   OH213577   3.689   1.315   4.344  0.0058  0.0504 -0.4367
 4538TIP3    H113578   3.612   1.333   4.398  0.3865 -0.7323  0.3944
 4538TIP3    H213579   3.762   1.319   4.405  0.3983 -1.2893 -0.7861
 4539TIP3   OH213580   1.970   2.379   1.511 -0.0825 -0.6140  0.0604
 4539TIP3    H113581   1.955   2.368   1.605  0.5898 -1.5972  0.0662
 4539TIP3    H213582   1.956   2.291   1.474  1.3775 -0.6338 -0.5027
 4540TIP3   OH213583   0.739   4.562   1.659 -0.3298  0.3097  0.4679
 4540TIP3    H113584   0.822   4.549   1.613 -0.5614  0.6183 -0.0371
 4540TIP3    H213585   0.704   4.473   1.669 -1.0356  0.3496 -1.3757
 4541TIP3   OH213586   3.925   2.064   3.760  0.0021  0.5845 -0.0576
 4541TIP3    H113587   3.928   2.098   3.850 -0.7827 -0.0282  0.2112
 4541TIP3    H213588   4.009   2.090   3.722  1.0435 -0.5531  1.3600
 4542TIP3   OH213589   0.153   4.040   5.661  0.6375  0.0422 -0.7134
 4542TIP3    H113590   0.086   4.103   5.687  0.2214 -0.5015 -0.4468
 4542TIP3    H213591   0.158   3.979   5.735  0.2812 -0.8491 -1.4044
 4543TIP3   OH213592   3.514   5.496   2.778 -0.2310 -0.6802 -0.4380
 4543TIP3    H113593   3.532   5.523   2.688 -0.7925 -0.3563 -0.4557
 4543TIP3    H213594   3.585   5.534   2.829  0.6493 -1.6900 -0.8674
 4544TIP3   OH213595   6.005   2.116   3.132 -0.1294 -0.4222  0.0319
 4544TIP3    H113596   6.099   2.125   3.147 -0.0287 -0.0342 -0.7708
 4544TIP3    H213597   5.983   2.189   3.075 -1.1456  0.1650  1.1301
 4545TIP3   OH213598   4.581   6.288   5.392  0.6795  0.1981  0.1229
 4545TIP3    H113599   4.531   6.213   5.424 -0.8507  1.0922 -0.0889
 4545TIP3    H213600   4.592   6.344   5.469 -0.6753  1.0792 -0.2873
 4546TIP3   OH213601   2.856   5.739   5.050 -0.1560  0.2170 -0.0459
 4546TIP3    H113602   2.798   5.678   5.096 -2.3094  1.4907 -0.9052
 4546TIP3    H213603   2.944   5.702   5.063 -1.3183 -3.2332 -0.7897
 4547TIP3   OH213604   7.008   3.542   2.375 -0.0739 -0.5245 -0.1002
 4547TIP3    H113605   7.085   3.485   2.374 -0.2535 -0.7679 -0.9868
 4547TIP3    H213606   7.030   3.612   2.314 -0.6812 -0.7885 -0.6414
 4548TIP3   OH213607   0.298   3.564   5.070  0.3054 -0.0655  0.0182
 4548TIP3    H113608   0.237   3.621   5.118  0.0075 -0.1791 -0.2169
 4548TIP3    H213609   0.378   3.615   5.064 -0.4812  1.0821 -1.6744
 4549TIP3   OH213610   2.258   4.831   1.396 -0.2557  0.0044 -0.3542
 4549TIP3    H113611   2.331   4.849   1.337  0.6833 -0.6831  0.5618
 4549TIP3    H213612   2.199   4.775   1.345  0.0015  0.3015 -0.9933
 4550TIP3   OH213613   6.458   2.161   3.469 -0.0064  0.0456 -0.2411
 4550TIP3    H113614   6.414   2.213   3.536  0.7246  0.1440  0.1697
 4550TIP3    H213615   6.421   2.193   3.387  1.5875  2.4306 -0.1392
 4551TIP3   OH213616   1.174   1.553   1.231 -0.1279 -0.6032 -0.5192
 4551TIP3    H113617   1.100   1.552   1.291 -1.0546 -1.9950 -1.6239
 4551TIP3    H213618   1.134   1.557   1.143  1.0418 -2.0200 -1.1601
 4552TIP3   OH213619   0.863   2.988   3.904  0.1885 -0.2544  0.2429
 4552TIP3    H113620   0.897   2.899   3.901 -0.4221 -0.4660 -2.4694
 4552TIP3    H213621   0.898   3.031   3.826  0.4214  1.9168  1.4388
 4553TIP3   OH213622   3.629   2.711   4.139 -0.1351 -0.1993 -0.4042
 4553TIP3    H113623   3.630   2.805   4.153 -0.3561 -0.1020 -1.0161
 4553TIP3    H213624   3.538   2.691   4.116 -0.8144 -0.9980  2.5401
 4554TIP3   OH213625   6.310   5.819   5.368  0.1640  0.5435  0.0418
 4554TIP3    H113626   6.216   5.826   5.352 -0.0800 -2.9389 -0.8762
 4554TIP3    H213627   6.319   5.826   5.463 -1.0211  1.0133  0.1262
 4555TIP3   OH213628   3.138   0.163   3.668  0.7681  0.0041 -0.6595
 4555TIP3    H113629   3.098   0.212   3.739 -0.9105 -0.2144 -1.4052
 4555TIP3    H213630   3.087   0.082   3.662  1.4778 -0.4054 -1.4996
 4556TIP3   OH213631   3.497   1.082   4.603  0.6268  0.5767  0.3090
 4556TIP3    H113632   3.589   1.080   4.575  0.0749 -0.0899 -1.6346
 4556TIP3    H213633   3.462   1.161   4.561  0.1400  0.4205  0.4181
 4557TIP3   OH213634   6.398   0.704   3.763 -0.0426  0.3192  0.1368
 4557TIP3    H113635   6.380   0.668   3.850  1.2101 -1.0445 -0.1213
 4557TIP3    H213636   6.379   0.632   3.703  0.9585  0.5999 -0.5412
 4558TIP3   OH213637   4.527   2.502   2.883 -0.1564  0.1006 -0.8458
 4558TIP3    H113638   4.444   2.454   2.883  1.1678 -2.4414 -1.8522
 4558TIP3    H213639   4.544   2.519   2.790  0.8148 -0.1843 -0.7353
 4559TIP3   OH213640   7.109   2.871   2.725 -0.6080 -0.3139 -0.2213
 4559TIP3    H113641   7.019   2.893   2.749 -0.6298 -2.3163  1.8382
 4559TIP3    H213642   7.162   2.938   2.767 -0.9423 -1.4871  2.2680
 4560TIP3   OH213643   3.519   3.564   4.473 -0.0780 -0.2017  0.0714
 4560TIP3    H113644   3.605   3.544   4.511 -0.6536 -1.2058  0.8739
 4560TIP3    H213645   3.498   3.487   4.420 -0.9490 -0.4306  0.7296
 4561TIP3   OH213646   4.306   4.926   3.046  0.3665 -0.1277 -0.7013
 4561TIP3    H113647   4.271   4.843   3.013  0.0518 -0.1624 -0.2926
 4561TIP3    H213648   4.383   4.902   3.097  0.5969 -0.1141 -1.0373
 4562TIP3   OH213649   6.645   3.483   3.482 -0.9380  0.2051 -0.0069
 4562TIP3    H113650   6.681   3.472   3.394  1.6058  2.0430  0.7029
 4562TIP3    H213651   6.605   3.570   3.482  0.3270  0.8301  0.9700
 4563TIP3   OH213652   5.181   3.158   0.669  0.5144 -0.2326 -0.1715
 4563TIP3    H113653   5.153   3.164   0.578  0.6733 -3.7049 -0.5944
 4563TIP3    H213654   5.121   3.215   0.717  0.7868  2.1347 -2.4353
 4564TIP3   OH213655   6.995   0.412   1.525 -0.1997 -0.3243  0.1587
 4564TIP3    H113656   7.001   0.426   1.430 -0.9279 -0.6066  0.0682
 4564TIP3    H213657   7.039   0.328   1.539  0.9392  0.2672  0.2304
 4565TIP3   OH213658   3.407   5.516   4.041  0.2704 -0.0272  0.2014
 4565TIP3    H113659   3.483   5.505   3.984  0.4856 -0.7147  0.6077
 4565TIP3    H213660   3.362   5.431   4.037 -0.9922  0.6550 -0.7602
 4566TIP3   OH213661   2.406   5.261   5.407  0.0520 -0.4016 -0.2294
 4566TIP3    H113662   2.319   5.267   5.448  0.8167  0.1106  1.3797
 4566TIP3    H213663   2.444   5.347   5.419  0.2620 -0.1442 -2.2705
 4567TIP3   OH213664   1.184   3.744   5.074 -0.3711 -0.5797  0.1016
 4567TIP3    H113665   1.204   3.762   5.166  0.2560 -1.2461  0.1097
 4567TIP3    H213666   1.096   3.705   5.075 -0.7325  0.2352  0.3198
 4568TIP3   OH213667   7.078   4.476   5.460 -0.1874 -0.2273 -1.0434
 4568TIP3    H113668   7.116   4.389   5.465  0.8716  0.1785 -1.7027
 4568TIP3    H213669   7.145   4.534   5.497 -1.6636  0.1204  1.2808
 4569TIP3   OH213670   4.907   6.111   3.382 -0.1121  0.5250  0.3517
 4569TIP3    H113671   4.812   6.114   3.390  0.0022  1.6824  1.5699
 4569TIP3    H213672   4.933   6.038   3.438 -0.3159 -0.3634 -0.6697
 4570TIP3   OH213673   6.338   3.299   2.977  0.0982 -0.4588  0.2367
 4570TIP3    H113674   6.310   3.237   2.909 -0.9452 -0.3994  0.5854
 4570TIP3    H213675   6.296   3.267   3.057 -0.4475  0.6829  0.4281
 4571TIP3   OH213676   5.394   1.753   4.408 -0.1687 -0.3874  0.5266
 4571TIP3    H113677   5.345   1.833   4.389  0.9193  0.3468  0.7579
 4571TIP3    H213678   5.420   1.761   4.499  1.9398  0.1244 -0.0645
 4572TIP3   OH213679   0.305   6.363   2.406  0.0490  0.0534  0.0184
 4572TIP3    H113680   0.297   6.398   2.317  0.3745  0.1265  0.0160
 4572TIP3    H213681   0.351   6.280   2.395 -2.0256 -1.1582 -0.1472
 4573TIP3   OH213682   1.336   1.316   2.653  0.0619 -0.1583 -0.3910
 4573TIP3    H113683   1.394   1.256   2.606  1.7455  2.6551 -2.1680
 4573TIP3    H213684   1.377   1.327   2.738  0.3601 -0.6053 -0.4734
 4574TIP3   OH213685   5.823   5.742   3.646  0.5300  0.1439  0.1492
 4574TIP3    H113686   5.844   5.681   3.716  0.9657 -0.9759 -0.9147
 4574TIP3    H213687   5.862   5.703   3.568  1.4915  2.1710 -0.4507
 4575TIP3   OH213688   0.453   5.056   5.090  0.3405  0.9508 -0.2611
 4575TIP3    H113689   0.446   4.989   5.021  1.8030  1.5779 -1.0587
 4575TIP3    H213690   0.455   5.006   5.172 -0.7588  0.1536 -0.7017
 4576TIP3   OH213691   2.422   4.902   4.386 -0.3210  0.0276  0.0297
 4576TIP3    H113692   2.441   4.880   4.477  0.1344 -1.5243 -0.4038
 4576TIP3    H213693   2.489   4.854   4.336  0.3582  2.0090 -1.0612
 4577TIP3   OH213694   3.169   6.042   4.247 -0.6518 -0.2158  0.5381
 4577TIP3    H113695   3.138   6.113   4.302 -1.1942 -0.1399  0.1419
 4577TIP3    H213696   3.182   6.083   4.161 -0.5238 -0.4962  0.4223
 4578TIP3   OH213697   6.791   4.078   3.096 -0.5058  0.3674 -0.1311
 4578TIP3    H113698   6.742   4.158   3.073 -1.2386 -0.4997 -1.7681
 4578TIP3    H213699   6.848   4.105   3.168  1.2892  3.1466 -2.3535
 4579TIP3   OH213700   6.826   0.047   4.511 -0.2523 -0.3715 -0.9675
 4579TIP3    H113701   6.737   0.024   4.484 -1.2550  1.2445  0.6779
 4579TIP3    H213702   6.847  -0.016   4.581 -1.5087  1.2177  0.9555
 4580TIP3   OH213703   2.734   5.342   0.041 -0.0773 -0.1171 -0.1615
 4580TIP3    H113704   2.827   5.347   0.063  0.4492 -1.1501 -1.8919
 4580TIP3    H213705   2.726   5.261  -0.010 -1.9457 -0.0867  0.0061
 4581TIP3   OH213706   7.082   0.484   5.128  0.3667 -0.2503 -0.7607
 4581TIP3    H113707   7.036   0.443   5.201  0.7820 -1.2545 -1.0488
 4581TIP3    H213708   7.014   0.498   5.062 -0.0871  1.0201 -0.0542
 4582TIP3   OH213709   3.020   0.426   4.765 -0.0184 -0.2904 -0.5820
 4582TIP3    H113710   3.097   0.483   4.755 -2.6985  3.7281 -0.6305
 4582TIP3    H213711   3.031   0.386   4.851  1.6923  0.9531 -0.1611
 4583TIP3   OH213712   4.920   3.226   0.204  0.3931 -0.1636  0.4383
 4583TIP3    H113713   4.963   3.148   0.171  1.9062 -0.5777  3.0812
 4583TIP3    H213714   4.990   3.279   0.241 -0.9604  0.7589  1.8487
 4584TIP3   OH213715   0.897   6.261   3.205  0.1565 -0.0763  0.2443
 4584TIP3    H113716   0.924   6.184   3.255  1.3692 -0.3569 -0.7744
 4584TIP3    H213717   0.820   6.294   3.250  1.2637 -0.2260  2.3463
 4585TIP3   OH213718   3.923   2.235   3.468 -0.4022  0.1737 -0.7512
 4585TIP3    H113719   3.949   2.287   3.391  0.9763  0.2046 -0.3057
 4585TIP3    H213720   3.963   2.281   3.542  1.4623 -1.8105 -0.3958
 4586TIP3   OH213721   4.944   1.703   2.474 -0.2903  0.0063  0.3010
 4586TIP3    H113722   4.889   1.771   2.515 -2.6953 -3.4701  3.4848
 4586TIP3    H213723   4.913   1.699   2.383  0.1441  3.1857 -0.1026
 4587TIP3   OH213724   4.595   1.230   5.493  1.4210  0.3137 -0.0551
 4587TIP3    H113725   4.656   1.227   5.419 -0.2637 -1.7543 -1.4472
 4587TIP3    H213726   4.513   1.195   5.459 -0.3480  2.1189  2.0093
 4588TIP3   OH213727   5.353   3.378   1.157  0.7628  0.2765  0.1554
 4588TIP3    H113728   5.377   3.287   1.140  0.0107  0.4860 -2.3467
 4588TIP3    H213729   5.434   3.418   1.188  1.2896 -1.0593  0.6010
 4589TIP3   OH213730   0.555   4.570   2.249  0.2835  0.0242 -0.8445
 4589TIP3    H113731   0.558   4.529   2.335  0.7965  1.0824 -0.3444
 4589TIP3    H213732   0.630   4.630   2.248  0.0311  0.3460 -1.8668
 4590TIP3   OH213733   3.609   3.466   3.143  0.1032  0.1138 -0.4236
 4590TIP3    H113734   3.696   3.482   3.181 -0.0207 -1.8086  0.8264
 4590TIP3    H213735   3.548   3.483   3.215 -0.5431  0.9823 -1.1534
 4591TIP3   OH213736   3.053   1.782   3.153  0.3906  0.1182  0.4976
 4591TIP3    H113737   3.030   1.788   3.061 -0.9611 -0.9321  0.7440
 4591TIP3    H213738   2.992   1.842   3.197  1.0403  0.6297  0.7262
 4592TIP3   OH213739   6.069   0.408   0.804 -1.0783 -0.2410  0.6280
 4592TIP3    H113740   6.088   0.455   0.885 -0.2160  2.1940 -0.8685
 4592TIP3    H213741   6.134   0.339   0.801  0.1438  0.8395  1.1451
 4593TIP3   OH213742   0.686   3.189   5.767  0.1451 -0.2935  0.4078
 4593TIP3    H113743   0.773   3.223   5.787 -0.0613  0.8580 -0.5347
 4593TIP3    H213744   0.690   3.166   5.674 -0.7943  0.6269  0.1138
 4594TIP3   OH213745   6.772   0.347   2.616  0.4974 -1.0143 -0.4304
 4594TIP3    H113746   6.841   0.363   2.552  0.3907  2.3695  0.1019
 4594TIP3    H213747   6.815   0.295   2.684  1.6191 -1.6288 -1.5699
 4595TIP3   OH213748   1.489   3.393   1.586 -0.0222  0.7395 -0.6714
 4595TIP3    H113749   1.435   3.315   1.586  1.5200 -0.4213 -2.6967
 4595TIP3    H213750   1.570   3.366   1.630 -0.3659  1.9533  0.8040
 4596TIP3   OH213751   5.825   5.945   2.379  0.1137 -0.3247 -0.2738
 4596TIP3    H113752   5.899   5.961   2.320  0.8716  1.7993  1.1297
 4596TIP3    H213753   5.772   6.025   2.374 -1.7765 -1.5558 -0.7648
 4597TIP3   OH213754   3.039   0.127   5.505  0.0545  0.3825  0.8172
 4597TIP3    H113755   3.012   0.205   5.554  0.2096 -0.1499  1.7750
 4597TIP3    H213756   2.984   0.057   5.539  0.7070 -0.1560  0.7864
 4598TIP3   OH213757   4.440   5.382   1.241  0.4575  0.1917  0.5815
 4598TIP3    H113758   4.398   5.299   1.218  0.7098  0.0588  0.5942
 4598TIP3    H213759   4.402   5.446   1.181  1.7672 -0.3089 -0.8585
 4599TIP3   OH213760   3.765   4.028   2.310 -0.3519 -0.0668 -0.1254
 4599TIP3    H113761   3.732   3.958   2.254 -0.2371 -0.5630  0.4168
 4599TIP3    H213762   3.747   3.998   2.399  2.0359 -0.6319  0.2298
 4600TIP3   OH213763   1.017   3.804   0.327  0.2592  0.0614  0.1211
 4600TIP3    H113764   1.054   3.760   0.250 -1.1947 -1.8383  0.4246
 4600TIP3    H213765   1.031   3.897   0.310  0.6056 -0.3316 -2.1203
 4601TIP3   OH213766   3.385   5.983   1.177  0.1743 -0.2461 -0.1332
 4601TIP3    H113767   3.436   5.977   1.258  1.3680 -2.4775 -0.9615
 4601TIP3    H213768   3.434   6.045   1.123  1.2019 -1.1631 -0.3106
 4602TIP3   OH213769   0.760   3.435   2.785  0.5516 -0.2644  0.4949
 4602TIP3    H113770   0.828   3.367   2.785  1.0235  0.1990  0.5939
 4602TIP3    H213771   0.734   3.443   2.877 -0.7272 -1.4981  0.2699
 4603TIP3   OH213772   5.204   0.798   4.466 -0.0825  0.5244  0.4483
 4603TIP3    H113773   5.165   0.877   4.504 -0.6020  0.0987  0.8033
 4603TIP3    H213774   5.241   0.751   4.541 -0.2678  0.1575  0.3140
 4604TIP3   OH213775   6.101   0.794   1.105 -0.3715 -0.1172  0.4658
 4604TIP3    H113776   6.063   0.719   1.060 -1.5999  0.7816 -0.0639
 4604TIP3    H213777   6.183   0.761   1.143  0.2557 -1.1520 -1.6410
 4605TIP3   OH213778   2.336   2.929   2.489 -0.0433  0.2892 -0.6392
 4605TIP3    H113779   2.329   3.021   2.515  1.6795  0.1021  0.6628
 4605TIP3    H213780   2.390   2.889   2.557  0.0248 -1.4929 -1.6831
 4606TIP3   OH213781   3.260   0.960   4.666  0.1401  0.2897  0.2220
 4606TIP3    H113782   3.312   1.037   4.645  2.6325 -1.0913  0.9364
 4606TIP3    H213783   3.323   0.897   4.702 -1.7208 -2.1859 -0.5408
 4607TIP3   OH213784   6.278   1.730   1.915  0.2624  0.1933 -0.1061
 4607TIP3    H113785   6.283   1.758   1.824  0.7778 -0.0799 -0.1622
 4607TIP3    H213786   6.279   1.812   1.965  1.5038  0.2907 -0.2799
 4608TIP3   OH213787   2.458   6.110   0.369  0.3462 -0.2560  0.3550
 4608TIP3    H113788   2.416   6.148   0.292  0.1428 -0.3063  0.4402
 4608TIP3    H213789   2.516   6.179   0.401  0.6366 -0.3299  0.0015
 4609TIP3   OH213790   2.748   1.136   2.949 -0.4036 -0.1879  0.0102
 4609TIP3    H113791   2.714   1.223   2.933 -0.2013 -0.2540 -0.8373
 4609TIP3    H213792   2.822   1.128   2.890  0.1753 -0.5872  0.7677
 4610TIP3   OH213793   5.400   3.311   2.581 -0.0206 -0.0553 -0.6474
 4610TIP3    H113794   5.384   3.219   2.559 -1.1682  0.1305 -0.6502
 4610TIP3    H213795   5.485   3.310   2.624 -0.0469 -1.1295 -0.5763
 4611TIP3   OH213796   4.471   4.084   5.069  0.6484  0.2229  0.0262
 4611TIP3    H113797   4.395   4.135   5.039 -0.1364 -0.4117  0.8904
 4611TIP3    H213798   4.515   4.058   4.988 -0.6273 -0.2477 -0.5447
 4612TIP3   OH213799   4.682   3.762   3.376 -0.0223  0.1306 -0.6511
 4612TIP3    H113800   4.692   3.667   3.384  0.9658  0.0128 -2.7693
 4612TIP3    H213801   4.619   3.773   3.305  0.3390  1.0645 -0.8289
 4613TIP3   OH213802   4.257   4.156   0.379 -0.0606  0.1561 -0.5062
 4613TIP3    H113803   4.263   4.163   0.284 -0.9666  0.3134 -0.5537
 4613TIP3    H213804   4.195   4.085   0.394  0.2614 -0.0299 -0.0301
 4614TIP3   OH213805   2.198   4.558   2.383 -0.2726 -0.7413 -0.3885
 4614TIP3    H113806   2.107   4.573   2.359 -0.1541  0.3906 -0.1728
 4614TIP3    H213807   2.198   4.471   2.424 -1.6947  0.2417  1.8305
 4615TIP3   OH213808   1.408   1.719   1.260  0.2806  0.3187 -0.2200
 4615TIP3    H113809   1.325   1.674   1.242  0.1026  0.3496  0.4712
 4615TIP3    H213810   1.419   1.710   1.355  1.8933 -1.1084 -0.4956
 4616TIP3   OH213811   6.129   6.256   3.758  0.7503 -0.1517 -0.0113
 4616TIP3    H113812   6.216   6.216   3.756  1.8092  1.9236  1.1501
 4616TIP3    H213813   6.145   6.349   3.744 -1.4471  0.1208 -1.1088
 4617TIP3   OH213814   0.516   3.551   2.260 -0.5355 -0.2957  0.0109
 4617TIP3    H113815   0.568   3.473   2.238 -0.0657  0.5883 -2.3680
 4617TIP3    H213816   0.462   3.524   2.334  0.4233 -2.5183 -0.0167
 4618TIP3   OH213817   4.340   1.887   5.893 -0.5665  0.5111 -0.3611
 4618TIP3    H113818   4.387   1.969   5.884  0.7750  0.0415  1.7285
 4618TIP3    H213819   4.372   1.833   5.819  2.1957  0.2639  0.8739
 4619TIP3   OH213820   5.105   6.555   1.523  0.3612  0.1889 -0.3386
 4619TIP3    H113821   5.013   6.573   1.505  0.4981 -0.3468 -1.6415
 4619TIP3    H213822   5.114   6.460   1.512  1.0257  0.2020  0.0064
 4620TIP3   OH213823   0.914   3.973   4.064 -0.5626 -0.5283 -0.0684
 4620TIP3    H113824   0.905   3.977   3.969  0.3967 -0.5380 -0.1625
 4620TIP3    H213825   1.003   4.003   4.082 -1.1342  0.6708  0.9286
 4621TIP3   OH213826   7.214   4.024   2.067 -0.6039 -0.3188 -0.3998
 4621TIP3    H113827   7.265   3.942   2.066 -2.4467 -1.5099 -0.7375
 4621TIP3    H213828   7.128   3.998   2.100 -1.8712  1.0781 -2.4100
 4622TIP3   OH213829   5.240   2.407   0.107  0.5746 -0.0889  0.0789
 4622TIP3    H113830   5.324   2.435   0.070  0.9667 -2.1519 -0.7558
 4622TIP3    H213831   5.188   2.381   0.031 -0.3050 -0.1505  0.6889
 4623TIP3   OH213832   3.733   1.011   4.043 -0.3367 -0.0034 -0.2090
 4623TIP3    H113833   3.806   1.070   4.023  1.4315 -2.4414 -1.5274
 4623TIP3    H213834   3.671   1.025   3.971 -0.4822  0.9878  0.0906
 4624TIP3   OH213835   7.050   1.440   3.796  0.0293  1.1326 -0.5145
 4624TIP3    H113836   7.051   1.345   3.807  0.8898  1.2036  0.2064
 4624TIP3    H213837   7.131   1.469   3.839  0.4498  2.0673 -1.8693
 4625TIP3   OH213838   0.202   5.932   0.685 -0.0432 -0.1440  0.1311
 4625TIP3    H113839   0.245   6.018   0.677  1.5030 -0.7362  1.4865
 4625TIP3    H213840   0.269   5.876   0.724 -1.0749 -1.9495 -0.6168
 4626TIP3   OH213841   0.844   1.168   4.619 -0.6734 -0.0201 -0.0359
 4626TIP3    H113842   0.888   1.095   4.662  2.9381  1.9780  0.0560
 4626TIP3    H213843   0.817   1.133   4.534  1.6670 -1.3206 -0.3260
 4627TIP3   OH213844   5.209   5.727   3.486 -0.3892 -0.0530  0.0243
 4627TIP3    H113845   5.242   5.746   3.398  0.4045  1.8703  0.6817
 4627TIP3    H213846   5.191   5.813   3.524 -4.0858 -0.9185  0.5648
 4628TIP3   OH213847   4.429   3.335   0.143  0.3845 -0.4328 -0.4016
 4628TIP3    H113848   4.399   3.341   0.052  0.7311  1.3937 -0.4352
 4628TIP3    H213849   4.517   3.298   0.137 -0.3608 -2.2476 -0.6134
 4629TIP3   OH213850   6.732   3.146   5.688 -0.4797  0.2995  0.5585
 4629TIP3    H113851   6.721   3.128   5.595 -1.4996  1.1559  0.4958
 4629TIP3    H213852   6.726   3.061   5.731  0.1993 -0.1225 -0.1679
 4630TIP3   OH213853   3.640   2.594   1.317 -0.4942 -0.4022  0.2504
 4630TIP3    H113854   3.624   2.629   1.404  0.0947 -0.1281  0.2568
 4630TIP3    H213855   3.726   2.551   1.324  1.0176  2.2085 -0.9168
 4631TIP3   OH213856   6.370   5.296   2.463 -0.0998 -0.1340  0.0153
 4631TIP3    H113857   6.440   5.274   2.525 -0.1219 -0.6624 -0.1406
 4631TIP3    H213858   6.290   5.266   2.506 -0.2731  0.7407  0.3264
 4632TIP3   OH213859   3.502   3.504   5.609  0.8309 -0.1736  0.1989
 4632TIP3    H113860   3.478   3.411   5.608  0.0145 -0.0880  3.0988
 4632TIP3    H213861   3.423   3.549   5.578 -0.3720 -0.3092  2.7821
 4633TIP3   OH213862   5.363   6.502   3.920 -0.0071  0.2335  0.0841
 4633TIP3    H113863   5.272   6.533   3.927  0.1850  0.4304  3.2974
 4633TIP3    H213864   5.415   6.574   3.956  1.0634 -1.2028  1.5320
 4634TIP3   OH213865   2.958   1.954   5.498  0.1074 -0.0636 -0.3442
 4634TIP3    H113866   3.038   2.000   5.526 -0.5053  0.1609  1.1733
 4634TIP3    H213867   2.897   2.024   5.474  0.3412 -0.2339 -1.4724
 4635TIP3   OH213868   1.092   5.565   2.076  0.2392  0.4493 -0.5091
 4635TIP3    H113869   1.044   5.644   2.101 -0.2690 -0.3856  1.3558
 4635TIP3    H213870   1.025   5.497   2.074  0.7020  0.0082 -1.9231
 4636TIP3   OH213871   2.590   0.914   2.339  0.3256 -0.0705 -0.0151
 4636TIP3    H113872   2.558   0.829   2.308 -0.3263  0.4452 -0.7954
 4636TIP3    H213873   2.653   0.941   2.272  1.1681 -0.3006  0.6562
 4637TIP3   OH213874   3.350   2.485   4.735  0.7347  0.0866  0.0557
 4637TIP3    H113875   3.409   2.465   4.808 -0.1481 -2.1993  0.2285
 4637TIP3    H213876   3.276   2.529   4.776  0.5497 -0.5784  0.4546
 4638TIP3   OH213877   3.644   3.338   1.374  0.4520  0.2630 -0.0491
 4638TIP3    H113878   3.656   3.262   1.318 -0.5742  0.9284 -1.2473
 4638TIP3    H213879   3.699   3.406   1.335 -0.2719  0.7370 -0.2593
 4639TIP3   OH213880   6.322   5.688   2.563  0.0031  0.0276  0.5588
 4639TIP3    H113881   6.317   5.783   2.573  2.2081  0.2020  0.4208
 4639TIP3    H213882   6.273   5.653   2.638 -3.3782  1.1739 -0.9362
 4640TIP3   OH213883   4.913   5.532   2.459  0.1596 -0.4589  0.0275
 4640TIP3    H113884   4.896   5.454   2.513  2.2706 -0.6982  0.4137
 4640TIP3    H213885   4.999   5.562   2.486 -0.3240  1.6518 -0.6049
 4641TIP3   OH213886   0.033   1.600   2.827  0.6494 -0.4458  0.1191
 4641TIP3    H113887   0.045   1.526   2.887  1.0325 -0.1363  0.4301
 4641TIP3    H213888   0.120   1.638   2.818  0.3008  0.4880  0.6330
 4642TIP3   OH213889   0.279   3.713   2.825  0.4176  0.3481  0.2096
 4642TIP3    H113890   0.203   3.690   2.771  1.3184 -0.2557 -0.8356
 4642TIP3    H213891   0.271   3.657   2.902  0.2705 -0.3477 -0.3020
 4643TIP3   OH213892   4.271   5.864   1.027  0.2797 -0.0094  0.3953
 4643TIP3    H113893   4.274   5.810   1.106  1.1681 -0.8265 -0.1838
 4643TIP3    H213894   4.253   5.803   0.956  1.3173  0.4467 -0.2750
 4644TIP3   OH213895   0.984   3.133   4.623  0.6989  0.6080  0.5377
 4644TIP3    H113896   1.024   3.118   4.709  1.0522 -2.8157 -0.0862
 4644TIP3    H213897   0.925   3.058   4.610 -0.1674  1.5806 -1.7823
 4645TIP3   OH213898   0.017   3.815   4.606  0.2474 -0.7844 -0.2663
 4645TIP3    H113899   0.034   3.761   4.684 -2.2141 -0.4893  0.5400
 4645TIP3    H213900   0.064   3.896   4.623 -0.0845 -0.8048  0.8322
 4646TIP3   OH213901   2.423   6.530   0.861 -0.1267  0.3025 -0.1942
 4646TIP3    H113902   2.517   6.541   0.844  0.4139 -1.1433  1.5379
 4646TIP3    H213903   2.387   6.618   0.858  1.4045  0.9584 -0.2328
 4647TIP3   OH213904   3.288   2.278   3.890 -0.4492 -0.7949 -0.6471
 4647TIP3    H113905   3.376   2.248   3.911 -0.0575 -0.1945 -1.3701
 4647TIP3    H213906   3.295   2.373   3.888 -0.7077 -0.7766 -2.3156
 4648TIP3   OH213907   1.020   5.133   2.740  0.3560  0.2199  0.0140
 4648TIP3    H113908   1.076   5.210   2.744  0.5587  0.1152 -0.6783
 4648TIP3    H213909   0.991   5.130   2.649 -1.1765  0.5556  0.4676
 4649TIP3   OH213910   3.836   1.160   3.395 -0.4381  0.0507  0.0900
 4649TIP3    H113911   3.770   1.135   3.331 -1.6944  0.9450  0.9971
 4649TIP3    H213912   3.920   1.140   3.352 -1.2408  0.3073 -1.6844
 4650TIP3   OH213913   3.281   0.824   5.159  0.0810 -0.3658  0.3790
 4650TIP3    H113914   3.227   0.839   5.236  0.7122 -0.6796  0.8937
 4650TIP3    H213915   3.227   0.770   5.101 -0.8102  0.7588  0.1151
 4651TIP3   OH213916   3.169   5.003   2.616  0.6059 -0.7656  0.2068
 4651TIP3    H113917   3.162   5.009   2.521  0.9665  0.6235  0.2361
 4651TIP3    H213918   3.082   5.026   2.648  0.7828 -0.0766  0.2193
 4652TIP3   OH213919   0.182   0.614   5.418  0.2697 -0.0733 -0.6425
 4652TIP3    H113920   0.174   0.708   5.398 -1.6712  0.4307  1.9883
 4652TIP3    H213921   0.103   0.593   5.468  2.5394 -2.1159  2.4415
 4653TIP3   OH213922   3.938   5.119   5.666  0.1097  0.0257  0.5651
 4653TIP3    H113923   3.972   5.073   5.744  2.5659  0.8153  0.0538
 4653TIP3    H213924   4.009   5.113   5.602 -0.3188  2.6521 -0.2826
 4654TIP3   OH213925   5.810   0.851   3.054 -0.5946 -0.2885  0.4265
 4654TIP3    H113926   5.768   0.924   3.099 -0.9381  0.5415 -1.1675
 4654TIP3    H213927   5.903   0.875   3.050 -0.7116  0.0938 -0.1178
 4655TIP3   OH213928   6.313   5.450   5.660 -0.1500 -0.2838 -0.1268
 4655TIP3    H113929   6.225   5.488   5.656  0.8724  2.3014 -0.8089
 4655TIP3    H213930   6.348   5.461   5.571  1.4743  0.4693  0.5564
 4656TIP3   OH213931   4.594   1.071   5.142  0.1881  0.4367  0.0015
 4656TIP3    H113932   4.534   1.142   5.164 -1.2168 -0.1807 -1.6492
 4656TIP3    H213933   4.589   1.063   5.047 -0.5041 -2.5225  0.1710
 4657TIP3   OH213934   3.296   5.021   5.475  0.3039 -0.3638 -0.3158
 4657TIP3    H113935   3.241   4.943   5.472  0.4267 -0.4955  0.5253
 4657TIP3    H213936   3.238   5.091   5.504 -0.3893  0.4237 -3.2562
 4658TIP3   OH213937   5.471   1.411   5.660  0.5400 -0.0751  0.5867
 4658TIP3    H113938   5.555   1.443   5.629  0.1584  0.5959  0.2163
 4658TIP3    H213939   5.477   1.418   5.756  0.8214  0.1935  0.5515
 4659TIP3   OH213940   4.641   2.773   4.719 -0.1815 -0.0367  0.2193
 4659TIP3    H113941   4.557   2.819   4.729 -0.4302 -0.2143 -0.8905
 4659TIP3    H213942   4.633   2.727   4.636  0.7626 -0.6257  0.4426
 4660TIP3   OH213943   2.427   2.545   1.149 -0.2001 -0.8160 -0.1724
 4660TIP3    H113944   2.505   2.516   1.197  0.4760  0.6012 -0.3660
 4660TIP3    H213945   2.362   2.562   1.216  0.3094 -0.1255  0.1615
 4661TIP3   OH213946   2.162   0.038   3.027  0.7148 -0.2821  0.1665
 4661TIP3    H113947   2.211   0.066   2.950  0.1933  2.7004  0.8148
 4661TIP3    H213948   2.179  -0.056   3.033  2.3137 -0.2550 -2.4495
 4662TIP3   OH213949   5.724   0.781   0.998  0.5479 -0.3974  0.1236
 4662TIP3    H113950   5.663   0.804   0.928  0.2087  0.5382  0.7140
 4662TIP3    H213951   5.671   0.735   1.063  0.9797 -1.8081 -0.4812
 4663TIP3   OH213952   0.008   3.054   2.920  0.1421  0.1243  0.4576
 4663TIP3    H113953  -0.023   2.978   2.969 -0.2490  0.1220  0.2063
 4663TIP3    H213954   0.103   3.040   2.912  0.1118 -0.2011  0.6414
 4664TIP3   OH213955   3.772   1.859   4.995 -0.4259  0.7254  0.2976
 4664TIP3    H113956   3.784   1.954   4.996  1.0242  0.5745  1.1827
 4664TIP3    H213957   3.779   1.834   5.087  3.3664 -0.6253 -0.1784
 4665TIP3   OH213958   1.614   1.331   5.677  0.9608  0.0672  0.0852
 4665TIP3    H113959   1.666   1.404   5.709  0.9968 -0.4794  1.3060
 4665TIP3    H213960   1.571   1.365   5.599 -0.3705  1.9574  1.5631
 4666TIP3   OH213961   4.460   6.809   3.005 -0.5493  0.0480 -0.1546
 4666TIP3    H113962   4.479   6.786   3.096 -0.5664  2.2631  0.4657
 4666TIP3    H213963   4.372   6.776   2.990 -0.0804 -1.4423  0.1997
 4667TIP3   OH213964   4.360   6.495   0.343  0.7858 -0.5300  0.0569
 4667TIP3    H113965   4.337   6.588   0.356  1.7401 -0.2695 -0.0666
 4667TIP3    H213966   4.276   6.449   0.348  0.3821  0.2608  0.8549
 4668TIP3   OH213967   0.651   0.529   3.451 -0.5603  0.4782 -0.5193
 4668TIP3    H113968   0.710   0.466   3.410  0.1906  0.4440  0.5709
 4668TIP3    H213969   0.630   0.592   3.382  2.2925  1.6062 -0.4831
 4669TIP3   OH213970   5.597   6.729   4.911 -0.4378 -0.1050 -0.8886
 4669TIP3    H113971   5.655   6.683   4.971  3.3000  1.3544 -3.0429
 4669TIP3    H213972   5.542   6.661   4.873 -0.8538 -1.4491  1.8864
 4670TIP3   OH213973   2.049   1.773   3.374  0.1423 -0.3021  0.2365
 4670TIP3    H113974   2.042   1.701   3.311  0.5011 -0.7936  0.7497
 4670TIP3    H213975   2.124   1.824   3.345  0.2170 -0.4463  0.1768
 4671TIP3   OH213976   5.500   1.187   2.185 -0.5210 -0.4794  0.2983
 4671TIP3    H113977   5.445   1.208   2.109  0.2822  1.9547  0.3142
 4671TIP3    H213978   5.579   1.148   2.148 -0.6618 -0.4747 -0.0101
 4672TIP3   OH213979   0.375   4.857   2.025 -0.0822  0.1109  0.2492
 4672TIP3    H113980   0.384   4.763   2.014 -2.6809 -0.2280  0.4336
 4672TIP3    H213981   0.412   4.894   1.944  0.5666 -1.0691 -0.0177
 4673TIP3   OH213982   1.329   1.063   0.531 -0.3011 -0.2010  0.6149
 4673TIP3    H113983   1.279   0.985   0.555 -2.2947  1.4321  2.0418
 4673TIP3    H213984   1.399   1.067   0.597 -0.0843 -0.8336  0.4366
 4674TIP3   OH213985   4.456   4.210   0.138  0.4741  0.4812 -0.1964
 4674TIP3    H113986   4.404   4.287   0.158 -0.1224 -0.2995  1.4057
 4674TIP3    H213987   4.547   4.239   0.146  0.2521  0.9320  0.8203
 4675TIP3   OH213988   5.944   3.287   4.381  0.1385  0.4329 -0.2748
 4675TIP3    H113989   5.908   3.353   4.441 -1.8510  0.0374 -0.9652
 4675TIP3    H213990   5.968   3.336   4.302  0.5003  0.5962 -0.0675
 4676TIP3   OH213991   0.638   4.908   2.186 -0.0371 -0.3001 -0.2264
 4676TIP3    H113992   0.588   4.954   2.253  0.3550 -0.6374  0.3068
 4676TIP3    H213993   0.571   4.866   2.131 -0.3758  0.4743 -0.4220
 4677TIP3   OH213994   6.845   5.084   2.478 -0.1794  0.7961  0.0861
 4677TIP3    H113995   6.899   5.101   2.401 -1.8095  0.6073 -1.1384
 4677TIP3    H213996   6.796   5.005   2.456 -2.0700  1.7876  0.5070
 4678TIP3   OH213997   0.403   0.651   4.292  0.3341  0.2254  0.1123
 4678TIP3    H113998   0.318   0.608   4.282 -0.3633  1.3578  0.9763
 4678TIP3    H213999   0.393   0.735   4.247  0.8172  0.5900  0.6660
 4679TIP3   OH214000   2.368   6.716   1.231 -0.3711 -0.0024  0.3315
 4679TIP3    H114001   2.339   6.770   1.157 -1.3630  0.2301  0.8750
 4679TIP3    H214002   2.344   6.627   1.206 -0.0030 -0.0213  0.0394
 4680TIP3   OH214003   5.788   2.025   3.428  0.4153  0.0825  0.1456
 4680TIP3    H114004   5.747   2.110   3.443 -1.4836 -0.4465 -1.6494
 4680TIP3    H214005   5.799   2.019   3.333  2.3955 -0.8801  0.3671
 4681TIP3   OH214006   6.348   3.888   3.614  0.5906 -0.1524 -0.3787
 4681TIP3    H114007   6.330   3.952   3.545  1.3555  0.1375 -0.3197
 4681TIP3    H214008   6.397   3.937   3.680 -0.8119 -0.2131  0.7675
 4682TIP3   OH214009   2.421   4.014   1.815  0.1372 -0.6315 -0.4414
 4682TIP3    H114010   2.340   4.060   1.791  1.1930  1.0576 -1.0202
 4682TIP3    H214011   2.489   4.057   1.762  1.4021 -2.0868 -0.0801
 4683TIP3   OH214012   4.130   0.421   1.134  0.0152 -0.5427 -0.3387
 4683TIP3    H114013   4.080   0.348   1.095  0.6272 -0.2791 -1.6874
 4683TIP3    H214014   4.220   0.403   1.109  0.3720 -0.0830  0.5871
 4684TIP3   OH214015   4.451   3.018   3.782  0.1613  0.1475  0.4035
 4684TIP3    H114016   4.385   3.037   3.715  0.8681 -2.1631 -1.0890
 4684TIP3    H214017   4.521   2.972   3.734  2.4013  1.5744  2.1108
 4685TIP3   OH214018   1.001   2.910   2.260  0.4211  0.5170 -0.3289
 4685TIP3    H114019   1.015   2.815   2.266  0.3364  0.5455  0.4891
 4685TIP3    H214020   0.909   2.919   2.235  0.0404  0.3767  0.9307
 4686TIP3   OH214021   5.151   1.155   4.154  0.2815  0.3159  0.1143
 4686TIP3    H114022   5.170   1.200   4.236 -1.7361 -0.3524  1.0037
 4686TIP3    H214023   5.063   1.120   4.166  0.1403 -0.2292 -2.1608
 4687TIP3   OH214024   5.581   1.790   3.262 -0.2832  0.7541 -0.1094
 4687TIP3    H114025   5.669   1.760   3.240  0.5449  2.5207  0.5652
 4687TIP3    H214026   5.560   1.853   3.193  0.7280  3.4003  1.8235
 4688TIP3   OH214027   0.224   0.750   0.130  0.1267 -0.2776 -0.1013
 4688TIP3    H114028   0.226   0.705   0.215  0.0267 -0.1402 -0.0234
 4688TIP3    H214029   0.220   0.680   0.065 -0.9071 -0.3877  0.0486
 4689TIP3   OH214030   4.285   3.670   1.049 -0.6038  0.1031 -0.2610
 4689TIP3    H114031   4.320   3.670   0.959 -0.1748  1.1235 -0.1074
 4689TIP3    H214032   4.314   3.587   1.086 -0.7882 -0.3341 -1.0659
 4690TIP3   OH214033   2.821   0.653   3.975 -0.2224  0.0756 -0.3245
 4690TIP3    H114034   2.820   0.748   3.988 -0.0787 -0.0124  0.3840
 4690TIP3    H214035   2.913   0.631   3.962 -0.1962 -0.0296  0.0305
 4691TIP3   OH214036   6.809   0.448   4.014  0.3637  0.5071  0.0723
 4691TIP3    H114037   6.832   0.358   4.038 -0.3117  0.2257 -0.2859
 4691TIP3    H214038   6.839   0.458   3.924 -0.4388  0.2944 -0.2341
 4692TIP3   OH214039   3.579   6.583   4.045  0.9019 -0.1886 -0.0700
 4692TIP3    H114040   3.548   6.634   3.970  1.8732  0.1918 -0.2231
 4692TIP3    H214041   3.635   6.515   4.007 -1.5717 -2.4178 -0.0254
 4693TIP3   OH214042   4.649   2.165   5.243  0.1896  0.1342 -0.4200
 4693TIP3    H114043   4.704   2.240   5.266  0.7460 -0.3156 -0.2800
 4693TIP3    H214044   4.584   2.201   5.182  0.9336  0.5705 -0.9668
 4694TIP3   OH214045   4.859   0.778   4.968  0.3713  0.3866 -0.1278
 4694TIP3    H114046   4.895   0.809   5.051 -1.2709 -0.3476  0.9011
 4694TIP3    H214047   4.928   0.797   4.904  0.9307  2.7085  1.0545
 4695TIP3   OH214048   1.171   6.079   3.163 -0.1427  0.2884 -0.2424
 4695TIP3    H114049   1.109   6.038   3.104  0.5370 -0.8697 -0.1682
 4695TIP3    H214050   1.134   6.065   3.250 -0.1511  0.2778 -0.2477
 4696TIP3   OH214051   5.933   6.204   3.932  0.0899 -0.4066 -0.2007
 4696TIP3    H114052   5.885   6.140   3.879  0.1801 -0.8965  0.3085
 4696TIP3    H214053   6.021   6.203   3.896  0.5508 -1.8206  0.8749
 4697TIP3   OH214054   5.101   1.488   2.483 -0.1303  0.3418 -0.3113
 4697TIP3    H114055   5.189   1.517   2.509 -0.2923  1.6898 -1.1818
 4697TIP3    H214056   5.052   1.569   2.471 -0.5291 -0.2257 -3.1803
 4698TIP3   OH214057   4.972   5.591   3.500  0.3766 -0.7382  0.2260
 4698TIP3    H114058   4.927   5.643   3.566 -1.5643 -1.2313 -0.6551
 4698TIP3    H214059   5.052   5.641   3.481  0.6849 -0.2846  2.4564
 4699TIP3   OH214060   0.667   6.461   2.260 -0.3243 -0.0630  0.0623
 4699TIP3    H114061   0.646   6.429   2.172  1.3649 -0.1518 -0.3418
 4699TIP3    H214062   0.689   6.553   2.246  0.2085 -0.1477  0.3542
 4700TIP3   OH214063   5.704   4.841   3.844 -0.2350  0.6863 -0.1955
 4700TIP3    H114064   5.651   4.914   3.814  0.2763  0.6332 -1.2625
 4700TIP3    H214065   5.736   4.799   3.764  0.1038 -0.2456  0.4050
 4701TIP3   OH214066   1.526   3.056   0.172  0.4913  0.3689 -0.2605
 4701TIP3    H114067   1.537   2.962   0.167 -0.0623  0.2173  0.9377
 4701TIP3    H214068   1.570   3.090   0.094 -2.6304 -1.1157 -2.9059
 4702TIP3   OH214069   5.056   6.557   2.818 -0.0231 -0.4303  0.2445
 4702TIP3    H114070   5.050   6.630   2.757 -1.3125  1.4016  2.4111
 4702TIP3    H214071   4.977   6.506   2.803 -0.9094  0.6522  1.0859
 4703TIP3   OH214072   3.117   6.009   0.211  0.5111 -0.5237  0.3681
 4703TIP3    H114073   3.026   6.039   0.206  0.5358 -0.5396 -0.3563
 4703TIP3    H214074   3.164   6.067   0.151  0.9793 -0.5172  0.7395
 4704TIP3   OH214075   2.219   4.894   3.276 -0.0387  0.1503  0.5104
 4704TIP3    H114076   2.152   4.882   3.208  1.2637  0.3853 -0.8813
 4704TIP3    H214077   2.216   4.814   3.328 -2.5302  0.8335  1.5725
 4705TIP3   OH214078   6.692   4.246   4.533  0.0356 -0.6186 -0.0588
 4705TIP3    H114079   6.654   4.308   4.471  0.6140  0.5686  0.7502
 4705TIP3    H214080   6.746   4.299   4.591  2.0163 -2.1125 -0.4495
 4706TIP3   OH214081   3.999   3.701   2.559 -0.0383  0.4455  0.2437
 4706TIP3    H114082   4.069   3.706   2.623 -0.3976  1.2573  0.5924
 4706TIP3    H214083   4.004   3.612   2.524  0.2542  0.0457  1.2777
 4707TIP3   OH214084   5.900   5.839   2.642  0.0832 -0.7542 -0.3931
 4707TIP3    H114085   5.815   5.842   2.686 -0.7184 -3.0897 -1.6096
 4707TIP3    H214086   5.891   5.898   2.567  0.6364  1.3490  1.1046
 4708TIP3   OH214087   4.289   3.539   2.973  0.4628  0.0068  0.0873
 4708TIP3    H114088   4.303   3.446   2.959  0.1983 -0.0051 -0.1078
 4708TIP3    H214089   4.209   3.544   3.026  0.3430  0.1314 -0.1041
 4709TIP3   OH214090   1.597   3.290   3.709  0.4550  0.1013  0.0631
 4709TIP3    H114091   1.552   3.362   3.665  0.2142  0.4268  0.8302
 4709TIP3    H214092   1.685   3.324   3.727  0.8661 -0.3586 -0.9825
 4710TIP3   OH214093   2.967   5.319   4.037  0.1336  0.1143  0.4321
 4710TIP3    H114094   2.910   5.386   3.998  2.1709  0.7847 -1.6056
 4710TIP3    H214095   2.938   5.237   3.998 -0.3072  0.2354  0.4932
 4711TIP3   OH214096   6.324   4.022   0.450 -0.0877  0.8537 -0.6872
 4711TIP3    H114097   6.339   4.095   0.509 -0.3381 -0.1867  0.7099
 4711TIP3    H214098   6.244   3.981   0.482  0.8053 -0.8818 -0.5157
 4712TIP3   OH214099   6.079   1.961   5.131  0.4188  0.4859 -0.1765
 4712TIP3    H114100   6.148   1.987   5.192  1.4763  0.2884 -1.2444
 4712TIP3    H214101   6.126   1.920   5.058 -0.9847 -2.0687  0.2331
 4713TIP3   OH214102   1.810   4.831   0.227 -0.3510  0.0838  0.0681
 4713TIP3    H114103   1.827   4.738   0.234  0.9294  0.4290  2.6668
 4713TIP3    H214104   1.857   4.870   0.301 -0.5839  2.8256 -1.1005
 4714TIP3   OH214105   0.354   5.466   5.821  0.3437 -0.6123 -0.4876
 4714TIP3    H114106   0.405   5.407   5.877 -0.3751 -0.8928 -0.1200
 4714TIP3    H214107   0.377   5.439   5.732  0.8916 -0.6869 -0.3299
 4715TIP3   OH214108   5.862  -0.024   1.379  0.1238  0.1058  0.0013
 4715TIP3    H114109   5.931   0.042   1.380 -0.3540  0.6139  0.5744
 4715TIP3    H214110   5.813  -0.006   1.299 -0.5900  1.0886  0.6354
 4716TIP3   OH214111   0.045   2.736   3.530  0.1408 -0.4834  0.2980
 4716TIP3    H114112   0.119   2.711   3.585 -0.8806 -0.2111  1.8302
 4716TIP3    H214113   0.038   2.831   3.541  0.0948 -0.3777 -0.5516
 4717TIP3   OH214114   3.796   1.324   5.093 -0.0167  0.1330 -0.2147
 4717TIP3    H114115   3.845   1.340   5.013 -0.2981  0.0014 -0.4156
 4717TIP3    H214116   3.756   1.238   5.080 -1.1722  0.6868 -0.5131
 4718TIP3   OH214117   1.802   5.049   5.166  0.3644 -0.5143 -0.2651
 4718TIP3    H114118   1.726   5.098   5.135  0.8046 -0.0034 -0.5639
 4718TIP3    H214119   1.877   5.093   5.125  0.8334 -0.8796  0.1837
 4719TIP3   OH214120   1.309   2.563   4.042 -0.4024  0.3604 -0.2831
 4719TIP3    H114121   1.236   2.504   4.025 -1.1260  0.6151  1.7398
 4719TIP3    H214122   1.268   2.644   4.073  0.7277  0.3946  1.2335
 4720TIP3   OH214123   2.480   4.960   2.913  0.1879  0.4276  0.4010
 4720TIP3    H114124   2.544   4.901   2.873  0.1686  1.8066 -1.7984
 4720TIP3    H214125   2.513   5.048   2.894 -0.9511  1.1606  1.6304
 4721TIP3   OH214126   2.221   6.071   3.439  0.2597 -0.7429  0.0532
 4721TIP3    H114127   2.241   5.995   3.384 -0.0664 -1.3057  0.7000
 4721TIP3    H214128   2.306   6.109   3.459  0.3519 -0.0964 -1.4243
 4722TIP3   OH214129   4.782   4.252   2.455  0.0526 -0.6505  0.4178
 4722TIP3    H114130   4.862   4.260   2.508  1.4380  2.3956 -1.7963
 4722TIP3    H214131   4.801   4.183   2.392  2.1855  1.7643 -1.7777
 4723TIP3   OH214132   3.000   5.554   1.319 -0.2291 -0.3132  0.4527
 4723TIP3    H114133   2.940   5.535   1.246  0.1987  1.5117 -0.4360
 4723TIP3    H214134   3.051   5.474   1.329 -0.8185 -0.8753 -0.7511
 4724TIP3   OH214135   1.579   6.746   4.810  0.3771 -0.4021  0.1026
 4724TIP3    H114136   1.552   6.732   4.901 -1.8914 -2.2332 -0.7327
 4724TIP3    H214137   1.649   6.683   4.795 -0.5131 -1.4282  0.1200
 4725TIP3   OH214138   4.366   0.402   1.710  0.0903  0.1581 -0.2471
 4725TIP3    H114139   4.358   0.409   1.805 -0.1971  1.4919 -0.3492
 4725TIP3    H214140   4.339   0.313   1.690  1.4142 -0.5776  1.0432
 4726TIP3   OH214141   3.369   5.034   5.153  0.4610 -0.0326 -0.0583
 4726TIP3    H114142   3.462   5.053   5.141  0.4794  0.7837  1.2094
 4726TIP3    H214143   3.361   4.940   5.136  1.6783 -0.2944  0.7000
 4727TIP3   OH214144   3.678   1.160   0.310 -0.4894  0.3065 -0.3207
 4727TIP3    H114145   3.716   1.112   0.237  1.2527  1.1758 -0.0425
 4727TIP3    H214146   3.688   1.101   0.385  2.1093  1.1914  0.1250
 4728TIP3   OH214147   1.707   2.908   3.546  0.4984  0.0058  0.5719
 4728TIP3    H114148   1.613   2.923   3.541  0.3024 -0.5458  1.9704
 4728TIP3    H214149   1.747   2.991   3.522 -0.3112  0.0368 -0.7670
 4729TIP3   OH214150   5.569   1.410   1.469 -0.0394  0.5134 -0.6693
 4729TIP3    H114151   5.500   1.370   1.522  0.1949  1.1247  0.1136
 4729TIP3    H214152   5.558   1.371   1.382  0.5833 -1.7419  0.1899
 4730TIP3   OH214153   2.576   3.241   1.592 -0.6020  0.1249 -0.3132
 4730TIP3    H114154   2.626   3.308   1.638 -1.8129  2.3156 -2.0282
 4730TIP3    H214155   2.642   3.179   1.560  0.6230  0.9020  0.6480
 4731TIP3   OH214156   3.550   5.039   5.721 -0.1290  0.1347 -0.3911
 4731TIP3    H114157   3.463   5.050   5.760 -0.8402  1.0407 -2.1060
 4731TIP3    H214158   3.558   5.113   5.661  2.4549  0.9173  0.7484
 4732TIP3   OH214159   6.832   4.722   2.427 -0.0884  0.3388 -0.2364
 4732TIP3    H114160   6.780   4.644   2.409  0.0634 -0.0897  1.1050
 4732TIP3    H214161   6.889   4.731   2.350 -1.9491  0.6985 -1.6364
 4733TIP3   OH214162   4.274   2.373   2.935 -0.5140 -0.3950 -0.0930
 4733TIP3    H114163   4.217   2.447   2.914  1.1174  1.0451  0.2106
 4733TIP3    H214164   4.268   2.364   3.030  0.1969  0.1881  0.0217
 4734TIP3   OH214165   2.260   0.913   1.282 -0.1121 -0.4595  0.2700
 4734TIP3    H114166   2.321   0.983   1.307  0.1876 -0.4107 -0.5734
 4734TIP3    H214167   2.273   0.903   1.188 -1.5103 -0.3681  0.0566
 4735TIP3   OH214168   5.853   4.139   0.151  0.2228  0.1617  0.3633
 4735TIP3    H114169   5.855   4.078   0.077  2.6972 -0.8495  1.1621
 4735TIP3    H214170   5.820   4.086   0.224  0.6393  0.2944  0.6482
 4736TIP3   OH214171   4.505   4.552   0.045  0.4324 -0.2284 -0.0277
 4736TIP3    H114172   4.422   4.553   0.093  0.3986  1.8737 -0.0104
 4736TIP3    H214173   4.480   4.534  -0.046 -0.3635  2.2495 -0.3851
 4737TIP3   OH214174   1.532   0.209   1.231 -0.6616  0.1815 -0.4070
 4737TIP3    H114175   1.517   0.297   1.265  0.2041 -0.1215  0.8322
 4737TIP3    H214176   1.603   0.220   1.167 -0.0260  0.2780  0.3054
 4738TIP3   OH214177   4.571   1.992   0.543 -0.1654  0.3069 -0.1312
 4738TIP3    H114178   4.557   2.085   0.526  0.3215  0.2645 -0.8066
 4738TIP3    H214179   4.625   1.990   0.621  1.6084  0.6752 -1.2973
 4739TIP3   OH214180   1.620   6.277   4.088 -0.0921  0.4489  0.2603
 4739TIP3    H114181   1.685   6.235   4.144 -0.7627 -0.6218  0.2553
 4739TIP3    H214182   1.583   6.346   4.143 -0.3578 -0.2343  0.9636
 4740TIP3   OH214183   2.191   2.441   2.113  0.1474  0.6229 -0.1869
 4740TIP3    H114184   2.147   2.367   2.155  4.6019 -3.1737 -1.4677
 4740TIP3    H214185   2.151   2.447   2.026 -0.2859 -0.2252 -0.0549
 4741TIP3   OH214186   4.548   3.900   5.613  0.1567 -0.4812  0.3578
 4741TIP3    H114187   4.498   3.910   5.694 -0.0762  1.8217  0.0035
 4741TIP3    H214188   4.631   3.862   5.641  0.2269  0.6127  1.7736
 4742TIP3   OH214189   3.906   4.493   3.379  0.3060 -0.8086  0.0965
 4742TIP3    H114190   4.000   4.510   3.370  0.0084  0.3647 -1.1688
 4742TIP3    H214191   3.896   4.403   3.350  1.0465 -0.9657  0.2937
 4743TIP3   OH214192   6.098   3.609   2.806  0.4145 -0.0822  0.0152
 4743TIP3    H114193   6.106   3.631   2.714  1.1400  0.3616  0.1772
 4743TIP3    H214194   6.099   3.694   2.851 -0.5742 -0.2472  0.3990
 4744TIP3   OH214195   6.826   3.051   3.073  0.0640 -0.2741 -0.2039
 4744TIP3    H114196   6.735   3.027   3.091  0.4987 -2.0601 -0.1871
 4744TIP3    H214197   6.861   3.079   3.158 -0.5556  0.8068 -0.2882
 4745TIP3   OH214198   6.757   3.995   4.077 -0.1772  0.1740 -0.3487
 4745TIP3    H114199   6.769   3.918   4.133 -0.8163  1.3107  1.4296
 4745TIP3    H214200   6.805   3.974   3.997 -0.5574 -2.1735 -0.0296
 4746TIP3   OH214201   0.028   1.537   4.965  0.3250 -0.5423  0.4583
 4746TIP3    H114202  -0.022   1.606   4.921 -1.0603 -0.8883  1.4339
 4746TIP3    H214203   0.040   1.569   5.054  1.6495 -0.5866  0.3102
 4747TIP3   OH214204   5.895   0.635   4.315  0.1980 -0.0003 -0.3190
 4747TIP3    H114205   5.869   0.702   4.379 -2.0153  1.9218 -2.9788
 4747TIP3    H214206   5.982   0.662   4.285 -0.0087  0.7907 -0.2276
 4748TIP3   OH214207   3.651   4.441   3.502 -0.2602  0.0084  0.5815
 4748TIP3    H114208   3.653   4.376   3.572 -1.6148 -2.0373 -1.1241
 4748TIP3    H214209   3.742   4.468   3.491  0.7664 -3.1673  0.0910
 4749TIP3   OH214210   5.669   3.207   2.081 -0.6352 -0.0031 -0.9040
 4749TIP3    H114211   5.618   3.258   2.144 -0.4380 -0.0563 -0.7004
 4749TIP3    H214212   5.626   3.121   2.081 -0.0636 -0.3020 -0.1257
 4750TIP3   OH214213   5.976   4.083   3.574  0.1891 -0.1690 -0.5342
 4750TIP3    H114214   6.007   4.168   3.544 -1.8596  1.0573  0.5630
 4750TIP3    H214215   5.886   4.077   3.542 -0.0221 -1.4973  0.2160
 4751TIP3   OH214216   6.513   0.838   5.835  0.2990 -0.0099 -0.6098
 4751TIP3    H114217   6.482   0.880   5.916  0.0203  0.7914 -1.1198
 4751TIP3    H214218   6.438   0.838   5.777  0.0978 -1.8479 -0.4153
 4752TIP3   OH214219   5.861   5.614   2.816 -0.3308 -0.1740 -0.0549
 4752TIP3    H114220   5.907   5.679   2.764 -1.0221  1.0688  0.8313
 4752TIP3    H214221   5.880   5.637   2.907 -1.0348 -0.8704  0.2849
 4753TIP3   OH214222   1.383   3.437   2.840  0.2246  0.0958 -0.0829
 4753TIP3    H114223   1.290   3.456   2.854 -0.0294 -0.3508 -1.0456
 4753TIP3    H214224   1.383   3.357   2.786  1.1381  0.7591 -1.1147
 4754TIP3   OH214225   2.128   6.394   4.486  0.2251 -0.8137  0.1102
 4754TIP3    H114226   2.148   6.346   4.567  3.2604 -1.0790 -0.6856
 4754TIP3    H214227   2.098   6.326   4.426  1.1036 -1.1904  0.0710
 4755TIP3   OH214228   0.356   5.758   1.803 -0.2143 -0.0883  0.0714
 4755TIP3    H114229   0.307   5.682   1.771  1.0016 -1.3015  0.9754
 4755TIP3    H214230   0.304   5.790   1.877 -0.3482 -0.5167  0.1652
 4756TIP3   OH214231   0.446   1.292   1.611  0.4074 -0.7991  0.0243
 4756TIP3    H114232   0.441   1.196   1.610 -0.8131 -0.7706  1.0873
 4756TIP3    H214233   0.430   1.316   1.702  2.2450  0.3780  0.1020
 4757TIP3   OH214234   2.596   4.232   2.193 -0.1696 -0.1128 -0.2208
 4757TIP3    H114235   2.506   4.223   2.224 -0.9202 -0.0404 -2.2428
 4757TIP3    H214236   2.605   4.326   2.174  0.5375 -0.0285  0.4730
 4758TIP3   OH214237   1.393   5.895   1.994  0.0453 -0.0883 -0.1266
 4758TIP3    H114238   1.382   5.846   2.075 -1.3671  2.1518  1.1523
 4758TIP3    H214239   1.485   5.883   1.970  0.4707 -0.8833  1.7602
 4759TIP3   OH214240   3.991   2.752   0.247 -0.1876 -0.3379  0.0269
 4759TIP3    H114241   3.954   2.732   0.332 -1.6026  0.0308 -0.4671
 4759TIP3    H214242   3.960   2.682   0.190  1.6603 -1.1963  0.0197
 4760TIP3   OH214243   4.353   3.588   3.492 -0.3864  0.0270 -0.5462
 4760TIP3    H114244   4.298   3.646   3.440  1.5999  0.6846 -2.0215
 4760TIP3    H214245   4.367   3.511   3.437 -0.3467 -0.4097  0.0632
 4761TIP3   OH214246   0.248   3.251   0.974  0.5279  0.3594 -0.1316
 4761TIP3    H114247   0.162   3.224   1.003  1.6600 -1.3276  1.8815
 4761TIP3    H214248   0.277   3.182   0.914  0.8048  0.5111 -0.1793
 4762TIP3   OH214249   2.450   4.227   5.634  0.1712 -0.3615  0.0132
 4762TIP3    H114250   2.455   4.150   5.578  2.2954 -1.2772  1.2980
 4762TIP3    H214251   2.357   4.237   5.654 -0.2306 -2.2046 -0.7075
 4763TIP3   OH214252   0.309   6.162   2.044  0.0360 -0.0168  0.0085
 4763TIP3    H114253   0.400   6.174   2.017  0.1159  1.0259  0.6868
 4763TIP3    H214254   0.295   6.067   2.039  0.5904 -0.0370 -1.8794
 4764TIP3   OH214255   6.585   5.856   3.418 -0.1580 -0.2173  0.5470
 4764TIP3    H114256   6.670   5.897   3.434  0.0928  0.1493 -1.4645
 4764TIP3    H214257   6.604   5.763   3.408  0.5072  0.1261 -2.4644
 4765TIP3   OH214258   5.710  -0.023   2.912 -0.2386 -0.0984 -0.2598
 4765TIP3    H114259   5.669   0.007   2.831  4.2371  1.2920 -2.3392
 4765TIP3    H214260   5.696   0.048   2.974 -3.3340 -0.9829  0.2024
 4766TIP3   OH214261   2.240   2.694   3.249  0.3026  0.2651  0.0501
 4766TIP3    H114262   2.200   2.617   3.209 -0.0909  0.6281 -0.2683
 4766TIP3    H214263   2.334   2.677   3.244  0.2211 -0.1712 -0.0618
 4767TIP3   OH214264   7.090   1.628   5.890 -0.7496 -0.0295  0.0191
 4767TIP3    H114265   7.065   1.559   5.828  1.3702 -0.6092 -0.2893
 4767TIP3    H214266   7.172   1.663   5.854 -0.9156  1.5015  1.0759
 4768TIP3   OH214267   4.628   4.608   0.515  0.1989 -0.0252 -0.8123
 4768TIP3    H114268   4.580   4.681   0.475 -0.9792 -1.4122 -2.0401
 4768TIP3    H214269   4.660   4.556   0.441  2.6346  0.1872 -0.0070
 4769TIP3   OH214270   2.510   5.590   3.095 -0.0025 -0.3615  0.2971
 4769TIP3    H114271   2.512   5.498   3.119 -1.0899 -0.3945  0.3213
 4769TIP3    H214272   2.422   5.604   3.058 -0.8979  1.2599  2.7778
 4770TIP3   OH214273   2.385   3.322   5.482 -0.1951  0.4967  0.9204
 4770TIP3    H114274   2.365   3.232   5.507  0.7230  0.0803  0.2303
 4770TIP3    H214275   2.299   3.363   5.468 -0.6282 -0.6366  0.0159
 4771TIP3   OH214276   2.918   1.510   0.196 -0.2067 -0.6702 -0.3827
 4771TIP3    H114277   2.872   1.517   0.280  1.4055 -0.0746  0.4908
 4771TIP3    H214278   2.859   1.457   0.142 -1.1191 -1.4172  1.2428
 4772TIP3   OH214279   2.785   1.005   2.166  0.1441 -0.1624  0.2249
 4772TIP3    H114280   2.857   0.974   2.111  0.6200  0.4382  0.4890
 4772TIP3    H214281   2.784   1.100   2.153  0.7392  0.0890  1.7747
 4773TIP3   OH214282   3.377   3.936   1.529 -0.1588 -0.5253  0.2905
 4773TIP3    H114283   3.313   3.926   1.600 -0.4979 -1.3052 -0.1117
 4773TIP3    H214284   3.395   4.030   1.527  0.1253 -0.5223  1.6262
 4774TIP3   OH214285   2.789   3.325   0.314 -0.2227 -0.4821  0.2766
 4774TIP3    H114286   2.868   3.307   0.264  1.1918  1.6887  1.5691
 4774TIP3    H214287   2.791   3.420   0.328 -1.7592 -0.7053  2.4667
 4775TIP3   OH214288   6.163   0.692   3.040 -0.1997  1.0311 -0.5210
 4775TIP3    H114289   6.246   0.646   3.029  0.2273  1.6099  0.2183
 4775TIP3    H214290   6.101   0.622   3.063  0.6132  0.8847  1.3908
 4776TIP3   OH214291   1.718   4.530   2.438 -0.3500 -0.2176  0.1030
 4776TIP3    H114292   1.779   4.579   2.492  1.2605 -0.5694 -1.3264
 4776TIP3    H214293   1.732   4.438   2.463 -0.3158 -0.3024 -0.2279
 4777TIP3   OH214294   6.207   4.531   0.079  0.0560  0.4350 -0.2898
 4777TIP3    H114295   6.262   4.600   0.041  1.3474  0.1014  0.8993
 4777TIP3    H214296   6.138   4.578   0.125  0.8152  0.9524  0.3484
 4778TIP3   OH214297   3.317   2.256   5.274 -0.7442 -0.2628 -0.9967
 4778TIP3    H114298   3.281   2.344   5.277 -2.5245 -0.9541 -1.0390
 4778TIP3    H214299   3.375   2.256   5.198  0.2536  1.1975 -0.2756
 4779TIP3   OH214300   2.330   6.145   4.446 -0.3806 -0.6640  0.4284
 4779TIP3    H114301   2.371   6.209   4.504 -0.3587  0.0029 -0.3037
 4779TIP3    H214302   2.394   6.075   4.437  0.0939 -0.2102  0.2681
 4780TIP3   OH214303   1.118   5.556   4.372  0.2828  0.1095  0.4527
 4780TIP3    H114304   1.025   5.557   4.392  0.1355 -0.3555 -0.1569
 4780TIP3    H214305   1.131   5.630   4.312 -0.1428 -1.1281 -1.2469
 4781TIP3   OH214306   0.661   6.075   2.529 -0.0729  0.1950  0.3181
 4781TIP3    H114307   0.581   6.118   2.499 -0.9137 -0.5063  1.4480
 4781TIP3    H214308   0.732   6.120   2.483 -1.1689  0.1575 -1.4955
 4782TIP3   OH214309   6.524   6.294   5.126  0.1711 -0.2658  0.0667
 4782TIP3    H114310   6.470   6.370   5.146 -0.6255 -0.5222 -1.0219
 4782TIP3    H214311   6.476   6.220   5.163  0.9200 -0.2664  1.0791
 4783TIP3   OH214312   1.082   5.502   2.881  0.5584 -0.0685 -0.0532
 4783TIP3    H114313   1.031   5.575   2.844 -2.3923 -2.3582 -0.9690
 4783TIP3    H214314   1.106   5.450   2.804  2.8556 -0.0001  0.5603
 4784TIP3   OH214315   3.598   1.499   5.227 -0.7076 -0.5948 -0.0183
 4784TIP3    H114316   3.534   1.430   5.248  0.0523 -1.1385  0.5478
 4784TIP3    H214317   3.657   1.459   5.164  2.5382 -2.1917  3.5934
 4785TIP3   OH214318   5.672   1.756   2.152 -0.2824  0.1635  0.1727
 4785TIP3    H114319   5.736   1.686   2.171  0.2492  0.6846  0.3319
 4785TIP3    H214320   5.605   1.745   2.220 -0.9793 -1.0976 -0.6618
 4786TIP3   OH214321   2.080   4.700   2.994  0.1520 -0.4335  0.2711
 4786TIP3    H114322   2.045   4.686   3.082 -0.0095  1.4816  0.5421
 4786TIP3    H214323   2.170   4.667   2.998 -0.1974 -1.3481  0.8277
 4787TIP3   OH214324   3.349   5.180   2.173 -0.4139  0.2258 -0.0528
 4787TIP3    H114325   3.438   5.207   2.150  0.2656 -2.0370 -0.3203
 4787TIP3    H214326   3.297   5.201   2.095  0.4383 -0.8139 -0.9319
 4788TIP3   OH214327   0.283   4.317   2.001  0.4733 -0.2118 -0.0444
 4788TIP3    H114328   0.292   4.299   2.095  1.8843 -0.2994 -0.1706
 4788TIP3    H214329   0.189   4.329   1.988  0.1902 -0.7589  1.2760
 4789TIP3   OH214330   2.895   6.156   0.648 -0.2762 -0.2217  0.1683
 4789TIP3    H114331   2.863   6.109   0.725 -0.3272 -1.1095 -0.3920
 4789TIP3    H214332   2.845   6.120   0.575  2.8145 -2.5938 -0.9503
 4790TIP3   OH214333   2.487   5.413   2.562 -0.6233 -0.0617 -0.0436
 4790TIP3    H114334   2.559   5.351   2.559 -0.9156 -0.4379  0.5158
 4790TIP3    H214335   2.528   5.497   2.583 -0.1892  0.0112 -1.1225
 4791TIP3   OH214336   2.821   5.476   2.978  0.2302  0.0792  0.0722
 4791TIP3    H114337   2.837   5.484   3.072 -3.0146  1.2411  0.6258
 4791TIP3    H214338   2.743   5.529   2.962  0.5975 -0.1956 -3.2851
 4792TIP3   OH214339   2.874   6.270   4.112  0.1435  0.0680 -0.6679
 4792TIP3    H114340   2.852   6.317   4.192  0.3097  0.5405 -0.8946
 4792TIP3    H214341   2.871   6.178   4.136 -0.9698  0.1557 -0.4113
 4793TIP3   OH214342   3.927   4.880   0.573  0.0074 -0.6308  0.3528
 4793TIP3    H114343   3.946   4.836   0.490  0.2685 -0.6537  0.4243
 4793TIP3    H214344   3.864   4.822   0.616 -1.4126  0.1931 -0.5451
 4794TIP3   OH214345   2.129   4.032   2.276  0.6019 -0.3346  0.5604
 4794TIP3    H114346   2.219   4.056   2.296  0.5371 -0.3462  0.8711
 4794TIP3    H214347   2.116   4.060   2.185  0.5181  0.8404  0.9259
 4795TIP3   OH214348   2.668   2.806   3.488 -0.7348 -0.1344  0.3759
 4795TIP3    H114349   2.763   2.813   3.478 -0.8963  0.3745 -1.0472
 4795TIP3    H214350   2.639   2.757   3.411 -1.5123 -1.4379  1.4455
 4796TIP3   OH214351   3.449   0.271   0.048  0.3953 -0.1057  0.2737
 4796TIP3    H114352   3.418   0.185   0.075  0.3247 -0.1024  0.2032
 4796TIP3    H214353   3.424   0.329   0.120  2.5324 -0.5358  1.4420
 4797TIP3   OH214354   3.808   3.251   1.938  0.6886 -0.1112 -0.5714
 4797TIP3    H114355   3.759   3.202   1.871  1.7828 -0.5860 -1.0463
 4797TIP3    H214356   3.887   3.281   1.893  0.9094  0.5200  0.2215
 4798TIP3   OH214357   6.778   2.034   3.679  0.0821  0.1275  0.3329
 4798TIP3    H114358   6.873   2.030   3.667 -0.0133  1.3754 -1.1049
 4798TIP3    H214359   6.765   2.107   3.740 -0.0491  2.2421 -2.0397
 4799TIP3   OH214360   2.579   1.382   2.960  0.4688 -0.1628  0.2869
 4799TIP3    H114361   2.589   1.456   2.900  0.9088  0.2378  0.8434
 4799TIP3    H214362   2.490   1.391   2.994  0.9070  0.7949  1.2273
 4800TIP3   OH214363   1.709   6.575   3.973 -0.5739 -0.3990  0.1923
 4800TIP3    H114364   1.688   6.631   3.898 -0.9258 -0.8634 -0.0556
 4800TIP3    H214365   1.631   6.521   3.985 -0.6508 -0.0965  1.1048
 4801TIP3   OH214366   4.369   0.885   4.687 -0.2400 -0.1047  0.4015
 4801TIP3    H114367   4.401   0.969   4.654 -0.6948 -0.7210 -1.7192
 4801TIP3    H214368   4.392   0.886   4.780 -0.0442  2.2689  0.3903
 4802TIP3   OH214369   6.599   0.077   1.280  0.3567 -0.8326  0.3359
 4802TIP3    H114370   6.623   0.089   1.372  0.6867 -0.4862  0.2042
 4802TIP3    H214371   6.658   0.009   1.249 -0.8093 -2.1133  0.7969
 4803TIP3   OH214372   6.452   1.895   1.610 -0.6109 -0.3696  0.3634
 4803TIP3    H114373   6.506   1.880   1.688 -0.4299  0.1149  0.3342
 4803TIP3    H214374   6.410   1.979   1.626  1.3952  1.0123 -1.1719
 4804TIP3   OH214375   4.414   6.115   2.496 -0.1946 -0.1610 -0.1953
 4804TIP3    H114376   4.364   6.100   2.576  0.2043 -2.2085 -0.2688
 4804TIP3    H214377   4.503   6.089   2.518  0.6279  2.2173 -0.4403
 4805TIP3   OH214378   7.111   3.126   1.782  0.3220  0.1193  0.4543
 4805TIP3    H114379   7.117   3.220   1.799  1.2910  0.1827 -0.2003
 4805TIP3    H214380   7.025   3.101   1.816 -0.1817  1.3473  0.1164
 4806TIP3   OH214381   4.563   4.099   3.188 -0.5215  0.3591  0.0360
 4806TIP3    H114382   4.498   4.151   3.234 -1.2668 -0.2690 -0.2881
 4806TIP3    H214383   4.555   4.124   3.096  0.1981  0.8011  0.0822
 4807TIP3   OH214384   6.705   4.744   2.134 -0.1117 -0.4663 -0.0491
 4807TIP3    H114385   6.734   4.660   2.168 -2.0313 -1.6070 -1.0280
 4807TIP3    H214386   6.681   4.795   2.211 -0.2121 -1.3320  0.5015
 4808TIP3   OH214387   4.409   6.047   5.383  0.1025 -0.2537  0.0284
 4808TIP3    H114388   4.503   6.028   5.389  0.1990  0.0010 -0.5865
 4808TIP3    H214389   4.372   5.973   5.336 -0.1724 -0.8255  1.1082
 4809TIP3   OH214390   1.415   2.359   5.577  0.6267 -0.1863 -0.2126
 4809TIP3    H114391   1.337   2.307   5.557  0.2637  0.1981  0.1577
 4809TIP3    H214392   1.386   2.419   5.646  1.3360 -0.2433  0.1440
 4810TIP3   OH214393   3.001   0.066   0.412  0.1777 -0.1273  0.4029
 4810TIP3    H114394   3.070   0.000   0.422  0.0503 -0.9037 -2.5808
 4810TIP3    H214395   3.043   0.136   0.362 -1.1207 -0.6678 -1.5592
 4811TIP3   OH214396   1.809   2.947   5.112 -0.1065 -0.0893 -0.1498
 4811TIP3    H114397   1.777   3.029   5.150 -0.4673 -0.1544 -0.3136
 4811TIP3    H214398   1.730   2.901   5.084  0.2032  1.1490 -3.5335
 4812TIP3   OH214399   6.490   1.325   4.515 -0.1987  0.4820  0.3651
 4812TIP3    H114400   6.507   1.326   4.609 -0.0449  0.0185  0.3478
 4812TIP3    H214401   6.571   1.356   4.474 -0.2163  0.5492  0.3829
 4813TIP3   OH214402   3.216   5.056   0.305  0.0146  0.7768 -0.2230
 4813TIP3    H114403   3.157   5.085   0.374 -0.8436  2.0088 -1.4367
 4813TIP3    H214404   3.229   5.133   0.250  1.8339  0.2062 -0.6442
 4814TIP3   OH214405   6.492   3.586   3.799  0.0022  0.4179 -0.2360
 4814TIP3    H114406   6.436   3.663   3.808  0.3549  0.6890 -0.3442
 4814TIP3    H214407   6.449   3.532   3.734  0.5243  1.2259 -1.2950
 4815TIP3   OH214408   4.929   4.429   0.378 -0.7124 -0.0982  0.3136
 4815TIP3    H114409   5.020   4.427   0.351 -0.9234 -1.4222 -0.3961
 4815TIP3    H214410   4.931   4.460   0.469  0.1078  3.3845 -0.7570
 4816TIP3   OH214411   5.756   5.661   3.913  0.2918  0.0670  0.1329
 4816TIP3    H114412   5.686   5.596   3.923  0.0383 -0.2308 -2.7814
 4816TIP3    H214413   5.714   5.745   3.930 -0.2192 -0.2660  0.5348
 4817TIP3   OH214414   0.883   1.312   0.540  0.2515 -0.4579 -0.2675
 4817TIP3    H114415   0.884   1.357   0.455 -1.2930  0.5113  0.1940
 4817TIP3    H214416   0.910   1.379   0.603 -1.2500 -0.3747  0.3269
 4818TIP3   OH214417   5.056   4.605   3.381 -0.5900  0.1535 -0.3183
 4818TIP3    H114418   5.026   4.676   3.324 -0.9840  0.5968  0.4369
 4818TIP3    H214419   5.010   4.618   3.463 -0.0961 -0.5424  0.0828
 4819TIP3   OH214420   2.894   3.460   4.886  0.0529  0.0400 -0.0188
 4819TIP3    H114421   2.834   3.387   4.900  1.7240 -1.3754  0.2138
 4819TIP3    H214422   2.966   3.422   4.835  0.0858  2.0203 -1.5600
 4820TIP3   OH214423   6.761   0.335   4.642 -0.6088  0.0345  0.2570
 4820TIP3    H114424   6.705   0.258   4.649 -1.1942  0.3186 -1.0613
 4820TIP3    H214425   6.724   0.386   4.571  0.5878  0.8616  0.1866
 4821TIP3   OH214426   4.667   3.794   5.065  0.6331  0.1463 -0.1646
 4821TIP3    H114427   4.671   3.785   4.970 -1.3450  1.7839 -0.4695
 4821TIP3    H214428   4.717   3.873   5.084 -0.8544  1.0975 -0.1250
 4822TIP3   OH214429   2.601   2.294   4.906  0.1467 -0.2650 -0.2649
 4822TIP3    H114430   2.607   2.389   4.904  0.3137 -0.1594  2.3151
 4822TIP3    H214431   2.660   2.267   4.977  0.2266 -2.3175 -1.0346
 4823TIP3   OH214432   0.357   0.428   0.494 -0.0873  0.1545 -0.1399
 4823TIP3    H114433   0.432   0.485   0.512 -0.4475  1.0062 -1.2693
 4823TIP3    H214434   0.394   0.358   0.440  0.1748 -0.2339  0.5237
 4824TIP3   OH214435   2.059   3.252   1.561  0.2773 -0.1854 -0.2290
 4824TIP3    H114436   1.971   3.254   1.598  0.7051 -0.7713  0.8605
 4824TIP3    H214437   2.086   3.160   1.567  1.1047  0.0512 -0.2035
 4825TIP3   OH214438   4.904   3.866   2.086 -0.3159 -1.0657  0.2510
 4825TIP3    H114439   4.941   3.916   2.158 -3.3276  0.1000  1.1429
 4825TIP3    H214440   4.954   3.784   2.085  0.5670 -0.6437  2.9291
 4826TIP3   OH214441   1.631   1.759   4.916 -0.0293 -0.4709  0.2355
 4826TIP3    H114442   1.725   1.742   4.921 -0.0413 -0.2627  1.3416
 4826TIP3    H214443   1.616   1.833   4.975 -0.7315  0.2049 -0.7474
 4827TIP3   OH214444   4.281   4.777   5.692  0.0255  0.1900 -0.0447
 4827TIP3    H114445   4.221   4.716   5.649  0.1071 -0.0894  0.2368
 4827TIP3    H214446   4.307   4.838   5.623 -0.8355  0.5078 -0.0963
 4828TIP3   OH214447   0.944   2.120   1.953  0.2036 -0.6017  0.2816
 4828TIP3    H114448   0.963   2.060   1.881 -1.2951  1.6468 -2.1898
 4828TIP3    H214449   0.850   2.108   1.970  0.6332 -1.4640  2.3077
 4829TIP3   OH214450   5.323   6.491   4.526  0.0815 -0.6280  0.1894
 4829TIP3    H114451   5.402   6.473   4.474 -0.9595 -2.0068 -1.0275
 4829TIP3    H214452   5.345   6.570   4.576  0.5419  2.1542 -3.8500
 4830TIP3   OH214453   0.340   5.847   4.674 -0.3600 -0.0698 -0.1110
 4830TIP3    H114454   0.425   5.824   4.635 -1.1455 -0.1935 -1.8295
 4830TIP3    H214455   0.311   5.924   4.625 -0.8798  0.4623  1.0105
 4831TIP3   OH214456   2.368   0.104   2.392  0.3331  0.3897  0.3194
 4831TIP3    H114457   2.388   0.041   2.323 -0.3567 -0.1049  0.5644
 4831TIP3    H214458   2.429   0.176   2.376  1.2073 -0.3748  0.0934
 4832TIP3   OH214459   6.679   2.897   1.806  0.2881  0.2754  0.3782
 4832TIP3    H114460   6.724   2.848   1.875  0.1101  0.6662  0.7756
 4832TIP3    H214461   6.633   2.966   1.852  1.8050  1.8141 -0.2939
 4833TIP3   OH214462   5.804   1.614   0.984 -0.1970 -0.0569  0.6576
 4833TIP3    H114463   5.865   1.677   0.945 -0.7734 -0.6472 -1.3262
 4833TIP3    H214464   5.785   1.650   1.071  1.4880  1.1138  0.6023
 4834TIP3   OH214465   3.878   2.987   2.465 -0.3067  0.2791 -0.0445
 4834TIP3    H114466   3.924   3.047   2.524  0.6007  0.8734 -1.2920
 4834TIP3    H214467   3.799   3.035   2.439 -0.8349 -0.0845  0.8485
 4835TIP3   OH214468   3.780   2.240   5.832 -0.0158  0.4497 -0.2766
 4835TIP3    H114469   3.713   2.196   5.780  0.5295 -0.7415 -0.0027
 4835TIP3    H214470   3.740   2.252   5.918  0.6365 -1.7969  0.4154
 4836TIP3   OH214471   4.746   1.123   0.457 -1.2315 -0.2809 -0.4856
 4836TIP3    H114472   4.761   1.182   0.531 -1.2978 -2.5611  1.4832
 4836TIP3    H214473   4.815   1.146   0.395 -0.9172  1.4722  0.4238
 4837TIP3   OH214474   5.315   2.221   4.237 -0.7866  0.0103 -0.1584
 4837TIP3    H114475   5.305   2.258   4.150  1.3338  1.1372 -0.0071
 4837TIP3    H214476   5.249   2.264   4.290 -0.2823  1.4386 -0.6426
 4838TIP3   OH214477   0.628   2.018   0.275 -0.3240 -0.0099  0.3382
 4838TIP3    H114478   0.682   1.941   0.290 -1.7305 -0.7768  1.6951
 4838TIP3    H214479   0.683   2.092   0.301  0.1801 -0.7412  1.3904
 4839TIP3   OH214480   5.571   0.764   0.744  0.2717 -0.1730  0.1568
 4839TIP3    H114481   5.538   0.766   0.654 -0.2049  0.9476  0.3392
 4839TIP3    H214482   5.572   0.671   0.767  0.6860 -0.4973 -1.1055
 4840TIP3   OH214483   0.076   4.808   1.788  0.4402  0.4283 -0.1296
 4840TIP3    H114484   0.061   4.866   1.862  0.4444  0.2631  0.0007
 4840TIP3    H214485  -0.005   4.757   1.781  1.2138 -1.0505  1.0909
 4841TIP3   OH214486   7.146   5.716   1.325  0.2952 -0.2297  0.0340
 4841TIP3    H114487   7.080   5.718   1.256 -0.2532  0.0591  0.5525
 4841TIP3    H214488   7.211   5.781   1.300  0.0575 -0.0710 -0.1659
 4842TIP3   OH214489   6.597   2.957   1.398 -0.2124  0.7464 -0.4505
 4842TIP3    H114490   6.598   3.052   1.385  0.4530  0.6326 -1.3154
 4842TIP3    H214491   6.639   2.921   1.320  0.7576 -0.1896  0.4607
 4843TIP3   OH214492   4.446   1.998   2.724 -0.1792  1.1154  0.2690
 4843TIP3    H114493   4.377   2.041   2.774 -0.4897 -1.3988  2.1855
 4843TIP3    H214494   4.525   2.010   2.776 -0.4119 -1.1189  1.2421
 4844TIP3   OH214495   0.303   2.812   1.202 -0.0221 -0.1771  0.0383
 4844TIP3    H114496   0.322   2.726   1.240 -0.2795 -0.3684 -0.2678
 4844TIP3    H214497   0.390   2.849   1.182  0.0660 -0.7774 -0.7424
 4845TIP3   OH214498   1.894   0.141   0.654  0.3346  0.4272  0.2326
 4845TIP3    H114499   1.935   0.054   0.655  0.3948  0.4157 -1.0927
 4845TIP3    H214500   1.961   0.200   0.688 -0.2100 -0.2117  2.5750
 4846TIP3   OH214501   1.071   6.465   4.198 -0.0621  0.1078 -0.3522
 4846TIP3    H114502   1.086   6.559   4.206 -0.7057  0.2965 -1.2180
 4846TIP3    H214503   0.999   6.457   4.136  0.4268 -0.9799 -0.8166
 4847TIP3   OH214504   5.722   1.010   0.789  0.0003 -0.7480 -0.3759
 4847TIP3    H114505   5.676   0.939   0.743 -0.4040 -0.4750 -0.4048
 4847TIP3    H214506   5.788   0.966   0.842 -0.1873 -1.1417 -0.4637
 4848TIP3   OH214507   3.896   2.169   4.033 -0.3055  0.5707  0.0033
 4848TIP3    H114508   3.924   2.259   4.046  1.1429  0.4433 -1.8079
 4848TIP3    H214509   3.878   2.135   4.121 -0.1937  2.3922  0.7526
 4849TIP3   OH214510   3.445   2.473   1.128  0.1948 -0.1669 -0.4396
 4849TIP3    H114511   3.397   2.440   1.204 -0.5890  0.4176 -0.6587
 4849TIP3    H214512   3.534   2.485   1.159  0.2053 -1.2387 -0.0048
 4850TIP3   OH214513   1.847   1.939   5.696 -0.6561  0.0393  0.0316
 4850TIP3    H114514   1.835   1.910   5.606  1.2750  1.1523 -0.6524
 4850TIP3    H214515   1.779   2.005   5.710 -1.8482 -1.1289 -0.1008
 4851TIP3   OH214516   1.433   6.436   3.913 -0.1724  0.1830  0.8204
 4851TIP3    H114517   1.474   6.351   3.897 -2.3979 -0.5865 -1.2932
 4851TIP3    H214518   1.447   6.452   4.007  2.6060 -1.1895  0.7382
 4852TIP3   OH214519   4.640   0.514   1.311  0.8131  0.5634  0.8319
 4852TIP3    H114520   4.650   0.568   1.390  0.1007  0.6055  0.9012
 4852TIP3    H214521   4.729   0.486   1.290  0.9233 -0.2021  2.1845
 4853TIP3   OH214522   0.358   5.951   3.374  0.0835  0.2557  0.4310
 4853TIP3    H114523   0.363   5.926   3.466  0.8001  0.1433  0.3645
 4853TIP3    H214524   0.446   5.938   3.340 -0.2880 -0.2033 -0.4054
 4854TIP3   OH214525   6.723   6.782   5.740  1.2290 -0.1555  0.2491
 4854TIP3    H114526   6.721   6.840   5.664  1.1052 -0.2063  0.2129
 4854TIP3    H214527   6.679   6.702   5.710  0.7603 -0.0020  0.5166
 4855TIP3   OH214528   2.785   5.753   1.258 -0.3272 -0.2161  0.2593
 4855TIP3    H114529   2.788   5.723   1.167 -0.4308  1.8975 -0.4776
 4855TIP3    H214530   2.859   5.812   1.267  0.4427 -1.3362  1.9586
 4856TIP3   OH214531   2.448   4.447   3.853 -0.8191  0.2063 -0.0662
 4856TIP3    H114532   2.395   4.371   3.832 -0.9705  0.3860 -0.3482
 4856TIP3    H214533   2.456   4.495   3.770  1.0222 -0.5673 -0.3792
 4857TIP3   OH214534   6.550   3.297   5.468 -0.5453  0.7373 -0.3153
 4857TIP3    H114535   6.572   3.206   5.447 -0.7974  0.6643 -0.2585
 4857TIP3    H214536   6.489   3.292   5.541  0.4749  1.0020  0.5743
 4858TIP3   OH214537   3.330   5.301   2.577  0.5031 -0.4591  0.5495
 4858TIP3    H114538   3.325   5.233   2.510 -0.2322  0.3634 -0.2343
 4858TIP3    H214539   3.421   5.296   2.609  1.5395  0.5391 -1.9998
 4859TIP3   OH214540   1.693   2.470   2.959 -0.4155 -0.9785 -0.1061
 4859TIP3    H114541   1.650   2.515   2.887  3.0769  0.2611 -1.6451
 4859TIP3    H214542   1.661   2.514   3.038 -0.8151  0.8724 -1.2498
 4860TIP3   OH214543   2.777   2.624   1.220  0.0403 -0.1192 -0.1227
 4860TIP3    H114544   2.832   2.674   1.280  1.5300 -1.2509 -0.4600
 4860TIP3    H214545   2.828   2.544   1.203 -2.0457 -1.5855  0.1071
 4861TIP3   OH214546   0.826   5.445   2.075 -0.6363 -0.6611 -0.6760
 4861TIP3    H114547   0.737   5.429   2.106 -0.7251 -1.2172 -1.2064
 4861TIP3    H214548   0.832   5.397   1.993  0.2227 -0.7975 -0.5451
 4862TIP3   OH214549   2.923   5.713   2.758  0.6472  0.1604 -0.0689
 4862TIP3    H114550   2.994   5.651   2.773 -2.1116 -2.7794  2.4299
 4862TIP3    H214551   2.911   5.756   2.843 -1.4460 -0.5923  0.0718
 4863TIP3   OH214552   1.908   6.528   1.489 -0.0750  0.4171  0.2959
 4863TIP3    H114553   1.899   6.582   1.567 -0.4033 -0.1435  0.6524
 4863TIP3    H214554   1.975   6.572   1.437 -0.6293  1.3837  0.3873
 4864TIP3   OH214555   0.699   1.935   3.184 -0.2855 -0.0232 -0.1568
 4864TIP3    H114556   0.742   1.942   3.269  1.5043  1.1299 -1.0970
 4864TIP3    H214557   0.605   1.936   3.204  0.1056 -0.3764  1.8230
 4865TIP3   OH214558   4.881   3.325   1.500  0.5350 -0.1375 -0.0281
 4865TIP3    H114559   4.895   3.249   1.445  0.9754  0.2705 -0.4909
 4865TIP3    H214560   4.912   3.399   1.447 -0.2712  0.4095  0.2433
 4866TIP3   OH214561   1.681   6.580   1.332 -0.0597  0.4079 -0.4174
 4866TIP3    H114562   1.751   6.547   1.389 -1.2211  0.3761  1.0400
 4866TIP3    H214563   1.726   6.634   1.268  1.6439 -1.9705 -1.3708
 4867TIP3   OH214564   4.413   1.669   4.230 -0.4876 -0.3655  0.2096
 4867TIP3    H114565   4.352   1.691   4.159  0.5036 -0.3839 -0.6636
 4867TIP3    H214566   4.497   1.704   4.201  0.1501 -1.2898  0.9033
 4868TIP3   OH214567   6.605   4.132   2.747 -0.0504  0.3896 -0.1104
 4868TIP3    H114568   6.546   4.156   2.676  0.6752 -0.1597 -0.9188
 4868TIP3    H214569   6.652   4.054   2.715 -1.3684 -1.3368  1.8791
 4869TIP3   OH214570   5.852   0.673   1.477 -0.0710 -0.4219 -0.8372
 4869TIP3    H114571   5.937   0.680   1.521 -0.9255 -2.1386  1.3317
 4869TIP3    H214572   5.842   0.755   1.429  1.6463  0.9884  1.0503
 4870TIP3   OH214573   5.137   5.452   2.066 -0.2800  0.0897  0.0329
 4870TIP3    H114574   5.066   5.515   2.083 -0.1277  1.0131 -2.3851
 4870TIP3    H214575   5.103   5.397   1.995  1.3502  0.4906 -1.1029
 4871TIP3   OH214576   6.919   0.729   4.055  0.5124  0.1753 -0.1483
 4871TIP3    H114577   6.916   0.634   4.068 -0.3271  0.2810  0.5614
 4871TIP3    H214578   6.828   0.753   4.039  0.8629  0.7330 -1.4546
 4872TIP3   OH214579   4.765   2.669   5.154  0.2999  0.3988  0.2474
 4872TIP3    H114580   4.771   2.733   5.226 -1.9359  1.7145 -0.6023
 4872TIP3    H214581   4.823   2.704   5.086  0.2553  0.7240  0.3708
 4873TIP3   OH214582   4.596   6.677   5.556  0.4447  0.4157 -0.6093
 4873TIP3    H114583   4.610   6.656   5.648 -0.7543 -1.9725 -0.8744
 4873TIP3    H214584   4.684   6.692   5.520  0.9855  0.5452  0.7282
 4874TIP3   OH214585   5.197   6.286   2.153 -0.3540 -0.0068 -0.2110
 4874TIP3    H114586   5.205   6.211   2.211 -1.4174 -0.1833 -0.2781
 4874TIP3    H214587   5.262   6.349   2.186 -1.2922  0.1293  1.5263
 4875TIP3   OH214588   5.581   1.682   2.741  0.1072  0.5402  0.1082
 4875TIP3    H114589   5.598   1.755   2.681 -0.8661  0.4229 -0.3309
 4875TIP3    H214590   5.659   1.627   2.735  0.5531  1.1795 -0.0927
 4876TIP3   OH214591   3.873   2.737   5.448  0.1545 -0.3143  0.3690
 4876TIP3    H114592   3.851   2.734   5.541 -0.0146  1.2629  0.4006
 4876TIP3    H214593   3.897   2.828   5.431  1.2800 -0.7956 -0.8975
 4877TIP3   OH214594   2.669   3.784   5.105 -0.0634 -0.5387  0.6314
 4877TIP3    H114595   2.698   3.757   5.018 -0.4973  0.4266  0.1708
 4877TIP3    H214596   2.748   3.816   5.148  0.0346 -0.4118  0.3561
 4878TIP3   OH214597   4.515   6.122   5.702 -0.1115 -0.1855 -0.2202
 4878TIP3    H114598   4.548   6.032   5.706  1.2551  0.2668 -0.6581
 4878TIP3    H214599   4.439   6.122   5.761  1.2619 -1.0592  1.6664
 4879TIP3   OH214600   6.674   6.117   1.872  0.5246  0.4289 -0.2279
 4879TIP3    H114601   6.648   6.182   1.807  1.1502  0.5199 -0.3980
 4879TIP3    H214602   6.705   6.169   1.946 -0.4850  0.3292  0.2821
 4880TIP3   OH214603   4.021   4.890   3.222 -0.3119 -0.0021  1.0003
 4880TIP3    H114604   3.972   4.865   3.300  0.7436 -0.9466  1.3780
 4880TIP3    H214605   4.109   4.855   3.236 -0.3626 -1.1036 -1.0525
 4881TIP3   OH214606   6.704   2.627   2.074 -0.1797  0.1934  0.1642
 4881TIP3    H114607   6.672   2.648   2.161 -0.1818 -1.6959  0.6688
 4881TIP3    H214608   6.763   2.699   2.051  0.7609  0.1387  2.2326
 4882TIP3   OH214609   2.377   2.811   2.107  0.5186  0.1105  0.1860
 4882TIP3    H114610   2.306   2.784   2.048  0.2782 -0.2830  0.6555
 4882TIP3    H214611   2.451   2.827   2.048  0.6273 -1.3978 -0.1516
 4883TIP3   OH214612   6.343   0.855   1.340  0.8542  0.3140  0.2512
 4883TIP3    H114613   6.439   0.854   1.350  1.1252 -0.5920 -1.9467
 4883TIP3    H214614   6.318   0.945   1.358  2.1368  0.5962  0.7313
 4884TIP3   OH214615   4.481   6.436   1.281 -0.1165 -0.1263 -0.5790
 4884TIP3    H114616   4.453   6.414   1.192  1.1455 -1.6949 -0.6235
 4884TIP3    H214617   4.484   6.352   1.326 -0.6471  0.6431  0.9357
 4885TIP3   OH214618   0.719   2.904   2.280 -0.5522 -0.3997  0.2568
 4885TIP3    H114619   0.659   2.928   2.209 -1.0178 -0.0349  0.7680
 4885TIP3    H214620   0.707   2.973   2.346 -1.0515 -1.4024  1.2449
 4886TIP3   OH214621   0.345   6.816   4.817  0.4812  0.2113 -0.4347
 4886TIP3    H114622   0.418   6.754   4.811 -0.1450 -0.9211  2.0770
 4886TIP3    H214623   0.277   6.778   4.761  0.1545 -1.4209  0.9600
 4887TIP3   OH214624   6.749   3.639   5.156 -0.1487 -0.1849  0.1540
 4887TIP3    H114625   6.690   3.695   5.206 -0.1431  0.4686 -0.5637
 4887TIP3    H214626   6.697   3.609   5.081  0.4074  0.3841 -0.4788
 4888TIP3   OH214627   0.484   0.334   0.246  0.6123 -0.1416  0.6362
 4888TIP3    H114628   0.553   0.297   0.190 -0.7092  0.2501 -1.3167
 4888TIP3    H214629   0.482   0.427   0.224 -0.9366 -0.2525  0.1760
 4889TIP3   OH214630   6.049   5.127   5.529 -0.1382 -0.0868 -0.0507
 4889TIP3    H114631   6.087   5.146   5.615 -0.0063  0.6807 -0.2734
 4889TIP3    H214632   5.996   5.204   5.509 -0.6344 -0.5190 -0.4034
 4890TIP3   OH214633   6.048   0.929   2.222 -0.2224  0.2829 -0.3572
 4890TIP3    H114634   6.041   0.932   2.126  0.6589 -1.1278 -0.4889
 4890TIP3    H214635   6.000   0.850   2.247  4.2647 -2.7563 -0.2467
 4891TIP3   OH214636   4.137   5.581   3.705 -0.5160 -0.2616  0.2214
 4891TIP3    H114637   4.087   5.536   3.773  0.6257  1.1706  2.1154
 4891TIP3    H214638   4.195   5.513   3.670 -1.2260 -1.0615  0.5575
 4892TIP3   OH214639   3.145   1.251   2.101  0.4972 -0.1972  0.2592
 4892TIP3    H114640   3.187   1.265   2.186 -0.9996  0.0169  0.9948
 4892TIP3    H214641   3.181   1.168   2.070  0.7615 -0.4826  1.2979
 4893TIP3   OH214642   5.968   0.507   3.139  0.4476  0.1914 -0.3830
 4893TIP3    H114643   5.908   0.484   3.210  1.1501  0.1320  0.2054
 4893TIP3    H214644   5.912   0.518   3.062 -0.2601 -0.2818  0.0593
 4894TIP3   OH214645   0.540   2.503   0.552  0.2830  0.1345 -0.0163
 4894TIP3    H114646   0.532   2.414   0.585 -2.5608  0.7656  1.3085
 4894TIP3    H214647   0.607   2.544   0.607  1.7476 -1.1568 -0.7610
 4895TIP3   OH214648   2.422   1.674   0.933 -0.1339 -0.3781 -0.2509
 4895TIP3    H114649   2.400   1.765   0.913 -0.8082 -0.4564  0.1040
 4895TIP3    H214650   2.518   1.670   0.927 -0.1157  0.3038 -0.4661
 4896TIP3   OH214651   2.527   0.780   1.051  0.2578 -0.1218  0.4309
 4896TIP3    H114652   2.587   0.707   1.063  0.5867  0.1846  0.6406
 4896TIP3    H214653   2.505   0.777   0.958  0.4611 -0.3390  0.3887
 4897TIP3   OH214654   0.775   1.419   3.439 -0.1347 -0.1879  0.0601
 4897TIP3    H114655   0.687   1.391   3.465 -0.1226 -1.3568 -1.0531
 4897TIP3    H214656   0.832   1.349   3.469  0.7218  1.4520  2.4869
 4898TIP3   OH214657   2.622   4.392   5.876 -0.0838 -0.4844 -0.2821
 4898TIP3    H114658   2.561   4.465   5.872  0.1657 -0.0892  1.8522
 4898TIP3    H214659   2.566   4.315   5.883 -0.3489 -0.2628  0.0813
 4899TIP3   OH214660   0.528   5.925   2.144 -0.2869 -0.0509 -0.0749
 4899TIP3    H114661   0.532   5.832   2.123 -0.8235 -0.6464  2.1170
 4899TIP3    H214662   0.603   5.940   2.201 -0.3201  0.8089 -0.2412
 4900TIP3   OH214663   4.096   0.829   4.780  0.7414 -0.0280  0.6093
 4900TIP3    H114664   4.115   0.771   4.707 -1.3935 -0.0905  0.0592
 4900TIP3    H214665   4.128   0.915   4.750  0.4973 -0.1805 -0.1109
 4901TIP3   OH214666   1.368   3.599   0.982 -0.1946  0.2943  0.1615
 4901TIP3    H114667   1.366   3.510   1.017 -0.3237  0.2609  0.0717
 4901TIP3    H214668   1.458   3.627   0.993 -0.0522 -0.0035 -0.1965
 4902TIP3   OH214669   1.673   3.662   5.680  1.0421  0.0624  0.3352
 4902TIP3    H114670   1.640   3.717   5.609  0.1488  0.7927  1.2743
 4902TIP3    H214671   1.656   3.573   5.650 -2.7290  0.3502  1.0512
 4903TIP3   OH214672   6.364   0.557   1.691 -0.2262  0.0191 -0.7933
 4903TIP3    H114673   6.431   0.501   1.654  0.3396 -0.3186  0.6756
 4903TIP3    H214674   6.404   0.594   1.770 -2.0467 -0.9595  0.6805
 4904TIP3   OH214675   2.079   0.515   4.309  0.2541  0.5325  0.1278
 4904TIP3    H114676   2.064   0.556   4.394  0.3165 -1.7610  1.3094
 4904TIP3    H214677   1.999   0.534   4.259  0.1740  1.8236  0.6877
 4905TIP3   OH214678   3.018   2.531   5.856  0.2150  0.0302  0.3352
 4905TIP3    H114679   2.937   2.580   5.875  0.7396  1.1163 -0.1777
 4905TIP3    H214680   3.004   2.446   5.898 -1.4978 -0.0716 -0.3541
 4906TIP3   OH214681   3.145   0.704   2.853 -0.8931  0.3737  0.0125
 4906TIP3    H114682   3.129   0.785   2.901  0.0470  0.5475  0.0521
 4906TIP3    H214683   3.215   0.660   2.901 -1.7510 -0.7362  0.2961
 4907TIP3   OH214684   3.679   2.694   4.420  0.3369 -0.1971  0.2171
 4907TIP3    H114685   3.658   2.706   4.327 -0.4740  3.9771  0.7417
 4907TIP3    H214686   3.773   2.679   4.422  0.2185 -1.4155 -1.2625
 4908TIP3   OH214687   1.760   6.570   4.632  0.0954 -0.4103 -0.2697
 4908TIP3    H114688   1.779   6.491   4.684  0.4874  0.7699  1.4615
 4908TIP3    H214689   1.816   6.638   4.670 -1.1371  1.0104 -0.9053
 4909TIP3   OH214690   1.802   4.463   1.619  0.5098 -0.5574 -0.0833
 4909TIP3    H114691   1.846   4.534   1.573  0.5023  0.1471  0.9721
 4909TIP3    H214692   1.709   4.475   1.600  0.6576 -1.5662 -1.6422
 4910TIP3   OH214693   0.916   6.162   4.619 -0.3167 -0.4605  0.7324
 4910TIP3    H114694   0.952   6.159   4.707 -1.5755  0.8684  1.3323
 4910TIP3    H214695   0.983   6.204   4.566  0.1048 -0.4928  1.2354
 4911TIP3   OH214696   2.399   4.404   3.213  0.1669  0.2402 -0.6611
 4911TIP3    H114697   2.370   4.328   3.163 -0.2418  0.9018 -1.4557
 4911TIP3    H214698   2.419   4.369   3.300 -1.6344 -0.4875 -0.5013
 4912TIP3   OH214699   0.675   2.164   2.623  0.2065 -0.1355  0.8777
 4912TIP3    H114700   0.643   2.204   2.542  1.5044  0.4688  0.6400
 4912TIP3    H214701   0.596   2.145   2.673 -0.6199 -0.5619 -0.5417
 4913TIP3   OH214702   6.449   4.504   0.722  0.0272  0.9322 -0.4521
 4913TIP3    H114703   6.475   4.566   0.790 -2.3031 -1.4746  3.0300
 4913TIP3    H214704   6.366   4.538   0.689 -1.8698 -0.6419  2.3073
 4914TIP3   OH214705   2.553   4.238   1.292  0.3616  0.2460  0.3798
 4914TIP3    H114706   2.596   4.323   1.284  0.9199 -0.1276 -0.8751
 4914TIP3    H214707   2.467   4.257   1.330 -0.1598  1.5748 -1.3432
 4915TIP3   OH214708   6.007   0.286   5.232  0.1184  0.4908 -0.2311
 4915TIP3    H114709   5.954   0.252   5.304 -0.0849 -0.9366 -1.0116
 4915TIP3    H214710   5.978   0.376   5.220 -0.7878  0.3187  0.5834
 4916TIP3   OH214711   5.694   4.710   1.514  0.0890 -0.0147  0.6341
 4916TIP3    H114712   5.618   4.769   1.506  0.5790  0.6937  1.0915
 4916TIP3    H214713   5.659   4.624   1.494 -0.5416  0.4947 -0.6042
 4917TIP3   OH214714   3.695   3.841   1.241 -0.0566  0.3128 -0.5421
 4917TIP3    H114715   3.785   3.869   1.257 -0.3847  1.1444 -0.0977
 4917TIP3    H214716   3.702   3.777   1.170  0.6411  2.1099 -2.1601
 4918TIP3   OH214717   4.614   2.724   1.065  0.4338  0.0762 -0.2288
 4918TIP3    H114718   4.652   2.811   1.060 -0.1731  0.2916 -1.8063
 4918TIP3    H214719   4.567   2.714   0.982 -1.1510 -0.9914  0.7495
 4919TIP3   OH214720   2.248   0.252   1.142 -0.1027 -0.2604  0.0206
 4919TIP3    H114721   2.208   0.327   1.099 -0.0245  0.1276  0.6191
 4919TIP3    H214722   2.337   0.249   1.106  0.3560  0.7838  1.0160
 4920TIP3   OH214723   1.688   5.553   3.633  0.6953 -0.1639 -0.2519
 4920TIP3    H114724   1.661   5.645   3.632 -0.8100 -0.5889 -0.5674
 4920TIP3    H214725   1.723   5.538   3.721 -2.2386 -0.1516  1.0062
 4921TIP3   OH214726   7.082   1.876   4.342 -0.3858  0.1903  0.0593
 4921TIP3    H114727   7.017   1.937   4.377  0.6779  2.8441 -2.2251
 4921TIP3    H214728   7.031   1.816   4.286 -1.1552  0.7206  0.1743
 4922TIP3   OH214729   2.492   2.400   2.112 -0.1131  0.3821 -0.2024
 4922TIP3    H114730   2.399   2.418   2.101  0.1122  0.3705 -2.6518
 4922TIP3    H214731   2.496   2.338   2.185 -2.1111 -0.3019 -0.6142
 4923TIP3   OH214732   0.277   5.707   2.423 -0.4733 -0.3502  0.2924
 4923TIP3    H114733   0.365   5.675   2.445 -0.1259  0.1565 -0.3079
 4923TIP3    H214734   0.219   5.666   2.487  0.1320 -1.1381  0.3424
 4924TIP3   OH214735   2.787   5.494   1.155  0.3698  0.6456  0.1230
 4924TIP3    H114736   2.705   5.534   1.128  1.0132  0.4635 -2.3064
 4924TIP3    H214737   2.763   5.405   1.182 -0.4006  1.0463  0.7699
 4925TIP3   OH214738   3.004   0.961   2.027 -0.4255  0.4923 -0.4542
 4925TIP3    H114739   3.078   0.974   2.087 -1.3008  2.6905  0.2230
 4925TIP3    H214740   3.046   0.941   1.943  0.9593  1.5231 -0.0545
 4926TIP3   OH214741   0.136   3.318   3.012 -0.0013 -0.2763 -0.1262
 4926TIP3    H114742   0.084   3.240   3.028  0.1885 -0.4675 -0.4087
 4926TIP3    H214743   0.178   3.338   3.096  0.4359 -0.8478 -0.2001
 4927TIP3   OH214744   0.665   2.025   4.413  0.4110 -0.3524 -0.1798
 4927TIP3    H114745   0.630   1.951   4.463  2.1930  0.4484  2.3928
 4927TIP3    H214746   0.733   1.986   4.358  2.2804 -0.5697  2.1363
 4928TIP3   OH214747   2.295   0.785   4.633  0.1585  0.1216  0.1474
 4928TIP3    H114748   2.361   0.854   4.637  2.2809 -1.8314  2.1750
 4928TIP3    H214749   2.260   0.780   4.722 -0.3901 -1.0280 -0.1155
 4929TIP3   OH214750   3.945   4.678   2.361  0.1634 -0.0419  0.0262
 4929TIP3    H114751   3.948   4.717   2.274  1.6250  0.7074  0.3853
 4929TIP3    H214752   3.925   4.586   2.345  1.2454 -0.0971 -1.1837
 4930TIP3   OH214753   6.050   0.946   3.950 -0.4793  0.2763 -0.2743
 4930TIP3    H114754   5.993   0.888   3.899 -1.9656  1.5367 -0.0895
 4930TIP3    H214755   6.097   0.997   3.883 -0.6581  0.2714 -0.4038
 4931TIP3   OH214756   4.454   0.502   3.390 -0.1491  0.1009  0.2555
 4931TIP3    H114757   4.493   0.415   3.395 -0.5910 -0.0035  2.7247
 4931TIP3    H214758   4.511   0.557   3.443 -0.5791  1.0589 -0.2574
 4932TIP3   OH214759   2.073   5.040   1.500  0.6645  0.4829 -0.4036
 4932TIP3    H114760   2.090   4.952   1.465  1.2722  0.0060  1.0186
 4932TIP3    H214761   2.159   5.083   1.500  0.2425  1.4119 -1.8625
 4933TIP3   OH214762   2.501   5.829   2.698 -0.5318  0.1960 -0.6374
 4933TIP3    H114763   2.586   5.801   2.733 -0.0782  0.6150 -1.3986
 4933TIP3    H214764   2.444   5.754   2.714  0.1574 -0.3709 -0.7602
 4934TIP3   OH214765   0.504   1.201   3.413 -0.2764  0.0487  0.0547
 4934TIP3    H114766   0.481   1.206   3.506 -1.2745 -0.1174 -0.1702
 4934TIP3    H214767   0.594   1.168   3.412  0.1782  1.1773  0.9976
 4935TIP3   OH214768   0.022   4.923   0.642  0.0992 -0.0281 -0.0165
 4935TIP3    H114769   0.029   4.828   0.654  0.3449 -0.0101 -0.0250
 4935TIP3    H214770   0.019   4.959   0.730  1.0739  0.0380 -0.0002
 4936TIP3   OH214771   3.180   5.560   3.869  0.0531 -0.1703 -0.5777
 4936TIP3    H114772   3.096   5.586   3.907  0.0329 -0.8261 -0.1541
 4936TIP3    H214773   3.242   5.624   3.902 -0.1600 -0.1038 -0.3008
 4937TIP3   OH214774   4.926   4.361   5.708  0.2161 -0.5250  0.5052
 4937TIP3    H114775   4.990   4.305   5.664 -1.1011 -1.3483 -0.4373
 4937TIP3    H214776   4.845   4.311   5.704 -0.4843  0.4833  1.7003
 4938TIP3   OH214777   5.897   4.468   5.693  0.5745 -0.1221  0.2898
 4938TIP3    H114778   5.990   4.450   5.704  0.5142  0.0837  1.3083
 4938TIP3    H214779   5.873   4.518   5.772 -0.2502  0.3950 -0.2692
 4939TIP3   OH214780   6.589   5.178   4.710 -0.2410 -0.2133 -0.2880
 4939TIP3    H114781   6.638   5.115   4.658 -0.6446 -0.9337  0.1758
 4939TIP3    H214782   6.497   5.150   4.700 -0.3683 -0.0373  0.3659
 4940TIP3   OH214783   0.824   0.056   3.111 -0.1927 -0.1515 -0.3836
 4940TIP3    H114784   0.844   0.057   3.017  0.1734  0.8153 -0.3079
 4940TIP3    H214785   0.861  -0.026   3.143 -0.5036 -0.5922 -1.1164
 4941TIP3   OH214786   1.072   1.709   1.949  0.2182 -0.2401 -0.1107
 4941TIP3    H114787   1.037   1.638   2.002  1.4126 -2.0985 -1.6894
 4941TIP3    H214788   1.004   1.725   1.883  1.0742 -1.9342 -1.4781
 4942TIP3   OH214789   1.845   4.971   1.985  0.4295 -0.9536 -0.0545
 4942TIP3    H114790   1.851   4.885   1.943 -1.3322 -0.5552 -1.2250
 4942TIP3    H214791   1.858   5.034   1.914 -2.1269 -0.2676  0.0038
 4943TIP3   OH214792   2.584   2.467   0.378 -0.2484  0.2425  0.5189
 4943TIP3    H114793   2.594   2.473   0.473 -0.2143  0.1104  0.5243
 4943TIP3    H214794   2.539   2.548   0.353  1.6641  1.3411  0.3781
 4944TIP3   OH214795   6.349   2.742   4.384  0.0167 -0.5705  0.3906
 4944TIP3    H114796   6.267   2.741   4.434  0.8082 -1.1791  1.7390
 4944TIP3    H214797   6.331   2.689   4.307 -1.6666  1.5114 -0.7692
 4945TIP3   OH214798   3.007   2.801   0.094  0.5164 -0.5255  0.9172
 4945TIP3    H114799   3.065   2.843   0.031  0.8197 -0.7956  1.0166
 4945TIP3    H214800   3.009   2.708   0.071 -1.2996 -0.3276 -0.2315
 4946TIP3   OH214801   4.148   2.295   4.025  0.0702  0.1563  0.2947
 4946TIP3    H114802   4.151   2.347   4.104 -0.0676  0.1345  0.3133
 4946TIP3    H214803   4.193   2.213   4.048  0.6278  0.4180  0.1542
 4947TIP3   OH214804   5.912   4.310   5.088 -0.5698  0.2759 -0.3089
 4947TIP3    H114805   5.831   4.356   5.064 -0.5053  0.3222 -0.4385
 4947TIP3    H214806   5.935   4.346   5.174 -0.1990  0.9194 -0.6724
 4948TIP3   OH214807   5.392   1.450   0.788  0.9166 -0.3572  0.4829
 4948TIP3    H114808   5.417   1.362   0.818  0.3446  0.0494  2.3121
 4948TIP3    H214809   5.299   1.457   0.811  0.3704 -0.0313 -1.6218
 4949TIP3   OH214810   5.316   6.037   5.235  0.4846  0.1617  0.2720
 4949TIP3    H114811   5.327   6.112   5.294  2.0771  0.6989 -0.6345
 4949TIP3    H214812   5.226   6.043   5.205  0.3960  1.3496  0.7183
 4950TIP3   OH214813   5.409   5.936   1.345  0.3289 -0.6616  0.5848
 4950TIP3    H114814   5.486   5.938   1.402  0.7938 -2.2714  0.0504
 4950TIP3    H214815   5.366   5.854   1.366  0.0882 -0.9163 -0.8429
 4951TIP3   OH214816   0.330   6.053   3.971  0.1921  0.4367 -0.3307
 4951TIP3    H114817   0.381   5.996   4.028 -0.4816  1.8182  1.7406
 4951TIP3    H214818   0.379   6.135   3.967  1.0906 -0.1275 -3.1780
 4952TIP3   OH214819   4.275   1.755   5.089 -0.8595 -0.0201  0.3709
 4952TIP3    H114820   4.207   1.815   5.056 -1.8972 -0.7580  1.1244
 4952TIP3    H214821   4.252   1.670   5.051  0.1802 -0.1010 -0.0947
 4953TIP3   OH214822   4.428   0.741   0.229 -0.7596  0.2035  0.3629
 4953TIP3    H114823   4.404   0.687   0.304  0.4310  0.6862  1.1246
 4953TIP3    H214824   4.469   0.818   0.267  0.8832 -0.0436 -0.8064
 4954TIP3   OH214825   0.228   5.296   3.395  0.1983  0.3209  0.2557
 4954TIP3    H114826   0.306   5.338   3.432  0.1232  1.1459 -0.4699
 4954TIP3    H214827   0.261   5.245   3.321  0.1286  0.1212  0.3608
 4955TIP3   OH214828   4.344   3.049   1.088  0.0850 -0.7293  0.4361
 4955TIP3    H114829   4.363   3.103   1.011  0.1530 -0.4289  0.6631
 4955TIP3    H214830   4.295   2.975   1.053 -0.1832 -0.4233  0.1503
 4956TIP3   OH214831   6.882   4.768   4.419 -0.0406 -0.1489 -0.3248
 4956TIP3    H114832   6.844   4.779   4.506  1.5284  0.4985  0.3188
 4956TIP3    H214833   6.977   4.770   4.434  0.2691  0.7976 -2.1281
 4957TIP3   OH214834   2.648   2.176   4.434  0.0683 -0.1971  0.0468
 4957TIP3    H114835   2.600   2.235   4.492  0.8040  0.6121 -0.1441
 4957TIP3    H214836   2.587   2.104   4.417 -1.2117  0.9672 -0.4833
 4958TIP3   OH214837   0.162   6.611   4.913 -0.1554  0.2797  0.4630
 4958TIP3    H114838   0.191   6.698   4.938 -0.0482  0.6853 -0.9562
 4958TIP3    H214839   0.168   6.611   4.817  1.1342 -1.7263  0.4765
 4959TIP3   OH214840   1.783   4.281   2.485  0.2167  0.0556 -0.2973
 4959TIP3    H114841   1.700   4.245   2.518  1.1975 -1.8960  0.1652
 4959TIP3    H214842   1.820   4.210   2.433  1.5991  0.9286 -0.5448
 4960TIP3   OH214843   0.779   1.668   2.477  0.1569  0.3265  0.4497
 4960TIP3    H114844   0.867   1.655   2.443  0.5127 -0.4203  1.5998
 4960TIP3    H214845   0.779   1.757   2.511  0.4779  0.3200  0.4686
 4961TIP3   OH214846   4.928   2.853   1.752  0.2930  0.0318 -0.1832
 4961TIP3    H114847   4.991   2.809   1.694  0.1879 -1.1638  0.5731
 4961TIP3    H214848   4.876   2.782   1.789 -0.7245  0.9145  0.1215
 4962TIP3   OH214849   1.186   3.220   0.195 -1.0749 -0.0547  1.0023
 4962TIP3    H114850   1.272   3.260   0.184  0.7815 -3.4141  1.8844
 4962TIP3    H214851   1.138   3.281   0.251  1.1098  1.4083  1.4219
 4963TIP3   OH214852   4.038   4.800   4.177 -0.3781 -0.1049  0.0956
 4963TIP3    H114853   3.995   4.820   4.094 -0.1017  1.2629  0.2644
 4963TIP3    H214854   4.107   4.866   4.185 -1.1760  0.5442  1.9916
 4964TIP3   OH214855   4.785   4.404   1.557 -0.0690  0.2978 -0.1564
 4964TIP3    H114856   4.756   4.376   1.471 -0.8745  2.7793 -0.7880
 4964TIP3    H214857   4.842   4.479   1.540  1.5839 -0.5086  1.4153
 4965TIP3   OH214858   1.342   0.397   4.954 -0.4098 -0.1993  0.1014
 4965TIP3    H114859   1.301   0.403   5.040 -1.0027 -1.7901 -0.0273
 4965TIP3    H214860   1.273   0.420   4.892  0.2329  1.7299  0.0447
 4966TIP3   OH214861   6.298   2.601   4.611 -0.3530  0.2128  0.8001
 4966TIP3    H114862   6.340   2.642   4.536 -1.0821 -0.0260  0.2439
 4966TIP3    H214863   6.313   2.507   4.598 -0.6739  0.1563  0.8337
 4967TIP3   OH214864   3.600   3.385   0.963  0.5156 -0.2293 -0.1559
 4967TIP3    H114865   3.596   3.392   1.058 -1.7197 -1.5786 -0.0729
 4967TIP3    H214866   3.531   3.442   0.931  0.3640 -0.7936 -0.8799
 4968TIP3   OH214867   1.640   5.472   2.118 -0.8784  0.3101  0.1343
 4968TIP3    H114868   1.605   5.522   2.044 -1.0375 -0.1883 -0.1325
 4968TIP3    H214869   1.705   5.530   2.157 -0.9123  0.6449 -0.2948
 4969TIP3   OH214870   3.822   1.527   2.479  0.2836  0.4157  0.1633
 4969TIP3    H114871   3.845   1.463   2.547  2.1295  0.3442 -0.4716
 4969TIP3    H214872   3.835   1.612   2.521 -1.1923  0.4114  0.6927
 4970TIP3   OH214873   1.632   5.194   2.021  0.0722  0.2076  0.1910
 4970TIP3    H114874   1.668   5.229   1.939  2.1169  0.6534  1.1992
 4970TIP3    H214875   1.621   5.271   2.077  0.3678 -0.2535  0.9067
 4971TIP3   OH214876   0.261   4.613   1.737 -0.5551  0.3854  0.2243
 4971TIP3    H114877   0.205   4.691   1.745  0.3459  0.9635  1.1212
 4971TIP3    H214878   0.304   4.607   1.822 -1.1631 -1.5418  0.4299
 4972TIP3   OH214879   2.295   5.213   1.584  0.3621 -0.1415 -0.3379
 4972TIP3    H114880   2.271   5.296   1.625 -1.2754  0.1048 -1.6760
 4972TIP3    H214881   2.281   5.147   1.652  1.3449  0.6272  0.6297
 4973TIP3   OH214882   0.513   5.764   0.668 -0.6459  0.2194  0.1940
 4973TIP3    H114883   0.436   5.735   0.619 -0.4997 -0.6739  0.4800
 4973TIP3    H214884   0.482   5.775   0.758 -0.3737 -0.4672  0.3781
 4974TIP3   OH214885   6.078   0.313   3.998 -0.4520  0.8618 -0.2969
 4974TIP3    H114886   5.997   0.263   4.006 -1.4080  2.4495  0.3485
 4974TIP3    H214887   6.130   0.264   3.934 -1.0115 -1.3299  0.8304
 4975TIP3   OH214888   2.683   3.565   2.392  0.2342  0.3693  0.0565
 4975TIP3    H114889   2.608   3.546   2.336 -0.0929  0.3354  0.5018
 4975TIP3    H214890   2.644   3.589   2.476  0.7333  0.0408  0.3828
 4976TIP3   OH214891   6.730   6.771   1.283 -0.9633 -0.1204 -0.1755
 4976TIP3    H114892   6.736   6.703   1.216 -2.4559  1.2168 -1.7329
 4976TIP3    H214893   6.645   6.755   1.325 -1.6155  1.1262 -0.9794
 4977TIP3   OH214894   5.119   5.194   3.762 -0.2361  0.2786 -0.2906
 4977TIP3    H114895   5.089   5.131   3.697  0.0476 -0.1222 -0.0321
 4977TIP3    H214896   5.091   5.157   3.846  1.1615 -0.2028 -0.0241
 4978TIP3   OH214897   0.029   2.039   4.513  0.3532 -0.3797  0.1228
 4978TIP3    H114898   0.039   1.956   4.467 -1.1907 -0.3770 -0.2727
 4978TIP3    H214899  -0.060   2.068   4.492 -0.2873 -0.1469  2.7704
 4979TIP3   OH214900   2.390   2.529   3.870  0.1457 -0.2662  0.0123
 4979TIP3    H114901   2.396   2.535   3.775 -0.6608  1.7433  0.0562
 4979TIP3    H214902   2.345   2.609   3.897  0.5299 -0.7013  2.1096
 4980TIP3   OH214903   2.674   2.375   0.972  0.5460  0.4053  0.3112
 4980TIP3    H114904   2.707   2.464   0.978  1.2303  0.1508  0.4751
 4980TIP3    H214905   2.622   2.373   0.892 -0.6839  1.3263  1.0647
 4981TIP3   OH214906   5.012   3.941   3.981  0.3819  0.6043 -0.0916
 4981TIP3    H114907   5.071   3.973   3.913  1.2012  1.4686  1.0048
 4981TIP3    H214908   4.925   3.965   3.950  0.6858  0.3745 -1.1555
 4982TIP3   OH214909   0.358   1.083   0.838  0.2353  0.1623  0.0337
 4982TIP3    H114910   0.415   1.102   0.763 -0.9038 -0.5262 -1.0509
 4982TIP3    H214911   0.283   1.038   0.799 -1.2231  1.3502  1.3822
 4983TIP3   OH214912   7.022   2.139   0.029 -0.2630  0.2017 -0.3522
 4983TIP3    H114913   6.987   2.115  -0.057 -2.5413  0.9431  0.2972
 4983TIP3    H214914   7.015   2.058   0.081 -0.0195  0.0725 -0.5197
 4984TIP3   OH214915   6.772   4.447   5.611 -0.0403  0.1760  0.2804
 4984TIP3    H114916   6.852   4.491   5.584  0.0769 -0.4002 -0.3295
 4984TIP3    H214917   6.801   4.378   5.670 -0.0216 -0.4297 -0.4271
 4985TIP3   OH214918   5.291   3.428   4.164 -0.2814 -0.2607 -0.2686
 4985TIP3    H114919   5.199   3.450   4.149 -0.8160 -2.1639 -0.0513
 4985TIP3    H214920   5.290   3.335   4.188  1.5804 -0.0153  0.9693
 4986TIP3   OH214921   5.609   3.346   2.724 -0.1295  0.0456  0.6129
 4986TIP3    H114922   5.638   3.273   2.779  2.3335 -0.2510 -0.9074
 4986TIP3    H214923   5.642   3.424   2.768  0.6834 -0.0894  0.2588
 4987TIP3   OH214924   4.778   5.600   5.777 -0.3614 -0.5517  1.2648
 4987TIP3    H114925   4.733   5.618   5.694 -1.2105 -2.0554  1.3708
 4987TIP3    H214926   4.871   5.603   5.755 -0.5659 -0.4045  0.3774
 4988TIP3   OH214927   1.028   1.239   1.771 -0.3422  0.0762 -0.3411
 4988TIP3    H114928   0.939   1.222   1.738 -0.5201  1.1893 -0.4708
 4988TIP3    H214929   1.014   1.274   1.859  0.0050 -0.2657 -0.1486
 4989TIP3   OH214930   6.109   2.700   1.414 -0.1237 -0.6664  0.7328
 4989TIP3    H114931   6.168   2.643   1.365 -0.7044 -2.3953  1.9345
 4989TIP3    H214932   6.022   2.681   1.378 -0.6703 -2.5449  2.8060
 4990TIP3   OH214933   5.885   2.149   2.649 -0.2329  0.1311 -0.1889
 4990TIP3    H114934   5.820   2.112   2.590 -1.8706  0.9772  0.9902
 4990TIP3    H214935   5.880   2.094   2.727  0.3235  0.3428  0.0003
 4991TIP3   OH214936   4.433   4.882   3.442  0.6200  0.1539  0.0798
 4991TIP3    H114937   4.360   4.907   3.498  0.5836  1.6208 -0.5905
 4991TIP3    H214938   4.508   4.876   3.502 -0.0032 -1.3838  0.7715
 4992TIP3   OH214939   0.319   1.156   5.237 -0.7484  0.8577 -0.1731
 4992TIP3    H114940   0.282   1.070   5.220 -0.4586  0.6251  0.3488
 4992TIP3    H214941   0.267   1.191   5.310 -1.0576  1.2501 -0.5752
 4993TIP3   OH214942   4.995   3.560   1.422  0.1285  0.1482 -0.1308
 4993TIP3    H114943   4.930   3.615   1.464  0.0368 -0.1002  0.0582
 4993TIP3    H214944   5.079   3.595   1.452  0.1217  1.0909 -1.1586
 4994TIP3   OH214945   4.839   6.571   5.029 -0.0842  0.4856 -1.0608
 4994TIP3    H114946   4.870   6.489   4.989  1.0780 -0.2217  1.1146
 4994TIP3    H214947   4.789   6.542   5.105  1.8331  1.7460  0.7888
 4995TIP3   OH214948   0.247   4.097   5.306  0.3092 -0.2927 -0.0986
 4995TIP3    H114949   0.283   4.051   5.382 -1.0391  1.3359  1.6508
 4995TIP3    H214950   0.299   4.177   5.300  1.8754 -1.3998 -2.3731
 4996TIP3   OH214951   6.058   4.255   0.329 -0.1447  0.2190 -0.0489
 4996TIP3    H114952   6.010   4.201   0.267  1.6583 -0.3328 -1.0325
 4996TIP3    H214953   6.017   4.236   0.414 -1.3765 -0.5045 -0.7717
 4997TIP3   OH214954   5.068   1.484   1.606  0.2260  0.1151 -0.1598
 4997TIP3    H114955   5.039   1.393   1.616  1.7521 -0.8055 -2.9690
 4997TIP3    H214956   4.988   1.535   1.611 -0.8626 -1.5242  0.0104
 4998TIP3   OH214957   0.486   3.014   2.110  0.4500  0.0210  0.1041
 4998TIP3    H114958   0.540   3.017   2.031  0.6075  0.0764  0.2125
 4998TIP3    H214959   0.400   2.985   2.080  0.8039 -1.0471  0.0802
 4999TIP3   OH214960   5.773   6.301   0.773 -0.0560  0.4940  0.4581
 4999TIP3    H114961   5.730   6.226   0.815  0.4891 -0.3039 -0.3710
 4999TIP3    H214962   5.791   6.272   0.684  0.7744  1.3822  0.3165
 5000TIP3   OH214963   1.197   6.182   5.696  0.2728 -0.2784  0.1152
 5000TIP3    H114964   1.153   6.100   5.717  0.9597 -0.8697 -0.6664
 5000TIP3    H214965   1.271   6.186   5.757  1.1712 -1.0527 -0.9038
 5001TIP3   OH214966   6.178   4.301   3.730 -0.1365 -0.2634 -0.5191
 5001TIP3    H114967   6.137   4.296   3.643 -0.1313  0.1370 -0.5429
 5001TIP3    H214968   6.134   4.373   3.774  1.6973  1.3484 -1.1605
 5002TIP3   OH214969   5.499   6.124   4.608  0.4771 -0.2140  0.1098
 5002TIP3    H114970   5.461   6.099   4.523  1.0153 -1.2259  0.1497
 5002TIP3    H214971   5.455   6.067   4.671  1.5738 -0.9373  0.2378
 5003TIP3   OH214972   1.961   5.472   1.050  0.1078 -0.4974  0.0705
 5003TIP3    H114973   1.971   5.377   1.039  0.7562 -0.3575 -0.6385
 5003TIP3    H214974   1.867   5.487   1.043 -0.0867 -1.1826  1.0337
 5004TIP3   OH214975   3.802   4.146   1.488  0.4491 -0.6078  0.1699
 5004TIP3    H114976   3.861   4.141   1.564  1.8663  1.1616 -0.7353
 5004TIP3    H214977   3.839   4.084   1.425 -0.0791 -1.2557  0.4862
 5005TIP3   OH214978   2.207   1.866   4.011 -0.0336 -0.5211  0.5946
 5005TIP3    H114979   2.184   1.903   3.926 -0.2990  1.0405  1.3067
 5005TIP3    H214980   2.131   1.886   4.066 -0.0480 -1.8896  1.0987
 5006TIP3   OH214981   6.425   2.227   3.799  0.0455 -0.1359  0.0701
 5006TIP3    H114982   6.392   2.310   3.765 -0.7373 -0.8999 -1.1089
 5006TIP3    H214983   6.520   2.233   3.792 -0.0208  0.5535 -0.2645
 5007TIP3   OH214984   6.518   4.533   2.708  0.4521 -0.1935 -0.3756
 5007TIP3    H114985   6.586   4.537   2.641 -1.2036  0.9798 -2.1003
 5007TIP3    H214986   6.564   4.552   2.790  2.5324 -1.6075 -1.1234
 5008TIP3   OH214987   2.915   4.010   4.177  0.0067 -0.1149 -0.4152
 5008TIP3    H114988   2.851   4.016   4.248  0.9084  2.7993  0.2495
 5008TIP3    H214989   2.865   4.033   4.098 -0.0970  0.6812 -0.1193
 5009TIP3   OH214990   2.107   6.044   0.834  0.5068  0.8461 -0.0528
 5009TIP3    H114991   2.048   6.091   0.892  0.4129  1.2538 -0.4720
 5009TIP3    H214992   2.114   6.100   0.756  0.2906  0.1070 -0.6194
 5010TIP3   OH214993   0.199   6.526   1.014 -0.3435  0.7527 -0.0978
 5010TIP3    H114994   0.288   6.499   0.991 -0.5803 -0.4953  0.4026
 5010TIP3    H214995   0.150   6.515   0.932  0.0348  1.9208 -0.5147
 5011TIP3   OH214996   1.530   0.970   5.342 -0.2870 -0.2814  0.3658
 5011TIP3    H114997   1.567   0.979   5.254 -1.7392 -1.7549 -0.4721
 5011TIP3    H214998   1.602   0.938   5.395  1.2267  2.7035  0.3065
 5012TIP3   OH214999   6.041   4.980   4.845 -0.0472 -0.4159 -0.0804
 5012TIP3    H115000   6.047   4.954   4.937  0.2913 -1.0075 -0.2572
 5012TIP3    H215001   6.105   5.051   4.836  0.1681 -0.5861  0.0717
 5013TIP3   OH215002   4.553   4.361   3.645  0.0604 -0.2647 -0.9696
 5013TIP3    H115003   4.513   4.446   3.631 -0.7311 -0.6038 -0.8367
 5013TIP3    H215004   4.644   4.380   3.668 -0.9327  0.8519  2.8919
 5014TIP3   OH215005   2.570   4.858   3.180  0.8883  1.0060 -0.3941
 5014TIP3    H115006   2.661   4.881   3.161  1.6182 -0.2795  1.2755
 5014TIP3    H215007   2.559   4.880   3.273 -0.2489  0.3554 -0.3572
 5015TIP3   OH215008   5.484   0.995   3.582  0.1312  0.1738  0.0122
 5015TIP3    H115009   5.580   0.999   3.587  0.1091  1.3476 -0.1259
 5015TIP3    H215010   5.458   0.953   3.664  0.7494  0.3843  0.3299
 5016TIP3   OH215011   6.076   6.509   1.704  0.3801 -0.1806 -0.3192
 5016TIP3    H115012   6.115   6.475   1.784  1.0122  0.2851 -0.4188
 5016TIP3    H215013   6.069   6.433   1.646  1.8112 -0.1567 -0.5586
 5017TIP3   OH215014   4.023   3.782   2.959 -0.5400 -0.0766 -0.3918
 5017TIP3    H115015   4.033   3.805   2.866  0.3049 -0.9375 -0.5271
 5017TIP3    H215016   4.044   3.862   3.006  0.9375 -0.1353 -0.8981
 5018TIP3   OH215017   0.334   5.918   2.581  0.2001  0.0648  0.8039
 5018TIP3    H115018   0.281   5.865   2.521 -0.1056  0.9147  0.2946
 5018TIP3    H215019   0.403   5.859   2.612 -1.3921 -1.2800  1.9927
 5019TIP3   OH215020   4.740   3.664   1.473  0.1634  0.5678 -0.3444
 5019TIP3    H115021   4.703   3.585   1.512 -1.2760  1.3843  0.0283
 5019TIP3    H215022   4.716   3.659   1.381  1.0086  0.0649 -0.5460
 5020TIP3   OH215023   6.063   1.238   3.203  0.0463 -0.4962 -0.7294
 5020TIP3    H115024   5.974   1.270   3.219  0.3714  0.2973 -0.4275
 5020TIP3    H215025   6.055   1.143   3.200 -0.6489 -0.4845  0.3376
 5021TIP3   OH215026   1.527   6.398   0.496 -0.0380 -0.3925 -0.1762
 5021TIP3    H115027   1.464   6.385   0.425 -0.1563  0.7735 -0.3127
 5021TIP3    H215028   1.482   6.455   0.558  0.8167  0.3377 -0.2005
 5022TIP3   OH215029   3.237   0.080   0.737 -0.0487  0.0393 -0.1263
 5022TIP3    H115030   3.149   0.049   0.719  0.3908 -1.5899  0.3235
 5022TIP3    H215031   3.226   0.148   0.803 -0.9372 -0.3414  0.1238
 5023TIP3   OH215032   0.567   5.908   5.193 -0.2532  0.1542 -0.4442
 5023TIP3    H115033   0.482   5.926   5.232  0.2905  0.4826  0.6211
 5023TIP3    H215034   0.594   5.824   5.230  0.2662  0.4680 -0.0992
 5024TIP3   OH215035   6.768   3.910   4.812 -0.0058  0.0708 -0.4089
 5024TIP3    H115036   6.804   3.822   4.820  0.3185  0.1144 -1.3245
 5024TIP3    H215037   6.741   3.933   4.901 -0.0955 -0.9511 -0.1657
 5025TIP3   OH215038   2.760   1.820   5.620 -0.4118  0.1016 -0.1189
 5025TIP3    H115039   2.741   1.765   5.544  0.0603 -0.9183  0.4840
 5025TIP3    H215040   2.850   1.849   5.606 -0.0947 -0.6349  0.3770
 5026TIP3   OH215041   6.558   5.441   0.895  0.5057  0.2509 -0.0560
 5026TIP3    H115042   6.506   5.492   0.833 -1.4096  0.6580  1.7738
 5026TIP3    H215043   6.590   5.505   0.958  0.7768 -0.3825  0.4631
 5027TIP3   OH215044   5.114   4.230   2.127 -0.2235 -0.8888 -0.7401
 5027TIP3    H115045   5.112   4.169   2.054 -0.6312 -2.2875  0.3865
 5027TIP3    H215046   5.025   4.230   2.162 -0.0174 -0.3294 -0.1850
 5028TIP3   OH215047   1.080   2.682   0.886  0.9330 -0.0477 -0.3992
 5028TIP3    H115048   0.987   2.692   0.902  0.5733 -2.1501 -0.8239
 5028TIP3    H215049   1.106   2.761   0.839 -1.0441 -0.2091 -1.8696
 5029TIP3   OH215050   2.554   4.633   3.403  0.7152 -0.1825 -0.5052
 5029TIP3    H115051   2.493   4.642   3.330  0.4663  0.8621 -0.1886
 5029TIP3    H215052   2.625   4.578   3.369  0.1313 -0.5091 -1.2170
 5030TIP3   OH215053   6.566   3.804   5.260  1.0405 -0.3261  0.7770
 5030TIP3    H115054   6.486   3.853   5.240  1.0229 -1.0154 -1.0380
 5030TIP3    H215055   6.571   3.805   5.355  0.3372  2.0378  0.8675
 5031TIP3   OH215056   3.882   5.118   3.174 -0.0536  0.6190 -0.4499
 5031TIP3    H115057   3.803   5.097   3.124 -1.7842 -0.2813  2.4337
 5031TIP3    H215058   3.929   5.035   3.182 -0.1408  0.6114 -0.0022
 5032TIP3   OH215059   1.317   0.346   3.437  0.4569 -0.1579  0.0567
 5032TIP3    H115060   1.300   0.418   3.376 -0.2426 -1.7160 -1.6709
 5032TIP3    H215061   1.402   0.367   3.476 -0.4037  2.3454  0.7759
 5033TIP3   OH215062   2.337   6.474   2.002  0.0858  0.0846 -0.2342
 5033TIP3    H115063   2.408   6.467   1.938  0.9731  0.7604  0.6594
 5033TIP3    H215064   2.289   6.392   1.992  0.2019  0.1616 -1.7514
 5034TIP3   OH215065   4.360   3.916   5.800  0.3858 -0.3610  0.4705
 5034TIP3    H115066   4.286   3.962   5.838 -1.2826 -0.6837 -2.1464
 5034TIP3    H215067   4.354   3.827   5.836 -0.9099 -0.5517 -0.1532
 5035TIP3   OH215068   2.740   0.068   2.430 -0.0214 -0.2675  0.6363
 5035TIP3    H115069   2.787   0.016   2.365 -0.0740 -1.4002  1.4744
 5035TIP3    H215070   2.658   0.020   2.445 -0.2856  0.3090  1.0810
 5036TIP3   OH215071   0.833   5.561   4.271 -0.2453  0.3119 -0.1884
 5036TIP3    H115072   0.793   5.481   4.238  2.4268 -2.2396  2.0545
 5036TIP3    H215073   0.799   5.570   4.360  0.4873  0.8984  0.0467
 5037TIP3   OH215074   4.009   0.753   4.002 -0.0473  0.5367  0.2369
 5037TIP3    H115075   3.999   0.721   3.912  0.0566  0.4121  0.2686
 5037TIP3    H215076   3.923   0.740   4.041 -0.3357  1.4025 -0.0985
 5038TIP3   OH215077   4.237   2.249   0.504  0.4651  0.1884  0.0387
 5038TIP3    H115078   4.203   2.297   0.429  2.0263 -0.2616 -1.0239
 5038TIP3    H215079   4.206   2.297   0.581  0.8702  2.1158 -0.9413
 5039TIP3   OH215080   3.484   4.348   4.178 -0.3291  0.0439 -0.2895
 5039TIP3    H115081   3.469   4.443   4.175 -0.0871  0.0798 -0.3579
 5039TIP3    H215082   3.510   4.325   4.089 -0.0190 -0.0256 -0.1826
 5040TIP3   OH215083   3.779   1.841   1.534 -0.4372 -0.5388  0.2892
 5040TIP3    H115084   3.739   1.804   1.456 -3.2102  1.0180  0.8539
 5040TIP3    H215085   3.729   1.804   1.607 -1.4984  2.0453  1.0015
 5041TIP3   OH215086   7.083   3.940   4.133  0.8974 -0.5186 -0.0735
 5041TIP3    H115087   7.036   3.942   4.217 -0.7750  1.9499 -0.9791
 5041TIP3    H215088   7.170   3.906   4.156 -0.2748 -2.2951  2.2086
 5042TIP3   OH215089   4.069   3.480   3.106  0.4145 -0.3132 -0.3070
 5042TIP3    H115090   4.053   3.558   3.159  0.4444 -0.5653  0.0784
 5042TIP3    H215091   4.009   3.414   3.142  1.2419 -0.8255  0.1764
 5043TIP3   OH215092   5.551   5.434   3.886 -0.3812 -0.4463 -0.3546
 5043TIP3    H115093   5.642   5.419   3.862 -0.3674  1.1712 -1.4804
 5043TIP3    H215094   5.501   5.403   3.809 -0.7250 -0.5065 -0.1097
 5044TIP3   OH215095   5.904   3.484   0.380  0.5838  0.3634  0.4903
 5044TIP3    H115096   5.926   3.454   0.468 -0.7677  1.3653  1.2042
 5044TIP3    H215097   5.929   3.412   0.323  3.0396  0.3416  1.4816
 5045TIP3   OH215098   5.178   0.465   3.080  0.0065 -0.0987  0.8500
 5045TIP3    H115099   5.208   0.545   3.123 -0.8429  0.2215  0.8557
 5045TIP3    H215100   5.210   0.472   2.991 -2.9630  1.9431 -0.1851
 5046TIP3   OH215101   5.087   3.834   0.027 -0.0789 -0.3194 -0.5648
 5046TIP3    H115102   5.130   3.917   0.049 -1.0461 -0.4363  2.0728
 5046TIP3    H215103   4.998   3.842   0.063 -0.4173 -2.2435 -0.8360
 5047TIP3   OH215104   1.399   4.680   2.647  0.4273 -0.3771  0.2023
 5047TIP3    H115105   1.428   4.759   2.693  0.3617 -0.1794 -0.0947
 5047TIP3    H215106   1.479   4.648   2.604  0.5161 -0.6313  0.5514
 5048TIP3   OH215107   0.902   1.262   5.537  0.4739  0.8192  0.2257
 5048TIP3    H115108   0.878   1.352   5.554  0.0726  0.4683  1.6588
 5048TIP3    H215109   0.819   1.215   5.531  0.5772  0.8003 -2.4519
 5049TIP3   OH215110   3.867   1.012   2.173 -0.6836  0.3561  0.3752
 5049TIP3    H115111   3.925   0.942   2.204 -0.9206  1.1834  2.8534
 5049TIP3    H215112   3.814   0.970   2.105  0.1519 -1.4757  0.7846
 5050TIP3   OH215113   4.960   6.521   3.365  0.0484  0.1961 -0.0217
 5050TIP3    H115114   5.005   6.547   3.445 -0.4437  0.3422  0.2125
 5050TIP3    H215115   5.010   6.447   3.331  0.5749  0.4821  0.1255
 5051TIP3   OH215116   4.074   5.645   0.949 -0.1371 -0.4755 -0.0908
 5051TIP3    H115117   4.080   5.641   0.854  2.4224  0.5362 -0.0436
 5051TIP3    H215118   3.980   5.646   0.967 -0.6869 -0.0731 -2.6163
 5052TIP3   OH215119   7.102   0.785   4.596  0.0422  0.2885 -0.0265
 5052TIP3    H115120   7.133   0.875   4.586 -0.3929  0.4113 -0.2976
 5052TIP3    H215121   7.089   0.754   4.506  0.1155 -0.0182  0.0664
 5053TIP3   OH215122   0.590   1.802   5.068  0.1053  0.7381  0.3051
 5053TIP3    H115123   0.543   1.877   5.033 -0.6799  0.7862  1.4246
 5053TIP3    H215124   0.526   1.731   5.068  0.7710  0.1155 -0.5143
 5054TIP3   OH215125   7.146   1.549   2.175 -1.0457 -0.6963  0.1060
 5054TIP3    H115126   7.156   1.605   2.252  0.4346  1.2961 -1.4200
 5054TIP3    H215127   7.101   1.604   2.111 -1.8484 -2.1517 -0.6486
 5055TIP3   OH215128   0.096   2.485   5.756  0.5335  0.3443  0.2411
 5055TIP3    H115129   0.069   2.526   5.838  1.8172  0.0433  0.8356
 5055TIP3    H215130   0.027   2.422   5.736 -0.6384  1.6008  0.1799
 5056TIP3   OH215131   3.459   2.311   5.501 -0.3144 -0.6877  0.5043
 5056TIP3    H115132   3.475   2.242   5.566 -1.6117 -0.6140  0.9165
 5056TIP3    H215133   3.414   2.266   5.429 -1.3983 -0.2433  0.8840
 5057TIP3   OH215134   0.912   5.906   4.069  0.3000 -0.5618  0.0635
 5057TIP3    H115135   0.946   5.819   4.049 -1.2114 -0.9570 -1.0046
 5057TIP3    H215136   0.865   5.895   4.152 -0.2654 -0.8784 -0.2959
 5058TIP3   OH215137   3.221   5.281   1.949  0.1962  0.3306  0.8894
 5058TIP3    H115138   3.131   5.304   1.970  0.0009 -0.9266  1.5544
 5058TIP3    H215139   3.238   5.324   1.865  0.3720  4.0319  2.6153
 5059TIP3   OH215140   0.905   3.198   0.867  0.6416  0.5444 -0.7116
 5059TIP3    H115141   0.888   3.252   0.945 -1.3977 -0.3581 -0.4820
 5059TIP3    H215142   0.946   3.119   0.902 -0.5575  0.0047 -0.4885
 5060TIP3   OH215143   3.762  -0.000   4.373  0.2414  0.3346 -0.1390
 5060TIP3    H115144   3.716   0.083   4.361  0.7506  0.5297 -0.8235
 5060TIP3    H215145   3.763  -0.039   4.286  1.2061  0.2489 -0.0986
 5061TIP3   OH215146   5.183   5.284   4.077 -0.0580  0.0958  0.0161
 5061TIP3    H115147   5.131   5.317   4.150 -0.5616  0.2215 -0.3917
 5061TIP3    H215148   5.270   5.268   4.114 -0.1557  0.6760  0.5113
 5062TIP3   OH215149   0.898   0.508   4.247  0.0388  0.0258 -0.4158
 5062TIP3    H115150   0.888   0.533   4.155  2.4865  1.3340 -0.4001
 5062TIP3    H215151   0.959   0.434   4.245  1.6588  1.2946  0.2256
 5063TIP3   OH215152   6.316   2.001   3.701  0.1001 -0.0819  0.0557
 5063TIP3    H115153   6.370   2.078   3.721 -0.7281  0.4598  0.2651
 5063TIP3    H215154   6.226   2.031   3.714 -0.3341 -0.5852 -1.5619
 5064TIP3   OH215155   5.890   0.087   3.208  0.7380 -0.2034 -0.0214
 5064TIP3    H115156   5.903   0.089   3.113  2.5120  2.2558  0.2005
 5064TIP3    H215157   5.892  -0.006   3.230  2.1611 -0.7587 -2.1843
 5065TIP3   OH215158   4.998   5.950   3.574  0.5402  1.0276  0.3151
 5065TIP3    H115159   5.074   5.974   3.628 -0.0237  0.6028  1.3232
 5065TIP3    H215160   4.962   5.872   3.616  0.0419  0.7182 -0.6536
 5066TIP3   OH215161   6.814   6.239   2.110  0.6743  0.0580 -0.2567
 5066TIP3    H115162   6.761   6.314   2.136 -0.7330 -0.9205 -0.2033
 5066TIP3    H215163   6.843   6.200   2.192  1.8374  0.8137 -0.2895
 5067TIP3   OH215164   2.988   6.614   5.613  0.0707  0.1415  0.2305
 5067TIP3    H115165   3.000   6.703   5.579  0.4480  1.1726  2.8473
 5067TIP3    H215166   3.046   6.561   5.559 -1.3142  1.1572 -2.4168
 5068TIP3   OH215167   4.390   1.081   1.930  0.1026  0.4170 -0.1353
 5068TIP3    H115168   4.346   1.039   2.004 -0.6002  0.5274 -0.4822
 5068TIP3    H215169   4.437   1.155   1.970 -1.4726  1.3762  0.0342
 5069TIP3   OH215170   4.703   6.050   5.285 -0.3224  0.2441 -0.9454
 5069TIP3    H115171   4.795   6.053   5.314 -1.0350  0.5088  1.5707
 5069TIP3    H215172   4.670   6.138   5.303 -1.9910 -0.8177  1.9218
 5070TIP3   OH215173   7.023   5.049   3.395  0.3097  0.4415 -0.8501
 5070TIP3    H115174   7.028   5.145   3.399 -1.1966  0.5145  0.4694
 5070TIP3    H215175   7.028   5.021   3.487  0.0448 -0.7116 -1.1698
 5071TIP3   OH215176   3.352   4.206   0.419 -0.0573  0.6129 -0.2653
 5071TIP3    H115177   3.304   4.150   0.480  1.4928  0.3587  0.7760
 5071TIP3    H215178   3.364   4.289   0.467 -0.1400  0.9538 -0.8229
 5072TIP3   OH215179   1.523   1.266   5.421  0.0183  0.0196  0.5501
 5072TIP3    H115180   1.447   1.281   5.365  0.7747  0.7966 -0.2903
 5072TIP3    H215181   1.537   1.171   5.418  0.1092  0.0540 -0.6771
 5073TIP3   OH215182   7.127   3.763   2.271 -0.0522 -0.7586 -0.5489
 5073TIP3    H115183   7.215   3.727   2.280  0.2090 -0.5416 -1.9227
 5073TIP3    H215184   7.118   3.780   2.177 -0.5253  1.7716 -0.1329
 5074TIP3   OH215185   2.364   3.208   0.691 -0.2831  0.3359  0.0399
 5074TIP3    H115186   2.315   3.288   0.672  2.2612  1.6250 -1.5820
 5074TIP3    H215187   2.367   3.161   0.608 -2.2802 -1.8950  1.0988
 5075TIP3   OH215188   3.682   6.222   4.621  0.5616  0.5007  0.0733
 5075TIP3    H115189   3.730   6.152   4.667 -1.4082 -0.7701  0.3170
 5075TIP3    H215190   3.719   6.222   4.533  1.8514  0.4328  0.5819
 5076TIP3   OH215191   6.886   6.696   2.424  0.2512  0.1682 -0.3895
 5076TIP3    H115192   6.950   6.634   2.459 -1.9946 -2.0840 -0.0039
 5076TIP3    H215193   6.868   6.665   2.335 -0.8225  0.3191 -0.2384
 5077TIP3   OH215194   1.546   4.745   4.123 -0.2695 -0.2575  0.1958
 5077TIP3    H115195   1.461   4.789   4.122  0.9352  2.2528 -0.1239
 5077TIP3    H215196   1.605   4.805   4.078  1.5702 -2.2287 -0.2268
 5078TIP3   OH215197   0.534   4.631   2.919  0.4723 -0.0122  0.2565
 5078TIP3    H115198   0.511   4.667   2.834  3.2755  0.5545 -0.3547
 5078TIP3    H215199   0.545   4.537   2.903  0.0041 -0.0689  0.2483
 5079TIP3   OH215200   1.853   4.007   3.097 -0.0500  0.1262  0.1659
 5079TIP3    H115201   1.770   4.052   3.077 -0.2150  0.0493  0.6710
 5079TIP3    H215202   1.837   3.962   3.180 -0.1330 -1.5059 -0.6930
 5080TIP3   OH215203   0.777   5.712   5.644  0.3609  0.4819  0.3240
 5080TIP3    H115204   0.784   5.624   5.680 -0.2754 -0.1159 -0.9306
 5080TIP3    H215205   0.695   5.712   5.595  1.3051  1.1137 -1.3625
 5081TIP3   OH215206   3.528   6.680   3.771 -0.0063  0.3750 -0.2902
 5081TIP3    H115207   3.500   6.616   3.705  0.2409  1.1712 -1.1866
 5081TIP3    H215208   3.622   6.691   3.756  0.4526 -0.8206  1.4265
 5082TIP3   OH215209   6.750   1.444   0.380  0.5919 -0.3001 -0.0817
 5082TIP3    H115210   6.734   1.532   0.415  2.0175 -0.6256  1.5882
 5082TIP3    H215211   6.696   1.438   0.302  0.6394  2.1514 -0.3779
 5083TIP3   OH215212   3.896   0.666   0.031 -0.4797  0.4109  0.3087
 5083TIP3    H115213   3.873   0.689  -0.059  0.4634 -0.2500 -0.1182
 5083TIP3    H215214   3.965   0.728   0.055  1.1274 -1.0201 -0.3802
 5084TIP3   OH215215   3.071   5.314   3.133  0.6998 -0.0992  0.5441
 5084TIP3    H115216   3.127   5.346   3.061  1.5894  0.1758  1.3369
 5084TIP3    H215217   3.035   5.232   3.100  2.8587 -1.1352  0.5700
 5085TIP3   OH215218   1.176   1.939   4.693 -0.5076  0.3266 -0.3675
 5085TIP3    H115219   1.208   1.849   4.690 -2.2573 -0.4087  0.8606
 5085TIP3    H215220   1.238   1.985   4.750 -0.8609 -0.7155  0.9102
 5086TIP3   OH215221   2.890   4.092   1.140 -0.1294  0.0773  0.2379
 5086TIP3    H115222   2.974   4.077   1.098 -0.7839 -1.1544 -0.7074
 5086TIP3    H215223   2.868   4.183   1.119  0.6246  0.1794 -0.1166
 5087TIP3   OH215224   6.284   5.939   2.359 -0.2288 -0.1618 -0.2693
 5087TIP3    H115225   6.317   5.932   2.449 -1.0493 -2.3136 -0.0777
 5087TIP3    H215226   6.358   5.976   2.310  1.7463 -2.7259  0.5639
 5088TIP3   OH215227   4.054   3.239   4.321  0.0802 -0.4515  0.1799
 5088TIP3    H115228   4.087   3.152   4.297 -0.0440 -0.1072 -1.3270
 5088TIP3    H215229   3.962   3.238   4.295  0.4074  0.5638 -1.1578
 5089TIP3   OH215230   5.653   1.168   1.811  0.3674 -0.2246  0.0306
 5089TIP3    H115231   5.639   1.113   1.734 -1.0336 -1.2527  0.9686
 5089TIP3    H215232   5.665   1.257   1.776 -1.0041 -0.5428 -1.3380
 5090TIP3   OH215233   0.824   1.452   1.642 -0.2524  0.2561  0.4013
 5090TIP3    H115234   0.762   1.469   1.572  2.0672 -0.8595 -2.0730
 5090TIP3    H215235   0.817   1.359   1.660  0.4805  0.1708  0.2931
 5091TIP3   OH215236   4.684   1.809   1.953 -0.5691  0.1068  0.5350
 5091TIP3    H115237   4.766   1.787   1.909 -0.3265  1.4698  0.2615
 5091TIP3    H215238   4.641   1.725   1.968  0.8366 -0.6257  0.6038
 5092TIP3   OH215239   5.167   3.276   3.476  0.4741  0.5150 -0.5779
 5092TIP3    H115240   5.247   3.317   3.510  0.3662 -0.0142  0.3412
 5092TIP3    H215241   5.096   3.327   3.514  0.3601  0.3180 -0.5267
 5093TIP3   OH215242   0.440   2.550   1.598 -0.2882 -0.3872 -0.4352
 5093TIP3    H115243   0.383   2.551   1.522  1.1685 -0.4057 -1.5669
 5093TIP3    H215244   0.482   2.463   1.596  1.8285  0.5929 -1.2495
 5094TIP3   OH215245   7.017   4.734   2.226 -0.4328  0.1302  0.1274
 5094TIP3    H115246   7.083   4.799   2.251 -0.1835 -0.5893  1.4501
 5094TIP3    H215247   7.050   4.697   2.143  0.0066  0.8758 -0.0407
 5095TIP3   OH215248   5.590   0.964   5.206 -0.1556  0.3264  0.0699
 5095TIP3    H115249   5.525   0.980   5.138  0.1115 -0.1821 -0.3153
 5095TIP3    H215250   5.645   0.894   5.170  0.4999  0.6326  0.4593
 5096TIP3   OH215251   6.341   4.055   1.497 -0.5897 -0.6229  0.2016
 5096TIP3    H115252   6.345   3.961   1.511 -2.2459 -0.7399  0.0264
 5096TIP3    H215253   6.260   4.069   1.448  0.2405  0.7741 -0.8574
 5097TIP3   OH215254   1.213   3.510   2.459  0.5013 -0.6290 -0.0230
 5097TIP3    H115255   1.250   3.431   2.498  0.3758 -0.0365  1.3552
 5097TIP3    H215256   1.240   3.581   2.517 -1.0932  0.0740 -0.0744
 5098TIP3   OH215257   2.087   2.896   5.439  0.1443 -0.3554  0.1865
 5098TIP3    H115258   2.169   2.940   5.417 -0.5779  0.5113 -0.8669
 5098TIP3    H215259   2.078   2.828   5.372  1.4340 -2.4402  2.0077
 5099TIP3   OH215260   4.280   3.618   4.825  0.4372 -0.0946  0.5966
 5099TIP3    H115261   4.368   3.632   4.860  0.0221 -0.6310  1.8854
 5099TIP3    H215262   4.221   3.647   4.894 -0.4097 -3.2627  1.3925
 5100TIP3   OH215263   2.613   1.114   4.225  0.2761  0.1510  0.1595
 5100TIP3    H115264   2.554   1.187   4.208  0.9224  0.3767 -1.2648
 5100TIP3    H215265   2.667   1.143   4.299 -1.8725 -0.3860  2.0172
 5101TIP3   OH215266   1.595   0.294   3.971  0.2652 -0.1513  1.5215
 5101TIP3    H115267   1.587   0.388   3.987 -2.0946 -0.3093  1.5680
 5101TIP3    H215268   1.552   0.252   4.046 -2.8616 -1.0827 -0.5872
 5102TIP3   OH215269   2.668   5.674   2.896  0.4358 -0.2664 -0.3182
 5102TIP3    H115270   2.664   5.770   2.894  0.9386 -0.2562 -1.6795
 5102TIP3    H215271   2.602   5.649   2.961  0.5993  1.0120  0.3655
 5103TIP3   OH215272   1.832   4.937   0.630 -0.4367 -0.3152 -0.7546
 5103TIP3    H115273   1.772   4.924   0.703 -0.5073  1.1855 -0.5127
 5103TIP3    H215274   1.817   5.027   0.602  0.9670 -0.2373 -1.3526
 5104TIP3   OH215275   5.827   1.336   4.853  0.4901 -0.6305 -0.1012
 5104TIP3    H115276   5.837   1.260   4.910 -3.7207 -1.0062  0.4832
 5104TIP3    H215277   5.810   1.298   4.766 -0.8783 -0.4208  0.0482
 5105TIP3   OH215278   1.508   5.649   4.607 -0.0679  0.3422 -0.8402
 5105TIP3    H115279   1.564   5.572   4.593 -1.5717 -1.1824  1.0670
 5105TIP3    H215280   1.532   5.709   4.536  0.8052 -2.0778 -2.7164
 5106TIP3   OH215281   0.230   5.524   1.397 -0.4571  0.7490 -0.1613
 5106TIP3    H115282   0.211   5.564   1.313  0.4047  0.1487 -0.6563
 5106TIP3    H215283   0.187   5.439   1.394  1.1211 -0.0767 -0.7809
 5107TIP3   OH215284   1.041   5.271   1.293 -0.3277 -0.3328 -0.4267
 5107TIP3    H115285   0.981   5.197   1.293  0.4477 -0.9942  1.0067
 5107TIP3    H215286   1.128   5.232   1.303  0.1072  0.7595  0.2332
 5108TIP3   OH215287   4.603   0.683   4.835 -0.1420 -0.1818  0.1172
 5108TIP3    H115288   4.666   0.732   4.888 -1.4072  1.6483  0.0134
 5108TIP3    H215289   4.524   0.736   4.837 -0.6366 -0.6847 -2.5525
 5109TIP3   OH215290   2.089   6.348   3.337  0.3808  0.1820 -0.6777
 5109TIP3    H115291   2.157   6.413   3.354  0.2877  0.1441 -0.1492
 5109TIP3    H215292   2.135   6.264   3.339  0.7454  0.2672 -2.5939
 5110TIP3   OH215293   5.596   0.140   2.715 -0.4627  0.2240 -0.2747
 5110TIP3    H115294   5.634   0.221   2.681 -0.9039 -0.4031 -2.3791
 5110TIP3    H215295   5.513   0.167   2.753 -0.1676  0.8950 -0.0787
 5111TIP3   OH215296   3.735   1.508   0.885 -0.0914 -0.5209  0.6610
 5111TIP3    H115297   3.755   1.456   0.807 -2.3167 -1.0837  0.3880
 5111TIP3    H215298   3.807   1.570   0.892 -0.2502  0.1587 -2.4023
 5112TIP3   OH215299   1.627   4.121   5.357 -0.6710  0.3985  0.0171
 5112TIP3    H115300   1.562   4.095   5.291  1.7773 -2.4217 -1.5361
 5112TIP3    H215301   1.685   4.183   5.311  0.8998 -1.3882 -0.5415
 5113TIP3   OH215302   2.670   0.281   0.433  0.1978 -1.1187  0.0824
 5113TIP3    H115303   2.594   0.328   0.467  0.1705 -1.3591  0.3574
 5113TIP3    H215304   2.634   0.203   0.391  0.2311 -0.8208 -0.5098
 5114TIP3   OH215305   1.753   0.922   5.462  0.1682  0.1918 -0.0672
 5114TIP3    H115306   1.824   0.975   5.424 -0.7614  0.9059 -0.8574
 5114TIP3    H215307   1.719   0.977   5.533  2.0521 -1.2291  2.0842
 5115TIP3   OH215308   5.578   3.614   0.942 -0.3506 -0.3227 -0.4163
 5115TIP3    H115309   5.561   3.536   0.890 -0.2512 -0.8759  0.3574
 5115TIP3    H215310   5.491   3.648   0.962 -0.4110 -0.4915 -0.3855
 5116TIP3   OH215311   5.546   5.271   1.994 -0.4963 -0.0047  0.3946
 5116TIP3    H115312   5.609   5.249   1.925 -1.6780  1.0382 -1.0916
 5116TIP3    H215313   5.499   5.189   2.010  1.6805 -1.0294  2.1200
 5117TIP3   OH215314   0.543   1.284   2.195  0.4109 -0.0517 -0.2666
 5117TIP3    H115315   0.604   1.281   2.269 -0.3197 -1.2984  0.3120
 5117TIP3    H215316   0.459   1.308   2.234 -0.3208 -2.1836 -0.4100
 5118TIP3   OH215317   2.419   6.336   2.741 -0.3424  0.1943 -0.4689
 5118TIP3    H115318   2.395   6.246   2.723 -0.7088  0.2734 -0.3739
 5118TIP3    H215319   2.455   6.369   2.659 -1.5501  0.4074 -0.9273
 5119TIP3   OH215320   4.102   5.537   1.921  0.4444 -0.1657 -0.6593
 5119TIP3    H115321   4.096   5.627   1.953  1.4397 -0.2817 -0.1051
 5119TIP3    H215322   4.162   5.494   1.981 -0.6189 -1.4331 -0.4530
 5120TIP3   OH215323   2.389   2.873   5.343 -0.1311  0.7255  0.2360
 5120TIP3    H115324   2.338   2.941   5.298 -0.6783  0.6974  0.7901
 5120TIP3    H215325   2.480   2.897   5.327 -0.3161  1.0523 -0.3727
 5121TIP3   OH215326   0.212   0.520   4.920 -0.5030 -0.0039  0.4269
 5121TIP3    H115327   0.210   0.517   5.015  1.5558  3.0820  0.7234
 5121TIP3    H215328   0.136   0.572   4.895  1.1034  2.7682  0.8556
 5122TIP3   OH215329   4.592   3.419   0.813  0.1882  0.1713 -0.0956
 5122TIP3    H115330   4.530   3.389   0.879  0.9121 -0.7727  0.1816
 5122TIP3    H215331   4.551   3.394   0.730 -0.7901  1.4955 -0.0362
 5123TIP3   OH215332   1.865   1.369   0.258 -0.2667  0.4167  0.3391
 5123TIP3    H115333   1.786   1.351   0.208  0.8689  2.3880 -2.3955
 5123TIP3    H215334   1.928   1.305   0.227 -0.1383  0.2603  0.8995
 5124TIP3   OH215335   5.823   4.940   2.248  0.1944  0.1888 -0.0948
 5124TIP3    H115336   5.830   4.874   2.178  0.2359  0.3130 -0.2070
 5124TIP3    H215337   5.730   4.943   2.268  0.4139 -1.6194  1.5467
 5125TIP3   OH215338   0.212   3.529   4.245  0.6305  0.5902 -0.1488
 5125TIP3    H115339   0.165   3.611   4.232 -0.4375  0.2520  1.3301
 5125TIP3    H215340   0.245   3.534   4.334  1.1519 -0.2954 -0.2844
 5126TIP3   OH215341   4.178   5.859   3.825  0.6127 -0.0340 -0.3473
 5126TIP3    H115342   4.156   5.780   3.776  2.7559 -0.3273 -0.9420
 5126TIP3    H215343   4.178   5.831   3.917 -1.0017 -0.0818 -0.3285
 5127TIP3   OH215344   0.348   3.356   1.209  0.0890  0.4168 -0.9217
 5127TIP3    H115345   0.294   3.305   1.269  0.4273 -0.9119 -1.7065
 5127TIP3    H215346   0.337   3.313   1.125  0.9940  1.1946 -1.4550
 5128TIP3   OH215347   1.449   0.388   5.795 -0.0066  1.0108 -0.1275
 5128TIP3    H115348   1.524   0.421   5.845  0.6740  0.6555 -0.8900
 5128TIP3    H215349   1.488   0.330   5.730 -0.9968  0.4289 -0.2117
 5129TIP3   OH215350   5.680   4.058   3.475  0.7653  0.8509  0.1173
 5129TIP3    H115351   5.639   4.135   3.514  0.2963  0.6786 -0.0347
 5129TIP3    H215352   5.626   4.038   3.399  2.2532  1.8024 -1.2501
 5130TIP3   OH215353   3.452   6.432   1.450 -0.0039  0.3012 -0.1953
 5130TIP3    H115354   3.544   6.414   1.433  0.4395  0.3065  1.9521
 5130TIP3    H215355   3.450   6.466   1.540 -2.0407  0.8073 -0.3752
 5131TIP3   OH215356   6.285   5.660   5.133 -0.6680  0.3083  0.2141
 5131TIP3    H115357   6.297   5.586   5.192 -1.0134 -0.3701 -0.5470
 5131TIP3    H215358   6.320   5.735   5.181  0.7165 -0.5224  0.5707
 5132TIP3   OH215359   0.173   0.993   3.087  0.0805  0.5264 -0.1520
 5132TIP3    H115360   0.230   0.955   3.154 -1.9766  0.8483  1.9214
 5132TIP3    H215361   0.175   1.087   3.106 -1.9884  0.4284  0.7475
 5133TIP3   OH215362   0.341   4.759   2.487 -0.1499 -0.0512 -0.2913
 5133TIP3    H115363   0.363   4.740   2.578  1.1633 -0.3892 -0.6566
 5133TIP3    H215364   0.342   4.673   2.443 -0.4438  0.1433 -0.6892
 5134TIP3   OH215365   6.516   3.211   5.021 -0.6736  0.3121  0.0722
 5134TIP3    H115366   6.576   3.144   4.989 -2.2767 -0.6795 -0.9544
 5134TIP3    H215367   6.495   3.184   5.110 -0.5035  0.0441  0.0321
 5135TIP3   OH215368   2.287   2.256   1.291 -0.0678 -0.6034 -0.1414
 5135TIP3    H115369   2.283   2.271   1.196 -0.1744 -0.8730 -0.1790
 5135TIP3    H215370   2.302   2.343   1.328  0.6105 -0.5865 -0.4423
 5136TIP3   OH215371   0.292   0.572   2.795 -1.1787 -0.4141 -0.0692
 5136TIP3    H115372   0.267   0.480   2.790  0.4587 -0.8387 -1.2866
 5136TIP3    H215373   0.369   0.574   2.852 -1.1125  0.1740 -0.1644
 5137TIP3   OH215374   2.874   5.469   5.526  0.2447 -0.5105 -0.2897
 5137TIP3    H115375   2.952   5.416   5.546  0.0544 -0.4443  0.6520
 5137TIP3    H215376   2.863   5.525   5.602  0.0147  0.3932 -0.9738
 5138TIP3   OH215377   1.078   4.379   5.503 -0.0999  0.3099  0.0375
 5138TIP3    H115378   1.088   4.470   5.529 -0.0591  0.3869 -0.2408
 5138TIP3    H215379   1.115   4.328   5.575  0.1237  0.5228  0.0731
 5139TIP3   OH215380   6.068   0.431   1.713  0.4790  0.0856  1.0708
 5139TIP3    H115381   6.101   0.511   1.672  0.4816 -0.4539 -0.0187
 5139TIP3    H215382   6.113   0.428   1.798  1.0150  0.8706  0.8318
 5140TIP3   OH215383   3.448   5.212   0.899 -0.2065 -0.1474  0.2094
 5140TIP3    H115384   3.383   5.206   0.969 -0.7178  1.1303 -0.1288
 5140TIP3    H215385   3.500   5.289   0.921 -1.3164  1.1771 -1.5426
 5141TIP3   OH215386   5.474   1.143   2.976 -0.5472  0.7252  0.5255
 5141TIP3    H115387   5.568   1.158   2.964 -0.3940  0.4981  1.3577
 5141TIP3    H215388   5.434   1.229   2.964 -0.2611  0.7896 -0.0291
 5142TIP3   OH215389   5.481   5.610   0.977  0.1196 -0.2683  0.0832
 5142TIP3    H115390   5.403   5.578   1.022  1.0001 -0.4318  1.5685
 5142TIP3    H215391   5.525   5.531   0.946  0.1172 -0.2284 -0.0223
 5143TIP3   OH215392   4.117   0.274   4.616  0.2320 -0.2258 -0.0922
 5143TIP3    H115393   4.162   0.218   4.553  2.9784  0.8422  0.8040
 5143TIP3    H215394   4.181   0.340   4.641 -1.6365  1.0116  1.8282
 5144TIP3   OH215395   3.197   1.522   2.056 -0.5595  0.6295  0.1122
 5144TIP3    H115396   3.226   1.545   2.144 -0.1199  0.5398 -0.0051
 5144TIP3    H215397   3.211   1.427   2.050  1.0571  0.8789 -0.6375
 5145TIP3   OH215398   4.716   1.220   4.412  0.1049 -0.5328  0.3189
 5145TIP3    H115399   4.692   1.299   4.363 -2.0103 -1.1929  0.2054
 5145TIP3    H215400   4.742   1.252   4.498 -3.1535  0.2204  1.1497
 5146TIP3   OH215401   0.172   1.221   2.782  0.5312 -0.4510 -0.3917
 5146TIP3    H115402   0.180   1.308   2.820  0.8032 -1.1742  1.2957
 5146TIP3    H215403   0.091   1.186   2.820 -0.7253 -0.2251 -2.6479
 5147TIP3   OH215404   3.037   3.805   3.939 -0.1446 -0.1082 -0.5604
 5147TIP3    H115405   2.984   3.867   3.888 -0.4916 -0.2781 -0.4106
 5147TIP3    H215406   3.118   3.852   3.958 -1.3283  1.1953  1.5943
 5148TIP3   OH215407   1.484   0.584   2.658 -0.6384  0.0391  0.4866
 5148TIP3    H115408   1.395   0.619   2.655 -1.3234 -1.5105  1.6315
 5148TIP3    H215409   1.485   0.526   2.734  0.9354 -1.0902 -0.3349
 5149TIP3   OH215410   0.519   3.765   0.395 -0.9848 -0.3340 -0.1947
 5149TIP3    H115411   0.555   3.693   0.344  0.6459 -0.0018  0.4302
 5149TIP3    H215412   0.473   3.723   0.468 -1.1933 -0.7552 -0.5680
 5150TIP3   OH215413   6.787   5.379   3.316  0.5904 -0.5975 -0.2191
 5150TIP3    H115414   6.792   5.442   3.388 -1.5322 -0.5029 -0.0827
 5150TIP3    H215415   6.762   5.431   3.240 -0.2507 -1.1325 -0.3166
 5151TIP3   OH215416   4.352   5.591   4.392 -1.0606  0.3377 -0.6274
 5151TIP3    H115417   4.282   5.559   4.334 -0.8193 -0.8499 -0.2927
 5151TIP3    H215418   4.305   5.635   4.463 -1.4245  0.3971 -0.8991
 5152TIP3   OH215419   6.630   5.307   1.990 -0.0224 -0.1008 -0.9757
 5152TIP3    H115420   6.663   5.226   1.952  0.9506  0.5029 -1.4605
 5152TIP3    H215421   6.689   5.325   2.063  0.6844  0.9063 -1.7521
 5153TIP3   OH215422   4.173   1.394   2.601  0.2427  0.3247  0.7510
 5153TIP3    H115423   4.118   1.381   2.524 -0.5615  2.4067  0.9088
 5153TIP3    H215424   4.248   1.444   2.569  0.5159  0.1539  1.1100
 5154TIP3   OH215425   3.867   0.694   1.986  0.3819  0.4597  0.0930
 5154TIP3    H115426   3.779   0.656   1.976 -0.3175  1.3835  2.1810
 5154TIP3    H215427   3.921   0.621   2.017  0.1794  0.0813 -0.4219
 5155TIP3   OH215428   4.467   5.485   0.759 -0.0627 -0.3838 -0.3141
 5155TIP3    H115429   4.377   5.455   0.742  0.5507 -1.5451 -1.7827
 5155TIP3    H215430   4.512   5.406   0.791  0.3241  0.3339  1.0042
 5156TIP3   OH215431   1.367   3.839   5.478 -0.1644  0.4255 -0.5410
 5156TIP3    H115432   1.373   3.776   5.550 -1.4330 -0.0173 -0.7980
 5156TIP3    H215433   1.414   3.916   5.509 -1.7732  0.7373  1.3144
 5157TIP3   OH215434   5.414   2.302   4.766 -0.6700 -0.3810 -0.2619
 5157TIP3    H115435   5.408   2.206   4.762  0.2824 -0.4101 -1.3975
 5157TIP3    H215436   5.442   2.328   4.679  3.6886  0.5405  1.1459
 5158TIP3   OH215437   2.096   5.150   3.445 -0.5612 -0.1896  0.4522
 5158TIP3    H115438   2.008   5.167   3.477 -0.7802 -1.4975  0.5979
 5158TIP3    H215439   2.085   5.085   3.375  0.2235  0.1127  0.0308
 5159TIP3   OH215440   2.162   4.579   4.983  0.1980  0.1529 -0.0022
 5159TIP3    H115441   2.186   4.487   4.971  0.8627  0.3215 -0.0225
 5159TIP3    H215442   2.191   4.600   5.072 -1.7122 -0.1822  0.7364
 5160TIP3   OH215443   4.821   6.371   2.829 -0.3756  0.2028 -0.2352
 5160TIP3    H115444   4.734   6.402   2.805 -1.0633 -1.8944 -0.7194
 5160TIP3    H215445   4.816   6.355   2.923 -0.8172 -0.7245 -0.4047
 5161TIP3   OH215446   7.130   3.861   2.544 -0.2427 -0.0679 -0.0436
 5161TIP3    H115447   7.066   3.806   2.589 -2.4233  0.6272 -2.1243
 5161TIP3    H215448   7.120   3.840   2.451 -2.8475  5.1569 -1.3127
 5162TIP3   OH215449   2.576   3.403   4.318  0.0828  0.0064  0.0191
 5162TIP3    H115450   2.670   3.395   4.330  0.0682  0.7542  0.6903
 5162TIP3    H215451   2.566   3.475   4.256 -0.0373 -0.2046 -0.2055
 5163TIP3   OH215452   4.596   1.780   1.605 -0.5174  0.1769  0.1912
 5163TIP3    H115453   4.563   1.858   1.650 -0.0395 -0.8358  2.4252
 5163TIP3    H215454   4.530   1.713   1.621  0.1815 -0.4978  0.3162
 5164TIP3   OH215455   6.654   5.294   1.504 -0.7932 -0.2864 -0.1616
 5164TIP3    H115456   6.591   5.279   1.434  0.8209 -1.5962 -1.4302
 5164TIP3    H215457   6.674   5.206   1.538  0.6311  0.0203 -0.1111
 5165TIP3   OH215458   4.312   4.082   3.508  0.2747  0.2215  0.8713
 5165TIP3    H115459   4.301   4.050   3.597 -0.7732 -1.5443  0.1644
 5165TIP3    H215460   4.224   4.106   3.480  0.3364 -0.6442 -0.1451
 5166TIP3   OH215461   3.931   3.931   1.384  0.0690 -0.1857  0.1342
 5166TIP3    H115462   3.998   3.880   1.338 -0.1592  1.5033 -2.2458
 5166TIP3    H215463   3.895   3.870   1.449 -1.4552 -3.8201 -3.6436
 5167TIP3   OH215464   1.460   5.330   2.867  0.2520  0.6855 -0.0317
 5167TIP3    H115465   1.456   5.421   2.839 -0.5518  0.6459 -0.0620
 5167TIP3    H215466   1.434   5.279   2.790 -0.3987  0.4937  0.3055
 5168TIP3   OH215467   6.891   1.229   3.622  0.1949 -0.2574  0.0915
 5168TIP3    H115468   6.798   1.219   3.606 -0.1677 -0.6147  2.1286
 5168TIP3    H215469   6.906   1.324   3.620  0.2206 -0.2600 -2.1575
 5169TIP3   OH215470   1.208   3.944   4.698 -0.3404 -0.5624  0.1169
 5169TIP3    H115471   1.258   3.874   4.656 -0.2920  0.8970 -2.4512
 5169TIP3    H215472   1.118   3.913   4.698 -0.1840 -1.0241 -0.1451
 5170TIP3   OH215473   5.178   2.437   2.583  0.2351  0.8861  0.6814
 5170TIP3    H115474   5.174   2.362   2.643  0.3825 -1.1049 -1.6457
 5170TIP3    H215475   5.087   2.455   2.561  0.2629  0.4678  0.2013
 5171TIP3   OH215476   5.150   3.311   0.302 -0.3788  0.1823 -0.1035
 5171TIP3    H115477   5.226   3.311   0.244  0.6577 -1.2853  1.1537
 5171TIP3    H215478   5.174   3.372   0.372 -0.3058 -0.3013  0.3058
 5172TIP3   OH215479   7.127   1.978   4.798 -0.7614 -0.7702  0.6733
 5172TIP3    H115480   7.188   1.941   4.861  0.0392 -1.1666 -0.2960
 5172TIP3    H215481   7.172   1.970   4.714  0.0437  3.5097  0.4606
 5173TIP3   OH215482   4.583   1.551   5.890 -0.2951 -0.6470  0.2049
 5173TIP3    H115483   4.658   1.585   5.937  0.6519 -1.7426 -0.4650
 5173TIP3    H215484   4.618   1.520   5.806 -1.3394 -1.8483  0.1690
 5174TIP3   OH215485   5.560   0.777   1.361 -0.0258  0.1260  0.1493
 5174TIP3    H115486   5.596   0.865   1.354 -0.8972  0.3975 -1.4827
 5174TIP3    H215487   5.592   0.732   1.283 -1.7983 -0.1311 -0.4680
 5175TIP3   OH215488   0.434   2.527   4.263  0.4957  0.2289 -0.3213
 5175TIP3    H115489   0.417   2.592   4.331 -1.9934 -1.0958  0.4298
 5175TIP3    H215490   0.506   2.474   4.298  0.2274  0.4661  0.6079
 5176TIP3   OH215491   3.822   3.227   5.111  0.3184 -0.3096 -0.0681
 5176TIP3    H115492   3.855   3.218   5.200 -0.1245 -0.6311  0.0618
 5176TIP3    H215493   3.811   3.322   5.099  1.1713 -0.1998 -0.0784
 5177TIP3   OH215494   3.326   1.559   4.828 -0.0365 -0.7514  0.0358
 5177TIP3    H115495   3.284   1.478   4.857 -0.5572 -1.0347 -1.3903
 5177TIP3    H215496   3.272   1.629   4.865 -1.2553 -1.1065 -0.9835
 5178TIP3   OH215497   5.408   3.494   4.629 -0.1947 -0.2302  0.3826
 5178TIP3    H115498   5.357   3.421   4.595 -0.5792 -0.2877  1.0828
 5178TIP3    H215499   5.397   3.564   4.564 -1.8393  0.0432  0.9228
 5179TIP3   OH215500   4.093   5.546   4.838  0.2989 -0.7018 -0.3792
 5179TIP3    H115501   4.158   5.582   4.898  0.0483  1.0924 -1.0977
 5179TIP3    H215502   4.018   5.525   4.893  1.0041 -1.5688  0.2752
 5180TIP3   OH215503   1.114   3.575   3.797  0.2416  0.0597 -0.2699
 5180TIP3    H115504   1.190   3.540   3.843  0.1630  1.1165  0.7092
 5180TIP3    H215505   1.151   3.633   3.731  0.3148  1.7436  1.1699
 5181TIP3   OH215506   6.624   5.923   4.134  0.2402 -0.0559  0.2314
 5181TIP3    H115507   6.544   5.883   4.101 -0.1768 -0.0857  1.2241
 5181TIP3    H215508   6.619   5.910   4.229  0.4366  1.6847  0.5196
 5182TIP3   OH215509   3.035   2.875   0.376  0.0978 -0.3932 -0.4832
 5182TIP3    H115510   2.967   2.936   0.403 -0.4452 -1.4798  0.7263
 5182TIP3    H215511   3.005   2.841   0.292 -0.4216 -0.2050 -0.3765
 5183TIP3   OH215512   2.879   4.677   1.519 -0.5525  0.7819 -0.1705
 5183TIP3    H115513   2.910   4.707   1.604  0.5997  0.0434 -0.3031
 5183TIP3    H215514   2.784   4.692   1.521 -0.6104  0.3764  1.3964
 5184TIP3   OH215515   6.945   1.162   5.697  0.3801 -0.0349 -0.1673
 5184TIP3    H115516   6.961   1.249   5.733  0.8107  0.2899 -1.1006
 5184TIP3    H215517   6.955   1.103   5.771  1.2807  0.6064  0.2380
 5185TIP3   OH215518   0.998   1.532   1.021  0.4338 -1.0344 -0.0736
 5185TIP3    H115519   0.926   1.592   1.041  1.3939  0.3753 -0.6846
 5185TIP3    H215520   0.967   1.447   1.053 -1.2533 -0.3705  0.2048
 5186TIP3   OH215521   2.545   3.645   4.176 -0.2760 -0.0924 -0.3981
 5186TIP3    H115522   2.602   3.719   4.197  0.2521 -0.0345 -1.9236
 5186TIP3    H215523   2.476   3.682   4.121  0.3506 -0.8271 -1.7152
 5187TIP3   OH215524   1.455   3.355   3.376 -0.1067 -0.3200 -0.0165
 5187TIP3    H115525   1.550   3.348   3.366 -0.1265 -0.1883 -0.2943
 5187TIP3    H215526   1.444   3.416   3.449  0.0162  0.4093 -0.5927
 5188TIP3   OH215527   2.881   6.705   3.574 -0.6033  0.0872 -0.2530
 5188TIP3    H115528   2.801   6.694   3.624 -2.6512 -0.4813 -3.3740
 5188TIP3    H215529   2.882   6.798   3.549  0.8897  0.5869  1.4561
 5189TIP3   OH215530   6.765   4.709   0.041 -0.3686 -0.3012 -0.1809
 5189TIP3    H115531   6.738   4.774   0.106 -0.8967 -0.8346  0.1579
 5189TIP3    H215532   6.756   4.753  -0.043 -0.6749  0.0765  0.0468
 5190TIP3   OH215533   7.038   6.061   0.264  0.5261 -0.0453  0.2875
 5190TIP3    H115534   7.049   6.047   0.170 -1.5566  0.3168 -0.0557
 5190TIP3    H215535   6.975   5.994   0.291  1.6134 -0.5858  1.5853
 5191TIP3   OH215536   5.959   5.446   4.431  0.4731  0.3457  0.6113
 5191TIP3    H115537   5.930   5.511   4.368  0.5686  0.9777  1.2109
 5191TIP3    H215538   6.052   5.435   4.415  0.0336 -1.4920 -1.1420
 5192TIP3   OH215539   3.490   0.748   1.960  0.5736 -0.1021  0.1501
 5192TIP3    H115540   3.482   0.730   2.054 -1.7480 -1.5822 -0.2627
 5192TIP3    H215541   3.535   0.671   1.925 -1.0676 -0.8920 -0.3053
 5193TIP3   OH215542   3.780   5.912   2.287  0.2582 -0.3821 -0.1199
 5193TIP3    H115543   3.791   5.841   2.223  1.6849  0.1756 -0.5499
 5193TIP3    H215544   3.845   5.892   2.355  0.2549  0.1893  0.0539
 5194TIP3   OH215545   5.275   0.724   0.333 -0.2195  0.0579 -0.0276
 5194TIP3    H115546   5.290   0.818   0.335 -0.4948  0.1020 -0.0304
 5194TIP3    H215547   5.223   0.709   0.255  2.1650 -0.4443 -1.6238
 5195TIP3   OH215548   2.848   5.914   3.302 -0.4409  0.0204 -0.2513
 5195TIP3    H115549   2.753   5.917   3.308 -0.5622 -0.3132 -1.6378
 5195TIP3    H215550   2.874   5.845   3.362 -1.1558 -0.5192 -0.5542
 5196TIP3   OH215551   5.781   2.348   0.563  0.4492 -0.2419  0.3484
 5196TIP3    H115552   5.699   2.323   0.521 -0.0848  0.9983  0.6170
 5196TIP3    H215553   5.791   2.285   0.635 -0.7681  0.1630  0.8970
 5197TIP3   OH215554   3.806   6.320   5.240 -0.7854  0.1018  0.2567
 5197TIP3    H115555   3.863   6.244   5.227 -0.0869  0.5604  0.5744
 5197TIP3    H215556   3.754   6.300   5.318 -2.1302 -0.9477 -0.8617
 5198TIP3   OH215557   3.181   1.870   5.745  0.1385  0.2763  0.2016
 5198TIP3    H115558   3.152   1.823   5.667  0.2413 -0.0424  0.3531
 5198TIP3    H215559   3.277   1.859   5.745  0.1238  0.1304  0.4593
 5199TIP3   OH215560   0.278   1.801   1.659 -0.3766  0.3091 -0.3091
 5199TIP3    H115561   0.341   1.730   1.647 -0.8158 -0.4946  1.7798
 5199TIP3    H215562   0.221   1.771   1.730 -0.6911  2.6694  0.5137
 5200TIP3   OH215563   5.394   4.077   1.509 -0.0190  0.2780  0.2377
 5200TIP3    H115564   5.475   4.114   1.475  2.2843 -1.0866  3.6675
 5200TIP3    H215565   5.381   3.996   1.459  3.4249 -1.8437  2.3207
 5201TIP3   OH215566   5.645   4.825   4.508 -0.1115  0.0525  0.4616
 5201TIP3    H115567   5.682   4.831   4.420 -0.5541  0.1274  0.2738
 5201TIP3    H215568   5.705   4.874   4.564 -0.4859  1.1025 -0.0196
 5202TIP3   OH215569   4.842   4.066   3.013  0.1313 -0.2830 -0.1280
 5202TIP3    H115570   4.887   3.987   3.044 -2.7117 -1.0818  2.3857
 5202TIP3    H215571   4.845   4.125   3.088  0.8052  1.4338 -1.4500
 5203TIP3   OH215572   6.680   3.853   3.031 -0.3315 -0.0813  0.2087
 5203TIP3    H115573   6.687   3.879   2.939 -2.1279 -1.7878 -0.4810
 5203TIP3    H215574   6.724   3.923   3.079  0.5674  0.9117 -1.9254
 5204TIP3   OH215575   3.482   3.040   0.108 -0.0440 -1.1076 -0.1334
 5204TIP3    H115576   3.560   2.988   0.129 -0.8169 -2.9266 -1.4492
 5204TIP3    H215577   3.435   2.987   0.043 -1.0882  1.1308 -1.3041
 5205TIP3   OH215578   6.013   1.756   4.359  0.2795  0.0212  0.5764
 5205TIP3    H115579   5.940   1.697   4.377 -0.0559  0.3645  0.3587
 5205TIP3    H215580   6.027   1.802   4.442  0.5226 -0.3442  0.7375
 5206TIP3   OH215581   5.504   1.050   1.577  0.1054 -0.0627  0.5423
 5206TIP3    H115582   5.517   1.009   1.492  0.6878  1.1781  0.0108
 5206TIP3    H215583   5.514   0.978   1.640 -1.2282 -1.1828 -0.4461
 5207TIP3   OH215584   6.058   3.087   0.083 -0.6098  0.1252 -0.5356
 5207TIP3    H115585   6.102   3.105   0.000  1.2428 -0.6875  0.2125
 5207TIP3    H215586   6.060   3.171   0.130 -0.3920  0.2375 -0.7475
 5208TIP3   OH215587   1.105   1.847   0.420 -0.3916  0.2393 -0.2107
 5208TIP3    H115588   1.135   1.920   0.474  0.2988  0.2309 -0.5854
 5208TIP3    H215589   1.154   1.855   0.338  0.2442 -1.0724  0.0239
 5209TIP3   OH215590   7.074   4.780   4.767 -0.2736 -0.2308 -0.0300
 5209TIP3    H115591   7.106   4.839   4.835 -1.1982  0.4834 -0.1881
 5209TIP3    H215592   7.112   4.814   4.686  1.4194 -1.5162  0.1867
 5210TIP3   OH215593   3.653   1.818   5.580 -0.2070  0.5221  0.4612
 5210TIP3    H115594   3.729   1.849   5.629  1.4524  0.7831 -2.0501
 5210TIP3    H215595   3.653   1.723   5.593 -1.4204  0.7938  2.9807
 5211TIP3   OH215596   1.555   2.540   5.386  0.0492 -0.4326  0.5447
 5211TIP3    H115597   1.540   2.446   5.389  0.1131 -0.4283  2.5208
 5211TIP3    H215598   1.650   2.549   5.373  0.0644 -0.6362  0.5166
 5212TIP3   OH215599   2.794   1.133   1.425  0.6708  0.0044  0.0760
 5212TIP3    H115600   2.762   1.069   1.361  0.1472 -0.3763  0.7095
 5212TIP3    H215601   2.718   1.190   1.441  1.0500  0.6160 -0.2655
 5213TIP3   OH215602   2.774   4.084   0.109 -0.6193 -0.0504  0.6281
 5213TIP3    H115603   2.837   4.036   0.055 -1.1751 -1.8838  1.5494
 5213TIP3    H215604   2.709   4.019   0.135 -1.2491  1.1307  2.1926
 5214TIP3   OH215605   4.262   0.487   5.393  0.5244  0.3135  0.2749
 5214TIP3    H115606   4.260   0.391   5.383 -0.7574  0.3596 -0.0837
 5214TIP3    H215607   4.349   0.505   5.430  0.4540 -1.0609  1.1935
 5215TIP3   OH215608   0.017   1.370   0.379 -0.3554 -0.0597 -0.3003
 5215TIP3    H115609   0.025   1.282   0.342 -3.3523 -2.1527  3.2559
 5215TIP3    H215610   0.082   1.373   0.449 -0.0955  0.6864 -0.5619
 5216TIP3   OH215611   1.833   3.526   1.126 -0.1545  0.0593 -0.1705
 5216TIP3    H115612   1.805   3.507   1.215 -0.0185 -0.9529 -0.3339
 5216TIP3    H215613   1.758   3.504   1.071  0.3722 -1.0645 -0.4596
 5217TIP3   OH215614   1.707   5.117   0.468 -0.3905  0.2583  0.4123
 5217TIP3    H115615   1.758   5.145   0.393 -1.4824  1.0798 -0.0348
 5217TIP3    H215616   1.632   5.069   0.431 -0.4329 -0.1695  1.0194
 5218TIP3   OH215617   2.812   5.449   4.529  0.3636  0.1359 -0.1951
 5218TIP3    H115618   2.877   5.508   4.566 -0.4737  1.5741 -0.9488
 5218TIP3    H215619   2.831   5.364   4.570  2.5170  0.5694 -0.1944
 5219TIP3   OH215620   0.372   3.937   3.936 -0.2701 -0.2253 -0.4788
 5219TIP3    H115621   0.446   3.971   3.986 -1.1087 -0.1084  0.7376
 5219TIP3    H215622   0.406   3.859   3.892  0.6165 -0.0701 -0.0862
 5220TIP3   OH215623   4.912   0.322   1.952 -0.3726  0.6014  0.1140
 5220TIP3    H115624   4.935   0.258   2.020 -1.6891 -0.4337 -0.3437
 5220TIP3    H215625   4.872   0.394   2.000  0.8382  0.9567  0.6187
 5221TIP3   OH215626   4.829   2.101   1.391  0.0451  0.2040 -0.0883
 5221TIP3    H115627   4.856   2.191   1.369  0.6973 -0.2020 -1.0275
 5221TIP3    H215628   4.842   2.094   1.485  2.1199  0.4128 -0.3263
 5222TIP3   OH215629   5.366   4.763   2.824  0.2359  0.6999  0.1858
 5222TIP3    H115630   5.414   4.717   2.756 -0.0234 -0.0708  0.5103
 5222TIP3    H215631   5.293   4.805   2.778  1.8266  2.8958 -0.5127
 5223TIP3   OH215632   4.109   0.415   0.264 -0.0624  0.5064  0.7057
 5223TIP3    H115633   4.022   0.448   0.242 -0.5706 -1.0165  0.2833
 5223TIP3    H215634   4.102   0.320   0.253  2.3571  0.5049 -1.9349
 5224TIP3   OH215635   4.160   1.782   2.731  0.0206 -0.8569  0.3619
 5224TIP3    H115636   4.203   1.847   2.675 -0.3554 -0.4489  0.5355
 5224TIP3    H215637   4.067   1.800   2.721 -0.0538 -0.7105  1.1831
 5225TIP3   OH215638   5.079   6.508   5.782  0.0942 -0.9321  0.0394
 5225TIP3    H115639   5.028   6.567   5.838 -0.2039  0.1282 -1.2810
 5225TIP3    H215640   5.150   6.477   5.838 -0.9955 -1.0450  1.4004
 5226TIP3   OH215641   7.114   0.419   0.128 -0.0937  0.0514 -0.2034
 5226TIP3    H115642   7.127   0.499   0.178 -1.0870  0.2199 -0.1920
 5226TIP3    H215643   7.191   0.412   0.072  0.1072  0.8867 -0.0341
 5227TIP3   OH215644   6.097   0.952   3.060  0.6303  0.3839 -0.1680
 5227TIP3    H115645   6.123   0.860   3.056 -0.9033 -0.0803 -0.1615
 5227TIP3    H215646   6.138   0.992   2.983  1.7480 -0.1609  0.1163
 5228TIP3   OH215647   5.958   1.599   5.242  0.0198 -0.0488 -0.3507
 5228TIP3    H115648   5.891   1.633   5.183  1.8873  2.7758 -1.0597
 5228TIP3    H215649   6.029   1.570   5.184  0.6436 -0.1022  0.4169
 5229TIP3   OH215650   7.028   2.626   4.292  0.1457 -0.4659  0.4287
 5229TIP3    H115651   6.938   2.610   4.319 -0.2858 -1.4141 -1.3844
 5229TIP3    H215652   7.031   2.718   4.267 -0.5419 -0.6249 -0.2506
 5230TIP3   OH215653   3.283   3.750   0.268  1.0722  0.0118 -0.0908
 5230TIP3    H115654   3.260   3.753   0.175 -0.2498  1.0165  0.2326
 5230TIP3    H215655   3.353   3.815   0.277  2.1747 -1.0734 -0.6042
 5231TIP3   OH215656   4.237   1.011   0.200  0.5028  0.3335  0.1573
 5231TIP3    H115657   4.269   0.988   0.287  1.1915 -0.4538 -0.2902
 5231TIP3    H215658   4.291   1.085   0.173  1.1012 -0.1803 -0.0770
 5232TIP3   OH215659   4.452   3.752   5.410 -0.2921 -0.6845  0.4371
 5232TIP3    H115660   4.435   3.819   5.344  0.2163 -1.8247 -0.9054
 5232TIP3    H215661   4.489   3.800   5.484  2.1238  0.3506 -1.2912
 5233TIP3   OH215662   2.125   5.886   5.766 -0.0518 -0.5368  0.2064
 5233TIP3    H115663   2.115   5.968   5.815  0.9672 -0.3020  0.0583
 5233TIP3    H215664   2.037   5.864   5.738 -0.1347  1.7217 -1.6810
 5234TIP3   OH215665   4.001   0.170  -0.018  0.1125 -0.1091  0.7428
 5234TIP3    H115666   3.982   0.244   0.039  3.3647 -1.1624  3.5493
 5234TIP3    H215667   3.973   0.093   0.033  0.0730 -0.9835 -0.5559
 5235TIP3   OH215668   6.620   1.749   1.804  0.2256  0.1493 -0.4246
 5235TIP3    H115669   6.710   1.727   1.779  0.2776  0.7303 -0.7536
 5235TIP3    H215670   6.606   1.702   1.886  0.9095  0.2374 -0.2529
 5236TIP3   OH215671   1.962   2.063   5.012  0.4607 -0.3160 -0.0026
 5236TIP3    H115672   1.981   2.135   5.073  1.9188  0.1133 -0.9242
 5236TIP3    H215673   1.893   2.098   4.956  0.1461 -0.1745  0.4632
 5237TIP3   OH215674   4.597   0.790   2.098  0.2763  0.3071 -0.2297
 5237TIP3    H115675   4.584   0.765   2.190 -0.2769 -1.5817 -0.7756
 5237TIP3    H215676   4.619   0.883   2.102  1.8957 -0.0697  1.9330
 5238TIP3   OH215677   5.613   3.258   4.518 -0.4086  0.6638 -0.0843
 5238TIP3    H115678   5.519   3.258   4.533 -0.0380  0.3427  2.9310
 5238TIP3    H215679   5.647   3.327   4.575  1.3412 -0.6979  0.6523
 5239TIP3   OH215680   2.222   4.771   1.941 -0.2316  0.0279 -0.0153
 5239TIP3    H115681   2.294   4.821   1.903 -0.8743  0.0609 -1.2358
 5239TIP3    H215682   2.144   4.802   1.895 -0.7523 -1.4893 -0.2160
 5240TIP3   OH215683   4.754   3.420   1.970 -0.1264 -0.0331  0.3021
 5240TIP3    H115684   4.746   3.503   2.018  0.0628  0.0846  0.1365
 5240TIP3    H215685   4.784   3.447   1.883 -0.4388 -0.2466  0.1282
 5241TIP3   OH215686   1.892   5.043   5.438 -0.3515  0.2159  0.1581
 5241TIP3    H115687   1.904   5.075   5.349 -1.4433  0.4094  0.0676
 5241TIP3    H215688   1.924   4.952   5.436 -1.5295 -0.1922 -0.7502
 5242TIP3   OH215689   1.750   0.942   2.765 -0.0714 -0.3655 -0.6943
 5242TIP3    H115690   1.800   0.866   2.794 -0.9049 -0.8815 -0.5643
 5242TIP3    H215691   1.711   0.914   2.682  0.6394  0.3759 -1.2932
 5243TIP3   OH215692   1.974   0.643   2.252  0.1996 -0.0960 -0.1323
 5243TIP3    H115693   2.017   0.687   2.178 -0.2434 -0.1595 -0.4355
 5243TIP3    H215694   1.971   0.709   2.321 -0.4603  0.3709 -0.5859
 5244TIP3   OH215695   4.687   5.618   1.603  0.2149 -0.1395 -0.0706
 5244TIP3    H115696   4.688   5.625   1.508  1.5689 -1.7481 -0.2223
 5244TIP3    H215697   4.774   5.649   1.631  0.2891 -0.8528  0.5227
 5245TIP3   OH215698   2.385   1.467   4.136  0.2368 -0.0584  0.3144
 5245TIP3    H115699   2.339   1.387   4.160  1.5925 -1.2366 -0.8161
 5245TIP3    H215700   2.328   1.509   4.071 -0.2134 -0.4004  0.4861
 5246TIP3   OH215701   6.552   5.985   0.942 -0.8053 -0.5516 -0.6574
 5246TIP3    H115702   6.620   6.034   0.988 -1.2380 -0.8437  0.3022
 5246TIP3    H215703   6.472   6.003   0.991 -1.2860 -0.8326 -1.3243
 5247TIP3   OH215704   2.609   5.419   0.765  0.1939 -0.0701 -0.1610
 5247TIP3    H115705   2.616   5.349   0.828  0.0951 -0.3531 -0.4619
 5247TIP3    H215706   2.515   5.440   0.761  0.0270 -0.9320 -1.1552
 5248TIP3   OH215707   2.188   2.931   3.101  0.4076  0.5135  0.1015
 5248TIP3    H115708   2.205   2.853   3.153  0.6389  0.3494 -0.2171
 5248TIP3    H215709   2.211   3.004   3.159  4.0694  0.3250 -0.8630
 5249TIP3   OH215710   2.570   5.752   4.958 -0.1499 -0.3621 -0.6504
 5249TIP3    H115711   2.663   5.769   4.969 -0.4596 -0.0484  2.1017
 5249TIP3    H215712   2.566   5.660   4.932  0.8971 -0.9300  1.0442
 5250TIP3   OH215713   1.180   4.447   4.389 -0.2437  0.1209 -0.4324
 5250TIP3    H115714   1.193   4.426   4.296  0.6295 -1.9270  0.0918
 5250TIP3    H215715   1.086   4.443   4.401 -0.4929  1.7538 -1.4805
 5251TIP3   OH215716   5.544   6.777   4.631 -0.4886 -0.5541 -0.7250
 5251TIP3    H115717   5.588   6.744   4.553 -0.2455 -1.5125 -0.1963
 5251TIP3    H215718   5.614   6.815   4.684 -0.3705 -1.5574 -0.1475
 5252TIP3   OH215719   5.547   5.007   1.524  0.2517 -0.4278  0.2749
 5252TIP3    H115720   5.480   5.051   1.576  0.5754  2.3930 -1.4524
 5252TIP3    H215721   5.629   5.028   1.570  0.2475 -0.8518  0.4750
 5253TIP3   OH215722   4.062   6.311   4.534  0.1559 -0.1349 -0.1786
 5253TIP3    H115723   4.050   6.392   4.583 -0.6401 -0.6182  0.4386
 5253TIP3    H215724   3.979   6.298   4.488  0.0724 -0.9037  0.1845
 5254TIP3   OH215725   2.113   0.977   0.771 -0.3618 -0.1286  0.1272
 5254TIP3    H115726   2.200   1.017   0.759 -0.4665 -0.1897 -0.9436
 5254TIP3    H215727   2.077   0.972   0.683  0.5607 -4.7281 -0.2092
 5255TIP3   OH215728   5.858   1.819   4.869 -0.3023  0.2352 -0.4817
 5255TIP3    H115729   5.809   1.737   4.863  1.8507 -1.0934 -0.9179
 5255TIP3    H215730   5.935   1.798   4.922  1.4975  1.2918 -2.4954
 5256TIP3   OH215731   1.482   6.631   5.828  0.0326  0.3488 -0.0060
 5256TIP3    H115732   1.492   6.725   5.815  1.1692  0.1050 -1.1339
 5256TIP3    H215733   1.535   6.612   5.906 -0.7963  0.7373  0.6628
 5257TIP3   OH215734   5.554   4.963   2.338 -0.8945 -0.1898  0.0417
 5257TIP3    H115735   5.543   4.934   2.429 -0.7105 -0.2225  0.0537
 5257TIP3    H215736   5.491   5.035   2.328  0.0887  0.7900  0.6272
 5258TIP3   OH215737   4.223   1.834   5.343 -0.3106 -0.1427 -0.1674
 5258TIP3    H115738   4.241   1.773   5.271  0.8916 -1.0637  0.8770
 5258TIP3    H215739   4.186   1.911   5.300  1.0677 -0.3776 -1.8571
 5259TIP3   OH215740   5.399   3.760   2.904 -0.2164  0.7072 -0.0938
 5259TIP3    H115741   5.389   3.707   2.824 -2.1208  0.4146  0.2912
 5259TIP3    H215742   5.440   3.701   2.967  2.0673  1.1751 -1.0139
 5260TIP3   OH215743   5.373   3.060   2.502 -0.6216 -0.0878  0.2318
 5260TIP3    H115744   5.290   3.020   2.478 -0.8007  0.4738 -0.0933
 5260TIP3    H215745   5.430   2.986   2.524 -1.2606 -0.4637  0.6447
 5261TIP3   OH215746   5.890   2.521   0.740  0.3219 -0.0395  0.2455
 5261TIP3    H115747   5.887   2.467   0.661  0.8814  1.8801 -1.1823
 5261TIP3    H215748   5.800   2.518   0.775 -0.4186  0.4671 -1.4979
 5262TIP3   OH215749   0.206   1.865   4.338  0.2539  0.0437  0.0734
 5262TIP3    H115750   0.290   1.904   4.314  1.5969 -2.5230  0.1794
 5262TIP3    H215751   0.229   1.792   4.395 -2.1442 -0.2206  0.8111
 5263TIP3   OH215752   2.024   6.752   3.349 -0.0325  0.3611  0.1188
 5263TIP3    H115753   2.099   6.693   3.343  1.1087  1.5925  1.4714
 5263TIP3    H215754   1.989   6.756   3.260  1.3335 -0.4546 -0.4899
 5264TIP3   OH215755   2.582   2.288   1.641  0.1164 -0.3362  0.1224
 5264TIP3    H115756   2.634   2.233   1.582  0.5229 -0.8017  0.9035
 5264TIP3    H215757   2.646   2.347   1.680 -0.5103  1.8001 -1.8559
 5265TIP3   OH215758   1.740   5.246   2.627  0.4833 -0.1281 -0.3577
 5265TIP3    H115759   1.794   5.321   2.652  0.7272 -0.2693 -0.4482
 5265TIP3    H215760   1.771   5.224   2.539 -0.7486  0.7156 -1.0321
 5266TIP3   OH215761   7.087   2.037   0.739 -0.2824  0.1585 -0.5619
 5266TIP3    H115762   7.041   2.050   0.656  0.1275  1.8325 -0.5626
 5266TIP3    H215763   7.088   2.124   0.779  1.5436 -0.1351  0.1273
 5267TIP3   OH215764   5.798   4.254   1.067 -0.0844 -0.0534 -0.0346
 5267TIP3    H115765   5.844   4.319   1.013  1.2216 -0.4618  0.5513
 5267TIP3    H215766   5.856   4.178   1.068 -0.7730 -0.5850  0.7530
 5268TIP3   OH215767   2.472   6.124   3.233  0.9655 -0.7288  0.0136
 5268TIP3    H115768   2.413   6.158   3.167  0.6555 -1.4402 -0.0811
 5268TIP3    H215769   2.462   6.029   3.228 -0.1856 -0.7812  2.0727
 5269TIP3   OH215770   6.476   1.912   0.389 -0.2704 -0.3103  0.6466
 5269TIP3    H115771   6.482   1.949   0.301  0.4779 -0.3362  0.6853
 5269TIP3    H215772   6.408   1.963   0.432 -1.2697 -0.8526 -0.2180
 5270TIP3   OH215773   6.835   0.584   5.547 -0.8495 -0.4604 -0.4907
 5270TIP3    H115774   6.861   0.497   5.576  0.7439  0.1440 -0.0248
 5270TIP3    H215775   6.740   0.585   5.557 -0.7732 -1.7358  0.6140
 5271TIP3   OH215776   3.791   2.347   5.100  0.0895  0.4191 -0.1545
 5271TIP3    H115777   3.745   2.278   5.148 -0.7564  0.8646 -0.2972
 5271TIP3    H215778   3.767   2.428   5.146 -1.5436  0.9799 -1.8637
 5272TIP3   OH215779   5.441   2.668   5.408  0.2301  0.1389 -0.3360
 5272TIP3    H115780   5.361   2.715   5.430 -0.0922 -1.4454  2.3197
 5272TIP3    H215781   5.419   2.618   5.330 -0.8737  0.8564 -0.5110
 5273TIP3   OH215782   1.251   5.904   1.460  0.2741  0.4165 -0.1045
 5273TIP3    H115783   1.239   5.954   1.540 -1.1836 -2.7131  1.8254
 5273TIP3    H215784   1.304   5.828   1.486  0.1469 -0.4810 -2.2024
 5274TIP3   OH215785   0.305   3.524   4.489 -0.0708  0.1967  0.0171
 5274TIP3    H115786   0.300   3.522   4.585  0.5270  0.2160  0.0546
 5274TIP3    H215787   0.342   3.438   4.466  0.0336  0.2960 -0.1832
 5275TIP3   OH215788   0.206   4.819   3.433 -0.7148 -0.0888  0.4049
 5275TIP3    H115789   0.135   4.755   3.435 -2.1195  1.3974  0.2498
 5275TIP3    H215790   0.197   4.862   3.348  1.2482 -0.7619 -0.2106
 5276TIP3   OH215791   5.925   4.281   1.311  0.2828  0.2213  0.2938
 5276TIP3    H115792   5.852   4.309   1.366 -0.5525  2.0502 -1.5875
 5276TIP3    H215793   5.886   4.273   1.223  2.0927  0.1057 -0.5367
 5277TIP3   OH215794   2.873   6.373   5.209  1.0615  0.4022 -0.1334
 5277TIP3    H115795   2.841   6.340   5.293  0.7623 -0.5224 -0.5949
 5277TIP3    H215796   2.967   6.355   5.210  1.2122  1.1767  0.3481
 5278TIP3   OH215797   0.641   3.498   1.236  0.1140  0.2615  0.1636
 5278TIP3    H115798   0.565   3.441   1.248  0.5362 -0.2965  0.2357
 5278TIP3    H215799   0.614   3.561   1.169 -0.6106  0.4325  0.6139
 5279TIP3   OH215800   3.105   6.032   0.889 -0.3056 -0.4355  0.2923
 5279TIP3    H115801   3.100   5.974   0.965 -0.5324 -0.8176 -0.0126
 5279TIP3    H215802   3.123   6.119   0.926 -3.6826  0.0532  1.0777
 5280TIP3   OH215803   2.461   0.318   2.960 -0.1037 -0.0535  0.1120
 5280TIP3    H115804   2.519   0.395   2.958 -0.6504  0.3446 -0.5431
 5280TIP3    H215805   2.404   0.334   3.035  0.0574 -0.0289  0.2324
 5281TIP3   OH215806   1.011   5.966   2.618  0.1807  0.6928  0.4829
 5281TIP3    H115807   0.982   5.883   2.580 -0.9122  1.3053 -0.0819
 5281TIP3    H215808   1.057   6.010   2.547  0.2627  0.8140  0.6107
 5282TIP3   OH215809   4.523   2.809   2.959 -0.2005 -0.2398 -0.5079
 5282TIP3    H115810   4.502   2.716   2.947  1.9057 -0.8137 -0.0286
 5282TIP3    H215811   4.578   2.811   3.037  2.4916  0.9735 -2.3263
 5283TIP3   OH215812   4.125   2.559   5.572  0.2218 -0.4885  0.3215
 5283TIP3    H115813   4.198   2.571   5.632 -1.1658 -0.8761  2.1711
 5283TIP3    H215814   4.058   2.619   5.603  0.0191  0.5042 -1.8759
 5284TIP3   OH215815   5.251   1.819   3.530  0.5250  0.4228  0.0595
 5284TIP3    H115816   5.339   1.856   3.522  0.4609  0.8279  1.0491
 5284TIP3    H215817   5.255   1.763   3.607  0.4753 -1.2909 -1.1150
 5285TIP3   OH215818   6.395   2.301   0.094 -0.4132 -0.0757 -0.6232
 5285TIP3    H115819   6.374   2.359   0.020 -1.0444 -0.2630 -0.5951
 5285TIP3    H215820   6.312   2.258   0.115 -0.3257  0.2310  0.4170
 5286TIP3   OH215821   2.674   4.181   3.136  0.0395  0.3354  0.4468
 5286TIP3    H115822   2.599   4.163   3.079  0.6832 -0.4791 -0.1560
 5286TIP3    H215823   2.663   4.119   3.208  0.9758 -0.9217 -0.4466
 5287TIP3   OH215824   5.184   5.310   4.841 -0.1768 -0.6467 -0.1494
 5287TIP3    H115825   5.203   5.217   4.827  0.0465 -0.5776 -0.3060
 5287TIP3    H215826   5.265   5.346   4.877  0.0724 -0.3019 -1.0446
 5288TIP3   OH215827   4.064   0.907   5.818 -0.2740  0.2772 -0.0577
 5288TIP3    H115828   4.066   0.960   5.738 -1.9727  0.8142  0.2131
 5288TIP3    H215829   4.104   0.824   5.792 -1.2726  0.2406 -1.6458
 5289TIP3   OH215830   7.185   0.745   5.752  0.0697  0.3045 -0.2757
 5289TIP3    H115831   7.134   0.826   5.742  0.6954  0.6982 -0.3850
 5289TIP3    H215832   7.236   0.759   5.832 -0.2013 -0.1982 -0.0166
 5290TIP3   OH215833   6.511   2.459   5.005  0.1650 -0.0285  0.2348
 5290TIP3    H115834   6.415   2.459   5.002  0.1502 -1.1462  0.3050
 5290TIP3    H215835   6.537   2.479   4.915 -0.1256  0.0601  0.1672
 5291TIP3   OH215836   6.406   2.892   5.672  0.2280 -0.5500 -0.0037
 5291TIP3    H115837   6.460   2.815   5.652  0.6579  0.3024 -2.4813
 5291TIP3    H215838   6.468   2.964   5.680 -0.2874 -0.1719  0.7372
 5292TIP3   OH215839   1.362   5.152   2.008 -0.0944  0.0193  0.3234
 5292TIP3    H115840   1.334   5.224   1.951  0.7823 -0.4198 -0.6872
 5292TIP3    H215841   1.451   5.132   1.980 -0.2156 -1.2651  0.7816
 5293TIP3   OH215842   7.111   5.312   2.613  0.6361  0.6680  0.0387
 5293TIP3    H115843   7.146   5.248   2.551 -2.1724 -0.1907 -0.8409
 5293TIP3    H215844   7.049   5.363   2.561  0.6412  2.1707  1.4311
 5294TIP3   OH215845   1.056   6.510   5.088  0.4789  0.6763 -0.0559
 5294TIP3    H115846   1.101   6.560   5.157  0.3550  0.5002  0.1525
 5294TIP3    H215847   1.107   6.528   5.009  0.1807  1.4850 -0.0682
 5295TIP3   OH215848   0.200   4.362   4.692 -0.7441 -0.5274  0.6516
 5295TIP3    H115849   0.123   4.417   4.704  0.7215  1.2051  3.1588
 5295TIP3    H215850   0.241   4.394   4.612 -0.6713  1.0997  1.3178
 5296TIP3   OH215851   3.437   1.024   2.792 -0.6665  0.3837 -0.0362
 5296TIP3    H115852   3.466   1.114   2.808 -0.8463  0.6830 -1.2933
 5296TIP3    H215853   3.394   0.998   2.874 -1.7170  1.8765 -0.0668
 5297TIP3   OH215854   2.600   0.859   0.474 -0.3142 -0.1640 -0.3506
 5297TIP3    H115855   2.657   0.786   0.453  0.1662 -0.0962  0.6481
 5297TIP3    H215856   2.528   0.852   0.411 -0.0631 -1.2333 -0.5428
 5298TIP3   OH215857   0.987   1.009   3.033 -0.6398 -0.4419  0.4320
 5298TIP3    H115858   1.032   1.067   2.972 -2.3176 -1.4949 -1.9964
 5298TIP3    H215859   0.930   1.067   3.084  0.7689  0.4519  1.0480
 5299TIP3   OH215860   2.996   4.353   2.952  0.0980  0.1111  0.8147
 5299TIP3    H115861   2.907   4.387   2.956  0.9470  2.8816 -0.8708
 5299TIP3    H215862   3.045   4.408   3.013  1.0208  0.0326  0.1646
 5300TIP3   OH215863   2.626   2.215   1.378 -0.0348 -0.1670 -0.4444
 5300TIP3    H115864   2.544   2.198   1.331 -1.5754 -1.3010  2.4267
 5300TIP3    H215865   2.634   2.310   1.379 -1.2911 -0.0416 -0.8307
 5301TIP3   OH215866   5.172   1.149   0.162  0.1237  0.3546  0.5749
 5301TIP3    H115867   5.222   1.111   0.234 -0.6128  0.3660  1.1105
 5301TIP3    H215868   5.153   1.075   0.104  0.4293  0.2793  0.5740
 5302TIP3   OH215869   6.856   4.186   0.483  0.3533 -0.1275 -0.3028
 5302TIP3    H115870   6.883   4.110   0.534 -2.7812 -1.8939 -1.0367
 5302TIP3    H215871   6.802   4.238   0.542  0.0467 -0.0273 -0.6658
 5303TIP3   OH215872   5.779   0.094   0.669 -0.6728  0.7101  0.4434
 5303TIP3    H115873   5.762   0.167   0.729 -1.0134  0.6916  0.3708
 5303TIP3    H215874   5.867   0.109   0.636 -1.0241  1.4988 -0.1517
 5304TIP3   OH215875   5.838   5.404   0.007  0.0951 -0.1119 -0.2966
 5304TIP3    H115876   5.834   5.404   0.102 -0.6721 -1.0570 -0.3232
 5304TIP3    H215877   5.887   5.325  -0.016 -1.4861 -0.9957 -0.7356
 5305TIP3   OH215878   2.114   3.726   4.515  0.2529 -0.4635 -0.1234
 5305TIP3    H115879   2.081   3.643   4.551 -0.1989 -0.6480 -0.9399
 5305TIP3    H215880   2.201   3.704   4.481 -0.1060 -0.7576 -0.8766
 5306TIP3   OH215881   5.866   4.424   2.607  0.2011 -0.0070  0.1142
 5306TIP3    H115882   5.850   4.330   2.613  3.6322 -0.9029 -2.2419
 5306TIP3    H215883   5.806   4.455   2.539 -0.1446 -0.7167  0.0887
 5307TIP3   OH215884   5.315   1.271   5.219 -0.5439 -0.2181  0.0420
 5307TIP3    H115885   5.252   1.312   5.277  0.2326  1.3376 -0.1469
 5307TIP3    H215886   5.394   1.259   5.273  0.1144  1.0480 -0.5881
 5308TIP3   OH215887   4.193   6.702   1.733  0.5467  0.7364  0.1260
 5308TIP3    H115888   4.273   6.689   1.785  0.4789 -2.5177 -0.3771
 5308TIP3    H215889   4.209   6.652   1.653 -2.1974 -0.5402  0.2818
 5309TIP3   OH215890   0.258   3.270   1.800 -0.2379  0.8251  0.4801
 5309TIP3    H115891   0.275   3.199   1.738  1.1891 -0.0020  1.7777
 5309TIP3    H215892   0.311   3.343   1.769 -2.4216  1.7474 -1.4087
 5310TIP3   OH215893   4.261   2.030   4.096  0.5537 -0.1359 -0.4254
 5310TIP3    H115894   4.294   2.023   4.006  0.2228  1.6213 -0.7264
 5310TIP3    H215895   4.173   1.993   4.092 -0.3761  1.9783 -1.4337
 5311TIP3   OH215896   3.781   3.834   3.357  1.0814 -0.4210  0.2738
 5311TIP3    H115897   3.694   3.804   3.383  0.5803  0.0978 -0.7288
 5311TIP3    H215898   3.837   3.757   3.367  0.2344 -1.1368 -0.3173
 5312TIP3   OH215899   4.352   4.384   5.047  0.2250 -0.5707 -0.1016
 5312TIP3    H115900   4.334   4.477   5.054 -0.4577 -0.7274  0.2788
 5312TIP3    H215901   4.272   4.341   5.078  0.1683 -1.2841 -1.1785
 5313TIP3   OH215902   5.732   5.493   5.220 -0.4109  0.6082 -0.4102
 5313TIP3    H115903   5.713   5.476   5.128  2.9453 -1.3478 -0.9001
 5313TIP3    H215904   5.680   5.428   5.268  0.6812 -0.9601 -1.2687
 5314TIP3   OH215905   3.897   5.526   4.437 -0.0558  1.2751 -0.2705
 5314TIP3    H115906   3.820   5.570   4.401 -0.7407 -1.1640 -2.0454
 5314TIP3    H215907   3.866   5.486   4.519  0.0017  2.2817  0.2530
 5315TIP3   OH215908   4.443   5.785   3.903  0.1623  0.1003 -0.3239
 5315TIP3    H115909   4.382   5.841   3.855 -0.0410  1.7225  1.7122
 5315TIP3    H215910   4.386   5.731   3.959  0.4906  0.9869  0.9159
 5316TIP3   OH215911   3.591   4.090   1.216  1.0930  0.0234 -0.0035
 5316TIP3    H115912   3.617   3.998   1.225  2.8794  0.4944 -0.0093
 5316TIP3    H215913   3.555   4.113   1.302 -0.5712 -0.9978 -0.3814
 5317TIP3   OH215914   2.658   3.923   1.024  0.3876  0.0941 -0.0117
 5317TIP3    H115915   2.745   3.882   1.016 -0.0759 -0.9810  0.2945
 5317TIP3    H215916   2.621   3.884   1.103 -0.2329  0.8349  0.0668
 5318TIP3   OH215917   0.443   0.103   2.260  0.8564 -0.1218  0.0405
 5318TIP3    H115918   0.384   0.053   2.316 -0.2053 -0.7380 -1.5474
 5318TIP3    H215919   0.385   0.152   2.202  1.9120  0.3789 -0.6294
 5319TIP3   OH215920   6.627   4.662   5.482 -0.0695 -0.1416 -0.1389
 5319TIP3    H115921   6.689   4.603   5.524 -0.4160  0.0745  0.6823
 5319TIP3    H215922   6.681   4.727   5.437  0.3006  0.0405  0.5653
 5320TIP3   OH215923   0.234   0.361   1.397 -0.2818  0.2563  0.5782
 5320TIP3    H115924   0.184   0.337   1.319 -0.6521 -2.0422  1.4388
 5320TIP3    H215925   0.319   0.319   1.384 -0.2928 -0.0035  1.3423
 5321TIP3   OH215926   5.097   1.808   5.719  0.1454 -0.1876 -0.4789
 5321TIP3    H115927   5.191   1.826   5.722 -0.1083  1.1816  0.8759
 5321TIP3    H215928   5.083   1.747   5.791  0.2428 -1.9305 -1.8838
 5322TIP3   OH215929   4.434   1.988   1.736  0.2747  0.1989  0.0608
 5322TIP3    H115930   4.478   2.072   1.723  0.0347  0.2366 -0.5799
 5322TIP3    H215931   4.341   2.008   1.721  0.2072 -0.1627 -0.0028
 5323TIP3   OH215932   3.668   0.595   4.606 -0.4118 -0.7941 -0.1480
 5323TIP3    H115933   3.674   0.544   4.687  3.2117  0.0208  0.2485
 5323TIP3    H215934   3.675   0.529   4.536 -0.6433 -1.2533  0.2599
 5324TIP3   OH215935   2.516   1.694   0.311  0.5242  0.2096 -0.0837
 5324TIP3    H115936   2.501   1.603   0.339  2.0440 -0.2777 -0.7803
 5324TIP3    H215937   2.588   1.725   0.365  0.8411  0.5856 -0.7053
 5325TIP3   OH215938   7.147   1.798   2.050 -0.1262 -0.4398 -0.5429
 5325TIP3    H115939   7.094   1.841   1.984 -2.2243 -0.9260  0.7333
 5325TIP3    H215940   7.128   1.847   2.131  0.3082 -1.4735  0.2006
 5326TIP3   OH215941   0.939   2.849   3.118 -0.2909  0.7544  0.1248
 5326TIP3    H115942   0.980   2.839   3.032 -0.2539  2.1892 -0.0517
 5326TIP3    H215943   0.985   2.786   3.173  0.3710  0.5092 -0.6740
 5327TIP3   OH215944   0.810   1.688   3.431  0.2145  0.0780  0.1878
 5327TIP3    H115945   0.804   1.593   3.437  0.0576 -0.0467 -1.3487
 5327TIP3    H215946   0.872   1.704   3.360 -1.0180  1.0774 -0.7264
 5328TIP3   OH215947   4.813   2.141   2.216 -0.4037 -0.4678  0.5099
 5328TIP3    H115948   4.874   2.153   2.144 -0.8119  0.5515  0.3176
 5328TIP3    H215949   4.868   2.126   2.293  0.1363  0.9819  0.4402
 5329TIP3   OH215950   3.452   0.425   4.919 -0.2286  0.2397 -0.0974
 5329TIP3    H115951   3.381   0.388   4.867 -0.4757  1.5592 -0.7470
 5329TIP3    H215952   3.532   0.388   4.881 -0.4530  0.5911 -0.9177
 5330TIP3   OH215953   4.576   3.880   2.088 -0.0025 -0.1336  0.2204
 5330TIP3    H115954   4.634   3.942   2.132 -0.1845 -1.1509  1.9705
 5330TIP3    H215955   4.502   3.869   2.148 -0.7575 -0.8191 -0.7940
 5331TIP3   OH215956   3.833   0.144   0.799  0.4073  0.1496 -0.5644
 5331TIP3    H115957   3.809   0.095   0.877  3.3054 -0.8185 -0.1512
 5331TIP3    H215958   3.891   0.213   0.831  0.9321  0.2816 -1.7515
 5332TIP3   OH215959   1.669   3.430   0.857  0.2665 -0.3009  0.2928
 5332TIP3    H115960   1.638   3.408   0.769  1.6483 -1.7007  0.1252
 5332TIP3    H215961   1.599   3.400   0.915 -0.5976  0.5188 -0.2959
 5333TIP3   OH215962   1.695   5.912   4.201 -0.4848  0.5147 -0.5003
 5333TIP3    H115963   1.625   5.901   4.266  2.0802  0.3071  2.5280
 5333TIP3    H215964   1.776   5.899   4.252  1.8192  1.9897 -3.4755
 5334TIP3   OH215965   1.938   0.911   3.618  0.8647  0.3792 -0.5635
 5334TIP3    H115966   1.937   0.858   3.538 -0.3048  0.8851 -0.8959
 5334TIP3    H215967   1.846   0.932   3.635  1.1524  0.8197  0.5643
 5335TIP3   OH215968   2.747   0.744   2.689  0.1418  0.2589  0.1888
 5335TIP3    H115969   2.741   0.829   2.731  0.5035  0.3010  0.1546
 5335TIP3    H215970   2.816   0.754   2.624 -0.5977  0.2777 -0.6158
 5336TIP3   OH215971   2.271   0.527   1.061 -0.4312 -0.8253 -0.9395
 5336TIP3    H115972   2.225   0.567   1.135 -0.1397 -0.2625 -1.0572
 5336TIP3    H215973   2.227   0.562   0.984  1.8887  1.9699 -1.1629
 5337TIP3   OH215974   1.522   5.401   1.767 -0.1504  0.0158 -0.4514
 5337TIP3    H115975   1.494   5.349   1.842 -0.3240  0.5067 -0.1750
 5337TIP3    H215976   1.443   5.416   1.716 -0.0917 -0.0318 -0.5576
 5338TIP3   OH215977   7.134   4.115   1.206  0.6838 -0.4631  0.1748
 5338TIP3    H115978   7.062   4.058   1.179  0.9350 -1.1119  0.8349
 5338TIP3    H215979   7.093   4.200   1.219 -0.1014 -0.9775  1.1959
 5339TIP3   OH215980   2.725   1.090   0.337  0.2355  0.7183 -0.5996
 5339TIP3    H115981   2.729   0.994   0.336 -0.9733  0.6178  0.5228
 5339TIP3    H215982   2.633   1.110   0.351  0.3646  2.0800 -1.4593
 5340TIP3   OH215983   3.912   3.931   5.406  0.4593 -0.8071  0.2257
 5340TIP3    H115984   3.972   3.926   5.481  0.7604  0.4745  0.1069
 5340TIP3    H215985   3.935   3.856   5.351  1.4146 -0.7843  0.5796
 5341TIP3   OH215986   6.596   6.257   5.645 -0.3403  0.5524  0.0792
 5341TIP3    H115987   6.523   6.196   5.659 -1.0249  1.1870 -0.6129
 5341TIP3    H215988   6.670   6.201   5.622  0.0147 -0.2923  2.8758
 5342TIP3   OH215989   0.402   0.994   3.281  0.1071  0.2034 -0.1320
 5342TIP3    H115990   0.364   0.927   3.338 -0.0166 -0.0502 -0.5046
 5342TIP3    H215991   0.457   1.046   3.338  0.5558 -0.4902  0.0805
 5343TIP3   OH215992   5.927   1.595   1.958  0.9449 -0.4161 -0.6666
 5343TIP3    H115993   5.940   1.650   1.881  2.3710 -0.3432 -0.4010
 5343TIP3    H215994   5.942   1.506   1.926 -1.7051 -0.7634 -1.1774
 5344TIP3   OH215995   6.632   4.853   4.025  0.8532 -0.0453  0.2652
 5344TIP3    H115996   6.584   4.858   4.108  1.5165 -0.6168  0.7034
 5344TIP3    H215997   6.630   4.760   4.002 -1.5004  0.3897 -1.7139
 5345TIP3   OH215998   4.110   0.884   1.892 -0.3901 -0.1344  0.1750
 5345TIP3    H115999   4.030   0.843   1.926 -0.3348  1.1179  1.9377
 5345TIP3    H216000   4.168   0.890   1.968  0.7227  0.5289 -0.6998
 5346TIP3   OH216001   3.791   5.997   5.327 -0.5280 -0.1239  0.1784
 5346TIP3    H116002   3.750   5.936   5.388 -0.8045 -1.9791 -1.7359
 5346TIP3    H216003   3.720   6.020   5.267 -0.1671  1.3292  0.2893
 5347TIP3   OH216004   3.968   0.338   5.514 -0.0748  0.4504 -0.1421
 5347TIP3    H116005   3.879   0.327   5.481 -0.3534  1.1130  0.3564
 5347TIP3    H216006   3.968   0.426   5.553  1.5540  1.6557 -2.5515
 5348TIP3   OH216007   3.176   1.560   0.869 -0.0839 -0.4210  0.2100
 5348TIP3    H116008   3.217   1.522   0.947 -0.4453  3.0424  2.3168
 5348TIP3    H216009   3.249   1.596   0.818 -0.0029 -0.7521  0.0919
 5349TIP3   OH216010   6.245   4.098   5.643  0.2389 -1.2205  0.2669
 5349TIP3    H116011   6.223   4.005   5.639  0.6942 -1.3120 -0.1854
 5349TIP3    H216012   6.294   4.115   5.562 -1.0272 -0.2789 -0.3383
 5350TIP3   OH216013   2.243   4.975   4.897  0.2169  0.3420 -0.8694
 5350TIP3    H116014   2.319   4.927   4.930 -0.1570  1.2266  1.4180
 5350TIP3    H216015   2.181   4.906   4.872  1.1786 -0.3651 -1.4365
 5351TIP3   OH216016   1.664   2.128   1.703 -0.3901  0.7151  0.1855
 5351TIP3    H116017   1.750   2.166   1.725 -0.2011  0.5921 -0.3173
 5351TIP3    H216018   1.637   2.082   1.782  0.3809  0.0826  0.0926
 5352TIP3   OH216019   2.747   2.381   0.151 -0.3121  0.6893 -0.2764
 5352TIP3    H116020   2.725   2.412   0.239 -1.5979 -0.9598  0.0335
 5352TIP3    H216021   2.781   2.293   0.163  1.1654  1.0766 -1.3120
 5353TIP3   OH216022   1.928   3.759   2.583 -0.1010  0.2182 -0.1208
 5353TIP3    H116023   1.882   3.721   2.507  0.8617  1.1503 -1.2151
 5353TIP3    H216024   1.939   3.851   2.560 -1.4852  0.9952  2.0247
 5354TIP3   OH216025   2.801   0.846   4.339 -0.0563 -0.5661 -0.5478
 5354TIP3    H116026   2.827   0.867   4.249  1.2841 -1.0552 -0.3031
 5354TIP3    H216027   2.762   0.926   4.373 -0.8882 -0.4775 -1.6709
 5355TIP3   OH216028   6.290   2.631   2.474  0.1231  0.1336 -0.3632
 5355TIP3    H116029   6.331   2.682   2.544  0.4731 -1.6011  0.7571
 5355TIP3    H216030   6.361   2.615   2.412  0.6688 -1.0554  0.5230
 5356TIP3   OH216031   5.488   1.779   3.957 -0.3025 -0.2172 -0.0068
 5356TIP3    H116032   5.432   1.780   3.879 -1.4619 -1.4913  0.7597
 5356TIP3    H216033   5.480   1.867   3.994 -0.7668  0.0061 -0.6288
 5357TIP3   OH216034   5.377   4.905   5.542  0.4630 -0.0915 -0.2009
 5357TIP3    H116035   5.343   4.938   5.459  0.8890  0.8344 -0.0195
 5357TIP3    H216036   5.384   4.982   5.598  2.1762 -0.3540 -0.0027
 5358TIP3   OH216037   3.490   5.237   4.202  0.5798  0.0870  0.4112
 5358TIP3    H116038   3.397   5.239   4.180  0.8810  0.2711 -0.9479
 5358TIP3    H216039   3.492   5.240   4.298 -0.9144 -3.5299  0.7452
 5359TIP3   OH216040   3.588   3.343   2.599  0.3091  0.1116  0.0774
 5359TIP3    H116041   3.503   3.382   2.581  0.8011  1.0497 -0.2830
 5359TIP3    H216042   3.584   3.319   2.692 -0.2435  0.3862  0.1297
 5360TIP3   OH216043   3.538   0.114   5.253  0.5518  0.0688  0.7065
 5360TIP3    H116044   3.586   0.196   5.247  0.5784 -0.0348 -1.7662
 5360TIP3    H216045   3.447   0.138   5.232  0.8065 -0.6502 -1.4975
 5361TIP3   OH216046   0.232   6.355   4.606  0.7572  0.1960  0.5516
 5361TIP3    H116047   0.326   6.354   4.589  0.7133 -0.6525  0.3102
 5361TIP3    H216048   0.199   6.428   4.553  1.3350  0.7751  0.9827
 5362TIP3   OH216049   0.726   4.010   3.026 -0.8887  0.1051 -0.1464
 5362TIP3    H116050   0.778   4.044   3.098  0.8460 -0.0827 -1.2314
 5362TIP3    H216051   0.731   4.078   2.958 -4.1293  1.1943  0.5112
 5363TIP3   OH216052   7.057   2.878   4.199 -0.4354 -0.2143  0.4684
 5363TIP3    H116053   7.150   2.877   4.175 -0.3753  1.7053  0.4318
 5363TIP3    H216054   7.012   2.902   4.118 -0.9041 -0.6116  0.6131
 5364TIP3   OH216055   0.769   1.700   1.040  0.5006  0.2846 -0.1516
 5364TIP3    H116056   0.723   1.781   1.018  1.4565  1.2980  1.4136
 5364TIP3    H216057   0.704   1.631   1.029 -0.8478  1.4647  0.2417
 5365TIP3   OH216058   5.528   5.825   4.815 -0.5216 -0.1285  0.3026
 5365TIP3    H116059   5.597   5.801   4.878 -2.6103 -1.7097  2.1898
 5365TIP3    H216060   5.457   5.859   4.870 -2.4855 -1.6759 -1.1077
 5366TIP3   OH216061   2.980   2.464   4.367 -0.2241  0.3322 -0.1557
 5366TIP3    H116062   3.069   2.438   4.390  0.2398  1.5364 -0.5422
 5366TIP3    H216063   2.975   2.556   4.390 -1.3185  0.3246 -0.3194
 5367TIP3   OH216064   1.716   0.840   0.429 -0.1976  0.1952 -0.3127
 5367TIP3    H116065   1.741   0.925   0.394 -1.4495  1.3293  1.3834
 5367TIP3    H216066   1.787   0.781   0.404 -0.4014  1.1513 -3.5504
 5368TIP3   OH216067   3.764   0.655   4.084  0.8524  0.0993  0.4230
 5368TIP3    H116068   3.764   0.638   4.178 -1.2023  1.7613  0.8064
 5368TIP3    H216069   3.688   0.606   4.051 -0.1956  1.7848  0.1871
 5369TIP3   OH216070   1.315   3.556   3.239 -0.9715 -0.3004 -0.5382
 5369TIP3    H116071   1.364   3.491   3.288 -1.2057 -1.4392 -1.7711
 5369TIP3    H216072   1.240   3.509   3.204 -1.0907  0.5990 -1.5567
 5370TIP3   OH216073   0.957   5.824   5.805 -0.1336  0.3458  0.0331
 5370TIP3    H116074   0.873   5.783   5.788  0.6650 -0.6645 -1.7467
 5370TIP3    H216075   0.935   5.911   5.840 -1.8647 -0.4354  1.0143
 5371TIP3   OH216076   3.716   0.997   2.982 -0.2720 -0.4124 -0.0385
 5371TIP3    H116077   3.743   0.981   2.892 -0.4516 -0.8001 -0.0261
 5371TIP3    H216078   3.777   0.944   3.034  1.3267  1.5573  0.2246
 5372TIP3   OH216079   4.292   5.407   2.646  0.3534  0.6400 -0.2421
 5372TIP3    H116080   4.310   5.489   2.600 -2.2475  0.5505 -1.5835
 5372TIP3    H216081   4.221   5.430   2.707 -1.0619 -0.7449 -1.2900
 5373TIP3   OH216082   0.891   4.216   2.256 -0.1227  0.0485 -0.1716
 5373TIP3    H116083   0.968   4.257   2.297  0.3088 -0.9703  0.0626
 5373TIP3    H216084   0.865   4.148   2.318 -0.5263 -0.3590 -0.7825
 5374TIP3   OH216085   6.837   5.920   4.545  0.0533  0.8537 -0.1753
 5374TIP3    H116086   6.815   5.932   4.638  0.0827  1.9071 -0.2921
 5374TIP3    H216087   6.932   5.928   4.541  0.2817 -1.2261 -0.0291
 5375TIP3   OH216088   4.194   4.956   3.610 -0.1211  0.7052 -0.6061
 5375TIP3    H116089   4.161   4.878   3.655  0.3999 -0.0148 -1.4615
 5375TIP3    H216090   4.127   4.975   3.544 -1.1176  2.0329  0.6966
 5376TIP3   OH216091   5.585   0.554   1.536 -0.3088  0.2074  0.3124
 5376TIP3    H116092   5.680   0.567   1.548 -0.5510  1.2222  1.3345
 5376TIP3    H216093   5.555   0.636   1.497 -0.6864 -0.3488 -0.5880
 5377TIP3   OH216094   6.175   4.638   3.541  0.2232 -0.3701 -0.5190
 5377TIP3    H116095   6.150   4.553   3.503  0.7036 -0.1385 -1.3717
 5377TIP3    H216096   6.171   4.699   3.467 -1.1879  0.5850  0.3083
 5378TIP3   OH216097   2.169   6.075   0.051  0.3606 -0.0035 -0.1235
 5378TIP3    H116098   2.131   6.140   0.110 -0.1876  0.5776 -1.0805
 5378TIP3    H216099   2.188   5.999   0.107 -0.3134  0.4542  0.7509
 5379TIP3   OH216100   3.768   5.468   4.081  0.0421 -0.2495  0.0278
 5379TIP3    H116101   3.787   5.543   4.138 -0.0013 -0.7645  0.7204
 5379TIP3    H216102   3.780   5.391   4.137 -0.8055 -0.7234 -0.4298
 5380TIP3   OH216103   3.261   5.411   4.917 -0.6642 -0.6442  0.6302
 5380TIP3    H116104   3.315   5.430   4.993 -1.2963 -1.5391  1.3199
 5380TIP3    H216105   3.313   5.444   4.843  0.9776 -1.7457  1.2261
 5381TIP3   OH216106   4.275   5.171   5.721  0.3042 -0.4412  0.3052
 5381TIP3    H116107   4.218   5.132   5.787 -2.7660  0.7724 -1.4271
 5381TIP3    H216108   4.221   5.176   5.642  1.7732  3.5318 -0.6774
 5382TIP3   OH216109   2.207   0.339   0.622  0.2243  0.0947 -0.1047
 5382TIP3    H116110   2.144   0.374   0.560 -0.8301  1.8501  1.8567
 5382TIP3    H216111   2.157   0.325   0.702  1.9945  0.0811  1.0494
 5383TIP3   OH216112   6.131   6.539   4.346  0.0778  0.4962 -0.2584
 5383TIP3    H116113   6.152   6.632   4.332  4.6344 -0.6647 -3.5083
 5383TIP3    H216114   6.126   6.530   4.441 -0.9475  4.0386  0.1851
 5384TIP3   OH216115   6.562   4.076   0.781 -0.3685 -0.3658 -0.8820
 5384TIP3    H116116   6.586   4.097   0.871 -3.4716 -0.1999  0.0559
 5384TIP3    H216117   6.558   4.160   0.736  1.3353 -0.4631 -1.2635
 5385TIP3   OH216118   3.867   5.271   2.919 -0.4153  0.1540 -0.2211
 5385TIP3    H116119   3.791   5.213   2.927 -0.7599  0.7310  1.0051
 5385TIP3    H216120   3.921   5.251   2.996  0.0594  0.6084 -0.4300
 5386TIP3   OH216121   6.931   3.975   4.391  0.4304 -0.0934  0.1021
 5386TIP3    H116122   6.928   3.897   4.447 -1.1380 -0.0524  0.1197
 5386TIP3    H216123   6.956   4.046   4.450  3.2970 -0.7360 -0.1786
 5387TIP3   OH216124   1.529   2.621   0.632  0.2267  0.8043  0.1490
 5387TIP3    H116125   1.452   2.572   0.603  0.4066  0.4686  0.2339
 5387TIP3    H216126   1.564   2.570   0.704 -0.4796  1.8650  1.2837
 5388TIP3   OH216127   7.194   0.308   5.508 -0.5379  0.4273 -0.2807
 5388TIP3    H116128   7.251   0.330   5.582  0.3653  0.8316 -1.0658
 5388TIP3    H216129   7.125   0.374   5.511 -0.2174  0.7628 -0.1043
 5389TIP3   OH216130   1.493   5.525   3.224  0.7058 -0.1306 -0.6798
 5389TIP3    H116131   1.439   5.603   3.238  0.8507 -0.4323  2.1195
 5389TIP3    H216132   1.578   5.559   3.196 -0.1833  0.4559 -2.9081
 5390TIP3   OH216133   0.454   1.567   3.942  0.4079  0.1339  0.2173
 5390TIP3    H116134   0.504   1.486   3.939  1.7419  0.9209  0.2353
 5390TIP3    H216135   0.462   1.597   4.032 -0.3090  0.1448  0.2793
 5391TIP3   OH216136   0.751   6.813   2.867 -0.7979  0.4042 -0.5068
 5391TIP3    H116137   0.740   6.744   2.801  1.9451 -1.2459  0.5831
 5391TIP3    H216138   0.719   6.774   2.948  0.3245  0.5464  0.0279
 5392TIP3   OH216139   5.778   0.168   0.322  0.1058  0.0327 -0.1519
 5392TIP3    H116140   5.766   0.179   0.227  0.1302 -1.3067 -0.3400
 5392TIP3    H216141   5.852   0.225   0.344 -0.2560  0.7865 -0.8287
 5393TIP3   OH216142   3.782   6.638   3.711 -0.2646  0.0461 -0.3343
 5393TIP3    H116143   3.830   6.576   3.766 -0.8262 -0.8444 -0.8195
 5393TIP3    H216144   3.842   6.657   3.639 -0.5254 -0.8666 -0.8072
 5394TIP3   OH216145   2.222   1.891   5.528  0.2025  0.3838  0.0107
 5394TIP3    H116146   2.256   1.958   5.468  1.6436 -1.2169 -1.0214
 5394TIP3    H216147   2.136   1.925   5.554  0.4844  2.1884 -1.1950
 5395TIP3   OH216148   1.405   5.609   3.601 -0.2863  0.7197  0.3026
 5395TIP3    H116149   1.401   5.607   3.506  0.2340  0.5386  0.2794
 5395TIP3    H216150   1.483   5.557   3.623 -1.9710 -1.7363  0.9541
 5396TIP3   OH216151   4.896   4.747   1.229 -0.0912 -0.0524 -0.3477
 5396TIP3    H116152   4.847   4.817   1.185 -0.9610 -0.2786  0.2200
 5396TIP3    H216153   4.964   4.722   1.167  0.3899  1.4617 -0.4600
 5397TIP3   OH216154   0.393   1.186   2.636 -0.0176 -0.2634 -0.2401
 5397TIP3    H116155   0.472   1.239   2.640 -0.9929  1.4603 -2.0986
 5397TIP3    H216156   0.334   1.227   2.699 -0.7959  0.9827 -1.7249
 5398TIP3   OH216157   0.881   1.676   2.734  0.4473 -0.0997 -0.1390
 5398TIP3    H116158   0.896   1.593   2.780  2.1471  0.9511  1.3379
 5398TIP3    H216159   0.890   1.654   2.641  1.4676 -1.4687  0.2578
 5399TIP3   OH216160   5.542   2.098   5.186 -0.6512 -0.9640 -0.2400
 5399TIP3    H116161   5.453   2.114   5.152 -0.0795 -0.3136 -1.4827
 5399TIP3    H216162   5.579   2.185   5.198 -0.7114 -1.1775  1.8377
 5400TIP3   OH216163   4.499   2.568   3.919 -0.3360 -0.4066 -0.5478
 5400TIP3    H116164   4.572   2.628   3.904 -1.5629  1.3443  0.1020
 5400TIP3    H216165   4.518   2.493   3.863  1.8114  0.1031 -0.5886
 5401TIP3   OH216166   2.924   0.970   5.885  0.0287  0.0127  0.8665
 5401TIP3    H116167   3.013   0.978   5.851  0.1741 -0.2830  1.1738
 5401TIP3    H216168   2.876   1.043   5.845  0.4169  0.1916  0.7268
 5402TIP3   OH216169   6.963   2.540   1.242  0.5054  0.1347 -0.1376
 5402TIP3    H116170   6.898   2.510   1.306 -1.6375  2.9472 -0.7850
 5402TIP3    H216171   7.042   2.556   1.294 -1.2947  2.7900  2.1004
 5403TIP3   OH216172   5.259   5.508   2.960  0.4041  0.0314 -0.2823
 5403TIP3    H116173   5.175   5.506   2.913 -0.4036  1.0144  1.0492
 5403TIP3    H216174   5.295   5.421   2.948 -0.6482 -0.3022 -1.1895
 5404TIP3   OH216175   5.551   4.627   3.054  0.3846 -0.0392 -0.1858
 5404TIP3    H116176   5.620   4.566   3.080  0.2093 -0.6992 -1.1983
 5404TIP3    H216177   5.517   4.591   2.972 -0.1704  1.0791 -0.4682
 5405TIP3   OH216178   5.230   6.560   2.483 -0.4889 -0.0914 -0.5786
 5405TIP3    H116179   5.308   6.567   2.537  0.0986 -1.8307 -1.1499
 5405TIP3    H216180   5.187   6.645   2.493  1.3037  0.8056 -0.0174
 5406TIP3   OH216181   0.091   2.494   2.680 -0.1939  0.0182  0.3690
 5406TIP3    H116182   0.068   2.573   2.730  0.2962  1.0016 -0.8955
 5406TIP3    H216183   0.158   2.524   2.618  1.2899 -1.7716  0.9868
 5407TIP3   OH216184   4.174   2.825   2.115 -0.5432  0.3645 -0.0863
 5407TIP3    H116185   4.259   2.868   2.114 -0.7071  0.7042  0.0385
 5407TIP3    H216186   4.146   2.824   2.023 -0.3103  0.0591 -0.1531
 5408TIP3   OH216187   2.014   3.669   3.067 -0.2447 -0.0629 -0.1283
 5408TIP3    H116188   1.993   3.686   2.975  1.0225  1.8512 -0.1148
 5408TIP3    H216189   1.931   3.641   3.105 -0.6801 -1.4392 -1.9453
 5409TIP3   OH216190   5.093   5.268   2.281 -0.0596  0.2700 -0.7312
 5409TIP3    H116191   5.017   5.227   2.239  1.0117 -1.3157 -1.1978
 5409TIP3    H216192   5.095   5.357   2.244 -2.2118  0.6969  0.0102
 5410TIP3   OH216193   2.474   3.877   0.399  0.2770 -0.1388 -0.0407
 5410TIP3    H116194   2.486   3.801   0.456 -0.0095  1.0583  1.6923
 5410TIP3    H216195   2.524   3.856   0.321  0.1057 -2.1532  0.3411
 5411TIP3   OH216196   1.111   1.485   3.413 -0.5882  0.5837  0.3110
 5411TIP3    H116197   1.159   1.402   3.416 -1.5981 -0.0509 -0.4499
 5411TIP3    H216198   1.126   1.524   3.499 -0.4844 -0.6137  0.8646
 5412TIP3   OH216199   4.527   4.101   4.374  0.5359  0.3901  0.3070
 5412TIP3    H116200   4.537   4.099   4.279  0.1870 -0.3450  0.2781
 5412TIP3    H216201   4.472   4.178   4.391 -2.0536 -1.1965 -0.3718
 5413TIP3   OH216202   5.320   2.725   3.799  0.7105 -0.2206 -0.1682
 5413TIP3    H116203   5.415   2.732   3.808  0.6222  1.5984 -0.3533
 5413TIP3    H216204   5.288   2.720   3.890  0.8780  1.1614 -0.0175
 5414TIP3   OH216205   6.095   5.474   2.026  0.1395 -0.2949  0.4859
 5414TIP3    H116206   6.006   5.507   2.041  0.2790  1.1967 -1.5428
 5414TIP3    H216207   6.152   5.539   2.068  0.3222 -0.2274  0.1339
 5415TIP3   OH216208   5.682   1.111   0.408 -0.4511  0.2446 -0.2160
 5415TIP3    H116209   5.611   1.114   0.472 -0.7694  2.1472 -0.6007
 5415TIP3    H216210   5.738   1.185   0.431  0.8227 -0.5927 -0.5748
 5416TIP3   OH216211   4.679   6.222   2.243 -0.4903 -0.9292 -0.8820
 5416TIP3    H116212   4.626   6.210   2.164 -1.6710 -0.2998 -0.2029
 5416TIP3    H216213   4.620   6.264   2.305  1.4607  2.1467 -0.9027
 5417TIP3   OH216214   1.813   3.915   4.939 -0.3497  0.1600 -0.5546
 5417TIP3    H116215   1.838   3.951   5.024 -0.9289  0.8052 -0.6474
 5417TIP3    H216216   1.842   3.824   4.942  0.4896  0.4352 -0.0364
 5418TIP3   OH216217   3.797   5.084   4.444  0.1111 -0.0790  0.2121
 5418TIP3    H116218   3.762   5.002   4.410  1.8776  0.2987 -2.8832
 5418TIP3    H216219   3.759   5.092   4.532 -1.9910 -2.9719 -0.2955
 5419TIP3   OH216220   3.976   0.780   2.245  0.2523  0.3342 -0.3789
 5419TIP3    H116221   4.035   0.713   2.207 -1.4146 -2.1832  1.1645
 5419TIP3    H216222   4.002   0.785   2.337 -0.8753  0.3942 -0.0540
 5420TIP3   OH216223   5.300   6.224   1.451  0.7625  0.1284 -0.3026
 5420TIP3    H116224   5.382   6.271   1.440  1.6841 -0.2772  3.4425
 5420TIP3    H216225   5.315   6.139   1.409  1.6254  0.6644 -1.0961
 5421TIP3   OH216226   1.852   2.587   0.178 -0.4989  0.3224  0.0579
 5421TIP3    H116227   1.814   2.593   0.265 -1.3443 -1.1437 -0.1743
 5421TIP3    H216228   1.890   2.499   0.175  1.6695  1.1922 -0.2396
 5422TIP3   OH216229   4.676   0.603   4.098  0.2889 -0.1811 -0.5529
 5422TIP3    H116230   4.606   0.651   4.144  1.7173 -0.8282  2.5981
 5422TIP3    H216231   4.691   0.653   4.018 -0.7221  2.5841  0.8433
 5423TIP3   OH216232   0.185   4.388   3.442 -0.4031  0.3522 -0.4742
 5423TIP3    H116233   0.183   4.293   3.429 -0.4765  0.4399 -1.1864
 5423TIP3    H216234   0.153   4.424   3.359 -1.5421  0.9863  0.2151
 5424TIP3   OH216235   0.675   5.465   5.447  0.0483 -0.0586  0.1460
 5424TIP3    H116236   0.700   5.388   5.396  1.9719 -0.1763  1.1812
 5424TIP3    H216237   0.677   5.436   5.538  0.5478  1.1360  0.5339
 5425TIP3   OH216238   1.934   3.914   2.838  0.1939 -0.8554 -0.2549
 5425TIP3    H116239   2.017   3.954   2.813 -0.6386 -0.5926 -2.8991
 5425TIP3    H216240   1.886   3.985   2.883  0.2528 -0.0422 -1.4262
 5426TIP3   OH216241   4.526   2.324   3.790  0.1480 -0.0270 -0.2073
 5426TIP3    H116242   4.548   2.277   3.710 -1.0321 -0.6522 -0.1783
 5426TIP3    H216243   4.539   2.260   3.860  2.8798  0.9889  0.3638
 5427TIP3   OH216244   5.951   2.570   5.840  0.1353  0.0779 -0.0967
 5427TIP3    H116245   5.923   2.574   5.931  0.5859  1.3641  0.0096
 5427TIP3    H216246   5.872   2.586   5.789  0.1292  0.7689  0.1188
 5428TIP3   OH216247   3.884   2.476   4.808  0.1226  0.1015  0.2129
 5428TIP3    H116248   3.940   2.480   4.886  0.1423  1.6618  0.1419
 5428TIP3    H216249   3.944   2.489   4.735  0.1305 -1.5515 -0.1145
 5429TIP3   OH216250   3.581   2.048   2.833  0.2004  0.6844 -0.2586
 5429TIP3    H116251   3.584   2.022   2.925 -1.4096 -0.0549 -0.3821
 5429TIP3    H216252   3.672   2.041   2.803  0.2543 -2.6053  0.3495
 5430TIP3   OH216253   0.616   6.583   1.686  0.0825  0.2026  0.1058
 5430TIP3    H116254   0.698   6.610   1.728  0.6941  1.1907 -1.6110
 5430TIP3    H216255   0.548   6.630   1.734  0.4159 -1.1069  1.9571
 5431TIP3   OH216256   7.118   4.749   2.710 -0.3462 -0.3493 -0.7086
 5431TIP3    H116257   7.044   4.692   2.729 -0.2392 -0.3873 -0.3961
 5431TIP3    H216258   7.148   4.779   2.796 -1.7545  1.9374 -0.9344
 5432TIP3   OH216259   0.802   0.337   5.897 -0.5868 -0.2465  0.0847
 5432TIP3    H116260   0.743   0.410   5.919  0.3399  1.0869 -1.6041
 5432TIP3    H216261   0.800   0.333   5.802 -0.1774 -2.1188  0.1177
 5433TIP3   OH216262   1.226   4.250   1.492  1.2138 -0.2420  0.0755
 5433TIP3    H116263   1.198   4.319   1.431  0.8395 -0.0437  0.4652
 5433TIP3    H216264   1.228   4.293   1.578  0.8792 -0.7400  0.3378
 5434TIP3   OH216265   4.972   2.083   0.132  0.1282  0.3499 -0.4839
 5434TIP3    H116266   5.015   2.038   0.204 -3.2834 -0.3949  1.3134
 5434TIP3    H216267   5.034   2.077   0.059  2.4539 -1.6128  1.4736
 5435TIP3   OH216268   4.685   6.456   4.597 -0.4215  0.2922 -0.0213
 5435TIP3    H116269   4.753   6.405   4.553  0.0991  1.1484 -0.2205
 5435TIP3    H216270   4.719   6.545   4.601 -1.7112  0.8430 -0.5421
 5436TIP3   OH216271   2.760   4.905   0.452 -0.1408 -0.4889 -0.2868
 5436TIP3    H116272   2.807   4.907   0.369 -1.3420  0.5593 -0.9682
 5436TIP3    H216273   2.701   4.830   0.445 -0.2472 -0.3963 -0.3951
 5437TIP3   OH216274   6.263   3.703   4.140  0.2645 -0.4764  0.5307
 5437TIP3    H116275   6.298   3.623   4.100  2.2079  0.7151 -0.2759
 5437TIP3    H216276   6.261   3.767   4.068  0.8801  0.8225  1.6285
 5438TIP3   OH216277   2.981   5.752   3.107  0.3600 -0.4294 -0.1099
 5438TIP3    H116278   2.943   5.664   3.110  1.2912 -0.8152  1.8066
 5438TIP3    H216279   2.939   5.799   3.179 -0.5419  0.9238 -1.4532
 5439TIP3   OH216280   1.694   1.128   2.027  0.0445  0.7928  0.8069
 5439TIP3    H116281   1.605   1.138   2.059 -0.7181  0.0390 -0.9618
 5439TIP3    H216282   1.698   1.181   1.947  0.4772 -0.8542 -0.3304
 5440TIP3   OH216283   5.067   2.570   2.961  0.8384 -0.0904 -0.0456
 5440TIP3    H116284   5.011   2.495   2.940 -0.1597  0.9404 -1.2514
 5440TIP3    H216285   5.096   2.553   3.051  0.0989 -1.5824 -0.0499
 5441TIP3   OH216286   3.061   2.988   1.041  0.3303  0.0652  0.2699
 5441TIP3    H116287   3.085   3.008   0.950 -1.3521  0.9120 -0.0264
 5441TIP3    H216288   3.017   2.903   1.036 -0.5737  0.5282  0.1285
 5442TIP3   OH216289   0.400   5.407   5.539 -0.2237 -0.3317 -0.3139
 5442TIP3    H116290   0.350   5.474   5.492 -1.9999 -1.1738  0.2673
 5442TIP3    H216291   0.463   5.374   5.475 -1.4993 -0.3308 -1.6436
 5443TIP3   OH216292   5.837   5.796   1.900  0.5253 -0.0756 -0.0735
 5443TIP3    H116293   5.813   5.877   1.945  1.6512 -0.3111  1.0082
 5443TIP3    H216294   5.858   5.824   1.811  0.1878  0.7014  0.0778
 5444TIP3   OH216295   2.091   0.512   3.718  0.1496 -0.1912 -0.1896
 5444TIP3    H116296   2.091   0.572   3.643 -1.6348 -1.2529 -1.0915
 5444TIP3    H216297   2.171   0.534   3.766  0.1395  2.1174 -1.1045
 5445TIP3   OH216298   4.811   4.458   3.442 -0.0421  0.4498  0.2905
 5445TIP3    H116299   4.740   4.521   3.457  0.2814  0.8850  0.0108
 5445TIP3    H216300   4.874   4.477   3.512  1.4236  2.4159 -1.4356
 5446TIP3   OH216301   4.850   6.660   1.491  0.1983  0.0049 -0.4240
 5446TIP3    H116302   4.858   6.693   1.580 -0.8257 -0.8015 -0.0085
 5446TIP3    H216303   4.810   6.573   1.501 -0.8953  0.3189 -1.7219
 5447TIP3   OH216304   4.427   5.419   5.538 -0.8686 -0.2446 -0.2546
 5447TIP3    H116305   4.432   5.345   5.478 -0.8444 -1.3265  1.0349
 5447TIP3    H216306   4.460   5.385   5.621  2.0983  2.0392 -0.3303
 5448TIP3   OH216307   4.628   5.104   1.503 -0.1940 -0.6043 -0.7372
 5448TIP3    H116308   4.707   5.158   1.503  0.1639 -1.1019 -1.9312
 5448TIP3    H216309   4.602   5.099   1.411 -0.5521 -1.9749 -0.5777
 5449TIP3   OH216310   0.304   3.181   3.603 -0.0565  0.3259  0.0891
 5449TIP3    H116311   0.270   3.218   3.685 -1.6840  1.5850 -1.1093
 5449TIP3    H216312   0.266   3.093   3.600  0.6577 -0.0443  1.0290
 5450TIP3   OH216313   5.843   0.893   4.452  0.7156 -0.7384  0.3428
 5450TIP3    H116314   5.877   0.978   4.479  2.8914 -1.8673  1.5066
 5450TIP3    H216315   5.800   0.909   4.369  0.4400  1.6003  0.8778
 5451TIP3   OH216316   4.617   0.863   4.377  0.1508  0.2206 -0.1140
 5451TIP3    H116317   4.564   0.941   4.362  0.7105  0.7196  0.4623
 5451TIP3    H216318   4.555   0.790   4.365 -0.6373  0.7840  0.3960
 5452TIP3   OH216319   6.627   2.120   0.629 -0.1606 -0.0132  0.5107
 5452TIP3    H116320   6.599   2.178   0.558 -0.5475  0.6209  1.1682
 5452TIP3    H216321   6.660   2.180   0.697 -0.4392 -0.5679  1.1480
 5453TIP3   OH216322   6.491   4.912   1.956  0.3725  0.2819 -0.3413
 5453TIP3    H116323   6.404   4.917   1.994 -0.6359 -0.7218 -2.3520
 5453TIP3    H216324   6.534   4.840   2.003 -0.4297 -0.1926 -0.3154
 5454TIP3   OH216325   3.153   2.741   1.344  0.8337  0.5450 -0.1133
 5454TIP3    H116326   3.215   2.719   1.413 -0.3844  0.7684  1.0922
 5454TIP3    H216327   3.194   2.815   1.298  1.8297  0.1506  0.1212
 5455TIP3   OH216328   2.791   5.408   3.605 -0.5044 -0.3968 -0.2782
 5455TIP3    H116329   2.762   5.346   3.538  0.3430 -1.4079  0.2616
 5455TIP3    H216330   2.741   5.487   3.587 -0.5129 -0.7399 -1.9182
 5456TIP3   OH216331   4.852   6.767   1.755 -0.4124  0.0062  0.1415
 5456TIP3    H116332   4.792   6.720   1.813 -0.7281 -0.2676 -0.3918
 5456TIP3    H216333   4.806   6.848   1.733 -0.7947 -0.4087 -0.6277
 5457TIP3   OH216334   2.223   5.404   1.828  0.8139  0.5893 -0.4803
 5457TIP3    H116335   2.293   5.385   1.890  0.3314  2.9414  0.9472
 5457TIP3    H216336   2.142   5.389   1.878  0.2546 -1.2173 -1.8190
 5458TIP3   OH216337   0.215   1.313   4.077  0.1714 -0.5627  0.2500
 5458TIP3    H116338   0.193   1.380   4.141 -1.9373 -0.1690 -0.7992
 5458TIP3    H216339   0.161   1.238   4.101  0.4622 -0.9258 -0.2047
 5459TIP3   OH216340   2.904   2.889   1.335  0.1186  0.2386 -0.4368
 5459TIP3    H116341   2.942   2.977   1.330  1.5073 -0.3771 -2.0471
 5459TIP3    H216342   2.980   2.830   1.331 -0.8797 -1.0441 -2.8999
 5460TIP3   OH216343   1.475   0.409   2.853  0.6821  0.0342 -0.0100
 5460TIP3    H116344   1.483   0.381   2.944 -0.0277 -0.3898 -0.0699
 5460TIP3    H216345   1.500   0.332   2.802 -0.3177 -0.2003 -0.1710
 5461TIP3   OH216346   4.107   6.548   0.607 -0.2130  0.0388  0.0787
 5461TIP3    H116347   4.022   6.548   0.651 -0.7066 -0.7966 -0.8381
 5461TIP3    H216348   4.086   6.534   0.514  0.9615 -0.9371 -0.0579
 5462TIP3   OH216349   1.771   1.225   4.738  0.3467 -0.4252 -0.3364
 5462TIP3    H116350   1.711   1.286   4.781 -0.0659 -1.2429  0.2735
 5462TIP3    H216351   1.806   1.274   4.664  0.9162  0.9456  0.8046
 5463TIP3   OH216352   3.590   5.225   4.963 -0.1483 -0.3549  0.0338
 5463TIP3    H116353   3.622   5.206   5.051 -1.5020  0.6686  0.7707
 5463TIP3    H216354   3.502   5.260   4.976 -0.0653  0.5818 -1.6704
 5464TIP3   OH216355   6.066   4.333   0.888  0.4235 -0.2069 -0.4300
 5464TIP3    H116356   6.131   4.264   0.878  0.3529 -0.0032 -2.9264
 5464TIP3    H216357   6.117   4.413   0.898  0.5437 -0.2546 -0.6602
 5465TIP3   OH216358   1.782   6.304   4.713  0.1808 -0.1004 -0.1791
 5465TIP3    H116359   1.849   6.250   4.672  0.7622  1.9081 -2.0803
 5465TIP3    H216360   1.749   6.251   4.786  4.0995 -1.0206  1.1427
 5466TIP3   OH216361   0.943   2.342   4.524 -0.1167 -0.2314 -0.1900
 5466TIP3    H116362   0.956   2.416   4.464 -0.9920 -0.7895 -1.1026
 5466TIP3    H216363   1.024   2.338   4.574  1.2514 -0.6211 -2.3275
 5467TIP3   OH216364   4.128   0.139   0.285  0.0428  0.1067 -0.3746
 5467TIP3    H116365   4.206   0.084   0.281  0.5246  0.7579 -0.0373
 5467TIP3    H216366   4.068   0.092   0.343 -0.0674 -0.6980 -1.1200
 5468TIP3   OH216367   6.026   0.071   0.548  0.2803 -0.5430 -0.4252
 5468TIP3    H116368   6.048   0.021   0.470 -0.1846  0.0012 -0.9124
 5468TIP3    H216369   6.046   0.012   0.621  0.1890 -1.2594 -0.9721
 5469TIP3   OH216370   2.642   3.166   3.806  0.5690 -0.0328 -0.0154
 5469TIP3    H116371   2.710   3.117   3.852  0.0235 -0.7168  0.0645
 5469TIP3    H216372   2.568   3.107   3.801 -0.1943  0.8703  0.3032
 5470TIP3   OH216373   6.064   3.569   4.571 -0.6036  0.6144  0.3737
 5470TIP3    H116374   6.083   3.530   4.657  0.1412 -1.3251 -0.6110
 5470TIP3    H216375   6.143   3.553   4.520 -1.5837  0.3793 -1.1219
 5471TIP3   OH216376   1.009   4.475   0.208  0.2437  0.3287 -0.0969
 5471TIP3    H116377   1.090   4.431   0.235  1.0555  2.3043  0.9648
 5471TIP3    H216378   1.025   4.503   0.118  0.0807 -0.6471 -0.4482
 5472TIP3   OH216379   6.750   4.221   2.302  0.2762  0.2918 -0.1554
 5472TIP3    H116380   6.753   4.315   2.288  0.5153  0.5673  1.4814
 5472TIP3    H216381   6.831   4.201   2.350 -0.5330 -0.4561  0.9632
 5473TIP3   OH216382   7.038   2.283   4.291 -0.4476  0.0143 -0.1738
 5473TIP3    H116383   7.000   2.202   4.324 -0.8745 -0.0461 -0.8009
 5473TIP3    H216384   7.036   2.343   4.366  0.4344 -0.7359  0.4706
 5474TIP3   OH216385   0.317   5.306   4.091  0.2043  0.1786 -0.0629
 5474TIP3    H116386   0.323   5.288   3.997 -0.0529 -0.1048 -0.0273
 5474TIP3    H216387   0.407   5.309   4.121  0.3361  1.4475 -0.5377
 5475TIP3   OH216388   5.706   0.243   2.341 -0.2829 -0.1719  0.4812
 5475TIP3    H116389   5.723   0.334   2.366 -2.3551  0.6908 -0.9846
 5475TIP3    H216390   5.744   0.234   2.254 -0.8570 -0.4321  0.2525
 5476TIP3   OH216391   3.693   5.629   4.291  0.4395 -1.1150  0.2960
 5476TIP3    H116392   3.607   5.588   4.301 -1.1385  1.4517 -1.4660
 5476TIP3    H216393   3.687   5.710   4.341  0.9289  0.2432 -1.7234
 5477TIP3   OH216394   3.630   0.513   2.575  0.0140  0.6475  0.1485
 5477TIP3    H116395   3.688   0.473   2.510 -1.4727  1.8219 -2.0242
 5477TIP3    H216396   3.568   0.444   2.598 -0.7632  0.7922 -1.3768
 5478TIP3   OH216397   3.275   1.480   0.169 -0.1212 -0.1458 -0.3770
 5478TIP3    H116398   3.367   1.469   0.193  0.3762 -1.2419 -2.5592
 5478TIP3    H216399   3.228   1.422   0.228  0.7920 -0.9996 -0.4559
 5479TIP3   OH216400   0.501   0.380   2.442  0.0293 -0.0500  0.1781
 5479TIP3    H116401   0.412   0.346   2.441 -0.0079 -0.2025  2.7423
 5479TIP3    H216402   0.557   0.304   2.425 -0.2766 -0.1618 -0.3370
 5480TIP3   OH216403   2.169   2.310   1.845 -0.0183 -0.4076 -1.0137
 5480TIP3    H116404   2.260   2.293   1.872  0.0476  0.8629 -0.3470
 5480TIP3    H216405   2.170   2.297   1.750  0.6019 -1.4426 -0.8868
 5481TIP3   OH216406   6.415   4.943   4.958 -0.7182  0.0658 -0.2848
 5481TIP3    H116407   6.507   4.928   4.940 -0.2544  1.2727  0.9562
 5481TIP3    H216408   6.369   4.886   4.896  0.8350 -0.0163 -1.4159
 5482TIP3   OH216409   2.185   2.411   2.683  0.3756  0.1474 -0.0931
 5482TIP3    H116410   2.223   2.451   2.761 -0.4121 -2.0722  1.5556
 5482TIP3    H216411   2.253   2.350   2.652 -0.1539 -0.6677  0.2947
 5483TIP3   OH216412   3.331   0.717   4.030  0.7570  0.0383  0.0360
 5483TIP3    H116413   3.348   0.811   4.019 -1.7497  0.4246 -1.2781
 5483TIP3    H216414   3.413   0.682   4.065  1.8059  2.6841  0.4911
 5484TIP3   OH216415   2.274   2.762   4.465 -0.1762  0.4993  0.7240
 5484TIP3    H116416   2.202   2.741   4.524  0.1894  0.3647  1.1259
 5484TIP3    H216417   2.251   2.719   4.383 -0.1056 -0.3381  1.1307
 5485TIP3   OH216418   5.771   4.498   2.175  0.1561  0.1093 -0.3741
 5485TIP3    H116419   5.691   4.453   2.147  0.2488  0.6269 -1.5486
 5485TIP3    H216420   5.747   4.542   2.256 -1.1934  1.3458 -1.3699
 5486TIP3   OH216421   6.491   1.583   4.268  0.3579  0.3257  0.4389
 5486TIP3    H116422   6.431   1.586   4.193  0.7813  2.2247  0.1441
 5486TIP3    H216423   6.445   1.528   4.332 -2.0188  2.1314  0.4494
 5487TIP3   OH216424   5.651   0.816   2.755  0.3607  0.0341  0.4199
 5487TIP3    H116425   5.655   0.872   2.833 -0.2128 -0.9183  1.1564
 5487TIP3    H216426   5.566   0.837   2.715  1.1262  1.3190 -0.5835
 5488TIP3   OH216427   4.915   3.038   0.945  0.2688 -0.2695 -0.0131
 5488TIP3    H116428   4.925   3.131   0.968 -1.3686  0.2050 -1.0696
 5488TIP3    H216429   4.985   3.023   0.880 -0.0425  0.5017 -0.5511
 5489TIP3   OH216430   7.073   5.062   4.455  0.0174 -0.1019 -0.9170
 5489TIP3    H116431   7.105   5.148   4.483  0.2143  0.1161 -1.7760
 5489TIP3    H216432   6.993   5.081   4.405 -0.0273 -0.4244 -0.9732
 5490TIP3   OH216433   1.769   2.242   4.332 -0.3596 -0.3037  0.1439
 5490TIP3    H116434   1.827   2.237   4.256  0.1646 -0.4031  0.5416
 5490TIP3    H216435   1.787   2.161   4.381  0.8786  0.7136  1.4744
 5491TIP3   OH216436   4.385   6.493   4.208  0.4697 -0.2766  0.1328
 5491TIP3    H116437   4.413   6.584   4.219 -1.1759  0.0830  1.7142
 5491TIP3    H216438   4.318   6.497   4.140  0.6867 -0.3718 -0.0873
 5492TIP3   OH216439   7.147   5.628   4.982 -0.1421  0.2386 -0.2335
 5492TIP3    H116440   7.173   5.613   4.891  0.0895  0.5173 -0.2165
 5492TIP3    H216441   7.051   5.621   4.981 -0.1520  0.3714 -0.5263
 5493TIP3   OH216442   1.888   0.101   5.495 -0.7564 -0.0002 -0.4152
 5493TIP3    H116443   1.838   0.086   5.414 -0.5897 -0.0054 -0.5193
 5493TIP3    H216444   1.874   0.193   5.515 -1.7748 -0.2761  0.2187
 5494TIP3   OH216445   6.703   6.227   3.674  0.2576 -0.5968  0.0529
 5494TIP3    H116446   6.745   6.313   3.679  0.0996 -0.5690  1.4197
 5494TIP3    H216447   6.719   6.188   3.760 -0.3966 -1.5936 -0.2597
 5495TIP3   OH216448   4.596   1.346   1.477 -0.6150  0.6850 -0.3455
 5495TIP3    H116449   4.521   1.291   1.501  1.0570 -1.3090  0.5386
 5495TIP3    H216450   4.604   1.408   1.550 -0.2863 -0.3058  0.4764
 5496TIP3   OH216451   5.336   5.849   1.706  0.1214 -0.0732  0.1938
 5496TIP3    H116452   5.359   5.939   1.682  2.2710 -0.8491 -0.9857
 5496TIP3    H216453   5.354   5.844   1.800  1.7512  0.2970 -0.0620
 5497TIP3   OH216454   6.469   3.785   4.445  0.2236 -0.5318 -0.1691
 5497TIP3    H116455   6.383   3.788   4.487  1.3258 -1.8891  2.4219
 5497TIP3    H216456   6.485   3.874   4.414 -1.1229  0.3145  1.4544
 5498TIP3   OH216457   6.226   4.873   3.755 -0.3863 -0.6778 -0.0342
 5498TIP3    H116458   6.234   4.786   3.716 -0.0999 -0.1041 -1.3119
 5498TIP3    H216459   6.173   4.922   3.693 -0.0246  0.2339  0.3640
 5499TIP3   OH216460   1.732   0.884   3.071 -0.0813  0.3933  0.1544
 5499TIP3    H116461   1.678   0.867   2.994 -0.1203  0.0349  0.2572
 5499TIP3    H216462   1.681   0.946   3.123 -1.1096 -1.0539  0.9708
 5500TIP3   OH216463   6.704   4.528   1.295  0.3437  0.2649 -0.1156
 5500TIP3    H116464   6.723   4.527   1.389  2.3534 -0.8934 -0.4780
 5500TIP3    H216465   6.629   4.469   1.285 -1.1781  1.9177  0.9340
 5501TIP3   OH216466   2.688   4.435   4.641  0.3611 -0.0431 -0.2516
 5501TIP3    H116467   2.782   4.442   4.654  0.4048 -1.0226 -0.0000
 5501TIP3    H216468   2.661   4.359   4.692 -0.7289  0.7879  0.4565
 5502TIP3   OH216469   3.058   6.208   4.490 -0.2438 -0.3133  0.1690
 5502TIP3    H116470   3.143   6.248   4.474 -0.1361  0.0474  1.5304
 5502TIP3    H216471   3.002   6.280   4.519 -1.2544 -0.4050 -1.4154
 5503TIP3   OH216472   0.807   3.543   5.561 -0.6071 -0.2655 -0.1449
 5503TIP3    H116473   0.840   3.525   5.649  1.9472  0.2783 -0.8970
 5503TIP3    H216474   0.858   3.486   5.504 -0.9931  0.6336 -1.4324
 5504TIP3   OH216475   5.273   1.379   4.290 -0.0020  0.9480  0.4415
 5504TIP3    H116476   5.336   1.444   4.260  1.2406 -1.0770 -1.7222
 5504TIP3    H216477   5.188   1.411   4.258  0.4226  2.0276  0.3574
 5505TIP3   OH216478   1.793   5.830   2.644  0.4453 -0.1589 -0.3760
 5505TIP3    H116479   1.768   5.875   2.724 -2.1157  1.1095 -1.7792
 5505TIP3    H216480   1.867   5.881   2.610  0.7619  0.0064  0.5332
 5506TIP3   OH216481   3.865   6.215   1.176  0.0270  0.3766  0.8421
 5506TIP3    H116482   3.782   6.258   1.158 -0.4315 -1.0454 -0.7111
 5506TIP3    H216483   3.887   6.171   1.094  1.9722  0.1407  1.4429
 5507TIP3   OH216484   2.214   2.182   4.665  0.0142 -0.1039  0.0893
 5507TIP3    H116485   2.291   2.159   4.717  1.7667  2.1018 -1.3021
 5507TIP3    H216486   2.224   2.133   4.584 -0.1910 -0.0213  0.0142
 5508TIP3   OH216487   2.597   5.979   4.661  0.2147  0.6023 -0.0851
 5508TIP3    H116488   2.647   6.035   4.602  0.9791 -0.3818 -0.3887
 5508TIP3    H216489   2.661   5.945   4.724  0.2066 -1.5155 -1.1173
 5509TIP3   OH216490   0.778   5.165   2.876 -0.3390  0.5467 -0.3880
 5509TIP3    H116491   0.801   5.125   2.960 -0.1507  0.6439 -0.3935
 5509TIP3    H216492   0.860   5.166   2.827 -0.4769  0.3596 -0.6274
 5510TIP3   OH216493   4.509   1.431   4.384  0.0812 -0.8261 -0.3006
 5510TIP3    H116494   4.492   1.511   4.335 -0.0305 -0.3303  0.5306
 5510TIP3    H216495   4.448   1.367   4.348 -1.0047 -0.0790  0.1376
 5511TIP3   OH216496   6.973   4.363   2.030  0.4480  0.2461  0.0818
 5511TIP3    H116497   6.979   4.455   2.007 -0.2266 -0.2754 -2.4647
 5511TIP3    H216498   7.061   4.328   2.015  0.2431  0.1059 -0.8333
 5512TIP3   OH216499   6.875   1.420   2.275 -0.4297  0.3793  0.3109
 5512TIP3    H116500   6.912   1.494   2.323  1.3953 -0.5908  0.5058
 5512TIP3    H216501   6.814   1.379   2.336  0.5427  0.1953  1.1840
 5513TIP3   OH216502   1.975   0.972   3.899  0.8663 -0.1084 -0.4189
 5513TIP3    H116503   2.038   0.917   3.947 -0.6139 -2.1031 -0.6102
 5513TIP3    H216504   1.951   0.919   3.823 -0.3074  1.0125 -0.8610
 5514TIP3   OH216505   0.531   5.597   1.058  0.2622  0.2713 -0.1582
 5514TIP3    H116506   0.490   5.511   1.060  2.9126 -1.0768  0.5867
 5514TIP3    H216507   0.599   5.590   0.991  0.3397  1.9230 -0.3041
 5515TIP3   OH216508   0.503   2.997   4.476 -0.1594 -0.7062  0.7336
 5515TIP3    H116509   0.431   3.056   4.452 -0.0477 -0.4951  0.9042
 5515TIP3    H216510   0.581   3.051   4.467 -0.0308 -0.9107  0.6312
 5516TIP3   OH216511   6.811   3.487   3.250 -0.5242  0.2620  0.1451
 5516TIP3    H116512   6.884   3.432   3.220 -0.8047  0.3133 -0.6474
 5516TIP3    H216513   6.745   3.480   3.181 -0.9311  0.8846  0.4598
 5517TIP3   OH216514   1.476   6.689   2.270  0.5400 -0.5277 -0.0880
 5517TIP3    H116515   1.450   6.746   2.197 -0.1685  1.4859  1.6419
 5517TIP3    H216516   1.557   6.648   2.240  0.9220  1.1689 -1.5690
 5518TIP3   OH216517   6.401   1.092   3.004 -0.2497 -0.4185  0.2654
 5518TIP3    H116518   6.465   1.136   3.061 -0.1158 -0.3300  0.0465
 5518TIP3    H216519   6.328   1.153   2.998 -0.9694 -1.0720  1.6215
 5519TIP3   OH216520   2.103   0.638   1.246 -0.2451 -0.3497 -0.0871
 5519TIP3    H116521   2.011   0.624   1.270 -0.7273  2.2756 -0.1057
 5519TIP3    H216522   2.102   0.717   1.192  1.8959 -1.0472 -1.2655
 5520TIP3   OH216523   1.280   1.600   3.243  0.3770 -0.5015  0.0718
 5520TIP3    H116524   1.273   1.505   3.252 -0.2651 -0.5558 -0.8314
 5520TIP3    H216525   1.231   1.634   3.318  0.3799 -0.8812  0.2494
 5521TIP3   OH216526   3.052   2.141   4.910 -0.4192  0.0595 -0.0001
 5521TIP3    H116527   3.138   2.112   4.882 -1.0960 -1.3702 -0.7251
 5521TIP3    H216528   3.053   2.236   4.900  0.2034 -0.1471 -2.6017
 5522TIP3   OH216529   0.724   0.295   0.942  0.2334  0.3986  0.1185
 5522TIP3    H116530   0.764   0.229   0.999  2.0478 -0.1816 -1.6865
 5522TIP3    H216531   0.653   0.332   0.994  1.0283 -0.9115  2.2766
 5523TIP3   OH216532   7.033   2.333   1.785  0.4606 -0.0208 -0.2634
 5523TIP3    H116533   7.043   2.354   1.878 -2.5899  0.6462  0.0228
 5523TIP3    H216534   6.954   2.281   1.781 -0.0908  0.8796 -2.5976
 5524TIP3   OH216535   7.141   3.561   4.959 -0.5991 -0.7106 -0.5788
 5524TIP3    H116536   7.188   3.516   4.889 -0.3577 -0.5231 -0.5353
 5524TIP3    H216537   7.170   3.518   5.039  1.6572  1.2223 -0.2630
 5525TIP3   OH216538   4.416   3.393   3.717  0.2902  1.1093  0.3248
 5525TIP3    H116539   4.377   3.424   3.636  0.8503 -0.0477 -0.4108
 5525TIP3    H216540   4.359   3.321   3.745 -0.0672  1.6879  1.1222
 5526TIP3   OH216541   0.781   5.827   4.298  0.4918 -0.6415  0.4716
 5526TIP3    H116542   0.792   5.735   4.273 -0.7652 -0.0361 -2.8898
 5526TIP3    H216543   0.732   5.823   4.380  0.4907 -2.9695  0.4464
 5527TIP3   OH216544   1.146   6.374   2.739 -0.7822  0.3974  0.2213
 5527TIP3    H116545   1.226   6.403   2.783 -1.7993  1.7101  1.2905
 5527TIP3    H216546   1.106   6.311   2.800 -0.4459 -0.4773 -0.4378
 5528TIP3   OH216547   6.046   3.415   1.675  0.6103  0.8334  0.0756
 5528TIP3    H116548   5.999   3.489   1.712 -0.9195 -0.6578  1.2377
 5528TIP3    H216549   6.018   3.339   1.727  0.7698 -0.8589 -2.1451
 5529TIP3   OH216550   6.316   2.719   3.752  0.2371 -0.2172 -0.0624
 5529TIP3    H116551   6.406   2.751   3.749  0.1385  0.1536  0.5914
 5529TIP3    H216552   6.263   2.797   3.732  0.0408 -0.2470  0.3222
 5530TIP3   OH216553   2.937   4.267   2.050 -0.3449  0.3271  0.1285
 5530TIP3    H116554   2.886   4.348   2.048  1.0168  1.2315  0.1524
 5530TIP3    H216555   2.905   4.216   1.976  0.3018  1.9042 -1.3199
 5531TIP3   OH216556   3.639   6.417   0.376  0.4178 -0.1193  0.3836
 5531TIP3    H116557   3.552   6.452   0.357  0.6623  1.3233  1.6927
 5531TIP3    H216558   3.634   6.389   0.467  1.3871  0.2317  0.5555
 5532TIP3   OH216559   6.986   1.575   2.643 -0.0703 -0.1055  0.3315
 5532TIP3    H116560   7.065   1.597   2.692  0.9470  0.0524 -1.3060
 5532TIP3    H216561   7.002   1.486   2.610 -0.6915 -0.1736  0.2034
 5533TIP3   OH216562   4.490   1.318   5.219  0.1249 -0.5527 -0.8466
 5533TIP3    H116563   4.554   1.383   5.191  0.7662 -1.7384 -2.2647
 5533TIP3    H216564   4.412   1.369   5.241  1.3902  0.8869  0.5517
 5534TIP3   OH216565   4.418   6.176   0.417 -0.0215  0.3033 -0.0064
 5534TIP3    H116566   4.368   6.221   0.485 -0.1241  0.1240  0.0358
 5534TIP3    H216567   4.353   6.147   0.353  0.1917  1.6554 -0.8788
 5535TIP3   OH216568   0.083   2.616   5.045 -0.1483  0.0761 -0.1117
 5535TIP3    H116569   0.138   2.596   4.968 -0.0955  1.1348 -0.3665
 5535TIP3    H216570   0.146   2.627   5.116 -0.2585 -1.9581  0.3585
 5536TIP3   OH216571   1.841   5.127   2.395  0.4478 -0.0789  0.4592
 5536TIP3    H116572   1.866   5.172   2.315 -0.6393  1.1074  0.7552
 5536TIP3    H216573   1.818   5.039   2.367  1.7385 -0.2126 -0.2645
 5537TIP3   OH216574   6.499   6.015   3.067  0.4150 -0.6127  0.5258
 5537TIP3    H116575   6.541   5.940   3.024 -0.2420  0.9760 -3.3000
 5537TIP3    H216576   6.566   6.083   3.069  0.0786 -0.2848  0.9752
 5538TIP3   OH216577   4.669   2.064   2.920 -0.0852  0.0838  0.1965
 5538TIP3    H116578   4.761   2.074   2.946 -0.1090 -0.5141  0.5261
 5538TIP3    H216579   4.632   2.005   2.985 -1.0583  1.3776  0.8556
 5539TIP3   OH216580   6.682   5.659   1.005 -0.3660 -0.3569 -0.5048
 5539TIP3    H116581   6.714   5.712   0.932 -0.7877  0.3965 -0.1544
 5539TIP3    H216582   6.692   5.715   1.082  2.9332 -2.1872  0.5909
 5540TIP3   OH216583   6.380   3.450   2.347  0.5431  0.1958 -0.3222
 5540TIP3    H116584   6.296   3.410   2.325 -0.2952  0.7025  1.7740
 5540TIP3    H216585   6.436   3.376   2.371  0.4117 -0.0584 -0.7737
 5541TIP3   OH216586   3.632   0.525   3.451 -0.2226 -0.0744 -0.2719
 5541TIP3    H116587   3.642   0.450   3.392  0.1949  0.3850 -0.8105
 5541TIP3    H216588   3.667   0.599   3.401  1.8402  0.0378  1.2077
 5542TIP3   OH216589   1.838   4.888   2.243 -0.1794 -0.1306  0.8125
 5542TIP3    H116590   1.844   4.916   2.152 -1.2014  0.6790  0.9719
 5542TIP3    H216591   1.927   4.863   2.267  0.7925  2.6927  0.5151
 5543TIP3   OH216592   2.776   0.298   4.857 -0.2449  0.6718  0.2086
 5543TIP3    H116593   2.857   0.338   4.825 -1.0215  2.1139 -0.0094
 5543TIP3    H216594   2.786   0.205   4.837  1.3510  0.8180  0.1831
 5544TIP3   OH216595   1.232   0.989   3.944 -0.0555  0.4092  0.3469
 5544TIP3    H116596   1.247   0.949   4.030  0.8708  1.1301  0.5399
 5544TIP3    H216597   1.211   0.916   3.886 -2.8289  0.0839  1.5929
 5545TIP3   OH216598   2.011   5.814   0.954 -0.6042  0.3297 -0.1513
 5545TIP3    H116599   2.026   5.825   1.048 -1.1043 -0.9409  0.1013
 5545TIP3    H216600   2.053   5.889   0.914  1.1194  0.0198  0.9606
 5546TIP3   OH216601   6.669   2.047   3.174  0.1793  0.6845 -0.4429
 5546TIP3    H116602   6.707   2.029   3.261  1.3704  2.3329 -0.5740
 5546TIP3    H216603   6.740   2.029   3.113 -0.2083  0.8980 -0.9609
 5547TIP3   OH216604   4.618   0.973   2.764 -0.2174 -0.1089 -0.4931
 5547TIP3    H116605   4.683   0.914   2.725  0.9557  0.9890 -0.2716
 5547TIP3    H216606   4.651   0.990   2.852 -1.1083  0.0356 -0.1739
 5548TIP3   OH216607   1.128   2.844   5.559 -0.0043  0.1963 -0.1865
 5548TIP3    H116608   1.126   2.906   5.631 -1.7667  0.3324 -0.3038
 5548TIP3    H216609   1.084   2.766   5.593 -0.0130 -0.0810 -0.8089
 5549TIP3   OH216610   3.266   6.275   4.080  0.0995 -0.0919  0.3764
 5549TIP3    H116611   3.357   6.251   4.060 -0.3923 -1.3247 -0.4763
 5549TIP3    H216612   3.233   6.313   3.999  0.2520  1.6847  1.1091
 5550TIP3   OH216613   3.859   4.578   0.244 -0.3873 -0.3760  0.2384
 5550TIP3    H116614   3.895   4.554   0.158  1.0177 -1.4267  1.0725
 5550TIP3    H216615   3.770   4.543   0.243 -0.2567 -0.7166 -0.6429
 5551TIP3   OH216616   6.267   1.247   4.111 -0.3942  0.5605 -0.4324
 5551TIP3    H116617   6.328   1.294   4.167 -1.0681  0.9431 -0.0085
 5551TIP3    H216618   6.322   1.188   4.060  0.3331  0.9451 -0.1062
 5552TIP3   OH216619   5.782   4.069   5.221  0.3294  0.0293 -0.0655
 5552TIP3    H116620   5.812   4.090   5.310 -1.4067 -1.6139  0.9671
 5552TIP3    H216621   5.817   4.141   5.167 -1.2351  2.9129  2.4323
 5553TIP3   OH216622   3.436   1.576   4.574 -0.2725  0.2906 -0.4542
 5553TIP3    H116623   3.412   1.667   4.556 -0.6744  0.4749  0.9359
 5553TIP3    H216624   3.418   1.564   4.667  2.8382 -0.2580  0.1890
 5554TIP3   OH216625   6.303   0.593   2.412 -0.6847  0.0319 -0.0910
 5554TIP3    H116626   6.255   0.675   2.419 -0.1637  0.1844  2.3053
 5554TIP3    H216627   6.393   0.619   2.393 -0.7003 -0.0503 -0.2865
 5555TIP3   OH216628   2.984   5.329   0.169 -0.4530  0.1742  0.2757
 5555TIP3    H116629   2.989   5.422   0.192 -0.7077  1.0051 -2.6288
 5555TIP3    H216630   3.073   5.297   0.183 -0.4411  0.7211  1.6489
 5556TIP3   OH216631   3.405   1.493   2.770 -0.4991  0.1071 -0.0368
 5556TIP3    H116632   3.367   1.411   2.802 -0.1008  0.0922  0.4175
 5556TIP3    H216633   3.374   1.500   2.679 -0.9303 -0.2974  0.0737
 5557TIP3   OH216634   6.608   1.060   3.865 -0.1016 -0.7592  0.4016
 5557TIP3    H116635   6.630   1.092   3.777 -1.0606 -1.7616 -0.2284
 5557TIP3    H216636   6.676   1.098   3.922  0.2156  0.3566 -0.6698
 5558TIP3   OH216637   3.824   3.517   5.434  0.3295  0.5893 -0.3823
 5558TIP3    H116638   3.744   3.483   5.393 -0.1813  0.5530  0.6150
 5558TIP3    H216639   3.879   3.544   5.360 -0.5910  0.5832 -1.0896
 5559TIP3   OH216640   5.948   3.607   5.464  0.3447  0.4337  0.0083
 5559TIP3    H116641   5.901   3.671   5.411 -1.2068  0.2546  1.0899
 5559TIP3    H216642   5.883   3.539   5.483  1.3425 -0.3727  0.6812
 5560TIP3   OH216643   7.081   2.117   2.876  0.0152 -0.2575 -0.2768
 5560TIP3    H116644   7.093   2.173   2.799  1.1627  0.5526  0.4738
 5560TIP3    H216645   7.116   2.168   2.949 -2.6601 -0.2260  1.1434
 5561TIP3   OH216646   2.598   0.305   4.198  0.0502 -0.1622  0.4477
 5561TIP3    H116647   2.535   0.356   4.248 -1.1212 -0.2116 -0.9018
 5561TIP3    H216648   2.545   0.237   4.156  0.9765 -0.1227 -0.8284
 5562TIP3   OH216649   1.692   0.076   2.948  0.0493  0.0855  0.3953
 5562TIP3    H116650   1.782   0.104   2.935 -0.0857  0.1095 -0.5760
 5562TIP3    H216651   1.641   0.127   2.885 -0.4146 -1.1194 -0.2494
 5563TIP3   OH216652   0.696   3.303   3.271  0.3477 -0.5283  0.5677
 5563TIP3    H116653   0.620   3.253   3.240  1.2232 -0.3905 -2.0503
 5563TIP3    H216654   0.772   3.251   3.245  1.2208  1.0254 -0.1446
 5564TIP3   OH216655   2.096   2.772   5.685  0.3329 -0.1213  0.2147
 5564TIP3    H116656   2.038   2.706   5.647 -0.9559  0.6202  0.8492
 5564TIP3    H216657   2.117   2.831   5.612 -1.5443  0.8862  0.4506
 5565TIP3   OH216658   1.751   3.355   5.238 -0.3892  0.1997  0.3153
 5565TIP3    H116659   1.716   3.266   5.240 -1.1319  0.4668 -0.1365
 5565TIP3    H216660   1.696   3.400   5.174  0.8301  0.6395 -0.4572
 5566TIP3   OH216661   0.685   6.374   3.356 -0.4586  0.5328  0.3381
 5566TIP3    H116662   0.637   6.315   3.414  1.3342 -3.5821 -1.8982
 5566TIP3    H216663   0.630   6.381   3.278  0.9538 -1.6931 -0.9926
 5567TIP3   OH216664   5.465   0.832   5.879 -0.5314  0.4074 -0.0959
 5567TIP3    H116665   5.373   0.857   5.883 -1.0199 -0.5931 -2.8216
 5567TIP3    H216666   5.471   0.774   5.803  1.9978 -1.1967  1.1816
 5568TIP3   OH216667   4.069   5.109   3.385  0.1776 -0.0078  0.9051
 5568TIP3    H116668   4.036   5.070   3.304 -0.6488  0.5719  0.9504
 5568TIP3    H216669   4.031   5.197   3.387 -0.1131 -0.1415  2.1023
 5569TIP3   OH216670   1.757   1.699   1.050 -0.0497 -0.7514  0.2329
 5569TIP3    H116671   1.749   1.651   1.132 -0.2979  1.3589  1.5396
 5569TIP3    H216672   1.811   1.643   0.994  2.2064 -1.2511  2.6822
 5570TIP3   OH216673   5.527   0.772   4.189  0.4049 -0.3459 -0.3259
 5570TIP3    H116674   5.620   0.793   4.186  0.2934  0.1932 -3.3513
 5570TIP3    H216675   5.524   0.678   4.207  1.4350 -0.0864  1.3491
 5571TIP3   OH216676   3.857   6.583   1.575  0.1200  0.5510  0.3538
 5571TIP3    H116677   3.889   6.622   1.494 -1.8351  2.2825  0.3105
 5571TIP3    H216678   3.824   6.657   1.625  0.4058 -0.5979  2.3361
 5572TIP3   OH216679   2.689   1.856   1.790 -0.0852  0.7180 -0.1359
 5572TIP3    H116680   2.605   1.903   1.790 -0.7607 -0.3995  1.5146
 5572TIP3    H216681   2.747   1.912   1.841 -0.4320  0.5332  0.4713
 5573TIP3   OH216682   5.557   1.906   1.259 -0.5278 -0.2183 -0.4802
 5573TIP3    H116683   5.493   1.889   1.328 -1.3753 -0.5389 -1.3084
 5573TIP3    H216684   5.606   1.824   1.250  0.4238  0.2220  0.5657
 5574TIP3   OH216685   4.236   4.079   4.605 -0.2080  0.0841 -0.2829
 5574TIP3    H116686   4.258   3.998   4.652 -2.4055 -0.5081 -0.1532
 5574TIP3    H216687   4.309   4.138   4.623 -0.4896 -0.4121  3.1487
 5575TIP3   OH216688   1.677   2.658   4.625 -0.0205  0.1147 -0.1607
 5575TIP3    H116689   1.736   2.678   4.698 -0.6053  0.3896  0.2460
 5575TIP3    H216690   1.722   2.589   4.576  0.3194 -0.1719  0.5382
 5576TIP3   OH216691   6.547   5.455   2.792 -0.2391 -0.3073  0.0714
 5576TIP3    H116692   6.484   5.526   2.799  0.9081  0.6115  2.2974
 5576TIP3    H216693   6.548   5.432   2.699 -0.7840  2.4886 -0.7243
 5577TIP3   OH216694   3.023   5.468   2.064 -0.2144  0.2109 -0.8786
 5577TIP3    H116695   3.034   5.529   2.138 -1.8747  1.5960 -1.7175
 5577TIP3    H216696   2.987   5.522   1.994 -1.3203 -1.6665 -1.8128
 5578TIP3   OH216697   4.901   2.869   1.285  0.0183  0.8545 -0.0481
 5578TIP3    H116698   4.933   2.836   1.201  2.8773  0.3288  1.1298
 5578TIP3    H216699   4.911   2.964   1.278  1.0624  0.7565 -0.0346
 5579TIP3   OH216700   2.115   2.069   0.233 -0.2680  0.2881 -0.2589
 5579TIP3    H116701   2.044   2.006   0.245  0.2652 -0.4580 -0.9521
 5579TIP3    H216702   2.194   2.023   0.262  0.3197  0.1397 -1.9777
 5580TIP3   OH216703   3.475   4.376   1.931 -0.5294 -0.3706  0.0650
 5580TIP3    H116704   3.401   4.400   1.987  0.4734  1.2550  0.7707
 5580TIP3    H216705   3.462   4.283   1.912 -1.5510 -0.6745  1.9976
 5581TIP3   OH216706   0.388   2.452   1.972  0.4734 -0.2112  0.4231
 5581TIP3    H116707   0.436   2.444   2.054 -1.1930 -0.3120  1.4245
 5581TIP3    H216708   0.361   2.544   1.969  0.1913 -0.3006  0.1844
 5582TIP3   OH216709   4.407   0.698   5.781 -0.1725  0.3764  0.0378
 5582TIP3    H116710   4.434   0.754   5.708 -1.4997  0.3235 -0.5190
 5582TIP3    H216711   4.488   0.655   5.809  0.3076  0.1174 -1.6412
 5583TIP3   OH216712   1.650   0.148   1.489 -0.0082  0.5277 -0.6336
 5583TIP3    H116713   1.591   0.204   1.539 -0.0002  0.9685 -1.1006
 5583TIP3    H216714   1.609   0.141   1.403 -0.2521 -0.5922 -0.4454
 5584TIP3   OH216715   6.265   2.196   1.943  0.3967 -0.4144 -0.4788
 5584TIP3    H116716   6.270   2.107   1.979 -0.0649 -0.4327 -0.4535
 5584TIP3    H216717   6.316   2.249   2.005  1.4509 -0.8054 -0.9847
 5585TIP3   OH216718   3.485   3.539   5.024  0.4401 -0.0970 -0.4672
 5585TIP3    H116719   3.441   3.619   4.996 -0.0512 -0.6379 -1.2923
 5585TIP3    H216720   3.576   3.565   5.039  0.1225  0.7615  0.0083
 5586TIP3   OH216721   4.810   5.359   0.473 -0.4483  0.8335 -0.4625
 5586TIP3    H116722   4.800   5.428   0.538  0.5221  0.4681  0.0944
 5586TIP3    H216723   4.771   5.282   0.513 -2.1009  1.1649 -1.3351
 5587TIP3   OH216724   3.883   3.028   5.411 -0.2521  0.5751  0.2893
 5587TIP3    H116725   3.956   3.055   5.356 -0.0019  0.9498  0.7949
 5587TIP3    H216726   3.888   3.085   5.488 -0.6277  0.0991  0.6775
 5588TIP3   OH216727   5.982   2.626   2.996 -0.2297  0.6313 -0.1222
 5588TIP3    H116728   5.914   2.689   3.021 -1.5818 -1.3202  1.3859
 5588TIP3    H216729   6.042   2.677   2.941 -1.4377  3.1174  0.7042
 5589TIP3   OH216730   3.200   1.677   4.259  0.9999  0.4892 -0.0573
 5589TIP3    H116731   3.183   1.602   4.317  2.1904  1.8149  2.1376
 5589TIP3    H216732   3.222   1.638   4.175 -3.3832 -1.5136 -0.5668
 5590TIP3   OH216733   2.582   3.213   1.964 -0.2488  0.2031 -0.0703
 5590TIP3    H116734   2.673   3.184   1.952  1.1618  4.4000 -1.1736
 5590TIP3    H216735   2.580   3.249   2.052 -0.4208  1.2916 -0.5059
 5591TIP3   OH216736   6.406   3.069   2.497 -0.5298 -0.1663  0.5342
 5591TIP3    H116737   6.400   3.040   2.588 -2.8402  0.9483  0.8259
 5591TIP3    H216738   6.441   3.158   2.502  0.1820 -0.4219  0.2335
 5592TIP3   OH216739   2.412   3.873   4.980 -0.2291  0.3786  1.0518
 5592TIP3    H116740   2.464   3.863   5.060  1.3778  0.8407  0.1104
 5592TIP3    H216741   2.477   3.880   4.910 -1.5936 -1.1813 -0.4736
 5593TIP3   OH216742   5.467   6.266   4.015  0.1010 -0.8908  0.0329
 5593TIP3    H116743   5.445   6.359   4.006 -1.5757 -1.2124  0.4869
 5593TIP3    H216744   5.537   6.264   4.081 -1.3281 -0.0999  1.6356
 5594TIP3   OH216745   1.812   5.965   1.271  0.0002 -0.8581  0.1567
 5594TIP3    H116746   1.777   6.052   1.253  1.5245  0.2065  1.9552
 5594TIP3    H216747   1.771   5.909   1.205 -2.3816  0.8606  0.0489
 5595TIP3   OH216748   1.795   6.607   3.520 -0.1578  0.1293  0.3410
 5595TIP3    H116749   1.790   6.678   3.456  0.3120 -0.6606 -0.6005
 5595TIP3    H216750   1.836   6.647   3.597 -1.0214  1.1717  0.2923
 5596TIP3   OH216751   6.959   5.496   0.013  0.1382  0.5932  0.3868
 5596TIP3    H116752   7.011   5.476   0.091  0.0603  0.3590  0.3786
 5596TIP3    H216753   6.954   5.592   0.011  0.3242  0.6059  0.5484
 5597TIP3   OH216754   6.110   2.421   4.925 -0.8082  0.5989  0.2521
 5597TIP3    H116755   6.023   2.415   4.964 -0.6791  1.4212  0.6921
 5597TIP3    H216756   6.116   2.511   4.893 -0.8170  0.0191 -1.4892
 5598TIP3   OH216757   3.014   4.743   5.532 -0.2549 -0.1798 -0.7048
 5598TIP3    H116758   2.993   4.833   5.554  0.9783 -0.2807  1.0624
 5598TIP3    H216759   3.084   4.750   5.467  2.1584  0.2536  1.7508
 5599TIP3   OH216760   3.742   5.455   4.657  0.3360  0.0101 -0.2081
 5599TIP3    H116761   3.729   5.387   4.723  1.4802  0.1234  0.1461
 5599TIP3    H216762   3.654   5.488   4.639 -0.1254 -0.9159  0.3056
 5600TIP3   OH216763   4.505   5.811   1.706 -0.1229 -0.3541 -0.4406
 5600TIP3    H116764   4.578   5.755   1.682  0.0752  0.2291 -1.2312
 5600TIP3    H216765   4.533   5.899   1.682 -1.0732 -0.1163 -0.7310
 5601TIP3   OH216766   6.392   1.955   2.349 -0.1409  0.0467  0.6631
 5601TIP3    H116767   6.467   1.972   2.405  0.2492  0.8559 -0.0843
 5601TIP3    H216768   6.333   1.903   2.403  0.6217  0.0402  1.5105
 5602TIP3   OH216769   4.020   1.215   0.820 -0.1887 -0.0935 -0.0137
 5602TIP3    H116770   3.939   1.169   0.842 -0.2302  0.1957  0.4546
 5602TIP3    H216771   4.012   1.300   0.863 -0.7667  0.9561 -2.0574
 5603TIP3   OH216772   3.198   6.448   3.426  0.2848  0.1966  0.0433
 5603TIP3    H116773   3.225   6.475   3.339 -2.3114 -1.0889 -1.2800
 5603TIP3    H216774   3.103   6.441   3.421 -0.0258  0.6160  3.1657
 5604TIP3   OH216775   3.637   1.896   3.935 -0.0335 -0.4721  0.0594
 5604TIP3    H116776   3.598   1.866   4.017  0.7304 -1.2589  0.1544
 5604TIP3    H216777   3.582   1.969   3.907 -1.2351 -1.2036  0.4565
 5605TIP3   OH216778   1.767   3.260   1.605 -0.1919  0.0651  0.4472
 5605TIP3    H116779   1.795   3.179   1.563 -1.1252 -0.1349  0.1837
 5605TIP3    H216780   1.727   3.232   1.687 -1.5264  0.1447 -0.1554
 5606TIP3   OH216781   0.403   5.099   0.588  0.0070 -0.1296 -0.3384
 5606TIP3    H116782   0.348   5.170   0.620 -0.9711 -1.2972  0.6690
 5606TIP3    H216783   0.342   5.032   0.557  0.8935 -0.6287 -1.0750
 5607TIP3   OH216784   7.139   4.412   5.018 -0.0871 -0.5590 -0.1023
 5607TIP3    H116785   7.112   4.393   5.108 -0.3451  1.8877  0.4075
 5607TIP3    H216786   7.216   4.468   5.027 -0.6049  0.4163 -1.3427
 5608TIP3   OH216787   5.685   2.373   5.242  0.0187 -0.0718  0.5250
 5608TIP3    H116788   5.689   2.381   5.147  0.1201 -0.5762  0.4867
 5608TIP3    H216789   5.776   2.358   5.269 -0.3824 -3.7161  0.3507
 5609TIP3   OH216790   2.683   6.153   5.208  0.7174 -0.1301  0.5492
 5609TIP3    H116791   2.665   6.194   5.293  1.5356  2.4890 -0.4188
 5609TIP3    H216792   2.754   6.205   5.172  0.4991 -1.2804 -1.6912
 5610TIP3   OH216793   0.823   4.258   5.490  0.4369  0.1669 -0.8711
 5610TIP3    H116794   0.786   4.345   5.478  0.0569  0.0205 -0.7562
 5610TIP3    H216795   0.918   4.273   5.491  0.4443  0.4006 -2.3262
 5611TIP3   OH216796   6.137   6.746   1.168 -0.3587  0.3746 -0.4391
 5611TIP3    H116797   6.190   6.687   1.113 -0.1645 -1.4043  1.5546
 5611TIP3    H216798   6.178   6.832   1.156 -0.3893  0.1201 -3.0943
 5612TIP3   OH216799   4.119   2.306   5.084 -0.3503 -0.4703 -0.2212
 5612TIP3    H116800   4.178   2.346   5.020  0.3461 -0.8507  0.1665
 5612TIP3    H216801   4.032   2.338   5.061  0.1800  1.2606  0.0835
 5613TIP3   OH216802   0.316   5.008   4.076  0.0311  1.0402 -0.6142
 5613TIP3    H116803   0.320   5.103   4.070  0.3427  0.9284 -3.0810
 5613TIP3    H216804   0.233   4.985   4.035 -0.3784  0.2628  0.6079
 5614TIP3   OH216805   0.643   5.732   1.822 -0.3094 -0.0028 -0.1270
 5614TIP3    H116806   0.558   5.760   1.787  0.2401  0.4414 -1.1346
 5614TIP3    H216807   0.676   5.669   1.758 -0.4918 -1.2734  0.9743
 5615TIP3   OH216808   3.181   0.957   0.399 -0.0315  0.2026 -0.0288
 5615TIP3    H116809   3.137   0.937   0.317  1.0374  0.9561 -0.8133
 5615TIP3    H216810   3.133   0.907   0.465 -1.1555 -0.0959 -1.0451
 5616TIP3   OH216811   5.298   4.300   4.349 -0.1872  0.0213  0.4629
 5616TIP3    H116812   5.275   4.391   4.367 -0.3032  0.3416 -1.1407
 5616TIP3    H216813   5.340   4.269   4.429  0.8899  1.8207  0.6388
 5617TIP3   OH216814   2.275   2.968   1.023  0.3918 -0.1552 -0.2174
 5617TIP3    H116815   2.286   2.989   1.116 -1.4266  1.2944 -0.2676
 5617TIP3    H216816   2.349   3.010   0.980  0.1018  0.9967  0.3686
 5618TIP3   OH216817   5.228   0.298   3.320 -0.1113 -0.0272 -0.6660
 5618TIP3    H116818   5.182   0.348   3.252  0.2993 -0.2186 -1.0815
 5618TIP3    H216819   5.316   0.334   3.321  0.1641 -0.6893 -0.9081
 5619TIP3   OH216820   4.518   4.181   2.876 -0.3193  0.2266  0.4748
 5619TIP3    H116821   4.593   4.204   2.821 -0.0283  0.4824  0.9736
 5619TIP3    H216822   4.508   4.255   2.936 -0.6294 -0.0509  0.7728
 5620TIP3   OH216823   4.124   6.338   3.235  0.3387 -0.0532 -0.3228
 5620TIP3    H116824   4.184   6.279   3.189  0.1255 -0.4962 -0.0444
 5620TIP3    H216825   4.143   6.323   3.328 -0.0273 -0.0122 -0.2399
 5621TIP3   OH216826   4.920   2.397   2.079 -0.3454  0.2180 -0.3621
 5621TIP3    H116827   4.921   2.344   2.158 -0.7710  0.2872 -0.3079
 5621TIP3    H216828   4.994   2.365   2.027 -0.5017 -0.3165 -0.2589
 5622TIP3   OH216829   2.443   6.224   0.123 -0.6230  0.2675 -0.0094
 5622TIP3    H116830   2.539   6.221   0.122 -0.5738 -1.0691  2.1505
 5622TIP3    H216831   2.420   6.272   0.044  1.6943 -2.7885 -2.8162
 5623TIP3   OH216832   0.412   1.567   1.594 -0.3408  0.0703  0.1361
 5623TIP3    H116833   0.503   1.567   1.564 -0.5053  1.4759 -0.4725
 5623TIP3    H216834   0.376   1.485   1.561  0.1024  0.5518 -1.6392
 5624TIP3   OH216835   4.381   2.239   0.160 -0.1943 -0.6057  0.4377
 5624TIP3    H116836   4.446   2.301   0.127 -0.2742  0.0483  1.4684
 5624TIP3    H216837   4.407   2.155   0.123  1.1342 -0.3260  0.6807
 5625TIP3   OH216838   2.496   3.270   4.036  0.8801  0.1095  0.0400
 5625TIP3    H116839   2.537   3.241   3.955  1.4270  1.1484 -0.0774
 5625TIP3    H216840   2.540   3.220   4.105  2.2814  1.0908 -0.0988
 5626TIP3   OH216841   0.421   1.221   4.494 -0.4782 -0.1801 -0.2691
 5626TIP3    H116842   0.449   1.251   4.408 -0.2415  0.7932  0.1267
 5626TIP3    H216843   0.484   1.154   4.518  0.6960  0.9648 -0.0104
 5627TIP3   OH216844   1.115   1.608   3.687 -0.0393 -0.1937  0.9063
 5627TIP3    H116845   1.094   1.697   3.658  0.8102 -0.4784 -0.6723
 5627TIP3    H216846   1.031   1.564   3.694 -0.5007  0.7935  2.0316
 5628TIP3   OH216847   0.869   2.291   1.603 -0.2753  0.6752 -0.2294
 5628TIP3    H116848   0.958   2.266   1.578 -0.5829 -1.1412  0.3487
 5628TIP3    H216849   0.873   2.386   1.613  2.4193  0.4214  2.7899
 5629TIP3   OH216850   3.390   4.450   5.449 -0.0296 -0.1142 -0.3826
 5629TIP3    H116851   3.304   4.456   5.490 -0.4282  0.5029 -1.2765
 5629TIP3    H216852   3.452   4.456   5.522 -0.7130  1.1675  0.1154
 5630TIP3   OH216853   3.436   2.302   5.000 -0.1965 -0.0026 -0.0229
 5630TIP3    H116854   3.497   2.375   4.986  0.8385 -0.7265  0.5240
 5630TIP3    H216855   3.492   2.231   5.033 -0.8381 -1.6546 -2.2424
 5631TIP3   OH216856   5.047   2.623   4.343  0.5011  0.4294  0.0793
 5631TIP3    H116857   5.022   2.696   4.399 -0.2951  0.6507 -0.5393
 5631TIP3    H216858   5.061   2.663   4.257 -0.3485 -0.1908 -0.3660
 5632TIP3   OH216859   1.616   2.386   1.024  0.5552 -0.1574  0.2777
 5632TIP3    H116860   1.530   2.399   1.062  1.4346 -0.6708  2.6360
 5632TIP3    H216861   1.632   2.292   1.033  0.8121 -0.3037 -1.4525
 5633TIP3   OH216862   5.567   2.997   2.742  0.0806 -0.1453  0.3209
 5633TIP3    H116863   5.511   3.054   2.794 -1.7804 -0.0850 -1.6056
 5633TIP3    H216864   5.516   2.916   2.732  0.5957 -0.3417 -0.9514
 5634TIP3   OH216865   6.692   5.425   3.061 -0.0182  0.1138 -0.3967
 5634TIP3    H116866   6.708   5.440   2.968  0.4048  3.7446  0.1287
 5634TIP3    H216867   6.597   5.432   3.071  0.0151  0.5864 -0.4241
 5635TIP3   OH216868   0.778   3.110   5.507 -0.7460 -0.0335  0.1180
 5635TIP3    H116869   0.864   3.107   5.465 -0.2715  0.3145  1.0338
 5635TIP3    H216870   0.740   3.024   5.488  1.3507 -1.7266  2.7914
 5636TIP3   OH216871   2.279   1.373   0.349 -0.3730  0.2109 -0.0534
 5636TIP3    H116872   2.221   1.379   0.273  0.2443 -2.8745 -0.8971
 5636TIP3    H216873   2.221   1.383   0.424 -1.7874 -1.2491 -0.8948
 5637TIP3   OH216874   2.928   0.192   3.179 -0.5987  0.4035  0.2477
 5637TIP3    H116875   2.977   0.230   3.252  0.6124 -1.8175  0.6805
 5637TIP3    H216876   2.847   0.243   3.176 -0.3015  1.1563  2.5667
 5638TIP3   OH216877   6.563   3.921   5.860 -0.3878 -0.2925  0.3627
 5638TIP3    H116878   6.536   3.889   5.946 -2.4520 -0.2236 -0.2232
 5638TIP3    H216879   6.497   3.887   5.799 -0.5241  1.8818 -0.8155
 5639TIP3   OH216880   0.375   3.941   1.150  0.0024 -0.8831 -0.3147
 5639TIP3    H116881   0.296   3.971   1.194  0.1006 -0.6740 -0.2740
 5639TIP3    H216882   0.396   4.011   1.088 -0.0055 -1.0697 -0.5290
 5640TIP3   OH216883   0.425   6.602   2.771  0.0318  0.1647  0.3860
 5640TIP3    H116884   0.498   6.557   2.812  0.2402  1.0349  0.9988
 5640TIP3    H216885   0.356   6.535   2.764  0.5076 -0.3759  0.7892
 5641TIP3   OH216886   5.661   5.799   5.727  0.1456  0.2942 -0.2112
 5641TIP3    H116887   5.733   5.794   5.664  0.2910 -0.7287  0.0173
 5641TIP3    H216888   5.697   5.759   5.807 -0.5783  0.0336 -0.0079
 5642TIP3   OH216889   0.250   1.035   4.405  0.1333 -0.3025  0.0380
 5642TIP3    H116890   0.172   1.014   4.456  0.0430 -1.0410 -0.3901
 5642TIP3    H216891   0.291   1.108   4.452 -0.8904  0.1928  0.1748
 5643TIP3   OH216892   0.017   4.095   4.421  0.0375 -0.8613  0.2941
 5643TIP3    H116893   0.084   4.141   4.370 -1.1556  1.5464  0.7360
 5643TIP3    H216894   0.048   4.099   4.511  0.6588 -2.3599  0.1711
 5644TIP3   OH216895   6.749   5.805   1.642 -0.4731  0.5617  0.6431
 5644TIP3    H116896   6.740   5.711   1.626 -0.6666  0.6680  0.1123
 5644TIP3    H216897   6.836   5.827   1.607 -0.6685  0.6876  0.2219
 5645TIP3   OH216898   6.389   5.035   3.162 -0.6630  0.8921 -0.0856
 5645TIP3    H116899   6.377   5.115   3.213  0.2461  0.5434  0.7028
 5645TIP3    H216900   6.469   5.050   3.112  0.1385  0.0650  0.9106
 5646TIP3   OH216901   3.362   6.754   3.483 -0.5818  0.5134  1.3728
 5646TIP3    H116902   3.375   6.663   3.509 -0.2816  0.2966  0.5074
 5646TIP3    H216903   3.376   6.804   3.563  0.6040 -0.1002  1.5744
 5647TIP3   OH216904   5.505   1.510   1.039  0.6610  0.2399 -0.1226
 5647TIP3    H116905   5.599   1.494   1.051  0.7160 -1.4139 -2.1640
 5647TIP3    H216906   5.496   1.526   0.945 -1.1300  0.3635  0.0424
 5648TIP3   OH216907   3.097   4.634   5.846 -0.2348 -0.2252 -0.3975
 5648TIP3    H116908   3.107   4.588   5.929 -1.0970  1.4544  0.7009
 5648TIP3    H216909   3.004   4.625   5.825 -0.1424 -0.1104 -0.8629
 5649TIP3   OH216910   4.633   6.022   0.508  0.1136  0.2149  0.5301
 5649TIP3    H116911   4.717   6.053   0.542  1.4204 -0.5171 -1.8517
 5649TIP3    H216912   4.586   6.101   0.484 -0.1111  0.6536  2.2419
 5650TIP3   OH216913   3.838   3.672   3.712 -0.0073  0.9610 -0.0673
 5650TIP3    H116914   3.746   3.697   3.720  0.0106  1.0977 -0.2644
 5650TIP3    H216915   3.852   3.607   3.781 -0.4273  0.4302 -0.4709
 5651TIP3   OH216916   0.032   1.044   4.595  0.7797  0.1318 -0.0435
 5651TIP3    H116917   0.063   1.034   4.685  1.8838  0.4437 -0.3758
 5651TIP3    H216918   0.037   1.139   4.578 -2.8531  0.6183  0.7285
 5652TIP3   OH216919   7.025   6.644   1.718 -0.0039  0.1994 -0.1453
 5652TIP3    H116920   7.076   6.578   1.671  0.3711  0.0799  0.4186
 5652TIP3    H216921   7.072   6.656   1.800  0.8101  2.3042 -0.8644
 5653TIP3   OH216922   1.929   0.334   5.712  0.2703  1.1811  0.4593
 5653TIP3    H116923   1.891   0.422   5.712  0.5620  1.3100  0.6972
 5653TIP3    H216924   2.004   0.341   5.653 -1.4020  0.3297 -1.9303
 5654TIP3   OH216925   6.295   6.427   4.022 -0.0968 -0.4012 -0.3639
 5654TIP3    H116926   6.239   6.481   3.966  0.3165 -0.7773 -1.1469
 5654TIP3    H216927   6.249   6.426   4.106 -0.0152  1.3418 -0.2493
 5655TIP3   OH216928   4.321   6.057   3.493  0.3896 -0.1453  0.0926
 5655TIP3    H116929   4.346   6.076   3.583 -0.1017  0.4400  0.1137
 5655TIP3    H216930   4.234   6.096   3.483 -0.9048 -2.7657  0.2555
 5656TIP3   OH216931   2.473   3.864   2.721  0.1977 -0.2356 -0.0064
 5656TIP3    H116932   2.554   3.851   2.771  1.4386  1.5523 -1.4090
 5656TIP3    H216933   2.407   3.884   2.787  1.3407  0.1576  1.0534
 5657TIP3   OH216934   4.062   4.574   5.323 -0.0930 -0.3400 -0.4338
 5657TIP3    H116935   3.991   4.512   5.342 -1.0353 -0.1743 -2.9483
 5657TIP3    H216936   4.139   4.536   5.365 -0.8176 -2.7954 -1.1422
 5658TIP3   OH216937   5.718   3.974   0.989  0.2252  0.3777 -0.4313
 5658TIP3    H116938   5.810   3.997   1.001  0.6945 -1.1386 -0.9204
 5658TIP3    H216939   5.687   3.952   1.077  0.8915 -1.0204 -0.5239
 5659TIP3   OH216940   2.171   6.312   2.358 -0.4659  0.4657  0.1167
 5659TIP3    H116941   2.251   6.280   2.316 -1.0424  1.0982 -1.5468
 5659TIP3    H216942   2.155   6.250   2.429  0.0396 -1.2511 -1.1907
 5660TIP3   OH216943   5.125   2.125   2.178  0.8583 -0.0887  0.0409
 5660TIP3    H116944   5.172   2.189   2.232  0.8309 -0.0873  0.0624
 5660TIP3    H216945   5.192   2.091   2.118  0.8782 -0.0576  0.0452
 5661TIP3   OH216946   2.925   4.405   3.696  0.0189  0.0258  0.4219
 5661TIP3    H116947   2.929   4.498   3.716  1.8731 -0.5245  3.1775
 5661TIP3    H216948   2.871   4.367   3.766 -0.8349 -0.9900 -0.7350
 5662TIP3   OH216949   1.971   3.465   5.749 -0.1548  0.1942  0.0531
 5662TIP3    H116950   1.967   3.560   5.757  1.1151  0.2740 -0.0769
 5662TIP3    H216951   1.980   3.433   5.838  0.8959  0.2920 -0.0119
 5663TIP3   OH216952  -0.013   2.225   2.634 -0.0688 -0.2190  0.0077
 5663TIP3    H116953   0.036   2.305   2.654 -0.7892  0.6039 -1.3649
 5663TIP3    H216954   0.004   2.210   2.541  0.7646 -2.1906  0.4382
 5664TIP3   OH216955   0.656   5.501   0.617  0.3246  0.0782 -0.2315
 5664TIP3    H116956   0.620   5.582   0.653 -1.4056 -0.7176 -0.0565
 5664TIP3    H216957   0.627   5.433   0.678  3.1121 -0.5488  0.5175
 5665TIP3   OH216958   4.650   5.265   3.926 -0.1966 -0.3313  0.2772
 5665TIP3    H116959   4.696   5.346   3.902 -0.9608 -0.2640 -1.0372
 5665TIP3    H216960   4.680   5.246   4.016 -0.4327  1.7018  0.8345
 5666TIP3   OH216961   3.521   2.573   5.505  0.0911  0.3924  0.0414
 5666TIP3    H116962   3.450   2.635   5.487 -0.1197 -0.0216 -0.5545
 5666TIP3    H216963   3.478   2.489   5.516  0.5572 -0.0686 -1.3993
 5667TIP3   OH216964   1.709   1.702   3.905 -0.1942  0.2810 -1.0598
 5667TIP3    H116965   1.749   1.667   3.985 -1.2274 -0.4503 -0.8418
 5667TIP3    H216966   1.619   1.723   3.930  0.1571  2.4139 -1.4002
 5668TIP3   OH216967   3.950   0.113   1.785 -0.0778 -0.4336 -0.0245
 5668TIP3    H116968   3.968   0.075   1.871  0.1073  0.2585  0.2473
 5668TIP3    H216969   3.857   0.137   1.790 -0.0689 -0.4002 -0.0157
 5669TIP3   OH216970   2.956   5.683   5.374  0.4381 -0.0768  0.1451
 5669TIP3    H116971   2.906   5.753   5.417 -0.3090 -1.3494  1.4198
 5669TIP3    H216972   2.913   5.602   5.403  1.3047 -1.0720 -1.2695
 5670TIP3   OH216973   1.203   5.108   4.209  0.5484  0.5668  0.1811
 5670TIP3    H116974   1.141   5.103   4.282  1.7717  2.2678  1.4186
 5670TIP3    H216975   1.165   5.172   4.150  0.3746  0.4385  0.1519
 5671TIP3   OH216976   0.673   2.242   3.342  0.0949 -0.0463 -0.6329
 5671TIP3    H116977   0.750   2.299   3.354  0.0678  0.0659 -0.9927
 5671TIP3    H216978   0.632   2.239   3.429 -0.0822  0.7391 -0.6846
 5672TIP3   OH216979   1.196   3.140   2.200 -0.1015 -0.1491  0.1876
 5672TIP3    H116980   1.162   3.082   2.132 -0.5235 -0.5184  0.7035
 5672TIP3    H216981   1.275   3.096   2.232 -0.5655 -0.5846  0.7604
 5673TIP3   OH216982   1.672   1.627   0.020  0.2281 -0.9301 -0.0540
 5673TIP3    H116983   1.729   1.554   0.046 -0.0030 -0.8571  0.7020
 5673TIP3    H216984   1.618   1.644   0.098 -0.2033 -0.4104 -0.4564
 5674TIP3   OH216985   1.281   2.597   5.189 -0.0492 -0.4469 -0.0339
 5674TIP3    H116986   1.259   2.636   5.105 -1.7222 -0.4944  0.3545
 5674TIP3    H216987   1.375   2.613   5.200 -0.5856  3.4739  0.1128
 5675TIP3   OH216988   1.426   1.909   4.304  0.4949  0.0222  0.7375
 5675TIP3    H116989   1.392   1.824   4.276 -1.5910  0.8946  0.4444
 5675TIP3    H216990   1.522   1.899   4.300  0.3190 -2.3600  0.9611
 5676TIP3   OH216991   1.821   3.015   5.464  1.1570  0.3557  0.6817
 5676TIP3    H116992   1.906   2.971   5.459  0.3765 -1.2242  0.6421
 5676TIP3    H216993   1.761   2.957   5.418 -0.1870  0.7995  1.7947
 5677TIP3   OH216994   6.132   3.914   0.593  0.4029 -0.3910  0.1110
 5677TIP3    H116995   6.091   3.879   0.673  0.6465 -1.6654 -0.2902
 5677TIP3    H216996   6.120   3.844   0.529  2.4314 -0.4287 -0.2666
 5678TIP3   OH216997   4.695   3.810   3.009 -0.4981  0.1906 -0.6313
 5678TIP3    H116998   4.777   3.762   2.999 -1.0300 -0.5965 -1.4993
 5678TIP3    H216999   4.720   3.895   3.044  0.4743 -0.7158  0.9707
 5679TIP3   OH217000   2.885   6.749   1.462  0.1038 -0.2639  0.5428
 5679TIP3    H117001   2.801   6.763   1.505 -0.3417 -1.0304 -0.0467
 5679TIP3    H217002   2.948   6.797   1.516 -0.8203  1.0216  0.5142
 5680TIP3   OH217003   5.119   4.347   3.349  0.5547 -0.1621  0.4039
 5680TIP3    H117004   5.113   4.442   3.342  1.9503 -0.0870 -0.0780
 5680TIP3    H217005   5.171   4.321   3.273 -0.0175 -1.3417  0.3956
 5681TIP3   OH217006   0.861   2.370   4.033  0.3516 -0.3275  0.4264
 5681TIP3    H117007   0.829   2.287   3.996  0.7266 -1.1247  1.7939
 5681TIP3    H217008   0.785   2.408   4.077  0.1290  0.1574 -0.3791
 5682TIP3   OH217009   4.466   2.740   0.058 -0.4687 -0.2930  0.3423
 5682TIP3    H117010   4.388   2.723   0.111  0.9963 -1.6864  2.1900
 5682TIP3    H217011   4.513   2.808   0.107 -0.4059  0.4135 -0.6672
 5683TIP3   OH217012   3.660   0.355   4.762 -0.0743  0.7259 -0.7405
 5683TIP3    H117013   3.721   0.316   4.825 -2.2346 -0.3490  0.8242
 5683TIP3    H217014   3.635   0.283   4.705  0.8902  1.4121 -2.0855
 5684TIP3   OH217015   2.101   0.388   2.262 -0.5240  0.0716 -0.0446
 5684TIP3    H117016   2.127   0.342   2.341  0.2920  0.3751 -0.1267
 5684TIP3    H217017   2.031   0.447   2.290 -1.6320 -1.2602  0.0379
 5685TIP3   OH217018   2.524   5.280   3.846  0.0656 -0.2147  0.0362
 5685TIP3    H117019   2.507   5.296   3.939 -1.3910 -1.4329  0.0216
 5685TIP3    H217020   2.480   5.352   3.801 -2.4932 -1.5758  0.1719
 5686TIP3   OH217021   5.870   1.323   0.444  0.5939  0.6045 -0.4301
 5686TIP3    H117022   5.924   1.310   0.365 -1.5875 -0.3121 -1.8838
 5686TIP3    H217023   5.856   1.417   0.448  2.7701  0.9444  0.3687
 5687TIP3   OH217024   2.392   4.383   2.017 -0.2507 -0.0796 -0.0587
 5687TIP3    H117025   2.384   4.468   2.060  1.2494  0.1863 -0.2585
 5687TIP3    H217026   2.338   4.324   2.070 -0.4583  0.7639  0.6913
 5688TIP3   OH217027   1.147   1.049   0.996  0.3997 -0.3523 -0.2339
 5688TIP3    H117028   1.087   1.075   0.926  0.1559 -1.2480 -0.3802
 5688TIP3    H217029   1.092   1.049   1.075  0.4014 -0.4063 -0.2326
 5689TIP3   OH217030   1.502   1.614   2.469  0.1940 -0.8766 -0.0176
 5689TIP3    H117031   1.494   1.566   2.551 -2.1908  0.8656  0.8955
 5689TIP3    H217032   1.460   1.699   2.486  2.4618  0.8186 -2.1103
 5690TIP3   OH217033   4.981   0.317   5.043  0.6190  0.1656  0.4378
 5690TIP3    H117034   4.896   0.360   5.051  0.1001 -0.9388  1.0609
 5690TIP3    H217035   4.989   0.296   4.950  0.7125  1.2352  0.1911
 5691TIP3   OH217036   1.053   0.288   4.215  0.7208  0.5784  0.4893
 5691TIP3    H117037   1.135   0.243   4.194 -0.1784 -0.5098 -0.8701
 5691TIP3    H217038   0.996   0.271   4.140 -0.7179  1.4198  1.3387
 5692TIP3   OH217039   4.308   6.302   1.669 -0.2457  0.5556  0.2979
 5692TIP3    H117040   4.356   6.318   1.751  0.5954  1.1470 -0.2974
 5692TIP3    H217041   4.316   6.207   1.656 -0.6564  0.4039  1.0546
 5693TIP3   OH217042   0.745   3.137   4.432 -0.0726 -0.3985 -0.2533
 5693TIP3    H117043   0.821   3.189   4.460  0.7809 -1.8409  0.1914
 5693TIP3    H217044   0.729   3.164   4.342  0.8299  0.0786 -0.2765
 5694TIP3   OH217045   6.029   6.356   0.895  0.6166  0.4646 -0.2416
 5694TIP3    H117046   5.956   6.323   0.843  0.3062 -0.2509  0.6279
 5694TIP3    H217047   6.063   6.430   0.845  0.9562 -0.7987 -1.9598
 5695TIP3   OH217048   0.898   4.877   4.711  0.3084 -0.0790 -0.1276
 5695TIP3    H117049   0.982   4.913   4.741 -0.0301  0.3297  0.3409
 5695TIP3    H217050   0.917   4.785   4.692  0.5545 -0.3701  1.3434
 5696TIP3   OH217051   4.742   4.814   4.358  0.5400 -0.1107  0.1679
 5696TIP3    H117052   4.686   4.862   4.420 -0.4365  0.7893 -1.3394
 5696TIP3    H217053   4.714   4.723   4.366 -1.9263  0.4197 -1.1991
 5697TIP3   OH217054   0.316   3.270   5.338 -0.1662  0.7533  0.2656
 5697TIP3    H117055   0.240   3.235   5.385  0.3172  0.2326  0.6693
 5697TIP3    H217056   0.353   3.335   5.398  0.1569  0.4492  0.3995
 5698TIP3   OH217057   0.562   4.811   0.498  0.3177  0.5095 -0.0665
 5698TIP3    H117058   0.477   4.769   0.513  1.1801 -0.4992  2.5392
 5698TIP3    H217059   0.626   4.746   0.525  1.9646  1.3841 -1.6482
 5699TIP3   OH217060   2.412   6.623   5.517 -0.2859  0.5220 -0.3395
 5699TIP3    H117061   2.503   6.608   5.542 -0.8939 -1.9886  0.6506
 5699TIP3    H217062   2.391   6.552   5.457 -1.7724  0.6358 -0.0068
 5700TIP3   OH217063   1.714   5.146   4.472  0.9628  0.8497  0.1245
 5700TIP3    H117064   1.798   5.100   4.463  0.6988  0.1098  1.2061
 5700TIP3    H217065   1.680   5.152   4.383  0.2841 -2.4772  0.0382
 5701TIP3   OH217066   0.379   5.370   4.577 -0.4275 -0.2042  0.2216
 5701TIP3    H117067   0.389   5.384   4.483  0.5225 -1.1485  0.1631
 5701TIP3    H217068   0.323   5.442   4.606 -0.0664  0.5704 -0.9255
 5702TIP3   OH217069   1.936   2.234   4.703  0.4674  0.1475  0.0322
 5702TIP3    H117070   1.958   2.324   4.681 -0.1022 -0.0120 -1.2965
 5702TIP3    H217071   2.013   2.183   4.679  0.8645  0.2831  0.9659
 5703TIP3   OH217072   0.648   0.523   0.453 -0.1173 -0.0075  0.1175
 5703TIP3    H117073   0.740   0.498   0.463 -0.3064 -1.6966 -1.7906
 5703TIP3    H217074   0.645   0.573   0.371 -0.8104  0.6218  0.5158
 5704TIP3   OH217075   1.862   2.276   2.018 -0.3441 -0.4733  0.1290
 5704TIP3    H117076   1.903   2.256   2.102  0.7744 -1.8415 -0.6882
 5704TIP3    H217077   1.826   2.192   1.988 -0.0078 -0.1973 -1.1332
 5705TIP3   OH217078   5.986   4.757   0.834 -0.4424  0.6701 -0.1606
 5705TIP3    H117079   5.994   4.852   0.836 -0.4940  0.6760 -0.2646
 5705TIP3    H217080   6.042   4.727   0.906  1.1913  0.6770 -1.3795
 5706TIP3   OH217081   2.041   5.238   5.287  0.4318  0.2534  0.4400
 5706TIP3    H117082   2.089   5.317   5.265 -0.4341  1.2044  1.8072
 5706TIP3    H217083   1.975   5.266   5.350 -0.0987 -1.5026  0.7390
 5707TIP3   OH217084   0.128   0.538   4.472 -0.4592  0.5737  0.2608
 5707TIP3    H117085   0.182   0.597   4.524 -1.3741  0.4901  1.3421
 5707TIP3    H217086   0.098   0.472   4.534  0.6734 -1.1739 -0.9459
 5708TIP3   OH217087   6.486   1.774   0.945 -0.4275  0.5197  0.0550
 5708TIP3    H117088   6.481   1.818   0.860  0.0942  0.3318 -0.0787
 5708TIP3    H217089   6.531   1.836   1.002 -0.9621  0.7301  0.2565
 5709TIP3   OH217090   5.851   0.216   1.036  0.1969 -0.1549 -0.4149
 5709TIP3    H117091   5.794   0.218   1.113 -3.3689 -0.3082 -2.7992
 5709TIP3    H217092   5.911   0.144   1.052 -0.2547 -0.0218  2.2868
 5710TIP3   OH217093   4.249   1.687   3.984 -0.0364  0.0929  0.2361
 5710TIP3    H117094   4.189   1.761   3.979 -1.6496 -1.1791 -0.0093
 5710TIP3    H217095   4.302   1.694   3.904  2.2247  2.8445  1.7927
 5711TIP3   OH217096   1.613   3.242   5.741 -0.8755 -0.2683  0.2644
 5711TIP3    H117097   1.667   3.272   5.814  0.8308 -0.2051 -0.9573
 5711TIP3    H217098   1.638   3.298   5.668 -1.8168 -0.9688 -0.6207
 5712TIP3   OH217099   2.269   1.901   3.269 -0.2117 -0.3608 -0.1711
 5712TIP3    H117100   2.306   1.827   3.220  0.1587 -0.3327  0.0615
 5712TIP3    H217101   2.249   1.966   3.202  1.3218  0.1206 -0.1915
 5713TIP3   OH217102   5.168   1.956   2.412 -0.2628 -0.3178  0.2276
 5713TIP3    H117103   5.155   1.935   2.320  0.2728  2.6313 -0.6469
 5713TIP3    H217104   5.092   2.008   2.436  0.7977  1.1380  0.6207
 5714TIP3   OH217105   0.451   4.110   2.104  0.5113  0.2659  0.5180
 5714TIP3    H117106   0.478   4.153   2.023 -2.9364 -2.0521 -2.2015
 5714TIP3    H217107   0.504   4.030   2.107  0.1852  0.0271  0.1160
 5715TIP3   OH217108   5.382   2.314   3.460 -0.4079  0.1846  0.5660
 5715TIP3    H117109   5.424   2.266   3.388 -0.8999 -0.7132  0.8518
 5715TIP3    H217110   5.305   2.354   3.420 -1.6385 -1.7035  0.8780
 5716TIP3   OH217111   3.176   4.480   4.025  0.4824  0.2248  0.3111
 5716TIP3    H117112   3.179   4.456   4.117 -1.0304 -0.4435  0.2083
 5716TIP3    H217113   3.143   4.401   3.980  3.3555 -0.3072 -1.1418
 5717TIP3   OH217114   7.085   5.977   3.712 -1.3609  0.3548  0.4951
 5717TIP3    H117115   7.042   6.049   3.666  0.0153  1.6873  1.2290
 5717TIP3    H217116   7.177   6.002   3.715 -0.8561 -1.4286  0.8284
 5718TIP3   OH217117   5.581   4.940   4.197 -0.0962  0.3551  0.3930
 5718TIP3    H117118   5.524   5.012   4.223 -1.9293 -0.2935 -1.5690
 5718TIP3    H217119   5.629   4.973   4.121 -0.0784 -0.1075  0.1978
 5719TIP3   OH217120   1.740   1.105   4.370 -0.3754  0.8047  0.0826
 5719TIP3    H117121   1.773   1.104   4.280 -1.1508  1.2777 -0.2146
 5719TIP3    H217122   1.770   1.188   4.406  0.3483  0.4057  0.4342
 5720TIP3   OH217123   6.980   0.132   5.120 -0.3184  0.1418  0.1503
 5720TIP3    H117124   6.963   0.128   5.026  0.5138 -0.1000 -0.0047
 5720TIP3    H217125   6.895   0.151   5.159 -0.7240  0.0073 -0.6331
 5721TIP3   OH217126   5.226   3.928   2.587 -1.1646 -0.6328  0.6701
 5721TIP3    H117127   5.320   3.909   2.583 -0.9434  0.3484  1.0327
 5721TIP3    H217128   5.218   4.017   2.553 -1.9234 -0.5776  0.9841
 5722TIP3   OH217129   2.270   2.705   1.298 -0.1699  0.2551 -0.0716
 5722TIP3    H117130   2.318   2.729   1.377  2.2537 -0.0511 -1.3536
 5722TIP3    H217131   2.254   2.788   1.253  0.3880  0.2407 -0.2983
 5723TIP3   OH217132   0.797   0.839   4.512  0.1633  0.0947  0.3149
 5723TIP3    H117133   0.731   0.906   4.496  0.9205  0.7919  0.0682
 5723TIP3    H217134   0.839   0.825   4.427  0.5342 -0.1288  0.5288
 5724TIP3   OH217135   1.936   4.066   2.455  0.0107 -0.1050  0.2139
 5724TIP3    H117136   2.008   4.057   2.393  0.5113 -0.6958  0.8677
 5724TIP3    H217137   1.962   4.139   2.512 -1.2838  1.6824 -1.3530
 5725TIP3   OH217138   3.116   2.176   3.684 -0.2516  0.4206  0.4596
 5725TIP3    H117139   3.192   2.201   3.736  0.9858 -1.4294 -0.3474
 5725TIP3    H217140   3.097   2.086   3.712 -0.5780 -0.0175 -1.0891
 5726TIP3   OH217141   3.904   3.394   1.537 -0.3406 -0.1845 -0.2123
 5726TIP3    H117142   3.821   3.368   1.499 -0.5692 -1.7690  1.2408
 5726TIP3    H217143   3.961   3.318   1.525  0.3323  0.2113  0.3765
 5727TIP3   OH217144   6.674   4.868   4.940  0.1678  0.0436  0.4066
 5727TIP3    H117145   6.711   4.955   4.953  1.1569 -0.2384 -0.3732
 5727TIP3    H217146   6.744   4.808   4.966  0.0003 -0.5083 -0.3729
 5728TIP3   OH217147   2.549   6.517   0.500 -0.0991 -0.1939 -0.4385
 5728TIP3    H117148   2.540   6.500   0.407 -0.2687  0.3863 -0.5368
 5728TIP3    H217149   2.643   6.528   0.514 -0.0735 -0.2848 -0.5437
 5729TIP3   OH217150   6.889   0.968   3.948 -0.0471  0.1469 -0.4467
 5729TIP3    H117151   6.947   0.902   3.985 -0.1900  1.1161  1.6496
 5729TIP3    H217152   6.805   0.923   3.936  0.5540 -0.7242 -1.6187
 5730TIP3   OH217153   5.196   6.808   3.111  0.4666  0.2522 -0.1631
 5730TIP3    H117154   5.224   6.811   3.020 -1.0804  2.9884 -0.6886
 5730TIP3    H217155   5.118   6.752   3.111  0.0275  0.8448 -0.7125
 5731TIP3   OH217156   5.555   1.715   0.792 -0.5708  0.1153  0.1453
 5731TIP3    H117157   5.557   1.626   0.758  2.1741 -0.2339  0.9993
 5731TIP3    H217158   5.462   1.731   0.811 -1.0997 -2.6712  0.3459
 5732TIP3   OH217159   5.947   3.283   5.206  0.1357 -0.2332  0.2882
 5732TIP3    H117160   5.901   3.265   5.123  0.1168 -0.1649  0.2835
 5732TIP3    H217161   5.951   3.199   5.250  1.0761 -0.4888 -0.2493
 5733TIP3   OH217162   3.038   1.128   4.969  0.8621 -0.7174  0.1690
 5733TIP3    H117163   3.019   1.210   5.015  0.8146 -0.9013  0.4849
 5733TIP3    H217164   2.954   1.083   4.964  1.3196 -1.9779  2.4547
 5734TIP3   OH217165   2.665   3.846   3.107  0.3801 -0.0169 -0.3172
 5734TIP3    H117166   2.619   3.766   3.134  0.7671 -0.5643 -1.2427
 5734TIP3    H217167   2.737   3.854   3.169 -1.6196  1.5993  2.0425
 5735TIP3   OH217168   1.193   2.510   2.360  0.0773 -0.1457  0.5867
 5735TIP3    H117169   1.286   2.490   2.374 -0.2019 -1.6554  0.4363
 5735TIP3    H217170   1.154   2.427   2.335 -1.4187  0.3791  1.0659
 5736TIP3   OH217171   5.365   0.271   4.113 -0.1742 -0.2793 -0.4213
 5736TIP3    H117172   5.398   0.240   4.028  1.8171 -1.7354  0.7780
 5736TIP3    H217173   5.327   0.193   4.153  0.1779  0.0486  0.5772
 5737TIP3   OH217174   2.076   2.082   1.232 -0.1121 -0.1747  0.3126
 5737TIP3    H117175   2.151   2.099   1.290  0.0053 -0.7902  0.3463
 5737TIP3    H217176   2.109   2.099   1.144  0.3710 -1.3902  0.2346
 5738TIP3   OH217177   4.913   0.680   2.914 -0.1470 -0.4692  0.6699
 5738TIP3    H117178   4.920   0.752   2.977  1.1526 -0.7866  0.9107
 5738TIP3    H217179   4.849   0.620   2.953  0.3606 -0.4759  1.5205
 5739TIP3   OH217180   2.420   5.116   5.690 -0.1227  0.1598  0.2360
 5739TIP3    H117181   2.399   5.158   5.607 -0.0895 -2.7339 -1.3826
 5739TIP3    H217182   2.514   5.132   5.701  0.0835 -0.2178 -0.8156
 5740TIP3   OH217183   1.916   5.967   4.022 -0.5457 -0.2023  0.0579
 5740TIP3    H117184   1.839   5.939   4.072  0.3097 -0.5146  1.2335
 5740TIP3    H217185   1.980   5.897   4.034  0.7498  1.0923  1.0126
 5741TIP3   OH217186   4.469   2.470   5.663  0.3229 -0.1344  0.8487
 5741TIP3    H117187   4.552   2.444   5.622  1.1095 -0.7628  2.7438
 5741TIP3    H217188   4.406   2.404   5.634  0.8550 -0.5661  0.6585
 5742TIP3   OH217189   5.110   2.929   5.816 -0.2033  0.2543 -0.3098
 5742TIP3    H117190   5.191   2.966   5.780  0.0642  0.2532  0.2845
 5742TIP3    H217191   5.140   2.868   5.884 -0.7192  0.6584  0.2789
 5743TIP3   OH217192   1.193   5.844   2.995  0.2083  0.7166  0.4471
 5743TIP3    H117193   1.192   5.765   3.049 -0.9466 -0.2317 -0.8714
 5743TIP3    H217194   1.284   5.857   2.971  0.2851 -0.9151 -0.2440
 5744TIP3   OH217195   4.369   1.556   4.698  0.3151  0.3145 -0.2291
 5744TIP3    H117196   4.309   1.592   4.632  1.6326  0.6503 -1.2833
 5744TIP3    H217197   4.405   1.633   4.741  0.7162  0.1494 -0.2682
 5745TIP3   OH217198   5.847   1.887   2.423  0.8498 -0.7421  0.4835
 5745TIP3    H117199   5.912   1.845   2.480  1.0528 -2.3940 -0.8988
 5745TIP3    H217200   5.870   1.859   2.335 -0.9763 -0.3221 -0.1675
 5746TIP3   OH217201   3.685   5.895   3.761  0.1146  0.1675 -0.3559
 5746TIP3    H117202   3.725   5.817   3.723 -1.2879  0.0311 -1.6638
 5746TIP3    H217203   3.662   5.869   3.850  2.0132 -0.0323  0.1288
 5747TIP3   OH217204   3.593   4.624   2.467 -0.2870 -0.4917 -0.0486
 5747TIP3    H117205   3.622   4.571   2.393  1.2240 -0.0174  0.1740
 5747TIP3    H217206   3.505   4.654   2.442  0.5775  0.5422 -2.1638
 5748TIP3   OH217207   6.669   4.362   0.678  0.3709  0.3219 -0.2817
 5748TIP3    H117208   6.748   4.416   0.683  0.9600 -0.5969  0.5976
 5748TIP3    H217209   6.598   4.423   0.695  0.9383  1.0297 -0.3841
 5749TIP3   OH217210   0.827   2.210   0.326  0.0220 -0.4307 -0.0480
 5749TIP3    H117211   0.868   2.296   0.324  1.2531 -0.9894 -1.8305
 5749TIP3    H217212   0.886   2.157   0.381 -0.9426 -0.0822  1.3754
 5750TIP3   OH217213   0.038   2.769   1.166 -0.9140 -0.6023 -0.1329
 5750TIP3    H117214   0.130   2.793   1.157 -1.1506 -0.2085 -1.9300
 5750TIP3    H217215   0.038   2.694   1.225  0.6198 -0.9905 -0.5846
 5751TIP3   OH217216   1.318   6.081   2.758  0.0788  0.1984  0.4984
 5751TIP3    H117217   1.224   6.076   2.740  0.4170  0.2611 -1.5488
 5751TIP3    H217218   1.326   6.150   2.824 -1.1757  1.7721 -0.8938
 5752TIP3   OH217219   3.660   0.169   5.009  0.1838  0.9554 -0.3383
 5752TIP3    H117220   3.682   0.241   5.069  1.0492 -0.0406  0.5997
 5752TIP3    H217221   3.574   0.139   5.038  1.0317 -0.1999  1.1738
 5753TIP3   OH217222   5.804   0.949   5.406  0.7528 -0.0144  0.1190
 5753TIP3    H117223   5.879   0.990   5.362 -0.0885 -0.5038 -1.8983
 5753TIP3    H217224   5.763   0.896   5.337 -1.2753  0.0184  1.2472
 5754TIP3   OH217225   1.150   5.792   3.467 -0.1683  0.6293  0.5289
 5754TIP3    H117226   1.080   5.745   3.421  0.6426  0.2197 -0.3463
 5754TIP3    H217227   1.229   5.772   3.416  1.0012 -0.7153  2.6826
 5755TIP3   OH217228   1.131   6.064   2.388  0.2187 -0.6417 -1.0381
 5755TIP3    H117229   1.113   6.134   2.325 -0.6588  0.7182  0.6427
 5755TIP3    H217230   1.177   6.108   2.459  3.2157 -2.5439 -1.5945
 5756TIP3   OH217231   1.273   0.867   4.207 -0.1069  0.3001  0.0787
 5756TIP3    H117232   1.260   0.916   4.288  1.0899 -0.2299  0.6152
 5756TIP3    H217233   1.227   0.784   4.220  1.2061 -0.3383  0.7696
 5757TIP3   OH217234   3.472   3.980   4.488 -0.0694 -0.1408  0.0389
 5757TIP3    H117235   3.396   3.932   4.521 -2.0555  1.1516 -2.3007
 5757TIP3    H217236   3.514   3.919   4.426 -0.1650 -0.3046  0.1354
 5758TIP3   OH217237   6.161   5.562   3.304 -0.3799  0.2147  0.5610
 5758TIP3    H117238   6.165   5.584   3.211  0.5107  1.7959  0.9440
 5758TIP3    H217239   6.201   5.476   3.310  0.1307  0.3685 -0.4403
 5759TIP3   OH217240   1.872   2.775   1.783 -0.1102  0.6450 -0.2062
 5759TIP3    H117241   1.781   2.745   1.779 -0.2112  0.7813  0.8186
 5759TIP3    H217242   1.920   2.701   1.820  0.3065  0.3804 -1.2210
 5760TIP3   OH217243   6.979   0.362   5.336 -0.0083 -0.4284  0.5091
 5760TIP3    H117244   6.955   0.292   5.396 -0.5448  0.4396  1.3319
 5760TIP3    H217245   6.897   0.385   5.292  0.1571 -0.3073  0.2628
 5761TIP3   OH217246   0.439   5.103   0.951 -0.2509 -0.5699  0.2077
 5761TIP3    H117247   0.474   5.021   0.914 -1.1148 -1.0117  0.3346
 5761TIP3    H217248   0.378   5.074   1.019  1.3088  0.2109  2.0465
 5762TIP3   OH217249   2.148   3.552   2.028  0.1058  0.1654  0.4522
 5762TIP3    H117250   2.117   3.494   2.097  1.0375 -0.0398  0.7085
 5762TIP3    H217251   2.089   3.628   2.031 -2.2947 -1.4846 -1.0461
 5763TIP3   OH217252   3.952   3.556   1.757 -0.3168  0.2559 -0.6673
 5763TIP3    H117253   4.020   3.514   1.810  1.6187  3.1265 -0.6412
 5763TIP3    H217254   3.940   3.497   1.683  2.0374 -0.5199 -0.5334
 5764TIP3   OH217255   2.761   3.615   2.744 -0.0494 -0.1759  0.0102
 5764TIP3    H117256   2.668   3.599   2.725 -0.0149  0.5106 -0.7608
 5764TIP3    H217257   2.782   3.551   2.813 -0.9093 -0.7976 -0.2841
 5765TIP3   OH217258   4.831   3.899   3.635  0.3411 -0.2316  0.2804
 5765TIP3    H117259   4.748   3.852   3.631  0.4946 -0.9061  2.9183
 5765TIP3    H217260   4.807   3.991   3.627 -0.6743 -0.4311  0.8926
 5766TIP3   OH217261   1.142   3.320   5.514 -0.0266 -0.1926 -0.1628
 5766TIP3    H117262   1.199   3.274   5.451  1.5744  1.1256  0.2530
 5766TIP3    H217263   1.080   3.367   5.459  0.2779 -0.3956 -0.6955
 5767TIP3   OH217264   6.033   4.924   5.112 -0.6973  0.1793  0.4020
 5767TIP3    H117265   5.981   4.915   5.192  0.7616  0.6307  1.4412
 5767TIP3    H217266   6.098   4.854   5.118 -0.3753  0.4156 -0.2475
 5768TIP3   OH217267   0.745   5.417   5.733  0.3027 -0.0557 -0.5855
 5768TIP3    H117268   0.740   5.408   5.828  0.7880 -0.3870 -0.5867
 5768TIP3    H217269   0.833   5.386   5.711 -0.2294 -1.1153 -1.2770
 5769TIP3   OH217270   4.565   0.643   3.606 -0.0109 -1.0266  0.0478
 5769TIP3    H117271   4.618   0.684   3.674  1.3094 -0.6866 -1.1467
 5769TIP3    H217272   4.526   0.567   3.650  0.9097 -0.8965  1.1483
 5770TIP3   OH217273   2.949   5.353   5.245 -0.2480  0.5495 -0.1650
 5770TIP3    H117274   3.019   5.336   5.309 -1.0949  0.1017  0.6600
 5770TIP3    H217275   2.986   5.419   5.186  2.0933 -1.9260 -1.6884
 5771TIP3   OH217276   2.553   5.588   1.066 -0.2519  0.6418  0.0745
 5771TIP3    H117277   2.474   5.574   1.118  0.2762  2.5084  1.4843
 5771TIP3    H217278   2.524   5.646   0.995 -0.5713 -0.3812 -0.6472
 5772TIP3   OH217279   3.045   1.945   2.157 -0.0225 -0.2108  0.0313
 5772TIP3    H117280   3.107   1.919   2.225  1.2725 -1.7914 -1.6629
 5772TIP3    H217281   3.054   2.041   2.152  1.4185 -0.2891  0.6553
 5773TIP3   OH217282   6.904   2.070   4.383  0.5746 -0.6080 -0.1702
 5773TIP3    H117283   6.889   2.096   4.474 -0.6941 -0.8334 -0.2972
 5773TIP3    H217284   6.822   2.029   4.356  0.9037 -0.4730 -1.4391
 5774TIP3   OH217285   6.746   0.105   3.304 -0.3535  0.2780 -0.1906
 5774TIP3    H117286   6.654   0.078   3.307 -0.1652 -0.3185  0.7849
 5774TIP3    H217287   6.748   0.180   3.244 -1.0881 -1.1663 -2.1442
 5775TIP3   OH217288   5.340   2.153   0.188 -0.1528 -0.3393 -0.5098
 5775TIP3    H117289   5.282   2.220   0.152  0.4477 -0.4205 -1.7040
 5775TIP3    H217290   5.303   2.132   0.273 -0.9483  0.7559 -0.5624
 5776TIP3   OH217291   6.951   1.970   2.672 -0.2391  0.1146  0.6632
 5776TIP3    H117292   7.018   2.019   2.719 -0.3345  1.0791 -0.1705
 5776TIP3    H217293   6.947   1.885   2.716  1.8805 -0.1532  0.4292
 5777TIP3   OH217294   2.733   1.652   5.405  0.2019 -0.0495 -0.4266
 5777TIP3    H117295   2.719   1.720   5.338  0.1236  0.5055  0.1460
 5777TIP3    H217296   2.756   1.574   5.355 -0.5142  0.1833 -1.1417
 5778TIP3   OH217297   6.404   4.245   3.217 -0.0540 -0.2318  0.5267
 5778TIP3    H117298   6.421   4.192   3.140  1.1575  0.5585  0.2307
 5778TIP3    H217299   6.362   4.324   3.184 -3.5324 -1.6426  1.1301
 5779TIP3   OH217300   6.225   3.034   5.512 -0.0288 -0.3953  0.6763
 5779TIP3    H117301   6.142   2.994   5.488  0.8378 -0.8750 -1.9187
 5779TIP3    H217302   6.270   2.968   5.565  0.1392 -1.6657 -0.9791
 5780TIP3   OH217303   4.698   2.639   4.476  0.1385 -0.1834  0.1982
 5780TIP3    H117304   4.777   2.586   4.487  0.9399  0.8884 -0.2138
 5780TIP3    H217305   4.730   2.728   4.460 -1.1489  0.2323 -0.2386
 5781TIP3   OH217306   3.898   5.492   5.034  0.0269  0.0012 -0.3902
 5781TIP3    H117307   3.902   5.529   5.122  0.7991  0.1893 -0.4955
 5781TIP3    H217308   3.805   5.494   5.011  0.0251  1.8729 -0.3767
 5782TIP3   OH217309   3.188   2.377   5.687  0.0679  0.3042 -0.1221
 5782TIP3    H117310   3.201   2.437   5.613 -2.6849 -1.6285 -2.3673
 5782TIP3    H217311   3.116   2.416   5.737  0.6302  0.6040  0.4764
 5783TIP3   OH217312   1.824   5.858   3.074  0.4528  0.3944 -0.4946
 5783TIP3    H117313   1.785   5.771   3.078  0.5071  0.3868  0.0028
 5783TIP3    H217314   1.818   5.883   2.982  0.9419 -0.3670 -0.7497
 5784TIP3   OH217315   2.115   0.252   2.778 -0.0946 -0.6784 -1.0745
 5784TIP3    H117316   2.188   0.192   2.793 -0.0390 -0.1910  0.9435
 5784TIP3    H217317   2.050   0.225   2.844  0.1923  1.8328  0.3509
 5785TIP3   OH217318   0.067   1.002   1.661  0.1667  0.0064  0.0008
 5785TIP3    H117319   0.076   0.922   1.713 -2.2013 -0.9504 -0.9169
 5785TIP3    H217320   0.156   1.022   1.632  1.2097 -0.7814  2.3573
 5786TIP3   OH217321   0.932   4.109   1.237 -0.5143  0.9268  0.2094
 5786TIP3    H117322   0.916   4.170   1.166  0.0223 -1.8554 -2.5257
 5786TIP3    H217323   1.027   4.108   1.248 -0.5807  1.2016  0.8657
 5787TIP3   OH217324   0.428   3.485   0.963  0.3267 -0.2868 -0.3306
 5787TIP3    H117325   0.360   3.420   0.982  0.9492 -0.9646 -0.3668
 5787TIP3    H217326   0.397   3.565   1.005 -0.5326 -0.5645 -0.4214
 5788TIP3   OH217327   2.804   0.641   0.910  0.1374  0.1371 -0.2178
 5788TIP3    H117328   2.808   0.546   0.900  1.4998  0.2103 -0.6189
 5788TIP3    H217329   2.858   0.658   0.987  0.2031  0.6194 -0.3709
 5789TIP3   OH217330   1.931   2.592   5.548  0.3813  0.1104  0.2381
 5789TIP3    H117331   1.846   2.609   5.588  0.3368  1.3159 -0.3448
 5789TIP3    H217332   1.915   2.598   5.454  1.1592  0.6016  0.1289
 5790TIP3   OH217333   5.721   6.599   0.941 -0.0206  0.6937  0.0540
 5790TIP3    H117334   5.679   6.547   0.874  1.6605  0.8254 -1.1705
 5790TIP3    H217335   5.716   6.689   0.909 -2.1610  1.2802  1.7526
 5791TIP3   OH217336   1.827   3.658   2.830  0.1162  0.2870 -1.0734
 5791TIP3    H117337   1.746   3.665   2.780  0.0139  1.6011 -0.7679
 5791TIP3    H217338   1.869   3.743   2.819 -0.1690  0.8429  1.4914
 5792TIP3   OH217339   6.633   1.501   5.479  0.3149  0.2464  0.1944
 5792TIP3    H117340   6.658   1.441   5.549 -0.0532  0.2862  0.3593
 5792TIP3    H217341   6.662   1.587   5.510  1.6748  0.0495 -0.4399
 5793TIP3   OH217342   0.474   2.219   1.857 -0.4786 -0.3949 -0.2184
 5793TIP3    H117343   0.424   2.144   1.889 -0.4183  0.1311  1.1835
 5793TIP3    H217344   0.412   2.292   1.858 -0.5108 -0.3937 -1.4713
 5794TIP3   OH217345   0.930   5.782   4.939 -0.2783 -0.2149  0.7019
 5794TIP3    H117346   0.993   5.711   4.950 -0.2077 -0.2837 -0.1191
 5794TIP3    H217347   0.965   5.853   4.993 -1.3104 -1.3809  3.0409
 5795TIP3   OH217348   4.392   0.708   3.915  0.2219 -0.0805 -0.1286
 5795TIP3    H117349   4.334   0.679   3.986 -2.3351  1.5370 -1.4034
 5795TIP3    H217350   4.426   0.627   3.877 -0.1571 -1.0423  1.4868
 5796TIP3   OH217351   2.277   3.494   2.470  0.2121  0.0317  0.3395
 5796TIP3    H117352   2.250   3.501   2.561  1.3178 -0.6247  0.7462
 5796TIP3    H217353   2.269   3.400   2.450  0.5855  0.0748 -0.0336
 5797TIP3   OH217354   4.002   6.494   1.083 -0.4685  0.4585 -0.7022
 5797TIP3    H117355   4.037   6.481   1.172 -2.5012 -0.9814 -0.0453
 5797TIP3    H217356   4.069   6.546   1.039  2.1941 -1.5462  0.6415
 5798TIP3   OH217357   3.157   4.948   1.959  0.0048 -0.7219  0.3246
 5798TIP3    H117358   3.156   4.998   2.040 -0.0909 -1.5439  0.8337
 5798TIP3    H217359   3.129   5.011   1.892 -0.0386 -0.0779  0.9369
 5799TIP3   OH217360   0.664   1.434   0.968  0.0285  0.9346  0.4902
 5799TIP3    H117361   0.570   1.422   0.986  0.2296 -1.2717  0.3696
 5799TIP3    H217362   0.694   1.347   0.942  2.5012  1.1470  2.2716
 5800TIP3   OH217363   0.383   1.612   0.590 -0.1647 -0.3034 -0.2285
 5800TIP3    H117364   0.412   1.618   0.499  1.4730  1.0061  0.3178
 5800TIP3    H217365   0.464   1.594   0.639 -0.9425 -0.5048  1.0192
 5801TIP3   OH217366   5.345   1.269   1.637 -0.4872 -0.1591 -0.7938
 5801TIP3    H117367   5.253   1.248   1.620 -0.7650 -0.4491  0.9277
 5801TIP3    H217368   5.390   1.185   1.632 -0.6937 -0.3678  0.5487
 5802TIP3   OH217369   5.995   4.590   1.307  0.0124  0.2707  0.5431
 5802TIP3    H117370   5.946   4.602   1.226  1.8595 -1.0658 -0.8539
 5802TIP3    H217371   5.944   4.526   1.357 -0.8038  0.6072  0.1572
 5803TIP3   OH217372   7.108   1.132   3.901 -0.0755 -0.4532  0.3422
 5803TIP3    H117373   7.021   1.100   3.878 -0.2968  0.4225 -0.0632
 5803TIP3    H217374   7.166   1.097   3.833 -0.3774  0.3160 -0.3170
 5804TIP3   OH217375   5.190   4.440   0.237  0.3000  0.2907  0.8695
 5804TIP3    H117376   5.215   4.415   0.149 -1.3673  0.1681  0.3857
 5804TIP3    H217377   5.250   4.393   0.294  0.8808 -0.2662 -0.1789
 5805TIP3   OH217378   1.010   5.666   3.997  0.0074 -0.0405  0.0335
 5805TIP3    H117379   0.969   5.589   4.038 -1.8007  0.6956 -0.2844
 5805TIP3    H217380   1.056   5.631   3.920  1.5493 -1.1329  1.4052
 5806TIP3   OH217381   4.579   3.229   1.970  0.3662 -0.7090  0.4181
 5806TIP3    H117382   4.645   3.299   1.973  0.1454 -0.1028 -3.6130
 5806TIP3    H217383   4.627   3.152   1.941 -0.2701 -0.9300 -0.0574
 5807TIP3   OH217384   2.922   2.681   3.428  0.5128 -0.6940  0.3211
 5807TIP3    H117385   2.917   2.769   3.392 -0.7873 -0.5546  0.7894
 5807TIP3    H217386   3.008   2.649   3.402 -0.3154 -0.6282 -3.0078
 5808TIP3   OH217387   2.456   4.306   4.402 -0.3622 -0.0648  0.0016
 5808TIP3    H117388   2.443   4.395   4.434 -0.2758 -0.2052  0.4373
 5808TIP3    H217389   2.439   4.311   4.308 -1.5499  0.1696  0.2157
 5809TIP3   OH217390   1.406   1.346   3.726 -0.1605  0.1491 -0.2952
 5809TIP3    H117391   1.379   1.414   3.787 -0.0289  0.3600 -0.4716
 5809TIP3    H217392   1.394   1.385   3.640 -1.4609 -0.5535 -0.4484
 5810TIP3   OH217393   1.264   5.427   1.911  0.5467  0.1511 -0.1934
 5810TIP3    H117394   1.287   5.499   1.852  1.1753 -1.6381 -2.2718
 5810TIP3    H217395   1.199   5.465   1.970  2.6725  3.0785  0.4931
 5811TIP3   OH217396   1.065   2.138   0.491 -0.1232 -0.0429  0.1441
 5811TIP3    H117397   1.095   2.096   0.571 -1.9816 -1.0108  0.3924
 5811TIP3    H217398   1.084   2.231   0.504  0.6671 -0.3356  1.1959
 5812TIP3   OH217399   6.324   1.365   3.337 -0.6273  0.1493 -0.3485
 5812TIP3    H117400   6.263   1.304   3.297 -0.6826 -0.7231  1.0218
 5812TIP3    H217401   6.279   1.450   3.335 -1.2049 -0.1689 -0.8115
 5813TIP3   OH217402   2.953   4.426   4.358 -0.3379  0.2935 -0.4658
 5813TIP3    H117403   3.034   4.475   4.344  0.4320 -0.1596  1.9114
 5813TIP3    H217404   2.885   4.479   4.318  0.3243  3.7525  2.5506
 5814TIP3   OH217405   3.063   4.068   0.534 -0.3098 -0.0529  0.3980
 5814TIP3    H117406   2.985   4.019   0.558 -1.0731  1.1241  0.3654
 5814TIP3    H217407   3.031   4.140   0.480  0.8205  0.3482  0.2278
 5815TIP3   OH217408   6.877   5.040   5.521 -0.6809 -0.6020  0.1620
 5815TIP3    H117409   6.824   5.115   5.547  0.0552 -0.0929  0.2163
 5815TIP3    H217410   6.912   5.064   5.435 -1.6362 -1.5163 -0.5091
 5816TIP3   OH217411   5.430   1.519   4.053  0.0365 -0.2010 -0.1724
 5816TIP3    H117412   5.364   1.482   3.994 -0.3425 -1.8022  1.1932
 5816TIP3    H217413   5.433   1.612   4.030  0.0804 -0.7887 -2.8487
 5817TIP3   OH217414   5.934   3.006   5.790  0.6633  0.0220 -0.2272
 5817TIP3    H117415   5.953   3.083   5.845 -1.1828  0.0688  0.4030
 5817TIP3    H217416   5.967   3.030   5.704  2.5956  0.4083  0.5567
 5818TIP3   OH217417   6.362   6.089   3.975  0.3542  0.3576 -0.3253
 5818TIP3    H117418   6.413   6.114   3.898  1.0321 -0.2011 -0.0612
 5818TIP3    H217419   6.366   6.165   4.033 -0.1469  0.7749 -0.8252
 5819TIP3   OH217420   5.914   3.328   2.034  0.3533 -0.2884  0.5102
 5819TIP3    H117421   5.905   3.386   2.109  0.3205  1.9656 -1.1285
 5819TIP3    H217422   5.836   3.273   2.035 -0.1914  0.4946  1.4765
 5820TIP3   OH217423   5.888   1.972   0.670 -0.1550  0.1361  0.6059
 5820TIP3    H117424   5.902   1.912   0.596  0.7357  1.1712 -0.0893
 5820TIP3    H217425   5.903   1.918   0.748 -1.8681 -1.1830  0.1001
 5821TIP3   OH217426   0.728   1.093   4.386 -0.4763  0.2892 -0.1323
 5821TIP3    H117427   0.786   1.124   4.317 -2.5766  1.6489 -1.4139
 5821TIP3    H217428   0.648   1.067   4.340 -1.1644 -0.8177  1.6082
 5822TIP3   OH217429   0.232   0.848   2.002  0.1612  0.1831  0.0024
 5822TIP3    H117430   0.199   0.826   1.915 -1.5646  0.7178  0.4744
 5822TIP3    H217431   0.253   0.941   1.997 -1.1666  0.5380  0.4653
 5823TIP3   OH217432   7.101   2.444   4.507 -0.1096  0.0702 -0.1398
 5823TIP3    H117433   7.091   2.494   4.589  1.1173  1.0084 -0.5263
 5823TIP3    H217434   7.109   2.511   4.439  0.7297 -0.6666 -0.7849
 5824TIP3   OH217435   6.450   3.764   0.056  0.1549 -0.2548 -0.0664
 5824TIP3    H117436   6.523   3.733   0.002 -0.3374  0.8467 -1.4348
 5824TIP3    H217437   6.491   3.821   0.121  0.8543 -2.2762  1.3554
 5825TIP3   OH217438   4.608   1.066   0.750  0.3555 -0.2914  0.2596
 5825TIP3    H117439   4.566   0.988   0.786  2.0704 -0.6884  1.5320
 5825TIP3    H217440   4.684   1.080   0.806  0.5018  1.8810 -0.4032
 5826TIP3   OH217441   6.423   2.796   2.674  0.3170  0.1422  0.1245
 5826TIP3    H117442   6.496   2.853   2.650  0.1963 -0.4965 -1.8989
 5826TIP3    H217443   6.463   2.710   2.687 -0.0589 -0.2539 -1.1856
 5827TIP3   OH217444   0.075   1.307   4.479  0.1533 -0.4694  0.3842
 5827TIP3    H117445   0.028   1.363   4.419  0.0517  0.3889  1.2390
 5827TIP3    H217446   0.146   1.362   4.513  1.7894 -1.7088 -0.8384
 5828TIP3   OH217447   1.198   4.062   1.231  0.0801  0.2076 -0.2987
 5828TIP3    H117448   1.259   4.064   1.305  0.0497  1.2992 -0.2964
 5828TIP3    H217449   1.213   3.976   1.191  0.7419 -0.0303  0.4328
 5829TIP3   OH217450   6.862   3.321   4.137  0.0411  0.2624 -1.2957
 5829TIP3    H117451   6.940   3.374   4.122 -0.3720  1.0818 -0.6479
 5829TIP3    H217452   6.805   3.341   4.063 -0.8195  2.0897 -0.2070
 5830TIP3   OH217453   1.898   1.111   4.139  0.4025 -0.0697  0.2983
 5830TIP3    H117454   1.872   1.182   4.079  1.1567  0.2033  0.2757
 5830TIP3    H217455   1.926   1.040   4.081 -0.7860 -0.5724  0.3150
 5831TIP3   OH217456   6.924   0.532   1.771 -0.3752 -0.3230 -0.1402
 5831TIP3    H117457   6.965   0.488   1.697  1.2030 -0.8472  0.9812
 5831TIP3    H217458   6.837   0.493   1.778 -0.6297 -0.1216 -1.8014
 5832TIP3   OH217459   4.103   6.731   0.084 -0.1057  0.7537  0.2553
 5832TIP3    H117460   4.068   6.698   0.167  0.7786  0.6347  0.5857
 5832TIP3    H217461   4.197   6.737   0.098 -0.1061  2.3044 -0.2001
 5833TIP3   OH217462   5.268   1.021   2.201 -0.0477 -0.4606 -0.4125
 5833TIP3    H117463   5.245   1.109   2.232 -0.6076 -1.0825  1.0091
 5833TIP3    H217464   5.352   1.033   2.156  0.7484  0.5396  1.2509
 5834TIP3   OH217465   5.223   3.821   4.889 -0.2599 -0.3773 -0.0117
 5834TIP3    H117466   5.158   3.886   4.865  2.0123  1.0776 -2.7659
 5834TIP3    H217467   5.225   3.760   4.816  1.0903 -0.6847  0.2428
 5835TIP3   OH217468   3.539   3.518   1.562  0.6407  0.1181  0.1266
 5835TIP3    H117469   3.565   3.440   1.512 -1.9056  0.6118 -2.1911
 5835TIP3    H217470   3.543   3.589   1.499 -1.2492  1.0740  1.0210
 5836TIP3   OH217471   5.543   0.052   1.597  0.1591 -0.1454  0.2650
 5836TIP3    H117472   5.561  -0.027   1.546  0.5463  0.7080 -0.9826
 5836TIP3    H217473   5.626   0.072   1.640 -0.0291 -0.5917  0.8378
 5837TIP3   OH217474   1.427   6.437   4.736 -1.0217 -0.0044 -0.4742
 5837TIP3    H117475   1.464   6.460   4.650 -0.8815  0.5881 -0.2562
 5837TIP3    H217476   1.501   6.399   4.784 -0.3830  2.1027  0.3232
 5838TIP3   OH217477   3.363   4.666   1.619  0.0594 -0.3139 -0.2189
 5838TIP3    H117478   3.399   4.578   1.611 -0.9166 -0.6444 -1.1258
 5838TIP3    H217479   3.383   4.709   1.536 -1.2226 -0.3577 -0.5687
 5839TIP3   OH217480   0.170   0.329   4.129  0.4689 -0.7575 -0.3793
 5839TIP3    H117481   0.192   0.419   4.106  0.8889 -0.6490  0.4104
 5839TIP3    H217482   0.245   0.278   4.100  0.2748 -0.8434 -0.7358
 5840TIP3   OH217483   5.691   6.679   0.142  0.1663 -0.4641 -0.1586
 5840TIP3    H117484   5.749   6.603   0.148 -0.4503 -0.8409  1.5745
 5840TIP3    H217485   5.670   6.700   0.233  0.8002  2.1848 -0.5701
 5841TIP3   OH217486   0.749   1.397   4.514  0.4184 -0.2203 -0.0816
 5841TIP3    H117487   0.802   1.384   4.435  1.9156  0.7050  0.7137
 5841TIP3    H217488   0.742   1.310   4.553 -0.0047 -0.6163 -1.0136
 5842TIP3   OH217489   6.791   4.665   0.454  0.2318  0.5952  0.6548
 5842TIP3    H117490   6.801   4.592   0.393 -2.8704 -0.2765  1.0337
 5842TIP3    H217491   6.858   4.650   0.520  0.3077 -1.3764  0.1919
 5843TIP3   OH217492   3.901   1.482   3.319  0.1401  0.4711  0.5115
 5843TIP3    H117493   3.928   1.557   3.265 -0.5298  0.1893 -0.2356
 5843TIP3    H217494   3.806   1.477   3.307 -0.0034  0.3127  1.6169
 5844TIP3   OH217495   2.273   5.348   3.632  0.7999 -0.2885  0.2540
 5844TIP3    H117496   2.335   5.342   3.560  0.2812 -3.1508 -0.0604
 5844TIP3    H217497   2.202   5.403   3.599  2.9852  3.0298  0.6066
 5845TIP3   OH217498   0.229   5.574   4.673  0.0629 -0.0084  0.0060
 5845TIP3    H117499   0.139   5.606   4.682  0.0546  0.5166 -1.6108
 5845TIP3    H217500   0.284   5.651   4.686  0.1361  0.2576 -1.6100
 5846TIP3   OH217501   5.390   4.172   5.443  0.5580 -0.0414 -0.1448
 5846TIP3    H117502   5.444   4.093   5.444 -0.5839 -0.8632 -0.8461
 5846TIP3    H217503   5.325   4.156   5.374 -0.4220  1.0062  0.4999
 5847TIP3   OH217504   6.604   0.466   2.867  0.1218 -0.1766  0.1950
 5847TIP3    H117505   6.511   0.480   2.884 -0.2534  0.9084 -2.3113
 5847TIP3    H217506   6.611   0.374   2.845 -0.3465 -0.2934  0.5177
 5848TIP3   OH217507   6.551   3.810   0.726 -0.1259  0.5256  0.4019
 5848TIP3    H117508   6.645   3.791   0.733 -0.3512  0.0645  3.2222
 5848TIP3    H217509   6.545   3.905   0.735  0.1260  0.6870 -0.9849
 5849TIP3   OH217510   3.195   3.941   5.215  0.1741 -0.3023 -0.0525
 5849TIP3    H117511   3.246   3.865   5.243  0.3380 -0.6369 -1.1787
 5849TIP3    H217512   3.258   3.998   5.172 -0.2546 -0.3668 -0.7902
 5850TIP3   OH217513   6.658   4.896   1.403 -0.0170  0.2316 -0.4169
 5850TIP3    H117514   6.717   4.875   1.331 -1.5168  3.1299 -2.7604
 5850TIP3    H217515   6.708   4.955   1.459  0.5597 -0.4933 -0.1680
 5851TIP3   OH217516   4.481   0.181   3.853 -0.2497  0.0668  0.0036
 5851TIP3    H117517   4.475   0.093   3.889 -2.7517  0.3692  0.5593
 5851TIP3    H217518   4.454   0.239   3.925  0.7740  1.2435 -0.5184
 5852TIP3   OH217519   3.896   1.542   5.207  0.2164  0.1127 -0.0231
 5852TIP3    H117520   3.883   1.457   5.165 -0.6019  0.7488 -1.1110
 5852TIP3    H217521   3.983   1.569   5.180  1.0019 -0.9152  1.3538
 5853TIP3   OH217522   4.926   2.656   2.700  0.1381  0.0692  0.3035
 5853TIP3    H117523   4.979   2.732   2.675 -0.4187  0.4199  0.1659
 5853TIP3    H217524   4.845   2.694   2.735 -0.3066 -0.4608 -0.1277
 5854TIP3   OH217525   1.060   3.007   4.323 -0.6196 -0.3771 -0.6260
 5854TIP3    H117526   1.025   2.938   4.379  2.6161 -0.8445  1.1073
 5854TIP3    H217527   1.067   3.083   4.381 -2.4260  0.9538 -2.0271
 5855TIP3   OH217528   6.534   5.003   3.454 -0.0417 -0.5166 -0.3678
 5855TIP3    H117529   6.445   4.968   3.455 -0.5165  0.6050 -1.2768
 5855TIP3    H217530   6.538   5.056   3.375  2.0755 -2.1130 -1.4423
 5856TIP3   OH217531   3.191   5.404   1.710  0.1872  0.4097  0.4769
 5856TIP3    H117532   3.178   5.377   1.619  1.7193 -0.9129  0.6016
 5856TIP3    H217533   3.279   5.443   1.711  0.3465  0.0485  1.4507
 5857TIP3   OH217534   2.483   3.729   5.600  0.7352  0.1631 -0.1626
 5857TIP3    H117535   2.535   3.808   5.590 -2.6091  2.6590  0.4033
 5857TIP3    H217536   2.425   3.728   5.523  0.8794 -1.9574 -0.3144
 5858TIP3   OH217537   6.495   5.029   0.687  0.4653  0.5629  0.3400
 5858TIP3    H117538   6.556   4.984   0.629 -0.3178  1.3510 -1.1539
 5858TIP3    H217539   6.541   5.036   0.771  0.6488 -2.8840  0.6325
 5859TIP3   OH217540   4.904   2.061   5.397 -0.1140 -0.1757 -0.0254
 5859TIP3    H117541   4.936   2.084   5.484  0.5645 -0.0214 -0.3160
 5859TIP3    H217542   4.976   2.015   5.355  0.2776  1.3952 -1.1889
 5860TIP3   OH217543   4.031   4.402   5.898 -0.0064 -0.0907 -0.3713
 5860TIP3    H117544   4.016   4.317   5.857 -0.7046  0.5703 -1.5801
 5860TIP3    H217545   3.951   4.452   5.877  0.9547  1.2940 -0.8797
 5861TIP3   OH217546   7.038   0.102   0.325  0.2693  0.0597 -0.0230
 5861TIP3    H117547   7.000   0.114   0.238  1.5660 -0.5148 -0.6995
 5861TIP3    H217548   6.963   0.081   0.381 -0.7266  1.4432 -0.7644
 5862TIP3   OH217549   4.370   1.710   3.732 -0.1596  0.1353 -0.2307
 5862TIP3    H117550   4.333   1.702   3.644 -0.2835 -0.1455 -0.1559
 5862TIP3    H217551   4.464   1.722   3.718 -0.0567 -0.7707 -0.3794
 5863TIP3   OH217552   5.144   4.943   1.743 -0.2170 -0.0649  0.5092
 5863TIP3    H117553   5.087   4.873   1.772 -0.2787  0.0112  0.5708
 5863TIP3    H217554   5.110   5.021   1.786 -1.0699  0.2742 -0.7039
 5864TIP3   OH217555   2.764   1.163   0.857  0.3341  0.6404 -0.1713
 5864TIP3    H117556   2.714   1.144   0.778  0.0736 -1.7231  0.4835
 5864TIP3    H217557   2.855   1.168   0.828  0.1414  0.7916 -0.7560
 5865TIP3   OH217558   4.703   5.573   5.014  1.2068  0.7086  0.3977
 5865TIP3    H117559   4.791   5.535   5.022  0.1826 -1.6856  0.9019
 5865TIP3    H217560   4.688   5.577   4.919  0.7972 -1.6020  0.3148
 5866TIP3   OH217561   2.204   1.238   3.367  0.3238 -0.1722 -0.6075
 5866TIP3    H117562   2.187   1.179   3.293  2.5287 -1.2400 -0.3206
 5866TIP3    H217563   2.270   1.193   3.419  0.9108  1.8596  0.4987
 5867TIP3   OH217564   6.659   5.795   0.522 -0.0447 -0.0681 -0.3698
 5867TIP3    H117565   6.753   5.813   0.523  0.0823 -0.6641 -0.8926
 5867TIP3    H217566   6.630   5.824   0.436 -0.6709  1.6611  0.3804
 5868TIP3   OH217567   1.306   0.359   4.442  0.2654 -0.7098  0.2881
 5868TIP3    H117568   1.217   0.390   4.427  0.2541  0.5859  2.4895
 5868TIP3    H217569   1.342   0.421   4.506  2.3136 -1.9280  0.4079
 5869TIP3   OH217570   3.937   1.689   4.692  0.1052  0.0758 -0.2252
 5869TIP3    H117571   3.896   1.639   4.622 -0.5016 -0.4954  0.5114
 5869TIP3    H217572   3.896   1.775   4.688 -1.3662 -0.5448  0.6232
 5870TIP3   OH217573   2.603   0.623   3.417 -0.0383 -0.1928  0.1701
 5870TIP3    H117574   2.541   0.653   3.484 -0.2818 -0.1113 -0.0869
 5870TIP3    H217575   2.602   0.692   3.351  2.4494  1.2128  1.4571
 5871TIP3   OH217576   1.743   3.373   3.381 -0.0120  0.2646  0.2949
 5871TIP3    H117577   1.732   3.404   3.470  1.6020 -0.6605  0.8496
 5871TIP3    H217578   1.743   3.452   3.327  0.7617  0.9789  1.3056
 5872TIP3   OH217579   1.869   4.138   4.554  0.0830  0.3844 -0.2264
 5872TIP3    H117580   1.829   4.123   4.469 -0.0434  0.6673 -0.2192
 5872TIP3    H217581   1.962   4.153   4.535 -0.1462  1.6250 -0.4382
 5873TIP3   OH217582   2.523   5.832   2.380 -0.0293  0.3455 -0.2540
 5873TIP3    H117583   2.557   5.850   2.467 -0.5335 -2.3555  0.5808
 5873TIP3    H217584   2.600   5.811   2.327  0.1845  1.0534 -0.2368
 5874TIP3   OH217585   5.735   4.603   4.862  0.0727  0.4762 -0.8509
 5874TIP3    H117586   5.822   4.637   4.884 -0.3101  0.7465  0.3005
 5874TIP3    H217587   5.712   4.546   4.935 -0.4642 -0.0820 -1.4480
 5875TIP3   OH217588   6.201   5.572   4.308 -0.3503 -0.3017  0.1674
 5875TIP3    H117589   6.164   5.582   4.220  0.5621  0.2910 -0.1607
 5875TIP3    H217590   6.184   5.655   4.351 -0.8910 -0.6282  0.6035
 5876TIP3   OH217591   4.440   6.429   2.970  0.4187  0.1136  0.5147
 5876TIP3    H117592   4.391   6.391   2.898 -1.1701  1.1071  1.0240
 5876TIP3    H217593   4.522   6.459   2.931  0.3517 -0.9848 -0.4947
 5877TIP3   OH217594   0.925   0.738   5.265 -0.8419  0.7639  0.2756
 5877TIP3    H117595   0.986   0.740   5.192  0.6655  0.2798  1.4889
 5877TIP3    H217596   0.926   0.827   5.300 -2.6478  1.3909 -1.0973
 5878TIP3   OH217597   1.567   4.370   0.188  0.2003 -0.5069  0.2071
 5878TIP3    H117598   1.476   4.363   0.215  0.2988  1.1962  1.0972
 5878TIP3    H217599   1.566   4.434   0.117  0.5489 -1.5144 -0.7339
 5879TIP3   OH217600   5.395   4.481   5.089  0.2951  0.4839  0.9499
 5879TIP3    H117601   5.300   4.489   5.097  0.3221  0.5427  1.2293
 5879TIP3    H217602   5.426   4.469   5.179  0.4792 -0.3344  0.7911
 5880TIP3   OH217603   4.412   4.657   4.359  0.7521 -0.4664  0.1015
 5880TIP3    H117604   4.387   4.729   4.302  0.3907 -0.9199 -0.3313
 5880TIP3    H217605   4.443   4.698   4.439 -2.4481  0.2027  1.1783
 5881TIP3   OH217606   6.182   5.567   2.746 -0.5957 -0.1939  0.5603
 5881TIP3    H117607   6.217   5.516   2.819 -1.1109  0.5098  1.3169
 5881TIP3    H217608   6.130   5.636   2.787 -0.2139  0.7341 -0.4418
 5882TIP3   OH217609   2.155   0.683   2.588  0.0899 -0.0442  0.0229
 5882TIP3    H117610   2.187   0.771   2.604 -0.0622  0.2107 -1.0398
 5882TIP3    H217611   2.072   0.694   2.543 -0.3989 -0.7282  0.7210
 5883TIP3   OH217612   3.746   2.400   2.129  0.8545  0.9079  0.0091
 5883TIP3    H117613   3.738   2.418   2.035  0.7073  1.6727  0.1632
 5883TIP3    H217614   3.835   2.426   2.151  1.3957 -0.6583 -0.2043
 5884TIP3   OH217615   3.044   3.413   5.561 -0.4914  0.1133 -0.1947
 5884TIP3    H117616   2.985   3.443   5.492 -1.5268  2.7848  1.6680
 5884TIP3    H217617   3.118   3.473   5.556 -0.9379  0.8451  1.4255
 5885TIP3   OH217618   3.414   5.407   1.260  0.0859  0.2011 -0.3866
 5885TIP3    H117619   3.413   5.383   1.353 -0.0397  1.7731  0.0439
 5885TIP3    H217620   3.443   5.498   1.259  0.4898  0.0862 -1.9360
 5886TIP3   OH217621   4.062   3.127   3.910 -0.8084 -0.2910 -0.5666
 5886TIP3    H117622   3.981   3.102   3.864 -1.0555 -0.6696  0.0641
 5886TIP3    H217623   4.097   3.200   3.858 -0.7516 -1.1038 -1.7034
 5887TIP3   OH217624   7.096   0.630   2.496  0.0079  0.4768 -0.1165
 5887TIP3    H117625   7.043   0.660   2.569  0.4276 -0.1001  0.4354
 5887TIP3    H217626   7.186   0.648   2.522  0.0844  2.0328 -1.3137
 5888TIP3   OH217627   6.852   1.958   1.465 -0.1772 -0.2874 -0.2995
 5888TIP3    H117628   6.833   2.040   1.420  0.2316 -0.1421 -0.2171
 5888TIP3    H217629   6.945   1.964   1.487 -0.3600 -0.3683  0.5284
 5889TIP3   OH217630   0.977   3.679   4.212  0.3597 -0.2801  0.7430
 5889TIP3    H117631   0.979   3.718   4.124 -0.8798 -0.0818  0.7864
 5889TIP3    H217632   1.022   3.742   4.267  0.1218  0.1476  0.4517
 5890TIP3   OH217633   6.196   3.457   5.058 -0.6571  0.6086 -0.3217
 5890TIP3    H117634   6.183   3.544   5.022  1.9858  1.3766  0.3925
 5890TIP3    H217635   6.289   3.453   5.080 -0.8958 -2.0415  0.5929
 5891TIP3   OH217636   4.543   4.449   2.058 -0.3578 -0.6220 -0.3533
 5891TIP3    H117637   4.484   4.524   2.046 -0.3375 -0.6023 -0.3280
 5891TIP3    H217638   4.607   4.457   1.987  1.3462  0.9748  1.2522
 5892TIP3   OH217639   2.395   3.616   5.133 -0.5198  0.0590  0.3056
 5892TIP3    H117640   2.439   3.615   5.048 -2.6703  0.8867 -0.9060
 5892TIP3    H217641   2.358   3.529   5.143 -1.4903  0.3866 -0.3251
 5893TIP3   OH217642   1.256   6.684   3.261  0.3076 -0.0009  0.2300
 5893TIP3    H117643   1.244   6.589   3.251 -0.3168  0.1918 -1.1276
 5893TIP3    H217644   1.178   6.722   3.223  0.2553  1.0689  1.3540
 5894TIP3   OH217645   2.653   5.375   2.158 -0.6825 -0.2587  0.1408
 5894TIP3    H117646   2.712   5.414   2.222 -0.4184 -0.6064  0.1099
 5894TIP3    H217647   2.645   5.441   2.089  0.6419 -0.6868 -0.4587
 5895TIP3   OH217648   0.920   1.163   3.907  0.2235  0.9909  0.4691
 5895TIP3    H117649   0.835   1.207   3.904 -0.1258  0.3312  0.4921
 5895TIP3    H217650   0.913   1.093   3.841  0.6738  0.8090  0.6107
 5896TIP3   OH217651   3.001   4.097   2.243 -0.5035 -0.8997 -0.1884
 5896TIP3    H117652   2.982   4.159   2.173  1.6776 -0.6017 -0.5971
 5896TIP3    H217653   3.079   4.050   2.212 -1.2402 -2.8378  0.7570
 5897TIP3   OH217654   3.828   6.511   5.565  0.3992  0.0139 -0.2115
 5897TIP3    H117655   3.776   6.579   5.523  0.0924 -0.1834 -0.1503
 5897TIP3    H217656   3.789   6.500   5.651  0.4897 -0.1924 -0.1974
 5898TIP3   OH217657   5.268   3.940   5.151 -0.4730  0.1134 -0.7985
 5898TIP3    H117658   5.232   4.029   5.145 -3.3072 -0.9784 -1.2154
 5898TIP3    H217659   5.271   3.909   5.061 -0.0641 -0.4217 -0.6065
 5899TIP3   OH217660   1.929   2.008   2.364 -0.1421  0.8068  0.2110
 5899TIP3    H117661   1.911   1.915   2.372  1.5428  0.5944  2.8799
 5899TIP3    H217662   1.842   2.050   2.364 -0.8741 -0.6668  0.3529
 5900TIP3   OH217663   2.645   1.131   5.623  0.0612  0.2257  0.5061
 5900TIP3    H117664   2.722   1.176   5.587 -0.2325  0.7238  0.4951
 5900TIP3    H217665   2.654   1.141   5.717 -0.5936  1.3002  0.4631
 5901TIP3   OH217666   2.939   1.660   4.008  0.1520 -0.5152 -0.1252
 5901TIP3    H117667   3.029   1.655   3.977 -0.1917  0.7323 -1.4480
 5901TIP3    H217668   2.942   1.725   4.078 -0.0021  1.0858 -1.5268
 5902TIP3   OH217669   3.747   2.018   3.499 -0.4032  0.5760  0.1679
 5902TIP3    H117670   3.804   2.092   3.478  0.3157  0.2551  0.9225
 5902TIP3    H217671   3.751   2.011   3.595 -0.2209 -0.6126  0.0873
 5903TIP3   OH217672   6.406   3.122   4.524  0.3334  0.0627 -0.2356
 5903TIP3    H117673   6.318   3.086   4.524  0.3404 -0.0644  1.7904
 5903TIP3    H217674   6.425   3.140   4.616  2.0876  0.9194 -0.7180
 5904TIP3   OH217675   7.136   4.899   1.578 -0.2297 -0.2821  0.3063
 5904TIP3    H117676   7.186   4.865   1.652 -0.5138 -1.0445  0.1518
 5904TIP3    H217677   7.085   4.971   1.615 -0.5181 -0.7838  0.8918
 5905TIP3   OH217678   1.931   1.052   5.710  0.5046 -0.2191  0.6261
 5905TIP3    H117679   1.946   1.081   5.620  1.8693  2.5878  1.6409
 5905TIP3    H217680   1.837   1.063   5.724 -0.1188 -2.6699 -0.9881
 5906TIP3   OH217681   2.955   3.564   5.325 -0.4021  0.2718 -0.4789
 5906TIP3    H117682   2.862   3.581   5.335 -0.5814  0.6375 -2.3401
 5906TIP3    H217683   2.998   3.643   5.358 -0.7566  0.2062  0.1463
 5907TIP3   OH217684   5.290   0.885   5.558  0.1610  0.1041 -0.3661
 5907TIP3    H117685   5.304   0.979   5.569  0.5081 -0.0170  0.2908
 5907TIP3    H217686   5.378   0.846   5.564  0.0253 -0.2562 -0.6736
 5908TIP3   OH217687   2.231   3.784   1.763 -0.0006 -0.5497  0.3694
 5908TIP3    H117688   2.244   3.695   1.731 -0.7341 -0.1852 -1.0357
 5908TIP3    H217689   2.137   3.791   1.780 -0.1311  0.2436 -0.5436
 5909TIP3   OH217690   2.836   4.365   1.098  0.0639 -0.2768  0.2172
 5909TIP3    H117691   2.918   4.362   1.147  0.3434 -0.2506 -0.2400
 5909TIP3    H217692   2.771   4.394   1.162  0.4718  0.0176  0.5046
 5910TIP3   OH217693   0.995   2.269   5.004 -0.2952  1.0345  0.1761
 5910TIP3    H117694   0.931   2.253   5.073 -0.1462  0.7052  0.2400
 5910TIP3    H217695   1.006   2.183   4.961  0.2327  1.0458  0.2788
 5911TIP3   OH217696   1.764   0.246   0.251 -0.3436 -0.2266 -0.0308
 5911TIP3    H117697   1.670   0.261   0.252 -0.4222 -0.4846 -1.5071
 5911TIP3    H217698   1.774   0.152   0.236  0.1694 -0.4439  1.4857
 5912TIP3   OH217699   3.993   5.463   3.885 -0.1690 -0.1972 -0.3688
 5912TIP3    H117700   4.061   5.417   3.934  0.0733 -0.5805 -1.0515
 5912TIP3    H217701   3.925   5.481   3.950  0.0620 -0.8576  0.0692
 5913TIP3   OH217702   5.587   0.592   5.243  0.4164 -0.6973 -0.4667
 5913TIP3    H117703   5.670   0.629   5.276  0.0897  0.1150 -0.5219
 5913TIP3    H217704   5.601   0.583   5.149 -0.0416  0.8366 -0.7166
 5914TIP3   OH217705   6.305   6.391   1.158  0.0711  0.2457  0.5826
 5914TIP3    H117706   6.229   6.378   1.216 -1.3584 -0.7912 -1.3777
 5914TIP3    H217707   6.278   6.462   1.100 -0.4746 -1.6342 -1.6240
 5915TIP3   OH217708   6.674   0.783   5.073  0.4137  0.0084  0.2611
 5915TIP3    H117709   6.639   0.872   5.062 -0.2486 -0.3289 -0.4121
 5915TIP3    H217710   6.742   0.775   5.006  1.6019  0.5407  1.3437
 5916TIP3   OH217711   2.087   1.703   0.792 -0.9146 -0.2247 -0.2263
 5916TIP3    H117712   2.010   1.650   0.810 -2.0057  1.2399 -0.3641
 5916TIP3    H217713   2.104   1.750   0.873  0.4216 -1.1936  0.0959
 5917TIP3   OH217714   4.321   1.612   1.404  0.4481  0.0761 -0.1945
 5917TIP3    H117715   4.381   1.596   1.331 -0.7596  1.0518 -1.4520
 5917TIP3    H217716   4.236   1.624   1.363 -0.2934  0.4996  1.4010
 5918TIP3   OH217717   0.391   6.201   1.607 -0.3963 -0.4230 -0.1803
 5918TIP3    H117718   0.421   6.140   1.540 -1.8990 -0.3755 -0.9431
 5918TIP3    H217719   0.456   6.271   1.607  1.1144 -1.7484  0.3862
 5919TIP3   OH217720   0.522   4.725   0.042  0.1145 -0.0030  0.3322
 5919TIP3    H117721   0.482   4.681   0.117 -1.1425 -1.7724 -1.2625
 5919TIP3    H217722   0.562   4.654  -0.008  2.6639  1.3676  0.2851
 5920TIP3   OH217723   1.799   3.957   2.007 -0.0619 -0.4953 -0.0757
 5920TIP3    H117724   1.818   3.866   1.984 -1.4140 -1.0394  0.8201
 5920TIP3    H217725   1.781   3.999   1.923  1.2542 -0.8721 -0.5626
 5921TIP3   OH217726   3.521   1.082   3.809 -0.1194  0.0917 -0.2104
 5921TIP3    H117727   3.455   1.025   3.849  0.5838 -0.3998  0.2750
 5921TIP3    H217728   3.470   1.154   3.770 -0.9276 -0.1893  0.2946
 5922TIP3   OH217729   5.451   2.676   1.848 -0.1144  0.3755  0.1756
 5922TIP3    H117730   5.451   2.668   1.753 -1.6156 -0.4743  0.2123
 5922TIP3    H217731   5.376   2.731   1.868  1.2963  2.1711  0.8050
 5923TIP3   OH217732   6.111   1.057   4.715  0.6355 -0.1809  0.3736
 5923TIP3    H117733   6.054   1.097   4.649  0.8298 -1.5493 -0.6867
 5923TIP3    H217734   6.194   1.042   4.669  1.4947  0.7372  1.5616
 5924TIP3   OH217735   4.831   2.816   5.562 -0.2150 -0.1128  0.0951
 5924TIP3    H117736   4.764   2.807   5.630 -0.2233 -3.1827 -0.1753
 5924TIP3    H217737   4.913   2.796   5.607  0.0001 -0.4487 -0.4393
 5925TIP3   OH217738   1.367   5.772   4.231 -0.0592 -0.1091  0.7007
 5925TIP3    H117739   1.364   5.862   4.264 -1.7296 -0.3456  1.3301
 5925TIP3    H217740   1.349   5.780   4.138 -1.0073  0.1803  0.8938
 5926TIP3   OH217741   1.599   5.917   4.724  0.0064  0.4948  0.5009
 5926TIP3    H117742   1.571   5.914   4.816  0.7673  2.8579  0.8736
 5926TIP3    H217743   1.691   5.891   4.727 -0.5422 -1.7227  0.0279
 5927TIP3   OH217744   1.963   0.722   3.062 -0.4303 -0.2467  0.2009
 5927TIP3    H117745   1.963   0.658   2.990 -1.6027 -2.1043  1.7525
 5927TIP3    H217746   1.884   0.773   3.048  0.1912  0.5044 -0.7051
 5928TIP3   OH217747   6.184   1.153   0.291  0.3316 -0.2044  0.5921
 5928TIP3    H117748   6.117   1.221   0.289  1.3089  0.7813 -0.9515
 5928TIP3    H217749   6.244   1.180   0.361  0.7197  0.5519 -0.0222
 5929TIP3   OH217750   6.106   0.890   3.392  0.3889  0.0705  0.1461
 5929TIP3    H117751   6.188   0.889   3.442  0.3215 -1.1058  0.2642
 5929TIP3    H217752   6.134   0.893   3.301  0.6622 -2.3186  0.0896
 5930TIP3   OH217753   3.638   1.556   5.491 -0.3713 -0.0095 -0.4518
 5930TIP3    H117754   3.643   1.469   5.529 -1.7711 -0.9525 -2.2897
 5930TIP3    H217755   3.628   1.541   5.397 -2.1238  2.0781 -0.6759
 5931TIP3   OH217756   4.960   3.786   5.018  0.2253  0.1159  0.6949
 5931TIP3    H117757   4.938   3.841   4.943 -1.3122 -0.3426  0.7848
 5931TIP3    H217758   4.950   3.843   5.094  1.6092  0.5293  0.6034
 5932TIP3   OH217759   4.693   1.159   3.491  0.2753  0.1798 -0.4085
 5932TIP3    H117760   4.678   1.080   3.440  1.3339  0.1353 -0.6688
 5932TIP3    H217761   4.617   1.165   3.549 -0.1402 -0.6534 -0.8547
 5933TIP3   OH217762   0.148   3.638   2.239 -0.0085 -0.2223 -0.4971
 5933TIP3    H117763   0.176   3.549   2.259  1.7907  0.4255  0.1174
 5933TIP3    H217764   0.230   3.687   2.227 -0.8062  1.9238  1.8775
 5934TIP3   OH217765   0.500   6.056   4.447  0.4580 -0.1966 -0.1372
 5934TIP3    H117766   0.438   6.118   4.485  0.9528  1.2799 -1.6733
 5934TIP3    H217767   0.549   6.023   4.522 -1.1949 -0.3434  0.9440
 5935TIP3   OH217768   1.587   3.871   1.130 -0.0243 -0.2735 -0.1830
 5935TIP3    H117769   1.654   3.939   1.127  0.1211 -0.3630  0.7595
 5935TIP3    H217770   1.617   3.805   1.068  0.4475 -0.0320 -0.2152
 5936TIP3   OH217771   1.622   5.703   2.872  1.2411  1.0471 -0.6855
 5936TIP3    H117772   1.542   5.650   2.868  2.5320 -1.0152 -0.3779
 5936TIP3    H217773   1.590   5.793   2.874 -1.1358  0.2667  0.9556
 5937TIP3   OH217774   7.209   3.408   1.342 -0.3286 -0.2979 -0.1610
 5937TIP3    H117775   7.136   3.423   1.403 -0.4205 -2.0620  0.2068
 5937TIP3    H217776   7.168   3.399   1.257 -0.7405 -2.6956  0.2402
 5938TIP3   OH217777   6.235   1.202   2.074 -0.4425 -0.4807 -0.3390
 5938TIP3    H117778   6.176   1.216   2.148  1.9169 -0.2213  1.6147
 5938TIP3    H217779   6.251   1.289   2.038 -0.6311 -0.4613 -0.3764
 5939TIP3   OH217780   5.096   0.394   4.265  0.0924  0.0662  0.0425
 5939TIP3    H117781   5.069   0.485   4.252  1.6161  0.4345 -0.8938
 5939TIP3    H217782   5.042   0.344   4.203  1.1535  0.7128 -1.4519
 5940TIP3   OH217783   3.714   6.463   5.831 -0.3885 -0.4118  0.3457
 5940TIP3    H117784   3.634   6.507   5.860 -1.3158 -1.9876  0.2490
 5940TIP3    H217785   3.774   6.473   5.905 -0.2860  1.6189  0.0561
 5941TIP3   OH217786   3.979   0.404   4.842  0.6270  0.1162 -0.0777
 5941TIP3    H117787   4.047   0.444   4.788  0.0092  1.1959 -0.0931
 5941TIP3    H217788   3.957   0.323   4.796  1.4994  0.0376 -0.3758
 5942TIP3   OH217789   0.338   2.535   3.529 -0.3472  1.2518  0.3972
 5942TIP3    H117790   0.404   2.553   3.596  0.1764  2.2548 -0.3660
 5942TIP3    H217791   0.329   2.439   3.529 -0.1935  1.2137  1.7173
 5943TIP3   OH217792   3.763   4.997   5.003 -0.5666  0.2324 -0.2557
 5943TIP3    H117793   3.782   5.067   5.066  0.9334 -1.2953  1.1076
 5943TIP3    H217794   3.701   5.035   4.942 -1.8683  1.9365  1.9778
 5944TIP3   OH217795   6.858   6.703   4.596  0.5243  0.1403 -0.1746
 5944TIP3    H117796   6.864   6.798   4.606  0.8754  0.1443 -0.4276
 5944TIP3    H217797   6.899   6.668   4.674  1.3340  0.1904 -0.5707
 5945TIP3   OH217798   6.964   3.592   3.451  0.1771 -0.0289 -0.0768
 5945TIP3    H117799   6.939   3.684   3.441 -1.3335 -0.4448 -0.4524
 5945TIP3    H217800   6.927   3.549   3.374 -0.3575 -1.1772  0.7971
 5946TIP3   OH217801   0.333   0.933   5.829 -0.0787 -0.3681 -0.1789
 5946TIP3    H117802   0.349   0.859   5.888  0.8783 -0.6924 -0.8133
 5946TIP3    H217803   0.384   1.005   5.866 -1.5057  0.1763  0.7853
 5947TIP3   OH217804   6.464   4.816   2.558 -0.4717 -0.1130 -0.1829
 5947TIP3    H117805   6.519   4.805   2.635 -0.7324 -2.2647 -0.2431
 5947TIP3    H217806   6.396   4.878   2.586  0.5838  0.7228  0.6236
 5948TIP3   OH217807   5.167   0.612   1.819 -0.5190  0.0067  0.3986
 5948TIP3    H117808   5.224   0.554   1.869 -0.5679  1.1846  1.8765
 5948TIP3    H217809   5.167   0.575   1.731  1.4431 -0.7986  0.6827
 5949TIP3   OH217810   3.831   2.734   5.122  0.3820  0.1562 -0.2586
 5949TIP3    H117811   3.807   2.696   5.206  0.6267  0.6400  0.0350
 5949TIP3    H217812   3.748   2.747   5.077 -0.0824  2.8128  1.1793
 5950TIP3   OH217813   1.345   4.787   2.280 -0.4205  0.2087  0.3656
 5950TIP3    H117814   1.437   4.812   2.287  0.1772 -1.4931 -0.9044
 5950TIP3    H217815   1.299   4.851   2.335  0.9232  4.0476 -2.5425
 5951TIP3   OH217816   6.142   1.298   5.442  0.2746  0.6493  0.0869
 5951TIP3    H117817   6.115   1.284   5.351  1.7314 -1.6350 -0.0778
 5951TIP3    H217818   6.229   1.260   5.447 -0.3607 -0.6820  2.7748
 5952TIP3   OH217819   4.103   3.430   1.952 -0.2693  0.5366 -0.0676
 5952TIP3    H117820   4.065   3.454   2.036 -1.2050 -1.3341  0.0905
 5952TIP3    H217821   4.188   3.392   1.974 -0.9446 -0.8908  0.1563
 5953TIP3   OH217822   6.837   4.243   5.841 -0.8187  0.4098 -0.3178
 5953TIP3    H117823   6.848   4.205   5.929 -0.6938  0.4879 -0.2995
 5953TIP3    H217824   6.745   4.270   5.838 -0.5398  1.5002  0.2321
 5954TIP3   OH217825   0.777   3.870   1.267  0.1860 -0.4037 -0.3082
 5954TIP3    H117826   0.837   3.937   1.300 -2.5629  1.4108  1.4366
 5954TIP3    H217827   0.797   3.793   1.319  1.2856  0.0233 -0.0668
 5955TIP3   OH217828   0.216   2.474   0.683  0.6900  0.2293 -0.0030
 5955TIP3    H117829   0.227   2.413   0.610  0.6001  0.3741 -0.1380
 5955TIP3    H217830   0.208   2.560   0.641  0.1645  0.2590  0.1489
 5956TIP3   OH217831   0.934   0.287   3.522  0.0060  0.2841 -0.0179
 5956TIP3    H117832   0.883   0.310   3.445 -0.7122 -0.7507  0.1215
 5956TIP3    H217833   0.898   0.203   3.551  0.2867  0.6177  1.4103
 5957TIP3   OH217834   1.330   3.929   0.575  0.1063  0.3874 -0.5434
 5957TIP3    H117835   1.401   3.897   0.518 -0.6855 -0.2940 -1.1656
 5957TIP3    H217836   1.316   3.858   0.637 -0.4095  0.2956 -0.7672
 5958TIP3   OH217837   4.615   1.080   4.654 -0.1423 -0.0241  0.1595
 5958TIP3    H117838   4.641   1.101   4.564  0.0481 -0.4477  0.1113
 5958TIP3    H217839   4.619   1.164   4.700  1.2478 -0.0458  0.1321
 5959TIP3   OH217840   2.051   2.291   3.711  0.1324  0.0500 -0.5112
 5959TIP3    H117841   2.105   2.279   3.789 -0.4151  2.8486  0.3881
 5959TIP3    H217842   2.113   2.317   3.643  0.2265  0.9418 -0.0975
 5960TIP3   OH217843   5.536   4.636   2.001 -0.8526  0.2628  0.0109
 5960TIP3    H117844   5.443   4.620   1.990 -0.7954 -0.5896  0.6805
 5960TIP3    H217845   5.577   4.550   1.994 -0.0941  0.6453 -0.4258
 5961TIP3   OH217846   4.060   3.739   5.019 -0.7724 -0.9144 -0.2016
 5961TIP3    H117847   4.034   3.830   5.036  2.4857 -0.0664  1.2488
 5961TIP3    H217848   3.982   3.687   5.039 -1.9470  1.3814  1.7607
 5962TIP3   OH217849   1.154   5.629   3.152 -0.3384  0.1318 -0.1997
 5962TIP3    H117850   1.163   5.554   3.092  1.2426 -0.1592  0.3705
 5962TIP3    H217851   1.077   5.607   3.205  0.6510 -1.5831  0.6110
 5963TIP3   OH217852   5.835   4.155   2.293  0.4181 -0.4448  0.7088
 5963TIP3    H117853   5.923   4.186   2.269 -0.1412  0.3118 -0.4828
 5963TIP3    H217854   5.822   4.078   2.238  0.7715 -1.2445  1.7286
 5964TIP3   OH217855   1.019   2.799   4.480 -0.1681 -0.3314 -0.1000
 5964TIP3    H117856   1.090   2.759   4.430  2.0785  1.8944  1.1240
 5964TIP3    H217857   1.018   2.751   4.563 -0.1816 -0.4417 -0.1636
 5965TIP3   OH217858   1.827   2.204   3.888  0.2002  0.0391 -0.7102
 5965TIP3    H117859   1.879   2.253   3.823  0.3552  1.7993  0.6685
 5965TIP3    H217860   1.837   2.113   3.862  2.9672  0.4046 -1.2525
 5966TIP3   OH217861   4.110   3.295   3.692 -0.0726  0.4612 -0.2231
 5966TIP3    H117862   4.045   3.338   3.747 -1.2120 -0.5573 -0.7483
 5966TIP3    H217863   4.081   3.311   3.603  0.1519 -0.3587 -0.4525
 5967TIP3   OH217864   3.194   3.240   5.738 -0.4450  0.4437  0.2336
 5967TIP3    H117865   3.196   3.255   5.833  0.2407 -2.9174  0.8843
 5967TIP3    H217866   3.126   3.299   5.705 -1.0945  1.3035  2.8901
 5968TIP3   OH217867   0.649   1.828   5.749 -0.2655 -0.0410 -0.1759
 5968TIP3    H117868   0.620   1.744   5.785 -0.9531  0.3241  0.1436
 5968TIP3    H217869   0.654   1.886   5.825  1.3450 -0.0839 -0.2178
 5969TIP3   OH217870   6.429   4.325   3.978 -0.9108  0.0328 -0.3376
 5969TIP3    H117871   6.441   4.233   3.999 -2.6849 -0.2051 -0.1540
 5969TIP3    H217872   6.342   4.346   4.013 -0.6732  1.6839 -0.6557
 5970TIP3   OH217873   1.858   5.949   5.757 -0.1904 -0.2645 -0.4879
 5970TIP3    H117874   1.897   6.029   5.790  0.3264 -0.1034 -1.4673
 5970TIP3    H217875   1.794   5.924   5.824  0.8130  0.0496  0.6214
 5971TIP3   OH217876   6.478   5.136   3.836  0.4340  0.2503  0.5365
 5971TIP3    H117877   6.430   5.108   3.914  2.5045 -0.8051  1.5330
 5971TIP3    H217878   6.506   5.225   3.856  2.0832 -0.4662  1.6551
 5972TIP3   OH217879   5.434   6.673   2.655  0.2614 -0.2419 -0.6632
 5972TIP3    H117880   5.483   6.747   2.620  0.0268  1.6556  2.5452
 5972TIP3    H217881   5.500   6.613   2.689  0.5055  0.9051  1.0233
 5973TIP3   OH217882   1.589   1.424   4.463  1.0691  0.5205 -0.1801
 5973TIP3    H117883   1.536   1.480   4.520  2.1854  2.2987 -0.8329
 5973TIP3    H217884   1.525   1.376   4.411  0.0816  1.1595  0.4162
 5974TIP3   OH217885   4.256   6.521   1.532 -0.0184 -0.2855 -0.1839
 5974TIP3    H117886   4.253   6.441   1.586 -1.4782 -0.8119 -0.9852
 5974TIP3    H217887   4.219   6.494   1.448  1.7727  0.6468 -1.3257
 5975TIP3   OH217888   5.288   1.892   3.100  0.1173  0.1559  0.8914
 5975TIP3    H117889   5.311   1.814   3.049  1.0806  1.2538 -0.4271
 5975TIP3    H217890   5.194   1.902   3.087  0.1925 -0.1206  0.0916
 5976TIP3   OH217891   3.730   2.966   0.389  0.4531 -0.3822 -0.2168
 5976TIP3    H117892   3.677   3.045   0.402  1.2697 -0.1400  2.2568
 5976TIP3    H217893   3.820   2.994   0.405  0.7405 -1.8222  0.9356
 5977TIP3   OH217894   7.035   1.947   3.928 -0.0699 -0.0956 -0.0306
 5977TIP3    H117895   7.054   2.032   3.967  1.5559 -0.5156  0.1478
 5977TIP3    H217896   7.026   1.965   3.834  0.1620  0.3004  0.0216
 5978TIP3   OH217897   2.271   1.494   3.334  0.2581  0.1279 -0.1251
 5978TIP3    H117898   2.345   1.505   3.394  2.7746 -2.0858 -2.5385
 5978TIP3    H217899   2.229   1.413   3.364  1.0382 -0.5524 -0.8265
 5979TIP3   OH217900   2.799   2.240   2.056 -0.4788  0.2225 -0.2841
 5979TIP3    H117901   2.887   2.216   2.085  0.1041 -0.5951 -2.4827
 5979TIP3    H217902   2.768   2.302   2.122  2.0345  1.1303  0.1838
 5980TIP3   OH217903   1.010   0.629   3.363  0.4166 -0.1797  0.1956
 5980TIP3    H117904   1.018   0.582   3.446  1.7023  0.3743  0.4059
 5980TIP3    H217905   0.927   0.674   3.369  1.1566  1.0642  1.8410
 5981TIP3   OH217906   4.255   6.248   5.288 -0.1466 -0.4547 -0.0109
 5981TIP3    H117907   4.252   6.213   5.199  0.2990 -0.6747  0.0601
 5981TIP3    H217908   4.324   6.198   5.331 -0.3116 -0.2978  0.4371
 5982TIP3   OH217909   0.507   6.608   4.754  0.0038  0.3312  0.5250
 5982TIP3    H117910   0.522   6.600   4.660 -0.5524  0.5781  0.4113
 5982TIP3    H217911   0.519   6.519   4.788 -0.6471  0.0709  0.0904
 5983TIP3   OH217912   4.316   5.740   0.773  0.2104  0.3320  0.2111
 5983TIP3    H117913   4.329   5.790   0.692  0.3368 -0.0009  0.0263
 5983TIP3    H217914   4.371   5.663   0.763 -1.0190 -0.5359 -0.1020
 5984TIP3   OH217915   6.241   4.984   0.944 -0.1523 -0.1091 -0.0680
 5984TIP3    H117916   6.161   5.031   0.922  0.8330  1.1444 -1.1715
 5984TIP3    H217917   6.309   5.051   0.944  0.8998 -1.1134  0.9820
 5985TIP3   OH217918   1.872   0.367   1.770 -0.4714  0.3414 -0.3125
 5985TIP3    H117919   1.960   0.392   1.795  0.2756 -0.2209 -2.2189
 5985TIP3    H217920   1.821   0.375   1.851  0.9892  2.0294  0.5078
 5986TIP3   OH217921   6.098   3.817   3.591 -0.7706  0.1253  0.0644
 5986TIP3    H117922   6.071   3.908   3.577  0.2174  0.5117  0.5645
 5986TIP3    H217923   6.188   3.824   3.624 -0.3763 -1.0732 -0.7219
 5987TIP3   OH217924   1.839   1.259   1.425 -0.4254  0.2171  0.5344
 5987TIP3    H117925   1.836   1.197   1.352 -0.3176 -0.6804  1.2718
 5987TIP3    H217926   1.756   1.245   1.471 -0.5949  0.9392  0.4616
 5988TIP3   OH217927   0.716   2.533   4.669  0.1318  0.2899  0.2661
 5988TIP3    H117928   0.643   2.471   4.676 -2.6130  3.3229  0.3838
 5988TIP3    H217929   0.764   2.522   4.751 -0.7695 -1.0664  0.6487
 5989TIP3   OH217930   3.322   0.443   2.140 -0.3706  0.7213 -0.1169
 5989TIP3    H117931   3.323   0.539   2.147 -2.1390  1.0321 -2.6258
 5989TIP3    H217932   3.244   0.417   2.189 -0.3705  0.6631 -0.1480
 5990TIP3   OH217933   6.056   1.442   3.980 -0.0495 -0.3434  0.1046
 5990TIP3    H117934   6.088   1.493   3.905 -0.6321 -0.6930 -0.3994
 5990TIP3    H217935   6.132   1.394   4.011  0.1700 -0.2972 -0.3555
 5991TIP3   OH217936   5.095   5.318   1.049 -0.1331  0.1406 -0.1499
 5991TIP3    H117937   5.134   5.396   1.087 -0.4897  0.6229 -0.7494
 5991TIP3    H217938   5.100   5.252   1.118 -1.7162  1.2627  1.1313
 5992TIP3   OH217939   4.062   1.676   3.182 -0.0720  0.1950  0.2056
 5992TIP3    H117940   4.111   1.751   3.213 -0.3069  0.3082  0.3038
 5992TIP3    H217941   3.975   1.710   3.160  0.0607  0.1048 -0.5033
 5993TIP3   OH217942   6.330   3.457   1.696  0.1154  0.1565  0.1233
 5993TIP3    H117943   6.243   3.496   1.699 -0.4869 -1.2108  1.4029
 5993TIP3    H217944   6.333   3.410   1.613  0.1470  1.2931 -0.5367
 5994TIP3   OH217945   6.534   5.643   5.444 -0.1171  0.5119  0.5954
 5994TIP3    H117946   6.468   5.581   5.411 -0.2091  0.6309  0.5529
 5994TIP3    H217947   6.519   5.647   5.538 -1.1415  1.6468  0.4144
 5995TIP3   OH217948   2.026   4.914   0.437 -0.3562  0.1334 -0.0908
 5995TIP3    H117949   2.097   4.937   0.497 -0.5154  1.7855 -0.4726
 5995TIP3    H217950   1.949   4.909   0.492  0.0302 -1.8405  0.3545
 5996TIP3   OH217951   5.569   6.438   2.464  0.1542  0.8720 -0.3730
 5996TIP3    H117952   5.571   6.430   2.560 -1.3185  3.3714 -0.0388
 5996TIP3    H217953   5.657   6.465   2.440  0.9032 -0.9780  0.0530
 5997TIP3   OH217954   3.835   4.985   5.393 -0.4538 -0.0835 -0.0593
 5997TIP3    H117955   3.742   4.966   5.409 -0.3342 -0.9150 -0.3267
 5997TIP3    H217956   3.881   4.940   5.463 -0.2523  0.4748  0.1740
 5998TIP3   OH217957   1.104   3.417   3.126  0.2780 -0.9070 -0.1171
 5998TIP3    H117958   1.098   3.402   3.032 -1.2071 -2.0523  0.1189
 5998TIP3    H217959   1.046   3.351   3.164 -0.2457  0.4367  1.5122
 5999TIP3   OH217960   2.560   2.861   1.916 -0.2867 -0.0582  0.1613
 5999TIP3    H117961   2.620   2.850   1.990  0.0723  0.5717 -0.0332
 5999TIP3    H217962   2.611   2.839   1.839  0.7896  3.6051 -0.3685
 6000TIP3   OH217963   4.774   0.851   2.425  0.1214 -0.5706 -0.3146
 6000TIP3    H117964   4.833   0.875   2.355  0.0344  2.3292  0.4646
 6000TIP3    H217965   4.823   0.869   2.505 -0.9624 -0.4293  0.3426
 6001TIP3   OH217966   6.018   4.572   2.069  0.3239  0.1740  0.1002
 6001TIP3    H117967   5.950   4.532   2.123  0.9413 -0.6860  0.2551
 6001TIP3    H217968   5.973   4.642   2.022 -0.7863 -0.6787 -0.1534
 6002TIP3   OH217969   7.191   3.431   3.267  0.2621  0.1517 -0.4772
 6002TIP3    H117970   7.164   3.486   3.193 -0.6188  0.6128  0.1700
 6002TIP3    H217971   7.246   3.489   3.320 -0.0069  0.1651 -0.2106
 6003TIP3   OH217972   6.027   3.812   1.477  0.2483 -0.2188  0.5199
 6003TIP3    H117973   5.943   3.809   1.430  0.9335 -3.6499 -0.8153
 6003TIP3    H217974   6.080   3.875   1.429 -1.3821  1.7993  1.2211
 6004TIP3   OH217975   1.521   4.101   2.549 -0.0665  0.0550  0.2736
 6004TIP3    H117976   1.450   4.147   2.503 -0.2982 -0.3763  0.1971
 6004TIP3    H217977   1.475   4.043   2.610  0.2182 -0.7081 -0.2433
 6005TIP3   OH217978   5.193   1.268   2.297 -0.0986  0.0318  0.0552
 6005TIP3    H117979   5.195   1.364   2.301 -0.3846  0.1067 -1.1432
 6005TIP3    H217980   5.100   1.245   2.303 -0.1168 -0.1033 -0.6506
 6006TIP3   OH217981   3.406   3.831   0.958 -0.0688 -0.2183  0.5551
 6006TIP3    H117982   3.372   3.810   1.045 -0.2240  0.1826  0.5916
 6006TIP3    H217983   3.407   3.926   0.955  1.6318 -0.2040  0.7833
 6007TIP3   OH217984   0.967   0.377   1.721  0.0782  0.1447  0.2554
 6007TIP3    H117985   1.042   0.434   1.702  0.1796 -0.2149 -0.4724
 6007TIP3    H217986   0.997   0.290   1.697 -0.4825 -0.0415  0.2183
 6008TIP3   OH217987   1.760   1.606   2.376  0.5683 -0.0849 -0.3408
 6008TIP3    H117988   1.756   1.603   2.280 -0.5898 -0.4529 -0.2958
 6008TIP3    H217989   1.668   1.607   2.403  0.8660  1.6818  0.7356
 6009TIP3   OH217990   2.077   0.817   5.329  0.0399  0.7309 -0.0801
 6009TIP3    H117991   2.039   0.814   5.241 -2.0816  1.2274  0.7548
 6009TIP3    H217992   2.159   0.769   5.321 -0.2111  0.5508 -2.2696
 6010TIP3   OH217993  -0.001   4.317   2.268 -0.0279  0.2727  0.0354
 6010TIP3    H117994  -0.060   4.244   2.248 -1.1208  0.8960  0.8558
 6010TIP3    H217995   0.081   4.275   2.293 -0.9666 -0.7602  1.5890
 6011TIP3   OH217996   2.920   5.496   3.240  0.0278  0.0700 -1.0742
 6011TIP3    H117997   2.979   5.425   3.216  0.1280 -0.3027  0.1949
 6011TIP3    H217998   2.888   5.472   3.327  1.9642  2.7496  0.5248
 6012TIP3   OH217999   2.077   2.917   5.015 -0.6201  0.1535 -0.2074
 6012TIP3    H118000   2.122   2.850   5.066 -1.2791  0.6155  1.0134
 6012TIP3    H218001   1.985   2.911   5.042 -0.9811  0.4462 -1.3066
 6013TIP3   OH218002   3.460   3.709   5.877 -0.0602  0.4875 -0.0839
 6013TIP3    H118003   3.440   3.729   5.785 -0.2973 -1.0851 -0.3872
 6013TIP3    H218004   3.556   3.701   5.879 -0.2181 -3.3053 -1.0839
 6014TIP3   OH218005   0.672   5.924   4.944 -0.0010  0.0482  0.0031
 6014TIP3    H118006   0.641   5.905   5.033 -0.3476 -0.9689 -0.3246
 6014TIP3    H218007   0.756   5.879   4.938 -0.7298 -1.2835 -0.7071
 6015TIP3   OH218008   0.654   4.370   2.865  0.9616 -0.4293  0.2394
 6015TIP3    H118009   0.732   4.417   2.837  0.8059 -0.0216  0.4910
 6015TIP3    H218010   0.663   4.284   2.824  1.0645 -0.0661 -0.5172
 6016TIP3   OH218011   1.098   4.367   0.547 -0.4444 -0.1111  0.4592
 6016TIP3    H118012   1.128   4.315   0.621  1.3556  0.7095  0.3630
 6016TIP3    H218013   1.164   4.354   0.480  0.2198  2.3974  0.5080
 6017TIP3   OH218014   6.153   6.521   5.181 -0.0132 -0.1659 -0.1681
 6017TIP3    H118015   6.224   6.495   5.239  0.4040  0.9899 -0.1368
 6017TIP3    H218016   6.169   6.613   5.163 -0.1819 -0.4666 -2.0637
 6018TIP3   OH218017   0.736   0.012   0.904 -0.0227  0.6018  0.3291
 6018TIP3    H118018   0.750  -0.012   0.996  0.2103  0.1325  0.1758
 6018TIP3    H218019   0.645   0.041   0.900 -0.6266 -1.1897  0.3378
 6019TIP3   OH218020   4.283   0.641   0.672  0.0214 -0.1522  0.9315
 6019TIP3    H118021   4.343   0.570   0.650 -0.0653 -0.2371  0.9698
 6019TIP3    H218022   4.275   0.638   0.767  0.2716  0.1139  0.9617
 6020TIP3   OH218023   0.188   0.749   1.024  0.0203 -0.1651 -0.0369
 6020TIP3    H118024   0.163   0.775   1.113 -0.6486 -1.6101  0.2321
 6020TIP3    H218025   0.117   0.780   0.969  1.2746  2.3500 -0.4003
 6021TIP3   OH218026   0.095   1.843   0.208  0.1777  0.2593  1.1969
 6021TIP3    H118027   0.079   1.775   0.273  1.4464  1.0429  2.3894
 6021TIP3    H218028   0.189   1.838   0.191 -0.0555  0.3913 -0.2401
 6022TIP3   OH218029   5.537   2.721   1.259  0.2408 -0.2773 -0.1285
 6022TIP3    H118030   5.489   2.646   1.225  0.3625  0.4023 -1.9227
 6022TIP3    H218031   5.469   2.777   1.297 -0.2254 -0.0253 -1.2914
 6023TIP3   OH218032   3.945   3.054   1.658  0.1005  0.0545 -0.4876
 6023TIP3    H118033   3.869   3.026   1.606 -0.2643  0.9674 -0.4553
 6023TIP3    H218034   3.997   2.974   1.668 -0.8425 -0.5851 -0.5255
 6024TIP3   OH218035   0.241   5.612   0.670 -0.1638  0.1522  0.0291
 6024TIP3    H118036   0.174   5.602   0.737 -0.9336  1.4223 -0.5025
 6024TIP3    H218037   0.193   5.644   0.593  0.9815  0.6500 -0.5052
 6025TIP3   OH218038   0.525   5.106   3.009 -0.1170  0.2953  0.5417
 6025TIP3    H118039   0.560   5.019   2.990 -1.1516  0.1544 -0.8354
 6025TIP3    H218040   0.602   5.163   3.010  0.4695 -0.4855  0.5349
 6026TIP3   OH218041   0.238   3.026   0.556  0.6191  0.4331 -0.3817
 6026TIP3    H118042   0.200   2.941   0.531  0.4454  0.7470 -1.2236
 6026TIP3    H218043   0.204   3.042   0.644 -1.4946  0.8500 -1.2218
 6027TIP3   OH218044   5.824   3.367   3.637  0.6547 -0.4931  0.2056
 6027TIP3    H118045   5.765   3.435   3.669  3.2406  0.5188  3.3736
 6027TIP3    H218046   5.831   3.383   3.543 -1.9643  0.9731  0.1678
 6028TIP3   OH218047   5.265   4.625   1.999  0.5373 -0.2269  0.6301
 6028TIP3    H118048   5.242   4.545   2.047 -2.0677  0.8914  1.4290
 6028TIP3    H218049   5.183   4.651   1.957  1.4622  1.7535 -0.0402
 6029TIP3   OH218050   4.054   1.942   2.162 -0.5873  0.1337  0.4137
 6029TIP3    H118051   4.057   2.037   2.176 -0.4428  0.0755  0.8070
 6029TIP3    H218052   4.124   1.926   2.099 -0.3971  0.2540  0.5881
 6030TIP3   OH218053   3.011   1.376   4.630  0.1200 -0.1231 -0.2038
 6030TIP3    H118054   2.963   1.457   4.616  0.2513  0.1617  0.8956
 6030TIP3    H218055   2.948   1.317   4.671  0.6789  0.2520  1.2412
 6031TIP3   OH218056   2.797   2.961   2.809  0.5801  0.3291  0.2849
 6031TIP3    H118057   2.824   3.008   2.730  0.1740  2.1623  1.1923
 6031TIP3    H218058   2.870   2.901   2.827  0.2708 -0.8614 -1.9779
 6032TIP3   OH218059   1.924   2.216   1.753  0.4484  0.9009  0.0424
 6032TIP3    H118060   1.944   2.240   1.843  0.7050  0.8000  0.0135
 6032TIP3    H218061   1.975   2.137   1.737 -1.5741 -0.6085  0.6233
 6033TIP3   OH218062   6.974   6.041   4.973  0.4613 -0.4558 -0.0297
 6033TIP3    H118063   7.050   5.982   4.977  0.8834  0.0962  0.2962
 6033TIP3    H218064   6.914   5.999   4.912  0.8503 -1.1135  0.0276
 6034TIP3   OH218065   1.080   2.598   4.335 -0.0353 -0.0724 -0.3603
 6034TIP3    H118066   1.024   2.599   4.257  0.0810 -2.1919 -0.5091
 6034TIP3    H218067   1.133   2.519   4.326  2.2367  1.2799  0.3356
 6035TIP3   OH218068   2.958   3.863   2.067  0.0911  0.0815 -0.2904
 6035TIP3    H118069   2.974   3.782   2.018  0.5955  0.4587 -0.7586
 6035TIP3    H218070   2.865   3.858   2.090  0.4289 -1.2773  0.8994
 6036TIP3   OH218071   5.884   5.241   1.443 -0.1571 -0.0862  0.2967
 6036TIP3    H118072   5.834   5.161   1.456 -0.2602 -0.0151  0.3412
 6036TIP3    H218073   5.971   5.220   1.479  0.3405 -0.7304 -1.2103
 6037TIP3   OH218074   0.161   3.736   4.009  0.0096  0.2323 -0.0786
 6037TIP3    H118075   0.153   3.831   4.000  2.4330  0.4573 -0.3478
 6037TIP3    H218076   0.218   3.723   4.084 -1.1257 -1.0773  0.6093
 6038TIP3   OH218077   6.345   3.279   1.475 -0.2933 -0.5908 -0.0318
 6038TIP3    H118078   6.295   3.198   1.484 -1.0585  0.1265  3.2665
 6038TIP3    H218079   6.436   3.250   1.467 -0.5662 -1.7827  0.9549
 6039TIP3   OH218080   3.306   2.043   2.898 -0.4862 -0.2020 -0.0973
 6039TIP3    H118081   3.389   2.049   2.945 -0.8536  1.5835  0.3915
 6039TIP3    H218082   3.324   1.983   2.825  1.3416  0.4573 -0.2351
 6040TIP3   OH218083   5.065   0.562   2.134 -0.3017  0.1064 -0.0060
 6040TIP3    H118084   4.974   0.577   2.108 -0.7926 -1.7948  0.4768
 6040TIP3    H218085   5.117   0.597   2.061 -1.3259  2.5096  0.3390
 6041TIP3   OH218086   3.252   4.689   1.264  0.0205  0.2475  0.0977
 6041TIP3    H118087   3.328   4.746   1.274 -1.2922  2.1486 -0.2609
 6041TIP3    H218088   3.271   4.636   1.187  0.4520  1.6153 -0.7668
 6042TIP3   OH218089   4.593   2.082   1.978  0.0173 -0.2810  0.0674
 6042TIP3    H118090   4.553   2.070   2.064  0.9907 -0.2435  0.5358
 6042TIP3    H218091   4.565   2.005   1.929 -0.7384 -0.1870  0.3289
 6043TIP3   OH218092   2.591   5.231   2.916  0.1903 -0.0134  0.7409
 6043TIP3    H118093   2.661   5.266   2.861 -0.3477 -0.6666 -0.4028
 6043TIP3    H218094   2.628   5.230   3.004  1.4966 -0.0220  0.2183
 6044TIP3   OH218095   3.063   4.563   2.215  0.4653  0.2776  0.1161
 6044TIP3    H118096   3.036   4.515   2.294  1.6873  0.2638  0.5576
 6044TIP3    H218097   2.998   4.539   2.149  0.6493 -1.4682  0.5077
 6045TIP3   OH218098   0.041   1.845   2.419 -0.1953 -0.2447  0.1114
 6045TIP3    H118099   0.087   1.878   2.496 -1.0061  0.0386  0.4942
 6045TIP3    H218100   0.110   1.812   2.361  0.5013  0.5174  0.4905
 6046TIP3   OH218101   1.574   4.833   3.782  0.4371  0.2621  0.5756
 6046TIP3    H118102   1.518   4.851   3.706 -0.3512  0.1526  1.1158
 6046TIP3    H218103   1.625   4.757   3.756  1.4549  1.2520 -0.4987
 6047TIP3   OH218104   6.110   5.183   2.582 -0.4091 -0.1412  0.1592
 6047TIP3    H118105   6.040   5.158   2.522  0.0766 -0.4733 -0.2675
 6047TIP3    H218106   6.072   5.255   2.633 -0.5641  0.6690 -1.0605
 6048TIP3   OH218107   2.702   3.128   1.282  0.1796  0.1467 -0.4169
 6048TIP3    H118108   2.714   3.100   1.373  0.4101  0.4202 -0.3595
 6048TIP3    H218109   2.785   3.109   1.240  0.5292  1.1973 -0.2493
 6049TIP3   OH218110   2.177   2.769   1.918 -0.5115 -0.5433 -0.2935
 6049TIP3    H118111   2.099   2.818   1.943 -0.1887  0.3730 -1.0037
 6049TIP3    H218112   2.147   2.679   1.907 -1.0026 -0.6392  1.5875
 6050TIP3   OH218113   3.067   4.698   1.973 -0.1571 -0.3589 -0.4541
 6050TIP3    H118114   3.111   4.783   1.981 -1.4501  0.2371  0.8470
 6050TIP3    H218115   3.107   4.643   2.041 -2.2013  0.6050  1.6768
 6051TIP3   OH218116   2.794   5.469   4.823 -0.0672  0.4176 -0.1806
 6051TIP3    H118117   2.782   5.403   4.892 -0.2883 -0.2395 -0.8319
 6051TIP3    H218118   2.709   5.475   4.780  0.6592 -1.0345 -1.9865
 6052TIP3   OH218119   5.676   3.227   4.251 -0.3649  0.4335  0.6511
 6052TIP3    H118120   5.647   3.243   4.340 -0.1906  2.2819  0.4247
 6052TIP3    H218121   5.653   3.307   4.204  3.3623  1.3337  0.0285
 6053TIP3   OH218122   2.170   3.519   1.604 -0.2587 -0.6992  0.9786
 6053TIP3    H118123   2.243   3.481   1.653  0.5831 -1.1292 -0.5670
 6053TIP3    H218124   2.116   3.444   1.580  0.6428 -0.8084 -0.8379
 6054TIP3   OH218125   1.534   6.358   1.341  0.2407  0.1150 -0.3144
 6054TIP3    H118126   1.448   6.390   1.316 -0.5343 -1.4188  0.2296
 6054TIP3    H218127   1.592   6.434   1.333 -1.1955  1.2287 -0.4766
 6055TIP3   OH218128   3.444   0.046   5.856  0.0798  0.1663 -0.3276
 6055TIP3    H118129   3.442   0.060   5.762  0.5473  1.8696 -0.1252
 6055TIP3    H218130   3.535   0.062   5.881 -0.3082  1.0988  0.5735
 6056TIP3   OH218131   6.223   1.930   4.151  0.0575 -0.5840 -0.2557
 6056TIP3    H118132   6.239   1.841   4.120 -1.3958 -0.8375 -0.3569
 6056TIP3    H218133   6.136   1.951   4.118 -0.0097  0.5191  0.5757
 6057TIP3   OH218134   2.347   5.342   0.238 -0.5761  0.0283  0.3480
 6057TIP3    H118135   2.272   5.290   0.265  0.7775 -1.3652  1.6341
 6057TIP3    H218136   2.418   5.315   0.297  1.3053  0.2943 -1.6432
 6058TIP3   OH218137   6.712   3.029   0.039  0.0410  0.0670 -0.3502
 6058TIP3    H118138   6.662   3.083   0.100 -2.1064  0.8398 -2.6399
 6058TIP3    H218139   6.776   3.090   0.001 -0.8518  0.4599 -1.2589
 6059TIP3   OH218140   0.409   4.680   3.964  1.0484 -0.2315 -0.5785
 6059TIP3    H118141   0.422   4.774   3.968 -1.0824  0.0823  0.4883
 6059TIP3    H218142   0.387   4.654   4.054  2.1578 -1.8612 -0.7266
 6060TIP3   OH218143   3.301   5.561   2.534 -0.1669  0.1340  0.3725
 6060TIP3    H118144   3.282   5.545   2.441  0.9594  1.1965 -0.0685
 6060TIP3    H218145   3.312   5.473   2.571  1.6029 -0.2826 -1.0098
 6061TIP3   OH218146   6.115   6.186   1.887 -0.0688  0.1472  0.3574
 6061TIP3    H118147   6.192   6.129   1.892  0.6571  0.9744 -0.7810
 6061TIP3    H218148   6.143   6.267   1.931 -0.3373  0.4072  0.0506
 6062TIP3   OH218149   6.434   5.177   2.772  0.4016 -0.6909 -0.0346
 6062TIP3    H118150   6.385   5.244   2.819  1.2542  0.2926 -0.5051
 6062TIP3    H218151   6.371   5.105   2.760 -0.5154 -0.0020  0.5253
 6063TIP3   OH218152   4.833   2.780   0.279 -0.5102  0.3250  0.0444
 6063TIP3    H118153   4.772   2.710   0.257  0.9930 -0.8849 -0.4120
 6063TIP3    H218154   4.873   2.752   0.362 -0.3063  0.9318  0.1596
 6064TIP3   OH218155   6.206   0.448   0.104  0.1192  0.2008  0.2999
 6064TIP3    H118156   6.266   0.522   0.101  0.4742 -0.1235 -1.6691
 6064TIP3    H218157   6.262   0.370   0.102 -0.3207 -0.1093 -0.2943
 6065TIP3   OH218158   3.800   2.513   3.736  0.1859 -0.1848  1.0724
 6065TIP3    H118159   3.821   2.578   3.669 -0.5520 -0.9972  0.0435
 6065TIP3    H218160   3.882   2.502   3.784  0.7116  0.4496  0.3451
 6066TIP3   OH218161   7.090   6.646   0.989 -0.0847  0.2794  0.0172
 6066TIP3    H118162   7.062   6.725   0.942 -0.3508  0.5642  0.6499
 6066TIP3    H218163   7.171   6.672   1.033  1.0148 -0.4329 -1.5039
 6067TIP3   OH218164   0.840   4.898   5.760  0.7188 -0.1108 -0.1039
 6067TIP3    H118165   0.878   4.883   5.847 -0.0614 -0.1706  0.2332
 6067TIP3    H218166   0.811   4.990   5.762  0.3355 -0.2302 -0.1591
 6068TIP3   OH218167   5.900   3.061   3.419  0.0549 -0.0237 -0.0648
 6068TIP3    H118168   5.931   2.977   3.383  0.4494  0.4103 -0.7534
 6068TIP3    H218169   5.872   3.111   3.342 -0.3879  0.3959  0.3649
 6069TIP3   OH218170   5.720   5.723   5.415  0.0456 -0.2353 -0.8453
 6069TIP3    H118171   5.739   5.664   5.342 -1.1490 -0.4885 -0.9675
 6069TIP3    H218172   5.676   5.668   5.480  0.2588  0.1975 -0.3220
 6070TIP3   OH218173   2.059   1.698   1.122 -0.1496 -0.0915  0.6453
 6070TIP3    H118174   2.032   1.619   1.169 -0.1139 -0.1782  0.5205
 6070TIP3    H218175   1.980   1.751   1.116 -0.0642  0.0975  1.1545
 6071TIP3   OH218176   3.979   0.765   3.432  0.4228  0.0637 -0.4409
 6071TIP3    H118177   3.956   0.789   3.522 -1.1261 -1.0120 -0.5210
 6071TIP3    H218178   4.023   0.843   3.397  1.0769  0.4869  1.2337
 6072TIP3   OH218179   6.135   5.891   0.396 -0.1817 -0.5193  0.2306
 6072TIP3    H118180   6.049   5.932   0.385  0.4369  0.7554  0.0594
 6072TIP3    H218181   6.187   5.955   0.444  0.8965 -0.9763 -0.2787
 6073TIP3   OH218182   0.627   1.295   3.658  0.2652  0.5978  0.1447
 6073TIP3    H118183   0.642   1.277   3.751 -0.0752  1.6780  0.4288
 6073TIP3    H218184   0.605   1.388   3.656 -0.9932  0.2929 -0.8846
 6074TIP3   OH218185   3.377   5.275   5.742  0.3518  0.4906 -0.2865
 6074TIP3    H118186   3.305   5.290   5.803  0.5460 -1.1554  0.3917
 6074TIP3    H218187   3.335   5.254   5.659  0.0620  0.1731 -0.0593
 6075TIP3   OH218188   6.193   2.226   4.738  0.2559 -0.8400  0.1811
 6075TIP3    H118189   6.194   2.300   4.799  1.8466  1.0204 -1.9132
 6075TIP3    H218190   6.105   2.227   4.700  0.4356  0.4488 -0.2721
 6076TIP3   OH218191   2.948   3.246   4.498 -0.0963  0.5725 -0.3813
 6076TIP3    H118192   2.915   3.316   4.441 -1.5242  0.2699  0.0287
 6076TIP3    H218193   2.869   3.200   4.526  0.4155  1.4694  2.8509
 6077TIP3   OH218194   0.622   0.004   2.070 -0.8663  0.4298  0.0804
 6077TIP3    H118195   0.610   0.083   2.018 -0.2549  0.7872  0.4635
 6077TIP3    H218196   0.578   0.022   2.153 -0.8091  0.3335  0.1326
 6078TIP3   OH218197   6.602   2.618   2.381 -0.6851  0.2436 -0.4304
 6078TIP3    H118198   6.659   2.553   2.339 -0.7433 -0.3589  0.4119
 6078TIP3    H218199   6.631   2.621   2.472  1.0270  3.2493 -0.9291
 6079TIP3   OH218200   2.308   5.718   5.344  0.1806  0.6470 -0.3848
 6079TIP3    H118201   2.378   5.719   5.279  0.9014  0.9837  0.3752
 6079TIP3    H218202   2.329   5.790   5.403 -1.4237  1.4832 -0.7588
 6080TIP3   OH218203   4.053   1.304   2.369  0.0310 -0.1818  0.1506
 6080TIP3    H118204   4.082   1.212   2.371  0.9399 -0.0977 -2.8553
 6080TIP3    H218205   3.973   1.302   2.317 -1.4835  0.4900  2.3338
 6081TIP3   OH218206   6.646   5.081   0.895 -0.6294 -0.3745  0.0310
 6081TIP3    H118207   6.636   5.158   0.951 -0.4137 -2.1509  2.7387
 6081TIP3    H218208   6.741   5.067   0.892 -0.6489 -0.3820 -0.6981
 6082TIP3   OH218209   6.784   3.535   0.530 -0.5585 -0.5606  0.2569
 6082TIP3    H118210   6.769   3.548   0.436  0.2343 -0.1549  0.1716
 6082TIP3    H218211   6.877   3.510   0.535 -0.2541  0.6387  1.0334
 6083TIP3   OH218212   1.801   0.691   5.273 -0.2456  0.4073  0.3852
 6083TIP3    H118213   1.754   0.720   5.352  0.8462 -0.7489  1.4962
 6083TIP3    H218214   1.887   0.665   5.305  0.9725  1.8646 -1.5182
 6084TIP3   OH218215   4.650   0.659   0.506  0.0098  0.1078  0.4186
 6084TIP3    H118216   4.578   0.672   0.444 -0.2721  0.9807  0.9008
 6084TIP3    H218217   4.610   0.613   0.580 -0.2230  1.1112  0.9460
 6085TIP3   OH218218   3.931   4.132   4.318 -0.2976 -0.2531  0.3026
 6085TIP3    H118219   3.873   4.116   4.393 -0.5146 -0.0287  0.1857
 6085TIP3    H218220   3.893   4.081   4.247 -0.2067 -0.3071  0.2929
 6086TIP3   OH218221   3.797   0.409   2.403 -0.5339 -0.2156 -0.2312
 6086TIP3    H118222   3.796   0.444   2.313 -0.3781  0.2122 -0.0681
 6086TIP3    H218223   3.874   0.351   2.405  0.8837  1.5868  0.2956
 6087TIP3   OH218224   5.684   4.212   0.818  0.5705  0.2956 -0.0738
 6087TIP3    H118225   5.771   4.174   0.834 -0.1267 -1.1350  0.5155
 6087TIP3    H218226   5.626   4.166   0.879 -0.4660  1.8588  0.1715
 6088TIP3   OH218227   1.961   0.596   0.831  0.2404 -0.3382 -0.2074
 6088TIP3    H118228   1.969   0.581   0.737 -0.4933  0.8499 -0.4835
 6088TIP3    H218229   2.018   0.670   0.849  0.0360 -0.2751  0.1978
 6089TIP3   OH218230   1.665   3.708   0.646 -0.4335 -0.4496 -0.1627
 6089TIP3    H118231   1.581   3.671   0.619 -0.1707 -1.0057 -0.2218
 6089TIP3    H218232   1.704   3.742   0.565 -0.7852  0.1949 -0.0698
 6090TIP3   OH218233   6.835   3.164   0.597 -0.4246 -0.3571 -0.5143
 6090TIP3    H118234   6.818   3.072   0.616  1.0314 -0.5604 -0.0660
 6090TIP3    H218235   6.783   3.212   0.662 -4.0932 -0.6370 -2.9151
 6091TIP3   OH218236   5.471   2.214   5.475 -0.2263  0.0388 -0.2191
 6091TIP3    H118237   5.485   2.120   5.463 -1.2410  0.0939 -2.2607
 6091TIP3    H218238   5.559   2.252   5.467  0.1428 -0.6858  0.2817
 6092TIP3   OH218239   2.554   2.104   1.072 -0.2068 -0.1022  0.5729
 6092TIP3    H118240   2.608   2.055   1.134  1.7224 -0.2691 -1.1360
 6092TIP3    H218241   2.611   2.174   1.041 -0.9906 -0.2274 -1.2464
 6093TIP3   OH218242   1.545   3.663   4.654  0.2526  0.2990 -0.4241
 6093TIP3    H118243   1.619   3.685   4.712  0.5453 -2.2601  0.3031
 6093TIP3    H218244   1.586   3.615   4.581 -0.4004  1.4353 -1.5807
 6094TIP3   OH218245   2.618   0.184   3.183 -0.0011 -0.1819 -0.0891
 6094TIP3    H118246   2.608   0.098   3.224 -2.8655  0.6469  1.1660
 6094TIP3    H218247   2.606   0.167   3.089 -0.0639 -1.2047  0.0900
 6095TIP3   OH218248   1.426   6.349   1.590 -0.0510 -0.1689 -0.2568
 6095TIP3    H118249   1.335   6.363   1.563 -0.0544  0.7378  0.1931
 6095TIP3    H218250   1.471   6.327   1.509 -1.0482 -2.7560 -0.1872
 6096TIP3   OH218251   0.180   4.957   5.674 -0.1875 -0.3189  0.2151
 6096TIP3    H118252   0.215   5.023   5.615  0.0783 -2.1096 -1.7313
 6096TIP3    H218253   0.226   4.972   5.757  0.3329  1.4877 -0.3667
 6097TIP3   OH218254   1.886   0.106   3.370 -0.1333 -0.0750 -0.6574
 6097TIP3    H118255   1.842   0.087   3.452 -0.2614 -1.0955 -0.9397
 6097TIP3    H218256   1.930   0.024   3.347 -1.0928 -0.1984 -2.2011
 6098TIP3   OH218257   5.007   3.627   1.981  0.7322 -0.2759 -0.3564
 6098TIP3    H118258   4.928   3.579   2.004  0.7014 -0.1917 -0.2874
 6098TIP3    H218259   5.032   3.592   1.895  0.7235 -0.4309 -0.2949
 6099TIP3   OH218260   3.914   0.791   1.148 -0.1436 -0.4758  0.1972
 6099TIP3    H118261   3.917   0.755   1.060  1.2864  0.7329 -0.2934
 6099TIP3    H218262   3.946   0.720   1.205  1.6242 -0.3961 -0.6170
 6100TIP3   OH218263   1.759   3.157   0.816  0.4308  0.5157 -0.1040
 6100TIP3    H118264   1.798   3.239   0.846  0.5821  0.4115 -0.0083
 6100TIP3    H218265   1.789   3.147   0.726 -0.4168  1.0700 -0.4539
 6101TIP3   OH218266   2.126   0.943   0.063  0.2168  0.2033  0.0088
 6101TIP3    H118267   2.159   0.932  -0.026 -0.8593 -0.1448 -0.3640
 6101TIP3    H218268   2.111   0.854   0.094 -1.5096  0.3548 -0.2935
 6102TIP3   OH218269   5.361   5.677   0.080 -0.5452  0.1603  0.3648
 6102TIP3    H118270   5.426   5.612   0.051  0.5616  1.2987  0.2245
 6102TIP3    H218271   5.342   5.651   0.171 -1.5447 -1.4482 -0.2510
 6103TIP3   OH218272   3.845   4.894   0.056  0.2164  0.2438  0.0637
 6103TIP3    H118273   3.798   4.811   0.060 -0.2507  0.5410  1.0671
 6103TIP3    H218274   3.923   4.875   0.004 -0.1727 -0.6731 -0.2036
 6104TIP3   OH218275   5.653   6.091   3.172  0.0884  0.4203  0.2535
 6104TIP3    H118276   5.560   6.070   3.162 -0.2974  1.8958  0.4729
 6104TIP3    H218277   5.687   6.023   3.231 -0.4145 -1.1829 -1.2212
 6105TIP3   OH218278   0.364   1.909   0.201  0.2296  0.1953  0.0592
 6105TIP3    H118279   0.432   1.970   0.230  0.0383  0.8806 -0.8684
 6105TIP3    H218280   0.335   1.945   0.117  0.2666 -1.3005 -0.6239
 6106TIP3   OH218281   4.325   0.915   0.628  0.5058 -0.6875 -0.3608
 6106TIP3    H118282   4.305   0.829   0.665 -0.2797 -0.8417 -1.1103
 6106TIP3    H218283   4.407   0.903   0.580  0.1464 -1.1390 -0.8665
 6107TIP3   OH218284   2.619   5.647   0.298  0.0250 -0.0467  0.2546
 6107TIP3    H118285   2.603   5.648   0.203 -0.0577 -0.9884  0.2551
 6107TIP3    H218286   2.706   5.685   0.307  0.1165 -0.1306 -0.2207
 6108TIP3   OH218287   6.327   1.919   5.839 -0.1720  0.3385 -0.7087
 6108TIP3    H118288   6.316   2.013   5.827 -1.1566  0.4539  0.8714
 6108TIP3    H218289   6.277   1.880   5.767 -1.9211  1.0171  0.1038
 6109TIP3   OH218290   3.716   3.223   3.473 -0.0053  0.5007 -0.2634
 6109TIP3    H118291   3.745   3.247   3.385  0.7405  0.7053  0.0371
 6109TIP3    H218292   3.721   3.128   3.475 -1.5164  0.3814 -0.9506
 6110TIP3   OH218293   6.278   3.170   0.439 -0.4584  0.5256  0.9989
 6110TIP3    H118294   6.196   3.146   0.483 -0.8523 -0.4223 -0.2050
 6110TIP3    H218295   6.277   3.266   0.438 -2.2742  0.5384 -0.2735
 6111TIP3   OH218296   3.121   2.116   4.311  0.0567 -0.0329  0.0300
 6111TIP3    H118297   3.135   2.154   4.398  0.5174  0.5847 -0.3013
 6111TIP3    H218298   3.039   2.067   4.319  1.1547 -1.7890  1.4062
 6112TIP3   OH218299   2.559   6.144   5.628  0.0103  0.1541 -0.8525
 6112TIP3    H118300   2.566   6.065   5.682  0.1309  0.1546 -0.8686
 6112TIP3    H218301   2.476   6.184   5.655 -1.4468 -1.3814 -2.7192
 6113TIP3   OH218302   3.500   5.811   2.189 -0.1808 -0.1428  0.8823
 6113TIP3    H118303   3.589   5.810   2.153  0.5147  2.3141  2.3186
 6113TIP3    H218304   3.446   5.839   2.115  0.4537 -0.1801  0.3876
 6114TIP3   OH218305   6.626   5.920   5.386 -0.3625  0.5141 -0.5031
 6114TIP3    H118306   6.600   5.828   5.395 -0.2321  0.4482 -0.7939
 6114TIP3    H218307   6.544   5.967   5.374 -0.6620  0.7239  1.8132
 6115TIP3   OH218308   0.640   6.059   4.680 -0.1435  0.5337  0.5994
 6115TIP3    H118309   0.619   6.041   4.772 -0.7780  0.1166  0.3749
 6115TIP3    H218310   0.736   6.062   4.678 -0.0458 -1.4170  0.9054
 6116TIP3   OH218311   1.366   5.796   2.229 -0.0439  0.5104 -0.3981
 6116TIP3    H118312   1.315   5.716   2.243 -0.0646  0.6439  0.3345
 6116TIP3    H218313   1.338   5.855   2.299  1.4750  0.4102  0.3382
 6117TIP3   OH218314   7.217   6.333   3.665  0.3431  0.1359 -0.5248
 6117TIP3    H118315   7.178   6.419   3.654 -0.6834 -0.2707 -0.1512
 6117TIP3    H218316   7.184   6.282   3.591 -0.4085 -0.4090  0.1747
 6118TIP3   OH218317   5.912   0.995   2.737 -0.3200 -0.1717  0.0641
 6118TIP3    H118318   5.942   1.002   2.828 -1.7535 -1.5460  0.6879
 6118TIP3    H218319   5.921   0.903   2.716  0.1589  0.1680 -1.2723
 6119TIP3   OH218320   1.100   2.183   5.270 -0.2398 -0.1462  0.3605
 6119TIP3    H118321   1.071   2.213   5.183  1.7338 -1.7885 -0.9629
 6119TIP3    H218322   1.026   2.133   5.304 -0.6399 -0.4641 -0.9056
 6120TIP3   OH218323   3.076   4.847   3.028 -0.1188 -0.0246  0.1673
 6120TIP3    H118324   3.028   4.767   3.049 -2.7851  1.3641 -0.1874
 6120TIP3    H218325   3.114   4.829   2.941 -0.9565 -0.7925 -0.0602
 6121TIP3   OH218326   3.030   6.083   3.125  0.1820  0.0905 -0.1124
 6121TIP3    H118327   3.036   6.163   3.072 -1.4478  0.0687 -0.3760
 6121TIP3    H218328   3.000   6.016   3.064 -2.2606  0.1793  0.8813
 6122TIP3   OH218329   6.403   4.248   3.592 -0.2489  0.3444 -0.2068
 6122TIP3    H118330   6.343   4.193   3.542 -0.3567 -1.1721  1.4801
 6122TIP3    H218331   6.347   4.317   3.629 -0.6037  0.0184 -0.1332
 6123TIP3   OH218332   1.783   0.551   3.361  0.3651 -0.7108  0.4634
 6123TIP3    H118333   1.802   0.584   3.449  0.8036 -1.7322  0.7614
 6123TIP3    H218334   1.734   0.470   3.376 -0.0702 -0.5831 -0.2475
 6124TIP3   OH218335   3.144   3.721   4.400  0.3278 -0.2911  0.0650
 6124TIP3    H118336   3.201   3.747   4.328 -0.2902 -3.9626 -1.9435
 6124TIP3    H218337   3.056   3.744   4.371  0.0773 -1.7675 -0.4239
 6125TIP3   OH218338   1.891   2.702   5.281 -0.0012  0.4899  0.3515
 6125TIP3    H118339   1.846   2.766   5.226  2.3974  1.9194 -0.1056
 6125TIP3    H218340   1.933   2.642   5.218 -0.3845 -0.2102  0.7427
 6126TIP3   OH218341   3.311   4.226   4.609 -0.5576  0.2802 -0.8647
 6126TIP3    H118342   3.395   4.179   4.611 -1.0913 -0.7112 -0.8007
 6126TIP3    H218343   3.313   4.275   4.526  1.1108  2.2916  0.2712
 6127TIP3   OH218344   5.347   2.110   2.011  0.1943  0.3341 -0.0858
 6127TIP3    H118345   5.423   2.065   2.048  0.0468 -0.5374 -0.8038
 6127TIP3    H218346   5.368   2.203   2.018  2.0834  0.0934 -1.7455
 6128TIP3   OH218347   1.834   3.135   0.180  0.1213 -0.5336 -0.1438
 6128TIP3    H118348   1.819   3.041   0.184 -3.2478 -0.0747  2.0675
 6128TIP3    H218349   1.781   3.165   0.106  0.4605 -0.2730 -0.2834
 6129TIP3   OH218350   5.587   3.920   4.771 -0.0318 -0.1630 -0.1700
 6129TIP3    H118351   5.679   3.903   4.789 -0.0398 -0.8975 -0.8030
 6129TIP3    H218352   5.540   3.857   4.826 -0.1819  0.3923  0.3627
 6130TIP3   OH218353   6.125   5.852   2.837 -0.0294 -0.3181  0.2296
 6130TIP3    H118354   6.040   5.875   2.800  0.0648  0.3050  0.3948
 6130TIP3    H218355   6.181   5.928   2.819  0.6237 -0.9059 -0.2786
 6131TIP3   OH218356   6.404   3.792   1.495  0.4516 -0.6740 -0.7150
 6131TIP3    H118357   6.416   3.773   1.402  0.7948 -0.8661 -0.6313
 6131TIP3    H218358   6.492   3.797   1.530  0.3170 -0.9546 -0.3287
 6132TIP3   OH218359   3.087   4.053   4.561  1.0636  0.0785 -0.2314
 6132TIP3    H118360   3.146   3.979   4.544  1.9129  1.1607 -2.3667
 6132TIP3    H218361   3.144   4.123   4.593  0.7139  0.6833 -0.9112
 6133TIP3   OH218362   2.041   3.382   4.219  0.1634  0.3389 -0.5066
 6133TIP3    H118363   1.986   3.304   4.226  1.5346 -0.7133 -0.9026
 6133TIP3    H218364   2.123   3.358   4.262  0.3118  1.8996  0.1677
 6134TIP3   OH218365   6.265   4.901   0.205  0.3888  0.1729 -0.5980
 6134TIP3    H118366   6.350   4.893   0.162  0.4236 -1.3055 -0.3170
 6134TIP3    H218367   6.202   4.872   0.139  0.2125  0.1347 -0.4135
 6135TIP3   OH218368   3.295   2.975   1.287 -0.3703  0.3026  0.2625
 6135TIP3    H118369   3.370   2.918   1.267  0.4971  1.5053 -0.0289
 6135TIP3    H218370   3.314   3.056   1.239 -2.2024  0.3971 -0.3765
 6136TIP3   OH218371   5.524   0.164   3.516 -0.0739  0.2106 -0.6259
 6136TIP3    H118372   5.554   0.219   3.444 -0.8039  1.6581  0.1481
 6136TIP3    H218373   5.598   0.161   3.577  0.0541  0.1029 -0.7837
 6137TIP3   OH218374   2.562   1.878   4.069 -0.0846 -0.2544 -0.4314
 6137TIP3    H118375   2.514   1.807   4.112 -1.9377  1.6316  0.8658
 6137TIP3    H218376   2.546   1.865   3.976 -2.6066 -0.1446 -0.0909
 6138TIP3   OH218377   3.863   3.352   3.264  0.4283 -0.0064  0.4079
 6138TIP3    H118378   3.918   3.425   3.293  0.8972 -0.1048 -0.2260
 6138TIP3    H218379   3.924   3.281   3.245  0.0681 -0.1702 -0.1492
 6139TIP3   OH218380   0.457   5.795   1.554  0.2970  0.5867  0.9402
 6139TIP3    H118381   0.458   5.711   1.507 -1.1101  0.7820  0.5080
 6139TIP3    H218382   0.421   5.773   1.640 -0.3250  0.7679  0.7356
 6140TIP3   OH218383   2.211   5.791   4.377  0.0997  0.1805  0.3107
 6140TIP3    H118384   2.233   5.698   4.374  0.1291  0.1206  1.8337
 6140TIP3    H218385   2.231   5.818   4.466  0.6525  1.8021 -0.2599
 6141TIP3   OH218386   2.176   1.571   4.021 -0.2462 -0.0138  0.0160
 6141TIP3    H118387   2.117   1.545   3.950 -0.1943  1.1719 -0.4874
 6141TIP3    H218388   2.178   1.667   4.016  0.3527  0.0447  1.1445
 6142TIP3   OH218389   6.518   5.852   2.134 -0.2619 -0.7604  0.0067
 6142TIP3    H118390   6.461   5.777   2.154 -0.1878 -0.6982  0.4606
 6142TIP3    H218391   6.606   5.816   2.138 -0.2088 -0.5823  0.5490
 6143TIP3   OH218392   2.582   3.297   2.212 -0.1934  0.2654 -0.0608
 6143TIP3    H118393   2.508   3.345   2.248  1.3451  2.0331  0.9138
 6143TIP3    H218394   2.627   3.260   2.288  1.0209  0.9158 -0.4246
 6144TIP3   OH218395   4.946   5.605   5.470 -0.1161  0.2301 -0.3866
 6144TIP3    H118396   5.017   5.669   5.469 -0.8404  1.0348 -0.6025
 6144TIP3    H218397   4.870   5.651   5.435 -0.2965 -1.1572 -1.9305
 6145TIP3   OH218398   3.611   2.450   3.028 -0.8778 -0.3452 -0.9926
 6145TIP3    H118399   3.613   2.406   2.943 -3.6550 -0.8793 -0.8933
 6145TIP3    H218400   3.520   2.480   3.037 -0.8614 -0.9119  2.0671
 6146TIP3   OH218401   6.396   4.114   1.751  0.1866  0.5091  0.0212
 6146TIP3    H118402   6.460   4.046   1.772 -1.5399 -0.7541  1.4474
 6146TIP3    H218403   6.366   4.091   1.662 -0.1040 -0.3994  0.3401
 6147TIP3   OH218404   0.087   3.870   5.456  0.4035  0.3778  0.4343
 6147TIP3    H118405   0.102   3.951   5.505 -0.0933  1.1739 -0.6970
 6147TIP3    H218406   0.007   3.834   5.495 -0.4233  1.3969 -0.2538
 6148TIP3   OH218407   5.418   0.318   0.981 -0.5458  0.0318  0.0393
 6148TIP3    H118408   5.326   0.339   0.964 -0.7694  0.0090  1.1376
 6148TIP3    H218409   5.423   0.223   0.971 -1.0550 -0.1998  1.6744
 6149TIP3   OH218410   0.229   1.352   4.877 -0.0386  0.0152 -0.2287
 6149TIP3    H118411   0.142   1.392   4.872 -1.1056 -2.3030 -1.5376
 6149TIP3    H218412   0.223   1.291   4.950  0.8042  0.4664  0.2335
 6150TIP3   OH218413   6.268   4.979   2.672 -0.1233  0.1815  0.4640
 6150TIP3    H118414   6.210   4.943   2.739 -0.6072  0.3077  0.1209
 6150TIP3    H218415   6.213   5.042   2.625  0.2373  0.1519  0.0005
 6151TIP3   OH218416   0.854   4.049   4.919  0.6539  0.1342 -0.0394
 6151TIP3    H118417   0.902   4.002   4.987 -0.8222 -0.6934  0.4731
 6151TIP3    H218418   0.809   4.119   4.965 -0.4635 -0.5124 -0.1193
 6152TIP3   OH218419   4.927   0.108   5.255 -0.3017  0.5842  0.6915
 6152TIP3    H118420   4.853   0.152   5.296 -2.5812  0.0281 -2.4533
 6152TIP3    H218421   4.961   0.172   5.192 -2.1439 -1.1009 -2.2339
 6153TIP3   OH218422   6.009   3.364   3.139  0.4204 -0.5846 -0.4928
 6153TIP3    H118423   6.057   3.281   3.133 -1.5284 -1.7523 -0.6167
 6153TIP3    H218424   5.994   3.390   3.048 -0.1133 -0.7934 -0.4664
 6154TIP3   OH218425   3.495   5.858   5.015  0.1276 -0.0989 -0.1388
 6154TIP3    H118426   3.407   5.872   4.979  0.3565  0.3003 -0.5589
 6154TIP3    H218427   3.552   5.855   4.938  0.3980 -1.0507  0.0843
 6155TIP3   OH218428   3.139   1.461   3.042 -0.0144 -0.5020 -0.1485
 6155TIP3    H118429   3.194   1.538   3.057 -0.4727  0.5057 -3.0783
 6155TIP3    H218430   3.081   1.458   3.118  0.8088  1.3297  0.6122
 6156TIP3   OH218431   5.410   4.918   3.841 -0.3110 -0.0172 -0.0879
 6156TIP3    H118432   5.454   4.854   3.784 -0.5894 -1.9868  1.7995
 6156TIP3    H218433   5.455   5.001   3.822  0.5437 -0.8687 -2.1099
 6157TIP3   OH218434   7.073   5.010   3.652 -0.3627 -0.0769 -0.2417
 6157TIP3    H118435   7.029   4.929   3.681  0.6037  0.1220  2.0398
 6157TIP3    H218436   7.137   5.028   3.722  2.5202  0.3081 -2.7655
 6158TIP3   OH218437   5.080   4.052   1.566 -0.0291 -0.1886 -0.0270
 6158TIP3    H118438   5.081   3.989   1.493 -0.0191  0.6175 -0.7415
 6158TIP3    H218439   4.989   4.080   1.573 -0.2990 -1.2905  1.2012
 6159TIP3   OH218440   6.948   6.795   1.500 -0.3431  0.1459 -0.0126
 6159TIP3    H118441   6.961   6.726   1.565  0.3212 -0.1629 -0.4670
 6159TIP3    H218442   6.865   6.772   1.458  1.5040 -2.4632 -2.6127
 6160TIP3   OH218443   0.717   3.871   4.232  0.4849 -0.5446  0.1833
 6160TIP3    H118444   0.804   3.897   4.200  1.2076 -0.6133  2.0109
 6160TIP3    H218445   0.733   3.838   4.320 -1.1969 -2.0097 -0.0039
 6161TIP3   OH218446   3.195   4.574   4.311 -0.3699 -0.1908 -0.2685
 6161TIP3    H118447   3.218   4.627   4.235  0.3471 -0.6906 -0.4071
 6161TIP3    H218448   3.190   4.638   4.383 -0.3254  0.1747 -0.5843
 6162TIP3   OH218449   1.800   1.877   2.638  0.2577  0.5764  0.4441
 6162TIP3    H118450   1.741   1.870   2.713  0.7944  0.2106  0.8375
 6162TIP3    H218451   1.749   1.923   2.572 -0.0300  1.4018  1.2259
 6163TIP3   OH218452   3.997   5.367   2.438 -0.9810 -0.2963 -0.0047
 6163TIP3    H118453   4.024   5.333   2.524 -0.1966  0.3530  0.0167
 6163TIP3    H218454   4.067   5.340   2.378  1.0273  3.2537  0.4383
 6164TIP3   OH218455   1.998   3.019   4.649  0.5001 -0.1450 -0.3938
 6164TIP3    H118456   2.056   3.094   4.638  0.8273 -0.5038 -1.2191
 6164TIP3    H218457   1.932   3.048   4.712  1.5972  0.2605  0.6050
 6165TIP3   OH218458   2.688   1.986   5.837  0.0874  0.1402 -0.2709
 6165TIP3    H118459   2.767   1.970   5.889 -1.6006 -0.7921  2.1708
 6165TIP3    H218460   2.698   1.929   5.760  1.0921 -1.1941  0.7982
 6166TIP3   OH218461   6.431   4.412   5.660  0.1419  0.1169 -0.4219
 6166TIP3    H118462   6.465   4.486   5.711 -0.4130  0.7196 -0.9047
 6166TIP3    H218463   6.476   4.336   5.695  1.3591  0.7876 -0.4726
 6167TIP3   OH218464   6.629   4.330   1.724  0.5535  0.5515  0.2292
 6167TIP3    H118465   6.671   4.316   1.810 -0.1541 -0.3965  0.4377
 6167TIP3    H218466   6.537   4.343   1.744  0.4264  0.5939 -0.3747
 6168TIP3   OH218467   6.294   3.500   3.641  0.5213  0.0062 -0.4939
 6168TIP3    H118468   6.238   3.551   3.700  1.7993  1.7215 -0.7129
 6168TIP3    H218469   6.245   3.498   3.559  0.4614  0.9118 -0.4901
 6169TIP3   OH218470   0.761   3.493   3.044 -0.6509 -0.4147  0.3218
 6169TIP3    H118471   0.833   3.456   3.094 -0.6187 -0.7475  0.0319
 6169TIP3    H218472   0.789   3.583   3.026 -0.0404 -0.7156 -0.2887
 6170TIP3   OH218473   1.376   2.331   2.933 -0.1309  0.1461 -0.5208
 6170TIP3    H118474   1.284   2.332   2.908 -0.1740 -1.7254 -0.5759
 6170TIP3    H218475   1.422   2.304   2.853  0.4585  0.9701 -0.4674
 6171TIP3   OH218476   4.547   0.099   1.746 -0.6960  0.2383  0.2807
 6171TIP3    H118477   4.566   0.165   1.680  2.0430  0.2072  0.9203
 6171TIP3    H218478   4.572   0.140   1.829 -0.0980 -1.1249  0.8108
 6172TIP3   OH218479   4.351   3.075   5.632 -0.4598  0.0526  0.5595
 6172TIP3    H118480   4.299   3.155   5.625 -0.2158  0.1006 -1.3391
 6172TIP3    H218481   4.428   3.100   5.684 -0.5211  0.9906  0.2155
 6173TIP3   OH218482   5.746   2.427   2.508 -0.0026 -0.2375  0.1281
 6173TIP3    H118483   5.840   2.436   2.527  0.4606 -1.6473 -1.3620
 6173TIP3    H218484   5.736   2.339   2.474 -1.7786  0.1299 -0.4090
 6174TIP3   OH218485   6.824   5.751   5.620  0.6835 -0.1921 -0.9400
 6174TIP3    H118486   6.737   5.711   5.620 -0.8512  2.4976  2.6426
 6174TIP3    H218487   6.878   5.693   5.674  0.1745 -0.3400 -0.5854
 6175TIP3   OH218488   0.855   0.225   4.018  0.2953 -0.3149 -0.0708
 6175TIP3    H118489   0.832   0.153   3.958  3.2017 -0.6275 -0.9587
 6175TIP3    H218490   0.777   0.236   4.072 -1.6518 -1.5553 -2.4076
 6176TIP3   OH218491   1.870   4.053   0.112 -0.3674  0.5927  0.2696
 6176TIP3    H118492   1.816   4.103   0.051 -2.2013 -0.9193  0.5545
 6176TIP3    H218493   1.838   3.963   0.104  0.8065 -0.0258  1.9124
 6177TIP3   OH218494   3.719   5.757   2.018 -0.9021 -0.2849 -0.1110
 6177TIP3    H118495   3.732   5.804   1.935  1.5455 -0.2439  0.2277
 6177TIP3    H218496   3.757   5.670   2.002  0.3115 -0.0170  1.1617
 6178TIP3   OH218497   2.100   0.020   3.560  0.0599 -0.2417 -0.2439
 6178TIP3    H118498   2.069   0.038   3.471  1.1159 -0.9024 -0.7615
 6178TIP3    H218499   2.088   0.103   3.607 -1.9305 -0.3041 -0.5530
 6179TIP3   OH218500   1.266   0.042   0.077  0.5462 -0.0437  0.3091
 6179TIP3    H118501   1.311   0.127   0.067 -4.2049  2.8224  0.0671
 6179TIP3    H218502   1.213   0.053   0.156 -0.7754 -2.5496 -0.1454
 6180TIP3   OH218503   2.211   6.271   0.633 -0.1342 -0.4788  0.5501
 6180TIP3    H118504   2.206   6.292   0.726 -1.6387 -1.1054  0.6389
 6180TIP3    H218505   2.301   6.293   0.608 -0.5519  2.6500  1.3941
 6181TIP3   OH218506   2.516   4.582   1.604  0.7837  0.3802  0.5526
 6181TIP3    H118507   2.427   4.575   1.636  0.5900 -0.3245 -0.1133
 6181TIP3    H218508   2.510   4.640   1.527  0.8216 -0.0223  0.2418
 6182TIP3   OH218509   2.290   1.286   1.525 -0.2349  0.3171  0.1526
 6182TIP3    H118510   2.279   1.363   1.469 -0.0704  0.5991  0.5056
 6182TIP3    H218511   2.225   1.296   1.594 -1.9610 -1.1313 -1.1608
 6183TIP3   OH218512   4.114   4.877   4.510  0.1327 -0.3391 -0.0366
 6183TIP3    H118513   4.102   4.814   4.581  0.1842  0.2890  0.5471
 6183TIP3    H218514   4.209   4.879   4.496  0.0879 -0.7840 -0.4305
 6184TIP3   OH218515   6.754   1.486   0.681  0.2336 -0.1614 -0.0547
 6184TIP3    H118516   6.815   1.558   0.698  0.7208 -0.2174 -1.4140
 6184TIP3    H218517   6.677   1.528   0.642  0.4080 -0.3216 -0.5937
 6185TIP3   OH218518   4.369   3.070   5.152  0.6399  0.3615 -0.5501
 6185TIP3    H118519   4.313   2.994   5.135  1.6548 -0.0930 -2.0657
 6185TIP3    H218520   4.404   3.055   5.240  0.3253 -0.5867 -0.5722
 6186TIP3   OH218521   3.096   1.320   5.315  1.0255  0.3079  0.2513
 6186TIP3    H118522   3.130   1.231   5.320 -1.5946 -0.7112  1.6849
 6186TIP3    H218523   3.165   1.374   5.354  2.2909 -1.1731  0.1668
 6187TIP3   OH218524   2.201   1.201   2.718 -0.4644  0.2278  0.0646
 6187TIP3    H118525   2.182   1.208   2.811  0.3715 -2.5324  0.5449
 6187TIP3    H218526   2.158   1.119   2.691 -1.2686  1.2942 -2.1753
 6188TIP3   OH218527   6.377   1.026   4.019  0.2744 -0.8134  0.0648
 6188TIP3    H118528   6.313   0.984   3.962 -0.7337  1.7335 -0.8400
 6188TIP3    H218529   6.453   1.040   3.962  0.1982 -0.4918  0.0380
 6189TIP3   OH218530   0.151   0.511   1.148  0.6942  0.3273  0.0219
 6189TIP3    H118531   0.162   0.595   1.105  1.0929  0.2054 -0.1178
 6189TIP3    H218532   0.180   0.526   1.238 -1.0739  0.8437  0.5490
 6190TIP3   OH218533   0.308   0.043   3.465  0.4752  0.3039  0.2913
 6190TIP3    H118534   0.267  -0.042   3.479  2.6500 -0.7824  0.5552
 6190TIP3    H218535   0.239   0.106   3.483 -1.4350 -1.3905 -0.6806
 6191TIP3   OH218536   2.566   3.389   3.366  0.4427  0.5885 -0.7433
 6191TIP3    H118537   2.659   3.409   3.379  0.4136  0.9153 -1.0300
 6191TIP3    H218538   2.536   3.359   3.452  0.7973  0.5450 -0.6323
 6192TIP3   OH218539   0.872   6.361   0.036 -0.6750  0.0234 -0.3039
 6192TIP3    H118540   0.827   6.438   0.002  0.6472  0.8970 -0.1264
 6192TIP3    H218541   0.961   6.366   0.000  0.5223  0.4974  2.4695
 6193TIP3   OH218542   6.794   6.581   1.842  0.3300  0.3956  0.8862
 6193TIP3    H118543   6.874   6.588   1.790  0.9152  1.8990  1.9269
 6193TIP3    H218544   6.745   6.661   1.821  0.1979  0.6235  1.9877
 6194TIP3   OH218545   0.401   5.663   2.797 -0.1052  0.9185 -0.3031
 6194TIP3    H118546   0.482   5.699   2.760  1.0558  0.8775  2.0256
 6194TIP3    H218547   0.429   5.615   2.875 -2.1633 -0.9889 -0.6300
 6195TIP3   OH218548   5.924   2.959   3.776 -0.4225 -0.2367  0.0490
 6195TIP3    H118549   5.970   2.985   3.856 -0.2124  1.5830 -0.6049
 6195TIP3    H218550   5.845   3.013   3.775  0.7328  1.5801 -2.0954
 6196TIP3   OH218551   2.007   3.237   5.574 -0.6920 -0.5150 -0.0022
 6196TIP3    H118552   1.938   3.292   5.609  0.1866 -0.7369  2.2724
 6196TIP3    H218553   1.965   3.152   5.560 -1.7377  0.3171 -2.3056
 6197TIP3   OH218554   4.474   6.039   1.078  0.2940 -0.0131 -0.5377
 6197TIP3    H118555   4.407   6.103   1.104  0.9983  0.2517  0.6709
 6197TIP3    H218556   4.425   5.960   1.057 -0.4333  0.3270 -0.1541
 6198TIP3   OH218557   6.381   1.810   1.264  0.4017  0.3715 -0.4324
 6198TIP3    H118558   6.475   1.822   1.270  0.2537  0.7822  2.1753
 6198TIP3    H218559   6.362   1.735   1.321 -1.0101  1.3830  0.4940
 6199TIP3   OH218560   5.238   4.713   5.703  0.4532  0.6089 -0.0136
 6199TIP3    H118561   5.296   4.776   5.659 -0.1783  1.3466  0.1927
 6199TIP3    H218562   5.189   4.765   5.766  0.4514 -0.2313  0.6967
 6200TIP3   OH218563   2.051   2.302   0.756 -0.3123 -0.2574  0.2828
 6200TIP3    H118564   1.970   2.263   0.723 -0.0218 -0.1158 -0.6226
 6200TIP3    H218565   2.039   2.396   0.742  0.4740 -0.3237 -0.9536
 6201TIP3   OH218566   1.393   6.688   2.590 -0.1581  0.6679  0.6239
 6201TIP3    H118567   1.443   6.628   2.645  0.4019  1.1033  0.5971
 6201TIP3    H218568   1.354   6.632   2.522  2.8829  0.6408 -1.2801
 6202TIP3   OH218569   2.090   3.138   0.823  0.8195  0.5301  0.4153
 6202TIP3    H118570   2.175   3.167   0.790  0.1878  0.7700 -1.0660
 6202TIP3    H218571   2.039   3.218   0.834  0.4282  0.3148  0.2246
 6203TIP3   OH218572   6.482   0.152   3.295  0.0800 -0.0333  0.4543
 6203TIP3    H118573   6.420   0.170   3.367  1.3934  2.2981  1.0866
 6203TIP3    H218574   6.513   0.238   3.268 -0.2859 -0.8271 -2.9418
 6204TIP3   OH218575   0.659   4.249   5.053 -0.0469  0.1823 -0.4915
 6204TIP3    H118576   0.565   4.253   5.072  0.4298  2.9880  2.0647
 6204TIP3    H218577   0.677   4.331   5.007  1.8361  2.6732  4.0343
 6205TIP3   OH218578   3.848   3.231   0.319 -0.3810  0.4967 -0.2101
 6205TIP3    H118579   3.756   3.255   0.311 -0.4607  0.2520 -0.0209
 6205TIP3    H218580   3.884   3.247   0.232 -1.0952 -1.5129 -0.9289
 6206TIP3   OH218581   2.530   4.571   5.016  0.7350 -0.5939 -0.3125
 6206TIP3    H118582   2.496   4.482   5.020  0.3951 -0.4596 -0.1642
 6206TIP3    H218583   2.617   4.565   5.056  0.0550 -0.5599  1.2452
 6207TIP3   OH218584   1.354   6.622   3.735 -0.0829  0.0870  0.0938
 6207TIP3    H118585   1.387   6.572   3.810 -0.3312  0.4927  0.4806
 6207TIP3    H218586   1.396   6.582   3.659 -1.2385 -1.4922  0.2662
 6208TIP3   OH218587   4.920   5.843   0.712 -0.2302 -0.5768 -0.4544
 6208TIP3    H118588   4.965   5.807   0.635  1.0151 -0.3784  0.1587
 6208TIP3    H218589   4.941   5.936   0.711  0.7049 -0.7612  0.7206
 6209TIP3   OH218590   0.521   4.270   4.575 -0.1176  0.1456  0.4195
 6209TIP3    H118591   0.511   4.363   4.595  1.6067  0.1118  1.6950
 6209TIP3    H218592   0.594   4.267   4.513 -0.8850 -0.2952 -0.4796
 6210TIP3   OH218593   4.945   5.375   1.848 -0.3188  0.5338 -0.0003
 6210TIP3    H118594   4.990   5.296   1.817  0.8466  1.7356 -1.5863
 6210TIP3    H218595   4.961   5.439   1.779 -2.3661  1.7848  0.6123
 6211TIP3   OH218596   6.542   3.993   3.805 -0.5157 -0.4686  0.0567
 6211TIP3    H118597   6.611   4.048   3.768 -1.3821 -0.1790 -1.1792
 6211TIP3    H218598   6.513   4.041   3.883  1.0621 -0.8915  0.9407
 6212TIP3   OH218599   3.650   1.402   3.225 -0.3360  0.0768  0.0473
 6212TIP3    H118600   3.588   1.447   3.283  1.2118  2.3225  0.1232
 6212TIP3    H218601   3.652   1.312   3.256 -2.5029  0.2821  0.9034
 6213TIP3   OH218602   7.073   4.750   0.280  0.4304 -0.4012 -0.3400
 6213TIP3    H118603   6.980   4.735   0.261  0.5700  0.4924 -1.9062
 6213TIP3    H218604   7.076   4.765   0.374 -1.2844  1.1661 -0.4694
 6214TIP3   OH218605   3.872   1.450   4.537 -0.2033  0.1375 -0.5693
 6214TIP3    H118606   3.895   1.381   4.600  1.4516 -1.3707 -2.6517
 6214TIP3    H218607   3.946   1.451   4.475 -0.9048  2.7713 -1.4932
 6215TIP3   OH218608   5.998   1.336   0.169 -0.3432  0.3142  0.1179
 6215TIP3    H118609   5.911   1.350   0.133 -0.5599 -1.1080  0.0147
 6215TIP3    H218610   6.054   1.319   0.093 -0.0328  0.9392  0.2025
 6216TIP3   OH218611   0.039   2.535   0.885 -0.6550 -0.1833 -0.0107
 6216TIP3    H118612   0.026   2.630   0.881 -1.4641 -0.3261 -2.8648
 6216TIP3    H218613   0.104   2.517   0.817 -1.5539 -1.7806 -0.4968
 6217TIP3   OH218614   3.620   0.056   2.474  0.3085  0.1732 -0.2066
 6217TIP3    H118615   3.578   0.105   2.545 -0.0253 -1.0646  0.4879
 6217TIP3    H218616   3.687   0.003   2.519 -0.3582 -1.1334 -0.6993
 6218TIP3   OH218617   3.278   2.725   5.502  0.1229 -0.0874  0.4707
 6218TIP3    H118618   3.197   2.694   5.463 -0.1986 -1.2888  2.0221
 6218TIP3    H218619   3.253   2.799   5.557  0.2097  0.0466  0.3329
 6219TIP3   OH218620   1.448   6.413   0.888  0.5324  0.2313  0.1880
 6219TIP3    H118621   1.518   6.359   0.854  0.1048 -0.5575  0.5286
 6219TIP3    H218622   1.483   6.502   0.886  1.4443 -0.1165  0.1152
 6220TIP3   OH218623   3.861   0.155   4.659  0.7382  0.0350  0.1689
 6220TIP3    H118624   3.950   0.186   4.645  0.9644  0.3767  2.1167
 6220TIP3    H218625   3.871   0.077   4.713 -0.1706  2.0037  3.5165
 6221TIP3   OH218626   2.480   1.863   3.445  0.4746  0.0920  0.2723
 6221TIP3    H118627   2.485   1.770   3.470 -1.5173  0.2367  1.3638
 6221TIP3    H218628   2.396   1.871   3.399 -0.4225  1.7459  2.0919
 6222TIP3   OH218629   4.802   3.900   4.348  0.6085 -0.0925 -0.3646
 6222TIP3    H118630   4.888   3.901   4.390  1.4144  0.8013 -1.9328
 6222TIP3    H218631   4.809   3.965   4.278 -1.2174 -0.3083 -0.7962
 6223TIP3   OH218632   0.067   0.200   3.365 -0.3516 -0.2601 -0.5649
 6223TIP3    H118633  -0.020   0.162   3.379 -0.4068 -0.8421 -2.1826
 6223TIP3    H218634   0.057   0.253   3.285  0.9105 -0.8469 -1.1494
 6224TIP3   OH218635   4.368   1.010   5.453  0.4112  0.2170  0.0646
 6224TIP3    H118636   4.372   0.987   5.360  0.4941  0.5060 -0.0066
 6224TIP3    H218637   4.361   0.927   5.499 -0.7538  0.1193 -0.2590
 6225TIP3   OH218638   3.216   5.176   3.357  0.4357 -0.3170 -0.4319
 6225TIP3    H118639   3.194   5.083   3.348  1.1584 -0.6947  1.4531
 6225TIP3    H218640   3.168   5.218   3.285 -1.6773 -1.8550 -0.0295
 6226TIP3   OH218641   3.367   3.229   1.658  0.2949  0.3771 -0.0689
 6226TIP3    H118642   3.351   3.311   1.609  0.9358  1.5255  1.5514
 6226TIP3    H218643   3.343   3.251   1.748  0.5070 -1.2396  0.3974
 6227TIP3   OH218644   1.947   6.351   2.807 -0.1485  0.4442  0.5418
 6227TIP3    H118645   1.982   6.407   2.738 -0.5424  2.3601  1.8390
 6227TIP3    H218646   1.991   6.266   2.793  1.3987  1.3957 -0.7256
 6228TIP3   OH218647   2.579   2.802   1.124 -0.2581 -0.5647 -0.4205
 6228TIP3    H118648   2.642   2.743   1.165  0.9573 -0.8355 -2.5393
 6228TIP3    H218649   2.506   2.745   1.100 -1.4173 -0.2542  2.0140
 6229TIP3   OH218650   2.718   4.423   0.448  0.2790 -0.1135  0.7547
 6229TIP3    H118651   2.684   4.336   0.471  0.0386  0.4002  2.5023
 6229TIP3    H218652   2.704   4.475   0.527  0.5429  1.4916 -0.2225
 6230TIP3   OH218653   5.807   5.478   1.604 -0.5324 -0.1724  0.0522
 6230TIP3    H118654   5.818   5.422   1.528 -2.4662 -1.7106  0.8145
 6230TIP3    H218655   5.874   5.545   1.594  0.9378 -1.7726 -1.6636
 6231TIP3   OH218656   3.902   1.217   3.991  0.1215  0.0965 -0.4859
 6231TIP3    H118657   3.922   1.293   3.937  1.2771 -0.6516 -1.1430
 6231TIP3    H218658   3.915   1.248   4.081 -0.5953  0.9953 -0.6747
 6232TIP3   OH218659   6.972   0.520   2.028  0.0211 -0.3384 -0.3457
 6232TIP3    H118660   6.957   0.521   1.933 -0.9457 -1.9255 -0.2448
 6232TIP3    H218661   7.064   0.544   2.037  0.1881 -0.3454 -1.7002
 6233TIP3   OH218662   5.417   6.436   2.236 -0.3523 -0.5008  0.5250
 6233TIP3    H118663   5.490   6.462   2.180  0.1269  1.0437  1.7781
 6233TIP3    H218664   5.452   6.439   2.325 -1.4668 -1.4840  1.0275
 6234TIP3   OH218665   0.922   3.907   5.147 -0.0816  0.1413  0.3348
 6234TIP3    H118666   0.997   3.902   5.205 -0.4244 -0.5768  0.7250
 6234TIP3    H218667   0.872   3.982   5.178 -0.2394 -0.2117  0.9459
 6235TIP3   OH218668   0.922   3.432   0.584 -0.0417  0.2718 -0.1230
 6235TIP3    H118669   0.914   3.523   0.553 -0.2791 -0.0892 -1.1483
 6235TIP3    H218670   0.996   3.434   0.644 -0.8515  1.4114  0.8856
 6236TIP3   OH218671   1.743   0.473   0.730 -0.0598 -0.2904 -0.4541
 6236TIP3    H118672   1.832   0.493   0.759 -0.4385  2.5135 -0.9611
 6236TIP3    H218673   1.688   0.492   0.805 -0.4102  0.0094 -0.7824
 6237TIP3   OH218674   5.858   6.474   3.950 -0.2586 -0.9581 -0.1940
 6237TIP3    H118675   5.845   6.380   3.933 -1.4672 -0.6535 -1.1283
 6237TIP3    H218676   5.861   6.513   3.863 -0.5641 -0.0250  0.2076
 6238TIP3   OH218677   2.323   1.440   0.820  0.0909 -0.2272 -0.1749
 6238TIP3    H118678   2.398   1.385   0.845  0.4901  0.6951  0.7414
 6238TIP3    H218679   2.352   1.529   0.839  0.0362  0.4936 -3.0962
 6239TIP3   OH218680   0.541   6.582   2.512  0.1980 -0.2774 -0.5157
 6239TIP3    H118681   0.496   6.507   2.474 -0.7695 -1.0079  1.8788
 6239TIP3    H218682   0.484   6.610   2.583  2.3309  0.3611  1.0390
 6240TIP3   OH218683   3.120   3.030   5.591 -0.2878  0.4453 -0.2777
 6240TIP3    H118684   3.098   3.115   5.630 -1.8296 -0.2699  0.5059
 6240TIP3    H218685   3.037   2.998   5.555 -0.1664 -1.5002  1.0076
 6241TIP3   OH218686   1.184   4.384   3.477  0.2535 -0.0575 -0.3030
 6241TIP3    H118687   1.260   4.405   3.532 -0.6739 -0.5300  1.2010
 6241TIP3    H218688   1.183   4.288   3.473 -0.1167 -0.0460 -0.5227
 6242TIP3   OH218689   5.061   6.763   2.476  0.4565  0.2393  0.0032
 6242TIP3    H118690   5.043   6.804   2.560  2.6300  0.0705  0.6143
 6242TIP3    H218691   4.988   6.703   2.462 -0.8928  1.6036  0.8481
 6243TIP3   OH218692   5.808   5.354   3.798  0.1413 -0.0095  0.5375
 6243TIP3    H118693   5.836   5.344   3.707 -0.6967 -0.4633  0.3205
 6243TIP3    H218694   5.861   5.292   3.847 -0.1818 -0.5773  0.1859
 6244TIP3   OH218695   2.562   3.423   4.687 -0.5981  0.1770  0.3835
 6244TIP3    H118696   2.554   3.407   4.593 -0.4513  1.6821  0.0849
 6244TIP3    H218697   2.479   3.392   4.724 -0.2566 -1.3406 -0.0929
 6245TIP3   OH218698   3.672   3.855   5.083 -0.4428 -0.0991  0.1529
 6245TIP3    H118699   3.661   3.893   5.170  1.3378 -0.1938  0.4499
 6245TIP3    H218700   3.730   3.780   5.097 -0.2936 -0.2305 -1.0866
 6246TIP3   OH218701   4.219   6.131   3.813 -0.1148  0.1910  0.0373
 6246TIP3    H118702   4.226   6.162   3.903  0.2725  0.1985  0.0077
 6246TIP3    H218703   4.223   6.035   3.820 -0.0673  0.1923  0.0260
 6247TIP3   OH218704   1.067   2.582   3.752  0.6150  0.1728 -0.2057
 6247TIP3    H118705   0.981   2.559   3.788  0.8094 -0.9560 -0.4107
 6247TIP3    H218706   1.107   2.497   3.731  1.9669  0.6593  0.3096
 6248TIP3   OH218707   0.942   4.575   0.475 -0.2304  0.5597  0.2213
 6248TIP3    H118708   0.969   4.496   0.523 -0.2619 -0.2760 -1.1051
 6248TIP3    H218709   0.980   4.565   0.388 -1.7476  1.1293 -0.5491
 6249TIP3   OH218710   2.109   6.184   1.171  0.2104  0.4564  0.2504
 6249TIP3    H118711   2.053   6.236   1.229 -0.0665  1.3549 -0.7827
 6249TIP3    H218712   2.049   6.153   1.103  0.4315 -0.9909  0.6952
 6250TIP3   OH218713   6.464   5.651   3.223  0.1148  0.5977 -0.0284
 6250TIP3    H118714   6.472   5.743   3.248 -2.1057  0.4305  1.5812
 6250TIP3    H218715   6.486   5.602   3.303  1.5114 -0.3270 -0.9276
 6251TIP3   OH218716   5.503   0.321   5.437  0.2675 -0.1559 -0.0479
 6251TIP3    H118717   5.452   0.385   5.388  1.2503  1.2407  0.6700
 6251TIP3    H218718   5.452   0.241   5.432 -0.3739  0.3093 -2.0863
 6252TIP3   OH218719   3.586   2.099   5.149  0.1075  0.1722 -0.5154
 6252TIP3    H118720   3.602   2.015   5.106  0.0991  1.0139 -2.2649
 6252TIP3    H218721   3.633   2.093   5.232  3.9522  0.0482 -2.4867
 6253TIP3   OH218722   1.326   4.182   5.234 -0.7929 -0.0550  0.1897
 6253TIP3    H118723   1.245   4.138   5.207 -0.7721 -0.5237  0.8792
 6253TIP3    H218724   1.396   4.127   5.200 -0.7675 -0.2998  0.6303
 6254TIP3   OH218725   3.556   2.041   3.095 -0.5307  0.0781  0.0502
 6254TIP3    H118726   3.585   2.116   3.146  1.1677 -0.1821 -0.4574
 6254TIP3    H218727   3.524   1.978   3.161  2.1266 -0.4750  0.9226
 6255TIP3   OH218728   3.540   0.987   2.288 -0.4838 -0.0978  0.1032
 6255TIP3    H118729   3.519   0.996   2.195 -1.4474 -1.7287  0.1352
 6255TIP3    H218730   3.523   0.895   2.308  2.7044 -0.5959  1.1719
 6256TIP3   OH218731   5.042   3.899   2.311 -0.7085 -0.1393  0.3427
 6256TIP3    H118732   5.054   3.810   2.345  0.8509 -0.1058  0.0024
 6256TIP3    H218733   5.094   3.954   2.369 -0.8310  0.4044 -0.0556
 6257TIP3   OH218734   1.296   2.304   5.888 -0.4345 -0.3054 -0.0396
 6257TIP3    H118735   1.278   2.351   5.807 -0.6270  0.4994  0.4608
 6257TIP3    H218736   1.214   2.309   5.938 -0.3161 -0.7839  0.2172
 6258TIP3   OH218737   3.316   4.849   2.203 -0.5598  0.3711 -0.0632
 6258TIP3    H118738   3.407   4.833   2.177 -0.5931  0.4500 -0.2326
 6258TIP3    H218739   3.314   4.943   2.224 -0.5696  0.3401  0.0738
 6259TIP3   OH218740   0.566   1.569   2.872  0.5947  0.9745 -0.3764
 6259TIP3    H118741   0.620   1.579   2.950 -0.3957 -0.8329  0.6170
 6259TIP3    H218742   0.543   1.659   2.847 -0.6679  1.6084  2.6123
 6260TIP3   OH218743   3.857   2.747   5.732 -0.0150  0.2330 -0.1037
 6260TIP3    H118744   3.819   2.829   5.762 -0.5957  0.2301 -0.8087
 6260TIP3    H218745   3.808   2.679   5.780  0.5876  0.2864  0.6161
 6261TIP3   OH218746   2.303   3.119   5.239 -0.7868  0.3980 -0.1669
 6261TIP3    H118747   2.319   3.091   5.149  1.7238  1.5428 -0.1514
 6261TIP3    H218748   2.263   3.205   5.231 -1.0703  0.2661 -0.1803
 6262TIP3   OH218749   4.866   2.786   4.905 -0.6394 -0.0580  0.2377
 6262TIP3    H118750   4.849   2.880   4.894  0.6841  0.3023  0.9799
 6262TIP3    H218751   4.831   2.746   4.826 -0.2323  1.2112 -0.6231
 6263TIP3   OH218752   2.495   5.961   5.824 -0.0331 -0.6406  0.5969
 6263TIP3    H118753   2.447   5.884   5.857 -1.2595  0.0888  0.5738
 6263TIP3    H218754   2.441   6.036   5.850  1.6607  0.3066  1.5302
 6264TIP3   OH218755   5.907   6.341   4.211  0.0146  0.0581 -0.1488
 6264TIP3    H118756   5.898   6.384   4.126 -2.4841 -1.2215 -0.6094
 6264TIP3    H218757   5.972   6.395   4.257  1.2064  0.9978 -2.6828
 6265TIP3   OH218758   3.430   6.177   3.495 -0.2339 -0.2701 -0.0321
 6265TIP3    H118759   3.384   6.189   3.578 -0.0313  0.8253 -0.0581
 6265TIP3    H218760   3.381   6.109   3.449  0.5642 -2.0965  1.6341
 6266TIP3   OH218761   5.479   4.246   3.584 -0.2953 -0.3063  0.2606
 6266TIP3    H118762   5.395   4.214   3.551 -0.2550 -0.4013  0.2496
 6266TIP3    H218763   5.484   4.215   3.674 -0.5653  0.2591  0.4749
 6267TIP3   OH218764   6.515   0.304   5.626 -0.6846 -0.3350 -0.2639
 6267TIP3    H118765   6.506   0.209   5.633  2.1457 -0.7306 -0.7093
 6267TIP3    H218766   6.493   0.324   5.535 -0.2517 -0.7447 -0.4658
 6268TIP3   OH218767   2.531   5.621   4.171  0.3916 -0.6651 -0.1812
 6268TIP3    H118768   2.488   5.546   4.130 -2.2691  0.8305 -0.3130
 6268TIP3    H218769   2.565   5.587   4.253 -0.7023 -2.0485 -0.2641
 6269TIP3   OH218770   2.372   1.052   0.740 -0.4725  0.1732  0.1370
 6269TIP3    H118771   2.438   1.060   0.809  0.4972  0.6057 -0.8120
 6269TIP3    H218772   2.400   0.977   0.688 -1.2726 -0.2348  0.2875
 6270TIP3   OH218773   3.917   4.436   5.530 -0.4667  0.2355 -0.0802
 6270TIP3    H118774   3.868   4.355   5.544 -0.1165  0.0164 -0.1042
 6270TIP3    H218775   3.851   4.505   5.536 -0.3540  0.2095  2.8942
 6271TIP3   OH218776   3.584   2.786   0.964  0.7654  0.2882 -0.5670
 6271TIP3    H118777   3.585   2.817   1.054  1.5813  0.0756 -0.4928
 6271TIP3    H218778   3.508   2.828   0.924 -1.2671 -1.6861  0.9316
 6272TIP3   OH218779   6.890   1.170   1.422 -0.2207 -0.0676  0.2589
 6272TIP3    H118780   6.916   1.240   1.481  1.9565  0.8846 -1.6653
 6272TIP3    H218781   6.872   1.095   1.479  0.3022  1.2036  2.1679
 6273TIP3   OH218782   1.144   3.890   5.312 -0.2698  0.6851 -0.1626
 6273TIP3    H118783   1.234   3.884   5.345 -0.7852 -0.8326  1.0665
 6273TIP3    H218784   1.089   3.881   5.389 -1.5093  0.7814 -1.0059
 6274TIP3   OH218785   5.555   3.498   5.610  0.0946  0.0505  0.1159
 6274TIP3    H118786   5.478   3.544   5.578 -0.3356  0.4302  1.6107
 6274TIP3    H218787   5.543   3.495   5.705  0.4713 -2.4762  0.1523
 6275TIP3   OH218788   2.431   5.548   3.746 -0.2179  0.1453  0.4063
 6275TIP3    H118789   2.350   5.501   3.725  0.1540  0.6335 -2.5597
 6275TIP3    H218790   2.405   5.640   3.750 -0.2891  0.0882  2.5815
 6276TIP3   OH218791   1.739   1.215   2.446  0.2393 -0.2452  0.1991
 6276TIP3    H118792   1.818   1.181   2.402 -0.3624 -0.5038 -0.7145
 6276TIP3    H218793   1.773   1.268   2.518  1.2353 -1.2557  0.5002
 6277TIP3   OH218794   5.494   2.095   2.427  0.0705  0.2505 -0.5808
 6277TIP3    H118795   5.585   2.119   2.412  0.2191  0.5818  0.7520
 6277TIP3    H218796   5.455   2.096   2.339  1.4748 -0.5157 -1.2541
 6278TIP3   OH218797   3.685   0.150   5.813 -0.2612 -0.2212  0.5201
 6278TIP3    H118798   3.713   0.232   5.853  0.6260  0.2002 -0.8864
 6278TIP3    H218799   3.765   0.110   5.780 -0.9058 -0.6881 -0.5388
 6279TIP3   OH218800   4.612   5.961   2.668 -0.5225 -0.2042 -0.1834
 6279TIP3    H118801   4.613   5.972   2.763 -1.7682 -1.5657  0.0351
 6279TIP3    H218802   4.660   5.879   2.653 -1.6378 -0.8135 -0.5562
 6280TIP3   OH218803   3.577   4.298   0.706 -0.1312  0.1689 -0.3324
 6280TIP3    H118804   3.596   4.293   0.800  0.0441 -0.3780 -0.3919
 6280TIP3    H218805   3.555   4.208   0.682 -2.2116  0.6535 -0.3993
 6281TIP3   OH218806   7.173   5.151   5.221 -0.1199 -0.2486  0.3248
 6281TIP3    H118807   7.256   5.104   5.222 -0.7073 -1.3131  1.0631
 6281TIP3    H218808   7.118   5.104   5.283 -1.7820 -0.4932 -1.2398
 6282TIP3   OH218809   1.983   4.262   1.619 -0.4068  0.0068 -0.6243
 6282TIP3    H118810   1.949   4.187   1.571  0.5523 -0.0317 -1.2817
 6282TIP3    H218811   1.909   4.321   1.627 -1.0825 -0.8529 -0.4067
 6283TIP3   OH218812   3.244   6.359   0.365  0.0543  0.0342  0.5337
 6283TIP3    H118813   3.300   6.283   0.383 -0.7156 -0.8910 -0.8247
 6283TIP3    H218814   3.156   6.330   0.388  0.0590  1.4288  2.5021
 6284TIP3   OH218815   6.705   5.840   1.913  0.5990  0.3273 -0.1424
 6284TIP3    H118816   6.726   5.816   1.822  0.1488  0.2663 -0.2319
 6284TIP3    H218817   6.680   5.932   1.908 -1.0819 -0.1080 -0.3638
 6285TIP3   OH218818   3.168   5.885   2.399 -0.4268  0.2013 -0.3541
 6285TIP3    H118819   3.073   5.897   2.401 -0.4400  0.3211 -1.3030
 6285TIP3    H218820   3.190   5.857   2.488 -1.4401 -0.5651 -0.3225
 6286TIP3   OH218821   0.662   2.357   3.071  0.2919 -0.2812  0.2377
 6286TIP3    H118822   0.689   2.293   3.137  1.6997 -0.7175 -0.7062
 6286TIP3    H218823   0.726   2.427   3.078 -0.7502  0.6495  0.6869
 6287TIP3   OH218824   2.445   2.271   0.193 -0.8450  0.4092  0.2189
 6287TIP3    H118825   2.509   2.342   0.188  0.1589 -0.4959  0.1092
 6287TIP3    H218826   2.388   2.286   0.117 -0.7744  1.1994  0.3053
 6288TIP3   OH218827   5.392   3.432   0.203  0.2770  0.6918  0.1899
 6288TIP3    H118828   5.373   3.524   0.224 -1.8799  0.4358 -0.4255
 6288TIP3    H218829   5.483   3.433   0.174  0.0889  2.7757 -0.5145
 6289TIP3   OH218830   1.033   5.867   1.322  0.0669  0.2441  0.2083
 6289TIP3    H118831   1.116   5.893   1.363  0.7503 -0.5893 -0.5932
 6289TIP3    H218832   1.025   5.774   1.344  0.7343 -0.3695 -1.9891
 6290TIP3   OH218833   1.315   6.380   0.253 -0.4006  0.3143 -0.5714
 6290TIP3    H118834   1.392   6.385   0.197 -0.8817  1.0458 -1.1876
 6290TIP3    H218835   1.287   6.471   0.265 -0.6086  0.1327  0.4417
 6291TIP3   OH218836   0.153   2.803   5.645  0.1311 -0.2628  0.4479
 6291TIP3    H118837   0.141   2.896   5.626  0.5578 -0.1971  0.4886
 6291TIP3    H218838   0.065   2.770   5.664  0.2665  0.8238  3.5595
 6292TIP3   OH218839   2.922   4.415   5.315 -0.8326 -0.4870 -0.3078
 6292TIP3    H118840   3.013   4.444   5.310 -0.3050 -2.0676 -0.1962
 6292TIP3    H218841   2.908   4.395   5.408 -1.7011  0.9283 -0.1008
 6293TIP3   OH218842   3.127   5.198   4.828  0.0440 -0.0733  0.2138
 6293TIP3    H118843   3.106   5.157   4.911 -0.2009 -0.3310  0.0251
 6293TIP3    H218844   3.184   5.272   4.851 -1.6651  1.1074  0.7951
 6294TIP3   OH218845   4.487   3.889   1.261 -0.0647  0.0136 -0.0149
 6294TIP3    H118846   4.505   3.796   1.248 -2.5708 -0.4167 -0.8766
 6294TIP3    H218847   4.505   3.929   1.176 -0.7212 -0.0128 -0.1723
 6295TIP3   OH218848   4.883   1.149   4.712  0.3112 -0.3459 -0.5567
 6295TIP3    H118849   4.917   1.239   4.718  1.6319 -0.7592 -1.4535
 6295TIP3    H218850   4.829   1.139   4.791  0.4326  1.1040 -0.2526
 6296TIP3   OH218851   6.202   3.486   3.388 -0.5196  1.1792  0.4710
 6296TIP3    H118852   6.175   3.495   3.296 -0.9701 -0.0583  0.4728
 6296TIP3    H218853   6.197   3.392   3.406  0.5959  1.2825  1.4562
 6297TIP3   OH218854   6.649   6.098   4.986  0.1423  0.4610 -0.2307
 6297TIP3    H118855   6.620   6.158   5.055 -1.0795  0.2776 -0.5681
 6297TIP3    H218856   6.612   6.013   5.011  0.3605  0.2263 -0.6940
 6298TIP3   OH218857   2.314   1.826   4.253  0.5414 -0.1905  0.3878
 6298TIP3    H118858   2.290   1.852   4.164 -0.7881 -1.9858  0.1697
 6298TIP3    H218859   2.235   1.784   4.288  2.0081 -2.3524  1.2799
 6299TIP3   OH218860   4.345   4.511   5.375  0.2283  0.3030  0.4944
 6299TIP3    H118861   4.416   4.566   5.342  0.0497 -0.6620 -1.6172
 6299TIP3    H218862   4.356   4.427   5.330 -2.2645  0.1542  0.0248
 6300TIP3   OH218863   4.098   5.205   5.461 -0.0333  0.0423  0.0528
 6300TIP3    H118864   4.040   5.168   5.394 -0.2379  0.7304 -0.1698
 6300TIP3    H218865   4.139   5.280   5.417 -0.2588  0.5730  0.7274
 6301TIP3   OH218866   3.374   4.894   3.546  0.6006  0.6730 -0.1809
 6301TIP3    H118867   3.418   4.824   3.497  1.1811 -0.2919  1.6294
 6301TIP3    H218868   3.444   4.937   3.595 -0.1101  0.8094  0.7375
 6302TIP3   OH218869   1.340   0.363   0.048 -0.3977 -0.0065  0.4106
 6302TIP3    H118870   1.383   0.318   0.121  1.6413  0.8993 -0.1468
 6302TIP3    H218871   1.368   0.315  -0.030  1.6101  1.9425 -0.1694
 6303TIP3   OH218872   3.815   4.802   4.351 -0.2525 -0.1856 -0.1403
 6303TIP3    H118873   3.809   4.805   4.256  0.6089 -0.5412 -0.2137
 6303TIP3    H218874   3.906   4.825   4.371 -0.3728 -0.2940  0.5873
 6304TIP3   OH218875   6.328   5.569   0.216 -0.4774 -0.0485 -0.1044
 6304TIP3    H118876   6.243   5.551   0.256 -0.0312 -0.1101  0.8441
 6304TIP3    H218877   6.384   5.496   0.245  0.1771  0.5476  0.1773
 6305TIP3   OH218878   2.999   2.621   5.395  0.1553  0.4342 -0.0502
 6305TIP3    H118879   2.932   2.577   5.342  0.5334 -2.3795  1.6047
 6305TIP3    H218880   2.954   2.697   5.432 -0.6232  1.4300 -2.8210
 6306TIP3   OH218881   2.643   3.496   3.938  0.8347  0.3678  0.0291
 6306TIP3    H118882   2.604   3.430   3.996  1.2134 -0.8697 -1.0647
 6306TIP3    H218883   2.575   3.561   3.926  0.1070 -0.3099  0.4024
 6307TIP3   OH218884   2.188   3.427   0.979  0.3040 -0.0895 -0.3647
 6307TIP3    H118885   2.279   3.404   0.959  0.8753  0.5313  1.3689
 6307TIP3    H218886   2.189   3.522   0.989 -0.1231 -0.2359  1.4527
 6308TIP3   OH218887   1.546   0.566   4.328 -0.2818  0.2239 -0.2387
 6308TIP3    H118888   1.573   0.603   4.412  0.3529  1.1430 -0.8345
 6308TIP3    H218889   1.595   0.484   4.322  0.7857  0.8532 -0.3511
 6309TIP3   OH218890   2.669   0.879   5.512 -0.4676  0.2130  0.3918
 6309TIP3    H118891   2.760   0.867   5.539 -0.1199  0.2235 -0.7289
 6309TIP3    H218892   2.648   0.969   5.536  0.1080  0.4970 -0.1525
 6310TIP3   OH218893   5.976   2.414   5.313  0.0400  0.2010 -0.1043
 6310TIP3    H118894   6.067   2.417   5.342  0.2285  0.1829 -0.6755
 6310TIP3    H218895   5.977   2.357   5.236 -0.2766  1.0422 -0.7412
 6311TIP3   OH218896   5.545   2.738   3.070  0.0991  0.2062 -0.4231
 6311TIP3    H118897   5.608   2.740   3.141 -0.5605 -2.2742  0.3423
 6311TIP3    H218898   5.472   2.793   3.101  0.1181 -0.2861  0.5276
 6312TIP3   OH218899   2.794   2.545   2.806 -0.1682 -0.5245  0.2510
 6312TIP3    H118900   2.842   2.624   2.781 -2.9229  0.9241 -0.8901
 6312TIP3    H218901   2.794   2.546   2.902 -0.3191  0.9723  0.2490
 6313TIP3   OH218902   6.212   5.478   2.986 -0.4503  0.5052  0.1195
 6313TIP3    H118903   6.185   5.564   3.018 -0.5505  0.2517  0.7494
 6313TIP3    H218904   6.133   5.424   2.993 -0.6549  0.6024 -1.2129
 6314TIP3   OH218905   1.037   3.405   4.904 -0.4777  0.4337  0.1398
 6314TIP3    H118906   1.028   3.500   4.908 -1.0725  0.4390 -0.9579
 6314TIP3    H218907   0.984   3.373   4.978 -0.5619  0.9356  0.3028
 6315TIP3   OH218908   3.625   6.334   0.636 -0.1716  0.8404  0.0652
 6315TIP3    H118909   3.610   6.239   0.639  1.2319  0.4998 -1.8055
 6315TIP3    H218910   3.585   6.367   0.717 -1.3502 -1.2303  0.4058
 6316TIP3   OH218911   1.526   3.996   2.849 -0.0472  0.5939  0.0357
 6316TIP3    H118912   1.498   4.060   2.915  4.2466 -0.3414  3.2029
 6316TIP3    H218913   1.613   4.025   2.822  0.0171 -1.3444 -2.1753
 6317TIP3   OH218914   4.283   1.598   0.247  0.5500 -0.0156 -0.3189
 6317TIP3    H118915   4.197   1.569   0.218 -1.2919  0.8006  3.7007
 6317TIP3    H218916   4.294   1.685   0.207 -0.6192  0.0014 -0.6271
 6318TIP3   OH218917   0.158   6.464   0.130  0.3088  0.5259  0.0017
 6318TIP3    H118918   0.195   6.550   0.109 -0.3071  0.4997 -1.3453
 6318TIP3    H218919   0.181   6.409   0.054 -1.2507  0.1347 -0.2182
 6319TIP3   OH218920   0.373   6.531   3.512 -0.0689  0.2957  0.1397
 6319TIP3    H118921   0.383   6.457   3.572 -3.4993  0.5341  1.2171
 6319TIP3    H218922   0.345   6.492   3.430 -1.6042  0.3168  0.6265
 6320TIP3   OH218923   1.579   2.829   0.951 -0.0547  0.1354  0.0818
 6320TIP3    H118924   1.647   2.775   0.992 -1.0873  0.0817  1.8231
 6320TIP3    H218925   1.499   2.778   0.960 -0.5000  0.5725 -1.1760
 6321TIP3   OH218926   0.891   3.003   1.680 -0.2707 -0.1785 -0.0176
 6321TIP3    H118927   0.863   3.008   1.589 -0.1806 -1.1020 -0.1035
 6321TIP3    H218928   0.927   3.090   1.699 -1.3952  0.4027 -0.4858
 6322TIP3   OH218929   1.021   6.721   2.714 -0.2018 -0.1330  0.0672
 6322TIP3    H118930   0.940   6.702   2.666 -0.4783  0.0846  0.4477
 6322TIP3    H218931   1.011   6.811   2.744 -0.3190 -0.4749  1.1015
 6323TIP3   OH218932   1.976   5.686   2.334  0.7843 -0.2237 -0.2114
 6323TIP3    H118933   1.880   5.683   2.333  0.7465  0.0525 -2.0176
 6323TIP3    H218934   2.003   5.594   2.337  0.4047 -0.3983 -1.3419
 6324TIP3   OH218935   3.153   2.594   3.311 -0.1730 -0.0068  0.2593
 6324TIP3    H118936   3.236   2.601   3.358 -0.5761  0.5877  0.8990
 6324TIP3    H218937   3.146   2.501   3.287  0.7468 -0.0294  0.0546
 6325TIP3   OH218938   4.896   1.431   5.411 -0.4274 -0.1877  0.1422
 6325TIP3    H118939   4.848   1.354   5.382 -2.2197  1.4492 -1.5016
 6325TIP3    H218940   4.978   1.428   5.361 -0.9443 -0.5013 -0.7162
 6326TIP3   OH218941   1.510   3.994   5.126 -0.7981 -0.6346  0.0504
 6326TIP3    H118942   1.516   4.020   5.034  1.0653  0.5337  0.4355
 6326TIP3    H218943   1.567   3.917   5.134  0.6374  0.4231  0.5433
 6327TIP3   OH218944   5.514   3.913   5.420 -0.6847  0.0558  0.0508
 6327TIP3    H118945   5.591   3.898   5.474  1.0742  0.7289 -2.1396
 6327TIP3    H218946   5.530   3.863   5.340 -2.0113  1.0341 -0.8861
 6328TIP3   OH218947   2.452   5.752   4.547 -0.5904  0.2089 -0.1842
 6328TIP3    H118948   2.489   5.795   4.625  0.8064 -1.0105 -0.1369
 6328TIP3    H218949   2.475   5.810   4.475  1.5940 -0.5280 -0.1652
 6329TIP3   OH218950   3.261   1.898   2.321  0.3786  0.3596  0.0077
 6329TIP3    H118951   3.349   1.932   2.304  0.7879 -1.0692 -0.9678
 6329TIP3    H218952   3.270   1.803   2.309 -1.2575  0.1678  0.0826
 6330TIP3   OH218953   7.146   4.736   4.373  0.7750  0.4855  0.0401
 6330TIP3    H118954   7.113   4.793   4.304  0.1213  1.6430  1.2520
 6330TIP3    H218955   7.145   4.648   4.335 -1.0066  0.8782 -0.9067
 6331TIP3   OH218956   1.269   0.464   5.206 -0.0726  0.3313  0.5416
 6331TIP3    H118957   1.262   0.530   5.274 -0.6331 -2.4063  3.3549
 6331TIP3    H218958   1.180   0.432   5.194  0.4447 -1.2994  0.7837
 6332TIP3   OH218959   6.948   4.207   0.798 -0.2243 -0.3127  0.0094
 6332TIP3    H118960   6.869   4.238   0.844 -0.4515  1.4852 -1.4780
 6332TIP3    H218961   7.003   4.285   0.790  1.3563 -1.3602  0.2597
 6333TIP3   OH218962   5.225   5.457   0.641  0.4176  0.3516  0.2590
 6333TIP3    H118963   5.189   5.495   0.561  0.3345  0.4051  0.3220
 6333TIP3    H218964   5.309   5.501   0.653 -0.6905  2.2188  1.6011
 6334TIP3   OH218965   1.580   4.133   3.145 -0.4247 -0.3534  0.5955
 6334TIP3    H118966   1.524   4.141   3.067 -0.5204  0.0359  0.7012
 6334TIP3    H218967   1.521   4.103   3.214 -0.5449  0.2412  0.7533
 6335TIP3   OH218968   6.947   1.088   3.029 -0.8968  0.2448 -0.5174
 6335TIP3    H118969   6.855   1.112   3.043 -1.0529  0.6378 -2.0419
 6335TIP3    H218970   6.950   0.993   3.043 -1.3295  0.3723  0.4866
 6336TIP3   OH218971   1.800   5.485   3.895 -0.7181  0.1238 -0.1019
 6336TIP3    H118972   1.834   5.397   3.907  0.9349  0.5047 -1.6260
 6336TIP3    H218973   1.855   5.540   3.951  1.2618  0.7255 -2.4801
 6337TIP3   OH218974   4.424   4.277   3.344 -0.4727  0.2010 -0.3382
 6337TIP3    H118975   4.444   4.347   3.406 -0.6707 -0.1100  0.0866
 6337TIP3    H218976   4.378   4.212   3.396  1.3506 -1.1083 -0.2585
 6338TIP3   OH218977   1.614   1.978   4.626  0.5447 -0.2597  0.5377
 6338TIP3    H118978   1.644   2.066   4.604  2.1564 -0.7040  0.7814
 6338TIP3    H218979   1.566   1.988   4.708 -0.6735  0.6010 -0.2603
 6339TIP3   OH218980   5.449   3.668   4.423 -0.4184 -0.7536 -0.0509
 6339TIP3    H118981   5.442   3.764   4.428  0.7571 -0.6729  0.3144
 6339TIP3    H218982   5.390   3.643   4.352  1.2687  0.4971 -2.0103
 6340TIP3   OH218983   0.309   2.674   2.198 -0.0274 -0.6441 -0.1572
 6340TIP3    H118984   0.335   2.736   2.266 -0.2810 -0.1325 -0.5104
 6340TIP3    H218985   0.321   2.723   2.116 -1.1695 -0.7135 -0.3805
 6341TIP3   OH218986   4.566   0.949   0.338 -0.1406 -0.2246  0.2739
 6341TIP3    H118987   4.628   1.001   0.390  1.9192 -0.0454 -2.1786
 6341TIP3    H218988   4.510   1.013   0.294  0.3881 -0.1972 -0.3722
 6342TIP3   OH218989   5.373   5.221   1.375  0.9019  0.4851 -0.7283
 6342TIP3    H118990   5.442   5.155   1.365  1.1442  0.8791 -1.7812
 6342TIP3    H218991   5.329   5.198   1.457  1.2207 -0.7549 -0.8947
 6343TIP3   OH218992   3.739   5.270   5.525  0.2107  0.2887 -0.1693
 6343TIP3    H118993   3.702   5.328   5.592 -1.7336  0.2181 -1.1253
 6343TIP3    H218994   3.801   5.215   5.573 -0.5415  0.7797  1.4413
 6344TIP3   OH218995   5.476   2.361   4.497 -0.1815  0.4511  0.0055
 6344TIP3    H118996   5.550   2.415   4.470  0.5697 -0.2411  0.6231
 6344TIP3    H218997   5.401   2.396   4.448  0.9603 -0.3250 -2.4553
 6345TIP3   OH218998   4.403   1.291   1.243  0.3758  0.0752 -0.5443
 6345TIP3    H118999   4.387   1.377   1.204  0.1938  1.5026  2.4377
 6345TIP3    H219000   4.350   1.290   1.323  0.6273 -2.7043 -0.2937
 6346TIP3   OH219001   4.760   4.300   1.279 -0.7087 -0.0914  0.1749
 6346TIP3    H119002   4.853   4.277   1.288 -0.5076  0.6169 -0.0424
 6346TIP3    H219003   4.758   4.363   1.207 -1.0663  1.5873  1.5841
 6347TIP3   OH219004   5.783   0.512   2.425 -0.1039  0.0456 -0.3570
 6347TIP3    H119005   5.696   0.549   2.407 -0.5175 -0.2850  0.8649
 6347TIP3    H219006   5.843   0.569   2.377 -0.9413  0.6928 -0.6774
 6348TIP3   OH219007   5.915   2.126   5.364 -0.1778 -0.2819 -0.3575
 6348TIP3    H119008   5.928   2.140   5.270  1.3809  1.1850  0.0403
 6348TIP3    H219009   5.933   2.032   5.376 -0.8161 -0.5836 -1.5687
 6349TIP3   OH219010   1.662   5.588   1.285  0.5693  0.4018 -0.8909
 6349TIP3    H119011   1.639   5.678   1.261 -0.5734  0.3031 -0.2809
 6349TIP3    H219012   1.732   5.597   1.350  2.2785  0.7284 -2.7103
 6350TIP3   OH219013   6.658   4.793   3.142 -0.6990 -0.3156 -0.3167
 6350TIP3    H119014   6.692   4.852   3.210 -1.6169 -0.6278  0.4390
 6350TIP3    H219015   6.630   4.852   3.072  0.6656 -0.0120 -0.6312
 6351TIP3   OH219016   6.213   1.928   0.563  0.3436 -0.3532  0.6797
 6351TIP3    H119017   6.258   2.012   0.553  2.4241 -1.3362  1.0673
 6351TIP3    H219018   6.187   1.904   0.474  1.1882 -0.0075  0.3224
 6352TIP3   OH219019   7.174   2.630   0.242  0.2268  0.1931 -0.3112
 6352TIP3    H119020   7.087   2.594   0.224  2.0017 -3.4046 -2.9298
 6352TIP3    H219021   7.185   2.699   0.176  0.1618 -0.9403 -1.5469
 6353TIP3   OH219022   0.798   2.424   3.761  0.4360  0.0358 -0.1226
 6353TIP3    H119023   0.824   2.404   3.851  1.6202 -0.4240 -0.5400
 6353TIP3    H219024   0.774   2.339   3.724  1.1438  0.0361 -0.5942
 6354TIP3   OH219025   2.863   2.981   3.835  0.6322  0.3585  0.5099
 6354TIP3    H119026   2.927   2.950   3.900  0.2346  0.2544  0.8586
 6354TIP3    H219027   2.916   3.027   3.769  1.0652  0.2805  0.7978
 6355TIP3   OH219028   6.962   2.879   4.568  0.0489  0.2374 -0.2520
 6355TIP3    H119029   6.868   2.867   4.580  0.2853 -1.0785  0.3917
 6355TIP3    H219030   7.002   2.804   4.612  1.4616  1.4533  0.6261
 6356TIP3   OH219031   5.681   6.589   0.602  0.9647 -0.1079  0.0634
 6356TIP3    H119032   5.707   6.676   0.634 -0.0443 -0.2014  1.2012
 6356TIP3    H219033   5.587   6.584   0.620  0.4944 -0.5246 -2.1780
 6357TIP3   OH219034   0.633   5.493   2.996 -0.3346  0.0859 -0.0935
 6357TIP3    H119035   0.651   5.531   2.911 -0.8624  0.8798  0.1477
 6357TIP3    H219036   0.720   5.470   3.031 -0.0844  0.2443 -0.6082
 6358TIP3   OH219037   3.112   4.417   1.154 -0.1853  0.0072 -0.4231
 6358TIP3    H119038   3.068   4.452   1.231  0.2478 -1.1950  0.3885
 6358TIP3    H219039   3.202   4.402   1.182  0.2445  0.4962 -1.4620
 6359TIP3   OH219040   5.366   0.073   5.452  0.0712 -0.4143 -0.6400
 6359TIP3    H119041   5.275   0.069   5.482  0.3371 -0.2813  0.1897
 6359TIP3    H219042   5.368   0.014   5.376 -0.9971  0.5488 -1.4507
 6360TIP3   OH219043   1.159   1.468   5.406 -0.0395  0.0201 -0.0063
 6360TIP3    H119044   1.070   1.493   5.428 -0.7388 -2.4903  0.2624
 6360TIP3    H219045   1.162   1.470   5.310  0.1428  1.6711  0.0095
 6361TIP3   OH219046   3.581   0.049   3.514 -0.8034  0.9199  0.3452
 6361TIP3    H119047   3.606  -0.037   3.480 -1.9774 -0.6084  3.0047
 6361TIP3    H219048   3.664   0.093   3.532 -0.1610 -0.0736 -0.1082
 6362TIP3   OH219049   4.478   2.757   3.494  0.6362 -0.0763  0.4997
 6362TIP3    H119050   4.545   2.819   3.524  0.3010  0.1924  0.7166
 6362TIP3    H219051   4.441   2.797   3.416  0.7810 -0.2612  0.3363
 6363TIP3   OH219052   3.420   1.088   0.475 -0.2281  0.5655 -0.5792
 6363TIP3    H119053   3.418   1.014   0.415  0.6119 -1.3683  1.6223
 6363TIP3    H219054   3.333   1.091   0.513  0.0334 -0.0013  0.0897
 6364TIP3   OH219055   6.790   3.354   4.396  0.7192 -0.6026  0.0816
 6364TIP3    H119056   6.789   3.335   4.302 -1.1423 -0.6856  0.0808
 6364TIP3    H219057   6.748   3.439   4.403  0.9294 -0.5619  0.8384
 6365TIP3   OH219058   6.987   1.663   0.787 -0.4006  0.4312  0.1644
 6365TIP3    H119059   6.971   1.673   0.693 -0.8703  1.3948  0.3371
 6365TIP3    H219060   7.066   1.716   0.803 -1.3117  1.6890  0.6066
 6366TIP3   OH219061   1.198   2.122   3.849 -0.2684 -0.4718  0.0471
 6366TIP3    H119062   1.178   2.207   3.888  1.4276  1.3890 -2.7362
 6366TIP3    H219063   1.277   2.092   3.894 -1.1913 -0.9219  1.4273
 6367TIP3   OH219064   5.800   2.460   3.949  0.0123  0.1678 -0.0138
 6367TIP3    H119065   5.803   2.422   3.862  0.5943  0.7782 -0.2680
 6367TIP3    H219066   5.769   2.550   3.936 -0.8006 -0.0239  0.5139
 6368TIP3   OH219067   4.180   6.698   2.433 -0.0296  0.3912  0.2443
 6368TIP3    H119068   4.273   6.686   2.412 -0.5920 -1.4455 -1.5090
 6368TIP3    H219069   4.139   6.716   2.349 -1.3601  0.6437  0.9231
 6369TIP3   OH219070   0.267   2.698   4.809  0.4218  0.4496  0.1569
 6369TIP3    H119071   0.354   2.698   4.769 -0.0588  3.1829 -1.1107
 6369TIP3    H219072   0.231   2.784   4.788 -2.0083 -0.0228  1.9717
 6370TIP3   OH219073   3.348   6.261   5.533  0.2218  0.3136  0.6402
 6370TIP3    H119074   3.303   6.201   5.592  1.1203 -1.1521 -0.1110
 6370TIP3    H219075   3.377   6.206   5.460  0.4842  1.7887 -0.4155
 6371TIP3   OH219076   1.377   5.528   1.339  0.0007  0.1775 -0.2294
 6371TIP3    H119077   1.347   5.524   1.248  2.4010  2.5139 -1.2705
 6371TIP3    H219078   1.472   5.524   1.333  0.1906 -0.5296  2.2950
 6372TIP3   OH219079   6.965   6.478   0.702  0.1287 -0.2130 -0.3235
 6372TIP3    H119080   6.969   6.447   0.612  1.2978 -2.5667  0.4522
 6372TIP3    H219081   6.872   6.475   0.725 -0.0229 -1.0142 -1.0120
 6373TIP3   OH219082   4.072   4.803   4.982  0.6110  0.4989  0.2416
 6373TIP3    H119083   4.040   4.873   5.038 -2.1530 -1.4117  1.2732
 6373TIP3    H219084   4.012   4.802   4.908  1.8086  0.4307 -0.7615
 6374TIP3   OH219085   2.600   5.907   5.208  0.2124 -0.3341 -0.1110
 6374TIP3    H119086   2.638   5.994   5.196 -2.5246  1.0616  0.5032
 6374TIP3    H219087   2.571   5.881   5.120 -0.0547 -0.0815 -0.0967
 6375TIP3   OH219088   6.415   1.123   1.403  0.4236 -0.7631 -0.7559
 6375TIP3    H119089   6.425   1.196   1.464 -0.9994 -0.0048 -1.3855
 6375TIP3    H219090   6.501   1.081   1.402  1.1150  0.5545  0.0524
 6376TIP3   OH219091   0.659   6.222   3.717 -0.1611  0.7521 -0.4876
 6376TIP3    H119092   0.622   6.176   3.642 -0.3005  1.9211 -1.1684
 6376TIP3    H219093   0.747   6.185   3.727 -0.9628 -1.0158  0.2315
 6377TIP3   OH219094   6.307   3.522   0.159  0.1110  0.6695  0.5681
 6377TIP3    H119095   6.295   3.522   0.254 -1.4359  0.8422  0.3959
 6377TIP3    H219096   6.397   3.553   0.146  0.7991 -0.5996  2.0032
 6378TIP3   OH219097   4.906   5.587   4.280  0.4753  0.8773  0.0299
 6378TIP3    H119098   4.968   5.660   4.287  0.1260  1.3735 -1.5363
 6378TIP3    H219099   4.961   5.512   4.255  0.5360  1.2063 -0.8772
 6379TIP3   OH219100   0.677   3.424   4.489  0.1636  0.4278 -0.5879
 6379TIP3    H119101   0.653   3.517   4.491 -0.1465  0.3489 -0.6385
 6379TIP3    H219102   0.767   3.423   4.457 -0.1228  0.6498 -1.4115
 6380TIP3   OH219103   0.988   5.111   3.781 -0.7724  0.1743 -0.6401
 6380TIP3    H119104   0.936   5.050   3.728 -3.0366  1.0228  0.4553
 6380TIP3    H219105   0.923   5.156   3.835  0.6897  3.8656 -1.6802
 6381TIP3   OH219106   6.614   2.457   3.558  0.6582  0.0481 -0.3802
 6381TIP3    H119107   6.655   2.393   3.615  0.8868  0.6684  0.1610
 6381TIP3    H219108   6.623   2.540   3.604 -0.7394  0.2858 -0.4960
 6382TIP3   OH219109   0.971   6.533   2.948  0.9093 -0.0438  0.1140
 6382TIP3    H119110   0.968   6.437   2.947 -3.8395 -0.1201 -1.6540
 6382TIP3    H219111   1.004   6.557   2.862 -1.0648 -0.2531 -0.7547
 6383TIP3   OH219112   2.514   3.624   3.239 -0.4615  0.1851 -0.2678
 6383TIP3    H119113   2.422   3.652   3.229 -0.5252 -0.3438 -1.2262
 6383TIP3    H219114   2.509   3.540   3.283 -0.2243  2.0159  3.7216
 6384TIP3   OH219115   4.166   4.491   3.285  0.0348  0.0355  0.5466
 6384TIP3    H119116   4.212   4.426   3.232  0.2301  2.2780 -2.2669
 6384TIP3    H219117   4.234   4.530   3.340  0.5216 -0.0601  0.0227
 6385TIP3   OH219118   5.934   5.644   3.416 -0.6320  0.1255 -0.4640
 6385TIP3    H119119   5.876   5.645   3.339 -0.5231  0.4413 -0.5443
 6385TIP3    H219120   6.020   5.621   3.381 -0.6343  0.0183 -0.3988
 6386TIP3   OH219121   6.120   6.629   2.771 -0.0091 -0.7101  0.0417
 6386TIP3    H119122   6.041   6.669   2.733  0.1855  0.4979  0.8644
 6386TIP3    H219123   6.188   6.642   2.705 -0.1947 -0.6185 -0.1326
 6387TIP3   OH219124   0.610   0.504   5.448 -0.3234  0.4072  0.2229
 6387TIP3    H119125   0.696   0.535   5.420 -1.3085  2.3035 -0.9785
 6387TIP3    H219126   0.574   0.461   5.370 -1.4826  2.0582 -0.2063
 6388TIP3   OH219127   6.491   3.704   2.319  0.5389 -0.2476  0.5843
 6388TIP3    H119128   6.443   3.634   2.362  0.6760 -0.9494 -0.3925
 6388TIP3    H219129   6.578   3.702   2.360 -0.1639  0.9641  2.2855
 6389TIP3   OH219130   4.150   3.896   1.184 -0.1130  0.2018 -0.1803
 6389TIP3    H119131   4.209   3.829   1.149  1.7534  0.3319  2.4860
 6389TIP3    H219132   4.159   3.969   1.123  0.8826 -0.5486 -0.9723
 6390TIP3   OH219133   6.580   1.660   3.027  0.3975 -0.0812 -0.5051
 6390TIP3    H119134   6.548   1.570   3.025  0.2279 -0.0314 -0.2169
 6390TIP3    H219135   6.504   1.711   3.057  0.9032 -0.0361  0.7747
 6391TIP3   OH219136   1.213   0.799   0.854  0.1289 -0.5980 -0.0656
 6391TIP3    H119137   1.209   0.878   0.908 -0.2441 -0.2927 -0.5258
 6391TIP3    H219138   1.174   0.730   0.908  1.4031 -0.7170  0.7373
 6392TIP3   OH219139   4.625   2.604   5.854 -0.3946 -0.5499  0.1874
 6392TIP3    H119140   4.583   2.585   5.770 -0.5631 -0.1710  0.1816
 6392TIP3    H219141   4.658   2.693   5.844  0.7573 -0.9829  0.0559
 6393TIP3   OH219142   5.546   1.278   1.231  0.5385  0.1956 -0.2883
 6393TIP3    H119143   5.563   1.196   1.184 -0.6107  0.6336 -1.4892
 6393TIP3    H219144   5.555   1.347   1.166 -0.7771  0.8428  0.1784
 6394TIP3   OH219145   3.215   0.968   2.593 -0.0882  0.2450 -0.1612
 6394TIP3    H119146   3.292   0.993   2.644  0.4083  0.6864 -1.0987
 6394TIP3    H219147   3.230   1.005   2.506 -0.5607 -1.0899 -0.8570
 6395TIP3   OH219148   2.304   5.851   3.237 -0.1495 -0.2078 -0.0211
 6395TIP3    H119149   2.262   5.778   3.281 -0.3423 -0.2911 -0.3412
 6395TIP3    H219150   2.273   5.846   3.147  1.6295 -1.1257 -0.6350
 6396TIP3   OH219151   2.792   3.962   4.531 -0.2519  0.4522 -0.0509
 6396TIP3    H119152   2.783   4.046   4.486 -0.6577 -0.1160 -1.0849
 6396TIP3    H219153   2.875   3.968   4.577  0.4832  0.8706 -1.3631
 6397TIP3   OH219154   6.643   6.313   3.112  0.4985  0.4343 -0.3634
 6397TIP3    H119155   6.579   6.377   3.081 -1.6294 -1.3721  0.0434
 6397TIP3    H219156   6.625   6.305   3.205  3.3525  1.9765  0.4415
 6398TIP3   OH219157   2.196   2.092   3.090  0.8396  0.6293  0.0037
 6398TIP3    H119158   2.128   2.150   3.125  0.3583 -0.7182  1.4121
 6398TIP3    H219159   2.263   2.152   3.057  0.1769  1.9989  1.0141
 6399TIP3   OH219160   6.639   4.594   4.431  0.2573 -0.1842  0.1880
 6399TIP3    H119161   6.597   4.520   4.388 -0.8735  0.0270  0.8804
 6399TIP3    H219162   6.730   4.593   4.399  0.5064 -2.3546  0.8457
 6400TIP3   OH219163   3.454   0.992   5.586  0.3664 -0.4213 -0.1196
 6400TIP3    H119164   3.488   1.042   5.660  0.8388  0.7885 -1.1198
 6400TIP3    H219165   3.485   0.902   5.602  1.4760  0.0552  0.5500
 6401TIP3   OH219166   2.815   1.609   2.668  0.2566 -0.3614  0.0332
 6401TIP3    H119167   2.891   1.551   2.669  1.3665  1.0182 -0.5476
 6401TIP3    H219168   2.745   1.556   2.631  1.3273 -1.2253 -0.8247
 6402TIP3   OH219169   0.897   2.325   2.459 -0.0680 -0.4770  0.9999
 6402TIP3    H119170   0.871   2.278   2.539 -0.3902 -1.5294  0.3014
 6402TIP3    H219171   0.855   2.411   2.468 -1.6695 -1.2246  1.1208
 6403TIP3   OH219172   6.637   0.985   1.487 -0.4141 -0.0211 -0.0017
 6403TIP3    H119173   6.693   0.908   1.497 -0.3960  0.1402  1.2990
 6403TIP3    H219174   6.605   1.003   1.575 -0.5626  1.3517 -0.3095
 6404TIP3   OH219175   0.242   5.449   2.090 -0.2041  1.0319 -0.3103
 6404TIP3    H119176   0.280   5.388   2.153  0.1628  0.9523 -0.6048
 6404TIP3    H219177   0.307   5.455   2.021 -0.5506  1.2126 -0.6241
 6405TIP3   OH219178   4.924   4.772   0.592 -0.3129  0.5582  0.2030
 6405TIP3    H119179   4.919   4.790   0.686 -0.7177  0.9463  0.1085
 6405TIP3    H219180   4.929   4.676   0.587  3.1709  0.5825  0.7653
 6406TIP3   OH219181   5.998   0.217   3.414 -0.4172 -0.0949  0.4413
 6406TIP3    H119182   6.013   0.183   3.326  1.4652 -0.6168  0.9196
 6406TIP3    H219183   5.989   0.138   3.468  0.7227  0.1768  1.0542
 6407TIP3   OH219184   4.761   0.351   4.022  0.4309 -0.1867  0.1392
 6407TIP3    H119185   4.851   0.321   4.011  0.5735  0.2272  0.1502
 6407TIP3    H219186   4.766   0.446   4.010  0.2443  0.0224  1.5201
 6408TIP3   OH219187   1.461   1.177   3.323 -0.4047 -0.1113  0.3214
 6408TIP3    H119188   1.551   1.173   3.291 -0.8572 -0.8352 -0.9281
 6408TIP3    H219189   1.417   1.105   3.279 -0.8744 -1.8698  3.4106
 6409TIP3   OH219190   0.847   1.985   2.970  0.0823  0.8616  0.0079
 6409TIP3    H119191   0.930   1.941   2.988  0.3471  1.1530 -0.4799
 6409TIP3    H219192   0.795   1.973   3.050 -0.9962 -2.8454 -1.0264
 6410TIP3   OH219193   4.309   1.106   2.748 -0.0461 -0.0803  0.0252
 6410TIP3    H119194   4.402   1.110   2.769  0.0652  0.5078 -0.5403
 6410TIP3    H219195   4.280   1.023   2.785  0.3231  0.4794  1.6664
 6411TIP3   OH219196   2.363   5.066   3.147 -0.0483  0.0104 -1.1629
 6411TIP3    H119197   2.430   5.027   3.090  2.0911  1.3398  0.3081
 6411TIP3    H219198   2.330   4.993   3.198  2.5526 -0.3293  0.2284
 6412TIP3   OH219199   4.387   4.878   1.731 -0.4087 -0.3184  0.0491
 6412TIP3    H119200   4.293   4.900   1.729 -0.0848  1.1885 -1.5497
 6412TIP3    H219201   4.430   4.956   1.696  1.4386 -1.1093  0.4592
 6413TIP3   OH219202   4.547   2.821   4.276 -0.4891 -0.0938 -0.1354
 6413TIP3    H119203   4.501   2.865   4.205  0.2100  0.0288 -0.5224
 6413TIP3    H219204   4.525   2.728   4.265  0.9014 -0.3071 -1.5328
 6414TIP3   OH219205   0.729   3.934   0.355  0.6884 -0.9932  0.6451
 6414TIP3    H119206   0.657   3.870   0.357  0.1485 -0.3957  0.6242
 6414TIP3    H219207   0.761   3.936   0.445 -0.4985  0.0384  1.0697
 6415TIP3   OH219208   6.628   1.694   0.451  0.1736 -0.1687  0.3403
 6415TIP3    H119209   6.567   1.753   0.405 -0.2516 -0.2730  0.7615
 6415TIP3    H219210   6.668   1.749   0.518  0.0398 -0.2672  0.5022
 6416TIP3   OH219211   3.953   1.794   0.589 -0.8334 -0.1128  0.2755
 6416TIP3    H119212   4.019   1.775   0.656  0.1952 -1.3000 -1.0088
 6416TIP3    H219213   4.003   1.826   0.515 -1.5470 -2.0637 -1.1237
 6417TIP3   OH219214   4.497   1.970   1.000  0.2504 -0.7922  0.3818
 6417TIP3    H119215   4.417   1.918   0.987 -0.3957  0.2251  0.1261
 6417TIP3    H219216   4.529   1.944   1.086 -0.4389 -1.1179  0.5503
 6418TIP3   OH219217   2.503   0.505   0.808 -0.1997  0.3077  0.4756
 6418TIP3    H119218   2.426   0.491   0.863 -0.3736  0.8163  0.3711
 6418TIP3    H219219   2.521   0.599   0.815  0.4883  0.1720  0.5974
 6419TIP3   OH219220   5.243   2.143   0.473  0.0993 -0.1265 -0.2024
 6419TIP3    H119221   5.209   2.063   0.514 -1.8469 -0.4484 -2.2764
 6419TIP3    H219222   5.171   2.206   0.479  0.6217  0.5668 -1.0140
 6420TIP3   OH219223   2.822   0.137   4.175 -0.3593  0.0340  0.3461
 6420TIP3    H119224   2.754   0.204   4.185 -0.6380 -0.2502  0.3830
 6420TIP3    H219225   2.861   0.156   4.089  0.2098  0.8178  0.7618
 6421TIP3   OH219226   6.763   3.527   2.708 -0.2432  0.4864 -0.5369
 6421TIP3    H119227   6.748   3.530   2.802  0.7699  3.1005 -0.3977
 6421TIP3    H219228   6.676   3.510   2.671 -1.1016  1.8275  0.7816
 6422TIP3   OH219229   5.614   4.535   3.942 -0.3773 -0.0419  0.2281
 6422TIP3    H119230   5.577   4.579   4.019 -3.4002 -0.0686 -1.0570
 6422TIP3    H219231   5.667   4.602   3.899 -2.6909  1.6364 -0.2331
 6423TIP3   OH219232   0.478   6.607   5.580 -0.4788 -0.8327 -0.0999
 6423TIP3    H119233   0.547   6.638   5.638  0.7188 -3.3159 -0.0504
 6423TIP3    H219234   0.513   6.621   5.492 -0.1855 -1.4599 -0.0891
 6424TIP3   OH219235   1.226   3.212   3.483  0.0143 -0.5144 -0.2309
 6424TIP3    H119236   1.250   3.175   3.568 -1.1719 -2.2805 -0.6099
 6424TIP3    H219237   1.292   3.279   3.467 -0.5403  0.9163  2.7251
 6425TIP3   OH219238   4.061   2.418   3.629  0.3926  0.2629 -0.3054
 6425TIP3    H119239   4.044   2.430   3.722  1.7692  0.0942 -0.0063
 6425TIP3    H219240   4.135   2.477   3.611  1.0212 -0.7067 -0.9721
 6426TIP3   OH219241   5.599   5.271   5.369 -0.0792  0.0526 -0.6630
 6426TIP3    H119242   5.662   5.203   5.391 -0.7237 -0.0499  1.0095
 6426TIP3    H219243   5.517   5.224   5.355 -0.3713  0.4111 -0.1943
 6427TIP3   OH219244   3.954   5.551   3.189  0.2263 -0.2482 -0.1939
 6427TIP3    H119245   3.870   5.581   3.155 -0.0773 -0.1187  0.6515
 6427TIP3    H219246   4.016   5.619   3.165 -0.0354 -0.0265 -0.2399
 6428TIP3   OH219247   0.245   2.721   5.221 -0.0182  0.3234  0.3125
 6428TIP3    H119248   0.161   2.729   5.265 -1.4061 -1.5972 -1.7444
 6428TIP3    H219249   0.296   2.663   5.277 -1.5680 -1.7000 -0.2728
 6429TIP3   OH219250   5.869   2.346   3.704 -0.0211 -0.2975  0.2897
 6429TIP3    H119251   5.813   2.295   3.645 -1.0748 -0.1276  1.1109
 6429TIP3    H219252   5.932   2.389   3.646 -0.7802 -0.4427 -0.6770
 6430TIP3   OH219253   0.561   0.355   3.939 -0.1645  0.3610 -0.0052
 6430TIP3    H119254   0.547   0.434   3.991 -1.8075  0.1644 -0.0910
 6430TIP3    H219255   0.582   0.387   3.851 -0.3704  0.6987  0.0659
 6431TIP3   OH219256   0.492   2.262   3.568  0.1441  0.0173 -0.1158
 6431TIP3    H119257   0.405   2.264   3.527  0.6491 -0.9692 -1.2842
 6431TIP3    H219258   0.474   2.268   3.662 -1.1827 -0.0348 -0.3412
 6432TIP3   OH219259   0.597   2.898   4.985  0.0552  0.3492 -0.0027
 6432TIP3    H119260   0.586   2.989   5.014  2.3985  1.2699 -1.6571
 6432TIP3    H219261   0.551   2.894   4.902  2.5261  1.0611 -1.5205
 6433TIP3   OH219262   6.899   3.871   3.345 -0.0569  0.8104 -0.0389
 6433TIP3    H119263   6.908   3.964   3.363 -1.8611  0.9736  0.1666
 6433TIP3    H219264   6.808   3.860   3.317  0.3711 -0.7471 -0.9616
 6434TIP3   OH219265   0.601   3.066   3.013 -0.1982 -0.1801  0.2276
 6434TIP3    H119266   0.680   3.069   2.959 -0.2493 -0.4828  0.1306
 6434TIP3    H219267   0.533   3.105   2.958 -0.5041 -1.5189 -0.3841
 6435TIP3   OH219268   4.225   3.444   5.415 -0.8273  0.2834 -0.7153
 6435TIP3    H119269   4.298   3.428   5.356 -0.2865 -0.1832  0.0597
 6435TIP3    H219270   4.147   3.423   5.364 -0.5153  2.0736 -1.9839
 6436TIP3   OH219271   0.646   5.542   3.969 -0.1865 -0.1131  0.5373
 6436TIP3    H119272   0.560   5.522   3.931  0.1090  0.8586 -0.7131
 6436TIP3    H219273   0.641   5.508   4.058 -0.6411 -3.1553 -0.5434
 6437TIP3   OH219274   1.798   1.230   0.475  0.2776 -0.2373  0.2178
 6437TIP3    H119275   1.723   1.174   0.458  0.2418  0.1227 -0.9367
 6437TIP3    H219276   1.798   1.292   0.402  2.1548 -0.7375 -0.2641
 6438TIP3   OH219277   3.884   0.992   2.750 -0.2639  0.2711  0.2639
 6438TIP3    H119278   3.899   0.997   2.656 -1.2556  0.3818  0.1060
 6438TIP3    H219279   3.957   1.042   2.788  0.9726 -1.0064 -0.3545
 6439TIP3   OH219280   2.320   2.179   4.958  0.2040 -0.6460 -0.0680
 6439TIP3    H119281   2.404   2.223   4.953  0.2809 -0.7817  0.0195
 6439TIP3    H219282   2.269   2.230   5.021 -0.7858  1.0957 -2.1290
 6440TIP3   OH219283   6.845   3.946   2.081  0.2783  0.3289 -0.2749
 6440TIP3    H119284   6.832   4.001   2.159  1.6201  0.7655 -0.3328
 6440TIP3    H219285   6.758   3.938   2.042 -0.7333 -1.1628  2.0741
 6441TIP3   OH219286   0.778   2.646   4.405  0.2760 -0.1146 -0.3831
 6441TIP3    H119287   0.755   2.599   4.486 -1.0453 -0.0548 -0.7021
 6441TIP3    H219288   0.836   2.717   4.434  1.2941 -1.1623  0.2663
 6442TIP3   OH219289   5.013   3.297   5.857 -0.6019  0.6687  0.5313
 6442TIP3    H119290   4.961   3.232   5.810 -0.8463  2.6588 -2.2397
 6442TIP3    H219291   4.967   3.380   5.842  2.2581  2.2297 -0.4434
 6443TIP3   OH219292   5.779   2.640   0.413  0.2942 -0.1078 -0.2245
 6443TIP3    H119293   5.789   2.713   0.473 -2.2126  0.3752 -0.2911
 6443TIP3    H219294   5.738   2.571   0.465  0.6187 -0.6769 -0.7042
 6444TIP3   OH219295   1.636   2.223   0.677  0.7071  0.1243  0.4961
 6444TIP3    H119296   1.719   2.181   0.653  0.1229 -0.3718 -0.7386
 6444TIP3    H219297   1.661   2.311   0.703  1.7217 -0.3030  1.0207
 6445TIP3   OH219298   4.743   2.482   3.683 -0.0995 -0.2563  0.4224
 6445TIP3    H119299   4.719   2.432   3.761  3.2238 -2.1340  0.4210
 6445TIP3    H219300   4.678   2.457   3.618 -0.2313 -2.3515  1.2843
 6446TIP3   OH219301   2.214   1.894   2.902 -0.2357 -0.2157  0.0481
 6446TIP3    H119302   2.212   1.970   2.959  0.0969  0.0710 -0.3216
 6446TIP3    H219303   2.299   1.898   2.858 -0.8327  0.0625 -1.1276
 6447TIP3   OH219304   1.574   6.199   4.864  0.4379 -0.4303  0.3990
 6447TIP3    H119305   1.520   6.121   4.851 -1.9764  1.3974 -1.5285
 6447TIP3    H219306   1.557   6.225   4.955 -1.4089 -0.3600  0.0721
 6448TIP3   OH219307   3.771   3.144   3.095 -0.0131  0.0031 -0.2867
 6448TIP3    H119308   3.781   3.221   3.151  0.6466 -0.2910  0.0143
 6448TIP3    H219309   3.678   3.125   3.097  0.0537 -0.3132  1.1390
 6449TIP3   OH219310   3.178   4.324   4.914  0.2077  0.1972  0.1702
 6449TIP3    H119311   3.186   4.268   4.837  1.7537 -0.6295  0.8890
 6449TIP3    H219312   3.113   4.281   4.969 -1.3851  1.1243 -0.8920
 6450TIP3   OH219313   0.183   2.158   5.464 -0.5165 -0.6651  0.4909
 6450TIP3    H119314   0.227   2.102   5.528  1.2790 -0.6321 -0.6496
 6450TIP3    H219315   0.253   2.213   5.428 -1.2793 -1.1539 -1.9708
 6451TIP3   OH219316   2.999   4.696   3.684 -0.1005  0.2022 -0.1347
 6451TIP3    H119317   2.906   4.715   3.695  0.0656  0.8535  0.1700
 6451TIP3    H219318   3.042   4.781   3.689  0.5387 -0.1210 -0.0387
 6452TIP3   OH219319   3.899   1.240   4.723 -0.0715  0.0865  0.7142
 6452TIP3    H119320   3.850   1.177   4.671  0.1010  1.0066 -0.6118
 6452TIP3    H219321   3.978   1.192   4.749 -0.2843 -0.4729  0.3622
 6453TIP3   OH219322   2.418   5.756   2.067 -0.5209 -0.4946  0.5197
 6453TIP3    H119323   2.411   5.838   2.115  0.6691 -0.1473  0.1219
 6453TIP3    H219324   2.332   5.745   2.027 -0.1713  1.5345 -0.9547
 6454TIP3   OH219325   4.949   1.819   2.796 -0.1065 -0.6278  0.2060
 6454TIP3    H119326   4.911   1.864   2.720  1.3506 -0.4056 -0.4123
 6454TIP3    H219327   4.921   1.728   2.785 -0.3422 -0.4981 -0.3179
 6455TIP3   OH219328   1.724   5.793   1.034 -0.1594 -0.5070 -0.0764
 6455TIP3    H119329   1.686   5.861   0.979  0.9559  0.5671  0.4197
 6455TIP3    H219330   1.816   5.789   1.007 -0.5043 -2.9350 -1.1641
 6456TIP3   OH219331   6.187   1.477   5.137 -0.2113  0.4044  0.0843
 6456TIP3    H119332   6.248   1.483   5.211 -0.7996  0.5178  0.5617
 6456TIP3    H219333   6.237   1.509   5.062  0.5480 -0.1531  0.3392
 6457TIP3   OH219334   3.878   1.633   1.867 -0.0867 -0.3359  0.1387
 6457TIP3    H119335   3.808   1.644   1.803 -1.7953 -0.8265  1.8453
 6457TIP3    H219336   3.946   1.695   1.838 -1.6262  0.9155 -1.0023
 6458TIP3   OH219337   1.600   6.548   2.730 -0.6286 -1.0516 -0.2992
 6458TIP3    H119338   1.578   6.509   2.815  0.0444  0.1965  0.4816
 6458TIP3    H219339   1.690   6.578   2.740 -0.5161 -0.9314 -1.4906
 6459TIP3   OH219340   1.348   4.219   2.363 -0.1388 -0.1323  0.4818
 6459TIP3    H119341   1.253   4.224   2.368 -0.2393 -1.7789  0.8921
 6459TIP3    H219342   1.379   4.305   2.390 -1.5169  0.6457 -0.3323
 6460TIP3   OH219343   1.328   3.218   4.574  0.5840  0.0761  0.1176
 6460TIP3    H119344   1.352   3.281   4.642  0.9325 -0.4061  0.4547
 6460TIP3    H219345   1.411   3.177   4.549  0.5737  0.7955 -1.1678
 6461TIP3   OH219346   1.212   2.351   4.294 -0.3569  0.0478 -0.7667
 6461TIP3    H119347   1.185   2.263   4.321 -0.9482  0.3938 -0.2157
 6461TIP3    H219348   1.298   2.363   4.335  0.3682 -0.7834 -1.9544
 6462TIP3   OH219349   0.638   1.381   5.547 -0.2495 -0.0154  0.3895
 6462TIP3    H119350   0.591   1.370   5.465 -2.2440  0.8205  1.3421
 6462TIP3    H219351   0.574   1.359   5.615  0.7566  1.0447  1.7548
 6463TIP3   OH219352   1.037   0.231   2.689 -0.2517  0.3216  0.1439
 6463TIP3    H119353   1.088   0.301   2.730 -0.8777  2.1884 -2.0482
 6463TIP3    H219354   0.951   0.271   2.673 -0.7439 -1.0607 -0.8574
 6464TIP3   OH219355   3.295   2.927   2.967  0.6956  0.0468 -0.3226
 6464TIP3    H119356   3.361   2.859   2.965  0.5518 -0.0843 -0.6418
 6464TIP3    H219357   3.236   2.901   3.038  0.0885 -0.6875 -1.0781
 6465TIP3   OH219358   5.729   1.033   4.832 -0.4715 -0.3208  0.5426
 6465TIP3    H119359   5.722   1.076   4.746 -3.0781 -0.5165  0.5908
 6465TIP3    H219360   5.667   0.961   4.827  0.7179 -1.4831  1.9782
 6466TIP3   OH219361   3.475   2.939   5.543 -0.1564 -0.2218 -0.5285
 6466TIP3    H119362   3.437   2.857   5.512 -1.4514  0.7072 -1.5343
 6466TIP3    H219363   3.513   2.979   5.465  0.9953 -0.1021  0.0628
 6467TIP3   OH219364   3.162   1.996   3.400  0.3094 -0.2821  0.2076
 6467TIP3    H119365   3.067   1.991   3.394  0.2584 -0.7846  1.2031
 6467TIP3    H219366   3.181   1.978   3.492  1.3903 -0.5210 -0.0486
 6468TIP3   OH219367   4.893   6.292   4.484  0.7122  0.0961 -0.6177
 6468TIP3    H119368   4.897   6.324   4.393  2.1842 -1.7457 -1.2650
 6468TIP3    H219369   4.984   6.277   4.508  0.4509  1.7184  1.6680
 6469TIP3   OH219370   2.915   2.277   5.201  0.2357 -0.0912 -0.1450
 6469TIP3    H119371   2.898   2.234   5.285  0.2822  0.0034 -0.0867
 6469TIP3    H219372   2.918   2.206   5.137 -0.0528 -0.1382 -0.1051
 6470TIP3   OH219373   3.913   2.727   1.215 -0.1591 -0.0988 -0.2195
 6470TIP3    H119374   3.851   2.800   1.221 -0.2155  0.0554 -2.0170
 6470TIP3    H219375   3.991   2.766   1.175  0.5537 -0.6122  0.6410
 6471TIP3   OH219376   4.474   2.245   0.972 -0.4983 -0.5726 -0.0370
 6471TIP3    H119377   4.459   2.268   1.063  0.2703  0.7266 -0.2088
 6471TIP3    H219378   4.436   2.157   0.962 -0.8485 -0.6075  1.4398
 6472TIP3   OH219379   6.705   4.112   0.249 -0.1176 -0.2369  0.2731
 6472TIP3    H119380   6.760   4.069   0.183  0.3813 -1.0363  1.1956
 6472TIP3    H219381   6.765   4.141   0.317 -0.5191  1.4234 -0.0284
 6473TIP3   OH219382   0.755   6.476   3.626  0.0762 -0.2542 -0.0518
 6473TIP3    H119383   0.730   6.400   3.679  0.4485 -0.2943  0.0694
 6473TIP3    H219384   0.773   6.440   3.539  2.0002 -0.6067  0.4312
 6474TIP3   OH219385   2.584   3.071   5.789  0.3310 -0.3710  0.4625
 6474TIP3    H119386   2.491   3.065   5.767 -0.0058  0.0221  1.6758
 6474TIP3    H219387   2.626   3.007   5.733 -0.1686  1.8198 -2.6860
 6475TIP3   OH219388   3.435   1.771   1.841 -0.9504 -0.2028  0.0445
 6475TIP3    H119389   3.429   1.714   1.918  1.3854  0.8423  1.0750
 6475TIP3    H219390   3.462   1.856   1.876 -1.6436  0.8160 -1.7639
 6476TIP3   OH219391   5.368   4.728   4.516 -0.5048  0.6007 -0.3430
 6476TIP3    H119392   5.446   4.765   4.475  0.1469 -0.1933  0.1386
 6476TIP3    H219393   5.307   4.802   4.523  0.0469  1.1414 -1.0879
 6477TIP3   OH219394   0.917   5.719   2.480  0.7069 -0.0963 -0.4995
 6477TIP3    H119395   1.000   5.709   2.433  1.3700 -1.1065  0.8116
 6477TIP3    H219396   0.899   5.632   2.516 -0.2638  0.4150  0.3092
 6478TIP3   OH219397   2.508   0.905   4.397  0.1647 -0.0821  0.4029
 6478TIP3    H119398   2.525   0.960   4.321  1.0230 -0.4324  0.3192
 6478TIP3    H219399   2.459   0.830   4.363  3.5178 -2.0457 -0.5776
 6479TIP3   OH219400   5.567   4.046   3.193  0.1542 -0.3375  1.0152
 6479TIP3    H119401   5.546   4.138   3.177 -0.0878 -0.1459  2.3467
 6479TIP3    H219402   5.482   4.004   3.209  0.3997 -0.4354  2.1115
 6480TIP3   OH219403   1.585   1.014   4.725 -0.1881 -0.0202 -0.5943
 6480TIP3    H119404   1.536   1.038   4.647 -1.7334 -0.2496  0.2735
 6480TIP3    H219405   1.660   1.075   4.726  0.2928 -0.5153 -2.6281
 6481TIP3   OH219406   3.547   3.988   4.019 -0.1329  1.0683  0.2326
 6481TIP3    H119407   3.555   3.952   4.108  0.3582 -1.1390 -0.6275
 6481TIP3    H219408   3.454   3.980   3.999  0.0189 -0.1797 -0.0816
 6482TIP3   OH219409   1.872   3.823   4.652  0.5313 -0.0791 -0.1689
 6482TIP3    H119410   1.871   3.728   4.661  0.4629  0.0047  0.8341
 6482TIP3    H219411   1.953   3.842   4.604  0.8216 -0.6071  0.1039
 6483TIP3   OH219412   2.318   6.511   3.393  0.1933 -1.3777 -0.1092
 6483TIP3    H119413   2.363   6.596   3.392 -1.7444 -0.2754  0.6822
 6483TIP3    H219414   2.381   6.451   3.434  0.9759  0.0728  0.9132
 6484TIP3   OH219415   6.707   5.728   2.995 -0.6016  0.0829 -0.0264
 6484TIP3    H119416   6.786   5.689   2.958 -0.2836  1.6820 -1.0804
 6484TIP3    H219417   6.715   5.712   3.090  0.6538 -0.3242 -0.1862
 6485TIP3   OH219418   6.913   4.750   5.008  0.7066  0.7879 -0.0477
 6485TIP3    H119419   6.921   4.719   5.098 -1.0017  0.0083 -0.1205
 6485TIP3    H219420   7.002   4.773   4.982  1.2211  1.1136  1.8597
 6486TIP3   OH219421   1.276   0.832   3.467 -0.1057 -0.8133  0.3179
 6486TIP3    H119422   1.221   0.884   3.408  1.4756 -0.3194 -0.7784
 6486TIP3    H219423   1.244   0.853   3.555  0.4537  2.0666 -0.0771
 6487TIP3   OH219424   2.894   3.823   1.437 -0.4518  0.4648 -0.0968
 6487TIP3    H119425   2.934   3.875   1.506  2.3110  1.4648 -2.2598
 6487TIP3    H219426   2.850   3.887   1.381 -0.9866 -0.0952 -0.3310
 6488TIP3   OH219427   3.779   0.747   3.776 -0.2175  0.3408  0.4485
 6488TIP3    H119428   3.822   0.828   3.750 -1.2093  1.0123  0.8498
 6488TIP3    H219429   3.767   0.754   3.870  0.5465 -0.7070  0.6453
 6489TIP3   OH219430   0.658   5.778   0.332 -0.0712 -0.8255 -0.1956
 6489TIP3    H119431   0.679   5.787   0.425 -0.6265  0.7660 -0.1872
 6489TIP3    H219432   0.728   5.724   0.296  2.4371  1.7809  0.3750
 6490TIP3   OH219433   3.423   6.497   3.591 -0.0414 -0.2458  0.1174
 6490TIP3    H119434   3.495   6.434   3.586  0.8467  0.7754 -0.3359
 6490TIP3    H219435   3.353   6.457   3.539 -0.1326 -1.6311  1.2318
 6491TIP3   OH219436   7.116   3.595   5.792  0.3612  0.5371  0.6171
 6491TIP3    H119437   7.058   3.594   5.868 -0.4726  2.7751  0.0809
 6491TIP3    H219438   7.091   3.674   5.743 -0.1415 -1.5153 -2.7694
 6492TIP3   OH219439   2.826   0.704   0.635  0.2592  1.0482  0.0418
 6492TIP3    H119440   2.812   0.641   0.565  0.6713  0.6196  0.3411
 6492TIP3    H219441   2.844   0.651   0.712 -0.2794  1.5113  0.4992
 6493TIP3   OH219442   4.693   1.921   0.817  0.4461  0.1150 -0.0646
 6493TIP3    H119443   4.614   1.945   0.865 -0.6272 -1.1401 -1.1293
 6493TIP3    H219444   4.725   1.842   0.860  0.7035  0.1813 -0.1278
 6494TIP3   OH219445   6.089   6.387   1.337  0.8389 -0.6096  0.3428
 6494TIP3    H119446   6.086   6.331   1.415 -0.9088  0.9874  1.5023
 6494TIP3    H219447   6.128   6.469   1.368 -2.7416  1.2491  0.5020
 6495TIP3   OH219448   1.531   6.405   0.051 -0.0420 -0.0917  0.1243
 6495TIP3    H119449   1.517   6.364  -0.034 -1.9469  1.6288 -0.4688
 6495TIP3    H219450   1.605   6.465   0.038  1.0560 -1.3594  0.3070
 6496TIP3   OH219451   5.976   5.590   5.226  0.5040 -0.0432  0.7487
 6496TIP3    H119452   5.902   5.535   5.249  1.8924 -2.0984  0.5798
 6496TIP3    H219453   6.044   5.529   5.197  1.9187  1.8141 -0.0959
 6497TIP3   OH219454   2.647   6.753   1.629  0.3945 -0.4366  0.2954
 6497TIP3    H119455   2.578   6.784   1.688 -0.2922 -1.0683 -0.1598
 6497TIP3    H219456   2.711   6.711   1.687  0.0323 -0.5146  0.6428
 6498TIP3   OH219457   6.340   0.169   0.129  0.0934  0.3636 -0.1308
 6498TIP3    H119458   6.398   0.101   0.095 -1.2601 -1.2174  0.5521
 6498TIP3    H219459   6.331   0.148   0.222 -0.4152  1.4329  0.0712
 6499TIP3   OH219460   5.220   2.715   0.358 -0.0238  0.2663 -0.1626
 6499TIP3    H119461   5.245   2.784   0.420 -3.6485  0.9271  0.7651
 6499TIP3    H219462   5.290   2.650   0.366  1.0966  1.6226  2.5464
 6500TIP3   OH219463   6.352   0.721   5.431  0.0440  0.2702 -0.6140
 6500TIP3    H119464   6.327   0.799   5.382  0.6746  0.1448 -1.1617
 6500TIP3    H219465   6.423   0.682   5.378  0.1811 -0.3072 -0.0128
 6501TIP3   OH219466   6.988   2.444   3.624  0.0732 -1.2798  0.0949
 6501TIP3    H119467   6.934   2.392   3.683  0.2251 -1.3778  0.1468
 6501TIP3    H219468   7.025   2.513   3.679 -1.9047  0.2702 -0.3778
 6502TIP3   OH219469   1.417   2.626   4.603  0.0824 -0.2769  0.4284
 6502TIP3    H119470   1.502   2.654   4.635 -0.4728  1.0115  0.8052
 6502TIP3    H219471   1.424   2.632   4.508  0.0805  0.8313  0.4931
 6503TIP3   OH219472   1.562   0.618   1.690  0.3167 -0.0917  0.3598
 6503TIP3    H119473   1.592   0.548   1.747  2.3247  1.0333  0.8246
 6503TIP3    H219474   1.566   0.697   1.745 -0.2208  0.6341 -0.6104
 6504TIP3   OH219475   4.660   0.880   3.391  0.1365  0.3628  0.7970
 6504TIP3    H119476   4.605   0.840   3.459  0.2075 -0.6827  0.2646
 6504TIP3    H219477   4.645   0.825   3.313 -1.2075  2.4549 -0.5304
 6505TIP3   OH219478   4.153   4.527   4.079 -0.1950 -0.5646  0.3526
 6505TIP3    H119479   4.145   4.591   4.150 -0.0330 -0.6547  0.4541
 6505TIP3    H219480   4.246   4.505   4.077  0.2985  1.4231 -1.6585
 6506TIP3   OH219481   4.144   0.582   2.170  0.3127  0.6487 -0.1465
 6506TIP3    H119482   4.140   0.487   2.173 -0.7468  0.7042  0.7087
 6506TIP3    H219483   4.177   0.602   2.082 -0.3677 -0.4844 -0.6717
 6507TIP3   OH219484   4.308   5.004   5.181  0.4860  0.0610  0.1529
 6507TIP3    H119485   4.222   5.030   5.216 -0.3218 -2.8292  0.5472
 6507TIP3    H219486   4.298   5.011   5.086  0.0236  0.2857  0.2150
 6508TIP3   OH219487   5.791   4.534   1.738  0.0545 -0.1553  0.2207
 6508TIP3    H119488   5.840   4.616   1.750 -1.9527  1.1364  0.0398
 6508TIP3    H219489   5.699   4.559   1.749 -0.6136 -2.4763  0.5445
 6509TIP3   OH219490   7.045   0.209   0.799  0.1010  0.4450  0.4328
 6509TIP3    H119491   6.989   0.259   0.858  0.8561 -0.1908  1.7386
 6509TIP3    H219492   7.009   0.120   0.801  1.1374  0.0266  1.3006
 6510TIP3   OH219493   2.134   1.334   2.435  0.3262 -0.4650  0.1625
 6510TIP3    H119494   2.091   1.266   2.384 -0.4818 -0.1345  0.3741
 6510TIP3    H219495   2.089   1.333   2.520  2.8730 -2.2789  1.6185
 6511TIP3   OH219496   2.388   4.347   0.617 -0.1861 -0.6414  0.5400
 6511TIP3    H119497   2.294   4.361   0.612  0.0401  0.7698 -0.6194
 6511TIP3    H219498   2.404   4.268   0.565 -0.2647  2.1039 -4.2863
 6512TIP3   OH219499   3.434   3.401   0.497  0.5209  0.6721  0.4250
 6512TIP3    H119500   3.499   3.385   0.565  0.6668  1.5775  0.5097
 6512TIP3    H219501   3.353   3.364   0.531  1.0555 -0.8089  0.1623
 6513TIP3   OH219502   0.563   6.151   1.953  0.0805  0.0760  0.2542
 6513TIP3    H119503   0.611   6.117   1.877 -0.1926  0.1843  0.0326
 6513TIP3    H219504   0.566   6.080   2.017 -1.5726 -0.8732 -0.6621
 6514TIP3   OH219505   4.872   6.536   2.590 -0.6541 -0.1529 -0.4071
 6514TIP3    H119506   4.876   6.529   2.494 -1.0426  2.1514 -0.6539
 6514TIP3    H219507   4.778   6.540   2.609 -0.6151 -1.7743  0.2056
 6515TIP3   OH219508   5.237   1.493   3.538  0.0765 -0.3342 -0.4580
 6515TIP3    H119509   5.162   1.487   3.479  0.7247 -1.0585 -1.2251
 6515TIP3    H219510   5.279   1.407   3.533 -1.2498 -1.3822  2.9989
 6516TIP3   OH219511   0.624   3.249   2.214 -0.4453  0.3448 -0.2674
 6516TIP3    H119512   0.622   3.287   2.126 -0.6430  0.8499 -0.0502
 6516TIP3    H219513   0.590   3.161   2.202  0.6995 -0.0366 -0.9024
 6517TIP3   OH219514   5.739   6.263   1.521 -0.4166  0.1398  0.1194
 6517TIP3    H119515   5.668   6.321   1.492 -1.9059 -1.3875  0.5835
 6517TIP3    H219516   5.716   6.177   1.486  1.1278 -0.4389  0.4438
 6518TIP3   OH219517   4.170   0.520   1.536 -0.2827  0.1217  0.2449
 6518TIP3    H119518   4.241   0.469   1.575  0.6664  1.3947  0.2435
 6518TIP3    H219519   4.213   0.600   1.504 -1.7931  1.1172  0.6213
 6519TIP3   OH219520   4.023   5.029   5.206  0.1418  0.0144  0.2044
 6519TIP3    H119521   4.021   5.108   5.152  1.3513 -1.1722 -1.7183
 6519TIP3    H219522   3.938   5.027   5.250 -0.8980  1.0855 -1.6324
 6520TIP3   OH219523   6.712   2.853   1.178  0.2080  0.4093 -0.2071
 6520TIP3    H119524   6.764   2.798   1.119 -1.3682 -1.2094 -0.1652
 6520TIP3    H219525   6.662   2.911   1.119  0.8730  0.8893 -0.3081
 6521TIP3   OH219526   2.387   5.876   1.234  0.4498 -0.2188 -0.2769
 6521TIP3    H119527   2.450   5.884   1.162 -0.1917 -1.2529 -0.9807
 6521TIP3    H219528   2.441   5.868   1.312  1.2070 -1.3797 -0.8953
 6522TIP3   OH219529   3.999   5.107   4.818  0.0835  0.1847 -0.0311
 6522TIP3    H119530   3.938   5.034   4.828  1.5736 -0.8826  1.7958
 6522TIP3    H219531   3.991   5.132   4.725 -1.7714 -1.0730 -0.2716
 6523TIP3   OH219532   6.759   4.258   4.149 -0.4039  0.1431  0.1807
 6523TIP3    H119533   6.835   4.283   4.202  0.0959  0.7717 -0.8013
 6523TIP3    H219534   6.779   4.168   4.121 -0.8502 -0.3371  1.3440
 6524TIP3   OH219535   3.047   6.683   5.876 -0.5469  0.5138 -0.3655
 6524TIP3    H119536   3.015   6.677   5.786  0.7659  3.1121 -1.0966
 6524TIP3    H219537   3.031   6.596   5.913  0.9787 -1.4600 -3.8148
 6525TIP3   OH219538   1.266   4.668   0.651 -0.5992  0.3018 -0.1969
 6525TIP3    H119539   1.180   4.710   0.648 -0.3982  0.7985  0.5581
 6525TIP3    H219540   1.298   4.673   0.560 -1.4567 -0.1013 -0.5276
 6526TIP3   OH219541   2.535   0.655   4.845 -0.1705 -0.0896  0.2192
 6526TIP3    H119542   2.606   0.649   4.781  0.0058 -0.4959  0.4517
 6526TIP3    H219543   2.541   0.745   4.879  0.9825 -0.4665  1.0905
 6527TIP3   OH219544   1.948   4.661   2.521  0.0804  0.1844  0.8044
 6527TIP3    H119545   1.986   4.744   2.492 -0.1185 -0.4546 -1.4485
 6527TIP3    H219546   1.999   4.638   2.598  3.2996  0.1584 -1.1466
 6528TIP3   OH219547   3.075   3.318   2.592 -0.3165  0.6855 -0.4881
 6528TIP3    H119548   3.030   3.236   2.575 -0.4145  0.5935  0.1890
 6528TIP3    H219549   3.013   3.386   2.565  0.0315  0.5431 -1.7048
 6529TIP3   OH219550   4.017   5.393   3.398  0.6564  0.2011 -0.3702
 6529TIP3    H119551   3.966   5.460   3.442 -1.1970 -1.2971 -0.0899
 6529TIP3    H219552   4.000   5.407   3.305 -0.9202 -0.7038 -0.2568
 6530TIP3   OH219553   1.573   3.985   4.694 -0.2737 -0.1014  0.1823
 6530TIP3    H119554   1.555   4.009   4.603  0.0475  1.1387  0.4296
 6530TIP3    H219555   1.489   3.997   4.739 -0.2909 -0.1525  0.1639
 6531TIP3   OH219556   3.275   5.581   5.607 -0.4283 -0.5182  0.0183
 6531TIP3    H119557   3.225   5.609   5.683 -2.5016 -0.4909 -1.2850
 6531TIP3    H219558   3.244   5.492   5.588  1.3964 -1.2537  0.2608
 6532TIP3   OH219559   1.210   6.266   3.605 -0.0266  0.3018  0.3929
 6532TIP3    H119560   1.304   6.277   3.619  0.5147 -0.1370 -2.3461
 6532TIP3    H219561   1.179   6.355   3.585  0.2204  0.1388 -0.7414
 6533TIP3   OH219562   7.184   6.361   5.592 -0.1814 -0.3190  0.8455
 6533TIP3    H119563   7.102   6.313   5.603 -0.1952 -0.2056  1.2553
 6533TIP3    H219564   7.245   6.297   5.556  0.9628 -1.8334  5.0065
 6534TIP3   OH219565   1.187   0.832   0.182 -0.6144 -0.1547 -0.3587
 6534TIP3    H119566   1.141   0.804   0.103  2.7718  1.1971 -3.1083
 6534TIP3    H219567   1.272   0.787   0.177  0.3745  1.3316  1.5452
 6535TIP3   OH219568   0.404   1.286   1.883  0.2795 -0.2237  0.2875
 6535TIP3    H119569   0.489   1.276   1.926  0.0182  1.5956  1.3125
 6535TIP3    H219570   0.347   1.226   1.930  0.3910  0.5273  1.4176
 6536TIP3   OH219571   4.528   0.887   1.385  0.2000  0.2833 -0.4482
 6536TIP3    H119572   4.515   0.960   1.325 -0.5040  2.0047  1.6382
 6536TIP3    H219573   4.515   0.926   1.472 -0.7510 -2.4525  0.7361
 6537TIP3   OH219574   0.146   2.096   0.890 -0.0406  0.3972  0.2518
 6537TIP3    H119575   0.155   2.052   0.805 -0.9792  2.7077 -1.1586
 6537TIP3    H219576   0.153   2.026   0.955  2.7162 -1.2451 -1.5959
 6538TIP3   OH219577   1.297   4.842   4.171  0.0565 -0.4583 -0.5771
 6538TIP3    H119578   1.294   4.935   4.150  0.4957 -0.2916  0.0579
 6538TIP3    H219579   1.230   4.832   4.239  0.5484 -0.4465 -0.0835
 6539TIP3   OH219580   6.834   1.196   1.855 -0.0201 -0.1428  0.1718
 6539TIP3    H119581   6.885   1.229   1.780 -0.7055  0.9540  0.1781
 6539TIP3    H219582   6.870   1.241   1.931 -1.4735  1.2313  0.0851
 6540TIP3   OH219583   5.205   3.892   4.381  0.7879 -0.0103 -0.2366
 6540TIP3    H119584   5.141   3.839   4.428 -1.4996  2.0765 -0.8229
 6540TIP3    H219585   5.232   3.958   4.445  2.2352 -0.6948 -0.0854
 6541TIP3   OH219586   0.413   3.246   2.913 -0.4973 -0.3737 -0.3103
 6541TIP3    H119587   0.424   3.335   2.948 -1.1031 -0.2885 -0.3282
 6541TIP3    H219588   0.319   3.230   2.917 -0.4614 -0.7604 -0.9450
 6542TIP3   OH219589   1.485   1.785   0.965  0.0549  0.1828  0.3210
 6542TIP3    H119590   1.510   1.793   1.057  0.4623  1.4754  0.1142
 6542TIP3    H219591   1.390   1.774   0.967  0.1289 -0.4280  0.9169
 6543TIP3   OH219592   4.626   3.515   3.632  0.0633  0.0702  0.0070
 6543TIP3    H119593   4.646   3.468   3.551  1.7403 -1.5334  1.2691
 6543TIP3    H219594   4.556   3.465   3.673 -0.2788  0.4644 -0.0821
 6544TIP3   OH219595   0.067   5.019   3.962  0.1061  0.1502 -0.3784
 6544TIP3    H119596  -0.022   5.054   3.962 -0.1489 -0.4712  0.9939
 6544TIP3    H219597   0.056   4.924   3.962  0.7529  0.0657  0.5113
 6545TIP3   OH219598   2.873   2.808   2.006  0.3407 -0.1637  0.0806
 6545TIP3    H119599   2.866   2.824   1.912 -0.6180  0.9719  0.3302
 6545TIP3    H219600   2.829   2.723   2.019  0.2346 -0.1943 -0.4579
 6546TIP3   OH219601   3.864   4.362   4.809 -0.4917  0.2155  0.7191
 6546TIP3    H119602   3.889   4.271   4.818 -0.4460  0.3309  1.8565
 6546TIP3    H219603   3.848   4.392   4.898  0.9860  1.7443  0.5241
 6547TIP3   OH219604   0.080   5.627   1.824  0.1869 -0.0354  0.1039
 6547TIP3    H119605   0.104   5.537   1.804 -0.5264 -0.1614 -0.2235
 6547TIP3    H219606  -0.006   5.621   1.866 -0.0471  0.5143 -0.2730
 6548TIP3   OH219607   1.856   4.308   0.801 -0.0242 -0.2434 -0.2392
 6548TIP3    H119608   1.788   4.306   0.733 -1.0332 -0.6010  0.7456
 6548TIP3    H219609   1.851   4.222   0.843  1.6801 -0.6132 -0.7321
 6549TIP3   OH219610   4.099   1.147   3.768 -0.2374  0.0995 -0.6535
 6549TIP3    H119611   4.169   1.090   3.800  1.8303  1.4873 -2.3981
 6549TIP3    H219612   4.080   1.206   3.841  0.5626 -0.1737 -0.2200
 6550TIP3   OH219613   3.954   4.403   1.075 -0.4715 -0.1664 -0.1459
 6550TIP3    H119614   3.924   4.383   0.987  0.1951 -0.3988 -0.3244
 6550TIP3    H219615   3.986   4.319   1.109  2.3030  0.4991 -0.8834
 6551TIP3   OH219616   5.807   5.968   1.586  0.2152  0.4525 -0.4222
 6551TIP3    H119617   5.726   5.921   1.607  0.4849 -0.2873 -0.9801
 6551TIP3    H219618   5.828   6.016   1.666 -0.1204 -0.3238  0.1496
 6552TIP3   OH219619   0.082   5.006   4.275  0.4708  0.6075 -0.3007
 6552TIP3    H119620   0.056   4.995   4.184  2.0866  0.3309 -0.7705
 6552TIP3    H219621   0.000   5.004   4.325 -0.3309 -0.8226 -1.5886
 6553TIP3   OH219622   0.116   5.764   1.589  0.0471  0.4850  0.2056
 6553TIP3    H119623   0.089   5.723   1.671  0.1869  0.2523  0.1381
 6553TIP3    H219624   0.135   5.690   1.531 -0.7326  0.6465 -0.2653
 6554TIP3   OH219625   0.593   6.728   3.649 -0.3803  0.2805  0.1032
 6554TIP3    H119626   0.512   6.715   3.699 -0.4601 -0.5930 -0.2411
 6554TIP3    H219627   0.632   6.641   3.644 -0.1454  0.4350 -0.9662
 6555TIP3   OH219628   0.604   5.647   2.073  0.1524  0.3293  0.8041
 6555TIP3    H119629   0.693   5.648   2.110  0.4440 -0.9768  0.1889
 6555TIP3    H219630   0.615   5.679   1.984  0.4106 -1.9046 -0.0248
 6556TIP3   OH219631   3.820   6.401   0.171  0.1276  0.2719  0.2951
 6556TIP3    H119632   3.749   6.410   0.235 -0.3416  0.1271 -0.2022
 6556TIP3    H219633   3.862   6.318   0.194 -0.1395  0.1417  0.3140
 6557TIP3   OH219634   6.150   5.674   5.865 -0.6536 -0.2378 -0.4171
 6557TIP3    H119635   6.133   5.635   5.780  0.1066 -1.9582  0.1708
 6557TIP3    H219636   6.076   5.647   5.919 -1.1185  0.8222 -0.5016
 6558TIP3   OH219637   1.602   2.403   2.064 -0.1430 -0.1473  0.3262
 6558TIP3    H119638   1.632   2.470   2.126 -0.3811 -0.0335  0.3181
 6558TIP3    H219639   1.681   2.378   2.017  0.3333 -1.2572  1.6292
 6559TIP3   OH219640   0.160   3.965   2.700 -0.1424  0.1182 -0.2167
 6559TIP3    H119641   0.094   3.913   2.653 -1.1980  1.5473 -0.3660
 6559TIP3    H219642   0.180   3.913   2.778  0.6881 -1.6925 -1.5425
 6560TIP3   OH219643   4.307   1.448   3.751  0.8658 -0.4897 -0.4703
 6560TIP3    H119644   4.321   1.543   3.754 -0.0308 -0.3663  0.3949
 6560TIP3    H219645   4.331   1.423   3.662 -0.4433  0.8209 -1.2318
 6561TIP3   OH219646   0.421   2.074   4.297 -0.0912 -0.0968 -0.1597
 6561TIP3    H119647   0.367   2.105   4.370  0.0333 -1.1489  0.3939
 6561TIP3    H219648   0.511   2.084   4.329  0.2130  2.8706 -1.5412
 6562TIP3   OH219649   5.083   4.239   1.072  0.3605 -0.4936 -0.5038
 6562TIP3    H119650   5.005   4.228   1.018 -0.6749 -0.6219  0.9582
 6562TIP3    H219651   5.051   4.230   1.162  2.0512 -0.4643  0.1309
 6563TIP3   OH219652   6.764   0.342   0.694  0.2552  0.1650 -0.2118
 6563TIP3    H119653   6.699   0.391   0.642 -0.5130  0.6279  1.1304
 6563TIP3    H219654   6.774   0.393   0.774  1.5802 -0.4167  0.0203
 6564TIP3   OH219655   5.461   0.429   3.233  0.0292  0.4648  0.1285
 6564TIP3    H119656   5.480   0.472   3.150  2.0942 -2.3243 -1.0243
 6564TIP3    H219657   5.544   0.390   3.259 -1.4138 -1.9331  1.5049
 6565TIP3   OH219658   5.969   1.805   0.892 -0.0623  0.0558  0.4974
 6565TIP3    H119659   6.059   1.794   0.863 -0.4763 -0.7955 -0.5439
 6565TIP3    H219660   5.970   1.884   0.945  1.6625 -0.9774  2.1305
 6566TIP3   OH219661   5.304   1.389   4.947 -0.3687  1.1039 -0.4167
 6566TIP3    H119662   5.242   1.335   4.996  1.0625  0.0511  0.2845
 6566TIP3    H219663   5.273   1.385   4.856 -1.0025  0.1362 -0.1703
 6567TIP3   OH219664   3.063   6.738   4.998  0.0775 -0.2591  0.0742
 6567TIP3    H119665   3.006   6.768   4.927  0.1209 -0.3118  0.0169
 6567TIP3    H219666   3.150   6.769   4.975  0.1820 -0.7147 -0.1574
 6568TIP3   OH219667   0.422   2.432   2.923  0.2292 -0.4790 -0.1133
 6568TIP3    H119668   0.509   2.407   2.953  0.3512 -0.0210 -0.0811
 6568TIP3    H219669   0.410   2.522   2.955 -1.0202 -1.1776  1.5791
 6569TIP3   OH219670   7.108   4.465   1.177  0.4626  0.3714 -0.4833
 6569TIP3    H119671   7.099   4.472   1.272 -1.1197  0.2928 -0.6008
 6569TIP3    H219672   7.189   4.416   1.165  1.0207  0.9097  0.8021
 6570TIP3   OH219673   0.997   4.546   1.300  0.0242  0.0715 -0.1550
 6570TIP3    H119674   0.995   4.582   1.388 -2.2554 -1.3869  0.4611
 6570TIP3    H219675   1.077   4.583   1.261  0.9682  0.9335  2.3976
 6571TIP3   OH219676   4.489   6.109   2.078 -0.3572  0.4586 -0.4067
 6571TIP3    H119677   4.457   6.019   2.067  2.2816 -1.2450  3.3754
 6571TIP3    H219678   4.415   6.157   2.115 -0.8937 -1.1806  0.7946
 6572TIP3   OH219679   4.256   0.341   3.332 -0.1905 -0.2213  0.3886
 6572TIP3    H119680   4.317   0.271   3.355  0.8425  0.8965  1.2141
 6572TIP3    H219681   4.311   0.420   3.331 -0.5347  0.1918 -3.8427
 6573TIP3   OH219682   2.264   3.878   0.581 -0.3346 -0.4994  0.4365
 6573TIP3    H119683   2.339   3.910   0.530  1.2846 -1.6420  1.9899
 6573TIP3    H219684   2.223   3.958   0.615  1.6950  0.1184  1.6108
 6574TIP3   OH219685   6.554   1.736   5.107  0.2554  0.6716  0.2528
 6574TIP3    H119686   6.561   1.706   5.016  1.0770  0.9365  0.2215
 6574TIP3    H219687   6.634   1.786   5.122  0.5155 -0.0591  1.3922
 6575TIP3   OH219688   2.734   5.696   0.757 -0.2305  0.0349  0.6743
 6575TIP3    H119689   2.713   5.603   0.762  1.5088 -0.5039 -1.0189
 6575TIP3    H219690   2.811   5.706   0.813 -0.7512  0.5920  1.3060
 6576TIP3   OH219691   1.856   6.086   0.973  0.2215 -0.1779  0.1112
 6576TIP3    H119692   1.813   6.050   0.896 -1.4968  1.0597  0.4306
 6576TIP3    H219693   1.788   6.135   1.018  1.6379  0.6636  1.4555
 6577TIP3   OH219694   1.072   1.432   2.622  0.6073  0.1867  0.0318
 6577TIP3    H119695   1.051   1.462   2.534 -1.1145 -1.1814 -0.0840
 6577TIP3    H219696   1.162   1.401   2.616  1.9858  3.8293 -0.1550
 6578TIP3   OH219697   3.526   5.843   1.688 -0.4523 -0.3072 -0.4509
 6578TIP3    H119698   3.595   5.800   1.637  0.6331  1.0147 -0.1365
 6578TIP3    H219699   3.556   5.933   1.698 -2.6455  0.5551 -1.0758
 6579TIP3   OH219700   6.276   5.673   3.529  0.3219 -0.3983  0.6062
 6579TIP3    H119701   6.347   5.609   3.537  1.0876  0.3620  0.0721
 6579TIP3    H219702   6.224   5.641   3.455 -0.0689 -1.1191  1.1881
 6580TIP3   OH219703   3.048   4.819   2.323  0.6840  0.1049  0.9389
 6580TIP3    H119704   3.030   4.762   2.248  0.4717 -0.1208  1.1595
 6580TIP3    H219705   3.140   4.845   2.311  0.4821  0.5466  0.2906
 6581TIP3   OH219706   2.667   4.219   4.793 -0.7305 -0.0056 -0.0281
 6581TIP3    H119707   2.670   4.226   4.888  0.8554  1.3884 -0.1310
 6581TIP3    H219708   2.730   4.150   4.772  0.7948  1.3712 -0.1511
 6582TIP3   OH219709   4.918   1.818   3.285 -0.1805  0.2833  0.0425
 6582TIP3    H119710   4.968   1.837   3.206 -2.7595  1.1657 -1.5109
 6582TIP3    H219711   4.880   1.731   3.270 -0.4198  0.3133  0.4439
 6583TIP3   OH219712   2.501   4.584   0.162 -0.2122  0.0764  0.0347
 6583TIP3    H119713   2.587   4.602   0.199 -0.4077 -0.1569  0.6132
 6583TIP3    H219714   2.451   4.544   0.234 -0.7592  0.0828 -0.3307
 6584TIP3   OH219715   1.010   3.376   0.310 -0.2435 -0.0720  0.0557
 6584TIP3    H119716   0.976   3.317   0.377  0.0132  1.2997  1.4387
 6584TIP3    H219717   0.935   3.395   0.254 -0.8112 -0.0985  0.8060
 6585TIP3   OH219718   0.413   4.583   1.999 -0.2311 -0.1631  0.2920
 6585TIP3    H119719   0.370   4.499   1.983  1.6327 -0.8800 -1.2769
 6585TIP3    H219720   0.451   4.573   2.086  0.1871 -1.0463  0.0189
 6586TIP3   OH219721   6.823   2.314   4.870  0.0372  0.0174 -0.2295
 6586TIP3    H119722   6.773   2.242   4.907 -0.0085  0.1699  0.0069
 6586TIP3    H219723   6.815   2.384   4.934  0.8588 -0.0799 -0.0045
 6587TIP3   OH219724   0.761   3.998   2.377 -0.0645 -0.3391 -0.1685
 6587TIP3    H119725   0.826   3.983   2.445  0.9659 -2.0361 -1.4546
 6587TIP3    H219726   0.772   3.925   2.316 -3.5281 -1.0098 -0.2063
 6588TIP3   OH219727   1.072   3.892   2.956 -0.0025  0.3721  0.0943
 6588TIP3    H119728   1.147   3.872   2.899 -0.2536  1.7072 -0.7719
 6588TIP3    H219729   1.041   3.977   2.924 -1.3623  0.2401  1.0005
 6589TIP3   OH219730   3.552   0.139   0.729  0.3353  0.0477 -0.4993
 6589TIP3    H119731   3.532   0.231   0.712  2.2403  0.6675  0.3580
 6589TIP3    H219732   3.647   0.134   0.727  0.2675 -1.9317 -0.5810
 6590TIP3   OH219733   0.087   3.057   0.790 -0.4646 -0.2802 -0.6493
 6590TIP3    H119734   0.056   2.982   0.841 -1.9841 -0.7711 -2.1850
 6590TIP3    H219735   0.018   3.123   0.801  0.1690  0.3667 -0.4665
 6591TIP3   OH219736   5.276   2.035   4.812 -0.3981 -0.1077 -0.6005
 6591TIP3    H119737   5.294   1.942   4.798  0.2799  0.1213 -1.3258
 6591TIP3    H219738   5.219   2.059   4.739 -2.3853 -0.4329  0.7657
 6592TIP3   OH219739   0.895   3.403   1.042 -0.3373 -0.2777 -0.6363
 6592TIP3    H119740   0.935   3.477   1.089 -0.8642 -0.6310  0.4006
 6592TIP3    H219741   0.813   3.438   1.008  0.2453  0.0992 -1.6901
 6593TIP3   OH219742   4.732   0.287   0.643 -0.4784 -0.4519  0.4306
 6593TIP3    H119743   4.814   0.321   0.680 -0.3407  1.1749 -1.2273
 6593TIP3    H219744   4.758   0.249   0.559 -1.5607  1.4997 -0.8679
 6594TIP3   OH219745   5.390   6.583   1.080  0.4215 -0.1991 -0.0746
 6594TIP3    H119746   5.343   6.564   0.999  0.4690  0.2713 -0.2180
 6594TIP3    H219747   5.449   6.509   1.092  1.4914  0.4021 -1.2796
 6595TIP3   OH219748   0.171   2.467   4.211  0.0299 -0.2830 -0.9690
 6595TIP3    H119749   0.257   2.505   4.195  0.2914 -0.3389  0.2073
 6595TIP3    H219750   0.187   2.396   4.272 -0.8763 -0.1389 -0.5428
 6596TIP3   OH219751   6.508   0.988   2.670  0.6824  0.2465  0.3711
 6596TIP3    H119752   6.483   1.064   2.617 -0.6587  0.2818  0.9982
 6596TIP3    H219753   6.541   0.924   2.608 -0.9342  0.2550 -0.5498
 6597TIP3   OH219754   2.830   2.996   2.198 -0.1224  0.0796 -0.4919
 6597TIP3    H119755   2.803   2.925   2.257  1.1349 -0.5925 -0.6806
 6597TIP3    H219756   2.859   2.952   2.118  0.6841  0.7928 -0.6140
 6598TIP3   OH219757   7.134   3.117   3.860  0.1461 -0.1974  0.8072
 6598TIP3    H119758   7.188   3.082   3.931 -0.1024 -1.0877  0.5597
 6598TIP3    H219759   7.085   3.042   3.827  0.5591  0.1172 -0.5873
 6599TIP3   OH219760   5.585   6.375   1.139 -0.6601 -0.7642 -0.5384
 6599TIP3    H119761   5.611   6.288   1.170 -1.2825 -0.9122 -0.4141
 6599TIP3    H219762   5.663   6.409   1.095 -1.2563 -2.5654 -3.2329
 6600TIP3   OH219763   0.313   3.075   1.605  0.4992 -0.1785 -0.3306
 6600TIP3    H119764   0.408   3.072   1.596  0.3246 -0.9908 -2.5707
 6600TIP3    H219765   0.283   2.991   1.571 -0.9291 -1.2935  3.1621
 6601TIP3   OH219766   3.188   5.551   5.285 -0.0060  0.3319 -0.0036
 6601TIP3    H119767   3.192   5.494   5.362  1.8181  0.0834 -0.2276
 6601TIP3    H219768   3.112   5.607   5.300  0.4836  0.5122  2.1699
 6602TIP3   OH219769   1.984   2.677   3.782 -0.2809  0.0790  0.4827
 6602TIP3    H119770   1.891   2.691   3.768 -0.0087  1.2460 -0.3398
 6602TIP3    H219771   2.020   2.663   3.694  0.3288 -0.2911  0.7848
 6603TIP3   OH219772   3.330   6.268   1.268  0.5955  0.7096  0.1774
 6603TIP3    H119773   3.372   6.304   1.346 -1.0827  2.4342  0.3587
 6603TIP3    H219774   3.239   6.254   1.295  0.6158 -1.4317 -0.6548
 6604TIP3   OH219775   5.392   0.522   4.261 -0.4353  0.6948 -0.3482
 6604TIP3    H119776   5.382   0.449   4.200 -1.1431  0.5034 -0.0083
 6604TIP3    H219777   5.331   0.588   4.229 -0.9508  0.5172  0.2649
 6605TIP3   OH219778   2.080   1.986   2.650 -0.5498 -0.4726  0.3202
 6605TIP3    H119779   1.986   1.972   2.659 -0.1833 -3.9117 -0.1619
 6605TIP3    H219780   2.118   1.953   2.731  0.3643 -1.1995 -0.3799
 6606TIP3   OH219781   6.141   2.901   0.290 -0.0082 -0.2803 -0.2665
 6606TIP3    H119782   6.133   2.970   0.224  0.5320 -0.7442 -0.8308
 6606TIP3    H219783   6.166   2.823   0.241  0.5180 -0.6115  0.5035
 6607TIP3   OH219784   5.249   3.011   2.095 -0.0845 -0.8848  0.4494
 6607TIP3    H119785   5.156   2.990   2.090 -0.3288 -0.0141  0.9279
 6607TIP3    H219786   5.253   3.088   2.152  0.8046 -0.1252 -0.5888
 6608TIP3   OH219787   1.275   4.664   3.798  0.0844 -0.3424  0.0207
 6608TIP3    H119788   1.285   4.758   3.816  1.9168 -0.5518  0.3038
 6608TIP3    H219789   1.253   4.660   3.705 -0.8560  0.3805  0.1868
 6609TIP3   OH219790   4.763   5.121   4.945 -0.0060 -0.3036 -0.3249
 6609TIP3    H119791   4.685   5.123   5.001 -0.4296 -1.0610 -0.8716
 6609TIP3    H219792   4.733   5.158   4.862  0.7141  1.1690  0.0259
 6610TIP3   OH219793   3.965   1.475   5.573 -0.0066  0.3741  0.3391
 6610TIP3    H119794   3.999   1.564   5.579 -1.8446  1.2335 -1.0220
 6610TIP3    H219795   3.878   1.485   5.533  0.5720 -2.1809 -1.8724
 6611TIP3   OH219796   2.000   0.253   3.698 -0.4972 -0.3560 -0.1431
 6611TIP3    H119797   1.969   0.243   3.788  0.4982  0.0399  0.2626
 6611TIP3    H219798   2.019   0.347   3.690 -1.5747 -0.2036 -1.1125
 6612TIP3   OH219799   6.748   2.135   2.736  0.3578 -0.4775 -0.4247
 6612TIP3    H119800   6.827   2.085   2.754  0.4492 -0.2237 -0.1265
 6612TIP3    H219801   6.779   2.216   2.697  0.2021 -0.7066 -1.0446
 6613TIP3   OH219802   3.272   0.570   0.729 -0.5135  0.0129 -0.4040
 6613TIP3    H119803   3.283   0.664   0.716 -0.6858  0.1286  0.2460
 6613TIP3    H219804   3.179   0.560   0.750 -0.1202 -0.0366  1.5715
 6614TIP3   OH219805   4.071   3.948   0.359  0.2275 -0.3421 -0.5666
 6614TIP3    H119806   4.033   3.949   0.446  0.1846  0.1333 -0.5889
 6614TIP3    H219807   4.052   3.860   0.325  0.1506 -0.4874 -0.1421
 6615TIP3   OH219808   1.343   0.016   2.027 -0.6984  0.0282 -0.2495
 6615TIP3    H119809   1.427   0.057   2.004 -0.7523  0.2071 -0.1234
 6615TIP3    H219810   1.277   0.080   2.001 -0.8144 -0.2714 -0.7023
 6616TIP3   OH219811   4.199   6.356   2.416  0.3684 -0.4011 -0.4554
 6616TIP3    H119812   4.167   6.305   2.490 -0.1653 -0.6136 -0.8289
 6616TIP3    H219813   4.124   6.410   2.389  0.2585 -1.0301 -1.4395
 6617TIP3   OH219814   5.030   0.351   5.656 -0.2484 -0.4379  0.5040
 6617TIP3    H119815   5.074   0.339   5.572 -2.2318 -1.8126 -0.4199
 6617TIP3    H219816   5.073   0.289   5.715 -0.5853 -1.4091 -0.2438
 6618TIP3   OH219817   6.907   3.455   0.772 -0.1262  0.5717  0.4074
 6618TIP3    H119818   6.974   3.521   0.792 -0.1530  0.9538 -0.6918
 6618TIP3    H219819   6.837   3.504   0.730 -1.1661  0.1919  1.6117
 6619TIP3   OH219820   2.819   0.946   4.964  0.0627  0.0501  1.0011
 6619TIP3    H119821   2.784   0.858   4.974 -0.6504  0.2098  0.1144
 6619TIP3    H219822   2.871   0.942   4.883  1.3535  0.0542  1.8031
 6620TIP3   OH219823   5.059   1.759   1.044  0.0898 -0.1538 -0.6832
 6620TIP3    H119824   5.021   1.812   1.114 -0.3570  0.5355 -1.4300
 6620TIP3    H219825   5.005   1.680   1.042  0.7404 -0.6370  0.4159
 6621TIP3   OH219826   3.629   2.426   3.965 -0.5129 -0.5852 -0.5848
 6621TIP3    H119827   3.679   2.457   3.890 -1.7932 -0.5224 -1.4435
 6621TIP3    H219828   3.539   2.454   3.948 -1.0105 -1.4011  0.5097
 6622TIP3   OH219829   2.337   6.684   4.832  0.5148  0.2149 -0.0009
 6622TIP3    H119830   2.301   6.600   4.862  1.3108 -0.4061 -0.7122
 6622TIP3    H219831   2.319   6.745   4.903 -1.3559 -0.1988 -0.0671
 6623TIP3   OH219832   4.946   0.913   3.921 -0.2183  0.1520  0.7094
 6623TIP3    H119833   4.887   0.927   3.995 -1.6772  1.2020 -0.5614
 6623TIP3    H219834   4.994   0.995   3.912 -0.7684  0.4041 -0.0768
 6624TIP3   OH219835   5.393   1.074   5.032  0.6711 -0.4403  0.2883
 6624TIP3    H119836   5.388   1.120   4.948  1.0470 -0.7235  0.1076
 6624TIP3    H219837   5.375   1.141   5.097  0.6934 -0.1488 -0.0040
 6625TIP3   OH219838   7.142   6.701   4.031 -0.3463  0.5114 -0.0048
 6625TIP3    H119839   7.232   6.676   4.050 -1.3426 -3.1175  0.7534
 6625TIP3    H219840   7.149   6.761   3.956  2.6103 -1.2504 -1.3416
 6626TIP3   OH219841   0.343   2.012   5.138  0.2194  0.2108 -0.0726
 6626TIP3    H119842   0.375   2.039   5.052  0.2346 -0.5644 -0.3147
 6626TIP3    H219843   0.290   2.086   5.168 -1.9502 -0.5089 -1.8670
 6627TIP3   OH219844   4.887   0.442   0.825 -0.4148  0.1465 -0.3601
 6627TIP3    H119845   4.846   0.509   0.879  0.0024  0.2763 -0.2070
 6627TIP3    H219846   4.936   0.490   0.759  0.5429  0.0148  0.2309
 6628TIP3   OH219847   1.437   3.351   2.108 -0.2712 -0.5248  0.1485
 6628TIP3    H119848   1.400   3.437   2.129  1.2825 -0.0231  1.0579
 6628TIP3    H219849   1.362   3.296   2.088 -1.4368  0.6229  1.1978
 6629TIP3   OH219850   2.581   1.462   1.969  0.5728  0.2131 -0.1543
 6629TIP3    H119851   2.616   1.535   2.020  1.3668  1.2113 -2.0395
 6629TIP3    H219852   2.515   1.501   1.912 -0.8001 -0.9955  0.5444
 6630TIP3   OH219853   5.451   0.412   4.511 -0.0751 -0.0033  0.0120
 6630TIP3    H119854   5.421   0.441   4.425 -0.3438 -0.7341 -0.1490
 6630TIP3    H219855   5.373   0.418   4.567 -0.3317 -1.0672 -0.1967
 6631TIP3   OH219856   5.215   2.839   5.461  0.2780 -0.5892 -0.0595
 6631TIP3    H119857   5.182   2.928   5.469  1.7007 -0.1159  0.9515
 6631TIP3    H219858   5.163   2.800   5.390 -1.1979  0.6361  0.2907
 6632TIP3   OH219859   7.149   6.060   5.814  0.0907  0.4233  0.0187
 6632TIP3    H119860   7.185   6.148   5.808 -0.3310  0.6180  0.2774
 6632TIP3    H219861   7.058   6.073   5.841 -0.0877 -0.0717 -0.3256
 6633TIP3   OH219862   2.702   1.776   1.146 -0.5882 -0.6529 -0.0894
 6633TIP3    H119863   2.768   1.706   1.145  0.5950  0.2704  2.7095
 6633TIP3    H219864   2.650   1.758   1.224  0.0737  1.7668  1.0151
 6634TIP3   OH219865   0.448   0.260   1.269 -0.2834 -0.0924  0.2516
 6634TIP3    H119866   0.417   0.267   1.179  1.3716 -1.4997 -0.4806
 6634TIP3    H219867   0.490   0.174   1.273 -0.2032  0.0026  2.3336
 6635TIP3   OH219868   1.285   2.696   3.328  0.5080 -0.1251 -0.2199
 6635TIP3    H119869   1.210   2.707   3.387 -1.2272 -0.7956 -2.1878
 6635TIP3    H219870   1.309   2.785   3.303  0.3237  0.0952  0.3793
 6636TIP3   OH219871   2.273   1.538   2.078 -0.1890  0.6091 -0.2332
 6636TIP3    H119872   2.213   1.610   2.058 -2.0505 -0.6758  0.3246
 6636TIP3    H219873   2.339   1.576   2.136 -1.6502  1.6961  0.8159
 6637TIP3   OH219874   6.511   2.338   5.542 -0.2101 -0.2722 -0.4956
 6637TIP3    H119875   6.590   2.300   5.503  0.0305  1.1006 -1.3930
 6637TIP3    H219876   6.484   2.273   5.607  1.7268 -0.7340 -0.0596
 6638TIP3   OH219877   4.380   4.839   4.570 -0.1918 -0.2449 -0.4304
 6638TIP3    H119878   4.440   4.909   4.595  1.3024 -0.9370 -1.8841
 6638TIP3    H219879   4.391   4.772   4.637  0.2751 -0.1385 -0.3984
 6639TIP3   OH219880   0.562   2.418   0.265 -0.1436 -0.2209  0.1547
 6639TIP3    H119881   0.620   2.476   0.215  1.1188 -0.5866  1.1242
 6639TIP3    H219882   0.549   2.463   0.348  0.9643 -1.3264  0.9711
 6640TIP3   OH219883   2.054   0.303   0.122 -0.3863 -0.3561 -0.1822
 6640TIP3    H119884   2.103   0.254   0.056  0.6001 -0.9812  0.9787
 6640TIP3    H219885   1.984   0.243   0.148 -0.3008 -0.4153 -0.0900
 6641TIP3   OH219886   4.388   6.355   1.028 -0.3324 -0.1566 -0.4820
 6641TIP3    H119887   4.326   6.287   1.001 -1.6185  1.4017 -1.7220
 6641TIP3    H219888   4.394   6.413   0.951  1.3298  0.6981  0.2396
 6642TIP3   OH219889   5.586   5.374   4.144 -0.4997 -0.0172 -0.1718
 6642TIP3    H119890   5.620   5.455   4.184 -0.0689  0.3653 -1.2645
 6642TIP3    H219891   5.552   5.403   4.059  2.0953 -1.3660 -1.7806
 6643TIP3   OH219892   7.135   3.190   2.147  0.2362 -0.6366  0.0310
 6643TIP3    H119893   7.217   3.160   2.108  0.8975 -0.5614  1.3205
 6643TIP3    H219894   7.092   3.110   2.177  0.3259 -0.5944  0.2749
 6644TIP3   OH219895   4.225   0.698   5.018 -0.4226 -0.5617 -0.0912
 6644TIP3    H119896   4.149   0.720   4.964 -0.8952 -1.9656 -0.0439
 6644TIP3    H219897   4.236   0.604   5.005  0.1065 -0.7288  1.4398
 6645TIP3   OH219898   0.920   0.261   0.423  0.5062 -0.3473 -0.1426
 6645TIP3    H119899   0.905   0.185   0.367 -0.6394 -1.0822  1.1029
 6645TIP3    H219900   0.852   0.255   0.490  0.7157  1.4980  0.2889
 6646TIP3   OH219901   0.816   2.675   0.978  0.9009  0.3195  0.4898
 6646TIP3    H119902   0.768   2.602   1.017  1.0282  1.1832  2.4055
 6646TIP3    H219903   0.763   2.752   0.998  1.3262  0.8999 -0.5077
 6647TIP3   OH219904   1.398   0.075   5.079  0.0036 -0.5351  0.3851
 6647TIP3    H119905   1.454   0.149   5.057  0.2725 -1.0048 -0.5999
 6647TIP3    H219906   1.399   0.071   5.174 -0.4618  1.0445  0.4834
 6648TIP3   OH219907   5.220   6.215   3.558 -0.2160  0.4319  0.5316
 6648TIP3    H119908   5.165   6.246   3.486 -1.2018 -1.1408  0.5620
 6648TIP3    H219909   5.267   6.293   3.587  0.2147  1.1209 -1.7961
 6649TIP3   OH219910   5.736   5.177   5.615  0.1550 -0.2049 -0.4593
 6649TIP3    H119911   5.778   5.221   5.689  0.8585  0.8908 -1.4770
 6649TIP3    H219912   5.653   5.145   5.650  0.4643  0.3016  0.7955
 6650TIP3   OH219913   0.640   4.249   0.417  0.5859 -0.3357  0.1066
 6650TIP3    H119914   0.700   4.261   0.490  0.5356  1.8821 -0.1630
 6650TIP3    H219915   0.692   4.203   0.351  1.3821 -0.1689  0.6061
 6651TIP3   OH219916   6.008   4.682   0.216 -0.0163  0.0434  0.8577
 6651TIP3    H119917   6.026   4.749   0.150  1.9927 -0.9349  0.3368
 6651TIP3    H219918   5.912   4.678   0.221 -0.2921 -0.1756 -2.3969
 6652TIP3   OH219919   3.434   3.288   4.880  0.3521 -0.4794 -0.0306
 6652TIP3    H119920   3.450   3.369   4.929  0.9854  0.3584 -1.5602
 6652TIP3    H219921   3.353   3.254   4.917 -0.8445  1.7193 -0.4290
 6653TIP3   OH219922   4.258   6.688   3.558 -0.4442  0.5099 -0.0449
 6653TIP3    H119923   4.352   6.702   3.546 -0.1301 -1.5985 -0.3711
 6653TIP3    H219924   4.232   6.756   3.622  1.7684 -0.2613  1.8246
 6654TIP3   OH219925   4.380   4.358   1.617  0.2048  0.7508 -0.1034
 6654TIP3    H119926   4.431   4.403   1.684 -0.6027  0.0024  1.0595
 6654TIP3    H219927   4.415   4.390   1.534  0.1043  2.9860  0.6616
 6655TIP3   OH219928   6.584   4.465   0.988 -0.3823  0.1917 -0.3546
 6655TIP3    H119929   6.671   4.426   0.998 -0.4677 -0.0651 -0.6064
 6655TIP3    H219930   6.599   4.559   0.993 -0.0942  0.1467 -0.3682
 6656TIP3   OH219931   4.041   3.810   3.521 -0.1971  0.4644 -0.3170
 6656TIP3    H119932   3.980   3.882   3.537 -1.1055 -0.2709 -0.3951
 6656TIP3    H219933   4.026   3.750   3.594  1.7342  1.1074  0.6688
 6657TIP3   OH219934   1.810   4.837   4.071  0.1247 -0.3092 -0.4069
 6657TIP3    H119935   1.837   4.752   4.037 -0.9743 -1.3549  1.2066
 6657TIP3    H219936   1.864   4.850   4.149  0.2758  0.4810 -0.6338
 6658TIP3   OH219937   6.674   2.851   3.361 -0.0239 -0.2355 -0.0725
 6658TIP3    H119938   6.651   2.916   3.295  0.8920 -1.1992 -1.3858
 6658TIP3    H219939   6.667   2.898   3.444 -0.1509  1.3161 -0.9209
 6659TIP3   OH219940   2.844   5.253   4.987 -0.0448 -0.4576  0.3653
 6659TIP3    H119941   2.926   5.243   5.035  0.2269  2.0897  0.6150
 6659TIP3    H219942   2.777   5.213   5.043  0.7101 -0.4053  1.3273
 6660TIP3   OH219943   7.083   0.190   1.678 -0.0022 -0.4837  0.1260
 6660TIP3    H119944   7.011   0.132   1.653 -0.1175 -0.1051 -0.4289
 6660TIP3    H219945   7.056   0.228   1.762 -0.1876 -0.7775  0.2010
 6661TIP3   OH219946   3.185   3.292   0.695 -0.1227  0.4258 -0.4474
 6661TIP3    H119947   3.188   3.198   0.676 -2.1506  0.1092  0.5195
 6661TIP3    H219948   3.212   3.298   0.787 -2.1574  0.4620  0.2039
 6662TIP3   OH219949   3.650   5.488   1.700  0.3914  0.4994 -0.5289
 6662TIP3    H119950   3.700   5.569   1.701  1.4084 -0.1096 -0.7046
 6662TIP3    H219951   3.691   5.434   1.768  0.5663 -0.3520 -1.2875
 6663TIP3   OH219952   0.526   2.524   3.757 -0.1309 -0.1655  0.5583
 6663TIP3    H119953   0.503   2.614   3.779 -1.4189 -0.4207  0.3119
 6663TIP3    H219954   0.611   2.511   3.799 -0.4470  0.7991  1.5633
 6664TIP3   OH219955   1.160   2.353   3.594  0.0489 -0.1393 -0.3733
 6664TIP3    H119956   1.178   2.390   3.508 -0.4669 -0.8362 -0.7897
 6664TIP3    H219957   1.109   2.274   3.576  0.3933 -0.5804  0.5444
 6665TIP3   OH219958   0.333   1.157   0.191 -0.0648  0.4261  0.9631
 6665TIP3    H119959   0.294   1.121   0.111  0.7448 -1.2502  1.2909
 6665TIP3    H219960   0.291   1.109   0.262  1.8652 -0.7636  1.3640
 6666TIP3   OH219961   6.039   2.463   4.548  0.2464 -0.2821 -0.0919
 6666TIP3    H119962   6.128   2.433   4.533 -0.2113 -0.5776 -2.7575
 6666TIP3    H219963   6.038   2.553   4.516 -0.4104 -0.3036 -0.1582
 6667TIP3   OH219964   5.946   1.029   0.946 -0.5819  0.1609  0.2267
 6667TIP3    H119965   5.919   1.116   0.977  0.3449  0.8955 -0.9333
 6667TIP3    H219966   6.041   1.027   0.962 -0.7284 -0.9896  1.0296
 6668TIP3   OH219967   3.003   0.614   0.254  0.2329 -0.0343 -0.5736
 6668TIP3    H119968   3.024   0.706   0.235  0.9105 -0.1772 -0.5347
 6668TIP3    H219969   3.077   0.582   0.305 -0.0130 -0.5981 -0.5610
 6669TIP3   OH219970   1.011   2.030   4.133 -0.5451 -0.5613  0.0415
 6669TIP3    H119971   1.045   2.034   4.222  1.0536  0.7775 -0.5701
 6669TIP3    H219972   0.982   1.940   4.122 -1.7847 -0.4896  2.2394
 6670TIP3   OH219973   2.739   2.521   0.620 -0.0741  0.4144  0.1377
 6670TIP3    H119974   2.770   2.592   0.676 -2.1243  2.5168 -1.1899
 6670TIP3    H219975   2.668   2.480   0.670  0.4785 -0.1117  0.5092
 6671TIP3   OH219976   5.830   5.768   4.378  0.1401 -0.2181 -0.5000
 6671TIP3    H119977   5.782   5.851   4.368  1.0892  0.6249  1.5060
 6671TIP3    H219978   5.847   5.761   4.472  2.2270 -1.4530 -0.9097
 6672TIP3   OH219979   5.798   1.699   2.979 -0.1097 -0.1249  0.2255
 6672TIP3    H119980   5.726   1.637   2.975  0.2639 -0.5710  0.2814
 6672TIP3    H219981   5.850   1.671   3.055  1.3854 -1.2339 -1.1248
 6673TIP3   OH219982   2.373   6.685   2.839 -0.1462  0.1269 -0.4020
 6673TIP3    H119983   2.409   6.773   2.845 -1.0852  0.5807 -1.1262
 6673TIP3    H219984   2.439   6.636   2.789 -0.0595  0.6829 -0.8511
 6674TIP3   OH219985   3.841   4.441   5.063  0.2773  0.3021 -0.3580
 6674TIP3    H119986   3.853   4.534   5.080 -0.6191  0.2401  0.7057
 6674TIP3    H219987   3.887   4.398   5.135 -0.1571 -0.0597 -0.2972
 6675TIP3   OH219988   3.256   1.499   4.063 -0.0049 -0.0683 -0.6061
 6675TIP3    H119989   3.347   1.468   4.064  0.3739  1.0013  0.0649
 6675TIP3    H219990   3.203   1.419   4.067  0.9155 -0.6747 -0.0481
 6676TIP3   OH219991   2.558   5.200   5.072  0.3918  0.1791  0.1462
 6676TIP3    H119992   2.490   5.264   5.051 -0.6156 -0.5877  0.9396
 6676TIP3    H219993   2.600   5.235   5.151  0.7845  0.5478 -0.2224
 6677TIP3   OH219994   4.443   0.785   0.992  0.7903  0.1052  0.4868
 6677TIP3    H119995   4.537   0.784   1.014  1.1023  0.6397 -0.7249
 6677TIP3    H219996   4.408   0.857   1.044  1.1517  0.2312  0.5638
 6678TIP3   OH219997   6.590   4.898   3.731  0.1301 -0.4197 -0.4574
 6678TIP3    H119998   6.618   4.900   3.823  0.0670 -1.3155 -0.4089
 6678TIP3    H219999   6.534   4.974   3.721 -2.2822 -1.8536  1.0582
 6679TIP3   OH220000   1.115   2.352   4.012 -0.1556  0.0998  0.4880
 6679TIP3    H120001   1.020   2.338   4.010 -0.0394 -0.8293  0.9627
 6679TIP3    H220002   1.143   2.311   4.094  0.9986 -1.8745 -0.8095
 6680TIP3   OH220003   5.763   2.613   3.244  0.7257 -0.0153 -0.3475
 6680TIP3    H120004   5.721   2.528   3.232  0.9806 -0.0511 -1.0756
 6680TIP3    H220005   5.720   2.651   3.320  1.3264 -1.2278  0.6231
 6681TIP3   OH220006   1.245   3.843   1.062  0.2749 -0.7176  0.5836
 6681TIP3    H120007   1.324   3.805   1.101 -1.1220 -0.7798  3.5898
 6681TIP3    H220008   1.212   3.776   1.003  2.5438 -0.5804 -0.9754
 6682TIP3   OH220009   3.455   0.544   1.335  0.3406  0.7648  0.2972
 6682TIP3    H120010   3.527   0.601   1.307 -1.9803  4.2482  0.7419
 6682TIP3    H220011   3.408   0.523   1.255 -0.5459  2.1834  0.4134
 6683TIP3   OH220012   5.566   3.383   0.745 -0.0203 -0.1261 -0.2062
 6683TIP3    H120013   5.567   3.413   0.654 -0.8051 -1.0174 -0.5160
 6683TIP3    H220014   5.645   3.330   0.753 -0.1666 -0.3840 -0.4801
 6684TIP3   OH220015   0.741   5.617   2.798 -0.0599 -0.2232  0.0350
 6684TIP3    H120016   0.759   5.564   2.720  0.3396 -0.4687  0.2936
 6684TIP3    H220017   0.827   5.641   2.832 -0.1717  2.7318 -1.4828
 6685TIP3   OH220018   4.135   1.009   4.110 -0.2842 -0.2953 -0.4249
 6685TIP3    H120019   4.140   1.089   4.059 -0.6018 -1.0713 -1.7135
 6685TIP3    H220020   4.117   0.940   4.046 -0.3139 -1.3605  0.6825
 6686TIP3   OH220021   3.531   6.068   4.384 -0.2501 -0.1121  0.1884
 6686TIP3    H120022   3.452   6.115   4.411  0.5385  1.6590 -0.4050
 6686TIP3    H220023   3.560   6.115   4.305  1.2703 -0.8602  0.2728
 6687TIP3   OH220024   6.789   0.609   2.400  0.1652  0.5200 -0.1131
 6687TIP3    H120025   6.698   0.603   2.369 -0.6649 -0.2159  2.2301
 6687TIP3    H220026   6.840   0.560   2.335 -1.4035 -0.6372 -0.5312
 6688TIP3   OH220027   6.285   2.606   5.863  0.5075 -0.2571  0.0301
 6688TIP3    H120028   6.208   2.661   5.871  1.0308  0.3213  1.4805
 6688TIP3    H220029   6.348   2.658   5.813  0.1142 -0.5696 -0.8027
 6689TIP3   OH220030   2.000   3.626   1.314  0.2551  0.0233 -0.4553
 6689TIP3    H120031   1.949   3.627   1.232  1.6726 -1.6874 -1.4239
 6689TIP3    H220032   1.991   3.537   1.348  0.2928  0.5065  0.8724
 6690TIP3   OH220033   5.372   6.813   1.274  0.2195  0.1576  0.4229
 6690TIP3    H120034   5.386   6.756   1.198  0.8572  0.7026  0.1217
 6690TIP3    H220035   5.405   6.761   1.348  1.3895  0.3589  0.0661
 6691TIP3   OH220036   1.698   4.520   0.925  0.2310 -0.5144 -0.4908
 6691TIP3    H120037   1.725   4.434   0.892 -0.7382 -1.2872  0.6247
 6691TIP3    H220038   1.653   4.561   0.852 -1.7856 -2.1420 -0.2708
 6692TIP3   OH220039   2.074   0.863   1.085 -0.5202  0.1378 -0.2590
 6692TIP3    H120040   2.091   0.918   1.009  1.2245  1.5395  1.0790
 6692TIP3    H220041   2.024   0.919   1.144 -0.7440 -0.5136  0.1837
 6693TIP3   OH220042   2.271   4.912   5.222 -0.7734  0.2163  0.2342
 6693TIP3    H120043   2.242   4.881   5.309  0.1298 -1.5314 -0.0495
 6693TIP3    H220044   2.348   4.965   5.240 -0.2715 -0.5839  0.4702
 6694TIP3   OH220045   3.153   4.827   0.915 -0.2321 -0.1973  0.4619
 6694TIP3    H120046   3.126   4.735   0.915  1.2345 -0.6815 -1.1530
 6694TIP3    H220047   3.097   4.868   0.848  1.7014 -0.8496 -1.7017
 6695TIP3   OH220048   0.302   2.122   3.818 -0.3245  0.2968 -0.4185
 6695TIP3    H120049   0.238   2.167   3.764  0.6836  0.3608 -1.6141
 6695TIP3    H220050   0.285   2.153   3.907 -1.6210  0.6664 -0.7726
 6696TIP3   OH220051   2.534   1.807   3.810  0.1279 -0.5512 -0.1377
 6696TIP3    H120052   2.522   1.714   3.792  0.2605 -1.0381  2.0031
 6696TIP3    H220053   2.614   1.831   3.764  1.9548 -2.3742  1.8578
 6697TIP3   OH220054   2.178   2.957   2.275 -0.1754  0.6260  0.5284
 6697TIP3    H120055   2.247   2.917   2.221 -0.7884 -0.7390  0.7258
 6697TIP3    H220056   2.216   2.963   2.363 -1.0183 -2.1980  1.1601
 6698TIP3   OH220057   3.328   1.582   3.174  0.4812  0.3811  0.2481
 6698TIP3    H120058   3.391   1.559   3.243 -0.0511 -0.0728  0.5949
 6698TIP3    H220059   3.328   1.677   3.173  0.0020  0.4197  1.3658
 6699TIP3   OH220060   5.671   2.511   4.395  0.3237  0.1665  0.1955
 6699TIP3    H120061   5.734   2.488   4.327  0.1722  0.7067 -0.1302
 6699TIP3    H220062   5.671   2.606   4.396 -2.6555  0.3036 -1.8794
 6700TIP3   OH220063   3.695   4.005   5.688  0.4436  0.1556 -0.4614
 6700TIP3    H120064   3.615   3.961   5.659  0.1949  1.9593 -2.8187
 6700TIP3    H220065   3.682   4.018   5.782 -0.9172 -1.7341 -0.3282
 6701TIP3   OH220066   2.486   3.225   1.132  0.0569 -0.0093 -0.1835
 6701TIP3    H120067   2.434   3.270   1.199  0.2813  0.3287 -0.2323
 6701TIP3    H220068   2.521   3.148   1.177  0.2407  0.2390  0.1035
 6702TIP3   OH220069   5.937   1.882   2.160  0.5352  0.7361 -0.1006
 6702TIP3    H120070   5.971   1.967   2.131 -0.4468  0.5165 -2.0772
 6702TIP3    H220071   5.874   1.857   2.092 -0.6558 -0.6734  1.4339
 6703TIP3   OH220072   1.454   2.037   2.621  0.2793  0.2824  0.2966
 6703TIP3    H120073   1.455   2.133   2.627 -2.4611  0.5408 -1.6709
 6703TIP3    H220074   1.440   2.008   2.711  3.5731  1.4984  1.3488
 6704TIP3   OH220075   6.302   4.473   0.959  0.1431  0.0624  0.0661
 6704TIP3    H120076   6.381   4.421   0.945  0.6159  0.1273  2.1539
 6704TIP3    H220077   6.330   4.563   0.941  0.1812 -0.0363 -0.4050
 6705TIP3   OH220078   2.608   6.641   2.060  0.4455 -0.2751 -0.0166
 6705TIP3    H120079   2.618   6.601   1.973 -0.8670 -0.0609 -0.2785
 6705TIP3    H220080   2.621   6.569   2.121 -0.2727 -0.7731 -0.4393
 6706TIP3   OH220081   5.936   3.548   2.195 -0.1298 -0.2841  0.6596
 6706TIP3    H120082   6.021   3.580   2.165 -0.1128 -1.1390 -0.2824
 6706TIP3    H220083   5.952   3.519   2.285  0.6171 -0.5633  0.4490
 6707TIP3   OH220084   2.253   5.118   1.885 -0.0026 -0.3087  0.4774
 6707TIP3    H120085   2.266   5.188   1.950  1.4179  1.3217 -1.4382
 6707TIP3    H220086   2.341   5.102   1.851 -0.6167 -1.6606 -0.5216
 6708TIP3   OH220087   7.225   0.768   1.799 -0.2030 -0.2902  1.0787
 6708TIP3    H120088   7.129   0.772   1.801 -0.3038 -1.9117  2.0359
 6708TIP3    H220089   7.246   0.700   1.863  1.4914 -1.3417 -0.5108
 6709TIP3   OH220090   1.122   6.035   1.116 -0.0478 -0.2793 -0.4419
 6709TIP3    H120091   1.043   6.089   1.119  1.2041  1.6025  0.4333
 6709TIP3    H220092   1.104   5.964   1.178 -0.9190  0.2949 -0.0151
 6710TIP3   OH220093   3.708   6.397   3.880 -0.9655  0.6557  0.6408
 6710TIP3    H120094   3.786   6.342   3.885  0.6642  2.7301 -0.6451
 6710TIP3    H220095   3.672   6.381   3.793 -0.9685  0.9887  0.5789
 6711TIP3   OH220096   6.173   1.486   4.478  0.4539  0.2465  0.0675
 6711TIP3    H120097   6.126   1.566   4.454  0.6890  0.1406 -0.7772
 6711TIP3    H220098   6.256   1.518   4.515  0.8241  0.4021 -0.8604
 6712TIP3   OH220099   4.414   2.936   1.965 -0.2678  0.0571 -0.1338
 6712TIP3    H120100   4.411   3.018   2.016  2.1056 -0.1322  0.4270
 6712TIP3    H220101   4.486   2.887   2.004 -1.9874 -2.6097 -0.0755
 6713TIP3   OH220102   4.143   5.190   3.769 -0.0811  0.1663  0.1260
 6713TIP3    H120103   4.149   5.136   3.690 -0.9921  1.1350 -0.6361
 6713TIP3    H220104   4.085   5.261   3.744  0.0810  0.8025  1.5117
 6714TIP3   OH220105   3.012   4.259   3.980 -1.0626 -0.0103 -0.1029
 6714TIP3    H120106   3.012   4.200   3.905 -0.3028  0.5768 -0.5786
 6714TIP3    H220107   2.936   4.232   4.032 -1.7115 -0.2901 -1.1786
 6715TIP3   OH220108   3.630   3.080   4.999  0.0031  0.1522 -0.0307
 6715TIP3    H120109   3.564   3.145   4.976 -1.4113 -1.0968  0.3799
 6715TIP3    H220110   3.701   3.131   5.038 -1.5709  1.3628  1.4075
 6716TIP3   OH220111   5.178   3.614   4.724 -0.3198  0.3978  0.3629
 6716TIP3    H120112   5.131   3.557   4.784 -2.5186  1.8973  0.1842
 6716TIP3    H220113   5.260   3.568   4.706 -1.3437 -1.9695  1.3475
 6717TIP3   OH220114   3.550   5.952   5.810  0.0413 -0.0925  0.1765
 6717TIP3    H120115   3.570   5.862   5.835  1.0177 -0.0620 -0.4563
 6717TIP3    H220116   3.624   6.003   5.842 -0.4150  0.4658  0.3590
 6718TIP3   OH220117   4.041   6.357   5.548 -0.2145  0.7588  0.0531
 6718TIP3    H120118   3.968   6.418   5.543 -0.7030  0.1094 -1.3733
 6718TIP3    H220119   4.068   6.344   5.457 -0.8907 -2.0054  0.1612
 6719TIP3   OH220120   5.833   6.449   0.142 -0.4689 -0.2220  0.2047
 6719TIP3    H120121   5.875   6.370   0.176 -1.5901 -0.3969  1.2591
 6719TIP3    H220122   5.810   6.426   0.051  0.6505 -0.5144 -0.0121
 6720TIP3   OH220123   1.667   5.445   4.519  0.3827 -0.0232  0.4579
 6720TIP3    H120124   1.609   5.470   4.447  1.6468  2.1756  0.1306
 6720TIP3    H220125   1.679   5.351   4.508 -0.5184  0.0264 -1.4063
 6721TIP3   OH220126   1.759   3.186   2.751 -0.0368 -0.0344 -0.2106
 6721TIP3    H120127   1.816   3.122   2.794 -0.9289 -0.5516  0.2262
 6721TIP3    H220128   1.747   3.151   2.662 -0.3231 -0.3560 -0.0491
 6722TIP3   OH220129   2.516   3.558   1.094 -0.3051  0.1366 -0.3482
 6722TIP3    H120130   2.510   3.650   1.119  1.1209  0.1912 -0.0815
 6722TIP3    H220131   2.522   3.510   1.176  3.6255  0.2559 -0.3494
 6723TIP3   OH220132   0.766   5.727   3.810  0.0574 -0.2716 -0.0924
 6723TIP3    H120133   0.853   5.746   3.844 -0.6228  0.8485  1.1331
 6723TIP3    H220134   0.722   5.681   3.881 -0.9080  0.7652  0.0172
 6724TIP3   OH220135   0.438   3.315   4.587 -0.0606 -0.0406  0.1531
 6724TIP3    H120136   0.513   3.346   4.536 -0.0085 -1.7014 -0.8432
 6724TIP3    H220137   0.472   3.307   4.676  1.2692 -1.6874 -0.4533
 6725TIP3   OH220138   3.819   3.165   0.046 -0.2196  0.5106 -0.0992
 6725TIP3    H120139   3.796   3.092  -0.012  0.9884 -1.0336  1.2772
 6725TIP3    H220140   3.744   3.224   0.040 -1.2522 -0.8285 -1.2613
 6726TIP3   OH220141   1.919   2.984   5.911  0.8661 -0.7942 -0.2300
 6726TIP3    H120142   1.971   3.009   5.835 -0.6576 -0.0224 -1.0552
 6726TIP3    H220143   1.830   2.976   5.878  0.6433 -3.5879  0.8394
 6727TIP3   OH220144   6.912   5.953   2.849  0.4755  0.0329  0.3670
 6727TIP3    H120145   6.954   5.956   2.935 -0.7617 -0.1800  1.0022
 6727TIP3    H220146   6.908   5.860   2.828 -0.2381  0.0017  0.6113
 6728TIP3   OH220147   2.431   1.951   1.876 -0.4627 -0.6023  0.1989
 6728TIP3    H120148   2.442   1.941   1.971 -0.3422 -0.7950  0.1659
 6728TIP3    H220149   2.397   2.040   1.865  0.4767 -0.2118  0.3515
 6729TIP3   OH220150   1.629   1.448   3.159  0.2195 -0.5844  0.7062
 6729TIP3    H120151   1.682   1.417   3.233  0.2034 -1.3057  0.4190
 6729TIP3    H220152   1.682   1.427   3.082  0.4120  0.5154  0.5185
 6730TIP3   OH220153   3.714   2.146   2.494 -0.4832  0.4435  0.5857
 6730TIP3    H120154   3.786   2.208   2.482 -0.5274  0.3682 -0.0983
 6730TIP3    H220155   3.756   2.060   2.493 -0.3548  0.4576  2.0450
 6731TIP3   OH220156   0.562   4.366   1.625 -0.0825 -0.6609  0.4476
 6731TIP3    H120157   0.491   4.403   1.572  0.9596  0.4056 -0.2407
 6731TIP3    H220158   0.610   4.310   1.565  1.2891  0.7922  0.1171
 6732TIP3   OH220159   2.261   0.941   1.648  0.1890 -1.0292 -0.1024
 6732TIP3    H120160   2.305   0.859   1.670  1.5751 -0.2838  0.0317
 6732TIP3    H220161   2.315   1.008   1.689 -0.0612  0.0539 -1.4751
 6733TIP3   OH220162   4.707   6.594   0.202 -0.2799 -0.4734  0.5300
 6733TIP3    H120163   4.772   6.530   0.171 -0.1057  0.0157 -0.1220
 6733TIP3    H220164   4.645   6.542   0.253 -1.0305 -1.4447 -1.3009
 6734TIP3   OH220165   4.580   6.494   2.090 -0.1683 -0.4621  0.1252
 6734TIP3    H120166   4.575   6.489   2.186 -0.6529 -0.1111  0.1257
 6734TIP3    H220167   4.509   6.437   2.060 -1.0907  0.6969  0.0161
 6735TIP3   OH220168   3.511   3.096   3.125 -0.7814 -0.3837  0.0301
 6735TIP3    H120169   3.428   3.134   3.152 -1.0293 -0.2066 -0.9209
 6735TIP3    H220170   3.504   3.003   3.146 -1.4500 -0.4743 -0.5462
 6736TIP3   OH220171   2.187   2.272   3.436 -0.0861 -0.2991  0.0900
 6736TIP3    H120172   2.192   2.180   3.462  0.7544 -0.4479 -0.5588
 6736TIP3    H220173   2.275   2.293   3.405 -0.1023  0.9031  0.7875
 6737TIP3   OH220174   1.399   1.145   1.444  0.1185 -0.0493  0.1987
 6737TIP3    H120175   1.472   1.124   1.502  0.2463 -0.9113 -0.2623
 6737TIP3    H220176   1.349   1.063   1.438 -0.4825  0.3280 -0.0755
 6738TIP3   OH220177   4.346   5.137   1.674 -0.2677 -0.2236  0.2717
 6738TIP3    H120178   4.426   5.162   1.626  1.2482 -0.7165  2.3890
 6738TIP3    H220179   4.288   5.212   1.664  0.4160  0.1462 -1.3483
 6739TIP3   OH220180   5.141   5.729   0.574  0.2015  0.0121  0.4341
 6739TIP3    H120181   5.184   5.751   0.657 -0.5879 -0.5143  0.9934
 6739TIP3    H220182   5.184   5.786   0.510  1.4331 -0.1954  1.0391
 6740TIP3   OH220183   5.776   5.338   2.279 -0.3626 -0.5116  0.1712
 6740TIP3    H120184   5.787   5.421   2.325  0.6740 -1.6328  2.0967
 6740TIP3    H220185   5.772   5.362   2.187 -0.8116  1.7218  0.7162
 6741TIP3   OH220186   4.149   5.412   5.842  0.1789  0.2360  0.5054
 6741TIP3    H120187   4.171   5.504   5.836 -0.5810  0.4279  0.5584
 6741TIP3    H220188   4.201   5.370   5.773 -1.0513  1.0062 -0.9511
 6742TIP3   OH220189   2.355   5.337   2.069  0.0953  0.2486  0.2618
 6742TIP3    H120190   2.338   5.316   2.160  0.1197 -1.5031 -0.1033
 6742TIP3    H220191   2.450   5.339   2.062  0.0960  0.7529  0.3304
 6743TIP3   OH220192   2.214   2.577   0.230 -0.0443  0.4444  0.2442
 6743TIP3    H120193   2.167   2.500   0.199 -1.5830  0.8960  1.3140
 6743TIP3    H220194   2.301   2.570   0.191 -0.5047 -1.2413 -0.5624
 6744TIP3   OH220195   3.397   4.950   0.787 -0.2888  0.0980  0.3955
 6744TIP3    H120196   3.407   5.042   0.811 -3.1100  0.1441  1.7139
 6744TIP3    H220197   3.315   4.923   0.827  1.2950 -3.5471  1.6248
 6745TIP3   OH220198   2.648   3.566   5.755 -0.5305 -0.0412 -0.3710
 6745TIP3    H120199   2.629   3.616   5.675  2.5232  2.3573  0.1874
 6745TIP3    H220200   2.652   3.633   5.824 -0.4897 -1.6883  1.2896
 6746TIP3   OH220201   6.831   4.608   3.859  0.3132  0.2942  0.1415
 6746TIP3    H120202   6.835   4.605   3.954  1.7486  0.2790  0.0952
 6746TIP3    H220203   6.769   4.539   3.835  1.2225 -0.8559  0.9878
 6747TIP3   OH220204   0.509   0.851   3.083  0.0710 -0.3603 -0.1288
 6747TIP3    H120205   0.474   0.913   3.147 -1.7092 -0.4265 -0.9721
 6747TIP3    H220206   0.493   0.893   2.998  0.3705 -1.2413 -0.6327
 6748TIP3   OH220207   6.902   1.902   5.873 -0.3030  0.7477  0.3071
 6748TIP3    H120208   6.938   1.822   5.833  2.5278  1.6743  0.8376
 6748TIP3    H220209   6.808   1.894   5.858  0.2185 -0.5572 -3.6253
 6749TIP3   OH220210   1.812   4.214   3.856  0.0041 -0.3683 -0.3021
 6749TIP3    H120211   1.790   4.259   3.774  0.4623  0.3783 -0.0309
 6749TIP3    H220212   1.907   4.207   3.855 -0.0896 -1.7234 -0.5235
 6750TIP3   OH220213   3.444   4.607   3.460  0.0997  0.3855 -0.0432
 6750TIP3    H120214   3.391   4.574   3.532 -0.6212  2.5928  0.5334
 6750TIP3    H220215   3.527   4.559   3.467 -0.5517 -0.6187  1.2306
 6751TIP3   OH220216   3.721   5.137   0.060 -0.4472 -0.4857  0.0606
 6751TIP3    H120217   3.772   5.056   0.065 -0.1946 -0.3833 -0.7441
 6751TIP3    H220218   3.630   5.109   0.073 -0.4993 -1.0769 -1.3592
 6752TIP3   OH220219   5.709   2.503   1.485 -0.0293 -0.3190  0.1036
 6752TIP3    H120220   5.751   2.562   1.422  2.0176  0.3633  1.9891
 6752TIP3    H220221   5.617   2.501   1.457 -0.2885  3.8698 -0.0904
 6753TIP3   OH220222   1.920   3.163   3.853  0.2494 -0.0878  0.3517
 6753TIP3    H120223   2.012   3.190   3.863  0.2739 -0.3632  0.9211
 6753TIP3    H220224   1.920   3.070   3.875  0.3323 -0.8527 -2.5561
 6754TIP3   OH220225   5.524   6.118   2.760 -0.1800  0.0357  0.4082
 6754TIP3    H120226   5.547   6.197   2.711  0.9149 -0.7112 -0.3335
 6754TIP3    H220227   5.460   6.147   2.825 -0.6069  1.3122 -0.5606
 6755TIP3   OH220228   2.931   6.085   3.529  0.1642  0.0188 -0.0851
 6755TIP3    H120229   2.997   6.124   3.586  1.1107  0.5312 -1.4817
 6755TIP3    H220230   2.980   6.058   3.451 -1.2261  0.1088 -1.0133
 6756TIP3   OH220231   2.554   2.499   1.405 -0.1080  0.5172  0.6915
 6756TIP3    H120232   2.600   2.578   1.374 -0.9570  1.3930  1.5712
 6756TIP3    H220233   2.569   2.499   1.500 -1.2544  0.4041  0.8887
 6757TIP3   OH220234   2.281   6.210   5.216 -1.2080  0.2624  0.1074
 6757TIP3    H120235   2.324   6.136   5.172 -0.2900  0.7132  0.2301
 6757TIP3    H220236   2.215   6.239   5.153  0.0047  0.8163 -0.9677
 6758TIP3   OH220237   6.033   2.104   5.683  0.4117 -0.0698  0.4463
 6758TIP3    H120238   6.045   2.067   5.595 -0.8845 -0.8432  0.5691
 6758TIP3    H220239   5.957   2.162   5.675  1.3273  1.2129  0.6842
 6759TIP3   OH220240   5.701   0.318   5.239  0.1913 -0.0676 -0.3581
 6759TIP3    H120241   5.742   0.405   5.238  1.3065 -0.5588  1.0317
 6759TIP3    H220242   5.631   0.326   5.304  0.5263 -0.3130  0.0312
 6760TIP3   OH220243   2.353   5.631   2.305 -0.7357 -0.1982  0.2835
 6760TIP3    H120244   2.398   5.646   2.222 -1.4657 -1.1115 -0.3039
 6760TIP3    H220245   2.385   5.701   2.363 -1.7745  1.7829 -1.3833
 6761TIP3   OH220246   6.270   0.483   5.192  0.2340  0.1580  0.1933
 6761TIP3    H120247   6.282   0.557   5.132  0.0538 -0.8878 -1.2024
 6761TIP3    H220248   6.286   0.406   5.137  1.4893 -0.8263  1.8566
 6762TIP3   OH220249   0.881   1.493   3.721 -0.0727 -0.3822  0.2075
 6762TIP3    H120250   0.867   1.432   3.649 -0.3409  1.1219 -1.0618
 6762TIP3    H220251   0.796   1.535   3.733  0.0105 -0.4914  1.3276
 6763TIP3   OH220252   6.845   3.815   0.815  0.0701 -0.2621  0.2462
 6763TIP3    H120253   6.907   3.753   0.854  2.0045  1.1029 -0.4707
 6763TIP3    H220254   6.859   3.896   0.864  1.6868  1.1526 -2.3015
 6764TIP3   OH220255   1.317   3.201   1.735  0.6885  0.4004  0.2817
 6764TIP3    H120256   1.279   3.116   1.713  1.8417 -0.4646  1.4192
 6764TIP3    H220257   1.242   3.259   1.745 -0.0349  0.2009 -2.9199
 6765TIP3   OH220258   1.732   5.226   0.904  0.2535 -0.3716 -0.2158
 6765TIP3    H120259   1.715   5.305   0.955  1.4011 -0.9452  1.1433
 6765TIP3    H220260   1.691   5.242   0.820  0.8051  1.8557 -0.1264
 6766TIP3   OH220261   0.377   4.258   5.054  0.0265 -0.6459  0.5092
 6766TIP3    H120262   0.352   4.317   5.125 -0.1521 -0.0574 -0.0280
 6766TIP3    H220263   0.306   4.267   4.990  1.3462  0.7362 -0.8686
 6767TIP3   OH220264   4.606   2.788   1.320 -0.1492 -0.0946  0.7389
 6767TIP3    H120265   4.578   2.757   1.234 -0.7099  0.4390  0.7185
 6767TIP3    H220266   4.695   2.818   1.307 -0.8628  1.8194 -0.1609
 6768TIP3   OH220267   5.017   3.454   3.243 -0.1049 -0.0655 -0.0550
 6768TIP3    H120268   4.999   3.363   3.266 -0.5750  0.1701  0.5544
 6768TIP3    H220269   4.931   3.492   3.227  0.1532  0.0031 -1.4357
 6769TIP3   OH220270   0.039   5.538   5.268 -0.6094 -0.1070  0.4801
 6769TIP3    H120271   0.010   5.619   5.224  0.0958 -1.1188 -2.0475
 6769TIP3    H220272   0.120   5.515   5.223 -0.7692 -2.1943  1.1846
 6770TIP3   OH220273   0.999   6.725   3.127 -0.3022 -0.0558  0.5253
 6770TIP3    H120274   0.921   6.703   3.177 -0.0500 -1.3332  0.4092
 6770TIP3    H220275   0.997   6.664   3.053  1.3748 -0.9047  1.1277
 6771TIP3   OH220276   1.020   2.760   0.161  0.1894 -0.5010 -0.0816
 6771TIP3    H120277   1.055   2.834   0.210  0.7859 -0.8082 -0.0307
 6771TIP3    H220278   1.091   2.737   0.100 -0.9861  0.6647 -1.9836
 6772TIP3   OH220279   1.519   3.397   2.430  0.0279 -0.4483 -0.4838
 6772TIP3    H120280   1.456   3.325   2.423  0.6468 -1.0103 -0.4863
 6772TIP3    H220281   1.557   3.404   2.342  1.2534 -1.3465 -0.0574
 6773TIP3   OH220282   6.276   3.980   2.693  0.6275  0.6803 -0.3264
 6773TIP3    H120283   6.266   4.036   2.770 -0.4962  0.4166 -0.2607
 6773TIP3    H220284   6.305   3.896   2.728 -2.3065 -0.2621  0.1948
 6774TIP3   OH220285   1.452   6.310   5.826  0.3523  0.5976 -0.3983
 6774TIP3    H120286   1.449   6.383   5.764 -0.8582  0.8172 -0.1106
 6774TIP3    H220287   1.463   6.352   5.912 -2.2028  0.6459 -0.0031
 6775TIP3   OH220288   4.376   5.597   4.955 -0.6206  0.1906 -0.4430
 6775TIP3    H120289   4.336   5.682   4.972 -0.7504  0.2720 -1.1480
 6775TIP3    H220290   4.468   5.616   4.939 -1.0440  0.5119 -2.9500
 6776TIP3   OH220291   0.405   5.367   2.878 -0.4719  0.1331 -0.1029
 6776TIP3    H120292   0.492   5.379   2.916 -1.0856  1.1407  1.0159
 6776TIP3    H220293   0.367   5.294   2.928  0.2102 -1.2798 -1.5274
 6777TIP3   OH220294   2.648   4.165   0.858 -0.3469  0.3823 -0.3444
 6777TIP3    H120295   2.652   4.115   0.939 -2.6899  0.7254  0.0687
 6777TIP3    H220296   2.646   4.099   0.788 -1.6308 -0.0735  0.0945
 6778TIP3   OH220297   1.702   4.374   3.148 -0.0400  0.2122  0.8202
 6778TIP3    H120298   1.732   4.378   3.239  2.5273 -0.4138  0.0824
 6778TIP3    H220299   1.663   4.287   3.139 -1.4814  0.7349  1.5897
 6779TIP3   OH220300   0.412   3.955   4.219  0.3712 -0.3852  0.5838
 6779TIP3    H120301   0.382   3.966   4.310  2.8452  1.3018  1.2791
 6779TIP3    H220302   0.503   3.926   4.227  0.3363 -1.2330 -1.4090
 6780TIP3   OH220303   3.367   4.921   2.860 -0.6278  0.0935  0.2497
 6780TIP3    H120304   3.341   5.009   2.887  0.6233  1.1120 -1.6087
 6780TIP3    H220305   3.428   4.892   2.927  0.4653  1.4950 -0.1021
 6781TIP3   OH220306   2.869   3.591   0.385  0.7238  0.0569 -0.2532
 6781TIP3    H120307   2.931   3.519   0.396  2.3980  1.5686  0.8555
 6781TIP3    H220308   2.919   3.658   0.339  0.0025  1.3988  0.8406
 6782TIP3   OH220309   0.799   1.055   4.113 -0.1884  0.2746  0.0824
 6782TIP3    H120310   0.721   1.102   4.083 -0.3446 -0.1346 -0.1554
 6782TIP3    H220311   0.863   1.066   4.042 -0.5211 -0.6008 -0.3662
 6783TIP3   OH220312   0.292   4.713   0.407  0.0497 -0.1775  0.3991
 6783TIP3    H120313   0.246   4.776   0.350  0.2683  0.9662  1.4481
 6783TIP3    H220314   0.228   4.691   0.474  0.4754  0.0836  0.8896
 6784TIP3   OH220315   2.617   0.506   2.786  0.4667  0.6304  0.0085
 6784TIP3    H120316   2.652   0.583   2.741 -1.8141  1.3764 -0.6415
 6784TIP3    H220317   2.591   0.447   2.716 -2.3875  1.4655  0.2259
 6785TIP3   OH220318   4.008   1.639   4.197  0.0879 -0.0058 -0.1802
 6785TIP3    H120319   3.999   1.732   4.178 -0.3351  0.0131  0.0966
 6785TIP3    H220320   4.029   1.599   4.113  1.3053  0.4637 -0.1300
 6786TIP3   OH220321   4.013   2.210   2.084  0.2715 -0.7831 -0.2902
 6786TIP3    H120322   3.940   2.225   2.023 -0.1820 -0.9843  0.1881
 6786TIP3    H220323   4.013   2.286   2.141  1.8066  0.2551 -1.6013
 6787TIP3   OH220324   5.167   0.546   5.011 -0.3890  0.5659  0.4696
 6787TIP3    H120325   5.108   0.484   5.054 -0.5355  0.3344 -0.0644
 6787TIP3    H220326   5.252   0.530   5.052 -0.3035 -0.3708 -0.0421
 6788TIP3   OH220327   4.679   1.757   4.979  0.0502  0.1043  0.3787
 6788TIP3    H120328   4.621   1.770   4.903 -0.5543 -0.4862  0.7241
 6788TIP3    H220329   4.727   1.839   4.987 -0.0332  0.2531 -0.5148
 6789TIP3   OH220330   0.959   6.341   5.340 -0.3659 -0.1117  0.3057
 6789TIP3    H120331   1.052   6.351   5.361 -0.5311  2.1971  0.2281
 6789TIP3    H220332   0.913   6.390   5.409 -1.5571 -1.2974  0.4039
 6790TIP3   OH220333   2.021   1.457   1.690 -0.0909  0.4696 -0.2868
 6790TIP3    H120334   2.075   1.535   1.697 -0.1535  0.5134 -0.2923
 6790TIP3    H220335   1.953   1.480   1.626  1.4461 -0.4643 -2.4033
 6791TIP3   OH220336   7.111   2.030   1.539  0.2736 -0.2961  0.6743
 6791TIP3    H120337   7.177   1.981   1.490  1.1623 -0.4381  1.9767
 6791TIP3    H220338   7.153   2.115   1.555  0.0088 -0.2651  1.2097
 6792TIP3   OH220339   1.648   1.270   0.700 -0.3121  0.4613 -0.1263
 6792TIP3    H120340   1.647   1.306   0.611  0.5305  0.2302 -0.2438
 6792TIP3    H220341   1.731   1.301   0.737  0.1857 -0.9086 -0.0444
 6793TIP3   OH220342   1.001   5.012   1.954 -0.2933 -0.5287 -0.6122
 6793TIP3    H120343   1.062   5.078   1.919 -0.1156 -0.2918  0.1316
 6793TIP3    H220344   1.052   4.966   2.021 -1.5297  1.0217  1.4832
 6794TIP3   OH220345   1.922   4.426   4.962  0.4361  0.0987 -0.2135
 6794TIP3    H120346   2.000   4.393   4.918  0.2526 -0.5028 -0.0977
 6794TIP3    H220347   1.944   4.516   4.987  1.8020 -0.6676  1.5055
 6795TIP3   OH220348   6.897   0.303   1.017  0.4183 -0.4645 -0.2830
 6795TIP3    H120349   6.809   0.334   1.037 -0.2448 -1.5921 -1.3152
 6795TIP3    H220350   6.953   0.379   1.033 -0.4738 -0.2272  2.1489
 6796TIP3   OH220351   2.646   5.618   3.522  0.0266 -0.3961 -0.6958
 6796TIP3    H120352   2.582   5.594   3.589 -1.0936 -1.7901 -2.1910
 6796TIP3    H220353   2.594   5.647   3.447  1.0281 -2.0978 -2.1490
 6797TIP3   OH220354   3.087   5.761   0.045 -0.0570 -0.0201 -0.5233
 6797TIP3    H120355   3.069   5.700   0.117  0.7240  1.1295  0.6876
 6797TIP3    H220356   3.082   5.848   0.085  1.5586  0.6111 -1.5831
 6798TIP3   OH220357   4.172   4.689   1.340 -0.1300 -0.6372 -0.3893
 6798TIP3    H120358   4.108   4.718   1.274  0.4068  0.1772 -0.5562
 6798TIP3    H220359   4.136   4.606   1.372 -1.2896 -0.1898 -0.4672
 6799TIP3   OH220360   6.998   3.200   0.379 -0.2046 -0.0678  0.1577
 6799TIP3    H120361   6.936   3.163   0.442  0.7758 -3.0362 -0.4496
 6799TIP3    H220362   7.074   3.224   0.431 -0.0818 -0.8672  0.3673
 6800TIP3   OH220363   0.511   1.311   0.469 -0.2553 -0.2489 -0.1057
 6800TIP3    H120364   0.567   1.353   0.404 -0.7689  0.2167 -0.2550
 6800TIP3    H220365   0.535   1.353   0.552  0.1115 -0.5536 -0.0548
 6801TIP3   OH220366   3.348   0.469   3.277  0.1345 -0.2411  0.2712
 6801TIP3    H120367   3.255   0.450   3.291  0.3504 -1.6452 -0.0784
 6801TIP3    H220368   3.383   0.392   3.233  1.6042 -0.0072  0.9330
 6802TIP3   OH220369   6.259   3.020   2.910 -0.4463  0.5854 -0.5293
 6802TIP3    H120370   6.338   2.980   2.873  0.6906  2.3105 -0.0819
 6802TIP3    H220371   6.227   2.955   2.972  1.7322  0.5510  0.6821
 6803TIP3   OH220372   5.346   0.413   1.920 -0.6804 -0.2568 -0.0864
 6803TIP3    H120373   5.341   0.348   1.850  0.5395 -0.8054  0.3186
 6803TIP3    H220374   5.423   0.465   1.899 -1.0858  0.4385  0.1259
 6804TIP3   OH220375   1.743   0.681   2.864  0.2956 -0.0287 -0.2261
 6804TIP3    H120376   1.718   0.638   2.946  0.0930  0.1154 -0.2111
 6804TIP3    H220377   1.697   0.633   2.796  1.1898 -0.7380 -0.3534
 6805TIP3   OH220378   6.589   1.593   4.856 -0.3656 -0.2323  0.5996
 6805TIP3    H120379   6.669   1.635   4.825 -0.9113  1.0525  0.8902
 6805TIP3    H220380   6.614   1.502   4.871  0.7615 -0.0917 -0.3443
 6806TIP3   OH220381   3.608   1.120   3.215 -0.5183 -0.2491 -0.4858
 6806TIP3    H120382   3.630   1.070   3.136 -1.6067 -1.9850  0.2578
 6806TIP3    H220383   3.515   1.139   3.207  0.0588  2.7451 -1.2696
 6807TIP3   OH220384   0.734   4.167   1.420 -0.1833  0.2368  0.2414
 6807TIP3    H120385   0.661   4.189   1.362 -0.6847 -1.5348  0.1339
 6807TIP3    H220386   0.807   4.150   1.361 -0.3672 -0.3773  0.1783
 6808TIP3   OH220387   1.675   1.795   1.320 -0.5965  0.6173  0.2319
 6808TIP3    H120388   1.647   1.878   1.358 -1.2321  1.0963 -1.1845
 6808TIP3    H220389   1.594   1.757   1.285 -0.1053  0.0528 -0.3147
 6809TIP3   OH220390   2.976   2.637   4.722 -0.0365  0.0387 -0.7435
 6809TIP3    H120391   2.963   2.731   4.727  1.0720  0.2106 -0.8239
 6809TIP3    H220392   2.897   2.604   4.679 -1.9329  0.5239  2.0441
 6810TIP3   OH220393   5.204   0.729   2.490  0.0098 -0.2639  0.5250
 6810TIP3    H120394   5.176   0.732   2.582  0.1400  0.5675  0.5437
 6810TIP3    H220395   5.261   0.804   2.480 -0.2127 -0.1980 -0.3101
 6811TIP3   OH220396   5.106   2.411   1.824 -0.2408  0.2519 -0.3741
 6811TIP3    H120397   5.061   2.442   1.745  2.4454  0.4650 -1.9523
 6811TIP3    H220398   5.181   2.363   1.791 -0.6434 -2.3447  2.0998
 6812TIP3   OH220399   4.965   5.348   5.548 -0.0965 -0.2664 -0.4414
 6812TIP3    H120400   4.981   5.291   5.472 -2.5139 -0.7479 -0.6707
 6812TIP3    H220401   4.946   5.434   5.510  1.8445  0.3370 -0.1689
 6813TIP3   OH220402   5.876   4.805   1.976 -0.0442 -0.0038  0.6496
 6813TIP3    H120403   5.790   4.840   1.956 -0.1754 -0.6889 -0.0617
 6813TIP3    H220404   5.935   4.880   1.969 -0.0562 -0.1553 -2.5433
 6814TIP3   OH220405   5.444   2.163   2.698  0.3045 -0.2794  0.3184
 6814TIP3    H120406   5.458   2.134   2.608  0.6366 -1.1428  0.6385
 6814TIP3    H220407   5.378   2.103   2.733 -0.0660  0.2537  0.5558
 6815TIP3   OH220408   4.308   4.925   0.277  0.5342  0.8669  0.0197
 6815TIP3    H120409   4.403   4.934   0.279  0.8384 -0.6419 -2.7716
 6815TIP3    H220410   4.278   4.994   0.217 -0.1152  1.1974  0.7103
 6816TIP3   OH220411   2.717   5.541   2.643 -0.4454 -0.3266 -0.2230
 6816TIP3    H120412   2.715   5.613   2.706 -1.7654 -1.2991  0.8902
 6816TIP3    H220413   2.744   5.464   2.694 -0.0062 -0.8352 -1.1816
 6817TIP3   OH220414   2.134   6.051   2.844 -0.1007 -0.4370 -0.1705
 6817TIP3    H120415   2.224   6.039   2.814  0.2447  0.8214  0.3072
 6817TIP3    H220416   2.085   6.074   2.765 -0.3558 -2.6276 -0.7188
 6818TIP3   OH220417   4.728   1.546   1.673  0.5344 -0.3605  0.7614
 6818TIP3    H120418   4.697   1.630   1.639  0.9176 -0.6529 -0.3316
 6818TIP3    H220419   4.778   1.569   1.752  0.1040  0.3705  0.8325
 6819TIP3   OH220420   4.600   5.237   0.738 -0.0913  0.2036  0.7076
 6819TIP3    H120421   4.585   5.165   0.799  0.0559 -2.0217 -1.6798
 6819TIP3    H220422   4.694   5.254   0.743  0.0460 -0.4921  0.5690
 6820TIP3   OH220423   3.357   1.278   3.706 -0.1230  0.7453  0.4734
 6820TIP3    H120424   3.380   1.334   3.780  0.5220 -1.5533  2.1129
 6820TIP3    H220425   3.262   1.284   3.701 -0.3128 -0.0253  2.3556
 6821TIP3   OH220426   3.667   3.681   0.248  0.0038 -0.5284 -0.1601
 6821TIP3    H120427   3.707   3.737   0.314 -0.4138 -0.5884  0.1503
 6821TIP3    H220428   3.650   3.598   0.294 -0.8823 -0.3547 -0.1547
 6822TIP3   OH220429   3.693   0.195   0.168  0.4127  0.5479 -0.6183
 6822TIP3    H120430   3.657   0.180   0.256  1.5283 -1.4754 -0.4409
 6822TIP3    H220431   3.621   0.233   0.118 -0.7830  0.0772  0.6960
 6823TIP3   OH220432   1.640   0.442   1.916  0.2087 -0.0558 -0.0173
 6823TIP3    H120433   1.701   0.509   1.946 -0.6867  1.2998 -1.1153
 6823TIP3    H220434   1.553   0.478   1.935 -0.3012 -0.8126 -0.8219
 6824TIP3   OH220435   4.933   0.486   0.429 -0.0441 -0.1542  0.3608
 6824TIP3    H120436   4.971   0.434   0.359 -0.4180  0.4103 -0.2726
 6824TIP3    H220437   4.849   0.515   0.395 -0.4548 -0.2769  1.2348
 6825TIP3   OH220438   6.146   1.049   1.209 -0.2345 -0.1027 -0.2588
 6825TIP3    H120439   6.109   0.977   1.159 -0.6229 -0.4261  0.4714
 6825TIP3    H220440   6.238   1.053   1.183  0.0457 -1.5326  0.4322
 6826TIP3   OH220441   0.706   1.129   1.169  0.3875  0.1441 -0.5723
 6826TIP3    H120442   0.627   1.078   1.148 -0.9693  1.1756  1.6362
 6826TIP3    H220443   0.673   1.214   1.197  2.2329  0.4480  0.9160
 6827TIP3   OH220444   5.983   3.976   3.840 -0.0631  0.4406  0.6954
 6827TIP3    H120445   5.995   4.018   3.754 -0.8682 -1.1364 -0.2260
 6827TIP3    H220446   5.890   3.953   3.842 -0.3180  1.4556  2.4943
 6828TIP3   OH220447   4.471   5.314   4.821 -0.2411 -0.2170  0.0990
 6828TIP3    H120448   4.475   5.313   4.916 -0.6227 -0.3367  0.1178
 6828TIP3    H220449   4.378   5.299   4.801 -0.4810  1.5259 -0.2600
 6829TIP3   OH220450   1.173   3.953   3.232  0.2775  0.1176 -0.1387
 6829TIP3    H120451   1.257   3.908   3.228  0.0467 -0.3769  0.3666
 6829TIP3    H220452   1.117   3.903   3.172  0.4905  0.7908 -0.9175
 6830TIP3   OH220453   4.000   1.780   5.502  0.1543 -0.0172 -0.0300
 6830TIP3    H120454   3.944   1.747   5.431 -0.7808  2.0478 -0.3258
 6830TIP3    H220455   4.085   1.793   5.460  0.1869 -0.8009 -0.2223
 6831TIP3   OH220456   0.006   5.123   0.176  0.5059  0.8364  0.2667
 6831TIP3    H120457  -0.028   5.173   0.101  2.0165 -1.5486 -2.1817
 6831TIP3    H220458   0.099   5.111   0.157  0.7255 -0.7247  2.0589
 6832TIP3   OH220459   0.921   4.244   3.769  0.0413 -0.2042 -0.1237
 6832TIP3    H120460   0.844   4.198   3.734  0.7171  0.0913 -2.1710
 6832TIP3    H220461   0.942   4.309   3.702  0.8524  1.1299  1.3692
 6833TIP3   OH220462   3.870   2.788   2.655 -0.5597  0.6120  0.1520
 6833TIP3    H120463   3.954   2.797   2.699 -1.5050  0.1008  2.1556
 6833TIP3    H220464   3.881   2.835   2.572  1.9082 -0.0990  0.0193
 6834TIP3   OH220465   3.734   2.543   0.213 -0.1333 -0.0097 -0.7150
 6834TIP3    H120466   3.695   2.489   0.282  0.2086  0.4279 -0.1724
 6834TIP3    H220467   3.670   2.540   0.143 -1.0263  0.4584  0.0567
 6835TIP3   OH220468   5.341   6.013   4.119  0.0552  0.5770 -0.2027
 6835TIP3    H120469   5.266   6.048   4.168 -0.3064 -0.2648 -0.1330
 6835TIP3    H220470   5.377   6.089   4.073 -0.6001  1.0716  0.0766
 6836TIP3   OH220471   2.065   0.742   1.724 -0.0345  0.5335 -0.4444
 6836TIP3    H120472   2.138   0.681   1.740 -0.3263  0.4951  0.8981
 6836TIP3    H220473   1.993   0.686   1.696 -0.1693  0.3004  0.3428
 6837TIP3   OH220474   5.558   3.761   1.479 -0.7283 -0.1035  0.6332
 6837TIP3    H120475   5.602   3.708   1.545 -1.4324  0.7586  1.8433
 6837TIP3    H220476   5.623   3.774   1.410  0.0951 -0.8428  1.2554
 6838TIP3   OH220477   1.670   5.092   0.052 -0.4877 -0.2624  0.2180
 6838TIP3    H120478   1.628   5.007   0.041 -0.8445 -0.0008 -0.4613
 6838TIP3    H220479   1.610   5.155   0.010 -0.6233  0.4310  1.3890
 6839TIP3   OH220480   6.277   1.316   1.154 -0.6378 -0.5173 -0.8434
 6839TIP3    H120481   6.271   1.301   1.248  1.1716  2.0112 -0.1969
 6839TIP3    H220482   6.197   1.364   1.132 -1.5541 -2.0001 -0.8509
 6840TIP3   OH220483   3.043   3.669   3.647 -0.3905 -0.0205 -0.0173
 6840TIP3    H120484   2.976   3.631   3.704  1.3841  0.3140  2.4599
 6840TIP3    H220485   3.058   3.757   3.683  1.4439 -0.1379 -0.4083
 6841TIP3   OH220486   4.371   2.604   1.250 -0.0253  0.4103 -0.4249
 6841TIP3    H120487   4.456   2.592   1.293  0.3182 -0.9149 -1.4281
 6841TIP3    H220488   4.366   2.534   1.186 -1.6427  0.8174 -0.7908
 6842TIP3   OH220489   4.290   2.432   2.548  0.3678  0.0904 -0.1685
 6842TIP3    H120490   4.304   2.382   2.468 -0.6160  0.0755 -0.3437
 6842TIP3    H220491   4.198   2.419   2.569  0.6456 -0.0207  1.0590
 6843TIP3   OH220492   5.415   5.027   0.557  0.3412  0.6910 -0.2373
 6843TIP3    H120493   5.466   4.995   0.631 -1.3186  0.6276  0.9495
 6843TIP3    H220494   5.349   4.959   0.542  0.1210  1.0992 -1.2194
 6844TIP3   OH220495   2.608   1.014   2.589  0.2588  0.4642  0.0435
 6844TIP3    H120496   2.576   0.953   2.522 -0.1679  0.4602  0.2474
 6844TIP3    H220497   2.702   1.022   2.571  0.0272  1.0370 -1.0268
 6845TIP3   OH220498   2.081   6.813   0.912  0.2625  0.1446 -0.0249
 6845TIP3    H120499   2.061   6.737   0.967  0.0481  0.2940  0.1059
 6845TIP3    H220500   2.176   6.822   0.916  0.0939  1.7094  2.4107
 6846TIP3   OH220501   2.237   6.349   0.913  0.4310 -0.3153  0.2008
 6846TIP3    H120502   2.308   6.402   0.876  0.3118 -1.0912 -1.2515
 6846TIP3    H220503   2.202   6.401   0.985  1.1249  1.0017 -0.3795
 6847TIP3   OH220504   5.102   1.327   1.311 -0.6384  0.3923  0.1183
 6847TIP3    H120505   5.058   1.376   1.380 -2.1448  0.4795 -0.8643
 6847TIP3    H220506   5.166   1.388   1.274  0.8066  0.0777  1.9382
 6848TIP3   OH220507   1.537   4.976   1.871  0.5083 -0.3460 -0.0190
 6848TIP3    H120508   1.579   5.052   1.911 -4.2259  1.4623  2.3778
 6848TIP3    H220509   1.535   4.910   1.941 -0.7918 -0.2115  0.1093
 6849TIP3   OH220510   1.839   5.573   4.838  0.6113 -0.1176 -0.2810
 6849TIP3    H120511   1.897   5.500   4.860  1.7783  0.7688 -0.3933
 6849TIP3    H220512   1.845   5.633   4.913  0.2715  0.2529 -0.5432
 6850TIP3   OH220513   4.285   6.157   5.848 -0.1705 -0.1986 -0.3059
 6850TIP3    H120514   4.222   6.131   5.781  1.6488 -1.0209 -1.8110
 6850TIP3    H220515   4.294   6.080   5.904 -0.8244  0.0876  0.2092
 6851TIP3   OH220516   5.581   0.493   0.798 -0.0082 -0.0700 -0.0357
 6851TIP3    H120517   5.674   0.473   0.799 -0.3531 -1.8604  1.3279
 6851TIP3    H220518   5.543   0.437   0.866 -1.8899  1.6181  0.4194
 6852TIP3   OH220519   5.176   1.969   5.386  0.0020 -0.0717 -0.3523
 6852TIP3    H120520   5.196   2.059   5.410 -2.3747  0.6446 -0.9058
 6852TIP3    H220521   5.244   1.946   5.323  0.8309  1.1869  0.0362
 6853TIP3   OH220522   2.280   4.206   1.587 -0.3635 -0.6794  0.1851
 6853TIP3    H120523   2.288   4.297   1.558 -0.0154 -0.8778 -0.3431
 6853TIP3    H220524   2.229   4.212   1.668 -1.5032 -0.1385 -0.5423
 6854TIP3   OH220525   3.020   6.686   2.763 -0.4409 -0.2145  0.5487
 6854TIP3    H120526   2.940   6.635   2.768 -0.2873 -0.8540 -2.0089
 6854TIP3    H220527   3.018   6.725   2.675  1.5216  0.6218  0.8242
 6855TIP3   OH220528   6.752   4.813   2.686  0.2200 -0.4676  0.2036
 6855TIP3    H120529   6.781   4.742   2.743 -0.2031 -1.5204 -0.8392
 6855TIP3    H220530   6.786   4.790   2.600 -0.0970  0.4917 -0.1909
 6856TIP3   OH220531   1.073   0.186   1.999  0.2886 -0.5259  0.1846
 6856TIP3    H120532   1.121   0.257   1.957  1.9895 -1.9428 -0.4249
 6856TIP3    H220533   1.095   0.108   1.946 -2.1569 -1.3932  0.3181
 6857TIP3   OH220534   2.600   2.001   3.114 -0.0299  0.0333  0.0195
 6857TIP3    H120535   2.659   1.945   3.063 -0.5540 -0.5853  0.0811
 6857TIP3    H220536   2.629   1.990   3.205 -0.1276 -0.1376  0.0309
 6858TIP3   OH220537   4.857   2.493   4.057 -0.1095  0.2878  0.2576
 6858TIP3    H120538   4.847   2.410   4.010  1.3465  0.9964 -1.4174
 6858TIP3    H220539   4.928   2.538   4.011  0.0651  1.8869  1.9797
 6859TIP3   OH220540   1.784   2.473   4.473 -0.1872 -0.8653 -0.5388
 6859TIP3    H120541   1.773   2.403   4.409  1.0371 -1.1754 -0.4298
 6859TIP3    H220542   1.879   2.483   4.483 -0.3252 -1.1842  1.5993
 6860TIP3   OH220543   5.878   0.463   3.430  0.2554  0.4181  0.0305
 6860TIP3    H120544   5.936   0.390   3.449 -0.0408  0.4704  1.2021
 6860TIP3    H220545   5.926   0.540   3.460  0.0123  0.5696  0.0313
 6861TIP3   OH220546   1.572   0.166   1.955 -0.0867 -0.2931 -0.6930
 6861TIP3    H120547   1.575   0.261   1.970 -2.0089 -0.3764  0.4569
 6861TIP3    H220548   1.662   0.137   1.972 -0.0597  0.9619  1.7599
 6862TIP3   OH220549   0.892   1.483   4.023  0.2107 -0.0757 -0.4092
 6862TIP3    H120550   0.803   1.450   4.029  0.5539 -0.8531  0.7128
 6862TIP3    H220551   0.905   1.502   3.930 -1.0165 -0.2188 -0.6224
 6863TIP3   OH220552   6.445   5.584   2.179 -0.0265 -0.1247  0.6286
 6863TIP3    H120553   6.523   5.559   2.229  0.8119 -1.6954 -1.3064
 6863TIP3    H220554   6.372   5.554   2.233  0.8058 -1.2019  1.2169
 6864TIP3   OH220555   1.442   1.758   4.686 -0.0480  0.6252  0.2752
 6864TIP3    H120556   1.505   1.771   4.757  2.2927 -0.1637 -1.5305
 6864TIP3    H220557   1.465   1.825   4.621  1.7211 -2.0851 -2.1525
 6865TIP3   OH220558   3.358   2.871   4.502 -0.9137  0.3235  0.1206
 6865TIP3    H120559   3.271   2.902   4.476 -0.7515  0.5794 -0.1251
 6865TIP3    H220560   3.418   2.936   4.466 -0.5385 -0.4688 -0.7389
 6866TIP3   OH220561   5.717   0.108   3.729  0.2367 -0.2365  0.4462
 6866TIP3    H120562   5.792   0.067   3.771 -1.7177 -0.9711  3.6199
 6866TIP3    H220563   5.711   0.194   3.770 -0.3028  0.0365 -0.1957
 6867TIP3   OH220564   2.563   2.598   5.134  0.2234  0.5295  0.1244
 6867TIP3    H120565   2.472   2.579   5.159 -0.3771  1.0807 -1.5197
 6867TIP3    H220566   2.567   2.577   5.041  1.7628  0.6253  0.1517
 6868TIP3   OH220567   1.880   4.532   5.245  0.1736  0.0460 -0.3217
 6868TIP3    H120568   1.961   4.481   5.251  0.0787 -0.6194 -3.0937
 6868TIP3    H220569   1.909   4.623   5.239  0.7379 -0.1801 -1.2038
 6869TIP3   OH220570   5.881   1.682   0.025 -0.2630 -0.0604 -0.6565
 6869TIP3    H120571   5.871   1.773   0.052 -0.1321 -0.1362 -0.3429
 6869TIP3    H220572   5.921   1.686  -0.062  2.4252  0.1637  0.4972
 6870TIP3   OH220573   7.187   3.528   2.049  0.2294 -0.0054  0.2958
 6870TIP3    H120574   7.249   3.571   2.108  0.7580  1.6110 -1.3279
 6870TIP3    H220575   7.116   3.592   2.037 -1.2039 -1.3572  1.1879
 6871TIP3   OH220576   2.225   5.223   4.226 -0.2287  0.2815  0.3412
 6871TIP3    H120577   2.147   5.244   4.277 -0.8294  0.4289 -0.6058
 6871TIP3    H220578   2.200   5.147   4.174  0.0645  0.6641 -0.3823
 6872TIP3   OH220579   0.564   2.316   3.987 -0.5303  0.1193 -0.0577
 6872TIP3    H120580   0.533   2.234   3.950 -0.5173  0.0265  0.1371
 6872TIP3    H220581   0.502   2.335   4.058 -1.2100  0.8549 -0.8201
 6873TIP3   OH220582   3.290   4.433   2.364  0.1296 -0.5482 -0.5173
 6873TIP3    H120583   3.249   4.472   2.286  1.0817 -0.1251 -0.8218
 6873TIP3    H220584   3.216   4.400   2.416 -0.6147  0.3802 -0.9479
 6874TIP3   OH220585   1.048   6.022   1.767  0.5545 -0.0249  0.3388
 6874TIP3    H120586   1.134   6.060   1.749  0.2496 -0.5803 -3.0570
 6874TIP3    H220587   1.062   5.928   1.765  0.3839 -0.1981  3.3583
 6875TIP3   OH220588   1.945   1.149   3.435  0.1805  0.2441  0.5889
 6875TIP3    H120589   1.909   1.076   3.484  0.0829  0.8004  1.3595
 6875TIP3    H220590   2.030   1.118   3.405 -0.4667 -0.6977 -0.3428
 6876TIP3   OH220591   2.379   2.501   5.730 -0.1876 -0.0783  0.5415
 6876TIP3    H120592   2.431   2.513   5.809 -1.5434 -0.3570  1.5075
 6876TIP3    H220593   2.302   2.453   5.759 -0.6122 -0.3766 -0.9987
 6877TIP3   OH220594   2.210   3.659   1.121  0.3987 -0.1887 -0.3363
 6877TIP3    H120595   2.267   3.635   1.194 -0.2419 -1.6913 -0.2975
 6877TIP3    H220596   2.121   3.646   1.154 -0.0121  1.8081 -0.5054
 6878TIP3   OH220597   2.166   4.126   0.084  0.0441  0.6119 -0.1951
 6878TIP3    H120598   2.072   4.112   0.086  0.2396 -0.6692  0.9926
 6878TIP3    H220599   2.197   4.069   0.014  0.1292 -0.3141  0.5851
 6879TIP3   OH220600   2.865   3.876   0.575 -0.1530  0.0143 -0.0305
 6879TIP3    H120601   2.850   3.827   0.655 -1.4696 -0.3861 -0.5054
 6879TIP3    H220602   2.884   3.809   0.509 -1.9502  0.1138 -0.6815
 6880TIP3   OH220603   1.677   5.539   5.598 -0.0217 -0.2157  0.3501
 6880TIP3    H120604   1.738   5.612   5.592  1.3265 -1.2405  1.1097
 6880TIP3    H220605   1.704   5.480   5.528 -0.7751 -0.2492  0.0743
 6881TIP3   OH220606   4.225   2.129   2.512 -0.1090  0.1291 -0.4296
 6881TIP3    H120607   4.259   2.108   2.599 -3.4014 -1.3080  0.6868
 6881TIP3    H220608   4.212   2.044   2.470 -1.2411  0.6541 -1.1886
 6882TIP3   OH220609   2.115   4.586   2.742 -0.5964 -0.0722  0.6156
 6882TIP3    H120610   2.091   4.634   2.822  1.9516 -0.4884  1.7443
 6882TIP3    H220611   2.090   4.495   2.761 -1.8283  0.1413  0.0842
 6883TIP3   OH220612   5.220   3.775   0.408  0.1807  0.5772  0.8325
 6883TIP3    H120613   5.246   3.839   0.474 -0.2678  0.9677  0.6343
 6883TIP3    H220614   5.189   3.827   0.334 -1.2131  0.1470  1.0835
 6884TIP3   OH220615   3.011   4.325   3.443  0.4322 -0.0908  0.3190
 6884TIP3    H120616   2.975   4.365   3.522 -0.4822  0.0216 -0.1294
 6884TIP3    H220617   3.105   4.338   3.449  0.1790  2.1521  0.1948
 6885TIP3   OH220618   2.042   2.236   2.237 -0.3999  0.0333 -0.2965
 6885TIP3    H120619   2.006   2.156   2.275  1.3335 -0.3786  0.5636
 6885TIP3    H220620   2.027   2.303   2.304  1.7570 -0.4805  0.7838
 6886TIP3   OH220621   4.939   0.982   1.331 -0.6512  0.0050 -0.4293
 6886TIP3    H120622   4.974   1.026   1.253 -0.8467  0.0057 -0.5167
 6886TIP3    H220623   4.862   1.033   1.355 -0.1658  0.4586  0.2164
 6887TIP3   OH220624   5.500   6.667   4.129  0.7776 -0.4505  0.2599
 6887TIP3    H120625   5.488   6.737   4.066  2.4059 -0.3165  0.0478
 6887TIP3    H220626   5.449   6.694   4.205  0.9374  0.6950 -0.0252
 6888TIP3   OH220627   3.411   1.289   5.244 -0.1310 -0.2439  0.2970
 6888TIP3    H120628   3.466   1.222   5.285  1.1466 -0.0597 -1.0458
 6888TIP3    H220629   3.336   1.240   5.209  0.4543 -0.8934 -0.0820
 6889TIP3   OH220630   0.889   4.134   2.843  0.2647 -0.1754 -0.3484
 6889TIP3    H120631   0.867   4.104   2.755 -1.5161  0.0851 -0.0383
 6889TIP3    H220632   0.960   4.197   2.830  1.1155 -1.3051 -1.4181
 6890TIP3   OH220633   4.769   5.869   5.612  0.6833  0.2944  0.0775
 6890TIP3    H120634   4.778   5.963   5.596  2.4637  0.0769 -0.4560
 6890TIP3    H220635   4.859   5.838   5.623  0.1266 -1.3350  0.3220
 6891TIP3   OH220636   0.459   6.239   4.859 -0.4232  0.6314 -0.4493
 6891TIP3    H120637   0.413   6.304   4.913  0.4222  0.1087  0.9335
 6891TIP3    H220638   0.432   6.155   4.895  0.7327  0.2916 -0.3642
 6892TIP3   OH220639   5.813   4.845   1.203 -0.5808 -0.1712 -0.1469
 6892TIP3    H120640   5.799   4.903   1.128  0.1989  0.5162  0.2278
 6892TIP3    H220641   5.892   4.878   1.244 -1.0052 -0.5420  0.9964
 6893TIP3   OH220642   4.027   1.752   1.607 -0.7699  0.7368 -0.3529
 6893TIP3    H120643   3.947   1.802   1.595 -2.3010 -1.0268  1.7279
 6893TIP3    H220644   4.055   1.730   1.518 -1.6467  2.7227 -1.1875
 6894TIP3   OH220645   1.221   6.578   4.861  0.0484  0.3921 -0.5099
 6894TIP3    H120646   1.261   6.508   4.809 -0.7194  0.1313 -0.7620
 6894TIP3    H220647   1.212   6.650   4.799  2.0169  1.2028  0.0582
 6895TIP3   OH220648   6.695   2.565   3.100  0.1775 -0.0825 -0.7243
 6895TIP3    H120649   6.685   2.490   3.158 -0.0203  0.7515  0.3588
 6895TIP3    H220650   6.755   2.624   3.146 -1.3981  1.4194 -0.4520
 6896TIP3   OH220651   0.717   2.578   2.438 -0.3081 -0.2591  0.0448
 6896TIP3    H120652   0.629   2.542   2.427 -0.9453  1.1077  0.5100
 6896TIP3    H220653   0.708   2.671   2.421  1.5583 -0.4379 -2.4359
 6897TIP3   OH220654   6.334   2.220   0.802 -0.5729  0.3607 -0.1674
 6897TIP3    H120655   6.375   2.305   0.783 -0.5288  0.2973 -0.3572
 6897TIP3    H220656   6.260   2.215   0.741 -0.6636  0.3269 -0.0551
 6898TIP3   OH220657   1.690   3.729   0.934 -0.5846  0.1872  0.0611
 6898TIP3    H120658   1.783   3.744   0.953 -0.1641  1.4237 -2.5227
 6898TIP3    H220659   1.691   3.677   0.853 -2.1901 -2.6075  1.7104
 6899TIP3   OH220660   1.446   1.408   4.065 -0.2051 -0.6688  0.5343
 6899TIP3    H120661   1.500   1.486   4.082  0.3963 -1.2775  1.4817
 6899TIP3    H220662   1.356   1.440   4.069  0.0107 -0.1491  1.6792
 6900TIP3   OH220663   2.276   6.733   2.061  0.1157 -0.3017  0.4502
 6900TIP3    H120664   2.207   6.750   2.124 -0.6099 -1.2352 -0.0707
 6900TIP3    H220665   2.290   6.638   2.064  1.3477 -0.1437  0.5099
 6901TIP3   OH220666   4.280   3.777   1.864  0.3819 -0.1831  0.6774
 6901TIP3    H120667   4.220   3.851   1.850  0.5508  0.1802  1.7474
 6901TIP3    H220668   4.366   3.811   1.839  0.0861 -0.9583 -1.6547
 6902TIP3   OH220669   3.203   5.873   0.432 -0.3134 -0.2869 -0.2905
 6902TIP3    H120670   3.133   5.873   0.497  0.0455 -0.3281  0.1000
 6902TIP3    H220671   3.163   5.911   0.354 -0.3224  1.2940  0.4310
 6903TIP3   OH220672   3.202   2.863   3.495  0.1626  0.4943  0.0084
 6903TIP3    H120673   3.172   2.777   3.526 -1.2300  0.7910 -0.4429
 6903TIP3    H220674   3.122   2.907   3.466  0.9424  1.7043 -0.3681
 6904TIP3   OH220675   2.931   2.208   3.465  0.0953  0.0789 -0.4017
 6904TIP3    H120676   2.860   2.240   3.520  0.1561  3.0421 -1.8420
 6904TIP3    H220677   3.011   2.238   3.508  0.2204  0.8421 -1.1327
 6905TIP3   OH220678   1.419   5.933   2.548 -0.0188  0.4079  0.3512
 6905TIP3    H120679   1.404   5.958   2.639 -0.6542  2.4047 -0.2510
 6905TIP3    H220680   1.399   6.012   2.497 -1.0604 -1.0499 -1.6494
 6906TIP3   OH220681   6.860   2.736   3.563 -0.5654 -0.0008  0.1756
 6906TIP3    H120682   6.900   2.649   3.562  1.0275  0.6688  1.0602
 6906TIP3    H220683   6.771   2.721   3.594  0.5175 -1.0718  3.1734
 6907TIP3   OH220684   5.150   0.086   3.793 -0.3951 -0.2659  0.2050
 6907TIP3    H120685   5.083   0.040   3.742 -0.1573 -0.7652  0.3347
 6907TIP3    H220686   5.196   0.140   3.729  0.6195 -1.7142 -0.3354
 6908TIP3   OH220687   0.776   3.912   1.843 -0.2894 -0.0705 -0.9101
 6908TIP3    H120688   0.764   3.857   1.765  0.3129  0.2891 -1.2656
 6908TIP3    H220689   0.831   3.985   1.813  0.3310 -0.1610 -0.0443
 6909TIP3   OH220690   3.185   1.454   1.716 -0.0895  0.1323  0.3399
 6909TIP3    H120691   3.191   1.529   1.776  0.1363  0.4391 -0.0578
 6909TIP3    H220692   3.142   1.386   1.767 -1.3931  0.9249  0.3415
 6910TIP3   OH220693   4.164   2.649   2.328 -0.7488 -0.4351 -0.2272
 6910TIP3    H120694   4.214   2.678   2.403  0.2068 -1.4227 -0.4543
 6910TIP3    H220695   4.181   2.714   2.260 -1.6584  0.4863  0.4023
 6911TIP3   OH220696   2.201   0.848   4.890  0.0664 -0.2424  0.1960
 6911TIP3    H120697   2.234   0.919   4.945  0.6122  0.3238 -0.8142
 6911TIP3    H220698   2.127   0.812   4.938  1.1111 -0.4328  1.7437
 6912TIP3   OH220699   4.519   6.384   3.239 -0.3494 -0.2708  0.0664
 6912TIP3    H120700   4.441   6.356   3.287 -1.1794  0.0432 -1.0495
 6912TIP3    H220701   4.485   6.425   3.159  0.9731 -0.8687 -0.8518
 6913TIP3   OH220702   4.907   2.434   0.074 -0.1882  0.2261 -0.1668
 6913TIP3    H120703   4.953   2.438   0.158  2.2573 -0.7069 -1.3907
 6913TIP3    H220704   4.860   2.517   0.069  1.4947  1.3218  1.0909
 6914TIP3   OH220705   4.343   6.027   1.573  0.7997 -1.1171 -0.5493
 6914TIP3    H120706   4.385   5.950   1.533  0.9536 -0.7741 -1.0594
 6914TIP3    H220707   4.279   5.990   1.634  0.9202 -1.6543 -0.7389
 6915TIP3   OH220708   4.611   2.025   4.384 -0.3779  0.1328  0.2430
 6915TIP3    H120709   4.554   2.097   4.407 -0.4167 -0.5322  2.4275
 6915TIP3    H220710   4.699   2.062   4.388 -0.3805  0.0242  1.6077
 6916TIP3   OH220711   2.721   4.724   3.744 -0.2639 -0.5305 -0.2479
 6916TIP3    H120712   2.685   4.811   3.758 -0.3669 -0.9933  3.1629
 6916TIP3    H220713   2.660   4.665   3.788  1.5965 -1.9410  0.5911
 6917TIP3   OH220714   6.583   0.301   5.009 -0.0129  0.1848 -0.0496
 6917TIP3    H120715   6.583   0.224   4.952 -0.2386 -0.7247  1.1270
 6917TIP3    H220716   6.491   0.316   5.029  0.1418 -0.5437  1.3732
 6918TIP3   OH220717   3.569   6.300   4.201  0.1337 -0.2159  0.5586
 6918TIP3    H120718   3.632   6.328   4.267  1.3559 -0.1504 -0.5880
 6918TIP3    H220719   3.554   6.378   4.148 -0.4240 -0.4056  0.4391
 6919TIP3   OH220720   3.277   4.265   3.397 -0.7093 -0.4317  0.1645
 6919TIP3    H120721   3.236   4.178   3.401 -2.2280  0.2939  1.8038
 6919TIP3    H220722   3.323   4.274   3.480 -0.7437  0.4286  0.0973
 6920TIP3   OH220723   3.534   1.729   3.608 -0.7552 -0.7912  0.0881
 6920TIP3    H120724   3.486   1.797   3.561 -0.8753 -0.4463  0.7038
 6920TIP3    H220725   3.488   1.719   3.691 -0.4510 -1.2793  0.2034
 6921TIP3   OH220726   4.189   6.754   2.975  0.4389  0.5278  0.1939
 6921TIP3    H120727   4.171   6.665   2.944  1.1357  0.8301 -1.1704
 6921TIP3    H220728   4.188   6.747   3.070  0.0923 -0.8565  0.1089
 6922TIP3   OH220729   2.551   1.528   0.559 -0.1616  0.3709 -0.6663
 6922TIP3    H120730   2.456   1.539   0.556 -0.2104  0.4043  0.4810
 6922TIP3    H220731   2.573   1.533   0.652  1.0505  1.0321 -0.9600
 6923TIP3   OH220732   1.265   2.362   0.843  0.3595 -0.0335 -0.0544
 6923TIP3    H120733   1.280   2.393   0.754  1.3590  0.9540  0.4417
 6923TIP3    H220734   1.170   2.366   0.854  0.2859  0.5359 -0.8320
 6924TIP3   OH220735   5.162   0.350   0.960  0.3582 -0.2344 -0.4180
 6924TIP3    H120736   5.077   0.318   0.929 -0.8474  1.5255  0.8357
 6924TIP3    H220737   5.150   0.445   0.967  1.1520 -0.2755  3.3545
 6925TIP3   OH220738   2.537   4.916   3.476 -0.3961  0.2445 -0.2358
 6925TIP3    H120739   2.516   4.823   3.460  1.0917 -0.0807 -0.4342
 6925TIP3    H220740   2.453   4.955   3.501 -1.0250 -1.1905  0.0203
 6926TIP3   OH220741   4.589   0.512   0.729 -0.3761  0.2160 -0.3020
 6926TIP3    H120742   4.634   0.549   0.805 -1.5587  0.1415  0.4399
 6926TIP3    H220743   4.639   0.432   0.709 -2.1318 -1.7979  2.6669
 6927TIP3   OH220744   2.461   1.937   0.734  0.4234 -0.1455  0.5572
 6927TIP3    H120745   2.503   1.900   0.811  0.7082  0.7083  0.8137
 6927TIP3    H220746   2.395   1.997   0.769  0.9863  0.7318  0.1488
 6928TIP3   OH220747   0.525   2.135   2.395 -0.3440 -0.0281  0.3065
 6928TIP3    H120748   0.511   2.043   2.376  0.7464 -0.0356 -0.5285
 6928TIP3    H220749   0.535   2.177   2.310 -0.6686  0.8453  0.6801
 6929TIP3   OH220750   0.918   6.318   1.789  0.0169  0.1893 -0.0834
 6929TIP3    H120751   0.889   6.232   1.757  1.4380 -0.3690  0.0798
 6929TIP3    H220752   0.918   6.309   1.884 -2.6675  1.3496  0.1219
 6930TIP3   OH220753   3.992   1.827   3.490 -0.2229 -0.4022  0.3149
 6930TIP3    H120754   4.039   1.879   3.425  1.9425 -2.4943  0.0623
 6930TIP3    H220755   3.997   1.878   3.571 -2.5639  2.0302 -0.8910
 6931TIP3   OH220756   3.689   4.146   0.952 -0.0516 -0.3649 -0.8903
 6931TIP3    H120757   3.716   4.056   0.934  2.2642  0.2917 -0.9718
 6931TIP3    H220758   3.643   4.141   1.036 -0.0756 -1.6280 -0.9544
 6932TIP3   OH220759   5.845   2.737   3.631 -0.3327 -0.0655  0.2788
 6932TIP3    H120760   5.803   2.785   3.560  1.9776  0.6383 -0.7085
 6932TIP3    H220761   5.894   2.803   3.679  0.8102 -1.0431  0.4887
 6933TIP3   OH220762   4.149   5.931   4.453 -0.0575  0.1925  0.2097
 6933TIP3    H120763   4.187   5.860   4.505  1.6347 -0.2227 -1.4930
 6933TIP3    H220764   4.218   5.998   4.450 -1.2523  1.5039  0.9456
 6934TIP3   OH220765   0.155   1.436   1.015 -0.1610 -0.4321 -0.1435
 6934TIP3    H120766   0.066   1.435   0.982 -0.4238 -2.2770  0.5389
 6934TIP3    H220767   0.157   1.511   1.075 -1.3252 -0.5499  0.0598
 6935TIP3   OH220768   0.631   2.025   5.329  0.1955 -0.3738 -0.5141
 6935TIP3    H120769   0.677   1.941   5.325 -0.5119 -0.9381  1.7502
 6935TIP3    H220770   0.551   2.009   5.278 -0.0197 -1.1628  0.0400
 6936TIP3   OH220771   6.280   4.890   3.349 -0.1544 -0.4698  0.5151
 6936TIP3    H120772   6.308   4.933   3.268 -2.8929 -0.2037 -0.3851
 6936TIP3    H220773   6.314   4.801   3.342 -0.8312 -0.6189 -1.2322
 6937TIP3   OH220774   6.337   3.265   0.852 -0.1823 -0.2829  0.0395
 6937TIP3    H120775   6.261   3.223   0.811 -0.7901  1.4970 -0.7358
 6937TIP3    H220776   6.309   3.282   0.942 -0.0186 -1.2765  0.2911
 6938TIP3   OH220777   2.555   6.466   3.540  0.2933 -0.3159 -0.5702
 6938TIP3    H120778   2.598   6.380   3.542 -1.0738 -1.0315  1.3895
 6938TIP3    H220779   2.609   6.520   3.598 -0.0782 -0.5197 -0.0250
 6939TIP3   OH220780   1.839   2.749   2.997  0.4284  0.1241 -0.0436
 6939TIP3    H120781   1.858   2.678   3.058  0.9073 -0.0289 -0.3697
 6939TIP3    H220782   1.924   2.773   2.960  0.2113  0.5630 -0.2719
 6940TIP3   OH220783   1.904   4.797   1.790 -0.6850  0.7146 -0.6039
 6940TIP3    H120784   1.951   4.714   1.778  0.6667  1.4875 -0.8191
 6940TIP3    H220785   1.824   4.787   1.739 -0.3685 -0.3234 -0.9186
 6941TIP3   OH220786   0.648   4.866   3.009  0.2573  0.1374  0.5342
 6941TIP3    H120787   0.612   4.791   2.961 -0.4175  0.8819 -0.1517
 6941TIP3    H220788   0.679   4.829   3.092 -1.7978 -0.6051  1.0271
 6942TIP3   OH220789   7.014   5.508   2.383  0.1113  0.3316 -0.4252
 6942TIP3    H120790   7.067   5.587   2.368  0.3393  0.0211 -1.2766
 6942TIP3    H220791   6.956   5.532   2.456 -0.3856  1.5664 -1.1948
 6943TIP3   OH220792   3.069   1.123   4.484 -0.3137 -0.3036  0.0669
 6943TIP3    H120793   3.126   1.068   4.538  1.0817 -0.3470 -1.3709
 6943TIP3    H220794   3.064   1.206   4.531  0.6494 -0.4318  0.4250
 6944TIP3   OH220795   3.990   1.465   1.599 -0.4275  0.0078  0.6958
 6944TIP3    H120796   4.000   1.557   1.573 -0.0219  0.4168  2.1932
 6944TIP3    H220797   4.004   1.466   1.694  0.3053 -1.7153  0.6242
 6945TIP3   OH220798   5.491   3.652   4.834 -0.0667 -0.0494  0.1887
 6945TIP3    H120799   5.418   3.623   4.887 -0.5647  0.6111 -0.1241
 6945TIP3    H220800   5.485   3.599   4.754 -0.4992  0.3425 -0.0433
 6946TIP3   OH220801   3.733   6.670   0.380  0.2028 -0.1002 -0.2570
 6946TIP3    H120802   3.662   6.689   0.318  0.0652 -1.7432 -0.6439
 6946TIP3    H220803   3.717   6.580   0.408  1.9710 -0.4007 -0.1206
 6947TIP3   OH220804   6.076   0.980   1.950 -0.2640 -0.3190 -0.5877
 6947TIP3    H120805   6.127   1.060   1.961 -0.9170  0.0494 -0.2391
 6947TIP3    H220806   6.140   0.916   1.917  0.9777 -0.5187  1.9804
 6948TIP3   OH220807   5.084   2.521   3.915 -0.8276  0.9775  0.3679
 6948TIP3    H120808   5.095   2.550   3.825  0.2487 -0.5499 -0.0108
 6948TIP3    H220809   5.129   2.587   3.967 -1.3176  1.7797 -0.2014
 6949TIP3   OH220810   2.723   2.810   4.930  0.2391  0.0156 -0.4461
 6949TIP3    H120811   2.788   2.855   4.876  0.0262  0.1764 -0.5744
 6949TIP3    H220812   2.747   2.831   5.020 -1.0911  2.2206 -0.5076
 6950TIP3   OH220813   2.383   1.902   1.616  0.1407 -0.1098 -0.0958
 6950TIP3    H120814   2.374   1.998   1.615  0.5099 -0.0692  0.2457
 6950TIP3    H220815   2.399   1.881   1.708 -1.7924 -0.6853  0.1645
 6951TIP3   OH220816   0.712   4.875   5.515 -0.3665  0.2688  0.0396
 6951TIP3    H120817   0.763   4.924   5.450 -2.2249 -0.2173 -1.8768
 6951TIP3    H220818   0.762   4.885   5.596  1.7033  1.4696 -1.2831
 6952TIP3   OH220819   4.574   3.174   5.740  0.1248  0.4962  0.0632
 6952TIP3    H120820   4.603   3.190   5.830 -1.2939 -0.0951  0.6531
 6952TIP3    H220821   4.654   3.159   5.692  0.8082 -2.3134  1.8568
 6953TIP3   OH220822   7.196   2.653   0.516 -0.3917  0.0748 -0.3025
 6953TIP3    H120823   7.187   2.636   0.422 -0.3507  2.2356 -0.7373
 6953TIP3    H220824   7.110   2.684   0.543 -0.1941  0.1725  0.2278
 6954TIP3   OH220825   0.044   3.363   4.813  0.1058  0.1867  0.0334
 6954TIP3    H120826   0.001   3.391   4.732 -0.9163  0.7731  0.7642
 6954TIP3    H220827  -0.008   3.289   4.843 -0.9301  1.4201  1.3649
 6955TIP3   OH220828   4.756   5.031   1.827  0.1718  0.1702 -0.2754
 6955TIP3    H120829   4.721   4.978   1.898  1.2635 -0.2575 -0.0284
 6955TIP3    H220830   4.700   5.108   1.824 -0.5257 -0.2988  0.3526
 6956TIP3   OH220831   5.400   6.099   1.697 -0.3839  0.7759  0.0507
 6956TIP3    H120832   5.395   6.174   1.638  0.3925  1.0156  0.2821
 6956TIP3    H220833   5.364   6.131   1.780 -1.9243  0.2986 -0.4148
 6957TIP3   OH220834   2.674   2.873   0.542 -0.4553 -0.4990 -0.4476
 6957TIP3    H120835   2.672   2.845   0.634 -1.8417  0.9112 -0.0140
 6957TIP3    H220836   2.592   2.841   0.505 -0.1544 -0.5853 -1.0577
 6958TIP3   OH220837   3.125   4.925   3.283 -0.5709  0.2743 -0.0169
 6958TIP3    H120838   3.114   4.903   3.190 -0.4221 -0.4885  0.1410
 6958TIP3    H220839   3.127   4.840   3.328  0.8686  0.5524  0.5194
 6959TIP3   OH220840   1.226   1.206   3.527  0.5659 -0.1796  0.0672
 6959TIP3    H120841   1.270   1.135   3.480  2.0027  0.0721  0.9594
 6959TIP3    H220842   1.291   1.236   3.590  0.0917  2.0909 -0.4273
 6960TIP3   OH220843   0.466   0.524   2.134 -0.2427 -0.3009  0.2689
 6960TIP3    H120844   0.476   0.617   2.149 -0.3829 -0.2576  0.1005
 6960TIP3    H220845   0.428   0.518   2.046 -0.8170 -0.4907  0.5246
 6961TIP3   OH220846   4.989   5.795   5.799 -0.3873  0.0092  0.0496
 6961TIP3    H120847   5.035   5.714   5.818  0.1066  0.3208  0.2023
 6961TIP3    H220848   5.052   5.864   5.819  0.0308  0.3798 -2.3014
 6962TIP3   OH220849   0.603   4.261   2.352 -0.6439  0.0279 -0.4357
 6962TIP3    H120850   0.686   4.214   2.360  0.2302  1.4288 -1.0799
 6962TIP3    H220851   0.577   4.251   2.261 -1.5729 -0.9900 -0.0890
 6963TIP3   OH220852   1.726   2.328   3.232 -0.1108  0.6383 -0.4196
 6963TIP3    H120853   1.729   2.316   3.327  0.1398 -0.2178 -0.5254
 6963TIP3    H220854   1.633   2.325   3.211 -0.2368  1.8503 -0.0896
 6964TIP3   OH220855   1.279   5.030   1.243  0.0354  0.5736 -0.3107
 6964TIP3    H120856   1.202   4.990   1.284  0.0611  1.8131  0.9943
 6964TIP3    H220857   1.354   4.995   1.291  0.0985  1.6327  0.3872
 6965TIP3   OH220858   1.891   0.991   4.810 -0.5176  0.3360 -0.6568
 6965TIP3    H120859   1.870   0.931   4.739 -0.2461  1.1490 -1.4307
 6965TIP3    H220860   1.873   1.078   4.775  0.0231  0.7747  0.1217
 6966TIP3   OH220861   1.346   1.712   1.551  0.0692  0.3435 -0.3713
 6966TIP3    H120862   1.315   1.632   1.509 -1.1451  0.7783 -0.3475
 6966TIP3    H220863   1.330   1.698   1.644  0.2036  0.4747 -0.3270
 6967TIP3   OH220864   0.785   3.891   4.496  0.9080  0.4403  0.3512
 6967TIP3    H120865   0.857   3.846   4.540 -0.9213 -0.8423  2.2380
 6967TIP3    H220866   0.738   3.935   4.568 -1.6240 -0.8753 -0.4168
 6968TIP3   OH220867   3.451   1.841   0.004  0.1405  0.1963 -0.3689
 6968TIP3    H120868   3.502   1.766  -0.025  0.2884 -0.0368  0.4728
 6968TIP3    H220869   3.443   1.830   0.099  0.5687  1.4803 -0.1610
 6969TIP3   OH220870   1.169   1.901   3.403  0.5661  0.6215  0.2743
 6969TIP3    H120871   1.251   1.856   3.420 -0.1361  0.0734  2.5518
 6969TIP3    H220872   1.151   1.950   3.484 -0.6048  1.9329 -0.7294
 6970TIP3   OH220873   3.506   4.655   5.295 -0.1063  0.0070 -0.3685
 6970TIP3    H120874   3.506   4.603   5.214  2.7530 -0.4956 -0.1428
 6970TIP3    H220875   3.487   4.592   5.364  0.1080 -0.0948 -0.4024
 6971TIP3   OH220876   1.162   2.528   1.764 -0.4393 -0.3859 -0.1031
 6971TIP3    H120877   1.132   2.439   1.780 -1.4576 -0.5030 -2.2089
 6971TIP3    H220878   1.198   2.525   1.675 -1.2207  1.4287 -0.5346
 6972TIP3   OH220879   7.118   5.966   1.775 -0.1615  0.1871 -0.3562
 6972TIP3    H120880   7.201   6.011   1.757 -0.1340  0.8451  1.2701
 6972TIP3    H220881   7.125   5.884   1.725  0.8077  0.8930 -1.4454
 6973TIP3   OH220882  -0.001   0.220   4.308 -0.0412  0.2762 -0.1980
 6973TIP3    H120883   0.075   0.183   4.353 -0.9430 -1.7002 -0.2086
 6973TIP3    H220884   0.037   0.271   4.236  1.2906  0.0961  0.3337
 6974TIP3   OH220885   5.083   2.651   4.989 -0.0445 -0.0675  0.6333
 6974TIP3    H120886   5.150   2.626   4.925 -0.8498 -0.6722 -0.0050
 6974TIP3    H220887   5.010   2.684   4.936 -1.5945 -2.5622  1.0133
 6975TIP3   OH220888   4.012   3.015   0.414  0.0808  0.2843  0.2465
 6975TIP3    H120889   4.002   3.103   0.378 -0.4310 -0.5029 -1.6631
 6975TIP3    H220890   4.029   2.959   0.337 -1.4622 -1.5577  1.1658
 6976TIP3   OH220891   7.195   1.463   0.099  0.1211 -0.1218  0.1819
 6976TIP3    H120892   7.114   1.510   0.082  0.4162 -0.2623 -1.8100
 6976TIP3    H220893   7.216   1.484   0.190 -1.3068  1.1721  0.2535
 6977TIP3   OH220894   2.821   5.359   0.395 -0.4242  0.8960  0.0895
 6977TIP3    H120895   2.842   5.350   0.488 -0.3926  0.9032  0.0832
 6977TIP3    H220896   2.897   5.404   0.358 -0.7235  1.4706  0.1759
 6978TIP3   OH220897   0.790   4.289   2.003 -0.2651  0.3050  0.3611
 6978TIP3    H120898   0.702   4.259   1.982 -0.4104  1.4571 -0.8107
 6978TIP3    H220899   0.814   4.240   2.082 -1.1769 -1.4809 -0.4037
 6979TIP3   OH220900   6.468   3.430   5.188 -0.3454 -0.1020 -0.0208
 6979TIP3    H120901   6.506   3.374   5.120 -1.4001 -2.3868  1.1596
 6979TIP3    H220902   6.512   3.403   5.269  1.2935  2.9397  0.2631
 6980TIP3   OH220903   0.508   1.862   2.309 -0.1476 -0.2666  0.1965
 6980TIP3    H120904   0.489   1.874   2.216 -0.1371  0.8112  0.3295
 6980TIP3    H220905   0.508   1.767   2.321  1.5356 -0.5100 -1.2717
 6981TIP3   OH220906   1.252   3.338   1.086  0.0016 -0.2844  0.6113
 6981TIP3    H120907   1.258   3.257   1.035  2.6371 -1.0077  1.9254
 6981TIP3    H220908   1.178   3.385   1.047 -0.1091 -2.2216 -1.7430
 6982TIP3   OH220909   0.363   1.774   0.915  0.1193 -0.2219  0.1502
 6982TIP3    H120910   0.341   1.824   0.837 -0.4606 -0.5649  0.0911
 6982TIP3    H220911   0.280   1.734   0.942  0.1084  0.6501  1.4804
 6983TIP3   OH220912   3.711   2.526   1.033 -0.1838 -0.4761  0.2285
 6983TIP3    H120913   3.794   2.543   1.078  0.7139 -2.6275 -0.4726
 6983TIP3    H220914   3.680   2.612   1.006  0.0838  0.7618  3.4049
 6984TIP3   OH220915   3.347   2.523   3.909 -0.8972 -0.4903 -0.6490
 6984TIP3    H120916   3.348   2.596   3.848  2.0825 -0.2352 -0.4599
 6984TIP3    H220917   3.329   2.563   3.994 -0.9849 -0.2370 -0.7854
 6985TIP3   OH220918   5.228   6.390   0.076  0.0426 -0.0101  0.5949
 6985TIP3    H120919   5.182   6.383  -0.007  0.1353  0.3033  0.5142
 6985TIP3    H220920   5.262   6.480   0.077 -1.0866  0.4401  1.5548
 6986TIP3   OH220921   4.189   5.470   4.208  0.3028 -0.4990 -0.3057
 6986TIP3    H120922   4.112   5.414   4.202  0.2706 -0.4274 -0.5842
 6986TIP3    H220923   4.262   5.409   4.216  0.2677 -0.5833 -0.6108
 6987TIP3   OH220924   2.632   2.002   0.520  0.3412  0.0100  0.2126
 6987TIP3    H120925   2.554   1.977   0.569  0.5100  0.5820  0.7875
 6987TIP3    H220926   2.700   2.013   0.587  0.3110  1.8317 -0.0243
 6988TIP3   OH220927   2.554   0.502   1.093  0.0891 -0.1604 -0.2355
 6988TIP3    H120928   2.463   0.514   1.067  0.5321  1.3399 -1.1977
 6988TIP3    H220929   2.574   0.411   1.069 -0.8127 -0.1363 -1.1073
 6989TIP3   OH220930   2.995   0.696   4.460 -0.1969 -0.0883  0.2892
 6989TIP3    H120931   3.062   0.654   4.406  0.0282 -0.5523  0.9204
 6989TIP3    H220932   2.949   0.754   4.400 -0.4864 -1.1986 -0.6070
 6990TIP3   OH220933   6.008   3.398   0.630 -0.4600  0.1853 -0.1890
 6990TIP3    H120934   6.081   3.451   0.664 -0.6718  1.5606 -1.7431
 6990TIP3    H220935   6.015   3.315   0.678  1.2843  0.7736  0.6959
 6991TIP3   OH220936   6.599   0.476   1.290  0.0900  0.0229 -0.4046
 6991TIP3    H120937   6.633   0.413   1.226  1.4596 -0.6369  0.9195
 6991TIP3    H220938   6.620   0.562   1.252  0.7534 -0.3524 -0.9060
 6992TIP3   OH220939   3.768   6.473   2.613 -0.1487  0.5005 -0.7040
 6992TIP3    H120940   3.673   6.461   2.607 -0.0260 -0.4709 -0.9636
 6992TIP3    H220941   3.795   6.411   2.681  0.1828  1.5271  0.1312
 6993TIP3   OH220942   1.525   0.081   3.310 -0.1251 -0.5225 -0.1812
 6993TIP3    H120943   1.449   0.024   3.322 -0.1369 -0.2911  0.9636
 6993TIP3    H220944   1.599   0.020   3.302 -0.1034 -0.7271  1.2893
 6994TIP3   OH220945   5.669   5.895   2.802  0.1425 -0.2776  0.0994
 6994TIP3    H120946   5.613   5.883   2.880  1.8630  0.6311  1.5570
 6994TIP3    H220947   5.633   5.973   2.759 -1.5591 -1.4656 -0.7557
 6995TIP3   OH220948   2.902   1.472   1.658  0.0427 -0.2933  0.2747
 6995TIP3    H120949   2.964   1.429   1.599 -0.6337  0.0679 -0.7432
 6995TIP3    H220950   2.939   1.461   1.745  1.0148 -0.9582 -0.2061
 6996TIP3   OH220951   1.036   4.843   5.563 -0.0914 -0.2968  0.6043
 6996TIP3    H120952   0.964   4.842   5.626 -0.7633  0.8591 -0.1207
 6996TIP3    H220953   1.096   4.775   5.595 -1.7528 -1.6893  0.9163
 6997TIP3   OH220954   1.499   5.860   4.968 -0.4322  0.3192  0.2365
 6997TIP3    H120955   1.442   5.789   4.938  0.2234 -0.1786  0.1589
 6997TIP3    H220956   1.438   5.926   5.003 -1.0659 -0.1180 -0.0218
 6998TIP3   OH220957   4.531   0.106   0.614  0.5810  0.3867  0.1102
 6998TIP3    H120958   4.601   0.171   0.623 -1.6234  2.8622  0.9223
 6998TIP3    H220959   4.538   0.052   0.693  3.7114 -1.9045 -1.5348
 6999TIP3   OH220960   3.600   5.966   4.045 -0.1246  0.2728  0.4649
 6999TIP3    H120961   3.531   5.912   4.084 -0.8869  0.8652 -0.0398
 6999TIP3    H220962   3.553   6.037   4.002  0.7846  0.4313 -0.2828
 7000TIP3   OH220963   4.531   4.671   1.590 -0.5189  0.2040  0.2110
 7000TIP3    H120964   4.599   4.733   1.563  0.5074 -0.5877  0.8829
 7000TIP3    H220965   4.471   4.722   1.644  1.0320  0.3865  1.8729
 7001TIP3   OH220966   3.722   0.227   5.464  0.0095 -0.1316 -0.2254
 7001TIP3    H120967   3.648   0.231   5.525  0.4140 -0.6960  0.3131
 7001TIP3    H220968   3.731   0.134   5.444 -1.1280  0.1629 -2.4322
 7002TIP3   OH220969   5.955   3.831   0.777  0.3857  0.0071  0.5959
 7002TIP3    H120970   5.959   3.828   0.873 -0.5093  0.0849  0.6494
 7002TIP3    H220971   5.871   3.791   0.756  0.3103  0.5202 -0.1190
 7003TIP3   OH220972   1.985   6.152   3.835  0.2304  0.0120  0.0493
 7003TIP3    H120973   1.983   6.094   3.911  0.6033 -0.2427 -0.1307
 7003TIP3    H220974   2.078   6.170   3.822  0.0616  1.7283  0.9174
 7004TIP3   OH220975   2.402   6.197   1.120  0.3166  0.1287  0.3023
 7004TIP3    H120976   2.344   6.136   1.166 -0.3441  0.4143 -0.1361
 7004TIP3    H220977   2.350   6.227   1.046  0.2643  2.0026  1.0634
 7005TIP3   OH220978   5.417   3.598   2.676 -0.4202  0.5830  0.3013
 7005TIP3    H120979   5.435   3.632   2.588 -3.1104 -0.7657 -0.8548
 7005TIP3    H220980   5.398   3.506   2.664 -0.8428  0.3478  2.3227
 7006TIP3   OH220981   4.526   5.591   0.338 -1.0204  0.2276 -0.3046
 7006TIP3    H120982   4.586   5.650   0.384 -2.0628  0.5925  0.6525
 7006TIP3    H220983   4.512   5.633   0.252 -0.0241  0.1988 -0.4843
 7007TIP3   OH220984   5.600   2.111   1.683 -0.8748 -0.3265  0.6149
 7007TIP3    H120985   5.650   2.035   1.711  0.5820  1.3346  2.8547
 7007TIP3    H220986   5.658   2.157   1.623 -1.0071 -0.0468  0.6999
 7008TIP3   OH220987   1.820   5.241   1.807  0.0379 -0.1851 -0.0566
 7008TIP3    H120988   1.868   5.321   1.827  0.2678 -0.3850  0.2124
 7008TIP3    H220989   1.889   5.176   1.788 -0.1513 -0.2251 -0.6465
 7009TIP3   OH220990   2.081   6.476   2.595  0.0872 -0.5957  0.3936
 7009TIP3    H120991   2.118   6.561   2.618 -0.2157 -0.4553  0.3671
 7009TIP3    H220992   2.141   6.440   2.530 -1.4065  0.9394 -1.9430
 7010TIP3   OH220993   2.528   5.350   0.449  0.0982 -0.0152  0.3035
 7010TIP3    H120994   2.616   5.389   0.444 -0.7557  2.2121  1.3708
 7010TIP3    H220995   2.481   5.404   0.511 -2.2800 -0.7154 -0.7612
 7011TIP3   OH220996   0.066   4.632   0.602  0.0002  0.7643  0.4066
 7011TIP3    H120997   0.094   4.634   0.693 -1.2015  0.7694  0.7932
 7011TIP3    H220998   0.020   4.549   0.592 -1.4152  1.5125  0.3180
 7012TIP3   OH220999   3.670   5.855   4.472 -0.9813  0.1695  0.4885
 7012TIP3    H121000   3.752   5.903   4.482 -2.1283  2.1761  0.9750
 7012TIP3    H221001   3.610   5.919   4.434 -2.3696 -1.1727  0.3508
 7013TIP3   OH221002   3.424   2.154   0.354  0.5598  0.0026 -0.2317
 7013TIP3    H121003   3.341   2.136   0.399  1.3281 -1.3912  0.6963
 7013TIP3    H221004   3.455   2.235   0.393  0.5574 -0.4835  0.8219
 7014TIP3   OH221005   2.297   1.610   5.440  0.1117 -0.0454  0.3656
 7014TIP3    H121006   2.385   1.587   5.409 -0.7130 -1.5327 -1.0536
 7014TIP3    H221007   2.303   1.702   5.463  2.2497 -0.3010  1.0997
 7015TIP3   OH221008   3.911   6.727   3.239 -0.1595  0.3247  0.1220
 7015TIP3    H121009   3.996   6.766   3.220  0.1364  1.0342  2.5558
 7015TIP3    H221010   3.850   6.770   3.179  0.9885  0.7412 -0.7654
 7016TIP3   OH221011   5.070   6.030   5.046 -0.1226 -0.0987 -0.0717
 7016TIP3    H121012   5.004   5.968   5.076 -0.9576  0.2169 -1.1676
 7016TIP3    H221013   5.053   6.109   5.098  0.3019 -0.4571  0.6250
 7017TIP3   OH221014   2.998   2.486   1.951  0.3952 -0.0219  0.1102
 7017TIP3    H121015   2.936   2.528   2.012  0.5149 -0.0562  0.2564
 7017TIP3    H221016   3.070   2.458   2.007 -0.8003 -2.7309  0.4711
 7018TIP3   OH221017   0.254   2.276   5.118 -0.2626  0.3080  0.0732
 7018TIP3    H121018   0.288   2.305   5.203  1.0438 -2.2186  0.5163
 7018TIP3    H221019   0.286   2.341   5.056  0.8543  0.8892  1.2140
 7019TIP3   OH221020   2.025   1.549   3.203  0.0557 -0.3753 -0.1778
 7019TIP3    H121021   2.109   1.537   3.247  0.3877 -0.9535 -0.9423
 7019TIP3    H221022   2.044   1.610   3.131 -0.7530  1.6174  1.1927
 7020TIP3   OH221023   6.967   2.412   2.640 -0.4009 -0.6439  0.1256
 7020TIP3    H121024   7.052   2.371   2.658  0.5007  1.0830  0.1074
 7020TIP3    H221025   6.956   2.476   2.711 -1.5310 -0.5859 -0.0826
 7021TIP3   OH221026   6.863   6.001   5.254  0.2248 -0.4047  0.1797
 7021TIP3    H121027   6.883   6.030   5.165  0.6193 -2.3667 -0.4213
 7021TIP3    H221028   6.788   5.943   5.244  2.4893 -3.6659  0.4879
 7022TIP3   OH221029   5.613   4.634   1.260 -0.4090  0.0848 -0.2962
 7022TIP3    H121030   5.693   4.683   1.240 -1.0444  1.3955  0.2513
 7022TIP3    H221031   5.555   4.650   1.186 -0.1082 -1.0554 -0.8054
 7023TIP3   OH221032   4.397   5.705   5.546  0.1168 -0.1811 -0.2552
 7023TIP3    H121033   4.374   5.725   5.455  1.6401 -0.2690 -0.6953
 7023TIP3    H221034   4.408   5.610   5.547  0.5672 -0.1297 -0.1009
 7024TIP3   OH221035   3.860   5.911   3.244 -0.1983  0.0003  0.0196
 7024TIP3    H121036   3.863   5.972   3.170 -0.8750 -0.5366 -0.4625
 7024TIP3    H221037   3.817   5.833   3.209 -0.3122 -0.3489  0.9164
 7025TIP3   OH221038   5.371   5.491   1.395 -0.1160  0.1358 -0.0642
 7025TIP3    H121039   5.422   5.511   1.474 -0.9962  1.5356  0.1831
 7025TIP3    H221040   5.354   5.397   1.401  1.4321 -0.1396  0.4339
 7026TIP3   OH221041   6.248   5.527   0.584  0.0627  0.1557 -0.1108
 7026TIP3    H121042   6.188   5.599   0.603 -0.4012 -0.1180 -0.5005
 7026TIP3    H221043   6.335   5.563   0.597 -0.1737  0.7415 -0.1560
 7027TIP3   OH221044   3.179   2.874   3.193 -0.0069  0.0584  0.6478
 7027TIP3    H121045   3.092   2.858   3.157  0.4942 -1.6892  0.0917
 7027TIP3    H221046   3.186   2.813   3.266  1.3485 -1.1174 -0.3989
 7028TIP3   OH221047   2.125   6.682   5.185 -0.0781  0.2027  0.1887
 7028TIP3    H121048   2.219   6.675   5.171  0.2925  2.2888  1.2697
 7028TIP3    H221049   2.097   6.753   5.128 -0.8582  0.0900  0.4113
 7029TIP3   OH221050   5.416   3.980   2.316 -0.0871  0.1063 -0.6234
 7029TIP3    H121051   5.387   4.002   2.227 -2.3618  0.8165  0.2293
 7029TIP3    H221052   5.443   3.888   2.310  0.9185  0.4554 -2.2577
 7030TIP3   OH221053   0.825   6.049   2.141  0.2019  0.1032  0.2286
 7030TIP3    H121054   0.812   5.989   2.214 -0.1708  0.8431  0.7852
 7030TIP3    H221055   0.845   5.993   2.067 -0.9147 -0.7545  0.5536
 7031TIP3   OH221056   0.731   6.377   4.885 -0.0175 -0.0616  0.0923
 7031TIP3    H121057   0.670   6.303   4.882  2.1855 -1.9704 -0.1299
 7031TIP3    H221058   0.734   6.402   4.977 -0.3688 -0.6312  0.2684
 7032TIP3   OH221059   3.994   5.868   5.176  0.1206 -0.6506 -0.0122
 7032TIP3    H121060   3.926   5.916   5.224 -0.2693 -1.7567  0.6007
 7032TIP3    H221061   4.003   5.786   5.224  1.6218 -0.7040 -0.3201
 7033TIP3   OH221062   5.581   1.132   3.289 -0.1026 -0.3300 -0.1013
 7033TIP3    H121063   5.611   1.201   3.229  0.0688 -2.1991 -2.3312
 7033TIP3    H221064   5.516   1.083   3.238  0.7973 -2.6448  0.8270
 7034TIP3   OH221065   5.672   1.470   3.829 -0.2098 -0.6151 -0.0975
 7034TIP3    H121066   5.705   1.470   3.919 -0.1133 -2.3965 -0.1029
 7034TIP3    H221067   5.604   1.402   3.829 -1.3502  0.4717 -0.9918
 7035TIP3   OH221068   1.010   3.782   5.569  0.2195 -0.5353  0.4583
 7035TIP3    H121069   0.921   3.789   5.534  0.3776 -0.5585  0.0464
 7035TIP3    H221070   1.022   3.688   5.584  0.0116 -0.4891  0.9593
 7036TIP3   OH221071   1.618   0.750   4.555  0.2952  0.1179 -0.1018
 7036TIP3    H121072   1.632   0.821   4.616 -0.2881 -0.2125  0.4238
 7036TIP3    H221073   1.529   0.720   4.572  0.1439 -0.0217 -1.0683
 7037TIP3   OH221074   7.109   1.124   3.234 -0.1194  0.0415 -0.1038
 7037TIP3    H121075   7.192   1.169   3.217  0.1758 -0.4024  0.1362
 7037TIP3    H221076   7.068   1.115   3.148 -0.4774  1.3299 -0.0799
 7038TIP3   OH221077   3.979   5.776   1.225  0.1179 -0.5332 -0.1128
 7038TIP3    H121078   3.938   5.787   1.139  1.3880 -1.5404 -0.8825
 7038TIP3    H221079   3.940   5.696   1.261 -0.8978  0.2463  0.5583
 7039TIP3   OH221080   6.058   6.666   3.060  0.0472  0.0335  0.2192
 7039TIP3    H121081   6.071   6.687   2.968  0.5625  0.9331  0.4866
 7039TIP3    H221082   6.136   6.615   3.084 -0.6449 -1.2206 -0.1298
 7040TIP3   OH221083   5.496   5.566   0.624  0.1348 -0.1653 -0.3769
 7040TIP3    H121084   5.578   5.518   0.618  0.8732  0.7912  1.3396
 7040TIP3    H221085   5.503   5.634   0.556  1.0881  0.3525  0.2199
 7041TIP3   OH221086   4.971   2.809   4.526 -0.6264 -0.0677 -0.0743
 7041TIP3    H121087   4.884   2.844   4.508 -0.2548  0.4577 -0.8855
 7041TIP3    H221088   5.003   2.860   4.601 -1.6710 -1.4050  1.3387
 7042TIP3   OH221089   5.368   1.166   5.588 -0.4577 -0.5676 -0.2718
 7042TIP3    H121090   5.384   1.258   5.609  2.0982 -1.2516  1.1279
 7042TIP3    H221091   5.408   1.154   5.502 -0.2355 -0.5125 -0.1765
 7043TIP3   OH221092   2.328   1.193   4.233 -0.2072  0.5064 -0.3234
 7043TIP3    H121093   2.368   1.236   4.308 -0.7953  0.0569  0.2613
 7043TIP3    H221094   2.241   1.168   4.263 -0.3423  0.0497 -1.0609
 7044TIP3   OH221095   0.016   1.881   5.617  0.6628 -0.0447  0.2237
 7044TIP3    H121096   0.082   1.949   5.616  0.8736 -0.2451 -0.7324
 7044TIP3    H221097  -0.053   1.914   5.675  0.8927  0.8488  0.0010
 7045TIP3   OH221098   2.766   2.548   4.561  0.0238  0.2275  0.0652
 7045TIP3    H121099   2.689   2.570   4.509  1.4343 -1.0144 -2.7741
 7045TIP3    H221100   2.799   2.467   4.522  1.0497 -1.0112  3.1973
 7046TIP3   OH221101   2.504   2.272   4.659  0.1748 -0.4436 -0.2323
 7046TIP3    H121102   2.503   2.177   4.655 -0.7561 -0.4140 -1.1981
 7046TIP3    H221103   2.556   2.293   4.736 -2.4221 -1.7976  2.0735
 7047TIP3   OH221104   6.193   4.816   5.502  0.5697  0.5499 -0.2975
 7047TIP3    H121105   6.138   4.803   5.579  0.5663  2.2527  0.0163
 7047TIP3    H221106   6.255   4.884   5.528  1.7714 -0.1489 -1.2032
 7048TIP3   OH221107   4.943   2.171   3.010 -0.1030 -0.0548  0.2127
 7048TIP3    H121108   4.998   2.178   3.088 -1.4138  1.2498  1.0880
 7048TIP3    H221109   4.932   2.261   2.980 -1.2951 -0.3316 -0.2366
 7049TIP3   OH221110   1.908   4.739   3.213  0.3950  0.2507 -0.0132
 7049TIP3    H121111   1.830   4.710   3.260 -2.9233  1.2050 -4.2791
 7049TIP3    H221112   1.901   4.834   3.212  1.9555  0.3839 -0.0355
 7050TIP3   OH221113   2.278   2.033   5.273  0.3272  0.4249  0.6601
 7050TIP3    H121114   2.212   2.102   5.263 -1.0410 -0.9971 -0.6016
 7050TIP3    H221115   2.232   1.952   5.253  2.6724 -0.5680 -1.2493
 7051TIP3   OH221116   0.910   0.159   0.176 -0.4080  0.0522 -0.1770
 7051TIP3    H121117   0.963   0.223   0.129 -1.2030  0.5996 -0.3563
 7051TIP3    H221118   0.933   0.075   0.137 -0.2598  0.3759 -0.8045
 7052TIP3   OH221119   0.253   0.139   4.447 -0.3337  0.1336  0.2059
 7052TIP3    H121120   0.347   0.132   4.463 -0.2793 -1.4013 -0.5482
 7052TIP3    H221121   0.217   0.178   4.527  0.6997 -1.1577  1.3435
 7053TIP3   OH221122   2.943   0.429   0.062  0.2677 -0.0284  0.0464
 7053TIP3    H121123   2.939   0.494  -0.009  1.9619 -0.0808 -0.1409
 7053TIP3    H221124   2.982   0.477   0.135  0.3480 -0.5043  0.3150
 7054TIP3   OH221125   6.395   0.405   4.646  0.3354 -0.1216  0.1342
 7054TIP3    H121126   6.418   0.424   4.737  2.0653  0.1607 -0.3269
 7054TIP3    H221127   6.299   0.397   4.647  0.1916  1.1405  1.7366
 7055TIP3   OH221128   1.585   3.366   0.594 -0.3905 -0.3166 -0.3289
 7055TIP3    H121129   1.565   3.307   0.522 -0.0299 -0.4312 -0.3384
 7055TIP3    H221130   1.565   3.454   0.560  2.8663  0.0343 -1.7961
 7056TIP3   OH221131   7.037   4.045   5.795 -0.3812  0.3659 -0.6557
 7056TIP3    H121132   7.007   4.136   5.787  2.0370  1.1326 -2.0930
 7056TIP3    H221133   6.962   3.998   5.830 -2.3490  2.5632 -1.6345
 7057TIP3   OH221134   2.724   0.916   4.070 -0.4538  0.3735  0.0324
 7057TIP3    H121135   2.686   0.975   4.135 -1.4530 -0.2530  0.0311
 7057TIP3    H221136   2.660   0.847   4.059  0.5623 -0.5629 -0.2007
 7058TIP3   OH221137   6.448   6.274   3.778  0.1969 -0.3893  0.4336
 7058TIP3    H121138   6.526   6.255   3.726 -0.0832 -0.5417  0.0665
 7058TIP3    H221139   6.461   6.363   3.809  0.3807 -0.3061  0.1220
 7059TIP3   OH221140   3.779   4.159   1.873  0.4200  0.4361 -0.9339
 7059TIP3    H121141   3.844   4.132   1.809  0.6446 -1.4759  0.0429
 7059TIP3    H221142   3.829   4.177   1.952 -0.1287  0.0022 -0.4794
 7060TIP3   OH221143   1.958   3.786   2.242 -0.3681  0.4639  0.0371
 7060TIP3    H121144   2.016   3.853   2.279 -0.1578 -0.1751  0.9116
 7060TIP3    H221145   1.939   3.816   2.153 -0.7512  1.9725  0.6068
 7061TIP3   OH221146   1.277   1.399   0.795 -0.3311  0.1343 -0.3437
 7061TIP3    H121147   1.278   1.351   0.878 -0.8344 -0.0008 -0.4144
 7061TIP3    H221148   1.211   1.354   0.742 -2.3666  2.1777  0.3385
 7062TIP3   OH221149   0.447   1.027   4.923 -0.3086  0.3150  0.3271
 7062TIP3    H121150   0.399   1.022   5.006 -1.0253  0.9495 -0.0363
 7062TIP3    H221151   0.484   1.116   4.922  0.6667 -0.0754  0.4793
 7063TIP3   OH221152   0.881   5.090   3.128 -0.0020  0.1168 -0.2199
 7063TIP3    H121153   0.955   5.149   3.135 -0.0576  0.2665 -0.8126
 7063TIP3    H221154   0.920   5.003   3.117  0.0895 -0.1966  2.1907
 7064TIP3   OH221155   4.709   0.522   1.026  0.2358  0.2843 -0.1057
 7064TIP3    H121156   4.713   0.616   1.044  0.9833  0.0472  1.1492
 7064TIP3    H221157   4.650   0.487   1.093 -0.6043 -0.0636 -1.0011
 7065TIP3   OH221158   1.827   4.348   0.315  0.0383 -0.1508 -0.5129
 7065TIP3    H121159   1.864   4.269   0.353 -1.6696 -0.8417 -0.2018
 7065TIP3    H221160   1.754   4.317   0.262 -1.7315  1.3084  0.9550
 7066TIP3   OH221161   1.257   5.521   5.596 -0.3001 -0.3317  0.1320
 7066TIP3    H121162   1.321   5.510   5.665  2.2769 -0.3396 -2.0924
 7066TIP3    H221163   1.264   5.443   5.542 -1.3071  0.2165 -0.8623
 7067TIP3   OH221164   2.989   0.576   2.253  0.0527 -0.2326 -0.1902
 7067TIP3    H121165   3.008   0.502   2.310  0.8425  0.1387  0.0382
 7067TIP3    H221166   3.063   0.636   2.266 -0.0799  0.1438 -1.1172
 7068TIP3   OH221167   7.212   3.783   2.888  0.5507  0.3444 -0.2196
 7068TIP3    H121168   7.178   3.710   2.835  1.1933  0.5546 -0.9250
 7068TIP3    H221169   7.146   3.852   2.879  1.0746  0.6953 -1.4659
 7069TIP3   OH221170   3.935   0.740   0.872  0.5199 -0.2622 -0.0305
 7069TIP3    H121171   4.029   0.759   0.876  0.3337  0.5351  3.5930
 7069TIP3    H221172   3.928   0.650   0.905 -0.0921  0.3645  1.6161
 7070TIP3   OH221173   6.103   4.069   1.374  0.0198 -0.0651 -0.0123
 7070TIP3    H121174   6.136   4.098   1.290 -0.6365 -0.6995 -0.5014
 7070TIP3    H221175   6.014   4.105   1.379 -0.0143 -0.1866  0.3218
 7071TIP3   OH221176   5.364   0.058   1.878  0.1640  0.1667 -0.0106
 7071TIP3    H121177   5.345  -0.025   1.833 -1.2031 -1.1533  2.7704
 7071TIP3    H221178   5.320   0.051   1.962  0.4118  3.5758  0.5621
 7072TIP3   OH221179   3.265   5.690   1.327  0.0893  0.2815  0.1540
 7072TIP3    H121180   3.179   5.657   1.354 -0.0503  0.5481  0.0395
 7072TIP3    H221181   3.296   5.739   1.403  0.6520 -0.7685  0.6257
 7073TIP3   OH221182   1.043   1.875   2.459  0.0660  0.0481 -0.0091
 7073TIP3    H121183   1.027   1.897   2.367 -2.9768  0.5080  0.5318
 7073TIP3    H221184   0.962   1.898   2.504  2.3988  2.7134  3.3613
 7074TIP3   OH221185   5.742   4.082   4.287  0.4515 -0.4254  0.1181
 7074TIP3    H121186   5.821   4.038   4.254  0.7221  0.2628 -0.1698
 7074TIP3    H221187   5.672   4.048   4.231  0.7710  0.0406 -0.5929
 7075TIP3   OH221188   5.283   5.119   5.365  0.1758 -0.0472  0.2804
 7075TIP3    H121189   5.193   5.085   5.358  0.7655 -1.6365  0.1049
 7075TIP3    H221190   5.283   5.197   5.309 -1.7806  1.5579  2.2804
 7076TIP3   OH221191   2.717   6.595   3.799  0.0889  0.5720  0.5922
 7076TIP3    H121192   2.680   6.521   3.847 -2.2816  0.9512 -0.4659
 7076TIP3    H221193   2.795   6.620   3.848  1.2735 -2.8942  0.7221
 7077TIP3   OH221194   6.113   0.025   5.279  0.6240 -0.4527  0.5206
 7077TIP3    H121195   6.196   0.063   5.253  0.0662  0.5118  0.1206
 7077TIP3    H221196   6.053   0.047   5.209  0.4323 -2.7334 -0.1159
 7078TIP3   OH221197   3.673   2.357   2.719  0.2918  0.1370 -0.6907
 7078TIP3    H121198   3.745   2.418   2.733  0.6533 -0.2960 -0.6414
 7078TIP3    H221199   3.602   2.411   2.684  0.4879  0.6468 -0.3208
 7079TIP3   OH221200   0.520   0.561   2.981 -0.1942 -0.3109  0.1608
 7079TIP3    H121201   0.588   0.523   3.038 -0.2011  0.5831  0.7977
 7079TIP3    H221202   0.533   0.656   2.990 -1.1859 -0.1433 -0.1425
 7080TIP3   OH221203   4.519   1.374   2.974  0.3955 -0.3099  0.0802
 7080TIP3    H121204   4.436   1.413   2.946  0.1114 -0.5937  0.5014
 7080TIP3    H221205   4.529   1.401   3.065  0.9847  0.0739 -0.0957
 7081TIP3   OH221206   1.709   3.423   5.521  0.3866  0.0528 -0.3184
 7081TIP3    H121207   1.682   3.369   5.446  1.4929 -1.3703  0.2425
 7081TIP3    H221208   1.737   3.505   5.483 -1.9014  0.5221 -1.1656
 7082TIP3   OH221209   4.378   3.561   1.328  0.4490 -0.5570 -0.5289
 7082TIP3    H121210   4.356   3.633   1.386 -0.9336 -3.1094  2.4174
 7082TIP3    H221211   4.295   3.536   1.288  0.4522 -1.7769  0.1569
 7083TIP3   OH221212   5.377   6.415   3.674 -0.3967 -0.1590  0.0928
 7083TIP3    H121213   5.391   6.439   3.766  3.2429  1.1496 -0.6411
 7083TIP3    H221214   5.404   6.492   3.625 -1.2010 -1.2120 -2.1415
 7084TIP3   OH221215   1.640   0.039   0.694 -0.5933  0.4186 -0.0042
 7084TIP3    H121216   1.725   0.057   0.653 -0.0902  1.3619  1.3958
 7084TIP3    H221217   1.576   0.080   0.636  0.0259  0.9224 -0.3339
 7085TIP3   OH221218   6.342   4.129   5.399 -0.3301 -0.1554  0.0071
 7085TIP3    H121219   6.349   4.061   5.331 -2.3220  0.8986 -1.3349
 7085TIP3    H221220   6.396   4.201   5.367  0.3445 -0.3881  0.5723
 7086TIP3   OH221221   4.022   2.070   0.601  0.0743 -0.6184 -0.2848
 7086TIP3    H121222   4.013   2.019   0.521 -0.3311 -1.5612  0.3474
 7086TIP3    H221223   4.107   2.113   0.592 -0.0317 -0.6015 -1.2799
 7087TIP3   OH221224   5.282   1.670   4.833 -0.3947  0.0137  0.3202
 7087TIP3    H121225   5.271   1.635   4.921  1.0683  1.6570  1.2333
 7087TIP3    H221226   5.243   1.605   4.776  0.2662 -2.0167  2.0470
 7088TIP3   OH221227   3.241   3.449   4.396  0.8308 -0.2505  0.1836
 7088TIP3    H121228   3.189   3.514   4.443  1.2706  0.3196 -0.1058
 7088TIP3    H221229   3.260   3.491   4.312  1.2900 -0.6736  0.0757
 7089TIP3   OH221230   1.927   0.397   3.157  0.0489  0.4292  0.1257
 7089TIP3    H121231   2.002   0.447   3.188  1.0467 -1.9369  1.8677
 7089TIP3    H221232   1.883   0.369   3.237 -1.8399  0.5002 -0.8460
 7090TIP3   OH221233   0.424   6.117   2.361 -0.5133  0.6765 -0.2156
 7090TIP3    H121234   0.363   6.051   2.393  0.7332 -0.1831  0.4986
 7090TIP3    H221235   0.449   6.087   2.274 -0.8950  0.8735 -0.3920
 7091TIP3   OH221236   6.417   1.649   3.513 -0.0479  0.2732  0.1582
 7091TIP3    H121237   6.326   1.674   3.530 -0.0739  0.8394 -0.7486
 7091TIP3    H221238   6.468   1.727   3.533  0.1385  0.2524 -0.2213
 7092TIP3   OH221239   4.788   0.258   3.286 -0.0403  0.2946  0.0082
 7092TIP3    H121240   4.861   0.197   3.295 -0.2248 -0.1557 -1.2908
 7092TIP3    H221241   4.815   0.335   3.335  1.1240 -0.0346 -0.0744
 7093TIP3   OH221242   7.090   0.102   5.748  0.2551  0.0783  0.3523
 7093TIP3    H121243   7.125   0.132   5.665 -0.3659 -1.3815 -0.4917
 7093TIP3    H221244   7.117   0.010   5.754 -2.0575 -0.6723  0.3664
 7094TIP3   OH221245   6.886   4.700   1.932  0.2830  0.1256 -0.2885
 7094TIP3    H121246   6.815   4.658   1.884 -0.7011  2.1333 -0.6480
 7094TIP3    H221247   6.844   4.739   2.008  0.9223  1.6015 -0.6659
 7095TIP3   OH221248   1.839   1.365   4.484 -0.7670  0.1841  0.2990
 7095TIP3    H121249   1.749   1.399   4.476 -0.5911  0.2478 -2.3241
 7095TIP3    H221250   1.890   1.441   4.514 -1.5395  0.1315  1.8825
 7096TIP3   OH221251   3.986   2.956   3.390  0.4148  0.0980 -0.6596
 7096TIP3    H121252   3.905   2.909   3.411  0.2566  0.8098  0.4066
 7096TIP3    H221253   4.053   2.913   3.443 -0.2432  2.8309  2.7223
 7097TIP3   OH221254   2.520   1.888   2.734 -0.3856 -0.2078 -0.1337
 7097TIP3    H121255   2.546   1.878   2.642 -2.0657 -0.6332 -0.5907
 7097TIP3    H221256   2.530   1.982   2.751 -1.1146  0.0685 -1.1128
 7098TIP3   OH221257   5.163   0.125   2.366  0.4865  0.2245  0.3381
 7098TIP3    H121258   5.230   0.167   2.312  1.2308  0.4794  1.4184
 7098TIP3    H221259   5.130   0.196   2.422  0.0989 -0.1369  0.5700
 7099TIP3   OH221260   1.466   0.309   5.356  0.5565  0.3393  0.3650
 7099TIP3    H121261   1.429   0.359   5.284  1.3158  0.4327  0.0368
 7099TIP3    H221262   1.426   0.223   5.349  1.0722  0.1623 -0.5371
 7100TIP3   OH221263   5.867   2.673   1.279 -0.2648  0.1059 -0.0580
 7100TIP3    H121264   5.774   2.682   1.258  0.0355  2.6810 -0.6924
 7100TIP3    H221265   5.911   2.666   1.194  0.2619  1.4865  0.0596
 7101TIP3   OH221266   4.279   5.495   1.030 -0.0392 -0.3257 -0.0751
 7101TIP3    H121267   4.237   5.409   1.039  1.3091 -1.1569 -1.3458
 7101TIP3    H221268   4.218   5.546   0.976 -0.6613 -0.6122  0.3501
 7102TIP3   OH221269   5.807   1.926   1.874 -0.3266 -0.5979 -0.2736
 7102TIP3    H121270   5.878   1.873   1.838 -0.2112 -1.1136  0.6923
 7102TIP3    H221271   5.832   2.017   1.855  0.2962 -0.8029 -0.4490
 7103TIP3   OH221272   2.320   0.210   2.003 -0.6478  0.0016  0.0310
 7103TIP3    H121273   2.363   0.216   1.918  0.1577 -0.0279  0.4350
 7103TIP3    H221274   2.389   0.226   2.067 -1.1544 -0.4143  0.6966
 7104TIP3   OH221275   4.525   2.192   1.437  0.3141 -0.3878  0.6301
 7104TIP3    H121276   4.577   2.223   1.512  0.0250 -0.3432  0.8131
 7104TIP3    H221277   4.482   2.113   1.469  1.3435 -1.2216  0.0467
 7105TIP3   OH221278   6.270   4.256   4.613  0.0054 -0.1842  0.4898
 7105TIP3    H121279   6.221   4.199   4.553  1.7142 -0.6558 -0.5111
 7105TIP3    H221280   6.224   4.339   4.608 -1.2447 -0.8518  0.2915
 7106TIP3   OH221281   5.441   1.199   0.533  0.4201 -0.4032  0.4361
 7106TIP3    H121282   5.407   1.286   0.510  1.1715 -0.4742 -1.1259
 7106TIP3    H221283   5.443   1.199   0.628  0.8065  1.4679  0.4830
 7107TIP3   OH221284   2.021   4.329   2.795 -0.5339  0.5310 -0.2954
 7107TIP3    H121285   2.040   4.244   2.836  0.6606 -0.1806 -2.2069
 7107TIP3    H221286   1.926   4.334   2.794 -0.7105 -1.7013 -1.8401
 7108TIP3   OH221287   7.035   3.766   1.997  0.5097  0.2108 -0.1518
 7108TIP3    H121288   6.968   3.821   2.037  1.1823  1.4786 -0.7171
 7108TIP3    H221289   7.050   3.805   1.911  0.0307 -1.6822 -1.1490
 7109TIP3   OH221290   5.803   6.310   5.767  0.2225  0.0174 -0.0380
 7109TIP3    H121291   5.749   6.234   5.748 -0.1573  0.0079  0.9882
 7109TIP3    H221292   5.840   6.336   5.683 -0.6897 -0.4989 -0.6083
 7110TIP3   OH221293   4.979   6.164   2.988  0.0015 -0.3036  0.0944
 7110TIP3    H121294   5.027   6.183   2.907  0.5676 -0.8882  0.2862
 7110TIP3    H221295   4.931   6.084   2.968 -0.1105 -0.2707  0.2343
 7111TIP3   OH221296   1.927   4.763   5.555  0.7621 -0.0120  0.5443
 7111TIP3    H121297   1.832   4.775   5.560  0.7569  2.3016 -2.2274
 7111TIP3    H221298   1.938   4.669   5.543 -1.4961 -0.0895 -2.0642
 7112TIP3   OH221299   4.933   6.073   0.302 -0.0010  0.8148  0.3535
 7112TIP3    H121300   5.026   6.094   0.300  0.4494 -0.7855  1.7288
 7112TIP3    H221301   4.916   6.048   0.393 -1.9496  1.7495  0.2900
 7113TIP3   OH221302   2.105   1.721   1.740 -0.1721 -0.2425 -0.0057
 7113TIP3    H121303   2.079   1.725   1.648  0.2514 -0.2639 -0.1283
 7113TIP3    H221304   2.198   1.744   1.739 -0.0620 -0.6767  0.3705
 7114TIP3   OH221305   0.431   2.721   3.048 -0.5130  0.3040  0.1484
 7114TIP3    H121306   0.398   2.671   3.122 -0.5938  0.8332  0.4771
 7114TIP3    H221307   0.514   2.758   3.079 -0.8162  0.9809  0.1754
 7115TIP3   OH221308   1.353   5.687   5.159  0.0173  0.0943 -0.0711
 7115TIP3    H121309   1.295   5.672   5.085  0.7109 -2.1024 -0.2684
 7115TIP3    H221310   1.302   5.739   5.221 -0.7379  1.5614 -1.8455
 7116TIP3   OH221311   6.030   6.769   4.108  0.4438 -0.0518 -0.1767
 7116TIP3    H121312   5.959   6.710   4.084  0.0566  1.1720 -2.3491
 7116TIP3    H221313   6.017   6.787   4.201 -1.6619 -0.4458 -0.3522
 7117TIP3   OH221314   4.240   0.849   1.653 -0.2584  0.3300  0.4997
 7117TIP3    H121315   4.193   0.857   1.736 -0.7710 -0.6685  0.3202
 7117TIP3    H221316   4.212   0.925   1.602  1.5669  2.0633  1.9337
 7118TIP3   OH221317   4.909   6.131   2.345  0.7103  0.4240 -0.0871
 7118TIP3    H121318   4.823   6.141   2.305  0.2904  0.0255  0.6981
 7118TIP3    H221319   4.891   6.121   2.438  1.7501  2.5616  0.3926
 7119TIP3   OH221320   5.501   2.821   0.386 -0.0727 -0.3894 -0.2158
 7119TIP3    H121321   5.530   2.869   0.464 -0.8947 -2.0976  1.2005
 7119TIP3    H221322   5.550   2.739   0.389  1.3957  0.2824 -2.6589
 7120TIP3   OH221323   3.585   4.024   0.621 -0.1994 -0.6168  0.2370
 7120TIP3    H121324   3.612   3.959   0.686  2.3992  0.0221 -0.0896
 7120TIP3    H221325   3.498   3.995   0.594 -1.0112 -1.4479  3.2484
 7121TIP3   OH221326   2.398   3.571   1.873 -0.4325 -0.0194 -0.1128
 7121TIP3    H121327   2.384   3.488   1.828 -0.0006 -0.2786  0.2244
 7121TIP3    H221328   2.365   3.555   1.962 -0.1661  0.1080  0.0076
 7122TIP3   OH221329   2.406   0.429   2.592 -0.0453 -0.1702 -0.2330
 7122TIP3    H121330   2.395   0.497   2.657  2.4606 -0.1522  0.2797
 7122TIP3    H221331   2.321   0.385   2.588 -1.0683  1.5915  0.9842
 7123TIP3   OH221332   1.381   2.060   4.051 -0.0349  0.5613  0.5703
 7123TIP3    H121333   1.415   2.144   4.083 -0.1039  0.4197  1.0251
 7123TIP3    H221334   1.305   2.042   4.106 -0.7565  0.7874 -0.3256
 7124TIP3   OH221335   5.592   1.534   3.029  0.3228 -0.5081 -0.3664
 7124TIP3    H121336   5.589   1.485   2.947  2.7135  0.3992 -1.0688
 7124TIP3    H221337   5.541   1.613   3.011 -0.9982 -1.2864 -0.2049
 7125TIP3   OH221338   4.800   5.455   3.804 -0.1877  0.2800 -0.4693
 7125TIP3    H121339   4.785   5.540   3.763 -0.1886 -0.2847 -1.6628
 7125TIP3    H221340   4.895   5.445   3.805 -0.1229  0.8075  0.7809
 7126TIP3   OH221341   3.112   4.872   4.366  0.6925 -0.3445  0.2924
 7126TIP3    H121342   3.080   4.960   4.383 -0.1165 -0.5746  0.0232
 7126TIP3    H221343   3.166   4.881   4.287 -2.1464 -0.6161 -1.8177
 7127TIP3   OH221344   2.087   5.443   3.329  1.0550 -0.3329  0.2671
 7127TIP3    H121345   2.070   5.457   3.236  0.9767 -2.5687 -0.1223
 7127TIP3    H221346   2.115   5.351   3.334 -0.0395 -0.6028  2.5880
 7128TIP3   OH221347   3.063   3.274   2.888  0.0787 -0.5987 -0.1902
 7128TIP3    H121348   3.077   3.325   2.808 -0.2243 -0.9904 -0.4940
 7128TIP3    H221349   3.110   3.193   2.874  1.0877 -0.1613  0.5531
 7129TIP3   OH221350   4.715   1.012   4.898 -0.5250 -0.0841  0.4468
 7129TIP3    H121351   4.775   0.938   4.909 -0.0391  0.3000  0.4371
 7129TIP3    H221352   4.694   1.012   4.804  2.4109  1.9686 -0.3707
 7130TIP3   OH221353   5.459   5.707   2.208 -0.0205 -0.6417  0.4381
 7130TIP3    H121354   5.540   5.693   2.256  0.5330 -0.4761 -0.4145
 7130TIP3    H221355   5.424   5.619   2.193  0.2652 -0.7475  0.3802
 7131TIP3   OH221356   2.499   2.160   3.851 -0.1132 -0.1536  0.2640
 7131TIP3    H121357   2.570   2.118   3.803 -0.4343 -1.0287  0.5279
 7131TIP3    H221358   2.542   2.206   3.923  0.2611  0.1492 -0.1458
 7132TIP3   OH221359   2.010   5.263   4.433 -0.5496  0.0993 -0.3367
 7132TIP3    H121360   1.991   5.340   4.487 -0.5454 -0.1489  0.0175
 7132TIP3    H221361   2.020   5.191   4.495  3.2142  0.4689 -0.2724
 7133TIP3   OH221362   7.134   1.129   0.212 -0.1366  0.3193 -0.7159
 7133TIP3    H121363   7.115   1.038   0.189  0.8396 -0.2500  0.6072
 7133TIP3    H221364   7.048   1.168   0.229 -0.4457 -1.2030  1.6257
 7134TIP3   OH221365   6.644   1.649   2.343 -0.3314  0.0753 -0.5888
 7134TIP3    H121366   6.663   1.643   2.437 -1.6123 -1.0344 -0.3724
 7134TIP3    H221367   6.717   1.700   2.308  0.4073  0.1470  0.9360
 7135TIP3   OH221368   0.503   2.706   4.686 -0.3422 -0.2682  0.4178
 7135TIP3    H121369   0.456   2.717   4.604 -0.6792  0.8778  0.7357
 7135TIP3    H221370   0.583   2.660   4.662 -1.2998 -1.6377 -0.2334
 7136TIP3   OH221371   3.166   2.317   0.405 -0.3138 -0.3399 -0.1645
 7136TIP3    H121372   3.096   2.313   0.470 -0.8362  1.8262 -0.5076
 7136TIP3    H221373   3.245   2.334   0.456 -0.1882 -1.7276  0.1337
 7137TIP3   OH221374   4.860   0.177   4.528  0.6719  0.2439  0.3622
 7137TIP3    H121375   4.811   0.241   4.476 -0.5108 -0.0908  1.0277
 7137TIP3    H221376   4.877   0.105   4.467  0.6700  0.5246  0.0260
 7138TIP3   OH221377   3.267   6.418   0.073  0.3663  0.0148 -0.5740
 7138TIP3    H121378   3.271   6.513   0.066 -0.8759  0.3617  1.9938
 7138TIP3    H221379   3.287   6.400   0.165 -1.6304 -1.9888 -0.4364
 7139TIP3   OH221380   5.739   2.661   5.158  0.6203  0.3219 -0.3136
 7139TIP3    H121381   5.691   2.599   5.213  1.1225  0.3809  0.1989
 7139TIP3    H221382   5.720   2.633   5.068  1.4831 -1.0876 -0.0894
 7140TIP3   OH221383   1.653   5.776   2.362  0.9487 -0.5943  0.2976
 7140TIP3    H121384   1.568   5.792   2.321  0.8742  0.8856  0.9836
 7140TIP3    H221385   1.655   5.835   2.437  2.0885 -1.4994  1.0063
 7141TIP3   OH221386   1.605   2.778   5.001  0.3081  0.2439  1.3111
 7141TIP3    H121387   1.545   2.849   5.023  0.3354  0.6347  0.2045
 7141TIP3    H221388   1.549   2.708   4.967  0.3504  0.0441  1.6522
 7142TIP3   OH221389   5.558   2.992   1.955  0.8249  0.5380 -0.4758
 7142TIP3    H121390   5.633   3.021   1.903  0.2051  3.1304 -0.0506
 7142TIP3    H221391   5.486   2.985   1.892  0.6944  1.1261 -0.3969
 7143TIP3   OH221392   1.440   3.385   4.323 -0.3290 -0.2914  0.2776
 7143TIP3    H121393   1.358   3.396   4.371 -0.7319 -0.7883 -0.2821
 7143TIP3    H221394   1.446   3.291   4.308  1.2079 -0.4810  1.7841
 7144TIP3   OH221395   6.901   1.673   3.979 -0.0596 -0.0943  0.1347
 7144TIP3    H121396   6.974   1.692   3.921 -0.3902  0.0851 -0.2260
 7144TIP3    H221397   6.846   1.751   3.976  0.6561  0.5358  1.8320
 7145TIP3   OH221398   3.460   2.138   4.760  0.3200 -0.6569 -0.3456
 7145TIP3    H121399   3.436   2.186   4.839  0.5609  1.1340 -1.3045
 7145TIP3    H221400   3.537   2.183   4.727 -0.6974 -0.3469 -2.4526
 7146TIP3   OH221401   1.369   2.917   2.523  0.0524  0.0064 -0.3673
 7146TIP3    H121402   1.336   2.829   2.545 -0.9263  0.4008 -0.2154
 7146TIP3    H221403   1.463   2.912   2.541 -0.1722 -0.6851  0.7394
 7147TIP3   OH221404   1.730   2.425   4.015 -0.4879 -0.7516  0.5042
 7147TIP3    H121405   1.820   2.448   4.039  1.1999 -3.1635 -2.7532
 7147TIP3    H221406   1.739   2.349   3.958 -4.6667 -1.1604  0.0797
 7148TIP3   OH221407   0.066   4.311   4.006  0.2107 -0.4319  0.2630
 7148TIP3    H121408  -0.012   4.360   3.980 -0.1690 -1.8794 -1.5613
 7148TIP3    H221409   0.120   4.309   3.927  1.2189 -1.0716  0.9541
 7149TIP3   OH221410   5.720   3.811   5.600  0.3165  0.2809  0.6970
 7149TIP3    H121411   5.725   3.738   5.662  1.9947  0.9804  1.4511
 7149TIP3    H221412   5.739   3.889   5.653 -1.5127  1.3055 -0.0794
 7150TIP3   OH221413   3.461   2.779   1.211 -0.0825 -0.1481 -0.1651
 7150TIP3    H121414   3.425   2.694   1.184  1.2833 -0.4031 -1.2901
 7150TIP3    H221415   3.555   2.762   1.221 -0.0596  0.7631  1.5830
 7151TIP3   OH221416   4.533   2.725   0.777  0.2760  0.2184 -0.3147
 7151TIP3    H121417   4.537   2.631   0.793 -1.0049  0.0825 -0.6955
 7151TIP3    H221418   4.460   2.736   0.717 -0.4972  1.5957  0.8217
 7152TIP3   OH221419   5.365   5.702   4.234  0.0836 -0.0375 -0.2274
 7152TIP3    H121420   5.458   5.721   4.230  0.2880 -1.0383 -0.5298
 7152TIP3    H221421   5.346   5.656   4.152 -0.5153 -0.5162  0.1737
 7153TIP3   OH221422   5.960   5.587   4.932  0.2186 -0.1976  0.3517
 7153TIP3    H121423   6.024   5.517   4.938  1.6384  1.0281  0.1386
 7153TIP3    H221424   5.962   5.629   5.019  0.7213  0.6777 -0.0669
 7154TIP3   OH221425   0.501   4.974   3.373  0.0990 -0.2933  0.5173
 7154TIP3    H121426   0.432   4.944   3.432  0.8813 -2.5347  0.3643
 7154TIP3    H221427   0.470   4.952   3.286  0.5924 -0.4135  0.3721
 7155TIP3   OH221428   7.065   3.042   0.174  0.4588 -0.1518 -0.2349
 7155TIP3    H121429   7.016   3.071   0.251  2.2156 -2.1368  1.7990
 7155TIP3    H221430   7.129   3.111   0.158 -0.4143  0.6241 -0.4134
 7156TIP3   OH221431   5.948   3.022   5.244 -0.4598 -0.1366 -0.4273
 7156TIP3    H121432   5.898   2.979   5.175 -1.2836 -0.1088  0.1346
 7156TIP3    H221433   6.039   2.998   5.227 -0.9002 -2.3075  0.0038
 7157TIP3   OH221434   6.288   4.875   0.564  0.3126 -0.0298 -0.3856
 7157TIP3    H121435   6.231   4.819   0.616  1.5113 -2.4858 -1.5517
 7157TIP3    H221436   6.361   4.896   0.623  1.0900 -1.8365 -0.6426
 7158TIP3   OH221437   0.969   0.559   5.844 -0.7307 -0.1511 -0.0109
 7158TIP3    H121438   1.017   0.480   5.869  1.5977  0.6489 -1.6086
 7158TIP3    H221439   0.984   0.620   5.917  3.1577  1.0104 -1.5405
 7159TIP3   OH221440   3.550   3.023   2.380 -0.0632  0.2152 -0.0051
 7159TIP3    H121441   3.602   2.947   2.354 -0.0618  0.2692 -0.1599
 7159TIP3    H221442   3.540   3.014   2.475  1.1360  0.7720  0.1926
 7160TIP3   OH221443   3.668   1.658   1.711  0.0001 -0.2463  0.1244
 7160TIP3    H121444   3.600   1.670   1.777  0.3173 -0.0125  0.4094
 7160TIP3    H221445   3.655   1.568   1.679 -1.4015  0.2943 -0.9237
 7161TIP3   OH221446   5.126   5.917   1.494  0.4942 -1.0307 -0.1615
 7161TIP3    H121447   5.182   5.951   1.564  0.7831 -1.6922 -0.0644
 7161TIP3    H221448   5.105   5.828   1.521  0.8249 -1.3867 -1.0317
 7162TIP3   OH221449   5.533   6.133   3.753 -0.1798  0.5171  0.0672
 7162TIP3    H121450   5.583   6.192   3.697  1.2110 -0.5572  0.1450
 7162TIP3    H221451   5.516   6.185   3.832  2.5485  0.3246  0.8810
 7163TIP3   OH221452   5.686   5.676   2.376 -0.2095 -0.3926 -0.5907
 7163TIP3    H121453   5.775   5.645   2.361 -0.1045 -1.3187  1.5251
 7163TIP3    H221454   5.696   5.751   2.435 -0.8080 -0.5935 -0.2164
 7164TIP3   OH221455   5.382   6.579   4.854 -0.4480  0.3746 -0.0499
 7164TIP3    H121456   5.311   6.632   4.818 -0.6768  1.2286  1.5836
 7164TIP3    H221457   5.341   6.495   4.874 -0.5502  0.2392 -0.7900
 7165TIP3   OH221458   0.733   4.787   3.343 -0.0979 -0.5997  0.1477
 7165TIP3    H121459   0.645   4.770   3.310  0.2219  1.0667 -1.7639
 7165TIP3    H221460   0.728   4.877   3.376  0.8534 -0.5613  0.2039
 7166TIP3   OH221461   2.004   4.385   3.711 -0.8259 -0.6445 -0.9672
 7166TIP3    H121462   1.918   4.375   3.671 -0.6549 -0.7775 -1.3056
 7166TIP3    H221463   2.042   4.462   3.667 -1.1881  0.0711 -0.0710
 7167TIP3   OH221464   7.057   3.464   5.512 -0.0841  0.0954  0.2223
 7167TIP3    H121465   6.972   3.485   5.473  0.6181  0.6778 -1.0333
 7167TIP3    H221466   7.047   3.486   5.605 -1.1032  0.7524 -0.0309
 7168TIP3   OH221467   3.670   3.247   5.764 -0.4570 -0.1065 -0.6284
 7168TIP3    H121468   3.683   3.296   5.846 -0.0109 -0.8733 -0.2238
 7168TIP3    H221469   3.576   3.237   5.757 -0.7918  2.8862 -1.9876
 7169TIP3   OH221470   3.857   0.424   4.400 -0.3320 -0.7563  0.2931
 7169TIP3    H121471   3.919   0.496   4.401 -1.3640  0.4135 -3.2250
 7169TIP3    H221472   3.911   0.345   4.398  0.8682 -0.0238  1.9202
 7170TIP3   OH221473   0.455   1.470   5.329 -0.2123  0.0486  0.2157
 7170TIP3    H121474   0.531   1.445   5.278  0.5903  1.1492  0.8320
 7170TIP3    H221475   0.426   1.553   5.290 -1.7886 -0.8789 -0.7128
 7171TIP3   OH221476   7.193   4.685   2.997 -0.2537 -0.2058  0.0786
 7171TIP3    H121477   7.159   4.748   3.061 -0.6796  0.3602 -0.6846
 7171TIP3    H221478   7.133   4.611   3.004 -0.6107  0.0680 -0.0286
 7172TIP3   OH221479   6.313   4.228   2.169 -0.3174 -0.1254 -0.5858
 7172TIP3    H121480   6.334   4.135   2.181  0.3784  0.2216  1.1320
 7172TIP3    H221481   6.386   4.275   2.209 -0.9435  1.1634 -0.9006
 7173TIP3   OH221482   3.194   2.110   5.614 -0.2141  0.0330  0.0099
 7173TIP3    H121483   3.164   2.067   5.694  1.5617 -0.2092  0.5753
 7173TIP3    H221484   3.198   2.203   5.637  0.3390 -0.0418  0.2171
 7174TIP3   OH221485   4.109   3.563   2.756  0.2925  0.4721 -0.4435
 7174TIP3    H121486   4.173   3.548   2.825  1.0672 -2.3768 -1.6421
 7174TIP3    H221487   4.024   3.545   2.796  0.4994  1.1829  0.3391
 7175TIP3   OH221488   5.345   3.214   4.567 -0.0044  0.1400 -0.4650
 7175TIP3    H121489   5.255   3.247   4.565 -1.0748 -2.3900  0.4478
 7175TIP3    H221490   5.338   3.124   4.534  1.8979 -0.6737  1.1149
 7176TIP3   OH221491   0.855   0.804   0.905  0.2802  0.2275 -0.2329
 7176TIP3    H121492   0.827   0.725   0.953 -3.8448  1.7706  0.3722
 7176TIP3    H221493   0.819   0.792   0.817 -0.4504  1.3772 -0.1151
 7177TIP3   OH221494   4.904   6.352   4.836 -0.4872  0.1834 -0.0935
 7177TIP3    H121495   4.905   6.256   4.828 -1.3192  0.1366  0.2641
 7177TIP3    H221496   4.869   6.382   4.752  1.7492  0.3149 -1.0660
 7178TIP3   OH221497   0.945   2.597   5.174 -0.3068  0.2171 -0.3762
 7178TIP3    H121498   0.960   2.690   5.162 -0.2583  0.1911 -0.5133
 7178TIP3    H221499   0.988   2.555   5.099  0.2911  0.0321  0.0660
 7179TIP3   OH221500   2.210   0.162   3.947  0.5746 -0.2605  0.0650
 7179TIP3    H121501   2.129   0.166   3.896  0.6665  0.5263 -0.0215
 7179TIP3    H221502   2.209   0.241   4.000  0.1425 -1.3790  1.8251
 7180TIP3   OH221503   5.735   6.534   3.717  0.5937 -0.3404  0.2164
 7180TIP3    H121504   5.725   6.594   3.642 -0.8240 -0.4228  0.3202
 7180TIP3    H221505   5.693   6.453   3.689  1.4767 -0.9192  0.5200
 7181TIP3   OH221506   6.536   1.999   2.858  0.0568  0.0841 -0.0592
 7181TIP3    H121507   6.576   2.009   2.944  0.6657 -0.2530 -0.2999
 7181TIP3    H221508   6.599   2.037   2.798  0.3909 -1.1777 -0.5317
 7182TIP3   OH221509   1.712   1.561   4.186 -0.6842  1.1232 -0.4507
 7182TIP3    H121510   1.791   1.528   4.144  0.9054  2.8587  0.9693
 7182TIP3    H221511   1.703   1.508   4.265 -2.1488 -0.3674 -1.5345
 7183TIP3   OH221512   2.817   5.137   4.682 -0.3065  0.3312 -0.3354
 7183TIP3    H121513   2.825   5.210   4.743 -0.4682  1.8180 -1.9962
 7183TIP3    H221514   2.754   5.078   4.724 -1.1369  1.7508  0.5243
 7184TIP3   OH221515   2.034   2.338   5.585 -0.4248 -0.1051 -0.3129
 7184TIP3    H121516   1.980   2.320   5.509 -0.6302 -0.8226 -0.0021
 7184TIP3    H221517   2.018   2.431   5.604 -0.5912  0.0040 -0.9595
 7185TIP3   OH221518   3.352   2.657   4.136 -0.2216 -0.5095  0.1845
 7185TIP3    H121519   3.362   2.598   4.210  0.3403 -0.4956  0.1266
 7185TIP3    H221520   3.286   2.720   4.163  0.2837 -0.2503  0.8419
 7186TIP3   OH221521   7.031   2.870   3.787  0.0771  0.3433 -0.0271
 7186TIP3    H121522   6.976   2.829   3.721  0.4824 -0.1640 -0.0598
 7186TIP3    H221523   7.080   2.797   3.826  1.3054  0.8620 -0.5466
 7187TIP3   OH221524   6.995   3.645   2.621  0.2243  0.3622  0.0572
 7187TIP3    H121525   6.920   3.602   2.662  0.1230 -0.2952 -0.7808
 7187TIP3    H221526   6.988   3.621   2.528  0.4021  1.8620 -0.3654
 7188TIP3   OH221527   4.313   3.247   2.004 -0.0921  0.2364  0.0375
 7188TIP3    H121528   4.402   3.214   1.989  0.1727  0.0286  1.7905
 7188TIP3    H221529   4.318   3.288   2.091 -2.0007 -0.9378  0.7581
 7189TIP3   OH221530   6.758   0.732   1.505  0.1870 -0.0587  0.0503
 7189TIP3    H121531   6.835   0.718   1.560 -0.2067 -1.0305  0.3782
 7189TIP3    H221532   6.786   0.707   1.417  0.1797 -0.6749  0.2169
 7190TIP3   OH221533   4.209   5.334   2.240 -0.1507  0.2514  0.3995
 7190TIP3    H121534   4.253   5.408   2.282  0.8912 -1.1472  1.9103
 7190TIP3    H221535   4.232   5.342   2.148  2.4621  0.1873  0.9578
 7191TIP3   OH221536   2.702   0.548   2.291  0.0421 -0.3991  0.2607
 7191TIP3    H121537   2.792   0.544   2.257  0.3150  0.2519  0.8664
 7191TIP3    H221538   2.660   0.617   2.241  0.1922 -0.0146  0.6536
 7192TIP3   OH221539   2.431   4.836   5.019  0.4103  0.2413  0.8622
 7192TIP3    H121540   2.463   4.746   5.034 -0.3762 -0.0603  0.7671
 7192TIP3    H221541   2.373   4.853   5.093 -1.1979 -0.1738 -0.2432
 7193TIP3   OH221542   6.822   5.793   0.830 -0.2799 -0.0708  0.1961
 7193TIP3    H121543   6.883   5.818   0.899  0.9496 -2.1398 -0.0579
 7193TIP3    H221544   6.826   5.865   0.767  3.1603 -0.7774 -0.5783
 7194TIP3   OH221545   7.019   4.278   2.815 -0.2146 -0.1559 -0.0497
 7194TIP3    H121546   7.042   4.301   2.905 -0.9600  0.0745  0.0941
 7194TIP3    H221547   6.926   4.301   2.808  0.0670  0.7112 -1.1762
 7195TIP3   OH221548   4.005   5.675   0.353 -0.0513 -0.4043 -0.2814
 7195TIP3    H121549   4.016   5.582   0.369  0.8896  0.0187  1.8635
 7195TIP3    H221550   3.970   5.680   0.263  1.5705 -2.6849 -1.1286
 7196TIP3   OH221551   2.079   0.345   1.960 -0.0518 -0.1002 -0.0776
 7196TIP3    H121552   2.147   0.280   1.978 -0.3110 -0.6142 -0.9204
 7196TIP3    H221553   2.052   0.376   2.047  0.9968 -0.1542  0.2820
 7197TIP3   OH221554   6.325   2.606   0.311 -0.5040  0.0413 -0.5813
 7197TIP3    H121555   6.232   2.587   0.300 -0.3492 -1.7645  0.7035
 7197TIP3    H221556   6.328   2.667   0.385 -0.6583  0.3768 -0.8439
 7198TIP3   OH221557   0.852   6.502   1.445  0.0737 -0.2793  0.7073
 7198TIP3    H121558   0.870   6.421   1.398 -0.0452 -0.0555  0.2732
 7198TIP3    H221559   0.775   6.481   1.499  0.7583 -0.8100  1.5064
 7199TIP3   OH221560   6.433   2.550   2.987 -0.7913  0.0095 -0.0010
 7199TIP3    H121561   6.522   2.557   3.020 -0.2088  0.8928 -1.6627
 7199TIP3    H221562   6.423   2.457   2.964  0.0725  0.0957 -0.7641
 7200TIP3   OH221563   3.488   5.363   1.530 -0.6099  0.0574  0.1392
 7200TIP3    H121564   3.449   5.307   1.597 -0.9512 -0.3888 -0.4222
 7200TIP3    H221565   3.567   5.399   1.571  0.7894 -2.4740 -0.1464
 7201TIP3   OH221566   2.837   5.340   1.792  0.3591 -0.3467  0.1131
 7201TIP3    H121567   2.748   5.358   1.762  0.4010 -0.1688  0.0927
 7201TIP3    H221568   2.892   5.361   1.716  0.3433 -1.4160 -0.2106
 7202TIP3   OH221569   2.872   2.014   4.398  0.6618  0.2361  0.0115
 7202TIP3    H121570   2.793   2.068   4.401  1.2121  1.2058 -1.6168
 7202TIP3    H221571   2.879   1.977   4.486 -2.1564 -0.6986 -0.0498
 7203TIP3   OH221572   5.519   1.917   0.623 -0.7269 -0.2623 -0.5096
 7203TIP3    H121573   5.547   1.843   0.678 -0.6585  0.3175  0.2544
 7203TIP3    H221574   5.519   1.992   0.683  1.5403  0.8682 -1.8092
 7204TIP3   OH221575   2.329   2.222   0.744 -0.1217 -0.2070  0.1356
 7204TIP3    H121576   2.238   2.244   0.726  0.2031  1.3938  0.2956
 7204TIP3    H221577   2.370   2.215   0.658 -0.0304  0.8414  0.0773
 7205TIP3   OH221578   2.783   2.419   4.167 -0.3633 -0.6732  0.0615
 7205TIP3    H121579   2.861   2.396   4.217 -0.0327 -0.6183 -0.4225
 7205TIP3    H221580   2.772   2.513   4.182  1.4641  0.0018 -2.3016
 7206TIP3   OH221581   2.159   4.484   0.328 -0.6884  0.2651 -0.0200
 7206TIP3    H121582   2.247   4.502   0.360 -0.7795  1.3354 -0.3374
 7206TIP3    H221583   2.152   4.388   0.329  0.9075  0.1102 -1.1557
 7207TIP3   OH221584   3.621   5.618   5.077  0.7742  0.0219  0.6402
 7207TIP3    H121585   3.548   5.576   5.123  0.1019  2.0107  1.4715
 7207TIP3    H221586   3.587   5.702   5.048  2.1087  0.0865 -0.9115
 7208TIP3   OH221587   1.516   6.680   3.203 -0.9341 -0.0557 -0.0142
 7208TIP3    H121588   1.429   6.711   3.227 -0.6850  0.4075  0.3047
 7208TIP3    H221589   1.572   6.705   3.277 -0.1374  1.4822 -1.0811
 7209TIP3   OH221590   5.828   6.081   5.077 -0.2282 -0.5081 -0.1077
 7209TIP3    H121591   5.776   6.121   5.146  1.5834 -1.0739  1.6873
 7209TIP3    H221592   5.828   6.146   5.006  0.4261  1.5616  1.6581
 7210TIP3   OH221593   6.794   1.099   0.152  0.7669 -0.0107 -0.4833
 7210TIP3    H121594   6.740   1.100   0.072 -1.0560 -0.3611  0.6728
 7210TIP3    H221595   6.862   1.034   0.134 -0.8257 -1.6084 -1.0396
 7211TIP3   OH221596   3.411   2.931   1.662 -0.0659 -0.5771 -0.1451
 7211TIP3    H121597   3.389   2.838   1.664  1.1544 -0.8947 -0.4067
 7211TIP3    H221598   3.368   2.968   1.739  0.1006 -1.5206  0.4091
 7212TIP3   OH221599   3.275   3.484   4.673 -0.7111 -0.7481  0.1891
 7212TIP3    H121600   3.322   3.489   4.589 -1.2596 -2.2922 -0.2466
 7212TIP3    H221601   3.338   3.445   4.733 -0.7962 -0.9769  0.1275
 7213TIP3   OH221602   1.977   5.215   2.130 -0.7041 -0.4542 -0.0979
 7213TIP3    H121603   1.945   5.147   2.070 -0.9537 -0.3494 -0.0851
 7213TIP3    H221604   1.966   5.297   2.082 -0.8965 -0.3723  0.0854
 7214TIP3   OH221605   6.221   6.217   4.530  0.1987  0.3689  0.2350
 7214TIP3    H121606   6.140   6.166   4.538  0.3232  0.3817  1.7732
 7214TIP3    H221607   6.190   6.308   4.523 -0.0143  0.1700 -2.3327
 7215TIP3   OH221608   0.732   3.573   2.565 -0.3086  0.1151 -0.0967
 7215TIP3    H121609   0.710   3.497   2.511 -0.3346 -1.2199  1.6644
 7215TIP3    H221610   0.756   3.535   2.650  1.6701  1.9615  0.2608
 7216TIP3   OH221611   6.985   6.192   1.384  0.1573 -0.1973 -0.6265
 7216TIP3    H121612   6.986   6.177   1.478 -0.0587 -1.4623 -0.8062
 7216TIP3    H221613   7.006   6.285   1.374 -0.1814  0.0338  0.6763
 7217TIP3   OH221614   4.780   0.570   0.211 -0.2676  0.4977  0.1768
 7217TIP3    H121615   4.811   0.562   0.121  0.9622 -0.9075  0.6793
 7217TIP3    H221616   4.792   0.662   0.233 -0.9418  0.9449 -1.1946
 7218TIP3   OH221617   3.493   2.989   0.557  0.1816 -0.4410  0.1778
 7218TIP3    H121618   3.521   3.007   0.467  1.2321 -0.5097  0.4797
 7218TIP3    H221619   3.398   2.979   0.551  0.0079  1.2862 -0.6522
 7219TIP3   OH221620   1.796   6.755   3.141  0.3652 -0.3963 -0.2152
 7219TIP3    H121621   1.756   6.669   3.128  0.9507 -0.6503 -0.3627
 7219TIP3    H221622   1.866   6.760   3.076 -0.3333  0.6258 -0.9053
 7220TIP3   OH221623   6.813   5.082   2.757  0.1544 -0.1670 -0.1218
 7220TIP3    H121624   6.769   5.002   2.729 -0.1471  0.8904 -3.1050
 7220TIP3    H221625   6.872   5.103   2.685  0.1161  2.3494  0.4831
 7221TIP3   OH221626   4.626   1.996   1.247 -0.1672 -0.1472  0.2803
 7221TIP3    H121627   4.563   2.067   1.258 -1.3019 -1.3718  2.3114
 7221TIP3    H221628   4.699   2.019   1.303 -0.3161 -0.3483  0.5570
 7222TIP3   OH221629   5.475   4.402   5.325 -0.2806 -0.3429  0.0009
 7222TIP3    H121630   5.453   4.315   5.357  0.2813 -0.8195 -0.8539
 7222TIP3    H221631   5.422   4.462   5.377 -0.7690 -1.2059  0.5072
 7223TIP3   OH221632   1.887   0.995   0.913 -0.0454  0.4389  0.4052
 7223TIP3    H121633   1.831   0.957   0.845  1.5727 -2.5727  0.5894
 7223TIP3    H221634   1.974   1.000   0.872  0.2179  2.1453  1.0962
 7224TIP3   OH221635   4.758   6.592   3.829 -0.1375 -0.0895  0.5403
 7224TIP3    H121636   4.805   6.665   3.870 -0.6661 -0.2385  1.4309
 7224TIP3    H221637   4.689   6.634   3.778  0.3293  0.0835  0.0409
 7225TIP3   OH221638   4.445   6.659   1.888  1.5099 -0.1031 -0.3554
 7225TIP3    H121639   4.482   6.597   1.952 -0.0718 -1.5116 -0.7112
 7225TIP3    H221640   4.485   6.634   1.805  1.4745 -0.1128 -0.3695
 7226TIP3   OH221641   4.046   3.341   0.828 -0.3785  0.3805 -0.0790
 7226TIP3    H121642   4.050   3.293   0.745 -2.4594 -0.6512  0.3494
 7226TIP3    H221643   4.030   3.432   0.803 -0.0782  0.2352 -0.8195
 7227TIP3   OH221644   2.348   4.128   2.602  0.5174  0.1902  0.0052
 7227TIP3    H121645   2.375   4.218   2.585  0.0501  0.4425  0.5898
 7227TIP3    H221646   2.430   4.080   2.609  0.8846  1.0556  2.3835
 7228TIP3   OH221647   0.955   3.649   2.405  0.0840 -0.1151  0.6075
 7228TIP3    H121648   1.013   3.573   2.393  0.4716 -0.1084  2.3156
 7228TIP3    H221649   0.903   3.628   2.482 -0.6789  0.8362  0.3724
 7229TIP3   OH221650   3.933   1.930   2.738  0.2326  0.5267  0.0343
 7229TIP3    H121651   3.930   2.020   2.705  1.0524  0.3051 -0.6840
 7229TIP3    H221652   3.968   1.938   2.826  1.7955  0.7927 -0.5823
 7230TIP3   OH221653   5.073   1.040   4.562  0.2858  0.2324 -0.1656
 7230TIP3    H121654   5.141   1.107   4.576 -1.6820  3.0017 -2.6268
 7230TIP3    H221655   4.992   1.081   4.592 -0.6740 -2.2127  0.8406
 7231TIP3   OH221656   1.380   1.329   1.824  0.1769 -0.3568 -0.2590
 7231TIP3    H121657   1.292   1.364   1.811 -1.4068 -2.4711  3.2692
 7231TIP3    H221658   1.415   1.380   1.897  1.5588 -0.1914 -0.9994
 7232TIP3   OH221659   0.172   1.270   3.117 -0.2520  0.2883  0.0433
 7232TIP3    H121660   0.264   1.263   3.139 -0.3296 -1.6163 -0.0960
 7232TIP3    H221661   0.170   1.331   3.043  0.9341  0.0627 -0.1932
 7233TIP3   OH221662   1.081   5.887   3.801 -0.1251  0.8249  0.7287
 7233TIP3    H121663   1.066   5.978   3.828 -2.4725  0.1550  1.9179
 7233TIP3    H221664   1.102   5.841   3.882 -0.7773 -0.0230  0.4276
 7234TIP3   OH221665   1.460   5.082   0.700  0.1656  0.0074 -0.0822
 7234TIP3    H121666   1.452   5.087   0.605 -0.7671  0.0597 -0.0030
 7234TIP3    H221667   1.465   5.174   0.729  0.6966 -0.0116 -0.0872
 7235TIP3   OH221668   5.384   4.509   5.849 -0.2068 -0.0585 -0.1732
 7235TIP3    H121669   5.321   4.565   5.804 -1.0470 -1.0560 -0.2647
 7235TIP3    H221670   5.380   4.426   5.802 -0.9856 -1.0831  1.6228
 7236TIP3   OH221671   0.202   0.607   0.372 -0.4537  0.3340  0.2455
 7236TIP3    H121672   0.199   0.643   0.460  0.1250  1.7087 -0.2746
 7236TIP3    H221673   0.268   0.538   0.376  0.5017  1.2403  0.6019
 7237TIP3   OH221674   6.887   3.161   1.057 -0.1474 -0.3272 -0.0357
 7237TIP3    H121675   6.813   3.219   1.038  0.5072  0.9663  1.1461
 7237TIP3    H221676   6.961   3.220   1.073  0.3427 -1.4014  2.1596
 7238TIP3   OH221677   1.487   5.780   1.155  0.2789  0.1918 -0.2669
 7238TIP3    H121678   1.558   5.784   1.091  1.1001  1.1375  0.6617
 7238TIP3    H221679   1.483   5.868   1.192  1.2914 -0.8130  2.4998
 7239TIP3   OH221680   2.311   5.895   5.561 -0.1352  0.2838  0.3218
 7239TIP3    H121681   2.261   5.837   5.618 -0.4470  0.0142 -0.2147
 7239TIP3    H221682   2.268   5.980   5.570  1.8074  1.1210  3.0274
 7240TIP3   OH221683   4.414   3.666   5.085 -0.2348 -0.0580 -0.3263
 7240TIP3    H121684   4.500   3.708   5.085 -0.6242  0.9422  2.3124
 7240TIP3    H221685   4.355   3.732   5.122 -1.6044 -1.6696  0.4926
 7241TIP3   OH221686   6.938   5.750   0.074 -0.2013  0.5123  0.1315
 7241TIP3    H121687   6.998   5.740   0.148  0.7304  2.8318 -0.2401
 7241TIP3    H221688   6.964   5.832   0.033 -0.1935 -1.0506 -3.2555
 7242TIP3   OH221689   4.245   4.427   5.700  0.4176 -0.0363 -0.5141
 7242TIP3    H121690   4.220   4.403   5.610  0.5912  0.0201 -0.5773
 7242TIP3    H221691   4.167   4.407   5.752  0.8057 -1.4952 -0.4406
 7243TIP3   OH221692   1.330   4.078   1.802  0.3165  0.2462 -0.1692
 7243TIP3    H121693   1.306   4.012   1.867  1.8869  0.0689  0.2941
 7243TIP3    H221694   1.314   4.162   1.846 -0.1480  0.1499 -0.1539
 7244TIP3   OH221695   4.568   4.290   0.443 -0.4863  0.8426  0.4107
 7244TIP3    H121696   4.623   4.348   0.391  1.6156  0.1888  1.8016
 7244TIP3    H221697   4.512   4.348   0.494  0.0661  1.5850  0.1887
 7245TIP3   OH221698   1.252   4.660   1.209  0.3098 -0.1122  0.2767
 7245TIP3    H121699   1.279   4.669   1.301  2.4192  0.6448 -0.3746
 7245TIP3    H221700   1.307   4.721   1.161  0.9607 -2.1896 -1.8135
 7246TIP3   OH221701   0.702   0.267   3.260 -0.1388 -0.1163  0.3375
 7246TIP3    H121702   0.717   0.180   3.224 -0.1705 -0.3257  0.8201
 7246TIP3    H221703   0.735   0.327   3.193  1.4572 -0.5318  0.6970
 7247TIP3   OH221704   0.111   1.051   5.738  0.2685  0.1806  0.2980
 7247TIP3    H121705   0.184   1.001   5.775  2.2272  2.0810 -0.7622
 7247TIP3    H221706   0.066   1.086   5.814  1.4408  0.2820  0.9814
 7248TIP3   OH221707   0.909   5.254   0.491 -0.5159 -0.3428  0.6513
 7248TIP3    H121708   0.835   5.194   0.480 -1.0511  0.3998  0.1453
 7248TIP3    H221709   0.955   5.221   0.569 -1.2602 -0.9256  0.8548
 7249TIP3   OH221710   1.198   1.456   5.027  0.0567  0.6473  0.0115
 7249TIP3    H121711   1.253   1.523   4.987  0.2680  1.5304  1.6784
 7249TIP3    H221712   1.109   1.493   5.024  0.3625  1.7536  2.2379
 7250TIP3   OH221713   6.123   3.241   4.911  0.6379 -0.3125 -0.3301
 7250TIP3    H121714   6.045   3.265   4.861 -0.7358  0.6960  2.1361
 7250TIP3    H221715   6.132   3.310   4.976  3.7543 -0.3113 -0.6145
 7251TIP3   OH221716   2.442   1.255   5.470 -0.2496  0.3074  0.2387
 7251TIP3    H121717   2.392   1.295   5.541  0.7658 -1.8078  2.2982
 7251TIP3    H221718   2.516   1.212   5.514  0.5120 -1.0104 -2.1204
 7252TIP3   OH221719   5.798   5.468   5.718  0.1388  0.8643 -0.0402
 7252TIP3    H121720   5.803   5.395   5.780 -0.7935  0.8956  0.1011
 7252TIP3    H221721   5.878   5.518   5.733  0.0717  0.7079  0.9447
 7253TIP3   OH221722   6.418   0.658   4.072 -0.2662 -0.4851  0.1186
 7253TIP3    H121723   6.464   0.599   4.131 -0.6842 -1.1473 -0.2020
 7253TIP3    H221724   6.337   0.681   4.119  0.3445  0.6553  0.6704
 7254TIP3   OH221725   3.817   5.251   1.839  0.2145 -0.3558  0.7098
 7254TIP3    H121726   3.868   5.226   1.762 -2.0633  0.5043 -1.1806
 7254TIP3    H221727   3.780   5.169   1.871 -0.2096 -0.5252 -0.1827
 7255TIP3   OH221728   2.338   0.642   4.227 -0.1861  0.3579 -0.2780
 7255TIP3    H121729   2.407   0.597   4.277  0.2128  0.4115 -0.7702
 7255TIP3    H221730   2.267   0.578   4.220  0.7307 -0.5612 -1.7595
 7256TIP3   OH221731   4.773   4.827   5.244 -0.0623 -0.2522  0.2938
 7256TIP3    H121732   4.773   4.918   5.274 -1.1343 -0.1576  0.0604
 7256TIP3    H221733   4.683   4.797   5.258  1.0097 -2.4324  3.7562
 7257TIP3   OH221734   0.250   4.037   0.334  0.4374  0.5239  0.1753
 7257TIP3    H121735   0.313   4.049   0.404  0.4856  1.5099 -0.0236
 7257TIP3    H221736   0.303   4.029   0.255  0.4257 -1.4595  0.3302
 7258TIP3   OH221737   1.441   2.521   2.427 -0.0946  0.1085 -0.2687
 7258TIP3    H121738   1.478   2.561   2.348 -0.2953  0.1259 -0.3533
 7258TIP3    H221739   1.504   2.543   2.496  0.2322 -0.1606 -0.4804
 7259TIP3   OH221740   1.769   3.823   4.300  0.3345 -0.3428 -0.0589
 7259TIP3    H121741   1.680   3.788   4.290 -0.0252  0.8500 -1.3305
 7259TIP3    H221742   1.819   3.750   4.338 -0.8516 -1.5213 -0.6623
 7260TIP3   OH221743   4.772   3.176   3.596 -0.1641 -0.1974  0.0769
 7260TIP3    H121744   4.867   3.189   3.601 -0.3318  0.8625  3.1134
 7260TIP3    H221745   4.745   3.229   3.521  1.6124 -0.5023 -0.8479
 7261TIP3   OH221746   2.796   4.153   2.391 -0.2025 -0.5985 -0.4854
 7261TIP3    H121747   2.722   4.178   2.335 -2.2533 -2.4431  1.2363
 7261TIP3    H221748   2.865   4.128   2.330 -1.7462 -0.9068 -2.1843
 7262TIP3   OH221749   1.343   2.723   2.989  0.2291  0.1672  0.1572
 7262TIP3    H121750   1.394   2.667   3.048 -0.1794 -0.4585 -0.0727
 7262TIP3    H221751   1.272   2.667   2.958  1.1872  0.0298 -1.9837
 7263TIP3   OH221752   6.774   3.073   4.273 -0.4087  0.1651  0.3117
 7263TIP3    H121753   6.748   3.164   4.255 -2.6526 -0.3895  0.5052
 7263TIP3    H221754   6.799   3.038   4.187  2.1682  1.3648  0.4478
 7264TIP3   OH221755   0.815   3.360   2.409 -0.8245 -0.2694  0.0711
 7264TIP3    H121756   0.762   3.307   2.350  0.4550 -0.6387 -0.7809
 7264TIP3    H221757   0.891   3.386   2.357 -0.1103  0.1629  1.2840
 7265TIP3   OH221758   6.827   6.488   3.702  0.5745 -0.5041  0.4242
 7265TIP3    H121759   6.787   6.540   3.771  0.1006 -0.7142  0.3119
 7265TIP3    H221760   6.908   6.534   3.681 -0.5891  1.1306 -0.8160
 7266TIP3   OH221761   4.870   3.104   5.686 -0.2011 -0.2455  0.3422
 7266TIP3    H121762   4.868   3.010   5.666  0.4792 -0.7349  2.4048
 7266TIP3    H221763   4.914   3.143   5.610  2.4973 -2.0242  0.8618
 7267TIP3   OH221764   2.973   2.739   4.411 -0.2584 -0.3602  0.7860
 7267TIP3    H121765   3.009   2.783   4.488 -2.2610  0.2492  1.4146
 7267TIP3    H221766   2.900   2.794   4.384  0.0757 -0.8453 -1.2675
 7268TIP3   OH221767   1.457   2.467   4.853 -0.2399 -0.1942  0.0979
 7268TIP3    H121768   1.396   2.423   4.913 -1.6761 -0.6202 -1.6037
 7268TIP3    H221769   1.405   2.535   4.811  1.3007  1.4738  0.7968
 7269TIP3   OH221770   0.608   0.513   3.715  0.4508  0.4295 -0.0737
 7269TIP3    H121771   0.602   0.504   3.620  2.8423  1.6426 -0.4232
 7269TIP3    H221772   0.615   0.608   3.730 -0.4734  0.3120  1.3934
 7270TIP3   OH221773   0.858   5.199   4.907 -0.5955 -0.3138  0.0009
 7270TIP3    H121774   0.784   5.255   4.929 -1.2990 -0.3586 -2.0136
 7270TIP3    H221775   0.879   5.221   4.816  1.7962 -0.4111  0.4690
 7271TIP3   OH221776   2.541   5.657   1.717  0.5407 -0.0574  0.5549
 7271TIP3    H121777   2.519   5.733   1.771 -1.6085 -1.1477  1.3278
 7271TIP3    H221778   2.508   5.678   1.630 -2.4860 -1.0344  1.3462
 7272TIP3   OH221779   6.552   6.492   3.944 -0.0839 -0.3098  0.0710
 7272TIP3    H121780   6.468   6.467   3.983  0.1101 -0.9659  0.0857
 7272TIP3    H221781   6.576   6.573   3.988 -0.5950 -0.2501  0.2435
 7273TIP3   OH221782   1.291   3.731   4.573 -0.3024 -0.0101 -0.0312
 7273TIP3    H121783   1.377   3.698   4.599  0.1956  0.5322 -0.9156
 7273TIP3    H221784   1.231   3.658   4.588  0.4226 -0.6099  0.0005
 7274TIP3   OH221785   2.972   5.607   4.675  0.0930  0.5436 -0.3102
 7274TIP3    H121786   2.991   5.688   4.723 -0.6659 -0.5014  1.8721
 7274TIP3    H221787   2.897   5.569   4.720  0.2332 -1.2483 -1.4751
 7275TIP3   OH221788   0.487   4.908   0.777  0.0683  0.6265  0.6850
 7275TIP3    H121789   0.519   4.864   0.699  2.1999  1.3225  1.1017
 7275TIP3    H221790   0.438   4.984   0.743  2.0685  1.6642 -0.0188
 7276TIP3   OH221791   3.375   6.670   0.863 -0.5872 -0.0551 -0.3971
 7276TIP3    H121792   3.351   6.735   0.797 -2.0350 -0.7955 -0.6326
 7276TIP3    H221793   3.311   6.600   0.853  1.9631 -2.4750 -1.4315
 7277TIP3   OH221794   4.948   0.065   3.606  0.5699  0.4469 -0.2540
 7277TIP3    H121795   4.958   0.099   3.517 -0.1118  1.7377  0.1467
 7277TIP3    H221796   4.900   0.133   3.653  0.6864 -0.3320  1.0416
 7278TIP3   OH221797   4.888   0.232   0.999 -0.2981 -0.6789  0.7000
 7278TIP3    H121798   4.905   0.284   1.078 -2.0200  0.1056  0.5947
 7278TIP3    H221799   4.890   0.295   0.927 -1.0751 -0.9745  0.4067
 7279TIP3   OH221800   4.375   2.888   4.676  1.2499  0.5116  0.4159
 7279TIP3    H121801   4.317   2.821   4.641  2.3904 -1.0338  1.3691
 7279TIP3    H221802   4.319   2.940   4.734  0.3516  0.3898 -0.3247
 7280TIP3   OH221803   0.663   6.437   1.987  0.7254 -0.3688  0.5751
 7280TIP3    H121804   0.634   6.371   1.924  0.6407  0.6325 -0.4756
 7280TIP3    H221805   0.758   6.430   1.988  1.0525  1.7325 -2.2167
 7281TIP3   OH221806   3.443   1.022   2.049  0.7552 -0.5269 -0.4387
 7281TIP3    H121807   3.441   0.930   2.022 -0.4758 -0.5325 -0.3927
 7281TIP3    H221808   3.364   1.033   2.102  1.4098  0.3186  0.3738
 7282TIP3   OH221809   2.297   2.327   5.452  0.0645  0.1279  0.1547
 7282TIP3    H121810   2.245   2.371   5.519  1.6475  0.8933  0.9231
 7282TIP3    H221811   2.234   2.308   5.382 -0.9607  2.3318  0.4011
 7283TIP3   OH221812   5.670   3.368   1.327  0.3316  0.9049  0.6124
 7283TIP3    H121813   5.705   3.291   1.370 -1.4280 -0.6140 -0.5007
 7283TIP3    H221814   5.692   3.356   1.234 -0.1419  1.6325  0.3925
 7284TIP3   OH221815   3.348   2.724   5.916 -0.3935  0.2514  0.0557
 7284TIP3    H121816   3.326   2.658   5.851 -1.2777 -0.0882  0.6914
 7284TIP3    H221817   3.352   2.806   5.865  0.7963 -0.2806 -0.7442
 7285TIP3   OH221818   0.890   4.478   2.573 -0.7429 -0.7110  0.4850
 7285TIP3    H121819   0.795   4.487   2.561 -1.1348 -1.5936  2.5185
 7285TIP3    H221820   0.915   4.555   2.624 -0.5934 -1.0970  0.9985
 7286TIP3   OH221821   5.860   5.093   0.265 -0.9569  0.1231  0.3668
 7286TIP3    H121822   5.772   5.112   0.299 -1.0900  0.6940 -0.2732
 7286TIP3    H221823   5.910   5.066   0.342 -1.3795  0.9431  0.9400
 7287TIP3   OH221824   6.251   5.510   1.368 -0.6187  0.0675 -0.0930
 7287TIP3    H121825   6.343   5.523   1.391 -0.6143 -0.1958  0.0452
 7287TIP3    H221826   6.234   5.417   1.387 -1.2011  0.3609  0.9115
 7288TIP3   OH221827   6.844   5.588   1.350 -0.0432  0.0375 -0.0816
 7288TIP3    H121828   6.795   5.564   1.429 -0.8294  0.3986 -0.4484
 7288TIP3    H221829   6.815   5.676   1.329  1.9061  0.8795  0.5364
 7289TIP3   OH221830   1.426   2.543   2.719 -0.4478  0.1063 -0.3535
 7289TIP3    H121831   1.486   2.613   2.743  0.4177 -0.1097 -1.7655
 7289TIP3    H221832   1.353   2.587   2.676 -0.0469  0.1727 -0.9713
 7290TIP3   OH221833   1.806   0.384   5.160 -0.0615 -0.4512  0.4726
 7290TIP3    H121834   1.762   0.457   5.116  0.0187 -0.7203 -0.0583
 7290TIP3    H221835   1.897   0.411   5.167 -0.2580  0.0233  1.3977
 7291TIP3   OH221836   0.466   2.886   4.129 -0.3948 -0.1108 -0.1405
 7291TIP3    H121837   0.412   2.965   4.129 -0.3844 -0.0737 -1.7540
 7291TIP3    H221838   0.540   2.907   4.185 -0.2395  1.1391 -0.7750
 7292TIP3   OH221839   3.744   0.729   2.707 -0.2059 -0.2188 -0.3146
 7292TIP3    H121840   3.708   0.654   2.660 -0.3575  0.7881 -1.8730
 7292TIP3    H221841   3.706   0.805   2.663  2.0690  0.8355 -0.5530
 7293TIP3   OH221842   1.233   0.663   5.720 -0.9370 -0.0659  0.0717
 7293TIP3    H121843   1.142   0.689   5.734 -0.6713  0.8451  0.1668
 7293TIP3    H221844   1.261   0.625   5.803 -1.4659 -1.1009 -0.2081
 7294TIP3   OH221845   5.267   6.736   4.266 -0.4034 -0.6858  0.5100
 7294TIP3    H121846   5.283   6.786   4.346 -0.6549 -0.4795  0.4325
 7294TIP3    H221847   5.203   6.669   4.292 -0.6897 -0.4507  0.4211
 7295TIP3   OH221848   1.119   4.888   2.805  0.1984  0.2432  0.1819
 7295TIP3    H121849   1.207   4.918   2.780 -0.0590 -0.5950 -1.9559
 7295TIP3    H221850   1.070   4.968   2.821  0.7756  0.8170 -0.8271
 7296TIP3   OH221851   4.019   0.179   1.041  0.5329 -0.0916 -0.1531
 7296TIP3    H121852   4.064   0.098   1.063 -0.1285 -0.4498 -0.0950
 7296TIP3    H221853   3.930   0.167   1.074 -0.2222 -0.2501 -2.1279
 7297TIP3   OH221854   6.743   3.868   2.739  0.1978 -0.2217  0.7429
 7297TIP3    H121855   6.769   3.782   2.706  0.5357 -0.5292  1.7680
 7297TIP3    H221856   6.822   3.903   2.780 -0.2395  0.0732  1.3491
 7298TIP3   OH221857   1.149   4.030   5.005 -0.0328  0.1643  0.5148
 7298TIP3    H121858   1.157   3.936   5.023  3.7932  0.3136  0.4577
 7298TIP3    H221859   1.146   4.036   4.910  2.0450  0.0888  0.3988
 7299TIP3   OH221860   1.964   0.080   1.800  0.4132 -0.2809  0.8115
 7299TIP3    H121861   2.012   0.071   1.883  0.5476  0.1299  0.7790
 7299TIP3    H221862   1.942   0.173   1.795 -0.5614 -0.4937  0.9162
 7300TIP3   OH221863   3.936   0.088   5.719  0.3038 -0.1352  0.5236
 7300TIP3    H121864   3.974   0.085   5.631  0.9411 -2.0823  0.8168
 7300TIP3    H221865   3.975   0.166   5.759  1.3191 -0.1656 -0.3543
 7301TIP3   OH221866   0.490   0.327   0.701  0.1336  0.7035 -0.3386
 7301TIP3    H121867   0.513   0.417   0.679 -0.7001  1.1151  0.4026
 7301TIP3    H221868   0.439   0.296   0.625  2.0956  0.1446 -1.5006
 7302TIP3   OH221869   1.087   1.715   4.130  0.4202  0.4813 -0.0289
 7302TIP3    H121870   1.154   1.732   4.064  1.8603  1.1539  1.5291
 7302TIP3    H221871   1.021   1.661   4.085  1.0311  1.4211 -2.1447
 7303TIP3   OH221872   3.781   3.445   4.546 -0.3105 -0.3412 -0.1378
 7303TIP3    H121873   3.800   3.404   4.630 -0.5070  1.4046  0.8060
 7303TIP3    H221874   3.862   3.438   4.496 -0.6238 -2.7204 -0.4354
 7304TIP3   OH221875   4.804   5.307   2.963  0.7261  0.8065 -0.1941
 7304TIP3    H121876   4.842   5.220   2.950  1.8318  1.1684  0.4165
 7304TIP3    H221877   4.791   5.313   3.058  0.4980  1.2366 -0.2534
 7305TIP3   OH221878   3.360   4.477   4.707 -0.5924 -0.2734  0.9783
 7305TIP3    H121879   3.299   4.524   4.764 -2.1267 -0.5268 -0.3973
 7305TIP3    H221880   3.331   4.386   4.711 -1.9467 -0.0434 -1.5806
 7306TIP3   OH221881   1.302   6.496   2.381 -0.3798  0.2591 -0.3632
 7306TIP3    H121882   1.349   6.427   2.334  0.1177  1.3470 -1.5050
 7306TIP3    H221883   1.307   6.572   2.324  1.7895  2.2008  2.1791
 7307TIP3   OH221884   6.941   6.496   4.769  0.0613  0.3443 -0.0675
 7307TIP3    H121885   6.859   6.484   4.817 -0.2953  0.0312 -0.7378
 7307TIP3    H221886   7.000   6.432   4.807 -0.3725 -0.2510 -0.3753
 7308TIP3   OH221887   7.168   0.791   3.408  0.3761  0.4149  0.1599
 7308TIP3    H121888   7.139   0.720   3.464  2.8611 -0.2489  0.7171
 7308TIP3    H221889   7.132   0.870   3.448  0.5572 -0.2193  1.6213
 7309TIP3   OH221890   0.604   6.581   3.931  0.1515  0.0225  0.5312
 7309TIP3    H121891   0.572   6.515   3.871  1.9216 -1.6782  1.3443
 7309TIP3    H221892   0.693   6.602   3.900  0.0293  1.2390  0.9156
 7310TIP3   OH221893   1.144   1.288   4.003  0.0661 -0.1955  0.8921
 7310TIP3    H121894   1.218   1.227   3.997 -0.4281 -0.9566  2.1914
 7310TIP3    H221895   1.068   1.234   3.979  0.0556  1.0572 -2.4971
 7311TIP3   OH221896   5.019   4.728   4.361 -0.3180  0.8532  0.2488
 7311TIP3    H121897   5.065   4.802   4.400 -1.8214  1.2864  1.3022
 7311TIP3    H221898   4.926   4.746   4.376 -0.7231 -1.8254  1.7543
 7312TIP3   OH221899   3.155   3.046   4.499  0.3810 -0.4380  0.3194
 7312TIP3    H121900   3.190   3.075   4.415 -1.3186  0.2431 -0.1962
 7312TIP3    H221901   3.088   3.110   4.520 -1.3389 -2.2590  0.7012
 7313TIP3   OH221902   1.824   1.019   0.225 -0.3186 -0.1501  0.4298
 7313TIP3    H121903   1.906   1.027   0.176  0.6439 -2.6368  1.4856
 7313TIP3    H221904   1.755   1.030   0.159  0.8763  0.1433 -0.8104
 7314TIP3   OH221905   3.948   2.093   4.314 -0.0486 -0.3107  0.5253
 7314TIP3    H121906   3.900   2.174   4.333 -1.3978 -0.8436 -0.5023
 7314TIP3    H221907   3.891   2.023   4.344  0.4573 -0.9473  0.0364
 7315TIP3   OH221908   4.841   2.430   5.273  0.5113 -0.1127 -0.8208
 7315TIP3    H121909   4.818   2.503   5.216 -0.9988 -0.0697 -0.2147
 7315TIP3    H221910   4.934   2.443   5.293  0.8849  0.2429 -2.6765
 7316TIP3   OH221911   4.907   4.670   1.516  0.4721 -0.6427  0.7346
 7316TIP3    H121912   4.844   4.738   1.542  0.7652 -0.3149  0.5892
 7316TIP3    H221913   4.915   4.680   1.421  1.8172  0.2627  0.9126
 7317TIP3   OH221914   5.612   0.429   2.611  0.1360 -0.2208  0.0774
 7317TIP3    H121915   5.695   0.429   2.563 -0.4084 -0.3579 -0.8780
 7317TIP3    H221916   5.552   0.481   2.557 -0.6322 -0.7957  0.3527
 7318TIP3   OH221917   5.560   3.488   5.060 -0.0668 -0.0917  0.2310
 7318TIP3    H121918   5.490   3.548   5.035  0.5047  0.2786 -0.5142
 7318TIP3    H221919   5.539   3.406   5.014  0.0180  0.0379 -0.0418
 7319TIP3   OH221920   0.877   4.280   3.081 -0.1705  0.2283  0.1734
 7319TIP3    H121921   0.862   4.374   3.065 -0.3689  0.3539  1.0738
 7319TIP3    H221922   0.863   4.240   2.995  0.3568  1.0666 -0.3270
 7320TIP3   OH221923   5.108   2.869   2.659 -0.7307  1.2132 -0.0372
 7320TIP3    H121924   5.146   2.879   2.572  0.6260  3.9958  0.7686
 7320TIP3    H221925   5.166   2.808   2.704 -0.2119  1.4122 -0.4294
 7321TIP3   OH221926   4.818   0.046   1.844 -0.1804  0.0306  0.6134
 7321TIP3    H121927   4.844   0.135   1.869 -0.0385 -0.1516  1.1188
 7321TIP3    H221928   4.778   0.009   1.923  1.3920 -0.9868  0.9920
 7322TIP3   OH221929   2.141   4.349   4.663  0.2205  0.7517  0.2416
 7322TIP3    H121930   2.230   4.317   4.681 -0.0850  0.5085  1.3774
 7322TIP3    H221931   2.125   4.323   4.572  1.6543  1.6266 -0.2897
 7323TIP3   OH221932   0.655   1.836   2.816  0.2233 -0.2220 -0.3541
 7323TIP3    H121933   0.714   1.907   2.841  0.2783 -0.6378  0.7466
 7323TIP3    H221934   0.710   1.773   2.770  0.5296 -0.3352  0.1607
 7324TIP3   OH221935   1.577   6.474   5.408  0.2009  0.0551  0.5816
 7324TIP3    H121936   1.543   6.395   5.365 -0.4236  0.7976 -0.3193
 7324TIP3    H221937   1.526   6.545   5.371 -0.5548  0.7280  2.7265
 7325TIP3   OH221938   6.081   1.293   5.732 -0.2872 -0.2474 -0.1767
 7325TIP3    H121939   6.125   1.208   5.726 -0.3766 -0.3355  0.3600
 7325TIP3    H221940   6.081   1.327   5.643 -1.5537 -1.4609 -0.6625
 7326TIP3   OH221941   6.102   5.847   4.351 -0.1497  0.9703 -0.4191
 7326TIP3    H121942   6.009   5.825   4.343  0.2488 -0.4249 -1.4496
 7326TIP3    H221943   6.106   5.905   4.427 -2.0883  2.4162 -1.3304
 7327TIP3   OH221944   4.528   6.415   3.553 -0.6850  0.0060 -0.2019
 7327TIP3    H121945   4.563   6.503   3.553  2.9496 -1.2823  0.3491
 7327TIP3    H221946   4.510   6.396   3.646  1.2894 -0.7357  0.0672
 7328TIP3   OH221947   4.808   4.870   4.085  0.3039 -0.1433 -0.0156
 7328TIP3    H121948   4.840   4.831   4.166 -0.1541  1.2563  0.8670
 7328TIP3    H221949   4.859   4.951   4.075 -0.3334  0.1954 -0.5961
 7329TIP3   OH221950   1.375   0.341   2.141 -0.2324 -0.0504  0.4744
 7329TIP3    H121951   1.311   0.337   2.212 -1.0692  0.4453 -0.2390
 7329TIP3    H221952   1.326   0.318   2.062  0.5077  0.1602 -0.0595
 7330TIP3   OH221953   1.693   2.870   2.242  0.1416  0.6700  0.3352
 7330TIP3    H121954   1.736   2.904   2.164  0.1757 -0.3094 -0.0866
 7330TIP3    H221955   1.765   2.842   2.299  0.1427 -1.6442 -0.6711
 7331TIP3   OH221956   4.735   6.068   1.153  0.5381 -0.1567 -0.1537
 7331TIP3    H121957   4.757   5.986   1.197 -1.1059  0.9845  3.1436
 7331TIP3    H221958   4.649   6.053   1.115  0.8981 -0.3811 -0.9070
 7332TIP3   OH221959   3.703   0.969   1.121 -0.2462  0.1844 -0.0766
 7332TIP3    H121960   3.779   0.918   1.147 -0.0010  1.1631  1.1922
 7332TIP3    H221961   3.630   0.906   1.122 -0.3608  0.2010  3.5044
 7333TIP3   OH221962   2.365   6.058   2.658 -0.5140  0.0155  0.1349
 7333TIP3    H121963   2.346   6.054   2.564 -0.3058 -0.2450  0.1028
 7333TIP3    H221964   2.425   5.985   2.673 -0.2971  0.2497  0.4133
 7334TIP3   OH221965   6.577   2.792   4.242  0.5587  0.2685 -0.0115
 7334TIP3    H121966   6.490   2.796   4.281 -0.0622  0.7763 -1.3804
 7334TIP3    H221967   6.627   2.859   4.288 -0.1874  0.9367 -0.1514
 7335TIP3   OH221968   2.791   0.080   2.707 -0.0445  0.0282 -0.2880
 7335TIP3    H121969   2.802  -0.009   2.741 -1.6335 -0.2173 -0.3499
 7335TIP3    H221970   2.737   0.069   2.629 -0.7921  1.1002  0.0530
 7336TIP3   OH221971   2.777   1.728   3.510  0.1097  0.1776 -0.4175
 7336TIP3    H121972   2.766   1.769   3.595  0.3670 -0.6211  0.0175
 7336TIP3    H221973   2.809   1.640   3.530 -1.5249 -0.6676 -1.2358
 7337TIP3   OH221974   6.715   0.328   1.794  0.4261 -0.5218  0.0516
 7337TIP3    H121975   6.779   0.257   1.788  0.7349 -0.4291  1.8571
 7337TIP3    H221976   6.639   0.289   1.837  0.9760  0.4266  2.0172
 7338TIP3   OH221977   3.623   1.130   1.470  0.2101 -0.7594  0.3771
 7338TIP3    H121978   3.592   1.099   1.386  0.5474 -2.4405  0.8434
 7338TIP3    H221979   3.579   1.074   1.534 -0.2750  0.6817  1.3474
 7339TIP3   OH221980   7.112   2.874   3.122  0.3078  0.1614 -0.1468
 7339TIP3    H121981   7.047   2.847   3.186  1.4012 -0.1912  0.8662
 7339TIP3    H221982   7.193   2.833   3.152  1.6775  2.9905  0.4192
 7340TIP3   OH221983   2.246   5.597   3.075 -0.0846 -0.1479  0.0251
 7340TIP3    H121984   2.169   5.655   3.075 -1.1715 -1.5405  0.3898
 7340TIP3    H221985   2.209   5.509   3.081  1.4829 -0.9558 -1.4335
 7341TIP3   OH221986   6.388   4.273   0.564  0.8218  0.0102 -0.5038
 7341TIP3    H121987   6.456   4.332   0.596  1.0527 -0.4503 -0.1418
 7341TIP3    H221988   6.329   4.330   0.515  1.2920  0.4686 -0.5545
 7342TIP3   OH221989   2.850   5.620   5.757 -0.8077 -0.2861  0.4888
 7342TIP3    H121990   2.793   5.693   5.780 -0.8253  0.7032 -2.3646
 7342TIP3    H221991   2.938   5.648   5.785 -1.0523  0.0888  0.8822
 7343TIP3   OH221992   0.642   2.057   1.449 -0.2419 -1.0907 -0.4122
 7343TIP3    H121993   0.672   2.044   1.539  1.7746 -1.4702 -1.0987
 7343TIP3    H221994   0.593   1.978   1.428  0.3166 -1.5366 -0.0509
 7344TIP3   OH221995   6.525   5.970   1.569 -0.0992  0.2652 -0.2907
 7344TIP3    H121996   6.553   6.058   1.594  0.5707  0.4191 -1.5355
 7344TIP3    H221997   6.591   5.912   1.607 -1.7895  0.0419  2.5829
 7345TIP3   OH221998   5.006   1.697   4.977 -0.1807 -0.2864  0.0174
 7345TIP3    H121999   5.052   1.648   5.045 -0.2872 -0.9046 -0.3508
 7345TIP3    H222000   4.932   1.642   4.954 -0.9570  0.5741  0.4011
 7346TIP3   OH222001   3.752   5.416  -0.026  0.2265  0.1787  0.0159
 7346TIP3    H122002   3.700   5.492  -0.001  3.4895  2.6923 -0.0741
 7346TIP3    H222003   3.734   5.350   0.041 -2.7213  0.9473  0.1054
 7347TIP3   OH222004   0.874   3.126   0.158 -0.1827 -0.3063 -0.2230
 7347TIP3    H122005   0.913   3.203   0.115 -1.5446 -0.2205 -1.3704
 7347TIP3    H222006   0.945   3.090   0.212  1.4971 -0.1267 -2.1858
 7348TIP3   OH222007   0.455   2.006   3.290  0.5135 -0.6799  0.0283
 7348TIP3    H122008   0.481   2.090   3.252  2.5344 -1.7247 -1.0806
 7348TIP3    H222009   0.363   2.018   3.312 -0.4511  0.5719 -3.7878
 7349TIP3   OH222010   1.226   0.861   2.963  0.4428  0.1923  0.0887
 7349TIP3    H122011   1.221   0.785   3.021  1.4939 -0.3554 -0.5163
 7349TIP3    H222012   1.137   0.896   2.963 -0.0929 -1.1025  0.2881
 7350TIP3   OH222013   7.031   0.275   4.583 -0.3377 -0.0128  0.1746
 7350TIP3    H122014   6.938   0.294   4.587  0.0937  2.2506  0.7998
 7350TIP3    H222015   7.051   0.268   4.489 -1.3081 -1.7390  0.0615
 7351TIP3   OH222016   1.140   1.448   4.225 -0.0498 -0.4161 -0.1981
 7351TIP3    H122017   1.122   1.399   4.145 -0.4342  0.0144 -0.3860
 7351TIP3    H222018   1.108   1.536   4.206  1.1869  0.0703 -0.0859
 7352TIP3   OH222019   3.350   3.465   4.123 -0.1767  0.0086 -0.0475
 7352TIP3    H122020   3.413   3.460   4.051  1.6032  0.1531  1.4249
 7352TIP3    H222021   3.264   3.465   4.080  0.8276  0.9485 -2.1843
 7353TIP3   OH222022   0.491   4.644   3.244 -0.2330  0.5161 -0.2328
 7353TIP3    H122023   0.481   4.674   3.153  0.0252 -1.0240 -0.8093
 7353TIP3    H222024   0.510   4.550   3.235 -0.6774  0.2490  1.4425
 7354TIP3   OH222025   2.814   0.547   4.245  0.2075  0.2498 -0.4936
 7354TIP3    H122026   2.788   0.628   4.290 -1.9419 -0.8336  0.3522
 7354TIP3    H222027   2.800   0.565   4.152  0.8973  1.2106 -0.4277
 7355TIP3   OH222028   0.332   2.102   1.233 -0.4810  0.4527 -0.4403
 7355TIP3    H122029   0.335   2.169   1.301  2.2618  0.8895 -0.8799
 7355TIP3    H222030   0.364   2.147   1.154  2.4694 -1.4969 -0.5213
 7356TIP3   OH222031   6.128   3.333   0.175 -0.4780 -0.7120  0.1623
 7356TIP3    H122032   6.147   3.414   0.126  0.4012  0.5413  2.4418
 7356TIP3    H222033   6.188   3.335   0.249 -2.2366 -2.1434  1.7225
 7357TIP3   OH222034   2.118   0.670   0.119  0.3155 -0.0864  0.0703
 7357TIP3    H122035   2.062   0.595   0.101 -0.4058  0.5068 -0.1839
 7357TIP3    H222036   2.191   0.634   0.170 -0.4502 -0.8006  0.6753
 7358TIP3   OH222037   1.993   3.246   5.233 -0.4551  0.4272  0.7126
 7358TIP3    H122038   1.978   3.160   5.272 -2.3111  1.0105  1.3836
 7358TIP3    H222039   1.911   3.293   5.246  0.4403  2.2403  0.1673
 7359TIP3   OH222040   4.071   0.449   0.546 -0.5666  0.0318  0.0642
 7359TIP3    H122041   4.070   0.487   0.458  0.3349 -0.7088 -0.2836
 7359TIP3    H222042   4.127   0.508   0.597 -1.4841  0.7333  0.2826
 7360TIP3   OH222043   5.712   5.161   4.031 -0.1834  0.0090 -0.0764
 7360TIP3    H122044   5.682   5.235   4.084 -0.2123  0.0851 -0.1985
 7360TIP3    H222045   5.805   5.153   4.050 -0.1747  0.0956 -0.0856
 7361TIP3   OH222046   3.998   2.785   1.562 -0.5759  0.0032  0.6164
 7361TIP3    H122047   3.994   2.753   1.472  0.2509  0.2314  0.4855
 7361TIP3    H222048   4.088   2.766   1.589 -0.9151 -0.3867  1.5204
 7362TIP3   OH222049   1.546   3.326   1.092  0.2280 -0.5998 -0.1616
 7362TIP3    H122050   1.492   3.247   1.083  0.7778 -1.2765  2.0292
 7362TIP3    H222051   1.525   3.359   1.179  2.5975 -0.3236  0.3639
 7363TIP3   OH222052   1.695   1.011   3.649  0.5048 -0.5128 -0.3209
 7363TIP3    H122053   1.638   1.045   3.719  0.0456 -1.6663 -0.1117
 7363TIP3    H222054   1.640   1.012   3.571  0.2466 -1.4324 -0.1622
 7364TIP3   OH222055   6.485   5.122   5.611 -0.1662 -0.1257 -0.0916
 7364TIP3    H122056   6.430   5.119   5.532 -0.5581  0.4213  0.1519
 7364TIP3    H222057   6.462   5.042   5.659  1.2633 -1.3161 -1.2903
 7365TIP3   OH222058   0.209   6.356   5.282 -0.2446  0.2139 -0.1978
 7365TIP3    H122059   0.221   6.421   5.351 -0.3624  1.0457 -0.9500
 7365TIP3    H222060   0.144   6.394   5.224  0.2144 -0.2555 -1.0371
 7366TIP3   OH222061   1.921   4.577   3.977  0.2858  0.3750  0.0562
 7366TIP3    H122062   1.857   4.542   3.916  0.5308 -0.2374  0.1442
 7366TIP3    H222063   2.006   4.556   3.938  0.4622 -0.7014  0.9650
 7367TIP3   OH222064   6.403   0.040   0.662  0.6875  0.0394  0.5213
 7367TIP3    H122065   6.497   0.030   0.679  0.8929 -0.3605 -0.7571
 7367TIP3    H222066   6.375  -0.045   0.630  0.2310  0.5971 -0.6066
 7368TIP3   OH222067   7.030   4.242   5.231  0.0403  0.2986 -0.1033
 7368TIP3    H122068   7.021   4.200   5.145  2.2379 -2.1279  0.6919
 7368TIP3    H222069   6.944   4.234   5.271 -0.0509 -2.2688 -0.6240
 7369TIP3   OH222070   2.433   5.882   0.149 -0.1868  0.2595  0.3844
 7369TIP3    H122071   2.343   5.852   0.157 -0.4184  0.9009  0.2375
 7369TIP3    H222072   2.444   5.944   0.221 -0.1040  0.7567 -0.0501
 7370TIP3   OH222073   6.650   0.786   2.556  0.5859  0.7754  0.2780
 7370TIP3    H122074   6.632   0.700   2.593 -0.0658  1.2956  1.1998
 7370TIP3    H222075   6.726   0.771   2.499 -0.0944 -0.5864 -0.3172
 7371TIP3   OH222076   1.140   2.251   1.761 -0.3201  0.6988 -0.3760
 7371TIP3    H122077   1.229   2.241   1.727 -0.5797  0.0538 -0.8933
 7371TIP3    H222078   1.149   2.238   1.855 -0.1246 -1.4289 -0.6183
 7372TIP3   OH222079   6.404   3.016   1.033  0.2525  0.2013  0.3862
 7372TIP3    H122080   6.351   3.087   1.069  0.1106  1.6413 -2.4075
 7372TIP3    H222081   6.346   2.940   1.036 -0.1373  0.5036  2.0027
 7373TIP3   OH222082   6.724   3.045   4.931  0.0416 -0.1034  0.1484
 7373TIP3    H122083   6.693   2.990   4.859 -0.0201 -1.4074  1.1387
 7373TIP3    H222084   6.814   3.017   4.946 -0.0589 -0.1083  0.8053
 7374TIP3   OH222085   3.833   4.460   4.184 -0.1341  0.0633  0.0182
 7374TIP3    H122086   3.783   4.422   4.256  0.7837 -0.4565  0.3887
 7374TIP3    H222087   3.893   4.522   4.226 -1.9000  2.3583 -0.5921
 7375TIP3   OH222088   1.062   2.138   5.780 -0.1069 -0.2759  0.3073
 7375TIP3    H122089   1.115   2.168   5.706  0.8318  1.1897  1.5385
 7375TIP3    H222090   1.096   2.050   5.799 -1.0285 -1.0951 -1.5819
 7376TIP3   OH222091   6.740   0.309   5.787  1.2754 -0.7180  0.4235
 7376TIP3    H122092   6.727   0.294   5.881  1.0005 -0.1729  0.4762
 7376TIP3    H222093   6.656   0.286   5.747  1.5962 -1.5769  0.2322
 7377TIP3   OH222094   4.323   2.270   4.893 -0.6775  0.3132  0.5735
 7377TIP3    H122095   4.375   2.327   4.837 -0.9348 -0.1807 -0.1815
 7377TIP3    H222096   4.307   2.191   4.841 -1.2264 -0.0138  1.2031
 7378TIP3   OH222097   6.569   0.631   2.252 -0.2655  0.1646  0.1612
 7378TIP3    H122098   6.557   0.539   2.231 -4.2311  0.4432  0.5499
 7378TIP3    H222099   6.625   0.665   2.182  4.1985 -3.0096  1.7370
 7379TIP3   OH222100   6.070   2.503   4.039  0.1995 -0.5379  0.1320
 7379TIP3    H122101   5.976   2.496   4.022  0.3918 -1.2280 -0.7803
 7379TIP3    H222102   6.111   2.465   3.961  1.2322 -0.4714  0.6222
 7380TIP3   OH222103   5.221   6.492   3.019  0.4236  0.4429 -0.1786
 7380TIP3    H122104   5.267   6.410   3.001 -0.3695  0.2205 -1.2811
 7380TIP3    H222105   5.169   6.508   2.941 -3.0622 -0.4366  1.7309
 7381TIP3   OH222106   4.505   5.141   3.058 -0.2741 -0.0676  0.2143
 7381TIP3    H122107   4.453   5.121   3.136 -0.6879  1.7783  0.4593
 7381TIP3    H222108   4.594   5.154   3.091 -0.4303  0.6176  0.3698
 7382TIP3   OH222109   4.803   2.225   0.942  0.4079  0.2503  0.0889
 7382TIP3    H122110   4.746   2.292   0.979 -1.2138 -0.6296 -0.7089
 7382TIP3    H222111   4.756   2.143   0.955  1.5676 -0.5369 -0.4552
 7383TIP3   OH222112   4.577   3.565   1.688 -0.8038 -0.3101 -0.4910
 7383TIP3    H122113   4.567   3.657   1.712 -0.5319  0.1239 -1.9580
 7383TIP3    H222114   4.661   3.539   1.726 -0.8556  0.0535 -0.1206
 7384TIP3   OH222115   1.021   3.433   2.002  0.1772 -0.5137  0.2468
 7384TIP3    H122116   1.005   3.416   2.095 -1.7306 -0.9179 -0.1013
 7384TIP3    H222117   1.052   3.524   1.999  0.4060 -0.5457  1.2828
 7385TIP3   OH222118   1.952   3.049   2.915 -0.2974  0.1485 -0.6106
 7385TIP3    H122119   1.920   2.999   2.990  0.9386 -1.0761 -0.8693
 7385TIP3    H222120   1.969   3.136   2.950 -0.0505 -0.3165  0.4657
 7386TIP3   OH222121   6.455   5.254   1.049  0.3672 -0.5527 -0.4301
 7386TIP3    H122122   6.383   5.298   1.094  0.6269 -1.4083  0.8922
 7386TIP3    H222123   6.499   5.324   1.001  1.1355  0.8196  2.0606
 7387TIP3   OH222124   3.876   3.530   2.891  0.1464  0.1214 -0.2399
 7387TIP3    H122125   3.903   3.595   2.955  0.8759  0.7185 -1.1327
 7387TIP3    H222126   3.808   3.573   2.840 -0.0295 -0.1534 -0.2395
 7388TIP3   OH222127   5.753   5.867   4.622  0.1985 -0.2328  0.3204
 7388TIP3    H122128   5.665   5.847   4.654  0.0188  0.5449  0.3327
 7388TIP3    H222129   5.808   5.865   4.701  0.1239 -0.3542  0.3687
 7389TIP3   OH222130   0.716   4.831   4.322  0.1520  0.1355 -0.3221
 7389TIP3    H122131   0.799   4.874   4.347 -1.1190  2.8633 -0.4199
 7389TIP3    H222132   0.649   4.898   4.338 -1.5957 -0.4763 -4.0963
 7390TIP3   OH222133   1.863   0.194   3.949  0.1786  0.2606 -0.8084
 7390TIP3    H122134   1.883   0.219   4.040  0.1073 -1.2323 -0.3502
 7390TIP3    H222135   1.772   0.218   3.937 -0.1920 -0.6573 -0.0298
 7391TIP3   OH222136   6.780   0.723   0.018 -0.1156 -0.0966 -0.1956
 7391TIP3    H122137   6.759   0.816   0.018 -0.3461 -0.1354 -1.1867
 7391TIP3    H222138   6.868   0.718  -0.022  0.9338 -0.1183  1.9883
 7392TIP3   OH222139   1.000   6.081   0.142  0.0906 -0.1158 -0.9606
 7392TIP3    H122140   1.035   6.127   0.218  0.3293 -0.9027 -0.5816
 7392TIP3    H222141   0.927   6.135   0.112 -0.6657 -0.3200  0.4646
 7393TIP3   OH222142   2.239   5.213   4.697 -0.1538  0.3432  0.2372
 7393TIP3    H122143   2.198   5.147   4.641  5.0341 -1.1513 -2.4804
 7393TIP3    H222144   2.254   5.169   4.780 -0.9539 -0.2403  0.0807
 7394TIP3   OH222145   5.322   6.001   3.433  0.2395  0.3555  0.3041
 7394TIP3    H122146   5.388   5.972   3.496 -0.9973 -0.5258  1.2419
 7394TIP3    H222147   5.272   6.068   3.480 -1.7666 -1.4809  0.9775
 7395TIP3   OH222148   6.251   5.018   1.575 -0.3213 -0.1806  0.1363
 7395TIP3    H122149   6.230   4.981   1.660 -1.2109  0.4417  0.1929
 7395TIP3    H222150   6.308   4.953   1.534 -0.5387 -0.8485  0.8820
 7396TIP3   OH222151   6.506   4.997   0.360 -0.5072  0.6714 -0.0684
 7396TIP3    H122152   6.538   5.036   0.279  0.9862  2.9925  1.5199
 7396TIP3    H222153   6.577   5.009   0.422 -1.8983 -0.3030  1.8012
 7397TIP3   OH222154   5.750   3.103   1.800  0.5957 -0.4788 -0.3769
 7397TIP3    H122155   5.758   3.197   1.780 -1.2628 -0.3692 -0.7593
 7397TIP3    H222156   5.817   3.062   1.745 -0.4267  0.3890 -2.3882
 7398TIP3   OH222157   7.062   2.773   5.705  0.2617 -0.7182  0.1118
 7398TIP3    H122158   6.986   2.739   5.658  0.9909 -0.7133 -1.1096
 7398TIP3    H222159   7.049   2.744   5.796 -1.2265 -0.6341 -0.0560
 7399TIP3   OH222160   5.963   1.130   4.488  0.5425 -0.4365 -0.0546
 7399TIP3    H122161   6.035   1.170   4.439  0.9397 -0.8711  0.1654
 7399TIP3    H222162   5.896   1.199   4.493  0.5718 -0.3229 -1.0261
 7400TIP3   OH222163   5.276   2.500   0.980 -0.1387  0.0192  0.4095
 7400TIP3    H122164   5.200   2.557   0.981 -0.6385 -0.6056 -0.5315
 7400TIP3    H222165   5.265   2.442   1.055 -0.4277  0.1380  0.4561
 7401TIP3   OH222166   3.098   1.846   4.575  0.8419 -0.6321  0.5367
 7401TIP3    H122167   3.124   1.915   4.636  1.2924  0.9311 -1.3335
 7401TIP3    H222168   3.176   1.831   4.521 -0.8763  1.7712 -2.9970
 7402TIP3   OH222169   0.068   4.563   5.704 -0.3213 -0.0047  0.4342
 7402TIP3    H122170   0.107   4.503   5.640  0.3163  0.5598  0.2837
 7402TIP3    H222171   0.142   4.609   5.743 -0.8038  0.7734  0.4645
 7403TIP3   OH222172   0.145   2.272   2.970 -0.6323 -0.1137 -0.0589
 7403TIP3    H122173   0.127   2.353   2.921 -2.6383  0.0005  0.7746
 7403TIP3    H222174   0.224   2.291   3.020  0.2112  0.5266 -1.5737
 7404TIP3   OH222175   1.046   4.477   3.896 -0.6273 -0.2045 -0.0316
 7404TIP3    H122176   1.090   4.554   3.858  0.7493 -1.0452 -0.2220
 7404TIP3    H222177   0.976   4.456   3.834 -0.1069  0.0516 -0.7186
 7405TIP3   OH222178   6.753   0.064   2.049  0.3147 -0.1251 -0.1537
 7405TIP3    H122179   6.771   0.018   2.132 -1.0214  1.8130  1.3154
 7405TIP3    H222180   6.757  -0.004   1.983 -0.5906 -2.1799  1.7698
 7406TIP3   OH222181   0.852   6.650   3.830 -0.2670 -0.1227 -0.1733
 7406TIP3    H122182   0.908   6.589   3.877  0.0729 -0.4378 -0.9754
 7406TIP3    H222183   0.836   6.609   3.746 -1.4432  0.1186 -0.0831
 7407TIP3   OH222184   6.798   5.061   1.558  0.2682 -0.2860 -0.1896
 7407TIP3    H122185   6.815   5.013   1.639  0.3302  2.1987  1.3768
 7407TIP3    H222186   6.869   5.125   1.552 -0.5489  0.5554 -1.4113
 7408TIP3   OH222187   4.781   3.333   3.825  0.3452 -0.2339  0.1741
 7408TIP3    H122188   4.705   3.360   3.877  1.0764 -0.2298  1.2757
 7408TIP3    H222189   4.746   3.266   3.765 -1.0093  1.4931 -1.0543
 7409TIP3   OH222190   4.222   1.680   2.041  0.3063 -0.3680 -0.7525
 7409TIP3    H122191   4.218   1.600   1.988 -0.6645 -0.5729 -0.4007
 7409TIP3    H222192   4.158   1.666   2.111 -1.1351  1.3461 -1.6160
 7410TIP3   OH222193   0.285   1.427   4.605  0.0300  0.3695 -0.2283
 7410TIP3    H122194   0.267   1.398   4.694  0.2643  0.9352  0.0124
 7410TIP3    H222195   0.358   1.372   4.576  0.2712  0.5072  0.1078
 7411TIP3   OH222196   5.782   5.663   1.132 -0.0983  0.0328  0.1166
 7411TIP3    H122197   5.794   5.702   1.218  0.8458 -0.1000  0.0587
 7411TIP3    H222198   5.727   5.586   1.149 -0.7913  0.5884  0.4349
 7412TIP3   OH222199   6.720   0.315   3.134 -0.4443  0.9651  0.6075
 7412TIP3    H122200   6.730   0.311   3.039  0.1474 -0.2076  0.7012
 7412TIP3    H222201   6.664   0.391   3.149 -1.1808  0.7155 -0.7257
 7413TIP3   OH222202   4.541   4.027   4.798 -0.1237 -0.2851 -0.2954
 7413TIP3    H122203   4.482   3.973   4.745 -0.4274  0.5190 -0.7978
 7413TIP3    H222204   4.622   4.030   4.748 -0.5302  0.7828 -0.9359
 7414TIP3   OH222205   3.041   1.995   2.495 -0.2752  0.2834 -0.1719
 7414TIP3    H122206   3.073   2.072   2.449 -0.6704  0.5381 -0.0325
 7414TIP3    H222207   3.085   1.998   2.580  0.1705  0.0178 -0.3903
 7415TIP3   OH222208   3.932   3.924   4.096  0.5275  0.1053  0.1493
 7415TIP3    H122209   4.020   3.911   4.060  0.9443  0.4826  0.9930
 7415TIP3    H222210   3.874   3.918   4.020  1.2579 -0.3881 -0.3845
 7416TIP3   OH222211   5.596   5.502   5.537  0.4542 -0.2674 -0.5539
 7416TIP3    H122212   5.596   5.422   5.485  2.4313 -0.9799  0.4567
 7416TIP3    H222213   5.658   5.485   5.608  1.2703  2.3230 -0.5538
 7417TIP3   OH222214   5.175   0.427   3.783  0.5622 -0.6585  0.3919
 7417TIP3    H122215   5.229   0.352   3.758 -0.5900 -1.1189 -0.8377
 7417TIP3    H222216   5.095   0.418   3.732 -0.6864  0.0322  2.0912
 7418TIP3   OH222217   5.971   6.343   3.360 -0.0362  0.2766 -0.1762
 7418TIP3    H122218   6.017   6.266   3.393 -0.4437 -0.4107 -1.1589
 7418TIP3    H222219   5.908   6.308   3.296  1.5333  1.5904 -2.6000
 7419TIP3   OH222220   1.669   2.550   5.682 -0.2856 -0.6524 -0.0047
 7419TIP3    H122221   1.601   2.538   5.616 -0.3066  1.2083 -0.3934
 7419TIP3    H222222   1.674   2.466   5.728 -0.9476 -1.6829 -1.7202
 7420TIP3   OH222223   4.795   1.775   0.540  0.6358 -0.9618 -0.7344
 7420TIP3    H122224   4.702   1.796   0.550  0.7955 -1.2841  2.0741
 7420TIP3    H222225   4.840   1.854   0.569  1.2558 -1.1295 -1.2221
 7421TIP3   OH222226   2.285   5.375   0.887 -0.2662 -0.3532 -0.3210
 7421TIP3    H122227   2.285   5.447   0.824  0.4810 -1.2941 -1.4453
 7421TIP3    H222228   2.258   5.298   0.837 -1.5248 -0.7992  0.9662
 7422TIP3   OH222229   4.261   5.137   4.326  0.5101  0.0002  0.3075
 7422TIP3    H122230   4.191   5.178   4.275 -0.1068 -0.4064  0.8085
 7422TIP3    H222231   4.240   5.158   4.417  1.0220 -0.1625  0.4662
 7423TIP3   OH222232   4.237   1.017   1.363 -0.2338  1.0245  0.4900
 7423TIP3    H122233   4.223   1.105   1.397 -3.3772 -0.0083  2.2937
 7423TIP3    H222234   4.167   1.005   1.297 -0.5300 -0.4240  1.0191
 7424TIP3   OH222235   2.687   0.913   1.248 -0.4200 -0.2735  0.2382
 7424TIP3    H122236   2.628   0.861   1.193  1.0776 -2.2036  0.3527
 7424TIP3    H222237   2.663   0.889   1.338  0.0983 -0.5935  0.2978
 7425TIP3   OH222238   6.838   2.179   3.435  0.5867  0.1895 -0.2191
 7425TIP3    H122239   6.803   2.190   3.524 -0.7186  0.6473 -0.7600
 7425TIP3    H222240   6.849   2.085   3.425  2.0620  0.2125  0.8966
 7426TIP3   OH222241   2.194   2.063   2.067  0.1751  0.5320 -0.1627
 7426TIP3    H122242   2.174   2.061   1.973  1.0686  2.0128 -0.4133
 7426TIP3    H222243   2.146   2.140   2.099  0.3304  0.3596  0.4864
 7427TIP3   OH222244   2.076   1.225   4.353 -0.0291 -0.0725 -0.4189
 7427TIP3    H122245   2.026   1.148   4.325  1.0856 -0.5621 -1.1463
 7427TIP3    H222246   2.012   1.282   4.394 -1.1999 -0.6633 -1.3628
 7428TIP3   OH222247   6.087   0.803   4.173 -0.0008  0.5225 -0.9404
 7428TIP3    H122248   6.090   0.865   4.100 -0.0181  1.0817 -0.4766
 7428TIP3    H222249   6.156   0.834   4.233 -0.8604  0.8551 -0.1038
 7429TIP3   OH222250   5.062   4.308   1.731  0.0616 -0.2463 -0.1513
 7429TIP3    H122251   5.094   4.309   1.641  0.7222  0.1540  0.0839
 7429TIP3    H222252   5.057   4.215   1.754  0.6035 -0.3270 -0.3514
 7430TIP3   OH222253   2.778   0.310   3.707  0.0247  0.0615 -0.1868
 7430TIP3    H122254   2.822   0.275   3.629 -0.1601 -0.6373  0.0155
 7430TIP3    H222255   2.750   0.398   3.681 -1.2581 -0.6470 -1.4032
 7431TIP3   OH222256   1.817   6.539   5.590 -0.5249  0.2657 -0.1846
 7431TIP3    H122257   1.751   6.525   5.522 -0.3348  1.5869 -0.6770
 7431TIP3    H222258   1.877   6.603   5.551 -0.0564  0.5561  0.9969
 7432TIP3   OH222259   6.389   0.456   0.807 -0.8995 -0.2009  0.3176
 7432TIP3    H122260   6.350   0.369   0.798  1.4242 -1.4041  1.0327
 7432TIP3    H222261   6.347   0.508   0.739 -0.5805 -2.5985 -1.8757
 7433TIP3   OH222262   3.556   1.568   1.416 -0.1420 -0.3930 -0.1876
 7433TIP3    H122263   3.590   1.526   1.495 -1.5771 -1.3507 -0.0311
 7433TIP3    H222264   3.469   1.600   1.442  0.8036  2.5580 -0.3640
 7434TIP3   OH222265   5.904   4.908   4.046 -0.3165  0.3464  0.5104
 7434TIP3    H122266   5.975   4.843   4.040  0.9917  1.7400  0.0697
 7434TIP3    H222267   5.835   4.874   3.990  0.7950 -0.1456 -0.6058
 7435TIP3   OH222268   7.145   4.418   3.741 -0.7242 -0.6178 -0.2604
 7435TIP3    H122269   7.065   4.396   3.693 -0.1853 -1.6371 -0.7208
 7435TIP3    H222270   7.191   4.480   3.684 -1.9048  1.2551  0.7178
 7436TIP3   OH222271   0.623   1.439   1.464 -0.2477  0.0902  0.0266
 7436TIP3    H122272   0.573   1.473   1.390  1.4439  1.6286 -0.4951
 7436TIP3    H222273   0.568   1.370   1.500 -1.4571 -0.2398 -2.2185
 7437TIP3   OH222274   0.646   5.053   0.088  0.5082  0.4644 -0.2081
 7437TIP3    H122275   0.732   5.022   0.117 -0.2676 -1.6711  0.0133
 7437TIP3    H222276   0.585   5.016   0.152 -0.7016  0.7524 -1.1701
 7438TIP3   OH222277   3.982   4.251   2.059  0.0070  0.3474  0.3187
 7438TIP3    H122278   3.994   4.177   2.118 -2.6090  1.2305  2.1222
 7438TIP3    H222279   4.068   4.294   2.056  0.2926  0.2253  3.5152
 7439TIP3   OH222280   5.725   3.152   4.736 -0.1668  0.5586 -0.1866
 7439TIP3    H122281   5.641   3.164   4.781 -0.1985  1.6085 -0.5059
 7439TIP3    H222282   5.703   3.155   4.643  0.2234  0.8569 -0.2732
 7440TIP3   OH222283   6.276   6.407   3.266  0.5531 -0.1709 -0.1189
 7440TIP3    H122284   6.250   6.497   3.288  1.4370  0.5411 -1.8413
 7440TIP3    H222285   6.194   6.363   3.245 -0.2718 -0.6794  3.5123
 7441TIP3   OH222286   6.859   0.737   4.855 -0.5858 -0.6683 -0.0021
 7441TIP3    H122287   6.939   0.688   4.836 -0.9723 -1.6749  0.9013
 7441TIP3    H222288   6.823   0.758   4.768  0.6076 -0.2426 -0.4208
 7442TIP3   OH222289   3.166   3.093   1.499  0.7932 -0.0456 -0.2296
 7442TIP3    H122290   3.216   3.033   1.444  1.9436 -0.1816  0.9174
 7442TIP3    H222291   3.233   3.146   1.542 -0.1800  3.3146 -2.4820
 7443TIP3   OH222292   6.023   5.078   3.053  0.3293  0.3452  0.4834
 7443TIP3    H122293   6.090   5.040   2.997  0.9134  0.8676  0.8246
 7443TIP3    H222294   5.958   5.008   3.063  1.7724 -0.8812  1.7722
 7444TIP3   OH222295   1.761   0.508   2.418 -0.0336  0.2929  0.0112
 7444TIP3    H122296   1.666   0.506   2.430 -0.2067 -0.3681 -1.2932
 7444TIP3    H222297   1.774   0.554   2.335  0.5866 -2.0000 -1.2389
 7445TIP3   OH222298   0.784   0.674   0.663  0.2771  0.1890  0.8704
 7445TIP3    H122299   0.777   0.746   0.599  2.3577 -0.3651 -0.0549
 7445TIP3    H222300   0.702   0.625   0.653  0.1417  0.6843 -0.6774
 7446TIP3   OH222301   0.038   2.899   2.229 -0.2920 -0.1404 -0.6457
 7446TIP3    H122302   0.081   2.813   2.228  0.0967  0.0285 -2.5841
 7446TIP3    H222303   0.109   2.960   2.249 -1.0614 -0.3700  3.8555
 7447TIP3   OH222304   3.949   3.296   1.072  0.4129 -0.3828  0.2777
 7447TIP3    H122305   3.977   3.302   0.980  0.9748  0.0133  0.4736
 7447TIP3    H222306   3.895   3.216   1.075 -2.6063  1.4223 -1.1790
 7448TIP3   OH222307   1.487   2.103   1.204  0.4410  0.3919 -0.2687
 7448TIP3    H122308   1.538   2.174   1.243 -1.3117  1.6786 -0.2299
 7448TIP3    H222309   1.514   2.025   1.252  2.8377  0.8654 -0.6877
 7449TIP3   OH222310   0.978   5.303   4.625  0.4620  0.6555 -0.2431
 7449TIP3    H122311   0.915   5.365   4.588  0.7725  0.9134 -0.3403
 7449TIP3    H222312   0.980   5.231   4.561  1.1264  1.1781 -0.8253
 7450TIP3   OH222313   3.095   5.901   5.591  0.0302 -0.1304 -0.0116
 7450TIP3    H122314   3.083   5.831   5.526 -1.6081  0.2777 -0.1911
 7450TIP3    H222315   3.094   5.981   5.540 -1.5692  0.2122  0.5331
 7451TIP3   OH222316   1.386   2.216   2.369  0.0147 -0.0972  0.3719
 7451TIP3    H122317   1.404   2.223   2.463  0.0094 -0.0914  0.3725
 7451TIP3    H222318   1.415   2.300   2.333  0.6699 -0.3725  0.2625
 7452TIP3   OH222319   1.745   5.472   2.384 -0.5872 -0.6261  0.0805
 7452TIP3    H122320   1.742   5.461   2.479  1.7867 -0.0511  0.2754
 7452TIP3    H222321   1.688   5.547   2.366  1.1557  1.1144  1.4324
 7453TIP3   OH222322   2.437   6.010   3.942 -0.2547 -0.8581  0.3092
 7453TIP3    H122323   2.484   6.079   3.896 -1.0470  0.5405  1.5216
 7453TIP3    H222324   2.452   5.931   3.889  1.2102  0.0888 -0.7484
 7454TIP3   OH222325   4.057   6.190   2.606  0.2574  0.2635  0.3709
 7454TIP3    H122326   3.968   6.196   2.639 -0.3532  0.8030 -1.2723
 7454TIP3    H222327   4.068   6.098   2.582 -0.4097  0.4621 -0.7926
 7455TIP3   OH222328   1.076   2.413   0.464  0.2015 -0.0825  0.3929
 7455TIP3    H122329   1.021   2.436   0.538 -0.5995 -1.6611  0.3505
 7455TIP3    H222330   1.029   2.447   0.388 -1.3516 -2.2775  0.2614
 7456TIP3   OH222331   1.631   1.325   3.862  0.1160 -0.5601  0.1897
 7456TIP3    H122332   1.580   1.356   3.937 -0.7541  0.5456 -0.8155
 7456TIP3    H222333   1.569   1.325   3.789  0.9543 -1.5655 -0.5658
 7457TIP3   OH222334   5.792   6.148   4.608 -0.2538  0.3768 -0.7097
 7457TIP3    H122335   5.709   6.157   4.563 -0.6915  0.5963  0.1289
 7457TIP3    H222336   5.807   6.053   4.614 -1.7047  0.2107  1.3587
 7458TIP3   OH222337   0.795   2.781   5.863 -0.2570  0.6570 -0.1587
 7458TIP3    H122338   0.804   2.867   5.905  1.1731  1.2103 -1.4826
 7458TIP3    H222339   0.741   2.797   5.786 -0.2168  0.3268 -0.2588
 7459TIP3   OH222340   5.900   0.553   5.243  0.4325  0.1304 -0.6779
 7459TIP3    H122341   5.948   0.605   5.178 -0.4133 -0.1852 -1.5753
 7459TIP3    H222342   5.952   0.562   5.323  1.7284  0.1929 -1.4876
 7460TIP3   OH222343   5.253   4.439   1.175 -0.0924  0.0048 -0.1617
 7460TIP3    H122344   5.345   4.420   1.157 -0.0438  1.5136 -1.8054
 7460TIP3    H222345   5.205   4.361   1.145  0.5467 -0.2611 -0.4954
 7461TIP3   OH222346   0.454   2.522   1.026  0.1590 -0.0910 -0.7834
 7461TIP3    H122347   0.420   2.447   0.978 -1.1167 -1.5631  2.1500
 7461TIP3    H222348   0.440   2.596   0.967 -2.6833 -1.5207 -2.1209
 7462TIP3   OH222349   5.181   0.415   0.269  0.3247 -0.4086 -0.2688
 7462TIP3    H122350   5.179   0.484   0.204  0.5037 -0.3030 -0.1636
 7462TIP3    H222351   5.268   0.422   0.309 -0.4365  0.7222  1.2627
 7463TIP3   OH222352   3.581   2.227   2.261 -0.4852 -0.1694  0.2582
 7463TIP3    H122353   3.628   2.287   2.203  0.3489 -1.8932 -0.9247
 7463TIP3    H222354   3.647   2.202   2.326 -0.5553 -0.5376  0.1859
 7464TIP3   OH222355   5.306   6.152   2.936  0.3393 -0.2472 -0.2048
 7464TIP3    H122356   5.325   6.157   3.029 -1.9762 -0.3880  0.3487
 7464TIP3    H222357   5.240   6.082   2.929  0.7059 -0.4645 -1.9941
 7465TIP3   OH222358   6.301   3.067   4.789 -0.0503  0.1489  0.0962
 7465TIP3    H122359   6.335   3.067   4.879  0.5662  2.0531 -0.0787
 7465TIP3    H222360   6.243   3.142   4.786  1.2606  1.1679 -1.5191
 7466TIP3   OH222361   0.375   1.842   1.191  0.1713 -0.1596  0.1847
 7466TIP3    H122362   0.383   1.836   1.096 -0.9323  0.0991  0.0597
 7466TIP3    H222363   0.341   1.930   1.208  1.0651  0.0664  0.8802
 7467TIP3   OH222364   0.757   4.757   2.512 -0.2909 -0.3211 -0.6579
 7467TIP3    H122365   0.821   4.712   2.457 -0.0956 -1.5518  0.5426
 7467TIP3    H222366   0.672   4.723   2.483 -0.3049  0.0824 -1.1205
 7468TIP3   OH222367   3.439   0.868   0.272  0.0130  0.3259 -0.3763
 7468TIP3    H122368   3.371   0.836   0.212  0.6474  0.5239 -1.2102
 7468TIP3    H222369   3.521   0.847   0.229  0.5703 -1.5249  1.4188
 7469TIP3   OH222370   4.993   0.883   2.199  0.6383 -0.2050 -0.1739
 7469TIP3    H122371   5.076   0.926   2.215  1.2416 -1.5910  0.5877
 7469TIP3    H222372   5.010   0.821   2.128  0.1746 -0.2328 -0.2684
 7470TIP3   OH222373   3.490   5.296   0.598  0.0542  0.2266 -0.0685
 7470TIP3    H122374   3.487   5.260   0.687 -0.6191 -1.9835 -0.9356
 7470TIP3    H222375   3.400   5.319   0.578  0.5305  3.0804  0.6580
 7471TIP3   OH222376   0.353   3.147   2.336  0.2508 -0.0157 -0.3844
 7471TIP3    H122377   0.336   3.080   2.402 -0.4548 -1.1303 -1.6466
 7471TIP3    H222378   0.382   3.097   2.259 -1.7434  0.9639 -1.8535
 7472TIP3   OH222379   3.822   2.912   0.835  0.9844  0.0897 -0.0213
 7472TIP3    H122380   3.799   2.985   0.893  2.1001  0.2756  0.2037
 7472TIP3    H222381   3.774   2.837   0.871 -0.1323  0.6846 -0.2271
 7473TIP3   OH222382   3.573   1.129   5.797  0.1075 -0.3045 -0.3863
 7473TIP3    H122383   3.646   1.094   5.848 -0.8331 -1.1715  0.3900
 7473TIP3    H222384   3.521   1.179   5.860 -0.3929 -0.3421 -0.7598
 7474TIP3   OH222385   1.968   1.651   2.570 -0.2301 -0.1561 -0.7485
 7474TIP3    H122386   1.938   1.729   2.617  0.6138 -0.4366  0.3008
 7474TIP3    H222387   1.893   1.625   2.517 -1.0841  0.4230  0.1259
 7475TIP3   OH222388   3.527   5.611   4.630  0.0516 -0.0550  0.0790
 7475TIP3    H122389   3.433   5.600   4.618 -0.3802  3.2613 -0.5035
 7475TIP3    H222390   3.549   5.690   4.580  2.9004  0.0475  1.2757
 7476TIP3   OH222391   3.103   4.831   1.450  0.1935  0.3742  0.4558
 7476TIP3    H122392   3.141   4.785   1.375  2.8596 -1.4228  2.7290
 7476TIP3    H222393   3.018   4.789   1.463  0.9470 -1.3251  0.1536
 7477TIP3   OH222394   5.634   1.632   1.278 -0.2397 -1.1140  0.1458
 7477TIP3    H122395   5.548   1.602   1.247 -0.8380 -0.1948  0.8577
 7477TIP3    H222396   5.646   1.587   1.361  0.3888 -1.9189 -0.3610
 7478TIP3   OH222397   4.502   4.719   5.233  0.0996 -0.2227 -0.0550
 7478TIP3    H122398   4.431   4.705   5.170  1.8959  1.0357 -2.5078
 7478TIP3    H222399   4.466   4.781   5.297 -1.4549 -0.7800 -0.3508
 7479TIP3   OH222400   6.005   3.407   5.704  0.4396 -0.3024  0.3607
 7479TIP3    H122401   5.929   3.463   5.721 -0.1109 -1.3876  1.6901
 7479TIP3    H222402   6.011   3.351   5.782  1.5830 -1.3876 -0.4666
 7480TIP3   OH222403   2.141   4.153   4.406 -0.4307  0.2991 -0.1800
 7480TIP3    H122404   2.095   4.204   4.340  0.2676  0.3094 -0.6694
 7480TIP3    H222405   2.223   4.126   4.364  0.1533  0.5316  0.7631
 7481TIP3   OH222406   4.372   5.885   0.558 -0.3597 -0.2762  0.5179
 7481TIP3    H122407   4.434   5.953   0.531 -0.0244 -0.4015  0.9615
 7481TIP3    H222408   4.322   5.865   0.479  0.4785 -0.5077  0.0443
 7482TIP3   OH222409   0.689   0.146   5.390  0.2577 -0.9902  0.2944
 7482TIP3    H122410   0.667   0.070   5.335 -0.3612 -0.2383 -0.5221
 7482TIP3    H222411   0.639   0.218   5.352  2.2184  0.2540 -0.0857
 7483TIP3   OH222412   4.745   4.042   3.380 -0.0527 -0.4268 -0.4654
 7483TIP3    H122413   4.743   3.947   3.392  0.8165 -0.8369 -2.9650
 7483TIP3    H222414   4.705   4.057   3.295  0.7818  1.3487 -0.6016
 7484TIP3   OH222415   2.832   2.661   0.339  0.5314  0.5342  0.2932
 7484TIP3    H122416   2.832   2.744   0.386  0.3009  1.0911 -0.6692
 7484TIP3    H222417   2.784   2.601   0.396 -0.8197  1.5147  0.2360
 7485TIP3   OH222418   3.861   1.042   2.464 -0.1520 -0.6753 -0.2080
 7485TIP3    H122419   3.855   0.996   2.380  0.6004  0.5552 -0.9777
 7485TIP3    H222420   3.840   1.133   2.443  2.4950  0.1828  0.3832
 7486TIP3   OH222421   6.837   5.782   4.077  0.3377  0.3966  1.0151
 7486TIP3    H122422   6.768   5.843   4.103  1.8963  2.0019  1.6198
 7486TIP3    H222423   6.834   5.713   4.144 -0.5342  0.5252  1.1271
 7487TIP3   OH222424   0.470   3.032   5.887  0.2411 -0.3139 -0.2780
 7487TIP3    H122425   0.429   3.089   5.822  0.2628  0.4309  0.3475
 7487TIP3    H222426   0.564   3.037   5.866  0.1207 -1.3148 -1.1503
 7488TIP3   OH222427   2.171   5.794   0.205 -0.0739  0.4810 -0.0019
 7488TIP3    H122428   2.153   5.701   0.192 -1.2011  0.8786 -1.6168
 7488TIP3    H222429   2.129   5.816   0.288 -1.2937 -0.0896 -0.4553
 7489TIP3   OH222430   1.939   1.182   3.063 -0.0527 -0.2371 -0.6908
 7489TIP3    H122431   1.979   1.121   3.125  1.2465 -0.8880 -2.0912
 7489TIP3    H222432   2.007   1.248   3.047 -0.1274 -0.4037 -1.8246
 7490TIP3   OH222433   6.226   3.173   3.206 -0.4361 -0.0253  0.1964
 7490TIP3    H122434   6.246   3.080   3.198 -2.2194 -0.3863 -0.4885
 7490TIP3    H222435   6.212   3.187   3.299 -0.6908 -0.5693  0.2434
 7491TIP3   OH222436   2.624   1.110   0.616 -0.2870  0.0222 -0.2849
 7491TIP3    H122437   2.619   1.180   0.551  2.9749  0.1969 -0.5218
 7491TIP3    H222438   2.619   1.029   0.565  0.4591  0.1477 -0.5718
 7492TIP3   OH222439   4.922   4.921   0.821 -0.2572  0.0488  0.3579
 7492TIP3    H122440   4.986   4.924   0.892 -0.9603  0.1253  0.9980
 7492TIP3    H222441   4.933   5.005   0.776 -0.1037  0.1793  0.6318
 7493TIP3   OH222442   3.991   2.471   2.213  0.0057 -0.1089  0.1203
 7493TIP3    H122443   4.023   2.484   2.123  0.4494  0.9669  0.4209
 7493TIP3    H222444   4.051   2.521   2.268 -0.7864 -0.0174  0.9334
 7494TIP3   OH222445   0.119   2.713   3.261 -0.1849 -0.0209 -0.3785
 7494TIP3    H122446   0.075   2.702   3.345  0.2789 -0.6886 -0.2142
 7494TIP3    H222447   0.189   2.776   3.279  0.2108 -0.5166 -0.1388
 7495TIP3   OH222448   5.086   0.571   1.387  0.0701 -0.2244  0.0351
 7495TIP3    H122449   5.008   0.622   1.407  0.8116  1.5595 -1.2747
 7495TIP3    H222450   5.124   0.550   1.473 -1.5638 -0.7183  0.6664
 7496TIP3   OH222451   4.521   1.848   5.192 -0.1070  0.1669  0.5654
 7496TIP3    H122452   4.561   1.793   5.124  0.8192 -0.2988  1.4552
 7496TIP3    H222453   4.436   1.872   5.156  0.8988  1.1046 -1.3629
 7497TIP3   OH222454   3.142   3.679   1.414 -0.0368  0.6224 -0.0872
 7497TIP3    H122455   3.091   3.612   1.369 -0.8172 -0.4013  2.2028
 7497TIP3    H222456   3.095   3.761   1.397 -1.1390  0.0368  0.0725
 7498TIP3   OH222457   0.006   3.402   2.765  0.3072  0.6717 -0.5146
 7498TIP3    H122458   0.072   3.384   2.832  0.5314  0.8873 -0.6776
 7498TIP3    H222459  -0.066   3.343   2.787 -0.2840  1.8353  0.8493
 7499TIP3   OH222460   6.910   2.327   1.053 -0.5942  0.2126 -0.2284
 7499TIP3    H122461   6.986   2.319   0.994 -0.1511 -0.3775  0.4077
 7499TIP3    H222462   6.927   2.407   1.102 -1.1213  0.8792 -1.1100
 7500TIP3   OH222463   0.782   0.355   5.633 -0.2333 -0.4506 -0.0169
 7500TIP3    H122464   0.853   0.329   5.573  1.6867  0.3957  1.7827
 7500TIP3    H222465   0.757   0.443   5.603 -2.2634 -1.5916 -2.0835
 7501TIP3   OH222466   3.679   0.737   3.255  0.0672 -0.2550 -0.0677
 7501TIP3    H122467   3.662   0.760   3.164  0.7891  1.0269  0.0921
 7501TIP3    H222468   3.773   0.754   3.267  0.2781 -1.7256  0.5573
 7502TIP3   OH222469   5.619   4.900   1.981 -0.8688  0.7568  0.3074
 7502TIP3    H122470   5.559   4.941   2.043 -0.2732  0.3882  1.1406
 7502TIP3    H222471   5.602   4.806   1.990  0.8840  0.5280  1.6970
 7503TIP3   OH222472   6.091   5.013   3.581  0.9187  0.6064  0.4658
 7503TIP3    H122473   6.009   4.983   3.543  0.7741  0.0345  1.2033
 7503TIP3    H222474   6.153   5.016   3.508  0.4920  0.1287  0.0827
 7504TIP3   OH222475   5.231   5.836   3.229 -0.0995  0.1102 -0.1320
 7504TIP3    H122476   5.258   5.905   3.289 -0.2910  0.1471 -0.0853
 7504TIP3    H222477   5.193   5.882   3.155 -0.0992  0.0593 -0.1641
 7505TIP3   OH222478   5.537   5.272   4.636  0.1228 -0.2264  0.3748
 7505TIP3    H122479   5.573   5.224   4.562  0.9485  0.5404  0.2786
 7505TIP3    H222480   5.443   5.278   4.617  0.2616 -0.4025 -0.3904
 7506TIP3   OH222481   5.597   5.521   4.562  0.3560 -0.0414  0.2358
 7506TIP3    H122482   5.665   5.558   4.618 -2.1039  0.6171  3.1173
 7506TIP3    H222483   5.591   5.429   4.588  0.3012 -0.1526 -0.1605
 7507TIP3   OH222484   5.546   4.360   0.589  0.0341 -0.1033 -0.2895
 7507TIP3    H122485   5.548   4.287   0.650 -1.2980  0.7333  0.8131
 7507TIP3    H222486   5.638   4.387   0.581  0.4252 -1.2854  0.0068
 7508TIP3   OH222487   1.653   6.178   1.164 -0.0535 -0.2053  0.5188
 7508TIP3    H122488   1.600   6.212   1.236 -0.1246 -1.9748  1.3591
 7508TIP3    H222489   1.594   6.180   1.088  0.2492  2.3566  0.2783
 7509TIP3   OH222490   5.407   5.285   3.154  0.2680  0.4531 -0.4704
 7509TIP3    H122491   5.489   5.333   3.158  1.4978 -1.5918  2.2325
 7509TIP3    H222492   5.340   5.348   3.178  1.8863  0.8867  3.7261
 7510TIP3   OH222493   6.052   3.817   0.184 -0.0147  0.2791 -0.2066
 7510TIP3    H122494   5.959   3.810   0.164  0.1012 -1.8388 -0.1453
 7510TIP3    H222495   6.096   3.809   0.099  0.1677  0.0539 -0.0902
 7511TIP3   OH222496   6.881   6.359   2.954  0.1191  0.2028 -0.4749
 7511TIP3    H122497   6.822   6.304   3.006  0.0062  1.4617  0.7941
 7511TIP3    H222498   6.827   6.392   2.882  0.1674 -1.2296 -1.2043
 7512TIP3   OH222499   0.012   4.201   5.435  0.0217 -0.7702  0.3788
 7512TIP3    H122500   0.092   4.155   5.407  2.1115  3.2690 -1.1395
 7512TIP3    H222501  -0.046   4.195   5.359  1.4085  1.1784 -0.9520
 7513TIP3   OH222502   4.112   1.096   5.141  0.4604 -0.1011  0.3747
 7513TIP3    H122503   4.095   1.164   5.206 -0.5657  0.0048  0.0265
 7513TIP3    H222504   4.044   1.030   5.157 -0.6616  0.5399 -1.3808
 7514TIP3   OH222505   2.747   5.142   3.749  0.2410  0.2193  0.0050
 7514TIP3    H122506   2.777   5.214   3.693 -0.1928 -1.4140 -2.4648
 7514TIP3    H222507   2.666   5.174   3.788 -0.1643  0.9527 -1.3829
 7515TIP3   OH222508   1.889   5.744   0.639  0.0041  0.1252 -0.0183
 7515TIP3    H122509   1.875   5.825   0.688  0.3246  0.6219 -0.7254
 7515TIP3    H222510   1.965   5.703   0.681 -0.1479  0.2000  0.3284
 7516TIP3   OH222511   5.006   3.675   3.674  0.0221  0.8547  0.3349
 7516TIP3    H122512   5.097   3.674   3.644 -0.2349  0.0187 -0.4599
 7516TIP3    H222513   4.975   3.763   3.655  1.0476  1.5957  1.8579
 7517TIP3   OH222514   3.979   4.396   2.322  0.8339 -0.3554 -0.1304
 7517TIP3    H122515   4.056   4.431   2.367  0.4630  0.4677 -0.1148
 7517TIP3    H222516   4.013   4.359   2.241  1.4976 -1.7507  0.7556
 7518TIP3   OH222517   5.790   0.330   0.810 -0.1568 -0.1926  0.0141
 7518TIP3    H122518   5.880   0.354   0.790  0.1402 -1.7137 -0.6323
 7518TIP3    H222519   5.793   0.296   0.899 -0.5458  1.8559  0.8628
 7519TIP3   OH222520   2.745   3.041   4.568 -0.0531 -0.2124  0.3449
 7519TIP3    H122521   2.747   2.976   4.498 -0.0841  0.0424  0.1063
 7519TIP3    H222522   2.655   3.073   4.569  0.3867  1.1520 -0.7671
 7520TIP3   OH222523   0.388   5.283   4.929 -0.0940 -0.1277  0.1225
 7520TIP3    H122524   0.400   5.201   4.977  1.8482 -2.1576 -3.4183
 7520TIP3    H222525   0.302   5.275   4.888 -0.3273  0.0953  0.5584
 7521TIP3   OH222526   4.560   5.403   4.324  0.6830 -0.2118  0.3414
 7521TIP3    H122527   4.495   5.447   4.379  0.7132 -0.4232  0.5462
 7521TIP3    H222528   4.633   5.385   4.383  1.3108  0.8328 -0.0848
 7522TIP3   OH222529   6.546   3.012   2.828 -0.5734 -0.0495  0.0125
 7522TIP3    H122530   6.619   2.972   2.782 -0.9367 -0.1901 -0.4436
 7522TIP3    H222531   6.567   3.000   2.921 -0.7432 -1.4183 -0.1166
 7523TIP3   OH222532   6.993   0.677   0.890 -0.7546 -0.2632 -0.5661
 7523TIP3    H122533   7.070   0.687   0.833  0.0539 -1.3849  0.2661
 7523TIP3    H222534   6.925   0.730   0.849 -0.3533 -1.3883 -2.8399
 7524TIP3   OH222535   0.093   3.727   0.597 -0.3458 -0.4287 -0.0404
 7524TIP3    H122536   0.121   3.805   0.646  0.1787 -1.4811  1.4068
 7524TIP3    H222537   0.167   3.707   0.540 -0.4305  0.0519 -0.3250
 7525TIP3   OH222538   6.044   2.271   3.428 -0.1915  0.2546  0.0589
 7525TIP3    H122539   5.977   2.257   3.361  0.0179 -0.5192  0.0068
 7525TIP3    H222540   6.018   2.352   3.471 -0.2939  0.7982 -0.9968
 7526TIP3   OH222541   3.384   6.063   5.351  0.8817  0.1728 -0.1046
 7526TIP3    H122542   3.435   6.073   5.270  1.3738  0.0100  0.1802
 7526TIP3    H222543   3.364   5.969   5.356  2.4159 -0.1416  0.8779
 7527TIP3   OH222544   0.299   5.959   0.358 -0.4373 -0.2963 -0.5693
 7527TIP3    H122545   0.218   5.980   0.404  0.4394  0.1791  0.8005
 7527TIP3    H222546   0.307   5.864   0.368 -0.8033 -0.3415 -0.6828
 7528TIP3   OH222547   2.619   3.425   1.330  0.0202  0.1273 -0.0628
 7528TIP3    H122548   2.676   3.347   1.327  0.9462  0.7646  0.4210
 7528TIP3    H222549   2.663   3.484   1.391 -1.2519  0.5974  0.4270
 7529TIP3   OH222550   3.512   3.745   2.552 -0.0158  0.5447  0.3925
 7529TIP3    H122551   3.585   3.802   2.575 -0.5600  1.7977 -0.8030
 7529TIP3    H222552   3.434   3.796   2.573 -0.5366 -0.1624  0.2254
 7530TIP3   OH222553   1.976   4.570   3.475  0.4904  0.4460  0.7297
 7530TIP3    H122554   1.917   4.496   3.458  0.2309  0.3574  1.9410
 7530TIP3    H222555   2.028   4.578   3.395 -0.3470 -0.2327  0.0933
 7531TIP3   OH222556   6.486   5.026   4.338 -0.0727  0.1764  0.2698
 7531TIP3    H122557   6.470   5.099   4.278 -2.3309 -0.8028 -0.4189
 7531TIP3    H222558   6.454   4.949   4.291 -1.0250 -0.7560  2.3460
 7532TIP3   OH222559   5.035   4.655   0.174 -0.7350  0.1963 -0.2988
 7532TIP3    H122560   4.963   4.628   0.117 -0.5621 -0.7056 -0.0935
 7532TIP3    H222561   5.102   4.588   0.163  0.2514  1.2370 -0.7866
 7533TIP3   OH222562   3.725   5.293   2.445  0.1040 -0.0603 -0.1403
 7533TIP3    H122563   3.816   5.321   2.436  0.2877 -0.3748  0.6387
 7533TIP3    H222564   3.674   5.364   2.405  0.6646  0.3531 -0.1372
 7534TIP3   OH222565   4.525   0.222   3.366  0.4876  0.6846  0.3581
 7534TIP3    H122566   4.496   0.131   3.364 -0.9982  1.0469 -3.6631
 7534TIP3    H222567   4.603   0.223   3.312 -0.0526  1.9128 -0.4383
 7535TIP3   OH222568   0.782   5.094   1.242  0.3586 -0.2888  0.1894
 7535TIP3    H122569   0.779   5.012   1.193  0.9243  0.6223 -1.4563
 7535TIP3    H222570   0.742   5.073   1.327 -1.8971 -1.6202 -1.1083
 7536TIP3   OH222571   2.949   0.535   2.966 -0.5091 -0.4275  0.2187
 7536TIP3    H122572   2.929   0.472   2.896  0.6946 -1.6327  0.8934
 7536TIP3    H222573   2.991   0.608   2.921 -2.0233 -0.0217 -0.5991
 7537TIP3   OH222574   4.231   4.054   0.102 -0.8158  0.0090 -0.2133
 7537TIP3    H122575   4.307   4.112   0.097 -0.2427 -0.6279  0.9274
 7537TIP3    H222576   4.157   4.110   0.076 -0.2580  1.2398  0.7453
 7538TIP3   OH222577   3.675   0.830   1.473 -0.2134  0.2252  0.2299
 7538TIP3    H122578   3.589   0.855   1.441 -0.0167  0.2542 -0.2749
 7538TIP3    H222579   3.700   0.755   1.419  0.7965  1.2429 -0.7507
 7539TIP3   OH222580   3.024   1.246   1.815  0.1980 -0.1227 -0.4241
 7539TIP3    H122581   2.994   1.169   1.767 -0.3138  0.2629 -0.7338
 7539TIP3    H222582   2.956   1.262   1.880 -0.3953  0.8749 -1.2594
 7540TIP3   OH222583   5.021   4.197   0.543  0.5901 -0.0238 -0.2188
 7540TIP3    H122584   4.948   4.155   0.588 -0.1217  0.7546 -0.6178
 7540TIP3    H222585   5.008   4.175   0.451  0.3891  0.8003 -0.3914
 7541TIP3   OH222586   7.026   4.892   4.190 -0.0973  0.3034  0.7152
 7541TIP3    H122587   6.999   4.871   4.100  1.5470 -0.2591  0.3226
 7541TIP3    H222588   6.973   4.969   4.213  0.4461  1.3439 -1.2520
 7542TIP3   OH222589   3.488   4.801   1.331  0.0378 -0.2091  0.0658
 7542TIP3    H122590   3.553   4.864   1.361  0.2280 -0.6955  0.6790
 7542TIP3    H222591   3.532   4.755   1.259  0.2821 -0.3642  0.3124
 7543TIP3   OH222592   6.638   5.341   5.654  0.0011  0.0875 -0.3157
 7543TIP3    H122593   6.569   5.275   5.659 -2.0389  2.1193 -0.2393
 7543TIP3    H222594   6.650   5.357   5.561  0.8761 -0.7148 -0.3578
 7544TIP3   OH222595   2.937   4.330   0.852 -0.3597 -0.0178 -0.0934
 7544TIP3    H122596   2.898   4.343   0.938  1.3336 -3.6062  1.4568
 7544TIP3    H222597   2.883   4.262   0.811  2.8443 -3.9729  1.4995
 7545TIP3   OH222598   1.055   1.265   2.046 -0.7183  0.2040 -0.4106
 7545TIP3    H122599   1.127   1.280   2.107 -1.5675  0.1148  0.6445
 7545TIP3    H222600   0.995   1.208   2.094 -1.7476  0.7072 -1.0784
 7546TIP3   OH222601   5.994   3.784   1.043  0.0789 -0.5471  0.4756
 7546TIP3    H122602   6.057   3.712   1.032 -1.0588 -1.4918 -0.0655
 7546TIP3    H222603   5.919   3.743   1.086 -0.1371  0.5893  1.2217
 7547TIP3   OH222604   5.304   3.065   1.749  0.5434  0.6042 -0.3341
 7547TIP3    H122605   5.276   3.067   1.657 -0.2996 -0.3938 -0.1117
 7547TIP3    H222606   5.305   3.157   1.775  0.0664  0.8497 -1.1351
 7548TIP3   OH222607   6.396   1.337   3.787 -0.2521 -0.8512 -0.2166
 7548TIP3    H122608   6.445   1.265   3.827  2.7982  0.1100 -1.9296
 7548TIP3    H222609   6.443   1.356   3.706 -2.6191  1.2582 -1.2343
 7549TIP3   OH222610   1.461   2.626   3.770 -0.1873 -0.5545  0.3402
 7549TIP3    H122611   1.443   2.537   3.798 -0.8888 -0.2508  0.8819
 7549TIP3    H222612   1.387   2.677   3.802  0.5946  0.3636  0.7462
 7550TIP3   OH222613   5.152   4.961   2.924 -0.1202  0.2030 -0.0608
 7550TIP3    H122614   5.212   4.921   2.988  1.0259  0.1649 -1.1173
 7550TIP3    H222615   5.124   5.042   2.966  0.6174  0.1873  0.4994
 7551TIP3   OH222616   4.594   5.563   4.736  0.1496  0.2686 -0.0572
 7551TIP3    H122617   4.564   5.477   4.764  1.6128  0.2415  1.6195
 7551TIP3    H222618   4.662   5.545   4.670  0.8602  0.0797  0.7045
 7552TIP3   OH222619   2.155   6.010   1.739 -0.2566  0.3386 -0.1476
 7552TIP3    H122620   2.151   5.918   1.712  0.3330  0.3896 -0.4196
 7552TIP3    H222621   2.102   6.056   1.674 -1.3541  0.0827  0.5299
 7553TIP3   OH222622   3.263   6.357   2.007  0.2312  0.4155  0.5951
 7553TIP3    H122623   3.336   6.296   2.022  0.4726  1.0233  2.0954
 7553TIP3    H222624   3.303   6.444   2.008 -0.2897  0.6814 -0.2982
 7554TIP3   OH222625   1.590   2.752   1.783  0.0746  0.1244  0.1188
 7554TIP3    H122626   1.615   2.817   1.718  0.8723  0.1887  0.4738
 7554TIP3    H222627   1.502   2.778   1.811 -0.2199  0.1734 -0.8242
 7555TIP3   OH222628   1.187   5.354   2.649  0.4178 -0.6740 -0.2561
 7555TIP3    H122629   1.149   5.377   2.564  1.1608 -1.9142 -0.9506
 7555TIP3    H222630   1.281   5.367   2.638  0.8236 -3.3370 -0.5189
 7556TIP3   OH222631   6.254   5.930   1.053  0.3663 -0.4797  0.1101
 7556TIP3    H122632   6.238   5.866   1.122 -1.2839 -1.1151 -0.8275
 7556TIP3    H222633   6.203   6.006   1.079  0.1007 -0.5561 -0.1968
 7557TIP3   OH222634   2.478   4.855   1.899  0.2702 -0.0098 -0.1496
 7557TIP3    H122635   2.525   4.881   1.979  0.0499  0.5406 -0.1945
 7557TIP3    H222636   2.528   4.894   1.828 -0.2632  0.5973 -0.1952
 7558TIP3   OH222637   0.244   6.411   2.704 -0.0385  0.4803 -0.3405
 7558TIP3    H122638   0.235   6.319   2.730 -1.9019  0.4688 -0.9256
 7558TIP3    H222639   0.281   6.408   2.616  0.0410  0.3122 -0.3018
 7559TIP3   OH222640   2.397   0.317   5.146  0.5096  0.7881  0.1907
 7559TIP3    H122641   2.313   0.305   5.189  0.4267 -0.2969 -0.2219
 7559TIP3    H222642   2.384   0.389   5.085 -0.3675  0.1211 -0.4399
 7560TIP3   OH222643   4.048   1.484   0.930  0.5096  0.4736  0.2877
 7560TIP3    H122644   4.018   1.548   0.995  1.8967  1.1710  0.2748
 7560TIP3    H222645   4.095   1.536   0.864  2.5294 -0.5957  0.7891
 7561TIP3   OH222646   1.915   0.833   2.483  0.3608  0.3661 -0.2035
 7561TIP3    H122647   1.890   0.880   2.404 -1.7785 -0.2702  0.0302
 7561TIP3    H222648   1.833   0.822   2.531  1.5615  0.5837  2.0438
 7562TIP3   OH222649   0.853   5.056   0.903 -0.3136 -0.3193 -0.3038
 7562TIP3    H122650   0.781   5.022   0.955 -1.6876  2.0840 -0.5087
 7562TIP3    H222651   0.927   5.000   0.925 -1.8974 -2.0470  0.9122
 7563TIP3   OH222652   3.964   6.667   3.503 -0.1798 -0.4415  0.2466
 7563TIP3    H122653   3.940   6.686   3.412 -2.4333  1.4460  1.1401
 7563TIP3    H222654   4.060   6.666   3.501 -0.1240  0.8706 -1.9309
 7564TIP3   OH222655   3.357   6.241   4.864 -0.2101 -0.2501  0.4328
 7564TIP3    H122656   3.374   6.304   4.794 -0.8691  0.1733  0.6415
 7564TIP3    H222657   3.391   6.158   4.830 -0.7153 -0.0990 -0.4913
 7565TIP3   OH222658   6.995   5.049   0.494  0.1122 -0.1693 -0.3539
 7565TIP3    H122659   7.057   4.990   0.537 -0.3901 -0.8170 -0.5023
 7565TIP3    H222660   7.028   5.137   0.513  1.0348 -0.4981 -0.3731
 7566TIP3   OH222661   0.650   3.504   0.343  0.1028 -0.1098  0.6189
 7566TIP3    H122662   0.685   3.487   0.255 -0.3957  1.4408  0.0909
 7566TIP3    H222663   0.713   3.565   0.382 -0.5866  0.5872  0.6676
 7567TIP3   OH222664   1.475   6.763   0.136  0.0154  0.2722 -0.4231
 7567TIP3    H122665   1.410   6.827   0.161 -0.8847 -1.3277  1.6365
 7567TIP3    H222666   1.511   6.731   0.219  2.3965  0.0361 -1.4554
 7568TIP3   OH222667   0.782   0.474   2.712  0.0337 -0.2648 -0.1296
 7568TIP3    H122668   0.800   0.542   2.777 -0.2903  0.4146 -0.7273
 7568TIP3    H222669   0.798   0.517   2.628  1.7570 -1.5108 -0.4898
 7569TIP3   OH222670   2.281   1.594   0.548  0.0070 -0.1450 -0.0786
 7569TIP3    H122671   2.236   1.620   0.629 -0.1736 -1.7066  0.3583
 7569TIP3    H222672   2.210   1.583   0.485  0.1381  0.9723 -0.4255
 7570TIP3   OH222673   2.503   1.461   4.833  0.2589 -0.2265 -0.4559
 7570TIP3    H122674   2.450   1.433   4.908  0.4699 -0.3448 -0.3495
 7570TIP3    H222675   2.593   1.452   4.862  0.3354  0.3948 -0.4886
 7571TIP3   OH222676   2.664   2.913   2.431  0.1855 -0.3410  0.0206
 7571TIP3    H122677   2.579   2.906   2.387  0.8292  0.1891 -1.3657
 7571TIP3    H222678   2.682   2.824   2.461 -1.6693 -0.1401  2.0027
 7572TIP3   OH222679   2.087   6.735   3.957 -0.4248  0.2733 -0.3813
 7572TIP3    H122680   2.181   6.722   3.965 -0.4963 -0.7006 -0.9459
 7572TIP3    H222681   2.049   6.673   4.019 -0.7125 -0.1135 -0.9376
 7573TIP3   OH222682   2.350   4.653   2.597  0.4201 -0.0487  0.4019
 7573TIP3    H122683   2.277   4.619   2.649 -0.6761  0.9001 -0.4616
 7573TIP3    H222684   2.322   4.642   2.506  2.8887 -3.0327 -0.1864
 7574TIP3   OH222685   3.081   2.138   1.406 -0.6558 -0.0136  0.6351
 7574TIP3    H122686   3.140   2.105   1.338 -1.4272  0.7777 -0.4379
 7574TIP3    H222687   3.114   2.099   1.487  0.2088 -1.0686 -0.2008
 7575TIP3   OH222688   1.441   3.371   5.221  0.1939 -0.3940  0.1197
 7575TIP3    H122689   1.401   3.454   5.246  0.1032 -0.2262 -0.5585
 7575TIP3    H222690   1.368   3.310   5.211 -0.1746  0.4029 -3.0456
 7576TIP3   OH222691   4.606   6.686   1.235 -0.2104 -0.0174 -0.2718
 7576TIP3    H122692   4.684   6.651   1.192 -0.6676  0.5434 -1.5978
 7576TIP3    H222693   4.551   6.609   1.250 -0.2194 -0.1816 -1.0875
 7577TIP3   OH222694   5.483   6.125   2.000  0.0666  0.2778  0.1645
 7577TIP3    H122695   5.482   6.135   2.096  0.6765  0.3562  0.1712
 7577TIP3    H222696   5.462   6.033   1.986 -2.7663  0.8248  0.2327
 7578TIP3   OH222697   1.815   0.094   5.222  0.3503 -0.5622  0.4159
 7578TIP3    H122698   1.792   0.178   5.182  1.3716 -0.9009 -0.9632
 7578TIP3    H222699   1.745   0.035   5.196 -0.1031 -0.2747  0.9583
 7579TIP3   OH222700   1.487   4.118   4.234  0.2489 -0.6649  0.3566
 7579TIP3    H122701   1.426   4.054   4.196 -0.1336 -1.4461  2.2110
 7579TIP3    H222702   1.508   4.177   4.161 -0.9448 -1.7213 -0.8915
 7580TIP3   OH222703   3.202   6.244   1.026 -0.2438  0.0033 -0.0816
 7580TIP3    H122704   3.280   6.269   1.075  1.2251 -1.6434 -1.4635
 7580TIP3    H222705   3.131   6.252   1.090  1.2813 -0.0722  1.7135
 7581TIP3   OH222706   0.406   5.366   3.634  0.0203  0.4814  0.0059
 7581TIP3    H122707   0.462   5.442   3.616  0.0108  0.1812 -1.4117
 7581TIP3    H222708   0.468   5.293   3.642 -0.0121  0.5302  0.8488
 7582TIP3   OH222709   2.837   2.533   5.194 -0.3066 -0.1657  0.9390
 7582TIP3    H122710   2.840   2.438   5.205 -1.3129  0.0468  3.8951
 7582TIP3    H222711   2.745   2.551   5.172  0.0695  0.1053 -0.5302
 7583TIP3   OH222712   1.487   3.507   1.300 -0.1437 -0.0770 -0.2399
 7583TIP3    H122713   1.395   3.485   1.290 -0.2348 -0.3222  0.9774
 7583TIP3    H222714   1.513   3.467   1.383  0.6277  1.3387  0.2438
 7584TIP3   OH222715   2.268   1.457   4.679 -0.2980  0.0150  0.5689
 7584TIP3    H122716   2.347   1.461   4.732 -0.7736  2.4542  1.1953
 7584TIP3    H222717   2.298   1.433   4.591  1.0476  0.3278  0.9310
 7585TIP3   OH222718   3.795   6.039   2.583  0.4108 -0.4246  0.0947
 7585TIP3    H122719   3.874   5.985   2.587  1.8666  1.6560  1.6335
 7585TIP3    H222720   3.757   6.031   2.671  1.0296  1.4640  0.5806
 7586TIP3   OH222721   0.078   1.352   5.355 -0.2551 -0.2098 -0.4631
 7586TIP3    H122722   0.145   1.355   5.423  0.4645  3.6089 -1.0526
 7586TIP3    H222723  -0.003   1.376   5.399  0.2712  2.6011 -0.8272
 7587TIP3   OH222724   0.236   6.694   3.680  0.0104 -0.1624  0.4942
 7587TIP3    H122725   0.277   6.626   3.626  1.1926  0.7808  0.1544
 7587TIP3    H222726   0.144   6.693   3.655  0.0848 -1.3619  0.2132
 7588TIP3   OH222727   1.547   0.848   2.297  0.1855  0.0178  0.4896
 7588TIP3    H122728   1.465   0.896   2.304  0.7630  0.9046  1.7187
 7588TIP3    H222729   1.522   0.759   2.272 -0.9722  0.7624 -1.1141
 7589TIP3   OH222730   7.163   5.682   4.687  0.6711  0.6970 -0.2007
 7589TIP3    H122731   7.148   5.752   4.623  1.3894  0.1208 -1.0278
 7589TIP3    H222732   7.077   5.642   4.699  0.5412  0.7727 -0.8600
 7590TIP3   OH222733   3.188   2.335   1.614 -0.2473 -0.1735  0.0189
 7590TIP3    H122734   3.133   2.412   1.627  0.2226  0.0529  0.7007
 7590TIP3    H222735   3.208   2.335   1.520 -0.4637  0.3841 -0.0292
 7591TIP3   OH222736   0.220   4.409   4.435  0.3237  0.0806  0.0009
 7591TIP3    H122737   0.214   4.450   4.349  2.4603  0.1458 -0.1866
 7591TIP3    H222738   0.230   4.316   4.417 -0.1189 -0.0087  0.2167
 7592TIP3   OH222739   6.185   5.733   3.077  0.3265  1.2399  0.0553
 7592TIP3    H122740   6.230   5.810   3.112  0.5527  1.3645 -0.5029
 7592TIP3    H222741   6.130   5.766   3.006  0.4498  0.8878 -0.2110
 7593TIP3   OH222742   0.991   3.232   1.820 -0.8162 -0.7864  0.1996
 7593TIP3    H122743   0.940   3.292   1.766  0.9006  0.3011 -0.3164
 7593TIP3    H222744   1.031   3.288   1.887 -0.8523 -1.7058  1.0029
 7594TIP3   OH222745   2.370   1.745   4.621 -0.4462  0.3552  0.2781
 7594TIP3    H122746   2.347   1.706   4.537  1.2520  1.9286 -0.9979
 7594TIP3    H222747   2.292   1.734   4.675 -1.2507 -1.5239 -1.1814
 7595TIP3   OH222748   1.788   0.701   0.035  0.3599  0.0466 -0.6035
 7595TIP3    H122749   1.714   0.735  -0.014 -0.2144  0.1751  0.3209
 7595TIP3    H222750   1.855   0.769   0.028  0.7672 -0.4905 -2.2533
 7596TIP3   OH222751   1.744   5.107   5.678  0.3364 -0.4432  0.0844
 7596TIP3    H122752   1.813   5.164   5.711 -1.0745  1.1741  0.3651
 7596TIP3    H222753   1.759   5.104   5.583  0.1540  0.8069  0.0010
 7597TIP3   OH222754   3.804   5.651   3.641 -0.3083  0.2641 -0.0663
 7597TIP3    H122755   3.759   5.601   3.573  0.4535 -1.2749  0.5084
 7597TIP3    H222756   3.886   5.678   3.600  0.7234 -1.7310  0.5472
 7598TIP3   OH222757   0.921   5.004   2.493 -0.4935 -0.2773 -0.3510
 7598TIP3    H122758   0.951   5.026   2.404 -0.6196  0.4984 -0.2090
 7598TIP3    H222759   0.869   4.925   2.482  1.0736 -1.2993 -0.6999
 7599TIP3   OH222760   1.394   0.623   0.137 -0.0074  0.4866 -0.2829
 7599TIP3    H122761   1.433   0.623   0.224 -1.4585 -1.4486  0.4356
 7599TIP3    H222762   1.406   0.533   0.105  0.3778  1.1221 -2.0376
 7600TIP3   OH222763   2.270   2.186   5.873  0.8785  0.5972 -0.1849
 7600TIP3    H122764   2.198   2.235   5.912  1.5493  1.5126 -0.0643
 7600TIP3    H222765   2.229   2.107   5.837  0.1194  0.0744  1.7043
 7601TIP3   OH222766   0.814   1.760   1.463  0.0844 -0.2811  0.4464
 7601TIP3    H122767   0.718   1.770   1.458  0.0534  0.6053  2.2266
 7601TIP3    H222768   0.846   1.810   1.387 -0.8688 -1.7195 -0.9851
 7602TIP3   OH222769   4.449   5.694   0.084  0.2067  0.2046  0.0693
 7602TIP3    H122770   4.384   5.723   0.020 -1.4045  0.1504  1.6204
 7602TIP3    H222771   4.484   5.775   0.121  0.4248  0.2194 -0.1631
 7603TIP3   OH222772   4.598   6.686   0.844  0.0132 -0.2433 -0.3308
 7603TIP3    H122773   4.534   6.712   0.910 -0.2155 -0.3230 -0.5181
 7603TIP3    H222774   4.558   6.612   0.799  0.2879 -0.3672 -0.3738
 7604TIP3   OH222775   2.587   6.773   4.328 -0.3239  0.4447  0.0808
 7604TIP3    H122776   2.600   6.764   4.234 -0.3734 -0.0164  0.1173
 7604TIP3    H222777   2.589   6.683   4.361  1.4239  0.6871  0.7433
 7605TIP3   OH222778   5.481   0.115   2.278  0.0673  0.5385  0.3954
 7605TIP3    H122779   5.446   0.182   2.219  1.4590 -0.4528 -1.6694
 7605TIP3    H222780   5.560   0.155   2.316  2.8397 -0.8143 -3.3398
 7606TIP3   OH222781   1.032   4.292   4.981  0.3962  0.3593  0.8980
 7606TIP3    H122782   1.014   4.198   4.985 -0.8255  0.3530 -2.1496
 7606TIP3    H222783   1.086   4.309   5.059 -0.3079 -2.5942  2.1828
 7607TIP3   OH222784   0.195   3.169   1.370  0.3669 -0.6232  0.3808
 7607TIP3    H122785   0.104   3.197   1.372  0.2256 -1.0068 -0.3726
 7607TIP3    H222786   0.214   3.143   1.460 -0.7091 -1.9010  0.2771
 7608TIP3   OH222787   5.850   1.194   5.852 -0.5164  0.5456 -0.0921
 7608TIP3    H122788   5.935   1.222   5.818  1.5324 -3.0399  1.4811
 7608TIP3    H222789   5.813   1.139   5.783 -0.4215  0.2075  0.1225
 7609TIP3   OH222790   6.971   4.642   0.966  0.0671  0.1037 -0.0323
 7609TIP3    H122791   6.962   4.734   0.990 -1.1829  0.0099 -0.0807
 7609TIP3    H222792   7.025   4.604   1.036  1.3149  1.0204 -0.4505
 7610TIP3   OH222793   5.769   0.839   2.350 -0.1124 -0.4170 -0.1740
 7610TIP3    H122794   5.741   0.776   2.284  0.8048 -1.0232 -0.0125
 7610TIP3    H222795   5.759   0.924   2.308 -2.7754 -0.5213  0.1182
 7611TIP3   OH222796   4.753   4.222   0.203 -0.5293 -0.0053  0.2317
 7611TIP3    H122797   4.786   4.290   0.260  0.7454  0.3940 -0.9395
 7611TIP3    H222798   4.806   4.145   0.223 -1.6104 -0.5391  1.1734
 7612TIP3   OH222799   5.487   0.519   2.179 -0.5688  0.4940  0.1039
 7612TIP3    H122800   5.525   0.433   2.159 -0.0139 -0.2524  3.6435
 7612TIP3    H222801   5.408   0.498   2.229 -0.4116  2.0526  1.0409
 7613TIP3   OH222802   2.347   5.925   0.538  0.2999 -0.1100  1.0391
 7613TIP3    H122803   2.400   5.939   0.616  0.9400  0.0723  0.5749
 7613TIP3    H222804   2.361   6.003   0.484  0.4775 -0.5855  0.3892
 7614TIP3   OH222805   1.468   1.577   0.747  0.2457 -0.4784  0.0740
 7614TIP3    H122806   1.402   1.510   0.766  0.1089 -0.1917  0.6293
 7614TIP3    H222807   1.477   1.625   0.829 -0.2992  0.7443 -0.5593
 7615TIP3   OH222808   6.329   4.756   4.752 -0.3412 -0.1013 -0.1981
 7615TIP3    H122809   6.300   4.671   4.717 -1.5250  0.2775 -0.1783
 7615TIP3    H222810   6.388   4.790   4.685  0.7147 -1.2395  0.1096
 7616TIP3   OH222811   1.159   5.617   4.969  0.5228 -0.1276  0.0433
 7616TIP3    H122812   1.215   5.637   4.893  0.6168 -1.1768 -0.1714
 7616TIP3    H222813   1.122   5.531   4.950 -0.2405  0.0322  0.7409
 7617TIP3   OH222814   0.109   3.672   3.429 -0.2683  0.1957 -0.3639
 7617TIP3    H122815   0.188   3.721   3.408  0.7960 -1.9580 -1.7149
 7617TIP3    H222816   0.038   3.727   3.395  0.7820  1.1852 -1.0447
 7618TIP3   OH222817   3.067   1.790   3.577 -0.0740  0.3564  0.0623
 7618TIP3    H122818   2.983   1.745   3.580  0.6309 -1.0749 -0.7298
 7618TIP3    H222819   3.108   1.771   3.661  0.3368 -0.7587 -0.3742
 7619TIP3   OH222820   3.549   0.446   5.690  0.2306  0.2400 -0.4140
 7619TIP3    H122821   3.493   0.371   5.669  0.1541  0.5510 -1.3657
 7619TIP3    H222822   3.630   0.408   5.723 -0.5632 -0.2223  1.1082
 7620TIP3   OH222823   4.728   0.885   4.129  0.4224 -0.0368 -0.3150
 7620TIP3    H122824   4.667   0.912   4.060 -2.2074 -1.1820  1.3792
 7620TIP3    H222825   4.675   0.885   4.209  2.6985 -1.0808  1.3147
 7621TIP3   OH222826   4.626   5.162   0.099  0.0466 -0.4181 -0.1878
 7621TIP3    H122827   4.553   5.207   0.140  0.5296  0.4581 -0.2664
 7621TIP3    H222828   4.699   5.224   0.105  0.1994 -0.3383 -2.1313
 7622TIP3   OH222829   1.396   2.966   5.123  0.3108 -0.6392  0.4192
 7622TIP3    H122830   1.326   3.032   5.116  0.3224 -0.6121  0.5447
 7622TIP3    H222831   1.362   2.904   5.188 -0.7263 -2.0417 -1.3807
 7623TIP3   OH222832   5.769   0.906   4.192  0.0887  0.0311 -0.7374
 7623TIP3    H122833   5.864   0.897   4.188  0.3013  0.7156  1.4516
 7623TIP3    H222834   5.745   0.949   4.110  1.5456 -0.8465 -1.6646
 7624TIP3   OH222835   1.220   4.621   5.646 -0.3164  0.1794  0.2239
 7624TIP3    H122836   1.285   4.663   5.702  0.2805  1.2970 -1.2460
 7624TIP3    H222837   1.265   4.547   5.606 -0.9300 -1.0245  1.6366
 7625TIP3   OH222838   6.350   2.156   0.481  0.1762 -0.2133 -0.8601
 7625TIP3    H122839   6.282   2.205   0.435 -0.7938 -1.3377 -0.6753
 7625TIP3    H222840   6.431   2.201   0.458 -0.7038  1.8865 -0.1388
 7626TIP3   OH222841   4.311   5.570   2.331 -0.0195  0.1528  0.4846
 7626TIP3    H122842   4.292   5.640   2.393 -2.2070 -0.7456  0.9467
 7626TIP3    H222843   4.369   5.511   2.378 -0.7273  0.0710  1.2876
 7627TIP3   OH222844   3.938   2.940   4.528 -0.4472  0.1163 -0.2705
 7627TIP3    H122845   3.883   3.014   4.553  1.4607  2.0078 -1.3345
 7627TIP3    H222846   4.004   2.935   4.597  1.1913  1.4119 -1.6559
 7628TIP3   OH222847   2.858   6.623   1.780  0.3027 -0.8474 -0.4301
 7628TIP3    H122848   2.884   6.594   1.867  2.3999  1.1237 -0.2979
 7628TIP3    H222849   2.821   6.545   1.738  0.4555 -2.1606  1.7441
 7629TIP3   OH222850   4.484   1.270   2.091 -0.0695  0.0241  0.0209
 7629TIP3    H122851   4.429   1.342   2.058 -0.3872 -0.6629 -1.0319
 7629TIP3    H222852   4.556   1.313   2.136  0.4609  1.0596 -1.7212
 7630TIP3   OH222853   4.232   3.078   3.592 -0.2108  0.7605  0.1137
 7630TIP3    H122854   4.188   2.996   3.616  0.9565  0.0420 -0.1361
 7630TIP3    H222855   4.186   3.145   3.644  1.2963 -0.5325  3.4112
 7631TIP3   OH222856   6.010   5.659   1.567  0.3177 -0.3194 -0.5018
 7631TIP3    H122857   6.062   5.611   1.502  0.7582  0.5442 -0.8001
 7631TIP3    H222858   6.073   5.679   1.637  0.1252 -0.2048 -0.3622
 7632TIP3   OH222859   0.534   4.082   0.744 -0.1411 -0.3120 -0.1701
 7632TIP3    H122860   0.518   4.047   0.657  2.0943 -2.1183  0.0416
 7632TIP3    H222861   0.618   4.127   0.738  0.8167 -1.7390  1.2748
 7633TIP3   OH222862   6.707   6.564   3.419  0.0728  0.1505 -0.0776
 7633TIP3    H122863   6.637   6.498   3.414  0.0956  0.2117 -3.3305
 7633TIP3    H222864   6.719   6.580   3.513 -3.1181 -1.0778  0.6529
 7634TIP3   OH222865   6.009   5.038   0.490  0.5786 -0.3626 -0.3644
 7634TIP3    H122866   6.027   5.103   0.558  1.1980  1.2397 -1.9705
 7634TIP3    H222867   5.989   4.958   0.538  0.0297  0.9316  1.7030
 7635TIP3   OH222868   2.000   1.597   4.509  0.1263  0.6632  0.2914
 7635TIP3    H122869   2.082   1.548   4.513  0.6170  1.2590 -1.5897
 7635TIP3    H222870   1.999   1.649   4.590  1.0602 -0.1775  0.8604
 7636TIP3   OH222871   5.146   0.733   4.217  0.2728 -0.3579  0.3357
 7636TIP3    H122872   5.165   0.761   4.307 -0.4178  0.6959  0.1594
 7636TIP3    H222873   5.052   0.716   4.216  0.1223  0.4598 -0.4036
 7637TIP3   OH222874   0.543   6.148   3.496  1.1219 -0.7183  0.4162
 7637TIP3    H122875   0.557   6.108   3.410  0.7156  1.3061 -0.6524
 7637TIP3    H222876   0.450   6.167   3.498  1.0487 -1.1278  1.5172
 7638TIP3   OH222877   5.115   3.031   1.495 -0.0127 -0.2659 -0.2603
 7638TIP3    H122878   5.080   3.105   1.445  2.3371 -0.6689 -2.8015
 7638TIP3    H222879   5.050   2.962   1.484 -0.3629  0.2076 -1.3010
 7639TIP3   OH222880   7.046   3.490   1.582 -0.1654 -0.0901 -0.3885
 7639TIP3    H122881   7.068   3.444   1.662  2.3661  1.6484  0.0048
 7639TIP3    H222882   7.024   3.579   1.610 -0.8864  0.1105 -1.5016
 7640TIP3   OH222883   2.582   0.899   4.644 -0.2391  0.1909  0.3626
 7640TIP3    H122884   2.562   0.909   4.551  2.1595  4.0095  0.0162
 7640TIP3    H222885   2.646   0.828   4.648 -1.1862 -0.7568 -0.6968
 7641TIP3   OH222886   0.452   5.416   0.054  0.4888  0.3817  0.1291
 7641TIP3    H122887   0.456   5.486  -0.011 -0.6040  1.8291  1.5726
 7641TIP3    H222888   0.542   5.406   0.084  0.9823 -0.1915 -1.4423
 7642TIP3   OH222889   6.076   0.994   5.451  0.3322  0.2176 -0.2337
 7642TIP3    H122890   6.099   1.053   5.379  0.5478  0.2026 -0.1799
 7642TIP3    H222891   6.078   0.907   5.411  2.7879 -0.0346  0.2985
 7643TIP3   OH222892   2.421   4.626   1.091 -0.2983  0.2229 -0.2717
 7643TIP3    H122893   2.414   4.546   1.039 -0.6337 -0.5383  0.9132
 7643TIP3    H222894   2.337   4.635   1.135  0.3417  0.2250  1.0068
 7644TIP3   OH222895   0.064   5.622   3.831  0.0330 -0.2038 -0.1150
 7644TIP3    H122896   0.019   5.683   3.888 -0.0810 -0.6511  0.2854
 7644TIP3    H222897   0.051   5.536   3.873 -0.6820 -0.6398 -1.1944
 7645TIP3   OH222898   6.850   2.863   2.021  0.0922  0.8001 -0.4426
 7645TIP3    H122899   6.862   2.948   1.977  1.5479  0.7712 -0.1705
 7645TIP3    H222900   6.900   2.871   2.102  0.5248 -0.4226 -0.5683
 7646TIP3   OH222901   6.451   1.604   0.683  0.3769  0.3514  0.4975
 7646TIP3    H122902   6.467   1.697   0.701  0.6081  0.6542 -1.1599
 7646TIP3    H222903   6.430   1.601   0.590  1.9191 -1.4645  0.1670
 7647TIP3   OH222904   4.841   6.763   2.951  0.1716  0.5740  0.3576
 7647TIP3    H122905   4.891   6.712   3.015 -0.1396 -0.9035 -0.5276
 7647TIP3    H222906   4.802   6.833   3.003 -0.7134 -1.0178  1.9872
 7648TIP3   OH222907   0.049   1.796   4.052  0.3303 -0.0599  0.4027
 7648TIP3    H122908  -0.019   1.857   4.022  2.7942  2.5421 -0.3076
 7648TIP3    H222909   0.046   1.724   3.989  0.4308  1.6576 -1.6567
 7649TIP3   OH222910   2.446   1.487   1.153 -0.2818  0.0380 -0.0184
 7649TIP3    H122911   2.430   1.582   1.153 -2.0165 -0.2033 -0.8528
 7649TIP3    H222912   2.466   1.466   1.062  0.7139 -0.3189  0.2772
 7650TIP3   OH222913   4.118   3.804   3.934 -0.2495 -0.6058  0.4147
 7650TIP3    H122914   4.201   3.761   3.956 -0.7937 -2.4171 -0.8312
 7650TIP3    H222915   4.085   3.755   3.859  0.0236  3.2866 -2.5257
 7651TIP3   OH222916   6.417   4.741   0.866  0.9031 -0.2680  0.0534
 7651TIP3    H122917   6.378   4.822   0.898 -0.8783 -1.4534  1.0435
 7651TIP3    H222918   6.508   4.744   0.896  1.0041  1.5535 -0.3527
 7652TIP3   OH222919   4.473   2.977   4.046  0.0586  0.3012  0.1841
 7652TIP3    H122920   4.568   2.970   4.047  0.0181 -1.0191 -1.1659
 7652TIP3    H222921   4.450   2.973   3.953 -1.3289  0.1251  0.5153
 7653TIP3   OH222922   7.028   5.860   5.451  0.3012  0.1566 -0.0428
 7653TIP3    H122923   6.966   5.820   5.512  1.2883  0.6810  1.3563
 7653TIP3    H222924   6.975   5.886   5.376 -1.0776  0.1462  0.8998
 7654TIP3   OH222925   3.262   0.088   5.361 -0.1729  0.1150  0.3970
 7654TIP3    H122926   3.264   0.065   5.269  2.8574  2.4597 -0.2841
 7654TIP3    H222927   3.171   0.114   5.378 -0.7948 -0.3920 -1.8780
 7655TIP3   OH222928   7.087   1.763   3.219  0.1437 -0.1443  0.8370
 7655TIP3    H122929   7.095   1.749   3.125  2.8424  0.0225  0.9627
 7655TIP3    H222930   7.065   1.677   3.254  2.6411 -1.0853  0.3102
 7656TIP3   OH222931   5.395   3.695   2.200  0.2525 -0.2535  0.4240
 7656TIP3    H122932   5.362   3.634   2.267  0.6963 -1.1568 -0.1622
 7656TIP3    H222933   5.388   3.646   2.118 -0.6971  1.0029 -0.2711
 7657TIP3   OH222934   6.145   1.221   2.583  0.6221  0.2871 -0.1780
 7657TIP3    H122935   6.117   1.312   2.569  1.7157  0.6445 -0.1763
 7657TIP3    H222936   6.074   1.168   2.548 -0.4977  1.1292  0.7264
 7658TIP3   OH222937   1.001   4.828   4.371 -0.2792 -0.4447 -0.7421
 7658TIP3    H122938   1.065   4.785   4.429 -1.0492 -0.5255  0.0763
 7658TIP3    H222939   0.971   4.758   4.313  0.7322 -0.2942 -1.4694
 7659TIP3   OH222940   4.832   5.295   5.782  0.0076 -0.5010  0.0693
 7659TIP3    H122941   4.876   5.311   5.699 -2.3624 -0.9794 -1.3691
 7659TIP3    H222942   4.787   5.377   5.802  2.2920  0.3724  2.1121
 7660TIP3   OH222943   5.480   0.308   1.474  0.2587  0.1984  0.6114
 7660TIP3    H122944   5.542   0.374   1.505  0.0403  0.6325  0.1243
 7660TIP3    H222945   5.521   0.225   1.498  0.8449  0.4882  0.6507
 7661TIP3   OH222946   4.785   5.747   3.663 -0.2332  0.5306 -0.1829
 7661TIP3    H122947   4.695   5.754   3.632 -1.0762 -0.5582  1.7959
 7661TIP3    H222948   4.780   5.770   3.756  1.3993 -0.2602  0.1405
 7662TIP3   OH222949   0.652   5.369   4.901 -0.4925 -0.0249 -0.6230
 7662TIP3    H122950   0.647   5.456   4.939  2.3360  0.5216 -1.2458
 7662TIP3    H222951   0.562   5.339   4.895 -1.3340  1.2119  3.2700
 7663TIP3   OH222952   0.983   5.369   5.569 -0.4951  0.2561 -0.0732
 7663TIP3    H122953   1.039   5.291   5.574 -2.0014 -0.8028  0.9206
 7663TIP3    H222954   1.004   5.407   5.483  1.1289 -0.5586 -0.0767
 7664TIP3   OH222955   7.020   5.124   3.926 -0.3596 -0.1142 -0.0674
 7664TIP3    H122956   6.981   5.163   3.847  0.7858 -1.7487 -1.5233
 7664TIP3    H222957   6.963   5.049   3.946  0.9571 -1.4855 -1.1846
 7665TIP3   OH222958   3.301   3.919   2.600 -0.0682 -0.1170  0.3585
 7665TIP3    H122959   3.212   3.907   2.567 -1.3580  0.7865  3.2205
 7665TIP3    H222960   3.323   4.009   2.576 -0.0661 -0.2020  0.0274
 7666TIP3   OH222961   6.067   4.237   3.140  0.1498  0.1872  0.5240
 7666TIP3    H122962   6.052   4.264   3.230  0.4799 -1.5445  1.1500
 7666TIP3    H222963   6.055   4.316   3.088  0.0114  1.2334  2.0894
 7667TIP3   OH222964   1.243   6.666   2.911  0.1464 -0.3614 -0.1889
 7667TIP3    H122965   1.209   6.688   2.825  0.4665  0.3016 -0.1488
 7667TIP3    H222966   1.169   6.678   2.971 -0.0362 -0.6852 -0.3460
 7668TIP3   OH222967   6.597   5.404   0.253 -0.3569  0.6122 -0.5322
 7668TIP3    H122968   6.631   5.316   0.237  0.2159  0.9046 -0.9297
 7668TIP3    H222969   6.569   5.402   0.344  1.2462  0.5354 -0.0144
 7669TIP3   OH222970   6.487   6.549   3.680  0.0629 -0.4082 -0.5171
 7669TIP3    H122971   6.518   6.634   3.648 -0.0386 -0.9600 -2.1208
 7669TIP3    H222972   6.535   6.536   3.762 -0.6151  1.6238  0.2846
 7670TIP3   OH222973   6.963   4.430   2.532 -0.4336 -0.1200  0.1323
 7670TIP3    H122974   6.987   4.356   2.587  1.3668 -0.0245 -0.4498
 7670TIP3    H222975   6.896   4.477   2.582  0.3859 -0.6048  1.7590
 7671TIP3   OH222976   0.639   2.242   0.514  0.3104 -0.0547  0.0049
 7671TIP3    H122977   0.725   2.268   0.548  1.2393 -2.8021 -0.0133
 7671TIP3    H222978   0.645   2.259   0.420  1.3063 -1.2578 -0.1801
 7672TIP3   OH222979   6.097   2.925   4.647  0.5052  0.4201 -0.6866
 7672TIP3    H122980   6.097   2.985   4.573 -0.8182  1.0946 -0.1585
 7672TIP3    H222981   6.163   2.960   4.707 -2.2204  3.2158  1.0080
 7673TIP3   OH222982   2.714   4.006   2.087 -0.1784  0.3190  0.0584
 7673TIP3    H122983   2.750   4.027   2.001  1.5406  0.8675  0.8681
 7673TIP3    H222984   2.657   4.080   2.108  0.4204  0.8184 -0.0510
 7674TIP3   OH222985   3.342   0.817   0.669  0.0613  0.9480  0.1655
 7674TIP3    H122986   3.254   0.844   0.640 -1.3349 -1.8421  1.4310
 7674TIP3    H222987   3.360   0.871   0.746 -1.6362  0.0212  1.2813
 7675TIP3   OH222988   6.470   3.283   3.579  0.1078 -0.1686 -0.5523
 7675TIP3    H122989   6.387   3.327   3.595  0.3214 -0.1817  0.6825
 7675TIP3    H222990   6.532   3.354   3.563  0.2850 -0.0237  0.6503
 7676TIP3   OH222991   4.436   0.854   2.596 -0.3297  0.1135  0.1198
 7676TIP3    H122992   4.348   0.882   2.618  0.2104  3.6623 -1.5305
 7676TIP3    H222993   4.491   0.888   2.666 -0.2296 -2.9808  1.7029
 7677TIP3   OH222994   0.277   3.648   1.175 -0.2434  0.1037 -0.3882
 7677TIP3    H122995   0.260   3.726   1.228  0.2301 -0.2398  0.2793
 7677TIP3    H222996   0.282   3.576   1.238  2.4484 -0.0023 -0.6370
 7678TIP3   OH222997   2.705   0.858   5.236 -0.7458 -0.5233  0.1052
 7678TIP3    H122998   2.765   0.921   5.196 -0.0213 -1.7137 -0.7641
 7678TIP3    H222999   2.714   0.872   5.330  1.4866 -1.1530  0.0445
 7679TIP3   OH223000   1.891   5.215   3.652 -0.0853  0.2139  0.4729
 7679TIP3    H123001   1.846   5.232   3.735  0.3020  0.5768  0.6118
 7679TIP3    H223002   1.953   5.145   3.673 -1.3554 -1.1100  0.0112
 7680TIP3   OH223003   2.586   1.655   2.867 -0.4115 -0.1436  0.4844
 7680TIP3    H123004   2.548   1.734   2.827 -1.5562 -1.5133 -1.2883
 7680TIP3    H223005   2.663   1.637   2.814 -1.2837 -1.3184 -0.4275
 7681TIP3   OH223006   2.092   2.917   4.132  0.3683 -0.1259 -0.0419
 7681TIP3    H123007   2.044   2.998   4.150 -1.4466 -1.0302 -0.5121
 7681TIP3    H223008   2.028   2.861   4.087  2.0651 -1.2164 -1.2235
 7682TIP3   OH223009   0.913   0.487   3.817  0.1637  0.2278  0.6226
 7682TIP3    H123010   0.918   0.400   3.857  0.9196  0.2981  0.6947
 7682TIP3    H223011   0.819   0.505   3.811  0.0014  0.3277  2.6329
 7683TIP3   OH223012   1.058   4.523   1.865  0.2464 -0.3366 -0.6921
 7683TIP3    H123013   0.987   4.551   1.922 -0.5764 -2.0180 -0.8117
 7683TIP3    H223014   1.022   4.448   1.817  2.0108 -1.0681 -0.9628
 7684TIP3   OH223015   0.995   5.101   4.418  0.3492  0.5660 -0.3726
 7684TIP3    H123016   0.900   5.114   4.419  0.3822  0.9657 -1.2485
 7684TIP3    H223017   1.006   5.006   4.427 -0.1712  0.4277 -1.0892
 7685TIP3   OH223018   2.207   6.452   1.201 -0.1732  0.4182  0.4730
 7685TIP3    H123019   2.229   6.361   1.222 -1.2287 -0.0062 -0.1695
 7685TIP3    H223020   2.207   6.497   1.285  2.0807  0.2453  0.6278
 7686TIP3   OH223021   5.662   4.543   0.389  0.3172  0.0931  0.5269
 7686TIP3    H123022   5.598   4.511   0.452  0.0413  1.2073  0.8432
 7686TIP3    H223023   5.674   4.635   0.412  0.5227  0.4200 -0.7891
 7687TIP3   OH223024   5.201   6.771   3.798 -0.2564 -0.4485 -0.4015
 7687TIP3    H123025   5.256   6.738   3.727 -2.7322 -0.6276 -2.4023
 7687TIP3    H223026   5.143   6.698   3.819 -1.4352  0.4970 -0.2402
 7688TIP3   OH223027   5.326   5.130   2.327 -0.0255 -0.0971  0.0493
 7688TIP3    H123028   5.317   5.094   2.415 -0.2462  1.7853  0.8489
 7688TIP3    H223029   5.248   5.183   2.314 -0.1884 -0.6615 -1.4644
 7689TIP3   OH223030   5.553   1.477   5.089 -0.2271 -0.4818  0.0672
 7689TIP3    H123031   5.523   1.487   5.180  1.9910 -0.3353  0.8256
 7689TIP3    H223032   5.477   1.440   5.044 -2.3306  1.9807  1.3300
 7690TIP3   OH223033   2.411   3.998   5.485  0.0269 -0.4187  0.4557
 7690TIP3    H123034   2.323   4.022   5.456  0.7966  1.1632 -0.7440
 7690TIP3    H223035   2.437   3.929   5.424  0.0369 -0.0994  0.0961
 7691TIP3   OH223036   3.207   3.189   3.776 -0.1968 -0.2902 -0.8228
 7691TIP3    H123037   3.208   3.126   3.848  2.1556  0.7640  0.1583
 7691TIP3    H223038   3.285   3.168   3.725 -0.1270  0.9745 -1.2505
 7692TIP3   OH223039   6.599   3.240   0.762 -0.9396  0.2075 -0.1938
 7692TIP3    H123040   6.503   3.245   0.764 -0.8976  1.3585  2.0853
 7692TIP3    H223041   6.627   3.297   0.833  1.4848  0.3322 -1.1731
 7693TIP3   OH223042   2.711   4.144   5.306 -0.2483  0.3300  0.5592
 7693TIP3    H123043   2.773   4.085   5.263 -1.8095 -1.6866  0.8619
 7693TIP3    H223044   2.762   4.186   5.375  0.7074 -1.6636  1.1648
 7694TIP3   OH223045   1.406   2.365   3.797 -0.3289 -0.0130 -0.1934
 7694TIP3    H123046   1.330   2.367   3.739  0.9824  1.3791 -1.9755
 7694TIP3    H223047   1.431   2.272   3.798 -1.1341 -0.2575 -0.8400
 7695TIP3   OH223048   5.719   3.705   3.381 -0.5157 -0.1064 -0.2706
 7695TIP3    H123049   5.754   3.616   3.389  0.4671  0.4544  3.0557
 7695TIP3    H223050   5.626   3.692   3.362 -0.5030 -1.8513  0.6414
 7696TIP3   OH223051   1.048   0.141   1.602  0.0803  0.1072 -0.0532
 7696TIP3    H123052   0.995   0.079   1.552 -3.0184  0.2607  2.7028
 7696TIP3    H223053   1.128   0.150   1.551 -1.9870 -1.1040 -3.9474
 7697TIP3   OH223054   6.629   1.164   3.592  0.3449  0.3123  0.7614
 7697TIP3    H123055   6.575   1.242   3.586  0.6948  0.5533  0.7416
 7697TIP3    H223056   6.598   1.108   3.520 -0.4376  0.0941  1.2592
 7698TIP3   OH223057   5.894   2.968   4.397  0.5406 -0.1694  0.1962
 7698TIP3    H123058   5.976   3.014   4.414  0.1190  0.8749 -0.5073
 7698TIP3    H223059   5.835   3.035   4.361 -1.5727 -0.1724  3.2864
 7699TIP3   OH223060   6.226   1.813   1.041 -0.7741  0.1391 -0.0749
 7699TIP3    H123061   6.260   1.826   1.129  0.2669 -1.7120 -0.1545
 7699TIP3    H223062   6.304   1.806   0.986 -1.2425 -2.3697 -0.5525
 7700TIP3   OH223063   6.470   2.257   4.745 -0.0944  0.0302 -0.2331
 7700TIP3    H123064   6.500   2.210   4.822 -0.0795 -0.5975 -0.6132
 7700TIP3    H223065   6.375   2.243   4.743  0.0275 -0.7577 -0.8469
 7701TIP3   OH223066   0.679   0.349   5.037  0.1106 -0.1504  0.0472
 7701TIP3    H123067   0.649   0.327   4.949  1.8670  0.5541 -0.7680
 7701TIP3    H223068   0.733   0.275   5.063  0.6393  0.2046 -0.0152
 7702TIP3   OH223069   2.520   4.306   3.457  0.0666 -0.1234 -0.1932
 7702TIP3    H123070   2.552   4.220   3.485 -2.9063 -0.7279  1.7711
 7702TIP3    H223071   2.447   4.325   3.516  0.1457  3.4711 -1.0077
 7703TIP3   OH223072   4.374   0.393   1.000  0.3815 -0.1704 -0.3760
 7703TIP3    H123073   4.444   0.444   0.960 -0.6092  0.5261 -1.2580
 7703TIP3    H223074   4.363   0.317   0.943  2.3764 -1.8634  1.3443
 7704TIP3   OH223075   1.440   1.439   3.467  0.3960 -0.6586  0.6293
 7704TIP3    H123076   1.495   1.499   3.416  0.2850 -0.0514  1.2137
 7704TIP3    H223077   1.428   1.363   3.409 -1.1503  0.7104 -0.9601
 7705TIP3   OH223078   2.888   3.253   1.851  0.3459 -0.0705  0.5041
 7705TIP3    H123079   2.893   3.257   1.947 -1.9913 -2.8456  0.8595
 7705TIP3    H223080   2.933   3.172   1.828 -0.0358  0.0273 -0.6401
 7706TIP3   OH223081   0.033   2.128   4.180 -0.5228  0.2302 -0.3303
 7706TIP3    H123082   0.049   2.058   4.242  1.1775  0.7722 -0.0819
 7706TIP3    H223083  -0.044   2.174   4.213 -2.9815 -2.6725 -1.6174
 7707TIP3   OH223084   1.057   5.238   0.256 -0.4656 -0.3487  0.4163
 7707TIP3    H123085   1.062   5.334   0.250  0.6354 -0.4432 -0.4740
 7707TIP3    H223086   1.003   5.222   0.333  0.0578  0.9881  1.0926
 7708TIP3   OH223087   1.906   4.128   5.101 -0.1522  0.0572  0.5428
 7708TIP3    H123088   1.830   4.178   5.071 -0.0763  0.5981  1.2160
 7708TIP3    H223089   1.962   4.122   5.023 -0.6983 -0.0032  0.1465
 7709TIP3   OH223090   4.729   0.421   2.490  0.2101 -0.3736  0.5974
 7709TIP3    H123091   4.817   0.459   2.483 -0.3361  1.0285  0.8730
 7709TIP3    H223092   4.670   0.496   2.477 -0.9246 -1.0877  1.4540
 7710TIP3   OH223093   3.513   4.066   2.081  0.3767  0.5029 -0.2801
 7710TIP3    H123094   3.591   4.014   2.100 -0.1416 -0.3783 -0.5336
 7710TIP3    H223095   3.493   4.046   1.989 -0.3331  0.4648 -0.1213
 7711TIP3   OH223096   7.173   5.304   4.549  0.3733 -0.2050  0.4828
 7711TIP3    H123097   7.198   5.371   4.484 -1.1266 -0.6952 -0.6480
 7711TIP3    H223098   7.133   5.354   4.620  0.0317  0.1734  0.0318
 7712TIP3   OH223099   5.818   0.363   5.855 -0.0010 -0.1255  0.2869
 7712TIP3    H123100   5.818   0.408   5.770  0.2457  0.0514  0.3794
 7712TIP3    H223101   5.768   0.422   5.912  2.6161  1.4250  1.1267
 7713TIP3   OH223102   5.359   0.078   4.772 -0.2692  0.0909 -0.1624
 7713TIP3    H123103   5.392   0.151   4.720 -0.8864 -0.0328 -0.7458
 7713TIP3    H223104   5.317   0.020   4.708 -3.5216  1.2684  0.7159
 7714TIP3   OH223105   6.972   3.260   4.587  0.5177  0.0529  0.1464
 7714TIP3    H123106   7.029   3.195   4.546 -0.7771 -1.0955  0.0604
 7714TIP3    H223107   6.901   3.273   4.524  0.0847  0.5751  0.7208
 7715TIP3   OH223108   1.699   4.326   5.168 -0.2237  0.0550 -0.1682
 7715TIP3    H123109   1.783   4.363   5.140  0.6380  0.2113  2.3485
 7715TIP3    H223110   1.661   4.393   5.224 -1.8512 -0.2203 -0.9012
 7716TIP3   OH223111   1.888   6.264   5.466  0.1251  0.1117  0.0960
 7716TIP3    H123112   1.871   6.268   5.560 -1.7955  0.5153 -0.2203
 7716TIP3    H223113   1.893   6.355   5.439  1.3128 -0.0017 -0.1159
 7717TIP3   OH223114   7.131   5.138   2.842 -0.1417 -0.6291 -0.0676
 7717TIP3    H123115   7.049   5.089   2.839 -0.6640  0.2450 -1.4258
 7717TIP3    H223116   7.131   5.189   2.761  1.0409  0.5243  0.6086
 7718TIP3   OH223117   0.380   3.765   3.473 -0.3016 -0.1500 -0.1563
 7718TIP3    H123118   0.417   3.824   3.408 -0.5200 -0.4506 -0.5616
 7718TIP3    H223119   0.311   3.815   3.516  0.5652  0.4158  0.6090
 7719TIP3   OH223120   3.245   2.286   0.107  0.2723 -0.1201  0.2398
 7719TIP3    H123121   3.281   2.201   0.132 -0.7243 -0.2635  1.2673
 7719TIP3    H223122   3.225   2.329   0.190 -0.3212  0.6337 -0.2768
 7720TIP3   OH223123   2.642   2.625   2.560 -0.1539  0.5155 -0.7030
 7720TIP3    H123124   2.593   2.658   2.635 -0.7705  0.3906 -1.0416
 7720TIP3    H223125   2.588   2.554   2.525  0.3550  0.2567 -0.9794
 7721TIP3   OH223126   2.055   5.065   3.896  0.1734  0.0010  0.4682
 7721TIP3    H123127   2.065   5.029   3.984  1.9145 -1.1923 -0.1702
 7721TIP3    H223128   1.969   5.035   3.867 -0.9578  1.3989  2.1579
 7722TIP3   OH223129   3.451   4.625   2.747  0.2632 -0.2312 -0.0295
 7722TIP3    H123130   3.420   4.540   2.717  0.5976  0.1161 -1.4218
 7722TIP3    H223131   3.433   4.625   2.841 -2.1478 -0.7964 -0.4194
 7723TIP3   OH223132   4.157   1.288   3.161  0.3815 -0.2833  0.1105
 7723TIP3    H123133   4.068   1.288   3.126 -0.2309  2.1866  1.4636
 7723TIP3    H223134   4.198   1.367   3.126  1.5777 -0.6397  0.6342
 7724TIP3   OH223135   0.874   6.491   0.622  0.3589  0.1582 -0.8408
 7724TIP3    H123136   0.839   6.464   0.707  2.0483  1.3791  0.3242
 7724TIP3    H223137   0.912   6.412   0.585 -0.3571 -0.3813 -0.4442
 7725TIP3   OH223138   7.041   5.322   4.850 -0.7417 -0.5552 -0.2166
 7725TIP3    H123139   7.031   5.353   4.940 -1.9660 -1.4485 -0.0254
 7725TIP3    H223140   6.997   5.389   4.797 -1.0155 -0.5976 -0.0455
 7726TIP3   OH223141   5.256   2.995   0.915  0.2009  0.2972 -0.1863
 7726TIP3    H123142   5.225   3.075   0.873  0.8911 -0.1859 -1.6574
 7726TIP3    H223143   5.288   2.940   0.844 -0.3321 -1.3424  0.7647
 7727TIP3   OH223144   5.649   1.961   0.940 -0.3319 -0.1902  0.0033
 7727TIP3    H123145   5.643   1.873   0.902 -0.5701 -0.5149  0.7895
 7727TIP3    H223146   5.742   1.973   0.957 -0.4397 -0.7848  1.0472
 7728TIP3   OH223147   0.866   2.484   5.769  0.0651 -0.3279 -0.4780
 7728TIP3    H123148   0.795   2.419   5.770  0.7767 -1.1208  0.1862
 7728TIP3    H223149   0.831   2.558   5.817  0.1664 -1.2877  1.1699
 7729TIP3   OH223150   5.210   4.030   0.285 -0.0690 -0.2353  0.6257
 7729TIP3    H123151   5.277   4.077   0.336 -2.0714  0.9804  2.2774
 7729TIP3    H223152   5.211   4.073   0.200 -0.2348  1.3076  1.3551
 7730TIP3   OH223153   3.597   2.662   2.579  0.3391  0.5012 -0.5952
 7730TIP3    H123154   3.692   2.662   2.572  0.3931  2.4377 -0.5433
 7730TIP3    H223155   3.566   2.642   2.491  0.8701  3.1192 -1.4617
 7731TIP3   OH223156   7.131   5.879   0.696 -0.0991 -0.2551  0.0521
 7731TIP3    H123157   7.224   5.888   0.675 -0.0150 -1.9509 -0.5242
 7731TIP3    H223158   7.128   5.872   0.791  0.2240  0.9571  0.1669
 7732TIP3   OH223159   1.251   0.173   3.916  0.3734  0.4580  0.1326
 7732TIP3    H123160   1.246   0.102   3.980 -0.9802  1.4612  1.2305
 7732TIP3    H223161   1.224   0.134   3.833  2.2758 -0.9005  0.1041
 7733TIP3   OH223162   1.679   1.834   4.169  0.0519 -0.4406 -0.0963
 7733TIP3    H123163   1.622   1.844   4.093  1.5331  0.6333 -1.1269
 7733TIP3    H223164   1.699   1.741   4.173 -0.9196 -0.6694 -0.3383
 7734TIP3   OH223165   6.604   0.142   4.775  0.3477  0.0907 -0.3956
 7734TIP3    H123166   6.632   0.073   4.835  0.5459  0.8894  0.4475
 7734TIP3    H223167   6.512   0.122   4.757  0.2499 -0.0923  0.2729
 7735TIP3   OH223168   7.062   6.295   4.941  0.9786 -0.0806 -0.2486
 7735TIP3    H123169   7.147   6.250   4.942 -0.0510 -2.4321  4.1921
 7735TIP3    H223170   6.999   6.229   4.969 -1.5840  2.7886  1.3505
 7736TIP3   OH223171   3.375   6.173   2.693 -0.2564 -0.0561 -0.8293
 7736TIP3    H123172   3.298   6.119   2.706 -0.3325  0.1557 -0.4101
 7736TIP3    H223173   3.343   6.250   2.646 -0.3320  0.1127 -0.5032
 7737TIP3   OH223174   6.425   1.709   2.639 -0.8449  0.2354 -0.0159
 7737TIP3    H123175   6.397   1.736   2.726 -0.9942  2.2501 -0.6566
 7737TIP3    H223176   6.520   1.701   2.645 -0.8001  0.9307  0.1808
 7738TIP3   OH223177   6.440   4.647   3.346  0.1539 -0.4586 -0.0665
 7738TIP3    H123178   6.432   4.634   3.440 -0.4616  0.8608  0.0823
 7738TIP3    H223179   6.532   4.669   3.332  0.8020 -2.8926 -0.1033
 7739TIP3   OH223180   4.459   6.740   2.293  0.1204  0.4072  0.0147
 7739TIP3    H123181   4.494   6.703   2.374  0.3378  1.7831  0.5708
 7739TIP3    H223182   4.536   6.769   2.244  0.0443 -1.0485 -1.0374
 7740TIP3   OH223183   4.309   4.877   2.707 -0.1898 -0.2008  0.1416
 7740TIP3    H123184   4.339   4.930   2.781 -1.4577  0.0109  0.5406
 7740TIP3    H223185   4.330   4.787   2.731 -2.6585 -0.4089  1.9005
 7741TIP3   OH223186   1.356   5.319   3.100  0.1088  0.4121  0.2273
 7741TIP3    H123187   1.407   5.396   3.126 -0.3718  0.9465 -0.3722
 7741TIP3    H223188   1.383   5.302   3.010  0.5049 -0.3688  0.4924
 7742TIP3   OH223189   5.132   3.897   1.013 -0.5737 -0.6099 -0.4854
 7742TIP3    H123190   5.052   3.920   0.966 -0.6505  0.5576  0.1753
 7742TIP3    H223191   5.153   3.975   1.065  1.2914 -0.6940 -1.0468
 7743TIP3   OH223192   0.385   5.365   1.062  0.0143 -0.0837 -0.1033
 7743TIP3    H123193   0.367   5.299   0.995  0.0456 -0.0603 -0.1347
 7743TIP3    H223194   0.445   5.322   1.122 -0.7730 -0.4438  0.4435
 7744TIP3   OH223195   6.376   0.083   0.386  0.0740  0.0157  0.2228
 7744TIP3    H123196   6.399   0.099   0.478  2.9632 -0.7222 -0.2975
 7744TIP3    H223197   6.458   0.061   0.343 -0.6523  3.0734 -3.2095
 7745TIP3   OH223198   3.116   5.803   4.793 -0.2486  0.1564 -0.4611
 7745TIP3    H123199   3.169   5.823   4.870  0.0012 -0.2441 -0.5267
 7745TIP3    H223200   3.168   5.835   4.719  0.0684 -0.5618 -0.5520
 7746TIP3   OH223201   6.110   2.000   1.642  0.3875 -0.2204  0.3533
 7746TIP3    H123202   6.169   2.075   1.650  1.0722 -0.6963 -0.1248
 7746TIP3    H223203   6.022   2.037   1.655  0.7830  0.4931  1.0894
 7747TIP3   OH223204   3.619   3.658   2.304  0.2892 -0.4981 -0.0302
 7747TIP3    H123205   3.598   3.696   2.389  1.2113  2.3551 -0.9579
 7747TIP3    H223206   3.683   3.590   2.323 -1.4702 -1.8014  1.7370
 7748TIP3   OH223207   4.807   1.916   2.575 -0.5495 -0.1835  0.3139
 7748TIP3    H123208   4.725   1.914   2.524 -1.4257 -0.7488  1.6758
 7748TIP3    H223209   4.819   2.008   2.596 -0.0751  0.0874 -1.0295
 7749TIP3   OH223210   6.633   3.025   3.586  0.2045  0.2262  0.5334
 7749TIP3    H123211   6.574   2.997   3.656 -4.5587 -1.1605 -3.4557
 7749TIP3    H223212   6.618   3.120   3.580 -1.2498 -0.0008  0.0290
 7750TIP3   OH223213   0.662   2.653   4.145 -0.5294  0.1136 -0.0710
 7750TIP3    H123214   0.575   2.686   4.167 -0.0344  2.4700 -1.3821
 7750TIP3    H223215   0.697   2.621   4.229 -1.6230  1.6261  1.0137
 7751TIP3   OH223216   4.383   1.039   4.361  0.3865  0.2218 -0.3157
 7751TIP3    H123217   4.294   1.007   4.345  0.6719  0.5661 -2.9501
 7751TIP3    H223218   4.380   1.130   4.332  1.2395  0.7150  1.0584
 7752TIP3   OH223219   6.559   6.591   2.241  0.3103  0.0299  0.1544
 7752TIP3    H123220   6.647   6.577   2.207  0.4327  2.5925 -0.8112
 7752TIP3    H223221   6.569   6.590   2.336  1.6140  1.3430  0.0559
 7753TIP3   OH223222   0.039   2.690   1.777  0.1015  0.3327  0.1869
 7753TIP3    H123223   0.070   2.780   1.793  0.3286  0.1013  1.0889
 7753TIP3    H223224  -0.006   2.695   1.692 -1.0046  1.5732  0.8125
 7754TIP3   OH223225   5.139   6.682   4.743 -0.1890  0.5444  0.9121
 7754TIP3    H123226   5.105   6.771   4.738 -2.5105 -0.2372  1.7543
 7754TIP3    H223227   5.068   6.627   4.712  1.5460 -1.0035 -0.5650
 7755TIP3   OH223228   0.931   3.203   3.150 -0.5977 -0.0983 -0.4452
 7755TIP3    H123229   0.968   3.122   3.184  0.0094 -0.5182 -1.9986
 7755TIP3    H223230   0.890   3.178   3.068 -1.9306  0.8839 -0.1032
 7756TIP3   OH223231   6.745   4.135   1.512  0.1335  0.5946 -0.6316
 7756TIP3    H123232   6.678   4.137   1.443 -2.5186 -1.3969  1.6346
 7756TIP3    H223233   6.719   4.205   1.572  0.5366  0.2973 -0.1069
 7757TIP3   OH223234   1.909   1.394   0.652  0.3361 -0.0243 -0.0027
 7757TIP3    H123235   1.862   1.344   0.585  0.5618 -1.1589  0.6455
 7757TIP3    H223236   1.997   1.406   0.615  0.4038 -0.4847 -0.0021
 7758TIP3   OH223237   1.181   1.076   0.022 -0.4065  0.1552  0.4242
 7758TIP3    H123238   1.161   0.992   0.064 -0.5161  0.6418  1.3794
 7758TIP3    H223239   1.246   1.117   0.079 -1.2721  1.2625  0.6621
 7759TIP3   OH223240   0.192   1.400   5.851  0.2625 -0.1657  0.3340
 7759TIP3    H123241   0.122   1.455   5.817 -0.2710 -0.1095  1.4765
 7759TIP3    H223242   0.169   1.386   5.942  2.3696  0.8790  1.1026
 7760TIP3   OH223243   3.938   0.963   3.642 -0.1888 -0.4973  0.6539
 7760TIP3    H123244   3.909   1.028   3.578  0.0219 -0.5598  0.4964
 7760TIP3    H223245   3.980   1.015   3.711  1.4704 -0.5700 -0.2526
 7761TIP3   OH223246   4.541   4.733   1.120 -0.0649 -0.1951  0.3197
 7761TIP3    H123247   4.475   4.707   1.056  0.0151  0.0233  0.1503
 7761TIP3    H223248   4.520   4.682   1.198 -1.2436  0.8657  0.7165
 7762TIP3   OH223249   1.337   1.661   4.284 -0.2308  0.6925  0.0923
 7762TIP3    H123250   1.249   1.697   4.300 -0.5637 -0.0852  0.0441
 7762TIP3    H223251   1.343   1.585   4.342  1.3091  2.0715  1.8781
 7763TIP3   OH223252   5.779   0.658   4.618 -0.6259  0.0444 -0.1908
 7763TIP3    H123253   5.686   0.678   4.606 -0.3790  1.3893 -0.0079
 7763TIP3    H223254   5.824   0.738   4.591  0.4502 -0.3612  0.3557
 7764TIP3   OH223255   4.816   1.617   4.215  0.2348 -0.2630 -0.5124
 7764TIP3    H123256   4.831   1.583   4.127 -1.6434  0.3422 -1.1104
 7764TIP3    H223257   4.743   1.678   4.206  0.9082  0.9012  1.2303
 7765TIP3   OH223258   5.522   0.654   0.056  0.3591 -0.3738 -0.7160
 7765TIP3    H123259   5.486   0.577   0.013 -1.0301 -0.4281  0.4802
 7765TIP3    H223260   5.537   0.628   0.146  0.7855  0.4911 -0.5182
 7766TIP3   OH223261   0.210   3.421   0.580 -0.3553  0.1859 -0.2494
 7766TIP3    H123262   0.229   3.505   0.621 -0.7930  1.1464 -1.9221
 7766TIP3    H223263   0.296   3.386   0.556 -0.1419 -0.0918  0.8862
 7767TIP3   OH223264   5.454   2.435   1.333  0.2948 -0.0703 -0.0784
 7767TIP3    H123265   5.395   2.440   1.407  0.3321 -1.6965  0.0988
 7767TIP3    H223266   5.421   2.362   1.281  0.1973  1.1024 -1.7435
 7768TIP3   OH223267   5.212   1.648   1.463 -0.2576  0.0764  0.0317
 7768TIP3    H123268   5.264   1.598   1.400  0.1233 -1.0391  1.1898
 7768TIP3    H223269   5.157   1.583   1.505 -2.6314  1.2188 -1.1221
 7769TIP3   OH223270   5.230   5.010   4.807 -0.7430  0.1286  0.1769
 7769TIP3    H123271   5.207   5.000   4.714 -1.3587  1.8641  0.0890
 7769TIP3    H223272   5.244   4.921   4.838  2.8344 -0.4458 -2.3718
 7770TIP3   OH223273   3.682   4.463   2.781 -0.2171 -0.1973  0.0747
 7770TIP3    H123274   3.651   4.376   2.755  2.5205 -0.8495 -1.4201
 7770TIP3    H223275   3.764   4.446   2.827 -0.3800  1.5559  1.1023
 7771TIP3   OH223276   4.934   5.122   0.232 -0.3268  0.4804 -0.0403
 7771TIP3    H123277   4.937   5.030   0.257 -0.9798  0.4660  0.0074
 7771TIP3    H223278   4.911   5.121   0.139  0.8128  0.5694 -0.3336
 7772TIP3   OH223279   1.803   4.693   4.842 -0.4125 -0.3399 -0.2092
 7772TIP3    H123280   1.722   4.659   4.879 -0.1991 -0.6513 -0.0252
 7772TIP3    H223281   1.778   4.777   4.802 -0.4851  0.3790  1.2980
 7773TIP3   OH223282   6.380   5.583   1.642 -0.3706  0.3913 -0.0458
 7773TIP3    H123283   6.355   5.491   1.641 -0.4992  0.4192  0.2608
 7773TIP3    H223284   6.329   5.621   1.714  0.9114  0.3384  0.9407
 7774TIP3   OH223285   3.000   5.664   4.056  0.2989  0.1627 -0.5487
 7774TIP3    H123286   3.001   5.751   4.015  1.0262  0.1354 -0.6101
 7774TIP3    H223287   2.925   5.620   4.017 -0.3474  0.9171 -0.1881
 7775TIP3   OH223288   0.503   1.018   4.256 -0.0065  0.1081  0.2739
 7775TIP3    H123289   0.490   0.943   4.197 -0.6067  0.6216 -0.2620
 7775TIP3    H223290   0.419   1.027   4.301  0.1139  0.3727  0.4443
 7776TIP3   OH223291   1.067   2.602   5.639  0.0839 -0.3744  0.8596
 7776TIP3    H123292   0.988   2.573   5.684 -0.8431 -0.8286 -0.9599
 7776TIP3    H223293   1.061   2.561   5.553  0.7699  2.0171 -0.4015
 7777TIP3   OH223294   5.425   6.720   5.255 -0.3292  0.6187  0.1251
 7777TIP3    H123295   5.476   6.706   5.175 -1.9893  1.6033 -1.1484
 7777TIP3    H223296   5.352   6.659   5.248  0.2868 -0.3700  1.6704
 7778TIP3   OH223297   6.243   6.687   3.948  0.0496 -0.0988  0.8276
 7778TIP3    H123298   6.324   6.739   3.942  0.5931 -1.0338 -0.5331
 7778TIP3    H223299   6.188   6.735   4.010  0.6925  1.8541 -0.0314
 7779TIP3   OH223300   6.036   1.477   2.497 -0.0812 -0.6575 -0.6135
 7779TIP3    H123301   5.967   1.515   2.552  0.2805  0.5032 -0.9442
 7779TIP3    H223302   6.063   1.548   2.439  3.7712  0.1292  1.7269
 7780TIP3   OH223303   6.237   1.327   3.016 -0.2115 -0.0268  0.3094
 7780TIP3    H123304   6.156   1.297   3.059 -0.0657  1.6197  1.8267
 7780TIP3    H223305   6.221   1.419   2.996  0.9521  0.0712 -0.2449
 7781TIP3   OH223306   3.120   0.544   5.783  0.3526 -0.4186  0.3379
 7781TIP3    H123307   3.093   0.458   5.814 -1.0758  0.4103  1.4824
 7781TIP3    H223308   3.118   0.537   5.688 -2.1878 -0.9640  0.3631
 7782TIP3   OH223309   6.822   5.711   3.236  0.0987  0.4442  0.5720
 7782TIP3    H123310   6.845   5.750   3.321 -0.0842 -0.5058  1.0655
 7782TIP3    H223311   6.899   5.661   3.211 -0.1210  0.1288  0.5272
 7783TIP3   OH223312   3.220   3.091   2.769 -0.0208  0.1691  0.1616
 7783TIP3    H123313   3.294   3.150   2.756  0.2693 -0.4488 -1.2625
 7783TIP3    H223314   3.247   3.032   2.840  1.2093 -0.5522 -0.8656
 7784TIP3   OH223315   0.045   0.628   2.913  0.5054  0.4484  0.4670
 7784TIP3    H123316   0.136   0.605   2.896  0.2855  1.0984 -1.9826
 7784TIP3    H223317   0.049   0.686   2.990  2.3649  1.7239 -0.5158
 7785TIP3   OH223318   5.084   0.615   3.520 -0.2803 -0.2607 -0.1063
 7785TIP3    H123319   5.175   0.587   3.512  0.3222  0.7747  2.1521
 7785TIP3    H223320   5.083   0.669   3.599 -2.8036  0.0260 -0.2552
 7786TIP3   OH223321   1.932   4.579   0.181 -0.6023  0.0355  0.5478
 7786TIP3    H123322   1.889   4.495   0.197 -0.9369  0.5079  2.4135
 7786TIP3    H223323   2.020   4.567   0.216  0.3149 -0.3751 -1.7116
 7787TIP3   OH223324   5.839   2.039   1.276  0.2721 -0.2190  0.1326
 7787TIP3    H123325   5.753   1.997   1.280 -0.4012  1.1648  0.7169
 7787TIP3    H223326   5.901   1.968   1.297 -0.6838 -1.2817 -0.5036
 7788TIP3   OH223327   3.134   6.013   1.726  0.2150  0.4140 -0.2715
 7788TIP3    H123328   3.094   6.022   1.813 -1.6584 -1.2948 -0.8826
 7788TIP3    H223329   3.216   6.061   1.733  0.8096 -0.8110  2.8677
 7789TIP3   OH223330   5.990   6.543   3.544 -0.2800 -0.0616 -0.0035
 7789TIP3    H123331   5.995   6.468   3.486  1.8940  0.4533 -0.5744
 7789TIP3    H223332   6.027   6.513   3.626  1.9441  0.6922 -0.6627
 7790TIP3   OH223333   2.209   5.470   4.654 -0.0188 -0.2437  0.2120
 7790TIP3    H123334   2.135   5.481   4.714  0.9613  1.3780  1.1751
 7790TIP3    H223335   2.237   5.379   4.668 -0.6618 -0.3086  1.2149
 7791TIP3   OH223336   2.032   2.542   1.885  0.4222 -0.2527  0.8250
 7791TIP3    H123337   1.985   2.522   1.966  0.8071 -0.4418  1.0094
 7791TIP3    H223338   2.070   2.458   1.858 -1.2939 -0.6121 -0.6169
 7792TIP3   OH223339   2.147   4.267   4.015 -0.1122 -0.2780  0.3283
 7792TIP3    H123340   2.086   4.269   4.088  2.0127  1.1342  2.1930
 7792TIP3    H223341   2.120   4.191   3.964 -1.3851 -1.6472  2.8502
 7793TIP3   OH223342   1.791   5.217   4.800 -0.1100 -0.7340 -0.5200
 7793TIP3    H123343   1.720   5.156   4.781 -2.3345  1.7623 -0.6241
 7793TIP3    H223344   1.813   5.256   4.716 -0.9174  0.8467 -0.0324
 7794TIP3   OH223345   5.032   0.831   4.774 -0.0402  0.7799 -0.6775
 7794TIP3    H123346   5.026   0.907   4.716  0.4829  1.3493  0.0005
 7794TIP3    H223347   5.105   0.850   4.832  0.1585 -0.2859 -0.5462
 7795TIP3   OH223348   0.518   4.529   5.387 -0.1826 -0.4807 -0.2284
 7795TIP3    H123349   0.555   4.501   5.470 -2.1285  0.3457  1.0012
 7795TIP3    H223350   0.589   4.573   5.341  0.6703 -0.0415  1.4652
 7796TIP3   OH223351   5.783   3.791   5.257 -0.0058 -0.4838 -0.1843
 7796TIP3    H123352   5.776   3.878   5.218  1.1181 -0.7831 -1.1150
 7796TIP3    H223353   5.700   3.779   5.304 -0.2639  0.9924 -0.2101
 7797TIP3   OH223354   6.560   2.987   3.122 -0.6520  0.0418 -0.1138
 7797TIP3    H123355   6.544   3.064   3.176  0.2564  0.0938  0.1106
 7797TIP3    H223356   6.477   2.939   3.122 -0.8851  0.4236  0.7074
 7798TIP3   OH223357   1.074   0.856   0.597 -0.0605  0.1366  0.2045
 7798TIP3    H123358   1.031   0.784   0.551 -1.3245  0.3235  1.0406
 7798TIP3    H223359   1.121   0.814   0.668 -0.7862  0.1222  0.6844
 7799TIP3   OH223360   0.614   4.492   2.502 -0.2249  0.1208 -0.6960
 7799TIP3    H123361   0.546   4.500   2.569  0.5429  1.1409 -0.0085
 7799TIP3    H223362   0.602   4.405   2.466 -2.3875  0.5400 -1.1363
 7800TIP3   OH223363   4.974   5.859   5.337  0.5092  0.1102  0.1883
 7800TIP3    H123364   4.935   5.812   5.263  0.2797  0.0897  0.3195
 7800TIP3    H223365   5.068   5.858   5.320  0.4313  0.3619 -0.2530
 7801TIP3   OH223366   5.708   0.302   0.092  0.3269 -0.1900  0.3181
 7801TIP3    H123367   5.634   0.349   0.131 -0.0669 -1.6076  1.3607
 7801TIP3    H223368   5.782   0.362   0.102 -0.1891  0.2819  1.4555
 7802TIP3   OH223369   1.445   4.099   0.202 -0.4294  0.5957 -0.3756
 7802TIP3    H123370   1.526   4.149   0.212 -0.3921  0.3547  0.6077
 7802TIP3    H223371   1.382   4.146   0.256 -0.0793 -1.1000  1.6300
 7803TIP3   OH223372   6.321   2.869   3.141  0.3782  0.0753 -0.3672
 7803TIP3    H123373   6.330   2.774   3.126  0.4577 -0.0145  0.2282
 7803TIP3    H223374   6.299   2.876   3.234  0.8485  0.6761 -0.3015
 7804TIP3   OH223375   1.100   6.459   3.866 -0.5455  0.2197  0.4456
 7804TIP3    H123376   1.081   6.498   3.780 -1.3434 -0.3471  0.3547
 7804TIP3    H223377   1.192   6.480   3.882 -1.0803  2.7279  0.7053
 7805TIP3   OH223378   7.114   3.433   4.090  0.6477  0.2022 -0.0836
 7805TIP3    H123379   7.143   3.439   3.999 -2.2649 -2.3070 -1.3475
 7805TIP3    H223380   7.164   3.360   4.126  0.8723  0.3602 -0.0719
 7806TIP3   OH223381   1.113   4.920   0.246 -0.1374  0.3125  0.4058
 7806TIP3    H123382   1.162   4.917   0.329 -1.5175 -1.7960  1.2229
 7806TIP3    H223383   1.147   4.846   0.196 -0.1234  0.8851 -0.4441
 7807TIP3   OH223384   4.491   2.335   5.101 -0.1856 -0.1009 -0.3026
 7807TIP3    H123385   4.432   2.297   5.036  1.0219  0.6907 -1.9203
 7807TIP3    H223386   4.553   2.386   5.050  0.5071  0.9746  1.5272
 7808TIP3   OH223387   4.214   2.825   5.184 -0.4538  0.1779  0.3767
 7808TIP3    H123388   4.250   2.781   5.261  0.6083 -0.1583 -0.2848
 7808TIP3    H223389   4.190   2.753   5.125 -0.9776  0.4365  0.2730
 7809TIP3   OH223390   1.962   2.567   0.802  0.2439  0.0804 -0.0430
 7809TIP3    H123391   1.888   2.626   0.790 -0.6121 -0.8591  0.4296
 7809TIP3    H223392   2.010   2.604   0.876  0.6725  1.0975 -0.8107
 7810TIP3   OH223393   0.339   1.684   3.189 -0.2130  0.6747 -0.1109
 7810TIP3    H123394   0.387   1.758   3.154  0.9113 -0.1551 -0.3679
 7810TIP3    H223395   0.404   1.633   3.237 -1.3065  0.7191  1.5200
 7811TIP3   OH223396   1.521   5.831   5.771 -0.0180  0.3074  0.0100
 7811TIP3    H123397   1.559   5.911   5.735 -0.1238 -0.4769 -2.0049
 7811TIP3    H223398   1.427   5.844   5.763 -0.0521  0.2192  0.2584
 7812TIP3   OH223399   4.101   4.454   1.536 -0.3911 -0.1462  0.1241
 7812TIP3    H123400   4.144   4.445   1.621 -0.1916 -0.4474 -0.0094
 7812TIP3    H223401   4.153   4.400   1.476 -0.5714  0.0075 -0.1754
 7813TIP3   OH223402   3.177   0.504   3.942 -0.4191 -0.1196  0.3781
 7813TIP3    H123403   3.240   0.490   3.871 -1.9428 -0.5164 -0.9423
 7813TIP3    H223404   3.216   0.574   3.995  1.1279 -0.3612 -0.3819
 7814TIP3   OH223405   3.222   4.767   5.035 -0.7495  0.5353 -0.5087
 7814TIP3    H123406   3.286   4.711   4.991 -1.4219  0.1575 -1.0152
 7814TIP3    H223407   3.191   4.827   4.966  0.3022  1.8636  0.1238
 7815TIP3   OH223408   3.054   0.771   4.076  0.3352 -0.2613  0.3892
 7815TIP3    H123409   3.013   0.858   4.084  2.2434  0.7452 -0.2513
 7815TIP3    H223410   3.145   0.790   4.055  0.5726 -2.4632 -0.7302
 7816TIP3   OH223411   3.618   5.424   5.762  0.0732 -0.0924 -0.3246
 7816TIP3    H123412   3.523   5.415   5.772  0.0835  0.2252  0.1121
 7816TIP3    H223413   3.654   5.386   5.842  0.2059  1.8509  0.5952
 7817TIP3   OH223414   4.998   3.825   2.711 -0.0552 -0.8793  0.2883
 7817TIP3    H123415   5.080   3.874   2.705 -0.4355 -0.0609  1.4070
 7817TIP3    H223416   4.931   3.892   2.722 -0.5956 -1.6285  1.7779
 7818TIP3   OH223417   6.732   0.313   4.358 -0.7376 -0.2975 -0.3477
 7818TIP3    H123418   6.683   0.246   4.406 -1.2018 -0.9471 -1.6656
 7818TIP3    H223419   6.675   0.337   4.285  0.0246  0.5047 -0.7015
 7819TIP3   OH223420   2.154   1.802   1.496 -0.3606  0.1716  0.2922
 7819TIP3    H123421   2.229   1.860   1.514 -1.5538  1.2738  2.0001
 7819TIP3    H223422   2.153   1.794   1.401  1.9780  0.0219  0.2125
 7820TIP3   OH223423   0.984   0.692   4.730  0.2878 -0.4907 -0.7640
 7820TIP3    H123424   0.960   0.759   4.665 -1.0073 -0.7594 -0.5768
 7820TIP3    H223425   0.904   0.642   4.744  1.3843 -2.5481 -1.4061
 7821TIP3   OH223426   2.805   3.527   0.653  0.7423 -0.5541 -0.0636
 7821TIP3    H123427   2.867   3.600   0.661  2.7256 -2.0162 -1.0774
 7821TIP3    H223428   2.763   3.541   0.568  1.1601 -0.6046 -0.2831
 7822TIP3   OH223429   6.422   0.632   0.094 -0.3204 -0.3063 -0.2511
 7822TIP3    H123430   6.399   0.711   0.143  1.2461  1.8317 -2.7096
 7822TIP3    H223431   6.496   0.594   0.142  0.0625  0.7461  0.0202
 7823TIP3   OH223432   3.839   6.015   4.159 -0.5021  0.4692  0.4122
 7823TIP3    H123433   3.753   6.024   4.118 -0.6927 -0.2070  0.6478
 7823TIP3    H223434   3.861   5.922   4.148 -0.3888  0.3620  1.4996
 7824TIP3   OH223435   6.887   4.473   0.252  0.8188 -0.2402 -0.0417
 7824TIP3    H123436   6.958   4.408   0.247  1.2110  0.2697 -1.5519
 7824TIP3    H223437   6.814   4.432   0.205  1.3490  0.7301 -1.7668
 7825TIP3   OH223438   4.859   5.135   4.251 -0.0335 -0.3249 -0.6176
 7825TIP3    H123439   4.875   5.117   4.344  0.2455 -0.9936 -0.7878
 7825TIP3    H223440   4.764   5.134   4.243 -0.1917  1.9992  0.0803
 7826TIP3   OH223441   0.903   1.498   2.077 -0.1264  0.2661 -0.0402
 7826TIP3    H123442   0.974   1.437   2.056 -0.8758 -0.5502 -0.2694
 7826TIP3    H223443   0.824   1.453   2.048 -0.7563  1.1032  0.3446
 7827TIP3   OH223444   4.375   4.244   3.855 -0.2293 -0.2964 -0.1221
 7827TIP3    H123445   4.405   4.212   3.770 -0.1470 -0.0007 -0.2062
 7827TIP3    H223446   4.412   4.332   3.861  0.4030 -0.6038  0.5599
 7828TIP3   OH223447   6.819   4.485   1.545  0.4558  0.1226  0.1747
 7828TIP3    H123448   6.887   4.536   1.589  3.4265 -2.8101 -0.6685
 7828TIP3    H223449   6.772   4.442   1.617  0.4805  0.9255  0.6950
 7829TIP3   OH223450   2.341   1.945   1.003 -0.1062 -0.4439 -0.4644
 7829TIP3    H123451   2.266   1.983   0.956 -2.0409  0.0802  2.7116
 7829TIP3    H223452   2.396   2.020   1.024  0.1316 -0.5189 -0.8014
 7830TIP3   OH223453   2.108   3.707   0.426 -0.9506 -0.0410  0.6836
 7830TIP3    H123454   2.154   3.788   0.446 -0.5931  0.0362 -0.4159
 7830TIP3    H223455   2.176   3.648   0.394 -1.4071 -0.3495  0.2597
 7831TIP3   OH223456   3.975   6.724   1.902  0.2649  0.5550 -0.2930
 7831TIP3    H123457   3.893   6.730   1.854 -0.9475 -0.7168  1.4845
 7831TIP3    H223458   4.042   6.716   1.834 -1.0968  1.2689 -1.7767
 7832TIP3   OH223459   4.527   6.016   4.085 -0.2738 -0.3481  0.2096
 7832TIP3    H123460   4.533   5.963   4.006 -0.2705 -1.0450  0.6758
 7832TIP3    H223461   4.441   6.058   4.079 -1.0321 -1.7809  0.6909
 7833TIP3   OH223462   1.152   0.347   5.875  0.0605 -0.1217 -0.1630
 7833TIP3    H123463   1.213   0.362   5.802 -0.3717 -1.1750 -0.7715
 7833TIP3    H223464   1.206   0.306   5.943  0.4394  0.7512  0.0777
 7834TIP3   OH223465   3.443   0.598   4.280  0.2395  0.1403  0.1585
 7834TIP3    H123466   3.455   0.542   4.357 -1.2415 -0.0826  0.2555
 7834TIP3    H223467   3.428   0.685   4.316 -0.2078  0.0821  0.1150
 7835TIP3   OH223468   3.606   0.526   0.874 -0.6739 -0.2226  0.6016
 7835TIP3    H123469   3.521   0.541   0.916 -0.3768 -0.1308  1.1812
 7835TIP3    H223470   3.660   0.488   0.943  0.6595  2.4370  1.1467
 7836TIP3   OH223471   6.680   2.507   1.333 -0.5370 -0.7235 -0.1657
 7836TIP3    H123472   6.604   2.477   1.283  0.1714 -0.9936 -1.1189
 7836TIP3    H223473   6.688   2.600   1.311 -0.5920 -0.6931 -0.0592
 7837TIP3   OH223474   1.678   3.035   4.795  0.0302 -0.5472 -0.1488
 7837TIP3    H123475   1.666   2.940   4.788 -1.3066 -0.5496  1.4519
 7837TIP3    H223476   1.617   3.061   4.864  1.8156  1.2055  0.8516
 7838TIP3   OH223477   2.236   3.055   4.455  0.2685 -0.1163  0.5276
 7838TIP3    H123478   2.239   2.962   4.480 -0.4471 -0.5658 -0.9409
 7838TIP3    H223479   2.232   3.054   4.360 -0.7154  1.4092  0.5250
 7839TIP3   OH223480   0.476   6.639   1.913 -0.1679 -0.0880  0.0955
 7839TIP3    H123481   0.500   6.715   1.967  2.0528 -0.6044 -0.0618
 7839TIP3    H223482   0.532   6.568   1.945 -0.8398 -1.1628 -1.0163
 7840TIP3   OH223483   4.363   2.301   1.217 -0.1299 -0.1637  0.0968
 7840TIP3    H123484   4.300   2.230   1.203  0.7576 -0.8533 -0.5558
 7840TIP3    H223485   4.402   2.282   1.303  0.2929 -0.6419 -0.1891
 7841TIP3   OH223486   1.061   0.764   1.281 -0.3319  0.2037  0.2259
 7841TIP3    H123487   0.997   0.814   1.229 -0.4179 -0.6304 -0.4854
 7841TIP3    H223488   1.013   0.686   1.308  0.2792 -0.2494  0.0031
 7842TIP3   OH223489   4.055   6.107   2.066 -0.2189  0.5596 -0.1414
 7842TIP3    H123490   3.986   6.124   2.130  0.0796  0.0838  0.3134
 7842TIP3    H223491   4.136   6.133   2.111  0.2572 -1.9267  0.5639
 7843TIP3   OH223492   3.263   5.575   4.694  0.0697  0.1841 -0.3149
 7843TIP3    H123493   3.208   5.644   4.732 -1.5665 -0.2810 -1.7339
 7843TIP3    H223494   3.203   5.503   4.676  1.6646 -1.4955  0.7016
 7844TIP3   OH223495   5.365   6.639   3.262  0.1156  0.1385 -0.4444
 7844TIP3    H123496   5.318   6.574   3.209 -0.6387 -0.2113  0.6081
 7844TIP3    H223497   5.378   6.713   3.203  1.1016 -0.9814 -1.7206
 7845TIP3   OH223498   0.922   4.780   3.538  0.1673 -0.5815  0.1413
 7845TIP3    H123499   0.872   4.828   3.604  0.0093  0.6395 -0.8122
 7845TIP3    H223500   0.857   4.759   3.470  0.3350 -1.7606  0.3241
 7846TIP3   OH223501   0.807   0.931   0.193 -0.0453 -0.0785 -0.1091
 7846TIP3    H123502   0.729   0.985   0.202  0.3781  0.9997 -2.2003
 7846TIP3    H223503   0.863   0.958   0.266 -1.5592 -0.8577  1.4038
 7847TIP3   OH223504   3.396   1.104   4.930 -0.1820  0.0252  0.2467
 7847TIP3    H123505   3.365   1.140   4.847  2.3241  0.5298 -0.5650
 7847TIP3    H223506   3.372   1.170   4.995 -0.1052  0.7652 -0.4609
 7848TIP3   OH223507   6.274   2.259   3.288  0.3498  0.0593 -0.5560
 7848TIP3    H123508   6.189   2.255   3.333 -0.6917  0.4109 -2.3646
 7848TIP3    H223509   6.270   2.341   3.238  2.3276  0.7463  0.3475
 7849TIP3   OH223510   3.197   5.703   1.905 -0.6657  0.3790  0.0062
 7849TIP3    H123511   3.244   5.641   1.849  0.3261  1.1539 -0.0385
 7849TIP3    H223512   3.106   5.675   1.899 -0.5941  0.4072 -1.9501
 7850TIP3   OH223513   2.795   0.675   5.040  0.7044 -0.2256  0.1776
 7850TIP3    H123514   2.757   0.706   5.122  0.7571 -1.2996  0.6272
 7850TIP3    H223515   2.728   0.616   5.003  1.2449 -0.8371  0.1532
 7851TIP3   OH223516   5.844   2.961   2.757 -0.1036 -0.2836 -0.0789
 7851TIP3    H123517   5.830   2.928   2.845  0.4963  2.0135  0.9493
 7851TIP3    H223518   5.757   2.987   2.727 -0.2118 -0.4509  0.0876
 7852TIP3   OH223519   0.317   3.435   3.219 -0.6906  0.4069 -0.3605
 7852TIP3    H123520   0.378   3.445   3.147 -0.5203 -2.2147 -0.6584
 7852TIP3    H223521   0.366   3.389   3.287 -1.6641  0.3184  0.3096
 7853TIP3   OH223522   5.738   6.347   3.115 -0.1772  0.1518  0.1637
 7853TIP3    H123523   5.798   6.321   3.047  1.3391 -0.1468  1.5546
 7853TIP3    H223524   5.694   6.266   3.142  0.4148 -0.0162  0.6386
 7854TIP3   OH223525   3.085   1.397   2.538  0.1335  0.6528 -0.3333
 7854TIP3    H123526   3.079   1.488   2.509 -1.2105  0.8397  0.4111
 7854TIP3    H223527   3.079   1.402   2.634  2.7869 -0.0614 -0.0515
 7855TIP3   OH223528   5.090   3.047   2.433  0.4787 -0.5948  0.1100
 7855TIP3    H123529   5.057   3.035   2.344 -0.1306  1.2963  0.0225
 7855TIP3    H223530   5.022   3.099   2.477  0.7601 -1.5121  1.6958
 7856TIP3   OH223531   0.796   6.149   5.170 -0.2476 -0.4795  0.2467
 7856TIP3    H123532   0.736   6.074   5.170  0.1991 -0.8372  0.0601
 7856TIP3    H223533   0.758   6.208   5.235 -0.8281 -0.6830  0.1050
 7857TIP3   OH223534   3.385   5.728   1.006  0.0016 -0.9286  0.0265
 7857TIP3    H123535   3.374   5.818   1.036  3.4468 -0.4645  0.3404
 7857TIP3    H223536   3.395   5.735   0.911  2.7258 -0.5352  0.2603
 7858TIP3   OH223537   5.278   2.267   5.781 -0.0729 -0.6513 -0.1547
 7858TIP3    H123538   5.265   2.253   5.688  0.3707  0.7351 -0.4555
 7858TIP3    H223539   5.344   2.336   5.786 -2.7899  2.1107  1.0477
 7859TIP3   OH223540   4.015   5.205   2.678 -0.0121  0.0865 -0.0584
 7859TIP3    H123541   3.939   5.236   2.727  0.3665  1.0389 -0.0446
 7859TIP3    H223542   4.065   5.153   2.741 -1.4179 -1.8784 -0.4925
 7860TIP3   OH223543   0.536   4.183   5.369  0.3997 -0.1745 -0.0886
 7860TIP3    H123544   0.561   4.263   5.415  0.1929 -0.9404  1.4220
 7860TIP3    H223545   0.613   4.126   5.377  0.3504 -0.3250 -0.6788
 7861TIP3   OH223546   0.800   2.209   5.189 -0.0778  0.4047 -0.8542
 7861TIP3    H123547   0.797   2.131   5.133 -1.2337  0.1148 -0.4015
 7861TIP3    H223548   0.765   2.180   5.273 -0.8440  1.4956 -0.7847
 7862TIP3   OH223549   1.591   0.745   5.703 -0.5895  0.0595 -0.2742
 7862TIP3    H123550   1.569   0.669   5.758  1.7032 -0.2334  0.3232
 7862TIP3    H223551   1.540   0.730   5.623 -0.0194 -2.2821 -0.2904
 7863TIP3   OH223552   3.476   1.538   3.379 -0.0157  0.4514 -0.2425
 7863TIP3    H123553   3.505   1.568   3.465  1.6493 -0.4496 -0.4587
 7863TIP3    H223554   3.387   1.506   3.394  0.0176  0.8950  1.0044
 7864TIP3   OH223555   4.569   5.840   5.162  0.3688  0.3799  0.0017
 7864TIP3    H123556   4.609   5.925   5.182  1.3392 -0.0342 -0.1201
 7864TIP3    H223557   4.585   5.828   5.069  0.6528 -0.1453  0.1150
 7865TIP3   OH223558   6.975   4.759   3.666  0.1309 -0.4441 -0.0144
 7865TIP3    H123559   6.935   4.693   3.723  0.6144 -1.0613 -0.3684
 7865TIP3    H223560   6.906   4.782   3.604 -0.0874 -0.5127  0.2031
 7866TIP3   OH223561   4.661   1.020   3.032  1.2863  0.2853 -0.0681
 7866TIP3    H123562   4.732   1.069   3.072  1.4011  0.3631 -0.3596
 7866TIP3    H223563   4.581   1.058   3.069  1.4051 -0.0971  0.5926
 7867TIP3   OH223564   6.409   2.080   3.120  0.6969 -0.0920 -0.0702
 7867TIP3    H123565   6.352   2.009   3.152  2.0356 -1.0457  0.2632
 7867TIP3    H223566   6.493   2.065   3.163  1.4653  0.8023 -1.1971
 7868TIP3   OH223567   0.036   4.892   4.575  0.2933 -0.2431 -0.1103
 7868TIP3    H123568   0.038   4.834   4.499  0.9781  2.4371 -2.3297
 7868TIP3    H223569  -0.025   4.962   4.550  0.1817  0.4873  2.0308
 7869TIP3   OH223570   4.296   1.477   5.647  0.2049  0.6557  0.2481
 7869TIP3    H123571   4.377   1.504   5.604  0.7073  0.9622  1.3518
 7869TIP3    H223572   4.242   1.441   5.576  1.3268  0.3753 -0.4920
 7870TIP3   OH223573   1.775   4.741   1.502  0.0525 -0.0428 -0.5016
 7870TIP3    H123574   1.748   4.828   1.532  1.3913 -0.0091  0.7177
 7870TIP3    H223575   1.693   4.695   1.483 -0.7964  0.5982  1.3986
 7871TIP3   OH223576   7.161   2.036   5.326 -0.3799  0.1531 -0.0561
 7871TIP3    H123577   7.230   2.055   5.390 -0.0851 -1.1196  0.0411
 7871TIP3    H223578   7.171   2.102   5.258 -0.0093  0.8705  0.6897
 7872TIP3   OH223579   5.196   2.573   2.017  0.3180 -0.4767  0.1127
 7872TIP3    H123580   5.221   2.654   1.973 -0.6950 -0.2087  0.0148
 7872TIP3    H223581   5.146   2.524   1.951 -0.7422 -0.3150  0.7698
 7873TIP3   OH223582   3.612   2.262   3.237  0.0705  0.2104  0.1867
 7873TIP3    H123583   3.608   2.315   3.317 -0.3570  0.9845 -0.3259
 7873TIP3    H223584   3.623   2.327   3.167 -1.7774 -0.2626 -0.5930
 7874TIP3   OH223585   6.486   4.380   5.393 -0.0484 -0.1395  0.2719
 7874TIP3    H123586   6.510   4.389   5.485  0.2991 -0.7515  0.2469
 7874TIP3    H223587   6.547   4.438   5.347 -2.3586  2.8033  0.6718
 7875TIP3   OH223588   3.941   5.706   4.672  0.5266 -0.1670  0.0920
 7875TIP3    H123589   3.999   5.653   4.727 -0.1612 -1.0003  0.0323
 7875TIP3    H223590   3.932   5.655   4.592  0.8719  0.6553 -0.4811
 7876TIP3   OH223591   3.670   2.941   3.452 -0.0814 -0.4033  0.0796
 7876TIP3    H123592   3.587   2.947   3.404 -0.1919  0.3688  0.3592
 7876TIP3    H223593   3.654   2.871   3.516 -0.0220 -1.2464 -0.7984
 7877TIP3   OH223594   0.143   4.294   1.045  0.1504 -0.2403  0.8736
 7877TIP3    H123595   0.170   4.230   1.111 -1.1306 -0.7577  0.9237
 7877TIP3    H223596   0.195   4.372   1.065  0.9064 -0.9023  1.5230
 7878TIP3   OH223597   4.815   1.311   2.951  0.0530 -0.4844 -0.2506
 7878TIP3    H123598   4.840   1.244   3.015 -2.8650  0.3109  1.9691
 7878TIP3    H223599   4.720   1.302   2.943 -0.3565  2.8008 -0.4901
 7879TIP3   OH223600   0.905   1.806   3.871  0.7747  0.1695 -0.0666
 7879TIP3    H123601   0.831   1.781   3.926  0.7927 -2.4528 -1.0464
 7879TIP3    H223602   0.866   1.827   3.786  1.1030 -1.7823 -0.7556
 7880TIP3   OH223603   5.759   6.548   1.340  0.3471  0.3470  0.2580
 7880TIP3    H123604   5.816   6.532   1.265  0.0848  0.8334 -0.0494
 7880TIP3    H223605   5.794   6.491   1.409 -0.5425 -1.5247 -0.7641
 7881TIP3   OH223606   1.691   6.758   2.003  0.1627 -0.1472 -0.0731
 7881TIP3    H123607   1.755   6.781   2.071 -0.0031 -0.2027  0.1028
 7881TIP3    H223608   1.744   6.738   1.926  0.2812  2.0634 -0.6328
 7882TIP3   OH223609   0.732   5.643   4.780  0.3717  0.2303  0.6064
 7882TIP3    H123610   0.806   5.697   4.805  1.1914 -1.0705  1.0900
 7882TIP3    H223611   0.679   5.637   4.859  1.2174 -1.1217  1.0938
 7883TIP3   OH223612   1.497   2.290   2.639  0.4262 -0.1666 -0.0474
 7883TIP3    H123613   1.574   2.317   2.588 -1.3547  1.0125 -2.3037
 7883TIP3    H223614   1.444   2.369   2.645 -0.9661 -1.1267  0.7944
 7884TIP3   OH223615   3.703   6.090   2.086  0.5957 -0.6481  0.2850
 7884TIP3    H123616   3.747   6.166   2.125  0.1466 -0.7771  1.0612
 7884TIP3    H223617   3.706   6.023   2.155 -0.8305 -0.6498  0.3637
 7885TIP3   OH223618   6.673   3.618   4.409  0.6818 -0.0817 -0.0479
 7885TIP3    H123619   6.738   3.678   4.445 -1.6670  0.9594  2.9507
 7885TIP3    H223620   6.592   3.669   4.408 -1.2028 -2.7763  1.6472
 7886TIP3   OH223621   0.887   0.038   2.189 -0.2082  0.2316  0.0887
 7886TIP3    H123622   0.807   0.042   2.135 -0.6904 -1.6138  0.5860
 7886TIP3    H223623   0.942  -0.025   2.144  1.0521  1.5427 -0.2812
 7887TIP3   OH223624   2.531   1.321   5.208  0.5290 -0.4481  0.2367
 7887TIP3    H123625   2.483   1.299   5.287  1.4354 -1.2530  0.5849
 7887TIP3    H223626   2.464   1.340   5.143 -0.2472  1.4891  1.5158
 7888TIP3   OH223627   3.125   1.749   1.938 -0.0302  0.3775 -0.2876
 7888TIP3    H123628   3.115   1.824   1.997  1.4247 -0.1965  0.7271
 7888TIP3    H223629   3.164   1.680   1.992 -2.1332 -1.4734 -0.9518
 7889TIP3   OH223630   2.900   3.423   5.808  0.0163 -0.2142  0.3742
 7889TIP3    H123631   2.832   3.490   5.798  0.6699  0.6301  1.3367
 7889TIP3    H223632   2.937   3.413   5.720  0.4937  1.3537  0.3581
 7890TIP3   OH223633   5.087   1.217   1.966  0.6523 -0.0159 -0.1617
 7890TIP3    H123634   5.053   1.131   1.989  1.1181  0.2226  1.5363
 7890TIP3    H223635   5.179   1.202   1.944  0.5217 -0.0521 -0.7185
 7891TIP3   OH223636   4.712   4.015   2.297  0.0863  0.1842 -0.3498
 7891TIP3    H123637   4.617   4.022   2.309 -0.1743 -0.2724 -1.9346
 7891TIP3    H223638   4.742   3.965   2.374 -1.0535 -0.2501 -0.1632
 7892TIP3   OH223639   2.894   4.110   5.884 -0.5060  0.1981  0.3522
 7892TIP3    H123640   2.918   4.169   5.813  0.3544 -0.0147  0.4552
 7892TIP3    H223641   2.816   4.150   5.923 -1.5181 -0.1331 -1.2388
 7893TIP3   OH223642   1.761   1.542   3.699 -0.2680 -0.2003 -0.2985
 7893TIP3    H123643   1.753   1.458   3.746 -0.5606  0.1361  0.2647
 7893TIP3    H223644   1.746   1.608   3.767 -0.9162  0.2954 -0.9120
 7894TIP3   OH223645   4.298   3.682   2.173  0.2464  0.2651  0.0985
 7894TIP3    H123646   4.312   3.740   2.098 -0.1301  0.3086  0.0611
 7894TIP3    H223647   4.364   3.709   2.236  1.4857 -0.6857 -0.7489
 7895TIP3   OH223648   5.135   4.940   0.554 -0.0768 -0.4644 -0.2268
 7895TIP3    H123649   5.065   4.878   0.572  0.0125 -0.2697  0.8645
 7895TIP3    H223650   5.091   5.025   0.552  0.4450  0.0678  3.5438
 7896TIP3   OH223651   4.220   5.825   4.982 -1.0264 -0.0954  0.2907
 7896TIP3    H123652   4.151   5.849   5.044 -3.9107 -2.0657 -1.9206
 7896TIP3    H223653   4.226   5.900   4.923 -1.2763  0.0901  0.4976
 7897TIP3   OH223654   3.047   6.659   2.166  0.4993 -0.4197  0.1998
 7897TIP3    H123655   3.108   6.625   2.231  0.1847  0.6881  1.0947
 7897TIP3    H223656   3.029   6.749   2.193  0.2243  0.0196 -1.3256
 7898TIP3   OH223657   1.199   6.358   5.483 -0.6094 -0.0482  0.0994
 7898TIP3    H123658   1.255   6.410   5.541 -0.2039 -0.6146  0.2154
 7898TIP3    H223659   1.191   6.273   5.527  2.3710 -1.6779 -2.1788
 7899TIP3   OH223660   3.641   4.793   5.645 -0.4419  0.2042 -0.0645
 7899TIP3    H123661   3.637   4.877   5.691 -2.3606  1.2030 -1.8983
 7899TIP3    H223662   3.611   4.813   5.557  0.6452 -2.1406 -1.0392
 7900TIP3   OH223663   3.196   0.275   0.284 -0.3215 -0.3199 -0.2549
 7900TIP3    H123664   3.241   0.219   0.348 -0.2973 -0.0374 -0.0228
 7900TIP3    H223665   3.183   0.358   0.330 -0.0684 -0.0262 -0.7057
 7901TIP3   OH223666   4.817   0.817   5.764 -0.6292  0.7113  0.1911
 7901TIP3    H123667   4.894   0.777   5.725 -0.1870  0.3063  1.4096
 7901TIP3    H223668   4.770   0.856   5.691  0.0820 -0.1208 -0.7337
 7902TIP3   OH223669   6.370   5.969   2.607  0.1442 -0.1159  0.8293
 7902TIP3    H123670   6.306   6.000   2.670 -1.0868 -1.5650  0.3518
 7902TIP3    H223671   6.454   6.001   2.640 -0.7826  1.8049  1.4861
 7903TIP3   OH223672   2.649   4.942   3.928 -0.0975  0.8028  0.5651
 7903TIP3    H123673   2.700   5.007   3.879 -1.3328  1.1226 -0.3522
 7903TIP3    H223674   2.626   4.986   4.010  0.6742  0.8279  0.7738
 7904TIP3   OH223675   1.230   0.634   2.100 -0.1475  0.3129  0.1815
 7904TIP3    H123676   1.160   0.574   2.127 -0.1530  0.8964  1.5663
 7904TIP3    H223677   1.209   0.656   2.010  0.4006 -2.5056 -0.7553
 7905TIP3   OH223678   2.280   4.042   5.855  0.2469  0.1509  0.3799
 7905TIP3    H123679   2.233   3.972   5.810 -0.4290 -1.1883  2.9509
 7905TIP3    H223680   2.372   4.019   5.847  0.0138 -1.3151  1.5293
 7906TIP3   OH223681   3.667   4.386   1.155 -0.1718 -0.0814  0.2510
 7906TIP3    H123682   3.649   4.293   1.167 -0.2173  0.1076  2.0076
 7906TIP3    H223683   3.761   4.391   1.137  0.5156 -0.3567  3.1597
 7907TIP3   OH223684   0.036   5.191   0.859 -0.1857 -0.6509 -0.5254
 7907TIP3    H123685   0.113   5.223   0.813  0.6273 -2.0155 -0.1824
 7907TIP3    H223686   0.028   5.248   0.935  0.0072 -0.0030 -0.9847
 7908TIP3   OH223687   2.763   3.484   1.769 -0.4138 -0.1800 -0.1086
 7908TIP3    H123688   2.722   3.507   1.853 -0.2880 -1.1682  0.2385
 7908TIP3    H223689   2.784   3.391   1.777  1.8419  0.2466 -0.2899
 7909TIP3   OH223690   5.141   2.368   4.380 -0.4045 -0.1380  0.5281
 7909TIP3    H123691   5.122   2.462   4.375 -0.3591 -0.0598  1.5607
 7909TIP3    H223692   5.095   2.330   4.306  0.7741  0.8835 -0.7919
 7910TIP3   OH223693   1.968   6.779   2.088 -0.0838 -0.2518 -0.7548
 7910TIP3    H123694   1.995   6.835   2.161 -1.4981 -0.3560 -0.1107
 7910TIP3    H223695   2.005   6.693   2.109 -1.9570 -0.7417  0.8388
 7911TIP3   OH223696   5.015   2.753   1.503 -0.1625  0.0356 -0.1825
 7911TIP3    H123697   4.952   2.795   1.444 -1.6836  1.0467  2.0404
 7911TIP3    H223698   4.971   2.673   1.531  0.3380 -0.1909 -0.0365
 7912TIP3   OH223699   0.232   5.172   4.693  0.1380 -0.1544  0.5599
 7912TIP3    H123700   0.264   5.084   4.674  1.1017  0.5059 -1.0594
 7912TIP3    H223701   0.256   5.223   4.616 -0.5463  1.4958  1.4038
 7913TIP3   OH223702   0.591   1.902   0.953 -0.0192 -0.1178 -0.0386
 7913TIP3    H123703   0.617   1.917   0.862  0.8170 -2.2895 -0.2232
 7913TIP3    H223704   0.514   1.845   0.947 -1.9061  2.2242  0.6149
 7914TIP3   OH223705   1.524   5.496   0.360 -0.3877  0.0000  0.2454
 7914TIP3    H123706   1.492   5.540   0.281 -0.7136  0.1638  0.4672
 7914TIP3    H223707   1.615   5.526   0.369 -0.1180 -0.5769 -0.4642
 7915TIP3   OH223708   4.871   3.212   5.414  0.3657 -0.2397 -0.2386
 7915TIP3    H123709   4.914   3.288   5.376 -2.0884  0.9581 -0.8657
 7915TIP3    H223710   4.784   3.244   5.438  0.1924 -2.1991  2.0205
 7916TIP3   OH223711   3.222   4.791   0.273 -0.4138  0.2200 -0.4629
 7916TIP3    H123712   3.237   4.884   0.290 -0.1765  0.2665 -0.9009
 7916TIP3    H223713   3.182   4.758   0.353  1.3446  0.2611  0.4840
 7917TIP3   OH223714   4.243   4.106   5.436  0.2442  0.4086  0.1903
 7917TIP3    H123715   4.336   4.131   5.440  0.7513 -1.4715  0.8896
 7917TIP3    H223716   4.241   4.016   5.467 -1.5082 -0.4171 -2.0354
 7918TIP3   OH223717   4.330   1.331   4.832 -0.5658 -0.1611  0.4945
 7918TIP3    H123718   4.370   1.266   4.775  0.2199  0.9094 -0.2227
 7918TIP3    H223719   4.343   1.414   4.786 -0.9896  0.5813  1.6763
 7919TIP3   OH223720   1.573   3.194   1.808  0.8238 -0.1880 -0.3758
 7919TIP3    H123721   1.594   3.102   1.791 -0.4860 -0.6581  0.3893
 7919TIP3    H223722   1.483   3.204   1.777  0.6239  0.5884  0.4244
 7920TIP3   OH223723   1.745   5.566   2.652 -0.0252 -0.2600  0.1852
 7920TIP3    H123724   1.693   5.603   2.724 -0.4100 -0.6189  0.0908
 7920TIP3    H223725   1.773   5.643   2.601 -0.3996 -0.0610  0.2795
 7921TIP3   OH223726   0.453   6.753   5.304 -0.1939 -0.5475 -1.0738
 7921TIP3    H123727   0.402   6.832   5.320 -0.9253 -1.2894  0.5132
 7921TIP3    H223728   0.393   6.681   5.325  0.9243 -1.4815 -0.9553
 7922TIP3   OH223729   6.403   6.333   4.890  0.3622  0.3826  0.3091
 7922TIP3    H123730   6.443   6.329   4.803 -1.0000  1.2139 -0.3787
 7922TIP3    H223731   6.469   6.295   4.948  2.1906  1.7452 -0.7678
 7923TIP3   OH223732   7.009   0.354   2.396 -0.5941  0.1447  0.1507
 7923TIP3    H123733   7.059   0.436   2.393 -0.3110  0.0799  2.1169
 7923TIP3    H223734   6.976   0.344   2.307  0.1504  1.9006 -0.3810
 7924TIP3   OH223735   0.117   6.764   2.154 -0.0877  0.3690 -0.3020
 7924TIP3    H123736   0.113   6.855   2.124  1.7207  1.0250  1.3104
 7924TIP3    H223737   0.209   6.739   2.144 -0.2551 -0.7620  0.7694
 7925TIP3   OH223738   6.662   2.613   3.763 -0.6644  0.0537 -0.2085
 7925TIP3    H123739   6.712   2.661   3.830 -1.4652  0.0646  0.3954
 7925TIP3    H223740   6.653   2.525   3.799  0.0988 -0.3509 -0.9497
 7926TIP3   OH223741   4.667   4.832   5.634 -0.6846  0.4337  0.0686
 7926TIP3    H123742   4.673   4.747   5.590  0.0877  0.8565 -0.6771
 7926TIP3    H223743   4.585   4.870   5.601 -0.7109  0.2451 -0.0841
 7927TIP3   OH223744   7.043   2.371   2.061  0.2359 -0.3224  0.1455
 7927TIP3    H123745   7.006   2.347   2.145  1.2459 -0.2099  0.6440
 7927TIP3    H223746   7.038   2.467   2.059 -2.9347 -0.3950 -1.4387
 7928TIP3   OH223747   1.722   5.743   1.993 -0.1009  0.6834  0.0563
 7928TIP3    H123748   1.731   5.684   1.918 -0.5634 -0.8650  1.1828
 7928TIP3    H223749   1.812   5.765   2.017  0.0610  0.7732 -0.6081
 7929TIP3   OH223750   1.674   4.873   4.679 -0.0454  0.1659  0.0459
 7929TIP3    H123751   1.669   4.842   4.589 -2.7228 -2.1445  0.8723
 7929TIP3    H223752   1.632   4.959   4.677 -0.9793 -0.2887 -0.7781
 7930TIP3   OH223753   4.762   1.036   0.062 -0.4833  0.7910 -0.6587
 7930TIP3    H123754   4.757   1.114   0.117 -1.1240  0.9777 -0.9693
 7930TIP3    H223755   4.790   1.068  -0.023  0.0040  0.5702 -0.5890
 7931TIP3   OH223756   3.675   0.210   1.774  0.3894 -0.2729 -0.5025
 7931TIP3    H123757   3.620   0.176   1.845 -0.2430  0.2050 -0.7567
 7931TIP3    H223758   3.624   0.196   1.695  0.8865 -0.3522 -0.8149
 7932TIP3   OH223759   1.044   2.742   3.445 -0.0494  0.2617  0.8873
 7932TIP3    H123760   1.000   2.658   3.456 -1.9936  0.4491 -3.4863
 7932TIP3    H223761   1.017   2.794   3.521 -0.9740 -2.1503  2.2939
 7933TIP3   OH223762   4.504   4.353   2.312 -0.6266 -0.3393  0.1740
 7933TIP3    H123763   4.512   4.444   2.339 -0.1525 -0.4750  0.5151
 7933TIP3    H223764   4.536   4.351   2.222 -0.4675 -0.2030  0.2282
 7934TIP3   OH223765   0.464   2.543   3.258 -0.1863 -0.1641 -0.0143
 7934TIP3    H123766   0.380   2.518   3.297  1.0504 -0.7197  2.4343
 7934TIP3    H223767   0.500   2.461   3.223 -0.2713 -0.0807 -0.3009
 7935TIP3   OH223768   2.442   4.383   2.529 -0.2461  0.3406  0.0807
 7935TIP3    H123769   2.431   4.469   2.569  0.0505  0.3137  0.2237
 7935TIP3    H223770   2.537   4.369   2.526 -0.1560  1.1096 -2.3010
 7936TIP3   OH223771   2.987   4.604   5.007  0.0660  0.1798  0.1638
 7936TIP3    H123772   3.058   4.629   5.065  1.1037 -2.4628  0.1874
 7936TIP3    H223773   3.023   4.615   4.919 -0.2074  0.7213  0.1185
 7937TIP3   OH223774   5.823   3.851   4.863 -0.0849  0.0861  0.1095
 7937TIP3    H123775   5.855   3.912   4.930  1.9113 -2.2990  1.5119
 7937TIP3    H223776   5.893   3.846   4.799 -0.0715 -0.9028  0.1765
 7938TIP3   OH223777   6.584   1.459   0.978 -0.7028  0.1441  0.2258
 7938TIP3    H123778   6.517   1.461   1.046 -2.4138 -1.6561 -1.3118
 7938TIP3    H223779   6.580   1.546   0.938 -1.0227  0.5605  1.1330
 7939TIP3   OH223780   2.122   1.992   1.782 -0.4500  0.4029 -0.2030
 7939TIP3    H123781   2.100   1.904   1.753 -2.0818  0.6695  0.1414
 7939TIP3    H223782   2.181   2.026   1.714 -0.4457 -0.6563 -0.7404
 7940TIP3   OH223783   5.751   1.585   0.278  0.5455 -0.3264 -0.3806
 7940TIP3    H123784   5.728   1.498   0.247  1.3584 -0.9301  0.6395
 7940TIP3    H223785   5.792   1.628   0.203 -0.9881 -0.3466 -1.2633
 7941TIP3   OH223786   6.963   2.362   2.341 -0.1882  0.2073 -0.4179
 7941TIP3    H123787   6.871   2.341   2.329 -0.2881 -0.3521  1.0845
 7941TIP3    H223788   6.973   2.374   2.436  0.7122  3.0667 -0.7607
 7942TIP3   OH223789   5.234   0.135   1.154  0.1113 -0.2002 -0.0139
 7942TIP3    H123790   5.237   0.175   1.067  0.5279 -1.5669 -0.6602
 7942TIP3    H223791   5.210   0.206   1.213  1.0571  1.0432 -1.0707
 7943TIP3   OH223792   0.530   6.268   0.569 -0.1388  0.2673 -0.3218
 7943TIP3    H123793   0.453   6.324   0.562 -0.4244 -0.2931 -2.2508
 7943TIP3    H223794   0.497   6.187   0.608 -0.0734  0.7606  0.8096
 7944TIP3   OH223795   3.992   1.460   0.410  0.2110 -0.2895 -0.1750
 7944TIP3    H123796   3.978   1.366   0.402 -1.2974 -0.0795 -0.4500
 7944TIP3    H223797   3.954   1.482   0.495  0.9395  0.0130  0.0759
 7945TIP3   OH223798   0.649   1.650   4.443  0.3220  0.5474 -0.0684
 7945TIP3    H123799   0.594   1.674   4.518  0.2708 -0.2406  0.1558
 7945TIP3    H223800   0.691   1.568   4.469 -2.1257 -1.5334 -2.0838
 7946TIP3   OH223801   6.823   2.189   5.731 -0.3148  0.0904  0.2194
 7946TIP3    H123802   6.881   2.113   5.742  0.2817  0.4087 -0.6281
 7946TIP3    H223803   6.736   2.156   5.753  0.2656 -0.2302  2.1423
 7947TIP3   OH223804   3.140   5.871   1.144  0.1726 -0.2308  0.2729
 7947TIP3    H123805   3.214   5.931   1.154  1.0552 -1.0936 -0.8998
 7947TIP3    H223806   3.172   5.788   1.178 -0.6031 -0.3818  0.6628
 7948TIP3   OH223807   3.537   5.681   1.294  0.5261  0.0276 -0.5514
 7948TIP3    H123808   3.442   5.688   1.291  0.3977 -1.2260 -0.1224
 7948TIP3    H223809   3.568   5.772   1.296 -0.6956  0.4612  0.3502
 7949TIP3   OH223810   4.663   2.106   5.597 -0.6128 -0.4828 -0.4781
 7949TIP3    H123811   4.703   2.193   5.601 -0.3437 -0.5833 -0.9038
 7949TIP3    H223812   4.603   2.103   5.672  2.6682 -1.6209  2.3401
 7950TIP3   OH223813   2.151   5.143   1.229 -0.0251  0.4081  0.2543
 7950TIP3    H123814   2.129   5.188   1.148 -1.4844 -0.7425 -0.0426
 7950TIP3    H223815   2.068   5.139   1.277  0.6071  0.2004  1.3621
 7951TIP3   OH223816   4.973   3.311   0.988 -0.0628 -0.0080 -0.6208
 7951TIP3    H123817   5.065   3.314   0.962 -0.7540  1.0897 -3.2677
 7951TIP3    H223818   4.969   3.367   1.066  1.3191  0.8932 -1.1574
 7952TIP3   OH223819   5.252   5.986   4.676 -0.3941 -0.5945  0.6681
 7952TIP3    H123820   5.212   6.037   4.606 -0.0818  0.0838  0.9735
 7952TIP3    H223821   5.303   5.919   4.631  2.4598  1.7796  0.0709
 7953TIP3   OH223822   3.048   0.906   2.999  0.1977  0.1733  0.6605
 7953TIP3    H123823   3.088   0.931   3.082 -0.0461  1.9836  0.2799
 7953TIP3    H223824   2.954   0.906   3.017  0.1096  1.1530  0.2612
 7954TIP3   OH223825   0.911   4.604   2.291  0.1062  0.1581  0.4006
 7954TIP3    H123826   0.929   4.528   2.345  1.7893  0.6789  0.6138
 7954TIP3    H223827   0.917   4.571   2.201 -2.4610 -0.6526  0.4383
 7955TIP3   OH223828   0.699   3.996   1.026 -0.1409  0.4633  0.2579
 7955TIP3    H123829   0.684   3.907   0.993 -0.6389  0.0375  1.5568
 7955TIP3    H223830   0.737   3.983   1.113 -1.1796  1.5089  0.8906
 7956TIP3   OH223831   6.730   2.384   2.870 -0.3374  0.6926  0.0877
 7956TIP3    H123832   6.793   2.331   2.918 -0.7451  1.2513  1.2657
 7956TIP3    H223833   6.646   2.367   2.912 -0.4103  2.5989  0.8330
 7957TIP3   OH223834   7.073   6.512   0.082 -0.9517  0.6573  0.3557
 7957TIP3    H123835   7.039   6.423   0.096 -0.6039 -0.1631 -3.0546
 7957TIP3    H223836   7.168   6.501   0.081 -0.9155  0.6482 -1.6432
 7958TIP3   OH223837   3.048   6.743   1.227 -0.1963 -0.2929  0.2629
 7958TIP3    H123838   3.045   6.692   1.308  0.7355 -0.4127  0.2349
 7958TIP3    H223839   2.973   6.801   1.232  0.9197  1.0808  2.1300
 7959TIP3   OH223840   6.981   4.310   1.691  0.0590  0.3633 -0.0443
 7959TIP3    H123841   6.932   4.273   1.765  1.0858 -0.1101  0.4249
 7959TIP3    H223842   6.929   4.289   1.614  0.2711 -1.4951  0.2791
 7960TIP3   OH223843   3.060   5.163   0.519 -0.4527  0.4967 -0.3940
 7960TIP3    H123844   3.135   5.219   0.536  0.4641 -1.5189  3.0722
 7960TIP3    H223845   2.992   5.195   0.578 -1.2652  0.3519 -1.2299
 7961TIP3   OH223846   0.155   5.563   3.152 -0.4771  0.2239  0.1295
 7961TIP3    H123847   0.249   5.545   3.157 -0.2674  1.4278  0.7352
 7961TIP3    H223848   0.116   5.478   3.130  0.7194 -0.3508  0.1411
 7962TIP3   OH223849   4.698   6.612   5.805  0.5772  0.5162 -0.4468
 7962TIP3    H123850   4.623   6.582   5.855  1.6597 -1.8947 -0.1314
 7962TIP3    H223851   4.763   6.636   5.870  0.2600  2.2579 -0.7216
 7963TIP3   OH223852   5.867   4.278   1.955  0.2628  0.0215 -0.1420
 7963TIP3    H123853   5.933   4.304   2.020 -0.7881 -1.3796  1.6064
 7963TIP3    H223854   5.846   4.358   1.908  1.3911  1.0200  0.9803
 7964TIP3   OH223855   6.303   4.615   4.465 -0.0642 -0.2398  0.0453
 7964TIP3    H123856   6.254   4.538   4.435 -1.1490  0.3341  0.2938
 7964TIP3    H223857   6.241   4.662   4.521  1.0692  0.0431  1.1111
 7965TIP3   OH223858   3.825   1.292   2.175  0.6108  0.5468 -0.2422
 7965TIP3    H123859   3.828   1.320   2.083 -0.1388  0.0546 -0.4233
 7965TIP3    H223860   3.839   1.198   2.172 -0.5743  0.3548  0.0497
 7966TIP3   OH223861   2.053   6.565   1.012 -0.0432  0.0447 -0.0625
 7966TIP3    H123862   2.097   6.522   1.085  1.0647  1.3763  0.0989
 7966TIP3    H223863   1.985   6.503   0.985 -0.7405 -0.3278  2.3136
 7967TIP3   OH223864   5.777   0.630   0.271  0.0418  0.7286 -0.0352
 7967TIP3    H123865   5.828   0.711   0.273  0.0815  0.7527 -1.2245
 7967TIP3    H223866   5.839   0.563   0.244 -0.3713  0.6344 -0.8005
 7968TIP3   OH223867   5.423   2.958   4.195  0.9181  0.0692 -0.2100
 7968TIP3    H123868   5.351   2.902   4.166  0.7779 -0.5317  1.2344
 7968TIP3    H223869   5.473   2.975   4.115  0.1053 -0.8630 -0.9457
 7969TIP3   OH223870   5.036   0.580   1.082 -0.0489 -0.0373 -0.1061
 7969TIP3    H123871   4.997   0.516   1.141 -0.3589  0.1582 -0.0980
 7969TIP3    H223872   5.090   0.635   1.138 -1.3360  0.9391  0.2045
 7970TIP3   OH223873   2.419   2.163   2.953 -0.3235 -0.1832 -0.2615
 7970TIP3    H123874   2.486   2.107   2.992  0.4120  1.1913  0.5254
 7970TIP3    H223875   2.466   2.240   2.923 -1.5936  1.0158  0.6913
 7971TIP3   OH223876   7.057   1.073   5.417 -0.2132 -0.3785 -0.1009
 7971TIP3    H123877   7.002   1.002   5.385  0.3049 -1.0776  0.5371
 7971TIP3    H223878   7.031   1.085   5.508 -0.1679  0.1233 -0.1491
 7972TIP3   OH223879   3.182   2.654   0.646 -0.1084 -0.2016 -0.1428
 7972TIP3    H123880   3.177   2.575   0.698 -0.0827  0.2855  0.6112
 7972TIP3    H223881   3.131   2.635   0.567 -0.9195 -0.6246  0.4739
 7973TIP3   OH223882   3.531   0.753   3.654 -0.3436  0.1374  0.2350
 7973TIP3    H123883   3.619   0.730   3.684  0.0890 -3.1071 -2.8416
 7973TIP3    H223884   3.546   0.817   3.584 -0.6679  1.1353  1.0485
 7974TIP3   OH223885   5.736   2.226   2.085  0.4243 -0.0436  0.2395
 7974TIP3    H123886   5.649   2.251   2.115 -0.3982 -2.2818 -0.0432
 7974TIP3    H223887   5.780   2.309   2.067 -2.0225  1.1597 -0.6859
 7975TIP3   OH223888   3.499   1.536   2.481 -0.0097  0.3207  0.6360
 7975TIP3    H123889   3.592   1.551   2.467  0.4602 -0.2627  2.7645
 7975TIP3    H223890   3.492   1.441   2.493 -1.1552  0.1373 -1.0883
 7976TIP3   OH223891   2.607   0.076   3.908  0.1536  0.4736 -0.1061
 7976TIP3    H123892   2.647   0.015   3.846  0.2884  2.0337 -1.6146
 7976TIP3    H223893   2.523   0.099   3.869 -0.8128 -0.2578  1.4412
 7977TIP3   OH223894   3.386   0.506   1.072  0.2332  0.1254 -0.3853
 7977TIP3    H123895   3.443   0.431   1.088 -0.0416 -0.0066 -0.0086
 7977TIP3    H223896   3.304   0.467   1.040 -0.3412  0.1776  0.9883
 7978TIP3   OH223897   6.452   2.353   2.086 -0.3744  0.3086 -0.5268
 7978TIP3    H123898   6.411   2.433   2.055 -2.1274 -0.1457  0.5048
 7978TIP3    H223899   6.441   2.355   2.181  2.7966  0.5501 -0.0321
 7979TIP3   OH223900   0.112   1.896   1.074  0.0613  0.5120 -0.3055
 7979TIP3    H123901   0.044   1.922   1.135 -0.4647 -0.1306 -0.6077
 7979TIP3    H223902   0.065   1.857   1.001  0.7818 -0.7849 -0.1083
 7980TIP3   OH223903   2.448   5.337   3.182 -0.5999  0.5068  0.0697
 7980TIP3    H123904   2.399   5.280   3.122 -3.7063 -0.7309  3.4242
 7980TIP3    H223905   2.521   5.282   3.212 -0.7034  0.1126 -0.3783
 7981TIP3   OH223906   6.764   4.298   0.066 -0.1919 -0.0993  0.7167
 7981TIP3    H123907   6.673   4.304   0.097  0.1058 -1.6214  1.9588
 7981TIP3    H223908   6.768   4.215   0.020  0.7475 -0.3951  1.3081
 7982TIP3   OH223909   1.071   5.832   2.261  0.0356  0.2181 -0.0119
 7982TIP3    H123910   1.017   5.866   2.190  1.3771  0.2356 -1.0503
 7982TIP3    H223911   1.072   5.902   2.326 -0.2687  0.6637 -0.4782
 7983TIP3   OH223912   2.559   0.797   3.183  0.0310  0.5437  0.1544
 7983TIP3    H123913   2.533   0.746   3.106 -1.3123  0.4063  0.6794
 7983TIP3    H223914   2.559   0.888   3.153 -0.6770  0.5071  0.0386
 7984TIP3   OH223915   0.300   5.564   4.989 -0.2461  1.0323 -0.0434
 7984TIP3    H123916   0.230   5.554   4.924 -1.4115  0.4548  1.2455
 7984TIP3    H223917   0.357   5.489   4.974 -1.9695 -0.6509  1.2489
 7985TIP3   OH223918   0.348   3.787   4.585 -0.1066  0.0224  0.0471
 7985TIP3    H123919   0.299   3.802   4.504  0.5414 -0.3355 -0.4220
 7985TIP3    H223920   0.322   3.699   4.612  0.4786 -0.2805 -0.3557
 7986TIP3   OH223921   4.984   6.612   3.110 -0.0306 -0.7154  0.1096
 7986TIP3    H123922   5.056   6.557   3.079 -0.8511 -2.4479  1.1256
 7986TIP3    H223923   4.975   6.590   3.202 -1.8071 -0.5099  0.0267
 7987TIP3   OH223924   6.997   5.122   2.258 -0.6081 -0.4804  0.4995
 7987TIP3    H123925   7.071   5.135   2.317 -0.3070 -0.5168  0.1351
 7987TIP3    H223926   7.019   5.043   2.208 -0.2765  0.2263 -0.5187
 7988TIP3   OH223927   2.280   5.532   4.392  0.0836 -0.3092 -0.8643
 7988TIP3    H123928   2.258   5.493   4.477 -0.9570 -0.6473 -1.2711
 7988TIP3    H223929   2.376   5.527   4.388  0.0857 -1.2566 -0.1685
 7989TIP3   OH223930   6.441   6.732   4.481 -0.2652  0.6155  0.2527
 7989TIP3    H123931   6.446   6.767   4.392  0.5423  1.0778  0.4708
 7989TIP3    H223932   6.469   6.804   4.537  0.2953 -0.0099  0.7991
 7990TIP3   OH223933   2.283   3.385   2.991  0.2779  0.3958  0.5790
 7990TIP3    H123934   2.335   3.378   2.911 -1.0422  0.7048 -0.3498
 7990TIP3    H223935   2.289   3.298   3.032  1.1085  0.2916  0.2444
 7991TIP3   OH223936   5.653   6.770   1.500 -0.3069 -0.2318  0.0861
 7991TIP3    H123937   5.694   6.704   1.444 -0.6138 -0.6019  0.2942
 7991TIP3    H223938   5.571   6.731   1.528 -0.2154 -0.0070  0.6976
 7992TIP3   OH223939   4.253   2.566   5.817  0.3641 -0.0868 -0.2718
 7992TIP3    H123940   4.345   2.543   5.800  0.6070  1.4406 -1.2077
 7992TIP3    H223941   4.258   2.633   5.886 -0.1816 -1.2110  0.8908
 7993TIP3   OH223942   4.262   4.147   0.957  0.0965 -0.3239  0.0324
 7993TIP3    H123943   4.187   4.192   0.996  1.0885  0.2748  1.3256
 7993TIP3    H223944   4.302   4.214   0.901  1.8874  0.7195  2.3719
 7994TIP3   OH223945   3.208   4.277   1.991  0.1232 -0.4940 -0.6279
 7994TIP3    H123946   3.217   4.183   1.972  2.0490 -0.3327 -0.6974
 7994TIP3    H223947   3.115   4.288   2.011 -0.2790 -2.2888 -1.2702
 7995TIP3   OH223948   3.131   3.529   0.810  0.3254  0.4648 -0.3330
 7995TIP3    H123949   3.101   3.446   0.773 -0.6823  1.3763 -1.6121
 7995TIP3    H223950   3.070   3.594   0.778  1.3795  1.7987  0.2598
 7996TIP3   OH223951   6.825   4.348   1.075  0.2325 -0.6625  0.2496
 7996TIP3    H123952   6.809   4.410   1.146  0.7249 -0.5506  0.2668
 7996TIP3    H223953   6.918   4.360   1.054 -0.3146  0.6743 -1.6805
 7997TIP3   OH223954   5.250   2.871   0.604  0.4956 -0.2198  0.6414
 7997TIP3    H123955   5.159   2.858   0.634  0.0183  1.8580  0.2514
 7997TIP3    H223956   5.261   2.966   0.601  1.5197 -0.3095 -2.7879
 7998TIP3   OH223957   2.721   3.596   1.528 -0.0481 -0.3723 -0.1041
 7998TIP3    H123958   2.747   3.545   1.605 -0.2554 -0.7668 -0.2941
 7998TIP3    H223959   2.802   3.638   1.499 -0.2105  0.8087  1.0856
 7999TIP3   OH223960   5.623   4.823   3.300  0.0604  0.3581  0.5763
 7999TIP3    H123961   5.536   4.804   3.266 -0.1413  0.7511  0.8560
 7999TIP3    H223962   5.683   4.794   3.232 -0.3034  0.4105  0.2300
 8000TIP3   OH223963   3.389   3.020   3.627  0.2549 -0.1390  0.4294
 8000TIP3    H123964   3.342   2.994   3.548 -1.0883  2.0469  0.4204
 8000TIP3    H223965   3.480   3.029   3.600 -0.3014  1.3407 -1.1106
 8001TIP3   OH223966   0.228   0.330   0.120 -0.0701 -0.2522  0.1426
 8001TIP3    H123967   0.180   0.256   0.155  0.0738  0.1215  1.1652
 8001TIP3    H223968   0.314   0.326   0.162  0.8143 -0.8877 -1.6273
 8002TIP3   OH223969   3.340   5.843   3.642 -0.1849  0.3429  0.2176
 8002TIP3    H123970   3.425   5.805   3.618  1.0130  1.9304  1.6776
 8002TIP3    H223971   3.357   5.937   3.649 -2.2160  0.7644  0.0137
 8003TIP3   OH223972   4.639   1.815   4.169 -0.3839  0.0815  0.0171
 8003TIP3    H123973   4.646   1.898   4.217  2.2111 -0.0950  0.0826
 8003TIP3    H223974   4.666   1.837   4.080 -0.6321 -0.5155 -0.2118
 8004TIP3   OH223975   5.252   3.697   1.523 -0.3169  0.4781 -0.0214
 8004TIP3    H123976   5.304   3.682   1.444  0.4465  2.3929  0.0653
 8004TIP3    H223977   5.317   3.718   1.590 -1.0323 -0.0851  0.8793
 8005TIP3   OH223978   5.079   2.617   5.621 -0.3057 -0.1714  0.3123
 8005TIP3    H123979   5.069   2.566   5.701 -0.0631  1.1107  1.1759
 8005TIP3    H223980   5.159   2.667   5.634 -0.1937 -0.0444 -0.7907
 8006TIP3   OH223981   2.130   0.924   4.457 -0.2399  0.5978 -0.6391
 8006TIP3    H123982   2.185   0.854   4.492 -0.1808  1.5991  1.4361
 8006TIP3    H223983   2.163   1.004   4.499 -1.1465  1.7135 -1.9326
 8007TIP3   OH223984   2.808   6.006   0.873  0.3978 -0.0380 -0.1216
 8007TIP3    H123985   2.804   6.086   0.925 -0.9406 -0.1324 -0.0622
 8007TIP3    H223986   2.875   5.953   0.917 -1.0897 -0.3653  1.9119
 8008TIP3   OH223987   6.381   1.677   2.271 -0.2196 -0.2226 -0.3805
 8008TIP3    H123988   6.460   1.647   2.316 -0.5928  0.8710  1.0808
 8008TIP3    H223989   6.387   1.773   2.273 -0.5657 -0.1416 -2.1446
 8009TIP3   OH223990   3.151   6.436   2.747 -0.7052 -0.3443  0.0502
 8009TIP3    H123991   3.150   6.442   2.651  0.3349  0.9925  0.0979
 8009TIP3    H223992   3.117   6.521   2.776 -0.4826 -0.5301  0.8692
 8010TIP3   OH223993   7.213   1.411   2.472  0.1122 -0.2025 -0.0415
 8010TIP3    H123994   7.153   1.338   2.488  1.7358 -2.7492 -4.0197
 8010TIP3    H223995   7.208   1.426   2.377  1.7713  3.2247  0.2469
 8011TIP3   OH223996   6.377   3.969   2.252  0.6798 -0.6534  0.1400
 8011TIP3    H123997   6.422   3.887   2.271 -0.2365 -0.7807  2.0801
 8011TIP3    H223998   6.285   3.952   2.274  0.5001  0.9224  0.7981
 8012TIP3   OH223999   0.737   5.178   4.410  0.8286  0.1053  0.3288
 8012TIP3    H124000   0.691   5.218   4.336  1.2018 -0.9460 -0.4916
 8012TIP3    H224001   0.682   5.199   4.486 -0.3435 -0.0504 -0.4455
 8013TIP3   OH224002   0.254   5.867  -0.020 -0.0795 -0.0364 -0.1886
 8013TIP3    H124003   0.203   5.852   0.060 -0.5712  2.5957  0.0866
 8013TIP3    H224004   0.315   5.793  -0.024 -3.0243 -2.7171  0.1121
 8014TIP3   OH224005   0.520   5.784   5.528 -0.3006  0.1422  0.0957
 8014TIP3    H124006   0.486   5.751   5.444 -0.6722  0.1231  0.2520
 8014TIP3    H224007   0.445   5.781   5.587 -0.0897  0.3499  0.3764
 8015TIP3   OH224008   0.908   0.224   1.186  0.0335  0.1638 -0.0692
 8015TIP3    H124009   0.943   0.240   1.274 -0.6425  0.7409  0.0990
 8015TIP3    H224010   0.912   0.310   1.143 -2.5925  0.6196  0.4650
 8016TIP3   OH224011   1.120   2.205   2.559 -0.1157 -0.0234 -0.0113
 8016TIP3    H124012   1.152   2.162   2.479 -1.0787 -0.5813 -0.1181
 8016TIP3    H224013   1.053   2.266   2.528 -1.6182 -1.3589  0.4711
 8017TIP3   OH224014   0.117   5.064   1.908  0.7776  0.3401  0.2254
 8017TIP3    H124015   0.208   5.054   1.880  0.5312 -0.8277 -0.1788
 8017TIP3    H224016   0.105   5.159   1.917  1.6264  0.5835 -1.0538
 8018TIP3   OH224017   4.316   3.236   0.866 -0.2379  0.3001 -0.7326
 8018TIP3    H124018   4.259   3.313   0.866  1.3927  1.6194 -2.5691
 8018TIP3    H224019   4.290   3.186   0.789 -0.2392 -0.1396 -0.4474
 8019TIP3   OH224020   0.050   6.090   0.428 -0.7222  0.4686 -0.0279
 8019TIP3    H124021  -0.024   6.088   0.367  0.0893 -0.6236 -1.0249
 8019TIP3    H224022   0.092   6.175   0.413 -1.6396  1.0168  0.4095
 8020TIP3   OH224023   0.429   2.190   2.783  0.2303  0.6068 -0.8018
 8020TIP3    H124024   0.377   2.206   2.704  0.4147  0.6935 -0.9055
 8020TIP3    H224025   0.424   2.271   2.832 -1.0290  0.1123 -0.0558
 8021TIP3   OH224026   0.938   4.308   1.769  0.6188  0.1002 -0.2646
 8021TIP3    H124027   0.941   4.220   1.731  0.1709  0.7436 -1.8732
 8021TIP3    H224028   0.875   4.301   1.840 -0.8718 -0.4541 -1.5961
 8022TIP3   OH224029   0.675   6.001   5.573 -0.0317  0.1010 -0.6113
 8022TIP3    H124030   0.634   5.918   5.551 -2.6200  1.1838 -0.3175
 8022TIP3    H224031   0.672   6.052   5.491 -0.8438  0.7657 -0.1881
 8023TIP3   OH224032   0.705   1.629   0.162  0.0755 -0.5224 -0.4449
 8023TIP3    H124033   0.744   1.588   0.085  2.8957 -0.2043  0.6898
 8023TIP3    H224034   0.755   1.709   0.175 -1.0245 -0.0226  1.1261
 8024TIP3   OH224035   2.347   0.106   2.833  0.0254  0.3669  0.3051
 8024TIP3    H124036   2.404   0.175   2.868  2.5655 -0.2958 -2.1801
 8024TIP3    H224037   2.407   0.044   2.791 -2.4297 -1.4156 -0.8117
 8025TIP3   OH224038   4.301   0.127   2.561  0.6458  0.0808  0.0902
 8025TIP3    H124039   4.236   0.076   2.513  0.9049 -1.3237  1.1530
 8025TIP3    H224040   4.252   0.201   2.598 -1.3089 -2.6639  3.6932
 8026TIP3   OH224041   2.212   6.470   4.061 -0.1641 -0.7931 -0.2177
 8026TIP3    H124042   2.210   6.440   3.970 -0.0292 -0.3956 -0.3562
 8026TIP3    H224043   2.121   6.478   4.087 -0.2017 -1.0181 -0.2795
 8027TIP3   OH224044   4.786   2.085   3.387 -0.5143  0.3276  0.4744
 8027TIP3    H124045   4.812   2.168   3.348 -1.0107  0.4267  0.3514
 8027TIP3    H224046   4.834   2.019   3.337  0.6096  0.5862  1.1782
 8028TIP3   OH224047   6.660   6.462   4.634  0.2710 -0.1878 -0.3842
 8028TIP3    H124048   6.711   6.543   4.625 -1.8216  1.3177  0.3595
 8028TIP3    H224049   6.644   6.454   4.728 -2.1888  0.3741 -0.6679
 8029TIP3   OH224050   2.326   4.599   5.235  0.1599  0.2523  0.7969
 8029TIP3    H124051   2.404   4.543   5.223 -0.7047 -0.8199 -0.1136
 8029TIP3    H224052   2.360   4.680   5.271  2.0482  0.6874 -1.6631
 8030TIP3   OH224053   0.867   5.787   5.387  0.4607 -0.8045 -0.1482
 8030TIP3    H124054   0.874   5.883   5.387 -2.9982 -0.3898  0.6008
 8030TIP3    H224055   0.848   5.765   5.479 -1.2508 -1.8552 -0.6964
 8031TIP3   OH224056   6.966   0.212   4.052  0.3823 -0.0617 -0.6434
 8031TIP3    H124057   7.056   0.187   4.074  0.2518 -0.2699 -0.3474
 8031TIP3    H224058   6.912   0.171   4.119  0.2066  1.4016  0.1516
 8032TIP3   OH224059   7.173   3.311   0.783 -0.0801 -0.0287  0.1807
 8032TIP3    H124060   7.207   3.291   0.695 -0.1067 -0.2540  0.2204
 8032TIP3    H224061   7.079   3.323   0.770  0.0088  0.5679  0.0755
 8033TIP3   OH224062   5.839   1.309   3.610 -0.2997 -0.6651  0.0843
 8033TIP3    H124063   5.837   1.285   3.702 -2.7076 -0.5255  0.1273
 8033TIP3    H224064   5.872   1.231   3.566  2.4244 -0.2067  1.1294
 8034TIP3   OH224065   3.448   2.141   1.539 -0.3882  0.2035  0.0042
 8034TIP3    H124066   3.530   2.099   1.564 -0.1240  0.9231  0.3895
 8034TIP3    H224067   3.383   2.106   1.599 -0.3794 -0.4341 -0.3575
 8035TIP3   OH224068   4.489   2.511   2.122  0.4059 -0.2049 -0.0304
 8035TIP3    H124069   4.480   2.587   2.064  1.3951  1.1338  1.4726
 8035TIP3    H224070   4.517   2.440   2.064 -0.3754  0.5949 -1.4553
 8036TIP3   OH224071   0.123   2.423   2.198  0.1450  0.3519  0.3922
 8036TIP3    H124072   0.091   2.395   2.112 -2.0375  1.2059  0.8713
 8036TIP3    H224073   0.180   2.497   2.179 -0.4749  0.6604 -0.3333
 8037TIP3   OH224074   2.954   0.098   1.655  0.2107 -0.1392  0.0380
 8037TIP3    H124075   3.029   0.091   1.596  0.2230 -1.8886  0.2171
 8037TIP3    H224076   2.880   0.063   1.605 -0.2084  0.2473  0.3708
 8038TIP3   OH224077   0.757   4.612   3.983  0.6135 -0.0470 -0.4667
 8038TIP3    H124078   0.662   4.622   3.989  0.4784 -1.4639  0.1087
 8038TIP3    H224079   0.770   4.540   3.922  1.2831 -0.5105  0.2105
 8039TIP3   OH224080   2.459   0.389   0.558  0.3151 -0.3748  0.0835
 8039TIP3    H124081   2.498   0.431   0.635 -0.2551 -2.2796  1.4608
 8039TIP3    H224082   2.381   0.346   0.591 -1.0515  0.3962 -1.9775
 8040TIP3   OH224083   0.794   5.830   3.557  0.0724 -0.4937 -0.0416
 8040TIP3    H124084   0.773   5.790   3.641 -0.5165 -0.2126 -0.0501
 8040TIP3    H224085   0.805   5.923   3.577 -0.8151 -0.3036 -0.3946
 8041TIP3   OH224086   0.348   1.341   2.403  0.8366  0.2458  0.3288
 8041TIP3    H124087   0.262   1.322   2.367  0.7635 -0.0702  0.6667
 8041TIP3    H224088   0.366   1.269   2.463  0.2697  1.5517  2.1617
 8042TIP3   OH224089   3.740   1.891   0.366 -0.4779  0.1506 -0.2092
 8042TIP3    H124090   3.745   1.845   0.282 -2.3451 -0.8411  0.1756
 8042TIP3    H224091   3.786   1.974   0.350 -0.9377  0.0769 -2.2586
 8043TIP3   OH224092   4.953   2.471   2.411 -0.2289  0.1504 -0.6889
 8043TIP3    H124093   4.978   2.560   2.388  0.6226 -0.0520 -0.5515
 8043TIP3    H224094   4.857   2.472   2.406 -0.2088  0.9423 -1.1506
 8044TIP3   OH224095   1.477   0.607   2.189 -0.1200  0.2230 -0.0530
 8044TIP3    H124096   1.384   0.608   2.169 -0.2662  0.6097  0.6104
 8044TIP3    H224097   1.502   0.515   2.187 -0.3982  0.1548 -0.7308
 8045TIP3   OH224098   3.863   4.280   3.975 -0.3976 -0.5100  0.2659
 8045TIP3    H124099   3.957   4.262   3.979  0.5369  2.9522 -1.8678
 8045TIP3    H224100   3.845   4.333   4.053 -0.0497  0.4800 -0.2972
 8046TIP3   OH224101   0.568   2.359   2.184  0.2248  0.0454  0.1863
 8046TIP3    H124102   0.609   2.420   2.123 -2.4447  0.8640 -0.9157
 8046TIP3    H224103   0.531   2.414   2.253 -2.3718 -0.1479 -0.9109
 8047TIP3   OH224104   3.087   3.916   2.455 -0.2885  0.0430 -0.0053
 8047TIP3    H124105   3.059   3.995   2.408 -1.0924 -0.3727 -0.2457
 8047TIP3    H224106   3.006   3.879   2.490  0.4290  1.3061  3.3298
 8048TIP3   OH224107   5.893   3.349   4.790  0.0120  0.1222 -0.1412
 8048TIP3    H124108   5.832   3.275   4.788  0.5309 -0.4576  2.1355
 8048TIP3    H224109   5.860   3.406   4.859 -0.2072  1.9516 -1.6597
 8049TIP3   OH224110   3.235   6.433   3.820  0.0542  0.2483  0.0855
 8049TIP3    H124111   3.226   6.502   3.754 -0.9111  0.0045 -0.0570
 8049TIP3    H224112   3.260   6.355   3.770  0.9066  0.4246  0.2176
 8050TIP3   OH224113   6.454   2.364   2.610 -0.2971  0.2222 -0.2737
 8050TIP3    H124114   6.433   2.347   2.518 -0.5980  2.2627 -0.6465
 8050TIP3    H224115   6.373   2.344   2.657 -0.1975 -0.6600 -0.4557
 8051TIP3   OH224116   6.975   5.889   2.013  0.7527  0.0629 -0.0142
 8051TIP3    H124117   6.888   5.867   1.982  0.8895 -0.5326  0.0221
 8051TIP3    H224118   7.021   5.922   1.936 -0.0746  2.1961  0.3265
 8052TIP3   OH224119   2.891   4.062   4.780  0.2335 -0.1398  0.0171
 8052TIP3    H124120   2.947   4.019   4.845 -0.4917  0.7300  1.2532
 8052TIP3    H224121   2.952   4.106   4.721  0.9077 -1.1464 -0.0707
 8053TIP3   OH224122   6.046   1.651   1.179 -0.6693 -0.4480 -0.5127
 8053TIP3    H124123   6.043   1.588   1.107  0.4998 -0.9996 -0.1135
 8053TIP3    H224124   6.112   1.715   1.152  0.6316 -1.2978  0.5314
 8054TIP3   OH224125   3.104   1.275   4.019 -0.1193 -0.2946 -0.3915
 8054TIP3    H124126   3.016   1.308   4.004 -0.4366 -0.2189  1.4271
 8054TIP3    H224127   3.093   1.201   4.079  1.1080  0.3233  0.6554
 8055TIP3   OH224128   6.533   5.689   4.811 -0.0779 -0.2161  0.0638
 8055TIP3    H124129   6.443   5.665   4.790 -1.1852  2.7422  0.9079
 8055TIP3    H224130   6.569   5.611   4.853 -2.3304 -1.3936 -0.0026
 8056TIP3   OH224131   2.544   3.926   5.846  0.4060 -0.1895 -0.4032
 8056TIP3    H124132   2.596   3.934   5.766  0.8226  1.8508  0.0200
 8056TIP3    H224133   2.591   3.861   5.898  1.5248  0.2919 -0.7813
 8057TIP3   OH224134   0.355   3.129   4.180  0.3492 -0.1976  0.7749
 8057TIP3    H124135   0.325   3.106   4.268 -0.8277  1.5930  0.8927
 8057TIP3    H224136   0.371   3.223   4.184  1.4884 -0.2968 -0.6065
 8058TIP3   OH224137   0.392   2.182   0.221 -0.0723  0.1016  0.6968
 8058TIP3    H124138   0.475   2.142   0.194 -0.4361 -0.3919  0.2904
 8058TIP3    H224139   0.408   2.276   0.213  0.5058  0.0152  0.7937
 8059TIP3   OH224140   6.403   5.709   0.902  0.1233 -0.4774  1.0331
 8059TIP3    H124141   6.371   5.653   0.972  1.1289 -0.7061  1.3256
 8059TIP3    H224142   6.397   5.798   0.938 -0.3478 -0.4946  1.0087
 8060TIP3   OH224143   3.846   0.672   5.857  0.5622 -0.4368 -0.0649
 8060TIP3    H124144   3.924   0.665   5.801 -0.1716  0.9339 -1.3343
 8060TIP3    H224145   3.866   0.746   5.915 -0.4820  1.1913 -1.6728
 8061TIP3   OH224146   3.765   4.066   3.841  0.0601  0.4248 -0.0904
 8061TIP3    H124147   3.701   4.045   3.910  0.9639 -2.0278  0.1089
 8061TIP3    H224148   3.820   4.134   3.880 -0.9910  0.8972  0.6246
 8062TIP3   OH224149   0.303   4.484   1.148  0.1075 -0.7454  0.1902
 8062TIP3    H124150   0.253   4.565   1.163 -0.7087 -1.6916  3.1378
 8062TIP3    H224151   0.380   4.493   1.204  1.2373 -1.0621 -1.2532
 8063TIP3   OH224152   0.320   6.415   5.035  0.1395 -0.0050 -0.0830
 8063TIP3    H124153   0.252   6.479   5.015 -1.1223 -1.4472 -0.6508
 8063TIP3    H224154   0.313   6.403   5.130 -0.7550 -0.4877 -0.1966
 8064TIP3   OH224155   1.897   2.134   1.426 -0.5059  0.2915 -0.7599
 8064TIP3    H124156   1.852   2.052   1.444  2.6817 -1.4600  0.0554
 8064TIP3    H224157   1.953   2.115   1.351  1.2128  1.2765  0.2056
 8065TIP3   OH224158   4.585   5.407   1.796  0.3181  0.0661 -0.3155
 8065TIP3    H124159   4.552   5.393   1.707 -1.6415  0.5836  0.2722
 8065TIP3    H224160   4.634   5.489   1.790  1.7152 -0.8013 -1.2572
 8066TIP3   OH224161   4.218   3.248   1.552  0.7418 -0.1500 -0.0605
 8066TIP3    H124162   4.270   3.322   1.583  0.9701 -0.5565  0.5532
 8066TIP3    H224163   4.225   3.183   1.622 -0.0138 -0.4893 -0.2898
 8067TIP3   OH224164   6.122   4.715   5.746 -0.1934 -0.2039 -0.1460
 8067TIP3    H124165   6.054   4.675   5.801 -1.4830 -0.9880 -2.1886
 8067TIP3    H224166   6.203   4.702   5.795 -1.1842 -1.4985  1.2380
 8068TIP3   OH224167   2.561   5.460   4.402  0.2125 -0.4216  0.2137
 8068TIP3    H124168   2.647   5.436   4.436 -0.5733 -1.6834  1.4574
 8068TIP3    H224169   2.521   5.377   4.376 -1.6512 -0.2710  2.2800
 8069TIP3   OH224170   4.007   0.349   3.492  0.2106  0.5241  0.1111
 8069TIP3    H124171   4.009   0.372   3.399  2.2494  0.0218 -0.0240
 8069TIP3    H224172   3.941   0.407   3.530 -0.9900  0.4385 -1.7071
 8070TIP3   OH224173   1.086   2.483   5.399 -0.3000 -0.2287  0.4404
 8070TIP3    H124174   1.163   2.530   5.367  0.0432  0.1353  1.7133
 8070TIP3    H224175   1.025   2.482   5.325 -0.3986  2.3840  0.3827
 8071TIP3   OH224176   3.385   0.573   5.845 -0.3189  0.3922  0.0649
 8071TIP3    H124177   3.301   0.548   5.806 -0.4544  0.0198  0.5860
 8071TIP3    H224178   3.450   0.554   5.777 -0.5943  0.1089 -0.1175
 8072TIP3   OH224179   3.256   3.885   1.222  0.5368  0.3040  0.1970
 8072TIP3    H124180   3.262   3.977   1.247  1.4332  0.0568  0.9607
 8072TIP3    H224181   3.242   3.838   1.304 -0.6202 -0.1944 -0.2664
 8073TIP3   OH224182   1.427   1.177   0.110 -0.0913 -0.4596 -0.4417
 8073TIP3    H124183   1.371   1.254   0.126  0.3165 -0.4225  0.9255
 8073TIP3    H224184   1.439   1.138   0.196  1.2606 -0.9831 -0.8445
 8074TIP3   OH224185   5.663   2.475   5.562 -0.0697 -0.2544  0.3383
 8074TIP3    H124186   5.600   2.492   5.493 -0.2533  1.7940  0.9266
 8074TIP3    H224187   5.611   2.473   5.643  0.2949 -1.3149  0.5637
 8075TIP3   OH224188   0.096   6.177   4.908 -0.3690  0.1183 -0.0682
 8075TIP3    H124189   0.188   6.160   4.887 -0.1649 -0.1863  0.9843
 8075TIP3    H224190   0.067   6.097   4.953 -0.4508  1.1034  1.7271
 8076TIP3   OH224191   6.511   5.396   0.531  0.1764  0.2269  0.0065
 8076TIP3    H124192   6.560   5.342   0.594 -2.0584  0.5232  2.1629
 8076TIP3    H224193   6.524   5.486   0.561  2.4091  0.8502 -2.5030
 8077TIP3   OH224194   2.989   0.457   5.057 -0.9019 -0.0535 -0.1333
 8077TIP3    H124195   2.970   0.384   5.117 -0.4949 -0.0888 -0.0439
 8077TIP3    H224196   2.928   0.526   5.084  0.2797  0.4690  1.3118
 8078TIP3   OH224197   0.050   6.111   2.472  1.0230 -0.1263  0.2781
 8078TIP3    H124198  -0.015   6.041   2.481  0.3628  0.1040 -2.1128
 8078TIP3    H224199   0.133   6.068   2.491  0.4583 -1.1496  0.5366
 8079TIP3   OH224200   6.952   5.510   4.653 -1.2258 -0.0581  0.3630
 8079TIP3    H124201   6.976   5.517   4.561 -1.5903 -0.4062  0.2386
 8079TIP3    H224202   6.857   5.497   4.652 -1.3712  0.9137  0.8298
 8080TIP3   OH224203   2.830   5.956   3.917  0.3783 -0.0261  0.3793
 8080TIP3    H124204   2.835   5.967   4.012 -0.6957  0.4624  0.3993
 8080TIP3    H224205   2.754   5.898   3.904  0.5516 -0.1345 -0.1757
 8081TIP3   OH224206   5.232   5.459   3.577  0.0836  0.1745  0.7531
 8081TIP3    H124207   5.151   5.413   3.557  0.3320  0.5364 -1.2650
 8081TIP3    H224208   5.216   5.550   3.552  1.2057  0.1754 -0.0741
 8082TIP3   OH224209   2.518   2.069   5.399 -0.1351 -0.2410 -0.2310
 8082TIP3    H124210   2.442   2.055   5.342 -0.1846 -0.0036 -0.2262
 8082TIP3    H224211   2.490   2.137   5.460  0.8210  1.5315 -1.6522
 8083TIP3   OH224212   0.239   1.136   5.519 -0.0389 -0.3659  0.3748
 8083TIP3    H124213   0.186   1.099   5.448 -0.0804 -0.2222  0.3298
 8083TIP3    H224214   0.197   1.106   5.599 -0.1625 -0.2912  0.3393
 8084TIP3   OH224215   2.938   5.489   0.940 -0.6519  0.2838 -0.5008
 8084TIP3    H124216   2.876   5.480   1.012 -1.4180 -0.9538 -1.2697
 8084TIP3    H224217   2.975   5.401   0.929  0.2002  0.6840 -0.9623
 8085TIP3   OH224218   5.239   6.343   4.874 -0.0956  0.0368  0.4366
 8085TIP3    H124219   5.249   6.269   4.934 -1.6212 -0.1047  0.5466
 8085TIP3    H224220   5.148   6.369   4.883 -1.1313 -1.5085 -3.5619
 8086TIP3   OH224221   5.995   2.599   1.045 -0.6892  0.4557 -0.0346
 8086TIP3    H124222   5.969   2.514   1.009  1.0289 -0.4855  0.8276
 8086TIP3    H224223   6.070   2.624   0.993 -0.9628  1.2824 -0.0365
 8087TIP3   OH224224   3.871   4.830   4.793  0.1188 -0.5577 -0.1773
 8087TIP3    H124225   3.883   4.780   4.712  0.4224 -1.8883  0.6438
 8087TIP3    H224226   3.782   4.808   4.821  0.2303 -0.6018  0.1539
 8088TIP3   OH224227   5.806   1.350   3.209 -0.5012 -0.3584 -0.3203
 8088TIP3    H124228   5.776   1.383   3.294 -0.4991  0.3044 -0.5707
 8088TIP3    H224229   5.768   1.410   3.145  1.0770  0.3313 -0.6750
 8089TIP3   OH224230   6.957   1.438   4.634 -0.2526  0.6726  0.1721
 8089TIP3    H124231   6.990   1.523   4.663  3.2100  0.0827 -1.5686
 8089TIP3    H224232   6.971   1.380   4.709 -0.8909  1.2028  0.7174
 8090TIP3   OH224233   3.133   2.235   2.947 -0.4935  0.2748 -0.2448
 8090TIP3    H124234   3.058   2.205   2.999 -0.5714  0.9110  0.0214
 8090TIP3    H224235   3.189   2.158   2.938 -0.7762  0.0058  0.2736
 8091TIP3   OH224236   3.110   5.325   5.840  0.1616  0.0974 -0.1404
 8091TIP3    H124237   3.091   5.310   5.748 -0.1163  1.1192 -0.2534
 8091TIP3    H224238   3.025   5.331   5.882  0.2632  0.9746 -0.0428
 8092TIP3   OH224239   3.869   1.639   5.792 -0.4870 -0.1749  0.0927
 8092TIP3    H124240   3.863   1.735   5.794  1.4288  0.0058 -0.1578
 8092TIP3    H224241   3.956   1.622   5.754 -0.1767 -1.9775  1.4901
 8093TIP3   OH224242   5.172   6.184   0.786  0.3914  0.0340 -0.7420
 8093TIP3    H124243   5.079   6.202   0.798  0.6797  1.7364 -0.7875
 8093TIP3    H224244   5.205   6.167   0.874 -0.0370 -1.0148 -0.7780
 8094TIP3   OH224245   0.418   0.641   2.544  0.0369  0.3051  0.4947
 8094TIP3    H124246   0.451   0.562   2.500  2.1485  1.2784  0.2252
 8094TIP3    H224247   0.364   0.607   2.616  0.2087 -1.3647 -0.1066
 8095TIP3   OH224248   6.445   1.300   5.066 -0.0427 -0.0789 -1.0141
 8095TIP3    H124249   6.350   1.308   5.053 -0.4339  0.1316  1.4537
 8095TIP3    H224250   6.469   1.380   5.113  0.4054 -2.1583  2.6741
 8096TIP3   OH224251   2.291   1.576   1.457  0.2795  0.0114  0.2954
 8096TIP3    H124252   2.236   1.652   1.478 -0.9624 -0.8016  0.0943
 8096TIP3    H224253   2.287   1.570   1.361  1.5245  0.5152  0.2007
 8097TIP3   OH224254   0.329   5.797   3.613 -0.5100  0.1147 -1.1450
 8097TIP3    H124255   0.341   5.720   3.669  2.7172  1.1257 -0.2195
 8097TIP3    H224256   0.283   5.860   3.669  0.1965  0.1530 -0.6018
 8098TIP3   OH224257   5.848   4.115   4.678 -0.1330  0.3319  0.8889
 8098TIP3    H124258   5.834   4.024   4.653  1.1542 -0.0302  1.3920
 8098TIP3    H224259   5.876   4.111   4.770 -1.0344  1.3203  1.2263
 8099TIP3   OH224260   1.333   5.688   1.818 -0.1575  0.9914  0.2228
 8099TIP3    H124261   1.390   5.693   1.741  0.3932  0.4597  0.5906
 8099TIP3    H224262   1.383   5.730   1.888  0.4752 -0.8759  0.9386
 8100TIP3   OH224263   2.510   0.356   3.815 -0.4345  0.1432  0.4351
 8100TIP3    H124264   2.518   0.419   3.887  1.4183 -0.1616  0.5352
 8100TIP3    H224265   2.596   0.314   3.810 -0.7805 -0.4239 -1.4297
 8101TIP3   OH224266   3.600   3.456   5.293 -0.7619 -0.1424  0.3520
 8101TIP3    H124267   3.523   3.410   5.261  0.4373 -1.3790 -0.9069
 8101TIP3    H224268   3.648   3.480   5.214 -0.1647  1.1721  1.0856
 8102TIP3   OH224269   2.923   3.929   1.717 -0.1709 -0.2121  0.3649
 8102TIP3    H124270   2.912   4.022   1.698 -2.5436 -0.0342  2.0794
 8102TIP3    H224271   3.015   3.919   1.738 -0.2526  2.2552  2.3534
 8103TIP3   OH224272   4.738   3.439   3.161  0.1477 -0.1272  0.0117
 8103TIP3    H124273   4.778   3.368   3.110  1.2094  1.2613 -1.1798
 8103TIP3    H224274   4.674   3.478   3.101 -0.1160  0.1872  0.4981
 8104TIP3   OH224275   1.418   2.123   4.840  0.5767  0.2521  0.4474
 8104TIP3    H124276   1.389   2.201   4.887 -1.0477 -0.2344  0.3158
 8104TIP3    H224277   1.464   2.072   4.906 -0.6950  0.0971  1.2564
 8105TIP3   OH224278   6.243   1.649   0.447  0.7122  0.0085  0.5954
 8105TIP3    H124279   6.203   1.599   0.376  1.9404 -1.0318  0.6079
 8105TIP3    H224280   6.262   1.735   0.409  0.8377 -0.3559 -0.1747
 8106TIP3   OH224281   2.208   3.684   0.779  0.5145 -0.0597 -0.4390
 8106TIP3    H124282   2.179   3.612   0.724  0.1440  0.3844 -0.8355
 8106TIP3    H224283   2.200   3.762   0.724 -0.5506  0.4989  0.4593
 8107TIP3   OH224284   0.097   0.884   5.504  0.3319 -0.5073 -0.0225
 8107TIP3    H124285   0.061   0.809   5.551  0.2210 -1.0296 -0.9258
 8107TIP3    H224286   0.108   0.951   5.571  0.9348 -1.5002  0.9047
 8108TIP3   OH224287   3.629   2.971   3.884 -0.6460 -0.0958 -0.1225
 8108TIP3    H124288   3.567   3.040   3.911 -0.2372  0.2847 -0.1567
 8108TIP3    H224289   3.673   2.946   3.965 -0.4577  0.0195 -0.1877
 8109TIP3   OH224290   4.409   5.859   1.950  0.2317  0.0512 -0.0176
 8109TIP3    H124291   4.388   5.771   1.980 -0.8356 -0.2577 -1.5579
 8109TIP3    H224292   4.484   5.846   1.891  0.6076  0.2904  0.4061
 8110TIP3   OH224293   6.020   1.786   2.677 -0.5840 -0.0486 -0.0287
 8110TIP3    H124294   6.011   1.833   2.760 -2.7142 -0.2279 -0.1016
 8110TIP3    H224295   5.955   1.716   2.682 -0.8971  0.0546 -1.8961
 8111TIP3   OH224296   6.877   6.183   2.514 -0.3150  0.2705  0.1267
 8111TIP3    H124297   6.883   6.147   2.425  0.2245  0.9152 -0.1127
 8111TIP3    H224298   6.968   6.182   2.545  0.1442  3.5887 -0.7921
 8112TIP3   OH224299   1.938   6.269   1.382 -0.6242  0.3588  0.0401
 8112TIP3    H124300   1.848   6.256   1.355 -1.2946 -1.3672  2.7327
 8112TIP3    H224301   1.938   6.354   1.426 -1.2716 -0.1983  1.1471
 8113TIP3   OH224302   2.099   1.305   3.899 -0.1813  0.9032  0.2041
 8113TIP3    H124303   2.026   1.367   3.893 -1.3832 -0.2181  2.0205
 8113TIP3    H224304   2.092   1.251   3.820 -0.1754  1.9696 -0.5398
 8114TIP3   OH224305   2.142   0.540   3.220  0.4634 -0.2191 -0.2716
 8114TIP3    H124306   2.095   0.578   3.146 -1.7905  0.3804  1.3734
 8114TIP3    H224307   2.211   0.602   3.240  0.6611 -0.0520 -1.4096
 8115TIP3   OH224308   3.688   1.633   2.265  0.0769  0.0713  0.4154
 8115TIP3    H124309   3.734   1.695   2.207 -0.9812  1.2590  0.8059
 8115TIP3    H224310   3.758   1.579   2.302  1.0640  1.1775  0.2283
 8116TIP3   OH224311   5.292   1.584   1.194 -0.0262 -0.3598  0.5479
 8116TIP3    H124312   5.221   1.632   1.150 -0.3678 -1.3760 -0.0451
 8116TIP3    H224313   5.356   1.569   1.125  0.1463 -0.6298  0.7677
 8117TIP3   OH224314   5.361   5.506   5.428  0.0600 -0.2614  0.3609
 8117TIP3    H124315   5.296   5.476   5.493 -0.2616 -0.5182 -0.0731
 8117TIP3    H224316   5.444   5.505   5.475 -0.0627 -1.1131  0.5819
 8118TIP3   OH224317   1.364   0.979   5.733  0.6167  0.1627  1.0058
 8118TIP3    H124318   1.326   0.961   5.647  1.7080  1.6729  0.1405
 8118TIP3    H224319   1.316   0.923   5.794 -1.1564  0.0983 -0.3822
 8119TIP3   OH224320   4.158   1.142   3.489 -0.3642 -0.5759  0.7052
 8119TIP3    H124321   4.107   1.222   3.482 -1.9078 -1.6138 -0.4819
 8119TIP3    H224322   4.133   1.105   3.574 -0.8066 -0.5735  0.5757
 8120TIP3   OH224323   5.673   5.955   0.283 -0.7045  0.0197  0.4427
 8120TIP3    H124324   5.660   6.038   0.330 -0.5095 -0.3026  1.0777
 8120TIP3    H224325   5.696   5.982   0.194 -2.0711  0.6316  0.2588
 8121TIP3   OH224326   4.897   3.630   2.920  0.5019  0.3031  0.0574
 8121TIP3    H124327   4.933   3.698   2.862  0.6131 -0.4044 -0.7257
 8121TIP3    H224328   4.903   3.549   2.869 -1.6920  0.0460  0.1165
 8122TIP3   OH224329   2.435   6.256   2.210  0.3256  0.2688 -0.2351
 8122TIP3    H124330   2.439   6.248   2.115  0.5327  0.9028 -0.2876
 8122TIP3    H224331   2.511   6.311   2.232  1.7963 -1.9643  0.5571
 8123TIP3   OH224332   6.662   6.620   5.407  0.1252  0.3993  0.6464
 8123TIP3    H124333   6.725   6.654   5.470  0.4810  0.5596  0.2124
 8123TIP3    H224334   6.708   6.550   5.362  0.6933  1.7611 -1.0030
 8124TIP3   OH224335   4.201   6.691   0.985 -0.5008  0.3313 -0.4621
 8124TIP3    H124336   4.263   6.735   1.043  0.1558 -1.9151  0.6544
 8124TIP3    H224337   4.254   6.663   0.910 -0.3853 -0.5912 -0.0470
 8125TIP3   OH224338   3.727   2.333   1.402  0.1188 -0.1754  0.1028
 8125TIP3    H124339   3.763   2.260   1.452  0.6038  0.3733  0.5648
 8125TIP3    H224340   3.800   2.393   1.390 -0.5869  0.8758  0.9018
 8126TIP3   OH224341   5.303   2.030   1.205  0.2759  0.2850  0.2030
 8126TIP3    H124342   5.295   1.990   1.292  1.3496  1.7798  1.0474
 8126TIP3    H224343   5.393   2.010   1.178  0.4815  1.1989  0.1804
 8127TIP3   OH224344   6.881   0.365   3.417 -0.3022 -0.3068  0.3800
 8127TIP3    H124345   6.948   0.304   3.388  1.2160  1.4549 -0.0115
 8127TIP3    H224346   6.806   0.347   3.361  0.6389 -0.7781 -0.7633
 8128TIP3   OH224347   4.262   1.846   0.115  0.0207  0.2265  0.1020
 8128TIP3    H124348   4.337   1.899   0.087  0.2503 -0.6087 -0.9212
 8128TIP3    H224349   4.186   1.894   0.082  0.3094 -1.1611 -2.8684
 8129TIP3   OH224350   3.128   4.523   0.177  0.2447 -0.1206 -0.1263
 8129TIP3    H124351   3.128   4.600   0.232  0.3976  1.0827 -1.7341
 8129TIP3    H224352   3.195   4.540   0.111  1.7042 -2.4980  0.5828
 8130TIP3   OH224353   2.724   6.181   2.017 -0.2311 -0.2309 -0.4088
 8130TIP3    H124354   2.721   6.212   2.107  0.3621 -0.3096 -0.3627
 8130TIP3    H224355   2.740   6.086   2.025 -0.2589 -0.2510 -0.5919
 8131TIP3   OH224356   5.412   0.922   2.496 -0.8027  0.5123  0.4994
 8131TIP3    H124357   5.438   0.984   2.428  0.2658  0.1163  0.5273
 8131TIP3    H224358   5.425   0.970   2.578  0.8906 -0.0147  0.5702
 8132TIP3   OH224359   1.453   4.486   2.343  0.4262  0.2495 -0.3757
 8132TIP3    H124360   1.377   4.534   2.374 -1.2602 -2.9107  0.8249
 8132TIP3    H224361   1.528   4.541   2.366 -1.2590  1.6445  2.1720
 8133TIP3   OH224362   1.650   4.064   1.805  0.7861 -0.9479  0.3124
 8133TIP3    H124363   1.558   4.044   1.787  0.5430  0.2228  0.1988
 8133TIP3    H224364   1.651   4.157   1.828  2.1210 -0.5679 -1.0827
 8134TIP3   OH224365   4.978   2.252   4.188 -0.2306  0.2403 -0.3891
 8134TIP3    H124366   4.968   2.184   4.121  0.5755  0.2554 -0.5375
 8134TIP3    H224367   4.920   2.322   4.160 -0.6752 -0.1722 -0.5162
 8135TIP3   OH224368   7.118   0.773   3.741  0.0087  0.7252 -0.4195
 8135TIP3    H124369   7.173   0.850   3.728  0.2053  0.8355  0.8700
 8135TIP3    H224370   7.157   0.728   3.817  1.2727 -1.9233 -2.4783
 8136TIP3   OH224371   3.073   2.531   2.492  0.0079 -0.3220 -0.6234
 8136TIP3    H124372   3.115   2.445   2.484 -0.8329 -0.5969 -2.3663
 8136TIP3    H224373   3.129   2.590   2.443  0.7506  0.2349  0.8265
 8137TIP3   OH224374   5.179   4.146   2.442  0.2482  0.1908 -0.0596
 8137TIP3    H124375   5.266   4.171   2.475  0.9135  0.7169 -2.0379
 8137TIP3    H224376   5.187   4.153   2.347 -1.8330 -0.2533 -0.3159
 8138TIP3   OH224377   2.703   3.539   2.058 -0.5630 -0.3049  0.4155
 8138TIP3    H124378   2.652   3.458   2.069 -1.7245  0.5598  1.7982
 8138TIP3    H224379   2.773   3.532   2.123 -0.4736 -0.3500  0.3135
 8139TIP3   OH224380   0.203   2.254   4.438 -0.3133 -0.3495 -0.2599
 8139TIP3    H124381   0.114   2.229   4.460 -0.3099 -1.2682 -1.2258
 8139TIP3    H224382   0.218   2.335   4.487 -1.6890 -0.1410 -0.1544
 8140TIP3   OH224383   4.272   6.515   3.963  0.0764  0.3233  0.0494
 8140TIP3    H124384   4.180   6.493   3.976  0.1790  0.1790  0.5636
 8140TIP3    H224385   4.316   6.431   3.951  0.4583  0.2070  1.9474
 8141TIP3   OH224386   2.087   6.614   5.558  0.4985  0.6093  0.0290
 8141TIP3    H124387   2.105   6.590   5.649  0.4542  0.8153  0.0943
 8141TIP3    H224388   2.165   6.662   5.530  0.1002  1.4258  0.2844
 8142TIP3   OH224389   3.614   0.706   2.953  0.1025  0.0153  0.2463
 8142TIP3    H124390   3.619   0.611   2.943  0.5489 -0.0065  0.6611
 8142TIP3    H224391   3.659   0.741   2.877  0.8920 -0.1186  0.6453
 8143TIP3   OH224392   2.395   1.931   5.773  0.5531  0.4145 -0.7504
 8143TIP3    H124393   2.337   1.915   5.699  0.4507  0.8166 -0.7592
 8143TIP3    H224394   2.431   1.844   5.795 -0.6333  0.0294 -0.2590
 8144TIP3   OH224395   3.101   6.299   2.990  0.0409 -0.3446 -0.0419
 8144TIP3    H124396   3.066   6.382   3.022  1.6665  0.1407  0.5827
 8144TIP3    H224397   3.117   6.314   2.897 -0.6741 -0.3275 -0.1680
 8145TIP3   OH224398   6.045   0.586   3.897 -0.6267  0.1951 -0.0867
 8145TIP3    H124399   6.092   0.522   3.951 -1.6083 -1.1880 -0.7920
 8145TIP3    H224400   5.956   0.586   3.933 -0.9406  0.2617 -0.8449
 8146TIP3   OH224401   5.593   0.535   4.968  0.0563 -0.0363 -0.4174
 8146TIP3    H124402   5.558   0.527   4.880 -0.2210 -0.6582 -0.2571
 8146TIP3    H224403   5.680   0.573   4.957 -1.5007  4.0156 -0.6884
 8147TIP3   OH224404   5.922   6.034   3.027  0.0014  1.1260 -0.6748
 8147TIP3    H124405   5.986   6.102   3.045 -1.0006  2.1472 -0.8785
 8147TIP3    H224406   5.847   6.080   2.990 -1.5543  0.2049  1.1607
 8148TIP3   OH224407   1.532   1.016   0.699 -0.1289 -0.1696 -0.1501
 8148TIP3    H124408   1.575   1.101   0.711  0.5297 -0.4984 -0.1751
 8148TIP3    H224409   1.592   0.953   0.737 -0.9456 -0.5625  0.5312
 8149TIP3   OH224410   0.429   0.276   3.249  0.1398  0.4671  0.2064
 8149TIP3    H124411   0.521   0.276   3.277 -0.1131  0.3254  1.0777
 8149TIP3    H224412   0.413   0.185   3.221  0.8471  0.9729 -2.0311
 8150TIP3   OH224413   3.255   4.917   4.818 -0.4505  0.2000 -0.0722
 8150TIP3    H124414   3.254   4.862   4.740 -0.3852 -0.0820  0.1233
 8150TIP3    H224415   3.172   4.964   4.815 -0.5921 -0.0496 -0.1469
 8151TIP3   OH224416   6.916   2.576   1.605  0.3092 -0.4283  0.1242
 8151TIP3    H124417   6.908   2.669   1.622  0.9784 -0.5619  1.2390
 8151TIP3    H224418   7.006   2.564   1.574  0.7005 -0.8941  1.3948
 8152TIP3   OH224419   2.029   4.706   5.820 -0.2140  0.1824 -0.1529
 8152TIP3    H124420   1.972   4.752   5.758 -1.2840  0.1257  0.7657
 8152TIP3    H224421   2.058   4.774   5.881 -0.7438 -0.1110  0.4330
 8153TIP3   OH224422   0.466   1.322   4.217  0.1141 -0.1818  0.0795
 8153TIP3    H124423   0.384   1.286   4.183 -0.6558  2.3428 -1.0558
 8153TIP3    H224424   0.529   1.307   4.147 -0.6303  1.9683 -1.1777
 8154TIP3   OH224425   3.755   5.752   1.571 -0.0399 -0.4879  0.3841
 8154TIP3    H124426   3.822   5.757   1.639 -0.8533 -0.4068  1.1961
 8154TIP3    H224427   3.800   5.711   1.497  0.6832 -1.2135  1.1957
 8155TIP3   OH224428   5.255   3.881   4.119  0.0995  0.2256  0.0650
 8155TIP3    H124429   5.234   3.884   4.213 -0.9516 -2.0660 -0.0361
 8155TIP3    H224430   5.182   3.927   4.077 -0.2875 -0.1761  0.2841
 8156TIP3   OH224431   2.065   5.468   4.246  0.6976  0.2057 -0.5293
 8156TIP3    H124432   2.152   5.473   4.287  0.9493 -2.0469 -0.6280
 8156TIP3    H224433   2.012   5.419   4.309 -0.1627  0.4901 -1.0163
 8157TIP3   OH224434   3.521   4.032   3.651 -0.2355  0.3788  0.7685
 8157TIP3    H124435   3.580   4.068   3.718 -1.0438  3.7961 -0.1499
 8157TIP3    H224436   3.564   4.053   3.568  0.0343 -2.4916  0.0825
 8158TIP3   OH224437   0.811   6.104   2.782  0.0055  0.1028 -0.5232
 8158TIP3    H124438   0.751   6.131   2.713  0.0573 -0.4376 -0.7828
 8158TIP3    H224439   0.894   6.087   2.736  0.8207  2.2800  0.0079
 8159TIP3   OH224440   3.213   4.792   3.929 -0.1709  0.2772 -0.4086
 8159TIP3    H124441   3.134   4.764   3.975  0.2982 -1.0440 -0.3788
 8159TIP3    H224442   3.253   4.857   3.987  1.8999 -3.2758  2.6159
 8160TIP3   OH224443   0.096   3.621   2.626  0.2735  0.2406  0.0447
 8160TIP3    H124444   0.023   3.678   2.602  0.5671  0.0116 -1.5432
 8160TIP3    H224445   0.055   3.538   2.647  0.0850 -0.1430 -1.6768
 8161TIP3   OH224446   2.531   4.759   5.341  0.8263 -0.4069  0.5855
 8161TIP3    H124447   2.542   4.853   5.327 -1.1879 -0.2531 -0.2456
 8161TIP3    H224448   2.599   4.719   5.287  0.1367  0.5332 -1.0452
 8162TIP3   OH224449   2.605   0.052   0.840  0.2041 -0.1895  0.4039
 8162TIP3    H124450   2.668   0.105   0.791 -1.5350  0.0477 -1.6760
 8162TIP3    H224451   2.659  -0.017   0.880  1.8364  0.1820 -1.0208
 8163TIP3   OH224452   6.786   0.850   3.388  0.3974  0.0716  0.4609
 8163TIP3    H124453   6.839   0.840   3.467 -1.6738 -1.5952  1.7268
 8163TIP3    H224454   6.829   0.795   3.323 -0.7513 -2.9245  2.0582
 8164TIP3   OH224455   3.295   1.927   1.672 -0.5042  0.1840  0.3201
 8164TIP3    H124456   3.203   1.905   1.686 -0.4209 -0.3337  0.0824
 8164TIP3    H224457   3.343   1.858   1.718 -0.2404 -0.0292 -0.2626
 8165TIP3   OH224458   1.305   2.310   5.000  0.9139 -0.0959  0.2733
 8165TIP3    H124459   1.345   2.279   5.081  1.3641  1.3859  0.6414
 8165TIP3    H224460   1.213   2.284   5.008  0.9838 -0.1118  1.2030
 8166TIP3   OH224461   5.185   5.599   2.509 -0.2153 -0.0682 -1.0423
 8166TIP3    H124462   5.269   5.558   2.488  0.5096  1.4817 -1.3299
 8166TIP3    H224463   5.189   5.684   2.467 -1.7922  0.1939 -0.7259
 8167TIP3   OH224464   6.172   6.147   3.126  0.2885 -0.0341 -0.0037
 8167TIP3    H124465   6.132   6.109   3.204 -0.7154  2.9492  1.0914
 8167TIP3    H224466   6.237   6.209   3.160  2.5442 -1.3464 -1.6810
 8168TIP3   OH224467   1.451   1.562   4.873 -0.0395 -0.1905  0.3664
 8168TIP3    H124468   1.438   1.564   4.778  1.3063 -0.7491  0.1526
 8168TIP3    H224469   1.520   1.627   4.889 -0.6346  0.2928  1.0403
 8169TIP3   OH224470   2.753   6.178   3.298  0.1197 -0.3066 -0.0562
 8169TIP3    H124471   2.664   6.144   3.309  0.1298 -0.3610 -0.1413
 8169TIP3    H224472   2.807   6.101   3.284  0.2384 -0.3043  0.3645
 8170TIP3   OH224473   1.913   6.061   0.589 -0.0353 -0.5851 -0.3801
 8170TIP3    H124474   1.858   6.130   0.553  0.1023 -1.6273 -2.8039
 8170TIP3    H224475   1.855   6.012   0.648 -1.7213 -1.4390 -2.5905
 8171TIP3   OH224476   2.066   5.590   0.470 -0.3431 -0.0474 -0.2925
 8171TIP3    H124477   2.160   5.603   0.455 -0.2347 -0.2006  0.2371
 8171TIP3    H224478   2.027   5.675   0.453 -0.1388 -0.0423 -0.7480
 8172TIP3   OH224479   0.146   3.820   4.866 -0.4538 -0.2702 -0.3308
 8172TIP3    H124480   0.085   3.834   4.939 -1.7118  1.6095 -1.6578
 8172TIP3    H224481   0.195   3.902   4.860 -0.2359 -0.4683 -1.4791
 8173TIP3   OH224482   0.884   6.807   0.060 -0.3226 -0.0090 -0.5756
 8173TIP3    H124483   0.856   6.734   0.005  0.8779 -0.5934 -0.4316
 8173TIP3    H224484   0.852   6.785   0.147  0.0040 -0.3506 -0.5400
 8174TIP3   OH224485   2.445   0.846   4.079 -0.3615  0.4612 -0.0891
 8174TIP3    H124486   2.387   0.922   4.081 -0.7362  0.1599  0.7320
 8174TIP3    H224487   2.399   0.779   4.129  0.2445 -0.1089 -0.2821
 8175TIP3   OH224488   5.252   4.844   0.305  0.5581 -0.3391  0.2547
 8175TIP3    H124489   5.219   4.881   0.388 -0.5933  0.2414 -0.4359
 8175TIP3    H224490   5.185   4.782   0.278  1.2235 -0.9835  0.0538
 8176TIP3   OH224491   2.837   1.467   3.537  0.3211  0.5272 -0.4611
 8176TIP3    H124492   2.789   1.385   3.548  0.9736 -0.1223 -2.1121
 8176TIP3    H224493   2.903   1.466   3.606 -1.4333  1.0537  1.3330
 8177TIP3   OH224494   0.276   0.184   5.515 -0.3747 -0.2673 -0.2105
 8177TIP3    H124495   0.358   0.219   5.550  0.3278 -0.6823 -1.3805
 8177TIP3    H224496   0.255   0.240   5.440 -1.3149 -0.0050  0.2304
 8178TIP3   OH224497   0.605   0.160   4.833 -0.1296  0.3346 -0.2501
 8178TIP3    H124498   0.644   0.095   4.774 -2.4863 -1.2578 -0.1730
 8178TIP3    H224499   0.577   0.109   4.909 -1.8994  1.4658 -0.0957
 8179TIP3   OH224500   6.254   0.205   0.818  0.0069  1.0217 -0.3747
 8179TIP3    H124501   6.306   0.173   0.891 -1.0250  0.2936  0.0595
 8179TIP3    H224502   6.275   0.145   0.746 -1.2724 -0.1829  0.1993
 8180TIP3   OH224503   4.427   2.156   3.161 -0.0428  0.1812  0.2442
 8180TIP3    H124504   4.341   2.124   3.186  0.1131 -0.3143  0.1555
 8180TIP3    H224505   4.480   2.077   3.148  0.2706  0.4599 -0.2390
 8181TIP3   OH224506   4.695   5.095   5.346 -0.5208 -0.5520 -0.3782
 8181TIP3    H124507   4.661   5.147   5.419  1.1965  1.2048 -0.7119
 8181TIP3    H224508   4.646   5.126   5.270 -0.0138  0.0958 -0.4567
 8182TIP3   OH224509   1.229   0.550   3.222 -0.4600  0.2251 -0.1284
 8182TIP3    H124510   1.176   0.568   3.300 -0.8086 -2.1308  0.2337
 8182TIP3    H224511   1.166   0.525   3.155  0.0266 -0.4704 -0.3369
 8183TIP3   OH224512   4.097   4.933   1.481 -0.1666  0.2264 -0.1149
 8183TIP3    H124513   4.144   4.859   1.443 -0.8306 -0.3010  0.0664
 8183TIP3    H224514   4.006   4.918   1.456 -0.8166 -0.6716  2.4441
 8184TIP3   OH224515   2.067   5.009   4.595 -0.1185 -0.4021 -0.3850
 8184TIP3    H124516   2.057   4.956   4.674 -2.1724 -0.5841 -0.7125
 8184TIP3    H224517   2.095   4.946   4.528  1.5410 -0.2618  0.1445
 8185TIP3   OH224518   0.430   4.846   5.500 -0.2754  0.2941 -0.1633
 8185TIP3    H124519   0.383   4.871   5.580 -0.0353  0.8674 -0.1928
 8185TIP3    H224520   0.521   4.836   5.528 -0.1130  0.9382 -0.4471
 8186TIP3   OH224521   6.375   3.098   5.276  0.1966 -0.1922 -0.2584
 8186TIP3    H124522   6.345   3.080   5.365 -0.1957  2.7154  0.3179
 8186TIP3    H224523   6.342   3.026   5.223 -0.0597 -1.6944  1.8540
 8187TIP3   OH224524   4.958   0.026   0.605  0.5072 -0.3156  0.1878
 8187TIP3    H124525   4.927   0.075   0.529  0.9503 -0.9933 -0.4488
 8187TIP3    H224526   4.916  -0.059   0.598 -1.3977  0.3933  2.0769
 8188TIP3   OH224527   4.851   5.882   1.323  0.1221  0.6408  0.3018
 8188TIP3    H124528   4.825   5.862   1.413  0.2659  0.9125  0.4056
 8188TIP3    H224529   4.915   5.952   1.332 -0.4661  1.2312 -0.0599
 8189TIP3   OH224530   2.060   6.167   5.781  0.4553 -0.4997  0.0750
 8189TIP3    H124531   2.138   6.185   5.728  0.8557  1.2529  1.1922
 8189TIP3    H224532   2.052   6.243   5.838 -1.0242 -1.4984  1.2581
 8190TIP3   OH224533   0.648   4.940   4.672  0.0054 -0.0310 -0.4736
 8190TIP3    H124534   0.652   5.031   4.641 -0.4332 -0.6327 -2.4383
 8190TIP3    H224535   0.739   4.915   4.686  0.2147  0.3544 -1.0953
 8191TIP3   OH224536   6.595   1.251   3.198 -0.1197  0.1345  0.1230
 8191TIP3    H124537   6.674   1.207   3.230 -1.2217 -1.9899  0.1035
 8191TIP3    H224538   6.567   1.306   3.271  1.9725  1.8875 -0.2798
 8192TIP3   OH224539   0.757   2.178   4.639  0.1853  0.0047  0.3157
 8192TIP3    H124540   0.791   2.250   4.585 -1.5359  0.8201  0.2552
 8192TIP3    H224541   0.730   2.111   4.576  0.9937 -0.3601  0.3375
 8193TIP3   OH224542   2.063   0.032   4.160 -0.0057  0.3306  0.1091
 8193TIP3    H124543   2.108  -0.028   4.220 -0.7598 -0.6834 -0.3106
 8193TIP3    H224544   2.124   0.044   4.087 -0.2681 -0.7708 -0.3022
 8194TIP3   OH224545   2.777   6.667   3.315 -0.7673  0.6096  0.6215
 8194TIP3    H124546   2.783   6.582   3.271 -1.9724  0.9684 -0.2861
 8194TIP3    H224547   2.815   6.652   3.401  1.4690 -0.1840 -0.3981
 8195TIP3   OH224548   3.109   6.125   5.215 -0.2692 -0.3519 -0.3490
 8195TIP3    H124549   3.187   6.171   5.245  0.1564 -1.4497  0.2873
 8195TIP3    H224550   3.052   6.123   5.292 -0.0027 -1.4399 -0.1549
 8196TIP3   OH224551   5.881   0.750   2.593 -0.0935 -0.3482  0.6724
 8196TIP3    H124552   5.842   0.787   2.513  2.4402  1.8350  0.3102
 8196TIP3    H224553   5.810   0.753   2.658 -0.8581  2.6795 -0.1408
 8197TIP3   OH224554   6.993   1.422   3.289  0.0323 -0.8804  0.3001
 8197TIP3    H124555   6.968   1.331   3.272 -2.6014 -0.4890  1.5942
 8197TIP3    H224556   6.952   1.471   3.218  0.7255 -0.6136  0.0822
 8198TIP3   OH224557   4.825   6.007   3.976 -0.4670  0.1261 -0.7196
 8198TIP3    H124558   4.806   5.916   3.954  1.6402  0.1490 -3.2012
 8198TIP3    H224559   4.748   6.056   3.948 -1.5274 -0.8483  0.4390
 8199TIP3   OH224560   2.855   4.886   3.275  0.4879 -0.2757  0.2970
 8199TIP3    H124561   2.850   4.825   3.349 -1.1951  0.6423  0.9901
 8199TIP3    H224562   2.937   4.932   3.287  0.5167 -0.5588  1.2745
 8200TIP3   OH224563   4.930   3.132   1.298  0.0850  0.0233 -0.2746
 8200TIP3    H124564   4.846   3.160   1.263  0.1028  0.0667 -0.2828
 8200TIP3    H224565   4.994   3.192   1.260  0.5596 -1.9667 -2.9318
 8201TIP3   OH224566   5.378   0.503   0.476 -0.1768  0.1446  0.2983
 8201TIP3    H124567   5.320   0.452   0.533 -0.1335  0.8531  1.0010
 8201TIP3    H224568   5.325   0.579   0.451  0.9741  1.7733  2.4430
 8202TIP3   OH224569   2.940   2.944   3.412 -0.0437  0.0728  0.0097
 8202TIP3    H124570   2.939   3.010   3.342 -1.4117  0.1728  0.0921
 8202TIP3    H224571   2.949   2.995   3.493  0.0986  0.0722 -0.0064
 8203TIP3   OH224572   1.433   0.264   0.278 -0.7372  0.3449 -0.6268
 8203TIP3    H124573   1.490   0.294   0.349 -1.6359 -2.0853  1.2714
 8203TIP3    H224574   1.347   0.256   0.318 -1.7926  0.9651 -2.6260
 8204TIP3   OH224575   2.031   5.477   5.632 -0.2413  0.5007 -0.5752
 8204TIP3    H124576   1.982   5.422   5.693  1.7350  0.2578  0.8734
 8204TIP3    H224577   1.973   5.552   5.616 -1.3402 -0.0741  0.5525
 8205TIP3   OH224578   3.899   0.435   2.799  0.1925  0.5381  0.7775
 8205TIP3    H124579   3.814   0.477   2.791  0.0854  0.0126 -2.1444
 8205TIP3    H224580   3.883   0.343   2.778  1.6065  0.6579 -1.0818
 8206TIP3   OH224581   4.005   4.598   3.860 -0.0683 -0.4289 -0.0510
 8206TIP3    H124582   3.985   4.521   3.807 -2.8754 -0.4945  0.9410
 8206TIP3    H224583   4.059   4.564   3.932 -1.1449 -1.4522  0.2971
 8207TIP3   OH224584   6.860   2.594   2.799 -0.0241 -0.8378 -0.1102
 8207TIP3    H124585   6.808   2.521   2.834  1.0217 -0.6702  1.9395
 8207TIP3    H224586   6.848   2.665   2.862 -0.7562  0.7180 -1.9068
 8208TIP3   OH224587   1.428   1.477   2.051 -0.1720 -0.5863 -0.3420
 8208TIP3    H124588   1.402   1.569   2.043  0.0510 -0.5347 -0.4790
 8208TIP3    H224589   1.524   1.479   2.051 -0.1492 -0.9331 -1.7723
 8209TIP3   OH224590   4.217  -0.007   3.810  0.1140  0.0340  0.3101
 8209TIP3    H124591   4.300  -0.046   3.837 -0.5077 -0.8118  1.0558
 8209TIP3    H224592   4.241   0.078   3.773  1.3829 -0.5539 -0.2611
 8210TIP3   OH224593   4.080   3.790   0.792  0.2732 -0.5166 -0.5477
 8210TIP3    H124594   4.154   3.764   0.847  0.0768  0.7452  0.3459
 8210TIP3    H224595   4.034   3.708   0.774  0.4284 -0.9880  1.0486
 8211TIP3   OH224596   5.247   6.259   1.876 -0.1593  0.3121 -0.7037
 8211TIP3    H124597   5.225   6.281   1.966  1.3352 -0.7697 -0.0368
 8211TIP3    H224598   5.307   6.328   1.848  0.7590 -0.2958 -0.2558
 8212TIP3   OH224599   2.065   2.809   0.234  0.3498 -0.2477  0.0485
 8212TIP3    H124600   2.104   2.726   0.263 -0.4478 -0.6807 -0.0876
 8212TIP3    H224601   1.978   2.784   0.201  0.4403  0.5217 -0.8009
 8213TIP3   OH224602   4.711   2.917   0.721 -0.1744  0.2297  0.2739
 8213TIP3    H124603   4.702   2.978   0.794  0.9832  1.3846 -0.5083
 8213TIP3    H224604   4.647   2.848   0.739 -1.6891  1.7830  1.0781
 8214TIP3   OH224605   1.207   6.652   0.319 -0.0770  0.3964  0.1789
 8214TIP3    H124606   1.243   6.740   0.333  0.0574  0.5030 -0.7714
 8214TIP3    H224607   1.154   6.635   0.397 -0.5537  1.5463  0.1209
 8215TIP3   OH224608   4.693   0.795   1.101 -0.6449  0.1873  0.2860
 8215TIP3    H124609   4.698   0.829   1.190  1.5440  1.1244 -0.1358
 8215TIP3    H224610   4.753   0.850   1.051 -1.9065 -0.2403 -1.8146
 8216TIP3   OH224611   0.407   4.087   2.731 -0.3904 -0.2541 -0.1991
 8216TIP3    H124612   0.401   4.180   2.751  1.1416 -0.2929  0.6086
 8216TIP3    H224613   0.318   4.061   2.709 -1.0296  1.1759  0.5824
 8217TIP3   OH224614   2.763   3.631   4.586  0.3570 -0.2660 -1.3324
 8217TIP3    H124615   2.722   3.556   4.630  1.4034 -0.6958 -1.0529
 8217TIP3    H224616   2.760   3.701   4.651 -0.5156 -0.0860 -1.5513
 8218TIP3   OH224617   5.549   1.822   4.977 -0.6090  0.0004  0.2999
 8218TIP3    H124618   5.483   1.829   5.046 -0.6863 -0.7335  0.3122
 8218TIP3    H224619   5.587   1.735   4.990 -1.2892 -0.5469 -1.1524
 8219TIP3   OH224620   6.284   4.431   2.779  0.8022 -0.5071 -0.1449
 8219TIP3    H124621   6.372   4.459   2.753  1.2548 -0.1781  1.5548
 8219TIP3    H224622   6.259   4.494   2.847 -0.3545 -1.1694  0.0688
 8220TIP3   OH224623   6.267   5.521   1.071 -0.3288  0.2245  0.2327
 8220TIP3    H124624   6.256   5.533   1.166  0.7190 -1.6225  0.6316
 8220TIP3    H224625   6.178   5.503   1.040 -0.6255  0.4123  0.9336
 8221TIP3   OH224626   5.754   3.670   2.560 -0.1526  0.6677  0.1459
 8221TIP3    H124627   5.747   3.596   2.500 -1.6078 -0.2063  1.3050
 8221TIP3    H224628   5.845   3.697   2.554  0.1959 -0.6357 -0.9904
 8222TIP3   OH224629   2.584   3.093   4.265  0.4557 -0.4025 -0.2990
 8222TIP3    H124630   2.543   3.157   4.323  0.9704 -2.1451  2.1446
 8222TIP3    H224631   2.512   3.035   4.239  0.0670  0.8334 -2.1856
 8223TIP3   OH224632   2.146   5.190   5.532  0.0699 -0.3811 -0.2165
 8223TIP3    H124633   2.130   5.265   5.590  0.2996  0.5333 -1.2863
 8223TIP3    H224634   2.066   5.182   5.480  0.9496  0.7894 -1.8662
 8224TIP3   OH224635   2.150   4.235   1.831  0.4272 -0.4463  0.1016
 8224TIP3    H124636   2.094   4.261   1.904  1.5329  0.9611  0.4902
 8224TIP3    H224637   2.098   4.254   1.753  0.4264  1.1069  0.4424
 8225TIP3   OH224638   2.105   2.665   2.556  0.0728  0.5669  0.5748
 8225TIP3    H124639   2.190   2.709   2.555  0.3484  0.0773 -1.5249
 8225TIP3    H224640   2.125   2.574   2.581 -0.0732  0.8141  1.6543
 8226TIP3   OH224641   2.420   4.121   1.064 -0.7003 -0.2836  0.2551
 8226TIP3    H124642   2.409   4.029   1.089  0.4272 -0.5558 -0.1698
 8226TIP3    H224643   2.494   4.151   1.116  1.9379 -0.9639 -2.7961
 8227TIP3   OH224644   1.580   1.235   1.031 -0.0130 -0.0704 -0.1047
 8227TIP3    H124645   1.506   1.294   1.014 -0.6273 -0.8197 -0.0939
 8227TIP3    H224646   1.611   1.210   0.944 -0.1228 -0.1912 -0.1085
 8228TIP3   OH224647   3.361   3.745   5.304 -0.2302 -0.0175  0.4050
 8228TIP3    H124648   3.455   3.764   5.296  0.0949 -0.8863  1.8280
 8228TIP3    H224649   3.351   3.656   5.271 -0.1303 -0.7981  2.3710
 8229TIP3   OH224650   0.044   0.409   3.852  0.0729 -0.4266  0.3619
 8229TIP3    H124651   0.060   0.486   3.906 -2.6753  1.3311 -1.1420
 8229TIP3    H224652   0.130   0.389   3.813  0.9930  1.4142  1.3148
 8230TIP3   OH224653   0.754   0.947   4.872  0.7178 -0.1424  0.2834
 8230TIP3    H124654   0.725   0.867   4.916  1.1970 -0.0757  0.7275
 8230TIP3    H224655   0.712   1.017   4.921 -1.5532 -0.1705 -1.4755
 8231TIP3   OH224656   2.519   5.264   4.666  0.9759  0.4056 -0.0193
 8231TIP3    H124657   2.438   5.216   4.681 -0.6551  2.8580 -0.3655
 8231TIP3    H224658   2.531   5.262   4.571  1.1465  0.3006  0.0041
 8232TIP3   OH224659   3.276   0.110   1.915  0.0849  0.1380 -0.5270
 8232TIP3    H124660   3.354   0.060   1.895  1.2687  2.2965 -1.7078
 8232TIP3    H224661   3.289   0.138   2.006 -0.3421 -1.1993 -0.0341
 8233TIP3   OH224662   1.697   1.522   2.121 -0.0865 -0.1520  0.2094
 8233TIP3    H124663   1.748   1.444   2.140  0.4543  0.1886  0.1794
 8233TIP3    H224664   1.757   1.579   2.073  0.5569  1.5752  2.8547
 8234TIP3   OH224665   0.055   4.465   0.301 -0.4759 -0.0961  0.5484
 8234TIP3    H124666   0.102   4.539   0.339  0.8682 -0.7865  0.2661
 8234TIP3    H224667   0.040   4.491   0.210 -3.0621  1.2504  1.2548
 8235TIP3   OH224668   5.426   2.329   1.824 -0.1742 -0.5018  0.1696
 8235TIP3    H124669   5.496   2.266   1.840  0.0473 -0.1894  0.4510
 8235TIP3    H224670   5.466   2.415   1.839 -0.8797 -0.3580  1.3936
 8236TIP3   OH224671   6.747   0.690   2.078 -0.2201  0.5545  0.4864
 8236TIP3    H124672   6.764   0.738   1.997 -2.3988  0.8955  0.1885
 8236TIP3    H224673   6.820   0.628   2.084  0.3110  0.9168 -1.4221
 8237TIP3   OH224674   0.373   0.462   5.786 -0.8727  0.2476  0.4324
 8237TIP3    H124675   0.424   0.393   5.744 -0.1220  0.0678  1.5947
 8237TIP3    H224676   0.403   0.543   5.744  1.8224  0.3747  2.3134
 8238TIP3   OH224677   5.128   4.155   0.035 -0.2108  0.0116  0.5089
 8238TIP3    H124678   5.040   4.187   0.013 -0.3902 -0.9574 -0.2779
 8238TIP3    H224679   5.185   4.230   0.019 -0.6168 -0.0227 -1.3233
 8239TIP3   OH224680   0.942   0.236   4.712  0.1341 -0.0080 -0.4404
 8239TIP3    H124681   0.989   0.154   4.696  0.9073  0.1248  1.0020
 8239TIP3    H224682   0.989   0.278   4.784 -0.6762  1.3740 -0.6625
 8240TIP3   OH224683   1.766   1.985   1.943  0.2481 -0.0463  0.4820
 8240TIP3    H124684   1.766   1.915   1.878  3.4660 -0.6927  1.0277
 8240TIP3    H224685   1.732   1.943   2.023  0.1336 -0.3765  0.2628
 8241TIP3   OH224686   0.366   0.645   4.560 -0.7760  0.5322 -0.1525
 8241TIP3    H124687   0.397   0.599   4.482 -2.7761 -0.1462 -0.6066
 8241TIP3    H224688   0.332   0.728   4.527 -1.5194  0.2909 -0.0303
 8242TIP3   OH224689   0.431   3.895   5.596 -0.2160  0.6766  0.1813
 8242TIP3    H124690   0.503   3.881   5.658 -1.3729  0.2168  1.4710
 8242TIP3    H224691   0.353   3.866   5.643 -1.0274 -0.7694 -1.8978
 8243TIP3   OH224692   5.971   0.769   3.744  0.4424  0.0062 -0.5376
 8243TIP3    H124693   5.876   0.775   3.746  0.4980  0.8335  0.7109
 8243TIP3    H224694   5.993   0.710   3.816  0.8662 -0.3811 -0.9783
 8244TIP3   OH224695  -0.003   1.645   1.596 -0.0561 -0.5022  0.5570
 8244TIP3    H124696   0.066   1.579   1.602 -0.1334 -0.6555 -0.1051
 8244TIP3    H224697   0.020   1.711   1.661  1.7278  0.3703 -0.8521
 8245TIP3   OH224698   5.376   5.613   4.710 -0.2539  0.7694  0.1928
 8245TIP3    H124699   5.451   5.557   4.691 -0.8974  0.5765 -1.9609
 8245TIP3    H224700   5.414   5.693   4.745  0.8916  0.3779 -0.1306
 8246TIP3   OH224701   0.052   2.202   3.741  0.3779 -0.0617 -0.0190
 8246TIP3    H124702   0.095   2.288   3.735 -1.2674  0.7887 -0.4523
 8246TIP3    H224703  -0.029   2.220   3.789  0.3381 -1.5417  0.5211
 8247TIP3   OH224704   1.503   5.477   5.380 -0.6747 -1.1140  0.3368
 8247TIP3    H124705   1.424   5.457   5.329 -0.7917  0.3642 -0.1255
 8247TIP3    H224706   1.471   5.530   5.453  0.0075  1.0253 -0.8037
 8248TIP3   OH224707   0.061   3.497   3.875  0.4437  0.1865 -0.0799
 8248TIP3    H124708   0.033   3.510   3.784 -0.0721 -1.2613 -0.1579
 8248TIP3    H224709   0.083   3.585   3.906 -0.8461  0.9213 -1.1239
 8249TIP3   OH224710   4.982   1.382   3.774  0.6119  1.1156  0.1149
 8249TIP3    H124711   4.925   1.452   3.806  0.2728 -0.4044  3.2790
 8249TIP3    H224712   4.958   1.370   3.682 -2.2701  2.3269  0.6133
 8250TIP3   OH224713   0.999   0.841   5.886 -0.4484 -0.0290 -0.2123
 8250TIP3    H124714   0.916   0.841   5.933 -0.3123 -0.7724  0.0442
 8250TIP3    H224715   0.982   0.892   5.807 -1.5483 -1.3018 -0.8295
 8251TIP3   OH224716   0.895   1.712   1.713  0.2333 -0.5082 -0.0827
 8251TIP3    H124717   0.860   1.623   1.722 -2.9616  0.7050  0.8663
 8251TIP3    H224718   0.883   1.733   1.620  1.5625 -1.2401 -0.4371
 8252TIP3   OH224719   4.389   4.686   3.259  0.8796  0.1670 -0.0687
 8252TIP3    H124720   4.479   4.655   3.246  1.2656  1.4785 -0.7575
 8252TIP3    H224721   4.394   4.740   3.338  0.5115 -0.4057  0.3511
 8253TIP3   OH224722   7.159   1.575   1.326  0.4049 -0.2379 -0.0263
 8253TIP3    H124723   7.147   1.603   1.417  0.1789 -1.1381  0.2327
 8253TIP3    H224724   7.071   1.550   1.297  0.1078  1.9130 -1.1526
 8254TIP3   OH224725   7.085   5.328   0.484 -0.2524  0.5099  0.0368
 8254TIP3    H124726   7.053   5.337   0.395 -0.1639  0.6514  0.0191
 8254TIP3    H224727   7.084   5.417   0.519 -0.3642  0.4436  0.2029
 8255TIP3   OH224728   5.148   6.258   4.571 -0.1397  0.0382 -0.1525
 8255TIP3    H124729   5.210   6.331   4.563  1.4690 -1.3629 -1.3326
 8255TIP3    H224730   5.149   6.237   4.665 -1.1351  1.9025  0.3122
 8256TIP3   OH224731   1.305   0.163   5.603 -0.4629 -0.0219  0.1270
 8256TIP3    H124732   1.374   0.116   5.651 -0.9551 -2.8725 -1.7230
 8256TIP3    H224733   1.259   0.095   5.554 -2.6960  2.1878 -1.0739
 8257TIP3   OH224734   2.064   1.143   2.255  0.1382 -0.2255  0.3284
 8257TIP3    H124735   2.005   1.070   2.237 -0.2120 -0.0105  0.5861
 8257TIP3    H224736   2.151   1.103   2.256  0.1858 -0.2758 -1.6845
 8258TIP3   OH224737   0.022   3.010   3.573  0.0610 -0.2399  0.5024
 8258TIP3    H124738   0.022   3.102   3.547 -0.2315  0.0348  1.4277
 8258TIP3    H224739  -0.013   3.010   3.662 -1.0057 -1.3770  0.1068
 8259TIP3   OH224740   7.078   4.736   1.268 -0.0438  0.2912 -0.6372
 8259TIP3    H124741   7.157   4.703   1.225  0.3710 -0.4402  0.6612
 8259TIP3    H224742   7.109   4.807   1.324  0.2565 -1.9958  2.2936
 8260TIP3   OH224743   7.070   2.902   1.385  0.0381  0.2400  0.3359
 8260TIP3    H124744   7.132   2.832   1.365 -0.3533  0.4466 -1.8437
 8260TIP3    H224745   6.984   2.863   1.369 -0.3666  0.3513  2.0631
 8261TIP3   OH224746   3.312   6.611   5.695  0.0820  0.4611 -0.4564
 8261TIP3    H124747   3.255   6.647   5.627 -0.0772  2.1728  0.5265
 8261TIP3    H224748   3.252   6.580   5.763  0.2633 -0.5847 -0.7485
 8262TIP3   OH224749   1.930   4.105   0.375  0.0982  0.3198 -0.2698
 8262TIP3    H124750   1.986   4.075   0.304  0.5765 -2.5045  1.1702
 8262TIP3    H224751   1.855   4.045   0.375  0.1134  0.2313  1.5663
 8263TIP3   OH224752   5.900   5.481   0.539  0.3899  0.0928 -0.3743
 8263TIP3    H124753   5.828   5.422   0.559  1.9558 -1.4138  1.0641
 8263TIP3    H224754   5.909   5.535   0.617  1.4051 -0.3605 -0.1726
 8264TIP3   OH224755   4.251   5.384   3.563  0.0828 -0.5597  0.0728
 8264TIP3    H124756   4.321   5.320   3.554 -0.1215 -0.6678 -0.8502
 8264TIP3    H224757   4.186   5.358   3.498 -0.5700 -0.1487  0.5512
 8265TIP3   OH224758   3.171   1.524   1.463  0.2616 -0.1825 -0.5108
 8265TIP3    H124759   3.205   1.482   1.542  0.1263  0.0151 -0.3462
 8265TIP3    H224760   3.102   1.466   1.432  1.0710 -0.8412 -1.1239
 8266TIP3   OH224761   2.057   3.474   3.967 -0.2557 -0.3810  0.0895
 8266TIP3    H124762   1.964   3.480   3.945 -0.1110  0.2092 -0.3883
 8266TIP3    H224763   2.059   3.439   4.056 -0.9741  0.6832  0.5422
 8267TIP3   OH224764   1.318   4.457   2.779  0.0552 -0.2947 -0.0753
 8267TIP3    H124765   1.298   4.497   2.863 -0.0553  0.2724 -0.3712
 8267TIP3    H224766   1.335   4.530   2.720 -0.8546 -0.6512 -0.8011
 8268TIP3   OH224767   2.974   5.981   2.846 -0.0691 -0.1187  0.0357
 8268TIP3    H124768   2.956   6.057   2.791 -1.5920 -1.5985 -1.6598
 8268TIP3    H224769   3.058   5.948   2.814 -0.1778 -0.0583 -0.3139
 8269TIP3   OH224770   6.861   6.173   4.714 -0.5289  1.0854 -0.3364
 8269TIP3    H124771   6.852   6.216   4.628 -1.4597  1.0789 -0.2513
 8269TIP3    H224772   6.828   6.238   4.776  1.5289  1.6840  0.2094
 8270TIP3   OH224773   1.878   3.367   0.534  0.1555  0.1752 -0.3036
 8270TIP3    H124774   1.893   3.280   0.497 -0.2556  1.1367 -2.9529
 8270TIP3    H224775   1.795   3.359   0.582 -0.0455 -0.8248 -0.7945
 8271TIP3   OH224776   0.002   5.320   2.001  0.3111 -0.4243 -0.4863
 8271TIP3    H124777   0.084   5.338   2.047  0.7741 -0.6531 -1.2124
 8271TIP3    H224778  -0.064   5.371   2.049  1.0781  0.7368 -0.6288
 8272TIP3   OH224779   2.009   2.252   3.226  0.1437 -0.1069  0.3587
 8272TIP3    H124780   2.048   2.257   3.313  0.1967  1.0108  0.2935
 8272TIP3    H224781   1.915   2.263   3.241  0.1567  0.1249  0.2746
 8273TIP3   OH224782   4.901   0.410   3.687  0.1568  0.0413 -0.1818
 8273TIP3    H124783   4.818   0.369   3.663 -0.3119  0.3543  0.8412
 8273TIP3    H224784   4.885   0.504   3.679  0.7270  0.0803 -0.9420
 8274TIP3   OH224785   1.147   2.348   2.043 -0.2885  0.0572 -0.3416
 8274TIP3    H124786   1.100   2.316   2.120 -0.4729 -1.7942 -1.1652
 8274TIP3    H224787   1.080   2.390   1.989 -0.1413  1.4409  0.5131
 8275TIP3   OH224788   4.426   0.507   0.013 -0.5668  1.2194  0.1100
 8275TIP3    H124789   4.424   0.557   0.094  0.5440  0.6031  0.5409
 8275TIP3    H224790   4.340   0.521  -0.027 -1.6119  0.4843  2.0027
 8276TIP3   OH224791   4.551   5.057   1.241  0.3788 -0.0784 -0.1645
 8276TIP3    H124792   4.460   5.030   1.252 -0.5956  2.1651 -1.9913
 8276TIP3    H224793   4.596   4.978   1.210 -0.7205 -1.4065  1.4092
 8277TIP3   OH224794   4.128   4.232   4.017  0.6491 -0.5167 -0.2310
 8277TIP3    H124795   4.211   4.238   3.969  0.0207  1.5082 -1.1808
 8277TIP3    H224796   4.131   4.304   4.080 -0.5226 -0.1311 -0.5722
 8278TIP3   OH224797   5.578   2.156   1.109  0.0370  0.4368 -0.3231
 8278TIP3    H124798   5.604   2.080   1.161  1.5867  0.4631 -0.9903
 8278TIP3    H224799   5.579   2.125   1.019  0.7558  1.2520 -0.6047
 8279TIP3   OH224800   6.641   6.374   0.333  0.2759 -0.1143 -0.4462
 8279TIP3    H124801   6.565   6.400   0.384 -0.2300  0.6524 -1.5708
 8279TIP3    H224802   6.628   6.414   0.247  0.7561 -1.9246 -1.4207
 8280TIP3   OH224803   1.508   3.891   2.028 -0.3761  0.2097  0.4179
 8280TIP3    H124804   1.598   3.921   2.040  0.2575 -1.6941  0.8662
 8280TIP3    H224805   1.516   3.823   1.960 -1.4868  0.0495  0.4424
 8281TIP3   OH224806   1.817   5.209   3.930 -0.2355 -1.0731 -0.4219
 8281TIP3    H124807   1.750   5.141   3.926  0.8185 -2.2906  1.3399
 8281TIP3    H224808   1.867   5.189   4.009 -0.1565  2.0453  0.4622
 8282TIP3   OH224809   0.091   6.642   2.727 -0.2648  0.3184  0.4628
 8282TIP3    H124810   0.006   6.598   2.729 -0.2560  0.3208  0.9882
 8282TIP3    H224811   0.155   6.571   2.735 -0.1978  0.2651 -0.4821
 8283TIP3   OH224812   2.841   3.445   3.517 -0.2476  0.5608  0.4679
 8283TIP3    H124813   2.931   3.412   3.524 -0.1674  0.4553 -0.7645
 8283TIP3    H224814   2.819   3.475   3.605  1.5152  1.9300  0.5093
 8284TIP3   OH224815   0.801   6.658   2.525 -0.2009 -0.1555 -0.2540
 8284TIP3    H124816   0.710   6.634   2.537 -0.4325  0.1185 -1.3571
 8284TIP3    H224817   0.801   6.754   2.521  0.3783 -0.0389  1.4766
 8285TIP3   OH224818   0.526   2.038   4.916  0.0078  0.2368 -0.0578
 8285TIP3    H124819   0.552   2.129   4.906  0.6053 -0.0142 -0.8325
 8285TIP3    H224820   0.590   1.988   4.866 -0.2464 -0.6230  0.4439
 8286TIP3   OH224821   3.450   1.302   4.008  0.6378  0.3942 -0.3512
 8286TIP3    H124822   3.519   1.235   4.007 -0.1537 -0.4845 -2.2641
 8286TIP3    H224823   3.370   1.254   4.028  0.4009  1.2347  0.8183
 8287TIP3   OH224824   2.392   0.887   0.303  0.1515 -0.0124  0.7823
 8287TIP3    H124825   2.299   0.870   0.321 -0.1353  0.3247 -0.2636
 8287TIP3    H224826   2.420   0.813   0.250  0.6064 -0.3233  1.4442
 8288TIP3   OH224827   5.855   4.554   1.046 -0.4584  0.0401  1.3376
 8288TIP3    H124828   5.791   4.521   0.982  2.3992 -0.3823 -1.5991
 8288TIP3    H224829   5.833   4.646   1.057 -0.4290  0.4400 -1.2658
 8289TIP3   OH224830   4.717   0.265   5.357  0.4593  0.0614 -0.0465
 8289TIP3    H124831   4.622   0.250   5.359  0.4866 -0.0337  1.2278
 8289TIP3    H224832   4.726   0.360   5.345  0.2171  0.0253 -0.5480
 8290TIP3   OH224833   6.073   3.471   4.153  0.4066  0.1989  0.6394
 8290TIP3    H124834   6.041   3.561   4.160  1.2243  0.3438  4.2767
 8290TIP3    H224835   6.047   3.444   4.064 -2.0548  3.1333  0.2693
 8291TIP3   OH224836   3.018   0.272   4.544 -0.0362 -0.1378  0.4729
 8291TIP3    H124837   3.030   0.327   4.621  0.9435 -0.7747  0.7925
 8291TIP3    H224838   3.107   0.249   4.517 -0.3801 -0.2145 -0.6426
 8292TIP3   OH224839   6.322   4.229   4.275 -0.4946 -0.1286 -0.5602
 8292TIP3    H124840   6.304   4.138   4.253  0.5654 -0.6078  0.4777
 8292TIP3    H224841   6.240   4.262   4.311  0.0368 -1.7316  2.4141
 8293TIP3   OH224842   6.736   3.103   2.268 -0.1530  0.0482 -0.4109
 8293TIP3    H124843   6.671   3.032   2.260 -1.4741  1.3557 -2.0894
 8293TIP3    H224844   6.806   3.077   2.209 -0.7420  0.2249 -1.2066
 8294TIP3   OH224845   3.434   3.470   2.253 -0.1073  0.5738 -0.3569
 8294TIP3    H124846   3.411   3.459   2.161  1.6744  1.4542 -0.9716
 8294TIP3    H224847   3.519   3.514   2.251  1.6157 -2.2837  1.6401
 8295TIP3   OH224848   3.629   5.012   2.374  0.4225 -0.5618 -0.5957
 8295TIP3    H124849   3.679   5.002   2.293  2.1857 -0.2415  0.3867
 8295TIP3    H224850   3.635   5.106   2.394 -0.6094 -0.5150 -0.4571
 8296TIP3   OH224851   0.597   3.786   5.795 -0.1599  0.3353 -0.4233
 8296TIP3    H124852   0.549   3.750   5.869 -1.0831 -0.3582 -1.3398
 8296TIP3    H224853   0.658   3.717   5.769  2.9977  1.8974  2.0200
 8297TIP3   OH224854   0.396   6.637   0.408 -0.1122 -0.0782 -0.0968
 8297TIP3    H124855   0.450   6.713   0.388  0.2596 -0.3850 -0.2598
 8297TIP3    H224856   0.306   6.671   0.408 -0.0905  0.0535 -1.7351
 8298TIP3   OH224857   4.804   6.153   2.600 -0.3958  0.7019 -0.3948
 8298TIP3    H124858   4.731   6.097   2.627  0.0458 -0.0274 -0.6873
 8298TIP3    H224859   4.785   6.238   2.641 -1.4521  0.5525 -0.5407
 8299TIP3   OH224860   1.467   1.986   5.573 -0.3883 -0.4254  0.5647
 8299TIP3    H124861   1.481   1.899   5.609 -1.5834 -1.0389 -0.3908
 8299TIP3    H224862   1.423   2.035   5.642  0.7912 -0.3693  1.3155
 8300TIP3   OH224863   1.982   4.485   5.558  0.0839 -0.3943  0.1620
 8300TIP3    H124864   2.051   4.468   5.623 -0.7528 -0.1983  1.1159
 8300TIP3    H224865   2.006   4.430   5.483  0.5632 -1.3411  0.9911
 8301TIP3   OH224866   5.440   4.551   3.738 -0.1170 -0.1243  0.3348
 8301TIP3    H124867   5.452   4.513   3.825 -0.0685 -1.3779 -0.1886
 8301TIP3    H224868   5.528   4.581   3.713 -0.2019  0.5698  0.8570
 8302TIP3   OH224869   6.491   4.091   3.008 -0.1473  0.0112  0.3256
 8302TIP3    H124870   6.490   4.118   2.916 -0.4443 -0.6009  0.1432
 8302TIP3    H224871   6.544   4.011   3.009  0.0332  0.1319  0.7232
 8303TIP3   OH224872   3.234   6.631   0.475  0.1579 -0.0650  0.4617
 8303TIP3    H124873   3.240   6.565   0.406  1.0868  1.2188 -0.7347
 8303TIP3    H224874   3.226   6.581   0.556 -0.1828 -1.6153 -0.4982
 8304TIP3   OH224875   5.746   3.141   5.033 -0.3319 -0.2924 -0.2635
 8304TIP3    H124876   5.782   3.113   4.949 -0.1202 -1.0908  0.0873
 8304TIP3    H224877   5.674   3.080   5.050 -0.3333 -0.1744  0.1704
 8305TIP3   OH224878   4.034   2.994   0.128  0.4163  0.1539 -0.0373
 8305TIP3    H124879   4.009   2.902   0.130  0.0128  0.2655  0.2460
 8305TIP3    H224880   3.988   3.030   0.052  0.1086  0.2509  0.1949
 8306TIP3   OH224881   0.681   6.141   0.087 -0.1626 -0.8442 -0.4341
 8306TIP3    H124882   0.731   6.217   0.059  1.2207 -2.4770 -2.6883
 8306TIP3    H224883   0.595   6.153   0.048  0.0091 -0.3775 -0.6781
 8307TIP3   OH224884   0.858   3.098   2.890  0.1494  0.0674  0.6078
 8307TIP3    H124885   0.895   3.014   2.866 -2.5964 -1.1874  0.3532
 8307TIP3    H224886   0.815   3.129   2.810  0.1679  1.1587  1.0040
 8308TIP3   OH224887   0.970   6.050   5.386  0.5715 -0.2258 -0.1671
 8308TIP3    H124888   0.961   6.145   5.378 -0.7446 -0.2517  0.7726
 8308TIP3    H224889   0.990   6.020   5.298 -0.8182  0.7446 -0.8443
 8309TIP3   OH224890   2.497   5.514   4.764 -0.5521  0.3607  0.0065
 8309TIP3    H124891   2.497   5.431   4.717 -1.6039  0.7063 -0.6347
 8309TIP3    H224892   2.471   5.579   4.699 -0.3955  1.0919  0.6575
 8310TIP3   OH224893   1.382   0.014   0.543  0.8850  0.3578 -0.6390
 8310TIP3    H124894   1.362   0.106   0.559  1.3702  0.3245  0.2656
 8310TIP3    H224895   1.333  -0.009   0.464  0.2951  1.2297 -0.5326
 8311TIP3   OH224896   3.728   1.075   4.993 -0.0970  0.2153  0.1866
 8311TIP3    H124897   3.757   1.042   4.908  1.3024 -0.4579  0.8785
 8311TIP3    H224898   3.637   1.100   4.980  0.0542  0.0201 -1.4699
 8312TIP3   OH224899   3.583   1.070   4.296 -0.0370  0.8300  0.4754
 8312TIP3    H124900   3.613   1.040   4.210 -2.0099  0.6892 -0.2194
 8312TIP3    H224901   3.634   1.149   4.313  0.7490  0.5736 -0.5972
 8313TIP3   OH224902   2.881   0.642   5.341 -0.1417  0.1848  0.2671
 8313TIP3    H124903   2.821   0.572   5.364 -1.4508  1.2576  0.2100
 8313TIP3    H224904   2.826   0.713   5.308  1.1799  1.0541 -0.1989
 8314TIP3   OH224905   5.599   3.100   3.783  0.5122 -0.4071  0.2037
 8314TIP3    H124906   5.513   3.061   3.797  0.5827 -0.6493 -0.0397
 8314TIP3    H224907   5.594   3.185   3.828  0.4693 -0.8238  1.0017
 8315TIP3   OH224908   1.847   0.045   2.441  0.3534 -0.3352 -0.2722
 8315TIP3    H124909   1.864   0.130   2.481  0.9729 -0.5076 -0.1560
 8315TIP3    H224910   1.918  -0.011   2.473 -0.0807 -0.9118 -0.2972
 8316TIP3   OH224911   1.884   4.378   5.802  0.1243  0.0555 -0.2868
 8316TIP3    H124912   1.913   4.409   5.716  2.4940  0.9421  0.7387
 8316TIP3    H224913   1.798   4.416   5.814  0.0490  0.4836 -1.9729
 8317TIP3   OH224914   3.488   0.396   0.646  0.4171  0.0132 -0.1571
 8317TIP3    H124915   3.466   0.473   0.593 -0.4646 -0.6138 -0.7298
 8317TIP3    H224916   3.538   0.431   0.720  2.5311  0.8208 -1.8463
 8318TIP3   OH224917   0.362   4.928   3.714  0.1143 -0.1256  0.4448
 8318TIP3    H124918   0.327   4.843   3.741  2.1654 -0.8146  1.1020
 8318TIP3    H224919   0.293   4.966   3.660 -0.8254 -2.2428  0.0507
 8319TIP3   OH224920   1.778   6.279   5.728 -0.4917 -0.0631 -0.6110
 8319TIP3    H124921   1.771   6.362   5.682  2.1551 -0.6181 -2.2161
 8319TIP3    H224922   1.804   6.303   5.817  0.9680  0.8373 -1.2517
 8320TIP3   OH224923   4.162   6.016   2.919  0.0213  0.6737 -0.4093
 8320TIP3    H124924   4.213   6.070   2.979 -0.9556  0.3222  0.7790
 8320TIP3    H224925   4.074   6.052   2.924 -0.1081  0.5461 -1.5509
 8321TIP3   OH224926   5.183   5.053   0.086  0.4750 -0.5674  0.5807
 8321TIP3    H124927   5.197   5.019   0.174 -0.9551 -0.3837  0.9091
 8321TIP3    H224928   5.209   5.145   0.092 -0.8589 -0.2023  1.2002
 8322TIP3   OH224929   5.553   5.467   0.063  0.2515 -0.3698  0.5652
 8322TIP3    H124930   5.615   5.420   0.007  0.1547 -0.4811  0.5507
 8322TIP3    H224931   5.593   5.466   0.150  1.5961  1.9275  0.0521
 8323TIP3   OH224932   0.534   0.980   4.626 -0.1164  0.3084 -0.4613
 8323TIP3    H124933   0.465   0.963   4.690  0.5226  2.0396  0.7630
 8323TIP3    H224934   0.604   1.022   4.677  0.9800  0.5044 -2.0521
 8324TIP3   OH224935   3.350   5.881   3.361  0.4340  0.1396 -0.0173
 8324TIP3    H124936   3.443   5.893   3.381  0.3400 -1.3371  1.4583
 8324TIP3    H224937   3.328   5.795   3.397 -1.2896  0.0310 -1.1982
 8325TIP3   OH224938   5.606   2.517   3.584  0.0157 -0.6882  0.3621
 8325TIP3    H124939   5.562   2.578   3.526 -0.1587 -1.1579 -0.0085
 8325TIP3    H224940   5.604   2.559   3.670  2.0530  0.9626 -0.3044
 8326TIP3   OH224941   1.452   0.723   3.193  0.5406 -0.0224 -0.1476
 8326TIP3    H124942   1.514   0.684   3.131 -1.4742 -0.4677 -1.9862
 8326TIP3    H224943   1.389   0.654   3.211  0.8585  0.2126  2.2120
 8327TIP3   OH224944   6.115   6.461   4.637  0.4395  0.2292  0.0825
 8327TIP3    H124945   6.020   6.453   4.633  0.5699 -1.0453 -1.2634
 8327TIP3    H224946   6.138   6.434   4.726 -0.3766 -0.5576  0.0657
 8328TIP3   OH224947   5.524   2.439   4.121  0.1247  0.0060  0.7044
 8328TIP3    H124948   5.444   2.435   4.068  0.6154  0.9698 -0.1439
 8328TIP3    H224949   5.510   2.513   4.180  0.8004  0.8695 -0.1812
 8329TIP3   OH224950   1.967   5.848   3.430 -0.1410  0.4979 -0.4430
 8329TIP3    H124951   1.970   5.851   3.526 -0.2231  2.3798 -0.4603
 8329TIP3    H224952   1.962   5.940   3.403 -3.5244 -0.0359 -2.1642
 8330TIP3   OH224953   1.587   2.007   5.051 -0.2432 -0.5498  0.3741
 8330TIP3    H124954   1.518   2.000   5.118 -0.7672  0.2575 -0.0704
 8330TIP3    H224955   1.615   2.098   5.055  1.3685 -1.0531  1.0852
 8331TIP3   OH224956   2.442   2.341   3.350 -0.3077  0.6652 -0.6608
 8331TIP3    H124957   2.459   2.418   3.296  0.2706  0.7020 -0.4381
 8331TIP3    H224958   2.511   2.279   3.324  0.8241  1.1694  0.9659
 8332TIP3   OH224959   0.384   3.155   0.334 -0.1312  0.0166 -0.0629
 8332TIP3    H124960   0.388   3.163   0.429  1.8393 -1.0439 -0.0087
 8332TIP3    H224961   0.320   3.085   0.319  0.2000 -0.4238  0.5327
 8333TIP3   OH224962   1.278   0.592   4.258  0.4804 -0.6008 -0.2697
 8333TIP3    H124963   1.354   0.567   4.311  0.6114 -0.0764 -0.2043
 8333TIP3    H224964   1.271   0.524   4.191  0.4217 -1.1756  0.3157
 8334TIP3   OH224965   0.864   4.531   3.589  0.3672 -0.1068  0.4377
 8334TIP3    H124966   0.887   4.499   3.502 -0.7513 -0.2919  0.1859
 8334TIP3    H224967   0.925   4.602   3.606  0.5204  0.0081 -0.5561
 8335TIP3   OH224968   0.980   2.683   0.474  0.2890  0.1874  0.1499
 8335TIP3    H124969   0.948   2.761   0.427  1.7205  1.6727  1.4799
 8335TIP3    H224970   1.066   2.710   0.507  0.3561 -1.6193  1.5604
 8336TIP3   OH224971   5.067   1.638   0.515  0.2875  0.5599 -0.0775
 8336TIP3    H124972   5.027   1.693   0.582  2.0514  2.1388 -0.2271
 8336TIP3    H224973   5.141   1.690   0.483  1.8043 -1.7542 -0.5351
 8337TIP3   OH224974   6.198   1.706   0.729 -0.8557 -0.8750  0.0299
 8337TIP3    H124975   6.291   1.690   0.745 -0.6675  2.0520  3.1833
 8337TIP3    H224976   6.196   1.755   0.647  0.6863  0.5574  0.7786
 8338TIP3   OH224977   2.634   1.704   4.475 -0.5346  0.0050  0.0537
 8338TIP3    H124978   2.592   1.771   4.530 -1.8400 -0.3345 -0.5112
 8338TIP3    H224979   2.562   1.648   4.446  0.2331 -0.2566 -1.4097
 8339TIP3   OH224980   1.900   6.181   0.157  0.4844  0.2601 -0.3284
 8339TIP3    H124981   1.807   6.158   0.156  0.3038  0.9606  0.0981
 8339TIP3    H224982   1.910   6.240   0.231  1.4696 -0.6155  0.2625
 8340TIP3   OH224983   6.581   2.843   5.262  0.2802 -0.3012 -0.2992
 8340TIP3    H124984   6.494   2.866   5.232  0.0493 -1.8530 -0.9416
 8340TIP3    H224985   6.582   2.747   5.262  2.2259 -0.3341 -1.0388
 8341TIP3   OH224986   4.237   4.145   1.789 -0.4564 -0.1346  0.3375
 8341TIP3    H124987   4.304   4.150   1.858  0.3638  1.5049 -0.5297
 8341TIP3    H224988   4.287   4.145   1.708 -1.4936 -0.1932 -0.3079
 8342TIP3   OH224989   3.645   3.959   5.343  0.2214  0.1937  0.5007
 8342TIP3    H124990   3.594   4.040   5.347  0.2504  0.2216  0.3272
 8342TIP3    H224991   3.718   3.973   5.402 -0.1726  0.0132  1.0356
 8343TIP3   OH224992   6.744   0.848   4.619 -0.0144 -0.6309  0.2549
 8343TIP3    H124993   6.690   0.819   4.546 -1.4051  1.7249  0.2661
 8343TIP3    H224994   6.800   0.916   4.583  1.3691 -1.4314  0.7854
 8344TIP3   OH224995   6.181   3.358   2.564 -0.1373  0.0466 -0.0171
 8344TIP3    H124996   6.274   3.341   2.546 -0.4466  0.1474 -1.8971
 8344TIP3    H224997   6.157   3.293   2.629  0.3738 -2.5120 -2.2000
 8345TIP3   OH224998   2.529   0.652   1.369  0.0397 -0.6078 -0.1022
 8345TIP3    H124999   2.550   0.602   1.290  0.4971  0.4618 -0.6885
 8345TIP3    H225000   2.483   0.590   1.426 -1.4560 -1.0560 -1.7306
 8346TIP3   OH225001   5.097   5.776   4.239 -0.6481  0.5418 -0.6344
 8346TIP3    H125002   5.191   5.797   4.235 -0.3744 -0.0584  1.5022
 8346TIP3    H225003   5.054   5.861   4.239  0.0028  0.8857  0.0296
 8347TIP3   OH225004   5.930   0.274   2.920  0.1186 -0.2088  0.6295
 8347TIP3    H125005   6.009   0.225   2.896  0.0792 -0.1177  0.3206
 8347TIP3    H225006   5.918   0.338   2.850  0.6075  0.7664  1.4090
 8348TIP3   OH225007   2.034   5.152   2.667 -0.1024 -0.9233 -0.2927
 8348TIP3    H125008   2.089   5.088   2.712 -0.1834 -0.9078 -0.1723
 8348TIP3    H225009   2.085   5.177   2.589  1.0422  0.7247  0.9225
 8349TIP3   OH225010   3.553   4.830   3.067  0.6578 -0.0764  0.0354
 8349TIP3    H125011   3.547   4.736   3.086  0.7726 -0.2371 -0.6935
 8349TIP3    H225012   3.539   4.872   3.152  2.3325 -0.8005  0.7125
 8350TIP3   OH225013   1.965   2.760   2.321 -0.0735 -0.0434 -0.1897
 8350TIP3    H125014   2.051   2.802   2.313 -1.2973  2.2866 -2.5308
 8350TIP3    H225015   1.961   2.732   2.413  1.6711  3.3209  1.0760
 8351TIP3   OH225016   0.050   3.073   1.107  0.3038 -0.1379 -0.5090
 8351TIP3    H125017  -0.005   2.996   1.090  0.9056 -0.6194 -0.3055
 8351TIP3    H225018   0.093   3.053   1.190 -0.7742  1.1334  0.3959
 8352TIP3   OH225019   6.403   3.682   1.910 -0.8667  0.0777  0.4754
 8352TIP3    H125020   6.451   3.600   1.921  1.4060  1.1034 -1.0814
 8352TIP3    H225021   6.330   3.660   1.852  1.6196 -0.3029 -2.7419
 8353TIP3   OH225022   6.560   4.053   4.683  0.1371  0.1881  0.0512
 8353TIP3    H125023   6.587   4.128   4.630  0.1621  0.2834  0.2008
 8353TIP3    H225024   6.640   4.023   4.726  0.4497 -0.8922 -1.2206
 8354TIP3   OH225025   3.006   6.059   2.013  0.5008  0.6658 -0.3740
 8354TIP3    H125026   2.983   6.145   1.979 -0.4959 -0.0289 -1.5514
 8354TIP3    H225027   3.038   6.076   2.102 -1.6885  2.0589  0.2312
 8355TIP3   OH225028   0.198   4.142   1.253  0.0403 -0.1813  0.2706
 8355TIP3    H125029   0.212   4.126   1.346 -0.1617 -0.6474  0.2269
 8355TIP3    H225030   0.111   4.106   1.236  0.4027 -0.8173 -0.2636
 8356TIP3   OH225031   3.652   4.575   3.041  0.3517 -0.1074  0.5254
 8356TIP3    H125032   3.664   4.523   2.962  0.1221  0.2755  0.2361
 8356TIP3    H225033   3.617   4.514   3.106  1.4455 -0.6526  0.6309
 8357TIP3   OH225034   1.494   5.081   4.246 -0.4003  0.0320  0.0762
 8357TIP3    H125035   1.410   5.124   4.258 -0.7976 -0.6296 -0.2864
 8357TIP3    H225036   1.497   5.060   4.152  0.1193 -0.0506  0.1083
 8358TIP3   OH225037   2.991   3.810   0.277 -0.1381 -0.4913 -0.3731
 8358TIP3    H125038   3.082   3.796   0.302 -0.3419 -0.5855  0.3475
 8358TIP3    H225039   2.994   3.881   0.213  0.2943  0.6020  0.8235
 8359TIP3   OH225040   6.970   1.024   4.898  0.0969  0.6601  0.3697
 8359TIP3    H125041   6.916   1.016   4.977  0.8826 -0.1575  0.8478
 8359TIP3    H225042   6.973   0.936   4.862 -0.7490  1.1426 -0.9269
 8360TIP3   OH225043   0.373   5.987   4.928 -0.1423 -0.4961 -1.2994
 8360TIP3    H125044   0.457   5.959   4.964 -1.2367 -2.2367  0.0965
 8360TIP3    H225045   0.367   5.942   4.844 -0.0548 -1.1253 -0.9756
 8361TIP3   OH225046   4.169   0.836   2.757 -0.0646  0.0971 -0.2169
 8361TIP3    H125047   4.097   0.782   2.789  0.3616 -0.9980 -1.0529
 8361TIP3    H225048   4.224   0.850   2.834 -0.7410  0.2790  0.2462
 8362TIP3   OH225049   4.235   3.105   0.619 -0.1352 -0.4415 -0.0184
 8362TIP3    H125050   4.145   3.075   0.608 -0.1271 -0.6155  0.3756
 8362TIP3    H225051   4.281   3.069   0.544 -0.7968  1.3157 -1.3457
 8363TIP3   OH225052   0.312   1.993   5.670  0.4652  0.1925 -0.0940
 8363TIP3    H125053   0.314   1.982   5.765  0.7392  0.6099 -0.0476
 8363TIP3    H225054   0.383   2.054   5.652 -0.7606  1.6045 -0.3596
 8364TIP3   OH225055   0.630   1.593   3.691 -0.1364 -0.1597  0.7150
 8364TIP3    H125056   0.562   1.628   3.749  0.0120 -1.5254  1.7553
 8364TIP3    H225057   0.638   1.659   3.622 -0.5545  1.3681  2.0481
 8365TIP3   OH225058   5.664   6.675   4.404 -0.1974  0.0856 -0.3674
 8365TIP3    H125059   5.710   6.688   4.321 -0.4854  0.4896 -0.4637
 8365TIP3    H225060   5.637   6.583   4.402  0.7864 -0.2187 -0.2179
 8366TIP3   OH225061   6.055   1.302   2.260 -0.4077  0.2209  0.1674
 8366TIP3    H125062   5.999   1.237   2.301  1.4540 -1.2539  0.5105
 8366TIP3    H225063   6.060   1.373   2.324 -0.5768 -0.3631  0.8425
 8367TIP3   OH225064   4.307   2.774   0.607  0.0168  0.0993  0.0617
 8367TIP3    H125065   4.213   2.781   0.620 -0.4055 -0.5831 -2.2323
 8367TIP3    H225066   4.323   2.817   0.523  1.6234 -0.4964  0.0281
 8368TIP3   OH225067   3.856   0.127   3.542 -0.5837  0.0799 -0.3645
 8368TIP3    H125068   3.923   0.195   3.550 -0.9520  0.4793 -0.6470
 8368TIP3    H225069   3.903   0.052   3.506 -0.2083  0.2370 -0.2162
 8369TIP3   OH225070   4.406   4.180   2.052 -0.4723 -0.1811 -0.0526
 8369TIP3    H125071   4.496   4.212   2.054 -0.5800  0.1296  2.2874
 8369TIP3    H225072   4.401   4.117   2.124 -1.0730 -3.3635 -2.6278
 8370TIP3   OH225073   6.058   4.323   2.202  0.3594  0.2723  0.0770
 8370TIP3    H125074   6.149   4.298   2.214  0.1679 -0.0918  0.7915
 8370TIP3    H225075   6.062   4.414   2.171  0.9501  0.3329  0.3264
 8371TIP3   OH225076   4.115   4.565   2.763  0.1491  0.3403 -0.7075
 8371TIP3    H125077   4.141   4.491   2.818 -0.3063 -0.2036 -1.2119
 8371TIP3    H225078   4.080   4.630   2.824  1.5542  0.5986 -0.1448
 8372TIP3   OH225079   1.955   1.106   5.437 -0.1549  0.2760  0.5499
 8372TIP3    H125080   2.037   1.086   5.392 -0.5730 -0.5738  0.1265
 8372TIP3    H225081   1.926   1.189   5.398  0.9407  1.0567  1.3495
 8373TIP3   OH225082   2.649   2.562   4.826  0.2100 -0.5237 -0.2512
 8373TIP3    H125083   2.687   2.650   4.831  0.5859 -0.7200  0.6152
 8373TIP3    H225084   2.679   2.528   4.742 -0.3399  0.3480 -0.8231
 8374TIP3   OH225085   3.610   2.510   4.872 -0.1261  0.5414 -0.1598
 8374TIP3    H125086   3.696   2.474   4.853 -0.3519 -0.5576  0.8312
 8374TIP3    H225087   3.627   2.599   4.901  0.6052  0.5683 -0.6392
 8375TIP3   OH225088   1.855   5.227   0.244 -0.7064  0.0830  0.5598
 8375TIP3    H125089   1.858   5.321   0.228 -0.8025  0.5257  2.7538
 8375TIP3    H225090   1.798   5.193   0.176 -0.7523  1.6297 -0.2183
 8376TIP3   OH225091   2.276   5.500   5.519 -0.6306 -0.2370  0.0952
 8376TIP3    H125092   2.191   5.508   5.562 -0.5132 -0.6301  0.4061
 8376TIP3    H225093   2.277   5.571   5.454  0.6681  2.8549  3.1613
 8377TIP3   OH225094   5.096   0.813   3.698 -0.4108 -0.4367  0.2495
 8377TIP3    H125095   5.131   0.902   3.685 -1.5907  0.1284  0.8020
 8377TIP3    H225096   5.035   0.822   3.771 -0.9140 -1.6134 -0.0109
 8378TIP3   OH225097   1.956   5.504   1.621 -0.4439 -0.0724  0.2355
 8378TIP3    H125098   1.978   5.418   1.584  2.1518  0.9911 -0.9247
 8378TIP3    H225099   1.943   5.561   1.545 -1.1147  0.8221  0.9924
 8379TIP3   OH225100   5.641   1.735   4.295 -0.6614 -0.3273 -0.7521
 8379TIP3    H125101   5.551   1.727   4.328 -0.2305  1.4921  1.0443
 8379TIP3    H225102   5.635   1.801   4.226 -0.6965 -0.1231 -0.5556
 8380TIP3   OH225103   4.863   2.020   4.081 -0.0874  0.1342 -0.3441
 8380TIP3    H125104   4.857   1.972   4.164  1.9121 -0.0334 -0.2327
 8380TIP3    H225105   4.817   1.966   4.018 -0.2351 -0.5528  0.3377
 8381TIP3   OH225106   0.650   4.206   2.632 -0.0168  0.8049  0.1640
 8381TIP3    H125107   0.588   4.155   2.684  1.0320 -0.6007  0.0950
 8381TIP3    H225108   0.607   4.217   2.547  0.0169 -0.6553 -0.0780
 8382TIP3   OH225109   6.564   1.368   0.177 -0.6574 -0.1509  0.0361
 8382TIP3    H125110   6.541   1.426   0.104 -1.0619 -0.9594 -0.4982
 8382TIP3    H225111   6.516   1.287   0.159 -1.1192 -0.2184  1.4438
 8383TIP3   OH225112   3.700   3.127   0.963  0.9293 -0.0437  0.5056
 8383TIP3    H125113   3.692   3.222   0.956 -0.1451 -0.1558  0.0372
 8383TIP3    H225114   3.610   3.095   0.959  1.3710 -1.2134 -1.2353
 8384TIP3   OH225115   6.246   2.329   5.174  0.5934  0.3722 -0.3974
 8384TIP3    H125116   6.215   2.354   5.087 -3.2982 -2.0066  0.0628
 8384TIP3    H225117   6.255   2.412   5.220 -0.1681  1.5436 -2.2224
 8385TIP3   OH225118   3.779   1.014   0.079 -0.2463 -0.4589  0.2741
 8385TIP3    H125119   3.777   1.059  -0.005 -1.2581 -0.5445  0.2351
 8385TIP3    H225120   3.864   0.970   0.082 -0.2327 -0.5082 -0.7326
 8386TIP3   OH225121   4.395   3.003   2.331 -0.0730 -0.5687 -0.0374
 8386TIP3    H125122   4.442   3.079   2.364  0.3490 -1.2976  1.1055
 8386TIP3    H225123   4.308   3.036   2.310 -0.0426  0.1434  0.8823
 8387TIP3   OH225124   1.854   4.363   1.908 -0.5421  0.0840 -0.1282
 8387TIP3    H125125   1.846   4.335   1.817  0.0044 -1.9218  0.3834
 8387TIP3    H225126   1.818   4.290   1.958 -2.8329  2.0134  1.2599
 8388TIP3   OH225127   5.786   6.565   5.029  0.6015  0.2203  0.1384
 8388TIP3    H125128   5.806   6.599   5.116  0.1370 -0.0991  0.3716
 8388TIP3    H225129   5.870   6.570   4.983  0.6588  1.1947  0.3214
 8389TIP3   OH225130   4.233   3.608   4.374 -0.0596  0.0931 -0.2748
 8389TIP3    H125131   4.327   3.594   4.367 -0.2034 -0.5281 -1.2204
 8389TIP3    H225132   4.223   3.703   4.376  0.5683  0.1703 -0.5760
 8390TIP3   OH225133   4.305   0.022   4.738  0.2886  0.0898  0.2004
 8390TIP3    H125134   4.291   0.072   4.658  0.6307  1.0972  0.7499
 8390TIP3    H225135   4.394  -0.011   4.731  0.4656  0.5313  0.3489
 8391TIP3   OH225136   1.136   4.138   3.929  0.3514 -0.0300 -0.6755
 8391TIP3    H125137   1.053   4.175   3.899 -0.3354 -0.8426  0.1913
 8391TIP3    H225138   1.203   4.191   3.884 -0.5792 -1.1826 -3.6785
 8392TIP3   OH225139   5.031   5.030   4.028  0.0323  0.4489 -0.1025
 8392TIP3    H125140   5.123   5.016   4.051 -0.1041  2.0251  1.6081
 8392TIP3    H225141   4.994   5.078   4.102 -2.1896 -0.1155 -0.7620
 8393TIP3   OH225142   0.238   6.617   1.769  0.0247 -0.0035  0.0304
 8393TIP3    H125143   0.254   6.527   1.796 -1.8073 -0.9528 -1.7805
 8393TIP3    H225144   0.309   6.667   1.810  1.4396 -2.3168  0.6131
 8394TIP3   OH225145   7.033   1.954   1.827 -0.7231  0.0977 -0.3690
 8394TIP3    H125146   7.041   2.023   1.892  0.4527  0.1945 -0.5963
 8394TIP3    H225147   7.079   1.987   1.750  0.6824 -1.2832 -0.1698
 8395TIP3   OH225148   3.463   3.982   0.217  0.4707 -0.0625  0.2796
 8395TIP3    H125149   3.473   4.057   0.276  0.3914  0.8877 -0.8748
 8395TIP3    H225150   3.551   3.966   0.182  0.4237 -0.2985  0.2630
 8396TIP3   OH225151   0.083   5.998   1.442  0.5080 -0.3161 -0.0419
 8396TIP3    H125152   0.098   5.920   1.496  0.8680  0.4093  0.9261
 8396TIP3    H225153   0.116   6.070   1.495 -2.1573  0.8284  0.1864
 8397TIP3   OH225154   6.611   3.458   1.611  0.0085 -0.0715 -0.2814
 8397TIP3    H125155   6.526   3.486   1.645 -0.1733 -0.1274 -0.6906
 8397TIP3    H225156   6.674   3.493   1.674 -0.3185 -0.0843  0.0586
 8398TIP3   OH225157   4.070   1.526   2.810 -0.2449 -0.2274  0.2168
 8398TIP3    H125158   4.111   1.471   2.743  0.6173 -0.1482  0.6740
 8398TIP3    H225159   4.103   1.614   2.791  0.4671 -0.2969  1.0970
 8399TIP3   OH225160   4.213   5.050   2.237  0.3782 -0.1860  0.1313
 8399TIP3    H125161   4.214   5.145   2.239  0.3293 -0.0906 -2.2805
 8399TIP3    H225162   4.136   5.026   2.289 -0.6014  1.1570 -0.6598
 8400TIP3   OH225163   6.280   1.976   4.849 -0.4448  0.2449 -0.6622
 8400TIP3    H125164   6.224   2.051   4.830 -0.9432 -0.2348 -1.1072
 8400TIP3    H225165   6.361   2.015   4.881 -1.1277  0.9491  0.2956
 8401TIP3   OH225166   3.563   4.656   4.731  0.1356 -0.0857  0.1906
 8401TIP3    H125167   3.614   4.641   4.651  2.9226 -3.0214  2.2448
 8401TIP3    H225168   3.482   4.609   4.717  0.8629 -1.1382 -0.6761
 8402TIP3   OH225169   2.811   6.257   1.002  0.6470 -0.2405 -0.2381
 8402TIP3    H125170   2.870   6.286   1.072 -1.4554  0.2370  1.4406
 8402TIP3    H225171   2.769   6.337   0.971 -1.4084 -0.8126  0.8477
 8403TIP3   OH225172   3.923   1.449   4.885 -0.0903  0.0478 -0.5312
 8403TIP3    H125173   3.924   1.535   4.843 -0.9842  0.3294 -0.0172
 8403TIP3    H225174   3.908   1.387   4.814 -1.4829  0.5092 -0.6833
 8404TIP3   OH225175   0.301   4.376   5.291  0.7376  0.2988  0.1643
 8404TIP3    H125176   0.229   4.440   5.291  0.3672 -0.0871  1.2420
 8404TIP3    H225177   0.380   4.429   5.307  0.4844  0.5507  0.6261
 8405TIP3   OH225178   5.347   1.046   0.325 -0.1147  0.3458 -0.7331
 8405TIP3    H125179   5.414   1.020   0.262 -1.3598  0.5319 -2.2074
 8405TIP3    H225180   5.392   1.103   0.387  1.6770 -1.7470 -0.0147
 8406TIP3   OH225181   6.338   0.058   4.670 -0.2586  0.2620 -0.1932
 8406TIP3    H125182   6.313   0.137   4.718 -0.8378  1.2374 -1.9893
 8406TIP3    H225183   6.256   0.025   4.634 -0.1241 -1.6072  1.1204
 8407TIP3   OH225184   6.169   2.323   1.704  0.0363  0.0094  0.1746
 8407TIP3    H125185   6.123   2.405   1.724  1.4025  0.7974  0.2488
 8407TIP3    H225186   6.198   2.290   1.789  1.6981  0.8319 -0.0293
 8408TIP3   OH225187   3.924   3.884   4.647  0.9838  0.2728  0.2835
 8408TIP3    H125188   3.939   3.855   4.557 -0.2294 -1.9220  0.7308
 8408TIP3    H225189   3.844   3.839   4.674  0.4831  2.0488  1.9856
 8409TIP3   OH225190   3.422   1.820   0.298  0.0318  0.1053  0.2803
 8409TIP3    H125191   3.486   1.841   0.365 -0.3340  0.5734  0.4879
 8409TIP3    H225192   3.337   1.823   0.343 -0.0661 -1.5026  0.2491
 8410TIP3   OH225193   4.965   3.244   2.072 -0.5240 -0.2831  0.2017
 8410TIP3    H125194   4.886   3.296   2.057  0.1700  1.3163  1.8172
 8410TIP3    H225195   4.997   3.224   1.984 -1.5910  0.8107 -0.4712
 8411TIP3   OH225196   4.659   1.340   1.106  0.1076  0.3138 -0.0405
 8411TIP3    H125197   4.581   1.312   1.153  0.0770  0.7968  0.2070
 8411TIP3    H225198   4.627   1.367   1.020  0.0514  0.1805 -0.0611
 8412TIP3   OH225199   7.184   0.252   4.973  0.4753  0.1502 -0.6460
 8412TIP3    H125200   7.136   0.190   5.028 -1.6271  1.3522 -1.0451
 8412TIP3    H225201   7.200   0.327   5.031  0.8393  0.2370 -0.8577
 8413TIP3   OH225202   7.014   2.410   0.687  0.0214  0.3927 -0.2477
 8413TIP3    H125203   7.104   2.441   0.678 -0.2623  0.9460 -1.3754
 8413TIP3    H225204   7.008   2.337   0.624 -0.1159 -0.1296  0.3595
 8414TIP3   OH225205   3.074   4.656   4.707  0.6257  0.9188 -0.1610
 8414TIP3    H125206   3.132   4.705   4.649  1.0133  0.6019 -0.0488
 8414TIP3    H225207   2.986   4.685   4.683  0.6516 -0.3587 -1.9947
 8415TIP3   OH225208   0.119   1.745   0.598 -0.1064 -0.9499 -0.2896
 8415TIP3    H125209   0.096   1.729   0.506 -0.9917 -1.0071 -0.0711
 8415TIP3    H225210   0.193   1.687   0.616 -0.6062 -1.7167 -0.6739
 8416TIP3   OH225211   6.419   3.455   2.048  0.3907 -0.6559 -0.0027
 8416TIP3    H125212   6.346   3.394   2.060 -0.6046  0.6163  0.7782
 8416TIP3    H225213   6.442   3.482   2.137  1.0653 -0.1839 -0.3105
 8417TIP3   OH225214   2.364   3.991   1.440  0.2919  0.3727  0.0771
 8417TIP3    H125215   2.438   3.952   1.487 -1.1298 -0.5274  1.7134
 8417TIP3    H225216   2.333   4.060   1.498 -1.2807 -0.5138  0.3396
 8418TIP3   OH225217   6.547   0.403   1.582 -0.0375 -0.7382 -0.4013
 8418TIP3    H125218   6.623   0.404   1.639 -0.1626  0.1615 -0.2361
 8418TIP3    H225219   6.581   0.426   1.495 -0.3527  1.5728  0.0187
 8419TIP3   OH225220   4.964   2.980   2.174 -0.6671 -0.0400 -0.3108
 8419TIP3    H125221   4.945   2.902   2.121  0.0601  0.5772 -1.5303
 8419TIP3    H225222   4.904   3.047   2.142 -1.5941 -0.1833  1.0350
 8420TIP3   OH225223   3.974   4.873   2.908 -0.0544  0.4720 -0.2349
 8420TIP3    H125224   4.023   4.955   2.915  0.7024  0.1010 -1.0123
 8420TIP3    H225225   4.008   4.818   2.979  1.4961 -0.1886 -1.4347
 8421TIP3   OH225226   6.870   1.917   3.352  0.2095 -0.1433 -0.1906
 8421TIP3    H125227   6.949   1.891   3.304  1.5179 -1.8256  2.6451
 8421TIP3    H225228   6.809   1.844   3.339 -0.6550  0.7783 -1.6747
 8422TIP3   OH225229   5.746   6.510   5.319  0.5635 -0.1460  0.5647
 8422TIP3    H125230   5.671   6.482   5.373  1.5194 -1.9511  1.0291
 8422TIP3    H225231   5.775   6.591   5.361 -1.2249  0.7223  0.2466
 8423TIP3   OH225232   0.696   3.530   0.913 -0.3051  0.0923  0.1374
 8423TIP3    H125233   0.601   3.541   0.920 -0.3220 -0.3939  0.7754
 8423TIP3    H225234   0.729   3.618   0.896 -0.7118  0.5931  1.7519
 8424TIP3   OH225235   0.999   1.535   2.336 -0.3260  0.6806 -0.5412
 8424TIP3    H125236   0.969   1.540   2.245  1.3388 -0.7365 -1.2262
 8424TIP3    H225237   1.094   1.528   2.329 -0.3065 -3.0464  1.0655
 8425TIP3   OH225238   2.346   5.655   0.416  0.2295 -0.2511  0.0371
 8425TIP3    H125239   2.414   5.654   0.348 -1.0314  1.1621 -1.3247
 8425TIP3    H225240   2.341   5.748   0.442 -2.9337  0.2024 -1.7954
 8426TIP3   OH225241   4.060   0.108   4.015 -0.0604  0.4577 -0.3635
 8426TIP3    H125242   4.106   0.049   3.955 -0.9119 -0.3743 -0.2188
 8426TIP3    H225243   3.991   0.147   3.961  0.1216  0.8631 -0.3036
 8427TIP3   OH225244   4.397   1.459   2.259 -0.2004  0.0173  0.1457
 8427TIP3    H125245   4.487   1.489   2.250  0.4142 -1.0530  2.0898
 8427TIP3    H225246   4.404   1.363   2.264 -1.0690 -0.0157  2.9476
 8428TIP3   OH225247   6.430   0.243   4.073 -0.1844  0.5048  0.2448
 8428TIP3    H125248   6.453   0.151   4.077 -0.1232  0.5575  2.1421
 8428TIP3    H225249   6.368   0.255   4.145 -0.6471  1.8238 -0.3417
 8429TIP3   OH225250   2.303   3.184   3.210 -0.0725 -0.4046 -0.6460
 8429TIP3    H125251   2.397   3.194   3.224  0.0383  0.1521 -1.6476
 8429TIP3    H225252   2.263   3.249   3.268  0.3713  1.9643 -2.8264
 8430TIP3   OH225253   3.269   5.827   3.077 -0.6742 -0.3676 -0.0554
 8430TIP3    H125254   3.302   5.819   3.166 -1.4165  0.7188  0.3263
 8430TIP3    H225255   3.181   5.792   3.080 -0.7412 -0.2269 -0.3380
 8431TIP3   OH225256   1.487   1.091   4.484  0.9479 -0.3566  0.8869
 8431TIP3    H125257   1.464   1.164   4.426  0.7175 -0.0579  1.3553
 8431TIP3    H225258   1.566   1.053   4.444 -0.4808 -1.6033 -0.9513
 8432TIP3   OH225259   6.776   4.860   3.509  0.0682  0.1067 -0.0175
 8432TIP3    H125260   6.712   4.898   3.570 -0.3372 -1.0597  0.3264
 8432TIP3    H225261   6.767   4.912   3.429  0.8536  1.8960  1.0037
 8433TIP3   OH225262   6.868   0.863   3.663  0.3262  0.2153  0.0269
 8433TIP3    H125263   6.810   0.921   3.712  0.6561  0.2542  0.3701
 8433TIP3    H225264   6.945   0.853   3.718 -0.3211 -1.6997  0.6345
 8434TIP3   OH225265   3.679   0.134   2.881  0.1055 -0.2222  0.2469
 8434TIP3    H125266   3.669   0.039   2.884 -0.5193 -0.1464  0.7305
 8434TIP3    H225267   3.733   0.150   2.804 -0.8913 -0.8713 -0.6049
 8435TIP3   OH225268   0.865   0.975   3.707 -0.2325 -0.3035  0.1411
 8435TIP3    H125269   0.814   0.936   3.637 -0.1497 -0.6093  0.2485
 8435TIP3    H225270   0.915   0.902   3.744  0.3062 -0.0053  0.0140
 8436TIP3   OH225271   2.779   6.453   0.275 -0.5888  0.6080 -0.2955
 8436TIP3    H125272   2.691   6.486   0.257 -0.6194 -0.8189 -3.3100
 8436TIP3    H225273   2.821   6.449   0.190  1.6815 -0.7602  0.8119
 8437TIP3   OH225274   5.620   5.756   3.176  0.2590 -0.0965  0.3051
 8437TIP3    H125275   5.579   5.675   3.207  1.7940 -0.9959  0.1157
 8437TIP3    H225276   5.557   5.794   3.115 -0.3887 -1.2855  0.2094
 8438TIP3   OH225277   5.181   3.318   2.739  0.2554 -0.0560  0.1282
 8438TIP3    H125278   5.211   3.373   2.811  1.9575 -1.6143  0.6911
 8438TIP3    H225279   5.239   3.340   2.666 -0.7963  0.7778 -0.4785
 8439TIP3   OH225280   1.698   1.269   1.812 -0.8644  0.0282 -0.1671
 8439TIP3    H125281   1.642   1.347   1.808  0.4490  1.1258  1.5579
 8439TIP3    H225282   1.786   1.303   1.823 -0.4516 -1.6826  2.8654
 8440TIP3   OH225283   0.088   1.549   3.920  0.0234  0.0587 -0.1750
 8440TIP3    H125284   0.154   1.575   3.856  1.6520  0.4676  1.5604
 8440TIP3    H225285   0.136   1.494   3.983 -1.8277 -1.5397 -0.0655
 8441TIP3   OH225286   5.000   1.037   5.157 -0.7884 -0.0914 -0.0195
 8441TIP3    H125287   4.931   0.983   5.196 -0.4402 -0.3272  0.2648
 8441TIP3    H225288   5.079   0.985   5.164 -0.1966  0.9330  1.3488
 8442TIP3   OH225289   3.805   3.431   4.067 -0.3041 -0.2874 -0.0876
 8442TIP3    H125290   3.856   3.497   4.114  1.1173 -0.2824 -1.5775
 8442TIP3    H225291   3.804   3.355   4.126 -0.9515  0.6309  1.1303
 8443TIP3   OH225292   3.278   2.327   1.342  0.3094 -0.1189 -0.4999
 8443TIP3    H125293   3.301   2.243   1.382 -0.9418  0.4220  1.5244
 8443TIP3    H225294   3.225   2.303   1.265 -2.1962 -1.2773  1.4253
 8444TIP3   OH225295   4.313   2.023   4.771 -0.3169 -0.9077  0.9793
 8444TIP3    H125296   4.279   1.975   4.846 -0.5908 -0.3470  1.2192
 8444TIP3    H225297   4.241   2.023   4.708 -0.0776 -1.4033  0.6955
 8445TIP3   OH225298   3.188   2.708   4.912 -0.6973  0.2376 -0.6191
 8445TIP3    H125299   3.217   2.782   4.859 -0.3478  0.8277  0.3796
 8445TIP3    H225300   3.142   2.651   4.850  1.5948 -0.2022 -2.0504
 8446TIP3   OH225301   2.404   5.521   1.315  0.2022  0.1881  0.3387
 8446TIP3    H125302   2.329   5.552   1.263 -0.7566  0.3078  1.7354
 8446TIP3    H225303   2.395   5.426   1.315  1.5318 -0.0034 -1.5792
 8447TIP3   OH225304   4.688   4.428   0.733 -0.4530  0.1349  0.0996
 8447TIP3    H125305   4.651   4.466   0.653 -1.2181 -0.6614  0.0623
 8447TIP3    H225306   4.619   4.441   0.799  0.6011  1.8169  0.9563
 8448TIP3   OH225307   4.650   1.650   3.597  0.4093  0.3165  0.1305
 8448TIP3    H125308   4.696   1.633   3.679 -1.1173 -0.4870  0.8444
 8448TIP3    H225309   4.657   1.568   3.548  1.1696  0.7398 -0.5043
 8449TIP3   OH225310   6.665   4.069   5.488  0.0210  0.7840 -0.2000
 8449TIP3    H125311   6.599   4.132   5.458 -1.6865 -2.3712 -3.9961
 8449TIP3    H225312   6.728   4.064   5.416 -0.9573 -2.9411 -1.0487
 8450TIP3   OH225313   3.650   6.111   1.763 -0.2163 -0.0641 -0.1521
 8450TIP3    H125314   3.738   6.110   1.801 -0.3962 -2.2818  0.3157
 8450TIP3    H225315   3.656   6.173   1.690  0.9989  1.8295  1.4607
 8451TIP3   OH225316   3.783   6.626   4.812  0.4990  0.3063  0.5502
 8451TIP3    H125317   3.692   6.654   4.808  0.0538 -0.6326  2.8661
 8451TIP3    H225318   3.803   6.619   4.905  2.4243 -1.1736  0.1069
 8452TIP3   OH225319   0.901   6.118   3.598 -0.4564  0.0889 -0.7728
 8452TIP3    H125320   0.972   6.133   3.537 -1.2576  2.3802 -1.2533
 8452TIP3    H225321   0.935   6.148   3.683 -0.7372  0.9592 -0.9567
 8453TIP3   OH225322   4.113   6.725   5.176 -0.2906 -0.0818  0.7474
 8453TIP3    H125323   4.184   6.661   5.184 -0.5971 -0.3985  0.9536
 8453TIP3    H225324   4.090   6.723   5.083  0.8366  0.9679  0.4215
 8454TIP3   OH225325   6.140   5.764   2.129 -0.8931  0.1899  0.7469
 8454TIP3    H125326   6.211   5.778   2.191 -0.1408 -0.5989  0.0962
 8454TIP3    H225327   6.086   5.843   2.135  0.4151  1.1062  0.7602
 8455TIP3   OH225328   2.996   2.534   1.662 -0.9685  0.3429  1.0460
 8455TIP3    H125329   2.932   2.604   1.651  0.2661  1.9736  3.3541
 8455TIP3    H225330   2.998   2.518   1.756  0.2213 -1.4212  0.7659
 8456TIP3   OH225331   6.441   5.107   2.270 -0.1450  0.6850  0.2844
 8456TIP3    H125332   6.362   5.070   2.230 -0.3085 -1.6702  2.5301
 8456TIP3    H225333   6.408   5.179   2.324 -0.7790 -0.1136  1.0007
 8457TIP3   OH225334   3.808   0.832   4.684  0.5293  0.1967  0.0978
 8457TIP3    H125335   3.867   0.841   4.759  1.6752 -0.9353 -0.6182
 8457TIP3    H225336   3.762   0.750   4.700 -0.2738  0.6684  0.2480
 8458TIP3   OH225337   3.885   6.350   2.860 -0.4083 -0.0769 -0.2045
 8458TIP3    H125338   3.812   6.391   2.906 -0.2887 -2.8904  2.8023
 8458TIP3    H225339   3.963   6.385   2.903 -0.2187 -1.0163  0.2492
 8459TIP3   OH225340   1.505   5.049   3.943  0.0982  0.3488  0.2389
 8459TIP3    H125341   1.521   4.961   3.909  1.4700  1.3540 -1.9181
 8459TIP3    H225342   1.412   5.065   3.928  0.1842 -0.1507 -0.8364
 8460TIP3   OH225343   5.301   5.038   3.210 -0.4037  0.0928  0.8327
 8460TIP3    H125344   5.343   5.122   3.191 -3.0126  1.2600 -0.2888
 8460TIP3    H225345   5.310   5.028   3.305  1.3968  0.7774  0.7649
 8461TIP3   OH225346   5.755   1.757   4.021  0.0722 -0.2643  0.0726
 8461TIP3    H125347   5.783   1.765   3.930 -1.5756 -2.2624 -0.6852
 8461TIP3    H225348   5.659   1.757   4.017 -0.0294 -0.1130  1.8419
 8462TIP3   OH225349   4.514   6.517   5.075  0.3367 -0.3363 -0.3719
 8462TIP3    H125350   4.592   6.504   5.129 -0.6095 -1.7156  0.7248
 8462TIP3    H225351   4.445   6.539   5.138 -0.4004 -0.1387 -1.2269
 8463TIP3   OH225352   2.360   2.707   1.580 -0.2796  0.2805  0.7704
 8463TIP3    H125353   2.348   2.788   1.629  0.2492 -0.8942  2.9997
 8463TIP3    H225354   2.440   2.721   1.529  0.2923  0.8693  1.8056
 8464TIP3   OH225355   6.909   2.831   2.903  0.4074  0.2177 -0.1586
 8464TIP3    H125356   6.870   2.902   2.954 -0.2504 -0.6230  0.5427
 8464TIP3    H225357   6.981   2.799   2.957  0.7026  0.3463 -0.4728
 8465TIP3   OH225358   0.887   1.331   4.821 -0.1168 -0.1217 -0.3734
 8465TIP3    H125359   0.896   1.265   4.753 -0.6353  0.5530 -1.1201
 8465TIP3    H225360   0.898   1.415   4.775 -1.3402  0.3825  0.2049
 8466TIP3   OH225361   1.908   2.903   2.695  0.8264  0.2039 -0.3383
 8466TIP3    H125362   1.937   2.941   2.778 -1.4755 -2.0056  1.6165
 8466TIP3    H225363   1.950   2.818   2.691 -1.4535 -1.0135  0.1758
 8467TIP3   OH225364   4.892   3.790   0.385  0.1757 -0.1267 -0.4922
 8467TIP3    H125365   4.871   3.799   0.292 -0.6758  0.4647 -0.2634
 8467TIP3    H225366   4.907   3.696   0.398 -2.2007 -0.6237 -0.7614
 8468TIP3   OH225367   1.550   5.695   0.757  0.5840 -0.1092  0.4272
 8468TIP3    H125368   1.596   5.773   0.729 -0.7334  0.0084 -1.6329
 8468TIP3    H225369   1.616   5.626   0.756  1.3249  0.5868  0.3691
 8469TIP3   OH225370   7.196   0.457   3.254 -0.5932 -0.4283  0.1468
 8469TIP3    H125371   7.232   0.545   3.240 -1.0357 -0.0983  1.0094
 8469TIP3    H225372   7.149   0.464   3.337 -1.4999 -1.2114 -0.2903
 8470TIP3   OH225373   1.786   4.258   1.200 -0.2500  0.3899  0.2190
 8470TIP3    H125374   1.693   4.248   1.224 -0.0289 -0.0654  0.9518
 8470TIP3    H225375   1.810   4.173   1.164  0.1098  0.2098  0.8706
 8471TIP3   OH225376   4.658   6.624   2.826  0.3818 -0.2484 -0.1310
 8471TIP3    H125377   4.720   6.687   2.863 -0.1866  0.8911 -1.0546
 8471TIP3    H225378   4.573   6.668   2.831 -0.0229 -0.9235 -0.8033
 8472TIP3   OH225379   1.741   4.246   4.860  0.6472  0.1439 -0.3316
 8472TIP3    H125380   1.652   4.258   4.891  1.1756 -0.7043  1.7326
 8472TIP3    H225381   1.787   4.326   4.888  0.2153  1.3997 -2.9597
 8473TIP3   OH225382   1.576   0.581   0.913 -0.2807  0.0950 -0.3237
 8473TIP3    H125383   1.521   0.529   0.972  0.8833 -1.0266 -0.2080
 8473TIP3    H225384   1.591   0.663   0.962 -0.7349 -0.1293  0.2088
 8474TIP3   OH225385   4.398   1.292   3.419  0.5085  0.1061 -0.0096
 8474TIP3    H125386   4.314   1.248   3.409  0.7032 -0.1399 -0.5808
 8474TIP3    H225387   4.433   1.258   3.501  0.6657 -0.8242 -0.4563
 8475TIP3   OH225388   1.547   1.085   0.381 -0.8087  0.2072 -0.0409
 8475TIP3    H125389   1.586   0.999   0.397 -0.2011  0.3991 -0.4606
 8475TIP3    H225390   1.472   1.089   0.441 -0.3092 -0.2449  0.6258
 8476TIP3   OH225391   2.050   4.821   4.797  0.7958  0.5449 -0.0867
 8476TIP3    H125392   2.084   4.750   4.743 -0.1546 -0.8337  1.0417
 8476TIP3    H225393   1.966   4.789   4.828  0.8094  1.7470  1.3018
 8477TIP3   OH225394   1.158   3.578   0.105  0.2211 -0.4930 -0.3490
 8477TIP3    H125395   1.110   3.652   0.068 -1.5886 -0.5243  1.7860
 8477TIP3    H225396   1.147   3.508   0.040  0.0434  0.4210 -1.3361
 8478TIP3   OH225397   4.547   1.895   2.481 -0.3590 -0.0652  0.2015
 8478TIP3    H125398   4.515   1.915   2.569 -0.9718  1.1758 -0.2853
 8478TIP3    H225399   4.488   1.943   2.422  0.6729 -0.0266 -0.8355
 8479TIP3   OH225400   6.167   2.927   3.638  0.6804  0.1054  0.3686
 8479TIP3    H125401   6.076   2.911   3.661 -0.0588  1.4545 -1.4030
 8479TIP3    H225402   6.190   3.007   3.685  1.0591 -0.3920  1.0424
 8480TIP3   OH225403   1.410   2.992   2.270 -0.4020  0.1755 -0.8417
 8480TIP3    H125404   1.419   2.984   2.364 -1.6349 -1.6077 -0.8435
 8480TIP3    H225405   1.498   2.978   2.236  0.0227  0.6890  0.0185
 8481TIP3   OH225406   3.277   3.515   5.194 -0.4930  0.4515  0.2308
 8481TIP3    H125407   3.358   3.500   5.146 -0.8489  0.1345 -0.2792
 8481TIP3    H225408   3.267   3.437   5.250 -0.1457  0.7618  0.7387
 8482TIP3   OH225409   5.080   4.169   4.999 -0.3042  0.1528 -0.0490
 8482TIP3    H125410   5.024   4.109   4.950 -0.0680 -0.3196  0.2517
 8482TIP3    H225411   5.038   4.255   4.991 -0.4922 -0.0004 -0.7192
 8483TIP3   OH225412   0.496   2.722   1.798 -0.0284 -0.2010  0.0221
 8483TIP3    H125413   0.590   2.737   1.788  0.0043 -0.5293 -0.1970
 8483TIP3    H225414   0.473   2.667   1.723 -0.1807 -1.0270  0.6546
 8484TIP3   OH225415   5.077   3.677   2.459 -0.0858 -0.0721  0.3062
 8484TIP3    H125416   5.077   3.723   2.542  1.1959 -2.6510  1.8578
 8484TIP3    H225417   5.162   3.633   2.455 -0.4024 -0.6073 -2.0292
 8485TIP3   OH225418   3.916   2.849   2.224  0.2457  0.4061 -0.3260
 8485TIP3    H125419   4.006   2.853   2.193  1.1540 -1.2349  1.7964
 8485TIP3    H225420   3.914   2.910   2.297 -0.6408  1.1059 -0.9253
 8486TIP3   OH225421   1.468   6.347   2.210 -0.2730  0.4938  0.5956
 8486TIP3    H125422   1.545   6.300   2.243  0.7737  1.8688  0.1876
 8486TIP3    H225423   1.497   6.387   2.128 -1.2763  1.4558  0.6909
 8487TIP3   OH225424   6.224   4.934   2.961 -0.3603 -0.0414  0.1051
 8487TIP3    H125425   6.202   4.841   2.954 -2.5450  0.4664 -0.5266
 8487TIP3    H225426   6.294   4.937   3.026 -1.6971 -1.9489  1.7623
 8488TIP3   OH225427   5.667   0.715   2.128  0.2456  0.3205 -0.1511
 8488TIP3    H125428   5.592   0.658   2.112 -2.1588  3.4866 -1.0922
 8488TIP3    H225429   5.699   0.738   2.041  0.5682  1.1448  0.1734
 8489TIP3   OH225430   7.112   5.395   5.489  0.0758 -0.4869 -0.1504
 8489TIP3    H125431   7.172   5.435   5.426  0.7815  0.9104  1.3477
 8489TIP3    H225432   7.168   5.341   5.545 -0.2137 -0.0169  0.6043
 8490TIP3   OH225433   4.639   0.737   3.157  0.4667  0.1255 -0.3151
 8490TIP3    H125434   4.662   0.644   3.152 -0.4563 -0.0956 -0.7545
 8490TIP3    H225435   4.717   0.783   3.125  0.8212 -0.5158 -0.3901
 8491TIP3   OH225436   2.568   6.330   1.327 -0.1914  0.5839 -0.5994
 8491TIP3    H125437   2.490   6.320   1.273  0.2582  1.6926 -1.4961
 8491TIP3    H225438   2.556   6.412   1.373 -0.7416 -0.5339  1.3592
 8492TIP3   OH225439   3.053   0.188  -0.023  0.1058  0.1515  0.2541
 8492TIP3    H125440   3.025   0.273   0.009  0.9954  0.7557 -0.5072
 8492TIP3    H225441   3.137   0.172   0.020 -0.7561 -1.0781  1.5818
 8493TIP3   OH225442   1.445   5.387   2.294  0.3782 -0.1965  0.1197
 8493TIP3    H125443   1.425   5.305   2.248  0.5040 -0.5065  0.6126
 8493TIP3    H225444   1.536   5.406   2.271 -0.3726  1.1408 -2.0103
 8494TIP3   OH225445   4.053   4.161   1.169 -0.3096  0.2837 -0.0561
 8494TIP3    H125446   4.137   4.150   1.213  0.0266  1.6258 -0.3335
 8494TIP3    H225447   3.994   4.100   1.214  0.6769 -0.2943  0.4722
 8495TIP3   OH225448   0.750   4.187   4.190  0.5484  0.3745 -0.0606
 8495TIP3    H125449   0.750   4.092   4.201 -0.7808  0.5541  2.0369
 8495TIP3    H225450   0.800   4.201   4.110 -0.3860 -2.1713 -1.2285
 8496TIP3   OH225451   4.363   2.043   3.481 -0.0419 -0.1656 -0.0718
 8496TIP3    H125452   4.421   1.966   3.480 -1.8994 -1.6937  1.5583
 8496TIP3    H225453   4.293   2.020   3.419 -0.5569  0.2549  0.3482
 8497TIP3   OH225454   6.176   3.183   3.756 -0.1587  0.3154  0.0410
 8497TIP3    H125455   6.119   3.255   3.781 -1.2284 -1.7698  4.6936
 8497TIP3    H225456   6.252   3.191   3.813 -0.5250 -2.3113  1.0556
 8498TIP3   OH225457   0.895   2.225   2.828 -0.1853 -0.1759 -0.0218
 8498TIP3    H125458   0.888   2.163   2.901 -2.7583 -1.4489 -1.1918
 8498TIP3    H225459   0.838   2.188   2.760 -0.0256  2.3352 -1.6611
 8499TIP3   OH225460   4.839   3.868   1.134  0.7685  0.9550  0.3003
 8499TIP3    H125461   4.834   3.923   1.055  3.3661  0.1618 -0.5064
 8499TIP3    H225462   4.771   3.802   1.121  0.5657  1.3585 -0.8286
 8500TIP3   OH225463   2.183   5.680   3.405  0.6838 -0.8500 -0.0046
 8500TIP3    H125464   2.154   5.591   3.385 -0.6973 -0.8935  1.8564
 8500TIP3    H225465   2.102   5.727   3.424  1.5248  0.3335  0.7669
 8501TIP3   OH225466   6.908   6.502   1.508  0.1663 -0.9615  0.0415
 8501TIP3    H125467   6.814   6.499   1.520  0.0829 -1.9383 -0.7440
 8501TIP3    H225468   6.944   6.469   1.590 -0.0636  1.5689  1.2626
 8502TIP3   OH225469   0.591   0.932   2.747 -0.1498 -0.1353  0.0518
 8502TIP3    H125470   0.513   0.920   2.801 -1.5484  0.5053 -1.7384
 8502TIP3    H225471   0.635   1.008   2.785 -0.5847 -0.2782  0.8638
 8503TIP3   OH225472   2.809   0.148   0.655 -0.3181 -0.0419  0.4525
 8503TIP3    H125473   2.863   0.069   0.650 -1.1386 -0.7595  2.3281
 8503TIP3    H225474   2.774   0.158   0.566  0.6498 -1.1640 -0.0835
 8504TIP3   OH225475   6.697   1.766   4.322 -0.2422  0.4679  0.3702
 8504TIP3    H125476   6.694   1.833   4.254  0.5080  0.8735  0.7329
 8504TIP3    H225477   6.615   1.718   4.311 -0.3795  0.8763 -0.4649
 8505TIP3   OH225478   6.692   6.716   0.250 -0.1927 -0.0400  0.4197
 8505TIP3    H125479   6.645   6.634   0.236  2.7204 -1.8768  0.5252
 8505TIP3    H225480   6.718   6.744   0.162  0.1727 -0.1001  0.5083
 8506TIP3   OH225481   2.848   1.566   0.459 -0.6205  0.4974  0.1962
 8506TIP3    H125482   2.753   1.552   0.470 -0.2410 -3.2850 -0.0154
 8506TIP3    H225483   2.880   1.579   0.548 -1.1620  0.3315  0.4219
 8507TIP3   OH225484   0.167   6.017   3.737 -0.3854  0.2724 -0.3778
 8507TIP3    H125485   0.191   6.081   3.669  1.7035 -0.9687 -0.9001
 8507TIP3    H225486   0.234   6.028   3.805 -0.7318 -0.5070  0.0990
 8508TIP3   OH225487   3.549   4.912   5.409 -0.3639  0.0545  0.2089
 8508TIP3    H125488   3.528   4.841   5.348 -0.6337 -0.0302  0.3993
 8508TIP3    H225489   3.465   4.954   5.427 -0.0043  1.6351 -1.3840
 8509TIP3   OH225490   3.476   0.967   1.618 -0.3300  0.2503 -0.1014
 8509TIP3    H125491   3.551   0.908   1.616 -0.1327  0.4470 -3.0751
 8509TIP3    H225492   3.400   0.910   1.606 -0.8559 -0.0122  3.4004
 8510TIP3   OH225493   0.246   0.795   3.407 -0.4948 -0.6383 -0.0838
 8510TIP3    H125494   0.273   0.727   3.469  1.1263 -1.1353 -1.2854
 8510TIP3    H225495   0.152   0.806   3.423 -0.0189 -0.1537  3.0107
 8511TIP3   OH225496   3.712   2.204   1.082  0.4174  0.1201  0.2923
 8511TIP3    H125497   3.657   2.186   1.006  1.4666  0.6346 -0.6243
 8511TIP3    H225498   3.750   2.290   1.065 -0.7951  1.1260  2.3300
 8512TIP3   OH225499   0.255   4.377   3.112 -0.2075 -0.4463  0.4010
 8512TIP3    H125500   0.221   4.419   3.033  1.1669 -0.7483 -0.3804
 8512TIP3    H225501   0.190   4.311   3.134  0.2988 -1.7358 -1.6731
 8513TIP3   OH225502   2.487   4.885   4.672  0.2353 -0.1431 -0.3797
 8513TIP3    H125503   2.459   4.901   4.762 -0.8673  0.0237 -0.7372
 8513TIP3    H225504   2.537   4.803   4.676  1.4804  0.6346  0.6113
 8514TIP3   OH225505   0.200   5.610   1.033 -0.0869  0.2753 -0.4978
 8514TIP3    H125506   0.174   5.612   0.941  0.5109  0.7998 -0.6600
 8514TIP3    H225507   0.271   5.546   1.037 -0.9597 -0.7168 -0.1565
 8515TIP3   OH225508   4.863   1.472   1.393 -0.1270 -0.3252 -0.3865
 8515TIP3    H125509   4.862   1.560   1.430  1.1093 -0.8531  1.0023
 8515TIP3    H225510   4.783   1.431   1.424  0.6058 -0.5628  1.2994
 8516TIP3   OH225511   1.708   1.145   3.209 -0.2735  0.5946  0.6125
 8516TIP3    H125512   1.752   1.183   3.133  0.5765  0.4891  1.0353
 8516TIP3    H225513   1.745   1.192   3.284  0.4546 -0.7074  1.1129
 8517TIP3   OH225514   3.492   2.767   3.085 -0.3636 -0.1751  0.0287
 8517TIP3    H125515   3.587   2.760   3.079 -0.3075  0.5653 -0.0978
 8517TIP3    H225516   3.475   2.794   3.175 -0.5528 -1.6055  0.4440
 8518TIP3   OH225517   6.238   1.274   4.830 -0.0517  0.2708 -0.3057
 8518TIP3    H125518   6.193   1.208   4.778  0.5641 -1.0080  0.7076
 8518TIP3    H225519   6.168   1.329   4.865 -0.8243 -1.2562  0.6889
 8519TIP3   OH225520   4.557   1.458   0.872 -0.2683 -0.1467  0.2457
 8519TIP3    H125521   4.518   1.403   0.804  0.2270 -1.0791  0.6936
 8519TIP3    H225522   4.486   1.472   0.935  0.0450 -1.7845  1.0289
 8520TIP3   OH225523   6.866   3.768   5.447 -0.0072  0.6028 -0.1481
 8520TIP3    H125524   6.849   3.678   5.420  0.5410  0.1757  0.8636
 8520TIP3    H225525   6.782   3.801   5.478 -0.4058  0.7456 -1.3454
 8521TIP3   OH225526   0.707   1.745   4.045 -0.2810  0.5197  0.6621
 8521TIP3    H125527   0.697   1.651   4.063 -0.5086  0.3463 -0.2954
 8521TIP3    H225528   0.623   1.771   4.008  0.9649  0.1763 -2.7970
 8522TIP3   OH225529   6.257   2.063   1.400  0.3253 -0.3009  0.1016
 8522TIP3    H125530   6.194   2.021   1.458  0.4528 -0.3150  0.2310
 8522TIP3    H225531   6.297   1.991   1.352 -0.5049 -0.2156 -0.7466
 8523TIP3   OH225532   5.533   6.456   5.748 -0.7207 -0.0664  0.1693
 8523TIP3    H125533   5.550   6.540   5.791 -2.1209  0.1323  0.3687
 8523TIP3    H225534   5.620   6.416   5.739  0.2299  2.2043 -1.7054
 8524TIP3   OH225535   2.490   1.249   2.631 -0.3520 -0.1403 -0.2568
 8524TIP3    H125536   2.397   1.226   2.631 -0.1510 -1.1236 -1.8648
 8524TIP3    H225537   2.536   1.165   2.635  0.4229  0.0916 -2.8305
 8525TIP3   OH225538   4.657   5.077   2.389  0.0113  0.1777  0.2216
 8525TIP3    H125539   4.583   5.108   2.337 -1.8362 -1.3921  1.7821
 8525TIP3    H225540   4.666   5.142   2.459 -2.0345 -1.1555  1.8514
 8526TIP3   OH225541   3.092   3.864   0.993 -0.1185 -0.2577 -0.0897
 8526TIP3    H125542   3.133   3.895   1.074 -1.6672 -0.3558  0.7792
 8526TIP3    H225543   3.161   3.867   0.928  1.5664 -1.5017  1.5536
 8527TIP3   OH225544   3.699   6.072   0.679  0.6269  0.1683  0.2423
 8527TIP3    H125545   3.741   5.997   0.636 -1.1022  0.3333 -1.9066
 8527TIP3    H225546   3.605   6.059   0.663  0.2978  3.2009 -1.0360
 8528TIP3   OH225547   1.760   4.619   3.726 -0.2609  0.6126 -0.8007
 8528TIP3    H125548   1.836   4.640   3.671 -0.8112  0.9449 -1.4521
 8528TIP3    H225549   1.738   4.529   3.702 -0.5526  0.7866 -1.1866
 8529TIP3   OH225550   0.396   1.881   4.105 -0.3848 -0.3362 -0.3036
 8529TIP3    H125551   0.397   1.958   4.162 -0.1660 -2.3374  2.6187
 8529TIP3    H225552   0.320   1.895   4.048 -1.8062  0.9965  1.7572
 8530TIP3   OH225553   3.764   2.145   1.913  0.1801 -0.3990 -0.1035
 8530TIP3    H125554   3.830   2.086   1.877  0.9662  1.5589 -2.1046
 8530TIP3    H225555   3.753   2.212   1.846 -3.3955 -0.2650  0.4552
 8531TIP3   OH225556   6.870   4.761   5.532  0.5372  0.8556  0.1209
 8531TIP3    H125557   6.871   4.741   5.626  2.0745 -1.5662 -0.3087
 8531TIP3    H225558   6.890   4.854   5.527  1.4387  0.8328  2.1768
 8532TIP3   OH225559   1.464   3.847   0.348 -0.4686 -0.4478  0.0042
 8532TIP3    H125560   1.405   3.781   0.312  0.9669 -1.3642 -0.7561
 8532TIP3    H225561   1.444   3.927   0.300 -0.2519 -1.0569 -1.1236
 8533TIP3   OH225562   2.485   4.319   5.310 -0.0696 -0.2311 -0.1946
 8533TIP3    H125563   2.480   4.360   5.397 -0.6925  1.7130 -1.0722
 8533TIP3    H225564   2.549   4.248   5.320  0.6784  0.6225  1.5959
 8534TIP3   OH225565   3.022   1.765   0.997  0.3242 -0.1336 -0.2297
 8534TIP3    H125566   2.943   1.723   1.030  1.3185 -2.2780 -0.3904
 8534TIP3    H225567   3.093   1.723   1.046  1.8677 -3.0984 -4.4409
 8535TIP3   OH225568   1.040   4.373   2.786  0.5377  0.0023  0.1532
 8535TIP3    H125569   1.130   4.399   2.767  0.0757  1.1808 -0.4793
 8535TIP3    H225570   0.989   4.403   2.710 -0.0882 -2.5697 -0.5484
 8536TIP3   OH225571   7.081   0.780   4.323 -0.7688 -0.9191  0.2670
 8536TIP3    H125572   7.048   0.869   4.316  0.2762 -0.5206  0.1094
 8536TIP3    H225573   7.004   0.724   4.316 -1.4898 -0.0148  0.8730
 8537TIP3   OH225574   5.297   3.468   2.043  1.1450  0.0042  0.1112
 8537TIP3    H125575   5.370   3.456   1.983  2.0547  2.8096  0.5016
 8537TIP3    H225576   5.239   3.529   1.998  1.9969  2.4304  2.0346
 8538TIP3   OH225577   6.145   0.664   1.560  0.3164 -0.2979 -0.3700
 8538TIP3    H125578   6.239   0.647   1.569  0.5003 -0.0891 -1.6044
 8538TIP3    H225579   6.141   0.742   1.504 -0.5913 -0.1000 -0.0374
 8539TIP3   OH225580   5.846   1.566   2.671 -0.0348  0.1108  0.2310
 8539TIP3    H125581   5.791   1.546   2.595  1.3932 -3.0408 -0.1162
 8539TIP3    H225582   5.831   1.494   2.732  2.6831 -0.2214  0.6557
 8540TIP3   OH225583   4.935   6.348   4.223  0.0722 -0.3189  0.2519
 8540TIP3    H125584   4.968   6.304   4.145 -1.1218  0.8295 -0.9279
 8540TIP3    H225585   4.852   6.387   4.197 -0.4480 -0.0289  2.1376
 8541TIP3   OH225586   2.700   1.766   0.870  0.2464  0.1517 -0.1834
 8541TIP3    H125587   2.769   1.816   0.826  0.7781 -1.1662 -0.9072
 8541TIP3    H225588   2.704   1.796   0.961  1.2826  0.6371 -0.3712
 8542TIP3   OH225589   1.881   3.907   1.331 -0.2554  0.3832 -0.0768
 8542TIP3    H125590   1.921   3.821   1.344 -0.2200  0.4241  0.0899
 8542TIP3    H225591   1.953   3.969   1.345  0.2560  0.3795 -2.3097
 8543TIP3   OH225592   1.872   5.247   1.457  0.2495  0.5501 -0.5635
 8543TIP3    H125593   1.831   5.224   1.374 -1.1241 -2.0695  0.7057
 8543TIP3    H225594   1.913   5.166   1.487 -0.9124  0.8517  2.1471
 8544TIP3   OH225595   1.147   4.056   5.624  0.5356  0.1642  0.1491
 8544TIP3    H125596   1.230   4.024   5.588  1.1079  0.5960  1.0640
 8544TIP3    H225597   1.110   3.982   5.671  1.3406  0.5119  1.3581
 8545TIP3   OH225598   0.472   4.034   0.474 -0.4698 -0.5975 -0.5282
 8545TIP3    H125599   0.492   3.949   0.436 -1.2985 -1.1559  0.2422
 8545TIP3    H225600   0.532   4.094   0.431  1.6513 -1.9075  0.4364
 8546TIP3   OH225601   4.468   1.686   0.474 -0.0805 -0.4484 -0.0047
 8546TIP3    H125602   4.408   1.668   0.401  0.4485  0.8727 -0.8166
 8546TIP3    H225603   4.511   1.602   0.491 -0.9906 -1.0307 -0.4911
 8547TIP3   OH225604   3.551   6.551   4.408  0.6911 -0.7814 -0.3131
 8547TIP3    H125605   3.605   6.625   4.434  1.5289 -0.6929 -2.1422
 8547TIP3    H225606   3.468   6.591   4.381  0.0295 -0.8268  1.5122
 8548TIP3   OH225607   6.489   4.887   1.687  0.2398 -0.1661 -0.2011
 8548TIP3    H125608   6.581   4.904   1.666  0.3606  1.3881  1.4044
 8548TIP3    H225609   6.482   4.902   1.781 -1.4587 -1.2882 -0.1074
 8549TIP3   OH225610   3.188   4.253   0.186 -0.2258  0.2900 -0.0280
 8549TIP3    H125611   3.196   4.348   0.183  1.8636  0.1686  0.2046
 8549TIP3    H225612   3.222   4.229   0.272  3.1076 -0.8809 -1.5213
 8550TIP3   OH225613   6.464   0.625   1.945  0.4029  0.1341 -0.4637
 8550TIP3    H125614   6.552   0.646   1.915  0.7813  0.6420  0.9526
 8550TIP3    H225615   6.476   0.589   2.033 -0.7590 -0.3307 -0.4756
 8551TIP3   OH225616   5.770   1.302   0.007  0.1644  0.0420 -0.3186
 8551TIP3    H125617   5.705   1.253   0.056 -0.0930  0.9050  0.2204
 8551TIP3    H225618   5.806   1.238  -0.055 -0.9742 -0.5194 -0.4304
 8552TIP3   OH225619   6.261   2.773   0.538 -0.6982 -0.1371  0.0139
 8552TIP3    H125620   6.300   2.833   0.601  1.6500 -0.9659 -0.5665
 8552TIP3    H225621   6.207   2.829   0.482  0.6450  1.2782  0.0857
 8553TIP3   OH225622   0.854   4.614   0.910  0.3868 -0.5156  0.2110
 8553TIP3    H125623   0.890   4.627   0.822 -0.3073  0.9437  0.1176
 8553TIP3    H225624   0.931   4.602   0.966  0.9113  0.0297 -0.3764
 8554TIP3   OH225625   4.895   4.480   2.231  0.7298  0.2365  0.2991
 8554TIP3    H125626   4.937   4.476   2.145 -2.2270  1.3822 -1.3655
 8554TIP3    H225627   4.867   4.390   2.248 -1.0345  0.3934 -1.3559
 8555TIP3   OH225628   6.765   1.903   5.178 -0.2811  0.5095  0.1618
 8555TIP3    H125629   6.796   1.944   5.097  1.8163  0.7698  1.0308
 8555TIP3    H225630   6.793   1.963   5.247  0.9246 -1.2877  1.3059
 8556TIP3   OH225631   0.592   2.323   1.556  0.2342 -0.0983 -0.4000
 8556TIP3    H125632   0.683   2.300   1.540  0.3490  1.2197 -1.8580
 8556TIP3    H225633   0.551   2.241   1.583  2.0019 -0.5505  1.0892
 8557TIP3   OH225634   2.445   3.414   2.744 -0.4322 -0.3521 -0.1727
 8557TIP3    H125635   2.481   3.329   2.718 -0.1922 -0.0273 -0.9326
 8557TIP3    H225636   2.477   3.475   2.678 -0.7503  0.3023  0.2659
 8558TIP3   OH225637   7.093   2.312   0.289 -0.5902  0.1003  0.1283
 8558TIP3    H125638   7.155   2.240   0.273  1.1353  1.4489  0.4568
 8558TIP3    H225639   7.074   2.346   0.202  0.5773  0.8018  0.1197
 8559TIP3   OH225640   4.187   2.881   5.678 -0.5235 -0.5432 -0.0403
 8559TIP3    H125641   4.259   2.931   5.640  0.0925 -0.6820  0.8987
 8559TIP3    H225642   4.116   2.944   5.689  1.3698  1.2420  4.4914
 8560TIP3   OH225643   2.510   0.241   1.041  0.0285 -0.0937 -0.2190
 8560TIP3    H125644   2.539   0.204   1.125  0.0081  0.3631 -0.0096
 8560TIP3    H225645   2.539   0.177   0.976 -1.0478 -1.0755  0.2358
 8561TIP3   OH225646   7.004   2.445   5.392  0.5060  0.2062 -0.4224
 8561TIP3    H125647   7.091   2.408   5.410 -0.8527 -2.7460  0.7741
 8561TIP3    H225648   6.999   2.450   5.297  1.2888 -1.6079 -0.6015
 8562TIP3   OH225649   6.714   6.130   1.107 -0.0027 -0.1867  0.0998
 8562TIP3    H125650   6.809   6.121   1.101 -0.2561 -2.9189 -1.3976
 8562TIP3    H225651   6.689   6.069   1.176 -0.6675  0.8780  0.8269
 8563TIP3   OH225652   7.195   3.140   3.213 -0.2623 -0.2631 -0.1407
 8563TIP3    H125653   7.135   3.073   3.246  1.8464 -1.1352  2.2157
 8563TIP3    H225654   7.156   3.222   3.244 -0.6176 -0.7509  0.7652
 8564TIP3   OH225655   2.271   2.720   0.578 -0.7265  0.0587  0.2754
 8564TIP3    H125656   2.207   2.650   0.587  0.6947 -1.2114  0.8848
 8564TIP3    H225657   2.250   2.782   0.648 -0.6816 -0.8532  1.1133
 8565TIP3   OH225658   1.748   5.547   5.225  0.4016 -0.2289  0.7203
 8565TIP3    H125659   1.743   5.506   5.311 -0.6309  0.3358  0.9504
 8565TIP3    H225660   1.745   5.474   5.163 -0.8742 -0.5579  1.1327
 8566TIP3   OH225661   3.604   0.125   4.048 -0.3281 -0.1252 -0.4795
 8566TIP3    H125662   3.597   0.199   4.108 -1.9625 -1.5082  1.1370
 8566TIP3    H225663   3.573   0.159   3.964 -2.4615  0.7074  0.5753
 8567TIP3   OH225664   1.492   0.470   1.246  0.2218  1.2404  0.0077
 8567TIP3    H125665   1.427   0.478   1.316  0.3739 -2.5446  0.7925
 8567TIP3    H225666   1.444   0.495   1.167 -1.1979  1.6867  0.9519
 8568TIP3   OH225667   6.051   1.585   0.206  0.0378  0.0860  0.0654
 8568TIP3    H125668   6.023   1.495   0.219 -0.0612  0.1989  0.6547
 8568TIP3    H225669   5.983   1.624   0.151 -0.3843  0.0515  0.5589
 8569TIP3   OH225670   3.508   3.264   4.362 -1.1660 -0.0831 -0.9189
 8569TIP3    H125671   3.423   3.304   4.342 -1.8475 -0.6061  0.7109
 8569TIP3    H225672   3.501   3.239   4.454  0.7076 -0.3119 -0.7987
 8570TIP3   OH225673   3.696   4.982   1.154  0.0958 -0.1000  0.3923
 8570TIP3    H125674   3.674   4.983   1.247  1.4043  0.2711  0.7207
 8570TIP3    H225675   3.674   4.894   1.125  2.0776 -1.0922  1.6917
 8571TIP3   OH225676   6.257   4.479   3.243  0.2291 -0.5769  0.2949
 8571TIP3    H125677   6.193   4.445   3.306  0.5180 -3.2758 -0.7563
 8571TIP3    H225678   6.310   4.540   3.293 -0.8252 -1.0951  2.1251
 8572TIP3   OH225679   5.876   5.917   0.558  0.3626  0.0097  0.0186
 8572TIP3    H125680   5.906   6.008   0.562  0.5535 -0.0436 -0.1810
 8572TIP3    H225681   5.844   5.899   0.646 -1.7914  0.9930 -0.5071
 8573TIP3   OH225682   3.897   4.034   3.614  0.2768  0.0268  0.5855
 8573TIP3    H125683   3.884   4.001   3.703 -1.3175  0.4577  0.5446
 8573TIP3    H225684   3.810   4.065   3.587  0.9383  0.8058 -0.7574
 8574TIP3   OH225685   4.600   3.659   1.197 -0.2001  0.1729 -0.4762
 8574TIP3    H125686   4.635   3.627   1.114 -0.1668  1.3517 -0.9262
 8574TIP3    H225687   4.531   3.596   1.220  1.0080 -1.2087 -0.4454
 8575TIP3   OH225688   2.401   6.342   4.644  0.1791  0.0179  0.4647
 8575TIP3    H125689   2.481   6.378   4.682  0.0311 -0.1668  0.9652
 8575TIP3    H225690   2.332   6.364   4.707 -0.6913  2.5593 -1.1840
 8576TIP3   OH225691   7.136   3.149   1.482 -0.3739  0.1042 -0.7152
 8576TIP3    H125692   7.131   3.057   1.457  2.6933  0.0703 -1.5739
 8576TIP3    H225693   7.136   3.148   1.578 -2.3260 -0.5620 -0.6772
 8577TIP3   OH225694   5.075   5.513   2.739  0.0082  0.0512  0.2280
 8577TIP3    H125695   5.122   5.570   2.678 -0.7920 -0.4079 -0.8544
 8577TIP3    H225696   5.065   5.431   2.692  0.5169 -0.7736  1.5020
 8578TIP3   OH225697   3.970   4.764   2.070 -0.0255 -0.1864 -0.4937
 8578TIP3    H125698   3.938   4.831   2.009 -0.1439  0.7464  0.5588
 8578TIP3    H225699   3.979   4.685   2.016 -2.7372 -0.1379 -1.1559
 8579TIP3   OH225700   4.450   6.183   1.378 -0.4442 -0.4107 -0.4151
 8579TIP3    H125701   4.422   6.117   1.315 -0.3741 -1.2478  0.4183
 8579TIP3    H225702   4.399   6.165   1.457  0.4819 -0.2827  0.2394
 8580TIP3   OH225703   5.381   5.027   3.483 -0.6242  0.2167  0.8239
 8580TIP3    H125704   5.351   5.087   3.550  1.7225  2.6872 -0.1650
 8580TIP3    H225705   5.432   4.961   3.530  0.7274  1.7345  1.5788
 8581TIP3   OH225706   4.961   2.180   2.446 -0.2950  0.3484 -0.1551
 8581TIP3    H125707   4.953   2.274   2.430  1.1800  0.6157  0.4702
 8581TIP3    H225708   4.933   2.168   2.537 -1.9842 -0.0893 -0.6963
 8582TIP3   OH225709   0.365   1.710   5.236  0.2939  0.4964 -0.4527
 8582TIP3    H125710   0.276   1.704   5.199  0.2141  1.5925 -0.4825
 8582TIP3    H225711   0.356   1.769   5.310  1.0480  0.8534 -0.6312
 8583TIP3   OH225712   6.907   1.203   0.365  0.3930  0.1207 -0.1241
 8583TIP3    H125713   6.840   1.260   0.403  0.3770 -1.1047  1.8363
 8583TIP3    H225714   6.864   1.162   0.290 -1.0487 -0.5312  1.0064
 8584TIP3   OH225715   4.320   3.897   5.177  0.6344  0.1193  0.5531
 8584TIP3    H125716   4.389   3.953   5.144 -0.1221  0.1593 -1.0697
 8584TIP3    H225717   4.239   3.946   5.163 -0.2805 -1.9375 -2.7018
 8585TIP3   OH225718   4.719   3.658   2.095  0.3497 -0.2814 -0.4837
 8585TIP3    H125719   4.625   3.679   2.095  0.2609 -0.6616 -1.1946
 8585TIP3    H225720   4.761   3.739   2.068  0.1215 -0.5053 -1.5564
 8586TIP3   OH225721   2.616   6.717   4.054 -0.5672  0.3891 -0.1117
 8586TIP3    H125722   2.619   6.628   4.021 -1.2770  0.5004 -0.4995
 8586TIP3    H225723   2.646   6.771   3.981  0.4404  0.4310  0.3165
 8587TIP3   OH225724   2.021   3.941   4.127  0.0620  0.2362 -0.2826
 8587TIP3    H125725   1.982   3.878   4.066 -1.0218  1.6206 -1.0605
 8587TIP3    H225726   1.957   3.947   4.198 -0.3078  1.1687 -0.6842
 8588TIP3   OH225727   1.816   0.583   0.303  0.2696  0.0061 -0.6098
 8588TIP3    H125728   1.746   0.521   0.324 -1.2917  2.0139  0.3718
 8588TIP3    H225729   1.800   0.607   0.212 -0.5281  0.6630 -0.3096
 8589TIP3   OH225730   5.710   4.372   2.865  0.5336  0.0531 -0.2823
 8589TIP3    H125731   5.709   4.439   2.797  0.7838  0.2485 -0.0954
 8589TIP3    H225732   5.796   4.331   2.857  1.3741  1.4010  1.1927
 8590TIP3   OH225733   0.065   1.230  -0.014  0.0564 -0.1965 -0.0246
 8590TIP3    H125734   0.034   1.319  -0.002 -0.3405 -0.4471  0.9187
 8590TIP3    H225735   0.043   1.186   0.068  0.4932 -1.0882 -0.3730
 8591TIP3   OH225736   4.038   3.399   5.237 -0.3395  0.5859  0.1585
 8591TIP3    H125737   3.968   3.441   5.186  0.9265  1.0803 -1.2275
 8591TIP3    H225738   4.088   3.349   5.173  0.6679  0.3541  1.0967
 8592TIP3   OH225739   5.947   5.030   0.823 -0.5440 -0.4411 -0.4703
 8592TIP3    H125740   5.943   5.121   0.793 -0.3267 -0.3397 -0.1961
 8592TIP3    H225741   5.878   5.023   0.889 -1.1225 -0.7033 -1.0964
 8593TIP3   OH225742   6.118   3.071   1.408 -0.9317 -0.4589 -0.0220
 8593TIP3    H125743   6.080   3.158   1.394 -2.3727 -1.0548 -0.0497
 8593TIP3    H225744   6.092   3.048   1.497 -1.0811 -1.1043 -0.2283
 8594TIP3   OH225745   6.433   2.596   1.978 -0.0766 -0.0430 -0.1504
 8594TIP3    H125746   6.521   2.633   1.991  0.0808  0.1973 -1.7609
 8594TIP3    H225747   6.375   2.671   1.982  0.1809  0.3785 -2.7591
 8595TIP3   OH225748   1.152   5.524   0.549  0.0432  0.2098  0.2245
 8595TIP3    H125749   1.187   5.585   0.615 -1.2580 -0.3523  1.4768
 8595TIP3    H225750   1.057   5.537   0.552 -0.0471  0.3030 -1.7056
 8596TIP3   OH225751   4.075   0.046   3.367  0.2463 -0.5940  0.2818
 8596TIP3    H125752   4.074   0.141   3.363  1.7401 -0.4424  1.9160
 8596TIP3    H225753   4.119   0.019   3.286  2.2994  0.3008  1.0344
 8597TIP3   OH225754   5.657   4.645   2.368  0.4162 -0.5531  0.7407
 8597TIP3    H125755   5.596   4.702   2.321  0.5293 -0.5150  0.6392
 8597TIP3    H225756   5.608   4.564   2.382  0.2053 -0.3807  1.0111
 8598TIP3   OH225757   6.151   5.204   0.268  0.0143  0.3179 -0.1323
 8598TIP3    H125758   6.115   5.293   0.266 -0.8215 -0.0049  0.1860
 8598TIP3    H225759   6.079   5.148   0.238  0.2211 -0.3486  0.5673
 8599TIP3   OH225760   3.380   0.737   3.240  0.0684  0.2034  0.3229
 8599TIP3    H125761   3.469   0.761   3.267 -0.5871  1.2976  1.6722
 8599TIP3    H225762   3.379   0.641   3.244  1.1448  0.1801  0.4440
 8600TIP3   OH225763   1.059   1.040   5.073 -0.0793  0.8359 -0.2508
 8600TIP3    H125764   1.054   0.948   5.046  0.0880  0.3835  1.2055
 8600TIP3    H225765   1.077   1.037   5.167 -0.3781  2.3638 -0.1209
 8601TIP3   OH225766   2.928   0.699   1.138  0.0048 -0.9845 -0.2110
 8601TIP3    H125767   2.893   0.689   1.227  0.1449  0.4746  0.0362
 8601TIP3    H225768   3.016   0.735   1.151 -0.2248 -0.1362 -0.9571
 8602TIP3   OH225769   0.390   0.629   5.580 -0.0281 -0.3216  0.3975
 8602TIP3    H125770   0.300   0.619   5.550 -0.0173  2.5712 -0.8580
 8602TIP3    H225771   0.443   0.591   5.510 -0.1547  3.2142 -1.8201
 8603TIP3   OH225772   0.505   0.754   3.830  0.4955  0.2932 -0.1673
 8603TIP3    H125773   0.545   0.736   3.915  0.9286 -2.4318 -0.8494
 8603TIP3    H225774   0.537   0.842   3.807  2.1748  0.1860  1.4705
 8604TIP3   OH225775   6.677   5.416   4.572 -0.3780  0.0271 -0.1430
 8604TIP3    H125776   6.581   5.421   4.569 -0.4980 -1.4705 -3.6569
 8604TIP3    H225777   6.696   5.323   4.560  1.4704  0.5871 -2.0725
 8605TIP3   OH225778   6.381   2.482   0.712 -0.1647  0.3444  0.3917
 8605TIP3    H125779   6.311   2.525   0.761 -1.4088 -0.3076 -0.7576
 8605TIP3    H225780   6.408   2.548   0.648 -0.3219  0.3002  0.2790
 8606TIP3   OH225781   4.757   4.990   2.996 -0.3272 -0.5748  0.3411
 8606TIP3    H125782   4.845   4.954   3.008 -0.0114 -0.0254 -0.2696
 8606TIP3    H225783   4.737   4.973   2.904 -0.1354  0.8620  0.0173
 8607TIP3   OH225784   2.397   5.477   3.410 -0.4686 -0.0310 -0.3583
 8607TIP3    H125785   2.359   5.562   3.390  3.2134  1.9433  0.0659
 8607TIP3    H225786   2.409   5.434   3.325 -2.1806 -0.1330 -0.5836
 8608TIP3   OH225787   3.500   6.804   5.768  0.7448 -0.2732 -0.1083
 8608TIP3    H125788   3.562   6.778   5.700  3.2126 -1.7629  2.4759
 8608TIP3    H225789   3.429   6.741   5.761  1.3560 -0.9061 -0.8040
 8609TIP3   OH225790   1.370   5.094   2.273 -0.0934  0.4885  0.0089
 8609TIP3    H125791   1.343   5.099   2.182  0.4526  0.7544 -0.1471
 8609TIP3    H225792   1.433   5.022   2.276 -1.5370 -0.7879  0.5658
 8610TIP3   OH225793   4.016   2.852   0.638 -0.3700 -0.3700  0.3392
 8610TIP3    H125794   4.012   2.916   0.567  1.8084  0.2718  0.7182
 8610TIP3    H225795   3.982   2.899   0.714  3.9765  1.6682  1.3787
 8611TIP3   OH225796   5.293   5.375   5.205 -0.1130  0.1153 -0.0250
 8611TIP3    H125797   5.364   5.373   5.140 -0.1848 -1.5673 -0.0763
 8611TIP3    H225798   5.331   5.420   5.280  1.6648 -2.3148  0.6485
 8612TIP3   OH225799   4.674   5.027   4.511  0.0685  0.1666 -0.7687
 8612TIP3    H125800   4.765   5.057   4.512 -0.2294  1.1273  1.0923
 8612TIP3    H225801   4.624   5.097   4.554 -1.0884 -1.6207  0.9972
 8613TIP3   OH225802   6.373   6.673   5.513 -0.1107 -0.1816  0.1688
 8613TIP3    H125803   6.337   6.727   5.583 -0.0493  1.0348 -0.6902
 8613TIP3    H225804   6.468   6.681   5.523 -0.0958  0.4558 -0.3559
 8614TIP3   OH225805   5.496   2.717   2.787  0.3682 -0.3886  0.0171
 8614TIP3    H125806   5.517   2.725   2.880  0.0422  0.0929  0.0530
 8614TIP3    H225807   5.412   2.671   2.785  0.1017  0.0945 -0.0145
 8615TIP3   OH225808   4.502   3.049   5.396  0.6925  0.1383  0.3267
 8615TIP3    H125809   4.456   3.022   5.476  0.0151  1.7019  0.4960
 8615TIP3    H225810   4.577   2.989   5.391  0.1200 -0.7399  1.4949
 8616TIP3   OH225811   2.937   6.347   3.846 -0.6749  0.6789  0.6661
 8616TIP3    H125812   2.958   6.327   3.937  2.3520 -0.6030 -0.1766
 8616TIP3    H225813   2.948   6.442   3.838 -0.8718  0.7839  1.5997
 8617TIP3   OH225814   5.877   3.410   3.376  0.3530 -0.0773 -0.0144
 8617TIP3    H125815   5.925   3.410   3.294  0.8602 -0.8427  0.2719
 8617TIP3    H225816   5.795   3.365   3.356 -0.1224  0.9451 -0.4242
 8618TIP3   OH225817   3.418   0.780   1.095 -0.5849  0.1235 -0.3889
 8618TIP3    H125818   3.404   0.685   1.089  0.7340 -0.2365  1.4419
 8618TIP3    H225819   3.388   0.813   1.010 -1.9892 -1.7945 -0.7160
 8619TIP3   OH225820   4.475   5.368   5.822  0.3265 -0.1144 -0.0264
 8619TIP3    H125821   4.394   5.318   5.832 -0.1811  0.5100 -0.9358
 8619TIP3    H225822   4.479   5.424   5.900  1.0295 -1.6895  1.1424
 8620TIP3   OH225823   2.261   0.605   5.683  0.0533 -0.4733 -0.2417
 8620TIP3    H125824   2.207   0.675   5.646  0.2653 -0.5421 -0.6802
 8620TIP3    H225825   2.265   0.625   5.776  1.9785  1.3791 -0.6499
 8621TIP3   OH225826   3.015   0.256   2.247  0.0246  0.1223  0.1558
 8621TIP3    H125827   2.950   0.273   2.179  0.1171 -0.4796 -0.0946
 8621TIP3    H225828   2.965   0.215   2.318  0.2222 -0.9496 -0.3013
 8622TIP3   OH225829   0.516   3.331   5.525  0.0154 -0.1229  0.5468
 8622TIP3    H125830   0.533   3.418   5.488 -0.4261 -0.6325 -0.9116
 8622TIP3    H225831   0.592   3.314   5.581 -0.6614  1.8679  2.1872
 8623TIP3   OH225832   4.273   0.180   0.834 -0.1063  0.3342  0.6342
 8623TIP3    H125833   4.252   0.133   0.753  1.6510  1.2100 -0.3785
 8623TIP3    H225834   4.331   0.121   0.881  1.2422  0.9935 -0.1456
 8624TIP3   OH225835   5.710   3.926   3.743  0.0391 -0.0212  0.4398
 8624TIP3    H125836   5.627   3.887   3.771 -0.0353  0.7596  1.3941
 8624TIP3    H225837   5.690   3.971   3.661 -0.6607  0.6926  0.9819
 8625TIP3   OH225838   0.433   4.994   2.370 -0.1412 -0.2137  0.1438
 8625TIP3    H125839   0.411   4.919   2.425  0.8392 -1.3032 -0.8872
 8625TIP3    H225840   0.371   4.989   2.296 -1.0706  0.9040  0.8068
 8626TIP3   OH225841   4.394   1.124   3.149 -0.5570 -0.4079  0.1339
 8626TIP3    H125842   4.420   1.170   3.229 -0.8277  1.5523 -0.8235
 8626TIP3    H225843   4.308   1.160   3.128 -0.4935 -0.8902 -1.0109
 8627TIP3   OH225844   2.469   2.729   0.379  0.3380  0.0622 -0.4263
 8627TIP3    H125845   2.405   2.721   0.450  1.5023  0.7497  0.7411
 8627TIP3    H225846   2.434   2.799   0.323 -0.2415 -0.0094 -0.1645
 8628TIP3   OH225847   5.841   1.060   3.290  0.1876  0.3149 -0.3293
 8628TIP3    H125848   5.748   1.051   3.310  0.3579 -1.5467 -0.1486
 8628TIP3    H225849   5.870   0.970   3.272  1.9201  0.8691 -0.4736
 8629TIP3   OH225850   5.828   2.662   2.254 -0.4711  0.3873  0.1495
 8629TIP3    H125851   5.786   2.669   2.340 -0.2277  0.4714  0.2604
 8629TIP3    H225852   5.903   2.720   2.259 -0.1043 -0.0754  0.0883
 8630TIP3   OH225853   0.580   2.323   4.382 -0.6137 -0.0971 -0.6089
 8630TIP3    H125854   0.650   2.258   4.387  0.1060  0.6728 -0.4575
 8630TIP3    H225855   0.541   2.323   4.469 -0.5974 -0.3146 -0.6021
 8631TIP3   OH225856   3.575   2.808   4.656 -0.0283  0.1646  0.2200
 8631TIP3    H125857   3.487   2.807   4.618  0.0318  0.7548  0.0578
 8631TIP3    H225858   3.632   2.784   4.583  0.0498  0.9140  0.0266
 8632TIP3   OH225859   4.836   5.890   0.114 -0.2903  0.1851 -0.4245
 8632TIP3    H125860   4.881   5.955   0.168 -1.6895  2.5053 -1.8737
 8632TIP3    H225861   4.757   5.869   0.163 -0.2380  0.1961 -0.3347
 8633TIP3   OH225862   3.295   4.416   0.572 -0.4197  0.1178  0.6817
 8633TIP3    H125863   3.320   4.389   0.660  0.8366  1.2311  0.7044
 8633TIP3    H225864   3.201   4.435   0.578 -0.7587 -1.6121  1.2855
 8634TIP3   OH225865   1.808   2.447   5.276  0.2015 -0.5300  0.9118
 8634TIP3    H125866   1.862   2.381   5.235  1.3985  1.0363 -0.1315
 8634TIP3    H225867   1.725   2.444   5.227  0.1080 -1.4500  1.1019
 8635TIP3   OH225868   2.331   0.195   5.637 -0.2670 -0.0350  0.1867
 8635TIP3    H125869   2.265   0.250   5.595  0.8594  0.0856 -1.5195
 8635TIP3    H225870   2.301   0.185   5.727 -3.7544 -1.7895 -1.0193
 8636TIP3   OH225871   6.050   3.418   1.084 -0.1122  0.2281 -0.0861
 8636TIP3    H125872   6.069   3.494   1.138  1.7399  0.5671 -1.1141
 8636TIP3    H225873   6.065   3.449   0.994  1.0512 -1.4317 -0.4995
 8637TIP3   OH225874   5.982   3.441   2.438  0.7969  0.2144 -0.2551
 8637TIP3    H125875   5.915   3.377   2.464 -0.3930  1.5005 -0.0037
 8637TIP3    H225876   6.062   3.411   2.480  0.4963 -1.6258 -0.9182
 8638TIP3   OH225877   5.384   2.596   4.300  0.0725  0.0094  0.1418
 8638TIP3    H125878   5.325   2.640   4.239  1.7156  1.7129 -0.3066
 8638TIP3    H225879   5.395   2.659   4.372 -0.0033 -1.0083  1.0812
 8639TIP3   OH225880   2.053   2.601   3.497  0.5381  0.3755 -0.2118
 8639TIP3    H125881   2.012   2.520   3.467  2.1169 -0.5894  0.1273
 8639TIP3    H225882   2.058   2.656   3.419 -1.4424  0.5696 -0.2432
 8640TIP3   OH225883   6.904   3.743   4.517 -0.4755  0.5604 -0.1969
 8640TIP3    H125884   6.982   3.715   4.470 -1.5813 -1.5814 -0.9057
 8640TIP3    H225885   6.926   3.731   4.609  0.3164  0.7719 -0.3539
 8641TIP3   OH225886   1.053   3.608   1.233  0.0655  0.1120 -0.3850
 8641TIP3    H125887   0.981   3.612   1.295 -0.6909  1.1999 -1.2829
 8641TIP3    H225888   1.104   3.531   1.259 -0.7051  0.0549  1.0284
 8642TIP3   OH225889   0.594   5.574   3.670 -0.9727 -0.3285 -0.1058
 8642TIP3    H125890   0.643   5.649   3.703  0.3750 -1.3234  0.2581
 8642TIP3    H225891   0.511   5.576   3.717 -1.1384  1.1606 -0.4174
 8643TIP3   OH225892   0.766   3.593   4.751 -0.3093 -0.0642  0.6158
 8643TIP3    H125893   0.722   3.511   4.777 -1.4976  0.7783  1.3828
 8643TIP3    H225894   0.694   3.655   4.739  0.6593  1.4592  2.2165
 8644TIP3   OH225895   5.926   4.241   0.609  0.3960  0.5985 -0.5259
 8644TIP3    H125896   6.001   4.259   0.665 -0.4226  0.3589  0.7025
 8644TIP3    H225897   5.861   4.306   0.635 -1.2480 -1.6327  1.3221
 8645TIP3   OH225898   6.425   5.177   0.131 -0.4852 -0.1736 -0.4388
 8645TIP3    H125899   6.339   5.188   0.172 -0.4378 -1.1510 -0.0438
 8645TIP3    H225900   6.415   5.101   0.075  0.4988 -1.1897  0.7188
 8646TIP3   OH225901   2.396   4.320   4.117 -0.5364  0.2250  0.2925
 8646TIP3    H125902   2.309   4.290   4.090 -0.9864  0.7177  1.1260
 8646TIP3    H225903   2.440   4.345   4.036 -1.3057  0.2880 -0.1124
 8647TIP3   OH225904   2.700   4.023   1.328  0.7926 -0.0808  0.5755
 8647TIP3    H125905   2.771   4.035   1.265  1.5039 -0.0074  1.3736
 8647TIP3    H225906   2.649   4.104   1.321 -0.7597 -1.1609 -1.8420
 8648TIP3   OH225907   2.707   2.248   3.630  0.1492  0.1332 -0.3635
 8648TIP3    H125908   2.752   2.278   3.709  1.7355 -1.9509 -0.3946
 8648TIP3    H225909   2.679   2.329   3.587 -3.1827  1.3953  3.5366
 8649TIP3   OH225910   3.601   3.405   0.196  0.3176 -0.3298 -0.1469
 8649TIP3    H125911   3.512   3.436   0.208  0.5533 -0.2747  1.8681
 8649TIP3    H225912   3.611   3.394   0.101 -1.3079  1.1257 -0.5289
 8650TIP3   OH225913   3.399   1.228   1.692 -0.9726  0.1823  0.1332
 8650TIP3    H125914   3.400   1.145   1.644 -1.7464  0.7945 -0.9869
 8650TIP3    H225915   3.351   1.289   1.635 -0.9732  1.2380  1.2068
 8651TIP3   OH225916   2.091   3.393   0.231  0.5012 -0.2093 -0.3443
 8651TIP3    H125917   2.094   3.302   0.259 -1.5816  0.2920  1.8488
 8651TIP3    H225918   2.176   3.429   0.256  1.6160 -1.6446 -1.8623
 8652TIP3   OH225919   6.215   5.989   0.755  0.2545  0.2819 -0.0034
 8652TIP3    H125920   6.201   5.995   0.849  0.3736  0.3686  0.0086
 8652TIP3    H225921   6.303   5.954   0.746  0.1626  0.0665 -0.0824
 8653TIP3   OH225922   5.811   1.847   5.156 -0.2556  0.2723  0.1402
 8653TIP3    H125923   5.884   1.888   5.109 -0.2158  0.7563  0.6283
 8653TIP3    H225924   5.734   1.866   5.101  0.0687 -0.8454 -0.7516
 8654TIP3   OH225925   6.186   3.317   2.034  0.2830 -0.3544  0.1358
 8654TIP3    H125926   6.185   3.262   2.112 -1.3786  0.5436  0.8055
 8654TIP3    H225927   6.096   3.348   2.026  0.3928 -0.4320 -2.1715
 8655TIP3   OH225928   3.175   0.937   3.245 -0.2654  0.7495  0.1515
 8655TIP3    H125929   3.220   1.019   3.225  0.9636 -0.6426 -3.6789
 8655TIP3    H225930   3.244   0.878   3.277  0.0396 -0.3113 -2.2839
 8656TIP3   OH225931   4.529   4.954   4.772  0.2769 -0.4725 -0.3364
 8656TIP3    H125932   4.607   4.941   4.720  0.2912 -0.9770 -0.1971
 8656TIP3    H225933   4.555   4.929   4.861  0.2321  0.2980 -0.0985
 8657TIP3   OH225934   5.513   0.561   1.109  0.1794  0.1424  0.1131
 8657TIP3    H125935   5.576   0.524   1.171  1.4170 -0.0756 -1.2203
 8657TIP3    H225936   5.470   0.485   1.071 -1.1489  0.2953  1.2107
 8658TIP3   OH225937   2.480   4.021   3.880 -0.0326 -0.7918  0.4054
 8658TIP3    H125938   2.443   4.012   3.792 -1.5092 -1.6468  1.0704
 8658TIP3    H225939   2.411   3.988   3.938  0.7946  0.0228  1.9110
 8659TIP3   OH225940   6.681   0.749   1.800  0.0959  0.2267  0.2406
 8659TIP3    H125941   6.656   0.841   1.803 -1.7003 -0.2144 -0.1350
 8659TIP3    H225942   6.686   0.728   1.707  0.8480  0.0164  0.3222
 8660TIP3   OH225943   1.191   0.138   0.329 -0.1450 -0.4628  0.2491
 8660TIP3    H125944   1.150   0.065   0.377  0.4767 -0.7110  0.4100
 8660TIP3    H225945   1.118   0.196   0.307 -0.5865 -0.9066  0.5216
 8661TIP3   OH225946   2.369   5.379   4.074 -0.2889 -0.6205  0.1579
 8661TIP3    H125947   2.304   5.357   4.008 -1.0212  1.0040  0.3025
 8661TIP3    H225948   2.342   5.331   4.152  0.2744 -2.1149 -0.5216
 8662TIP3   OH225949   4.901   3.974   0.868  0.5515  0.5866  0.0716
 8662TIP3    H125950   4.886   3.904   0.804  0.1333  0.6461  0.0996
 8662TIP3    H225951   4.850   4.048   0.834  1.1358  0.9386 -0.0549
 8663TIP3   OH225952   2.077   1.022   1.904  0.3200 -0.1257  0.1510
 8663TIP3    H125953   2.030   1.105   1.894  0.1726  0.1074  2.2677
 8663TIP3    H225954   2.153   1.044   1.959  1.7217 -0.9296 -1.3632
 8664TIP3   OH225955   2.305   2.758   3.540  0.0267 -0.0131  0.5782
 8664TIP3    H125956   2.328   2.669   3.567 -0.6455 -0.4051 -0.1184
 8664TIP3    H225957   2.282   2.751   3.447  0.0068  0.8958  0.4985
 8665TIP3   OH225958   3.538   6.346   5.228  0.0094 -0.4233 -1.2115
 8665TIP3    H125959   3.537   6.250   5.228  0.6851 -0.4348 -1.5688
 8665TIP3    H225960   3.622   6.369   5.189  0.0685  0.3183 -0.6552
 8666TIP3   OH225961   2.337   3.597   1.369  0.2870 -0.0018 -0.0568
 8666TIP3    H125962   2.365   3.507   1.351 -1.1110 -0.1585 -1.8303
 8666TIP3    H225963   2.253   3.587   1.414 -1.3918  0.2756 -2.8587
 8667TIP3   OH225964   3.499   5.482   1.025  0.0155 -0.0908  0.4856
 8667TIP3    H125965   3.474   5.574   1.034  0.3124 -0.0683  1.1409
 8667TIP3    H225966   3.451   5.437   1.095 -2.5891 -0.9566 -1.6967
 8668TIP3   OH225967   5.531   5.835   5.263  0.0070 -0.1275  0.0018
 8668TIP3    H125968   5.597   5.809   5.328  1.3234  0.8584 -0.9126
 8668TIP3    H225969   5.484   5.907   5.305  0.2813 -0.0678  0.2140
 8669TIP3   OH225970   5.802   6.248   4.868 -0.3183  0.1150  0.0352
 8669TIP3    H125971   5.756   6.331   4.882  0.8668  0.7686  0.1827
 8669TIP3    H225972   5.791   6.230   4.775  0.5511  1.1592 -0.2885
 8670TIP3   OH225973   2.644   4.135   2.636 -0.1424 -0.5255  0.5546
 8670TIP3    H125974   2.698   4.120   2.558 -2.9044 -0.7765 -1.4687
 8670TIP3    H225975   2.635   4.048   2.676  1.4027 -0.3715  1.3108
 8671TIP3   OH225976   5.418   0.782   1.681  0.4334  0.3964 -0.3408
 8671TIP3    H125977   5.431   0.714   1.747 -0.8561  0.6577  0.2276
 8671TIP3    H225978   5.364   0.847   1.725  0.1246  0.9083 -1.4442
 8672TIP3   OH225979   6.515   0.670   1.042  0.9755 -0.0876 -0.6595
 8672TIP3    H125980   6.555   0.752   1.072 -1.2178  0.7846  0.1451
 8672TIP3    H225981   6.450   0.698   0.978  1.1678 -1.3745 -1.4414
 8673TIP3   OH225982   5.639   0.045   1.926  0.0727  0.4927  0.0571
 8673TIP3    H125983   5.546   0.038   1.905  0.3108 -0.5664 -0.7345
 8673TIP3    H225984   5.683   0.043   1.841  1.0371 -3.4483  0.4256
 8674TIP3   OH225985   4.493   3.957   1.016  0.9947  0.2130 -0.1782
 8674TIP3    H125986   4.418   4.015   1.003  1.6584  0.8168 -1.4833
 8674TIP3    H225987   4.531   3.947   0.929  1.2868 -1.6671  0.1352
 8675TIP3   OH225988   6.053   0.750   4.782  0.0499  0.4628  0.5249
 8675TIP3    H125989   6.076   0.722   4.693 -1.6258 -0.4985  0.3476
 8675TIP3    H225990   6.042   0.844   4.775  1.5213  0.6265  0.1033
 8676TIP3   OH225991   1.771   6.267   2.546  0.4873 -0.2694  0.6553
 8676TIP3    H125992   1.783   6.361   2.532 -0.5438 -0.1764  0.3163
 8676TIP3    H225993   1.696   6.261   2.605 -0.9476 -0.9311 -1.1649
 8677TIP3   OH225994   2.940   0.924   5.534  0.0019 -0.2633 -0.4158
 8677TIP3    H125995   2.891   0.992   5.489  0.4990  1.4877  1.5222
 8677TIP3    H225996   3.032   0.950   5.526  0.0804  0.6098  2.1405
 8678TIP3   OH225997   6.815   4.770   1.215 -0.0933 -0.2285  0.2311
 8678TIP3    H125998   6.905   4.769   1.246 -0.7124  0.8273  2.2441
 8678TIP3    H225999   6.773   4.697   1.260 -0.4061 -0.2996 -0.1700
 8679TIP3   OH226000   6.603   0.737   4.390 -0.2358 -0.0233 -0.1137
 8679TIP3    H126001   6.517   0.695   4.395 -0.0720 -0.5912 -1.5998
 8679TIP3    H226002   6.655   0.679   4.334  0.7987  0.8463 -0.0863
 8680TIP3   OH226003   3.572   6.087   2.913 -0.3634 -0.3932 -0.1709
 8680TIP3    H126004   3.580   6.149   2.985  1.9327 -0.3748 -0.3596
 8680TIP3    H226005   3.525   6.134   2.845  0.5934  0.8788  0.0125
 8681TIP3   OH226006   0.381   0.363   0.966 -0.3898 -0.0367  0.4413
 8681TIP3    H126007   0.390   0.397   0.876 -2.4927  0.3727  0.3391
 8681TIP3    H226008   0.287   0.366   0.983 -0.3526 -2.8191  1.6343
 8682TIP3   OH226009   3.647   5.106   3.006 -0.7250 -0.6034  0.1387
 8682TIP3    H126010   3.612   5.017   2.997 -0.9950 -0.6512  1.4363
 8682TIP3    H226011   3.577   5.155   3.049 -0.4923  0.1939 -0.3678
 8683TIP3   OH226012   1.421   5.773   3.289  0.1619 -0.2568  0.1320
 8683TIP3    H126013   1.406   5.854   3.239 -0.8973 -0.6181 -0.1588
 8683TIP3    H226014   1.512   5.780   3.318  0.3480  0.6506 -0.6008
 8684TIP3   OH226015   2.404   1.711   2.263  0.0948 -0.7857  0.0048
 8684TIP3    H126016   2.484   1.665   2.290 -0.2052  0.0463  2.5745
 8684TIP3    H226017   2.348   1.708   2.340 -0.6824  2.2365 -0.3424
 8685TIP3   OH226018   2.509   0.922   5.838  0.2671  0.0522  0.5126
 8685TIP3    H126019   2.446   0.929   5.909 -0.8696 -0.0306 -0.4520
 8685TIP3    H226020   2.511   1.009   5.798  0.7047  0.0271  0.4678
 8686TIP3   OH226021   3.620   3.872   4.813 -0.1691  0.7795 -0.5037
 8686TIP3    H126022   3.660   3.800   4.765 -2.3856 -0.6407 -0.3468
 8686TIP3    H226023   3.620   3.843   4.904 -0.9136  1.0428 -0.4098
 8687TIP3   OH226024   3.196   5.774   4.318 -0.5663 -0.0204  0.2470
 8687TIP3    H126025   3.197   5.793   4.412 -0.4041  0.7576  0.1022
 8687TIP3    H226026   3.193   5.861   4.277  2.8105 -0.1277 -0.5372
 8688TIP3   OH226027   5.433   1.325   2.575  0.1891  0.2321  0.1750
 8688TIP3    H126028   5.385   1.358   2.499 -0.5562  1.9714  1.3297
 8688TIP3    H226029   5.366   1.283   2.629  0.3349  0.6918  0.7343
 8689TIP3   OH226030   6.782   6.088   3.435 -0.2118  0.6536  0.7685
 8689TIP3    H126031   6.861   6.140   3.420  0.1964  0.0070  0.6421
 8689TIP3    H226032   6.732   6.138   3.499  0.0328  1.3478  0.4275
 8690TIP3   OH226033   3.652   5.165   5.218 -0.1060 -0.0235  0.6117
 8690TIP3    H126034   3.678   5.093   5.276 -2.6732 -0.3139  1.5381
 8690TIP3    H226035   3.582   5.209   5.265 -1.4798  0.4736 -1.7525
 8691TIP3   OH226036   0.281   0.547   3.961 -0.3030  0.2314 -0.0187
 8691TIP3    H126037   0.325   0.631   3.950  0.9888 -0.1470  1.7913
 8691TIP3    H226038   0.322   0.490   3.895 -0.7248  0.8348 -0.8150
 8692TIP3   OH226039   6.890   1.981   3.015  0.0568 -0.3617 -0.1701
 8692TIP3    H126040   6.967   2.006   2.964 -0.4070 -0.4866 -0.9552
 8692TIP3    H226041   6.908   1.891   3.043  0.5786 -0.0806  0.4082
 8693TIP3   OH226042   6.377   1.372   0.828 -0.3430  0.4801  0.3299
 8693TIP3    H126043   6.461   1.383   0.874  0.4919 -1.4697 -0.5782
 8693TIP3    H226044   6.379   1.438   0.758  0.1911  0.8045  0.6445
 8694TIP3   OH226045   3.051   1.332   5.672 -0.2480 -0.0222  0.0917
 8694TIP3    H126046   3.112   1.259   5.662 -0.8759 -0.9234  2.2265
 8694TIP3    H226047   3.089   1.403   5.619  1.3495 -1.2941 -0.5584
 8695TIP3   OH226048   1.429   6.708   1.965  0.0147  0.1116  0.7273
 8695TIP3    H126049   1.411   6.712   1.872 -0.9724  2.3820  0.9475
 8695TIP3    H226050   1.524   6.694   1.971  0.0981  0.0160 -0.6013
 8696TIP3   OH226051   1.214   0.439   2.801 -0.0173 -0.1072 -0.0440
 8696TIP3    H126052   1.302   0.411   2.826 -0.3610 -0.6447  0.5757
 8696TIP3    H226053   1.224   0.532   2.780  0.6697 -0.1275  0.1659
 8697TIP3   OH226054   5.875   6.226   3.639  1.1103  0.0970 -0.4626
 8697TIP3    H126055   5.959   6.217   3.685  0.7572 -1.2410 -0.0477
 8697TIP3    H226056   5.835   6.139   3.645 -1.6300  1.3958  1.8371
 8698TIP3   OH226057   3.229   6.687   3.948  0.2355 -0.1855 -0.0864
 8698TIP3    H126058   3.211   6.616   3.887  0.0231  0.3746 -0.6915
 8698TIP3    H226059   3.235   6.765   3.893  1.1298  0.1708  0.4844
 8699TIP3   OH226060   3.610   3.773   3.817  0.1353  0.0591 -0.4802
 8699TIP3    H126061   3.519   3.747   3.798  0.9838 -1.7183 -2.4213
 8699TIP3    H226062   3.606   3.869   3.824 -1.8346  0.0504 -0.8211
 8700TIP3   OH226063   4.064   4.881   2.597  0.5959  0.5973 -0.3124
 8700TIP3    H126064   4.153   4.860   2.625  0.3606  0.0640  0.0641
 8700TIP3    H226065   4.010   4.811   2.636  0.0789  0.6475 -0.9250
 8701TIP3   OH226066   5.353  -0.002   2.526 -0.6526  0.3421  0.0047
 8701TIP3    H126067   5.412   0.035   2.461 -0.8602 -1.8570 -1.5407
 8701TIP3    H226068   5.266   0.030   2.501 -0.3267  3.3502  2.1165
 8702TIP3   OH226069   5.464   0.465   3.666 -0.0691  0.3315  0.3248
 8702TIP3    H126070   5.404   0.484   3.594 -0.4562  1.8200  0.9905
 8702TIP3    H226071   5.426   0.511   3.742 -1.0409 -3.1953  2.1928
 8703TIP3   OH226072   3.780   5.338   3.619 -1.1659 -0.2357  0.4899
 8703TIP3    H126073   3.721   5.386   3.676 -0.0561  0.7672  0.8223
 8703TIP3    H226074   3.781   5.387   3.537 -0.1898  0.2033  0.7576
 8704TIP3   OH226075   6.284   3.454   0.451 -0.4793  0.2901  0.3778
 8704TIP3    H126076   6.225   3.529   0.455 -1.5846 -0.4492 -0.9834
 8704TIP3    H226077   6.359   3.479   0.504 -2.1181  1.1619  2.4332
 8705TIP3   OH226078   7.068   5.504   1.567  0.0745 -0.5588 -0.0708
 8705TIP3    H126079   7.004   5.536   1.631 -0.6535 -2.6310  0.3292
 8705TIP3    H226080   7.095   5.582   1.519 -2.2670  0.5171  0.2068
 8706TIP3   OH226081   4.250   5.218   1.103 -0.3614  0.6669 -0.3928
 8706TIP3    H126082   4.244   5.138   1.154 -0.8171  0.3299 -0.9679
 8706TIP3    H226083   4.180   5.211   1.038 -0.9592  1.9226  0.0844
 8707TIP3   OH226084   4.599   5.081   4.202  0.5625 -0.2912 -0.4746
 8707TIP3    H126085   4.629   4.990   4.200  0.6656 -0.2767  0.1745
 8707TIP3    H226086   4.544   5.086   4.280  1.3257  0.4339  0.0358
 8708TIP3   OH226087   0.175   5.106   3.588 -0.5350 -0.2837  0.4531
 8708TIP3    H126088   0.212   5.178   3.537 -0.7947 -0.7661 -0.4518
 8708TIP3    H226089   0.086   5.096   3.555 -0.5243 -0.9714  0.6041
 8709TIP3   OH226090   2.499   4.937   1.217 -0.3280 -0.3750  1.1025
 8709TIP3    H126091   2.469   5.025   1.193 -0.6296  0.0076  2.7713
 8709TIP3    H226092   2.486   4.885   1.137  1.3092  1.4107 -0.4039
 8710TIP3   OH226093   3.240   0.855   3.642 -0.2281 -1.1224  0.1304
 8710TIP3    H126094   3.310   0.917   3.620 -0.2216 -1.5896 -1.2730
 8710TIP3    H226095   3.271   0.772   3.606 -0.8144 -1.6729  0.8760
 8711TIP3   OH226096   4.823   3.770   0.669 -0.0171  0.6634  0.3021
 8711TIP3    H126097   4.846   3.808   0.585  0.3128  0.6311  0.3777
 8711TIP3    H226098   4.843   3.677   0.660  1.4323  0.8807  0.8927
 8712TIP3   OH226099   4.031   1.330   1.827  0.7862 -0.0383 -0.2164
 8712TIP3    H126100   4.052   1.271   1.755  0.0511  0.0997 -0.5480
 8712TIP3    H226101   3.941   1.310   1.850  0.6269  0.7401 -0.1295
 8713TIP3   OH226102   2.871   4.528   4.006  0.0378  0.1877 -0.4672
 8713TIP3    H126103   2.960   4.553   3.981  0.5296  0.1959  1.1662
 8713TIP3    H226104   2.848   4.588   4.077 -1.2027  0.0601 -0.7445
 8714TIP3   OH226105   6.573   0.434   4.171 -0.3134 -0.7859  0.0761
 8714TIP3    H126106   6.510   0.386   4.117 -0.8414  2.5134 -2.6461
 8714TIP3    H226107   6.645   0.453   4.111  0.7636  0.0967  1.5898
 8715TIP3   OH226108   6.382   6.058   5.142  0.5473  0.4331 -0.5538
 8715TIP3    H126109   6.420   5.970   5.144 -0.1410  0.1268 -0.6260
 8715TIP3    H226110   6.288   6.043   5.134 -0.2492  1.0044  4.4363
 8716TIP3   OH226111   2.666   5.056   0.202 -0.3611  0.4184  0.2024
 8716TIP3    H126112   2.611   4.979   0.183  1.7100 -1.7189  2.2239
 8716TIP3    H226113   2.640   5.083   0.290  0.8933  0.1473  0.6823
 8717TIP3   OH226114   6.906   3.949   1.082 -0.3940 -0.6068 -0.0952
 8717TIP3    H126115   6.931   3.878   1.141  0.2830  0.4997  0.9740
 8717TIP3    H226116   6.818   3.973   1.110 -0.8150 -1.2956 -0.7600
 8718TIP3   OH226117   6.241   6.273   2.444  0.1243 -0.5669 -0.4539
 8718TIP3    H126118   6.331   6.288   2.472 -0.6693 -0.8371  2.6066
 8718TIP3    H226119   6.242   6.186   2.405  1.3491 -0.1331 -1.4591
 8719TIP3   OH226120   4.443   1.174   0.182 -0.0347  0.1535 -0.0014
 8719TIP3    H126121   4.482   1.208   0.101  0.9144 -0.6345  0.0997
 8719TIP3    H226122   4.459   1.242   0.247 -0.9625  0.8702 -0.5118
 8720TIP3   OH226123   2.715   1.876   0.109 -0.7439  0.7954  0.6900
 8720TIP3    H126124   2.727   1.854   0.202  2.3126  0.3905  0.3315
 8720TIP3    H226125   2.786   1.938   0.090 -0.7141  0.1526 -1.5779
 8721TIP3   OH226126   2.127   5.116   3.029  0.2839  0.3498 -0.9096
 8721TIP3    H126127   2.197   5.100   3.093 -1.4938  1.4698  1.4733
 8721TIP3    H226128   2.160   5.188   2.975  0.6472  1.4955  0.7727
 8722TIP3   OH226129   4.313   3.394   5.880  0.0678  1.0650  0.0893
 8722TIP3    H126130   4.230   3.366   5.843 -0.0611  1.3123  0.1916
 8722TIP3    H226131   4.333   3.476   5.835  1.3207 -0.0485 -1.5320
 8723TIP3   OH226132   5.245   0.444   2.777  0.2591  0.0709 -0.4946
 8723TIP3    H126133   5.232   0.397   2.694  1.3255  2.4633 -2.1415
 8723TIP3    H226134   5.320   0.402   2.817  0.3062 -0.5465 -1.1998
 8724TIP3   OH226135   3.914   6.194   3.855 -0.1875 -0.4316 -0.3686
 8724TIP3    H126136   3.994   6.143   3.866  0.4618  0.3010 -1.5413
 8724TIP3    H226137   3.891   6.184   3.763 -0.7376  0.3853 -0.3298
 8725TIP3   OH226138   5.345   3.218   5.133 -0.5982  0.7918  0.2413
 8725TIP3    H126139   5.438   3.199   5.144 -0.9772 -0.4359  1.6101
 8725TIP3    H226140   5.321   3.264   5.213 -0.8857  2.4363 -0.7427
 8726TIP3   OH226141   6.940   1.140   1.042  0.4081 -0.6691  0.4256
 8726TIP3    H126142   6.996   1.217   1.037 -0.2411 -0.1030  1.3643
 8726TIP3    H226143   6.874   1.154   0.975  2.1076 -2.0001 -1.6385
 8727TIP3   OH226144   1.477   4.760   5.501 -0.0377  0.4009  0.5154
 8727TIP3    H126145   1.476   4.671   5.534 -2.6306 -0.7980 -2.3523
 8727TIP3    H226146   1.543   4.759   5.431  0.5190  1.0088  1.0137
 8728TIP3   OH226147   3.569   3.322   2.878 -0.1842  0.0818 -0.7779
 8728TIP3    H126148   3.546   3.234   2.908  1.1986 -0.4024 -1.0777
 8728TIP3    H226149   3.551   3.379   2.953 -1.7456 -0.3357 -0.8073
 8729TIP3   OH226150   0.085   5.971   2.752 -0.1859 -0.6978  0.7149
 8729TIP3    H126151   0.077   5.916   2.830 -1.5646 -0.2285  0.9283
 8729TIP3    H226152   0.049   5.918   2.681  3.1721 -2.0706 -0.1660
 8730TIP3   OH226153   0.219   6.357   3.878  0.0115  0.0357  0.4656
 8730TIP3    H126154   0.173   6.356   3.962  0.2187 -1.6019  0.5972
 8730TIP3    H226155   0.153   6.333   3.813  0.6182 -2.6370  0.6920
 8731TIP3   OH226156   3.809   5.794   1.006 -0.0220  0.0760 -0.0205
 8731TIP3    H126157   3.756   5.873   0.993  1.0595  0.4005 -3.6420
 8731TIP3    H226158   3.753   5.723   0.973  0.5170 -0.0347 -0.7287
 8732TIP3   OH226159   1.674   3.255   2.187 -0.3831 -0.2355  0.1055
 8732TIP3    H126160   1.722   3.221   2.112 -1.8277 -3.6943  0.5483
 8732TIP3    H226161   1.584   3.266   2.155 -0.5820  0.2776  0.8087
 8733TIP3   OH226162   5.685   0.220   3.055  0.5099 -0.1492  0.0498
 8733TIP3    H126163   5.771   0.244   3.020  0.3782  0.1439 -0.0744
 8733TIP3    H226164   5.689   0.242   3.148  0.4611  0.1641 -0.0208
 8734TIP3   OH226165   1.082   6.165   1.405 -0.2521  0.7002  0.0051
 8734TIP3    H126166   1.100   6.093   1.345  0.2841 -0.1386  1.1580
 8734TIP3    H226167   1.002   6.139   1.451  0.3223  0.5058  0.9158
 8735TIP3   OH226168   0.634   4.572   5.733 -0.4156  0.6909  0.8415
 8735TIP3    H126169   0.670   4.510   5.796 -1.3912 -0.2229  0.5247
 8735TIP3    H226170   0.546   4.591   5.766 -0.3946  1.3525  0.5415
 8736TIP3   OH226171   3.408   0.202   1.608  0.3523 -0.3025 -0.7537
 8736TIP3    H126172   3.327   0.250   1.591  1.3212  1.3578 -0.9099
 8736TIP3    H226173   3.379   0.112   1.626 -1.5834  0.3965 -0.0135
 8737TIP3   OH226174   6.199   0.054   2.987 -0.5614  0.6875  0.0547
 8737TIP3    H126175   6.125   0.043   2.928 -1.2399 -0.8962  1.1350
 8737TIP3    H226176   6.270   0.084   2.930  0.0945 -4.7506 -2.6420
 8738TIP3   OH226177   2.902   5.708   3.494  0.5567  0.4805  0.2405
 8738TIP3    H126178   2.943   5.699   3.580  1.8085 -2.0123 -0.5056
 8738TIP3    H226179   2.811   5.684   3.508  0.5364  1.0029  1.0338
 8739TIP3   OH226180   5.737   0.568   1.253  0.7235 -0.1667  1.1563
 8739TIP3    H126181   5.793   0.593   1.327  2.0855 -1.5511  0.6500
 8739TIP3    H226182   5.799   0.537   1.187 -0.6710 -2.2411  0.7630
 8740TIP3   OH226183   4.158   1.729   0.748  0.0508  0.5059  0.0931
 8740TIP3    H126184   4.172   1.763   0.836 -1.8126  1.2368  0.1512
 8740TIP3    H226185   4.213   1.784   0.692 -1.1305  2.1348  0.4679
 8741TIP3   OH226186   0.913   5.656   0.612  0.4524  0.9923  0.7375
 8741TIP3    H126187   0.891   5.744   0.580 -1.8668  0.3277  0.3688
 8741TIP3    H226188   0.829   5.613   0.626  1.5321 -1.2171  0.8940
 8742TIP3   OH226189   6.261   6.170   2.168 -0.7630 -0.3648  0.3127
 8742TIP3    H126190   6.341   6.218   2.191 -1.4518  0.5723  0.8460
 8742TIP3    H226191   6.280   6.131   2.082 -0.1649  0.8472 -0.1304
 8743TIP3   OH226192   3.819   4.300   0.180  0.0954 -0.7525  0.0321
 8743TIP3    H126193   3.727   4.282   0.197 -0.2526  0.7709 -0.0885
 8743TIP3    H226194   3.860   4.299   0.267 -0.8647  2.6945  0.6470
 8744TIP3   OH226195   1.320   4.718   1.491 -0.5759  0.9001  0.0581
 8744TIP3    H126196   1.405   4.687   1.460 -1.1024 -1.7697  0.9846
 8744TIP3    H226197   1.337   4.806   1.525  1.7662  0.5224  0.0336
 8745TIP3   OH226198   0.560   3.754   1.117 -0.2692  0.1497 -0.4519
 8745TIP3    H126199   0.614   3.819   1.162 -0.8821  0.2633  0.1372
 8745TIP3    H226200   0.470   3.774   1.144 -0.4961 -0.7617 -0.4938
 8746TIP3   OH226201   5.172   6.721   0.625  0.0579  0.1907  0.1633
 8746TIP3    H126202   5.108   6.653   0.647  0.3278 -0.0392  0.2442
 8746TIP3    H226203   5.163   6.732   0.530 -0.4186  0.4820  0.2432
 8747TIP3   OH226204   4.907   6.194   0.884 -0.1450 -0.3985 -0.5173
 8747TIP3    H126205   4.845   6.265   0.901 -0.6904 -0.9339 -0.2283
 8747TIP3    H226206   4.963   6.193   0.961  1.2201  1.0736 -1.4353
 8748TIP3   OH226207   7.119   0.445   1.018 -0.0785  0.0152  0.6695
 8748TIP3    H126208   7.117   0.492   0.934 -2.1625 -0.5508  0.3319
 8748TIP3    H226209   7.204   0.466   1.056  1.2628 -0.3219 -1.9310
 8749TIP3   OH226210   7.161   3.968   1.728  0.3267 -0.6375 -0.4550
 8749TIP3    H126211   7.249   3.989   1.759  0.6408 -1.0442 -1.0462
 8749TIP3    H226212   7.147   4.027   1.654 -0.6325  0.7110  0.7443
 8750TIP3   OH226213   5.211   6.448   0.919 -0.3590 -0.6691  0.0629
 8750TIP3    H126214   5.164   6.444   0.836  0.8479 -1.2774 -0.6211
 8750TIP3    H226215   5.203   6.360   0.956  0.0939 -0.7378  0.0095
 8751TIP3   OH226216   5.282   2.094   5.084 -0.6583 -0.7881 -0.1410
 8751TIP3    H126217   5.188   2.108   5.094 -0.3638  1.4751  0.0393
 8751TIP3    H226218   5.296   2.090   4.989 -0.8512 -0.3194 -0.1899
 8752TIP3   OH226219   1.530   5.569   4.882  0.4348 -0.0519 -0.0673
 8752TIP3    H126220   1.624   5.557   4.866  0.8214  1.2119  1.1028
 8752TIP3    H226221   1.497   5.604   4.799  0.9435 -0.6966 -0.5587
 8753TIP3   OH226222   0.438   0.899   5.527  0.1710  0.2094 -0.1551
 8753TIP3    H126223   0.397   0.839   5.589  0.5155 -1.3516 -1.3644
 8753TIP3    H226224   0.413   0.986   5.556 -3.2031 -0.6046 -0.2905
 8754TIP3   OH226225   1.315   1.543   5.642  0.2325  0.4920 -0.2601
 8754TIP3    H126226   1.323   1.460   5.688  2.2154 -0.1317 -1.6030
 8754TIP3    H226227   1.272   1.521   5.559 -0.8870  1.1414  0.1283
 8755TIP3   OH226228   0.941   3.996   2.576  0.5008  0.2930  0.4988
 8755TIP3    H126229   1.028   3.958   2.571 -0.8284 -2.9070 -1.2759
 8755TIP3    H226230   0.892   3.936   2.634 -1.1309  0.5400 -0.5573
 8756TIP3   OH226231   5.524   6.452   4.316 -0.3676 -0.2298  0.1284
 8756TIP3    H126232   5.517   6.505   4.237  0.1674  0.5773  0.6151
 8756TIP3    H226233   5.553   6.366   4.285  2.2210  0.7453 -0.3390
 8757TIP3   OH226234   4.040   3.621   1.405 -0.1186 -0.4005 -0.5148
 8757TIP3    H126235   4.112   3.673   1.441 -0.1080 -0.7355 -0.0472
 8757TIP3    H226236   4.054   3.533   1.439 -0.9057 -0.4128 -0.1836
 8758TIP3   OH226237   3.431   5.243   5.347  0.3856  0.8013 -0.2507
 8758TIP3    H126238   3.392   5.264   5.432  0.9648 -0.5076  0.3714
 8758TIP3    H226239   3.375   5.173   5.312 -0.1746  1.7059 -1.2190
 8759TIP3   OH226240   5.886   3.707   3.733 -0.3340  0.6241  0.0214
 8759TIP3    H126241   5.952   3.738   3.671  0.5207  1.3177  1.2402
 8759TIP3    H226242   5.829   3.782   3.747 -0.4578  0.5013  0.1750
 8760TIP3   OH226243   0.400   0.352   4.769 -0.3234 -0.1360 -0.0558
 8760TIP3    H126244   0.329   0.334   4.830 -1.0692  0.7410 -0.6415
 8760TIP3    H226245   0.458   0.276   4.776 -0.6101 -0.2500  1.4184
 8761TIP3   OH226246   4.393   5.119   3.890  0.2012  0.1605  0.2400
 8761TIP3    H126247   4.319   5.175   3.866 -0.2460  0.1077  1.4294
 8761TIP3    H226248   4.461   5.179   3.919 -0.0806  0.1162  0.9950
 8762TIP3   OH226249   1.035   2.825   1.267 -0.4267 -0.4879 -0.1171
 8762TIP3    H126250   1.104   2.791   1.210  0.6424 -0.3284  1.0198
 8762TIP3    H226251   0.976   2.751   1.281 -1.5819 -0.1309 -2.6009
 8763TIP3   OH226252   4.552   0.012   4.630  0.2497  0.1580 -0.1347
 8763TIP3    H126253   4.538   0.007   4.535 -0.3923 -1.8306  0.0214
 8763TIP3    H226254   4.645  -0.010   4.641 -0.6021 -4.3583 -0.1126
 8764TIP3   OH226255   1.628   3.388   2.968 -0.3553  0.1546  0.5192
 8764TIP3    H126256   1.542   3.413   2.934  0.0434 -1.0513 -1.5514
 8764TIP3    H226257   1.614   3.301   3.005 -0.4715  0.8884  2.2995
 8765TIP3   OH226258   1.784   0.344   5.424 -0.1889  0.1871 -0.0527
 8765TIP3    H126259   1.818   0.360   5.336  1.6850 -0.8488  0.4215
 8765TIP3    H226260   1.808   0.422   5.475  1.1875 -0.3517  0.1689
 8766TIP3   OH226261   3.977   5.211   0.165  0.1907  0.0187  0.6108
 8766TIP3    H126262   3.963   5.220   0.259 -1.3707  0.1629  0.3918
 8766TIP3    H226263   3.900   5.162   0.134  1.1607 -0.8770 -0.4523
 8767TIP3   OH226264   1.068   0.507   3.610 -0.2186 -0.1952  0.5085
 8767TIP3    H126265   1.055   0.421   3.570 -1.4836 -0.2560  1.0099
 8767TIP3    H226266   1.015   0.505   3.690 -0.4297  1.1151  0.4251
 8768TIP3   OH226267   6.172   0.304   3.156  0.9593 -0.1212  0.0987
 8768TIP3    H126268   6.161   0.228   3.100 -0.3454  0.3366 -0.3110
 8768TIP3    H226269   6.095   0.358   3.138 -0.2131 -0.5461  3.2431
 8769TIP3   OH226270   1.892   5.727   5.590 -0.4976 -0.1549 -0.3645
 8769TIP3    H126271   1.868   5.782   5.665 -0.7922 -0.3587 -0.3086
 8769TIP3    H226272   1.939   5.786   5.531  1.8665 -0.4955  1.0358
 8770TIP3   OH226273   0.983   0.551   1.995  0.0656  0.0240  0.2303
 8770TIP3    H126274   0.994   0.646   1.994  0.6879 -0.0424 -0.6614
 8770TIP3    H226275   0.926   0.533   1.921 -1.3899 -0.1712  1.3618
 8771TIP3   OH226276   0.046   0.007   5.520  0.1480 -0.3371  0.3221
 8771TIP3    H126277   0.107   0.082   5.520 -0.5814  0.2664  0.4787
 8771TIP3    H226278   0.021  -0.002   5.428 -2.0839  1.5739  0.6375
 8772TIP3   OH226279   2.587   2.772   2.969 -0.0064  0.7339  0.1081
 8772TIP3    H126280   2.677   2.801   2.976  0.6603 -1.1793  0.0604
 8772TIP3    H226281   2.571   2.722   3.049 -0.7254  0.3526 -0.2588
 8773TIP3   OH226282   1.564   1.425   1.581 -0.0063  0.2141 -0.0141
 8773TIP3    H126283   1.542   1.471   1.501  0.7207 -0.0970 -0.3974
 8773TIP3    H226284   1.486   1.373   1.601 -0.2073  0.3348 -0.4892
 8774TIP3   OH226285   1.104   6.062   3.424  0.1308 -0.1841 -0.1870
 8774TIP3    H126286   1.177   6.110   3.462 -0.7554  0.9493  0.1398
 8774TIP3    H226287   1.131   5.971   3.427  0.4225 -0.0751  2.4329
 8775TIP3   OH226288   2.187   3.214   5.780  0.0269 -1.0128 -0.0037
 8775TIP3    H126289   2.191   3.273   5.856  1.3691 -1.3719  0.2223
 8775TIP3    H226290   2.119   3.253   5.724 -0.5540 -0.3970  1.0757
 8776TIP3   OH226291   1.820   3.566   2.335  0.3682 -0.4768 -0.3484
 8776TIP3    H126292   1.877   3.635   2.301 -0.4039  0.3617  0.0341
 8776TIP3    H226293   1.733   3.587   2.302 -0.2121 -0.2342  1.2433
 8777TIP3   OH226294   0.160   4.724   1.219 -0.3131 -0.1777 -0.6336
 8777TIP3    H126295   0.119   4.800   1.261  0.6124  0.2720 -0.5189
 8777TIP3    H226296   0.253   4.743   1.222 -0.1466 -0.7934 -1.6567
 8778TIP3   OH226297   0.683   3.309   0.559  0.3773  0.1905  0.2219
 8778TIP3    H126298   0.774   3.332   0.575  0.5272 -0.3736  0.1819
 8778TIP3    H226299   0.659   3.358   0.480  0.8685 -0.2376 -0.1994
 8779TIP3   OH226300   5.464   2.501   2.560 -0.3668  0.5181 -0.4668
 8779TIP3    H126301   5.378   2.490   2.519 -0.7171 -1.3382  0.6323
 8779TIP3    H226302   5.519   2.435   2.517 -0.5730 -1.0161  1.5006
 8780TIP3   OH226303   2.125   2.337   0.154 -0.1493 -0.0051  0.0931
 8780TIP3    H126304   2.128   2.245   0.180 -0.9306  0.4828  2.0622
 8780TIP3    H226305   2.161   2.337   0.065  2.5813 -1.8148  1.0391
 8781TIP3   OH226306   2.811   5.304   1.437  0.1774 -0.0863 -0.1483
 8781TIP3    H126307   2.751   5.274   1.368 -0.5988  0.7334  0.1451
 8781TIP3    H226308   2.773   5.387   1.467  2.7895  1.7738 -1.6300
 8782TIP3   OH226309   4.515   6.314   0.762  0.1760  0.2818  0.1241
 8782TIP3    H126310   4.493   6.264   0.683 -1.3787 -0.2739  0.8695
 8782TIP3    H226311   4.561   6.251   0.818 -1.1720 -0.1389  0.7800
 8783TIP3   OH226312   4.433   3.093   4.477  0.3744 -0.1569  0.2323
 8783TIP3    H126313   4.484   3.151   4.534  1.2737 -0.3273 -0.3824
 8783TIP3    H226314   4.412   3.017   4.532  1.6444 -0.5395  0.2116
 8784TIP3   OH226315   2.527   3.547   0.827  0.0572  0.2761 -0.1637
 8784TIP3    H126316   2.523   3.565   0.921  1.1086 -0.1779 -0.0149
 8784TIP3    H226317   2.604   3.492   0.816 -0.1137  0.2240 -1.2859
 8785TIP3   OH226318   3.162   0.806   1.235  0.2414 -0.2783  0.0362
 8785TIP3    H126319   3.234   0.796   1.172  0.1902  0.3624 -0.1413
 8785TIP3    H226320   3.185   0.884   1.285  0.5643 -1.1039  1.2132
 8786TIP3   OH226321   7.047   0.868   2.041  0.2014  0.4295 -0.4393
 8786TIP3    H126322   7.109   0.798   2.062  0.2741  0.8899  0.9531
 8786TIP3    H226323   7.045   0.922   2.119 -1.7940  0.5560 -0.5409
 8787TIP3   OH226324   2.864   3.142   4.224  0.1082 -0.2767  0.3397
 8787TIP3    H126325   2.773   3.115   4.235  0.0568 -0.1579  0.2050
 8787TIP3    H226326   2.860   3.215   4.162  0.1281  0.6890  1.4303
 8788TIP3   OH226327   6.037   3.717   2.564 -0.1510  0.4484 -0.4519
 8788TIP3    H126328   6.031   3.672   2.480  1.2876 -1.4360  0.3712
 8788TIP3    H226329   6.062   3.807   2.542 -1.2461  0.3742 -2.0823
 8789TIP3   OH226330   2.146   1.002   3.209  0.1076  0.2899 -0.5346
 8789TIP3    H126331   2.166   0.918   3.250  1.0908  0.6876 -0.1918
 8789TIP3    H226332   2.185   0.997   3.122  1.5748  0.9729  0.0493
 8790TIP3   OH226333   2.933   5.611   1.869 -0.8655  0.4468 -0.5309
 8790TIP3    H126334   2.848   5.601   1.912 -0.3559  0.8863  0.6192
 8790TIP3    H226335   2.914   5.605   1.776 -2.2344  1.1234 -0.3126
 8791TIP3   OH226336   1.633   5.417   4.094  0.4005 -0.1538 -0.0207
 8791TIP3    H126337   1.686   5.343   4.123  0.1388 -0.5750 -0.5942
 8791TIP3    H226338   1.684   5.455   4.022  1.3630  1.2737  1.3444
 8792TIP3   OH226339   5.140   5.564   5.788  0.5741  0.3498 -0.4158
 8792TIP3    H126340   5.232   5.588   5.805  1.0859 -0.9560 -1.1968
 8792TIP3    H226341   5.146   5.494   5.723 -0.8742 -1.5198  1.3642
 8793TIP3   OH226342   2.133   3.255   2.184 -0.1304 -0.2420 -0.3079
 8793TIP3    H126343   2.152   3.168   2.220  0.8320 -0.7670 -1.9604
 8793TIP3    H226344   2.141   3.244   2.089 -2.1072  1.1777 -0.7074
 8794TIP3   OH226345   5.664   6.218   0.395 -0.4049 -0.2007  0.0437
 8794TIP3    H126346   5.582   6.252   0.360 -0.7860 -0.6610  0.4827
 8794TIP3    H226347   5.645   6.198   0.487  0.0239 -0.9069 -0.0184
 8795TIP3   OH226348   5.275   4.103   3.479  0.5533  0.3381 -0.2685
 8795TIP3    H126349   5.181   4.112   3.494  0.6461  0.2796  0.3793
 8795TIP3    H226350   5.284   4.095   3.384 -0.0409  0.9602 -0.3769
 8796TIP3   OH226351   1.275   4.411   0.925  0.0913  0.4336  0.4714
 8796TIP3    H126352   1.365   4.434   0.947  0.7531  0.2685 -1.7724
 8796TIP3    H226353   1.263   4.323   0.961  1.5312 -0.3492 -0.8496
 8797TIP3   OH226354   2.025   2.383   2.459 -0.1916  0.4180  0.2112
 8797TIP3    H126355   2.068   2.464   2.488  0.0143  0.5899 -0.5488
 8797TIP3    H226356   1.996   2.341   2.539  2.2455 -0.1809  0.8425
 8798TIP3   OH226357   7.132   5.587   3.573 -0.3308  0.2553  0.4721
 8798TIP3    H126358   7.188   5.618   3.502 -0.0713 -0.9625  0.1278
 8798TIP3    H226359   7.189   5.587   3.650  0.8448 -2.9131 -0.2527
 8799TIP3   OH226360   1.441   6.036   3.145  0.2468  0.4240  0.5963
 8799TIP3    H126361   1.350   6.063   3.151 -0.2471 -0.9415 -0.1515
 8799TIP3    H226362   1.490   6.102   3.193 -1.0720  1.5083  0.4913
 8800TIP3   OH226363   4.408   0.865   3.235 -0.4132 -0.1789 -0.4150
 8800TIP3    H126364   4.492   0.827   3.210 -0.2645 -0.0097 -0.1749
 8800TIP3    H226365   4.418   0.959   3.216 -0.2935 -0.0469  0.2881
 8801TIP3   OH226366   0.424   6.332   5.656 -0.2289  0.3706 -0.4142
 8801TIP3    H126367   0.472   6.329   5.739 -0.7935  2.2068  0.0381
 8801TIP3    H226368   0.444   6.419   5.620  0.0578 -0.4039 -2.2702
 8802TIP3   OH226369   2.703   4.963   1.626  0.3806 -0.6645 -0.1180
 8802TIP3    H126370   2.765   4.935   1.694  0.4851 -1.2178 -0.4394
 8802TIP3    H226371   2.758   4.979   1.549  0.3248  0.4295  0.0511
 8803TIP3   OH226372   1.078   6.340   4.453 -0.2375  0.1155  0.2326
 8803TIP3    H126373   1.174   6.341   4.456 -0.2382 -0.6147  1.1388
 8803TIP3    H226374   1.056   6.373   4.366  0.8137  1.1366  0.3281
 8804TIP3   OH226375   2.936   5.085   0.297  0.1569 -0.4207 -0.2278
 8804TIP3    H126376   2.879   5.155   0.264  0.8916  1.4138  2.1481
 8804TIP3    H226377   2.962   5.114   0.384  2.1090 -2.7555  0.0654
 8805TIP3   OH226378   7.217   4.936   0.946  0.3581  0.1838  0.1517
 8805TIP3    H126379   7.248   5.025   0.932  0.3667  0.2943  0.8572
 8805TIP3    H226380   7.121   4.943   0.943  0.3620  0.1362 -0.2316
 8806TIP3   OH226381   5.316   4.762   3.128 -0.2371  0.5178 -0.1285
 8806TIP3    H126382   5.389   4.730   3.076 -1.2527  0.9063 -1.8855
 8806TIP3    H226383   5.329   4.857   3.131  0.4734  0.3892  1.4137
 8807TIP3   OH226384   6.717   3.544   2.409  0.3251  0.0247 -0.3234
 8807TIP3    H126385   6.705   3.461   2.363  0.7028  0.3623 -1.0462
 8807TIP3    H226386   6.797   3.581   2.373  0.1632  0.7079 -0.0113
 8808TIP3   OH226387   1.313   3.717   0.739 -0.5603 -0.3639 -0.3512
 8808TIP3    H126388   1.345   3.688   0.825 -2.8731  1.0979  1.1285
 8808TIP3    H226389   1.249   3.651   0.714  0.1217 -0.7960 -0.9980
 8809TIP3   OH226390   0.044   4.346   1.635  0.0723  0.1861 -0.8526
 8809TIP3    H126391  -0.051   4.345   1.645  0.1386  2.1409  0.6281
 8809TIP3    H226392   0.065   4.436   1.611  1.6560  0.2485  0.5473
 8810TIP3   OH226393   2.486   2.934   3.646  0.0633 -0.4300 -0.0739
 8810TIP3    H126394   2.407   2.883   3.626  0.4515 -1.2395  0.4086
 8810TIP3    H226395   2.547   2.911   3.576 -1.0461  2.4061 -2.1506
 8811TIP3   OH226396   0.338   1.151   1.294  0.2061 -0.1417  0.6371
 8811TIP3    H126397   0.398   1.100   1.239  3.1558  1.3697  2.1972
 8811TIP3    H226398   0.251   1.133   1.258  1.5176 -2.6565 -1.6608
 8812TIP3   OH226399   2.863   5.787   0.435 -0.3195  0.3948 -0.2577
 8812TIP3    H126400   2.791   5.737   0.475  0.3334 -0.5586 -0.2272
 8812TIP3    H226401   2.934   5.781   0.499  0.5816 -0.7475 -1.3017
 8813TIP3   OH226402   5.291   0.552   1.578  0.0816 -0.2075  0.1007
 8813TIP3    H126403   5.366   0.495   1.558 -1.0151 -1.5266 -0.3692
 8813TIP3    H226404   5.331   0.638   1.592  1.6938 -0.8669 -0.1152
 8814TIP3   OH226405   3.451   1.718   3.867  0.3978 -0.7263 -0.1262
 8814TIP3    H126406   3.441   1.722   3.962  1.1433  1.3205 -0.0720
 8814TIP3    H226407   3.545   1.702   3.854  0.6518  0.7842 -0.4486
 8815TIP3   OH226408   7.081   1.810   2.930 -0.2313  0.1539  0.4280
 8815TIP3    H126409   7.106   1.722   2.903 -0.3870  0.7104 -1.6612
 8815TIP3    H226410   7.159   1.863   2.914 -1.0362  0.9203 -1.1657
 8816TIP3   OH226411   6.751   1.874   0.652  0.1382 -0.3041 -0.0690
 8816TIP3    H126412   6.813   1.899   0.720  1.7320 -1.4021 -1.0344
 8816TIP3    H226413   6.711   1.956   0.624  1.7839  0.5695  0.0280
 8817TIP3   OH226414   5.064   0.735   5.643  0.1272  0.4945 -0.0308
 8817TIP3    H126415   5.124   0.668   5.678 -0.1841 -0.3931 -1.1179
 8817TIP3    H226416   5.121   0.800   5.602  0.3808 -0.3404 -1.0518
 8818TIP3   OH226417   6.722   3.567   2.969  0.0522  0.1568 -0.4550
 8818TIP3    H126418   6.732   3.662   2.963 -0.8075  0.6210  3.0016
 8818TIP3    H226419   6.649   3.555   3.029  0.3204 -2.7142 -0.5822
 8819TIP3   OH226420   2.999   5.029   5.559 -0.0462 -0.3639 -0.2127
 8819TIP3    H126421   3.043   5.113   5.548 -0.1788 -0.2856 -0.1421
 8819TIP3    H226422   2.955   5.036   5.644 -0.1573 -0.4589 -0.2622
 8820TIP3   OH226423   0.771   3.755   2.263 -0.0258  0.4444  0.3194
 8820TIP3    H126424   0.704   3.728   2.326  0.8345  0.1570  1.1223
 8820TIP3    H226425   0.850   3.710   2.290  0.4298  0.5178 -0.8256
 8821TIP3   OH226426   3.904   6.251   0.477 -0.4577 -0.0393  0.1882
 8821TIP3    H126427   3.929   6.159   0.483 -0.3739  0.0710  4.1239
 8821TIP3    H226428   3.823   6.258   0.527 -0.4037  2.0532  0.0816
 8822TIP3   OH226429   2.326   1.333   2.242  0.2335  0.4758  0.3927
 8822TIP3    H126430   2.295   1.398   2.178 -2.9806 -1.1461  0.0923
 8822TIP3    H226431   2.267   1.343   2.317  2.2129  0.4792  2.0467
 8823TIP3   OH226432   3.854   3.537   0.091 -0.3397  0.1739 -0.2205
 8823TIP3    H126433   3.937   3.582   0.073 -0.1634 -0.7237 -1.8200
 8823TIP3    H226434   3.791   3.607   0.106  0.6715  0.8722  0.9686
 8824TIP3   OH226435   3.679   2.532   5.257 -0.2615  0.4470  0.2673
 8824TIP3    H126436   3.597   2.509   5.213 -1.4192 -1.6530  3.1853
 8824TIP3    H226437   3.651   2.578   5.337  1.5497  1.4903  0.3539
 8825TIP3   OH226438   0.444   5.609   3.156  0.1180  0.1743  0.0056
 8825TIP3    H126439   0.496   5.550   3.101  0.3524  1.7658 -1.5553
 8825TIP3    H226440   0.503   5.633   3.228 -0.3058 -2.1975  1.2521
 8826TIP3   OH226441   1.108   6.631   1.556 -0.2441 -0.4403  0.0121
 8826TIP3    H126442   1.080   6.539   1.558 -2.1280  0.0850 -0.7032
 8826TIP3    H226443   1.139   6.648   1.646 -0.2047 -1.6612  0.2447
 8827TIP3   OH226444   0.086   2.449   5.473 -0.1608 -0.1326  0.0562
 8827TIP3    H126445   0.121   2.360   5.473 -1.2685 -0.6026 -1.0473
 8827TIP3    H226446   0.092   2.477   5.564  0.9792 -1.0077  0.2739
 8828TIP3   OH226447   2.480   0.068   5.421 -0.8606  0.2631 -0.1487
 8828TIP3    H126448   2.477  -0.021   5.457  2.0117  0.3473  0.5584
 8828TIP3    H226449   2.398   0.108   5.449 -2.2348 -2.1160 -0.4785
 8829TIP3   OH226450   6.663   0.566   0.233 -0.2496 -0.3894 -0.3716
 8829TIP3    H126451   6.725   0.502   0.268 -1.6569 -3.2995 -2.6909
 8829TIP3    H226452   6.713   0.614   0.168 -0.0524 -1.9330 -1.4195
 8830TIP3   OH226453   6.200   3.059   4.124 -0.6840 -0.1829  0.4392
 8830TIP3    H126454   6.241   2.975   4.100 -0.8397 -0.7318  1.9362
 8830TIP3    H226455   6.274   3.119   4.136 -0.5224 -0.3088  0.0901
 8831TIP3   OH226456   3.305   5.586   2.251  0.0677 -0.4756 -0.3701
 8831TIP3    H126457   3.286   5.556   2.162  1.7150  0.7378 -1.1720
 8831TIP3    H226458   3.336   5.676   2.240 -1.7535  0.5065  1.6581
 8832TIP3   OH226459   5.628   3.608   3.655 -0.0356 -0.1125  0.5585
 8832TIP3    H126460   5.713   3.628   3.692  0.5289 -0.1928 -0.6526
 8832TIP3    H226461   5.618   3.668   3.581 -0.2981 -1.2004 -0.3220
 8833TIP3   OH226462   6.429   4.761   4.258  0.3876 -0.6230 -0.1089
 8833TIP3    H126463   6.404   4.708   4.334 -0.3422 -1.2712 -0.7925
 8833TIP3    H226464   6.431   4.699   4.185 -0.3214  0.2545 -0.8932
 8834TIP3   OH226465   4.342   3.714   3.758  0.4087  0.2570 -0.0214
 8834TIP3    H126466   4.376   3.650   3.821 -2.0071  0.3080  1.4976
 8834TIP3    H226467   4.367   3.679   3.672  1.5246 -1.2416  0.8673
 8835TIP3   OH226468   1.503   4.555   3.204  0.4463 -0.1271  0.0129
 8835TIP3    H126469   1.565   4.523   3.139 -0.7162 -2.4074 -0.0816
 8835TIP3    H226470   1.438   4.485   3.212 -1.6061  1.7323  0.7895
 8836TIP3   OH226471   6.083   6.136   1.110  0.5406 -0.4817  0.1203
 8836TIP3    H126472   6.094   6.179   1.195 -1.4005 -0.9516  0.6469
 8836TIP3    H226473   6.092   6.207   1.046  1.1533  0.0245  0.7526
 8837TIP3   OH226474   7.168   3.905   3.372  0.1866  0.3199 -0.3570
 8837TIP3    H126475   7.077   3.879   3.359 -0.0797  0.9112  0.2746
 8837TIP3    H226476   7.163   3.986   3.423  1.0992 -0.2716  0.7089
 8838TIP3   OH226477   1.705   5.734   3.352 -0.4550 -0.2819 -0.3689
 8838TIP3    H126478   1.729   5.711   3.262  1.2153 -1.2340  0.2753
 8838TIP3    H226479   1.789   5.751   3.396 -1.3406  2.0812  0.5473
 8839TIP3   OH226480   5.115   1.799   4.584 -0.1971  0.3565  0.1231
 8839TIP3    H126481   5.191   1.768   4.633 -0.7482 -0.6452  0.3666
 8839TIP3    H226482   5.152   1.852   4.513  0.6786  0.6085  0.7529
 8840TIP3   OH226483   5.311   1.510   1.752 -0.0475 -0.3552  0.0344
 8840TIP3    H126484   5.239   1.535   1.694  0.4717  1.3654  0.0842
 8840TIP3    H226485   5.328   1.418   1.730  0.4658  0.3402 -2.9357
 8841TIP3   OH226486   0.900   0.057   0.680 -0.2051  0.2355 -0.1561
 8841TIP3    H126487   0.875   0.144   0.650 -0.7377 -0.2823 -1.2409
 8841TIP3    H226488   0.840   0.038   0.752 -1.3515  0.0054 -1.1517
 8842TIP3   OH226489   2.031   5.768   5.244  0.1604 -0.7305  0.3931
 8842TIP3    H126490   2.086   5.802   5.174 -0.3202 -2.2056 -0.7336
 8842TIP3    H226491   2.019   5.843   5.303  1.1935  0.3304 -0.6901
 8843TIP3   OH226492   5.642   3.900   0.224  0.5964  0.0744 -0.1804
 8843TIP3    H126493   5.611   3.938   0.141 -0.3836  0.2884  0.2673
 8843TIP3    H226494   5.716   3.845   0.199 -0.2136 -0.5359 -1.3217
 8844TIP3   OH226495   3.689   5.288   1.333  0.0035 -0.0014  0.4151
 8844TIP3    H126496   3.695   5.193   1.331 -0.2004 -0.0257 -1.8071
 8844TIP3    H226497   3.623   5.307   1.400 -0.2804 -1.4381  0.5585
 8845TIP3   OH226498   2.653   3.409   5.533 -0.3460  0.5118 -0.4240
 8845TIP3    H126499   2.671   3.412   5.627  1.1876  0.9827 -0.7077
 8845TIP3    H226500   2.559   3.392   5.528 -0.3303 -0.3171  1.1885
 8846TIP3   OH226501   4.354   2.471   3.270  0.6119  0.0262  0.4142
 8846TIP3    H126502   4.344   2.391   3.219  2.5953  0.6702 -1.1168
 8846TIP3    H226503   4.293   2.461   3.343  0.6356 -2.7504  0.1447
 8847TIP3   OH226504   4.864   2.705   2.141  0.1429  0.1985 -0.3753
 8847TIP3    H126505   4.893   2.633   2.085 -1.1709 -0.5675 -0.1189
 8847TIP3    H226506   4.903   2.687   2.226  0.1294 -0.0035 -0.4124
 8848TIP3   OH226507   5.758   3.937   1.812  0.1982  0.2117  0.3203
 8848TIP3    H126508   5.751   4.031   1.833 -1.0903 -0.2485  2.2229
 8848TIP3    H226509   5.847   3.914   1.840  0.6742  0.9118 -0.5322
 8849TIP3   OH226510   1.941   5.510   4.519 -0.3848 -0.4413  0.8497
 8849TIP3    H126511   1.975   5.595   4.545 -0.2038 -0.1977 -0.1363
 8849TIP3    H226512   1.851   5.527   4.490 -0.3654 -0.5860  0.6975
 8850TIP3   OH226513   1.349   0.570   1.463 -0.0207 -0.0724  0.0920
 8850TIP3    H126514   1.423   0.579   1.524  2.0574 -2.1693 -1.9046
 8850TIP3    H226515   1.354   0.649   1.408  1.4320 -0.6438 -0.6499
 8851TIP3   OH226516   6.396   2.235   2.380  0.0867 -0.0468  0.1366
 8851TIP3    H126517   6.317   2.211   2.429 -2.1363  0.9286 -2.6289
 8851TIP3    H226518   6.423   2.153   2.338 -1.1280  0.0660 -0.9595
 8852TIP3   OH226519   0.867   0.797   2.253 -0.0779 -0.0458  0.2900
 8852TIP3    H126520   0.790   0.757   2.294  0.2045 -0.3386  0.5456
 8852TIP3    H226521   0.856   0.780   2.160  0.0809 -0.8048  0.4026
 8853TIP3   OH226522   3.974   0.587   5.530 -0.2091 -0.3628  0.8128
 8853TIP3    H126523   4.036   0.646   5.573  0.1991 -0.6465  0.6122
 8853TIP3    H226524   3.987   0.601   5.437 -0.1304 -0.7521  0.7645
 8854TIP3   OH226525   2.126   0.503   5.309 -0.5596 -0.3555 -0.3626
 8854TIP3    H126526   2.178   0.574   5.273 -0.2584 -0.1028  0.5260
 8854TIP3    H226527   2.123   0.437   5.240 -0.9144  0.5483 -1.2329
 8855TIP3   OH226528   5.515   0.686   4.562  0.0468  0.1100 -0.1195
 8855TIP3    H126529   5.434   0.655   4.602 -0.6895 -0.5560 -2.0263
 8855TIP3    H226530   5.519   0.641   4.478  2.8483 -0.5278  0.2627
 8856TIP3   OH226531   5.595   0.300   0.562  0.1241 -0.1121  0.0166
 8856TIP3    H126532   5.585   0.355   0.639 -3.0962 -0.9782  0.3542
 8856TIP3    H226533   5.539   0.342   0.496  1.9904  0.0190 -1.5509
 8857TIP3   OH226534   0.662   0.595   2.371  0.2955 -0.0655  0.2367
 8857TIP3    H126535   0.602   0.666   2.392 -0.4044 -0.3059 -0.8798
 8857TIP3    H226536   0.606   0.518   2.362  0.6036 -0.0975 -1.8399
 8858TIP3   OH226537   0.875   0.959   5.682 -0.3631 -0.1385 -0.0194
 8858TIP3    H126538   0.885   0.869   5.648 -0.6071  0.5336 -1.9688
 8858TIP3    H226539   0.829   1.006   5.613  0.4135  1.6841  0.6420
 8859TIP3   OH226540   3.478   6.402   4.661 -0.5865 -0.0830  0.9027
 8859TIP3    H126541   3.502   6.485   4.620 -0.9640 -0.4991 -0.2145
 8859TIP3    H226542   3.559   6.351   4.661 -0.7248 -0.3174  0.0562
 8860TIP3   OH226543   6.147   2.388   2.792 -0.3258 -0.4444  0.1019
 8860TIP3    H126544   6.223   2.373   2.848  0.9888 -0.1223 -1.5261
 8860TIP3    H226545   6.072   2.372   2.849  0.9210  0.6329  2.1685
 8861TIP3   OH226546   1.643   4.905   5.852  0.0299  0.1293 -0.2662
 8861TIP3    H126547   1.689   4.964   5.792  0.9413  1.5547  1.7387
 8861TIP3    H226548   1.659   4.817   5.816  0.0353  0.9459 -2.3912
 8862TIP3   OH226549   4.396   5.714   2.554 -0.5713 -0.1154 -0.9256
 8862TIP3    H126550   4.372   5.795   2.600  1.4354  0.9953 -1.7064
 8862TIP3    H226551   4.489   5.704   2.570 -0.1726 -0.6413 -3.2530
 8863TIP3   OH226552   4.527   1.490   3.237  0.3319 -0.1855  0.0678
 8863TIP3    H126553   4.464   1.562   3.234 -0.2416 -0.7010 -1.1771
 8863TIP3    H226554   4.483   1.422   3.288  1.2860  0.6679  2.1440
 8864TIP3   OH226555   3.034   5.501   5.014  0.2963  0.1120 -0.3016
 8864TIP3    H126556   2.958   5.459   4.973  0.5835 -1.7903  0.9861
 8864TIP3    H226557   3.108   5.477   4.958  0.4533 -1.1153  0.4106
 8865TIP3   OH226558   6.104   0.095  -0.020  0.1725  0.3105  0.1708
 8865TIP3    H126559   6.157   0.126   0.054  0.3989 -0.6128  0.4109
 8865TIP3    H226560   6.121   0.001  -0.024  0.2037  0.3542 -1.1027
 8866TIP3   OH226561   5.991   6.277   1.585  0.1176 -0.7806 -0.5593
 8866TIP3    H126562   5.911   6.287   1.533  0.2277 -0.3665 -0.6538
 8866TIP3    H226563   5.961   6.244   1.669 -0.2074 -0.1840 -0.4358
 8867TIP3   OH226564   4.655   4.497   0.248 -0.5910 -0.3206 -0.2958
 8867TIP3    H126565   4.737   4.477   0.204 -0.1940  0.0439  0.2618
 8867TIP3    H226566   4.592   4.507   0.177  0.4368  2.1918 -0.9725
 8868TIP3   OH226567   1.735   1.784   1.779  0.0410  0.2980  0.0171
 8868TIP3    H126568   1.677   1.719   1.817  0.3399 -1.2588 -2.0225
 8868TIP3    H226569   1.678   1.840   1.726  0.0442  0.4555  0.1797
 8869TIP3   OH226570   6.184   6.377   5.753  0.5281 -0.6294  0.1219
 8869TIP3    H126571   6.198   6.290   5.715  1.3346 -0.5158  0.1437
 8869TIP3    H226572   6.129   6.422   5.690  0.6748 -0.9274 -0.2224
 8870TIP3   OH226573   2.993   4.197   5.096  0.7825 -0.3297  0.7646
 8870TIP3    H126574   3.056   4.185   5.166  0.3990 -0.6443  1.0597
 8870TIP3    H226575   2.936   4.268   5.126  0.2747 -0.8407  1.0269
 8871TIP3   OH226576   6.652   4.726   0.975 -0.2356  0.3239 -0.2326
 8871TIP3    H126577   6.719   4.761   0.916 -0.0508 -4.4103 -3.3512
 8871TIP3    H226578   6.699   4.709   1.057  2.1598 -1.4324 -1.8412
 8872TIP3   OH226579   5.387   2.905   5.734  0.4086 -0.4098  0.2891
 8872TIP3    H126580   5.366   2.863   5.651  1.7669 -0.0406 -0.2607
 8872TIP3    H226581   5.400   2.997   5.713 -1.8675  0.2249  1.3784
 8873TIP3   OH226582   0.911   3.005   3.342  0.0704 -0.0605  0.1903
 8873TIP3    H126583   0.891   2.961   3.259 -0.3414  1.6254 -0.6427
 8873TIP3    H226584   0.946   2.936   3.398 -0.2468 -1.3683 -1.1723
 8874TIP3   OH226585   0.714   6.482   0.848 -0.3082  0.6048 -0.1865
 8874TIP3    H126586   0.773   6.429   0.901 -0.9846 -1.4238 -1.3827
 8874TIP3    H226587   0.627   6.469   0.887 -0.4830  0.8790 -0.4729
 8875TIP3   OH226588   3.918   2.054   1.254 -0.2014  0.0765  0.0513
 8875TIP3    H126589   3.875   2.139   1.241  1.2832  0.7486 -0.7172
 8875TIP3    H226590   3.863   1.992   1.206 -0.0898  0.9797 -1.3098
 8876TIP3   OH226591   6.083   0.178   2.320 -0.7575 -0.2496  0.0522
 8876TIP3    H126592   6.114   0.110   2.379 -2.0968  0.9444  2.2636
 8876TIP3    H226593   6.048   0.246   2.377  0.3590  2.2761 -2.0289
 8877TIP3   OH226594   2.868   2.337   2.645 -0.2660  0.0812  0.3148
 8877TIP3    H126595   2.837   2.378   2.726  0.9919 -0.0143  0.8659
 8877TIP3    H226596   2.886   2.411   2.587  2.5356  0.4530  1.4997
 8878TIP3   OH226597   4.600   5.946   0.232  0.1502  0.2612 -0.2090
 8878TIP3    H126598   4.601   5.994   0.315  0.1507  0.8850 -0.5648
 8878TIP3    H226599   4.572   6.010   0.167  1.4874  0.1458 -0.9255
 8879TIP3   OH226600   5.376   6.731   3.518  0.8699  0.1108 -0.2716
 8879TIP3    H126601   5.373   6.692   3.431 -1.2035 -2.3228  0.7791
 8879TIP3    H226602   5.298   6.786   3.523  0.6599 -0.2290  0.2485
 8880TIP3   OH226603   4.245   5.705   1.240  1.0452  0.1486 -0.0411
 8880TIP3    H126604   4.261   5.645   1.167 -0.2807 -0.6975  0.3132
 8880TIP3    H226605   4.150   5.719   1.239  1.1453  1.0574  0.8158
 8881TIP3   OH226606   5.046   5.081   5.053 -0.2176 -0.2510  0.4263
 8881TIP3    H126607   5.117   5.062   4.992  0.1354 -2.7673  1.5142
 8881TIP3    H226608   4.968   5.090   4.998  0.4894 -0.0080 -0.5695
 8882TIP3   OH226609   6.004   1.837   5.425  0.0639  0.5171  0.3635
 8882TIP3    H126610   5.920   1.829   5.469  0.3086 -0.6850  0.6479
 8882TIP3    H226611   5.994   1.785   5.345  0.0885  1.5224 -0.3137
 8883TIP3   OH226612   2.102   0.799   2.059 -0.1046  0.5148 -0.1714
 8883TIP3    H126613   2.167   0.746   2.013 -2.3994 -1.0452 -1.8873
 8883TIP3    H226614   2.087   0.874   2.001  1.2173  1.7060  0.9718
 8884TIP3   OH226615   3.740   4.857   4.089 -0.1143 -0.6874  0.3836
 8884TIP3    H126616   3.703   4.788   4.035 -0.4183  0.5809 -1.0995
 8884TIP3    H226617   3.674   4.926   4.090  0.6160  0.0321  0.9084
 8885TIP3   OH226618   4.980   4.056   4.513 -0.2982 -0.0453 -0.6750
 8885TIP3    H126619   4.944   4.130   4.464 -0.1493 -0.3645 -1.2784
 8885TIP3    H226620   5.070   4.082   4.533 -0.1881 -0.1392 -1.0479
 8886TIP3   OH226621   5.062   1.509   4.154  0.2218  0.1410 -0.8413
 8886TIP3    H126622   4.983   1.559   4.178  0.4561 -0.0326  0.3922
 8886TIP3    H226623   5.126   1.576   4.130 -0.1772  0.3061 -1.4487
 8887TIP3   OH226624   6.627   3.586   4.934  0.2919  0.0650  0.1307
 8887TIP3    H126625   6.560   3.643   4.897 -0.2117 -1.2269 -1.0087
 8887TIP3    H226626   6.669   3.545   4.859  1.4202 -0.2237  0.8857
 8888TIP3   OH226627   1.502   5.112   4.769  0.0581 -0.2903 -0.4112
 8888TIP3    H126628   1.437   5.148   4.829  1.7850 -1.6991  2.5473
 8888TIP3    H226629   1.456   5.103   4.685 -3.0892  0.0880  1.1466
 8889TIP3   OH226630   3.925   2.662   3.512 -0.1014  0.2634 -0.0789
 8889TIP3    H126631   3.981   2.587   3.492  0.3040  0.1006  1.4892
 8889TIP3    H226632   3.983   2.724   3.557 -0.9225  0.5466  0.6282
 8890TIP3   OH226633   6.110   4.521   4.688 -0.3643 -0.0963 -0.2653
 8890TIP3    H126634   6.042   4.552   4.628  0.0159 -0.5062 -0.9127
 8890TIP3    H226635   6.063   4.505   4.771 -0.7844  1.0186 -0.2690
 8891TIP3   OH226636   5.043   2.311   1.370  0.1540  0.1191 -0.7305
 8891TIP3    H126637   5.104   2.350   1.307  1.2542 -0.4927 -0.0859
 8891TIP3    H226638   5.097   2.250   1.420 -1.2204 -1.1955 -0.7861
 8892TIP3   OH226639   4.198   1.969   1.443  0.0788 -0.6197 -0.2261
 8892TIP3    H126640   4.174   2.024   1.368  0.2939  0.6486  0.5961
 8892TIP3    H226641   4.155   1.885   1.426 -2.9862  0.7632  0.0138
 8893TIP3   OH226642   0.567   2.960   3.861 -0.0004 -0.5154  0.6903
 8893TIP3    H126643   0.523   2.975   3.945 -0.2147  1.3943  0.2891
 8893TIP3    H226644   0.658   2.986   3.877 -0.5719  2.5230 -0.2619
 8894TIP3   OH226645   0.242   2.052   1.560 -0.4918  0.0190  0.3884
 8894TIP3    H126646   0.171   2.041   1.496 -0.1414 -1.4689  0.2269
 8894TIP3    H226647   0.253   1.965   1.599  0.3822  0.5355  1.3399
 8895TIP3   OH226648   1.357   6.338   4.415 -0.0070  0.1499  0.5527
 8895TIP3    H126649   1.404   6.417   4.441  0.6503  0.1439 -0.5746
 8895TIP3    H226650   1.398   6.268   4.466  0.1702  0.3659  0.7103
 8896TIP3   OH226651   3.246   2.224   3.228 -0.3585  0.3156  0.3346
 8896TIP3    H126652   3.272   2.159   3.294  0.6320  0.3393 -0.0120
 8896TIP3    H226653   3.329   2.258   3.194 -0.8397  2.2726  0.9739
 8897TIP3   OH226654   1.528   4.916   4.990 -0.5580 -0.2195  0.2689
 8897TIP3    H126655   1.557   4.924   4.899 -2.9978 -1.1769 -0.6853
 8897TIP3    H226656   1.525   4.821   5.005  0.5330 -0.0660  1.6399
 8898TIP3   OH226657   1.742   4.876   3.486 -0.0886  0.0543 -0.4311
 8898TIP3    H126658   1.670   4.939   3.495 -0.2081 -0.1052 -0.2709
 8898TIP3    H226659   1.702   4.799   3.446  0.1511  0.2441 -1.0531
 8899TIP3   OH226660   0.468   0.678   0.977  0.1335 -0.6067 -0.3153
 8899TIP3    H126661   0.382   0.683   1.017  0.3914  0.4136  0.1592
 8899TIP3    H226662   0.511   0.605   1.022  0.9413  1.3857  2.4386
 8900TIP3   OH226663   5.744   1.544   3.456 -0.3652  0.2358 -0.1661
 8900TIP3    H126664   5.763   1.492   3.534 -1.1858  1.1284  0.6546
 8900TIP3    H226665   5.652   1.567   3.464 -0.5955 -0.0365 -1.6545
 8901TIP3   OH226666   2.689   6.426   1.617  0.4712 -0.8481 -0.0230
 8901TIP3    H126667   2.761   6.375   1.578  1.3449  1.1411 -1.1856
 8901TIP3    H226668   2.639   6.457   1.541 -0.3581 -0.4475  0.6771
 8902TIP3   OH226669   7.175   4.142   0.604  0.5840 -0.2351  0.2896
 8902TIP3    H126670   7.104   4.077   0.601 -0.3675  0.6310  2.2343
 8902TIP3    H226671   7.206   4.140   0.694  1.2971  1.2056  0.1093
 8903TIP3   OH226672   5.271   0.216   3.583 -0.1026  0.2567  0.4469
 8903TIP3    H126673   5.363   0.220   3.556 -0.5631  0.6406 -1.1632
 8903TIP3    H226674   5.223   0.261   3.513 -1.4438  0.8350  1.6812
 8904TIP3   OH226675   3.025   0.517   3.221  0.5948  0.8764  0.6760
 8904TIP3    H126676   2.977   0.600   3.214  0.6100  0.7937 -0.6460
 8904TIP3    H226677   3.038   0.489   3.130  0.8385 -0.4363  1.0949
 8905TIP3   OH226678   2.826   1.883   2.625 -0.3447  0.0466 -0.1236
 8905TIP3    H126679   2.906   1.899   2.575  0.4050 -0.1249  0.9812
 8905TIP3    H226680   2.836   1.793   2.656 -0.5655  0.3086  0.7293
 8906TIP3   OH226681   5.440   4.182   2.520 -0.3916 -0.6760 -0.3067
 8906TIP3    H126682   5.469   4.164   2.609  0.5315  1.0019 -0.2303
 8906TIP3    H226683   5.440   4.096   2.477  0.4561 -1.3208  0.9146
 8907TIP3   OH226684   5.627   4.359   2.390 -0.2569 -0.3880 -0.1484
 8907TIP3    H126685   5.682   4.294   2.349  1.9096  0.6452  0.9355
 8907TIP3    H226686   5.572   4.309   2.451  0.4664 -1.3349 -0.2480
 8908TIP3   OH226687   6.639   0.247   0.359 -0.1672 -0.0479  0.4830
 8908TIP3    H126688   6.727   0.260   0.393 -0.2860  0.2659  0.6743
 8908TIP3    H226689   6.586   0.313   0.404 -0.3318  0.3643 -0.3071
 8909TIP3   OH226690   6.908   3.156   3.320  0.0632 -0.1868 -0.2939
 8909TIP3    H126691   6.938   3.072   3.356 -0.9765 -0.6225 -0.4146
 8909TIP3    H226692   6.841   3.186   3.382  0.5364  0.6411 -0.1710
 8910TIP3   OH226693   2.740   4.106   3.997  0.5193  0.1490 -1.0168
 8910TIP3    H126694   2.743   4.191   3.953 -1.3539  1.4769  1.1663
 8910TIP3    H226695   2.659   4.066   3.968  1.2339 -0.7716 -1.7798
 8911TIP3   OH226696   4.275   0.438   4.960  0.1292 -0.1058 -0.4753
 8911TIP3    H126697   4.287   0.452   4.866 -0.9361 -0.0615 -0.6137
 8911TIP3    H226698   4.241   0.349   4.967 -2.5593  0.8330 -0.3991
 8912TIP3   OH226699   1.547   0.840   3.453 -0.0430  0.2880 -0.0302
 8912TIP3    H126700   1.454   0.839   3.477 -0.1843  0.8551 -0.5227
 8912TIP3    H226701   1.547   0.824   3.358  0.3732  0.1334 -0.0029
 8913TIP3   OH226702   0.916   4.979   2.241  0.0104  1.1018  0.4498
 8913TIP3    H126703   0.833   4.936   2.220  1.1133 -1.1945  0.5268
 8913TIP3    H226704   0.964   4.979   2.158  1.1160 -0.4403  1.0463
 8914TIP3   OH226705   6.411   1.007   1.921 -0.0611  0.2998  0.1603
 8914TIP3    H126706   6.414   1.081   1.982  0.2340  0.1844  0.2862
 8914TIP3    H226707   6.374   0.935   1.971  0.5691  0.0883  0.3307
 8915TIP3   OH226708   0.479   0.884   2.454 -0.2122  0.0172  0.7427
 8915TIP3    H126709   0.441   0.804   2.492 -1.0692  0.2032  0.2941
 8915TIP3    H226710   0.529   0.923   2.526 -0.7916 -0.2858  1.3189
 8916TIP3   OH226711   0.692   3.395   3.699 -0.6741 -0.0690 -0.1332
 8916TIP3    H126712   0.756   3.429   3.762 -0.6916  1.2060 -0.7594
 8916TIP3    H226713   0.608   3.401   3.745 -0.4831 -0.7632  0.3200
 8917TIP3   OH226714   2.655   6.408   3.991 -0.1830 -1.0480 -0.5487
 8917TIP3    H126715   2.594   6.370   4.054 -1.3878 -0.2589 -1.2157
 8917TIP3    H226716   2.738   6.362   4.008 -0.4274 -0.7930  1.6731
 8918TIP3   OH226717   0.505   3.194   4.950  0.2489  0.5232  0.3113
 8918TIP3    H126718   0.473   3.130   4.886  0.7881  0.2412  0.3131
 8918TIP3    H226719   0.584   3.231   4.910  1.2079 -0.4285  1.2409
 8919TIP3   OH226720   1.117   3.415   0.810  0.5662 -0.0644  0.1454
 8919TIP3    H126721   1.049   3.351   0.830  0.6598 -0.3722 -0.4715
 8919TIP3    H226722   1.183   3.365   0.762 -1.1693  1.1820 -4.0236
 8920TIP3   OH226723   1.367   5.828   0.323  0.2478  0.4106 -0.4196
 8920TIP3    H126724   1.298   5.825   0.390  0.3059  1.9236 -0.2656
 8920TIP3    H226725   1.443   5.864   0.369  1.4008 -1.8792 -0.4129
 8921TIP3   OH226726   1.560   2.590   3.504 -0.0009 -0.0300 -0.3024
 8921TIP3    H126727   1.500   2.664   3.501 -1.1581 -0.9498 -0.8490
 8921TIP3    H226728   1.571   2.572   3.597  0.7147  1.1305 -0.1386
 8922TIP3   OH226729   6.812   5.107   4.857  0.1627 -0.1610  0.5475
 8922TIP3    H126730   6.736   5.152   4.820 -0.8939 -1.0811  1.4856
 8922TIP3    H226731   6.879   5.174   4.865 -0.3658  0.5645 -0.7957
 8923TIP3   OH226732   3.753   6.390   3.205 -0.0113  0.0555  0.5756
 8923TIP3    H126733   3.699   6.314   3.229 -1.2310  1.3443  2.1834
 8923TIP3    H226734   3.707   6.430   3.132  0.9824 -1.0529 -0.7119
 8924TIP3   OH226735   2.680   2.768   5.312  0.0877 -0.0065  0.0914
 8924TIP3    H126736   2.672   2.853   5.268  1.2770 -0.0271 -0.1987
 8924TIP3    H226737   2.628   2.708   5.257 -1.8306  0.7289  0.9923
 8925TIP3   OH226738   7.104   6.342   3.975 -0.2364  0.4838 -0.5101
 8925TIP3    H126739   7.057   6.342   3.891  1.4005 -0.6362 -1.5027
 8925TIP3    H226740   7.155   6.260   3.974 -0.2272  0.4046  1.6341
 8926TIP3   OH226741   5.395   2.761   0.805  0.0885 -0.0338  0.5663
 8926TIP3    H126742   5.345   2.788   0.728 -1.3015  1.5863  1.9478
 8926TIP3    H226743   5.378   2.667   0.814 -1.1504  0.1136 -0.0992
 8927TIP3   OH226744   4.445   1.270   0.714  0.2224 -0.0736 -0.2117
 8927TIP3    H126745   4.395   1.262   0.633 -0.4203 -0.0278  0.1666
 8927TIP3    H226746   4.502   1.193   0.716  0.1622 -0.1297 -0.6532
 8928TIP3   OH226747   1.378   3.138   3.735 -0.1956 -0.6645  0.1041
 8928TIP3    H126748   1.458   3.185   3.712 -1.9253  1.3864 -2.3944
 8928TIP3    H226749   1.351   3.175   3.819 -0.7161  1.8993 -1.0999
 8929TIP3   OH226750   3.571   4.724   0.862 -0.2300 -0.6177 -0.2490
 8929TIP3    H126751   3.553   4.666   0.788 -0.2649 -0.7843 -0.1109
 8929TIP3    H226752   3.513   4.799   0.848 -0.2641 -0.6661 -0.3711
 8930TIP3   OH226753   0.935   1.498   0.749  0.1191 -0.3251  0.2233
 8930TIP3    H126754   0.940   1.484   0.843 -0.1929 -1.0323  0.1448
 8930TIP3    H226755   0.986   1.577   0.733 -0.7455  0.4392  1.1202
 8931TIP3   OH226756   0.788   6.479   5.133  0.1477  0.2016 -0.2660
 8931TIP3    H126757   0.790   6.424   5.212  0.3219  2.1749  1.1625
 8931TIP3    H226758   0.880   6.487   5.107  0.4420  1.9531  1.1324
 8932TIP3   OH226759   0.439   2.046   0.532  0.4984  0.2255  0.0024
 8932TIP3    H126760   0.485   2.123   0.567  0.1753  0.0186  0.9190
 8932TIP3    H226761   0.482   2.028   0.449  0.3487  1.6114 -0.3992
 8933TIP3   OH226762   3.457   0.837   4.445  0.3616  0.4293  0.1871
 8933TIP3    H126763   3.442   0.813   4.536  0.6699  0.1717  0.1703
 8933TIP3    H226764   3.483   0.929   4.448  1.2997  0.1638  0.4499
 8934TIP3   OH226765   2.038   4.342   1.352  0.1844 -0.5646 -0.0417
 8934TIP3    H126766   2.036   4.341   1.448 -1.2914  0.0529 -0.0461
 8934TIP3    H226767   1.946   4.339   1.326  0.5279  0.1392 -1.4286
 8935TIP3   OH226768   3.455   0.909   1.330  0.5967  0.1983  0.0257
 8935TIP3    H126769   3.427   0.875   1.245  0.1357 -0.4900  0.4377
 8935TIP3    H226770   3.381   0.962   1.360  0.1303 -0.7748  0.6511
 8936TIP3   OH226771   4.605   5.938   2.936  0.3667 -0.1261 -0.4869
 8936TIP3    H126772   4.609   6.014   2.995  0.5835  1.0633 -1.9643
 8936TIP3    H226773   4.569   5.868   2.989 -1.1396  1.3755  0.5722
 8937TIP3   OH226774   5.336   5.410   1.829  0.4502  0.0010 -0.4619
 8937TIP3    H126775   5.291   5.448   1.904  0.2324 -0.3861 -0.3944
 8937TIP3    H226776   5.409   5.361   1.867 -0.0731 -0.7836 -0.4424
 8938TIP3   OH226777   3.656   2.808   2.176  0.3000 -0.3051  0.0413
 8938TIP3    H126778   3.620   2.855   2.101 -0.4845 -2.2436 -0.8520
 8938TIP3    H226779   3.751   2.818   2.167  0.1576  0.8170 -0.2991
 8939TIP3   OH226780   2.018   5.547   2.798 -0.2449 -0.0297 -0.2667
 8939TIP3    H126781   2.064   5.602   2.736  0.2681  0.2036  0.3085
 8939TIP3    H226782   1.927   5.548   2.769  0.1457 -0.7182 -1.5659
 8940TIP3   OH226783   2.398   4.843   0.939 -0.0909  0.1772  0.2211
 8940TIP3    H126784   2.398   4.799   0.854 -0.4623  0.7209 -0.0692
 8940TIP3    H226785   2.384   4.773   1.003  0.0730 -0.2199 -0.1766
 8941TIP3   OH226786   5.068   6.292   3.259 -0.9135  0.1230  0.0958
 8941TIP3    H126787   5.020   6.222   3.303  0.5251 -0.9919 -0.0208
 8941TIP3    H226788   5.040   6.287   3.167  0.1760 -1.2399 -0.1911
 8942TIP3   OH226789   3.226   1.024   1.393 -0.5694  0.3051 -0.5631
 8942TIP3    H126790   3.149   1.038   1.449  0.2521  0.7444  0.4955
 8942TIP3    H226791   3.239   1.109   1.350  0.8163  1.0758  1.2362
 8943TIP3   OH226792   0.044   0.993   3.706  0.7228 -0.0499  0.4629
 8943TIP3    H126793  -0.004   1.009   3.625  0.3015  1.2778  0.9581
 8943TIP3    H226794   0.122   1.047   3.698  0.3675  0.5822  1.2079
 8944TIP3   OH226795   0.766   0.414   3.043 -0.1404  0.2102  0.3109
 8944TIP3    H126796   0.858   0.432   3.066 -0.7039  0.7309  2.3639
 8944TIP3    H226797   0.772   0.357   2.967  1.9605 -1.2569  1.4531
 8945TIP3   OH226798   5.460   3.232   4.823  1.1084 -0.0377 -0.3787
 8945TIP3    H126799   5.387   3.270   4.872  3.2604  1.0777  2.3093
 8945TIP3    H226800   5.423   3.205   4.739 -1.6772  3.4815 -0.5047
 8946TIP3   OH226801   0.937   2.675   4.072  0.6670  0.6355 -0.0711
 8946TIP3    H126802   0.956   2.591   4.031  2.4608  0.2020  1.5137
 8946TIP3    H226803   0.843   2.672   4.091  0.5771 -0.7095 -0.6291
 8947TIP3   OH226804   1.710   1.987   2.877 -0.1929  0.2153 -0.2106
 8947TIP3    H126805   1.741   2.078   2.881  3.6755 -0.9608  0.4373
 8947TIP3    H226806   1.712   1.957   2.968 -1.0984 -0.6639 -0.4615
 8948TIP3   OH226807   5.055   1.251   4.981  0.4011 -0.0284  0.6860
 8948TIP3    H126808   4.986   1.317   4.988  0.3770  0.0047  0.1613
 8948TIP3    H226809   5.023   1.178   5.033  0.8995  0.7529  2.1637
 8949TIP3   OH226810   3.487   4.833   1.859  0.3629  0.1475 -0.3885
 8949TIP3    H126811   3.423   4.765   1.836  0.9863 -0.7077  0.3244
 8949TIP3    H226812   3.495   4.827   1.954  1.6099  0.1418 -0.4748
 8950TIP3   OH226813   0.171   6.155   3.293 -0.0564 -0.2726 -0.0553
 8950TIP3    H126814   0.217   6.089   3.343 -1.6049  0.4238  2.4482
 8950TIP3    H226815   0.084   6.118   3.278  0.5253 -0.7330 -2.9478
 8951TIP3   OH226816   6.942   5.223   0.787  0.1470  0.2224 -0.0857
 8951TIP3    H126817   6.928   5.273   0.706  1.7250 -1.8513 -1.7714
 8951TIP3    H226818   7.035   5.204   0.787 -0.2983 -2.3784  0.5991
 8952TIP3   OH226819   0.061   2.674   2.891  0.6072 -0.6036  0.1211
 8952TIP3    H126820  -0.005   2.729   2.848  0.8718 -1.2932 -1.2391
 8952TIP3    H226821   0.012   2.623   2.955 -0.0451 -0.4886 -0.2756
 8953TIP3   OH226822   1.192   3.209   5.249  0.3209 -0.4160 -0.0077
 8953TIP3    H126823   1.113   3.158   5.265 -0.4127  0.9353  0.9974
 8953TIP3    H226824   1.191   3.226   5.155 -0.3016 -0.8632 -0.0905
 8954TIP3   OH226825   6.700   2.855   4.709  0.4027 -0.0195 -0.4531
 8954TIP3    H126826   6.646   2.777   4.723  2.0890 -0.9742  1.1763
 8954TIP3    H226827   6.667   2.892   4.627 -0.9166 -2.0500 -0.9245
 8955TIP3   OH226828   1.980   0.192   4.398 -0.4177  0.0578 -0.0034
 8955TIP3    H126829   2.064   0.184   4.443  0.8660  2.7182 -1.7055
 8955TIP3    H226830   1.997   0.162   4.309 -1.0728  1.3111 -0.5688
 8956TIP3   OH226831   6.370   1.558   1.385 -0.0733 -0.3045  0.5579
 8956TIP3    H126832   6.430   1.520   1.450 -0.3408  0.6680  1.3835
 8956TIP3    H226833   6.292   1.502   1.389  0.9373 -1.9598 -0.9553
 8957TIP3   OH226834   6.157   3.860   5.563 -0.0165  0.3392  0.2456
 8957TIP3    H126835   6.093   3.789   5.561 -0.0028  0.3301 -1.5489
 8957TIP3    H226836   6.144   3.906   5.480  3.0413 -0.3709 -0.7789
 8958TIP3   OH226837   0.317   0.371   3.486  0.2630 -0.2135 -0.2986
 8958TIP3    H126838   0.243   0.358   3.428 -0.3611 -1.1424  0.6849
 8958TIP3    H226839   0.393   0.377   3.427 -0.2020 -2.2053 -1.1646
 8959TIP3   OH226840   5.796   3.087   0.401  0.1137 -0.2948 -0.1292
 8959TIP3    H126841   5.786   3.102   0.307 -0.7781  0.9555  0.1343
 8959TIP3    H226842   5.734   3.147   0.441  0.2695 -1.0217  1.2611
 8960TIP3   OH226843   2.674   0.475   0.175  0.4778  0.3770  0.4327
 8960TIP3    H126844   2.653   0.395   0.224  0.5618 -1.3556 -2.1247
 8960TIP3    H226845   2.763   0.461   0.143  0.4368  1.4272 -0.1897
 8961TIP3   OH226846   1.720   0.818   0.749 -0.3312  0.0909  0.1403
 8961TIP3    H126847   1.752   0.739   0.793 -1.7349 -0.0187  1.0023
 8961TIP3    H226848   1.700   0.789   0.660  0.3129 -0.2243  0.0902
 8962TIP3   OH226849   4.535   4.125   4.086  0.0167 -0.2375  0.1167
 8962TIP3    H126850   4.498   4.191   4.027 -3.4273 -2.2535 -0.2710
 8962TIP3    H226851   4.541   4.046   4.032 -0.4039 -1.3936  1.6894
 8963TIP3   OH226852   2.949   3.993   2.795 -0.5204 -0.1508 -0.0547
 8963TIP3    H126853   2.859   3.965   2.813  0.3189 -2.2331  1.2801
 8963TIP3    H226854   2.973   3.947   2.715 -0.6542  0.5099 -0.4860
 8964TIP3   OH226855   0.218   0.749   1.388 -0.3113  0.4217  0.4487
 8964TIP3    H126856   0.178   0.683   1.445 -0.1740  0.7573  0.9437
 8964TIP3    H226857   0.151   0.816   1.378 -0.3877  0.2931  0.0917
 8965TIP3   OH226858   5.138   1.499   0.881  0.6179  0.2889 -0.4117
 8965TIP3    H126859   5.129   1.426   0.820  0.8522  0.3712 -0.5486
 8965TIP3    H226860   5.071   1.484   0.947 -0.0438  0.5193 -1.0131
 8966TIP3   OH226861   4.590   2.189   3.569 -0.8770 -0.3933  0.4324
 8966TIP3    H126862   4.651   2.163   3.499 -1.7020  3.0211 -1.7680
 8966TIP3    H226863   4.523   2.121   3.569  0.6391 -1.9655 -0.0592
 8967TIP3   OH226864   4.963   6.450   2.076 -0.3589  0.4145 -0.4556
 8967TIP3    H126865   5.031   6.500   2.119 -0.9389  0.0394  0.9472
 8967TIP3    H226866   4.991   6.359   2.084 -0.3220  0.3497 -1.1794
 8968TIP3   OH226867   7.162   6.433   4.234 -0.6279 -0.1950  0.1128
 8968TIP3    H126868   7.106   6.435   4.157 -1.4407 -0.9988  0.6596
 8968TIP3    H226869   7.250   6.420   4.200 -0.7830  0.9016 -0.7536
 8969TIP3   OH226870   5.879   2.158   4.025 -0.6139  0.6205 -0.1251
 8969TIP3    H126871   5.926   2.094   4.080 -1.0100  0.5590  0.1478
 8969TIP3    H226872   5.898   2.131   3.935 -1.4450 -0.3892 -0.0178
 8970TIP3   OH226873   1.634   0.807   2.556 -0.2471  0.3302  0.2448
 8970TIP3    H126874   1.583   0.739   2.598  1.2926 -1.0957 -0.0972
 8970TIP3    H226875   1.596   0.815   2.469 -0.2735 -0.3022  0.1939
 8971TIP3   OH226876   3.397   4.392   1.263 -0.3823  0.2633  0.3354
 8971TIP3    H126877   3.435   4.441   1.336 -0.4552 -0.1476  0.6538
 8971TIP3    H226878   3.470   4.375   1.204 -0.2924  0.4481  0.3916
 8972TIP3   OH226879   0.764   2.184   5.740  0.0277  0.3877 -0.1642
 8972TIP3    H126880   0.859   2.189   5.753  0.0177  0.6771 -0.1887
 8972TIP3    H226881   0.728   2.203   5.827  0.0098 -1.1583  0.1861
 8973TIP3   OH226882   5.848   2.875   4.890 -0.1793 -0.2497 -0.0471
 8973TIP3    H126883   5.880   2.799   4.842  1.6061 -0.4588  1.4073
 8973TIP3    H226884   5.784   2.840   4.952  0.1051 -0.4643  0.1243
 8974TIP3   OH226885   1.031   6.374   2.474 -0.6048 -0.1342 -0.3813
 8974TIP3    H126886   1.070   6.372   2.561 -0.8969 -3.1830 -0.1891
 8974TIP3    H226887   1.080   6.441   2.426  0.9316  0.1734  1.5156
 8975TIP3   OH226888   6.047   6.104   0.582 -0.3739  0.4683  0.1265
 8975TIP3    H126889   6.080   6.193   0.568  1.5738 -0.6027 -2.8613
 8975TIP3    H226890   6.113   6.062   0.637 -0.4425  0.3688  0.1348
 8976TIP3   OH226891   5.046   5.353   4.302  0.6591 -0.1884 -0.7429
 8976TIP3    H126892   4.984   5.283   4.323  0.1555  0.6531  0.7101
 8976TIP3    H226893   5.118   5.341   4.364 -0.2291  1.5461  0.7357
 8977TIP3   OH226894   2.388   1.541   1.702 -0.1201 -0.7567 -0.1235
 8977TIP3    H126895   2.484   1.538   1.698  0.1453  3.1626 -1.3090
 8977TIP3    H226896   2.360   1.548   1.611 -1.1556  1.6417  0.2853
 8978TIP3   OH226897   2.470   5.182   4.365  0.1263  0.2741 -0.4212
 8978TIP3    H126898   2.394   5.197   4.310 -1.4949  1.1494  1.8915
 8978TIP3    H226899   2.481   5.087   4.366 -2.6097 -0.1377  1.1487
 8979TIP3   OH226900   4.527   2.056   2.256 -0.0425 -0.0955  0.2191
 8979TIP3    H126901   4.513   2.101   2.339  0.5844 -0.5741  0.5947
 8979TIP3    H226902   4.620   2.069   2.237 -0.3418  0.6379 -0.7872
 8980TIP3   OH226903   4.581   0.213   2.008 -0.6332 -0.2299 -0.3918
 8980TIP3    H126904   4.570   0.121   2.029  1.2696 -0.4703 -0.2938
 8980TIP3    H226905   4.631   0.249   2.081  1.3510  0.1358 -1.8566
 8981TIP3   OH226906   3.636   1.420   3.596 -0.3405  0.6093 -0.1745
 8981TIP3    H126907   3.645   1.425   3.691  1.0830 -1.9254 -0.0990
 8981TIP3    H226908   3.699   1.483   3.562  0.7674 -0.0625  0.5788
 8982TIP3   OH226909   4.050   0.457   1.924 -0.1438  0.2443 -0.5250
 8982TIP3    H126910   3.978   0.454   1.861 -1.8447  2.4682  1.1072
 8982TIP3    H226911   4.122   0.497   1.875 -1.1419  1.1596 -1.3165
 8983TIP3   OH226912   3.620   2.705   1.568  0.0871  0.5213 -0.2671
 8983TIP3    H126913   3.537   2.701   1.616  0.1773 -1.6048 -0.2069
 8983TIP3    H226914   3.687   2.709   1.636  0.1653 -1.4520 -0.1761
 8984TIP3   OH226915   2.708   2.739   4.098 -0.0835  0.5380  0.4667
 8984TIP3    H126916   2.711   2.783   4.012  0.4305  0.4969  0.4566
 8984TIP3    H226917   2.630   2.685   4.095 -0.3223  0.8894  0.1952
 8985TIP3   OH226918   5.017   6.315   0.457 -0.1979  0.2175  0.0119
 8985TIP3    H126919   5.036   6.286   0.368  0.1434 -0.9682  0.4500
 8985TIP3    H226920   5.006   6.409   0.450 -1.9283 -0.0515 -1.5924
 8986TIP3   OH226921   2.500   6.402   3.001 -0.7063  0.1267  0.2943
 8986TIP3    H126922   2.506   6.367   2.912 -0.2786 -0.0743  0.4009
 8986TIP3    H226923   2.421   6.363   3.038 -1.2693  0.7406 -0.2279
 8987TIP3   OH226924   1.697   5.496   1.042  0.4059 -0.0068 -0.4059
 8987TIP3    H126925   1.687   5.496   1.137 -0.3783 -0.8496 -0.4780
 8987TIP3    H226926   1.660   5.579   1.013  0.4558  0.1591  0.0069
 8988TIP3   OH226927   0.838   4.247   0.616 -0.0353 -0.1219  0.0893
 8988TIP3    H126928   0.841   4.262   0.711 -0.1108  1.5272 -0.1499
 8988TIP3    H226929   0.926   4.271   0.586 -0.8475  2.2262 -0.6109
 8989TIP3   OH226930   4.957   1.892   2.143  0.1107 -0.7934 -0.4403
 8989TIP3    H126931   4.997   1.979   2.148 -1.0440 -0.1382 -1.9246
 8989TIP3    H226932   5.032   1.832   2.134  1.0180 -0.1560  2.0513
 8990TIP3   OH226933   1.053   1.855   5.203  0.5401  0.0445  0.1087
 8990TIP3    H126934   0.959   1.843   5.198  0.4453  0.9467 -0.4783
 8990TIP3    H226935   1.065   1.930   5.261  0.8196  0.7868 -0.8821
 8991TIP3   OH226936   1.118   0.635   1.053  0.6383 -0.1182  0.3819
 8991TIP3    H126937   1.036   0.587   1.045  0.1800  0.3345  1.9927
 8991TIP3    H226938   1.103   0.696   1.125  1.6766  1.4716 -0.6912
 8992TIP3   OH226939   2.243   6.211   1.912 -0.0100 -0.8739 -0.4364
 8992TIP3    H126940   2.335   6.186   1.918  0.0943 -0.2942  3.4662
 8992TIP3    H226941   2.205   6.151   1.849  2.9272 -1.3927 -1.8757
 8993TIP3   OH226942   1.524   4.295   4.041 -0.2123  0.7439 -0.2085
 8993TIP3    H126943   1.496   4.386   4.044  0.5683  0.9826  0.1111
 8993TIP3    H226944   1.489   4.262   3.958 -0.6856  1.2661 -0.2255
 8994TIP3   OH226945   5.536   6.746   0.370 -0.4877  0.0834 -0.5800
 8994TIP3    H126946   5.466   6.806   0.395  0.3958  0.8950 -0.0137
 8994TIP3    H226947   5.532   6.677   0.436 -0.8714  0.0177 -0.6659
 8995TIP3   OH226948   2.088   0.292   0.869  0.1641  0.0095  0.1140
 8995TIP3    H126949   2.062   0.214   0.919 -2.9111 -0.0016 -1.2771
 8995TIP3    H226950   2.046   0.364   0.915 -0.9762  0.2322 -1.2261
 8996TIP3   OH226951   4.230   2.674   4.514 -0.3918  0.2368  0.3579
 8996TIP3    H126952   4.194   2.644   4.598 -2.3878 -0.0757 -0.5346
 8996TIP3    H226953   4.310   2.624   4.502 -0.2645  0.0311  1.9097
 8997TIP3   OH226954   3.569   1.254   1.169 -0.0839 -0.9091  0.5548
 8997TIP3    H126955   3.645   1.313   1.173  1.3935 -2.5119 -1.5396
 8997TIP3    H226956   3.607   1.167   1.164 -2.2057 -2.1118  3.2077
 8998TIP3   OH226957   5.872   2.661   0.095  0.1855 -0.1641 -0.4110
 8998TIP3    H126958   5.832   2.741   0.061  0.9988 -0.5771 -2.4723
 8998TIP3    H226959   5.844   2.658   0.186 -2.1068  1.0438 -0.9864
 8999TIP3   OH226960   5.990   2.271   2.344 -0.2241 -0.0054 -0.4194
 8999TIP3    H126961   5.997   2.365   2.360  1.3769 -0.1583 -0.0895
 8999TIP3    H226962   6.007   2.261   2.250  0.0384 -0.0052 -0.3720
 9000TIP3   OH226963   3.848   3.727   1.573 -0.5259 -0.1331  0.6649
 9000TIP3    H126964   3.896   3.677   1.508 -0.2610 -0.8720  1.4062
 9000TIP3    H226965   3.859   3.677   1.655  1.1952  1.9915  1.8261
 9001TIP3   OH226966   6.454   5.346   4.992  0.0577  0.0716  0.2386
 9001TIP3    H126967   6.442   5.313   5.081  1.1826 -0.3433  0.2531
 9001TIP3    H226968   6.456   5.268   4.937 -3.1469  0.3968 -0.5463
 9002TIP3   OH226969   5.280   0.874   4.883 -0.4796  0.3115 -0.7569
 9002TIP3    H126970   5.253   0.851   4.972 -0.9928  1.0262 -0.7243
 9002TIP3    H226971   5.350   0.938   4.894  0.8739 -1.0662 -0.8532
 9003TIP3   OH226972   5.759   2.543   4.913 -0.5105 -0.2950 -0.0156
 9003TIP3    H126973   5.725   2.454   4.917 -0.2581 -0.4732 -1.4691
 9003TIP3    H226974   5.773   2.560   4.820  0.8749  0.7238  0.3502
 9004TIP3   OH226975   2.702   5.172   5.609  0.1692  0.2071  0.2354
 9004TIP3    H126976   2.732   5.241   5.669 -1.3001 -0.4638  1.8104
 9004TIP3    H226977   2.752   5.095   5.634  0.4809  0.2273 -0.3000
 9005TIP3   OH226978   0.650   1.026   2.132  0.2232  0.0573  0.3836
 9005TIP3    H126979   0.739   1.060   2.145  0.4878 -0.5282  0.1162
 9005TIP3    H226980   0.593   1.099   2.159  0.7803  0.6833 -0.0864
 9006TIP3   OH226981   3.525   3.806   5.621 -0.1911  0.3869  0.0629
 9006TIP3    H126982   3.591   3.749   5.581  0.6710  0.4016  1.3613
 9006TIP3    H226983   3.465   3.828   5.551  1.9761  1.5176 -1.5614
 9007TIP3   OH226984   6.719   0.950   2.854  0.1173  0.1992 -0.4822
 9007TIP3    H126985   6.644   0.964   2.797 -2.1423  1.6897  2.5888
 9007TIP3    H226986   6.689   0.886   2.918  1.6616  0.3856  0.4850
 9008TIP3   OH226987   3.039   1.758   0.700  0.0814  0.1692  0.0574
 9008TIP3    H126988   3.080   1.813   0.767 -1.6205 -1.1394  2.3160
 9008TIP3    H226989   3.070   1.669   0.719 -0.7214 -0.2778 -0.6305
 9009TIP3   OH226990   5.031   5.773   0.974 -0.3400 -0.7298  0.0056
 9009TIP3    H126991   5.115   5.739   0.944 -0.0961 -1.2618  1.2538
 9009TIP3    H226992   5.008   5.839   0.909  0.0029 -2.0501 -1.5469
 9010TIP3   OH226993   1.387   6.319   1.880 -0.3609  0.1058  0.5960
 9010TIP3    H126994   1.381   6.329   1.785 -1.7222  0.8034  0.7200
 9010TIP3    H226995   1.324   6.250   1.900 -0.8034  0.6380  1.0719
 9011TIP3   OH226996   3.873   2.114   4.944  0.7348 -0.0789 -0.2839
 9011TIP3    H126997   3.936   2.143   4.878  1.8033  0.3098  0.8817
 9011TIP3    H226998   3.843   2.195   4.986  0.2485 -0.3409 -0.1092
 9012TIP3   OH226999   4.903   6.397   0.182 -0.2918  0.4515  0.3891
 9012TIP3    H127000   4.941   6.379   0.096 -1.2335  1.3244 -0.2390
 9012TIP3    H227001   4.818   6.351   0.181  0.3792 -0.9005  1.5019
 9013TIP3   OH227002   6.742   0.423   5.213 -0.0429  0.0539  0.3834
 9013TIP3    H127003   6.699   0.373   5.144  1.2906 -1.9708  0.9487
 9013TIP3    H227004   6.694   0.401   5.293 -0.1374  0.5655  0.4725
 9014TIP3   OH227005   5.114   3.333   1.290  0.3297 -0.1479 -0.4887
 9014TIP3    H127006   5.090   3.423   1.270  0.4341 -0.0991 -0.3951
 9014TIP3    H227007   5.203   3.324   1.255  1.5432  0.6944  2.1035
 9015TIP3   OH227008   3.311   1.719   2.909  0.2963  0.2708  0.1176
 9015TIP3    H127009   3.355   1.728   2.994 -0.3610  1.3952  0.3622
 9015TIP3    H227010   3.314   1.626   2.890  2.7302  0.2957  0.1437
 9016TIP3   OH227011   3.117   4.701   2.736 -0.2580  0.1334  0.0633
 9016TIP3    H127012   3.045   4.711   2.674  0.6491  1.4649 -0.8406
 9016TIP3    H227013   3.126   4.606   2.747 -1.7388 -0.0762 -0.2539
 9017TIP3   OH227014   1.343   1.724   1.865  0.4146 -0.0854 -0.1491
 9017TIP3    H127015   1.249   1.727   1.881  0.2944 -1.0350 -0.5619
 9017TIP3    H227016   1.375   1.812   1.885 -0.7286  0.5440 -0.9980
 9018TIP3   OH227017   1.132   5.221   1.770 -0.1543  0.1148 -0.0334
 9018TIP3    H127018   1.055   5.250   1.721  1.0544  1.4772 -1.2093
 9018TIP3    H227019   1.164   5.300   1.813  0.1241 -0.6105  1.1356
 9019TIP3   OH227020   1.083   4.557   1.020  0.3474 -0.1150 -0.2360
 9019TIP3    H127021   1.148   4.593   1.081 -0.6010 -1.3693  1.5850
 9019TIP3    H227022   1.135   4.520   0.949  1.4839  1.4133 -0.2457
 9020TIP3   OH227023   4.384   3.833   4.675 -0.1170 -0.2092  0.6197
 9020TIP3    H127024   4.377   3.823   4.580  0.0962  1.2814  0.4164
 9020TIP3    H227025   4.344   3.754   4.710  0.1910 -0.9906 -0.7127
 9021TIP3   OH227026   6.427   0.099   1.009 -0.0622 -0.1750 -0.2675
 9021TIP3    H127027   6.471   0.014   1.002  1.5186  0.4737  1.1384
 9021TIP3    H227028   6.458   0.135   1.092 -2.6143  0.7396  0.3826
 9022TIP3   OH227029   4.026   5.635   5.300  0.2668 -0.3371  0.3239
 9022TIP3    H127030   4.098   5.598   5.350 -0.9204  0.6315  2.9374
 9022TIP3    H227031   3.953   5.575   5.315 -0.4127  0.5632  0.7199
 9023TIP3   OH227032   1.529   4.651   4.928 -0.2736 -0.0721 -0.4393
 9023TIP3    H127033   1.474   4.619   5.000  1.8419 -0.0736  1.2588
 9023TIP3    H227034   1.469   4.657   4.853 -2.4763 -0.4414  1.1972
 9024TIP3   OH227035   6.061   1.968   3.430 -0.4569  0.3534  0.2682
 9024TIP3    H127036   5.970   1.997   3.444 -0.3750  0.1570  1.3056
 9024TIP3    H227037   6.114   2.038   3.467 -0.2260 -0.2442  1.0956
 9025TIP3   OH227038   5.310   3.592   5.515 -0.3437  0.7565  0.1857
 9025TIP3    H127039   5.304   3.684   5.490  0.6401  1.2973  1.7957
 9025TIP3    H227040   5.225   3.572   5.553 -0.8582  0.7358 -0.9400
 9026TIP3   OH227041   0.785   0.006   3.849  0.0471 -0.2781 -0.2089
 9026TIP3    H127042   0.796   0.062   3.772  0.0188  0.1184  0.0752
 9026TIP3    H227043   0.848  -0.065   3.835 -0.0441 -0.2726 -0.6564
 9027TIP3   OH227044   0.210   5.245   4.351  0.0687  0.3995  0.6015
 9027TIP3    H127045   0.157   5.177   4.393 -1.2315  1.5622  0.8978
 9027TIP3    H227046   0.245   5.203   4.273 -1.8452 -0.2336  0.0322
 9028TIP3   OH227047   3.393   5.442   5.154 -0.1553 -0.0521 -0.1984
 9028TIP3    H127048   3.322   5.498   5.185  0.9256  2.0448 -1.3003
 9028TIP3    H227049   3.417   5.390   5.231 -1.3417  0.8438  0.8359
 9029TIP3   OH227050   2.805   1.142   4.430 -0.7946 -0.4579  0.3034
 9029TIP3    H127051   2.797   1.115   4.522  1.3012 -2.6212 -0.0773
 9029TIP3    H227052   2.899   1.149   4.415 -1.1082  0.3192 -1.6059
 9030TIP3   OH227053   5.518   0.908   0.157  0.0836  0.5726 -0.1162
 9030TIP3    H127054   5.507   0.821   0.119  2.2194 -0.5346  1.5657
 9030TIP3    H227055   5.612   0.925   0.151 -0.1840  2.4319  0.3432
 9031TIP3   OH227056   4.030   6.517   3.005 -0.2446 -0.2655 -0.1788
 9031TIP3    H127057   3.979   6.586   3.046  0.3459 -0.3998  0.8203
 9031TIP3    H227058   4.088   6.486   3.074  1.0731 -0.2272 -1.2269
 9032TIP3   OH227059   3.328   6.657   1.139  0.2237  0.2071 -0.0803
 9032TIP3    H127060   3.251   6.604   1.162  1.0562 -1.1019 -0.2250
 9032TIP3    H227061   3.316   6.676   1.046 -0.2178  0.5146  0.0349
 9033TIP3   OH227062   1.378   3.981   3.940 -0.1728  0.4877 -0.0803
 9033TIP3    H127063   1.301   4.036   3.926 -0.4565 -0.3703 -2.3377
 9033TIP3    H227064   1.362   3.941   4.026 -0.2250  3.3548  1.3695
 9034TIP3   OH227065   5.751   1.964   2.795  0.1884 -0.3548 -0.1365
 9034TIP3    H127066   5.687   1.966   2.724  2.0676  1.3576 -1.9182
 9034TIP3    H227067   5.769   1.871   2.808 -0.4223 -0.7245 -1.6921
 9035TIP3   OH227068   2.927   3.134   3.615  0.5718  0.2107 -0.0757
 9035TIP3    H127069   2.982   3.210   3.633  0.1228  0.4297  0.4023
 9035TIP3    H227070   2.838   3.169   3.609  0.5189 -0.0707 -1.2845
 9036TIP3   OH227071   2.576   1.344   0.915  0.5697 -0.1719  0.3965
 9036TIP3    H127072   2.620   1.266   0.948  0.4320  0.3490  1.8903
 9036TIP3    H227073   2.639   1.382   0.853  0.6217 -1.4533 -0.3715
 9037TIP3   OH227074   1.887   0.477   4.097 -1.0164 -0.6156 -0.4268
 9037TIP3    H127075   1.805   0.523   4.081 -2.4952 -3.1837 -0.7416
 9037TIP3    H227076   1.947   0.510   4.030 -0.7892  3.3045  1.4545
 9038TIP3   OH227077   5.080   5.425   3.887 -1.3075 -0.6452 -0.1762
 9038TIP3    H127078   5.083   5.372   3.967 -1.8724 -0.3790  0.0266
 9038TIP3    H227079   5.116   5.368   3.819  0.8805 -0.2660  0.5890
 9039TIP3   OH227080   3.836   2.485   4.172  0.0364  0.0913 -0.8005
 9039TIP3    H127081   3.756   2.482   4.120  0.7763  0.5629 -2.0031
 9039TIP3    H227082   3.864   2.576   4.169  1.3487 -0.3044 -1.5819
 9040TIP3   OH227083   5.516   1.472   4.579  0.4212  0.1876 -0.2422
 9040TIP3    H127084   5.562   1.517   4.650  0.3975 -2.7783  1.8418
 9040TIP3    H227085   5.586   1.449   4.517  0.8229  0.7062  0.0032
 9041TIP3   OH227086   5.068   0.112   2.741  0.7665  0.0004 -0.3686
 9041TIP3    H127087   5.003   0.166   2.696  0.1132 -0.6461 -0.2347
 9041TIP3    H227088   5.072   0.148   2.829  0.4706 -0.0429 -0.3349
 9042TIP3   OH227089   0.162   5.941   5.221  0.2365 -0.0319 -0.4397
 9042TIP3    H127090   0.170   5.945   5.126  0.2682 -0.2405 -0.4443
 9042TIP3    H227091   0.238   5.991   5.253  0.9188 -1.0106 -0.5060
 9043TIP3   OH227092   3.428   4.591   5.019  0.6273  0.3858 -0.3280
 9043TIP3    H127093   3.472   4.626   4.941 -0.3419  0.7549 -0.7261
 9043TIP3    H227094   3.428   4.497   5.006 -0.8207  0.5060 -1.5258
 9044TIP3   OH227095   7.077   6.204   2.698 -0.2705 -0.5410  0.4332
 9044TIP3    H127096   7.163   6.170   2.671  0.3929  0.2356  1.4668
 9044TIP3    H227097   7.049   6.144   2.767 -1.4479 -1.8743 -1.1316
 9045TIP3   OH227098   1.354   5.390   3.905 -0.0210  0.4088 -0.8324
 9045TIP3    H127099   1.445   5.364   3.915  0.3062  1.8740  0.2739
 9045TIP3    H227100   1.313   5.368   3.988 -0.4267  0.6725 -0.9589
 9046TIP3   OH227101   3.966   4.699   1.136  0.5612  0.0291  0.1208
 9046TIP3    H127102   3.950   4.609   1.109 -3.5112  0.3171  0.8869
 9046TIP3    H227103   3.928   4.752   1.066  1.7780  1.1499  0.2711
 9047TIP3   OH227104   3.378   0.949   0.901 -0.1392 -0.0754 -0.5781
 9047TIP3    H127105   3.299   1.000   0.885  0.2538  0.2408 -1.5769
 9047TIP3    H227106   3.447   1.015   0.912 -0.1776 -0.3034  1.3854
 9048TIP3   OH227107   5.388   3.911   3.661  0.2507  0.3797 -0.0940
 9048TIP3    H127108   5.362   3.934   3.571 -1.0239 -1.8620 -0.3789
 9048TIP3    H227109   5.335   3.834   3.681  1.8489 -0.2427  1.9332
 9049TIP3   OH227110   1.346   6.216   5.281  0.0350 -0.2539 -0.6926
 9049TIP3    H127111   1.360   6.143   5.341  1.4323  0.5434 -0.0035
 9049TIP3    H227112   1.312   6.287   5.335  0.2479  0.1220 -1.0423
 9050TIP3   OH227113   3.561   5.854   2.451 -0.3888 -0.4089 -0.2392
 9050TIP3    H127114   3.618   5.928   2.430 -0.4630 -0.5831 -1.0945
 9050TIP3    H227115   3.523   5.829   2.367 -2.7876  0.5471  0.4627
 9051TIP3   OH227116   3.176   0.650   4.702 -0.5038 -0.1520 -0.4305
 9051TIP3    H127117   3.257   0.699   4.686 -0.4568 -0.4371 -1.1178
 9051TIP3    H227118   3.122   0.667   4.624 -1.5976  0.9897  0.5365
 9052TIP3   OH227119   2.281   0.445   0.238 -0.5277 -0.7723  0.4908
 9052TIP3    H127120   2.301   0.373   0.298  1.8229 -1.2796 -0.7705
 9052TIP3    H227121   2.201   0.417   0.194  0.1970 -2.5585  0.2137
 9053TIP3   OH227122   6.123   4.434   4.359 -0.4252  0.1246  0.2502
 9053TIP3    H127123   6.068   4.365   4.397  0.1191 -1.4236 -1.6232
 9053TIP3    H227124   6.061   4.498   4.324 -1.0352 -0.9597 -0.6996
 9054TIP3   OH227125   0.054   1.191   0.642 -0.1398  0.1488 -0.7671
 9054TIP3    H127126   0.133   1.244   0.651  0.0988 -0.2632 -0.4164
 9054TIP3    H227127   0.073   1.111   0.691 -0.4497 -0.3174 -1.4017
 9055TIP3   OH227128   2.729   0.477   3.165 -0.9944 -0.6371 -0.3106
 9055TIP3    H127129   2.780   0.481   3.083  0.2116  0.0281  0.4348
 9055TIP3    H227130   2.711   0.568   3.186 -2.5805 -0.8660 -0.5722
 9056TIP3   OH227131   1.653   6.246   3.208  0.3298 -0.4761  0.0562
 9056TIP3    H127132   1.743   6.263   3.179  0.0402  0.2641 -0.4356
 9056TIP3    H227133   1.658   6.247   3.304  1.3391 -3.1819  0.1030
 9057TIP3   OH227134   0.700   2.593   5.295  0.9921 -0.0838  0.2616
 9057TIP3    H127135   0.788   2.591   5.258  0.9455 -2.0767  0.1399
 9057TIP3    H227136   0.656   2.515   5.259 -0.7553  0.7364  0.4831
 9058TIP3   OH227137   2.761   2.854   4.336  0.4537  0.0371 -0.0648
 9058TIP3    H127138   2.717   2.799   4.271  0.1387 -1.0350  1.0158
 9058TIP3    H227139   2.752   2.943   4.303 -1.1036 -0.3241 -0.7034
 9059TIP3   OH227140   2.367   0.745   1.823  0.2827  0.2870 -0.2310
 9059TIP3    H127141   2.382   0.651   1.809  0.1177  0.3783 -1.0983
 9059TIP3    H227142   2.445   0.775   1.869  0.8176 -0.0900 -0.8624
 9060TIP3   OH227143   3.630   4.683   1.122 -0.0934  0.1188  0.3876
 9060TIP3    H127144   3.626   4.587   1.124 -2.1280  0.1589  0.1106
 9060TIP3    H227145   3.581   4.708   1.044 -0.9879  1.4218  1.3193
 9061TIP3   OH227146   3.566   6.760   2.827 -0.2171 -0.0990 -0.0404
 9061TIP3    H127147   3.555   6.699   2.754 -0.6535  0.2956 -0.3116
 9061TIP3    H227148   3.477   6.777   2.858  0.0361 -1.4195  1.5675
 9062TIP3   OH227149   6.356   1.223   0.579  0.2145  0.3053 -0.0922
 9062TIP3    H127150   6.314   1.303   0.610  2.2868  1.5234 -0.2444
 9062TIP3    H227151   6.449   1.244   0.577  0.9782 -2.5504  1.1011
 9063TIP3   OH227152   3.186   3.059   5.319 -0.3966 -0.0266  0.0641
 9063TIP3    H127153   3.157   3.057   5.410 -0.1870  1.0851  0.1609
 9063TIP3    H227154   3.217   3.148   5.305  0.4770 -0.4531 -0.8233
 9064TIP3   OH227155   1.963   1.962   4.124  0.1774 -0.1516 -0.4688
 9064TIP3    H127156   1.877   1.921   4.110 -0.2867  0.8269 -0.5287
 9064TIP3    H227157   1.945   2.055   4.130  1.1961  0.0323 -0.0396
 9065TIP3   OH227158   1.463   0.202   1.697 -0.0097 -0.4737 -0.4671
 9065TIP3    H127159   1.443   0.110   1.680 -2.3771 -0.4337  1.5667
 9065TIP3    H227160   1.509   0.201   1.781  0.5227  0.1589 -0.7479
 9066TIP3   OH227161   5.241   4.883   1.450  0.4657  0.5348 -0.0297
 9066TIP3    H127162   5.165   4.881   1.509  0.7322 -1.3828  0.3092
 9066TIP3    H227163   5.311   4.841   1.500  1.0205 -0.1075 -1.3011
 9067TIP3   OH227164   6.736   2.259   0.850 -0.1600 -0.0206  0.2662
 9067TIP3    H127165   6.769   2.299   0.930 -1.4252  1.5924  0.0414
 9067TIP3    H227166   6.761   2.167   0.857  1.4339  0.4643  1.5883
 9068TIP3   OH227167   3.733   3.732   0.515  0.0583  0.0978 -0.2262
 9068TIP3    H127168   3.713   3.746   0.608  1.6748  0.9331  0.0389
 9068TIP3    H227169   3.769   3.643   0.512  2.5680  0.9787  0.4969
 9069TIP3   OH227170   6.565   2.528   5.273  0.1592  0.4445 -0.3756
 9069TIP3    H127171   6.527   2.484   5.198 -1.1041  2.6701 -1.1453
 9069TIP3    H227172   6.549   2.470   5.347 -0.0361 -1.0403 -1.5537
 9070TIP3   OH227173   4.496   1.787   4.760 -0.1256  0.1516 -0.5674
 9070TIP3    H127174   4.436   1.860   4.745 -2.2692 -1.8621 -2.3755
 9070TIP3    H227175   4.558   1.792   4.687 -0.2319  0.1793 -0.6556
 9071TIP3   OH227176   3.733   2.740   1.828  0.0842  0.2247  0.2569
 9071TIP3    H127177   3.652   2.707   1.866 -0.4561  0.3555 -0.7648
 9071TIP3    H227178   3.734   2.833   1.850  0.9165 -0.1379  1.9178
 9072TIP3   OH227179   3.198   1.722   5.009  0.6650 -0.3031  0.3458
 9072TIP3    H127180   3.123   1.771   5.041  0.5357 -1.2017  1.4356
 9072TIP3    H227181   3.269   1.744   5.070  0.9990 -0.3206 -0.0296
 9073TIP3   OH227182   7.107   3.065   4.404 -0.1390  0.0076 -0.0230
 9073TIP3    H127183   7.074   3.008   4.473  1.0398 -1.0640 -0.3172
 9073TIP3    H227184   7.068   3.031   4.323  1.3791 -1.0976 -0.3367
 9074TIP3   OH227185   2.485   4.414   0.879  0.2510  0.2929 -0.3039
 9074TIP3    H127186   2.551   4.345   0.869  0.2697  0.1055  0.9386
 9074TIP3    H227187   2.430   4.405   0.801  0.8132 -0.5048 -0.6370
 9075TIP3   OH227188   1.245   5.420   4.150 -0.5478  0.1540  0.1601
 9075TIP3    H127189   1.280   5.452   4.233 -1.2357  0.4991  0.3186
 9075TIP3    H227190   1.153   5.403   4.167 -0.4858 -0.7024 -0.2726
 9076TIP3   OH227191   1.492   2.656   1.149 -0.4633 -0.3072 -0.3232
 9076TIP3    H127192   1.454   2.571   1.128 -0.5419 -0.2611 -0.3673
 9076TIP3    H227193   1.510   2.652   1.243  0.2824 -0.6707 -0.4719
 9077TIP3   OH227194   6.608   1.056   5.102 -0.1469  0.3227 -0.5181
 9077TIP3    H127195   6.691   1.096   5.074  1.2639 -0.8272  1.7185
 9077TIP3    H227196   6.549   1.130   5.115  0.4570  1.1727 -2.1989
 9078TIP3   OH227197   2.023   1.742   5.724 -0.0030  0.0036 -0.1405
 9078TIP3    H127198   1.969   1.821   5.733 -0.2420 -0.1118 -0.5075
 9078TIP3    H227199   2.103   1.762   5.772  1.5173  1.8879 -3.1134
 9079TIP3   OH227200   4.426   3.342   1.727 -0.0382  0.6257 -0.1321
 9079TIP3    H127201   4.480   3.294   1.790  0.3024 -1.4433 -1.8660
 9079TIP3    H227202   4.465   3.429   1.723  1.8255 -0.1407  0.2857
 9080TIP3   OH227203   0.088   3.055   5.602 -0.5986 -0.6341 -0.1915
 9080TIP3    H127204   0.004   3.030   5.563 -0.9452  0.1239  0.0595
 9080TIP3    H227205   0.108   3.141   5.566  0.0182 -0.7539 -0.1566
 9081TIP3   OH227206   5.310   2.429   1.567 -0.3694 -0.0267  0.2868
 9081TIP3    H127207   5.367   2.389   1.633 -0.0946 -0.9280 -0.4854
 9081TIP3    H227208   5.242   2.364   1.551 -1.0279  0.6136  0.4205
 9082TIP3   OH227209   0.676   2.542   2.022 -0.5248 -0.1474 -0.4963
 9082TIP3    H127210   0.623   2.570   1.946 -0.2329 -2.0238 -1.4410
 9082TIP3    H227211   0.757   2.508   1.983 -1.3527 -3.4907  0.3791
 9083TIP3   OH227212   6.787   2.738   5.561  0.0453  0.8035  0.3546
 9083TIP3    H127213   6.804   2.736   5.467 -0.0049  1.9185  0.3080
 9083TIP3    H227214   6.787   2.646   5.588 -0.1093  0.4672 -0.7616
 9084TIP3   OH227215   1.167   3.184   4.148  0.6928  0.7050 -0.0701
 9084TIP3    H127216   1.149   3.181   4.054  1.5892  0.8415 -0.2507
 9084TIP3    H227217   1.127   3.104   4.182 -1.3747  1.5863 -0.2320
 9085TIP3   OH227218   6.029   5.790   5.404 -0.2273  0.5696  0.3937
 9085TIP3    H127219   5.952   5.841   5.430 -0.6052  0.0864  0.2388
 9085TIP3    H227220   5.993   5.718   5.352  0.2601 -0.1155  0.9931
 9086TIP3   OH227221   1.704   4.629   3.364 -0.6094 -0.2102  0.6295
 9086TIP3    H127222   1.623   4.611   3.316 -0.9753  0.7425  0.8504
 9086TIP3    H227223   1.730   4.545   3.400  0.0886 -1.1226 -1.8307
 9087TIP3   OH227224   6.854   6.310   0.089  0.5154 -1.0577  0.3202
 9087TIP3    H127225   6.812   6.237   0.134 -0.6079  0.2292  1.4352
 9087TIP3    H227226   6.783   6.354   0.042  1.4988 -1.8026 -2.0397
 9088TIP3   OH227227   0.457   1.276   3.149 -0.0852  0.5141  0.1900
 9088TIP3    H127228   0.477   1.219   3.224  1.3297 -0.8538 -1.1442
 9088TIP3    H227229   0.531   1.336   3.144 -1.4406  2.3847  1.4183
 9089TIP3   OH227230   4.933   5.648   2.954 -0.0343 -0.4633 -0.2012
 9089TIP3    H127231   4.949   5.584   2.884 -1.0192 -0.4507 -0.4448
 9089TIP3    H227232   4.916   5.595   3.032  1.5312 -0.4815  0.1778
 9090TIP3   OH227233   0.508   4.352   4.207 -0.1264  0.0098 -0.6465
 9090TIP3    H127234   0.466   4.296   4.141  2.1378 -0.7005 -1.5827
 9090TIP3    H227235   0.601   4.333   4.199  0.5142  2.1906  0.6763
 9091TIP3   OH227236   6.727   1.518   1.580 -0.2357  0.0835 -0.4844
 9091TIP3    H127237   6.815   1.482   1.580 -0.1478  0.1956  1.2795
 9091TIP3    H227238   6.737   1.606   1.617 -0.9784  0.4225 -1.0498
 9092TIP3   OH227239   0.800   3.865   3.463  0.2786 -0.1243  0.4837
 9092TIP3    H127240   0.858   3.790   3.479  0.9500  0.5739  1.3803
 9092TIP3    H227241   0.718   3.841   3.505  0.0478 -0.8974 -0.3509
 9093TIP3   OH227242   2.262   2.167   1.574  0.1242  0.0062  0.5215
 9093TIP3    H127243   2.259   2.141   1.482  1.4145 -0.9783  0.7126
 9093TIP3    H227244   2.273   2.262   1.572 -1.6725  0.2389 -0.2819
 9094TIP3   OH227245   1.700   4.320   0.581  0.1904  0.3187  0.2862
 9094TIP3    H127246   1.727   4.369   0.504  0.8296 -1.8034 -0.9090
 9094TIP3    H227247   1.605   4.313   0.573  0.0411  1.5617  0.6530
 9095TIP3   OH227248   7.141   6.691   3.267  0.3068  0.2638 -0.3976
 9095TIP3    H127249   7.109   6.637   3.194 -1.0007 -0.0752  0.4111
 9095TIP3    H227250   7.236   6.693   3.253  0.2026 -0.7068 -1.4978
 9096TIP3   OH227251   7.039   0.578   3.503 -0.5204  0.0856  0.1262
 9096TIP3    H127252   7.025   0.613   3.591  2.0570 -1.8156  1.4183
 9096TIP3    H227253   6.965   0.519   3.488  0.1317 -1.2934  2.0232
 9097TIP3   OH227254   6.680   2.691   4.015 -0.2001 -0.2061 -0.0563
 9097TIP3    H127255   6.639   2.739   4.087  0.7022  0.1541  0.2359
 9097TIP3    H227256   6.655   2.600   4.029  1.5756 -0.4643  1.8896
 9098TIP3   OH227257   0.246   1.000   3.924  0.1426 -0.1983 -0.3131
 9098TIP3    H127258   0.262   1.088   3.890 -0.4432 -0.2741 -0.8227
 9098TIP3    H227259   0.174   1.011   3.986  0.5719 -0.2088  0.1934
 9099TIP3   OH227260   3.082   6.326   2.194 -0.1396 -0.0401 -0.0815
 9099TIP3    H127261   3.051   6.416   2.199  0.3585  0.0395  2.5829
 9099TIP3    H227262   3.149   6.327   2.126 -1.3013  1.1975 -1.2673
 9100TIP3   OH227263   4.815   4.141   4.169  0.0388  0.2184 -0.0057
 9100TIP3    H127264   4.734   4.146   4.119  0.0515  2.3654  0.0803
 9100TIP3    H227265   4.879   4.190   4.117  0.0139  2.6700  2.0332
 9101TIP3   OH227266   6.019   0.358   2.514  0.6650 -0.3138 -0.2111
 9101TIP3    H127267   6.007   0.391   2.603  0.7828 -0.6605 -0.0621
 9101TIP3    H227268   5.951   0.401   2.463  0.9241  0.2846 -0.0594
 9102TIP3   OH227269   4.889   5.814   5.072  0.2964 -0.1319 -0.4343
 9102TIP3    H127270   4.867   5.809   4.979 -1.3564  0.6017 -0.1274
 9102TIP3    H227271   4.805   5.805   5.117  0.7059  1.8879  0.8880
 9103TIP3   OH227272   2.702   3.361   0.987 -0.1338  0.2125 -0.3422
 9103TIP3    H127273   2.702   3.451   1.018 -1.0233  0.2142 -0.3391
 9103TIP3    H227274   2.634   3.317   1.038 -0.1771 -0.2879 -0.8187
 9104TIP3   OH227275   3.372   2.418   0.573  0.1660 -0.0113 -0.2964
 9104TIP3    H127276   3.331   2.363   0.641 -2.1417  1.5033 -0.3474
 9104TIP3    H227277   3.415   2.488   0.622  0.4876 -0.1882 -0.3257
 9105TIP3   OH227278   2.355   5.877   4.824  0.7754 -0.1501  0.3594
 9105TIP3    H127279   2.429   5.833   4.865  0.8342  0.8878  1.4345
 9105TIP3    H227280   2.392   5.957   4.787  0.5249 -0.5627 -0.8250
 9106TIP3   OH227281   0.384   3.506   2.580  0.4196  0.0482 -0.1748
 9106TIP3    H127282   0.452   3.570   2.600  1.2720 -0.6964 -0.6328
 9106TIP3    H227283   0.302   3.551   2.602  1.0606  0.8625  0.6340
 9107TIP3   OH227284   6.474   5.492   3.445 -0.8790  0.7857 -0.0568
 9107TIP3    H127285   6.563   5.490   3.481 -0.8974  1.5268  0.0391
 9107TIP3    H227286   6.438   5.405   3.465 -0.6567  0.9466  1.1398
 9108TIP3   OH227287   6.397   6.049   1.945 -0.0867 -0.2578  0.0426
 9108TIP3    H127288   6.460   5.991   1.987  0.1470  0.1519  0.2674
 9108TIP3    H227289   6.451   6.115   1.900 -0.3509  0.3653  0.6207
 9109TIP3   OH227290   2.517   0.875   5.032 -0.1280 -0.2160 -0.4552
 9109TIP3    H127291   2.572   0.874   5.110  1.3967  0.2187 -1.4915
 9109TIP3    H227292   2.428   0.889   5.066  0.5258  0.2234  1.1716
 9110TIP3   OH227293   4.147   0.360   2.620  0.2382 -0.2946  0.5150
 9110TIP3    H127294   4.215   0.421   2.649  1.0211 -1.0115  0.2563
 9110TIP3    H227295   4.072   0.379   2.675  0.4259  0.9775  0.3515
 9111TIP3   OH227296   1.046   4.939   1.372 -0.2368  0.1640  0.0111
 9111TIP3    H127297   1.106   4.978   1.436 -1.4508 -1.8977  2.5860
 9111TIP3    H227298   0.959   4.967   1.401 -0.8071 -0.7398 -0.7885
 9112TIP3   OH227299   5.352   1.479  -0.012  0.3105  0.1171 -0.0362
 9112TIP3    H127300   5.332   1.463   0.080  0.2180 -0.6039 -0.1705
 9112TIP3    H227301   5.434   1.431  -0.028 -0.9495 -1.9113 -0.9140
 9113TIP3   OH227302   6.228   3.188   2.284 -0.1071 -0.5640 -0.5326
 9113TIP3    H127303   6.147   3.194   2.335  0.2304 -1.8940  0.2210
 9113TIP3    H227304   6.276   3.116   2.326  1.6975  0.5496 -0.6354
 9114TIP3   OH227305   0.347   2.727   0.431  0.2352 -0.1331  0.1943
 9114TIP3    H127306   0.414   2.672   0.472 -0.3639 -0.3235  0.9478
 9114TIP3    H227307   0.305   2.772   0.504 -1.1815 -0.8565 -0.1471
 9115TIP3   OH227308   3.760   6.528   0.971 -0.1040  0.0231 -0.5277
 9115TIP3    H127309   3.850   6.529   1.003  0.0562  1.4293 -0.9621
 9115TIP3    H227310   3.706   6.532   1.050  0.0962 -3.0074 -0.1029
 9116TIP3   OH227311   3.755   0.743   4.389 -0.3018 -0.6183 -0.0195
 9116TIP3    H127312   3.791   0.679   4.451 -2.3346 -3.1089 -1.1961
 9116TIP3    H227313   3.670   0.767   4.426  0.2757  1.1788  0.2056
 9117TIP3   OH227314   4.789   2.072   3.720 -0.4891  0.3108 -0.4204
 9117TIP3    H127315   4.839   2.018   3.659 -1.6105 -3.1671  1.4431
 9117TIP3    H227316   4.715   2.104   3.668 -0.7913 -1.5508 -1.2103
 9118TIP3   OH227317   0.836   0.748   3.010 -0.0200  0.1773 -0.7084
 9118TIP3    H127318   0.879   0.834   3.017 -0.1803  0.2324 -0.3517
 9118TIP3    H227319   0.843   0.725   2.918  4.2393 -1.5975 -0.1542
 9119TIP3   OH227320   3.045   3.895   4.929  0.0728 -0.3289 -0.4216
 9119TIP3    H127321   3.075   3.821   4.982  0.1819  0.4327  0.6220
 9119TIP3    H227322   3.074   3.973   4.978 -1.9395  0.4296 -0.3318
 9120TIP3   OH227323   5.415   5.420   2.184  0.1769 -0.1579 -0.1629
 9120TIP3    H127324   5.452   5.394   2.099 -1.5485  0.6973 -1.2343
 9120TIP3    H227325   5.320   5.408   2.174 -0.2843  2.0307  0.8535
 9121TIP3   OH227326   4.747   1.423   3.451 -0.3320  0.0537  0.2956
 9121TIP3    H127327   4.715   1.456   3.366 -0.1533 -2.9354 -1.0817
 9121TIP3    H227328   4.719   1.331   3.452 -0.7314  0.0856  3.7502
 9122TIP3   OH227329   6.591   6.606   5.030  0.1116  0.2520 -0.1060
 9122TIP3    H127330   6.539   6.580   5.106  0.1779  0.3961 -0.0121
 9122TIP3    H227331   6.541   6.677   4.990  0.9822  1.4079  0.8375
 9123TIP3   OH227332   6.546   3.141   0.476  0.0336  0.2367 -0.0283
 9123TIP3    H127333   6.569   3.191   0.554 -0.6164  0.2202  0.1801
 9123TIP3    H227334   6.451   3.150   0.469 -0.3060 -2.1288  0.8158
 9124TIP3   OH227335   0.161   4.735   2.158 -0.6596 -0.0509  0.0454
 9124TIP3    H127336   0.240   4.775   2.122 -1.2444  1.5396  0.4016
 9124TIP3    H227337   0.193   4.672   2.223  0.3193  0.9065  0.5272
 9125TIP3   OH227338   5.873   4.930   4.648 -0.6399  0.0169  0.4959
 9125TIP3    H127339   5.884   5.018   4.611 -1.4583 -0.0548  0.0750
 9125TIP3    H227340   5.949   4.919   4.705  1.7631 -0.5731 -2.5275
 9126TIP3   OH227341   0.706   0.338   4.401  0.1702  0.7221  0.0701
 9126TIP3    H127342   0.739   0.427   4.394 -1.6127  1.3980 -0.4032
 9126TIP3    H227343   0.703   0.306   4.311 -0.1451  0.5645  0.1329
 9127TIP3   OH227344   4.689   0.016   3.132 -0.0273  0.5814 -0.3090
 9127TIP3    H127345   4.716   0.107   3.144  1.3358  0.3226 -1.1480
 9127TIP3    H227346   4.771  -0.032   3.119 -0.6442 -0.9208  0.9481
 9128TIP3   OH227347   3.688   5.839   4.811 -0.4051  0.5136  0.2698
 9128TIP3    H127348   3.723   5.750   4.804  0.2683  0.6969  1.1007
 9128TIP3    H227349   3.731   5.888   4.741 -0.7539  0.2010 -0.1689
 9129TIP3   OH227350   3.267   3.823   4.584 -0.3459 -0.5202  0.0060
 9129TIP3    H127351   3.230   3.756   4.526  2.5595 -0.9500 -1.5231
 9129TIP3    H227352   3.290   3.775   4.664  0.3684 -1.0593 -0.5117
 9130TIP3   OH227353   6.592   5.300   5.372 -0.1457  0.2251  0.3118
 9130TIP3    H127354   6.685   5.319   5.355 -0.4409  0.4382 -1.1513
 9130TIP3    H227355   6.584   5.205   5.358  0.1050 -0.0437  1.7883
 9131TIP3   OH227356   5.562   0.464   0.291 -0.1904  0.1664  0.6587
 9131TIP3    H127357   5.507   0.473   0.369  0.4985  0.0405  1.1688
 9131TIP3    H227358   5.627   0.534   0.299  1.4629 -1.3872  1.5442
 9132TIP3   OH227359   5.393   3.162   5.663  0.1752  0.1940  0.0113
 9132TIP3    H127360   5.347   3.222   5.721 -0.4148  0.6014 -0.8698
 9132TIP3    H227361   5.372   3.192   5.575  1.3816 -0.1750 -0.4249
 9133TIP3   OH227362   6.992   0.470   3.771 -0.1983  0.4284 -0.7531
 9133TIP3    H127363   7.076   0.429   3.789 -1.1003 -0.8038  0.9094
 9133TIP3    H227364   7.002   0.560   3.803 -0.3405 -0.4873  2.1740
 9134TIP3   OH227365   7.085   2.530   3.039 -0.1362  0.0923  0.8000
 9134TIP3    H127366   7.040   2.446   3.027 -1.6467  1.0894 -0.9593
 9134TIP3    H227367   7.040   2.572   3.112 -1.2031  0.4930 -0.0631
 9135TIP3   OH227368   3.175   4.091   4.196  0.2866 -1.1111  0.1182
 9135TIP3    H127369   3.084   4.065   4.192  0.3738 -1.4937  0.5295
 9135TIP3    H227370   3.177   4.161   4.262 -0.2784  1.4211 -2.3820
 9136TIP3   OH227371   2.751   5.147   3.449  0.4221 -0.8468  0.0151
 9136TIP3    H127372   2.838   5.132   3.485 -0.0143 -0.4765  1.2746
 9136TIP3    H227373   2.703   5.067   3.469 -0.3216  0.0074  1.8642
 9137TIP3   OH227374   4.638   6.167   4.537 -0.4969  0.5882 -0.4924
 9137TIP3    H127375   4.726   6.204   4.547 -0.5023  0.4854 -0.0402
 9137TIP3    H227376   4.580   6.235   4.570 -0.5202  0.2688  0.1420
 9138TIP3   OH227377   0.482   0.590   0.715  0.0462 -0.0675 -0.0015
 9138TIP3    H127378   0.491   0.630   0.802  0.2154 -1.3616  0.6053
 9138TIP3    H227379   0.421   0.647   0.668 -2.2771 -0.7832  1.9183
 9139TIP3   OH227380   4.534   6.006   3.693  0.0620  0.1760  0.5147
 9139TIP3    H127381   4.629   6.015   3.685  0.2735 -1.3662  0.9214
 9139TIP3    H227382   4.509   6.068   3.761  0.6181  1.3349 -0.3066
 9140TIP3   OH227383   2.721   2.394   3.862  0.2292 -0.6478 -0.1784
 9140TIP3    H127384   2.666   2.472   3.866 -0.0940 -0.9257  1.1292
 9140TIP3    H227385   2.760   2.387   3.949 -0.4102 -2.4239 -0.0052
 9141TIP3   OH227386   1.288   5.349   4.474 -0.0814  0.7732 -0.0855
 9141TIP3    H127387   1.212   5.405   4.460 -0.2187  0.2872 -1.4033
 9141TIP3    H227388   1.362   5.402   4.447 -0.1633  0.5276 -0.8229
 9142TIP3   OH227389   2.554   1.578   3.416 -0.0825  0.4677  0.2295
 9142TIP3    H127390   2.640   1.600   3.450  0.1317  0.7256 -0.4676
 9142TIP3    H227391   2.570   1.551   3.326 -0.2472 -3.0665  1.1177
 9143TIP3   OH227392   5.374   0.790   1.010  0.0263  0.1556 -1.0556
 9143TIP3    H127393   5.425   0.712   1.032  2.8908  1.8691 -1.1446
 9143TIP3    H227394   5.319   0.805   1.087  1.2778 -0.5502  0.0134
 9144TIP3   OH227395   5.340   3.666   1.796  0.0272 -0.1934  0.0486
 9144TIP3    H127396   5.431   3.678   1.822  0.2436  1.2308 -1.2516
 9144TIP3    H227397   5.311   3.754   1.770 -1.0243 -1.0150 -1.6883
 9145TIP3   OH227398   4.836   3.830   0.103  0.5757 -0.2803 -0.2466
 9145TIP3    H127399   4.769   3.898   0.094 -0.1964 -0.4109  3.1804
 9145TIP3    H227400   4.798   3.752   0.063 -0.1864  0.3101 -0.6895
 9146TIP3   OH227401   4.028   1.193   0.344  0.3984  0.0008  0.3291
 9146TIP3    H127402   4.084   1.150   0.279  0.4736 -1.1817  1.1475
 9146TIP3    H227403   4.021   1.129   0.416 -0.5219  0.8616  1.0302
 9147TIP3   OH227404   2.307   1.586   4.405 -0.3436 -0.4291  0.0586
 9147TIP3    H127405   2.326   1.651   4.337 -2.8347 -0.4143 -0.7035
 9147TIP3    H227406   2.299   1.504   4.357  0.0058 -0.8215  0.6582
 9148TIP3   OH227407   5.585   1.982   3.742 -0.4912  0.0332 -0.1735
 9148TIP3    H127408   5.492   2.001   3.724 -0.1073  1.3714 -0.8499
 9148TIP3    H227409   5.592   1.888   3.730 -1.5152  0.0776 -1.3350
 9149TIP3   OH227410   3.179   3.772   5.728 -0.1113 -0.0990  0.0238
 9149TIP3    H127411   3.171   3.759   5.823 -0.0879 -1.0753 -0.1001
 9149TIP3    H227412   3.186   3.867   5.718  0.7178 -0.0176  1.0682
 9150TIP3   OH227413   1.307   6.268   2.967  0.5244 -0.4238  0.1199
 9150TIP3    H127414   1.342   6.349   3.004 -1.2331  1.2079 -1.5724
 9150TIP3    H227415   1.274   6.220   3.043  0.9327  0.7816  1.0969
 9151TIP3   OH227416   4.348   1.234   1.680  0.0087  0.2797  0.2867
 9151TIP3    H127417   4.408   1.163   1.705  1.3960 -0.1141 -3.4057
 9151TIP3    H227418   4.269   1.188   1.652 -0.5097  0.5082  1.3413
 9152TIP3   OH227419   4.820   2.202   4.432 -0.0270  0.4781 -0.1255
 9152TIP3    H127420   4.841   2.234   4.519 -0.6303 -0.4495  0.3697
 9152TIP3    H227421   4.904   2.205   4.385  0.9416 -1.5868  1.3149
 9153TIP3   OH227422   1.342   2.428   0.565 -0.3956  0.1258  0.1016
 9153TIP3    H127423   1.247   2.433   0.554 -0.5121 -0.5161  0.7124
 9153TIP3    H227424   1.367   2.346   0.524 -0.1049  0.2901 -0.0542
 9154TIP3   OH227425   0.949   0.215   5.421  0.3387 -0.0574 -0.0751
 9154TIP3    H127426   0.856   0.196   5.413  0.4736  0.0229 -3.2874
 9154TIP3    H227427   0.987   0.136   5.458 -0.9815  0.0240  1.5853
 9155TIP3   OH227428   2.872   0.369   5.601  0.2676  0.0750 -0.4686
 9155TIP3    H127429   2.801   0.306   5.590  0.3121 -0.3748  1.4683
 9155TIP3    H227430   2.861   0.402   5.690  1.4784  1.2874 -0.7354
 9156TIP3   OH227431   3.932   0.647   1.643  0.5307  0.6600 -0.0499
 9156TIP3    H127432   3.898   0.574   1.693 -0.7856 -0.0005 -1.8316
 9156TIP3    H227433   4.007   0.611   1.595 -0.8144  0.1234 -1.8166
 9157TIP3   OH227434   0.167   4.008   5.061 -0.0943  0.7259 -0.3083
 9157TIP3    H127435   0.114   4.072   5.014  0.3213  0.1152 -1.6423
 9157TIP3    H227436   0.159   4.034   5.153 -0.7966  2.0395 -0.7106
 9158TIP3   OH227437   1.859   5.903   1.720  0.2853 -0.3226 -0.1852
 9158TIP3    H127438   1.883   5.905   1.812 -0.2316 -0.8658 -0.0342
 9158TIP3    H227439   1.870   5.993   1.690 -0.3499  0.0313  0.6198
 9159TIP3   OH227440   6.668   0.580   0.809  0.2538 -0.2932  0.7210
 9159TIP3    H127441   6.584   0.548   0.777  1.0393  0.2033 -2.0997
 9159TIP3    H227442   6.646   0.629   0.888 -2.1645  0.1737 -0.1563
 9160TIP3   OH227443   6.945   1.567   5.021 -0.0998 -0.1088 -0.0368
 9160TIP3    H127444   6.985   1.480   5.025  0.6414  0.1934 -0.4873
 9160TIP3    H227445   6.946   1.589   4.928  5.4593  2.8582  0.2696
 9161TIP3   OH227446   1.132   4.812   2.123  0.3685 -0.3060 -0.2679
 9161TIP3    H127447   1.066   4.761   2.169 -0.0339  0.6573  0.2363
 9161TIP3    H227448   1.210   4.806   2.178 -0.2051  1.1173  0.7588
 9162TIP3   OH227449   5.811   3.122   1.389  0.0020 -0.7659  0.0910
 9162TIP3    H127450   5.850   3.062   1.326  2.2305 -1.3331  1.8957
 9162TIP3    H227451   5.871   3.197   1.392 -0.8426 -0.0761  0.5113
 9163TIP3   OH227452   3.437   2.854   3.345 -0.1783  0.1564  0.2883
 9163TIP3    H127453   3.362   2.869   3.288 -0.2935  2.0811  0.8729
 9163TIP3    H227454   3.401   2.811   3.422 -0.5887  0.5353  0.3131
 9164TIP3   OH227455   1.849   1.940   0.915  0.4359 -0.0352 -0.2239
 9164TIP3    H127456   1.791   1.930   0.839 -1.6726  1.5760  1.0466
 9164TIP3    H227457   1.826   1.867   0.972 -0.2762  0.4957  0.1941
 9165TIP3   OH227458   4.963   4.622   3.629 -0.1979  0.1453 -0.4026
 9165TIP3    H127459   4.959   4.687   3.699 -1.5889 -1.1429  0.7562
 9165TIP3    H227460   5.020   4.553   3.664  1.3493  0.7012 -1.6640
 9166TIP3   OH227461   2.431   1.155   3.950 -0.5174 -0.6078 -0.1549
 9166TIP3    H127462   2.390   1.192   4.029 -1.8062  1.7530 -1.8241
 9166TIP3    H227463   2.361   1.106   3.907 -0.6364  0.4292 -1.1887
 9167TIP3   OH227464   2.492   0.482   1.856  0.0801 -0.2217 -0.0673
 9167TIP3    H127465   2.504   0.465   1.762 -1.1880 -0.5311 -0.1964
 9167TIP3    H227466   2.398   0.466   1.871  0.4613 -1.2531  1.4753
 9168TIP3   OH227467   0.370   3.259   0.062  0.0941 -0.8626  0.1402
 9168TIP3    H127468   0.451   3.292   0.023 -0.3803 -0.5484 -0.6079
 9168TIP3    H227469   0.398   3.187   0.119  0.9268 -0.5236  0.1697
 9169TIP3   OH227470   7.182   0.145   3.858 -0.1242 -0.5273  0.2820
 9169TIP3    H127471   7.215   0.230   3.888  0.9273 -1.2782  1.3539
 9169TIP3    H227472   7.150   0.162   3.769 -0.2141  1.0429  0.5771
 9170TIP3   OH227473   6.385   1.619   4.606 -0.9367  0.1010 -0.1852
 9170TIP3    H127474   6.377   1.711   4.579 -0.2308 -0.3057 -1.9259
 9170TIP3    H227475   6.451   1.621   4.676 -0.4948  0.8648 -0.6035
 9171TIP3   OH227476   1.760   5.572   3.099 -0.3961  0.2192  0.2298
 9171TIP3    H127477   1.770   5.476   3.099  3.0139  0.3707  3.5820
 9171TIP3    H227478   1.720   5.591   3.014 -0.5504 -4.0813 -0.9180
 9172TIP3   OH227479   1.547   0.450   3.576  0.5839  0.2096  0.7831
 9172TIP3    H127480   1.625   0.501   3.598  1.5326 -0.1442 -1.4697
 9172TIP3    H227481   1.581   0.365   3.548 -0.6134 -0.0322 -0.0293
 9173TIP3   OH227482   2.859   1.172   4.719 -0.0560  0.2081  0.4084
 9173TIP3    H127483   2.781   1.177   4.775 -2.3632 -2.8832 -2.1249
 9173TIP3    H227484   2.895   1.086   4.736  0.2927 -0.0511 -1.4079
 9174TIP3   OH227485   5.967   6.316   2.383  0.1264 -0.0488  0.1053
 9174TIP3    H127486   6.040   6.292   2.440 -0.6157 -0.1999  1.0193
 9174TIP3    H227487   5.962   6.412   2.390 -0.4397 -0.1311  0.9064
 9175TIP3   OH227488   4.805   1.193   5.294 -0.0854 -0.1544 -0.1089
 9175TIP3    H127489   4.887   1.171   5.250  0.3982  2.6160 -0.7478
 9175TIP3    H227490   4.737   1.154   5.239  0.6880  0.2680 -1.4040
 9176TIP3   OH227491   6.905   6.512   5.554 -0.3954 -0.5799 -0.1068
 9176TIP3    H127492   6.946   6.493   5.469  0.2750 -0.8315  0.2705
 9176TIP3    H227493   6.912   6.431   5.603 -0.7428 -0.4193  0.2135
 9177TIP3   OH227494   0.549   6.188   0.945 -0.4444 -0.0700  0.5677
 9177TIP3    H127495   0.586   6.124   1.006 -1.6746  0.3005  1.7661
 9177TIP3    H227496   0.586   6.164   0.860 -1.1003 -2.6148  0.8939
 9178TIP3   OH227497   3.213   0.911   5.826 -0.0928  0.0894 -0.0289
 9178TIP3    H127498   3.202   0.817   5.838  1.2564 -0.3839 -2.0934
 9178TIP3    H227499   3.286   0.935   5.884 -0.3478 -0.1544  0.3929
 9179TIP3   OH227500   0.634   3.035   0.627 -0.3396  0.4710  0.2142
 9179TIP3    H127501   0.647   2.999   0.539  1.1229 -0.1594  0.6576
 9179TIP3    H227502   0.649   3.129   0.617 -1.6131  0.6191 -0.4665
 9180TIP3   OH227503   4.267   2.667   3.826  0.0494 -0.0843  0.2751
 9180TIP3    H127504   4.347   2.630   3.864 -0.1329  0.4487  1.2053
 9180TIP3    H227505   4.230   2.721   3.896 -0.4565  0.6953 -0.5702
 9181TIP3   OH227506   5.051   2.662   3.210  0.2152  0.3365  0.0202
 9181TIP3    H127507   4.973   2.668   3.264  0.1090  0.2497 -0.1212
 9181TIP3    H227508   5.077   2.752   3.194  0.1256  0.3656  0.0412
 9182TIP3   OH227509   5.394   5.860   1.993  0.2559 -0.1540 -0.3560
 9182TIP3    H127510   5.414   5.807   2.070 -0.6462  1.1245  0.8151
 9182TIP3    H227511   5.301   5.880   2.003  0.1740  0.1677 -1.7066
 9183TIP3   OH227512   7.166   5.480   2.815  0.4836  0.3901  0.1417
 9183TIP3    H127513   7.196   5.423   2.886 -0.7142  0.2930  0.5948
 9183TIP3    H227514   7.172   5.425   2.737 -0.8043 -0.4585  0.5924
 9184TIP3   OH227515   6.212   4.402   5.305 -0.7440  0.1950 -0.3307
 9184TIP3    H127516   6.304   4.428   5.307 -0.8090  0.4949 -1.0334
 9184TIP3    H227517   6.197   4.363   5.391  0.1316 -0.1795 -0.3319
 9185TIP3   OH227518   4.704   5.754   0.453  0.2773 -0.0047  0.2766
 9185TIP3    H127519   4.681   5.693   0.523 -2.0114 -0.0062 -0.4302
 9185TIP3    H227520   4.702   5.841   0.495  1.4566 -0.1891  0.7715
 9186TIP3   OH227521   6.032   2.710   4.451  0.1481 -0.7552  0.0704
 9186TIP3    H127522   6.034   2.762   4.531 -1.6441 -2.3207  1.2196
 9186TIP3    H227523   6.019   2.774   4.381 -2.0873  0.3708  1.4202
 9187TIP3   OH227524   3.617   4.502   2.126  0.1184 -0.2501 -0.0072
 9187TIP3    H127525   3.572   4.448   2.061  1.0628 -0.0867 -0.8305
 9187TIP3    H227526   3.668   4.440   2.178  1.3350 -0.1824 -1.0601
 9188TIP3   OH227527   3.757   3.988   0.411 -0.0477  0.3894  0.3084
 9188TIP3    H127528   3.762   3.897   0.440 -0.2962  0.2679 -0.0233
 9188TIP3    H227529   3.699   4.030   0.474 -0.8292  0.0558 -0.1768
 9189TIP3   OH227530   5.928   4.586   3.052  0.3558  0.5218 -0.1090
 9189TIP3    H127531   5.888   4.526   3.115 -2.0767  1.0630 -1.0051
 9189TIP3    H227532   5.879   4.668   3.061  1.5506  1.3897 -1.0369
 9190TIP3   OH227533   5.907   1.713   3.771 -0.4258 -0.5204  0.4690
 9190TIP3    H127534   5.855   1.663   3.708  0.4856 -1.8149  0.7136
 9190TIP3    H227535   5.996   1.683   3.758 -0.0272  0.1836  1.4595
 9191TIP3   OH227536   4.647   6.001   4.937 -0.2275 -0.0779  0.1229
 9191TIP3    H127537   4.627   6.093   4.921 -2.7813 -0.5195  0.2870
 9191TIP3    H227538   4.653   5.962   4.849  0.5589  0.1661  0.0605
 9192TIP3   OH227539   1.605   6.691   0.666  0.3658  0.1357  0.4253
 9192TIP3    H127540   1.563   6.673   0.750  0.2731 -1.4747  0.0717
 9192TIP3    H227541   1.660   6.767   0.683 -0.4495  0.4819  1.6671
 9193TIP3   OH227542   1.959   5.655   1.369 -1.0992 -0.2640 -0.0433
 9193TIP3    H127543   1.986   5.604   1.292  1.7376  1.4130 -0.2985
 9193TIP3    H227544   1.992   5.743   1.352 -3.0306  0.9203  1.8123
 9194TIP3   OH227545   2.101   2.775   2.916 -0.0085 -0.3308 -0.3974
 9194TIP3    H127546   2.182   2.729   2.896 -0.9901 -1.8156 -1.1023
 9194TIP3    H227547   2.130   2.855   2.961  1.7352 -2.0105  1.7242
 9195TIP3   OH227548   6.015   5.290   1.846 -0.1040 -0.5028  0.2133
 9195TIP3    H127549   6.061   5.312   1.765  0.0368  0.9418  0.6633
 9195TIP3    H227550   6.049   5.351   1.910 -0.1105 -1.7176  1.4233
 9196TIP3   OH227551   6.376   4.684   5.361  0.6776  0.3889  0.4897
 9196TIP3    H127552   6.305   4.716   5.416 -0.3609  0.2551 -0.7355
 9196TIP3    H227553   6.451   4.678   5.420 -0.4127  0.1605  1.9101
 9197TIP3   OH227554   3.988   5.028   2.391  0.1634 -0.2939 -0.1769
 9197TIP3    H127555   4.013   4.963   2.456  0.2771  0.2247  0.3075
 9197TIP3    H227556   3.924   5.084   2.436  2.0778  1.5884  0.3438
 9198TIP3   OH227557   3.862   6.058   3.621  0.0895 -0.3375  0.2054
 9198TIP3    H127558   3.907   5.979   3.589  0.2090 -0.0450 -0.3623
 9198TIP3    H227559   3.795   6.025   3.681 -0.0801 -0.9029 -0.2827
 9199TIP3   OH227560   1.402   3.959   3.643 -0.0225 -0.2260 -0.2946
 9199TIP3    H127561   1.307   3.960   3.635 -0.3685  1.8881  2.6070
 9199TIP3    H227562   1.419   3.958   3.737  2.7677  1.9411 -0.6324
 9200TIP3   OH227563   4.282   4.731   0.508 -0.1639  0.4007  0.1676
 9200TIP3    H127564   4.188   4.724   0.492 -0.5046  0.8071  1.7996
 9200TIP3    H227565   4.313   4.798   0.447 -1.5374  2.5449  1.6810
 9201TIP3   OH227566   4.961   5.995   4.221 -0.4228 -0.0519 -0.3028
 9201TIP3    H127567   4.875   5.994   4.262 -0.8597 -2.6197 -1.1119
 9201TIP3    H227568   4.944   6.013   4.129  0.2092  2.0319 -0.0661
 9202TIP3   OH227569   3.744   6.473   1.831  0.3833 -0.0802 -0.3495
 9202TIP3    H127570   3.693   6.512   1.902  0.9433  1.4902 -0.7487
 9202TIP3    H227571   3.832   6.463   1.867  0.8093  1.2456 -0.9504
 9203TIP3   OH227572   4.221   0.606   4.121  0.1424 -0.1760  0.5429
 9203TIP3    H127573   4.142   0.634   4.073  1.0124 -1.4304 -1.7930
 9203TIP3    H227574   4.195   0.524   4.163  0.4999 -1.3201 -1.3494
 9204TIP3   OH227575   5.508   4.467   4.624 -0.1037  0.7232 -0.3746
 9204TIP3    H127576   5.429   4.418   4.646  0.6248 -0.8995 -1.2207
 9204TIP3    H227577   5.570   4.401   4.594  1.4050  2.0200 -0.2562
 9205TIP3   OH227578   0.470   3.503   2.996 -0.2529  0.0547 -0.5390
 9205TIP3    H127579   0.475   3.598   3.009 -0.4911 -0.2018  1.9048
 9205TIP3    H227580   0.554   3.470   3.029 -0.5254 -0.6732 -0.5524
 9206TIP3   OH227581   5.234   1.420   4.640 -0.0504  0.7287 -0.2735
 9206TIP3    H127582   5.328   1.435   4.636  0.2623 -1.2040 -1.0223
 9206TIP3    H227583   5.216   1.360   4.567 -1.5547 -0.3832  0.9596
 9207TIP3   OH227584   4.894   4.297   4.408  0.0470 -0.2997  0.2284
 9207TIP3    H127585   4.835   4.310   4.482 -0.6465 -0.1597 -0.3378
 9207TIP3    H227586   4.837   4.271   4.336  0.5688  0.5993 -0.5361
 9208TIP3   OH227587   5.488   1.617   3.458 -0.1057 -0.0465  0.2405
 9208TIP3    H127588   5.496   1.655   3.370  0.9436  0.2695  0.4616
 9208TIP3    H227589   5.394   1.605   3.470 -0.2239 -0.9909 -1.3119
 9209TIP3   OH227590   1.311   5.389   1.596 -0.7420  0.4740 -0.1102
 9209TIP3    H127591   1.308   5.383   1.500 -1.5342 -0.0358 -0.0676
 9209TIP3    H227592   1.222   5.365   1.624 -0.5979  0.8891  0.7401
 9210TIP3   OH227593   5.273   4.570   5.452 -0.0250 -0.0836  0.1426
 9210TIP3    H127594   5.188   4.593   5.415 -0.6157 -2.5348 -0.1984
 9210TIP3    H227595   5.279   4.623   5.531 -2.8904 -1.2743  1.3286
 9211TIP3   OH227596   2.941   2.169   0.255  0.0842 -0.1587 -0.0880
 9211TIP3    H127597   2.997   2.203   0.325  0.7521 -1.3286 -0.0255
 9211TIP3    H227598   2.970   2.079   0.243  0.0519  0.0423 -1.9541
 9212TIP3   OH227599   6.606   3.197   0.221 -0.4947 -0.4561 -0.1968
 9212TIP3    H127600   6.637   3.172   0.308  0.1147 -0.7977 -0.5044
 9212TIP3    H227601   6.619   3.291   0.217  0.9469 -0.6401 -0.4744
 9213TIP3   OH227602   7.029   0.524   1.274  0.4082  0.2055  0.4408
 9213TIP3    H127603   6.959   0.586   1.259 -0.7491 -0.8781  1.1183
 9213TIP3    H227604   7.056   0.496   1.187 -1.6484 -1.0927  0.1510
 9214TIP3   OH227605   1.332   4.643   0.372  0.0717  0.0651  0.4130
 9214TIP3    H127606   1.307   4.553   0.354 -1.9711  0.6986 -0.1959
 9214TIP3    H227607   1.302   4.692   0.296  0.1030  1.4316  1.2470
 9215TIP3   OH227608   6.041   5.714   0.168  0.2220 -0.2888 -0.4082
 9215TIP3    H127609   6.081   5.765   0.238  0.6169 -0.9013 -0.1835
 9215TIP3    H227610   5.954   5.693   0.201  0.5122 -0.8225  0.0254
 9216TIP3   OH227611   2.218   6.073   4.102  0.7414  0.4862  0.0513
 9216TIP3    H127612   2.304   6.068   4.059  0.4085 -1.3891 -0.4821
 9216TIP3    H227613   2.182   5.985   4.094  0.6820 -0.0934  4.2664
 9217TIP3   OH227614   0.389   1.766   5.526  0.4028  0.5365  0.0426
 9217TIP3    H127615   0.329   1.828   5.569 -1.7453 -2.3806  1.6172
 9217TIP3    H227616   0.433   1.722   5.598  1.2093 -0.3876 -0.9882
 9218TIP3   OH227617   6.187   1.129   3.800  0.5008 -0.5564  0.3266
 9218TIP3    H127618   6.229   1.105   3.717 -1.2597 -0.4050 -0.6625
 9218TIP3    H227619   6.235   1.206   3.830  1.3335 -0.7718 -0.4084
 9219TIP3   OH227620   5.738   6.221   2.318  0.0485  0.3389  0.8870
 9219TIP3    H127621   5.831   6.222   2.340 -0.0833  1.3738  1.4270
 9219TIP3    H227622   5.706   6.307   2.345 -1.3100 -0.4207  1.7960
 9220TIP3   OH227623   4.948   1.171   3.925  0.0631 -0.6495 -0.1181
 9220TIP3    H127624   4.982   1.241   3.870  0.8336 -1.9701 -1.3874
 9220TIP3    H227625   4.957   1.205   4.014  2.9420 -0.1082 -0.5014
 9221TIP3   OH227626   0.231   6.074   4.532  0.0273  0.3777  0.1127
 9221TIP3    H127627   0.186   6.156   4.553 -2.3080 -0.8372  0.1712
 9221TIP3    H227628   0.226   6.069   4.436 -0.9024 -0.2397  0.1846
 9222TIP3   OH227629   0.977   1.558   5.225  0.0473 -0.3439 -0.4126
 9222TIP3    H127630   0.942   1.636   5.183 -1.3298  1.2034  3.2199
 9222TIP3    H227631   0.908   1.492   5.214  0.0940 -0.2716 -1.2391
 9223TIP3   OH227632   3.367   5.151   3.041 -0.4666 -0.4190 -0.0597
 9223TIP3    H127633   3.345   5.139   3.134 -0.3841  2.3116  0.4061
 9223TIP3    H227634   3.341   5.242   3.023  1.2199 -0.3162 -2.2102
 9224TIP3   OH227635   5.807   1.503   4.102  0.1455 -0.0020 -1.0403
 9224TIP3    H127636   5.889   1.489   4.056 -0.1109 -0.8057 -1.2818
 9224TIP3    H227637   5.784   1.594   4.084  1.8209  0.7797  0.4472
 9225TIP3   OH227638   2.045   1.713   0.186 -0.3255  0.2754  0.5216
 9225TIP3    H127639   2.004   1.660   0.118 -0.8550  0.3261  0.8050
 9225TIP3    H227640   1.997   1.795   0.185 -0.8146  0.0104  1.4611
 9226TIP3   OH227641   1.425   0.614   0.696  0.2373 -0.4282 -0.4149
 9226TIP3    H127642   1.496   0.595   0.756 -0.9960 -3.6568  0.2372
 9226TIP3    H227643   1.368   0.675   0.743  1.6879  0.9476 -0.3463
 9227TIP3   OH227644   6.676   0.793   3.967  0.2791 -0.1961 -0.0256
 9227TIP3    H127645   6.615   0.721   3.952 -0.1468  0.2862 -0.7000
 9227TIP3    H227646   6.622   0.872   3.961  0.8565  0.2103 -0.0011
 9228TIP3   OH227647   6.952   1.000   2.696  0.1225 -0.7361 -0.2289
 9228TIP3    H127648   7.029   0.942   2.698  0.4443 -0.3120  1.1814
 9228TIP3    H227649   6.884   0.950   2.742 -0.2131 -0.7860 -0.7718
 9229TIP3   OH227650   1.851   0.594   2.003  0.1394  0.2827  0.1113
 9229TIP3    H127651   1.885   0.673   1.962  0.6827  0.2617  0.5061
 9229TIP3    H227652   1.907   0.581   2.080 -0.9910  0.4485  0.9920
 9230TIP3   OH227653   6.903   5.807   3.494  0.4445 -0.0666 -0.6466
 9230TIP3    H127654   6.933   5.875   3.554 -0.9915  1.2659 -1.3701
 9230TIP3    H227655   6.954   5.729   3.518  1.0561  0.8507  1.1913
 9231TIP3   OH227656   5.108   4.284   5.521  0.2642  0.1088 -0.5279
 9231TIP3    H127657   5.058   4.307   5.443  1.5294 -0.3221 -1.4995
 9231TIP3    H227658   5.199   4.304   5.498  0.7364 -0.6405  0.5959
 9232TIP3   OH227659   4.943   0.800   0.897 -0.1950 -0.1472  0.3793
 9232TIP3    H127660   4.939   0.776   0.805 -0.6024 -0.3683  0.4552
 9232TIP3    H227661   5.003   0.736   0.936 -0.7312 -0.6111  0.4451
 9233TIP3   OH227662   2.490   4.141   0.462  0.4504 -0.0127 -0.0017
 9233TIP3    H127663   2.582   4.117   0.473  0.6773 -0.6993 -2.6097
 9233TIP3    H227664   2.450   4.062   0.426 -0.9900  0.5245  0.3733
 9234TIP3   OH227665   6.405   5.432   3.807 -0.4785 -0.0260  0.1544
 9234TIP3    H127666   6.327   5.413   3.754 -0.7989  0.1122  0.5713
 9234TIP3    H227667   6.390   5.520   3.841 -0.0887  0.0417  0.1536
 9235TIP3   OH227668   3.638   6.671   0.797 -0.2447  0.2002 -0.1272
 9235TIP3    H127669   3.683   6.643   0.876  1.4061  0.2325 -1.0036
 9235TIP3    H227670   3.545   6.669   0.819  0.1417 -0.6326  1.5170
 9236TIP3   OH227671   6.152   5.564   4.641  0.0472 -0.1914 -0.4437
 9236TIP3    H127672   6.210   5.640   4.628  1.5950 -1.2900 -0.2504
 9236TIP3    H227673   6.162   5.542   4.734 -0.1953 -0.7772 -0.5531
 9237TIP3   OH227674   4.706   4.813   1.964  0.2290 -0.0134 -0.0046
 9237TIP3    H127675   4.713   4.779   2.054  1.1793 -1.0230 -0.4351
 9237TIP3    H227676   4.627   4.772   1.929 -1.1958  1.7769  0.9016
 9238TIP3   OH227677   5.278   4.049   3.216 -0.3474 -0.0945 -0.0197
 9238TIP3    H127678   5.252   4.111   3.147  1.6601 -0.0695 -0.8245
 9238TIP3    H227679   5.240   3.966   3.188  0.1491 -0.0115 -1.0218
 9239TIP3   OH227680   6.228   6.724   1.696  0.1320 -0.1456 -0.0199
 9239TIP3    H127681   6.285   6.685   1.762 -1.3490 -0.3943  1.1741
 9239TIP3    H227682   6.170   6.653   1.669 -0.5943  0.4646 -0.0959
 9240TIP3   OH227683   2.236   0.295   3.567  0.4804 -0.8126  0.3188
 9240TIP3    H127684   2.222   0.240   3.490 -0.1859  0.8898 -0.8417
 9240TIP3    H227685   2.151   0.297   3.611  0.4260 -0.5241  0.2068
 9241TIP3   OH227686   2.395   3.676   3.936 -0.1182 -0.1723 -0.1364
 9241TIP3    H127687   2.372   3.593   3.894 -0.6960 -1.2263  2.1351
 9241TIP3    H227688   2.320   3.733   3.919 -0.5895 -0.7602 -0.0624
 9242TIP3   OH227689   5.959   5.590   2.350 -0.3002  0.4350 -0.2133
 9242TIP3    H127690   6.052   5.569   2.357 -0.4172  0.1323  0.4801
 9242TIP3    H227691   5.957   5.671   2.298  0.2168 -0.6360 -1.9978
 9243TIP3   OH227692   5.828   5.763   1.391 -0.2982  0.5693  0.0386
 9243TIP3    H127693   5.892   5.729   1.454 -0.8983 -0.3984  0.1415
 9243TIP3    H227694   5.821   5.856   1.413  0.2579  0.4546  0.7444
 9244TIP3   OH227695   6.191   1.537   3.771  0.3125 -0.3424 -0.5093
 9244TIP3    H127696   6.274   1.495   3.750 -0.5825 -1.7284 -1.4913
 9244TIP3    H227697   6.154   1.559   3.685 -1.2587 -1.6793 -0.2230
 9245TIP3   OH227698   1.813   6.744   1.171  0.1547 -0.8174  0.4211
 9245TIP3    H127699   1.889   6.771   1.223  1.0320 -1.9528 -0.2094
 9245TIP3    H227700   1.851   6.699   1.095 -1.1103  0.0867 -0.8082
 9246TIP3   OH227701   1.320   3.851   4.164 -0.1717 -0.3292  0.0657
 9246TIP3    H127702   1.243   3.815   4.207 -0.7700 -0.5217 -1.1133
 9246TIP3    H227703   1.391   3.791   4.187 -0.9621 -1.7829 -1.1134
 9247TIP3   OH227704   7.185   2.418   4.819  0.4679  0.5678  0.5722
 9247TIP3    H127705   7.156   2.436   4.908 -2.1718 -0.2075 -0.0481
 9247TIP3    H227706   7.137   2.339   4.794  0.5927  1.1626 -1.7851
 9248TIP3   OH227707   0.418   2.296   5.357 -0.1696 -0.1150  0.0551
 9248TIP3    H127708   0.475   2.319   5.283  0.6585  1.2198  1.0594
 9248TIP3    H227709   0.469   2.234   5.408 -0.0445  0.2456  0.3760
 9249TIP3   OH227710   5.586   5.789   1.557  0.2739  0.0808 -0.0765
 9249TIP3    H127711   5.556   5.706   1.522  0.1341 -0.0346  0.3114
 9249TIP3    H227712   5.530   5.805   1.633  1.1128 -0.0841  0.5936
 9250TIP3   OH227713   1.194   0.155   3.101 -0.1995 -0.1692 -0.1670
 9250TIP3    H127714   1.194   0.059   3.100 -2.2560 -0.2988  1.8796
 9250TIP3    H227715   1.141   0.177   3.177  0.1761  2.6223 -0.6289
 9251TIP3   OH227716   5.767   1.758   1.558  0.3506  0.0899  0.5490
 9251TIP3    H127717   5.682   1.736   1.596  0.3783  2.2607  2.0729
 9251TIP3    H227718   5.823   1.777   1.634  1.6062  0.6824 -0.4769
 9252TIP3   OH227719   5.801   0.038   4.500  0.2851  0.0469 -0.8145
 9252TIP3    H127720   5.779  -0.052   4.480  0.9047 -0.1501 -0.6413
 9252TIP3    H227721   5.743   0.091   4.445  1.3254 -0.4611 -2.4772
 9253TIP3   OH227722   1.525   3.805   1.406 -0.2144 -0.1701  0.6197
 9253TIP3    H127723   1.487   3.893   1.413 -1.7250 -0.7364 -0.0151
 9253TIP3    H227724   1.546   3.795   1.313  2.0460  0.3119  1.0297
 9254TIP3   OH227725   5.062   4.402   4.760  0.3034  0.6372 -0.5439
 9254TIP3    H127726   5.102   4.420   4.675  0.6858  3.1265  0.1036
 9254TIP3    H227727   5.071   4.483   4.810 -1.6335 -0.1151  1.2167
 9255TIP3   OH227728   2.487   3.625   2.584  0.7377 -0.1888  0.4471
 9255TIP3    H127729   2.471   3.708   2.629  0.2355 -0.4597  0.7795
 9255TIP3    H227730   2.403   3.603   2.544  0.9288 -0.4273  0.1762
 9256TIP3   OH227731   6.634   2.582   4.514 -0.4670 -0.4488 -0.0253
 9256TIP3    H127732   6.680   2.511   4.470  1.0598 -0.3826  1.3633
 9256TIP3    H227733   6.593   2.632   4.444 -1.8030 -2.7942 -1.0357
 9257TIP3   OH227734   4.087   1.395   3.506  0.4727  0.0036  0.0164
 9257TIP3    H127735   4.026   1.416   3.435  2.2551 -1.3197 -2.0210
 9257TIP3    H227736   4.118   1.481   3.536  1.0607  0.5909 -2.1120
 9258TIP3   OH227737   3.785   5.256   1.054 -0.3734  0.0171 -0.2221
 9258TIP3    H127738   3.762   5.289   1.141 -0.0662  1.3665 -0.6275
 9258TIP3    H227739   3.755   5.165   1.054 -0.8466  0.1522  1.1068
 9259TIP3   OH227740   1.584   3.114   4.523  0.1144 -0.0576 -0.2228
 9259TIP3    H127741   1.617   3.060   4.595 -0.4338 -0.0970  0.0052
 9259TIP3    H227742   1.571   3.052   4.452  1.0876  0.0545 -0.5097
 9260TIP3   OH227743   5.480   4.392   1.417 -0.0075  0.1082  1.1581
 9260TIP3    H127744   5.456   4.351   1.333 -0.1281  0.2340  1.1300
 9260TIP3    H227745   5.570   4.422   1.404  0.1188 -0.2352  1.2126
 9261TIP3   OH227746   2.446   5.841   3.720  0.2326  0.0590 -0.4828
 9261TIP3    H127747   2.369   5.897   3.708 -0.3412 -0.3301  1.0797
 9261TIP3    H227748   2.518   5.890   3.681 -0.3087  1.7820  0.5643
 9262TIP3   OH227749   4.215   3.601   1.655 -0.2293 -0.1471  0.5366
 9262TIP3    H127750   4.147   3.594   1.722 -0.2698 -0.2321  0.4879
 9262TIP3    H227751   4.287   3.647   1.697 -0.3155 -0.0609  0.5903
 9263TIP3   OH227752   4.899   2.472   4.625  0.1310  0.1152  0.3427
 9263TIP3    H127753   4.963   2.403   4.640 -0.4703 -0.7603 -0.9034
 9263TIP3    H227754   4.951   2.548   4.598  0.6415 -0.7745 -1.3218
 9264TIP3   OH227755   7.166   0.639   3.973  0.1070 -0.4102  0.6469
 9264TIP3    H127756   7.233   0.644   4.042  0.9599  0.3386 -0.2146
 9264TIP3    H227757   7.096   0.698   4.003  0.7519  0.4019  0.5983
 9265TIP3   OH227758   3.186   4.441   5.197 -0.2118  0.2153 -0.3901
 9265TIP3    H127759   3.205   4.410   5.108  0.2416 -1.0835  0.1470
 9265TIP3    H227760   3.253   4.401   5.252 -0.7581  0.6439  0.6177
 9266TIP3   OH227761   0.617   0.659   4.693 -0.5437  0.1858 -0.3132
 9266TIP3    H127762   0.661   0.716   4.629 -1.0427 -0.2047 -1.0221
 9266TIP3    H227763   0.668   0.578   4.693 -1.1968 -0.2398 -1.0817
 9267TIP3   OH227764   5.192   5.641   1.572 -0.2968 -0.5151  0.1381
 9267TIP3    H127765   5.254   5.591   1.520 -0.2540 -1.0894  0.7311
 9267TIP3    H227766   5.244   5.678   1.643 -0.4374 -0.0869  0.0261
 9268TIP3   OH227767   2.366   2.961   4.184 -0.1840 -0.6328 -0.3894
 9268TIP3    H127768   2.396   2.981   4.095 -0.1785 -0.3646 -0.3289
 9268TIP3    H227769   2.286   2.910   4.172 -0.9684  0.6114 -0.5524
 9269TIP3   OH227770   4.008   1.226   4.253 -0.1077 -0.0697  0.4693
 9269TIP3    H127771   3.956   1.157   4.295  0.7084 -0.2912  1.1402
 9269TIP3    H227772   4.092   1.185   4.234  0.7275  0.9739  1.7303
 9270TIP3   OH227773   1.392   4.189   2.952 -0.2526 -0.8996  0.0364
 9270TIP3    H127774   1.376   4.262   2.892  0.2594 -1.1545 -0.4162
 9270TIP3    H227775   1.312   4.182   3.003 -0.7057 -0.7041 -0.6377
 9271TIP3   OH227776   4.566   0.032   4.361 -0.2210  0.1133  0.7773
 9271TIP3    H127777   4.507   0.051   4.288  0.7760  0.1719 -0.0378
 9271TIP3    H227778   4.602  -0.055   4.341 -0.0307  0.0744  1.2665
 9272TIP3   OH227779   0.046   2.894   5.081  0.6438 -0.3465  0.0694
 9272TIP3    H127780   0.084   2.810   5.057  0.7881  0.0525 -1.1657
 9272TIP3    H227781   0.012   2.881   5.169 -0.7890 -2.1812 -0.6966
 9273TIP3   OH227782   1.437   4.416   3.604 -0.4262 -0.1779 -0.4852
 9273TIP3    H127783   1.498   4.348   3.632 -1.8584 -1.1856  0.3319
 9273TIP3    H227784   1.492   4.483   3.563  1.0102 -1.8991 -1.4788
 9274TIP3   OH227785   4.520   3.359   4.666  0.4078 -0.5077  0.1161
 9274TIP3    H127786   4.473   3.400   4.594 -0.1735 -1.0223  0.2024
 9274TIP3    H227787   4.598   3.414   4.677  0.6615 -0.6008 -1.0983
 9275TIP3   OH227788   6.195   4.431   1.206 -1.0204  0.3128  0.4604
 9275TIP3    H127789   6.105   4.451   1.228 -1.3263 -0.1517 -0.3223
 9275TIP3    H227790   6.205   4.460   1.115 -0.7945 -0.8655  0.0816
 9276TIP3   OH227791   3.320   5.472   2.975  0.5736 -0.1922 -0.1246
 9276TIP3    H127792   3.271   5.552   2.956  1.6159  1.0006  1.8849
 9276TIP3    H227793   3.378   5.461   2.900 -0.5201  0.1480 -1.0522
 9277TIP3   OH227794   3.205   3.973   2.025  0.4269 -0.3052 -0.3963
 9277TIP3    H127795   3.117   3.935   2.036 -0.0452  1.2227  1.9349
 9277TIP3    H227796   3.260   3.923   2.086  0.3651  0.9524  0.7335
 9278TIP3   OH227797   3.598   6.633   1.982 -0.3305  0.0070  0.5844
 9278TIP3    H127798   3.627   6.709   2.032 -0.2922 -0.7616  1.7781
 9278TIP3    H227799   3.528   6.595   2.036 -0.7301 -0.4807 -0.2654
 9279TIP3   OH227800   3.349   2.529   3.043  0.1432  0.0202  0.2128
 9279TIP3    H127801   3.394   2.613   3.038 -0.4500  0.3535  0.3121
 9279TIP3    H227802   3.256   2.552   3.039 -0.0245 -0.7740 -2.3196
 9280TIP3   OH227803   2.297   5.333   2.822  0.0078 -0.4304  0.5858
 9280TIP3    H127804   2.249   5.273   2.765  0.4273 -1.0612  0.8875
 9280TIP3    H227805   2.385   5.296   2.827  0.0795 -0.1714  1.3326
 9281TIP3   OH227806   6.032   2.521   3.545 -0.2813 -0.2729 -0.0247
 9281TIP3    H127807   6.086   2.573   3.486 -0.8075  0.1118 -0.1694
 9281TIP3    H227808   5.975   2.584   3.588 -1.7427 -0.8293 -1.0582
 9282TIP3   OH227809   5.507   4.933   5.062  0.0064 -0.1612 -0.3285
 9282TIP3    H127810   5.502   5.015   5.013 -1.7120 -0.4752 -0.7400
 9282TIP3    H227811   5.525   4.959   5.152 -0.2639  0.6398 -0.5034
 9283TIP3   OH227812   5.348   1.541   2.035 -0.3972  0.0928 -0.2814
 9283TIP3    H127813   5.317   1.460   1.993  1.8241 -0.2974 -1.3358
 9283TIP3    H227814   5.400   1.584   1.967 -1.0032  2.1145  0.4872
 9284TIP3   OH227815   5.763   3.380   5.478 -0.0464  0.0144  0.2471
 9284TIP3    H127816   5.743   3.291   5.507 -0.5859 -0.0194 -0.2118
 9284TIP3    H227817   5.692   3.433   5.514  0.5327  0.3392  0.9256
 9285TIP3   OH227818   7.107   4.840   3.241 -0.0720  0.4236  0.2507
 9285TIP3    H127819   7.071   4.908   3.298 -1.3858  0.1160 -0.1741
 9285TIP3    H227820   7.073   4.758   3.276  1.3596 -0.0164  0.6522
 9286TIP3   OH227821   3.101   0.102   4.875 -0.8275 -0.2415 -0.6072
 9286TIP3    H127822   3.136   0.018   4.846  0.4919  0.3125 -0.7230
 9286TIP3    H227823   3.020   0.080   4.921  0.7030 -1.8618  1.5247
 9287TIP3   OH227824   4.301   1.950   0.593 -0.4236  0.2200  0.0889
 9287TIP3    H127825   4.308   2.031   0.643 -2.3300  1.5089 -1.5703
 9287TIP3    H227826   4.390   1.934   0.561  0.3591  0.5876  1.9414
 9288TIP3   OH227827   3.505   5.251   4.458  0.2365  0.3278  0.1986
 9288TIP3    H127828   3.590   5.222   4.493  0.2929  2.7597  2.3771
 9288TIP3    H227829   3.444   5.239   4.531 -0.8622  0.5101 -0.6643
 9289TIP3   OH227830   2.837   6.372   4.361 -0.2950 -0.3004 -0.0545
 9289TIP3    H127831   2.887   6.443   4.401 -0.6954 -0.4602  0.7469
 9289TIP3    H227832   2.747   6.405   4.357 -0.2913 -0.3580 -0.6597
 9290TIP3   OH227833   4.401   4.451   4.190 -0.0432 -0.6432 -0.1762
 9290TIP3    H127834   4.400   4.519   4.259 -1.0754 -0.3163 -0.4910
 9290TIP3    H227835   4.356   4.377   4.230 -1.4183 -0.1590 -0.7518
 9291TIP3   OH227836   1.743   0.363   4.354 -0.2916 -0.6916 -0.1542
 9291TIP3    H127837   1.804   0.301   4.393 -0.3183 -1.4876 -1.3241
 9291TIP3    H227838   1.798   0.423   4.304 -0.4516 -1.6489 -1.5368
 9292TIP3   OH227839   0.741   1.191   1.745 -0.1004 -0.2592 -0.0140
 9292TIP3    H127840   0.718   1.254   1.813 -1.7380  1.9415 -2.4239
 9292TIP3    H227841   0.685   1.115   1.763 -0.8091  0.4458  0.8540
 9293TIP3   OH227842   4.227   2.600   0.866  0.4734 -0.1014  0.0909
 9293TIP3    H127843   4.197   2.524   0.816 -1.2182  1.4395 -1.3869
 9293TIP3    H227844   4.280   2.650   0.804 -0.0839  0.9059  0.3971
 9294TIP3   OH227845   3.662   0.864   5.197 -0.3617  0.2147  0.1979
 9294TIP3    H127846   3.682   0.847   5.105 -2.1201  0.2288 -0.2262
 9294TIP3    H227847   3.586   0.809   5.215  0.0661  0.0790  1.7043
 9295TIP3   OH227848   2.233   4.696   3.497  0.0765  0.9703  0.1414
 9295TIP3    H127849   2.282   4.667   3.574  0.5561  2.2361  0.3319
 9295TIP3    H227850   2.144   4.710   3.528 -0.4264 -1.1874 -0.1710
 9296TIP3   OH227851   0.616   5.338   1.704  0.0550 -0.9827 -0.3472
 9296TIP3    H127852   0.645   5.256   1.664  0.4321 -0.3642 -1.3914
 9296TIP3    H227853   0.648   5.406   1.644 -0.0001 -0.0611  0.6503
 9297TIP3   OH227854   5.351   2.105   3.268  0.3426 -0.1539 -0.0638
 9297TIP3    H127855   5.325   2.027   3.218  2.4194 -0.5167 -0.6518
 9297TIP3    H227856   5.382   2.070   3.352 -1.6203  0.3327  0.9261
 9298TIP3   OH227857   6.522   1.284   4.799 -0.5690  0.0423  0.3204
 9298TIP3    H127858   6.560   1.290   4.886 -0.4250 -0.5294  0.3026
 9298TIP3    H227859   6.460   1.212   4.805 -0.1165 -0.3961 -0.2077
 9299TIP3   OH227860   4.102   5.958   0.669 -0.6554 -0.3195  0.2563
 9299TIP3    H127861   4.121   5.945   0.762 -1.8318 -1.3133  0.3795
 9299TIP3    H227862   4.188   5.965   0.628 -0.1117 -0.5737  1.3206
 9300TIP3   OH227863   1.287   0.933   5.441  0.3081 -0.8175 -0.2467
 9300TIP3    H127864   1.257   1.024   5.442  0.9171 -0.4149 -4.0596
 9300TIP3    H227865   1.376   0.937   5.407  1.4082 -2.7279  2.0822
 9301TIP3   OH227866   0.728   6.597   0.185 -0.2156 -0.1117 -0.2141
 9301TIP3    H127867   0.695   6.515   0.221 -0.6948  0.3842  0.4927
 9301TIP3    H227868   0.675   6.612   0.107 -0.5195 -0.1744 -0.0179
 9302TIP3   OH227869   0.189   3.025   4.395 -0.1429 -0.2294  0.1041
 9302TIP3    H127870   0.179   3.075   4.476 -0.6383  1.7433 -1.1005
 9302TIP3    H227871   0.100   2.995   4.375 -0.2945  0.5400 -0.4337
 9303TIP3   OH227872   0.232   3.390   2.356  0.3785 -0.1104  0.4059
 9303TIP3    H127873   0.279   3.307   2.350 -0.7033 -0.8814  1.9630
 9303TIP3    H227874   0.273   3.437   2.429  0.3761  0.3234  0.1339
 9304TIP3   OH227875   5.901   5.968   3.756  0.1010 -0.1294 -0.4699
 9304TIP3    H127876   5.991   5.963   3.788 -0.4609 -0.6559  1.1426
 9304TIP3    H227877   5.884   5.882   3.718  0.3136  0.0095 -0.8804
 9305TIP3   OH227878   1.889   4.017   0.794 -0.3933  0.2639  0.1604
 9305TIP3    H127879   1.794   4.008   0.807 -0.1412 -0.1304  1.9432
 9305TIP3    H227880   1.928   3.960   0.860  1.1495 -2.9191 -3.1482
 9306TIP3   OH227881   1.845   0.592   5.582 -0.1106  0.0978  0.4614
 9306TIP3    H127882   1.764   0.643   5.578 -0.0631  0.1728  0.4577
 9306TIP3    H227883   1.913   0.656   5.601  0.0372  0.1264 -0.1331
 9307TIP3   OH227884   1.227   4.592   2.454 -0.4180  0.1680 -0.1685
 9307TIP3    H127885   1.212   4.667   2.396 -0.8437 -0.3448 -0.7373
 9307TIP3    H227886   1.272   4.629   2.530 -0.4343  0.9632 -0.5346
 9308TIP3   OH227887   5.618   1.359   2.786 -0.3283  0.5562  0.0574
 9308TIP3    H127888   5.692   1.301   2.772 -0.2965  0.3748  0.9716
 9308TIP3    H227889   5.554   1.333   2.719  0.3888  0.6688 -0.6835
 9309TIP3   OH227890   7.066   5.751   2.228 -0.2278  0.3515 -0.3921
 9309TIP3    H127891   7.160   5.741   2.210 -0.0911  0.4103  0.2641
 9309TIP3    H227892   7.036   5.815   2.164  0.0008 -0.3005 -1.1648
 9310TIP3   OH227893   4.496   3.215   4.214  0.5581 -0.7718  0.5632
 9310TIP3    H127894   4.453   3.178   4.291  0.1667 -1.6943 -0.0789
 9310TIP3    H227895   4.485   3.148   4.146  2.1426 -0.6044  0.1058
 9311TIP3   OH227896   6.132   6.703   3.369 -0.6149 -0.1287  0.0792
 9311TIP3    H127897   6.057   6.745   3.326 -1.1366  1.1938  2.1310
 9311TIP3    H227898   6.096   6.625   3.411 -0.0902 -1.4642 -1.7964
 9312TIP3   OH227899   4.026   3.767   2.244 -0.1665 -0.0191  0.2033
 9312TIP3    H127900   4.018   3.749   2.338 -1.9631  0.4760  0.1827
 9312TIP3    H227901   4.060   3.686   2.206 -0.0881 -0.4582  1.1902
 9313TIP3   OH227902   2.344   3.108   0.446 -0.0178 -0.4156 -0.0355
 9313TIP3    H127903   2.252   3.132   0.430 -0.0526  0.5138  1.4045
 9313TIP3    H227904   2.357   3.029   0.393 -1.4545 -0.2118 -0.7624
 9314TIP3   OH227905   5.050   6.594   5.533  0.5373 -0.4095  0.1774
 9314TIP3    H127906   4.996   6.672   5.543  2.5007  0.9872  0.4986
 9314TIP3    H227907   5.079   6.573   5.621 -0.4054 -1.8958  0.1788
 9315TIP3   OH227908   1.239   0.551   0.505  0.3395 -0.3515  0.1496
 9315TIP3    H127909   1.260   0.629   0.453 -2.8960  1.0392  0.7074
 9315TIP3    H227910   1.284   0.564   0.588  0.0088  0.8679  0.1578
 9316TIP3   OH227911   4.641   0.295   3.613 -0.5661 -0.1584 -0.8118
 9316TIP3    H127912   4.632   0.216   3.665 -1.9539  0.5286  0.0492
 9316TIP3    H227913   4.616   0.269   3.524  1.3629 -1.2203 -1.1038
 9317TIP3   OH227914   4.506   2.452   0.788  0.4046 -0.7520 -0.1808
 9317TIP3    H127915   4.503   2.370   0.838 -0.5339 -1.1907 -0.9280
 9317TIP3    H227916   4.513   2.424   0.697  0.9482  0.0251 -0.3880
 9318TIP3   OH227917   4.435   4.642   2.802  0.3834 -0.2294 -0.0918
 9318TIP3    H127918   4.512   4.598   2.838  1.3762  2.3483  1.2002
 9318TIP3    H227919   4.375   4.651   2.876  0.0694  0.2962 -0.4036
 9319TIP3   OH227920   0.699   1.763   0.562  0.2453  0.1121  0.1098
 9319TIP3    H127921   0.613   1.788   0.529  0.1348 -0.3005  0.0895
 9319TIP3    H227922   0.729   1.840   0.611 -0.9883 -0.4494  1.8394
 9320TIP3   OH227923   2.499   3.687   0.607  0.2326  0.7416 -0.3017
 9320TIP3    H127924   2.504   3.633   0.686  2.6970 -0.8160 -1.4095
 9320TIP3    H227925   2.423   3.743   0.622 -0.3542 -0.5880  2.4581
 9321TIP3   OH227926   6.715   2.042   0.096 -0.4758  0.3068 -0.2828
 9321TIP3    H127927   6.626   2.010   0.083 -0.4543  0.3921 -0.6332
 9321TIP3    H227928   6.707   2.138   0.092 -0.9400  0.5382  3.0462
 9322TIP3   OH227929   0.318   5.744   5.350 -0.0336  0.1427 -0.5577
 9322TIP3    H127930   0.243   5.797   5.322  0.2776  1.1896  0.5241
 9322TIP3    H227931   0.304   5.659   5.308 -0.8596  0.8830 -1.8531
 9323TIP3   OH227932   4.148   2.841   2.732  0.3640  0.0389 -0.1728
 9323TIP3    H127933   4.201   2.782   2.678  0.3469  0.6416 -0.8584
 9323TIP3    H227934   4.143   2.922   2.682  0.7570  0.7839  0.9719
 9324TIP3   OH227935   3.206   2.636   2.122  0.0460 -0.0944  0.4335
 9324TIP3    H127936   3.144   2.663   2.190 -0.9719 -1.8881  0.2553
 9324TIP3    H227937   3.210   2.711   2.062 -2.1975 -0.0441  0.2837
 9325TIP3   OH227938   0.722   4.501   0.100  0.2598 -0.5832 -0.4623
 9325TIP3    H127939   0.733   4.491   0.194  1.0062 -1.7495 -0.6565
 9325TIP3    H227940   0.666   4.428   0.073  2.5591 -2.1485 -1.3263
 9326TIP3   OH227941   2.428   6.319   4.176 -0.2006 -0.0318 -0.0955
 9326TIP3    H127942   2.396   6.237   4.214  0.5084 -0.1568  0.2361
 9326TIP3    H227943   2.348   6.365   4.148 -0.5621 -1.1736 -1.0058
 9327TIP3   OH227944   6.006   4.614   4.961  0.3724 -0.1126 -0.4833
 9327TIP3    H127945   5.972   4.580   5.043 -0.4491  0.8072 -0.4283
 9327TIP3    H227946   6.099   4.631   4.978  0.3937 -0.6898 -0.0061
 9328TIP3   OH227947   7.059   0.419   5.892  0.3467 -0.4334  0.0963
 9328TIP3    H127948   7.070   0.327   5.916 -1.9637 -0.9779 -0.7126
 9328TIP3    H227949   6.987   0.419   5.829  0.5307  1.9089 -0.1893
 9329TIP3   OH227950   1.963   3.667   1.720 -0.1200 -0.6284  0.0288
 9329TIP3    H127951   2.021   3.605   1.675 -0.5885 -1.5717  0.6894
 9329TIP3    H227952   1.887   3.675   1.662  0.3413  0.0576 -0.4972
 9330TIP3   OH227953   4.209   0.153   4.963  0.2567 -0.0274 -0.7709
 9330TIP3    H127954   4.120   0.120   4.959  0.4031 -0.8533  1.3603
 9330TIP3    H227955   4.251   0.121   4.884 -1.1863 -0.0252 -1.5647
 9331TIP3   OH227956   7.087   3.254   5.187 -0.1160  0.0987 -0.1450
 9331TIP3    H127957   7.008   3.308   5.189  0.3716  0.8649 -0.5683
 9331TIP3    H227958   7.155   3.311   5.223 -0.1935 -1.3641  2.5243
 9332TIP3   OH227959   3.375   0.434   3.775 -0.1974  0.9621 -0.1079
 9332TIP3    H127960   3.422   0.350   3.771 -0.1246  1.0396 -1.5883
 9332TIP3    H227961   3.375   0.465   3.684 -2.1590  1.5079  0.0402
 9333TIP3   OH227962   7.015   6.642   0.365 -0.1818  0.0029  0.5287
 9333TIP3    H127963   6.942   6.585   0.390 -3.1953  3.4605  0.5536
 9333TIP3    H227964   7.026   6.628   0.272 -0.9250 -0.5890  0.5208
 9334TIP3   OH227965   4.644   1.541   5.206  0.4704  0.0380 -0.0294
 9334TIP3    H127966   4.674   1.603   5.140  2.1735 -1.9502 -1.2258
 9334TIP3    H227967   4.710   1.547   5.275  0.2106  0.0921  0.2175
 9335TIP3   OH227968   0.266   1.470   2.925 -0.2657 -0.1807  0.1735
 9335TIP3    H127969   0.297   1.516   3.002 -1.8441 -0.6218  1.1239
 9335TIP3    H227970   0.287   1.528   2.852  1.8785 -0.0688  0.8125
 9336TIP3   OH227971   5.141   2.256   2.770 -0.1672  0.1976 -0.9089
 9336TIP3    H127972   5.172   2.166   2.758  0.9762  0.5669 -0.9147
 9336TIP3    H227973   5.170   2.279   2.859 -0.8622  0.4010 -0.7330
 9337TIP3   OH227974   4.027   0.641   5.278 -0.2061  0.3982  0.7701
 9337TIP3    H127975   4.112   0.597   5.282  0.4278  1.6607  1.6619
 9337TIP3    H227976   3.980   0.596   5.208  2.1692  1.3602 -1.5878
 9338TIP3   OH227977   1.867   5.512   0.201  0.3755 -0.2143 -0.1481
 9338TIP3    H127978   1.817   5.574   0.254 -0.3540  0.7889 -1.8959
 9338TIP3    H227979   1.956   5.547   0.202  0.4543 -0.4200  0.6932
 9339TIP3   OH227980   2.111   3.884   5.617  0.2750 -0.1124 -0.6049
 9339TIP3    H127981   2.106   3.832   5.538  0.9755 -0.7629 -0.2335
 9339TIP3    H227982   2.058   3.837   5.681  2.1948 -1.2913  0.2069
 9340TIP3   OH227983   4.450   3.675   3.196  0.2467 -0.3745 -0.3236
 9340TIP3    H127984   4.436   3.585   3.223 -1.5210 -0.0904 -0.1390
 9340TIP3    H227985   4.403   3.727   3.262  2.5983  0.8181  0.5318
 9341TIP3   OH227986   6.523   0.384   2.133 -0.6012  0.5224  0.3881
 9341TIP3    H127987   6.463   0.327   2.086  0.2013 -1.3908  1.5526
 9341TIP3    H227988   6.544   0.336   2.213  2.0389  1.3357  0.2840
 9342TIP3   OH227989   1.100   4.340   2.427  0.0012 -0.3882  0.3831
 9342TIP3    H127990   1.019   4.358   2.474  0.8606  1.5914  1.1873
 9342TIP3    H227991   1.154   4.418   2.439  1.4109 -0.9764 -1.4916
 9343TIP3   OH227992   2.281   5.074   0.533 -0.0351  0.4322 -0.0962
 9343TIP3    H127993   2.375   5.093   0.527  0.2018 -0.7638 -0.2846
 9343TIP3    H227994   2.244   5.113   0.454  0.0775  2.0918  0.6321
 9344TIP3   OH227995   0.344   1.243   3.850 -0.5592  0.2644  0.0135
 9344TIP3    H127996   0.438   1.243   3.868 -0.2435  1.9486 -1.4588
 9344TIP3    H227997   0.306   1.293   3.923 -0.3137 -0.1985  0.4708
 9345TIP3   OH227998   3.096   4.535   1.732 -0.2621  0.2047  0.0927
 9345TIP3    H127999   3.154   4.584   1.673 -0.6432  0.6356  0.0778
 9345TIP3    H228000   3.097   4.584   1.814 -0.4744  0.1200  0.1471
 9346TIP3   OH228001   0.091   4.922   2.579 -0.5068  0.0978 -0.1825
 9346TIP3    H128002   0.152   4.848   2.576 -0.0753  0.4908 -1.5060
 9346TIP3    H228003   0.004   4.881   2.578 -0.3528 -0.4309 -3.6165
 9347TIP3   OH228004   1.844   2.565   1.082  0.1805  0.2008 -0.8991
 9347TIP3    H128005   1.903   2.490   1.075  0.1633  0.0949 -0.0470
 9347TIP3    H228006   1.756   2.527   1.072  0.0084 -0.2875  1.6562
 9348TIP3   OH228007   3.647   3.582   2.743 -0.2712  0.3540  0.2681
 9348TIP3    H128008   3.647   3.490   2.714  0.1894  0.2079  0.7208
 9348TIP3    H228009   3.591   3.627   2.680  0.2425 -0.0731 -0.5097
 9349TIP3   OH228010   0.541   1.048   0.637  0.0305  0.2562  0.9886
 9349TIP3    H128011   0.511   1.109   0.570 -0.3403 -0.7808  0.1842
 9349TIP3    H228012   0.634   1.036   0.619 -0.1547 -0.3281  0.4038
 9350TIP3   OH228013   3.099   6.214   4.944  0.2550  0.1895 -0.1335
 9350TIP3    H128014   3.188   6.200   4.912 -0.0115 -1.2564 -0.2996
 9350TIP3    H228015   3.106   6.210   5.039  0.5865  1.6023 -0.0757
 9351TIP3   OH228016   3.586   0.320   1.083  0.1468  0.0464 -0.5418
 9351TIP3    H128017   3.601   0.252   1.017 -0.0973 -0.3207 -0.2228
 9351TIP3    H228018   3.638   0.292   1.158 -1.5139 -0.8864  0.3365
 9352TIP3   OH228019   0.588   0.727   1.868 -0.4129 -0.0837  0.1514
 9352TIP3    H128020   0.547   0.715   1.954  2.6707  1.6472  2.0323
 9352TIP3    H228021   0.640   0.648   1.856 -0.2880 -0.0109  0.2141
 9353TIP3   OH228022   6.258   6.092   2.835 -0.5904 -0.2261 -0.0717
 9353TIP3    H128023   6.271   6.186   2.824 -1.0988 -0.1757 -0.2813
 9353TIP3    H228024   6.247   6.080   2.929  1.4703 -0.3493  0.2016
 9354TIP3   OH228025   6.770   5.776   2.232 -0.8173 -0.3148  0.1726
 9354TIP3    H128026   6.733   5.744   2.314 -0.8484 -2.0568 -0.4851
 9354TIP3    H228027   6.858   5.739   2.230 -1.1453 -1.0708 -0.9963
 9355TIP3   OH228028   1.915   0.424   1.073 -0.0799 -0.1223 -0.3669
 9355TIP3    H128029   1.949   0.487   1.009  2.3293 -0.6575  0.2737
 9355TIP3    H228030   1.884   0.478   1.145  1.0618  0.4096 -0.2454
 9356TIP3   OH228031   1.580   6.654   0.938  0.0829 -1.0178 -0.3147
 9356TIP3    H128032   1.644   6.657   1.010 -1.3293  1.3002  0.9894
 9356TIP3    H228033   1.516   6.722   0.961 -0.9000 -0.7775 -3.3675
 9357TIP3   OH228034   5.398   2.502   0.361  0.1635  0.0777 -0.6447
 9357TIP3    H128035   5.459   2.432   0.338  0.4532 -0.1906  0.8441
 9357TIP3    H228036   5.406   2.511   0.456 -0.2667  1.7722 -0.7325
 9358TIP3   OH228037   1.132   2.345   2.800 -0.4167 -0.1660  0.0954
 9358TIP3    H128038   1.052   2.295   2.814 -0.4890  0.0492  0.4380
 9358TIP3    H228039   1.172   2.305   2.722 -0.0483 -1.3009  0.8414
 9359TIP3   OH228040   5.057   5.098   1.967  0.4389 -0.2173 -0.1687
 9359TIP3    H128041   4.969   5.104   1.929  0.5297  0.7672 -0.2439
 9359TIP3    H228042   5.041   5.087   2.061  0.2272  0.5548 -0.1072
 9360TIP3   OH228043   2.764   1.210   5.197 -0.0474 -0.5260  0.3643
 9360TIP3    H128044   2.678   1.252   5.200  0.2620  0.0612  1.2512
 9360TIP3    H228045   2.817   1.267   5.142  0.4818  0.5054  1.8739
 9361TIP3   OH228046   4.671   5.588   4.163  0.1427 -0.3654 -0.2151
 9361TIP3    H128047   4.758   5.601   4.200 -0.0352  2.1370 -0.5132
 9361TIP3    H228048   4.624   5.539   4.230  1.1691  0.1089  0.8953
 9362TIP3   OH228049   3.069   2.656   4.157  0.2748 -0.1644 -0.1053
 9362TIP3    H128050   3.034   2.656   4.246 -0.7900 -0.0474 -0.5025
 9362TIP3    H228051   3.015   2.592   4.110  0.8054 -0.2085 -0.6712
 9363TIP3   OH228052   5.771   6.683   3.439 -0.2935  0.0928  0.4270
 9363TIP3    H128053   5.851   6.636   3.463  0.0831  0.5452  0.0603
 9363TIP3    H228054   5.777   6.695   3.344  1.6667  4.4947  0.8878
 9364TIP3   OH228055   2.003   0.560   4.721 -0.3174 -0.4281 -0.4753
 9364TIP3    H128056   1.966   0.585   4.636  0.6755  2.6767 -0.1218
 9364TIP3    H228057   2.089   0.524   4.700  0.1749  0.8847 -0.7988
 9365TIP3   OH228058   7.077   1.786   5.163  0.4315  0.2072  0.2525
 9365TIP3    H128059   7.004   1.734   5.127  0.4693 -0.4522  1.0761
 9365TIP3    H228060   7.051   1.877   5.149  0.5715 -0.0085 -1.6503
 9366TIP3   OH228061   4.428   4.592   1.347  0.2854 -0.0457 -0.7262
 9366TIP3    H128062   4.458   4.621   1.433 -0.1192 -2.0017  0.1288
 9366TIP3    H228063   4.337   4.623   1.342 -0.8347 -2.6337  1.0391
 9367TIP3   OH228064   6.458   1.901   0.694  0.3831  0.0143 -0.1682
 9367TIP3    H128065   6.521   1.971   0.678  0.8777 -0.8257 -2.1595
 9367TIP3    H228066   6.385   1.920   0.635 -0.5779  0.1155  0.9922
 9368TIP3   OH228067   6.624   1.823   1.409  0.0919 -0.2038 -0.6363
 9368TIP3    H128068   6.706   1.868   1.430  1.0934 -1.7062 -1.1148
 9368TIP3    H228069   6.563   1.849   1.477  1.2426  0.2770  0.2331
 9369TIP3   OH228070   0.687   3.835   1.560 -0.6139 -0.5733 -0.6657
 9369TIP3    H128071   0.769   3.790   1.542  1.1840  1.9874  0.5961
 9369TIP3    H228072   0.668   3.883   1.480  1.1098  1.6148  0.1531
 9370TIP3   OH228073   3.690   1.398   1.618  0.4724  0.0459  0.5829
 9370TIP3    H128074   3.785   1.385   1.618  0.5608 -0.0689 -2.6366
 9370TIP3    H228075   3.654   1.309   1.608  0.3384  0.3410 -2.8850
 9371TIP3   OH228076   7.202   1.632   0.384  0.4332  0.1974  0.1364
 9371TIP3    H128077   7.206   1.536   0.388 -0.9865  0.1115  0.1512
 9371TIP3    H228078   7.114   1.653   0.416  0.2114  1.4131 -1.1912
 9372TIP3   OH228079   0.514   5.266   0.378 -0.0235 -0.0489 -0.2308
 9372TIP3    H128080   0.602   5.236   0.356 -0.0387 -1.3005  1.2590
 9372TIP3    H228081   0.485   5.206   0.447 -2.0984  0.2507 -0.7850
 9373TIP3   OH228082   3.286   0.169   5.095  0.3037 -0.1549  0.0611
 9373TIP3    H128083   3.237   0.130   5.023  0.8225  1.2776 -1.1306
 9373TIP3    H228084   3.224   0.228   5.138  0.2151 -0.4054  0.2744
 9374TIP3   OH228085   5.356   4.110   0.981 -0.2502  0.6475 -0.2960
 9374TIP3    H128086   5.271   4.137   0.947 -1.0682 -0.8714  0.4599
 9374TIP3    H228087   5.386   4.042   0.921 -0.4009 -0.0666  0.4239
 9375TIP3   OH228088   5.830   0.633   4.052  0.1498 -0.1653  0.4904
 9375TIP3    H128089   5.740   0.604   4.037 -0.0482  0.1416  1.0656
 9375TIP3    H228090   5.841   0.628   4.147  0.6596  0.0278  0.4416
 9376TIP3   OH228091   2.789   1.052   3.507 -0.6195 -0.5055  0.6452
 9376TIP3    H128092   2.784   1.029   3.415  3.4393  0.4457  0.0179
 9376TIP3    H228093   2.846   0.985   3.546 -3.5409 -1.8898  2.9879
 9377TIP3   OH228094   6.351   3.273   5.647 -0.4121 -0.4148  0.4100
 9377TIP3    H128095   6.290   3.200   5.637 -0.3493 -0.2301 -1.9234
 9377TIP3    H228096   6.294   3.351   5.649 -0.3478 -0.3581  0.0701
 9378TIP3   OH228097   3.893   0.763   0.455  0.1917  0.2582 -0.1949
 9378TIP3    H128098   3.803   0.793   0.437 -0.1495 -0.8364 -0.4123
 9378TIP3    H228099   3.889   0.727   0.544  0.3957  0.1484 -0.2300
 9379TIP3   OH228100   5.275   4.332   0.613 -0.3391 -0.2192  0.2340
 9379TIP3    H128101   5.218   4.277   0.560  0.5114  1.4983 -2.7179
 9379TIP3    H228102   5.359   4.332   0.566  0.2120  2.0821  1.0797
 9380TIP3   OH228103   3.811   0.440   1.778 -0.0036  0.0556 -0.1529
 9380TIP3    H128104   3.739   0.497   1.803  0.6143  1.8060 -2.0862
 9380TIP3    H228105   3.774   0.352   1.782 -1.7769  0.7832  0.4305
 9381TIP3   OH228106   5.477   1.524   5.362  0.1045  0.0542  0.0221
 9381TIP3    H128107   5.478   1.453   5.427 -0.5592 -0.7623 -0.8268
 9381TIP3    H228108   5.522   1.597   5.405 -1.5174  0.0106  1.9198
 9382TIP3   OH228109   2.247   1.386   1.850  0.7073 -0.0226  0.1178
 9382TIP3    H128110   2.252   1.414   1.942 -0.3120 -0.0028  0.1833
 9382TIP3    H228111   2.288   1.457   1.801  0.9385  0.1354  0.5380
 9383TIP3   OH228112   4.742   5.826   4.558  0.2170 -0.1476 -0.2396
 9383TIP3    H128113   4.735   5.897   4.494  0.5264 -0.2020 -0.3359
 9383TIP3    H228114   4.732   5.746   4.507 -1.7549 -0.1576  0.0898
 9384TIP3   OH228115   4.716   3.202   5.044  0.2401 -0.3389 -0.2437
 9384TIP3    H128116   4.701   3.222   5.136 -1.0060  1.9302 -0.8673
 9384TIP3    H228117   4.635   3.160   5.014  0.5145 -0.7724 -0.3909
 9385TIP3   OH228118   4.267   3.156   4.743 -0.1866 -0.2101 -0.1223
 9385TIP3    H128119   4.349   3.188   4.707 -0.1618  0.5792  0.5959
 9385TIP3    H228120   4.204   3.225   4.723 -0.4907 -0.4304  0.0601
 9386TIP3   OH228121   1.337   0.718   5.014  0.3337 -0.3480 -0.3671
 9386TIP3    H128122   1.408   0.757   4.962  0.9932  0.6055  1.1855
 9386TIP3    H228123   1.347   0.624   4.999 -1.1797 -0.0880 -4.0453
 9387TIP3   OH228124   5.773   6.669   4.130  0.6194  0.0689  0.5830
 9387TIP3    H128125   5.788   6.587   4.082 -0.4567 -1.7283  3.0772
 9387TIP3    H228126   5.678   6.681   4.129  0.7504  1.1621  0.4510
 9388TIP3   OH228127   1.963   4.285   4.215  0.2485 -0.1089  0.1614
 9388TIP3    H128128   1.906   4.208   4.227  0.7409 -0.6829 -1.0787
 9388TIP3    H228129   1.909   4.358   4.245 -0.9254 -0.7127 -0.3950
 9389TIP3   OH228130   3.146   6.065   3.369 -0.2265  0.5590 -0.4424
 9389TIP3    H128131   3.093   6.070   3.290 -1.6649 -0.3477  0.4081
 9389TIP3    H228132   3.202   5.989   3.355 -0.1303  0.6910 -0.7863
 9390TIP3   OH228133   0.105   4.748   0.138  0.2146 -0.0561 -0.0801
 9390TIP3    H128134   0.097   4.663   0.093  1.0481 -2.0664  3.2413
 9390TIP3    H228135   0.022   4.760   0.182 -0.1350  1.2698 -1.0369
 9391TIP3   OH228136   5.069   2.500   0.291 -0.8667 -0.0132 -0.0544
 9391TIP3    H128137   5.104   2.587   0.310  0.2392 -0.6038  0.7206
 9391TIP3    H228138   5.134   2.459   0.234 -1.6223 -0.1730 -0.8317
 9392TIP3   OH228139   4.100   1.097   1.672 -0.2240  0.0928  0.1896
 9392TIP3    H128140   4.031   1.104   1.606  0.2807  0.3498 -0.3220
 9392TIP3    H228141   4.057   1.057   1.748 -0.3428 -2.0881 -0.9597
 9393TIP3   OH228142   3.656   6.011   0.979  0.4632  0.0613 -0.4124
 9393TIP3    H128143   3.596   6.003   0.905 -1.0018 -0.3054  0.7684
 9393TIP3    H228144   3.636   6.097   1.018 -0.7192 -0.8437  1.1189
 9394TIP3   OH228145   1.575   1.561   1.812 -0.9892 -0.0935 -0.1875
 9394TIP3    H128146   1.574   1.523   1.725 -1.6568  0.1149 -0.2777
 9394TIP3    H228147   1.485   1.591   1.826 -0.4719  1.5246 -0.1577
 9395TIP3   OH228148   4.337   6.610   5.523 -0.4461 -0.0839 -0.0419
 9395TIP3    H128149   4.326   6.550   5.597 -0.6748  1.0476  0.8603
 9395TIP3    H228150   4.428   6.640   5.530  0.1489 -1.4064 -1.3648
 9396TIP3   OH228151   0.815   1.069   0.618 -0.0549  0.1100 -0.0599
 9396TIP3    H128152   0.892   1.013   0.612 -0.1960  0.0352 -1.2857
 9396TIP3    H228153   0.843   1.154   0.583  0.4205  1.1583  2.5931
 9397TIP3   OH228154   4.153   5.563   2.837 -0.0347  0.1241 -0.1180
 9397TIP3    H128155   4.093   5.615   2.783 -0.3354  0.3368  0.4092
 9397TIP3    H228156   4.174   5.621   2.911  1.3083  0.2872 -0.6045
 9398TIP3   OH228157   0.014   0.723   0.693  0.5226 -0.1891  0.1134
 9398TIP3    H128158  -0.013   0.782   0.622  3.4735  0.6090 -0.5090
 9398TIP3    H228159   0.036   0.641   0.649  1.9395  0.1702  0.0728
 9399TIP3   OH228160   0.557   3.796   4.783  0.3831 -0.6264 -0.3634
 9399TIP3    H128161   0.560   3.891   4.771  1.0055 -0.6724 -0.6336
 9399TIP3    H228162   0.484   3.766   4.728  0.2726 -0.3215 -0.3819
 9400TIP3   OH228163   1.448   1.797   3.999 -0.0365 -0.1605  0.2010
 9400TIP3    H128164   1.424   1.886   4.023 -0.5593 -0.3613  0.4476
 9400TIP3    H228165   1.364   1.750   3.995  0.3568 -1.1251  2.0948
 9401TIP3   OH228166   0.645   5.632   3.355  0.0979 -0.0247  0.2417
 9401TIP3    H128167   0.729   5.589   3.369  0.0936 -0.1478 -0.1052
 9401TIP3    H228168   0.595   5.613   3.435  0.2971 -0.1932  0.3262
 9402TIP3   OH228169   1.585   4.891   2.376 -0.3941  0.3421  0.1140
 9402TIP3    H128170   1.606   4.915   2.466  1.2585  2.1535 -0.6748
 9402TIP3    H228171   1.666   4.856   2.341 -1.4792 -2.0032 -0.2328
 9403TIP3   OH228172   3.177   1.390   4.377 -0.0592  0.1397 -0.0011
 9403TIP3    H128173   3.111   1.400   4.310 -0.0265  3.7334  0.2752
 9403TIP3    H228174   3.130   1.404   4.460  0.6708  0.6404  0.3438
 9404TIP3   OH228175   6.243   5.533   2.369 -0.3512 -0.2299  0.6136
 9404TIP3    H128176   6.258   5.447   2.408 -0.8994 -0.0726  1.1766
 9404TIP3    H228177   6.284   5.594   2.430  1.8079 -0.1999 -0.7620
 9405TIP3   OH228178   5.662   4.039   1.520 -0.1110 -0.6450  0.4271
 9405TIP3    H128179   5.650   3.947   1.541  2.3410 -1.4604 -1.3158
 9405TIP3    H228180   5.658   4.084   1.605  1.1974 -2.6966  1.6599
 9406TIP3   OH228181   5.564   2.076   4.514 -0.1649 -0.1150  0.4464
 9406TIP3    H128182   5.552   2.068   4.609 -0.4721  1.2037  0.5424
 9406TIP3    H228183   5.529   2.163   4.493  1.1325  0.1714 -0.6650
 9407TIP3   OH228184   2.017   1.073   0.521  0.5384  0.0677 -0.1488
 9407TIP3    H128185   1.946   1.113   0.471  1.9937 -2.4045 -4.7603
 9407TIP3    H228186   2.084   1.142   0.526  0.7209  0.1665 -2.6719
 9408TIP3   OH228187   5.300   3.911   2.059  0.4506 -0.4065  0.2872
 9408TIP3    H128188   5.272   3.875   1.975  0.2159  1.0500 -0.2910
 9408TIP3    H228189   5.333   3.836   2.108 -0.0182 -1.3833 -0.8561
 9409TIP3   OH228190   4.202   2.191   4.322  0.4912 -0.6652  0.0905
 9409TIP3    H128191   4.135   2.125   4.340 -0.8790  0.6820  0.1105
 9409TIP3    H228192   4.234   2.170   4.234 -0.5098 -0.8830 -0.2314
 9410TIP3   OH228193   3.016   3.046   1.739 -0.0259 -0.2914 -0.0605
 9410TIP3    H128194   3.000   2.954   1.761 -1.3538 -0.0139  0.1964
 9410TIP3    H228195   3.052   3.043   1.650  0.8075 -1.1056  0.2867
 9411TIP3   OH228196   4.820   1.206   1.634 -0.1324 -0.4960  0.1080
 9411TIP3    H128197   4.760   1.164   1.572  1.3335 -0.8561 -1.1398
 9411TIP3    H228198   4.774   1.203   1.718 -1.5999 -1.2703 -0.6819
 9412TIP3   OH228199   4.536   0.038   4.945 -0.3159  1.1201  0.1396
 9412TIP3    H128200   4.578   0.119   4.974 -0.5675  1.2474  0.1541
 9412TIP3    H228201   4.542   0.040   4.850 -1.3613  1.7302  0.0742
 9413TIP3   OH228202   0.110   1.107   2.551 -0.0721  0.5648  0.0721
 9413TIP3    H128203   0.042   1.169   2.523 -0.5530 -0.3769 -0.9070
 9413TIP3    H228204   0.133   1.135   2.640 -1.2989  1.2630  0.1901
 9414TIP3   OH228205   2.644   3.239   2.489  0.0662 -0.2650 -0.1390
 9414TIP3    H128206   2.730   3.198   2.487  0.4952  0.4678  1.7208
 9414TIP3    H228207   2.593   3.188   2.552  0.1202  1.0672  1.0388
 9415TIP3   OH228208   2.994   2.727   1.047  0.0542  0.3946 -0.0388
 9415TIP3    H128209   3.077   2.685   1.024 -0.4692 -0.2726 -0.7601
 9415TIP3    H228210   2.970   2.689   1.131  0.8349  1.1410  0.5428
 9416TIP3   OH228211   7.195   0.142   0.541  0.0082 -0.0490 -0.3686
 9416TIP3    H128212   7.132   0.141   0.469 -0.5508 -0.5987  0.1160
 9416TIP3    H228213   7.162   0.209   0.601  0.2208  0.0851 -0.3995
 9417TIP3   OH228214   2.938   5.756   0.996 -0.1485 -0.3759 -0.7822
 9417TIP3    H128215   3.017   5.762   1.050 -1.7076  1.3060  1.5712
 9417TIP3    H228216   2.932   5.664   0.971  1.2960 -1.0406  1.0732
 9418TIP3   OH228217   3.513   2.544   0.755 -0.6072  0.9984  0.0081
 9418TIP3    H128218   3.539   2.467   0.806  1.6905 -0.0367 -2.5168
 9418TIP3    H228219   3.543   2.618   0.809  1.6023 -0.0390  0.3554
 9419TIP3   OH228220   5.479   1.949   3.456 -0.7956 -0.4694 -0.1070
 9419TIP3    H128221   5.507   1.876   3.400  0.9636  0.2477 -0.2457
 9419TIP3    H228222   5.561   1.992   3.481 -1.7626  1.2320  0.2770
 9420TIP3   OH228223   3.165   1.573   3.408  0.1564 -0.0771  0.3924
 9420TIP3    H128224   3.210   1.585   3.325 -2.0409  0.3958 -0.8171
 9420TIP3    H228225   3.139   1.662   3.434 -3.5788 -0.5426 -1.1319
 9421TIP3   OH228226   3.274   1.187   0.079 -0.0564  0.1843  0.3043
 9421TIP3    H128227   3.190   1.199   0.033 -0.3578  0.0901  0.8245
 9421TIP3    H228228   3.259   1.223   0.166  0.5123  0.3503  0.3319
 9422TIP3   OH228229   4.035   2.560   5.021  0.6283  0.1758 -0.6085
 9422TIP3    H128230   4.085   2.532   5.098  2.5834  1.7730 -1.2165
 9422TIP3    H228231   3.959   2.607   5.057  0.7731 -0.3033  0.3389
 9423TIP3   OH228232   0.783   5.055   3.386  0.0394  0.3384 -0.2045
 9423TIP3    H128233   0.864   5.099   3.413 -0.1395  1.1621 -0.9673
 9423TIP3    H228234   0.770   5.082   3.295 -0.2219 -1.1050 -0.6225
 9424TIP3   OH228235   4.694   2.546   0.283 -0.2582  0.1480  0.1017
 9424TIP3    H128236   4.608   2.550   0.325 -0.3566  0.6667 -0.1398
 9424TIP3    H228237   4.709   2.452   0.270 -1.2406  0.0818 -0.7597
 9425TIP3   OH228238   4.874   3.307   4.862 -0.3208  0.4165 -0.6881
 9425TIP3    H128239   4.910   3.375   4.918 -0.2574  0.1827 -0.4407
 9425TIP3    H228240   4.810   3.261   4.917  1.5671 -1.4766  0.0859
 9426TIP3   OH228241   5.154   3.511   0.511 -0.1990  0.6374 -0.0551
 9426TIP3    H128242   5.164   3.603   0.488 -0.2164  0.1600 -2.2034
 9426TIP3    H228243   5.064   3.489   0.486 -0.0768 -0.0463  0.0715
 9427TIP3   OH228244   1.251   4.486   1.644 -1.1765 -0.4707 -0.1435
 9427TIP3    H128245   1.178   4.484   1.706 -1.8882  0.3760 -0.9156
 9427TIP3    H228246   1.238   4.568   1.595  1.3644  0.6914  0.9374
 9428TIP3   OH228247   4.152   1.685   5.714 -0.6070  0.1619  0.6616
 9428TIP3    H128248   4.189   1.598   5.703 -1.0433 -0.0027  0.4555
 9428TIP3    H228249   4.223   1.745   5.691  0.3423 -0.0831  2.7529
 9429TIP3   OH228250   3.880   0.980   4.293  0.0391  0.4964 -0.3595
 9429TIP3    H128251   3.859   0.897   4.334 -0.6823 -0.0802 -1.8313
 9429TIP3    H228252   3.844   0.974   4.204 -0.8895  2.7380 -0.2184
 9430TIP3   OH228253   6.229   2.582   5.186  0.2335 -0.4548 -0.1189
 9430TIP3    H128254   6.144   2.621   5.207  0.2735 -1.2780  1.7366
 9430TIP3    H228255   6.288   2.614   5.254  0.9090 -1.5148 -0.1778
 9431TIP3   OH228256   1.789   1.204   2.827 -0.2040 -0.1164  0.0674
 9431TIP3    H128257   1.768   1.116   2.793 -1.5112 -0.0408  0.6286
 9431TIP3    H228258   1.828   1.187   2.913  0.8159 -0.1973 -0.4014
 9432TIP3   OH228259   3.339   2.958   5.780  0.1171  0.0596 -0.5647
 9432TIP3    H128260   3.251   2.995   5.781 -0.4450 -1.2122 -0.7135
 9432TIP3    H228261   3.370   2.971   5.691 -0.5160 -0.7998 -0.9199
 9433TIP3   OH228262   2.229   6.488   1.456  0.2077 -0.3934  0.2221
 9433TIP3    H128263   2.206   6.454   1.542  0.5682  0.6394  0.7423
 9433TIP3    H228264   2.258   6.578   1.472  1.2803 -0.5266 -0.8444
 9434TIP3   OH228265   2.934   4.923   4.954 -0.4646  0.4217 -0.1653
 9434TIP3    H128266   2.985   4.943   5.032 -0.2542 -1.6600  0.2941
 9434TIP3    H228267   2.851   4.967   4.967 -0.4103  0.1433  1.2341
 9435TIP3   OH228268   3.147   1.108   0.970 -0.0172 -0.0392 -0.5155
 9435TIP3    H128269   3.078   1.042   0.971  0.5737 -0.6581 -0.6439
 9435TIP3    H228270   3.130   1.159   0.891 -1.1060  0.6575  0.1280
 9436TIP3   OH228271   1.169   1.858   3.885 -0.4346 -0.1325  0.0908
 9436TIP3    H128272   1.175   1.951   3.863 -0.6220  0.2905  1.7169
 9436TIP3    H228273   1.075   1.839   3.880 -0.4655 -0.0641  0.4044
 9437TIP3   OH228274   3.175   6.182   0.662 -0.2261  0.0228  0.6718
 9437TIP3    H128275   3.255   6.133   0.642 -1.2836 -1.1460 -0.9399
 9437TIP3    H228276   3.142   6.142   0.742  1.4945  1.4779  2.2062
 9438TIP3   OH228277   3.344   1.778   1.449  0.8157  0.3279  0.5840
 9438TIP3    H128278   3.329   1.849   1.511  1.3514 -0.3306  1.4911
 9438TIP3    H228279   3.278   1.712   1.470  1.5062 -0.2496  1.0231
 9439TIP3   OH228280   0.821   6.488   4.547 -0.9627  0.1590  0.1046
 9439TIP3    H128281   0.851   6.403   4.578 -0.0448 -0.1001 -1.3525
 9439TIP3    H228282   0.750   6.468   4.486 -0.7028  0.4243 -0.2931
 9440TIP3   OH228283   4.934   1.130   2.313 -0.2296 -0.0179  0.0859
 9440TIP3    H128284   4.963   1.065   2.250  0.6059 -0.9927  1.4338
 9440TIP3    H228285   4.954   1.092   2.399 -0.6259  1.5911  0.9380
 9441TIP3   OH228286   6.513   6.220   2.511 -0.0352 -0.1929  0.0942
 9441TIP3    H128287   6.549   6.167   2.583 -0.7494  0.8080  1.2296
 9441TIP3    H228288   6.559   6.189   2.433  2.4296  0.2309  1.3004
 9442TIP3   OH228289   3.801   1.401   1.130  0.7067  0.4424 -0.4144
 9442TIP3    H128290   3.777   1.434   1.044 -0.7507  1.3891  0.3279
 9442TIP3    H228291   3.808   1.479   1.185 -0.3016 -0.2655  0.7698
 9443TIP3   OH228292   7.035   5.428   1.249  0.4457  0.7283  0.4931
 9443TIP3    H128293   6.965   5.492   1.265 -1.3296 -0.7639 -0.9138
 9443TIP3    H228294   7.030   5.368   1.323  0.0180  0.4662  0.2584
 9444TIP3   OH228295   0.921   2.026   5.417 -0.0761  0.0142  0.3554
 9444TIP3    H128296   0.836   2.054   5.453 -1.4711 -1.5557 -1.5182
 9444TIP3    H228297   0.939   1.942   5.460 -0.5915 -0.7153 -0.8008
 9445TIP3   OH228298   3.724   1.768   0.118  0.7443  0.2433 -0.1074
 9445TIP3    H128299   3.691   1.684   0.086 -0.1682  0.7061 -0.4184
 9445TIP3    H228300   3.778   1.802   0.047 -0.5780  0.8682 -0.8472
 9446TIP3   OH228301   4.802   4.052   5.655 -0.3712  0.2418 -0.3608
 9446TIP3    H128302   4.784   3.986   5.721  0.0380  0.6342  0.1549
 9446TIP3    H228303   4.851   4.005   5.587  0.0648  0.0420  0.0805
 9447TIP3   OH228304   6.237   2.811   1.648 -0.1759 -0.0613  0.0765
 9447TIP3    H128305   6.178   2.826   1.574  1.5189 -0.2936 -1.3845
 9447TIP3    H228306   6.314   2.865   1.628  1.4325 -2.1510  0.2756
 9448TIP3   OH228307   2.503   6.037   0.748 -0.1683 -0.0526  0.1053
 9448TIP3    H128308   2.596   6.018   0.752  0.1102  0.4986 -2.2440
 9448TIP3    H228309   2.498   6.132   0.734 -1.0241 -0.1693 -0.5163
 9449TIP3   OH228310   2.736   6.041   0.451  0.0124 -0.7617  0.5877
 9449TIP3    H128311   2.799   5.988   0.403  0.2137 -1.1225  1.2343
 9449TIP3    H228312   2.651   6.004   0.429 -0.0720  0.3235 -1.0382
 9450TIP3   OH228313   3.251   6.591   2.340  0.2130  0.0439 -0.5069
 9450TIP3    H128314   3.314   6.519   2.340 -0.5571 -0.6617 -1.6963
 9450TIP3    H228315   3.292   6.658   2.395  0.5926 -1.5684  1.2858
 9451TIP3   OH228316   5.360   0.577   3.434 -0.1704 -0.8058 -0.3134
 9451TIP3    H128317   5.358   0.669   3.408 -0.3378 -0.9669 -0.8868
 9451TIP3    H228318   5.408   0.533   3.363  0.7137 -1.0254  0.4014
 9452TIP3   OH228319   0.917   4.644   4.185 -0.7500  0.4040 -0.0649
 9452TIP3    H128320   0.857   4.632   4.111 -0.7917 -0.7916  0.1458
 9452TIP3    H228321   0.951   4.556   4.203 -0.0635  0.8284  0.7659
 9453TIP3   OH228322   5.492   2.331   2.134 -0.0164  0.0933 -0.8679
 9453TIP3    H128323   5.442   2.360   2.211 -1.5051 -1.5244 -1.1400
 9453TIP3    H228324   5.526   2.411   2.096 -1.9732  1.2743 -0.3130
 9454TIP3   OH228325   5.609   5.087   0.377  0.0642 -0.7292 -0.7966
 9454TIP3    H128326   5.571   5.137   0.305  0.5999 -0.7804 -1.1182
 9454TIP3    H228327   5.537   5.076   0.439  0.1465  1.1787 -0.3176
 9455TIP3   OH228328   4.776   6.658   2.007 -0.2515 -0.4641 -0.5732
 9455TIP3    H128329   4.852   6.600   2.015 -0.3956 -0.5016  0.7072
 9455TIP3    H228330   4.703   6.606   2.040 -0.7044 -0.1668 -1.0979
 9456TIP3   OH228331   3.229   2.261   4.514  0.7233  0.2543 -0.5022
 9456TIP3    H128332   3.282   2.289   4.439 -0.7116  1.6424 -1.0488
 9456TIP3    H228333   3.223   2.338   4.570 -0.9996  0.2475 -0.6274
 9457TIP3   OH228334   3.393   6.443   2.858 -0.5375  0.1345 -0.2015
 9457TIP3    H128335   3.297   6.438   2.858 -0.4884 -1.4994 -0.6167
 9457TIP3    H228336   3.415   6.496   2.781 -1.0934 -0.7504 -0.9915
 9458TIP3   OH228337   5.874   0.514   5.622  0.1247 -0.4263  0.2711
 9458TIP3    H128338   5.930   0.456   5.570  0.3664  0.9309 -1.0694
 9458TIP3    H228339   5.923   0.597   5.626  0.1895 -0.5057  2.8566
 9459TIP3   OH228340   4.283   2.733   0.254 -0.6081  0.0460 -0.1427
 9459TIP3    H128341   4.303   2.789   0.329 -2.4390  0.6148 -0.0085
 9459TIP3    H228342   4.190   2.750   0.236 -0.4152 -0.6329 -2.0762
 9460TIP3   OH228343   5.746   4.158   2.548  0.3936  0.0453  0.2053
 9460TIP3    H128344   5.734   4.195   2.461 -0.7816  0.9782  0.7492
 9460TIP3    H228345   5.816   4.093   2.537 -1.4803 -1.7465 -1.9945
 9461TIP3   OH228346   3.757   3.547   1.978  0.2901  0.2643  0.2722
 9461TIP3    H128347   3.797   3.567   1.893 -1.6813  0.9167 -0.5730
 9461TIP3    H228348   3.703   3.469   1.962  0.9082 -0.3914  1.2754
 9462TIP3   OH228349   3.726   0.384   3.183  0.2382  0.3179 -0.5910
 9462TIP3    H128350   3.796   0.434   3.223  0.6041 -0.7471  0.1379
 9462TIP3    H228351   3.767   0.303   3.153 -0.5638 -0.0719 -0.6773
 9463TIP3   OH228352   4.516   0.754   5.303 -0.4927  0.4853 -0.0705
 9463TIP3    H128353   4.538   0.677   5.251  1.6324  1.4008 -0.6599
 9463TIP3    H228354   4.470   0.812   5.243  1.1376  1.1480 -0.7531
 9464TIP3   OH228355   2.585   0.025   0.341  0.4105 -0.3655  0.1315
 9464TIP3    H128356   2.529   0.004   0.416  0.0265  1.6496  0.4773
 9464TIP3    H228357   2.523   0.034   0.268  0.6740 -1.3103 -0.2249
 9465TIP3   OH228358   2.573   1.699   5.780 -0.5061 -0.2554  0.8881
 9465TIP3    H128359   2.619   1.727   5.700 -1.9003  2.1235  0.8200
 9465TIP3    H228360   2.642   1.671   5.839  0.6137 -1.4717 -0.9174
 9466TIP3   OH228361   3.133   0.795   5.373 -0.4110  0.2623  0.2483
 9466TIP3    H128362   3.138   0.752   5.459 -3.7915 -1.7584 -0.3806
 9466TIP3    H228363   3.063   0.749   5.328 -0.2310  2.7215 -2.8265
 9467TIP3   OH228364   5.191   3.349   1.577  0.1959  0.3030  0.4920
 9467TIP3    H128365   5.281   3.375   1.555  0.0163  1.2319  0.7726
 9467TIP3    H228366   5.141   3.366   1.498  0.6991 -2.8163 -0.6093
 9468TIP3   OH228367   6.592   3.144   1.919  0.3813 -0.0743 -0.5316
 9468TIP3    H128368   6.615   3.199   1.995 -0.0309  1.9129 -1.7598
 9468TIP3    H228369   6.500   3.165   1.903  0.9224  0.9113 -2.6206
 9469TIP3   OH228370   2.523   2.612   4.412 -0.3212 -0.0671 -0.0683
 9469TIP3    H128371   2.544   2.623   4.319 -2.3802 -0.2802 -0.5982
 9469TIP3    H228372   2.479   2.694   4.436 -0.0903 -0.1470  0.6528
 9470TIP3   OH228373   2.477   0.296   4.769 -0.6796 -0.3072  0.1797
 9470TIP3    H128374   2.518   0.229   4.713 -2.9666 -0.6493 -1.2017
 9470TIP3    H228375   2.543   0.313   4.837  1.8960 -0.5412 -2.0545
 9471TIP3   OH228376   3.746   1.282   2.751  0.1382 -0.0149  0.1272
 9471TIP3    H128377   3.755   1.305   2.844 -0.9681  0.3597  0.1576
 9471TIP3    H228378   3.794   1.199   2.742 -0.6129 -0.6110  1.2775
 9472TIP3   OH228379   0.189   6.028   1.710  0.2232  0.6930  0.0728
 9472TIP3    H128380   0.270   6.072   1.687  0.7282  1.4721  2.9356
 9472TIP3    H228381   0.209   5.935   1.705  0.8296  0.8651 -0.6928
 9473TIP3   OH228382   6.465   5.700   3.886 -0.6422 -0.4858 -0.1668
 9473TIP3    H128383   6.461   5.764   3.815  0.5227 -1.8020 -1.4871
 9473TIP3    H228384   6.419   5.742   3.958 -0.0569  1.7694 -1.0131
 9474TIP3   OH228385   3.696   6.348   1.590  0.0462 -0.5353 -0.0743
 9474TIP3    H128386   3.727   6.392   1.669  1.7065  0.5241 -1.2188
 9474TIP3    H228387   3.773   6.348   1.532 -1.8950  1.8132 -2.9728
 9475TIP3   OH228388   2.106   1.172   3.667 -0.0584 -0.4085 -0.1144
 9475TIP3    H128389   2.046   1.187   3.594 -0.9756  0.4342  0.7736
 9475TIP3    H228390   2.090   1.082   3.693 -0.9019 -0.2205  0.0544
 9476TIP3   OH228391   5.253   2.313   3.984  0.1515 -0.0200 -0.6479
 9476TIP3    H128392   5.305   2.333   3.906 -1.4089  0.8041 -1.5325
 9476TIP3    H228393   5.173   2.364   3.973  0.1627  0.6943  1.8633
 9477TIP3   OH228394   1.892   1.691   4.890  0.5404  0.1166  0.1641
 9477TIP3    H128395   1.941   1.736   4.822  1.2247 -0.0994  0.5063
 9477TIP3    H228396   1.926   1.601   4.889 -2.1693 -1.0581 -1.8970
 9478TIP3   OH228397   5.709   2.021   0.402 -0.0278 -0.2540  0.1527
 9478TIP3    H128398   5.628   2.064   0.430  0.5303  0.8629  0.1075
 9478TIP3    H228399   5.740   1.975   0.480  0.5992  1.4023  0.9224
 9479TIP3   OH228400   0.844   5.227   1.898  0.6432 -0.0126  0.0760
 9479TIP3    H128401   0.760   5.181   1.902  0.0517  1.0206 -0.0829
 9479TIP3    H228402   0.910   5.157   1.895 -0.2513 -0.8504 -0.6381
 9480TIP3   OH228403   6.588   3.256   2.433 -0.0982  0.1482  0.2512
 9480TIP3    H128404   6.625   3.184   2.382  0.2931  0.5618 -0.0696
 9480TIP3    H228405   6.659   3.282   2.492  0.3639  1.3317 -0.7693
 9481TIP3   OH228406   6.195   5.350   3.653 -0.7174  0.5121 -0.2534
 9481TIP3    H128407   6.108   5.375   3.624 -0.9995 -0.2435 -0.0974
 9481TIP3    H228408   6.180   5.278   3.714  0.0995 -0.9026 -1.6364
 9482TIP3   OH228409   7.193   4.176   2.630 -0.1468 -0.1613 -0.2328
 9482TIP3    H128410   7.249   4.111   2.672  1.8246  0.4109 -1.7805
 9482TIP3    H228411   7.150   4.222   2.702  0.0256 -1.7999  0.9539
 9483TIP3   OH228412   5.370   0.553   5.723 -0.0614 -0.1769 -0.1372
 9483TIP3    H128413   5.354   0.459   5.717 -1.5761 -0.0366  1.1398
 9483TIP3    H228414   5.449   0.567   5.670  0.0438 -2.1067 -0.5704
 9484TIP3   OH228415   2.152   4.638   4.610  0.2270 -0.2468  0.7777
 9484TIP3    H128416   2.166   4.596   4.695 -1.8309  1.2287  1.9560
 9484TIP3    H228417   2.077   4.591   4.572 -0.2404  0.4699  0.7948
 9485TIP3   OH228418   1.104   5.917   0.557 -0.0596  0.2579  0.0009
 9485TIP3    H128419   1.156   5.847   0.597 -1.1307  0.2475  1.4859
 9485TIP3    H228420   1.132   5.996   0.602 -0.4314  0.4349 -0.0763
 9486TIP3   OH228421   2.306   1.631   0.075  0.1580  0.3603 -0.0456
 9486TIP3    H128422   2.296   1.537   0.061 -1.1825  0.5777 -0.7268
 9486TIP3    H228423   2.229   1.655   0.128  0.1206  1.1783 -0.4678
 9487TIP3   OH228424   4.707   5.753   3.935  0.2806  0.0507  0.1966
 9487TIP3    H128425   4.721   5.676   3.991  0.6970 -0.3182 -0.3945
 9487TIP3    H228426   4.615   5.775   3.947  1.0902  2.2141  3.8081
 9488TIP3   OH228427   2.571   2.827   0.812 -0.0750 -0.5652  0.8097
 9488TIP3    H128428   2.562   2.913   0.854  1.8451  0.9660 -1.6341
 9488TIP3    H228429   2.483   2.790   0.817 -1.4898  2.3734  0.3127
 9489TIP3   OH228430   0.989   4.612   4.682  0.2998 -0.2233 -0.3129
 9489TIP3    H128431   0.952   4.640   4.766 -1.2148  0.5137 -1.1887
 9489TIP3    H228432   1.058   4.550   4.706 -1.1640 -1.2925  1.4438
 9490TIP3   OH228433   1.848   3.192   1.202 -0.4470 -0.2666 -0.0063
 9490TIP3    H128434   1.797   3.262   1.161  0.1597  0.2865  0.1674
 9490TIP3    H228435   1.936   3.228   1.209 -0.0004 -1.2511 -0.4072
 9491TIP3   OH228436   3.797   2.878   2.981 -0.2521  0.8200 -0.4942
 9491TIP3    H128437   3.846   2.910   2.905  1.2030  1.8272  0.8047
 9491TIP3    H228438   3.784   2.956   3.036 -0.9082  0.0421  0.4996
 9492TIP3   OH228439   6.144   0.006   4.204 -0.1564 -0.7354 -0.1771
 9492TIP3    H128440   6.081  -0.059   4.174  0.6639 -1.0827 -1.1957
 9492TIP3    H228441   6.113   0.088   4.165 -0.1647 -0.8478 -0.4122
 9493TIP3   OH228442   6.415   5.455   1.937 -0.1841  0.2073  0.1684
 9493TIP3    H128443   6.388   5.486   2.024 -0.4618  2.0836 -0.5471
 9493TIP3    H228444   6.492   5.401   1.955  0.0621  0.9518  1.5512
 9494TIP3   OH228445   0.500   6.273   3.104 -0.2419  0.0010  0.2772
 9494TIP3    H128446   0.508   6.322   3.022  0.9963 -1.4264 -0.5018
 9494TIP3    H228447   0.496   6.181   3.077  0.5347 -0.5177  1.8111
 9495TIP3   OH228448   1.415   2.130   0.806  0.3707  0.0456 -0.6494
 9495TIP3    H128449   1.494   2.155   0.758  0.7234  0.9068  0.3401
 9495TIP3    H228450   1.372   2.213   0.826 -0.0146 -0.3254  0.0955
 9496TIP3   OH228451   2.341   5.641   2.811  0.2734  0.7262  0.4714
 9496TIP3    H128452   2.278   5.701   2.850  0.3320  0.6769  0.6447
 9496TIP3    H228453   2.318   5.555   2.847  1.1804  0.8846  1.4794
 9497TIP3   OH228454   3.541   2.568   2.250  0.4239  0.0561 -0.5438
 9497TIP3    H128455   3.559   2.652   2.208 -0.8464 -0.7579 -2.9478
 9497TIP3    H228456   3.599   2.506   2.203 -0.9311 -0.8741 -1.0474
 9498TIP3   OH228457   1.944   1.379   2.162  0.4659  0.0763 -0.1595
 9498TIP3    H128458   1.965   1.455   2.217 -0.3418 -0.3516  0.7681
 9498TIP3    H228459   1.998   1.308   2.198  1.3525  0.2308 -1.1347
 9499TIP3   OH228460   1.101   2.973   0.303  0.4844  0.2018 -0.3274
 9499TIP3    H128461   1.175   3.019   0.263  1.1986 -1.4444 -1.0028
 9499TIP3    H228462   1.088   3.016   0.387  1.2978  1.4269 -0.8151
 9500TIP3   OH228463   4.341   3.037   3.314 -0.1141  0.2269  0.1990
 9500TIP3    H128464   4.310   3.038   3.405  1.4990 -0.3174  0.7893
 9500TIP3    H228465   4.328   2.947   3.286 -1.8971  0.6988 -0.6147
 9501TIP3   OH228466   5.335   6.365   2.797  0.5191  0.2149  0.1431
 9501TIP3    H128467   5.326   6.273   2.821  1.9107  0.4412  1.7205
 9501TIP3    H228468   5.256   6.384   2.746 -0.9948 -1.2232  1.7758
 9502TIP3   OH228469   0.815   3.788   0.810 -0.3895  0.7766 -0.1014
 9502TIP3    H128470   0.876   3.767   0.881 -0.7154  1.1779  0.3097
 9502TIP3    H228471   0.854   3.865   0.768 -0.3161  0.6817 -0.2060
 9503TIP3   OH228472   5.848   6.497   4.617  0.3996 -0.1518  0.4023
 9503TIP3    H128473   5.798   6.449   4.683 -0.3170  2.2794  1.7635
 9503TIP3    H228474   5.783   6.520   4.551  0.5088 -0.1369  0.3007
 9504TIP3   OH228475   6.236   1.856   3.242 -0.0595 -0.5600 -0.2355
 9504TIP3    H128476   6.192   1.914   3.304 -0.3615  0.3004 -1.2445
 9504TIP3    H228477   6.230   1.769   3.283 -1.8083 -0.3037  0.1121
 9505TIP3   OH228478   2.560   1.447   5.719 -0.6367 -0.0710  0.1548
 9505TIP3    H128479   2.531   1.538   5.727  1.6704  0.6964  0.6786
 9505TIP3    H228480   2.655   1.453   5.705 -0.6883 -2.3503 -1.7955
 9506TIP3   OH228481   5.938   1.820   1.375 -0.2388  0.5796  0.1301
 9506TIP3    H128482   5.877   1.781   1.438  1.0802  0.2144  1.2309
 9506TIP3    H228483   5.956   1.751   1.312 -0.1721  0.3488  0.4005
 9507TIP3   OH228484   6.144   6.103   5.760 -0.5051 -0.4630  0.0220
 9507TIP3    H128485   6.218   6.045   5.777 -0.6557 -1.0555 -1.2232
 9507TIP3    H228486   6.122   6.140   5.846  1.4040 -0.0437  0.3780
 9508TIP3   OH228487   2.132   0.671   3.502 -0.2502 -0.1693 -0.0377
 9508TIP3    H128488   2.121   0.621   3.421 -0.5164 -0.4052  0.1412
 9508TIP3    H228489   2.111   0.761   3.478  1.1803  0.0427 -0.5928
 9509TIP3   OH228490   1.221   6.749   1.345  0.2579 -0.4769  0.2136
 9509TIP3    H128491   1.182   6.726   1.429  2.2841 -2.0005  0.8184
 9509TIP3    H228492   1.192   6.680   1.285  0.6747 -0.6965  0.2602
 9510TIP3   OH228493   4.945   0.781   1.551  0.4353  0.0441 -0.0212
 9510TIP3    H128494   4.874   0.804   1.610  0.8247  0.8870  0.1371
 9510TIP3    H228495   4.940   0.847   1.481  0.3165 -0.6138 -0.6428
 9511TIP3   OH228496   4.237   3.263   2.953 -0.1395  0.4258  0.3674
 9511TIP3    H128497   4.142   3.256   2.942 -0.0287 -0.3714 -0.1693
 9511TIP3    H228498   4.268   3.173   2.960  0.7729  0.5488 -1.3654
 9512TIP3   OH228499   3.062   3.673   2.316  0.2523 -0.1976 -0.3308
 9512TIP3    H128500   3.155   3.686   2.300  0.6703 -1.2486  1.0622
 9512TIP3    H228501   3.028   3.760   2.337  0.7590  0.2995 -1.4791
 9513TIP3   OH228502   3.466   5.189   3.491  0.4464 -0.6884  0.1243
 9513TIP3    H128503   3.472   5.245   3.569  1.7613  0.0342 -0.4689
 9513TIP3    H228504   3.374   5.195   3.464  0.1954 -0.1615  1.0480
 9514TIP3   OH228505   2.389   1.251   3.694 -0.5304  0.5240 -0.2080
 9514TIP3    H128506   2.294   1.242   3.700 -0.2851 -2.3919  0.8948
 9514TIP3    H228507   2.423   1.193   3.763  2.0836 -1.3796 -2.8380
 9515TIP3   OH228508   4.958   3.422   3.618  0.1583  0.3186 -0.1318
 9515TIP3    H128509   4.959   3.516   3.604  1.1949  0.3923  0.3565
 9515TIP3    H228510   4.892   3.408   3.686  0.2222  0.7236  0.0131
 9516TIP3   OH228511   6.726   1.683   3.368  0.1247  0.4222  0.2715
 9516TIP3    H128512   6.647   1.730   3.392 -0.3999  0.1464 -0.8480
 9516TIP3    H228513   6.737   1.617   3.437  0.8520  2.0953  1.8362
 9517TIP3   OH228514   6.221   6.570   0.969 -0.1967 -0.4891 -0.0646
 9517TIP3    H128515   6.259   6.574   0.881  1.4325  1.2866  0.6529
 9517TIP3    H228516   6.127   6.561   0.954 -0.1713  1.7044 -2.0561
 9518TIP3   OH228517   5.229   0.630   0.781 -0.1814  0.7057  0.1559
 9518TIP3    H128518   5.317   0.649   0.814 -0.1474  0.9582 -0.0818
 9518TIP3    H228519   5.198   0.712   0.745 -0.5618  0.6417  0.3355
 9519TIP3   OH228520   2.304   3.352   4.760 -0.0948  0.0506  0.4227
 9519TIP3    H128521   2.291   3.446   4.773 -1.7183 -0.1655  0.5873
 9519TIP3    H228522   2.256   3.311   4.832 -0.8552 -0.9291 -0.5999
 9520TIP3   OH228523   4.650   2.458   1.090 -0.1181 -0.1807 -0.2228
 9520TIP3    H128524   4.639   2.553   1.084  0.1779 -0.0912  0.5300
 9520TIP3    H228525   4.595   2.423   1.020 -1.5190  0.4679  0.5105
 9521TIP3   OH228526   6.173   2.941   1.882 -0.2150  0.0553  0.2785
 9521TIP3    H128527   6.255   2.955   1.929  1.0429 -0.8992 -1.4826
 9521TIP3    H228528   6.189   2.861   1.831 -1.6101  0.8117 -1.4261
 9522TIP3   OH228529   4.537   2.249   1.706  0.2688  0.5160 -0.4762
 9522TIP3    H128530   4.573   2.272   1.792 -3.3958 -1.3036  1.7795
 9522TIP3    H228531   4.456   2.299   1.699  0.5342  0.7234 -3.0066
 9523TIP3   OH228532   6.609   3.806   5.534  0.3330  0.3618 -0.6651
 9523TIP3    H128533   6.610   3.901   5.545  2.1389  0.1760  1.2977
 9523TIP3    H228534   6.555   3.774   5.606  2.8369 -0.2458  1.0647
 9524TIP3   OH228535   5.444   4.985   2.598 -0.1923 -0.0590  0.4085
 9524TIP3    H128536   5.538   4.995   2.609 -0.0301  0.2577 -1.0167
 9524TIP3    H228537   5.407   4.997   2.685  1.1553 -1.1466  1.1548
 9525TIP3   OH228538   4.667   5.417   3.466  0.0826 -0.0155 -0.4619
 9525TIP3    H128539   4.592   5.448   3.517 -0.6164 -1.7475 -0.3605
 9525TIP3    H228540   4.709   5.497   3.434 -0.8694  1.0468  0.7995
 9526TIP3   OH228541   1.163   3.314   4.381  0.2497 -0.1090  0.0952
 9526TIP3    H128542   1.212   3.257   4.441  2.1255  0.3122 -0.9569
 9526TIP3    H228543   1.168   3.270   4.297 -1.1195  0.0257 -0.0773
 9527TIP3   OH228544   3.032   1.024   1.569  0.5951 -0.4425  0.0496
 9527TIP3    H128545   2.950   1.046   1.524  1.2452  0.9623 -0.4868
 9527TIP3    H228546   3.031   0.928   1.574 -0.0210 -0.5877 -1.9826
 9528TIP3   OH228547   6.399   0.228   1.894 -0.3884 -0.0462 -0.7733
 9528TIP3    H128548   6.390   0.136   1.920 -0.4403  0.2340  0.2287
 9528TIP3    H228549   6.386   0.227   1.799 -0.0995 -1.1101 -0.8171
 9529TIP3   OH228550   0.940   1.202   3.564  0.2492  0.1654 -0.7713
 9529TIP3    H128551   1.033   1.222   3.552  0.0853  0.9860 -0.7314
 9529TIP3    H228552   0.939   1.125   3.620  0.8964  0.6132 -0.1244
 9530TIP3   OH228553   6.777   2.206   1.801 -0.2082  0.1629 -0.2347
 9530TIP3    H128554   6.771   2.129   1.857 -1.1008 -0.6759 -1.4305
 9530TIP3    H228555   6.724   2.273   1.844  1.4687  0.5199  1.3913
 9531TIP3   OH228556   0.052   3.186   0.046 -0.6618  0.1613 -0.1996
 9531TIP3    H128557   0.134   3.145   0.070  0.2973  1.7565 -0.5995
 9531TIP3    H228558   0.073   3.279   0.036 -2.9022  0.9453  1.5078
 9532TIP3   OH228559   2.123   0.754   3.957 -0.4022  0.0950  0.0473
 9532TIP3    H128560   2.172   0.675   3.981  1.9727  1.2022 -0.8347
 9532TIP3    H228561   2.038   0.722   3.929  0.1457 -2.0565  0.6563
 9533TIP3   OH228562   0.499   6.739   1.252  0.1457  0.0021 -0.2515
 9533TIP3    H128563   0.492   6.673   1.320 -0.2818  1.1200  0.8261
 9533TIP3    H228564   0.579   6.788   1.274 -0.0990  0.4927 -0.4275
 9534TIP3   OH228565   4.882   4.858   0.323 -0.0141 -0.7491 -0.2957
 9534TIP3    H128566   4.946   4.807   0.273  1.8881 -0.1280  1.3853
 9534TIP3    H228567   4.890   4.826   0.412 -3.3202 -1.8144 -0.2228
 9535TIP3   OH228568   0.626   6.217   5.381 -0.1495 -0.1265 -0.2936
 9535TIP3    H128569   0.618   6.302   5.424  0.8981 -0.4612  0.5964
 9535TIP3    H228570   0.537   6.180   5.384 -0.0663 -0.2540  1.8492
 9536TIP3   OH228571   0.683   2.100   2.021 -0.1712  0.3955 -0.1156
 9536TIP3    H128572   0.626   2.028   2.047  0.0560  0.0339 -0.5945
 9536TIP3    H228573   0.624   2.173   2.003 -0.4311  0.2230  0.0403
 9537TIP3   OH228574   2.463   2.004   4.645  0.0711 -0.8044 -0.0925
 9537TIP3    H128575   2.424   1.918   4.662 -0.7519 -0.3153  0.5508
 9537TIP3    H228576   2.470   2.008   4.549 -0.0105 -1.5261 -0.1365
 9538TIP3   OH228577   2.660   1.216   1.743  0.3028 -0.5562 -0.5292
 9538TIP3    H128578   2.699   1.240   1.659  2.3620 -2.8965 -0.3586
 9538TIP3    H228579   2.690   1.284   1.803  0.1804  0.2280 -1.3223
 9539TIP3   OH228580   2.957   1.497   3.233 -0.0699  0.6617 -0.4267
 9539TIP3    H128581   2.880   1.554   3.229  0.0567  0.8051 -0.8730
 9539TIP3    H228582   3.000   1.520   3.315 -0.8225  0.1640  0.1222
 9540TIP3   OH228583   6.463   4.389   1.212 -1.0509 -0.2775 -0.0622
 9540TIP3    H128584   6.378   4.428   1.192 -1.6166 -1.0825  0.6601
 9540TIP3    H228585   6.516   4.403   1.134 -1.8277  0.2961 -0.4963
 9541TIP3   OH228586   1.617   3.701   3.860  0.5479 -0.3214 -0.5261
 9541TIP3    H128587   1.666   3.703   3.777  1.1376  2.1755 -0.2289
 9541TIP3    H228588   1.613   3.793   3.886  0.7972 -1.0743  2.4736
 9542TIP3   OH228589   6.719   5.036   4.528  0.0522  0.1319 -0.1736
 9542TIP3    H128590   6.634   5.012   4.492 -0.9112  1.1419  1.2859
 9542TIP3    H228591   6.756   4.953   4.560 -0.6705 -0.2359 -0.2687
 9543TIP3   OH228592   0.678   6.744   2.248  0.0076  0.9663 -0.1127
 9543TIP3    H128593   0.742   6.808   2.216  0.0682  1.2436  0.5615
 9543TIP3    H228594   0.714   6.713   2.331 -0.7295  1.1187  0.2697
 9544TIP3   OH228595   4.296   0.475   4.691  0.1949  0.5661  0.5992
 9544TIP3    H128596   4.389   0.453   4.679 -0.1964 -0.0219 -1.9640
 9544TIP3    H228597   4.281   0.548   4.631 -1.2496 -0.1432  0.0408
 9545TIP3   OH228598   4.580   2.795   1.765 -0.2889 -0.7778 -0.5070
 9545TIP3    H128599   4.600   2.889   1.769  0.7539 -1.0039  0.0127
 9545TIP3    H228600   4.538   2.783   1.680  0.0133  0.0864 -0.7940
 9546TIP3   OH228601   0.129   4.066   4.698  0.7717  0.1247 -0.8177
 9546TIP3    H128602   0.065   4.076   4.768 -1.1504  0.1594 -2.4821
 9546TIP3    H228603   0.187   4.142   4.707 -1.8453  2.3760 -1.5900
 9547TIP3   OH228604   2.045   1.778   4.311  0.1354 -0.2180 -0.1278
 9547TIP3    H128605   2.016   1.728   4.387  0.1990  1.2981  0.9494
 9547TIP3    H228606   1.968   1.827   4.283 -0.1895 -1.5881 -1.7775
 9548TIP3   OH228607   6.235   3.830   4.559 -0.7408 -0.3021  0.0195
 9548TIP3    H128608   6.238   3.907   4.616 -0.5387 -0.2871 -0.0104
 9548TIP3    H228609   6.147   3.793   4.573 -1.3843  0.7461 -1.0497
 9549TIP3   OH228610   4.164   3.854   5.537  0.2052 -0.3319  0.0326
 9549TIP3    H128611   4.153   3.781   5.476  0.4115 -1.4021  1.2475
 9549TIP3    H228612   4.203   3.815   5.615  0.7747  1.1682  0.5305
 9550TIP3   OH228613   3.070   1.748   1.682  0.6247 -0.0555 -0.3454
 9550TIP3    H128614   3.050   1.660   1.650 -0.7377  0.2733 -0.4524
 9550TIP3    H228615   3.094   1.735   1.774 -1.4334 -0.3746  0.2056
 9551TIP3   OH228616   3.878   0.481   0.993  0.0507  0.1125 -0.0143
 9551TIP3    H128617   3.924   0.414   0.942 -0.8275 -1.3472  1.0457
 9551TIP3    H228618   3.916   0.474   1.080 -1.4773 -0.4599  0.6319
 9552TIP3   OH228619   4.492   4.587   5.744 -0.3290  0.1043  0.0769
 9552TIP3    H128620   4.449   4.503   5.728  0.8086 -0.8236  1.6650
 9552TIP3    H228621   4.422   4.651   5.736 -0.9541 -0.7970 -2.6305
 9553TIP3   OH228622   2.814   6.393   2.887  0.4469  0.2664 -0.4040
 9553TIP3    H128623   2.845   6.381   2.976  0.3492  1.7669 -0.1293
 9553TIP3    H228624   2.786   6.485   2.884  0.6844  0.3165 -2.0393
 9554TIP3   OH228625   5.707   2.729   4.044  0.3109 -0.0115 -0.2175
 9554TIP3    H128626   5.735   2.820   4.028 -1.0011  0.4675  0.1380
 9554TIP3    H228627   5.725   2.715   4.137 -1.1277  0.4952  0.1532
 9555TIP3   OH228628   1.609   1.056   5.646  0.0758  0.1776  0.1383
 9555TIP3    H128629   1.520   1.026   5.668  0.3289 -0.1590  0.7307
 9555TIP3    H228630   1.607   1.150   5.661 -0.2611  0.2139 -0.1248
 9556TIP3   OH228631   4.190   5.360   1.722 -0.2050  0.0934  0.5263
 9556TIP3    H128632   4.223   5.425   1.660  0.8526 -0.4468  0.5080
 9556TIP3    H228633   4.125   5.408   1.774 -1.4731  0.4243 -1.2880
 9557TIP3   OH228634   3.335   6.612   2.054 -0.1974  0.1144  0.2962
 9557TIP3    H128635   3.305   6.688   2.004 -1.7279 -0.6757 -0.0549
 9557TIP3    H228636   3.295   6.622   2.141 -1.1409 -0.7044 -0.0221
 9558TIP3   OH228637   5.518   6.618   2.947 -0.2633 -0.0136 -0.0555
 9558TIP3    H128638   5.520   6.708   2.979 -1.8044 -0.4849  1.5623
 9558TIP3    H228639   5.426   6.603   2.924  0.5018 -0.2070 -3.4419
 9559TIP3   OH228640   0.696   5.050   0.515 -0.8189  0.3417 -0.3398
 9559TIP3    H128641   0.609   5.010   0.516 -0.4873 -0.3984 -0.3905
 9559TIP3    H228642   0.756   4.977   0.500  0.0383  0.4407  2.1648
 9560TIP3   OH228643   4.614   3.689   4.110  0.3710  0.2624  0.3492
 9560TIP3    H128644   4.605   3.719   4.020 -0.0686  1.9264  0.9111
 9560TIP3    H228645   4.599   3.767   4.163 -0.0015 -0.8071  1.8864
 9561TIP3   OH228646   1.227   5.886   0.905 -0.4491 -0.5936 -0.0562
 9561TIP3    H128647   1.276   5.955   0.860 -0.5514 -0.7977 -0.4856
 9561TIP3    H228648   1.186   5.930   0.979 -0.8286 -0.1110 -0.5463
 9562TIP3   OH228649   0.368   5.975   1.380 -0.0533 -0.3175 -0.4776
 9562TIP3    H128650   0.286   5.944   1.341 -0.5636 -1.0693  1.1182
 9562TIP3    H228651   0.384   5.915   1.453  1.5661  0.2371 -0.3437
 9563TIP3   OH228652   4.903   2.877   3.384 -0.2915  0.7576  0.0395
 9563TIP3    H128653   4.900   2.858   3.478  2.3113 -0.8245 -0.0750
 9563TIP3    H228654   4.977   2.937   3.374  0.0204  0.2174 -1.0612
 9564TIP3   OH228655   2.457   1.161   4.661 -0.4622  0.3680  0.6496
 9564TIP3    H128656   2.498   1.075   4.666  0.2316  0.5991 -0.6907
 9564TIP3    H228657   2.478   1.202   4.745 -1.8823 -1.1882  1.8360
 9565TIP3   OH228658   3.728   6.741   4.480  0.3432  0.6041 -0.3376
 9565TIP3    H128659   3.761   6.761   4.393  0.9562  1.3776  0.0635
 9565TIP3    H228660   3.682   6.821   4.507 -0.0265  0.2948 -0.0281
 9566TIP3   OH228661   2.212   2.762   3.903 -0.2149  0.8747 -0.5670
 9566TIP3    H128662   2.143   2.755   3.837 -1.4278  0.8189  0.6390
 9566TIP3    H228663   2.165   2.791   3.982  1.1488  0.7615  0.3070
 9567TIP3   OH228664   4.655   3.192   1.264 -0.6688 -0.5241  0.2294
 9567TIP3    H128665   4.652   3.261   1.331  0.1445  0.0846 -0.3396
 9567TIP3    H228666   4.601   3.121   1.300 -1.8752  0.5595  0.6499
 9568TIP3   OH228667   1.100   5.128   5.593  0.3117  0.0088 -0.1279
 9568TIP3    H128668   1.016   5.104   5.555  0.3653  2.0803 -1.7411
 9568TIP3    H228669   1.148   5.045   5.598 -1.5913 -1.1396  0.3702
 9569TIP3   OH228670   6.811   2.552   5.138  0.5737  0.1790  0.3426
 9569TIP3    H128671   6.816   2.627   5.197  0.8538 -0.2488  0.8673
 9569TIP3    H228672   6.719   2.527   5.139  0.8647 -0.9883  2.0839
 9570TIP3   OH228673   4.791   2.242   3.936  0.2529 -0.3737 -0.3163
 9570TIP3    H128674   4.834   2.196   3.864  1.3077  0.0360  0.0284
 9570TIP3    H228675   4.764   2.173   3.996 -0.0214 -0.6715 -0.7817
 9571TIP3   OH228676   6.054   0.392   0.518  0.4888 -0.2986  0.2478
 9571TIP3    H128677   6.058   0.431   0.606  0.2891  1.2711 -0.4084
 9571TIP3    H228678   6.066   0.299   0.533 -0.8934 -0.2368  2.0900
 9572TIP3   OH228679   6.617   0.600   3.148 -0.5477 -0.3207 -0.3570
 9572TIP3    H128680   6.584   0.685   3.176  1.3750  0.3919 -0.0777
 9572TIP3    H228681   6.692   0.621   3.092 -1.0244 -1.8245 -1.6188
 9573TIP3   OH228682   1.742   4.383   2.879  0.2368 -0.2590  0.1565
 9573TIP3    H128683   1.735   4.471   2.841  1.0857  0.3023  1.2662
 9573TIP3    H228684   1.736   4.397   2.973  0.5832 -1.3711  0.3540
 9574TIP3   OH228685   7.093   5.908   2.546 -0.4522  0.1232  0.0025
 9574TIP3    H128686   7.067   5.841   2.483  0.7730 -3.3575  2.8570
 9574TIP3    H228687   7.013   5.929   2.594 -0.7249  0.2341 -0.4966
 9575TIP3   OH228688   5.300   1.655   3.772 -0.4102  0.0001 -0.3818
 9575TIP3    H128689   5.266   1.602   3.701 -1.0532  0.2159 -0.2384
 9575TIP3    H228690   5.270   1.611   3.852 -0.7558  0.4511 -0.2612
 9576TIP3   OH228691   2.287   3.547   5.726 -0.0548  0.2273  0.4966
 9576TIP3    H128692   2.329   3.618   5.679 -0.5734 -0.4481 -1.0609
 9576TIP3    H228693   2.358   3.485   5.745  0.3356  0.9750  1.5529
 9577TIP3   OH228694   3.560   6.510   1.169 -0.1093  0.0180 -0.1917
 9577TIP3    H128695   3.612   6.555   1.235  2.9562 -1.8535 -1.1292
 9577TIP3    H228696   3.476   6.556   1.169 -0.3504  0.0788  4.9635
 9578TIP3   OH228697   4.190   4.968   3.984 -0.0775  0.3721  0.4180
 9578TIP3    H128698   4.253   5.030   3.948 -1.4376  2.1083  0.8573
 9578TIP3    H228699   4.105   4.999   3.954 -1.0011  0.0613  2.4889
 9579TIP3   OH228700   0.982   6.201   3.833  0.8586 -0.4897 -0.2087
 9579TIP3    H128701   0.946   6.201   3.922  0.5781 -0.3898 -0.3213
 9579TIP3    H228702   1.042   6.276   3.832  1.8967 -1.2821  0.3025
 9580TIP3   OH228703   0.217   1.594   4.217 -0.1118  0.0098  0.3731
 9580TIP3    H128704   0.313   1.600   4.221 -0.0997  0.1385 -0.0905
 9580TIP3    H228705   0.188   1.684   4.202 -0.4181  0.3030  2.4115
 9581TIP3   OH228706   1.132   4.093   2.054 -0.1357  0.0309  0.1794
 9581TIP3    H128707   1.051   4.142   2.040  0.6051  1.1711 -0.2640
 9581TIP3    H228708   1.201   4.154   2.031  0.9392 -0.3351  2.2253
 9582TIP3   OH228709   0.207   4.141   1.512 -0.1248  0.0932  0.2068
 9582TIP3    H128710   0.186   4.217   1.568 -2.8959 -1.3806  1.3852
 9582TIP3    H228711   0.258   4.084   1.569  1.3820  0.7157 -0.4682
 9583TIP3   OH228712   1.352   4.901   1.688  0.1154  0.0076  0.2062
 9583TIP3    H128713   1.294   4.857   1.750  1.9239 -1.0772  1.1941
 9583TIP3    H228714   1.417   4.945   1.743  0.9594  0.1632 -0.8830
 9584TIP3   OH228715   4.480   4.295   4.791  0.3684  0.5015  0.0739
 9584TIP3    H128716   4.421   4.320   4.862  0.0132 -1.3406  0.4903
 9584TIP3    H228717   4.509   4.207   4.814  2.4215  0.9066 -0.6960
 9585TIP3   OH228718   5.899   0.245   1.590 -0.2984 -0.0515 -0.6270
 9585TIP3    H128719   5.931   0.273   1.505  0.2064 -1.6315 -1.0025
 9585TIP3    H228720   5.948   0.297   1.654 -0.0536  0.5272 -1.2850
 9586TIP3   OH228721   2.729   6.102   1.265 -0.2010  0.0943 -0.2831
 9586TIP3    H128722   2.692   6.084   1.179 -3.2923 -1.9778  1.3202
 9586TIP3    H228723   2.685   6.181   1.295 -0.3104 -0.0637 -0.0155
 9587TIP3   OH228724   2.147   2.453   3.096  0.0903 -0.1437  0.6234
 9587TIP3    H128725   2.113   2.372   3.135 -2.0090 -0.3487 -1.4286
 9587TIP3    H228726   2.071   2.511   3.093  0.8886  0.8778 -0.4818
 9588TIP3   OH228727   2.055   6.189   4.690  0.3976  0.0989 -1.0200
 9588TIP3    H128728   2.092   6.132   4.623 -0.2292 -0.5627 -0.8225
 9588TIP3    H228729   2.096   6.160   4.772  0.5859  0.3820 -1.0163
 9589TIP3   OH228730   0.309   4.479   1.486  0.7506  0.7999 -0.7878
 9589TIP3    H128731   0.279   4.539   1.555  0.7440 -0.4204  0.3171
 9589TIP3    H228732   0.235   4.473   1.426  0.1324  0.6473 -0.0278
 9590TIP3   OH228733   4.122   1.890   4.595  0.4735  0.2748 -0.1164
 9590TIP3    H128734   4.100   1.798   4.605  0.9753  0.0302 -1.0860
 9590TIP3    H228735   4.198   1.890   4.536  1.1514  1.2436  0.7143
 9591TIP3   OH228736   0.604   2.559   1.274  0.2115 -0.0785 -0.5519
 9591TIP3    H128737   0.584   2.474   1.315 -2.0254  0.0714 -1.1974
 9591TIP3    H228738   0.547   2.563   1.198 -0.5602  2.4579  0.0581
 9592TIP3   OH228739   2.519   0.661   5.449  0.2211 -0.0726  0.4612
 9592TIP3    H128740   2.461   0.637   5.522 -0.1165  0.9063  0.5247
 9592TIP3    H228741   2.570   0.734   5.482  0.3081  0.1548 -0.1757
 9593TIP3   OH228742   2.439   0.404   4.432  0.2447  0.1981 -0.0828
 9593TIP3    H128743   2.376   0.424   4.502  0.8181 -3.1453  1.6130
 9593TIP3    H228744   2.513   0.365   4.477  0.5319 -2.3842 -2.5245
 9594TIP3   OH228745   4.541   5.103   5.628 -0.2340 -0.0464 -0.0780
 9594TIP3    H128746   4.459   5.130   5.669  0.5141  1.3907  0.5330
 9594TIP3    H228747   4.608   5.123   5.693  0.5638 -1.8743 -0.2721
 9595TIP3   OH228748   0.829   1.621   4.940  0.0379  0.1685  0.1234
 9595TIP3    H128749   0.805   1.533   4.969  1.3541 -0.2479 -0.0076
 9595TIP3    H228750   0.748   1.672   4.950 -0.4679 -0.7989  1.1795
 9596TIP3   OH228751  -0.013   4.537   2.068 -0.2051 -0.1860  0.0788
 9596TIP3    H128752   0.001   4.461   2.125  4.1726 -1.3915 -2.1493
 9596TIP3    H228753   0.029   4.610   2.113 -0.8005 -0.0215  0.3812
 9597TIP3   OH228754   0.597   2.651   2.802 -0.0476 -0.2838 -0.3157
 9597TIP3    H128755   0.568   2.710   2.870  1.7900 -1.2370  1.3914
 9597TIP3    H228756   0.522   2.592   2.787 -0.3818 -0.2439  1.1011
 9598TIP3   OH228757   3.058   4.580   0.919  0.3613  0.4964  0.0140
 9598TIP3    H128758   3.057   4.511   0.985  2.6912 -0.0436 -0.4187
 9598TIP3    H228759   3.023   4.539   0.840 -1.2854  0.7892  0.5710
 9599TIP3   OH228760   5.120   3.534   1.760  0.1868 -0.4303 -0.1299
 9599TIP3    H128761   5.139   3.458   1.706  1.0127 -1.0463  0.9845
 9599TIP3    H228762   5.202   3.583   1.761 -0.0397 -0.0533 -0.0153
 9600TIP3   OH228763   3.648   0.244   4.303  0.2417 -0.4435  0.0701
 9600TIP3    H128764   3.574   0.297   4.274  0.1313 -0.9145 -0.5423
 9600TIP3    H228765   3.712   0.308   4.334  0.3170  0.0939 -1.1285
 9601TIP3   OH228766   0.120   6.164   2.983  0.0565  0.1942  0.2783
 9601TIP3    H128767   0.141   6.135   2.894  0.5739  1.6387 -0.0983
 9601TIP3    H228768   0.145   6.090   3.038 -0.7601 -0.9307 -0.8081
 9602TIP3   OH228769   6.599   6.393   1.933 -0.2229 -0.0135  0.6243
 9602TIP3    H128770   6.682   6.432   1.907 -0.2045 -0.0198  0.6723
 9602TIP3    H228771   6.532   6.450   1.895 -0.2009 -0.5192 -0.1840
 9603TIP3   OH228772   2.485   1.055   1.011  0.1613  0.0737  0.9159
 9603TIP3    H128773   2.493   0.964   1.040  1.7296  0.1367  0.8035
 9603TIP3    H228774   2.575   1.087   1.008 -0.3078  1.4341  0.3088
 9604TIP3   OH228775   6.879   3.116   1.928 -0.1984  0.1162 -0.3913
 9604TIP3    H128776   6.891   3.196   1.978 -1.1243 -1.0548  1.8689
 9604TIP3    H228777   6.798   3.130   1.878  0.1862  0.9344 -0.7896
 9605TIP3   OH228778   6.703   0.372   3.637 -0.2906 -0.3008  0.5377
 9605TIP3    H128779   6.652   0.421   3.572 -0.1222  0.2491  0.8113
 9605TIP3    H228780   6.793   0.373   3.602 -0.2347 -0.1663  0.6853
 9606TIP3   OH228781   3.889   1.972   0.847 -0.5632 -0.1607 -0.3155
 9606TIP3    H128782   3.934   2.003   0.769  2.0524 -0.1014  1.0839
 9606TIP3    H228783   3.863   1.883   0.826 -0.1474 -0.0496 -1.3513
 9607TIP3   OH228784   1.437   0.319   4.196  0.3365  0.0707 -0.1402
 9607TIP3    H128785   1.406   0.340   4.284  1.4413  0.5959  0.1428
 9607TIP3    H228786   1.378   0.366   4.137 -1.2294 -1.3425  0.2491
 9608TIP3   OH228787   3.096   5.118   5.127 -0.1507  0.3563  0.0141
 9608TIP3    H128788   3.191   5.103   5.129 -0.0819  0.8061  0.1020
 9608TIP3    H228789   3.071   5.122   5.220 -0.0353  1.6272  0.0015
 9609TIP3   OH228790   5.298   4.348   3.163 -0.1409 -0.4073  0.1845
 9609TIP3    H128791   5.394   4.348   3.158  0.0307 -1.2462  2.4756
 9609TIP3    H228792   5.270   4.394   3.083  2.2325  2.1141  0.6624
 9610TIP3   OH228793   0.195   0.368   5.257 -0.0917 -0.5727 -0.5412
 9610TIP3    H128794   0.130   0.298   5.257  0.0356 -0.7029 -1.3848
 9610TIP3    H228795   0.153   0.440   5.305 -0.7471 -0.7640 -0.8103
 9611TIP3   OH228796   0.967   0.994   5.381  0.3179 -0.5568  0.2135
 9611TIP3    H128797   1.056   1.029   5.386  0.6729 -1.0902 -1.4489
 9611TIP3    H228798   0.916   1.047   5.442  1.5205  0.6019  0.2567
 9612TIP3   OH228799   1.017   4.816   3.969  1.0477 -0.6529  0.2701
 9612TIP3    H128800   1.027   4.744   4.032  0.5599 -1.4852 -0.5900
 9612TIP3    H228801   0.941   4.865   4.000 -0.5365 -2.3293 -0.8704
 9613TIP3   OH228802   6.907   0.171   4.869  0.1297  0.4247  0.1879
 9613TIP3    H128803   6.829   0.198   4.820 -0.4210 -0.7158  0.3844
 9613TIP3    H228804   6.960   0.124   4.805  0.3471  0.6396  0.2110
 9614TIP3   OH228805   0.130   5.682   2.197  0.1673  0.0062  0.1558
 9614TIP3    H128806   0.204   5.707   2.252  0.1758 -0.4002  0.3284
 9614TIP3    H228807   0.148   5.592   2.170  0.1453  0.1927 -0.4881
 9615TIP3   OH228808   5.010   5.033   5.798  0.0457 -0.5305 -0.2711
 9615TIP3    H128809   5.037   4.944   5.820 -0.5597 -0.5075  0.6267
 9615TIP3    H228810   4.937   5.022   5.737 -1.1697 -0.7105  1.1671
 9616TIP3   OH228811   2.307   2.313   1.025  0.0643  0.0823 -0.4368
 9616TIP3    H128812   2.326   2.283   0.936  0.9532  0.4437 -0.3748
 9616TIP3    H228813   2.367   2.386   1.039  1.0934 -1.0042  1.0571
 9617TIP3   OH228814   4.544   5.129   5.102 -0.0681 -0.5241  0.4471
 9617TIP3    H128815   4.499   5.213   5.102 -0.9110 -0.9535 -0.2191
 9617TIP3    H228816   4.473   5.064   5.106  0.4919 -1.2199 -0.4806
 9618TIP3   OH228817   5.003   1.714   0.072 -0.3523 -0.6543 -0.4137
 9618TIP3    H128818   4.964   1.647   0.128 -1.8496  0.2149 -0.3706
 9618TIP3    H228819   4.935   1.780   0.062  0.5221  0.0947 -1.7854
 9619TIP3   OH228820   4.407   0.796   2.954  0.5800 -0.0859  0.2022
 9619TIP3    H128821   4.374   0.776   3.041  0.7699  1.2588  0.6042
 9619TIP3    H228822   4.502   0.798   2.964  0.5936  0.2594  0.0042
 9620TIP3   OH228823   0.303   3.460   2.005 -0.0231 -0.4095 -0.2081
 9620TIP3    H128824   0.289   3.483   1.913  1.2184 -0.3829 -0.4017
 9620TIP3    H228825   0.323   3.544   2.047  1.1712 -0.6513 -0.2670
 9621TIP3   OH228826   2.020   5.468   3.594 -0.6094 -0.2751  0.3037
 9621TIP3    H128827   1.952   5.403   3.611  0.3910 -0.9490  1.9150
 9621TIP3    H228828   2.036   5.462   3.500 -1.9410 -0.9234  0.0962
 9622TIP3   OH228829   4.188   0.625   3.152 -0.8119 -0.0596 -0.2894
 9622TIP3    H128830   4.263   0.612   3.210 -1.0681 -1.9027 -0.3200
 9622TIP3    H228831   4.223   0.612   3.064 -0.8873  0.5031 -0.4073
 9623TIP3   OH228832   2.487   3.119   4.596  0.1222 -0.1705  0.1366
 9623TIP3    H128833   2.431   3.086   4.666  0.3527 -1.7977 -0.4013
 9623TIP3    H228834   2.427   3.141   4.525  0.0421 -0.5613  0.0791
 9624TIP3   OH228835   2.485   0.709   2.217  0.4807 -0.5608  0.3215
 9624TIP3    H128836   2.516   0.760   2.142  2.6511 -0.1808  1.3942
 9624TIP3    H228837   2.414   0.656   2.182  0.3434  0.7848 -1.6113
 9625TIP3   OH228838   1.599   0.561   4.032 -0.0168 -0.7666 -0.9756
 9625TIP3    H128839   1.553   0.643   4.012 -0.0454 -0.4117  0.4389
 9625TIP3    H228840   1.561   0.532   4.115 -0.5552 -2.6461 -1.8327
 9626TIP3   OH228841   0.596   2.781   5.689 -0.2797 -0.2497  0.5240
 9626TIP3    H128842   0.536   2.855   5.696  0.0637  0.1564 -0.6205
 9626TIP3    H228843   0.542   2.705   5.712 -1.7967 -0.1275 -2.1672
 9627TIP3   OH228844   2.071   0.795   5.605  0.3709 -0.2853  0.1755
 9627TIP3    H128845   2.025   0.874   5.634  3.1265  1.7690 -0.6592
 9627TIP3    H228846   2.069   0.799   5.510  0.1615 -1.4679  0.1213
 9628TIP3   OH228847   6.667   6.527   2.497 -0.3571  0.6126 -0.3090
 9628TIP3    H128848   6.760   6.550   2.495 -0.1592  0.3784  2.3471
 9628TIP3    H228849   6.659   6.468   2.573 -2.2157 -1.6493 -2.0983
 9629TIP3   OH228850   6.512   5.626   0.653  0.6329  0.0781 -0.3621
 9629TIP3    H128851   6.475   5.673   0.727  2.4300  0.4822  0.3202
 9629TIP3    H228852   6.563   5.692   0.606 -0.6130 -0.1182 -2.1044
 9630TIP3   OH228853   3.849   6.390   3.457  0.6293 -0.6422 -0.3102
 9630TIP3    H128854   3.853   6.372   3.363  2.8891 -1.4894 -0.1016
 9630TIP3    H228855   3.912   6.461   3.470  1.8900 -1.9021  0.8048
 9631TIP3   OH228856   0.750   1.174   0.895  0.1966 -0.1319  0.3505
 9631TIP3    H128857   0.723   1.086   0.921 -0.5596  0.1128  0.4250
 9631TIP3    H228858   0.769   1.167   0.802 -0.5816 -0.2161  0.1936
 9632TIP3   OH228859   3.068   3.370   3.644  0.0464 -0.8466  0.8250
 9632TIP3    H128860   3.096   3.461   3.652 -0.3823 -0.8124  1.9504
 9632TIP3    H228861   3.115   3.324   3.713 -1.4023 -1.0852  1.6860
 9633TIP3   OH228862   0.332   3.757   0.159  0.5851 -0.1581  0.2291
 9633TIP3    H128863   0.273   3.701   0.207  1.3364 -0.6075  0.6390
 9633TIP3    H228864   0.406   3.771   0.218  1.7040 -1.0406 -0.9201
 9634TIP3   OH228865   6.729   2.571   0.418  0.2524  0.7651  0.0089
 9634TIP3    H128866   6.674   2.601   0.490  1.3767  3.4628 -0.1475
 9634TIP3    H228867   6.673   2.579   0.340 -0.2383  0.0370  0.2805
 9635TIP3   OH228868   1.925   2.339   2.700 -0.0575  0.3122 -0.2333
 9635TIP3    H128869   2.007   2.368   2.740 -0.8218  1.0195  0.8849
 9635TIP3    H228870   1.874   2.304   2.774 -1.1548  0.8113 -0.7389
 9636TIP3   OH228871   5.231   0.992   0.886 -0.0609 -0.3369  0.0383
 9636TIP3    H128872   5.307   0.941   0.915  0.7166  0.4950 -0.4821
 9636TIP3    H228873   5.200   0.947   0.808 -0.3729 -0.9246  0.4946
 9637TIP3   OH228874   3.751   3.139   0.627  0.0746  0.0994 -0.6659
 9637TIP3    H128875   3.769   3.046   0.619 -0.3481 -0.2336  1.6529
 9637TIP3    H228876   3.656   3.145   0.638 -0.0300  0.9178 -1.7840
 9638TIP3   OH228877   6.683   3.076   5.412  0.0730  0.3814  0.0699
 9638TIP3    H128878   6.771   3.101   5.382 -0.7016  1.3619 -1.4855
 9638TIP3    H228879   6.664   2.995   5.366  0.2807 -0.0184  0.6747
 9639TIP3   OH228880   4.047   5.236   4.145 -0.1893 -0.6478  0.0554
 9639TIP3    H128881   3.953   5.245   4.163 -0.5959 -1.9754 -1.2827
 9639TIP3    H228882   4.053   5.176   4.072  1.7467 -0.8230  0.2894
 9640TIP3   OH228883   6.640   4.394   3.794 -0.2099 -0.2204 -0.3624
 9640TIP3    H128884   6.581   4.372   3.722 -0.2942  0.6791 -0.5815
 9640TIP3    H228885   6.600   4.355   3.872 -0.2696 -0.9468 -0.7554
 9641TIP3   OH228886   5.389   5.890   4.438 -0.4151  0.4697  0.1424
 9641TIP3    H128887   5.335   5.963   4.408 -0.7618 -0.4460 -1.6205
 9641TIP3    H228888   5.351   5.813   4.395  0.7322 -0.5568  0.9038
 9642TIP3   OH228889   5.574   0.433   2.914  0.6053 -0.1442  0.0874
 9642TIP3    H128890   5.581   0.415   2.820  1.5041 -0.3258  0.1719
 9642TIP3    H228891   5.588   0.348   2.956  1.2587  0.1046  0.4000
 9643TIP3   OH228892   2.006   5.194   1.021  0.1053  0.6820 -0.4813
 9643TIP3    H128893   2.066   5.202   0.948 -0.2064  2.3420 -0.5888
 9643TIP3    H228894   1.922   5.172   0.981 -0.0357  1.4578 -0.6302
 9644TIP3   OH228895   1.103   4.598   3.254 -0.5371 -0.3706 -0.5686
 9644TIP3    H128896   1.178   4.570   3.202 -0.9462 -0.3866 -1.1589
 9644TIP3    H228897   1.071   4.519   3.297  0.1771 -0.2512  0.2155
 9645TIP3   OH228898   3.499   1.865   5.341 -0.0386  0.3927  0.2354
 9645TIP3    H128899   3.516   1.836   5.431  0.6089  0.3747  0.1133
 9645TIP3    H228900   3.413   1.907   5.345  0.1280  0.6868  0.9336
 9646TIP3   OH228901   6.756   3.562   1.822 -0.2079  0.4090 -0.8670
 9646TIP3    H128902   6.779   3.540   1.912 -0.9505  0.6242 -0.6158
 9646TIP3    H228903   6.833   3.607   1.788  0.2808 -0.1458 -0.5129
 9647TIP3   OH228904   0.372   6.436   2.113 -0.8438  0.7668 -0.2022
 9647TIP3    H128905   0.373   6.341   2.106  2.3180  0.8170 -2.7693
 9647TIP3    H228906   0.344   6.466   2.026 -0.6995  2.1732  0.2039
 9648TIP3   OH228907   6.191   6.168   0.163  0.3882  0.3414  0.3742
 9648TIP3    H128908   6.147   6.089   0.132 -0.2228  0.7419  0.2045
 9648TIP3    H228909   6.120   6.229   0.182  0.8880  1.1816 -0.3823
 9649TIP3   OH228910   1.313   0.007   2.487 -0.3754 -0.1802  0.4355
 9649TIP3    H128911   1.349   0.068   2.423  0.1630 -0.9458 -0.0175
 9649TIP3    H228912   1.361  -0.075   2.472 -1.2781 -0.8047  0.8191
 9650TIP3   OH228913   2.682   5.986   3.626  0.0931 -0.0502  0.0892
 9650TIP3    H128914   2.721   6.003   3.541  0.1737  1.2869  0.3594
 9650TIP3    H228915   2.750   6.011   3.689  0.6595 -2.5964  0.5884
 9651TIP3   OH228916   4.180   1.484   5.008  0.3487 -0.5453  0.1325
 9651TIP3    H128917   4.093   1.465   4.975  0.1446  0.5144  0.0163
 9651TIP3    H228918   4.237   1.421   4.964 -0.3069 -1.0469 -0.0180
 9652TIP3   OH228919   5.541   4.831   0.280 -0.0185  0.0624  0.3019
 9652TIP3    H128920   5.448   4.835   0.303 -0.3427 -0.3606 -0.8654
 9652TIP3    H228921   5.583   4.891   0.341 -0.6081 -2.0325  2.9224
 9653TIP3   OH228922   1.360   3.903   0.006 -0.7165 -0.1719  0.2786
 9653TIP3    H128923   1.265   3.910   0.010 -0.5751  1.7803  1.7281
 9653TIP3    H228924   1.392   3.973   0.062  1.5790 -1.8951  1.3122
 9654TIP3   OH228925   3.750   5.543   0.933  0.3024 -0.2288  0.1520
 9654TIP3    H128926   3.799   5.464   0.910  0.9051  0.0332  0.5313
 9654TIP3    H228927   3.676   5.511   0.985  0.4436 -0.5561  0.1550
 9655TIP3   OH228928   2.465   2.586   4.145  0.0358 -1.1459  0.8508
 9655TIP3    H128929   2.476   2.546   4.058 -1.8903  0.1610 -0.0491
 9655TIP3    H228930   2.376   2.562   4.171  0.1170 -0.3874  1.8695
 9656TIP3   OH228931   7.086   5.851   3.942 -0.7960  0.1726  0.1459
 9656TIP3    H128932   7.063   5.887   3.856 -0.2061  0.8401  0.2652
 9656TIP3    H228933   7.003   5.815   3.975 -1.1239  0.2996 -0.5052
 9657TIP3   OH228934   5.286   2.006   2.848  0.0812 -0.1520 -0.1671
 9657TIP3    H128935   5.311   1.920   2.816 -1.4546 -1.1424  1.0740
 9657TIP3    H228936   5.325   2.011   2.936 -1.5611 -0.5251  0.6233
 9658TIP3   OH228937   5.137   2.900   3.696 -0.0396 -0.1415  0.7112
 9658TIP3    H128938   5.146   2.838   3.624 -1.0044 -0.5226  0.9040
 9658TIP3    H228939   5.194   2.866   3.765  0.9324  0.2564  0.1182
 9659TIP3   OH228940   1.300   1.463   2.316  0.2372 -0.1891  0.3342
 9659TIP3    H128941   1.329   1.425   2.233  0.7040 -0.8562  0.7955
 9659TIP3    H228942   1.381   1.496   2.357  0.1133 -0.5207  0.8543
 9660TIP3   OH228943   6.695   2.372   2.348 -0.1055 -0.0986 -0.2461
 9660TIP3    H128944   6.653   2.295   2.309  0.2630  0.2420 -1.3374
 9660TIP3    H228945   6.661   2.375   2.438  0.2022 -1.7828 -0.0413
 9661TIP3   OH228946   2.862   1.168   5.439  0.9029 -0.6644  0.1534
 9661TIP3    H128947   2.948   1.210   5.432  1.7825 -2.5658 -1.0567
 9661TIP3    H228948   2.820   1.186   5.355  0.3352 -0.2682  0.5119
 9662TIP3   OH228949   2.656   6.362   4.727  0.1360  0.1840 -0.2230
 9662TIP3    H128950   2.694   6.409   4.801 -0.8566  0.0038  0.4180
 9662TIP3    H228951   2.730   6.319   4.685  0.6610 -0.0455  0.9110
 9663TIP3   OH228952   6.667   3.555   5.811 -0.0584 -0.4831 -0.1511
 9663TIP3    H128953   6.687   3.462   5.826 -0.7298 -0.6029  0.0192
 9663TIP3    H228954   6.578   3.566   5.844  0.1124  0.2872  0.0736
 9664TIP3   OH228955   6.095   0.486   5.429  0.6977  0.1696 -0.1121
 9664TIP3    H128956   6.091   0.395   5.458  1.2872  0.5371  1.2049
 9664TIP3    H228957   6.164   0.487   5.362 -0.3290 -0.5983 -1.2305
 9665TIP3   OH228958   3.636   0.623   5.019 -0.1812 -0.7370  0.3437
 9665TIP3    H128959   3.574   0.695   5.008  0.4003 -0.0271  1.5287
 9665TIP3    H228960   3.593   0.548   4.977 -1.3652 -0.0123  0.2136
 9666TIP3   OH228961   0.804   2.189   1.274 -0.3857  0.3787  0.4680
 9666TIP3    H128962   0.867   2.235   1.330  0.8299  1.4486 -1.6505
 9666TIP3    H228963   0.730   2.170   1.332  0.2773  2.4621  2.1433
 9667TIP3   OH228964   4.659   6.082   0.816 -0.1739  0.0438 -0.1840
 9667TIP3    H128965   4.620   6.036   0.891  0.5847 -1.1630 -0.5140
 9667TIP3    H228966   4.753   6.079   0.833 -0.0613  0.6573 -0.6930
 9668TIP3   OH228967   2.978   1.825   4.220  0.1046 -0.1190 -0.1840
 9668TIP3    H128968   2.953   1.898   4.276  0.3759  0.9453 -1.4018
 9668TIP3    H228969   3.055   1.787   4.263  1.3838  1.7542 -0.6673
 9669TIP3   OH228970   6.289   0.516   0.564  0.3479 -0.3124  0.3877
 9669TIP3    H128971   6.299   0.608   0.539 -0.1922 -0.6033 -0.9899
 9669TIP3    H228972   6.207   0.488   0.523  1.5201 -1.9574 -1.0111
 9670TIP3   OH228973   3.822   1.579   1.373 -0.0865  0.3526 -0.3663
 9670TIP3    H128974   3.849   1.507   1.429  1.0726  0.3748 -0.8705
 9670TIP3    H228975   3.731   1.595   1.397  0.3235  0.2549  1.3893
 9671TIP3   OH228976   5.563   1.791   1.912 -0.4462  0.0437  0.1023
 9671TIP3    H128977   5.650   1.821   1.888  0.0923 -1.8866 -0.5305
 9671TIP3    H228978   5.573   1.753   1.999 -0.5571 -0.5864 -0.1583
 9672TIP3   OH228979   0.050   2.295   1.643  0.4577  0.5540 -0.1475
 9672TIP3    H128980   0.081   2.383   1.623 -0.0654  0.8582  0.3452
 9672TIP3    H228981  -0.035   2.308   1.683  1.3167 -0.0221  2.0114
 9673TIP3   OH228982   5.148   0.242   4.510 -1.0548 -0.2878 -0.1905
 9673TIP3    H128983   5.130   0.299   4.435 -1.0702  0.2395  0.2093
 9673TIP3    H228984   5.067   0.193   4.523 -1.8042  1.1167  0.7703
 9674TIP3   OH228985   0.876   5.803   1.953  0.2448 -0.5149 -0.6368
 9674TIP3    H128986   0.918   5.730   1.907  1.4965 -0.1179 -0.1726
 9674TIP3    H228987   0.792   5.814   1.909 -0.5648 -3.0492  0.1009
 9675TIP3   OH228988   6.211   3.631   0.966  0.9225 -0.0754  0.2636
 9675TIP3    H128989   6.242   3.722   0.968 -1.1176  0.6546  0.6705
 9675TIP3    H228990   6.229   3.602   0.877  1.1506  0.8998 -0.0232
 9676TIP3   OH228991   6.748   2.261   1.535 -0.2694 -0.0497  0.4619
 9676TIP3    H128992   6.835   2.253   1.495 -0.4590 -0.6022  0.1473
 9676TIP3    H228993   6.760   2.228   1.624 -0.2498 -0.5252  0.2849
 9677TIP3   OH228994   4.108   2.382   4.492 -0.3571 -0.0626 -0.1971
 9677TIP3    H128995   4.034   2.324   4.513  0.1361 -0.6057  0.0991
 9677TIP3    H228996   4.180   2.322   4.473  0.3625  0.4430  0.8240
 9678TIP3   OH228997   0.592   4.240   3.388  0.4052 -0.9510 -0.2437
 9678TIP3    H128998   0.628   4.278   3.308  1.2346  0.2576  0.6744
 9678TIP3    H228999   0.582   4.313   3.448  1.8960 -2.0864  1.5237
 9679TIP3   OH229000   2.234   5.499   1.112 -0.2661  0.5147 -0.0827
 9679TIP3    H129001   2.264   5.455   1.033  0.1931 -1.7743  1.2774
 9679TIP3    H229002   2.139   5.505   1.102 -1.1724 -5.2123  1.4975
 9680TIP3   OH229003   5.865   3.954   2.798  0.0018 -0.2947  0.1352
 9680TIP3    H129004   5.773   3.961   2.825  0.2841 -0.5438  1.1842
 9680TIP3    H229005   5.913   3.939   2.879  0.9476 -0.4435 -0.4396
 9681TIP3   OH229006   1.159   4.307   5.760  0.7048 -0.0096 -0.3003
 9681TIP3    H129007   1.170   4.215   5.733  0.4475 -0.4106  0.9220
 9681TIP3    H229008   1.234   4.324   5.817  1.8464  1.1686 -2.0692
 9682TIP3   OH229009   2.918   5.837   2.504  0.2377 -0.5032 -0.8594
 9682TIP3    H129010   2.863   5.914   2.522  0.3787 -0.2274 -1.6043
 9682TIP3    H229011   2.916   5.788   2.586  1.4737  1.1210  0.2093
 9683TIP3   OH229012   6.142   2.408   5.716 -0.3935 -0.1652  0.3072
 9683TIP3    H129013   6.203   2.459   5.770 -1.2266 -1.3130  2.4929
 9683TIP3    H229014   6.055   2.439   5.742 -0.8479  1.0266 -2.3220
 9684TIP3   OH229015   2.913   1.096   2.467  0.0020 -0.0364 -0.0691
 9684TIP3    H129016   2.898   1.026   2.405 -0.7432 -0.2543  0.3438
 9684TIP3    H229017   2.904   1.176   2.416  1.6133 -0.2400 -0.7018
 9685TIP3   OH229018   6.676   3.936   1.242  0.1834  0.1900 -0.3631
 9685TIP3    H129019   6.675   3.847   1.278 -1.8810 -1.2922 -3.6015
 9685TIP3    H229020   6.618   3.985   1.300 -0.0773 -1.0308  0.4602
 9686TIP3   OH229021   4.367   2.661   1.926  0.3270  0.3959 -0.6241
 9686TIP3    H129022   4.404   2.749   1.922  1.4432  0.1124  1.9045
 9686TIP3    H229023   4.371   2.629   1.836  2.0540  2.0678 -1.2039
 9687TIP3   OH229024   2.401   0.037   0.522  0.1429 -0.8512 -0.0514
 9687TIP3    H129025   2.340   0.092   0.573  0.5268  0.6512 -1.1398
 9687TIP3    H229026   2.344  -0.024   0.475 -0.7522  1.2973 -1.9888
 9688TIP3   OH229027   3.899   0.845   3.110  0.2511  0.4113 -0.3887
 9688TIP3    H129028   3.945   0.889   3.181 -1.5648  0.7874  0.6125
 9688TIP3    H229029   3.967   0.794   3.065  1.5036  0.4034  1.4243
 9689TIP3   OH229030   2.362   4.731   3.032 -0.6551  0.4548  0.5897
 9689TIP3    H129031   2.445   4.713   3.076 -0.7477 -1.4738  0.0707
 9689TIP3    H229032   2.372   4.820   2.999  1.0601  0.4105  0.8597
 9690TIP3   OH229033   5.418   4.236   0.356 -0.0435 -0.4192  0.1333
 9690TIP3    H129034   5.484   4.199   0.414  0.5497 -0.8925 -0.8183
 9690TIP3    H229035   5.439   4.200   0.270  2.0589  3.8518 -1.4250
 9691TIP3   OH229036   6.873   5.585   2.617 -0.5907  0.4745 -0.3837
 9691TIP3    H129037   6.928   5.562   2.692  0.4878  0.6426 -1.1016
 9691TIP3    H229038   6.786   5.598   2.654  0.1395  1.6287  1.0043
 9692TIP3   OH229039   6.727   1.191   4.279  0.0216  0.5409 -0.0435
 9692TIP3    H129040   6.802   1.133   4.293 -1.1074 -0.6224  1.5970
 9692TIP3    H229041   6.747   1.269   4.331 -0.0429  0.0977  0.6538
 9693TIP3   OH229042   6.195   6.777   5.344  0.4396 -0.1759  0.3224
 9693TIP3    H129043   6.267   6.734   5.389  1.1957  2.3756  1.7963
 9693TIP3    H229044   6.118   6.757   5.397  0.6145 -0.4724  0.4670
 9694TIP3   OH229045   1.211   4.111   0.946 -0.2974  0.1612 -0.0857
 9694TIP3    H129046   1.281   4.049   0.928  1.4920  1.0929  3.0377
 9694TIP3    H229047   1.176   4.085   1.031 -1.3448  1.8458  0.0521
 9695TIP3   OH229048   5.113   5.628   4.774  0.1032 -0.2791 -0.0369
 9695TIP3    H129049   5.199   5.619   4.733  0.7125 -0.1062  1.1486
 9695TIP3    H229050   5.131   5.620   4.868 -0.8199  2.0367  0.4072
 9696TIP3   OH229051   2.303   3.184   1.902  0.3358  0.7268 -0.8092
 9696TIP3    H129052   2.382   3.164   1.953  0.0896  0.6436 -0.4526
 9696TIP3    H229053   2.288   3.104   1.851  0.9998  1.0781 -1.5731
 9697TIP3   OH229054   4.346   3.634   0.778 -0.0767 -0.1192 -0.4134
 9697TIP3    H129055   4.318   3.590   0.698 -1.5632  2.7651 -1.6217
 9697TIP3    H229056   4.392   3.713   0.748  0.2428  0.5253  1.5717
 9698TIP3   OH229057   0.020   4.269   1.941  0.3210  0.3213 -0.3512
 9698TIP3    H129058   0.024   4.261   1.845  1.4902  1.0849 -0.3851
 9698TIP3    H229059   0.030   4.180   1.973 -0.8618 -0.0568 -0.9354
 9699TIP3   OH229060   2.905   1.547   1.153  0.0309 -0.1022 -0.0027
 9699TIP3    H129061   2.913   1.455   1.176 -1.1037 -0.2322 -0.0590
 9699TIP3    H229062   2.987   1.587   1.182  1.3268 -1.4461 -1.6156
 9700TIP3   OH229063   6.370   3.218   1.819  0.1569  0.6755  0.0786
 9700TIP3    H129064   6.376   3.310   1.794  0.3091  0.6559  0.0432
 9700TIP3    H229065   6.285   3.211   1.863  0.0559  0.7889 -0.0967
 9701TIP3   OH229066   2.819   0.735   3.245  0.4019 -0.1994 -0.0687
 9701TIP3    H129067   2.780   0.819   3.219  1.9695  0.4105 -0.5478
 9701TIP3    H229068   2.826   0.741   3.340  0.9755  0.4335 -0.1434
 9702TIP3   OH229069   1.589   5.877   5.280  0.1479  0.5592  0.7666
 9702TIP3    H129070   1.496   5.884   5.302 -0.2005 -2.3874  0.6163
 9702TIP3    H229071   1.634   5.925   5.350 -1.4541  3.1358  0.1667
 9703TIP3   OH229072   2.731   0.401   4.472 -0.2824  0.0237  0.1911
 9703TIP3    H129073   2.738   0.427   4.381 -1.3714  2.5310  0.7405
 9703TIP3    H229074   2.807   0.344   4.487  0.2898  0.1155 -2.0654
 9704TIP3   OH229075   5.095   6.585   1.166 -0.0957  0.4608 -0.7463
 9704TIP3    H129076   5.151   6.609   1.091 -0.3614  1.7633 -0.5567
 9704TIP3    H229077   5.142   6.513   1.208  1.0577  0.9940 -1.0574
 9705TIP3   OH229078   6.479   6.233   4.587 -0.4012  0.3599 -0.3216
 9705TIP3    H129079   6.385   6.215   4.573 -0.1255 -0.1196 -1.7635
 9705TIP3    H229080   6.514   6.150   4.620 -0.5061  0.5924  0.3886
 9706TIP3   OH229081   6.949   4.361   3.557  0.2056 -0.1005  0.1522
 9706TIP3    H129082   6.860   4.334   3.536  0.3114  0.2386 -0.7548
 9706TIP3    H229083   6.971   4.426   3.491  0.9084  0.2727  0.7382
 9707TIP3   OH229084   4.072   2.409   0.692  0.2364 -0.0365  0.3999
 9707TIP3    H129085   4.006   2.447   0.634  1.3090  1.0260 -0.1639
 9707TIP3    H229086   4.025   2.341   0.740 -1.0847  0.1937 -0.5088
 9708TIP3   OH229087   1.499   6.559   4.500 -0.2554  0.6745 -0.5354
 9708TIP3    H129088   1.458   6.645   4.491  0.1838  1.0224  0.5931
 9708TIP3    H229089   1.591   6.579   4.520 -0.2782 -0.0369  0.3263
 9709TIP3   OH229090   0.219   2.501   4.581  0.6502 -0.4836  0.0913
 9709TIP3    H129091   0.220   2.597   4.575  1.3266 -0.5377 -0.8453
 9709TIP3    H229092   0.176   2.483   4.665  1.0257  0.6493  0.5450
 9710TIP3   OH229093   4.794   0.896   0.622 -0.0084 -0.3877  0.1023
 9710TIP3    H129094   4.765   0.820   0.572 -2.0327 -1.5341  2.7703
 9710TIP3    H229095   4.717   0.952   0.627  0.2338 -0.1291  1.5108
 9711TIP3   OH229096   5.124   3.018   3.401 -0.0313  0.5698 -0.2852
 9711TIP3    H129097   5.125   3.110   3.424 -0.4398  0.5282 -0.0783
 9711TIP3    H229098   5.213   2.987   3.417 -0.1608  0.6770  0.6912
 9712TIP3   OH229099   3.414   2.466   5.786  0.5558 -0.3715  0.2665
 9712TIP3    H129100   3.482   2.462   5.718  1.1697  1.3225  0.7328
 9712TIP3    H229101   3.352   2.398   5.761  3.0280 -2.9489  0.5499
 9713TIP3   OH229102   3.335   3.834   3.682 -0.4039 -0.1351 -0.2949
 9713TIP3    H129103   3.247   3.867   3.703 -0.2802  0.1424 -0.2203
 9713TIP3    H229104   3.392   3.910   3.687 -0.5200  0.1985 -2.7075
 9714TIP3   OH229105   3.288   5.843   1.551 -0.1091 -0.1723  0.3023
 9714TIP3    H129106   3.372   5.843   1.595 -0.6951 -0.9487  1.4711
 9714TIP3    H229107   3.224   5.857   1.621 -0.9296  0.8815 -0.6216
 9715TIP3   OH229108   1.444   3.315   0.220  0.3937 -0.1416 -0.3698
 9715TIP3    H129109   1.511   3.342   0.157  1.2793  0.7527  0.8975
 9715TIP3    H229110   1.485   3.245   0.270  0.9594  1.3035  1.2997
 9716TIP3   OH229111   0.999   0.967   2.666  0.6787  0.4187  0.0811
 9716TIP3    H129112   0.936   1.038   2.659 -1.6231 -1.5375 -0.2425
 9716TIP3    H229113   1.066   0.987   2.600 -0.6068  1.5826 -0.9161
 9717TIP3   OH229114   4.899   3.127   3.232 -0.0701 -0.0256 -0.6629
 9717TIP3    H129115   4.806   3.123   3.208 -0.2592 -0.1115  0.0556
 9717TIP3    H229116   4.901   3.103   3.324  0.5230  1.2160 -0.3198
 9718TIP3   OH229117   4.452   3.016   1.341  0.5346 -0.1449  0.3300
 9718TIP3    H129118   4.511   2.941   1.336  1.4533  0.5283  0.7886
 9718TIP3    H229119   4.420   3.028   1.252  0.3180 -1.1138  0.2652
 9719TIP3   OH229120   2.833   1.528   5.750  0.0268 -0.1808  0.1498
 9719TIP3    H129121   2.831   1.434   5.770  0.1850 -0.2323 -0.0783
 9719TIP3    H229122   2.841   1.570   5.836  3.8476 -0.5053  0.1045
 9720TIP3   OH229123   3.774   5.221   4.188 -0.1962  0.6246 -0.0113
 9720TIP3    H129124   3.680   5.242   4.184 -0.5194 -0.5068  1.0245
 9720TIP3    H229125   3.782   5.161   4.261  1.2308  0.0418 -0.6068
 9721TIP3   OH229126   0.295   5.309   0.720  0.1001  0.3064  0.7309
 9721TIP3    H129127   0.391   5.315   0.727  0.1740 -0.6213  0.7262
 9721TIP3    H229128   0.267   5.395   0.689  1.2366 -0.3166 -2.3461
 9722TIP3   OH229129   7.089   5.457   0.253  0.1883  0.2884 -0.2160
 9722TIP3    H129130   7.184   5.449   0.246  0.0968  0.2505 -1.8579
 9722TIP3    H229131   7.076   5.529   0.314  1.2873  0.7439 -0.4840
 9723TIP3   OH229132   2.792   0.579   3.642 -0.4528  0.5658  0.4785
 9723TIP3    H129133   2.882   0.567   3.612 -1.1527 -0.6087 -1.3242
 9723TIP3    H229134   2.741   0.588   3.562 -1.9145  1.5512  1.4699
 9724TIP3   OH229135   2.883   3.366   4.074 -0.2321 -0.0068  0.2116
 9724TIP3    H129136   2.829   3.395   4.001  1.9600  0.1954 -1.4260
 9724TIP3    H229137   2.925   3.446   4.106  1.2996 -0.5127 -0.4576
 9725TIP3   OH229138   2.174   0.391   5.546  0.3802  0.0158  0.0889
 9725TIP3    H129139   2.159   0.425   5.458  0.0058  0.0334  0.1566
 9725TIP3    H229140   2.207   0.466   5.596 -0.7050  0.3617  0.3083
 9726TIP3   OH229141   4.097   1.454   4.358  0.8058  0.2277 -0.0675
 9726TIP3    H129142   4.087   1.368   4.318  1.8575  0.1749 -0.2538
 9726TIP3    H229143   4.060   1.515   4.294  0.6005 -0.0342 -0.1978
 9727TIP3   OH229144   1.330   5.697   3.899  0.1008  0.5097 -0.2469
 9727TIP3    H129145   1.334   5.603   3.917 -1.2776  0.4081 -0.3730
 9727TIP3    H229146   1.416   5.730   3.928  0.2124 -0.6014  0.8135
 9728TIP3   OH229147   1.298   4.285   2.011 -0.3842 -0.1710 -0.5444
 9728TIP3    H129148   1.390   4.284   2.035  0.1705 -0.2243 -2.4761
 9728TIP3    H229149   1.274   4.378   2.011 -0.4527 -0.1840  0.3392
 9729TIP3   OH229150   4.537   3.922   3.896 -0.5509 -0.0684 -0.4637
 9729TIP3    H129151   4.592   3.858   3.851 -0.6708  1.4106 -2.8692
 9729TIP3    H229152   4.464   3.937   3.836 -0.2949  2.6164 -0.2274
 9730TIP3   OH229153   2.313   0.755   3.263  0.1811 -0.1213 -0.0103
 9730TIP3    H129154   2.329   0.778   3.355  0.5641 -0.4731  0.0140
 9730TIP3    H229155   2.392   0.781   3.217 -0.6593  1.6192 -0.5464
 9731TIP3   OH229156   7.135   6.168   4.677  0.8207 -0.3028  0.4507
 9731TIP3    H129157   7.055   6.140   4.721  1.5291 -1.5973  0.9655
 9731TIP3    H229158   7.203   6.161   4.744  1.1596  2.1144  0.4238
 9732TIP3   OH229159   1.934   3.357   0.881  0.1852 -0.1944 -0.1468
 9732TIP3    H129160   2.001   3.394   0.939  2.2894 -0.5046 -2.2238
 9732TIP3    H229161   1.879   3.432   0.857 -0.5877 -0.0220  1.9593
 9733TIP3   OH229162   3.277   1.192   2.433 -0.0321 -0.3067  0.0364
 9733TIP3    H129163   3.223   1.256   2.479  0.2390 -0.7348  0.9847
 9733TIP3    H229164   3.360   1.237   2.418 -0.4970  0.2105 -1.0508
 9734TIP3   OH229165   4.903   4.818   4.619  0.4899  0.2586 -0.1670
 9734TIP3    H129166   4.997   4.834   4.623  0.9089 -1.1711 -2.1897
 9734TIP3    H229167   4.871   4.881   4.554  0.4986 -0.6860 -1.1295
 9735TIP3   OH229168   4.843   1.046   0.943 -0.1175  0.1443 -0.3024
 9735TIP3    H129169   4.895   1.082   1.014  0.4808  0.3087 -0.8123
 9735TIP3    H229170   4.882   0.960   0.925 -2.5680 -1.6558  2.0510
 9736TIP3   OH229171   2.541   4.755   0.559 -0.0596  0.3438 -0.3618
 9736TIP3    H129172   2.496   4.713   0.632 -0.9882  1.1847 -0.4385
 9736TIP3    H229173   2.510   4.845   0.560  3.3183  1.6840  1.0014
 9737TIP3   OH229174   5.780   0.601   2.955  0.5253 -0.5008  0.1131
 9737TIP3    H129175   5.693   0.572   2.929  0.3032 -0.3211  0.6480
 9737TIP3    H229176   5.767   0.691   2.985  0.3137 -1.4508  3.1561
 9738TIP3   OH229177   6.907   1.133   4.642  0.1366  0.1408  0.1779
 9738TIP3    H129178   6.827   1.185   4.638  0.3917  0.4663 -1.1302
 9738TIP3    H229179   6.911   1.103   4.733 -1.0638  0.7429  0.4565
 9739TIP3   OH229180   4.022   5.778   4.260 -0.8577 -0.5201  0.2000
 9739TIP3    H129181   4.044   5.826   4.340  0.4042  0.5777 -0.7529
 9739TIP3    H229182   3.994   5.692   4.291  0.1871 -0.3323  1.7950
 9740TIP3   OH229183   5.056   5.556   0.389 -0.0575 -0.2429  0.2005
 9740TIP3    H129184   4.988   5.497   0.422 -0.6397  1.3814  2.0917
 9740TIP3    H229185   5.058   5.628   0.452  3.5155 -0.2574  0.3110
 9741TIP3   OH229186   6.875   0.049   1.585  0.2850 -0.0028 -0.2775
 9741TIP3    H129187   6.903  -0.043   1.585 -0.9209 -0.3844  0.7728
 9741TIP3    H229188   6.789   0.048   1.543 -0.5429  0.3587  1.3366
 9742TIP3   OH229189   5.402   6.550   0.554  0.5261 -0.2705  0.0813
 9742TIP3    H129190   5.337   6.605   0.596 -0.1490 -0.7161 -0.3604
 9742TIP3    H229191   5.397   6.467   0.601 -0.7095 -1.0043 -1.2498
 9743TIP3   OH229192   4.846   3.495   1.724 -0.2002 -0.1432 -0.0612
 9743TIP3    H129193   4.848   3.411   1.677  0.4749  0.3682 -0.9592
 9743TIP3    H229194   4.932   3.533   1.710 -0.9303  1.3146 -0.8015
 9744TIP3   OH229195   3.725   2.105   1.576 -0.3492  0.0168  0.3757
 9744TIP3    H129196   3.745   2.012   1.574  0.5926  0.1561  1.7167
 9744TIP3    H229197   3.806   2.146   1.605 -0.3567  1.4003 -1.3774
 9745TIP3   OH229198   2.086   3.695   3.405  0.1172 -0.3242 -0.0433
 9745TIP3    H129199   2.098   3.714   3.312  3.7810 -1.3657  0.0596
 9745TIP3    H229200   2.110   3.777   3.450 -3.2988  0.7669  0.1378
 9746TIP3   OH229201   6.294   0.584   1.197 -0.5042 -0.2696  0.3458
 9746TIP3    H129202   6.384   0.594   1.166 -0.2179  0.0246  1.2366
 9746TIP3    H229203   6.294   0.622   1.285 -0.7688 -2.9339  1.6106
 9747TIP3   OH229204   4.605   4.806   0.011  0.6100  0.2627 -0.2497
 9747TIP3    H129205   4.583   4.855   0.091  1.0788  0.4945 -0.2613
 9747TIP3    H229206   4.561   4.722   0.022  0.4552  0.3920  0.1362
 9748TIP3   OH229207   0.236   3.301   5.024 -0.1275  0.1552 -0.3417
 9748TIP3    H129208   0.168   3.304   4.956 -1.9347  0.7227  1.4015
 9748TIP3    H229209   0.260   3.393   5.037 -0.1491  0.0989  0.1107
 9749TIP3   OH229210   6.192   5.036   2.178  0.4151  0.1120 -0.3075
 9749TIP3    H129211   6.154   5.000   2.098  0.7428  0.8479 -0.8031
 9749TIP3    H229212   6.120   5.079   2.223  0.8394  2.8157 -1.9657
   7.20246   6.79055   5.88077   0.00000   0.00000  -2.40082   0.00000  -2.40082  -3.39527
