Title
29212
    1ASP      N    1   2.255   2.545   4.686 -0.3393  0.3974  0.5522
    1ASP    HT1    2   2.270   2.608   4.767 -1.5461 -0.0456  1.1436
    1ASP    HT2    3   2.286   2.452   4.723  1.8567  0.1300 -1.6627
    1ASP    HT3    4   2.155   2.540   4.659 -0.6185 -1.9428  1.7445
    1ASP     CA    5   2.351   2.558   4.576  0.6258 -0.7970 -0.3805
    1ASP     HA    6   2.450   2.554   4.619 -0.0305 -1.9065  1.1143
    1ASP     CB    7   2.318   2.442   4.476 -0.3102  0.3300  0.0889
    1ASP    HB1    8   2.217   2.437   4.429  0.3291 -2.2132 -1.2013
    1ASP    HB2    9   2.340   2.348   4.531  0.2701 -0.3847 -1.3047
    1ASP     CG   10   2.427   2.425   4.364  0.5275  0.3980 -0.2022
    1ASP    OD1   11   2.406   2.341   4.273 -0.1169 -0.4234  0.2259
    1ASP    OD2   12   2.543   2.468   4.390  0.2531 -0.0263  0.8997
    1ASP      C   13   2.347   2.695   4.503 -0.5796  0.8670  0.0488
    1ASP      O   14   2.430   2.780   4.529 -0.4072  0.5540 -0.2560
    2GLY      N   15   2.262   2.713   4.403 -0.0992  0.0811 -0.4438
    2GLY     HN   16   2.205   2.636   4.375 -1.7463  0.5751  1.3208
    2GLY     CA   17   2.249   2.839   4.336  0.2436 -0.1399  0.0804
    2GLY    HA1   18   2.304   2.918   4.384  0.3366 -1.3239  2.0613
    2GLY    HA2   19   2.144   2.863   4.337 -0.3078 -2.1692 -1.3938
    2GLY      C   20   2.280   2.822   4.194  0.1821 -0.3206  0.3910
    2GLY      O   21   2.310   2.712   4.146  0.3800 -0.8495  0.3502
    3ASP      N   22   2.267   2.934   4.126 -0.7159 -0.1855 -0.5271
    3ASP     HN   23   2.257   3.020   4.176 -0.4956 -0.0263 -0.7546
    3ASP     CA   24   2.291   2.966   3.982 -0.3606 -0.1008 -0.3883
    3ASP     HA   25   2.232   2.900   3.920  0.1276 -0.7557 -0.1639
    3ASP     CB   26   2.229   3.109   3.955 -0.0722  0.2106 -0.2587
    3ASP    HB1   27   2.225   3.122   3.845 -1.4380  2.2054 -0.0207
    3ASP    HB2   28   2.297   3.186   3.997  0.6407 -0.3291 -0.4045
    3ASP     CG   29   2.085   3.130   3.997 -0.4379  0.0506  0.6946
    3ASP    OD1   30   1.999   3.049   3.959  0.0650 -0.0720  0.2862
    3ASP    OD2   31   2.057   3.233   4.063 -0.4750  0.2586 -0.1706
    3ASP      C   32   2.438   2.951   3.926 -0.0027  0.2076 -0.8458
    3ASP      O   33   2.538   2.975   3.991 -0.1584 -0.3477 -0.0546
    4GLY      N   34   2.445   2.895   3.799  0.4111 -0.1997 -0.1922
    4GLY     HN   35   2.361   2.856   3.762  1.0704 -0.6488 -1.2647
    4GLY     CA   36   2.564   2.890   3.713 -0.5572 -1.0998  0.4154
    4GLY    HA1   37   2.540   2.823   3.632  1.5594 -1.7089  0.2378
    4GLY    HA2   38   2.643   2.841   3.768  1.3546 -0.1508 -1.3821
    4GLY      C   39   2.631   3.022   3.667  0.0597 -0.5231 -0.0554
    4GLY      O   40   2.596   3.129   3.719 -0.2368  0.5717 -0.1132
    5PRO      N   41   2.722   3.019   3.578  0.1028  0.1143  0.6442
    5PRO     CD   42   2.783   2.897   3.526 -0.1081  0.0327  0.9059
    5PRO    HD1   43   2.720   2.845   3.451  0.1829 -0.8763  1.2719
    5PRO    HD2   44   2.799   2.828   3.612 -1.3388 -0.0314  1.1000
    5PRO     CA   45   2.786   3.140   3.533  0.5835 -0.0232  0.3038
    5PRO     HA   46   2.835   3.183   3.619 -0.9473  1.8402  0.3106
    5PRO     CB   47   2.886   3.090   3.421  0.3351  0.3268 -0.6106
    5PRO    HB1   48   2.975   3.156   3.411 -1.0363  2.4096  0.2359
    5PRO    HB2   49   2.831   3.088   3.325  0.5894  1.5192 -0.7995
    5PRO     CG   50   2.914   2.940   3.459 -0.6501 -0.7319  0.5937
    5PRO    HG1   51   2.955   2.879   3.375  3.2602  0.6867  1.2618
    5PRO    HG2   52   2.993   2.946   3.536  0.6290  0.2492 -0.7269
    5PRO      C   53   2.685   3.246   3.475 -0.5072  0.8283 -0.2256
    5PRO      O   54   2.592   3.208   3.402 -0.3013  0.1165  0.2988
    6GLY      N   55   2.715   3.375   3.503 -0.0750  0.2882 -0.6084
    6GLY     HN   56   2.799   3.387   3.556  0.4065 -1.6098 -0.8633
    6GLY     CA   57   2.633   3.487   3.458 -0.3584 -0.3390 -0.1301
    6GLY    HA1   58   2.637   3.564   3.534 -0.6238 -0.2766 -0.1776
    6GLY    HA2   59   2.532   3.457   3.433 -0.6531  1.0134 -0.6927
    6GLY      C   60   2.691   3.563   3.334  0.0423 -0.5908 -0.1705
    6GLY      O   61   2.794   3.529   3.280 -0.3743 -0.5456 -0.0760
    7ASP      N   62   2.623   3.672   3.285  0.4472 -0.4339 -0.4676
    7ASP     HN   63   2.546   3.693   3.345  0.6936 -2.8296  0.8026
    7ASP     CA   64   2.654   3.756   3.168  0.5937  0.3630  0.1068
    7ASP     HA   65   2.642   3.689   3.084  0.2133  2.0445 -1.2316
    7ASP     CB   66   2.545   3.869   3.145  0.2936  0.3965 -0.3029
    7ASP    HB1   67   2.597   3.943   3.081  0.5888  1.7520  1.4275
    7ASP    HB2   68   2.514   3.917   3.240  2.5681  1.3798  0.0144
    7ASP     CG   69   2.423   3.823   3.071 -0.2351 -0.4651 -0.1740
    7ASP    OD1   70   2.359   3.908   3.005 -0.5437  0.3848  0.6275
    7ASP    OD2   71   2.381   3.708   3.097 -0.1804 -0.1175 -0.3612
    7ASP      C   72   2.801   3.814   3.183 -0.2341  0.4062 -0.0073
    7ASP      O   73   2.848   3.837   3.294 -0.0726 -0.6967 -0.2657
    8PRO      N   74   2.873   3.823   3.068  0.8231 -0.4979 -0.1651
    8PRO     CD   75   2.825   3.804   2.926 -0.2861  0.4145  0.2023
    8PRO    HD1   76   2.722   3.839   2.906 -1.4418 -2.5371  0.4603
    8PRO    HD2   77   2.832   3.694   2.907 -2.8070  0.1453  0.5114
    8PRO     CA   78   2.996   3.902   3.064  0.2685 -0.8051 -0.0869
    8PRO     HA   79   3.063   3.853   3.133 -0.8425 -1.7132  0.3850
    8PRO     CB   80   3.053   3.885   2.922  0.2621 -0.2433  0.2743
    8PRO    HB1   81   3.102   3.785   2.915 -0.4703 -0.5072 -1.6469
    8PRO    HB2   82   3.132   3.958   2.895 -0.0254 -0.1993 -0.4678
    8PRO     CG   83   2.922   3.887   2.844 -0.6469  0.0250 -0.6436
    8PRO    HG1   84   2.881   3.990   2.847 -1.2824 -0.2032 -1.3279
    8PRO    HG2   85   2.939   3.848   2.742 -0.4792  0.8006 -0.9243
    8PRO      C   86   2.992   4.049   3.107  0.0627  0.2316  0.1143
    8PRO      O   87   2.885   4.109   3.104 -0.2508  0.1199  0.8254
    9GLY      N   88   3.112   4.115   3.131  0.5150 -0.3699 -0.4614
    9GLY     HN   89   3.189   4.053   3.136  1.5190  0.8847  2.9637
    9GLY     CA   90   3.140   4.256   3.164 -0.0628 -0.0393  0.6761
    9GLY    HA1   91   3.139   4.313   3.072  0.6795  1.2588  1.4405
    9GLY    HA2   92   3.236   4.247   3.212  0.6124 -0.2304 -0.6689
    9GLY      C   93   3.061   4.337   3.270 -0.7931 -0.0487  0.0885
    9GLY      O   94   2.963   4.301   3.333  0.4971 -0.2240 -0.2195
   10ASP      N   95   3.110   4.461   3.280  0.1087  0.3742 -0.4959
   10ASP     HN   96   3.184   4.487   3.219  2.9124 -1.5679  1.8023
   10ASP     CA   97   3.066   4.563   3.374  0.0355  0.5413  0.3108
   10ASP     HA   98   3.149   4.633   3.375 -0.5867  1.2959  0.0600
   10ASP     CB   99   2.938   4.633   3.314 -0.5557  0.5372  0.7779
   10ASP    HB1  100   2.905   4.712   3.383 -1.1830 -0.6489  1.8710
   10ASP    HB2  101   2.854   4.560   3.309  0.5779 -0.7993 -3.1742
   10ASP     CG  102   2.969   4.684   3.176  0.4416 -0.2719  0.0147
   10ASP    OD1  103   2.895   4.651   3.081  0.2580  0.1287  0.4681
   10ASP    OD2  104   3.051   4.776   3.167 -0.3286 -0.5685 -0.0695
   10ASP      C  105   3.063   4.529   3.522  0.3801 -0.1313 -0.5911
   10ASP      O  106   2.978   4.564   3.604  0.0538  0.6193  0.3595
   11GLY      N  107   3.167   4.454   3.572  0.8032 -0.4120  0.3549
   11GLY     HN  108   3.237   4.421   3.510  3.2434  2.0853  1.5640
   11GLY     CA  109   3.167   4.403   3.711  0.2278  0.0657  0.4353
   11GLY    HA1  110   3.069   4.360   3.725  0.8212 -0.4861  3.4804
   11GLY    HA2  111   3.188   4.486   3.777  2.0966  1.8713 -2.1943
   11GLY      C  112   3.266   4.289   3.738  0.9829  0.4944 -0.3838
   11GLY    OT1  113   3.226   4.168   3.739 -0.4905  0.1807  0.1143
   11GLY    OT2  114   3.387   4.321   3.750 -0.2533 -0.0256 -0.9376
   12SOD    SOD  115   4.995   2.339   1.214 -0.3535 -0.4554 -0.5748
   13SOD    SOD  116   0.577   4.161   4.804 -0.0319 -0.2676  0.1708
   14SOD    SOD  117   2.147   3.894   3.626 -0.1577 -0.4003 -0.1996
   15SOD    SOD  118   5.489   4.476   4.564 -0.4317 -0.5157 -0.6959
   16SOD    SOD  119   3.106   2.601   3.791 -0.1837  0.2718  0.0590
   17SOD    SOD  120   3.167   6.392   4.248 -0.4740 -0.1826 -0.6526
   18SOD    SOD  121   7.077   1.711   2.729 -0.0756 -0.2811  0.8490
   19SOD    SOD  122   4.104   5.291   3.794 -0.1856 -0.2314  0.0673
   20SOD    SOD  123   0.450   3.810   1.797  0.0505 -0.6054 -0.1826
   21SOD    SOD  124   6.121   6.358   0.670  0.6030  0.2088 -0.2741
   22SOD    SOD  125   4.199   3.307   1.616 -0.5899  0.2135  0.0338
   23SOD    SOD  126   4.292   1.812   4.130 -0.3148 -0.0041 -0.5129
   24SOD    SOD  127   0.684   6.493   2.305  0.3542  0.1145  0.0211
   25SOD    SOD  128   5.992   5.162   1.604  0.1569 -0.2475  0.0361
   26SOD    SOD  129   2.227   0.542   5.765 -0.0668  0.3899 -0.1200
   27SOD    SOD  130   5.223   3.748   1.764 -0.0101  0.3813  0.0789
   28SOD    SOD  131   5.746   3.185   3.400  0.1292  0.9641  0.4403
   29SOD    SOD  132   6.042   2.775   4.648 -0.1619 -0.9832  0.0530
   30SOD    SOD  133   5.210   6.483   2.937  0.0926 -0.0288  0.0379
   31SOD    SOD  134   1.937   1.447   0.778  0.1354  0.4564 -0.2425
   32SOD    SOD  135   1.265   6.126   4.952  0.4173  0.4300  0.2614
   33SOD    SOD  136   5.114   0.787   1.558 -0.0744  0.2507 -0.1989
   34SOD    SOD  137   1.544   2.582   1.977 -0.4153 -0.0536  0.0749
   35SOD    SOD  138   5.387   5.218   3.368 -0.4201  0.3403  0.1837
   36SOD    SOD  139   4.027   4.964   5.307  0.3757 -0.6836 -0.3596
   37SOD    SOD  140   2.744   4.383   2.001  0.1011  0.3013  0.1570
   38SOD    SOD  141   5.553   1.777   2.316 -0.0960 -0.0712  0.0799
   39SOD    SOD  142   2.486   3.470   0.401 -0.1091  0.1200 -0.2940
   40SOD    SOD  143   2.802   3.392   4.065 -0.3924 -0.1104  0.1491
   41SOD    SOD  144   4.785   0.963   5.127 -0.4838  0.2184  0.2539
   42SOD    SOD  145   2.788   1.677   5.788  0.0046 -0.1191 -0.1698
   43CLA    CLA  146   5.593   3.883   1.418 -0.1087  0.4106 -0.4029
   44CLA    CLA  147   2.942   6.658   3.176  0.2756  0.3087  0.5052
   45CLA    CLA  148   3.419   5.542   5.735  0.1161 -0.2357 -0.4062
   46CLA    CLA  149   6.460   5.544   0.249  0.2189  0.0070  0.6848
   47CLA    CLA  150   4.499   4.412   5.591 -0.0860 -0.2286  0.2675
   48CLA    CLA  151   3.589   2.904   1.726  0.4119  0.3592 -0.4852
   49CLA    CLA  152   5.904   3.013   5.642 -0.0262  0.0204 -0.1525
   50CLA    CLA  153   6.702   0.121   1.469  0.1598  0.4724 -0.0453
   51CLA    CLA  154   1.428   0.583   0.833  0.3892  0.2728  0.2528
   52CLA    CLA  155   6.431   4.124   0.832 -0.4906 -0.2009 -0.2507
   53CLA    CLA  156   6.479   5.623   2.498  0.2102  0.5428 -0.3487
   54CLA    CLA  157   2.578   5.583   1.842 -0.1770 -0.1392 -0.3606
   55CLA    CLA  158   5.386   4.555   2.226 -0.0991 -0.1914  0.0659
   56CLA    CLA  159   3.401   5.353   3.743  0.1499 -0.0144  0.1268
   57CLA    CLA  160   4.338   6.369   5.677 -0.4930  0.5156  0.1526
   58CLA    CLA  161   5.308   3.325   0.083 -0.0601 -0.0895  0.0078
   59CLA    CLA  162   6.761   2.105   2.782  0.1583  0.3722 -0.2443
   60CLA    CLA  163   2.777   1.371   5.485 -0.0742  0.3359  0.3040
   61CLA    CLA  164   1.471   4.140   1.573 -0.0261 -0.3747 -0.2393
   62CLA    CLA  165   3.308   1.709   0.603  0.0191 -0.5986  0.2769
   63CLA    CLA  166   4.570   3.406   3.648  0.0544 -0.0963 -0.0689
   64CLA    CLA  167   1.301   6.128   0.901 -0.3358 -0.0803  0.0181
   65CLA    CLA  168   5.261   5.351   5.194 -0.1032 -0.2749  0.3170
   66CLA    CLA  169   2.919   1.919   5.275  0.2974  0.0612 -0.1857
   67CLA    CLA  170   1.852   4.089   4.039 -0.0160 -0.0054  0.2478
   68CLA    CLA  171   5.871   4.021   4.217  0.3115 -0.0069 -0.1746
   69CLA    CLA  172   0.424   3.885   0.317 -0.3738  0.2258  0.4940
   70TIP3   OH2  173   4.495   4.795   0.005  0.1129  0.0342  0.5588
   70TIP3    H1  174   4.571   4.792  -0.054  0.3592  1.1419  0.8049
   70TIP3    H2  175   4.518   4.860   0.070 -1.6936  1.6021 -0.2892
   71TIP3   OH2  176   3.182   5.309   3.288  0.0768 -0.2705 -0.8236
   71TIP3    H1  177   3.223   5.347   3.365  1.3945 -0.5332 -1.3644
   71TIP3    H2  178   3.217   5.360   3.215  0.0921 -1.0482 -1.3678
   72TIP3   OH2  179   4.858   4.115   2.784  0.3040 -0.5460  0.0188
   72TIP3    H1  180   4.792   4.114   2.715  0.4000  0.4293 -0.1089
   72TIP3    H2  181   4.808   4.128   2.865  0.4055  2.3853 -0.2693
   73TIP3   OH2  182   3.569   4.437   4.787 -0.3948  0.0883  0.1121
   73TIP3    H1  183   3.521   4.458   4.706 -0.1383 -0.8345 -0.2966
   73TIP3    H2  184   3.607   4.520   4.815 -3.6632  1.3149  1.4530
   74TIP3   OH2  185   4.418   2.438   0.671  0.2611 -0.0371  0.5745
   74TIP3    H1  186   4.494   2.392   0.635  0.7656  2.3719 -1.7252
   74TIP3    H2  187   4.346   2.414   0.613  0.0633  0.4453  0.6200
   75TIP3   OH2  188   5.088   3.267   1.489  0.0309 -0.5468  0.5328
   75TIP3    H1  189   4.994   3.250   1.495  0.2409 -2.2337 -0.4800
   75TIP3    H2  190   5.100   3.306   1.402  0.1233  1.0223  1.2079
   76TIP3   OH2  191   1.096   5.104   1.832  0.2767 -0.7073 -0.2436
   76TIP3    H1  192   1.027   5.049   1.871 -1.6768  1.2404 -0.7580
   76TIP3    H2  193   1.099   5.076   1.741  0.3656 -0.9826 -0.1576
   77TIP3   OH2  194   3.313   1.533   3.810 -0.2269 -0.0300 -0.2465
   77TIP3    H1  195   3.222   1.551   3.789 -0.4095 -0.5719  0.0618
   77TIP3    H2  196   3.318   1.437   3.817  0.1583  0.0467  0.6636
   78TIP3   OH2  197   1.186   2.986   4.404 -0.3803 -0.4750  0.1194
   78TIP3    H1  198   1.137   2.964   4.325 -0.2353 -1.6191  0.3367
   78TIP3    H2  199   1.278   2.973   4.381 -0.3193 -0.5430  0.3897
   79TIP3   OH2  200   3.359   6.170   5.092 -0.4307  0.0006  0.5019
   79TIP3    H1  201   3.304   6.181   5.015  0.4847 -0.4570 -0.2360
   79TIP3    H2  202   3.448   6.170   5.058 -0.0667 -1.9588  1.3283
   80TIP3   OH2  203   3.032   5.216   1.995 -0.0099  0.2490 -0.0047
   80TIP3    H1  204   3.063   5.285   2.054  0.0795 -0.3310  0.6401
   80TIP3    H2  205   3.002   5.263   1.917  0.8209  0.9507  0.0852
   81TIP3   OH2  206   3.051   1.343   0.695  0.2611 -0.0614 -0.1221
   81TIP3    H1  207   3.051   1.250   0.672  0.8009 -0.0193 -0.3027
   81TIP3    H2  208   3.111   1.349   0.769  0.9815  0.2807 -0.7183
   82TIP3   OH2  209   0.735   6.227   2.301 -0.2796  0.0557 -0.1136
   82TIP3    H1  210   0.805   6.185   2.351  0.0216  0.9213  0.2255
   82TIP3    H2  211   0.654   6.196   2.341 -0.3179 -3.3576 -2.3781
   83TIP3   OH2  212   5.625   1.854   0.419 -0.4051  0.1927 -0.1539
   83TIP3    H1  213   5.653   1.886   0.504 -2.0127 -0.1410  0.5395
   83TIP3    H2  214   5.553   1.911   0.394 -1.5681 -1.2199 -0.1208
   84TIP3   OH2  215   1.778   3.231   0.565  0.2225 -0.1920 -0.2922
   84TIP3    H1  216   1.795   3.140   0.540  0.5726 -0.8694  2.1823
   84TIP3    H2  217   1.685   3.232   0.586  0.2531 -0.0073 -0.1699
   85TIP3   OH2  218   2.763   5.482   0.684  0.3798 -0.2777 -0.2048
   85TIP3    H1  219   2.777   5.398   0.640  0.2810 -0.1722 -0.4425
   85TIP3    H2  220   2.748   5.459   0.776  0.1288 -0.5401 -0.3091
   86TIP3   OH2  221   6.856   1.635   0.265  0.3024 -0.7813  0.4101
   86TIP3    H1  222   6.787   1.662   0.326  0.0239 -0.1877 -0.1420
   86TIP3    H2  223   6.918   1.586   0.318 -0.0461 -0.4729  1.1207
   87TIP3   OH2  224   1.172   3.978   5.587 -0.8228  0.5282  0.5289
   87TIP3    H1  225   1.245   3.985   5.649  0.3314  0.6296 -0.7887
   87TIP3    H2  226   1.145   3.887   5.592  1.7014 -0.4514 -1.3912
   88TIP3   OH2  227   3.904   1.304   0.113 -0.6495  0.1603  0.2784
   88TIP3    H1  228   3.986   1.351   0.127 -0.4981 -0.4324  1.5568
   88TIP3    H2  229   3.836   1.366   0.137 -0.4834  0.0259  1.1243
   89TIP3   OH2  230   3.906   6.772   3.971 -0.0979  0.3196 -0.4167
   89TIP3    H1  231   3.950   6.766   4.056 -0.0378  0.1906 -0.4572
   89TIP3    H2  232   3.968   6.822   3.916  0.3579 -0.5323 -0.7052
   90TIP3   OH2  233   6.247   3.798   2.976  0.1000  0.7409  0.0249
   90TIP3    H1  234   6.223   3.708   2.953  0.0947  0.8064 -0.2331
   90TIP3    H2  235   6.255   3.843   2.892 -1.1702  1.3134  0.1788
   91TIP3   OH2  236   0.637   6.711   2.389 -1.0796 -0.3752  0.5232
   91TIP3    H1  237   0.649   6.710   2.484 -1.6558 -0.4708  0.5951
   91TIP3    H2  238   0.657   6.801   2.363  2.1603 -1.0183  0.3159
   92TIP3   OH2  239   0.747   2.112   3.572 -0.6063 -0.3142 -0.1833
   92TIP3    H1  240   0.684   2.096   3.502 -0.1997  0.3138 -0.7063
   92TIP3    H2  241   0.721   2.053   3.643 -0.6409 -1.4357 -1.1062
   93TIP3   OH2  242   4.631   5.090   0.427 -0.3265 -0.3766  0.0935
   93TIP3    H1  243   4.716   5.130   0.405  0.5850 -2.4558 -0.3977
   93TIP3    H2  244   4.596   5.145   0.497  1.2021  0.8018 -0.0067
   94TIP3   OH2  245   2.628   0.174   4.432 -0.4142  0.4430  0.0117
   94TIP3    H1  246   2.559   0.233   4.460 -0.4276  1.2981 -1.7080
   94TIP3    H2  247   2.707   0.229   4.428 -0.3814  0.3469 -1.3798
   95TIP3   OH2  248   0.159   3.501   0.072 -0.0607 -0.3230 -0.1304
   95TIP3    H1  249   0.066   3.515   0.090 -0.0355 -0.7435  0.3621
   95TIP3    H2  250   0.201   3.502   0.159  0.5577  0.9723 -0.4231
   96TIP3   OH2  251   4.313   2.326   5.300  0.6282  0.6020 -0.3873
   96TIP3    H1  252   4.257   2.308   5.375  0.0660 -0.0117 -0.9348
   96TIP3    H2  253   4.296   2.418   5.279 -0.0648  0.4691 -0.4483
   97TIP3   OH2  254   6.998   2.904   1.537  0.3566 -0.4500  0.0887
   97TIP3    H1  255   7.002   2.978   1.598  1.3884 -0.3361 -0.1029
   97TIP3    H2  256   6.997   2.945   1.450  2.5264 -0.6315 -0.0899
   98TIP3   OH2  257   5.980   2.370   3.665  0.5505 -0.3259  0.5710
   98TIP3    H1  258   5.914   2.433   3.694 -1.1105 -2.5243  1.9933
   98TIP3    H2  259   6.007   2.325   3.745  2.8177 -0.4149 -0.1749
   99TIP3   OH2  260   1.150   5.592   2.996  0.0091  0.0456  0.2982
   99TIP3    H1  261   1.075   5.649   3.014 -0.4616 -0.1681 -0.8817
   99TIP3    H2  262   1.222   5.629   3.048 -0.2650  1.7916 -0.4969
  100TIP3   OH2  263   4.938   3.554   2.938 -0.0444 -0.3235 -0.1155
  100TIP3    H1  264   4.943   3.650   2.938  1.1495 -0.3633  0.5005
  100TIP3    H2  265   4.887   3.533   3.017  0.0728 -0.2105 -0.0098
  101TIP3   OH2  266   3.766   2.133   3.350  0.5232 -0.2165  0.3006
  101TIP3    H1  267   3.819   2.194   3.299 -0.3791 -0.0564 -0.4986
  101TIP3    H2  268   3.706   2.188   3.400 -0.3953 -0.4113 -0.5350
  102TIP3   OH2  269   4.891   3.931   4.100  0.6593  0.0787  0.0286
  102TIP3    H1  270   4.919   3.896   4.016 -0.1093  1.0687 -0.6712
  102TIP3    H2  271   4.970   3.970   4.138  1.3484 -1.6887  0.4848
  103TIP3   OH2  272   2.932   2.425   2.391 -0.8547  0.6820 -0.1772
  103TIP3    H1  273   2.996   2.475   2.442  0.1870  0.5807 -1.3275
  103TIP3    H2  274   2.863   2.488   2.372 -0.4772  1.1645  0.0054
  104TIP3   OH2  275   5.745   1.061   4.202 -0.6077 -0.2204 -0.0161
  104TIP3    H1  276   5.718   1.023   4.119 -0.7195 -1.5126  0.5775
  104TIP3    H2  277   5.817   1.005   4.232  0.8252  1.4421 -0.1869
  105TIP3   OH2  278   3.240   3.109   3.410 -0.3455 -0.0144  0.2834
  105TIP3    H1  279   3.198   3.031   3.373 -0.7274  0.3663 -0.0946
  105TIP3    H2  280   3.214   3.180   3.352  0.6263  0.2746  0.1806
  106TIP3   OH2  281   0.550   3.474   2.083 -0.3137 -0.0699 -0.2612
  106TIP3    H1  282   0.569   3.508   1.996  1.1247 -0.2168 -0.0309
  106TIP3    H2  283   0.620   3.507   2.138 -0.6800 -0.7466  0.6463
  107TIP3   OH2  284   6.699   6.551   1.202 -0.0460 -0.5220 -0.0112
  107TIP3    H1  285   6.760   6.477   1.204 -2.0995 -2.3424  0.0136
  107TIP3    H2  286   6.662   6.549   1.114 -0.4149  0.2354  0.1205
  108TIP3   OH2  287   4.052   3.272   2.503 -0.8879  0.3225 -0.1622
  108TIP3    H1  288   4.122   3.273   2.438 -1.1329  1.2031 -0.4276
  108TIP3    H2  289   4.080   3.336   2.569 -0.3240 -1.0147  0.9707
  109TIP3   OH2  290   2.204   0.030   4.090 -0.3340  0.3879  0.2887
  109TIP3    H1  291   2.272   0.061   4.149  0.9935 -0.4088 -0.7852
  109TIP3    H2  292   2.170  -0.050   4.131  1.7591 -1.1342 -0.7548
  110TIP3   OH2  293   1.952   5.913   1.973 -0.0834  0.3788 -0.2951
  110TIP3    H1  294   1.904   5.983   2.018 -0.6952 -0.5051  0.4695
  110TIP3    H2  295   2.026   5.957   1.933 -0.3040  1.4321  0.4066
  111TIP3   OH2  296   6.794   4.974   3.604 -0.2870 -0.2200  0.2025
  111TIP3    H1  297   6.783   4.986   3.510 -1.0685 -0.3466  0.2689
  111TIP3    H2  298   6.845   5.050   3.632  0.9036 -0.7454 -0.4861
  112TIP3   OH2  299   3.081   0.444   4.230 -0.0862  1.3346 -0.4779
  112TIP3    H1  300   3.122   0.507   4.171  1.0446  0.6355 -0.4780
  112TIP3    H2  301   3.148   0.427   4.297 -1.0461  1.5001  0.5444
  113TIP3   OH2  302   2.291   1.748   4.981  0.1345 -0.4677  0.4902
  113TIP3    H1  303   2.307   1.653   4.978 -1.1697 -0.6978 -0.0620
  113TIP3    H2  304   2.201   1.755   5.013  0.1275  0.5840  0.2526
  114TIP3   OH2  305   2.593   2.928   4.247 -0.4812 -0.3822  0.3072
  114TIP3    H1  306   2.599   2.837   4.219  1.1610  0.1243 -1.2355
  114TIP3    H2  307   2.581   2.977   4.166 -1.4696  0.7819  1.1235
  115TIP3   OH2  308   5.261   1.343   3.051 -0.5715 -0.1883 -0.2678
  115TIP3    H1  309   5.340   1.334   3.104 -0.8922 -0.3882  0.1759
  115TIP3    H2  310   5.218   1.258   3.057 -1.2355  0.1787  0.1560
  116TIP3   OH2  311   5.829   0.261   4.316  0.5176  0.1790 -0.6060
  116TIP3    H1  312   5.920   0.231   4.321  1.2227  2.2240  0.1705
  116TIP3    H2  313   5.788   0.226   4.395  0.0241 -2.3472 -1.8800
  117TIP3   OH2  314   4.672   1.547   5.697  0.0625 -0.1879  0.3363
  117TIP3    H1  315   4.737   1.482   5.722  0.8564  0.2913 -0.4747
  117TIP3    H2  316   4.589   1.510   5.728  0.5523 -1.3749  0.2842
  118TIP3   OH2  317   1.612   4.305   2.004  0.4363 -1.2271  0.1075
  118TIP3    H1  318   1.558   4.341   2.075 -0.2804 -2.7534  0.3555
  118TIP3    H2  319   1.550   4.266   1.943  1.2227 -2.7864  0.2652
  119TIP3   OH2  320   4.092   5.028   4.961  0.3364 -0.4602  0.7751
  119TIP3    H1  321   4.187   5.016   4.963  0.5604  1.1293  1.2935
  119TIP3    H2  322   4.057   4.949   5.001  1.3366 -1.8016 -0.8762
  120TIP3   OH2  323   0.507   1.659   0.094 -0.2012 -0.5615  0.0729
  120TIP3    H1  324   0.443   1.604   0.050 -0.7426 -0.6270  0.9134
  120TIP3    H2  325   0.584   1.656   0.038 -0.8213 -0.7377 -0.7949
  121TIP3   OH2  326   4.989   6.298   2.020 -0.5570 -0.5379  0.3302
  121TIP3    H1  327   5.065   6.246   2.046  0.1761 -0.2943 -1.1722
  121TIP3    H2  328   4.944   6.243   1.955 -0.6591  0.0438 -0.1000
  122TIP3   OH2  329   4.277   6.777   4.327  0.4397  0.1435  0.1140
  122TIP3    H1  330   4.338   6.841   4.363  2.9130 -1.3982 -1.0948
  122TIP3    H2  331   4.315   6.692   4.350  0.0038 -0.8811 -2.6252
  123TIP3   OH2  332   2.925   3.161   1.416  0.1041  0.3841 -0.3394
  123TIP3    H1  333   2.940   3.241   1.365  0.2953 -0.6865 -2.0101
  123TIP3    H2  334   2.934   3.090   1.353  3.2314 -1.2547  1.7065
  124TIP3   OH2  335   6.539   6.408   0.159 -0.2178  0.3984  0.7394
  124TIP3    H1  336   6.604   6.447   0.218 -0.1257  2.1410 -0.4245
  124TIP3    H2  337   6.455   6.445   0.189 -0.3774 -0.0108  0.7972
  125TIP3   OH2  338   3.009   3.425   4.136  0.4819  1.0999  0.0244
  125TIP3    H1  339   3.101   3.447   4.118  1.4411 -2.2830  0.1559
  125TIP3    H2  340   3.012   3.370   4.214 -1.6222  0.5482 -0.2304
  126TIP3   OH2  341   2.628   4.497   4.857 -0.0728  0.2860  0.3844
  126TIP3    H1  342   2.577   4.519   4.778  0.0402  1.4755  0.6230
  126TIP3    H2  343   2.695   4.437   4.826 -1.3416 -0.9856 -0.0232
  127TIP3   OH2  344   5.080   3.965   2.290  0.3323  0.1608  0.0116
  127TIP3    H1  345   5.074   3.894   2.354  0.3504 -1.2322 -1.4536
  127TIP3    H2  346   5.029   3.934   2.215 -0.0979  1.9462 -0.4816
  128TIP3   OH2  347   6.238   6.641   1.215 -0.1071  0.7162 -0.3375
  128TIP3    H1  348   6.145   6.642   1.197 -0.1440 -0.5557 -0.3089
  128TIP3    H2  349   6.280   6.624   1.131  0.1730  2.2494 -0.5300
  129TIP3   OH2  350   5.644   3.383   1.196  0.3281 -0.4368 -0.2817
  129TIP3    H1  351   5.562   3.334   1.201 -0.3576  0.8130  1.9165
  129TIP3    H2  352   5.634   3.438   1.119 -1.6629  0.8968  0.8488
  130TIP3   OH2  353   4.539   1.653   5.475  0.5660  0.1032 -0.4761
  130TIP3    H1  354   4.453   1.690   5.496  1.0772  0.2812  1.5024
  130TIP3    H2  355   4.583   1.645   5.560  1.5611 -2.3384 -1.1383
  131TIP3   OH2  356   0.783   6.588   5.534  0.6703 -0.7749 -0.3870
  131TIP3    H1  357   0.698   6.572   5.574  1.1581 -0.4982  0.7898
  131TIP3    H2  358   0.771   6.671   5.486 -0.0240 -1.3117 -1.1764
  132TIP3   OH2  359   6.877   2.160   2.157  0.1005 -0.3055  0.1223
  132TIP3    H1  360   6.891   2.066   2.144 -2.4493 -0.6651 -0.6712
  132TIP3    H2  361   6.848   2.167   2.248 -0.6397 -0.4629 -0.0889
  133TIP3   OH2  362   0.352   0.025   0.532  0.4136 -0.0170  0.4441
  133TIP3    H1  363   0.442   0.015   0.499  0.3631  2.0115 -0.4653
  133TIP3    H2  364   0.357   0.096   0.595 -0.6039  0.4067  0.0729
  134TIP3   OH2  365   5.653   6.406   5.304  0.1198  0.6854 -0.1858
  134TIP3    H1  366   5.707   6.337   5.265 -0.0148  0.6120 -0.2440
  134TIP3    H2  367   5.582   6.359   5.348 -0.6650  0.8205 -1.2686
  135TIP3   OH2  368   2.699   6.139   4.580 -0.2454 -0.2842  0.1571
  135TIP3    H1  369   2.760   6.213   4.587  0.7950 -1.2363  2.6545
  135TIP3    H2  370   2.621   6.168   4.628  1.0070 -1.4289  3.1653
  136TIP3   OH2  371   1.197   5.196   3.668  0.1827  0.1546 -0.6400
  136TIP3    H1  372   1.270   5.192   3.606 -1.0200  1.8263 -2.2923
  136TIP3    H2  373   1.186   5.289   3.685  0.8690 -0.2630  2.7200
  137TIP3   OH2  374   4.109   2.089   2.434  0.3940  0.7839 -0.0294
  137TIP3    H1  375   4.127   1.996   2.420  1.5750  0.7050  1.6684
  137TIP3    H2  376   4.106   2.127   2.347  0.5019 -0.7354 -0.7233
  138TIP3   OH2  377   4.527   4.905   0.260  0.4717 -0.5191 -0.5053
  138TIP3    H1  378   4.562   4.979   0.309 -0.7077 -0.5635  0.4686
  138TIP3    H2  379   4.443   4.937   0.226 -0.7216 -1.8039  1.1122
  139TIP3   OH2  380   2.769   4.023   1.769  0.5324 -0.1313 -0.5049
  139TIP3    H1  381   2.805   3.939   1.797 -0.6498 -0.9746 -1.3649
  139TIP3    H2  382   2.686   4.000   1.727  0.5594  1.3963 -1.4793
  140TIP3   OH2  383   0.618   4.352   3.168 -0.5772  0.2656 -0.6786
  140TIP3    H1  384   0.653   4.263   3.166 -1.2571  0.0010 -0.7550
  140TIP3    H2  385   0.556   4.352   3.241  0.7675  1.1876  0.5253
  141TIP3   OH2  386   6.574   0.290   5.478 -0.1290  0.0953 -0.3070
  141TIP3    H1  387   6.543   0.255   5.394 -0.7196  0.1343 -0.1048
  141TIP3    H2  388   6.670   0.285   5.472 -0.1443  0.6956 -1.2440
  142TIP3   OH2  389   0.184   0.982   3.641 -0.6247 -0.0868  0.3495
  142TIP3    H1  390   0.239   0.940   3.574  0.2637 -0.9768  1.5833
  142TIP3    H2  391   0.207   1.074   3.637 -0.0346 -0.2461 -0.0702
  143TIP3   OH2  392   4.615   0.827   3.211 -0.0672  0.6138  0.5555
  143TIP3    H1  393   4.529   0.868   3.202 -0.7356 -0.8613 -0.0213
  143TIP3    H2  394   4.602   0.757   3.275  0.4245 -0.3131 -0.3301
  144TIP3   OH2  395   3.536   3.065   4.369 -0.0264 -0.3148 -0.7099
  144TIP3    H1  396   3.443   3.045   4.360 -0.0973  0.2465 -1.2795
  144TIP3    H2  397   3.580   2.984   4.343 -0.3439 -0.4353 -0.8839
  145TIP3   OH2  398   3.714   4.639   2.621 -0.0803  0.6698 -0.1203
  145TIP3    H1  399   3.666   4.556   2.620  0.0787  0.5755  0.0355
  145TIP3    H2  400   3.773   4.633   2.546 -1.2981  1.3726 -1.1740
  146TIP3   OH2  401   3.447   1.311   5.542 -0.3068  0.7537 -0.1480
  146TIP3    H1  402   3.352   1.318   5.554 -0.3224 -0.2570  0.4821
  146TIP3    H2  403   3.457   1.263   5.460 -0.3315  0.9869 -0.2895
  147TIP3   OH2  404   6.673   1.729   4.279 -0.3330 -0.6142 -0.3398
  147TIP3    H1  405   6.591   1.770   4.304  1.1203  1.2058  1.8477
  147TIP3    H2  406   6.692   1.669   4.350  0.0488 -1.3481 -1.0423
  148TIP3   OH2  407   0.387   1.005   5.117  0.0289 -0.0711  0.1646
  148TIP3    H1  408   0.448   0.987   5.188 -1.1055 -0.1303  1.1498
  148TIP3    H2  409   0.438   0.991   5.037  1.3380  0.0661  0.9634
  149TIP3   OH2  410   3.647   4.877   2.229  0.0173 -0.5507 -0.1489
  149TIP3    H1  411   3.667   4.886   2.323 -0.4742 -0.3778 -0.0566
  149TIP3    H2  412   3.557   4.843   2.227  0.1742 -0.9507 -0.5550
  150TIP3   OH2  413   0.240   1.237   3.651  0.5963  0.1777  0.6335
  150TIP3    H1  414   0.186   1.311   3.681  0.7416  0.2565  0.7027
  150TIP3    H2  415   0.330   1.266   3.667  0.6445 -0.1160  0.8889
  151TIP3   OH2  416   4.540   0.715   4.205  0.7504  0.4797 -0.3021
  151TIP3    H1  417   4.515   0.780   4.140  1.6973  0.7047 -0.4653
  151TIP3    H2  418   4.569   0.767   4.281  0.9585  0.2405 -0.2159
  152TIP3   OH2  419   5.639   6.273   3.009 -0.0000  0.4362  0.1097
  152TIP3    H1  420   5.643   6.189   2.964  0.0479  1.8370 -2.7225
  152TIP3    H2  421   5.717   6.320   2.979  0.7030  1.0745  2.6821
  153TIP3   OH2  422   3.401   4.451   1.142 -0.4560 -0.3179 -0.1968
  153TIP3    H1  423   3.351   4.416   1.068  1.8453 -2.0708 -1.0736
  153TIP3    H2  424   3.435   4.534   1.111 -0.0143 -0.7519 -0.9024
  154TIP3   OH2  425   2.791   5.307   5.489  0.1218 -0.2475  0.7142
  154TIP3    H1  426   2.727   5.379   5.495 -1.2579 -1.5035  1.7790
  154TIP3    H2  427   2.740   5.228   5.508  1.8195 -1.4078  0.6331
  155TIP3   OH2  428   5.823   0.867   2.252 -0.1362 -0.5344  0.1898
  155TIP3    H1  429   5.753   0.878   2.317  1.1618 -1.3113  1.7858
  155TIP3    H2  430   5.805   0.782   2.212  0.3823 -1.1520  1.2438
  156TIP3   OH2  431   6.757   1.609   3.351 -0.3006 -0.2539 -0.1826
  156TIP3    H1  432   6.685   1.622   3.413 -1.4804  0.1728 -1.5823
  156TIP3    H2  433   6.784   1.518   3.364  0.8082  0.3325  2.2685
  157TIP3   OH2  434   5.729   2.951   3.396  0.0453 -0.2648 -0.4351
  157TIP3    H1  435   5.808   2.904   3.368  1.8671  2.1048  0.3355
  157TIP3    H2  436   5.718   2.926   3.488  2.1125  1.9894  0.5408
  158TIP3   OH2  437   2.910   0.547   3.759  0.0664  0.0098  0.4518
  158TIP3    H1  438   2.977   0.615   3.749  0.3361 -0.3745 -0.4056
  158TIP3    H2  439   2.911   0.500   3.676 -1.9560  0.5955  0.0527
  159TIP3   OH2  440   4.227   5.504   3.771  0.0218 -0.0490 -0.3656
  159TIP3    H1  441   4.240   5.549   3.687 -0.6788 -1.1945 -1.1167
  159TIP3    H2  442   4.314   5.503   3.811  0.3253  0.6837 -0.9872
  160TIP3   OH2  443   1.534   0.364   5.300 -0.2330  0.7346 -0.0922
  160TIP3    H1  444   1.594   0.300   5.340 -1.0916  0.5291  0.9415
  160TIP3    H2  445   1.567   0.449   5.328 -0.2324  0.6384  0.2029
  161TIP3   OH2  446   1.289   2.580   0.995  0.6335 -0.4379  0.0597
  161TIP3    H1  447   1.384   2.569   1.002  0.3588 -1.8049  2.5120
  161TIP3    H2  448   1.260   2.600   1.084 -1.4510 -0.4129 -0.5691
  162TIP3   OH2  449   3.436   5.913   2.586 -0.1139 -0.0010  0.5778
  162TIP3    H1  450   3.353   5.934   2.628  0.3371  0.1457  1.4358
  162TIP3    H2  451   3.493   5.887   2.659  0.3287 -0.9675 -0.0838
  163TIP3   OH2  452   3.903   3.948   1.643 -0.8935  0.2949 -0.0788
  163TIP3    H1  453   3.848   3.971   1.567 -1.5081 -0.6831  0.0560
  163TIP3    H2  454   3.975   4.011   1.640  0.1422 -0.8612 -2.5818
  164TIP3   OH2  455   2.361   5.184   4.421 -0.0162  0.2962 -0.0634
  164TIP3    H1  456   2.266   5.198   4.427 -0.3506 -1.1029 -1.3493
  164TIP3    H2  457   2.388   5.164   4.510 -0.8261  1.2519  0.4149
  165TIP3   OH2  458   4.591   2.863   1.259 -0.2230  0.5834  0.1972
  165TIP3    H1  459   4.561   2.952   1.277 -0.4595  0.1316  2.2786
  165TIP3    H2  460   4.528   2.806   1.304 -0.4678 -0.7055 -1.6448
  166TIP3   OH2  461   2.256   4.073   5.185  0.4359 -0.3268  0.0477
  166TIP3    H1  462   2.261   4.079   5.090  0.8519  1.4130  0.1444
  166TIP3    H2  463   2.347   4.081   5.215  0.3621 -1.3120  0.5942
  167TIP3   OH2  464   6.864   1.025   2.568 -0.0103 -0.4777 -0.1625
  167TIP3    H1  465   6.793   0.975   2.529  1.2339 -1.4228 -1.3194
  167TIP3    H2  466   6.884   1.093   2.503  1.3553 -1.3956 -0.7673
  168TIP3   OH2  467   6.813   0.316   2.446 -0.0807  0.8140  0.6912
  168TIP3    H1  468   6.847   0.323   2.357 -2.7515  1.2863 -0.3714
  168TIP3    H2  469   6.743   0.251   2.440 -0.2452  0.7734  2.4836
  169TIP3   OH2  470   0.490   0.591   0.640 -0.1221  0.6581 -0.1140
  169TIP3    H1  471   0.534   0.506   0.644 -1.3504 -0.0468 -1.0510
  169TIP3    H2  472   0.425   0.581   0.571  0.1466  2.5776 -0.7010
  170TIP3   OH2  473   5.698   1.278   4.677 -0.0816  0.0696  0.2778
  170TIP3    H1  474   5.647   1.360   4.678 -0.6739 -0.3002  0.7376
  170TIP3    H2  475   5.753   1.283   4.755  1.2892  0.8842 -0.6895
  171TIP3   OH2  476   6.007   5.256   0.781  0.2569  0.0623 -0.0039
  171TIP3    H1  477   5.961   5.172   0.787  0.6736 -0.1688 -0.0308
  171TIP3    H2  478   6.086   5.236   0.731  1.5647 -0.0546  2.0208
  172TIP3   OH2  479   4.500   0.065   0.181  0.0817 -0.9263 -0.3836
  172TIP3    H1  480   4.548   0.043   0.261  0.4163  0.8052 -0.0524
  172TIP3    H2  481   4.534   0.005   0.115  0.3778 -1.8486  0.5772
  173TIP3   OH2  482   5.953   5.395   2.887  0.3902  0.7025 -0.3347
  173TIP3    H1  483   6.042   5.431   2.884  0.7331  0.0006  0.7455
  173TIP3    H2  484   5.896   5.471   2.880  1.0665  1.1427 -1.2608
  174TIP3   OH2  485   6.697   6.209   4.391 -0.0313  0.0029 -0.1503
  174TIP3    H1  486   6.656   6.123   4.397  1.3539 -0.5947  1.2063
  174TIP3    H2  487   6.642   6.265   4.446 -1.0798  0.1006 -1.2323
  175TIP3   OH2  488   0.923   1.260   0.053  0.2478 -0.2179  0.0861
  175TIP3    H1  489   0.979   1.270   0.130  1.0629  0.4453 -0.5697
  175TIP3    H2  490   0.949   1.176   0.016  0.2883 -0.2515  0.1901
  176TIP3   OH2  491   2.880   2.410   5.364  0.0598 -0.1509 -0.2299
  176TIP3    H1  492   2.940   2.393   5.437  2.1376  1.3554 -1.4691
  176TIP3    H2  493   2.894   2.338   5.303 -1.3411 -1.1667  0.6064
  177TIP3   OH2  494   3.897   5.442   2.292 -0.3108  0.2717  0.0673
  177TIP3    H1  495   3.878   5.495   2.214  1.7922 -0.6590 -1.1602
  177TIP3    H2  496   3.992   5.434   2.293 -0.3578 -0.5473  2.2212
  178TIP3   OH2  497   2.603   2.196   4.835  0.4918  0.2576 -0.9470
  178TIP3    H1  498   2.684   2.247   4.826 -0.0943  1.3078 -0.4301
  178TIP3    H2  499   2.598   2.175   4.928 -0.6719  1.6593 -0.6618
  179TIP3   OH2  500   1.380   5.822   4.101 -0.0896 -0.2525 -0.7492
  179TIP3    H1  501   1.415   5.908   4.124 -1.1206  0.0485 -0.1966
  179TIP3    H2  502   1.447   5.760   4.129 -0.2239  0.2595  0.8526
  180TIP3   OH2  503   6.219   4.860   4.003  0.3605  0.0770  0.5181
  180TIP3    H1  504   6.305   4.853   4.044  0.0139  1.1495  1.5211
  180TIP3    H2  505   6.197   4.953   4.010 -0.9876 -0.2202  0.5353
  181TIP3   OH2  506   3.615   5.978   5.728  0.3756 -0.1484  0.4095
  181TIP3    H1  507   3.657   5.943   5.650  0.7913  0.8836  0.1461
  181TIP3    H2  508   3.525   5.997   5.701  0.5166  0.2009  0.1714
  182TIP3   OH2  509   3.609   2.559   4.083  0.3628 -0.1429 -0.5055
  182TIP3    H1  510   3.514   2.553   4.074  0.3048 -0.2700  0.1385
  182TIP3    H2  511   3.637   2.610   4.007 -0.7056  3.7345  1.4511
  183TIP3   OH2  512   1.620   4.756   5.718  0.0943  0.1920  0.3364
  183TIP3    H1  513   1.600   4.686   5.780 -1.5723  0.9024  0.6589
  183TIP3    H2  514   1.658   4.826   5.772  0.4667  0.0713  0.2341
  184TIP3   OH2  515   0.470   0.033   3.561 -0.0164 -0.0274  0.2281
  184TIP3    H1  516   0.493   0.124   3.547  1.1739 -0.2646  0.4966
  184TIP3    H2  517   0.546  -0.004   3.605 -0.9190 -0.8900  1.1152
  185TIP3   OH2  518   4.553   4.454   2.472 -0.1716 -0.2188  0.0199
  185TIP3    H1  519   4.604   4.518   2.522  0.7477  0.1668 -1.3536
  185TIP3    H2  520   4.543   4.380   2.531  0.5986  0.3455  0.8918
  186TIP3   OH2  521   0.788   2.795   5.826  0.3269 -0.7958 -0.3417
  186TIP3    H1  522   0.857   2.744   5.868  0.9429  0.5446  0.3093
  186TIP3    H2  523   0.808   2.790   5.732  0.2314 -1.9275 -0.3192
  187TIP3   OH2  524   1.171   4.147   5.877  0.0401 -0.2512  0.3720
  187TIP3    H1  525   1.101   4.096   5.838  0.7868 -0.0803 -1.2647
  187TIP3    H2  526   1.251   4.110   5.841  0.8404 -0.4851  2.2469
  188TIP3   OH2  527   7.108   2.130   0.423 -0.0706  0.1891  0.1941
  188TIP3    H1  528   7.112   2.102   0.514  1.0500  2.5164  0.9421
  188TIP3    H2  529   7.169   2.073   0.377 -0.5794 -0.9516  0.8819
  189TIP3   OH2  530   0.632   4.399   1.957  0.1180 -0.0976  0.1401
  189TIP3    H1  531   0.658   4.369   2.044 -0.7387 -0.3051  0.3392
  189TIP3    H2  532   0.599   4.320   1.913  2.4216 -0.4320 -1.1396
  190TIP3   OH2  533   1.738   5.938   0.724  0.0866 -0.5101 -0.2728
  190TIP3    H1  534   1.746   5.881   0.801  0.7276 -0.1297 -0.0495
  190TIP3    H2  535   1.646   5.928   0.697 -0.0632 -0.9048  0.3408
  191TIP3   OH2  536   0.333   4.144   5.808  0.0728 -0.0394 -0.1232
  191TIP3    H1  537   0.393   4.211   5.774  0.2870 -1.1115 -2.0119
  191TIP3    H2  538   0.266   4.136   5.740 -0.1440 -1.4622  0.2260
  192TIP3   OH2  539   2.902   0.437   1.113  0.2122  0.5452  0.0253
  192TIP3    H1  540   2.841   0.390   1.056 -0.4866  1.0953  0.3047
  192TIP3    H2  541   2.927   0.373   1.179  0.2770  0.1904 -0.3350
  193TIP3   OH2  542   2.467   1.726   3.161 -0.4050  0.3625 -0.0307
  193TIP3    H1  543   2.513   1.703   3.079 -2.2017 -2.2661 -0.4483
  193TIP3    H2  544   2.422   1.808   3.141 -0.0255  0.2772 -1.3485
  194TIP3   OH2  545   0.783   5.707   2.218  0.6132  0.5420 -0.2237
  194TIP3    H1  546   0.729   5.715   2.296  1.4949  1.2697  0.3303
  194TIP3    H2  547   0.731   5.655   2.157  0.1362 -0.4994  1.0487
  195TIP3   OH2  548   5.932   6.050   0.995 -0.0619 -0.6068  0.2371
  195TIP3    H1  549   6.012   6.072   1.042  0.0243  0.1400 -0.2494
  195TIP3    H2  550   5.863   6.095   1.044 -0.0479 -0.3510  0.0257
  196TIP3   OH2  551   1.324   2.954   0.143  0.2935  0.1678  0.3437
  196TIP3    H1  552   1.310   3.049   0.149  0.9953  0.2428  0.8160
  196TIP3    H2  553   1.418   2.944   0.133  0.3385 -0.5308  1.3439
  197TIP3   OH2  554   0.666   6.001   2.721  0.2158 -0.0315 -0.3700
  197TIP3    H1  555   0.611   6.069   2.682 -0.5116  0.0660  0.7876
  197TIP3    H2  556   0.713   6.045   2.792  3.0426  0.2850 -2.2650
  198TIP3   OH2  557   4.850   0.440   1.588  0.0742 -0.3930  0.0788
  198TIP3    H1  558   4.861   0.530   1.555 -1.0611  0.1500  1.1031
  198TIP3    H2  559   4.821   0.390   1.512 -2.8090  0.8995  0.1937
  199TIP3   OH2  560   3.738   4.183   1.186 -0.1105 -0.2151 -0.0254
  199TIP3    H1  561   3.643   4.178   1.183 -0.2517  1.1799  0.9377
  199TIP3    H2  562   3.759   4.264   1.139  0.3835  0.7715  1.7920
  200TIP3   OH2  563   5.051   1.818   1.518  0.2161 -0.1718  0.3510
  200TIP3    H1  564   5.013   1.740   1.558 -0.3371  0.5781  1.3271
  200TIP3    H2  565   5.071   1.875   1.592  0.8125  0.5291 -0.3372
  201TIP3   OH2  566   6.180   4.391   1.564 -0.4060  0.2140 -0.3927
  201TIP3    H1  567   6.134   4.409   1.482 -1.7561  1.2403  0.5420
  201TIP3    H2  568   6.110   4.375   1.628  0.6189 -0.8572  0.5121
  202TIP3   OH2  569   5.306   3.408   0.662  0.3516  0.1726  0.0765
  202TIP3    H1  570   5.346   3.392   0.747 -1.8487 -1.1430  0.9341
  202TIP3    H2  571   5.270   3.497   0.668 -0.9130 -0.3744  1.0376
  203TIP3   OH2  572   1.493   0.147   1.799  0.3847  0.3403 -0.2919
  203TIP3    H1  573   1.447   0.076   1.753 -0.3600  0.5494  0.1109
  203TIP3    H2  574   1.465   0.226   1.753 -0.7265  0.5981  0.7716
  204TIP3   OH2  575   5.018   3.857   1.107  0.3091 -0.1719 -0.1196
  204TIP3    H1  576   5.024   3.870   1.201  0.2660  1.1500 -0.2802
  204TIP3    H2  577   5.027   3.763   1.095 -2.5217 -0.7535  1.4307
  205TIP3   OH2  578   4.371   4.229   1.961 -0.2236  0.0287  0.4472
  205TIP3    H1  579   4.386   4.301   1.900  0.5439 -0.0089  0.5805
  205TIP3    H2  580   4.339   4.271   2.041 -1.7715  0.0333 -0.1338
  206TIP3   OH2  581   0.059   3.710   1.267  0.3116 -0.0446  0.2246
  206TIP3    H1  582   0.053   3.796   1.307 -0.1761  0.0065  0.0498
  206TIP3    H2  583   0.033   3.724   1.176 -0.6862 -0.5314  0.4219
  207TIP3   OH2  584   2.119   3.691   5.530 -0.5173  0.7442  0.0798
  207TIP3    H1  585   2.026   3.701   5.551 -0.3590  0.8373  0.7647
  207TIP3    H2  586   2.157   3.778   5.547 -0.5732  1.1656 -1.7166
  208TIP3   OH2  587   0.389   1.784   0.977 -0.2757 -0.7915 -0.2946
  208TIP3    H1  588   0.299   1.751   0.975 -0.7339  0.4375 -2.1224
  208TIP3    H2  589   0.382   1.870   1.019  0.4353 -1.6088  1.6059
  209TIP3   OH2  590   4.968   5.957   1.694 -0.3177  0.4383  0.9179
  209TIP3    H1  591   4.986   6.020   1.624 -1.2746  1.9326  1.9721
  209TIP3    H2  592   5.054   5.927   1.723  0.1683  1.5456  0.6479
  210TIP3   OH2  593   7.016   0.731   1.380 -0.0584  0.0132 -0.1163
  210TIP3    H1  594   6.961   0.683   1.318  1.2312 -0.8887 -0.5946
  210TIP3    H2  595   7.100   0.685   1.379  0.4918  0.9320  1.1282
  211TIP3   OH2  596   4.225   0.460   2.361 -0.0812 -0.1448 -0.1764
  211TIP3    H1  597   4.289   0.531   2.368  0.1190 -0.4624  1.6382
  211TIP3    H2  598   4.154   0.485   2.420  0.3078 -1.7180  1.0261
  212TIP3   OH2  599   6.264   0.808   1.055 -0.7788  0.0988 -0.4683
  212TIP3    H1  600   6.242   0.862   0.979  0.2605  0.5035 -0.5033
  212TIP3    H2  601   6.226   0.722   1.035  1.1347 -0.4060 -2.4290
  213TIP3   OH2  602   7.139   5.245   0.160 -0.2732 -0.1961  0.5357
  213TIP3    H1  603   7.216   5.296   0.187 -1.0132  1.4127 -0.2142
  213TIP3    H2  604   7.151   5.160   0.200  0.1820  1.0835  3.3633
  214TIP3   OH2  605   4.387   2.750   3.720  0.2418 -0.5507 -0.4563
  214TIP3    H1  606   4.427   2.720   3.638  0.7230  1.1813 -0.9017
  214TIP3    H2  607   4.457   2.745   3.784 -0.5163 -3.3417  0.2950
  215TIP3   OH2  608   6.893   2.390   2.764  0.5096  0.8122 -0.7967
  215TIP3    H1  609   6.852   2.305   2.780 -1.2429  1.7413 -0.1749
  215TIP3    H2  610   6.966   2.393   2.827  0.5602 -0.1831 -0.7821
  216TIP3   OH2  611   2.581   2.593   5.775 -0.5551  0.1661 -0.2176
  216TIP3    H1  612   2.630   2.596   5.857 -2.1517  0.7599  0.7448
  216TIP3    H2  613   2.553   2.502   5.766  1.2744 -0.3545 -1.1553
  217TIP3   OH2  614   3.333   5.200   1.470  0.1228  0.3034  0.3789
  217TIP3    H1  615   3.360   5.190   1.561 -2.4266 -1.8303  0.9966
  217TIP3    H2  616   3.261   5.263   1.473 -0.4527 -0.3305 -0.0594
  218TIP3   OH2  617   2.990   6.007   1.445 -0.0165  0.1786 -0.1442
  218TIP3    H1  618   2.980   6.019   1.539  0.7050 -0.8143  0.0776
  218TIP3    H2  619   3.030   6.087   1.413 -1.4664  1.0657  0.1685
  219TIP3   OH2  620   0.854   1.181   4.958 -0.1436  0.4510  0.2213
  219TIP3    H1  621   0.810   1.261   4.930  0.9924  1.5062  1.3777
  219TIP3    H2  622   0.894   1.203   5.042 -0.6834 -1.6451  1.1079
  220TIP3   OH2  623   2.057   0.384   3.261 -0.2842 -0.5096  0.4060
  220TIP3    H1  624   2.098   0.465   3.231  0.5247 -0.3972  1.7290
  220TIP3    H2  625   2.049   0.395   3.356  1.0494 -2.4683  0.8189
  221TIP3   OH2  626   2.890   0.861   0.587  0.3306 -0.2657  0.1815
  221TIP3    H1  627   2.796   0.865   0.606  0.1912 -1.3435 -0.2184
  221TIP3    H2  628   2.895   0.852   0.492  0.9005  1.1174  0.0519
  222TIP3   OH2  629   5.025   2.459   4.892 -0.0848 -0.2868 -0.1993
  222TIP3    H1  630   5.105   2.408   4.901 -0.5032 -0.7707  1.0130
  222TIP3    H2  631   5.052   2.549   4.914 -0.3101 -0.8391  2.8158
  223TIP3   OH2  632   3.421   0.906   2.133  0.5523 -0.0216 -0.0702
  223TIP3    H1  633   3.325   0.895   2.138  0.6566 -0.8669  0.3649
  223TIP3    H2  634   3.449   0.841   2.069  0.7706  0.7733 -0.8050
  224TIP3   OH2  635   3.832   1.851   1.915  0.4509 -0.1566 -0.4427
  224TIP3    H1  636   3.925   1.828   1.918  1.3736  2.2982 -4.0867
  224TIP3    H2  637   3.814   1.891   2.000  3.0863  0.4216 -0.0897
  225TIP3   OH2  638   6.370   1.535   4.047 -0.3243  1.2039 -0.1010
  225TIP3    H1  639   6.286   1.509   4.010 -0.5120  2.3224 -0.5104
  225TIP3    H2  640   6.431   1.530   3.974 -0.0066  0.3425  0.2077
  226TIP3   OH2  641   0.322   3.096   0.745  0.2074 -0.5461  0.2212
  226TIP3    H1  642   0.358   3.010   0.725 -0.6851 -0.9450  0.2791
  226TIP3    H2  643   0.253   3.109   0.680  0.7075  0.3773 -0.1428
  227TIP3   OH2  644   7.200   6.629   3.840 -0.1599 -0.2469  0.2066
  227TIP3    H1  645   7.263   6.585   3.897 -1.6318 -0.4464  1.7752
  227TIP3    H2  646   7.158   6.558   3.792 -0.1430 -0.2320  0.1690
  228TIP3   OH2  647   1.947   0.387   0.823 -0.2333  0.2377  0.4887
  228TIP3    H1  648   1.895   0.372   0.744  0.8688 -1.0421 -0.0278
  228TIP3    H2  649   2.021   0.439   0.793 -1.4332  2.5698  1.3350
  229TIP3   OH2  650   5.134   3.303   2.644  0.3361  0.2512  0.1931
  229TIP3    H1  651   5.168   3.279   2.558 -1.1822  1.6572 -0.8446
  229TIP3    H2  652   5.050   3.344   2.626 -1.4242 -2.0076  2.5504
  230TIP3   OH2  653   4.387   2.518   0.933  0.0186 -0.2931 -0.1040
  230TIP3    H1  654   4.375   2.495   0.840 -1.2521  2.2533 -0.6439
  230TIP3    H2  655   4.413   2.610   0.932 -0.4386 -0.0934  2.0858
  231TIP3   OH2  656   2.999   2.042   0.223  0.0475  0.2568 -0.5236
  231TIP3    H1  657   3.089   2.074   0.234  0.0487  0.5633 -1.3137
  231TIP3    H2  658   2.999   2.003   0.135  0.1365 -2.2754  0.5291
  232TIP3   OH2  659   5.173   3.370   1.248 -0.5652  0.1596 -0.1418
  232TIP3    H1  660   5.142   3.332   1.166 -0.2117  0.0154 -0.2117
  232TIP3    H2  661   5.268   3.367   1.241 -0.4255  3.6753 -1.4008
  233TIP3   OH2  662   7.055   1.112   0.137  0.0476 -0.1391  0.2434
  233TIP3    H1  663   6.966   1.083   0.152 -0.7019  1.6333 -0.5084
  233TIP3    H2  664   7.062   1.123   0.042  1.1481 -0.5034  0.2620
  234TIP3   OH2  665   1.738   2.100   1.471 -0.5241  0.5541  0.3254
  234TIP3    H1  666   1.707   2.118   1.382  0.4210 -1.1833 -0.4066
  234TIP3    H2  667   1.671   2.044   1.509  0.4759 -1.2320 -0.4194
  235TIP3   OH2  668   0.504   6.638   3.625 -0.3376 -0.4048  0.0148
  235TIP3    H1  669   0.442   6.576   3.661 -0.8232  0.9950  1.7198
  235TIP3    H2  670   0.583   6.629   3.679 -0.2295  0.0863 -0.0504
  236TIP3   OH2  671   2.419   4.432   1.616  0.0708  0.1882 -0.1430
  236TIP3    H1  672   2.512   4.431   1.638  0.0669  1.0522 -0.0540
  236TIP3    H2  673   2.385   4.349   1.649  0.4419  0.6371  1.4572
  237TIP3   OH2  674   3.092   1.679   3.723  0.1532 -0.1557 -0.1584
  237TIP3    H1  675   3.061   1.724   3.645 -2.0282 -0.4103  0.5036
  237TIP3    H2  676   3.087   1.744   3.793  2.0921  0.0718 -0.1708
  238TIP3   OH2  677   1.890   3.149   3.734  0.1514  0.1468 -0.0003
  238TIP3    H1  678   1.935   3.107   3.808  0.6035 -0.0204 -0.3661
  238TIP3    H2  679   1.920   3.100   3.658  0.6572  1.1252 -0.4339
  239TIP3   OH2  680   0.376   4.412   4.571  0.1565  0.2048  0.1439
  239TIP3    H1  681   0.304   4.474   4.564 -0.0742  0.3241  2.6325
  239TIP3    H2  682   0.453   4.467   4.588  0.9024  0.0731 -2.3441
  240TIP3   OH2  683   0.695   3.681   5.840 -0.0908  0.5349 -0.3373
  240TIP3    H1  684   0.672   3.589   5.824  0.8531  0.4113 -1.0743
  240TIP3    H2  685   0.707   3.686   5.935  1.5241 -0.5351 -0.4419
  241TIP3   OH2  686   1.320   4.772   2.809 -0.5608  0.5705  0.3875
  241TIP3    H1  687   1.289   4.743   2.895 -2.8007 -1.3525 -0.9619
  241TIP3    H2  688   1.400   4.721   2.795 -0.8856 -0.0697  0.7928
  242TIP3   OH2  689   3.971   4.637   2.453 -0.6216  0.4816  0.3790
  242TIP3    H1  690   3.960   4.601   2.365  1.1893 -0.7431  0.5982
  242TIP3    H2  691   3.983   4.731   2.439 -1.2027  0.4220 -0.5888
  243TIP3   OH2  692   2.821   5.120   4.459  0.0632  0.9761  0.7258
  243TIP3    H1  693   2.804   5.027   4.474  2.5015  0.2465 -0.4914
  243TIP3    H2  694   2.788   5.163   4.538  0.0615 -1.0775  1.9259
  244TIP3   OH2  695   0.559   0.824   4.929  0.0142 -0.0855 -0.0191
  244TIP3    H1  696   0.608   0.903   4.954 -0.0759  0.1985 -0.7347
  244TIP3    H2  697   0.626   0.756   4.921  0.2043  0.1372 -0.3160
  245TIP3   OH2  698   0.092   1.692   4.884 -0.1104 -0.0246 -0.5352
  245TIP3    H1  699   0.108   1.732   4.798 -0.3594  0.2880 -0.4389
  245TIP3    H2  700  -0.003   1.683   4.889 -0.0326 -1.1234 -0.7667
  246TIP3   OH2  701   3.056   4.921   4.590  0.7049  0.4392 -0.0668
  246TIP3    H1  702   3.041   4.964   4.506 -0.8996  2.1613  1.0428
  246TIP3    H2  703   2.994   4.848   4.591  0.0888  0.9606 -0.0088
  247TIP3   OH2  704   6.832   2.819   1.122 -0.8097 -0.2758  0.4795
  247TIP3    H1  705   6.742   2.832   1.093 -0.5663 -0.5868 -0.4679
  247TIP3    H2  706   6.833   2.730   1.159 -1.0712  0.0362  1.2498
  248TIP3   OH2  707   4.968   3.343   3.221 -0.0844  0.4211 -0.3203
  248TIP3    H1  708   4.918   3.420   3.196 -0.9947  1.1039  3.0791
  248TIP3    H2  709   5.026   3.373   3.292  1.3135 -1.5059 -0.5657
  249TIP3   OH2  710   0.252   3.677   0.861  0.5555  0.1540 -0.6822
  249TIP3    H1  711   0.166   3.636   0.864  0.1704  0.9833  0.0408
  249TIP3    H2  712   0.252   3.727   0.779 -1.1157  3.1591  0.9865
  250TIP3   OH2  713   1.604   4.314   2.652 -0.1296 -0.0055 -0.0219
  250TIP3    H1  714   1.654   4.322   2.570 -0.5721  1.9510 -0.1458
  250TIP3    H2  715   1.665   4.342   2.720 -0.5191  0.7885  0.0131
  251TIP3   OH2  716   2.148   4.747   4.004  0.2601 -0.2288 -0.6715
  251TIP3    H1  717   2.079   4.784   4.060  0.8907  0.1538 -0.1310
  251TIP3    H2  718   2.180   4.822   3.953  0.6663 -0.2855 -0.5029
  252TIP3   OH2  719   0.349   4.207   4.749 -0.2249  0.0094  0.1538
  252TIP3    H1  720   0.346   4.253   4.665  0.4968  0.1720  0.2067
  252TIP3    H2  721   0.322   4.273   4.813  0.1605  0.1739  0.1526
  253TIP3   OH2  722   6.419   0.276   0.971  0.4703 -0.6448 -0.8121
  253TIP3    H1  723   6.402   0.196   1.022 -1.1587  0.0246 -0.2578
  253TIP3    H2  724   6.476   0.329   1.027  0.2351 -0.7233 -0.5006
  254TIP3   OH2  725   2.993   1.867   3.903 -0.4692 -0.1737 -0.5039
  254TIP3    H1  726   3.072   1.919   3.918 -1.3877  0.9722  0.6102
  254TIP3    H2  727   2.922   1.932   3.896 -1.3529 -1.1770 -1.2079
  255TIP3   OH2  728   6.880   6.723   1.803  0.3728  0.8423 -0.1220
  255TIP3    H1  729   6.867   6.676   1.885 -0.6255 -2.4542 -1.9826
  255TIP3    H2  730   6.792   6.743   1.773  0.6137  0.2751 -1.2594
  256TIP3   OH2  731   0.316   3.701   2.449  0.1606  0.1054 -0.4711
  256TIP3    H1  732   0.316   3.609   2.476 -0.7171 -0.0038 -0.8059
  256TIP3    H2  733   0.396   3.737   2.486 -0.5624 -0.2407  1.5964
  257TIP3   OH2  734   4.326   0.139   0.435 -0.2222  0.1002  0.0950
  257TIP3    H1  735   4.386   0.128   0.361 -1.3279  0.9558 -0.9731
  257TIP3    H2  736   4.378   0.183   0.502  0.2913  1.1099 -0.9252
  258TIP3   OH2  737   5.620   5.197   3.049  0.5264 -0.4034  0.6919
  258TIP3    H1  738   5.577   5.192   3.135 -2.3475 -1.1080 -0.6590
  258TIP3    H2  739   5.620   5.106   3.018 -0.3498  0.1136 -0.8831
  259TIP3   OH2  740   7.042   0.531   1.759  0.4647  0.0745  0.1147
  259TIP3    H1  741   7.108   0.566   1.699  1.2451  0.3387  1.0982
  259TIP3    H2  742   7.053   0.436   1.754  0.6278  0.1015 -0.0440
  260TIP3   OH2  743   5.178   1.443   2.776  0.2720 -0.2206  0.0550
  260TIP3    H1  744   5.207   1.426   2.865  2.0599  0.6944 -0.3183
  260TIP3    H2  745   5.200   1.535   2.760 -1.5649  0.1306 -0.7788
  261TIP3   OH2  746   3.245   3.842   1.457  0.1819  0.2290  0.4098
  261TIP3    H1  747   3.175   3.830   1.393 -1.0265 -0.8772  1.8340
  261TIP3    H2  748   3.287   3.756   1.463  2.1410  1.0270 -0.8708
  262TIP3   OH2  749   4.083   6.010   1.375 -0.4427  0.0186 -0.2777
  262TIP3    H1  750   4.082   5.961   1.293 -1.7522 -1.3379  0.5071
  262TIP3    H2  751   4.164   5.984   1.418  1.6022  2.6799 -2.1740
  263TIP3   OH2  752   3.132   5.702   3.453  0.2437 -0.7917  0.1881
  263TIP3    H1  753   3.148   5.624   3.506  1.1238 -1.7271 -1.3782
  263TIP3    H2  754   3.092   5.669   3.373  0.7866  0.3428 -0.5772
  264TIP3   OH2  755   0.970   5.747   4.223  0.1320 -0.5359 -0.1188
  264TIP3    H1  756   0.940   5.656   4.227 -0.4510 -0.3499 -0.1806
  264TIP3    H2  757   0.915   5.794   4.286  0.5876 -0.2671  0.0849
  265TIP3   OH2  758   0.896   5.127   0.938 -0.0050  0.0628 -0.5626
  265TIP3    H1  759   0.808   5.090   0.939  0.2291 -0.5387 -1.3131
  265TIP3    H2  760   0.951   5.062   0.982 -0.1533  1.0661  1.1721
  266TIP3   OH2  761   5.353   1.030   4.611  0.4581 -0.1887  0.1969
  266TIP3    H1  762   5.327   1.070   4.528 -2.3564 -0.0362  1.0610
  266TIP3    H2  763   5.354   1.102   4.673 -2.7518 -0.9761  1.3549
  267TIP3   OH2  764   0.459   3.206   5.910  0.4638  0.3990 -0.0370
  267TIP3    H1  765   0.460   3.223   5.816  1.0148 -2.4908 -0.6604
  267TIP3    H2  766   0.397   3.134   5.921  0.3189  0.7600  1.8270
  268TIP3   OH2  767   1.140   4.671   0.536  0.2885 -0.0121 -0.0709
  268TIP3    H1  768   1.232   4.647   0.546  0.3496  0.1266 -0.2953
  268TIP3    H2  769   1.091   4.596   0.572  0.4836 -0.2505 -0.2966
  269TIP3   OH2  770   4.170   5.283   1.387 -0.1810  0.2449 -0.5623
  269TIP3    H1  771   4.155   5.362   1.335  0.3074  0.3379 -0.5643
  269TIP3    H2  772   4.084   5.242   1.393 -0.2943  0.3721 -1.2241
  270TIP3   OH2  773   0.637   1.967   2.695  0.7205 -0.1324 -0.4357
  270TIP3    H1  774   0.554   1.919   2.699  0.3237  0.5277 -0.6508
  270TIP3    H2  775   0.686   1.937   2.772  0.7487 -1.3490 -0.9010
  271TIP3   OH2  776   6.788   5.198   3.019 -0.4365  0.1836  0.6439
  271TIP3    H1  777   6.806   5.286   2.987  0.7275 -0.5040 -0.7378
  271TIP3    H2  778   6.801   5.142   2.942 -1.7456 -1.1416  1.3359
  272TIP3   OH2  779   1.645   0.739   1.018 -0.6343  0.1280 -0.8508
  272TIP3    H1  780   1.582   0.687   0.967  1.2848 -1.2054 -1.9808
  272TIP3    H2  781   1.730   0.705   0.992  0.5780  1.8508  0.6684
  273TIP3   OH2  782   4.732   3.328   2.699  0.3545 -0.2571 -0.0518
  273TIP3    H1  783   4.739   3.233   2.696  0.0097 -0.3926  2.0699
  273TIP3    H2  784   4.817   3.359   2.668  0.2218 -1.2084 -1.4561
  274TIP3   OH2  785   2.349   3.926   1.659 -0.3247 -0.2034  0.3291
  274TIP3    H1  786   2.428   3.881   1.629  0.3576 -0.0952  1.8487
  274TIP3    H2  787   2.326   3.881   1.741 -2.2658 -0.6992 -0.4402
  275TIP3   OH2  788   4.385   4.238   3.790  0.1851  0.4407 -0.4566
  275TIP3    H1  789   4.375   4.159   3.844 -0.5816  0.1626 -0.9802
  275TIP3    H2  790   4.479   4.247   3.776  0.2947 -0.2512 -0.1938
  276TIP3   OH2  791   0.670   1.386   0.972 -0.2461 -0.1680 -0.7612
  276TIP3    H1  792   0.632   1.471   0.951  1.3056  0.6608 -0.4122
  276TIP3    H2  793   0.637   1.365   1.060 -0.4657  0.1808 -0.7605
  277TIP3   OH2  794   0.087   4.299   1.988 -0.0121  1.4038 -0.0426
  277TIP3    H1  795   0.088   4.229   2.054  0.7161  1.3204 -0.1344
  277TIP3    H2  796  -0.001   4.296   1.952 -0.5067  1.6164  1.1019
  278TIP3   OH2  797   2.667   6.747   1.278  0.1306  0.9695 -0.0154
  278TIP3    H1  798   2.687   6.671   1.223  1.8778 -0.4471  2.3976
  278TIP3    H2  799   2.740   6.807   1.266  0.2660  0.8850  0.3703
  279TIP3   OH2  800   0.206   5.855   4.896 -0.8153  0.7211 -0.1651
  279TIP3    H1  801   0.116   5.876   4.870 -0.2028  0.3622 -2.8850
  279TIP3    H2  802   0.254   5.848   4.813  0.7562 -3.4986  0.8628
  280TIP3   OH2  803   3.137   0.230   4.653  0.2443  0.6089 -0.0108
  280TIP3    H1  804   3.152   0.243   4.559 -1.6941  0.3861 -0.3973
  280TIP3    H2  805   3.220   0.195   4.685  1.2152  1.4110 -1.4693
  281TIP3   OH2  806   4.861   1.072   0.812 -0.0278 -0.3439 -0.5890
  281TIP3    H1  807   4.791   1.116   0.764  0.8582  0.1988 -1.4049
  281TIP3    H2  808   4.933   1.066   0.749  0.3981 -1.5888 -0.0088
  282TIP3   OH2  809   2.954   6.417   1.680 -0.1333  0.0611  0.3658
  282TIP3    H1  810   2.914   6.361   1.613  0.5419 -0.3110  0.2564
  282TIP3    H2  811   3.017   6.359   1.723 -0.1599  0.4603  0.9399
  283TIP3   OH2  812   5.892   6.465   4.208  0.0160  0.0583 -0.5675
  283TIP3    H1  813   5.928   6.505   4.287  0.5231  0.3705 -0.9508
  283TIP3    H2  814   5.924   6.375   4.211  0.4505  0.2052 -0.6652
  284TIP3   OH2  815   5.730   5.879   1.646 -0.0525  0.4630  0.1896
  284TIP3    H1  816   5.752   5.839   1.562 -0.0287  1.0326 -0.0780
  284TIP3    H2  817   5.802   5.939   1.665  0.1454  0.0426  0.8182
  285TIP3   OH2  818   5.169   1.348   0.337 -0.1334 -0.2049  0.7770
  285TIP3    H1  819   5.083   1.365   0.299 -0.2393 -1.6891  0.2589
  285TIP3    H2  820   5.192   1.260   0.304  0.6097 -0.7509  2.6375
  286TIP3   OH2  821   1.608   3.769   5.291 -0.1181 -0.7202  0.4943
  286TIP3    H1  822   1.696   3.807   5.299  0.1950 -1.2850 -0.1067
  286TIP3    H2  823   1.555   3.817   5.354  0.7008 -0.5953  1.1002
  287TIP3   OH2  824   3.564   6.536   3.462 -0.5947 -0.3395 -0.3290
  287TIP3    H1  825   3.505   6.586   3.519 -0.5844 -0.0776 -0.5413
  287TIP3    H2  826   3.594   6.601   3.398 -0.5415 -0.6103 -0.5766
  288TIP3   OH2  827   3.349   3.081   5.544 -0.3594 -0.3052 -0.2898
  288TIP3    H1  828   3.258   3.053   5.532 -0.3289 -0.5910  0.1459
  288TIP3    H2  829   3.401   3.013   5.500 -0.4461  1.4715 -3.4645
  289TIP3   OH2  830   5.268   6.702   2.566  0.2467 -0.1776  0.0864
  289TIP3    H1  831   5.277   6.791   2.531 -2.0302 -0.0814 -0.4387
  289TIP3    H2  832   5.336   6.695   2.633  1.5789  1.3380 -1.0287
  290TIP3   OH2  833   4.410   1.937   0.916  0.3609  0.4842 -0.1012
  290TIP3    H1  834   4.433   1.895   0.833  0.1402  0.6758 -0.2618
  290TIP3    H2  835   4.327   1.981   0.898  1.2454  2.1363 -0.3498
  291TIP3   OH2  836   5.186   2.441   1.130  0.2827 -0.0314 -0.7955
  291TIP3    H1  837   5.216   2.396   1.051  0.6169 -0.8555 -0.2032
  291TIP3    H2  838   5.265   2.480   1.166  0.0003  1.0764 -1.3033
  292TIP3   OH2  839   3.991   0.384   5.128  0.4932 -0.6017 -0.0816
  292TIP3    H1  840   4.013   0.325   5.055  1.5046  1.2989 -1.3743
  292TIP3    H2  841   3.956   0.462   5.086  3.3982  1.5763  1.2360
  293TIP3   OH2  842   2.975   5.806   2.728  0.0803 -0.2054 -0.4015
  293TIP3    H1  843   2.911   5.734   2.726  0.8097 -0.9253  0.9986
  293TIP3    H2  844   2.923   5.884   2.705 -0.5187 -1.2435 -3.0266
  294TIP3   OH2  845   0.568   3.606   1.848  0.0217 -0.8975 -0.0378
  294TIP3    H1  846   0.660   3.579   1.853  0.1476 -0.5051 -0.1894
  294TIP3    H2  847   0.534   3.560   1.771 -0.0688 -1.5038  0.3575
  295TIP3   OH2  848   3.894   2.732   5.908 -0.2764 -0.0282  0.2425
  295TIP3    H1  849   3.916   2.813   5.861 -0.4670  0.5509  1.1227
  295TIP3    H2  850   3.844   2.681   5.846  0.0288  0.4396 -0.4018
  296TIP3   OH2  851   3.235   2.689   1.082 -0.1064 -0.8828  0.3033
  296TIP3    H1  852   3.256   2.782   1.069 -1.4834 -0.7317 -1.1370
  296TIP3    H2  853   3.285   2.644   1.014 -0.1963 -1.0979  0.3791
  297TIP3   OH2  854   3.294   2.143   3.288 -0.0419  0.3835  0.2799
  297TIP3    H1  855   3.379   2.165   3.325 -0.5602  0.2976  1.5941
  297TIP3    H2  856   3.271   2.218   3.233  0.6103  0.6884  0.4189
  298TIP3   OH2  857   4.043   6.202   2.831  0.0911 -0.3011  0.7141
  298TIP3    H1  858   4.133   6.180   2.806  0.0498 -1.0612  1.2086
  298TIP3    H2  859   4.005   6.239   2.751  0.4626 -1.1363  0.1395
  299TIP3   OH2  860   6.298   1.772   4.119  0.7850 -0.2137 -0.4555
  299TIP3    H1  861   6.308   1.683   4.087  0.8803 -0.5079  0.3578
  299TIP3    H2  862   6.347   1.773   4.202 -0.5341  0.1263  0.3492
  300TIP3   OH2  863   3.315   3.077   2.525  0.2209 -0.0076 -0.1645
  300TIP3    H1  864   3.260   3.151   2.552  3.2480  1.9100  1.2900
  300TIP3    H2  865   3.286   3.057   2.436 -1.9904  1.6402  0.0940
  301TIP3   OH2  866   0.751   4.796   2.528  0.0243 -0.0528 -0.0285
  301TIP3    H1  867   0.703   4.849   2.592 -1.3674 -0.8562 -0.3673
  301TIP3    H2  868   0.843   4.809   2.551 -0.4164 -0.1679  2.0355
  302TIP3   OH2  869   1.726   3.711   1.756  0.3637  0.2277 -0.3145
  302TIP3    H1  870   1.728   3.636   1.697 -0.2438 -0.8964  1.0329
  302TIP3    H2  871   1.787   3.688   1.827  1.9673  2.0426 -1.0005
  303TIP3   OH2  872   1.965   4.074   3.018  0.1974  0.1272  0.0544
  303TIP3    H1  873   2.036   4.056   3.080  0.4364  1.2050  0.1087
  303TIP3    H2  874   1.995   4.150   2.968 -0.8267  0.4597 -0.0797
  304TIP3   OH2  875   6.692   3.040   5.288 -0.3472 -0.2749 -0.1463
  304TIP3    H1  876   6.637   3.114   5.259  0.6460  0.7099  0.4185
  304TIP3    H2  877   6.634   2.987   5.342 -0.2130  2.0030  2.4505
  305TIP3   OH2  878   4.919   1.504   3.728 -0.2120 -0.2646 -0.1594
  305TIP3    H1  879   5.002   1.461   3.708 -0.3522 -1.5004  1.6698
  305TIP3    H2  880   4.897   1.553   3.648  1.9203 -0.4310 -0.9083
  306TIP3   OH2  881   2.285   5.267   1.978  0.5828  0.1254 -0.5036
  306TIP3    H1  882   2.375   5.290   1.955  0.4072 -0.5128 -1.9034
  306TIP3    H2  883   2.269   5.183   1.935 -0.2959 -0.3852  0.7370
  307TIP3   OH2  884   4.544   1.079   3.481 -0.3300  0.6389  0.0361
  307TIP3    H1  885   4.500   1.001   3.447 -0.5622  0.6339  0.3448
  307TIP3    H2  886   4.627   1.047   3.515  0.4871  0.8223 -1.6611
  308TIP3   OH2  887   2.976   3.053   5.356 -0.2784 -0.6026 -0.3402
  308TIP3    H1  888   2.939   3.114   5.421  2.1377 -0.1782  0.7576
  308TIP3    H2  889   3.003   3.109   5.284  2.2787 -0.1844  0.8236
  309TIP3   OH2  890   1.849   2.761   4.783 -0.4826 -0.0661 -0.5075
  309TIP3    H1  891   1.879   2.689   4.727 -1.7155  0.0109 -1.2971
  309TIP3    H2  892   1.754   2.750   4.789 -1.2430  3.1660 -3.1923
  310TIP3   OH2  893   2.344   4.571   1.145 -0.4479  0.1099  0.2069
  310TIP3    H1  894   2.286   4.610   1.210  0.0479 -1.2478  1.5440
  310TIP3    H2  895   2.293   4.570   1.064 -1.8973 -0.0538  1.0822
  311TIP3   OH2  896   2.706   2.625   1.416  0.0693 -0.3784  0.7226
  311TIP3    H1  897   2.765   2.585   1.352  0.5340 -0.0740  0.9498
  311TIP3    H2  898   2.620   2.588   1.397  0.3998 -1.1133  0.6210
  312TIP3   OH2  899   5.590   0.246   3.483 -0.1955 -0.1590  0.2260
  312TIP3    H1  900   5.581   0.332   3.443 -0.2069 -0.3339 -0.1530
  312TIP3    H2  901   5.611   0.264   3.575 -1.4720  0.2508  0.4499
  313TIP3   OH2  902   5.686   0.518   3.426  0.0515  0.4686 -0.1171
  313TIP3    H1  903   5.780   0.521   3.412  0.1814  0.0009  0.6296
  313TIP3    H2  904   5.674   0.555   3.513 -0.1640 -2.1695  1.0468
  314TIP3   OH2  905   1.834   3.628   2.777  0.1977  0.0982 -0.6846
  314TIP3    H1  906   1.831   3.590   2.864 -0.2212 -0.8289 -1.0857
  314TIP3    H2  907   1.873   3.714   2.789 -3.3949  1.7046  1.0508
  315TIP3   OH2  908   6.069   1.551   4.771  0.0891 -0.2614  0.0347
  315TIP3    H1  909   6.037   1.637   4.800 -0.1491 -0.2819 -0.1589
  315TIP3    H2  910   6.003   1.490   4.804  0.6757 -0.4551  0.8644
  316TIP3   OH2  911   1.123   3.574   5.415  0.2356  0.6178 -0.4862
  316TIP3    H1  912   1.035   3.574   5.377  0.4009  0.6932 -0.8771
  316TIP3    H2  913   1.182   3.575   5.339  0.5904 -0.8779 -0.2526
  317TIP3   OH2  914   3.597   3.025   0.162 -0.4708  0.0345 -0.0806
  317TIP3    H1  915   3.621   2.968   0.235 -0.8528  0.1234  0.1127
  317TIP3    H2  916   3.526   2.979   0.117 -1.0823  0.5539  0.3343
  318TIP3   OH2  917   2.476   3.769   4.034 -0.2976  0.6723  0.1595
  318TIP3    H1  918   2.529   3.768   4.113  0.6228  1.4551 -0.4214
  318TIP3    H2  919   2.386   3.759   4.065 -0.0232  1.6791  1.3694
  319TIP3   OH2  920   2.987   4.432   4.949  0.0812 -0.5306 -0.8569
  319TIP3    H1  921   2.919   4.386   4.998 -0.6116  0.6683 -0.6726
  319TIP3    H2  922   3.022   4.496   5.011 -0.1918  0.3973 -1.6387
  320TIP3   OH2  923   4.795   3.267   3.475 -0.1580  0.3235  0.2071
  320TIP3    H1  924   4.746   3.315   3.542 -0.0412  0.5954  0.0994
  320TIP3    H2  925   4.749   3.287   3.394 -0.9283 -0.8394  0.3351
  321TIP3   OH2  926   6.339   4.583   1.191  0.0991 -0.3172 -1.0369
  321TIP3    H1  927   6.428   4.567   1.160  0.5804  0.1091  0.0663
  321TIP3    H2  928   6.339   4.551   1.281 -0.9568 -0.5775 -1.1115
  322TIP3   OH2  929   3.805   5.441   0.020  0.5823  0.6876  0.6148
  322TIP3    H1  930   3.777   5.505   0.085 -3.1032  3.2625 -2.9768
  322TIP3    H2  931   3.756   5.362   0.041 -0.9955  1.6531  0.7534
  323TIP3   OH2  932   1.375   4.721   5.574 -0.6375  0.0323 -0.1248
  323TIP3    H1  933   1.343   4.725   5.664  0.1497 -0.0230  0.1690
  323TIP3    H2  934   1.465   4.753   5.579 -0.5075 -0.1869 -0.8558
  324TIP3   OH2  935   2.212   5.757   1.458  0.3266  0.7762 -0.0818
  324TIP3    H1  936   2.264   5.770   1.379 -1.0244 -4.1910 -2.2332
  324TIP3    H2  937   2.268   5.704   1.515  0.2747  1.9312  1.0848
  325TIP3   OH2  938   4.173   6.560   0.410  0.0250 -0.5994  0.2808
  325TIP3    H1  939   4.183   6.475   0.452 -0.9726 -1.0002 -0.2708
  325TIP3    H2  940   4.138   6.541   0.323  1.7000  0.2411 -0.6454
  326TIP3   OH2  941   5.359   3.735   5.640  0.2234  0.2568  0.3487
  326TIP3    H1  942   5.387   3.645   5.657 -1.7149 -0.0030  2.9766
  326TIP3    H2  943   5.349   3.773   5.728 -0.1008  2.6802 -0.6678
  327TIP3   OH2  944   5.572   3.462   2.318 -0.0435 -0.4151  0.4158
  327TIP3    H1  945   5.494   3.413   2.341  0.4896 -1.2626  0.4778
  327TIP3    H2  946   5.641   3.395   2.310  0.8666  0.3971  1.2408
  328TIP3   OH2  947   3.957   4.362   4.721 -0.2821 -0.1100  0.1737
  328TIP3    H1  948   3.907   4.423   4.668  1.6251  1.0620 -0.3833
  328TIP3    H2  949   3.906   4.352   4.801 -0.7106  2.1676  0.2517
  329TIP3   OH2  950   4.329   6.653   5.326  0.3386 -0.3129  0.2198
  329TIP3    H1  951   4.251   6.599   5.314  1.2033 -1.5574 -0.0067
  329TIP3    H2  952   4.310   6.704   5.405 -0.8216 -0.3602 -0.0086
  330TIP3   OH2  953   2.421   5.193   3.628 -0.1413  0.1646  0.1659
  330TIP3    H1  954   2.514   5.187   3.649 -0.3391  0.7395  1.2831
  330TIP3    H2  955   2.409   5.282   3.595 -0.3950  0.3053  0.6205
  331TIP3   OH2  956   3.692   1.232   4.446 -0.0649  0.1717  0.7449
  331TIP3    H1  957   3.672   1.314   4.493 -0.7285  0.0798  0.6245
  331TIP3    H2  958   3.686   1.255   4.354 -2.2977 -0.4816  0.6859
  332TIP3   OH2  959   4.606   0.571   0.887  0.2398 -0.1117  0.1291
  332TIP3    H1  960   4.692   0.535   0.868 -0.1214 -0.6571 -0.5068
  332TIP3    H2  961   4.622   0.664   0.906  1.0148 -0.3092  0.4760
  333TIP3   OH2  962   6.291   1.556   5.737 -0.6099 -0.1260 -0.4991
  333TIP3    H1  963   6.368   1.544   5.792 -0.6564  1.7503  0.0499
  333TIP3    H2  964   6.218   1.523   5.789 -0.2173 -2.0382 -1.0759
  334TIP3   OH2  965   4.283   3.368   2.929 -0.1622 -0.0118 -0.0799
  334TIP3    H1  966   4.364   3.318   2.928 -1.1040 -1.7693  2.6891
  334TIP3    H2  967   4.282   3.412   3.014 -1.0735  1.8715 -0.9953
  335TIP3   OH2  968   7.111   4.679   2.823 -0.1129 -0.5441  0.6895
  335TIP3    H1  969   7.194   4.718   2.794 -0.2870 -0.0686  0.8093
  335TIP3    H2  970   7.065   4.660   2.742 -0.9609  1.5736  0.6034
  336TIP3   OH2  971   0.006   4.022   5.862  0.0329  0.0064 -0.0927
  336TIP3    H1  972   0.060   3.997   5.787  0.4490  0.2852  0.1157
  336TIP3    H2  973   0.068   4.049   5.929 -0.3184 -0.5309  0.4661
  337TIP3   OH2  974   1.614   5.636   4.061  0.6242  0.6297  0.3555
  337TIP3    H1  975   1.680   5.629   3.992  1.6391 -1.0172  1.4307
  337TIP3    H2  976   1.663   5.663   4.139 -0.4457  2.1088  0.5768
  338TIP3   OH2  977   4.740   3.045   5.116  0.2510  0.2401 -0.0985
  338TIP3    H1  978   4.783   3.126   5.089 -1.1980  0.5919 -1.4865
  338TIP3    H2  979   4.710   3.063   5.206 -0.2710  1.3499 -0.4726
  339TIP3   OH2  980   4.100   6.311   0.967 -0.1577 -0.0072  0.4917
  339TIP3    H1  981   4.088   6.249   0.895  0.9023  2.0805 -1.6363
  339TIP3    H2  982   4.187   6.292   1.002 -0.1199 -0.1773  0.3069
  340TIP3   OH2  983   3.351   1.963   1.677  0.2509 -0.2809  0.1794
  340TIP3    H1  984   3.325   1.884   1.629 -1.7208  0.7658 -0.5755
  340TIP3    H2  985   3.439   1.982   1.647 -0.1240 -0.8871 -1.3899
  341TIP3   OH2  986   5.247   0.385   2.222 -0.2752 -0.2823  0.2792
  341TIP3    H1  987   5.160   0.408   2.255 -0.9926 -0.4405 -1.4085
  341TIP3    H2  988   5.237   0.295   2.190  0.3559 -0.1109 -0.4205
  342TIP3   OH2  989   1.014   2.438   4.726  0.5442  0.3435 -0.4781
  342TIP3    H1  990   1.027   2.528   4.697 -0.5254  1.0463  1.0839
  342TIP3    H2  991   0.969   2.395   4.653  0.8860  1.1127 -1.1563
  343TIP3   OH2  992   2.194   3.936   5.484  0.2824  0.6824  0.7057
  343TIP3    H1  993   2.130   3.958   5.416 -0.0903  1.8820  1.4183
  343TIP3    H2  994   2.217   4.020   5.523  0.3494 -0.0006  2.1928
  344TIP3   OH2  995   2.727   4.759   4.915 -0.5086  0.5143  0.0801
  344TIP3    H1  996   2.735   4.665   4.932  1.1981  0.4693 -0.7819
  344TIP3    H2  997   2.646   4.767   4.864 -2.1938 -0.0984  2.4408
  345TIP3   OH2  998   1.928   3.026   0.756 -0.0139  0.0166  0.3036
  345TIP3    H1  999   1.931   2.995   0.666  1.1268 -0.1476  0.3783
  345TIP3    H2 1000   1.842   3.066   0.765 -0.3946 -0.5503 -0.6584
  346TIP3   OH2 1001   0.134   4.464   2.527  0.3240  0.3392 -0.2009
  346TIP3    H1 1002   0.166   4.380   2.559  0.8490 -0.3885 -2.4431
  346TIP3    H2 1003   0.075   4.441   2.455  1.5580  1.8698 -1.7856
  347TIP3   OH2 1004   4.191   5.220   5.652  0.1894 -0.0693 -0.4532
  347TIP3    H1 1005   4.280   5.245   5.678  0.1584 -0.4658  0.0485
  347TIP3    H2 1006   4.134   5.273   5.708  0.1140 -0.3525 -0.2648
  348TIP3   OH2 1007   0.980   2.090   2.627  0.1170 -0.5938 -0.3484
  348TIP3    H1 1008   1.039   2.014   2.638  1.3187  0.2451 -0.7900
  348TIP3    H2 1009   0.950   2.109   2.716  1.2942 -0.4450  0.0368
  349TIP3   OH2 1010   7.209   3.932   1.982 -0.0217 -0.5924  0.4637
  349TIP3    H1 1011   7.250   3.954   2.066 -0.5737  0.8681  0.3885
  349TIP3    H2 1012   7.134   3.878   2.005 -1.0977  1.0832  1.1002
  350TIP3   OH2 1013   4.320   2.147   2.639  0.0196 -0.0307  0.8906
  350TIP3    H1 1014   4.246   2.124   2.584  0.5400 -2.2646  1.0190
  350TIP3    H2 1015   4.281   2.192   2.714 -1.0805 -0.2606  0.4722
  351TIP3   OH2 1016   1.783   2.061   3.921 -0.2693 -0.5482  0.0197
  351TIP3    H1 1017   1.859   2.006   3.904  0.9462 -0.3458  3.9391
  351TIP3    H2 1018   1.818   2.150   3.927 -1.2630 -0.0970 -0.4201
  352TIP3   OH2 1019   6.601   5.286   3.716  0.0052 -0.0832  0.7744
  352TIP3    H1 1020   6.532   5.279   3.650 -0.4418 -0.5760  1.2720
  352TIP3    H2 1021   6.660   5.353   3.683  0.0449 -0.6486 -0.3394
  353TIP3   OH2 1022   4.229   0.728   1.822  0.2693 -0.8444 -0.2917
  353TIP3    H1 1023   4.212   0.791   1.892  0.4549  1.5279 -2.2473
  353TIP3    H2 1024   4.309   0.760   1.780  0.8084 -2.8581 -0.9162
  354TIP3   OH2 1025   1.909   6.771   2.535 -0.1344 -0.2098  0.4123
  354TIP3    H1 1026   1.873   6.682   2.543 -1.5975  0.4747  2.0812
  354TIP3    H2 1027   1.857   6.812   2.466  0.4321 -0.5939 -0.2461
  355TIP3   OH2 1028   4.331   0.582   0.448 -0.6065  0.0225 -0.0326
  355TIP3    H1 1029   4.349   0.654   0.388  0.3642 -0.5001 -0.3935
  355TIP3    H2 1030   4.309   0.508   0.392  1.2749 -0.7472  0.1550
  356TIP3   OH2 1031   6.338   5.568   0.776  0.4556 -0.0159  0.4101
  356TIP3    H1 1032   6.406   5.526   0.724 -0.6643 -1.0458 -0.2698
  356TIP3    H2 1033   6.309   5.643   0.723  1.9955  1.2924  1.3307
  357TIP3   OH2 1034   3.619   6.040   1.101  0.3993  0.3289 -0.7476
  357TIP3    H1 1035   3.532   6.078   1.114  1.2905  1.9042  1.1992
  357TIP3    H2 1036   3.679   6.114   1.109  2.0016 -0.8976 -0.7857
  358TIP3   OH2 1037   3.854   4.549   5.098 -0.6084 -0.2726  0.1082
  358TIP3    H1 1038   3.941   4.515   5.077 -0.4847 -0.2571  0.5837
  358TIP3    H2 1039   3.800   4.471   5.110 -0.8601 -0.2815 -0.9691
  359TIP3   OH2 1040   4.012   5.271   5.022  0.0411  0.0199 -0.0471
  359TIP3    H1 1041   4.049   5.195   4.977  0.4515  0.3594 -0.2754
  359TIP3    H2 1042   4.071   5.286   5.096 -0.8156 -0.7470  0.8169
  360TIP3   OH2 1043   2.490   6.464   5.791 -0.0745  0.2924  0.3631
  360TIP3    H1 1044   2.557   6.494   5.854  3.3168 -0.3048 -2.6271
  360TIP3    H2 1045   2.527   6.383   5.755 -2.0453  0.3830 -2.0617
  361TIP3   OH2 1046   7.091   1.562   5.809  0.3086 -0.5599  0.3283
  361TIP3    H1 1047   7.162   1.620   5.781  0.3325 -1.2987 -1.2684
  361TIP3    H2 1048   7.041   1.544   5.729  0.8877 -3.4924  0.5005
  362TIP3   OH2 1049   3.158   6.218   1.529 -0.3556 -0.1851  0.4326
  362TIP3    H1 1050   3.248   6.206   1.499 -0.4985  2.7432 -1.5388
  362TIP3    H2 1051   3.165   6.222   1.625  1.3429 -1.4255  0.4074
  363TIP3   OH2 1052   6.793   3.381   4.832 -0.1878  0.2637 -0.4396
  363TIP3    H1 1053   6.795   3.476   4.844 -0.1138  0.6012 -2.7428
  363TIP3    H2 1054   6.760   3.368   4.743 -0.0161 -1.8714 -0.2511
  364TIP3   OH2 1055   5.682   3.658   2.767 -0.1889  0.5422  0.7716
  364TIP3    H1 1056   5.645   3.595   2.705  1.7328  1.3939 -1.3960
  364TIP3    H2 1057   5.751   3.610   2.812  1.0876  0.9325 -0.6815
  365TIP3   OH2 1058   5.152   0.668   5.218 -0.6259  0.7176 -0.1135
  365TIP3    H1 1059   5.164   0.578   5.249 -2.5389  0.6569  0.5595
  365TIP3    H2 1060   5.236   0.711   5.237 -0.1978 -0.5183  0.9680
  366TIP3   OH2 1061   1.685   1.142   1.798 -0.8077 -0.4514 -0.0853
  366TIP3    H1 1062   1.649   1.068   1.749 -0.3671 -0.3965 -0.4997
  366TIP3    H2 1063   1.634   1.217   1.767 -0.9701 -0.5161  0.0230
  367TIP3   OH2 1064   6.567   0.685   0.804 -0.0911 -0.2058 -1.3101
  367TIP3    H1 1065   6.575   0.692   0.899 -1.1122  1.1081 -1.2914
  367TIP3    H2 1066   6.518   0.604   0.790 -0.1015 -0.3084 -0.6979
  368TIP3   OH2 1067   5.221   1.715   0.106  0.0951  0.0683  0.5246
  368TIP3    H1 1068   5.276   1.647   0.145 -0.4946 -0.1411  1.0142
  368TIP3    H2 1069   5.140   1.669   0.082 -0.2462  0.5597  0.7131
  369TIP3   OH2 1070   0.670   0.390   0.701  0.5530 -0.3631 -0.3385
  369TIP3    H1 1071   0.757   0.389   0.741  1.5357 -2.4537 -2.3093
  369TIP3    H2 1072   0.668   0.312   0.647 -2.8039 -0.6551  0.0391
  370TIP3   OH2 1073   1.356   0.841   5.784  0.0621  0.5637 -0.3885
  370TIP3    H1 1074   1.414   0.767   5.802 -0.0419  0.8757  1.3408
  370TIP3    H2 1075   1.395   0.882   5.706  0.7187 -0.6703 -0.7440
  371TIP3   OH2 1076   5.306   5.168   4.793 -0.0723  0.9183  0.3379
  371TIP3    H1 1077   5.282   5.109   4.864  0.7534  1.0151  0.7198
  371TIP3    H2 1078   5.321   5.252   4.837 -1.2661  1.4285 -0.2019
  372TIP3   OH2 1079   5.004   1.992   3.606  0.4588 -0.4539  0.0419
  372TIP3    H1 1080   4.955   1.968   3.527  0.2009 -0.0845  0.0876
  372TIP3    H2 1081   5.083   2.033   3.573 -0.4887  1.3891 -0.0334
  373TIP3   OH2 1082   2.725   0.089   0.008  0.1131  0.0708  0.1964
  373TIP3    H1 1083   2.639   0.074   0.047  0.4358 -3.2470 -0.1129
  373TIP3    H2 1084   2.723   0.180  -0.020 -3.7791 -0.1963 -0.9249
  374TIP3   OH2 1085   1.383   5.445   1.208 -0.0133 -0.2979  0.3853
  374TIP3    H1 1086   1.384   5.528   1.256 -0.0003  0.5854 -1.0767
  374TIP3    H2 1087   1.312   5.455   1.144  0.0068 -1.4170  0.1581
  375TIP3   OH2 1088   5.311   5.122   0.764  0.3611  0.2961 -0.3861
  375TIP3    H1 1089   5.252   5.171   0.821 -1.7145 -1.4294 -0.9417
  375TIP3    H2 1090   5.320   5.037   0.807  1.3636  0.0536 -1.0423
  376TIP3   OH2 1091   0.275   0.765   1.054 -0.4952 -0.5825  0.4314
  376TIP3    H1 1092   0.245   0.699   0.993  1.7093 -0.8456 -0.4717
  376TIP3    H2 1093   0.349   0.724   1.100  0.9292  1.1630 -0.1536
  377TIP3   OH2 1094   1.760   0.457   1.885 -0.2571 -0.1496 -0.3107
  377TIP3    H1 1095   1.776   0.539   1.840 -1.7292  1.8331  2.4893
  377TIP3    H2 1096   1.793   0.470   1.973  2.4111 -3.8140 -0.4997
  378TIP3   OH2 1097   3.972   2.825   1.377  0.0902  0.5602 -0.0613
  378TIP3    H1 1098   3.931   2.830   1.464  0.6169  2.0484  0.1244
  378TIP3    H2 1099   3.902   2.848   1.316 -0.3820 -0.8453 -0.1029
  379TIP3   OH2 1100   0.366   0.321   1.212  0.1782  0.4008  0.0736
  379TIP3    H1 1101   0.345   0.403   1.256 -1.3024 -0.1057  0.3772
  379TIP3    H2 1102   0.354   0.254   1.279  2.1496 -0.0288  0.0525
  380TIP3   OH2 1103   1.825   1.250   2.061 -0.7743  0.1618 -0.5293
  380TIP3    H1 1104   1.840   1.156   2.062  3.0499  0.6269 -0.2767
  380TIP3    H2 1105   1.791   1.268   1.973 -3.6053 -1.5743  0.0889
  381TIP3   OH2 1106   6.128   1.433   3.798 -0.0917 -0.2161  0.0742
  381TIP3    H1 1107   6.074   1.364   3.837  0.5676 -0.1395  1.1858
  381TIP3    H2 1108   6.099   1.514   3.841  0.9624 -0.1927  0.7939
  382TIP3   OH2 1109   4.908   3.012   1.210  0.1538  0.1162  0.2099
  382TIP3    H1 1110   4.965   3.035   1.283  0.5828  1.9231 -0.6442
  382TIP3    H2 1111   4.899   3.093   1.160 -0.2683 -1.0119 -1.6412
  383TIP3   OH2 1112   6.650   0.910   4.204 -0.1060 -0.4181  0.0516
  383TIP3    H1 1113   6.734   0.899   4.249  0.7970  1.2871 -1.0978
  383TIP3    H2 1114   6.673   0.902   4.111 -1.0698  0.9106 -0.3130
  384TIP3   OH2 1115   1.288   6.576   2.378  0.1054  0.4289 -0.2704
  384TIP3    H1 1116   1.305   6.670   2.385 -0.5574  0.6333 -1.2255
  384TIP3    H2 1117   1.372   6.535   2.398  0.7466  1.2732 -1.1775
  385TIP3   OH2 1118   2.511   5.426   2.453 -0.2178 -0.6403 -0.6650
  385TIP3    H1 1119   2.427   5.387   2.432 -0.2503 -0.7594 -0.3289
  385TIP3    H2 1120   2.543   5.462   2.371 -0.3080 -1.1425 -0.9197
  386TIP3   OH2 1121   1.660   2.672   4.008  0.2800  0.1022  0.0669
  386TIP3    H1 1122   1.597   2.613   4.049  2.5788 -2.0375  0.7529
  386TIP3    H2 1123   1.658   2.649   3.916 -0.2869  0.3989  0.0011
  387TIP3   OH2 1124   1.857   2.180   5.441  0.6113 -0.1856  0.1162
  387TIP3    H1 1125   1.853   2.261   5.390 -0.6741  0.1404  0.6774
  387TIP3    H2 1126   1.848   2.209   5.532  1.1314 -0.8911  0.3997
  388TIP3   OH2 1127   3.114   4.327   1.816 -0.6680  0.7940 -0.0459
  388TIP3    H1 1128   3.178   4.383   1.771  1.3611 -2.6698 -1.8895
  388TIP3    H2 1129   3.040   4.322   1.756 -0.3614  0.5981 -0.4101
  389TIP3   OH2 1130   3.454   2.921   5.292  0.0674  0.7285 -0.0240
  389TIP3    H1 1131   3.462   2.853   5.225 -1.2791 -0.3733  0.8836
  389TIP3    H2 1132   3.401   2.990   5.250  2.0187  1.5989 -1.1832
  390TIP3   OH2 1133   1.662   6.272   1.338  0.4779  0.1922  0.0227
  390TIP3    H1 1134   1.745   6.312   1.364  0.4193 -0.9917  2.2664
  390TIP3    H2 1135   1.614   6.261   1.420 -1.7591  0.4678 -1.1769
  391TIP3   OH2 1136   2.197   0.556   2.146  0.0010  0.2396  0.4750
  391TIP3    H1 1137   2.293   0.556   2.142 -0.0501  0.5127 -1.5664
  391TIP3    H2 1138   2.170   0.486   2.087 -1.0892 -1.6593  3.0027
  392TIP3   OH2 1139   1.199   4.376   4.703 -0.3940 -0.2474 -0.0291
  392TIP3    H1 1140   1.245   4.394   4.785  0.0479 -1.4957  0.0159
  392TIP3    H2 1141   1.194   4.461   4.659  2.8707 -0.1802 -0.5168
  393TIP3   OH2 1142   4.049   1.730   1.618 -0.1121 -0.2373 -0.0879
  393TIP3    H1 1143   4.122   1.792   1.620  0.8397 -1.3249  0.0375
  393TIP3    H2 1144   4.019   1.724   1.709 -0.6940  0.5770 -0.2165
  394TIP3   OH2 1145   2.768   1.537   3.566 -0.0949  0.2477  0.0068
  394TIP3    H1 1146   2.736   1.564   3.480 -0.9617  0.3666  0.3515
  394TIP3    H2 1147   2.815   1.455   3.549  1.2566  1.1549 -0.8208
  395TIP3   OH2 1148   2.806   4.213   0.852  0.0890 -0.6337  0.2142
  395TIP3    H1 1149   2.784   4.124   0.877 -1.8730 -0.2611 -0.0758
  395TIP3    H2 1150   2.761   4.268   0.916 -1.2638  0.2012 -1.3902
  396TIP3   OH2 1151   2.889   1.478   5.758 -0.5270  0.6056  0.4258
  396TIP3    H1 1152   2.869   1.421   5.684  0.3278 -0.4025  0.9404
  396TIP3    H2 1153   2.951   1.428   5.810 -0.1389  1.8204  1.1664
  397TIP3   OH2 1154   1.506   3.005   0.473 -0.0265 -0.8901 -0.5429
  397TIP3    H1 1155   1.533   2.913   0.468 -0.7152 -1.1005 -0.6181
  397TIP3    H2 1156   1.554   3.048   0.402  0.5818 -1.1161 -0.2706
  398TIP3   OH2 1157   3.118   4.836   5.417 -0.5069  0.4488 -0.0243
  398TIP3    H1 1158   3.056   4.765   5.401  1.0154 -0.9526 -0.0105
  398TIP3    H2 1159   3.141   4.828   5.510 -1.9763  2.4100  0.5751
  399TIP3   OH2 1160   5.793   5.743   3.534 -0.1423 -0.0920 -0.3417
  399TIP3    H1 1161   5.885   5.719   3.522 -0.0183 -0.4018  1.1256
  399TIP3    H2 1162   5.789   5.835   3.506  0.6566 -0.0181 -0.2424
  400TIP3   OH2 1163   2.918   1.112   5.515 -0.0097 -0.0560  0.3939
  400TIP3    H1 1164   2.864   1.191   5.512  0.4073  0.2754 -3.5752
  400TIP3    H2 1165   2.857   1.041   5.491  0.0523 -0.6983  2.0089
  401TIP3   OH2 1166   2.081   1.310   3.476 -0.0409 -0.4443 -0.4506
  401TIP3    H1 1167   2.023   1.357   3.536  1.9941  0.1354  1.1672
  401TIP3    H2 1168   2.168   1.316   3.516  0.9098 -2.6324 -1.9497
  402TIP3   OH2 1169   2.865   3.135   0.926 -0.1717 -0.0840 -0.0640
  402TIP3    H1 1170   2.935   3.078   0.958  0.9154  0.4440 -1.4034
  402TIP3    H2 1171   2.891   3.223   0.954  1.2143  0.5176 -2.8083
  403TIP3   OH2 1172   0.101   0.856   2.098 -0.2414 -0.1705  0.1752
  403TIP3    H1 1173   0.090   0.880   2.190 -1.0128  0.4753 -0.0692
  403TIP3    H2 1174   0.042   0.914   2.051 -1.4517 -1.8864 -0.5512
  404TIP3   OH2 1175   3.788   0.728   2.899  0.5151  0.2474 -0.5540
  404TIP3    H1 1176   3.710   0.713   2.845  0.3947 -1.8108  0.1020
  404TIP3    H2 1177   3.791   0.822   2.911 -1.7992  0.3989 -0.7280
  405TIP3   OH2 1178   0.172   5.754   1.965  0.3056  0.1831 -0.1028
  405TIP3    H1 1179   0.090   5.751   2.016  0.8390  1.9002  0.9530
  405TIP3    H2 1180   0.182   5.665   1.932 -0.8966 -0.6317  1.5183
  406TIP3   OH2 1181   3.960   1.787   0.335 -0.5320  0.3941  0.0648
  406TIP3    H1 1182   3.970   1.712   0.394  0.9733  0.3775 -0.1702
  406TIP3    H2 1183   3.908   1.850   0.385 -1.0679 -0.4497  0.5986
  407TIP3   OH2 1184   4.120   5.962   3.167  0.2464 -0.5131 -0.1396
  407TIP3    H1 1185   4.029   5.954   3.137 -0.0757 -2.7063  1.2207
  407TIP3    H2 1186   4.114   6.010   3.249  0.8192  2.8297 -1.8908
  408TIP3   OH2 1187   5.899   3.783   3.104 -0.1153 -0.0263  0.2625
  408TIP3    H1 1188   5.937   3.803   3.018  0.6908 -0.1501  0.5819
  408TIP3    H2 1189   5.903   3.866   3.151 -0.1252 -0.0691  0.3386
  409TIP3   OH2 1190   1.182   1.367   3.364 -0.0034  0.1771  0.1694
  409TIP3    H1 1191   1.245   1.302   3.330 -0.8981 -0.3663 -0.4794
  409TIP3    H2 1192   1.199   1.368   3.458 -0.5824 -1.7037  0.3446
  410TIP3   OH2 1193   3.463   1.343   1.032 -0.3920 -0.0562  0.6613
  410TIP3    H1 1194   3.370   1.346   1.013 -0.4310 -1.2063  0.5547
  410TIP3    H2 1195   3.503   1.404   0.971 -0.9520 -0.5052 -0.1649
  411TIP3   OH2 1196   0.948   3.747   2.266 -0.7540 -0.3506 -0.4078
  411TIP3    H1 1197   0.996   3.703   2.337 -0.4185  0.2670 -0.2441
  411TIP3    H2 1198   1.015   3.765   2.200 -0.9109 -0.1689 -0.5157
  412TIP3   OH2 1199   6.692   6.147   3.252 -0.3564 -0.6664  0.0424
  412TIP3    H1 1200   6.768   6.092   3.270  0.0450 -0.6954 -1.6065
  412TIP3    H2 1201   6.690   6.156   3.157 -1.1163  1.1879  0.1853
  413TIP3   OH2 1202   1.445   0.865   4.214  0.1506  0.3876 -0.2291
  413TIP3    H1 1203   1.415   0.792   4.268 -0.0546  1.9225  1.8230
  413TIP3    H2 1204   1.370   0.884   4.156 -0.1194 -0.4407 -0.1654
  414TIP3   OH2 1205   3.456   1.644   4.071 -0.2335 -0.2641 -0.1729
  414TIP3    H1 1206   3.434   1.611   3.984 -1.2357 -1.5989  0.5639
  414TIP3    H2 1207   3.380   1.695   4.097 -0.3941 -0.7643  0.3565
  415TIP3   OH2 1208   1.439   5.250   0.733 -1.0014 -0.2867  0.3128
  415TIP3    H1 1209   1.401   5.248   0.646 -1.0068 -0.8559  0.3257
  415TIP3    H2 1210   1.397   5.324   0.776 -0.8929  0.0820 -0.2120
  416TIP3   OH2 1211   4.355   5.519   5.013 -0.5151 -0.5869  0.2093
  416TIP3    H1 1212   4.291   5.540   5.081 -0.9298 -1.6254  0.1722
  416TIP3    H2 1213   4.348   5.424   5.003  1.3033 -0.7887  0.4726
  417TIP3   OH2 1214   2.730   0.246   2.272 -0.0132 -0.0643 -0.3304
  417TIP3    H1 1215   2.716   0.337   2.247 -0.5016 -0.4008 -1.3008
  417TIP3    H2 1216   2.743   0.250   2.367 -1.9100  0.8073 -0.0590
  418TIP3   OH2 1217   3.609   3.546   5.668  0.1922 -0.1470 -0.2578
  418TIP3    H1 1218   3.674   3.482   5.698 -0.1324 -0.4106 -0.1134
  418TIP3    H2 1219   3.649   3.587   5.592 -0.3855 -1.8966 -1.5864
  419TIP3   OH2 1220   0.057   3.473   1.439  0.1175  0.5513 -0.0416
  419TIP3    H1 1221   0.074   3.493   1.347  0.2165 -0.5816 -0.2838
  419TIP3    H2 1222  -0.013   3.533   1.464  1.0347  1.8425 -0.4434
  420TIP3   OH2 1223   2.255   4.303   2.643 -0.5608  0.4852  0.2825
  420TIP3    H1 1224   2.290   4.380   2.688  0.5257  1.1025 -1.4975
  420TIP3    H2 1225   2.330   4.243   2.637 -1.2960 -0.5857  1.2937
  421TIP3   OH2 1226   2.582   5.942   1.065 -0.2728  0.0427 -0.2228
  421TIP3    H1 1227   2.532   6.008   1.017 -0.3564 -0.1717 -0.4312
  421TIP3    H2 1228   2.644   5.907   1.002 -0.0575  0.0983 -0.0436
  422TIP3   OH2 1229   3.788   0.039   2.402 -0.6996 -0.5246  0.0117
  422TIP3    H1 1230   3.826   0.006   2.483 -1.3003 -1.5756 -0.1172
  422TIP3    H2 1231   3.763   0.129   2.422  0.0256 -0.4720  0.6993
  423TIP3   OH2 1232   6.786   2.787   1.714 -0.1930  0.0282 -0.1635
  423TIP3    H1 1233   6.863   2.810   1.662 -1.0344 -1.2839 -2.1181
  423TIP3    H2 1234   6.711   2.813   1.660 -1.1602  0.6543  1.3924
  424TIP3   OH2 1235   7.172   1.550   1.398  0.6137 -0.6262 -0.6121
  424TIP3    H1 1236   7.220   1.585   1.473 -0.4971  1.2470 -0.6995
  424TIP3    H2 1237   7.197   1.607   1.325 -0.6068 -0.5081 -0.9702
  425TIP3   OH2 1238   3.673   3.579   2.834 -0.3849  0.0755 -0.2531
  425TIP3    H1 1239   3.597   3.541   2.791 -0.4440 -0.5274  0.3668
  425TIP3    H2 1240   3.646   3.668   2.856  0.1091  0.9074 -2.6386
  426TIP3   OH2 1241   0.340   4.776   0.061  0.3312 -0.0685  0.1763
  426TIP3    H1 1242   0.311   4.822   0.140 -0.3146 -0.3201  0.0875
  426TIP3    H2 1243   0.432   4.802   0.051  0.3658  0.1138  0.9052
  427TIP3   OH2 1244   5.611   3.865   2.955 -0.1607 -0.1789  0.5290
  427TIP3    H1 1245   5.638   3.800   2.890 -2.3552 -1.6575  0.9776
  427TIP3    H2 1246   5.556   3.926   2.906  0.2468  0.1650  0.5026
  428TIP3   OH2 1247   6.659   4.682   4.074 -0.1587  0.1369 -0.0590
  428TIP3    H1 1248   6.659   4.778   4.067  0.0759  0.2370  1.1529
  428TIP3    H2 1249   6.630   4.664   4.163  1.0052 -0.8757  0.1471
  429TIP3   OH2 1250   1.339   2.778   4.259  0.4112  0.2077  0.3258
  429TIP3    H1 1251   1.396   2.722   4.207 -0.3469  0.3340 -0.6627
  429TIP3    H2 1252   1.311   2.723   4.332 -0.6802 -0.8679 -0.8687
  430TIP3   OH2 1253   1.642   3.884   3.954 -0.2885  0.0439  0.3473
  430TIP3    H1 1254   1.686   3.799   3.958  0.5157  0.4602  0.3596
  430TIP3    H2 1255   1.706   3.946   3.988 -0.4492  0.8291 -0.7330
  431TIP3   OH2 1256   6.059   5.404   4.235  0.0717 -0.1489  0.0721
  431TIP3    H1 1257   6.113   5.468   4.188 -0.3627 -0.3758 -0.7583
  431TIP3    H2 1258   6.086   5.413   4.327  0.3327  0.9065 -0.0883
  432TIP3   OH2 1259   3.835   0.941   4.751  0.0352  0.2843  0.1841
  432TIP3    H1 1260   3.910   0.883   4.735  0.0957  0.9548 -2.2758
  432TIP3    H2 1261   3.783   0.937   4.671 -2.8612 -0.4693  1.9524
  433TIP3   OH2 1262   0.752   5.991   3.609  0.0161  0.0852 -0.2926
  433TIP3    H1 1263   0.722   5.924   3.547 -1.9660  0.0847  0.5970
  433TIP3    H2 1264   0.781   5.942   3.685  2.6503  0.0738 -1.1801
  434TIP3   OH2 1265   0.239   0.126   4.306 -0.0979  0.4721  0.2069
  434TIP3    H1 1266   0.232   0.034   4.331 -0.4061  0.8894  1.7479
  434TIP3    H2 1267   0.327   0.134   4.269  1.4517  0.2940  3.5185
  435TIP3   OH2 1268   4.433   0.640   2.952 -0.0524  0.5932 -0.0143
  435TIP3    H1 1269   4.516   0.672   2.916  0.6119  0.6055  1.4410
  435TIP3    H2 1270   4.401   0.713   3.005  0.6894 -0.5385  2.0868
  436TIP3   OH2 1271   5.317   6.683   0.051 -0.4640  0.1795 -0.3701
  436TIP3    H1 1272   5.325   6.608  -0.008 -0.0936 -0.4740  0.4963
  436TIP3    H2 1273   5.351   6.757   0.001  1.2969 -0.6417 -0.4537
  437TIP3   OH2 1274   7.122   5.015   1.059  0.3691  0.2436 -0.1147
  437TIP3    H1 1275   7.034   5.051   1.051  0.2587 -0.0765 -0.3870
  437TIP3    H2 1276   7.161   5.062   1.133  0.0182  0.4813 -0.0781
  438TIP3   OH2 1277   1.486   6.188   4.998 -0.9122  0.8023  0.8716
  438TIP3    H1 1278   1.558   6.145   5.045 -1.0918  0.4353  0.8141
  438TIP3    H2 1279   1.485   6.277   5.032 -2.0198  0.1397  2.6977
  439TIP3   OH2 1280   7.123   0.444   1.061 -0.8382  0.0609 -0.4990
  439TIP3    H1 1281   7.171   0.482   1.134 -1.3771 -0.1221 -0.0367
  439TIP3    H2 1282   7.036   0.425   1.097 -0.3773 -2.2910 -0.4711
  440TIP3   OH2 1283   6.068   2.018   0.466  0.2489  0.0421  0.2264
  440TIP3    H1 1284   5.993   2.066   0.430 -0.1288 -0.9677 -0.3866
  440TIP3    H2 1285   6.055   1.928   0.436  1.3722 -0.2801  0.6580
  441TIP3   OH2 1286   3.008   2.905   0.448 -0.8862  0.7049 -0.5175
  441TIP3    H1 1287   2.921   2.921   0.486 -0.7682 -2.3203  1.3254
  441TIP3    H2 1288   3.069   2.948   0.507 -1.0005  0.5837 -0.3106
  442TIP3   OH2 1289   4.041   4.014   4.294 -0.2824 -0.4248  0.1139
  442TIP3    H1 1290   4.007   3.981   4.377  0.8095 -0.1700  0.6869
  442TIP3    H2 1291   3.979   4.082   4.268  0.4754  1.0328  1.8628
  443TIP3   OH2 1292   5.779   4.183   0.728  0.0221 -0.3115 -0.0552
  443TIP3    H1 1293   5.807   4.272   0.707  0.9836 -0.5448  0.2020
  443TIP3    H2 1294   5.778   4.180   0.824 -0.4038 -0.4616 -0.0621
  444TIP3   OH2 1295   6.588   0.499   2.623  0.4517 -0.3416  0.4244
  444TIP3    H1 1296   6.623   0.583   2.654  1.5409  0.1835 -1.9089
  444TIP3    H2 1297   6.496   0.500   2.648  0.0144  2.3328 -0.8743
  445TIP3   OH2 1298   0.214   2.753   0.895  0.4470 -0.3073 -0.2346
  445TIP3    H1 1299   0.193   2.779   0.805  0.4276  1.0937  0.1519
  445TIP3    H2 1300   0.131   2.763   0.942  0.3785 -1.3397 -0.0975
  446TIP3   OH2 1301   3.659   0.778   4.917 -0.0751 -0.4223 -0.5537
  446TIP3    H1 1302   3.639   0.840   4.987 -0.8746 -1.2292 -0.0555
  446TIP3    H2 1303   3.718   0.826   4.859 -0.1164  0.5607  0.1958
  447TIP3   OH2 1304   3.163   6.455   3.077  0.2013  0.0182 -0.7294
  447TIP3    H1 1305   3.138   6.544   3.103 -0.8662  0.7988 -4.0109
  447TIP3    H2 1306   3.106   6.398   3.128 -0.1995  1.2807  0.2720
  448TIP3   OH2 1307   3.631   5.842   1.336 -0.3855 -0.0946  0.3556
  448TIP3    H1 1308   3.687   5.868   1.409  0.0169  0.2405 -0.0720
  448TIP3    H2 1309   3.630   5.918   1.278 -0.1772 -0.5887 -0.3083
  449TIP3   OH2 1310   1.640   0.362   0.351 -0.2834 -0.2272  0.3312
  449TIP3    H1 1311   1.577   0.419   0.394 -0.4653 -0.7655  0.7844
  449TIP3    H2 1312   1.640   0.391   0.260 -1.1294 -0.1743  0.3428
  450TIP3   OH2 1313   4.751   1.246   3.195  0.3413 -0.2940 -0.4620
  450TIP3    H1 1314   4.656   1.242   3.188  0.1873  0.8723  0.4665
  450TIP3    H2 1315   4.779   1.296   3.118  0.3866 -1.9541 -1.5715
  451TIP3   OH2 1316   1.792   4.672   3.419  0.2649  0.0154  0.2125
  451TIP3    H1 1317   1.802   4.765   3.400  4.2475 -0.3915 -0.5457
  451TIP3    H2 1318   1.799   4.666   3.515  0.3606  0.4861  0.2347
  452TIP3   OH2 1319   6.474   0.477   5.686  0.8408 -0.3487  0.5453
  452TIP3    H1 1320   6.512   0.436   5.608 -1.3922  1.0790 -1.4612
  452TIP3    H2 1321   6.380   0.459   5.679  0.3388  1.4891  1.8174
  453TIP3   OH2 1322   4.263   3.449   2.624  0.0110  0.2219 -0.1358
  453TIP3    H1 1323   4.278   3.432   2.717 -0.3267 -2.5142 -0.4808
  453TIP3    H2 1324   4.347   3.427   2.583 -0.1742  0.3261 -0.5742
  454TIP3   OH2 1325   2.981   5.796   2.336  0.7659 -1.1623  1.0167
  454TIP3    H1 1326   3.075   5.785   2.345  0.7986 -1.4623  0.3931
  454TIP3    H2 1327   2.950   5.814   2.425  1.4455 -0.7321  1.1771
  455TIP3   OH2 1328   5.224   0.636   2.118  0.4122 -0.3396  0.6831
  455TIP3    H1 1329   5.229   0.546   2.149  0.3998 -0.9533 -1.0212
  455TIP3    H2 1330   5.130   0.652   2.104  0.3400  0.2134  1.6958
  456TIP3   OH2 1331   2.253   1.650   2.559  0.6053  0.4038  0.0385
  456TIP3    H1 1332   2.160   1.670   2.562  0.8168  1.7163 -0.8633
  456TIP3    H2 1333   2.259   1.557   2.580 -0.9211  0.2393 -0.1448
  457TIP3   OH2 1334   6.992   6.181   4.698  1.3592  0.2846  0.4810
  457TIP3    H1 1335   6.994   6.169   4.604  0.2450  1.7775  0.2189
  457TIP3    H2 1336   6.954   6.101   4.733  0.1001  0.4316 -0.5143
  458TIP3   OH2 1337   0.089   3.004   1.030 -0.5727  0.1092 -0.1705
  458TIP3    H1 1338   0.167   2.956   1.054 -0.4887  1.1410  1.7839
  458TIP3    H2 1339   0.017   2.942   1.043 -0.5222  0.5405  2.8245
  459TIP3   OH2 1340   3.839   4.343   0.965 -0.5703  0.0073  0.1676
  459TIP3    H1 1341   3.885   4.263   0.942  0.9946  1.2489 -1.2868
  459TIP3    H2 1342   3.805   4.376   0.882  1.0741  2.1507  0.2616
  460TIP3   OH2 1343   5.232   1.579   5.589  0.7414 -0.2249  0.2219
  460TIP3    H1 1344   5.164   1.646   5.585 -0.1198 -1.0320  0.8751
  460TIP3    H2 1345   5.210   1.518   5.519  1.6978  0.3022 -0.5722
  461TIP3   OH2 1346   2.225   1.334   0.605 -0.0845 -0.1971 -0.1424
  461TIP3    H1 1347   2.181   1.331   0.519 -0.4592 -0.0440  0.0425
  461TIP3    H2 1348   2.316   1.312   0.585  0.5380  2.7835 -1.0257
  462TIP3   OH2 1349   4.462   3.064   4.967  0.7034  0.2369  0.3733
  462TIP3    H1 1350   4.476   3.060   4.872 -0.1622  1.2078  0.1759
  462TIP3    H2 1351   4.544   3.035   5.005  1.5695  1.2318 -0.6769
  463TIP3   OH2 1352   3.472   4.760   1.626 -0.4635 -0.1617 -0.3331
  463TIP3    H1 1353   3.488   4.811   1.706 -2.9820 -0.6142  0.5509
  463TIP3    H2 1354   3.528   4.683   1.635  0.3919  0.5037  0.2528
  464TIP3   OH2 1355   1.986   3.305   2.681 -0.0842  0.5921 -0.2211
  464TIP3    H1 1356   2.031   3.245   2.622 -0.6753 -0.2095  0.1145
  464TIP3    H2 1357   1.904   3.326   2.637  0.9389  2.7347 -1.2247
  465TIP3   OH2 1358   5.917   4.862   1.040 -0.5762  0.5246  0.5534
  465TIP3    H1 1359   5.879   4.800   1.101 -2.9489  1.5136  0.2193
  465TIP3    H2 1360   5.974   4.918   1.093  0.7884 -1.2294  1.0220
  466TIP3   OH2 1361   4.708   3.181   3.144 -0.0341 -0.0753  0.3211
  466TIP3    H1 1362   4.671   3.226   3.069 -0.0676  1.4928  1.2306
  466TIP3    H2 1363   4.797   3.217   3.152  0.8301 -1.9400 -0.3361
  467TIP3   OH2 1364   4.482   2.678   0.508  0.4538  0.0340  0.2348
  467TIP3    H1 1365   4.493   2.652   0.416  0.9155  1.8852 -0.2810
  467TIP3    H2 1366   4.457   2.597   0.553 -1.4324 -0.5951 -1.7909
  468TIP3   OH2 1367   3.154   5.793   5.043  0.2123  0.3858  0.0852
  468TIP3    H1 1368   3.141   5.738   5.120  0.7814  0.0172 -0.0744
  468TIP3    H2 1369   3.066   5.815   5.014 -0.0432 -0.9414 -0.1934
  469TIP3   OH2 1370   3.103   5.064   4.828 -0.3685  0.0484  0.3941
  469TIP3    H1 1371   3.172   5.123   4.858 -0.3767  0.5512 -0.5367
  469TIP3    H2 1372   3.115   5.059   4.733 -1.4323 -0.0694  0.2534
  470TIP3   OH2 1373   6.245   5.668   1.541  0.2810  0.3189 -0.4126
  470TIP3    H1 1374   6.322   5.612   1.536 -0.0906 -0.1430 -1.1963
  470TIP3    H2 1375   6.216   5.662   1.631  0.5755 -0.2948 -0.3572
  471TIP3   OH2 1376   6.383   5.071   2.342 -0.2920  0.5872  0.0715
  471TIP3    H1 1377   6.304   5.061   2.289 -1.6721 -0.6030  2.1759
  471TIP3    H2 1378   6.392   5.165   2.355  0.5724  0.9879 -2.8282
  472TIP3   OH2 1379   4.413   0.582   3.998 -0.3086 -0.1789  0.2615
  472TIP3    H1 1380   4.414   0.672   3.965 -0.1609 -0.3113 -0.0949
  472TIP3    H2 1381   4.429   0.591   4.092  1.4980  0.0638 -0.0271
  473TIP3   OH2 1382   6.924   6.199   0.049 -0.4912 -0.3960 -0.5100
  473TIP3    H1 1383   6.921   6.233   0.139 -1.0143  0.7050 -0.9228
  473TIP3    H2 1384   6.860   6.128   0.049  0.6098 -1.4123  0.3709
  474TIP3   OH2 1385   0.198   4.874   5.215  0.2699  0.0023 -0.5540
  474TIP3    H1 1386   0.199   4.781   5.237  0.5643 -0.0538 -0.8097
  474TIP3    H2 1387   0.264   4.914   5.272 -0.8948  0.3055  0.6471
  475TIP3   OH2 1388   2.879   3.225   3.915 -0.2298 -0.2104  0.4546
  475TIP3    H1 1389   2.921   3.149   3.957 -0.9298 -0.5153  0.6044
  475TIP3    H2 1390   2.896   3.213   3.821  0.2245 -0.2012  0.5318
  476TIP3   OH2 1391   0.457   2.248   2.916 -0.7547  0.1357 -0.2592
  476TIP3    H1 1392   0.471   2.155   2.934  3.1898  0.6083 -0.0337
  476TIP3    H2 1393   0.470   2.291   3.000 -4.6001  0.9562  0.1318
  477TIP3   OH2 1394   0.256   3.113   4.784 -0.4980 -0.2516 -0.6538
  477TIP3    H1 1395   0.268   3.021   4.759 -0.9342 -0.4471 -0.1727
  477TIP3    H2 1396   0.304   3.121   4.867 -0.2804  0.0111 -0.8051
  478TIP3   OH2 1397   0.329   4.700   5.521  0.3079 -0.8449 -0.0796
  478TIP3    H1 1398   0.283   4.686   5.604 -2.5181 -0.3135 -1.4382
  478TIP3    H2 1399   0.302   4.787   5.493  0.8273 -1.1788 -1.7518
  479TIP3   OH2 1400   3.692   5.042   4.800  0.0804  0.2373 -0.2122
  479TIP3    H1 1401   3.779   5.014   4.769 -0.2545 -0.0438 -0.9281
  479TIP3    H2 1402   3.693   5.137   4.791 -0.4398  0.0879 -2.3271
  480TIP3   OH2 1403   2.550   0.096   5.078 -0.1349  0.1299  0.2101
  480TIP3    H1 1404   2.602   0.160   5.126 -0.8034  0.9480 -0.1296
  480TIP3    H2 1405   2.569   0.114   4.985 -2.4160  1.7618 -0.0466
  481TIP3   OH2 1406   6.095   2.842   1.670  0.1556  0.2080 -0.5939
  481TIP3    H1 1407   6.139   2.889   1.599  0.3820 -0.8940 -1.2207
  481TIP3    H2 1408   6.040   2.777   1.625 -1.8391  1.2736  0.1784
  482TIP3   OH2 1409   2.558   3.632   3.819 -0.4346  0.7557 -0.0095
  482TIP3    H1 1410   2.515   3.691   3.881 -1.5883  0.5990 -0.6270
  482TIP3    H2 1411   2.514   3.548   3.833  0.4827  0.2948  0.1446
  483TIP3   OH2 1412   0.189   0.195   5.268  0.1998  0.1635 -0.5791
  483TIP3    H1 1413   0.269   0.229   5.308  1.0784 -0.3227 -1.8453
  483TIP3    H2 1414   0.189   0.101   5.289  0.7720 -0.1350 -1.8283
  484TIP3   OH2 1415   5.280   4.434   4.623  0.2924  0.1914 -0.3206
  484TIP3    H1 1416   5.243   4.357   4.667 -2.3308  0.2763 -2.1595
  484TIP3    H2 1417   5.216   4.503   4.638  1.7996  1.6052 -0.1129
  485TIP3   OH2 1418   4.431   5.487   2.612 -0.5046  0.2509 -0.1347
  485TIP3    H1 1419   4.394   5.575   2.608 -0.8288  0.1349  0.2329
  485TIP3    H2 1420   4.365   5.435   2.657  0.7351  0.3899  1.9876
  486TIP3   OH2 1421   4.966   6.651   1.659 -0.1172  0.1015  0.0677
  486TIP3    H1 1422   5.003   6.639   1.746 -1.6769 -1.6602  0.5581
  486TIP3    H2 1423   5.037   6.625   1.599 -0.0813 -2.0212  0.9365
  487TIP3   OH2 1424   0.333   6.533   4.174 -0.2739 -0.1500  0.1803
  487TIP3    H1 1425   0.384   6.606   4.210 -0.8800  0.5929 -0.4129
  487TIP3    H2 1426   0.310   6.480   4.250 -2.3731  1.9016  1.0948
  488TIP3   OH2 1427   0.220   0.144   0.311  0.2202  0.6079 -0.0809
  488TIP3    H1 1428   0.209   0.091   0.232  4.2414 -0.3476 -0.2052
  488TIP3    H2 1429   0.239   0.081   0.381  2.8385  1.6429  0.2503
  489TIP3   OH2 1430   6.308   5.061   3.708  0.0564  0.2953  0.4875
  489TIP3    H1 1431   6.389   5.010   3.719 -0.4723 -0.0865  3.2336
  489TIP3    H2 1432   6.336   5.140   3.661  1.9470 -0.0115  1.0062
  490TIP3   OH2 1433   1.740   0.927   4.584 -0.7322  0.4095 -0.0052
  490TIP3    H1 1434   1.821   0.886   4.553  0.5721  2.1881  0.8555
  490TIP3    H2 1435   1.699   0.963   4.505 -1.6611 -1.9958 -0.7022
  491TIP3   OH2 1436   5.409   6.415   3.007  0.3705 -0.6798  0.5773
  491TIP3    H1 1437   5.443   6.499   2.975  2.0764 -1.4390  0.3084
  491TIP3    H2 1438   5.485   6.372   3.047 -0.4433 -2.1606  0.6018
  492TIP3   OH2 1439   4.488   4.150   4.492  1.0494  0.3826 -0.2797
  492TIP3    H1 1440   4.423   4.098   4.445  0.4349 -1.1401  2.0601
  492TIP3    H2 1441   4.442   4.179   4.571  2.5612  1.1824  0.3448
  493TIP3   OH2 1442   4.789   2.873   1.447 -0.6752  0.1369 -0.0151
  493TIP3    H1 1443   4.784   2.923   1.365 -1.3612  0.0350 -0.0461
  493TIP3    H2 1444   4.763   2.936   1.514 -0.1725  0.2027  0.1232
  494TIP3   OH2 1445   0.745   3.766   5.579  0.4267  0.4928 -0.2221
  494TIP3    H1 1446   0.710   3.759   5.668  3.1432  1.7919  1.0845
  494TIP3    H2 1447   0.695   3.837   5.539 -1.2590 -0.5222 -0.0224
  495TIP3   OH2 1448   5.823   3.970   1.235 -0.1621 -0.0641  0.1685
  495TIP3    H1 1449   5.832   3.931   1.148 -1.8126 -2.0952  0.8156
  495TIP3    H2 1450   5.744   3.930   1.271 -0.2048  1.6279  2.1665
  496TIP3   OH2 1451   2.506   5.073   3.973 -0.1690 -0.1516  0.2960
  496TIP3    H1 1452   2.534   4.981   3.967  0.1570 -0.0141 -0.3494
  496TIP3    H2 1453   2.474   5.094   3.886  0.4557  0.5702  0.2305
  497TIP3   OH2 1454   0.584   4.299   2.865 -0.2327 -0.2400  0.3682
  497TIP3    H1 1455   0.561   4.391   2.851  1.3266 -0.0568 -1.2599
  497TIP3    H2 1456   0.582   4.260   2.778  2.1547 -0.9946  0.5770
  498TIP3   OH2 1457   2.256   1.289   1.436  0.3808 -0.7482 -0.5894
  498TIP3    H1 1458   2.336   1.342   1.436 -0.3482  0.4657  1.3602
  498TIP3    H2 1459   2.185   1.352   1.448 -0.7142 -1.9603 -0.4297
  499TIP3   OH2 1460   0.508   4.198   1.859 -0.2048  0.3255  0.7685
  499TIP3    H1 1461   0.491   4.147   1.780  1.2535  0.8071  0.1091
  499TIP3    H2 1462   0.433   4.258   1.866  0.3984  1.4078 -1.2019
  500TIP3   OH2 1463   6.858   4.010   1.736  0.1154  0.1513 -0.0460
  500TIP3    H1 1464   6.938   3.964   1.763  0.6774  1.0265 -0.2023
  500TIP3    H2 1465   6.805   3.942   1.693  1.5013 -0.0885 -1.4484
  501TIP3   OH2 1466   0.650   3.799   1.668 -0.0043 -0.7062 -0.2879
  501TIP3    H1 1467   0.729   3.793   1.722 -0.3535  1.1438  0.5210
  501TIP3    H2 1468   0.682   3.807   1.578  0.7478  0.1163  0.0414
  502TIP3   OH2 1469   1.814   2.802   1.208  1.1064  0.5442 -0.0922
  502TIP3    H1 1470   1.803   2.826   1.116 -2.0821 -1.6147 -0.4094
  502TIP3    H2 1471   1.850   2.713   1.205 -0.2267 -0.0403  0.6851
  503TIP3   OH2 1472   3.693   4.451   2.995  0.2232 -0.0045  0.0319
  503TIP3    H1 1473   3.616   4.438   2.940 -0.9913  1.2674  1.3393
  503TIP3    H2 1474   3.686   4.384   3.063  0.2980  0.0529  0.0967
  504TIP3   OH2 1475   3.076   5.822   0.839  0.0068  0.4860 -0.3228
  504TIP3    H1 1476   3.097   5.739   0.796  1.3189 -0.2686  1.6671
  504TIP3    H2 1477   2.988   5.843   0.808 -1.3803 -2.8908  0.9015
  505TIP3   OH2 1478   4.186   5.637   0.797  0.1863 -0.2931 -0.0511
  505TIP3    H1 1479   4.260   5.611   0.851  0.7945 -0.2712 -0.8625
  505TIP3    H2 1480   4.153   5.717   0.839  1.1993  0.2261 -0.2208
  506TIP3   OH2 1481   1.421   6.620   3.535  0.4790 -0.3723  0.3090
  506TIP3    H1 1482   1.499   6.604   3.481  1.8731  1.2486  1.7310
  506TIP3    H2 1483   1.359   6.662   3.475  1.4779  0.1600 -0.3932
  507TIP3   OH2 1484   3.567   4.789   0.717 -0.1906 -0.4311  0.7568
  507TIP3    H1 1485   3.647   4.840   0.726  0.6140 -1.3964 -0.6023
  507TIP3    H2 1486   3.584   4.730   0.644 -1.6151 -1.6577  1.3593
  508TIP3   OH2 1487   6.447   5.459   1.335 -0.0630 -0.1319 -0.2033
  508TIP3    H1 1488   6.477   5.430   1.249  0.3311 -0.2760 -0.0187
  508TIP3    H2 1489   6.519   5.438   1.395  0.5090  1.7769 -0.1504
  509TIP3   OH2 1490   0.392   2.474   1.806  0.1824  0.7264  0.0685
  509TIP3    H1 1491   0.309   2.502   1.845 -0.0267  0.3441 -0.0908
  509TIP3    H2 1492   0.449   2.550   1.813 -0.0099  0.8204  0.6656
  510TIP3   OH2 1493   5.387   6.048   2.561  0.6365 -0.5792  0.0141
  510TIP3    H1 1494   5.437   6.075   2.483  1.3509 -0.2756  0.5655
  510TIP3    H2 1495   5.313   5.999   2.526  0.8199 -0.2424 -0.8739
  511TIP3   OH2 1496   1.872   2.303   5.687  0.3550  0.1785  0.1057
  511TIP3    H1 1497   1.837   2.336   5.770 -1.9259  0.8196 -1.0476
  511TIP3    H2 1498   1.952   2.354   5.673  0.3943  0.5572  1.5579
  512TIP3   OH2 1499   4.356   5.002   1.092 -0.1298  0.4340 -0.0518
  512TIP3    H1 1500   4.380   4.975   1.181 -0.2520 -1.5073 -0.5585
  512TIP3    H2 1501   4.440   5.009   1.046 -0.1540 -0.4299 -0.2513
  513TIP3   OH2 1502   5.978   4.526   0.378  0.3248 -0.2561 -0.1998
  513TIP3    H1 1503   5.934   4.566   0.303 -2.9337 -0.6020  1.3619
  513TIP3    H2 1504   6.019   4.600   0.423 -1.3515  0.6306 -0.0496
  514TIP3   OH2 1505   0.157   6.658   5.200  0.0351 -0.8370  0.3581
  514TIP3    H1 1506   0.161   6.737   5.146  0.0508 -0.7413  0.4984
  514TIP3    H2 1507   0.122   6.591   5.142  0.1666 -0.7643  0.1931
  515TIP3   OH2 1508   2.560   2.959   2.684  0.5334  0.1728  0.2716
  515TIP3    H1 1509   2.551   2.864   2.693  1.1427  0.0883  0.0566
  515TIP3    H2 1510   2.550   2.993   2.772 -0.1964 -0.0480  0.2741
  516TIP3   OH2 1511   1.628   0.466   4.798 -0.1000 -0.1230  0.0915
  516TIP3    H1 1512   1.559   0.523   4.832  0.2403 -0.4389  1.3623
  516TIP3    H2 1513   1.590   0.378   4.799 -0.1482 -0.1115 -0.5272
  517TIP3   OH2 1514   2.841   2.210   5.150  0.1915  0.3054  0.1799
  517TIP3    H1 1515   2.747   2.192   5.138 -0.2163  2.1862  0.2342
  517TIP3    H2 1516   2.875   2.131   5.191 -1.1912 -0.7632 -0.6261
  518TIP3   OH2 1517   2.633   1.256   3.217  0.4419  0.0176  0.7959
  518TIP3    H1 1518   2.667   1.305   3.142 -1.2634  1.6422  0.9956
  518TIP3    H2 1519   2.701   1.193   3.238  0.6772 -1.0152 -2.5822
  519TIP3   OH2 1520   5.782   2.320   0.148 -0.2371 -0.1895 -0.3917
  519TIP3    H1 1521   5.700   2.369   0.161 -0.2190  0.6246 -2.8663
  519TIP3    H2 1522   5.845   2.387   0.121  1.6253 -0.6302  2.4096
  520TIP3   OH2 1523   6.146   2.203   3.903  0.5116 -0.5097  0.2003
  520TIP3    H1 1524   6.221   2.169   3.953 -0.1722 -0.2989  1.4019
  520TIP3    H2 1525   6.107   2.268   3.961  1.0748  1.4996 -1.5619
  521TIP3   OH2 1526   5.148   5.320   4.305  0.1445 -0.1145 -0.0332
  521TIP3    H1 1527   5.242   5.313   4.320  0.0219  0.9111  1.4729
  521TIP3    H2 1528   5.129   5.413   4.317 -0.9825 -0.2208 -0.8777
  522TIP3   OH2 1529   6.090   5.489   0.997  0.1345 -0.3419  0.1609
  522TIP3    H1 1530   6.037   5.453   0.926  1.5232 -0.8675 -0.6450
  522TIP3    H2 1531   6.081   5.584   0.988  0.2686 -0.4056 -0.6948
  523TIP3   OH2 1532   5.430   2.034   3.380 -0.2938  0.1889 -0.1237
  523TIP3    H1 1533   5.431   2.078   3.295  0.0675  0.3523 -0.0396
  523TIP3    H2 1534   5.339   2.007   3.393 -0.4395  0.5606 -0.3619
  524TIP3   OH2 1535   0.108   1.776   3.697  0.0143  0.0395 -0.0899
  524TIP3    H1 1536   0.169   1.721   3.747 -1.6225 -0.9599  0.8880
  524TIP3    H2 1537   0.031   1.721   3.683 -1.3772  1.7949  0.2373
  525TIP3   OH2 1538   4.087   4.186   1.693  0.0434 -0.0912  0.1459
  525TIP3    H1 1539   4.036   4.226   1.622 -2.1720 -1.0751  1.0784
  525TIP3    H2 1540   4.027   4.185   1.767  1.6374 -0.8679  1.4746
  526TIP3   OH2 1541   3.159   6.007   0.626 -0.0575 -0.1958  0.1066
  526TIP3    H1 1542   3.074   5.968   0.643 -0.2989 -0.3177 -1.2409
  526TIP3    H2 1543   3.157   6.091   0.672 -1.5040  0.4830 -1.1058
  527TIP3   OH2 1544   4.557   2.553   1.179 -0.5160 -0.0095  0.2363
  527TIP3    H1 1545   4.524   2.593   1.098 -0.5914 -0.1417  0.2019
  527TIP3    H2 1546   4.528   2.613   1.248 -1.3210 -0.4142  0.2600
  528TIP3   OH2 1547   3.065   2.662   5.094 -0.6389  1.0077 -0.1917
  528TIP3    H1 1548   3.137   2.620   5.140  0.0165 -0.9066 -2.7169
  528TIP3    H2 1549   3.035   2.732   5.153  2.4673  1.1139  1.4471
  529TIP3   OH2 1550   5.593   4.992   0.891 -0.0317  0.0306  0.2484
  529TIP3    H1 1551   5.679   5.023   0.862 -0.0953  0.9021  0.9601
  529TIP3    H2 1552   5.595   4.898   0.874  1.4528 -0.1442  1.1468
  530TIP3   OH2 1553   2.428   4.090   2.853 -0.0199  0.6007  0.5755
  530TIP3    H1 1554   2.403   4.019   2.911 -1.7102  2.2840  2.0594
  530TIP3    H2 1555   2.413   4.056   2.764 -0.2614 -1.0400  1.2244
  531TIP3   OH2 1556   6.545   1.687   2.510 -0.1295 -0.4837 -0.0645
  531TIP3    H1 1557   6.488   1.763   2.513  1.0175  0.3946  0.2205
  531TIP3    H2 1558   6.625   1.719   2.467  1.5682 -0.6640  2.7479
  532TIP3   OH2 1559   2.368   2.073   3.385 -0.2190 -0.0267 -0.1927
  532TIP3    H1 1560   2.338   2.111   3.302 -0.7486  0.2462  0.1179
  532TIP3    H2 1561   2.310   1.998   3.398 -0.3507  0.1219  0.0869
  533TIP3   OH2 1562   1.827   0.807   3.402 -0.0508 -0.3532  0.4729
  533TIP3    H1 1563   1.798   0.745   3.469 -0.1127 -0.1116  0.6764
  533TIP3    H2 1564   1.909   0.843   3.436  0.5049 -1.0390 -0.1057
  534TIP3   OH2 1565   6.397   6.340   1.780 -0.2803 -0.1342  0.3447
  534TIP3    H1 1566   6.379   6.415   1.724  1.2231  0.3270  0.4170
  534TIP3    H2 1567   6.342   6.353   1.857 -0.5659  0.5225  0.0387
  535TIP3   OH2 1568   5.004   4.681   5.441  0.5151 -0.0154  0.2753
  535TIP3    H1 1569   5.031   4.751   5.381  2.2152 -0.5826  0.3309
  535TIP3    H2 1570   5.076   4.673   5.503 -0.7541 -0.1528  1.7925
  536TIP3   OH2 1571   1.450   1.409   0.924  0.1398  0.4929 -0.4855
  536TIP3    H1 1572   1.449   1.321   0.962 -1.7993  1.0421  0.9077
  536TIP3    H2 1573   1.527   1.410   0.867  2.8660 -0.6841  2.8031
  537TIP3   OH2 1574   4.806   3.210   1.477 -0.4337 -0.3193 -0.2443
  537TIP3    H1 1575   4.745   3.280   1.453  0.2858  0.2619 -0.4139
  537TIP3    H2 1576   4.767   3.171   1.555 -0.4083  0.8532  0.3802
  538TIP3   OH2 1577   6.028   2.435   5.689  0.0865 -0.5270  0.1600
  538TIP3    H1 1578   6.046   2.393   5.774 -0.2278 -1.7501 -0.3565
  538TIP3    H2 1579   5.952   2.491   5.706  1.4207  1.0393  1.2234
  539TIP3   OH2 1580   5.815   4.476   1.538  0.0590  0.1716 -0.5341
  539TIP3    H1 1581   5.824   4.440   1.626 -0.9439  0.3762 -0.3375
  539TIP3    H2 1582   5.835   4.403   1.480  0.6885  0.0233 -0.1425
  540TIP3   OH2 1583   3.936   2.947   0.327 -0.0387  0.1167  0.2512
  540TIP3    H1 1584   3.927   3.035   0.363  0.0759 -0.4122  1.6178
  540TIP3    H2 1585   3.846   2.916   0.319 -0.0712  0.2850 -0.0894
  541TIP3   OH2 1586   1.000   0.452   0.698  0.2633 -0.4208  0.2255
  541TIP3    H1 1587   0.939   0.518   0.731 -1.0066 -1.1018 -0.7177
  541TIP3    H2 1588   0.989   0.454   0.603  3.3288  0.9902 -0.2186
  542TIP3   OH2 1589   4.969   3.817   2.876  0.0016  1.0480  0.2953
  542TIP3    H1 1590   5.062   3.838   2.887 -0.0331  0.7363  1.2428
  542TIP3    H2 1591   4.930   3.899   2.846  0.9582  0.6020 -2.5129
  543TIP3   OH2 1592   6.715   2.017   0.560 -0.6629  0.4476 -0.1495
  543TIP3    H1 1593   6.686   2.099   0.521 -0.3200  1.1776  1.0455
  543TIP3    H2 1594   6.750   2.043   0.646 -1.4114 -1.0687  0.6586
  544TIP3   OH2 1595   4.707   3.412   5.397  0.1603  0.4213 -0.0634
  544TIP3    H1 1596   4.637   3.459   5.353  0.5261  0.8724 -0.1651
  544TIP3    H2 1597   4.787   3.461   5.377  0.1602  1.6011  2.3558
  545TIP3   OH2 1598   2.516   4.775   1.890 -0.2799 -0.0827 -0.0097
  545TIP3    H1 1599   2.422   4.787   1.876 -0.1267  1.0638 -0.1532
  545TIP3    H2 1600   2.546   4.859   1.925  1.1033  0.4382 -2.2229
  546TIP3   OH2 1601   6.853   4.483   5.027 -0.0956  0.0155  0.2378
  546TIP3    H1 1602   6.816   4.484   5.115  1.0317 -0.5257  0.7473
  546TIP3    H2 1603   6.835   4.395   4.994  0.5623 -0.1986  0.4284
  547TIP3   OH2 1604   5.931   4.437   0.734 -0.0261  0.4122  0.1371
  547TIP3    H1 1605   5.917   4.431   0.828  0.2545  1.6524  0.2664
  547TIP3    H2 1606   5.967   4.524   0.720 -0.1279  0.2704 -1.1295
  548TIP3   OH2 1607   5.435   0.713   5.143  0.2090 -0.4070  0.3100
  548TIP3    H1 1608   5.463   0.627   5.112 -0.4987 -0.4548 -0.2265
  548TIP3    H2 1609   5.480   0.776   5.086  0.2926 -0.4388  0.3412
  549TIP3   OH2 1610   3.804   0.479   1.132  0.2169 -0.1375 -0.3810
  549TIP3    H1 1611   3.890   0.436   1.131  0.1150 -0.4187  0.9930
  549TIP3    H2 1612   3.812   0.547   1.199 -0.8579 -0.6626  0.3107
  550TIP3   OH2 1613   3.793   2.147   1.211 -0.0874 -0.6088  0.2548
  550TIP3    H1 1614   3.788   2.057   1.243 -0.4554 -0.1845  1.4384
  550TIP3    H2 1615   3.802   2.200   1.290  0.8822  0.3495 -0.4715
  551TIP3   OH2 1616   3.078   4.667   1.151  0.2549 -0.0204 -0.3569
  551TIP3    H1 1617   3.111   4.610   1.221  1.5214 -0.8178 -1.5403
  551TIP3    H2 1618   2.998   4.624   1.121 -1.1224  1.0958  1.5007
  552TIP3   OH2 1619   6.716   4.963   1.453 -1.1144  0.0504 -0.1792
  552TIP3    H1 1620   6.694   4.886   1.400  3.3725 -3.8490  2.8353
  552TIP3    H2 1621   6.660   4.955   1.530  0.1324 -1.0988  0.6685
  553TIP3   OH2 1622   3.635   0.773   1.294  0.2043 -0.1674 -0.3484
  553TIP3    H1 1623   3.728   0.785   1.274  0.7941 -2.4394  0.6520
  553TIP3    H2 1624   3.594   0.855   1.268  2.2970  0.4749 -1.9265
  554TIP3   OH2 1625   1.897   5.867   2.814  0.0420 -0.1598  0.2506
  554TIP3    H1 1626   1.970   5.809   2.792  0.6212  0.3879  0.6659
  554TIP3    H2 1627   1.841   5.867   2.736  0.4586 -0.6243 -0.0556
  555TIP3   OH2 1628   3.383   5.525   0.257  0.1822 -0.7502 -0.4886
  555TIP3    H1 1629   3.304   5.481   0.227 -0.3851  0.3796 -0.6992
  555TIP3    H2 1630   3.451   5.457   0.256 -1.0089 -2.0163  0.7537
  556TIP3   OH2 1631   3.190   6.398   3.422 -0.1460  0.3571  0.5262
  556TIP3    H1 1632   3.101   6.388   3.389 -0.8858  0.7464  2.2879
  556TIP3    H2 1633   3.236   6.445   3.353 -1.3167  0.2292 -0.3740
  557TIP3   OH2 1634   2.345   3.268   3.307  0.4071  0.0676 -0.3471
  557TIP3    H1 1635   2.429   3.227   3.287  0.3692  0.6142 -1.7144
  557TIP3    H2 1636   2.282   3.196   3.300  0.6011 -0.0776 -0.6579
  558TIP3   OH2 1637   5.019   6.258   1.670  0.3767 -0.1496 -0.3767
  558TIP3    H1 1638   4.990   6.273   1.580 -0.5533 -1.4042 -0.3013
  558TIP3    H2 1639   4.938   6.250   1.721  0.8831 -0.2896  0.4335
  559TIP3   OH2 1640   2.196   4.554   4.853 -0.4067  0.4801 -0.0346
  559TIP3    H1 1641   2.189   4.618   4.783  1.0276 -0.2289 -0.8618
  559TIP3    H2 1642   2.272   4.582   4.904  0.8246 -1.0004 -0.9479
  560TIP3   OH2 1643   4.314   1.784   5.600 -0.3547 -0.4489 -0.3018
  560TIP3    H1 1644   4.237   1.794   5.656 -1.0877 -1.6872 -1.0327
  560TIP3    H2 1645   4.371   1.857   5.623 -2.4676  1.4900 -0.8915
  561TIP3   OH2 1646   1.362   4.096   0.827  0.2345 -0.2444  0.4543
  561TIP3    H1 1647   1.432   4.032   0.826 -0.6870 -1.3194  1.4446
  561TIP3    H2 1648   1.297   4.062   0.765 -0.0022  0.0316  0.5481
  562TIP3   OH2 1649   3.532   5.040   3.684  0.1860  0.4720 -0.2469
  562TIP3    H1 1650   3.469   5.048   3.612  1.8761  1.2849 -1.7233
  562TIP3    H2 1651   3.532   5.126   3.726  0.1220  0.3858 -0.0682
  563TIP3   OH2 1652   0.802   5.852   5.729  0.4562  0.0100  0.6560
  563TIP3    H1 1653   0.880   5.819   5.684 -0.8471 -1.3984 -0.6866
  563TIP3    H2 1654   0.827   5.939   5.760  2.1701  0.0706 -0.7414
  564TIP3   OH2 1655   6.371   6.063   1.671  0.0380  0.1376  0.5731
  564TIP3    H1 1656   6.444   6.063   1.608  1.0482  1.4525  1.6838
  564TIP3    H2 1657   6.412   6.081   1.755 -1.2827 -1.5885  1.6672
  565TIP3   OH2 1658   4.725   1.025   2.825  0.5426 -0.6323 -0.4855
  565TIP3    H1 1659   4.740   1.109   2.868  1.3283 -0.5630 -0.8805
  565TIP3    H2 1660   4.638   1.034   2.785  0.0472 -0.5038  0.5984
  566TIP3   OH2 1661   5.569   0.132   1.990  0.2048  0.3896 -0.1326
  566TIP3    H1 1662   5.663   0.119   1.973 -0.1853 -1.7124 -0.9655
  566TIP3    H2 1663   5.557   0.100   2.079  0.2907  0.7845  0.0232
  567TIP3   OH2 1664   6.618   4.691   5.762  0.6483 -0.4103 -0.3161
  567TIP3    H1 1665   6.692   4.677   5.704  0.6582 -0.5756 -0.2623
  567TIP3    H2 1666   6.542   4.661   5.712  0.8851 -2.5865  0.5498
  568TIP3   OH2 1667   4.794   0.949   3.553  0.6464 -0.0653  0.3053
  568TIP3    H1 1668   4.870   0.979   3.503  0.6222  0.2204  0.4379
  568TIP3    H2 1669   4.829   0.885   3.615  0.6320 -0.6382 -0.2700
  569TIP3   OH2 1670   2.970   6.537   5.318  0.1790  0.3055 -0.2539
  569TIP3    H1 1671   2.889   6.578   5.288  0.5421 -0.7837 -2.9761
  569TIP3    H2 1672   2.952   6.443   5.312  0.5062 -0.0293  2.5995
  570TIP3   OH2 1673   4.914   4.754   4.979  0.1764  0.3047  0.0308
  570TIP3    H1 1674   4.918   4.659   4.966  0.1286  0.1456  1.0522
  570TIP3    H2 1675   4.880   4.764   5.068  1.3185  1.2570  0.3793
  571TIP3   OH2 1676   1.949   4.055   1.162  0.0883  0.1679  1.0471
  571TIP3    H1 1677   1.988   4.076   1.247 -0.2381 -1.4981  1.6428
  571TIP3    H2 1678   1.866   4.104   1.161 -0.6731 -1.0140  2.4011
  572TIP3   OH2 1679   6.000   2.852   3.561  0.4933 -0.2830  0.0890
  572TIP3    H1 1680   6.057   2.909   3.613  0.5029 -0.0029 -0.2235
  572TIP3    H2 1681   6.050   2.835   3.481  0.2010 -0.1479 -0.1252
  573TIP3   OH2 1682   1.376   5.195   3.456  0.2929  0.3081 -0.1700
  573TIP3    H1 1683   1.464   5.232   3.463  1.3226 -2.0035  0.1583
  573TIP3    H2 1684   1.381   5.135   3.381 -0.1211 -1.9510  1.5167
  574TIP3   OH2 1685   4.586   5.539   0.596 -0.1962 -0.1442 -0.3441
  574TIP3    H1 1686   4.507   5.592   0.595  0.8508  1.5111  0.5124
  574TIP3    H2 1687   4.586   5.493   0.512 -3.2928 -2.1517  0.5825
  575TIP3   OH2 1688   1.785   5.527   1.192  0.5254  0.7814  0.8089
  575TIP3    H1 1689   1.856   5.526   1.127 -1.4287 -1.2129 -1.5158
  575TIP3    H2 1690   1.808   5.458   1.254  0.9601  0.5908  0.4447
  576TIP3   OH2 1691   2.971   2.616   0.409  0.5887 -0.1230 -0.2661
  576TIP3    H1 1692   3.011   2.695   0.444  0.6123  0.2385 -1.0742
  576TIP3    H2 1693   2.919   2.646   0.334  0.3320 -0.8249 -0.3823
  577TIP3   OH2 1694   0.025   6.418   3.047  0.0638 -0.0802 -0.2450
  577TIP3    H1 1695   0.058   6.473   3.119  1.1688 -1.5696  0.4553
  577TIP3    H2 1696  -0.063   6.394   3.074 -0.1405  0.7229 -0.1889
  578TIP3   OH2 1697   2.333   1.383   3.490  0.0175  0.1628 -1.2281
  578TIP3    H1 1698   2.347   1.383   3.395  1.3300  0.5911 -1.0578
  578TIP3    H2 1699   2.377   1.463   3.520 -0.1771 -0.0945 -0.2297
  579TIP3   OH2 1700   6.775   1.818   2.404  0.2875  0.5992 -0.2468
  579TIP3    H1 1701   6.727   1.874   2.342  2.6113  2.2459 -0.6821
  579TIP3    H2 1702   6.802   1.743   2.352 -1.6017 -0.2816 -0.0323
  580TIP3   OH2 1703   1.208   3.174   5.617  0.1636 -0.2254  0.2388
  580TIP3    H1 1704   1.300   3.190   5.600  0.8753 -2.2182  1.8336
  580TIP3    H2 1705   1.188   3.093   5.568 -0.7776  0.2426 -0.1810
  581TIP3   OH2 1706   6.617   4.618   5.452  0.2338 -0.8294 -0.1137
  581TIP3    H1 1707   6.553   4.611   5.381 -0.1345  0.1130  0.1015
  581TIP3    H2 1708   6.613   4.534   5.496  0.2420 -1.3190 -1.0217
  582TIP3   OH2 1709   0.905   3.243   4.452 -0.3145  0.1501 -0.6223
  582TIP3    H1 1710   0.825   3.191   4.442 -0.5478  0.4654 -0.4260
  582TIP3    H2 1711   0.896   3.285   4.537  0.6005 -0.7148 -0.0814
  583TIP3   OH2 1712   2.816   3.188   5.548 -0.1101  0.5400 -0.1507
  583TIP3    H1 1713   2.862   3.176   5.630  0.4357  0.6176 -0.4422
  583TIP3    H2 1714   2.754   3.115   5.544 -0.0391  0.4585  0.2635
  584TIP3   OH2 1715   4.686   0.262   3.193  0.7750  0.3659 -0.1380
  584TIP3    H1 1716   4.759   0.288   3.137 -1.0722  4.4956 -0.9956
  584TIP3    H2 1717   4.706   0.301   3.278  0.4465 -0.1207  0.1649
  585TIP3   OH2 1718   1.625   1.349   2.564  0.6615  0.4796  0.1380
  585TIP3    H1 1719   1.672   1.294   2.500  0.3604 -0.4509  0.6945
  585TIP3    H2 1720   1.618   1.434   2.522 -0.4131 -0.3786 -1.4984
  586TIP3   OH2 1721   4.257   3.995   1.844  0.3131 -0.1542 -0.3174
  586TIP3    H1 1722   4.294   4.062   1.901 -1.6558 -0.8650  1.9496
  586TIP3    H2 1723   4.185   4.038   1.799 -0.6430 -0.5564  0.7750
  587TIP3   OH2 1724   3.987   5.989   1.891  0.4252  0.1399  0.2467
  587TIP3    H1 1725   3.948   5.936   1.961 -0.2441  1.7855  1.1825
  587TIP3    H2 1726   3.915   6.006   1.830  0.7252 -0.3141 -0.2430
  588TIP3   OH2 1727   4.090   0.946   3.883  0.6842  0.3836 -0.2562
  588TIP3    H1 1728   4.145   0.998   3.942 -0.4635  1.4793 -0.1110
  588TIP3    H2 1729   4.118   0.856   3.898 -1.0661  0.2775  3.7566
  589TIP3   OH2 1730   6.023   6.613   3.174  0.2202  1.2004  0.8234
  589TIP3    H1 1731   5.968   6.683   3.140 -0.0986  0.5575 -0.0206
  589TIP3    H2 1732   6.101   6.658   3.207 -0.7126  2.0984  1.8670
  590TIP3   OH2 1733   4.234   1.781   1.334 -0.0605 -0.3907 -0.1593
  590TIP3    H1 1734   4.260   1.871   1.313 -1.0912 -0.3128 -1.1576
  590TIP3    H2 1735   4.267   1.768   1.423  0.1335  0.9632  0.0005
  591TIP3   OH2 1736   6.414   2.778   0.457  0.1079 -0.4432 -0.1434
  591TIP3    H1 1737   6.448   2.807   0.542 -0.9412  0.5002 -0.0108
  591TIP3    H2 1738   6.320   2.769   0.472 -0.2121  0.5487 -1.4031
  592TIP3   OH2 1739   6.319   0.798   5.093 -0.4462  0.3720  0.1311
  592TIP3    H1 1740   6.262   0.726   5.064 -1.2623  1.4128 -0.9524
  592TIP3    H2 1741   6.319   0.859   5.019 -0.6284  1.9909  1.4263
  593TIP3   OH2 1742   5.072   4.231   5.872 -0.4615 -0.1846 -0.5117
  593TIP3    H1 1743   5.155   4.243   5.918  0.2398  3.3713 -2.3605
  593TIP3    H2 1744   5.096   4.183   5.792 -0.2888  0.1726 -0.6786
  594TIP3   OH2 1745   1.642   3.575   2.557 -0.3851  0.2592 -0.0710
  594TIP3    H1 1746   1.707   3.591   2.625 -0.9965 -0.4554  0.7086
  594TIP3    H2 1747   1.618   3.483   2.569  1.7480 -0.8849 -3.2521
  595TIP3   OH2 1748   3.544   3.144   1.559 -0.2838 -0.0366 -0.0802
  595TIP3    H1 1749   3.593   3.069   1.593  1.6834  1.0304 -0.4300
  595TIP3    H2 1750   3.606   3.217   1.562 -1.7269  1.2903 -0.9819
  596TIP3   OH2 1751   2.363   5.800   1.999  0.0701  0.2800  0.4109
  596TIP3    H1 1752   2.435   5.862   2.008  1.3990 -0.9605 -1.0757
  596TIP3    H2 1753   2.403   5.723   1.959 -1.8855 -0.8601  0.5350
  597TIP3   OH2 1754   2.675   5.853   1.665  0.3943  0.0278 -0.2974
  597TIP3    H1 1755   2.639   5.784   1.720 -0.7472  1.1648  0.4056
  597TIP3    H2 1756   2.751   5.885   1.713  2.0865 -1.9161 -1.4753
  598TIP3   OH2 1757   5.456   5.435   3.219 -0.1521 -0.4846 -0.0978
  598TIP3    H1 1758   5.451   5.478   3.134  0.4567 -1.0946 -0.4504
  598TIP3    H2 1759   5.536   5.470   3.259  0.0166 -0.8257 -0.1314
  599TIP3   OH2 1760   2.068   5.210   4.468  0.3280  0.3465  0.1831
  599TIP3    H1 1761   2.024   5.292   4.451 -0.8241  0.4816  3.1941
  599TIP3    H2 1762   2.001   5.143   4.454  1.7506 -0.5040 -4.2538
  600TIP3   OH2 1763   6.515   3.573   3.365  0.0063  0.2283 -0.2320
  600TIP3    H1 1764   6.432   3.579   3.412  0.8307 -0.8117  1.4521
  600TIP3    H2 1765   6.580   3.553   3.432  1.9006  2.3644 -1.2715
  601TIP3   OH2 1766   7.041   0.699   4.509 -0.0210  0.0298 -0.0511
  601TIP3    H1 1767   7.029   0.632   4.577 -0.7640  0.9543  0.7594
  601TIP3    H2 1768   7.122   0.675   4.466  1.3181  0.2695  2.1915
  602TIP3   OH2 1769   5.642   5.471   5.547 -0.0576 -0.5435  0.5975
  602TIP3    H1 1770   5.703   5.494   5.477 -0.9657  1.0251  0.2940
  602TIP3    H2 1771   5.556   5.472   5.505 -0.5948  0.2456  1.6893
  603TIP3   OH2 1772   0.987   5.812   4.742  0.4598  0.6303 -0.5322
  603TIP3    H1 1773   1.005   5.718   4.743 -0.4227  0.4447 -0.7079
  603TIP3    H2 1774   1.025   5.842   4.660 -0.2402  0.1953 -1.0376
  604TIP3   OH2 1775   0.165   5.624   5.558  0.2502 -0.4017  0.5376
  604TIP3    H1 1776   0.224   5.686   5.516 -0.1966  0.0608  0.5877
  604TIP3    H2 1777   0.210   5.600   5.639  0.7891 -0.7572  0.1421
  605TIP3   OH2 1778   4.420   2.484   3.250 -0.1464  0.2045 -0.0378
  605TIP3    H1 1779   4.443   2.552   3.313 -1.0361 -0.3575  0.9281
  605TIP3    H2 1780   4.468   2.406   3.280  1.0201  0.4121 -1.2459
  606TIP3   OH2 1781   7.040   3.423   3.294 -0.0251 -0.1483 -0.4360
  606TIP3    H1 1782   7.135   3.426   3.308 -0.1180  0.2812  0.0886
  606TIP3    H2 1783   7.030   3.371   3.214  0.5914 -1.1505  0.1111
  607TIP3   OH2 1784   2.318   2.923   1.640 -0.0499  0.0550  0.3364
  607TIP3    H1 1785   2.349   2.968   1.719 -0.4640  0.2587  0.3859
  607TIP3    H2 1786   2.224   2.942   1.637  0.2334  1.3810 -1.0644
  608TIP3   OH2 1787   4.303   0.929   0.033  0.0882 -0.4069  0.5431
  608TIP3    H1 1788   4.267   0.999   0.087  0.4807 -1.4444  2.2102
  608TIP3    H2 1789   4.356   0.975  -0.033 -1.5762  0.9538  0.0842
  609TIP3   OH2 1790   4.039   2.952   5.806  0.5318 -0.5845  0.2562
  609TIP3    H1 1791   4.068   2.982   5.892  1.9643 -0.2494 -0.2984
  609TIP3    H2 1792   4.100   2.882   5.783 -0.4979 -1.4014 -0.0399
  610TIP3   OH2 1793   6.043   0.224   2.682  0.2171 -0.5008 -0.3220
  610TIP3    H1 1794   6.116   0.185   2.729  0.8009  0.2348 -0.5936
  610TIP3    H2 1795   5.979   0.153   2.673  1.3363 -1.4551 -0.9948
  611TIP3   OH2 1796   5.230   6.475   0.314 -0.0379  0.6005 -0.1461
  611TIP3    H1 1797   5.232   6.379   0.316  0.3016  0.6169  0.7486
  611TIP3    H2 1798   5.224   6.497   0.221 -0.3992 -0.2899 -0.3467
  612TIP3   OH2 1799   3.354   4.990   0.039 -0.3510  0.4756  0.4000
  612TIP3    H1 1800   3.440   4.948   0.034  0.0238  1.3687 -0.9978
  612TIP3    H2 1801   3.358   5.062  -0.023 -2.3004  0.2225 -0.0967
  613TIP3   OH2 1802   6.224   0.034   1.489 -0.2592  0.2756 -0.0715
  613TIP3    H1 1803   6.247   0.035   1.582 -0.1014  1.9420 -0.0898
  613TIP3    H2 1804   6.176   0.115   1.475  0.5604  0.5454 -1.6387
  614TIP3   OH2 1805   5.548   1.035   3.007  0.2934 -0.8261  0.4952
  614TIP3    H1 1806   5.629   1.081   2.986 -1.0331  1.4387 -0.0977
  614TIP3    H2 1807   5.542   1.039   3.103  1.1016 -1.4269  0.5716
  615TIP3   OH2 1808   5.094   3.873   0.818  0.2556  0.0032  0.4478
  615TIP3    H1 1809   5.086   3.864   0.913  2.4888 -1.0525  0.5986
  615TIP3    H2 1810   5.159   3.942   0.806 -0.2965  0.3948 -0.3267
  616TIP3   OH2 1811   3.489   4.376   0.241  0.4023 -0.2811 -0.1792
  616TIP3    H1 1812   3.427   4.447   0.259  0.9716  0.3187 -0.5304
  616TIP3    H2 1813   3.445   4.322   0.176 -0.2676 -0.5770  0.4975
  617TIP3   OH2 1814   6.261   2.058   4.528 -0.7632 -0.7699 -0.0742
  617TIP3    H1 1815   6.211   2.139   4.517  0.7780 -0.0438 -2.5203
  617TIP3    H2 1816   6.219   1.995   4.470 -0.0414 -0.7405 -0.6397
  618TIP3   OH2 1817   4.151   5.548   5.201 -0.0107 -0.3502 -0.0365
  618TIP3    H1 1818   4.115   5.512   5.282  0.6741 -3.4527 -0.9647
  618TIP3    H2 1819   4.075   5.575   5.151 -0.6068 -0.6864  0.6690
  619TIP3   OH2 1820   5.704   4.069   0.431 -0.6292  0.2734 -0.1300
  619TIP3    H1 1821   5.697   4.131   0.503 -2.0813  0.9607 -0.8345
  619TIP3    H2 1822   5.798   4.068   0.409 -0.6022  2.3886 -0.2541
  620TIP3   OH2 1823   1.981   5.366   3.418  0.2238 -0.0693 -0.6083
  620TIP3    H1 1824   2.012   5.453   3.443 -0.1819 -0.3381  0.9701
  620TIP3    H2 1825   1.952   5.376   3.328  2.0791  0.9087 -1.1485
  621TIP3   OH2 1826   2.052   3.717   0.072 -0.5396 -0.1030  0.3795
  621TIP3    H1 1827   1.964   3.752   0.083 -1.0912 -1.4999  0.6416
  621TIP3    H2 1828   2.109   3.794   0.075 -1.7952  0.9030 -0.5515
  622TIP3   OH2 1829   6.804   1.377   0.547 -0.1159  0.0374  0.0282
  622TIP3    H1 1830   6.841   1.291   0.568 -0.1334  0.3235  1.3207
  622TIP3    H2 1831   6.873   1.422   0.500  0.7572  0.1101  1.3270
  623TIP3   OH2 1832   6.257   0.559   4.969  0.0185 -0.1270 -0.5034
  623TIP3    H1 1833   6.345   0.560   4.931  0.1275 -0.3738 -0.2640
  623TIP3    H2 1834   6.254   0.479   5.021 -1.1652 -1.3670 -2.3662
  624TIP3   OH2 1835   1.826   0.674   1.755  0.2069 -0.2032 -0.3389
  624TIP3    H1 1836   1.897   0.661   1.692 -0.2642  0.3126 -0.9863
  624TIP3    H2 1837   1.763   0.729   1.709 -1.9902 -2.9337 -0.8687
  625TIP3   OH2 1838   4.723   5.275   0.852 -0.0002 -0.0327  0.3467
  625TIP3    H1 1839   4.727   5.369   0.831 -0.1832  0.4865  2.3955
  625TIP3    H2 1840   4.813   5.251   0.872 -0.0277 -0.1776  0.2993
  626TIP3   OH2 1841   0.022   0.218   2.917 -0.1411 -0.9309  0.2713
  626TIP3    H1 1842  -0.020   0.270   2.848  0.8381 -1.4970 -0.7813
  626TIP3    H2 1843   0.076   0.282   2.965 -0.9053 -0.5147  0.5911
  627TIP3   OH2 1844   5.692   4.124   5.534  0.1006  0.2647 -0.1133
  627TIP3    H1 1845   5.750   4.141   5.460 -0.0045  0.5866 -0.1236
  627TIP3    H2 1846   5.639   4.049   5.507  0.0519  0.3929 -0.3728
  628TIP3   OH2 1847   6.329   4.160   3.525 -0.0265 -0.5436 -0.3824
  628TIP3    H1 1848   6.416   4.138   3.559  0.2163  0.9307  0.0364
  628TIP3    H2 1849   6.295   4.078   3.492  1.3674 -1.2416 -0.1780
  629TIP3   OH2 1850   1.561   5.698   1.169 -0.7000 -1.0898 -0.0873
  629TIP3    H1 1851   1.640   5.649   1.193  0.2751 -0.1115 -1.1824
  629TIP3    H2 1852   1.548   5.760   1.241  0.3233 -0.3645 -0.4988
  630TIP3   OH2 1853   1.245   5.298   4.707  0.8047 -0.5260 -0.3518
  630TIP3    H1 1854   1.282   5.265   4.625  1.6801 -1.2828  0.3199
  630TIP3    H2 1855   1.191   5.227   4.740 -1.0875  0.4678 -1.1760
  631TIP3   OH2 1856   1.728   0.734   1.452 -0.0870 -0.1951  0.6596
  631TIP3    H1 1857   1.803   0.677   1.466 -1.0955 -1.3408  1.6387
  631TIP3    H2 1858   1.661   0.678   1.414 -0.3950  0.8715 -0.4447
  632TIP3   OH2 1859   0.821   4.643   0.122  0.4490  0.0083  0.2282
  632TIP3    H1 1860   0.878   4.567   0.124  0.9145  0.3573  1.6309
  632TIP3    H2 1861   0.876   4.715   0.154 -0.7014  0.3886  1.4271
  633TIP3   OH2 1862   2.672   6.496   1.122  0.3013  0.0994  0.7956
  633TIP3    H1 1863   2.749   6.452   1.159  1.0559  0.0448 -0.7343
  633TIP3    H2 1864   2.621   6.425   1.083  0.8651  0.3919 -0.5374
  634TIP3   OH2 1865   4.730   0.788   5.906  0.3589 -0.6111  0.2214
  634TIP3    H1 1866   4.784   0.771   5.829  1.4269  2.6353  0.1011
  634TIP3    H2 1867   4.648   0.822   5.871 -0.1073 -1.4411  0.4908
  635TIP3   OH2 1868   1.830   3.623   3.953  0.5820  0.0607  0.2429
  635TIP3    H1 1869   1.893   3.677   3.906 -0.2442  1.2788  0.4856
  635TIP3    H2 1870   1.846   3.642   4.046 -1.8731  2.5535  0.2829
  636TIP3   OH2 1871   1.001   5.979   2.654 -0.7780  0.4883  0.1959
  636TIP3    H1 1872   0.983   6.032   2.732  0.0066  0.7759  0.1930
  636TIP3    H2 1873   1.069   5.918   2.682  0.8042  1.7410 -0.6903
  637TIP3   OH2 1874   2.936   1.844   1.899 -0.1887 -0.0133  0.5731
  637TIP3    H1 1875   2.885   1.923   1.916  1.2774  0.7607  1.5395
  637TIP3    H2 1876   3.027   1.873   1.904  0.3844 -1.3288 -1.2134
  638TIP3   OH2 1877   2.213   6.679   0.037 -0.0687 -0.2921 -0.7723
  638TIP3    H1 1878   2.201   6.632  -0.046 -0.7687 -0.0259 -0.8266
  638TIP3    H2 1879   2.258   6.616   0.093 -2.9831 -1.9385 -0.0767
  639TIP3   OH2 1880   7.041   0.722   4.853  0.3299 -0.5885 -0.9948
  639TIP3    H1 1881   7.006   0.798   4.901  1.5332 -0.5783 -0.0664
  639TIP3    H2 1882   7.091   0.761   4.781  0.1203 -0.5324 -1.1100
  640TIP3   OH2 1883   3.438   1.406   2.192  0.5154 -0.4105  0.1685
  640TIP3    H1 1884   3.392   1.448   2.265  1.9445 -1.2547  1.6391
  640TIP3    H2 1885   3.501   1.472   2.162  1.9586 -1.0236  1.7063
  641TIP3   OH2 1886   2.999   6.720   0.525  0.2299  0.2040  0.0897
  641TIP3    H1 1887   2.995   6.691   0.434 -0.2144 -0.3475  0.2807
  641TIP3    H2 1888   2.908   6.739   0.549  0.4043  0.8289  0.2667
  642TIP3   OH2 1889   0.439   4.258   4.329  0.0587 -0.1580  0.3633
  642TIP3    H1 1890   0.437   4.298   4.416 -4.2751 -0.5624  0.6608
  642TIP3    H2 1891   0.429   4.164   4.345 -2.0344 -0.1362 -0.4725
  643TIP3   OH2 1892   6.661   5.887   5.248 -0.6293  0.4148 -0.0630
  643TIP3    H1 1893   6.635   5.922   5.333 -1.2129  1.5313 -0.6818
  643TIP3    H2 1894   6.739   5.834   5.266 -1.3261 -0.1765  1.3049
  644TIP3   OH2 1895   4.378   1.926   2.152 -0.1511  0.5021 -0.5976
  644TIP3    H1 1896   4.324   1.954   2.078 -0.0147 -0.4687 -1.0822
  644TIP3    H2 1897   4.434   1.858   2.116  0.2029  0.3024  0.3085
  645TIP3   OH2 1898   2.345   2.027   0.033  0.2340 -0.7148 -0.2848
  645TIP3    H1 1899   2.341   2.027   0.128  0.6799  0.9110 -0.2468
  645TIP3    H2 1900   2.349   1.934   0.009 -0.1505 -1.1475  1.2533
  646TIP3   OH2 1901   7.149   1.354   0.178  0.2484  0.3228 -0.3188
  646TIP3    H1 1902   7.109   1.270   0.199  1.4165 -0.2693 -0.4248
  646TIP3    H2 1903   7.130   1.409   0.255 -0.9104  0.1303 -0.4451
  647TIP3   OH2 1904   5.444   4.019   0.853 -0.2627  0.3851  0.3562
  647TIP3    H1 1905   5.517   4.063   0.897 -0.7989  0.6380  1.0312
  647TIP3    H2 1906   5.431   3.939   0.904 -0.5851  0.4479  0.3753
  648TIP3   OH2 1907   7.047   3.451   2.937  0.3868 -0.1535 -0.0154
  648TIP3    H1 1908   7.046   3.545   2.920  2.4780 -0.1879 -0.6038
  648TIP3    H2 1909   6.956   3.423   2.924 -0.5036  1.9103  1.1622
  649TIP3   OH2 1910   1.834   2.588   5.588  0.4499 -0.2711  0.1089
  649TIP3    H1 1911   1.841   2.594   5.683  0.4521 -0.3895  0.1163
  649TIP3    H2 1912   1.804   2.498   5.572  1.3998 -0.5756 -0.0532
  650TIP3   OH2 1913   2.082   5.226   1.651  0.5645  0.0749  0.1152
  650TIP3    H1 1914   2.162   5.196   1.607 -0.1551 -0.3062 -0.9887
  650TIP3    H2 1915   2.011   5.188   1.599 -0.3497 -1.3995  2.2866
  651TIP3   OH2 1916   6.916   3.116   1.870  0.8520  0.1175  0.5133
  651TIP3    H1 1917   6.947   3.033   1.834  1.3831  1.1234 -1.4913
  651TIP3    H2 1918   6.829   3.095   1.904  1.3111 -1.4324  0.8310
  652TIP3   OH2 1919   1.256   2.005   1.576  0.4547  0.2023  0.5754
  652TIP3    H1 1920   1.221   2.035   1.660  0.4167  0.7723  0.3539
  652TIP3    H2 1921   1.314   2.075   1.547  3.5342 -1.5723  1.9467
  653TIP3   OH2 1922   7.084   5.268   4.421  0.2918 -0.7401 -0.3544
  653TIP3    H1 1923   7.067   5.186   4.376 -2.2540  0.2112 -1.3081
  653TIP3    H2 1924   7.082   5.334   4.352  0.5559  0.3114  0.6122
  654TIP3   OH2 1925   1.827   6.203   4.242  0.5542  0.1590  0.0145
  654TIP3    H1 1926   1.778   6.273   4.286 -0.1286 -0.4054  0.1717
  654TIP3    H2 1927   1.864   6.245   4.165 -0.2628  0.5933 -0.1590
  655TIP3   OH2 1928   6.844   1.338   1.805  0.0561  0.4065  0.2820
  655TIP3    H1 1929   6.810   1.250   1.790 -0.6612  0.8481 -0.7780
  655TIP3    H2 1930   6.930   1.339   1.763 -0.8122  0.8204 -1.5827
  656TIP3   OH2 1931   3.071   2.389   4.372  0.0427  0.0196  0.1423
  656TIP3    H1 1932   3.020   2.373   4.451 -0.3052 -0.1751 -0.1203
  656TIP3    H2 1933   3.012   2.436   4.314 -0.4927 -1.8282 -0.8934
  657TIP3   OH2 1934   0.249   1.456   4.777  0.6538 -0.0913  0.2006
  657TIP3    H1 1935   0.325   1.447   4.834  0.1231 -0.7191  0.8234
  657TIP3    H2 1936   0.188   1.510   4.827  0.3580 -0.2754  0.0387
  658TIP3   OH2 1937   5.945   0.462   3.014  0.2348  0.0580  0.4529
  658TIP3    H1 1938   5.867   0.469   3.068 -0.0585 -1.4886  0.2920
  658TIP3    H2 1939   5.912   0.440   2.927  0.8081  0.1086  0.2196
  659TIP3   OH2 1940   1.725   0.311   3.652 -0.4047  0.4023 -0.4307
  659TIP3    H1 1941   1.659   0.242   3.644 -0.2553  0.1425  0.4651
  659TIP3    H2 1942   1.722   0.336   3.744 -0.3947  1.5437 -0.7308
  660TIP3   OH2 1943   3.390   4.012   2.913 -0.2393  0.0112  0.6890
  660TIP3    H1 1944   3.383   3.956   2.991 -0.3023  0.9099  1.3494
  660TIP3    H2 1945   3.483   4.034   2.908  0.1343 -1.6730 -0.6941
  661TIP3   OH2 1946   4.626   0.816   5.033 -0.0605  0.3684  0.1449
  661TIP3    H1 1947   4.580   0.819   4.950  0.7633  0.6814 -0.3115
  661TIP3    H2 1948   4.621   0.724   5.060 -0.3467  0.2723 -0.2353
  662TIP3   OH2 1949   7.042   1.431   1.158  0.3642  0.0068  0.1307
  662TIP3    H1 1950   7.081   1.486   1.226  2.5101 -0.9841 -0.2049
  662TIP3    H2 1951   7.043   1.343   1.195  0.4044 -0.3558 -0.7075
  663TIP3   OH2 1952   0.854   4.822   0.411 -0.2038  0.5996 -0.2600
  663TIP3    H1 1953   0.816   4.740   0.443  0.1972  0.2150 -0.7675
  663TIP3    H2 1954   0.889   4.865   0.489 -0.5118  0.3407  0.0207
  664TIP3   OH2 1955   6.439   5.253   5.402  0.1649  0.5570  0.4774
  664TIP3    H1 1956   6.471   5.176   5.355 -0.7216  1.2924 -1.4189
  664TIP3    H2 1957   6.366   5.220   5.453  1.1279 -0.2532  1.3825
  665TIP3   OH2 1958   2.128   1.199   3.066  0.6096  0.2689  0.4908
  665TIP3    H1 1959   2.100   1.113   3.036  1.8002  0.5095 -1.4821
  665TIP3    H2 1960   2.210   1.183   3.114  0.2587  0.1985  1.0732
  666TIP3   OH2 1961   6.295   0.314   2.953 -0.0380  0.3169  0.0104
  666TIP3    H1 1962   6.265   0.247   2.893  2.5238  0.5931 -1.7174
  666TIP3    H2 1963   6.333   0.266   3.027 -2.2301 -0.0180  1.0026
  667TIP3   OH2 1964   6.709   5.666   2.269  0.5925  0.0111  0.1068
  667TIP3    H1 1965   6.729   5.759   2.275 -0.8437  0.2433  2.2606
  667TIP3    H2 1966   6.653   5.648   2.344 -0.5357 -2.2612 -1.1613
  668TIP3   OH2 1967   1.671   2.777   2.610  0.3669  0.3684  0.5511
  668TIP3    H1 1968   1.649   2.798   2.701  0.0878  0.7855  0.3873
  668TIP3    H2 1969   1.687   2.683   2.611 -3.6130 -0.4737  0.2719
  669TIP3   OH2 1970   5.320   0.074   1.873  0.1429  0.9380 -0.1705
  669TIP3    H1 1971   5.330   0.012   1.800  0.9274  0.2275  0.5250
  669TIP3    H2 1972   5.409   0.092   1.902 -0.2006 -0.0744  1.6579
  670TIP3   OH2 1973   0.571   4.871   2.960  0.1979  0.2521  0.0418
  670TIP3    H1 1974   0.492   4.907   2.921 -1.1599  0.0230  2.4025
  670TIP3    H2 1975   0.547   4.782   2.987  1.4758 -0.0730  0.2099
  671TIP3   OH2 1976   0.440   4.638   4.967 -0.2696 -0.1654 -0.6691
  671TIP3    H1 1977   0.416   4.677   5.051  0.4019  1.2402 -1.0991
  671TIP3    H2 1978   0.524   4.679   4.944 -0.6871 -0.1334 -2.2571
  672TIP3   OH2 1979   6.961   4.991   1.948 -0.0345  0.1940 -0.4787
  672TIP3    H1 1980   6.946   4.896   1.946  0.8831  0.0509 -0.9428
  672TIP3    H2 1981   6.882   5.028   1.909 -0.2799 -0.3929 -0.5590
  673TIP3   OH2 1982   0.394   2.415   4.552  0.4495  0.6885 -0.6425
  673TIP3    H1 1983   0.379   2.449   4.463 -1.8642 -0.0830 -0.6121
  673TIP3    H2 1984   0.360   2.483   4.610  1.1512  0.8072 -0.3614
  674TIP3   OH2 1985   1.325   5.933   4.833 -0.6261 -0.1481  0.6991
  674TIP3    H1 1986   1.380   5.907   4.759  1.1127  2.4831  0.9266
  674TIP3    H2 1987   1.326   5.857   4.891  3.3431 -0.1579  0.9491
  675TIP3   OH2 1988   3.926   5.789   0.087 -0.4053 -0.0257  0.4568
  675TIP3    H1 1989   3.863   5.719   0.071 -1.4765  1.2027 -1.1176
  675TIP3    H2 1990   3.932   5.835   0.003  1.0805  1.1035  1.1411
  676TIP3   OH2 1991   1.293   1.794   0.418  0.0353 -0.4264  0.0923
  676TIP3    H1 1992   1.266   1.727   0.480  0.7350 -0.2333  0.6203
  676TIP3    H2 1993   1.248   1.771   0.337  0.2670 -1.5310  0.2620
  677TIP3   OH2 1994   5.582   2.955   3.639  0.1465 -0.1540 -0.6452
  677TIP3    H1 1995   5.503   2.920   3.681 -0.5812  1.7832 -0.3072
  677TIP3    H2 1996   5.651   2.943   3.704  0.1936 -1.9129 -0.9620
  678TIP3   OH2 1997   6.925   4.192   2.875 -0.0989 -0.1742 -0.4923
  678TIP3    H1 1998   6.958   4.185   2.965  0.1731 -1.4565 -0.6591
  678TIP3    H2 1999   7.004   4.208   2.822 -0.0268 -0.9811 -0.6497
  679TIP3   OH2 2000   5.370   5.457   2.462 -0.9541 -0.1268 -0.2678
  679TIP3    H1 2001   5.373   5.490   2.552 -1.9900 -2.8207  0.8532
  679TIP3    H2 2002   5.277   5.450   2.441 -0.7838 -1.9328 -0.5503
  680TIP3   OH2 2003   6.881   1.072   3.126 -0.0558  0.8195 -0.4539
  680TIP3    H1 2004   6.905   1.138   3.061  1.0331 -0.5724 -1.5274
  680TIP3    H2 2005   6.799   1.104   3.163  0.0188  2.3535 -1.5286
  681TIP3   OH2 2006   3.402   6.040   4.776  0.1051  0.1910 -0.1686
  681TIP3    H1 2007   3.446   6.121   4.800  1.0393 -0.8159  1.8231
  681TIP3    H2 2008   3.310   6.064   4.766  0.3434  1.4614  0.5013
  682TIP3   OH2 2009   0.955   3.801   4.875  0.1065 -0.3689  0.0802
  682TIP3    H1 2010   0.911   3.827   4.794 -0.3103  0.1939  0.4792
  682TIP3    H2 2011   1.048   3.821   4.860 -0.0469  0.2480 -0.0539
  683TIP3   OH2 2012   6.043   6.190   4.254  0.1987 -0.4918 -0.1912
  683TIP3    H1 2013   6.054   6.170   4.161 -0.3339 -0.0536 -0.3522
  683TIP3    H2 2014   6.012   6.108   4.293 -2.8780  0.1734 -1.0013
  684TIP3   OH2 2015   6.393   3.496   0.172  0.0586  0.1152 -0.4545
  684TIP3    H1 2016   6.333   3.439   0.220 -0.3043 -0.1236 -1.1859
  684TIP3    H2 2017   6.384   3.581   0.215 -0.9667  0.1343 -0.6809
  685TIP3   OH2 2018   5.688   4.986   0.531  0.6569  0.1599 -0.3622
  685TIP3    H1 2019   5.642   4.981   0.447  2.1609 -1.1219 -1.1709
  685TIP3    H2 2020   5.645   5.056   0.578  0.5188  1.7408 -2.6820
  686TIP3   OH2 2021   3.224   0.820   3.155 -0.3319  0.7699  0.3047
  686TIP3    H1 2022   3.241   0.751   3.091 -2.6259 -0.6471  1.0927
  686TIP3    H2 2023   3.261   0.788   3.237 -0.2676  1.0937  0.4068
  687TIP3   OH2 2024   6.605   6.329   2.639  0.2484 -0.2607 -0.2561
  687TIP3    H1 2025   6.522   6.372   2.661  0.0430 -0.5475 -0.4604
  687TIP3    H2 2026   6.667   6.361   2.704 -0.5534 -1.8107  1.3474
  688TIP3   OH2 2027   5.016   3.074   3.708  0.4834 -0.1267  0.0614
  688TIP3    H1 2028   5.090   3.123   3.671 -1.1586  0.9545 -2.0152
  688TIP3    H2 2029   4.961   3.142   3.748 -0.6870 -0.5452 -0.7958
  689TIP3   OH2 2030   3.013   0.411   0.329  0.1562  0.5424  0.1187
  689TIP3    H1 2031   3.049   0.323   0.346  0.2170  0.5950  0.2693
  689TIP3    H2 2032   3.002   0.449   0.417 -0.7436  0.3415  0.1023
  690TIP3   OH2 2033   4.167   2.792   0.780  0.0043  0.1988 -0.7107
  690TIP3    H1 2034   4.155   2.849   0.704 -1.3603 -0.0827 -0.7312
  690TIP3    H2 2035   4.159   2.703   0.746 -0.0695  0.0544 -0.3246
  691TIP3   OH2 2036   3.947   1.181   1.020  0.0838 -0.7892 -0.3983
  691TIP3    H1 2037   4.011   1.201   1.089  0.0449 -0.6842 -0.3926
  691TIP3    H2 2038   3.958   1.250   0.956 -0.2127 -0.6144 -0.2649
  692TIP3   OH2 2039   5.281   0.120   0.195  0.6921 -0.0750 -0.1109
  692TIP3    H1 2040   5.284   0.025   0.212  0.8853  0.2526  1.8977
  692TIP3    H2 2041   5.193   0.146   0.220  0.4234  0.2024 -1.2753
  693TIP3   OH2 2042   0.360   4.352   1.371 -0.1624 -0.4356  0.2077
  693TIP3    H1 2043   0.272   4.314   1.363  0.5395 -2.0416 -0.2889
  693TIP3    H2 2044   0.380   4.346   1.465  0.1523 -1.8613  0.0693
  694TIP3   OH2 2045   2.682   6.468   1.911 -0.1127  0.0348  0.3195
  694TIP3    H1 2046   2.630   6.547   1.927 -0.1892  0.3878 -1.4151
  694TIP3    H2 2047   2.772   6.493   1.933 -0.4050 -0.0509  1.7046
  695TIP3   OH2 2048   1.919   6.709   2.160 -0.3777  0.1024  0.1335
  695TIP3    H1 2049   1.828   6.715   2.189 -0.1076  3.6004  0.7371
  695TIP3    H2 2050   1.920   6.757   2.077  0.9976  0.7118  0.4745
  696TIP3   OH2 2051   0.893   6.109   1.023  0.4642 -0.3496 -1.0623
  696TIP3    H1 2052   0.886   6.015   1.011  0.0551 -0.3420 -0.9058
  696TIP3    H2 2053   0.867   6.147   0.939 -1.9501 -0.3101 -0.3709
  697TIP3   OH2 2054   3.453   6.097   0.790 -0.1907 -0.1953  0.3471
  697TIP3    H1 2055   3.443   6.147   0.709 -0.7036  0.1834  0.6436
  697TIP3    H2 2056   3.374   6.114   0.840 -0.2540 -1.0980  0.5742
  698TIP3   OH2 2057   3.751   3.530   1.350 -0.5025 -0.0236  0.2202
  698TIP3    H1 2058   3.731   3.560   1.438 -0.4278  0.9027 -0.0682
  698TIP3    H2 2059   3.840   3.562   1.333 -0.7696  0.4034 -0.4326
  699TIP3   OH2 2060   4.777   5.783   5.321  0.1698  0.2217 -0.6099
  699TIP3    H1 2061   4.762   5.845   5.392 -0.4418 -0.1092 -0.4446
  699TIP3    H2 2062   4.720   5.709   5.341  0.6803 -0.2701 -0.9606
  700TIP3   OH2 2063   3.081   3.441   4.993  0.0309  0.1855 -0.6489
  700TIP3    H1 2064   3.055   3.405   5.078 -0.1942  0.9471 -0.3804
  700TIP3    H2 2065   3.003   3.487   4.962  0.1117 -0.0934 -1.2752
  701TIP3   OH2 2066   3.389   4.825   5.347  0.2442  0.3105 -0.4120
  701TIP3    H1 2067   3.365   4.750   5.293 -1.3827  0.5807 -0.1249
  701TIP3    H2 2068   3.308   4.849   5.393  0.8335  1.9285 -0.1283
  702TIP3   OH2 2069   1.869   1.557   2.051 -0.5023 -0.4430  0.1697
  702TIP3    H1 2070   1.843   1.521   1.966 -1.8520 -1.2425  0.8942
  702TIP3    H2 2071   1.818   1.508   2.115 -1.0123  1.4691  1.3218
  703TIP3   OH2 2072   0.482   6.541   1.472 -0.0498 -0.7539 -0.0826
  703TIP3    H1 2073   0.535   6.620   1.464 -0.5625 -0.3756  0.2603
  703TIP3    H2 2074   0.542   6.477   1.512  0.0534 -0.2209  0.6459
  704TIP3   OH2 2075   5.486   5.430   0.200 -0.7667  0.3529  0.1488
  704TIP3    H1 2076   5.393   5.418   0.221 -1.5652 -2.4735 -3.8518
  704TIP3    H2 2077   5.531   5.366   0.256 -1.7404 -0.8798 -0.4135
  705TIP3   OH2 2078   5.032   1.513   0.001  0.0313  0.4121  0.3836
  705TIP3    H1 2079   4.992   1.470   0.076 -0.1374 -1.1786 -0.5672
  705TIP3    H2 2080   5.006   1.459  -0.074 -0.1730  2.1883 -0.8829
  706TIP3   OH2 2081   6.522   1.212   2.866 -0.0139  0.0681 -0.2285
  706TIP3    H1 2082   6.431   1.201   2.894 -0.2426 -0.3058 -1.0673
  706TIP3    H2 2083   6.557   1.123   2.863 -0.5848 -0.1528 -2.9270
  707TIP3   OH2 2084   5.371   6.110   3.347  0.3423  0.2781 -0.3424
  707TIP3    H1 2085   5.326   6.067   3.420  1.4863  0.1425  0.3092
  707TIP3    H2 2086   5.315   6.185   3.326  0.8209  1.3498  1.8496
  708TIP3   OH2 2087   3.628   3.013   2.942  0.2334 -0.3755 -0.0956
  708TIP3    H1 2088   3.577   2.945   2.986 -0.6811 -0.8134 -1.7263
  708TIP3    H2 2089   3.564   3.082   2.924  0.4507 -0.4402 -1.1809
  709TIP3   OH2 2090   4.635   6.661   0.034 -0.8215  0.3114 -0.3503
  709TIP3    H1 2091   4.674   6.687   0.118  2.0132 -1.0274 -1.1153
  709TIP3    H2 2092   4.627   6.743  -0.015  0.6250  0.7261  0.0601
  710TIP3   OH2 2093   0.903   5.535   0.372  0.0034  0.3510  0.2784
  710TIP3    H1 2094   0.917   5.545   0.466 -1.9880  2.3548  0.4503
  710TIP3    H2 2095   0.830   5.473   0.366 -0.6450  1.1210  0.1279
  711TIP3   OH2 2096   1.266   0.764   4.613 -0.4868  0.2625 -0.2025
  711TIP3    H1 2097   1.354   0.769   4.649 -0.0752 -0.8705 -0.9784
  711TIP3    H2 2098   1.218   0.707   4.674  0.5371 -2.6559 -1.9067
  712TIP3   OH2 2099   0.607   5.817   0.341 -0.6549  0.0058 -0.1958
  712TIP3    H1 2100   0.661   5.781   0.271 -0.5162 -1.9460  0.8591
  712TIP3    H2 2101   0.645   5.903   0.358  1.0028 -0.5860 -0.6820
  713TIP3   OH2 2102   5.164   2.989   1.503 -0.1374 -0.7834 -0.0839
  713TIP3    H1 2103   5.146   3.076   1.540 -1.3226 -0.8689 -0.4012
  713TIP3    H2 2104   5.220   2.947   1.567  0.3771  0.1771  0.1239
  714TIP3   OH2 2105   0.950   1.318   0.597  0.2666  0.0071 -0.0711
  714TIP3    H1 2106   1.003   1.380   0.647  0.0754  0.4083 -0.3670
  714TIP3    H2 2107   0.922   1.253   0.662 -0.6094  0.9405  0.5012
  715TIP3   OH2 2108   5.092   0.875   3.136 -0.1925 -0.4205 -0.0942
  715TIP3    H1 2109   5.100   0.798   3.191  0.1274  0.5038  1.2005
  715TIP3    H2 2110   5.005   0.910   3.157 -0.2069 -0.2551 -0.4301
  716TIP3   OH2 2111   6.045   6.244   4.943  0.0060  0.6340  0.5107
  716TIP3    H1 2112   6.135   6.230   4.973  0.2804 -0.2118 -0.6444
  716TIP3    H2 2113   6.009   6.308   5.004  1.2072  0.5494  1.3365
  717TIP3   OH2 2114   5.810   0.153   1.227  0.3723  0.5861  0.7872
  717TIP3    H1 2115   5.866   0.082   1.260  1.5351  1.4031  0.6378
  717TIP3    H2 2116   5.790   0.128   1.137 -0.5640 -0.3223  1.2240
  718TIP3   OH2 2117   5.606   1.456   1.406  0.3907 -0.0909 -0.4083
  718TIP3    H1 2118   5.546   1.383   1.393 -2.3905  2.0266 -0.6006
  718TIP3    H2 2119   5.642   1.474   1.319  0.5730 -0.7691 -0.4806
  719TIP3   OH2 2120   6.921   4.830   0.202 -0.1836 -0.1293 -0.4985
  719TIP3    H1 2121   6.975   4.908   0.189 -0.8715  0.5267  0.3971
  719TIP3    H2 2122   6.968   4.760   0.157  0.7223  0.6939 -0.8658
  720TIP3   OH2 2123   2.815   4.034   0.520 -0.3022  0.4234  0.1940
  720TIP3    H1 2124   2.906   4.004   0.523 -0.6159 -0.6597 -0.4987
  720TIP3    H2 2125   2.767   3.961   0.482 -1.5048  0.9071  0.7427
  721TIP3   OH2 2126   2.647   1.959   3.373 -0.1750 -0.1736 -0.7424
  721TIP3    H1 2127   2.696   1.988   3.296 -0.5316 -0.7214 -1.1874
  721TIP3    H2 2128   2.560   1.996   3.361  0.0967  0.7579  0.0236
  722TIP3   OH2 2129   3.748   3.372   4.951  0.0276 -0.1886  0.4672
  722TIP3    H1 2130   3.655   3.393   4.949 -0.4215 -1.1937  4.2042
  722TIP3    H2 2131   3.773   3.368   4.859 -3.6440 -0.1376 -0.6961
  723TIP3   OH2 2132   4.271   0.902   2.609 -0.6162  0.2780  0.0284
  723TIP3    H1 2133   4.182   0.888   2.640 -1.1537 -1.2296 -2.0063
  723TIP3    H2 2134   4.261   0.947   2.526  0.6013  1.0841  0.2900
  724TIP3   OH2 2135   2.073   6.505   1.748  0.2055 -0.5290 -0.2341
  724TIP3    H1 2136   2.142   6.541   1.693 -0.8353  0.4939 -0.9261
  724TIP3    H2 2137   2.072   6.412   1.728 -0.2369 -0.1634 -2.0851
  725TIP3   OH2 2138   2.401   6.522   2.891  0.3438 -0.1343  0.3782
  725TIP3    H1 2139   2.404   6.554   2.981  0.1426  1.2148 -0.0637
  725TIP3    H2 2140   2.427   6.598   2.838 -2.3624  0.0201 -0.9093
  726TIP3   OH2 2141   5.739   6.062   3.653  0.3791 -0.5055 -0.7978
  726TIP3    H1 2142   5.643   6.062   3.657  0.3748 -0.9673 -0.8891
  726TIP3    H2 2143   5.759   6.049   3.560  0.5189  2.7351 -1.3303
  727TIP3   OH2 2144   4.825   5.887   3.208  0.2295  0.4930  0.1584
  727TIP3    H1 2145   4.789   5.969   3.241 -0.0416  0.4943 -0.1374
  727TIP3    H2 2146   4.750   5.829   3.201  0.4558  0.1424  0.5925
  728TIP3   OH2 2147   0.775   5.291   3.360 -0.6931 -0.3679 -0.2439
  728TIP3    H1 2148   0.766   5.307   3.454  1.6159  1.1409 -0.1998
  728TIP3    H2 2149   0.757   5.198   3.350  0.2518 -0.8409  1.8992
  729TIP3   OH2 2150   6.882   4.488   5.776 -0.0478  0.1152 -0.7406
  729TIP3    H1 2151   6.897   4.491   5.682 -2.2751  1.8922 -1.1303
  729TIP3    H2 2152   6.940   4.556   5.812 -1.0952  1.2868 -1.1981
  730TIP3   OH2 2153   0.171   0.818   1.427 -0.3693  0.4545 -0.2343
  730TIP3    H1 2154   0.163   0.794   1.335  0.2975  1.8059 -0.6799
  730TIP3    H2 2155   0.176   0.914   1.426  4.4070  0.4669  0.7153
  731TIP3   OH2 2156   0.283   2.217   4.273 -0.2550  0.2224 -0.3275
  731TIP3    H1 2157   0.334   2.177   4.202 -2.0523 -0.4902 -1.2941
  731TIP3    H2 2158   0.334   2.293   4.299  0.7027  0.2333 -2.0715
  732TIP3   OH2 2159   2.866   2.810   5.804  0.1960 -0.0038  0.0949
  732TIP3    H1 2160   2.804   2.842   5.870 -2.1894 -1.4217 -1.2994
  732TIP3    H2 2161   2.927   2.755   5.853  1.1312  2.2718  1.6703
  733TIP3   OH2 2162   3.944   5.768   5.333  0.1352  0.2299 -0.3600
  733TIP3    H1 2163   3.880   5.802   5.270 -1.7705  0.0989  1.3982
  733TIP3    H2 2164   4.026   5.812   5.310 -1.3369  3.0551 -0.6238
  734TIP3   OH2 2165   0.382   5.904   3.791 -0.4200 -0.0309  0.0497
  734TIP3    H1 2166   0.335   5.906   3.707  1.6253  0.0218 -1.1624
  734TIP3    H2 2167   0.410   5.995   3.804 -0.5854 -0.0729  0.7191
  735TIP3   OH2 2168   2.919   2.868   0.818  0.3240  0.1854  0.5222
  735TIP3    H1 2169   2.886   2.927   0.749 -0.4579 -0.0593  0.6722
  735TIP3    H2 2170   2.948   2.790   0.771  0.6711  0.3929  0.3888
  736TIP3   OH2 2171   2.160   2.347   5.080 -0.1818 -0.3739  0.3466
  736TIP3    H1 2172   2.174   2.322   5.171 -0.7849 -0.3330  0.4551
  736TIP3    H2 2173   2.101   2.423   5.084  0.3427  0.0690 -0.0474
  737TIP3   OH2 2174   2.458   6.344   3.258 -0.1939  0.0124  0.2823
  737TIP3    H1 2175   2.478   6.434   3.233  1.7496 -0.6825 -0.8489
  737TIP3    H2 2176   2.415   6.307   3.180 -3.9712  0.7504  1.7985
  738TIP3   OH2 2177   6.127   4.524   2.327 -0.0975 -0.6956 -0.4885
  738TIP3    H1 2178   6.088   4.466   2.393 -0.1886 -1.7728 -1.4320
  738TIP3    H2 2179   6.109   4.612   2.358 -0.5867 -1.1767  0.6547
  739TIP3   OH2 2180   3.185   4.878   3.933  0.4640  0.0306 -0.0983
  739TIP3    H1 2181   3.181   4.948   3.869  0.0876  0.7852  0.7353
  739TIP3    H2 2182   3.223   4.804   3.885  0.3734  0.6340 -1.1250
  740TIP3   OH2 2183   6.952   3.912   5.089  0.2397  0.1692  0.1208
  740TIP3    H1 2184   6.993   3.995   5.113 -0.9206  0.7317  0.2256
  740TIP3    H2 2185   6.940   3.866   5.172 -0.3843  0.5088  0.2247
  741TIP3   OH2 2186   0.575   0.440   5.060  0.5671 -0.1264  0.1163
  741TIP3    H1 2187   0.664   0.475   5.067  0.0644  0.9015  2.6023
  741TIP3    H2 2188   0.555   0.408   5.148 -1.4429 -0.5550 -0.4453
  742TIP3   OH2 2189   0.228   3.143   2.680 -0.3542  0.3951  0.2686
  742TIP3    H1 2190   0.239   3.100   2.765 -0.3732  0.8709  0.5186
  742TIP3    H2 2191   0.141   3.183   2.686 -0.1924  0.7597  0.1756
  743TIP3   OH2 2192   2.074   0.326   4.505  0.1825  0.5299  0.2561
  743TIP3    H1 2193   2.062   0.311   4.411  2.7830  0.3195 -0.1128
  743TIP3    H2 2194   1.989   0.303   4.544 -1.2941  1.6010 -2.0977
  744TIP3   OH2 2195   4.935   4.364   5.487 -0.2818  0.0444 -0.2321
  744TIP3    H1 2196   5.023   4.328   5.490 -0.1166  0.3665 -1.1423
  744TIP3    H2 2197   4.945   4.450   5.446 -0.9924  0.1508 -0.1941
  745TIP3   OH2 2198   6.561   4.704   4.320  0.1534 -0.1954  0.0292
  745TIP3    H1 2199   6.477   4.659   4.321  0.2822 -0.4676 -0.9555
  745TIP3    H2 2200   6.619   4.650   4.374  0.3966 -1.4057 -1.4003
  746TIP3   OH2 2201   4.460   3.329   0.531  0.0342  0.4080 -0.0723
  746TIP3    H1 2202   4.393   3.336   0.463  1.3898  1.0729 -1.3948
  746TIP3    H2 2203   4.426   3.380   0.604 -0.5937  1.3140 -0.9824
  747TIP3   OH2 2204   6.073   4.332   1.819 -0.1116  0.0580  0.1018
  747TIP3    H1 2205   6.072   4.244   1.856 -0.2472 -0.6472 -1.4812
  747TIP3    H2 2206   6.164   4.359   1.823  0.4045 -1.2243 -1.6974
  748TIP3   OH2 2207   2.744   2.060   5.618 -0.0286 -0.3003 -0.6847
  748TIP3    H1 2208   2.703   2.068   5.532 -2.7838  1.1373  0.6189
  748TIP3    H2 2209   2.753   1.966   5.632 -1.1391 -0.6052 -1.8409
  749TIP3   OH2 2210   5.867   3.911   0.962  0.0742 -0.2344 -0.4860
  749TIP3    H1 2211   5.951   3.950   0.939  0.4793 -1.0089 -0.3357
  749TIP3    H2 2212   5.834   3.875   0.880  0.6297 -1.3131 -0.2499
  750TIP3   OH2 2213   1.781   1.176   3.641 -0.2660 -0.0186 -0.2253
  750TIP3    H1 2214   1.816   1.138   3.722 -0.5377 -0.6886 -0.4172
  750TIP3    H2 2215   1.695   1.210   3.667 -0.0642  0.3810 -0.0756
  751TIP3   OH2 2216   0.805   3.823   4.628  0.1941  0.3294 -0.2060
  751TIP3    H1 2217   0.724   3.864   4.597 -0.0804  0.8452  1.0998
  751TIP3    H2 2218   0.859   3.812   4.550 -0.3722  1.7440 -0.8233
  752TIP3   OH2 2219   5.636   2.612   0.593  0.4711  0.2167 -0.0761
  752TIP3    H1 2220   5.670   2.696   0.563  2.7206 -0.4361  0.4992
  752TIP3    H2 2221   5.706   2.549   0.575 -0.1512 -1.0920  1.7685
  753TIP3   OH2 2222   0.984   3.768   5.869  0.1666 -0.3827 -0.1713
  753TIP3    H1 2223   0.898   3.739   5.836 -0.7172  2.6844 -0.9249
  753TIP3    H2 2224   1.046   3.739   5.802 -0.7135 -0.1331 -1.1255
  754TIP3   OH2 2225   2.588   1.913   0.516 -0.2306 -0.4294  0.2820
  754TIP3    H1 2226   2.554   1.886   0.431 -2.0076  0.3258  0.7152
  754TIP3    H2 2227   2.675   1.948   0.496 -0.8062  0.2052 -1.3163
  755TIP3   OH2 2228   4.112   5.616   2.762 -0.5315 -0.6180  0.1745
  755TIP3    H1 2229   4.072   5.690   2.808 -0.6688  0.1832 -1.1739
  755TIP3    H2 2230   4.184   5.654   2.713  0.2282 -1.6170  0.4728
  756TIP3   OH2 2231   4.151   6.515   2.415  0.1827  0.1777 -0.2933
  756TIP3    H1 2232   4.116   6.428   2.431 -1.4115  0.6723 -0.8728
  756TIP3    H2 2233   4.074   6.572   2.416  1.2519  1.6773  0.6921
  757TIP3   OH2 2234   0.220   5.835   4.009  0.1591 -0.5042 -0.1363
  757TIP3    H1 2235   0.184   5.755   3.971  0.1824  0.2035 -1.6889
  757TIP3    H2 2236   0.281   5.869   3.944  0.0563  0.8595  0.4285
  758TIP3   OH2 2237   0.704   2.019   0.679 -0.2100 -0.2083  0.2729
  758TIP3    H1 2238   0.655   2.100   0.690  0.5927  0.2039  0.9587
  758TIP3    H2 2239   0.638   1.953   0.659 -0.8535  0.6423 -0.4536
  759TIP3   OH2 2240   6.137   1.154   4.303  0.1319  0.3245 -0.1972
  759TIP3    H1 2241   6.217   1.207   4.301  0.2439  0.2138  0.7002
  759TIP3    H2 2242   6.067   1.216   4.283  0.2104  0.9523  1.2858
  760TIP3   OH2 2243   5.370   1.137   2.831  0.4160 -0.2924 -0.0328
  760TIP3    H1 2244   5.419   1.075   2.885  0.4015 -0.0684  0.2408
  760TIP3    H2 2245   5.348   1.209   2.890 -0.3826 -0.4603 -0.1156
  761TIP3   OH2 2246   5.822   2.908   0.824  0.0820  0.0409  0.3375
  761TIP3    H1 2247   5.781   2.884   0.741 -0.9427  1.9629  0.2319
  761TIP3    H2 2248   5.916   2.899   0.807 -0.1350 -0.2655 -0.8230
  762TIP3   OH2 2249   2.211   5.068   3.506 -0.3380 -0.0267 -0.1582
  762TIP3    H1 2250   2.300   5.082   3.540  0.1985  0.4775 -1.6816
  762TIP3    H2 2251   2.155   5.120   3.563  0.7107  2.0715 -0.9120
  763TIP3   OH2 2252   6.683   4.589   4.529  0.4969  0.2299  0.0962
  763TIP3    H1 2253   6.773   4.610   4.555  0.2573 -1.0004  2.1639
  763TIP3    H2 2254   6.689   4.498   4.498 -0.1403 -0.1723  1.0940
  764TIP3   OH2 2255   6.736   3.538   3.229 -0.1300  0.0940  0.0572
  764TIP3    H1 2256   6.804   3.595   3.263 -0.8661  0.1639  1.4719
  764TIP3    H2 2257   6.657   3.561   3.278 -0.3400 -2.4808  1.1045
  765TIP3   OH2 2258   1.697   4.045   4.588 -0.1117  0.2832 -0.3164
  765TIP3    H1 2259   1.672   4.003   4.506 -0.0425 -0.0090 -0.1868
  765TIP3    H2 2260   1.788   4.071   4.575 -0.2998  0.8512 -0.5821
  766TIP3   OH2 2261   4.536   3.420   2.527 -0.0432  0.2208 -0.2481
  766TIP3    H1 2262   4.604   3.405   2.593 -0.5788 -0.7138  0.1198
  766TIP3    H2 2263   4.582   3.460   2.454  0.9203 -0.4283 -0.0237
  767TIP3   OH2 2264   2.530   5.792   5.474  0.3385  0.7621 -0.0134
  767TIP3    H1 2265   2.533   5.810   5.380 -1.4479  2.2015  0.1397
  767TIP3    H2 2266   2.582   5.713   5.485  2.0746  1.5203 -1.9549
  768TIP3   OH2 2267   6.080   0.725   4.067 -0.5107 -0.7051  0.0688
  768TIP3    H1 2268   6.029   0.682   4.137 -0.5116 -1.4551 -0.3801
  768TIP3    H2 2269   6.140   0.783   4.114 -0.9874 -0.6776  0.6610
  769TIP3   OH2 2270   7.027   3.060   1.294 -0.6092  0.3522  0.3030
  769TIP3    H1 2271   7.109   3.079   1.341 -0.6620  0.9080  0.1750
  769TIP3    H2 2272   7.055   3.008   1.218 -0.4402  0.0525  0.5712
  770TIP3   OH2 2273   4.255   2.431   0.446 -0.1745 -0.2811 -0.4643
  770TIP3    H1 2274   4.165   2.456   0.426 -0.4841  0.9136  2.0863
  770TIP3    H2 2275   4.301   2.438   0.362 -2.4185 -0.9614 -1.8299
  771TIP3   OH2 2276   5.467   6.313   4.164 -0.3461  0.1321 -0.3152
  771TIP3    H1 2277   5.520   6.393   4.165  0.3077 -0.2137 -2.1242
  771TIP3    H2 2278   5.529   6.243   4.186 -0.5119 -0.0623 -0.4621
  772TIP3   OH2 2279   1.523   1.636   1.988  0.1234 -0.0299  0.3676
  772TIP3    H1 2280   1.530   1.706   2.054 -0.1434  0.2080  0.1440
  772TIP3    H2 2281   1.450   1.663   1.932 -0.1737 -0.6366  0.4562
  773TIP3   OH2 2282   3.203   1.381   0.931 -0.0392  0.0556  0.5440
  773TIP3    H1 2283   3.132   1.404   0.991 -0.0186 -0.5501  0.8101
  773TIP3    H2 2284   3.245   1.464   0.910 -0.8000  0.4225  0.4155
  774TIP3   OH2 2285   2.612   6.458   0.246 -0.9527  0.6546 -0.0627
  774TIP3    H1 2286   2.536   6.418   0.205 -0.0258 -1.9559  0.5595
  774TIP3    H2 2287   2.679   6.389   0.245  0.6020  2.0293  1.6116
  775TIP3   OH2 2288   5.734   2.527   1.432  0.0578  0.4712  0.5481
  775TIP3    H1 2289   5.776   2.441   1.423  1.5141  1.1697  0.3502
  775TIP3    H2 2290   5.697   2.526   1.520  0.5588 -0.1641  0.7650
  776TIP3   OH2 2291   0.410   5.969   5.236  0.2545  0.0848 -0.4975
  776TIP3    H1 2292   0.490   6.019   5.253  1.0418 -1.4230  0.4850
  776TIP3    H2 2293   0.370   6.013   5.161  2.2336  0.6468 -1.2972
  777TIP3   OH2 2294   4.949   0.646   4.004  0.3911 -0.7294 -0.1882
  777TIP3    H1 2295   5.025   0.588   4.005  0.4461 -0.6929 -1.1852
  777TIP3    H2 2296   4.986   0.734   3.998  0.3740 -0.3878  3.0699
  778TIP3   OH2 2297   4.392  -0.003   1.898 -0.0766 -0.8932 -0.4916
  778TIP3    H1 2298   4.336  -0.013   1.820  0.7776 -0.0768 -1.2246
  778TIP3    H2 2299   4.350   0.066   1.948 -0.7840 -1.6098 -0.0685
  779TIP3   OH2 2300   0.790   6.823   5.760  0.1317  0.3738 -0.0846
  779TIP3    H1 2301   0.696   6.840   5.760 -0.1146 -0.7163  1.5370
  779TIP3    H2 2302   0.801   6.748   5.820  1.8726 -0.4355 -1.3250
  780TIP3   OH2 2303   6.742   5.390   1.159 -0.2792 -0.2753  0.5814
  780TIP3    H1 2304   6.812   5.379   1.095  1.2399  1.1904  1.9166
  780TIP3    H2 2305   6.663   5.401   1.106  1.0017  1.4701 -1.0726
  781TIP3   OH2 2306   2.062   0.371   1.984 -0.1110  0.0307 -0.2043
  781TIP3    H1 2307   1.999   0.303   1.961 -1.4957  1.4479 -0.7232
  781TIP3    H2 2308   2.110   0.387   1.903  0.8763 -0.9540  0.1571
  782TIP3   OH2 2309   5.199   5.024   2.318  0.5099 -0.3148  0.3958
  782TIP3    H1 2310   5.177   4.943   2.271 -0.5160  0.0717  0.1761
  782TIP3    H2 2311   5.230   4.994   2.403 -1.4946 -0.9159  0.9683
  783TIP3   OH2 2312   2.073   5.754   3.186  0.1001  0.1468  0.7292
  783TIP3    H1 2313   2.166   5.776   3.175  0.1344 -0.6766 -0.8845
  783TIP3    H2 2314   2.027   5.820   3.134 -0.2566  0.6564  1.6615
  784TIP3   OH2 2315   2.883   4.466   0.665  0.0286  0.3919  0.1318
  784TIP3    H1 2316   2.855   4.375   0.672  0.5864  0.2377  0.5104
  784TIP3    H2 2317   2.811   4.511   0.621 -0.5611 -0.0883  0.5950
  785TIP3   OH2 2318   0.625   6.243   2.901 -0.0305  0.4403 -0.2567
  785TIP3    H1 2319   0.663   6.331   2.898 -1.0665  0.8861 -0.4590
  785TIP3    H2 2320   0.536   6.256   2.932  0.0873 -0.6423  0.6032
  786TIP3   OH2 2321   2.299   6.095   1.332 -0.5813  0.7646  0.4515
  786TIP3    H1 2322   2.282   6.061   1.244 -0.3591  1.4544  0.1387
  786TIP3    H2 2323   2.306   6.016   1.387  0.5025  0.2725 -0.3646
  787TIP3   OH2 2324   3.761   5.861   0.331 -0.2889 -0.2569 -0.1568
  787TIP3    H1 2325   3.839   5.882   0.384 -0.4105  0.9826 -0.4282
  787TIP3    H2 2326   3.690   5.907   0.375 -1.2156 -2.6329  0.9941
  788TIP3   OH2 2327   3.884   3.197   3.705 -0.2631  0.2417  0.0758
  788TIP3    H1 2328   3.894   3.292   3.717 -1.0040  0.3550 -0.1307
  788TIP3    H2 2329   3.953   3.159   3.759  1.3200  0.9404 -1.3712
  789TIP3   OH2 2330   4.146   6.139   0.074  0.5433  0.2559 -0.1191
  789TIP3    H1 2331   4.103   6.222   0.056  2.0630  1.0170 -0.4636
  789TIP3    H2 2332   4.096   6.100   0.145 -1.8261  0.1569 -1.7370
  790TIP3   OH2 2333   2.166   4.001   3.180  0.1551  0.5625 -0.4842
  790TIP3    H1 2334   2.220   3.956   3.115  0.1721  0.1410 -0.1824
  790TIP3    H2 2335   2.229   4.048   3.235  0.1381  0.9498 -0.7908
  791TIP3   OH2 2336   3.654   3.678   1.558  0.0980  0.3009 -0.4917
  791TIP3    H1 2337   3.587   3.727   1.606 -0.4400 -0.3381 -0.5761
  791TIP3    H2 2338   3.722   3.661   1.623 -1.6002 -2.4648  0.7151
  792TIP3   OH2 2339   3.810   5.856   3.752  1.2129  0.0914  0.4119
  792TIP3    H1 2340   3.719   5.824   3.754  0.9293  0.7853 -0.6319
  792TIP3    H2 2341   3.838   5.841   3.662  1.5428  1.4801  0.2692
  793TIP3   OH2 2342   6.094   1.587   4.028 -0.2098  0.3432  0.4295
  793TIP3    H1 2343   6.035   1.654   4.062 -1.7053 -0.6433 -0.1382
  793TIP3    H2 2344   6.044   1.505   4.034  0.8651 -0.4253 -0.6376
  794TIP3   OH2 2345   4.220   5.697   3.552 -0.2426 -0.4379 -0.1910
  794TIP3    H1 2346   4.180   5.745   3.480 -1.0064  1.1805  1.2227
  794TIP3    H2 2347   4.294   5.751   3.579  0.1468 -1.1069  0.1241
  795TIP3   OH2 2348   1.169   3.815   2.077  0.0708 -0.5394 -0.2667
  795TIP3    H1 2349   1.160   3.810   1.982 -0.6086  0.7265 -0.2897
  795TIP3    H2 2350   1.259   3.844   2.092  0.5088 -1.7232 -0.4635
  796TIP3   OH2 2351   4.944   1.347   5.400  0.0146 -0.1828  0.2463
  796TIP3    H1 2352   4.932   1.412   5.330 -3.0381 -2.6992 -1.8206
  796TIP3    H2 2353   5.033   1.313   5.385 -0.0549  0.3137 -1.5775
  797TIP3   OH2 2354   5.320   2.126   1.704 -0.0006  0.2317 -0.3037
  797TIP3    H1 2355   5.284   2.211   1.680 -0.9418 -0.2855 -0.7730
  797TIP3    H2 2356   5.388   2.146   1.769 -0.8158  1.2741  0.2559
  798TIP3   OH2 2357   2.218   0.397   1.277 -0.0475 -0.0591  0.1884
  798TIP3    H1 2358   2.158   0.330   1.243  0.5341  0.3784 -1.8795
  798TIP3    H2 2359   2.299   0.350   1.295  0.0006 -0.1212 -0.1704
  799TIP3   OH2 2360   1.865   4.643   5.604  1.0119 -0.4848  0.1156
  799TIP3    H1 2361   1.864   4.558   5.649 -0.5416  0.3346  1.7553
  799TIP3    H2 2362   1.780   4.682   5.625  2.1579  1.9997  0.4774
  800TIP3   OH2 2363   5.894   5.116   3.955  0.6829 -0.4404  0.1434
  800TIP3    H1 2364   5.823   5.085   4.012  1.1773 -1.1854  0.3725
  800TIP3    H2 2365   5.861   5.198   3.919 -0.2163 -0.6739  0.3960
  801TIP3   OH2 2366   6.170   1.404   4.985  0.2635 -0.6259  0.4059
  801TIP3    H1 2367   6.153   1.463   4.911 -2.4043 -0.4425  1.0840
  801TIP3    H2 2368   6.140   1.318   4.955  1.3964 -1.0589  0.4688
  802TIP3   OH2 2369   1.807   4.748   1.202 -0.0009  0.2733 -0.1295
  802TIP3    H1 2370   1.800   4.832   1.247 -2.5344  0.4390 -0.6973
  802TIP3    H2 2371   1.718   4.713   1.201  0.6936 -1.6518 -1.3636
  803TIP3   OH2 2372   5.356   2.623   1.525 -0.1630  0.7039  0.4631
  803TIP3    H1 2373   5.421   2.641   1.456 -0.8607  0.6892 -0.2150
  803TIP3    H2 2374   5.349   2.706   1.573  0.4139  0.6826  0.5932
  804TIP3   OH2 2375   3.764   3.787   2.548 -0.1676 -0.2512 -0.2230
  804TIP3    H1 2376   3.668   3.791   2.542 -0.2015 -1.5651 -1.1802
  804TIP3    H2 2377   3.790   3.746   2.465  1.1894 -0.3265  0.2287
  805TIP3   OH2 2378   1.104   0.043   4.354  0.5778  0.3906 -0.4590
  805TIP3    H1 2379   1.156   0.123   4.345  0.0810  0.7640 -0.0796
  805TIP3    H2 2380   1.100   0.027   4.448 -0.0684  0.4167 -0.4761
  806TIP3   OH2 2381   6.480   0.093   1.720  0.0074 -0.1333  0.2281
  806TIP3    H1 2382   6.450   0.182   1.699 -0.8781 -1.0554 -2.8561
  806TIP3    H2 2383   6.529   0.064   1.643  0.6708 -2.1903  1.3355
  807TIP3   OH2 2384   1.302   0.406   5.139  0.2081 -0.0747 -0.2995
  807TIP3    H1 2385   1.346   0.484   5.104  0.3991  0.5242  1.2243
  807TIP3    H2 2386   1.363   0.370   5.202 -0.9351  0.0633  0.9457
  808TIP3   OH2 2387   1.703   1.536   1.826  0.1827 -0.0841 -0.2812
  808TIP3    H1 2388   1.645   1.596   1.872  1.3820  0.2450  0.8718
  808TIP3    H2 2389   1.656   1.453   1.822 -0.1470  0.0176  1.1302
  809TIP3   OH2 2390   5.098   2.318   5.143 -0.2528  1.5244 -0.5301
  809TIP3    H1 2391   5.051   2.391   5.184  1.7038  2.1002  0.8478
  809TIP3    H2 2392   5.171   2.359   5.097  0.7673  0.4901  0.0928
  810TIP3   OH2 2393   4.286   5.226   3.919 -0.1418  0.3492  0.8258
  810TIP3    H1 2394   4.334   5.144   3.905  1.2264  1.0631  1.1563
  810TIP3    H2 2395   4.310   5.254   4.007 -1.1801  0.7371  0.9981
  811TIP3   OH2 2396   1.201   0.142   3.595  0.2342  0.1118  0.3342
  811TIP3    H1 2397   1.182   0.104   3.681  1.8196 -0.1445  0.6124
  811TIP3    H2 2398   1.250   0.222   3.614 -0.1869  0.5349 -0.3231
  812TIP3   OH2 2399   4.737   6.327   4.996  0.0839  0.3150  0.0257
  812TIP3    H1 2400   4.692   6.349   4.915 -1.0541 -0.3947  0.4430
  812TIP3    H2 2401   4.676   6.353   5.065  1.1930  1.2564  0.6800
  813TIP3   OH2 2402   3.220   5.421   1.813 -0.4123 -0.4116 -0.3782
  813TIP3    H1 2403   3.131   5.387   1.821 -0.8760  0.8666  0.3658
  813TIP3    H2 2404   3.234   5.431   1.719 -0.2983 -2.4359 -0.6136
  814TIP3   OH2 2405   0.426   0.055   1.760 -0.1026  0.1070  0.2794
  814TIP3    H1 2406   0.435  -0.034   1.725 -0.3937 -0.1541  0.8495
  814TIP3    H2 2407   0.350   0.050   1.818  0.1781  0.6082  0.6969
  815TIP3   OH2 2408   3.843   6.551   2.438  0.0770  0.1565  0.6828
  815TIP3    H1 2409   3.789   6.607   2.494  0.1499 -0.5980  1.5360
  815TIP3    H2 2410   3.781   6.487   2.402 -0.3796  1.8574 -1.8266
  816TIP3   OH2 2411   6.957   5.257   5.206 -0.1223 -0.5443  0.2072
  816TIP3    H1 2412   6.893   5.213   5.150  1.1815 -0.8086 -1.1374
  816TIP3    H2 2413   7.025   5.288   5.146  1.2234 -0.6391  1.6063
  817TIP3   OH2 2414   4.619   2.518   5.489 -0.0798  0.1652 -0.0499
  817TIP3    H1 2415   4.629   2.431   5.450 -0.4707  0.4531 -0.7984
  817TIP3    H2 2416   4.525   2.532   5.494 -0.0151  0.8199 -0.5523
  818TIP3   OH2 2417   0.515   6.017   0.964 -0.2304 -0.1212  0.0045
  818TIP3    H1 2418   0.462   6.053   0.893 -0.4867  0.0307  0.2697
  818TIP3    H2 2419   0.480   6.058   1.043  0.3263  0.0404  0.1774
  819TIP3   OH2 2420   6.333   1.230   3.275  0.5175  0.4765  0.0573
  819TIP3    H1 2421   6.345   1.291   3.348  2.4696 -1.0092  1.0763
  819TIP3    H2 2422   6.273   1.164   3.309  0.7638  0.2332  0.0215
  820TIP3   OH2 2423   4.166   6.036   4.186  0.3676 -0.2645  0.3168
  820TIP3    H1 2424   4.221   5.962   4.163  0.7782  0.2288 -0.3232
  820TIP3    H2 2425   4.160   6.033   4.282  2.2946  0.2246  0.4911
  821TIP3   OH2 2426   5.375   4.064   4.668 -0.1321  0.4539  0.0015
  821TIP3    H1 2427   5.295   4.093   4.711 -0.7382 -0.8071 -0.2175
  821TIP3    H2 2428   5.348   3.991   4.613  1.1460  0.0850 -0.1866
  822TIP3   OH2 2429   6.139   6.241   0.222  0.3467  1.0724 -0.2396
  822TIP3    H1 2430   6.205   6.212   0.159 -0.7552 -0.1360 -0.8736
  822TIP3    H2 2431   6.073   6.287   0.169 -1.3393 -1.2252 -0.2682
  823TIP3   OH2 2432   0.838   4.329   2.409 -0.2309 -0.4441  0.6097
  823TIP3    H1 2433   0.851   4.285   2.493 -1.2215 -1.6975  0.1393
  823TIP3    H2 2434   0.760   4.383   2.422  0.8707  1.0713  1.1269
  824TIP3   OH2 2435   6.180   4.310   1.152  0.2665 -0.0672  0.1756
  824TIP3    H1 2436   6.273   4.312   1.173  0.6141 -0.6430 -1.1778
  824TIP3    H2 2437   6.142   4.381   1.204  1.2415 -0.5730  1.6401
  825TIP3   OH2 2438   1.399   6.367   0.720 -0.8304  0.4398 -0.4388
  825TIP3    H1 2439   1.367   6.298   0.778 -0.4683  0.5700 -0.0789
  825TIP3    H2 2440   1.328   6.432   0.718 -0.3045  1.1004  0.9772
  826TIP3   OH2 2441   5.588   6.393  -0.026  0.2428  0.1856 -0.1760
  826TIP3    H1 2442   5.668   6.446  -0.031  0.9876 -0.9596 -0.9888
  826TIP3    H2 2443   5.576   6.376   0.067 -0.1754  1.9819  0.1358
  827TIP3   OH2 2444   2.359   1.642   0.873 -0.2326 -0.4368  0.5396
  827TIP3    H1 2445   2.367   1.715   0.934  0.7885  1.4623 -1.7398
  827TIP3    H2 2446   2.449   1.611   0.861 -0.4643 -1.0050  0.2258
  828TIP3   OH2 2447   3.683   0.691   0.274  0.3415  0.9905  0.0868
  828TIP3    H1 2448   3.598   0.690   0.318 -0.4359  3.9457 -1.1413
  828TIP3    H2 2449   3.670   0.746   0.197  2.8008 -0.4134 -1.4637
  829TIP3   OH2 2450   4.845   5.461   3.090 -0.3948  0.4630  0.1066
  829TIP3    H1 2451   4.849   5.511   3.008 -0.3809  0.9236  0.3851
  829TIP3    H2 2452   4.908   5.503   3.147  1.2305 -1.2107 -0.3551
  830TIP3   OH2 2453   1.289   4.399   5.568  0.1228 -0.1597 -0.2898
  830TIP3    H1 2454   1.210   4.348   5.584 -0.3471  0.6910  0.1095
  830TIP3    H2 2455   1.270   4.486   5.603  1.0583  0.1890 -0.6161
  831TIP3   OH2 2456   0.580   3.934   4.809 -0.0804  0.1407 -0.0748
  831TIP3    H1 2457   0.489   3.942   4.837  0.1827  1.1453  0.5133
  831TIP3    H2 2458   0.610   3.852   4.848 -0.5794  0.0496  0.1257
  832TIP3   OH2 2459   1.145   4.346   1.769 -0.2888 -0.2011 -0.3383
  832TIP3    H1 2460   1.114   4.348   1.859  0.1275  0.1442 -0.2019
  832TIP3    H2 2461   1.070   4.314   1.718 -0.3994 -0.7753  0.1799
  833TIP3   OH2 2462   2.218   4.690   2.785 -0.7059  0.3477  0.0961
  833TIP3    H1 2463   2.206   4.784   2.776  0.9350  0.5464 -0.4443
  833TIP3    H2 2464   2.302   4.681   2.830  1.3802 -0.8136 -3.6253
  834TIP3   OH2 2465   0.837   5.565   3.599  0.5002 -0.3451  0.2600
  834TIP3    H1 2466   0.759   5.612   3.570  1.2659  0.4723 -0.5469
  834TIP3    H2 2467   0.849   5.591   3.691  1.7251  2.2810 -0.5482
  835TIP3   OH2 2468   0.123   4.384   5.719 -0.0284 -0.1736  0.8813
  835TIP3    H1 2469   0.054   4.420   5.663  0.3100 -1.2723 -0.2889
  835TIP3    H2 2470   0.102   4.290   5.724 -0.1825 -0.0696  2.8175
  836TIP3   OH2 2471   2.276   4.055   4.113  0.2858 -0.3605  0.3110
  836TIP3    H1 2472   2.314   3.971   4.088  1.4163  0.2181  0.0326
  836TIP3    H2 2473   2.304   4.116   4.045 -2.1762 -0.1157 -0.6172
  837TIP3   OH2 2474   5.899   5.941   4.782  0.5111 -0.2683 -0.0637
  837TIP3    H1 2475   5.861   5.960   4.696 -0.3121 -0.9691  0.1358
  837TIP3    H2 2476   5.830   5.893   4.828  1.4984 -1.2122  0.4539
  838TIP3   OH2 2477   0.904   5.830   0.997  0.3752 -0.0284  0.1814
  838TIP3    H1 2478   0.885   5.836   0.904 -0.2549 -0.6219  0.2667
  838TIP3    H2 2479   0.991   5.791   1.002  1.0058  1.2741 -0.1780
  839TIP3   OH2 2480   2.480   4.091   3.850  0.0312 -0.7875 -0.3246
  839TIP3    H1 2481   2.465   4.135   3.766  2.3973  3.6135  1.2456
  839TIP3    H2 2482   2.561   4.043   3.837  0.5526  0.1229 -0.5625
  840TIP3   OH2 2483   4.978   4.120   0.966  0.5878 -0.2968 -0.1295
  840TIP3    H1 2484   4.998   4.032   1.000  1.6724  0.4559  1.3044
  840TIP3    H2 2485   4.971   4.174   1.044 -0.3045  0.8702 -0.9865
  841TIP3   OH2 2486   6.510   4.032   1.381  0.2665  1.0072  0.0030
  841TIP3    H1 2487   6.466   4.064   1.302  0.7422  2.8067  0.4219
  841TIP3    H2 2488   6.446   4.046   1.451 -0.7681 -1.9994 -0.1755
  842TIP3   OH2 2489   1.453   3.722   0.937 -0.2643  0.2906  0.3535
  842TIP3    H1 2490   1.359   3.715   0.925 -0.3275 -0.9226  1.3373
  842TIP3    H2 2491   1.477   3.805   0.895 -1.3196 -0.7216 -2.4757
  843TIP3   OH2 2492   1.551   0.053   2.677 -0.2324 -0.3054 -0.1714
  843TIP3    H1 2493   1.596   0.127   2.636  0.2137 -1.3975 -1.7539
  843TIP3    H2 2494   1.613  -0.020   2.670 -0.5615 -0.8141  1.5745
  844TIP3   OH2 2495   6.592   4.579   3.371 -0.3852  0.4926 -0.1133
  844TIP3    H1 2496   6.509   4.615   3.401 -0.6547  2.4792 -2.9570
  844TIP3    H2 2497   6.568   4.509   3.310  0.1533 -1.4909  1.7996
  845TIP3   OH2 2498   4.055   5.033   3.290 -0.4899  0.2732 -0.3915
  845TIP3    H1 2499   4.114   5.104   3.266 -1.3922  0.7117 -1.4014
  845TIP3    H2 2500   4.061   5.028   3.386  0.3454  1.0244 -0.3921
  846TIP3   OH2 2501   6.467   2.241   2.867  0.1742 -0.2008  0.0607
  846TIP3    H1 2502   6.516   2.318   2.895 -1.2149  0.6318  0.2606
  846TIP3    H2 2503   6.534   2.183   2.830  1.4731  0.3889  1.3861
  847TIP3   OH2 2504   2.253   0.544   1.515  0.3451 -0.1420 -0.1093
  847TIP3    H1 2505   2.238   0.465   1.463 -1.6613 -1.1011  1.7480
  847TIP3    H2 2506   2.348   0.547   1.528  0.5209 -1.9889 -0.6303
  848TIP3   OH2 2507   5.141   3.217   1.015 -0.1857 -0.0121 -0.1995
  848TIP3    H1 2508   5.076   3.252   0.954 -0.9514  0.8364  1.0600
  848TIP3    H2 2509   5.155   3.127   0.986  0.3353  0.6797 -2.3086
  849TIP3   OH2 2510   5.205   5.853   4.366  0.1714  0.0143  0.7760
  849TIP3    H1 2511   5.240   5.941   4.379  0.9601 -0.3680  1.2940
  849TIP3    H2 2512   5.114   5.860   4.394 -0.5656  1.2856 -1.5924
  850TIP3   OH2 2513   1.269   0.749   2.461 -0.0050 -0.1148 -0.3580
  850TIP3    H1 2514   1.357   0.779   2.440  0.1578 -0.5918 -0.3716
  850TIP3    H2 2515   1.281   0.683   2.530 -0.4265  0.4956  0.3144
  851TIP3   OH2 2516   4.252   2.259   3.589  0.1588 -0.1216 -0.1082
  851TIP3    H1 2517   4.227   2.168   3.574 -1.3517  0.3873 -0.9238
  851TIP3    H2 2518   4.316   2.277   3.520  0.4516 -0.5656  0.0452
  852TIP3   OH2 2519   2.200   0.554   0.685 -0.0919 -0.1163  0.2523
  852TIP3    H1 2520   2.272   0.592   0.735  0.6934 -1.7522  0.4329
  852TIP3    H2 2521   2.159   0.628   0.641  1.6332  0.8757  0.2430
  853TIP3   OH2 2522   0.417   4.942   1.057 -0.0428 -0.8303 -0.0421
  853TIP3    H1 2523   0.332   4.914   1.022 -0.7660  1.6699 -0.4929
  853TIP3    H2 2524   0.396   5.017   1.113  1.9367  0.3598 -0.7994
  854TIP3   OH2 2525   4.166   2.895   2.330 -0.5723 -0.3112  0.0419
  854TIP3    H1 2526   4.106   2.967   2.312  1.0568  1.3729  0.9947
  854TIP3    H2 2527   4.117   2.835   2.386 -1.7690  0.3108 -0.3038
  855TIP3   OH2 2528   6.380   4.231   2.203 -0.1950  0.1604 -0.2782
  855TIP3    H1 2529   6.420   4.149   2.174  0.2383  0.8414 -1.7054
  855TIP3    H2 2530   6.403   4.238   2.295  1.1484 -0.5338 -0.5398
  856TIP3   OH2 2531   1.655   5.378   3.275  0.6206  0.3356  0.3053
  856TIP3    H1 2532   1.673   5.452   3.218  0.6611 -0.8282 -1.2572
  856TIP3    H2 2533   1.702   5.305   3.236 -0.1312 -0.7262  1.2912
  857TIP3   OH2 2534   1.346   5.106   5.024 -0.9030  0.2027  0.1778
  857TIP3    H1 2535   1.314   5.016   5.022 -1.2377  0.2807  1.4271
  857TIP3    H2 2536   1.406   5.112   4.950  1.2491 -1.8750  1.6111
  858TIP3   OH2 2537   3.808   3.132   0.025  0.5166  0.3054  0.4322
  858TIP3    H1 2538   3.778   3.190  -0.044  1.2298 -0.4352 -0.5354
  858TIP3    H2 2539   3.729   3.106   0.071 -0.2746 -0.9360 -1.5124
  859TIP3   OH2 2540   2.412   3.244   0.431  0.0090  0.3439  0.3210
  859TIP3    H1 2541   2.431   3.158   0.394 -2.5495 -1.2801  2.4649
  859TIP3    H2 2542   2.322   3.262   0.404 -0.6606  0.7423  2.6068
  860TIP3   OH2 2543   3.618   1.392   5.757 -0.1729  0.6365  0.3239
  860TIP3    H1 2544   3.670   1.450   5.702  0.2987  1.1718  1.3021
  860TIP3    H2 2545   3.543   1.368   5.702  0.9636  0.0284 -1.0244
  861TIP3   OH2 2546   3.425   6.346   3.040  0.7385 -0.7898  0.2421
  861TIP3    H1 2547   3.348   6.381   3.083  0.4753 -1.5622  0.4192
  861TIP3    H2 2548   3.411   6.251   3.038 -0.0627 -0.7193 -3.0071
  862TIP3   OH2 2549   1.162   4.696   1.437  0.0584 -0.6942  0.0877
  862TIP3    H1 2550   1.182   4.618   1.386 -0.6410 -1.9164  1.5912
  862TIP3    H2 2551   1.216   4.687   1.516 -1.0782 -0.4022  0.9244
  863TIP3   OH2 2552   1.061   4.957   5.506 -0.1668 -0.3193 -0.0121
  863TIP3    H1 2553   1.118   5.011   5.561  0.2486 -0.4734 -0.2832
  863TIP3    H2 2554   1.017   4.898   5.566  0.2485 -0.4558  0.1602
  864TIP3   OH2 2555   7.067   2.691   2.923  0.1584  0.2484  0.5120
  864TIP3    H1 2556   7.140   2.703   2.863  0.1207  0.2527  0.4671
  864TIP3    H2 2557   7.057   2.596   2.930 -1.2321  0.2038 -1.1949
  865TIP3   OH2 2558   2.742   5.124   0.409 -0.5105 -0.0617 -0.2344
  865TIP3    H1 2559   2.806   5.135   0.479  0.4938 -2.0619 -0.7453
  865TIP3    H2 2560   2.658   5.145   0.448 -0.0793 -1.8205  1.8231
  866TIP3   OH2 2561   3.991   2.395   3.595  0.5868 -0.6005 -0.7328
  866TIP3    H1 2562   3.996   2.489   3.577 -0.8367 -0.6216 -1.3996
  866TIP3    H2 2563   4.076   2.360   3.568  1.8805  0.7538  1.3610
  867TIP3   OH2 2564   7.118   3.294   0.366  0.1853  0.3427 -0.2025
  867TIP3    H1 2565   7.187   3.338   0.416 -0.8996  0.8183  0.9062
  867TIP3    H2 2566   7.093   3.219   0.419  0.7938 -0.6520 -1.2660
  868TIP3   OH2 2567   5.791   0.591   1.556 -0.0232 -0.2944  0.0951
  868TIP3    H1 2568   5.806   0.514   1.501  0.1508 -1.6664  1.9243
  868TIP3    H2 2569   5.741   0.557   1.631 -1.9309  1.8451 -0.1041
  869TIP3   OH2 2570   0.952   1.992   2.359  0.1635 -0.7941  0.0213
  869TIP3    H1 2571   0.928   2.084   2.361  0.0824 -0.8120 -0.0899
  869TIP3    H2 2572   0.919   1.956   2.442  0.1243 -0.7409  0.0282
  870TIP3   OH2 2573   2.454   0.194   4.200 -0.3028  0.4817  0.3321
  870TIP3    H1 2574   2.528   0.171   4.256 -0.7847 -2.0957  0.0633
  870TIP3    H2 2575   2.419   0.274   4.237  0.1068 -0.4860  3.0285
  871TIP3   OH2 2576   3.638   0.073   1.373  0.3831  0.8290  0.2754
  871TIP3    H1 2577   3.646   0.011   1.301 -1.0290  1.4270 -0.4206
  871TIP3    H2 2578   3.622   0.019   1.450  2.1445  0.1706  0.2328
  872TIP3   OH2 2579   1.222   1.454   5.860 -0.4708 -0.1363  0.1724
  872TIP3    H1 2580   1.286   1.407   5.913 -0.4113  0.9846  1.1446
  872TIP3    H2 2581   1.267   1.471   5.777  0.5704  0.7295  0.8758
  873TIP3   OH2 2582   3.955   2.522   1.463  0.1212 -0.0925  0.0637
  873TIP3    H1 2583   3.938   2.598   1.407  0.2891 -0.8417 -1.0254
  873TIP3    H2 2584   3.915   2.545   1.547 -1.0323  0.6292 -0.6591
  874TIP3   OH2 2585   4.113   4.392   0.572 -0.1403 -0.3112  0.2468
  874TIP3    H1 2586   4.062   4.448   0.629  1.1519  0.7262  0.4356
  874TIP3    H2 2587   4.136   4.317   0.627  1.1315  0.6962  1.1527
  875TIP3   OH2 2588   4.079   5.354   3.380  0.5328 -0.6235  0.1315
  875TIP3    H1 2589   4.063   5.306   3.462 -1.2113  1.7678  1.3243
  875TIP3    H2 2590   4.004   5.413   3.372  1.4066  0.2748 -2.4580
  876TIP3   OH2 2591   6.193   4.544   5.514  0.3644  0.3921  0.3940
  876TIP3    H1 2592   6.101   4.520   5.523 -0.0375  0.8810 -1.9455
  876TIP3    H2 2593   6.238   4.462   5.492  0.0775  0.5717 -0.8986
  877TIP3   OH2 2594   0.124   3.497   4.711 -0.0227  0.3819 -0.1964
  877TIP3    H1 2595   0.208   3.451   4.703 -0.2036 -0.2250  1.1737
  877TIP3    H2 2596   0.059   3.433   4.684 -0.0906  0.7304 -0.8877
  878TIP3   OH2 2597   6.664   4.596   2.038  0.3440  0.0160  0.2938
  878TIP3    H1 2598   6.627   4.614   2.125 -0.2539  0.7193 -0.0975
  878TIP3    H2 2599   6.602   4.536   1.997 -0.7924  1.7280 -0.6233
  879TIP3   OH2 2600   4.477   2.020   5.682  0.3266 -1.4176  0.3394
  879TIP3    H1 2601   4.423   2.087   5.724  1.6812  1.5623 -2.2235
  879TIP3    H2 2602   4.550   2.006   5.742  1.0048  0.9332  0.1614
  880TIP3   OH2 2603   0.714   4.097   5.801 -0.3118  0.1330 -0.1648
  880TIP3    H1 2604   0.782   4.082   5.866 -0.0088 -0.0889 -0.5304
  880TIP3    H2 2605   0.761   4.127   5.723 -0.6190 -0.0897 -0.4424
  881TIP3   OH2 2606   2.191   0.044   5.284 -0.2359 -0.2210  0.3052
  881TIP3    H1 2607   2.233   0.123   5.319  0.1782  0.3203 -1.2880
  881TIP3    H2 2608   2.258  -0.024   5.294 -0.4145 -0.2654  1.2517
  882TIP3   OH2 2609   2.553   5.576   3.814 -0.1457  0.0430  0.4570
  882TIP3    H1 2610   2.541   5.513   3.743  0.7576 -0.1689  0.4792
  882TIP3    H2 2611   2.567   5.660   3.769  0.0366 -0.0212  0.3942
  883TIP3   OH2 2612   4.950   4.867   0.490  0.5872  0.3189  0.3238
  883TIP3    H1 2613   4.989   4.841   0.574 -1.4178 -1.6444  0.7359
  883TIP3    H2 2614   4.857   4.880   0.510  0.6026  3.2353 -0.9423
  884TIP3   OH2 2615   4.932   2.735   4.070 -0.4434 -0.3228  0.6960
  884TIP3    H1 2616   4.887   2.658   4.104 -0.0575 -0.5799  0.6312
  884TIP3    H2 2617   5.006   2.699   4.020  0.9655  0.1180  2.3724
  885TIP3   OH2 2618   0.436   1.607   2.566  0.3945  0.0290 -0.2823
  885TIP3    H1 2619   0.432   1.639   2.476 -0.8269  0.2334 -0.1681
  885TIP3    H2 2620   0.436   1.686   2.620 -0.9054 -0.1062 -0.0536
  886TIP3   OH2 2621   2.513   5.483   3.245  0.1058  0.0421  0.2863
  886TIP3    H1 2622   2.608   5.469   3.247  0.4232  1.9105  0.3099
  886TIP3    H2 2623   2.476   5.399   3.271  1.7577 -0.6648  0.5072
  887TIP3   OH2 2624   5.485   2.383   1.177  0.0083  0.4317 -0.2729
  887TIP3    H1 2625   5.509   2.470   1.208  1.5346  0.4162 -1.2790
  887TIP3    H2 2626   5.513   2.382   1.085  0.1959 -1.1696 -0.2302
  888TIP3   OH2 2627   3.506   1.652   2.095  0.5184  0.4174 -0.6770
  888TIP3    H1 2628   3.495   1.732   2.146  1.8004  0.6544 -0.7595
  888TIP3    H2 2629   3.534   1.682   2.009  2.7743 -0.1669 -0.1933
  889TIP3   OH2 2630   6.459   1.063   4.339 -0.4317 -0.3144 -0.7783
  889TIP3    H1 2631   6.532   1.014   4.301 -0.3029  0.3373 -1.4145
  889TIP3    H2 2632   6.448   1.138   4.280 -0.6428  0.3990  0.1369
  890TIP3   OH2 2633   0.333   3.550   0.567 -0.0727  0.3857 -0.0241
  890TIP3    H1 2634   0.423   3.518   0.567  0.5653  1.9023  2.1819
  890TIP3    H2 2635   0.335   3.624   0.628 -2.3968  1.7108 -1.4259
  891TIP3   OH2 2636   4.544   4.665   5.125 -0.0808  0.0669 -0.1334
  891TIP3    H1 2637   4.635   4.665   5.153 -0.6934 -0.3240  2.0737
  891TIP3    H2 2638   4.514   4.575   5.140 -0.8622  0.2273 -0.6679
  892TIP3   OH2 2639   0.869   2.936   4.332  0.3130  0.0917  0.5266
  892TIP3    H1 2640   0.928   2.876   4.376 -0.4405 -0.7806  0.3856
  892TIP3    H2 2641   0.781   2.902   4.351 -0.1510  1.3253  0.6942
  893TIP3   OH2 2642   6.209   1.707   0.334  0.0567  0.1506 -0.8297
  893TIP3    H1 2643   6.165   1.768   0.274 -0.5460  0.1746 -0.3671
  893TIP3    H2 2644   6.279   1.760   0.374 -0.6328  0.6297 -0.2295
  894TIP3   OH2 2645   5.828   1.395   2.989 -0.3638 -0.5883 -0.6320
  894TIP3    H1 2646   5.781   1.460   3.040 -0.0473  1.3737 -2.6523
  894TIP3    H2 2647   5.919   1.426   2.989 -0.4388 -0.2226 -2.7026
  895TIP3   OH2 2648   0.885   5.954   0.641 -0.5164  0.1588  0.0427
  895TIP3    H1 2649   0.902   6.047   0.652  1.1808 -0.1795  0.5703
  895TIP3    H2 2650   0.800   5.940   0.682  0.4123  1.0121  2.4109
  896TIP3   OH2 2651   4.984   0.359   4.405  0.2499  0.5836 -0.7803
  896TIP3    H1 2652   4.905   0.356   4.350  1.0403  0.9714 -1.9665
  896TIP3    H2 2653   5.014   0.449   4.398 -0.1948  0.9093  1.1375
  897TIP3   OH2 2654   3.200   5.954   2.763  0.7329  0.0012  0.3847
  897TIP3    H1 2655   3.126   5.916   2.714 -1.0914  3.4039  0.1642
  897TIP3    H2 2656   3.182   5.933   2.854 -1.1038  1.4401  0.4246
  898TIP3   OH2 2657   1.986   5.640   0.770 -0.3853 -0.6872  0.1472
  898TIP3    H1 2658   2.029   5.570   0.819  0.3366 -0.0750  0.4163
  898TIP3    H2 2659   1.901   5.650   0.814  1.3381  1.8822  3.4349
  899TIP3   OH2 2660   5.119   5.339   1.838 -0.0909  0.0970  0.0777
  899TIP3    H1 2661   5.038   5.289   1.826  0.7856 -1.2421 -0.5093
  899TIP3    H2 2662   5.134   5.340   1.932  1.0886 -2.8762  0.0306
  900TIP3   OH2 2663   2.938   5.056   3.726  0.2536 -0.8465 -0.0077
  900TIP3    H1 2664   3.025   5.093   3.709 -0.0684 -0.3752 -0.6466
  900TIP3    H2 2665   2.937   5.041   3.821  1.4556 -1.9587 -0.1402
  901TIP3   OH2 2666   2.878   1.468   2.265 -0.1184  0.2954  0.0701
  901TIP3    H1 2667   2.933   1.530   2.219  0.3977 -0.6407 -0.6120
  901TIP3    H2 2668   2.813   1.521   2.310  0.7062  1.3553  0.0333
  902TIP3   OH2 2669   1.323   2.609   4.525  0.0567 -0.7071 -0.0834
  902TIP3    H1 2670   1.334   2.531   4.580  1.4599  0.1173  0.8825
  902TIP3    H2 2671   1.401   2.663   4.545  0.4813 -0.2516 -2.6866
  903TIP3   OH2 2672   4.503   4.623   2.040 -0.1715 -0.0752 -0.1046
  903TIP3    H1 2673   4.475   4.703   2.083  0.5347  1.2272 -1.8946
  903TIP3    H2 2674   4.425   4.590   1.997 -0.4606 -0.3364  0.6158
  904TIP3   OH2 2675   3.981   1.065   0.404 -0.4893 -0.4304 -0.4272
  904TIP3    H1 2676   4.001   0.983   0.449 -0.6211  0.5799  1.5889
  904TIP3    H2 2677   3.908   1.042   0.346  0.3947 -2.0358 -0.9667
  905TIP3   OH2 2678   6.619   6.485   4.553  0.0291 -0.3214 -0.1247
  905TIP3    H1 2679   6.537   6.507   4.509  0.8548 -0.2652 -1.7147
  905TIP3    H2 2680   6.643   6.565   4.600  0.2386  0.3892 -1.4054
  906TIP3   OH2 2681   1.549   5.432   5.602  0.2672  0.0272 -0.0306
  906TIP3    H1 2682   1.614   5.363   5.590  1.7756  1.3995 -0.0989
  906TIP3    H2 2683   1.470   5.399   5.558  0.1468 -2.6306  1.9437
  907TIP3   OH2 2684   4.778   3.782   5.332 -1.0341  0.2498 -0.2668
  907TIP3    H1 2685   4.828   3.701   5.345 -0.5617  0.6241  0.2934
  907TIP3    H2 2686   4.843   3.852   5.340 -1.7797  0.8098  1.4950
  908TIP3   OH2 2687   1.391   1.118   4.855  0.3161  0.1539  0.7312
  908TIP3    H1 2688   1.456   1.143   4.790  1.2593 -1.1090  1.1395
  908TIP3    H2 2689   1.440   1.113   4.937 -0.5149  0.1761  1.2413
  909TIP3   OH2 2690   1.512   4.872   0.268  0.4201 -0.4140 -0.4439
  909TIP3    H1 2691   1.507   4.948   0.209  1.6171  0.3438  0.3910
  909TIP3    H2 2692   1.471   4.902   0.349  0.7822 -0.6949 -0.1541
  910TIP3   OH2 2693   4.581   6.297   4.218  0.6441 -0.5093  0.0198
  910TIP3    H1 2694   4.639   6.278   4.144 -0.5839  0.4724 -1.2436
  910TIP3    H2 2695   4.566   6.212   4.259  2.3093 -0.8967 -0.0923
  911TIP3   OH2 2696   6.974   0.310   1.296  0.1171  0.0823  0.0972
  911TIP3    H1 2697   6.910   0.298   1.367 -1.3742  1.3121 -0.9505
  911TIP3    H2 2698   6.927   0.281   1.218  0.3079  2.2758 -0.8934
  912TIP3   OH2 2699   2.500   6.697   1.968 -0.3303 -0.0842 -0.0395
  912TIP3    H1 2700   2.412   6.717   1.934  0.0772  0.7740 -0.6103
  912TIP3    H2 2701   2.520   6.770   2.026 -0.0660 -0.3778  0.2388
  913TIP3   OH2 2702   0.964   5.150   0.466 -0.0373 -0.8814 -0.8121
  913TIP3    H1 2703   0.999   5.062   0.481  1.8763  0.0730  0.8228
  913TIP3    H2 2704   0.952   5.186   0.554 -1.6512  0.2037 -1.4321
  914TIP3   OH2 2705   3.770   1.205   4.165  0.4599 -0.1336  0.6142
  914TIP3    H1 2706   3.840   1.232   4.107  0.5760 -0.2008  0.7226
  914TIP3    H2 2707   3.690   1.217   4.114  0.5658 -0.2423  0.4260
  915TIP3   OH2 2708   4.819   0.559   1.169 -0.4621  0.1967 -0.4640
  915TIP3    H1 2709   4.744   0.522   1.216 -0.3766 -1.9249 -1.8702
  915TIP3    H2 2710   4.815   0.653   1.187 -2.2356 -0.1345  1.1730
  916TIP3   OH2 2711   2.048   1.266   2.790 -0.4869  0.2205  0.4672
  916TIP3    H1 2712   2.002   1.349   2.803  1.4851  1.2905  0.9181
  916TIP3    H2 2713   2.081   1.244   2.877  1.8317  0.7233 -0.2321
  917TIP3   OH2 2714   3.415   0.228   0.805  0.4272 -0.1021  0.0395
  917TIP3    H1 2715   3.380   0.139   0.806 -0.3461  0.1878  1.8055
  917TIP3    H2 2716   3.494   0.223   0.859 -0.1120  0.4623  0.8925
  918TIP3   OH2 2717   5.496   4.601   2.547  0.0670 -0.1809  0.1647
  918TIP3    H1 2718   5.489   4.617   2.453  0.2529 -0.9298  0.0192
  918TIP3    H2 2719   5.454   4.516   2.560 -0.5872  0.2350  0.8685
  919TIP3   OH2 2720   1.190   4.187   5.105  0.1455 -0.2480  0.4534
  919TIP3    H1 2721   1.168   4.243   5.179 -0.8416 -0.0768  0.0401
  919TIP3    H2 2722   1.268   4.228   5.066 -0.2326  0.5266  0.4894
  920TIP3   OH2 2723   6.168   6.259   5.638 -0.2615 -0.2439 -0.1198
  920TIP3    H1 2724   6.154   6.165   5.646  0.6813 -0.3423  0.5093
  920TIP3    H2 2725   6.088   6.298   5.672 -1.3846 -0.8078 -1.9718
  921TIP3   OH2 2726   6.936   0.304   4.695 -0.1433 -0.0966 -0.5654
  921TIP3    H1 2727   7.023   0.336   4.672  0.5601 -1.0837  0.6194
  921TIP3    H2 2728   6.897   0.373   4.747 -0.1861  0.4546 -1.3113
  922TIP3   OH2 2729   6.367   0.870   1.612  0.5441  0.1930 -0.7191
  922TIP3    H1 2730   6.376   0.962   1.585 -0.8357  0.9638  1.2044
  922TIP3    H2 2731   6.449   0.850   1.656  0.5350  0.7884 -0.4155
  923TIP3   OH2 2732   6.607   1.527   5.112  0.0883 -0.7425 -0.3084
  923TIP3    H1 2733   6.605   1.585   5.189 -0.2645 -2.8800  1.3800
  923TIP3    H2 2734   6.700   1.508   5.100  0.3127  0.8391 -1.4827
  924TIP3   OH2 2735   7.225   5.350   2.538  0.2151  0.0218 -0.4737
  924TIP3    H1 2736   7.171   5.345   2.459 -0.7248 -2.1574  0.2248
  924TIP3    H2 2737   7.241   5.443   2.550 -0.4113  0.4774 -2.6942
  925TIP3   OH2 2738   4.323   6.266   1.124 -0.2542 -0.1535 -0.2750
  925TIP3    H1 2739   4.403   6.216   1.141 -0.7009 -0.7343  0.1676
  925TIP3    H2 2740   4.265   6.243   1.197 -0.2048  1.5925  0.3844
  926TIP3   OH2 2741   1.812   1.863   5.275 -0.6231  0.1911  0.4290
  926TIP3    H1 2742   1.893   1.846   5.322  0.1759  0.2183 -0.9044
  926TIP3    H2 2743   1.800   1.787   5.218  0.3274  1.6789 -1.8957
  927TIP3   OH2 2744   2.602   1.175   5.683  0.2288 -0.1636 -0.2643
  927TIP3    H1 2745   2.620   1.103   5.622 -0.4447  0.8351 -1.6853
  927TIP3    H2 2746   2.663   1.244   5.658 -1.4405  1.0463 -1.2717
  928TIP3   OH2 2747   1.872   0.966   2.078  0.4520 -0.1086  0.0217
  928TIP3    H1 2748   1.808   0.915   2.028 -0.6166  0.6220  0.5926
  928TIP3    H2 2749   1.867   0.931   2.167  2.2012 -1.2696 -0.3022
  929TIP3   OH2 2750   3.634   4.521   1.673  0.3333  0.0224 -0.2943
  929TIP3    H1 2751   3.631   4.440   1.623  2.2596  0.9440 -2.0480
  929TIP3    H2 2752   3.708   4.510   1.733  0.3407  0.3049 -0.2490
  930TIP3   OH2 2753   3.498   5.699   3.346 -0.1299  0.0550  0.3945
  930TIP3    H1 2754   3.523   5.784   3.380  0.2948  0.0471  0.1066
  930TIP3    H2 2755   3.500   5.640   3.421 -1.7177  0.5557  0.8757
  931TIP3   OH2 2756   2.064   2.167   3.038 -0.7079  0.4566 -0.0578
  931TIP3    H1 2757   1.974   2.161   3.070 -1.0047 -0.1316 -0.9429
  931TIP3    H2 2758   2.117   2.127   3.107 -1.1797  0.4120  0.2816
  932TIP3   OH2 2759   6.002   0.191   2.044  0.1082 -0.5433  0.1947
  932TIP3    H1 2760   6.053   0.158   2.118  0.0562  0.9717  0.9432
  932TIP3    H2 2761   6.045   0.273   2.021 -0.1691 -0.7617 -1.1773
  933TIP3   OH2 2762   1.258   2.304   3.999  0.1485  0.1492  0.4517
  933TIP3    H1 2763   1.231   2.213   4.012 -0.5751  0.4577  1.2182
  933TIP3    H2 2764   1.353   2.299   3.985  0.1244 -0.7114  0.5138
  934TIP3   OH2 2765   3.549   1.797   1.856 -0.3586  0.3319 -0.3881
  934TIP3    H1 2766   3.644   1.812   1.853 -0.0276 -1.3124  0.9415
  934TIP3    H2 2767   3.528   1.767   1.768  0.3869  0.4783 -0.6312
  935TIP3   OH2 2768   7.176   3.750   1.007  0.2241 -0.6813 -0.2860
  935TIP3    H1 2769   7.214   3.820   0.953 -1.5575  0.5291 -0.0392
  935TIP3    H2 2770   7.082   3.760   0.997 -0.1003 -2.9200 -0.0273
  936TIP3   OH2 2771   2.365   4.287   0.678  0.4326 -0.3730 -0.1176
  936TIP3    H1 2772   2.426   4.359   0.661  0.8716 -0.8439 -0.5927
  936TIP3    H2 2773   2.278   4.327   0.673  0.5918 -0.1487 -1.9626
  937TIP3   OH2 2774   4.423   1.954   3.051 -0.4363 -0.1901 -0.0832
  937TIP3    H1 2775   4.347   2.012   3.045 -0.6778 -0.6064 -1.4347
  937TIP3    H2 2776   4.451   1.941   2.960  1.2912 -0.0061  0.3879
  938TIP3   OH2 2777   6.791   5.447   2.140 -0.2194 -0.1578 -0.0820
  938TIP3    H1 2778   6.882   5.466   2.117  0.6247 -1.2151  2.1163
  938TIP3    H2 2779   6.759   5.527   2.181  0.4598 -0.4601  1.0968
  939TIP3   OH2 2780   2.695   5.225   3.692 -0.0695  0.6346 -0.3856
  939TIP3    H1 2781   2.757   5.153   3.701  1.7389  2.1401 -0.2131
  939TIP3    H2 2782   2.740   5.289   3.637 -2.1547  1.1082 -1.6730
  940TIP3   OH2 2783   2.003   1.904   3.863  0.2285  0.3997 -0.2792
  940TIP3    H1 2784   2.084   1.953   3.845 -0.5567  1.5878 -0.7474
  940TIP3    H2 2785   2.017   1.819   3.823 -0.2531  1.9109 -4.0702
  941TIP3   OH2 2786   3.015   4.246   2.599 -0.1972 -0.2712  0.6497
  941TIP3    H1 2787   2.939   4.302   2.581 -0.3151 -0.5924  0.1354
  941TIP3    H2 2788   3.002   4.217   2.689  0.2291  1.0944  1.1661
  942TIP3   OH2 2789   3.283   5.361   0.080 -0.2113 -0.0813 -0.0100
  942TIP3    H1 2790   3.317   5.286   0.032 -0.4656 -0.7559  0.8307
  942TIP3    H2 2791   3.291   5.434   0.020 -2.3414 -1.2257 -1.8387
  943TIP3   OH2 2792   5.722   6.219   3.271  0.3251  0.4732  0.2058
  943TIP3    H1 2793   5.684   6.292   3.321  2.3199  0.5829  1.7224
  943TIP3    H2 2794   5.679   6.223   3.186 -2.8515  0.6483  1.6647
  944TIP3   OH2 2795   1.260   5.222   0.097 -0.4909  0.5516  0.0634
  944TIP3    H1 2796   1.232   5.260   0.180  1.3583  2.1750  0.0123
  944TIP3    H2 2797   1.286   5.296   0.043  0.7104 -0.6115 -1.0433
  945TIP3   OH2 2798   2.491   4.385   2.345  0.1379 -0.2536  0.3148
  945TIP3    H1 2799   2.500   4.468   2.391  0.1881 -0.6139  0.9681
  945TIP3    H2 2800   2.481   4.320   2.415  0.2845 -0.8172 -0.1821
  946TIP3   OH2 2801   1.861   6.196   0.815  0.3387 -0.1559 -0.2899
  946TIP3    H1 2802   1.781   6.220   0.861 -0.1261 -1.2618 -0.4953
  946TIP3    H2 2803   1.851   6.102   0.796 -0.0584  0.4707 -3.7181
  947TIP3   OH2 2804   0.462   2.625   5.586  0.0135 -0.1704 -0.3880
  947TIP3    H1 2805   0.469   2.713   5.622  2.5454 -0.9919  1.3847
  947TIP3    H2 2806   0.479   2.636   5.492 -1.3620  1.3742 -0.5064
  948TIP3   OH2 2807   1.397   5.622   3.133  0.0799  0.4198  0.3168
  948TIP3    H1 2808   1.461   5.676   3.089 -0.4546  0.0137 -1.0164
  948TIP3    H2 2809   1.394   5.655   3.223  1.6551  0.8561  0.2222
  949TIP3   OH2 2810   1.190   2.001   0.101  0.2382 -0.0474 -0.0401
  949TIP3    H1 2811   1.203   1.906   0.094  0.8603  0.0135  0.2306
  949TIP3    H2 2812   1.161   2.028   0.014  0.8219 -0.3728 -0.3405
  950TIP3   OH2 2813   6.692   3.565   0.307 -0.3700  0.2641 -0.1905
  950TIP3    H1 2814   6.657   3.479   0.284 -0.3636  0.3862 -0.6563
  950TIP3    H2 2815   6.777   3.546   0.347  0.7246  0.1620 -2.4048
  951TIP3   OH2 2816   5.905   1.396   5.221 -0.3942 -0.5292 -0.1125
  951TIP3    H1 2817   5.950   1.376   5.139 -0.6092  0.6564 -0.5482
  951TIP3    H2 2818   5.943   1.336   5.285  2.2801  0.7949 -0.3137
  952TIP3   OH2 2819   5.150   2.017   5.628  0.2765 -0.1903 -0.0234
  952TIP3    H1 2820   5.215   2.061   5.683 -0.1744  1.3411 -0.6365
  952TIP3    H2 2821   5.167   2.050   5.540 -1.2777  0.2279 -0.2039
  953TIP3   OH2 2822   3.779   6.142   2.270 -0.3639  0.3642  0.4385
  953TIP3    H1 2823   3.743   6.223   2.305 -2.1163 -0.1598 -0.0753
  953TIP3    H2 2824   3.739   6.132   2.184 -0.4775 -1.2253  0.6368
  954TIP3   OH2 2825   3.122   0.263   3.949 -0.0087  0.4287  0.0488
  954TIP3    H1 2826   3.187   0.327   3.975 -1.1217  1.8189 -0.4789
  954TIP3    H2 2827   3.108   0.279   3.855 -0.3832 -0.5214 -0.0781
  955TIP3   OH2 2828   4.380   3.466   5.755 -0.2573  0.2069  0.1560
  955TIP3    H1 2829   4.313   3.524   5.791 -0.0955  1.1651 -1.0401
  955TIP3    H2 2830   4.386   3.490   5.663  0.4879 -1.0749 -0.1505
  956TIP3   OH2 2831   4.400   1.951   3.343 -0.1172  0.5854  0.2387
  956TIP3    H1 2832   4.363   1.989   3.263 -0.4908  2.1104  1.1031
  956TIP3    H2 2833   4.426   1.863   3.317 -2.4076  0.1710 -0.9905
  957TIP3   OH2 2834   0.309   5.832   5.464  0.6883 -0.3856 -0.9589
  957TIP3    H1 2835   0.341   5.902   5.521  2.4981 -1.7295 -0.2016
  957TIP3    H2 2836   0.346   5.852   5.378 -1.8014  1.4826 -1.7222
  958TIP3   OH2 2837   5.182   3.898   4.263 -0.1350  0.2146  0.0008
  958TIP3    H1 2838   5.249   3.904   4.195 -1.0504 -1.5955 -1.1305
  958TIP3    H2 2839   5.156   3.989   4.278  0.7997  0.7418 -1.3348
  959TIP3   OH2 2840   5.125   0.334   1.834 -0.6261 -0.8476 -0.5687
  959TIP3    H1 2841   5.178   0.281   1.894  0.0107 -1.7429 -1.8615
  959TIP3    H2 2842   5.034   0.314   1.858 -0.3932 -0.3978  0.7403
  960TIP3   OH2 2843   4.434   5.625   4.760 -0.0810  0.2385  0.8580
  960TIP3    H1 2844   4.480   5.708   4.769  0.4462  0.0177  0.2627
  960TIP3    H2 2845   4.411   5.600   4.850  0.8036  0.4415  1.1438
  961TIP3   OH2 2846   3.272   0.855   1.776 -0.1923 -0.6886  0.3721
  961TIP3    H1 2847   3.202   0.900   1.729 -1.2249 -2.1620  0.4140
  961TIP3    H2 2848   3.230   0.776   1.810  1.3619 -1.3216  0.8934
  962TIP3   OH2 2849   6.946   4.074   4.737  0.1642 -0.0769 -0.5177
  962TIP3    H1 2850   6.864   4.068   4.687 -0.9293 -1.1271  1.2677
  962TIP3    H2 2851   7.009   4.023   4.686 -1.1574 -1.9079 -0.4085
  963TIP3   OH2 2852   5.008   1.323   0.727  0.3485  0.6252 -0.3728
  963TIP3    H1 2853   5.059   1.393   0.686  0.0963  1.8555  1.3279
  963TIP3    H2 2854   4.924   1.363   0.747  0.5686  0.2067  1.6059
  964TIP3   OH2 2855   5.403   1.925   5.813 -0.2718 -0.0295  0.5070
  964TIP3    H1 2856   5.331   1.878   5.855 -0.5890 -0.8268 -0.8895
  964TIP3    H2 2857   5.424   1.873   5.736  1.5031  0.4377  0.6314
  965TIP3   OH2 2858   2.635   1.989   5.377  0.4017 -0.6972  0.6234
  965TIP3    H1 2859   2.565   1.931   5.349 -1.1334  1.0679  0.6421
  965TIP3    H2 2860   2.714   1.952   5.338 -0.6428 -2.2296 -0.1378
  966TIP3   OH2 2861   1.195   0.305   1.425  0.2965 -0.3807 -0.2057
  966TIP3    H1 2862   1.121   0.269   1.475  1.1992 -2.2469 -0.1159
  966TIP3    H2 2863   1.189   0.261   1.339  1.4180 -0.7334 -0.1147
  967TIP3   OH2 2864   4.681   5.320   5.635 -0.2505  0.2057  0.5053
  967TIP3    H1 2865   4.766   5.363   5.632  0.0163 -0.2127  1.5201
  967TIP3    H2 2866   4.663   5.294   5.544 -0.1871  1.9634 -0.0333
  968TIP3   OH2 2867   5.713   2.961   2.206  0.4911 -0.2585 -0.3381
  968TIP3    H1 2868   5.758   2.922   2.130  1.6796 -1.3951  0.8848
  968TIP3    H2 2869   5.731   2.900   2.277 -1.4018  0.2911  0.6601
  969TIP3   OH2 2870   4.003   0.831   5.583 -0.4521 -0.2845 -0.1958
  969TIP3    H1 2871   3.989   0.770   5.511  0.5297 -1.0109  0.2057
  969TIP3    H2 2872   3.971   0.784   5.661 -1.7562  0.5944 -0.1690
  970TIP3   OH2 2873   2.961   1.066   2.676 -0.4853 -0.3736  0.9810
  970TIP3    H1 2874   2.869   1.044   2.661 -0.4780  0.5130 -0.5888
  970TIP3    H2 2875   3.009   1.008   2.617 -0.1912  0.6030  0.2315
  971TIP3   OH2 2876   1.308   4.031   2.877  0.4203  0.6874  0.6013
  971TIP3    H1 2877   1.396   3.992   2.871  1.3335  2.7752 -1.2680
  971TIP3    H2 2878   1.318   4.105   2.937  0.1457  1.3593 -0.1590
  972TIP3   OH2 2879   6.380   6.569   1.625 -0.2795 -0.4285  0.3349
  972TIP3    H1 2880   6.385   6.546   1.532 -0.1679 -0.3000  0.3087
  972TIP3    H2 2881   6.404   6.661   1.628  0.4314 -0.6155  0.5713
  973TIP3   OH2 2882   2.424   6.321   1.229  0.1861  0.0010 -0.0680
  973TIP3    H1 2883   2.415   6.382   1.303  1.3357  0.1093 -0.0109
  973TIP3    H2 2884   2.381   6.241   1.258  0.8050 -0.0240  0.8030
  974TIP3   OH2 2885   3.257   5.717   3.177 -0.1668 -0.2558  0.4567
  974TIP3    H1 2886   3.303   5.787   3.132  0.4712 -1.7248 -1.2549
  974TIP3    H2 2887   3.315   5.692   3.249 -0.3216  0.7828  0.9793
  975TIP3   OH2 2888   0.337   1.615   5.003 -0.1093 -0.4345  0.3720
  975TIP3    H1 2889   0.325   1.535   5.054  0.0735 -0.9257 -0.3510
  975TIP3    H2 2890   0.247   1.642   4.981 -0.2850  0.5587  2.1068
  976TIP3   OH2 2891   1.554   1.211   4.671  0.0179  0.3723  0.0515
  976TIP3    H1 2892   1.521   1.204   4.581 -0.7292 -0.5627  0.3797
  976TIP3    H2 2893   1.558   1.305   4.687  0.8673  0.5770 -1.2025
  977TIP3   OH2 2894   0.894   4.235   5.347 -0.8543 -0.2245 -0.3761
  977TIP3    H1 2895   0.860   4.214   5.260  2.7686  1.1397 -2.3510
  977TIP3    H2 2896   0.913   4.329   5.343  3.1234 -0.7990  0.2558
  978TIP3   OH2 2897   6.084   4.752   5.373  0.4813 -0.6448 -0.7267
  978TIP3    H1 2898   6.116   4.689   5.438  0.4881 -0.0534 -0.1446
  978TIP3    H2 2899   6.115   4.717   5.290 -0.9139 -2.2955 -0.6162
  979TIP3   OH2 2900   1.389   1.680   4.123 -0.3680  0.4522  0.3806
  979TIP3    H1 2901   1.363   1.624   4.050 -1.4481  0.4017  0.7969
  979TIP3    H2 2902   1.421   1.760   4.081  2.0143 -0.7346 -0.2641
  980TIP3   OH2 2903   1.417   2.222   3.409  0.3761 -0.5561 -0.5433
  980TIP3    H1 2904   1.463   2.148   3.370  0.2936 -0.9845  0.1432
  980TIP3    H2 2905   1.369   2.184   3.483 -0.3225  0.0434 -0.6758
  981TIP3   OH2 2906   2.162   5.040   0.241 -0.3286  0.1186  0.3013
  981TIP3    H1 2907   2.223   5.108   0.270 -1.1855 -0.1131  2.8104
  981TIP3    H2 2908   2.077   5.068   0.273 -1.0598 -1.0840 -0.4999
  982TIP3   OH2 2909   5.972   5.382   1.703  0.1966 -0.0311 -0.2780
  982TIP3    H1 2910   5.976   5.454   1.640 -0.4156 -0.2771 -0.6060
  982TIP3    H2 2911   5.879   5.373   1.723  0.3024 -0.5132  0.0177
  983TIP3   OH2 2912   1.468   5.495   3.645 -0.8459 -0.6719  0.3616
  983TIP3    H1 2913   1.492   5.575   3.599 -2.4796 -0.7343 -0.6394
  983TIP3    H2 2914   1.516   5.426   3.599 -0.5114 -0.4425  0.3583
  984TIP3   OH2 2915   1.138   6.232   3.169  0.4688  0.2531  0.1835
  984TIP3    H1 2916   1.062   6.231   3.226  0.3223 -0.7866 -0.0070
  984TIP3    H2 2917   1.212   6.248   3.227  0.0670  1.8518  0.2941
  985TIP3   OH2 2918   4.464   5.006   5.043  0.3342  0.0748 -0.4619
  985TIP3    H1 2919   4.556   4.988   5.024 -0.4748 -1.6454 -3.2070
  985TIP3    H2 2920   4.452   4.976   5.133  2.1166 -1.1100 -0.5726
  986TIP3   OH2 2921   6.543   4.648   4.758 -0.0600 -0.0753 -0.1465
  986TIP3    H1 2922   6.543   4.590   4.682  1.4161 -0.6942  0.2947
  986TIP3    H2 2923   6.634   4.654   4.784 -0.3708  1.2713  0.7345
  987TIP3   OH2 2924   2.643   6.329   2.951  0.0415  0.3824  0.0010
  987TIP3    H1 2925   2.707   6.382   2.904  1.1721 -1.4066 -0.6092
  987TIP3    H2 2926   2.558   6.361   2.922  0.7000  0.8940 -1.4584
  988TIP3   OH2 2927   3.969   0.341   4.375 -0.7147 -0.4196  0.4396
  988TIP3    H1 2928   4.064   0.336   4.368 -0.7599 -0.7441  0.0148
  988TIP3    H2 2929   3.953   0.383   4.460 -0.1740  1.0960 -0.1614
  989TIP3   OH2 2930   2.159   0.366   3.810 -0.2101 -0.3423 -0.0578
  989TIP3    H1 2931   2.207   0.436   3.766  1.1321 -1.5255 -0.5385
  989TIP3    H2 2932   2.161   0.389   3.902 -0.5349  0.6743 -0.2908
  990TIP3   OH2 2933   0.873   5.255   0.707 -0.2776  0.2422  0.1677
  990TIP3    H1 2934   0.891   5.219   0.794  0.6331 -0.0222 -0.1209
  990TIP3    H2 2935   0.777   5.250   0.698 -0.3710  0.1908  1.1120
  991TIP3   OH2 2936   4.395   6.172   0.655  0.1540 -0.0305 -0.4791
  991TIP3    H1 2937   4.358   6.254   0.687 -0.0836 -0.2439 -0.1981
  991TIP3    H2 2938   4.367   6.107   0.720  1.5692 -0.0901  0.1001
  992TIP3   OH2 2939   6.122   5.021   4.313 -0.5233 -0.8973 -0.1761
  992TIP3    H1 2940   6.131   5.044   4.220 -2.0139  1.5548  0.2026
  992TIP3    H2 2941   6.205   5.045   4.353  0.1956 -2.1336 -0.8499
  993TIP3   OH2 2942   2.500   1.797   5.174  0.8603  0.5818  0.0897
  993TIP3    H1 2943   2.428   1.803   5.112 -1.4815  1.0438  2.6260
  993TIP3    H2 2944   2.533   1.708   5.164 -2.4579 -0.9307  1.1429
  994TIP3   OH2 2945   4.597   0.990   2.132  0.0549  0.0342  0.0258
  994TIP3    H1 2946   4.571   0.943   2.053 -0.6854  1.9860 -0.9416
  994TIP3    H2 2947   4.680   1.031   2.109 -0.0747  0.4657  0.3187
  995TIP3   OH2 2948   5.168   6.201   0.334  0.2926 -0.0104  0.8075
  995TIP3    H1 2949   5.101   6.198   0.402  1.0646 -1.5327  1.5489
  995TIP3    H2 2950   5.119   6.211   0.252 -0.6886  1.0949  1.4955
  996TIP3   OH2 2951   1.611   5.579   1.921  0.2205 -0.0603 -0.0371
  996TIP3    H1 2952   1.592   5.607   2.011 -0.5090  0.2826 -0.2911
  996TIP3    H2 2953   1.681   5.637   1.892 -1.7558  2.1152 -0.8163
  997TIP3   OH2 2954   3.009   4.039   3.414  0.2197  0.0978 -0.8292
  997TIP3    H1 2955   2.942   3.974   3.393  1.5694 -1.1747 -1.3439
  997TIP3    H2 2956   2.960   4.111   3.453 -1.4920 -0.6155 -1.5464
  998TIP3   OH2 2957   3.184   5.282   5.157 -0.3485 -0.1483 -0.3560
  998TIP3    H1 2958   3.186   5.195   5.198  0.0939 -0.7542 -1.6201
  998TIP3    H2 2959   3.094   5.313   5.171  0.0679  0.1878  2.0494
  999TIP3   OH2 2960   5.483   4.573   5.800 -0.0155  0.5280 -0.2466
  999TIP3    H1 2961   5.428   4.628   5.857  1.2512  0.5097  1.0487
  999TIP3    H2 2962   5.572   4.607   5.813  0.4089  0.0278 -1.6688
 1000TIP3   OH2 2963   6.897   1.119   0.556  0.1147  0.0654 -0.0079
 1000TIP3    H1 2964   6.927   1.053   0.494  1.3265  1.0641 -0.5419
 1000TIP3    H2 2965   6.838   1.073   0.615 -1.3668 -0.8427 -2.1003
 1001TIP3   OH2 2966   5.934   2.952   2.760  0.0340 -0.1264  0.0658
 1001TIP3    H1 2967   6.024   2.925   2.743  0.1673  0.1251  0.3733
 1001TIP3    H2 2968   5.929   3.041   2.727 -0.2128 -0.2733 -0.3040
 1002TIP3   OH2 2969   5.596   5.377   4.773  0.0892 -0.2125  0.2641
 1002TIP3    H1 2970   5.520   5.415   4.817 -0.2931 -1.4035  0.6678
 1002TIP3    H2 2971   5.653   5.348   4.844  2.0782  2.7056  0.0396
 1003TIP3   OH2 2972   7.213   1.700   3.098  0.5512 -0.1076  0.0314
 1003TIP3    H1 2973   7.135   1.750   3.075  1.2816  0.9115 -0.2935
 1003TIP3    H2 2974   7.192   1.661   3.183 -1.1309 -1.6799 -1.0187
 1004TIP3   OH2 2975   5.656   3.733   5.301 -0.0475  0.5213 -0.1853
 1004TIP3    H1 2976   5.691   3.729   5.211 -0.0389 -1.3750 -0.1401
 1004TIP3    H2 2977   5.733   3.747   5.356 -0.0951  2.0679 -0.4692
 1005TIP3   OH2 2978   4.453   5.811   3.674 -0.3257  0.3864  0.4884
 1005TIP3    H1 2979   4.489   5.836   3.589 -1.7230 -1.6070 -0.7813
 1005TIP3    H2 2980   4.519   5.754   3.712  0.4248  1.4995  0.9146
 1006TIP3   OH2 2981   5.264   6.345   3.911 -0.3599 -0.2108 -0.2496
 1006TIP3    H1 2982   5.330   6.277   3.922  1.4473  1.3569 -0.7075
 1006TIP3    H2 2983   5.277   6.403   3.986  0.3133  1.2902 -1.4659
 1007TIP3   OH2 2984   4.774   1.556   2.167 -0.0106  0.2307  0.1761
 1007TIP3    H1 2985   4.867   1.537   2.166 -0.1135 -0.7973  2.8890
 1007TIP3    H2 2986   4.768   1.645   2.202 -0.0625  0.7917 -1.1641
 1008TIP3   OH2 2987   5.602   0.761   2.955 -0.2493 -0.1631 -0.1383
 1008TIP3    H1 2988   5.564   0.845   2.981  0.5253  0.5603 -1.2171
 1008TIP3    H2 2989   5.572   0.699   3.020 -2.8860  0.4538 -0.6573
 1009TIP3   OH2 2990   2.138   4.401   2.422  0.1637  0.1782  0.2869
 1009TIP3    H1 2991   2.199   4.375   2.491  0.1121  1.3665  0.7967
 1009TIP3    H2 2992   2.123   4.494   2.436  1.6156  0.9501 -2.4427
 1010TIP3   OH2 2993   1.413   2.202   2.092  0.2148  0.2342  0.7183
 1010TIP3    H1 2994   1.426   2.294   2.072 -0.3202  0.2365  0.3867
 1010TIP3    H2 2995   1.328   2.198   2.136 -0.0247 -0.1716  0.2285
 1011TIP3   OH2 2996   6.438   2.133   5.207 -0.0942  0.5028  0.1688
 1011TIP3    H1 2997   6.529   2.160   5.196  0.8267 -2.6667 -1.0356
 1011TIP3    H2 2998   6.435   2.095   5.295 -0.4751  1.2703  0.4952
 1012TIP3   OH2 2999   3.820   3.142   4.209 -0.2929  0.5985 -0.6905
 1012TIP3    H1 3000   3.799   3.062   4.257  2.7650 -0.4023 -0.8111
 1012TIP3    H2 3001   3.911   3.160   4.231  0.2832  1.8905 -3.6512
 1013TIP3   OH2 3002   3.319   2.706   3.789 -0.0165 -0.0333  0.6022
 1013TIP3    H1 3003   3.349   2.762   3.861  2.3060  0.3233 -0.5587
 1013TIP3    H2 3004   3.379   2.632   3.790 -0.1372 -0.1669 -0.7880
 1014TIP3   OH2 3005   0.138   2.409   5.630  0.1548  0.5057 -0.1968
 1014TIP3    H1 3006   0.079   2.429   5.702 -2.0112 -3.2828 -0.6862
 1014TIP3    H2 3007   0.088   2.430   5.551  0.5133 -0.1954 -0.6189
 1015TIP3   OH2 3008   3.173   2.904   4.136 -0.4397  0.2256  0.2332
 1015TIP3    H1 3009   3.237   2.937   4.200 -0.5059 -0.3272  0.5910
 1015TIP3    H2 3010   3.097   2.960   4.148 -0.3620  0.2830  0.4701
 1016TIP3   OH2 3011   6.857   1.753   0.744  0.1111 -0.1176  0.4091
 1016TIP3    H1 3012   6.843   1.668   0.785  2.0306 -0.6630  0.0398
 1016TIP3    H2 3013   6.824   1.743   0.655  0.3386 -0.4759  0.3652
 1017TIP3   OH2 3014   1.893   4.372   3.086 -0.5700 -0.0297  0.5575
 1017TIP3    H1 3015   1.983   4.394   3.112 -0.8450  1.0978  0.6334
 1017TIP3    H2 3016   1.872   4.436   3.018 -1.1044 -0.6867  0.0903
 1018TIP3   OH2 3017   4.046   0.770   1.625 -0.0644 -0.0509  0.0771
 1018TIP3    H1 3018   4.046   0.866   1.630 -0.5940 -0.0049 -0.5861
 1018TIP3    H2 3019   4.103   0.742   1.696  0.7863  0.7799 -0.2658
 1019TIP3   OH2 3020   0.918   3.961   2.980  0.7342 -0.1365 -0.0118
 1019TIP3    H1 3021   0.951   3.886   3.030 -0.4861 -0.3633  0.4726
 1019TIP3    H2 3022   0.852   3.924   2.922  0.2778  0.5276  0.0721
 1020TIP3   OH2 3023   2.310   2.764   0.993  0.6750  0.6977 -0.5421
 1020TIP3    H1 3024   2.307   2.696   0.925 -0.0630 -0.7117  0.8259
 1020TIP3    H2 3025   2.279   2.719   1.072  1.5368  2.2736  0.7341
 1021TIP3   OH2 3026   2.879   0.715   5.599 -0.0219  0.3820 -0.2626
 1021TIP3    H1 3027   2.824   0.729   5.677 -0.1772  0.8611 -0.4503
 1021TIP3    H2 3028   2.943   0.650   5.627 -0.4673  0.0721  0.0702
 1022TIP3   OH2 3029   1.266   1.349   5.144 -0.2009 -0.0015 -0.3239
 1022TIP3    H1 3030   1.347   1.359   5.095 -1.3387  0.7931 -2.1775
 1022TIP3    H2 3031   1.197   1.366   5.079 -1.8070  0.8914  1.5195
 1023TIP3   OH2 3032   4.211   5.498   1.938 -0.6919 -0.3226  0.6543
 1023TIP3    H1 3033   4.281   5.557   1.910 -0.9769 -0.1967  0.1903
 1023TIP3    H2 3034   4.225   5.418   1.887  0.7773 -1.3782  2.5756
 1024TIP3   OH2 3035   1.695   5.959   1.025 -0.1729  0.2000 -0.3707
 1024TIP3    H1 3036   1.663   6.045   0.999 -0.7929 -0.0272 -0.3705
 1024TIP3    H2 3037   1.683   5.956   1.120 -0.4571 -0.0125 -0.4130
 1025TIP3   OH2 3038   3.208   2.261   1.817 -0.0321  0.0647  0.7065
 1025TIP3    H1 3039   3.118   2.273   1.846 -0.9809 -2.0951 -1.0516
 1025TIP3    H2 3040   3.215   2.314   1.737 -0.1814 -0.7820  0.1208
 1026TIP3   OH2 3041   4.534   6.126   5.597  0.5253  0.1359  0.1706
 1026TIP3    H1 3042   4.504   6.204   5.642  0.2735  0.3863 -0.4275
 1026TIP3    H2 3043   4.465   6.061   5.612  1.0481 -0.2001  1.2451
 1027TIP3   OH2 3044   1.643   0.557   5.459 -0.2948 -0.1928  0.0334
 1027TIP3    H1 3045   1.735   0.530   5.455 -0.7793 -1.7719 -1.6517
 1027TIP3    H2 3046   1.620   0.550   5.552  1.0570 -0.5887  0.3592
 1028TIP3   OH2 3047   6.452   5.057   0.130 -0.0062 -1.2669  0.1728
 1028TIP3    H1 3048   6.421   4.973   0.164  2.4057 -2.1239  0.4454
 1028TIP3    H2 3049   6.451   5.115   0.206 -1.6314 -1.0370 -0.0027
 1029TIP3   OH2 3050   2.344   0.806   3.967  0.9825  0.6464 -0.0353
 1029TIP3    H1 3051   2.360   0.887   4.015 -0.6965  0.9265  0.1071
 1029TIP3    H2 3052   2.360   0.829   3.875 -0.0087  1.3055 -0.0561
 1030TIP3   OH2 3053   0.092   1.255   2.973 -0.1260  0.3849 -0.7448
 1030TIP3    H1 3054   0.149   1.178   2.968 -0.0332  0.3242  0.8341
 1030TIP3    H2 3055   0.151   1.329   2.955  0.7118  0.3980  1.7171
 1031TIP3   OH2 3056   2.518   2.266   4.043 -0.4718  0.3255 -0.0217
 1031TIP3    H1 3057   2.474   2.331   3.988 -2.6431 -0.3625  0.7584
 1031TIP3    H2 3058   2.488   2.286   4.131  1.6500  0.3984  0.7139
 1032TIP3   OH2 3059   2.057   3.257   2.054  0.4598 -0.1016  0.4229
 1032TIP3    H1 3060   2.067   3.244   1.959  1.2501  0.1583  0.4642
 1032TIP3    H2 3061   2.121   3.326   2.075 -2.3593  2.7482  0.4773
 1033TIP3   OH2 3062   3.317   1.343   4.439  0.7758  0.0139 -0.2561
 1033TIP3    H1 3063   3.379   1.305   4.502 -1.6002  0.4555  2.5875
 1033TIP3    H2 3064   3.232   1.336   4.483 -0.8284  1.7744 -2.8432
 1034TIP3   OH2 3065   5.004   4.145   4.950 -0.4074 -0.5040  0.1915
 1034TIP3    H1 3066   5.006   4.054   4.921 -1.4444 -0.4887  0.0374
 1034TIP3    H2 3067   5.011   4.139   5.046 -1.4964 -0.8199  0.2667
 1035TIP3   OH2 3068   1.473   2.853   1.109  0.1909 -0.1591 -0.0741
 1035TIP3    H1 3069   1.443   2.796   1.180  1.9486 -1.0982 -0.0241
 1035TIP3    H2 3070   1.522   2.923   1.153 -0.2226  0.2615 -0.2675
 1036TIP3   OH2 3071   6.196   2.825   3.342  0.2057  0.1543  0.5579
 1036TIP3    H1 3072   6.229   2.804   3.255  0.0775  1.8178  0.0811
 1036TIP3    H2 3073   6.270   2.806   3.400  0.8106  0.4611 -0.0951
 1037TIP3   OH2 3074   3.770   0.082   3.521 -0.5904  0.5846  0.0273
 1037TIP3    H1 3075   3.802   0.089   3.431  0.5149  0.5740  0.4102
 1037TIP3    H2 3076   3.793   0.166   3.561 -2.1920  1.0841 -0.0308
 1038TIP3   OH2 3077   0.010   1.879   2.637  0.0018  0.4415 -0.0226
 1038TIP3    H1 3078  -0.029   1.932   2.567 -1.0996 -1.3745 -0.8680
 1038TIP3    H2 3079   0.087   1.839   2.596 -1.1795 -1.3931 -0.6071
 1039TIP3   OH2 3080   0.089   2.479   0.229  0.4652  0.2625 -0.1600
 1039TIP3    H1 3081   0.082   2.385   0.218 -0.1754  0.1010  1.3455
 1039TIP3    H2 3082   0.109   2.491   0.322  0.3491  1.6086 -0.2860
 1040TIP3   OH2 3083   6.624   6.164   2.885 -0.1298  0.2272  0.3429
 1040TIP3    H1 3084   6.719   6.169   2.874 -0.0198  0.2212  1.1941
 1040TIP3    H2 3085   6.606   6.070   2.896 -0.0644  0.3320  1.4669
 1041TIP3   OH2 3086   5.482   1.598   3.054 -0.0467 -0.1078  0.0701
 1041TIP3    H1 3087   5.475   1.540   3.130  0.1575  0.0747  0.2290
 1041TIP3    H2 3088   5.481   1.538   2.979  1.9059 -0.4868  0.2877
 1042TIP3   OH2 3089   6.307   6.279   1.387  0.0180  0.1294 -0.0427
 1042TIP3    H1 3090   6.380   6.227   1.420  0.2657  0.6468  0.2251
 1042TIP3    H2 3091   6.345   6.364   1.365 -0.3384  0.1267 -0.7158
 1043TIP3   OH2 3092   6.888   5.461   2.901 -0.5682  0.2591 -0.3298
 1043TIP3    H1 3093   6.945   5.536   2.914  0.3915 -0.4244 -0.4287
 1043TIP3    H2 3094   6.924   5.418   2.823 -0.9806 -0.4016 -0.1604
 1044TIP3   OH2 3095   5.799   2.984   3.858  0.2724  0.0141  0.5219
 1044TIP3    H1 3096   5.720   2.947   3.897 -0.1203 -0.2941 -0.5247
 1044TIP3    H2 3097   5.856   3.003   3.932 -1.1785  1.1926  1.3852
 1045TIP3   OH2 3098   4.014   0.638   3.031 -0.2481  0.1934  0.4034
 1045TIP3    H1 3099   3.947   0.669   2.970 -0.4513 -1.1157 -0.0708
 1045TIP3    H2 3100   4.085   0.607   2.974  0.9769  1.9358  0.8980
 1046TIP3   OH2 3101   4.010   3.725   3.619 -0.4719 -0.1686  0.1944
 1046TIP3    H1 3102   4.040   3.729   3.529  0.5503 -1.9648  0.3930
 1046TIP3    H2 3103   4.059   3.793   3.665 -1.8984  1.5880 -0.7919
 1047TIP3   OH2 3104   6.895   3.456   0.430  0.2682 -0.4074 -0.1787
 1047TIP3    H1 3105   6.960   3.388   0.413  0.6161 -0.7086  2.0344
 1047TIP3    H2 3106   6.914   3.485   0.519 -2.3840 -0.1971  0.4029
 1048TIP3   OH2 3107   0.316   3.876   4.899 -0.4743 -0.6394  0.7002
 1048TIP3    H1 3108   0.264   3.800   4.926 -0.5843 -0.9860 -0.4342
 1048TIP3    H2 3109   0.256   3.928   4.845 -0.4860  0.4063  1.6980
 1049TIP3   OH2 3110   5.888   5.475   5.378  0.9195 -0.0477 -0.0500
 1049TIP3    H1 3111   5.906   5.393   5.332  0.5866  0.9231 -2.0302
 1049TIP3    H2 3112   5.969   5.495   5.425  1.2285 -1.1572 -0.0952
 1050TIP3   OH2 3113   4.475   2.272   3.422  0.3260 -0.5486  0.2393
 1050TIP3    H1 3114   4.514   2.226   3.349  1.9790  1.2286 -0.0867
 1050TIP3    H2 3115   4.528   2.247   3.498  0.7527  0.1959  0.1950
 1051TIP3   OH2 3116   0.307   1.357   5.096 -0.7874 -0.1614  0.0971
 1051TIP3    H1 3117   0.239   1.290   5.101 -0.3895 -0.8196 -2.2535
 1051TIP3    H2 3118   0.331   1.374   5.187 -4.3794  0.4476  1.0963
 1052TIP3   OH2 3119   0.764   6.070   3.110 -0.1788  0.4309 -0.4373
 1052TIP3    H1 3120   0.691   6.015   3.139 -0.3404  0.1654 -1.3258
 1052TIP3    H2 3121   0.725   6.131   3.049  0.2631  0.6002 -0.5539
 1053TIP3   OH2 3122   3.708   2.226   4.697 -0.1672  0.1037  0.3155
 1053TIP3    H1 3123   3.624   2.214   4.654 -0.3396 -1.4867  1.0389
 1053TIP3    H2 3124   3.770   2.237   4.625 -0.6707 -0.9759 -0.3074
 1054TIP3   OH2 3125   1.108   4.445   3.891  0.0187  0.1156 -0.7192
 1054TIP3    H1 3126   1.151   4.512   3.944 -0.7029  1.3035 -1.5807
 1054TIP3    H2 3127   1.177   4.410   3.835  0.4265  0.0495 -0.1845
 1055TIP3   OH2 3128   3.428   5.228   1.792 -0.7177  0.0410  0.0410
 1055TIP3    H1 3129   3.366   5.284   1.839 -1.2546 -1.1251  0.7727
 1055TIP3    H2 3130   3.476   5.183   1.861 -1.0419 -1.2022 -0.5180
 1056TIP3   OH2 3131   4.217   2.258   4.919  0.2207 -0.3272 -0.4026
 1056TIP3    H1 3132   4.229   2.184   4.979 -0.4534 -0.9024 -0.9546
 1056TIP3    H2 3133   4.234   2.335   4.973  0.6378 -0.8634  0.2642
 1057TIP3   OH2 3134   6.835   2.182   5.332  0.0169 -0.1798 -0.2475
 1057TIP3    H1 3135   6.806   2.092   5.349  0.4629 -0.3741 -0.4916
 1057TIP3    H2 3136   6.793   2.205   5.249  0.4966 -0.4366 -0.5665
 1058TIP3   OH2 3137   0.480   4.697   1.692  0.0160  0.1967  0.1120
 1058TIP3    H1 3138   0.484   4.698   1.787 -0.3805  2.2212  0.1631
 1058TIP3    H2 3139   0.508   4.785   1.666 -0.1669 -0.2157 -1.6164
 1059TIP3   OH2 3140   0.659   5.535   0.098  0.0565  0.2381 -0.2464
 1059TIP3    H1 3141   0.600   5.522   0.172  0.1094  0.8890 -0.0791
 1059TIP3    H2 3142   0.643   5.460   0.040  0.3563 -0.5354  0.6432
 1060TIP3   OH2 3143   2.445   0.422   0.404 -0.1686 -0.1540  0.5763
 1060TIP3    H1 3144   2.354   0.392   0.401 -0.6252  1.0915 -2.9520
 1060TIP3    H2 3145   2.443   0.510   0.368  2.7138 -1.2435 -2.8971
 1061TIP3   OH2 3146   6.384   6.358   4.779 -0.6017 -0.5129 -0.6167
 1061TIP3    H1 3147   6.330   6.377   4.702  0.1293  0.1777 -0.9749
 1061TIP3    H2 3148   6.373   6.264   4.793 -1.5314 -0.4692 -0.9500
 1062TIP3   OH2 3149   1.009   2.181   1.960  0.2595  0.5133 -0.3950
 1062TIP3    H1 3150   1.046   2.199   2.047  0.5412  0.3405 -0.4772
 1062TIP3    H2 3151   0.981   2.267   1.928  0.1772  0.5816 -0.1441
 1063TIP3   OH2 3152   4.051   1.046   1.642  0.1277  0.1450 -0.2043
 1063TIP3    H1 3153   3.989   1.056   1.714  0.9200 -0.3850  0.5717
 1063TIP3    H2 3154   4.131   1.087   1.674  1.0397 -1.6432 -0.0552
 1064TIP3   OH2 3155   5.999   1.839   0.195 -0.0414  0.2337 -0.4174
 1064TIP3    H1 3156   6.061   1.909   0.173  0.9650 -0.6274 -0.4135
 1064TIP3    H2 3157   5.975   1.801   0.110  0.1429 -0.0144 -0.3600
 1065TIP3   OH2 3158   0.566   2.105   3.357  0.0234  0.3762 -0.1870
 1065TIP3    H1 3159   0.482   2.100   3.403  0.7146 -0.5258  1.0278
 1065TIP3    H2 3160   0.570   2.026   3.304  0.1061  0.4228 -0.2506
 1066TIP3   OH2 3161   4.565   5.945   2.374 -0.3937  0.0889 -0.1496
 1066TIP3    H1 3162   4.509   6.000   2.318  0.4204 -0.4206 -1.5185
 1066TIP3    H2 3163   4.550   5.856   2.342 -0.2058 -0.2723  0.7417
 1067TIP3   OH2 3164   0.302   3.126   2.975  0.2889  0.1467 -0.3105
 1067TIP3    H1 3165   0.221   3.176   2.979 -0.2423 -0.7707  1.0654
 1067TIP3    H2 3166   0.330   3.118   3.066  0.7788 -1.3758 -0.5664
 1068TIP3   OH2 3167   5.154   6.645   5.468 -0.7137 -0.6229  0.2192
 1068TIP3    H1 3168   5.136   6.593   5.546  1.5734  0.6670  1.7127
 1068TIP3    H2 3169   5.233   6.605   5.430 -1.1903 -0.5786 -0.8797
 1069TIP3   OH2 3170   0.368   3.343   4.653  0.0754  0.2457  0.3365
 1069TIP3    H1 3171   0.333   3.259   4.684  2.1636 -0.4276  1.0300
 1069TIP3    H2 3172   0.412   3.322   4.571 -1.8449  1.2541 -1.0255
 1070TIP3   OH2 3173   0.531   2.769   4.799 -0.1778  0.0567  0.3678
 1070TIP3    H1 3174   0.531   2.740   4.708  0.0961  1.2358 -0.0312
 1070TIP3    H2 3175   0.624   2.782   4.819 -0.2859  0.5274  0.5678
 1071TIP3   OH2 3176   0.940   3.915   4.002  0.1655  0.4211  0.1479
 1071TIP3    H1 3177   0.977   3.922   4.090  1.8657 -0.5898 -0.4468
 1071TIP3    H2 3178   0.897   3.999   3.987  0.6522  0.9439  1.5891
 1072TIP3   OH2 3179   4.101   1.320   0.770  0.5601  0.5649  0.5082
 1072TIP3    H1 3180   4.139   1.234   0.788  0.1407  0.1658 -0.4320
 1072TIP3    H2 3181   4.115   1.333   0.676 -0.4512  0.9899  0.4003
 1073TIP3   OH2 3182   4.738   1.013   1.314 -0.2658  0.4239  0.0923
 1073TIP3    H1 3183   4.682   1.053   1.380  0.1827 -0.0221  0.7524
 1073TIP3    H2 3184   4.761   1.085   1.256 -0.1688  0.9498  0.7690
 1074TIP3   OH2 3185   6.544   1.577   5.563 -0.1946  0.4910 -0.1153
 1074TIP3    H1 3186   6.492   1.546   5.637 -1.1482 -0.7695 -1.2518
 1074TIP3    H2 3187   6.540   1.505   5.499  0.3516  1.6349 -1.5051
 1075TIP3   OH2 3188   3.010   6.282   2.635  0.6550 -0.0122  0.2103
 1075TIP3    H1 3189   2.968   6.197   2.624  1.4161 -0.3222 -0.4027
 1075TIP3    H2 3190   3.052   6.277   2.721  0.7299 -0.2672  0.1587
 1076TIP3   OH2 3191   4.349   0.210   2.298 -0.8174  0.0929 -0.2901
 1076TIP3    H1 3192   4.311   0.283   2.347  0.9870 -0.0477  1.4523
 1076TIP3    H2 3193   4.441   0.210   2.322 -0.3078 -1.4192 -1.9872
 1077TIP3   OH2 3194   3.204   1.351   5.267 -0.0781 -0.0651 -0.0547
 1077TIP3    H1 3195   3.196   1.416   5.198 -1.5776 -1.3377 -1.1565
 1077TIP3    H2 3196   3.118   1.350   5.309  0.3307 -0.4367  0.8201
 1078TIP3   OH2 3197   1.384   6.731   1.660  0.2195  0.2518 -0.1185
 1078TIP3    H1 3198   1.290   6.716   1.647  0.2243  1.8578 -2.6861
 1078TIP3    H2 3199   1.426   6.672   1.598  0.8149  0.6585 -0.1088
 1079TIP3   OH2 3200   3.865   1.303   3.247  0.1224 -0.5082 -0.5428
 1079TIP3    H1 3201   3.795   1.347   3.294  1.4508  0.7110  0.3926
 1079TIP3    H2 3202   3.945   1.326   3.295  0.9545 -3.9671 -0.0106
 1080TIP3   OH2 3203   5.480   5.961   5.079  0.0695 -0.3127 -0.4846
 1080TIP3    H1 3204   5.505   5.869   5.071  0.0007 -0.4953  1.1769
 1080TIP3    H2 3205   5.384   5.959   5.079  0.0631 -0.3574  0.5937
 1081TIP3   OH2 3206   1.121   6.400   0.061  0.2335 -0.5502  0.4735
 1081TIP3    H1 3207   1.211   6.424   0.082  0.2881  1.5658 -1.7538
 1081TIP3    H2 3208   1.124   6.377  -0.032 -1.1457 -2.8148  0.9200
 1082TIP3   OH2 3209   2.706   2.832   0.308  0.4247  0.0936  0.3222
 1082TIP3    H1 3210   2.729   2.789   0.391 -1.0330 -0.4528  0.4716
 1082TIP3    H2 3211   2.709   2.761   0.243 -1.8446 -0.2594  0.5428
 1083TIP3   OH2 3212   1.634   1.580   3.525 -0.0844 -0.2689 -0.0253
 1083TIP3    H1 3213   1.579   1.502   3.529  0.3593 -0.5699  0.3527
 1083TIP3    H2 3214   1.641   1.600   3.432 -1.0499 -0.0641 -0.0655
 1084TIP3   OH2 3215   0.876   5.350   2.086 -0.4239 -0.4243  0.4286
 1084TIP3    H1 3216   0.864   5.374   2.178 -0.4891  1.6406 -0.0899
 1084TIP3    H2 3217   0.961   5.386   2.062  0.0982 -1.9060 -0.0491
 1085TIP3   OH2 3218   1.470   4.664   3.772 -0.2277 -0.4124 -0.4559
 1085TIP3    H1 3219   1.557   4.695   3.749 -0.1734  2.5623  2.8474
 1085TIP3    H2 3220   1.410   4.727   3.732 -0.5886 -0.1602  0.4576
 1086TIP3   OH2 3221   1.862   3.703   5.661  0.0432 -0.1197 -0.1859
 1086TIP3    H1 3222   1.850   3.609   5.645  0.0693 -0.0737 -0.4858
 1086TIP3    H2 3223   1.861   3.712   5.756  0.4970 -0.4855 -0.1437
 1087TIP3   OH2 3224   3.858   5.790   3.200  0.2019 -0.0168  0.3099
 1087TIP3    H1 3225   3.828   5.881   3.204 -1.6405 -0.5921  2.4173
 1087TIP3    H2 3226   3.793   5.746   3.145 -0.4230 -0.4700  1.3616
 1088TIP3   OH2 3227   1.757   4.346   3.336 -0.1679 -0.5915 -0.0349
 1088TIP3    H1 3228   1.811   4.368   3.260  0.0716 -2.3735 -0.4474
 1088TIP3    H2 3229   1.791   4.401   3.407 -1.5140  2.3865 -1.5293
 1089TIP3   OH2 3230   6.172   3.954   0.634 -0.4701 -0.0022  0.1199
 1089TIP3    H1 3231   6.131   3.948   0.720 -1.7454  0.1863 -0.4466
 1089TIP3    H2 3232   6.241   4.019   0.645 -1.1315  0.6009  0.8214
 1090TIP3   OH2 3233   2.116   4.188   4.292 -0.3228  0.1697 -0.0086
 1090TIP3    H1 3234   2.132   4.282   4.280  0.0198 -0.1608 -2.8216
 1090TIP3    H2 3235   2.183   4.145   4.238 -0.8569 -1.6871  0.7186
 1091TIP3   OH2 3236   0.040   6.084   4.514 -0.4416 -0.0609 -0.0554
 1091TIP3    H1 3237  -0.030   6.138   4.477  0.6592  0.1608 -1.8941
 1091TIP3    H2 3238   0.046   6.009   4.456  0.5032 -0.3414  0.3868
 1092TIP3   OH2 3239   2.123   0.897   0.814 -0.3444  0.8150 -0.5349
 1092TIP3    H1 3240   2.187   0.968   0.801  0.6548  0.0568  0.1189
 1092TIP3    H2 3241   2.128   0.846   0.733  2.7983 -1.4842  0.9261
 1093TIP3   OH2 3242   3.872   4.743   0.914 -0.2629 -0.0212 -0.4192
 1093TIP3    H1 3243   3.938   4.786   0.969 -0.1772  0.5768 -0.9749
 1093TIP3    H2 3244   3.832   4.814   0.865 -1.0515 -0.4293 -0.3877
 1094TIP3   OH2 3245   3.507   4.995   2.482  0.3880  0.0994 -0.4681
 1094TIP3    H1 3246   3.465   5.041   2.555 -1.6739 -0.6297 -1.1329
 1094TIP3    H2 3247   3.451   4.919   2.465  0.0085  0.9438 -3.6544
 1095TIP3   OH2 3248   2.010   5.419   2.890 -0.4579 -0.5315  0.2238
 1095TIP3    H1 3249   2.093   5.434   2.936  0.3400 -3.7149  0.0434
 1095TIP3    H2 3250   2.017   5.472   2.811  0.8710  0.1581  0.7611
 1096TIP3   OH2 3251   4.450   2.787   0.844  0.0779  0.2473  0.2493
 1096TIP3    H1 3252   4.510   2.855   0.815 -0.0344  0.7979  1.2820
 1096TIP3    H2 3253   4.369   2.805   0.796 -0.3441  1.6020  1.4308
 1097TIP3   OH2 3254   7.170   5.315   2.851  0.0222 -1.0399 -0.7399
 1097TIP3    H1 3255   7.221   5.319   2.769  0.7921 -0.5162 -0.2433
 1097TIP3    H2 3256   7.236   5.299   2.919 -0.0181  2.4613  0.3115
 1098TIP3   OH2 3257   6.543   0.420   2.351 -0.1993  0.6571  0.0060
 1098TIP3    H1 3258   6.568   0.486   2.415  1.3224  1.8734 -1.7625
 1098TIP3    H2 3259   6.620   0.409   2.296 -1.7107  0.3228 -2.1810
 1099TIP3   OH2 3260   6.040   1.179   3.321  0.3395 -0.0034 -0.0469
 1099TIP3    H1 3261   6.085   1.119   3.261 -1.1718 -0.2889 -0.9621
 1099TIP3    H2 3262   6.012   1.122   3.393 -0.2843 -0.2409 -0.4637
 1100TIP3   OH2 3263   6.381   2.004   2.129 -0.4842  0.0580 -0.6440
 1100TIP3    H1 3264   6.297   2.048   2.144 -0.3644  0.2196 -0.4366
 1100TIP3    H2 3265   6.393   2.007   2.034 -1.5737 -1.5716 -0.8687
 1101TIP3   OH2 3266   5.941   1.300   3.980  0.2867  0.2268 -0.3594
 1101TIP3    H1 3267   5.872   1.366   3.984 -0.3826 -0.5157  1.4484
 1101TIP3    H2 3268   5.897   1.220   3.951  0.2981 -0.3007  1.0053
 1102TIP3   OH2 3269   6.796   1.528   0.858 -0.2372  0.0585  0.4187
 1102TIP3    H1 3270   6.748   1.450   0.830  0.0758  0.2739 -0.8059
 1102TIP3    H2 3271   6.758   1.551   0.943 -0.5750 -1.2101  0.6344
 1103TIP3   OH2 3272   0.982   1.837   1.314  0.3479 -0.2865 -0.4806
 1103TIP3    H1 3273   1.034   1.805   1.240  1.0140  1.3341 -0.7612
 1103TIP3    H2 3274   0.977   1.931   1.301 -2.1077 -0.2900 -0.0605
 1104TIP3   OH2 3275   0.315   2.428   0.672  0.5255  0.2424  0.1180
 1104TIP3    H1 3276   0.289   2.337   0.659 -0.5082  0.6305 -0.6840
 1104TIP3    H2 3277   0.269   2.476   0.602  1.6936  1.2639  0.0259
 1105TIP3   OH2 3278   0.594   3.190   0.580 -0.0510  0.6511  0.5124
 1105TIP3    H1 3279   0.577   3.096   0.583  1.6216  0.2769 -0.1595
 1105TIP3    H2 3280   0.508   3.231   0.589 -0.9845 -0.9711 -0.4956
 1106TIP3   OH2 3281   7.031   5.260   0.779 -0.1503 -0.3356  0.0012
 1106TIP3    H1 3282   7.027   5.254   0.684 -1.0692  1.1610 -0.0985
 1106TIP3    H2 3283   7.114   5.219   0.803  1.3456  1.5459 -1.6818
 1107TIP3   OH2 3284   6.456   1.076   3.570 -0.6313  0.3875 -0.5580
 1107TIP3    H1 3285   6.368   1.053   3.537 -1.2097  1.2904  0.2989
 1107TIP3    H2 3286   6.453   1.053   3.663 -0.1418  0.9045 -0.4096
 1108TIP3   OH2 3287   4.942   1.566   2.469  0.2696  0.3090 -0.0977
 1108TIP3    H1 3288   5.004   1.555   2.397  0.4255 -0.4490  0.1326
 1108TIP3    H2 3289   4.878   1.629   2.437 -0.7485 -1.3955 -1.6487
 1109TIP3   OH2 3290   5.467   1.207   0.578 -0.0238 -0.0633 -0.2562
 1109TIP3    H1 3291   5.385   1.164   0.554 -0.2174  0.3475 -0.3476
 1109TIP3    H2 3292   5.532   1.137   0.580  0.3360  0.0319 -3.3466
 1110TIP3   OH2 3293   0.904   4.549   5.006  0.3939 -0.6039  0.1214
 1110TIP3    H1 3294   0.826   4.555   5.061  0.7135  3.1344  0.4317
 1110TIP3    H2 3295   0.871   4.524   4.920 -0.8466 -0.9893  0.6814
 1111TIP3   OH2 3296   6.744   1.249   3.370  0.2902  0.0873 -0.0898
 1111TIP3    H1 3297   6.710   1.213   3.451  0.8356 -2.3722 -0.8724
 1111TIP3    H2 3298   6.679   1.227   3.304  0.5036  0.8217 -0.5617
 1112TIP3   OH2 3299   0.975   6.103   4.333  0.3450  0.7466 -0.1214
 1112TIP3    H1 3300   1.003   6.182   4.287 -1.3712  0.3377 -2.0121
 1112TIP3    H2 3301   0.904   6.132   4.390  0.5040  0.7661  0.0663
 1113TIP3   OH2 3302   6.149   6.703   5.698  0.7190  0.1837 -0.6650
 1113TIP3    H1 3303   6.058   6.720   5.723  0.7806 -1.4760  0.8818
 1113TIP3    H2 3304   6.142   6.655   5.615  0.1578 -0.0801 -0.4731
 1114TIP3   OH2 3305   6.553   1.150   5.794 -0.0084 -0.7982 -0.2229
 1114TIP3    H1 3306   6.489   1.213   5.825  0.2754 -0.2790 -0.6766
 1114TIP3    H2 3307   6.502   1.073   5.771 -0.5875 -0.0616 -1.4747
 1115TIP3   OH2 3308   6.378   2.453   0.240  0.4928  0.4067 -0.4460
 1115TIP3    H1 3309   6.452   2.484   0.293 -0.8771  1.3098  1.0231
 1115TIP3    H2 3310   6.314   2.423   0.305  0.2033 -1.9473 -1.7268
 1116TIP3   OH2 3311   2.583   4.997   4.628  0.1979  0.2637 -0.0655
 1116TIP3    H1 3312   2.552   4.919   4.674 -0.1329  0.1344 -0.4961
 1116TIP3    H2 3313   2.543   5.070   4.675  1.4097  0.2541  1.0424
 1117TIP3   OH2 3314   6.123   0.111   1.194  0.2408  0.2128  0.8385
 1117TIP3    H1 3315   6.100   0.079   1.281  0.1007 -2.5962 -0.1511
 1117TIP3    H2 3316   6.218   0.114   1.193  0.2301  0.9532  1.2913
 1118TIP3   OH2 3317   3.136   5.806   4.344 -0.0956 -0.3513  0.1760
 1118TIP3    H1 3318   3.127   5.774   4.433 -1.4705 -1.4415 -0.3109
 1118TIP3    H2 3319   3.181   5.735   4.298  1.3414  0.5389  0.1505
 1119TIP3   OH2 3320   0.125   0.126   5.656 -0.3371  0.2972  0.3481
 1119TIP3    H1 3321   0.069   0.051   5.675  1.8198 -1.7773 -0.9548
 1119TIP3    H2 3322   0.214   0.095   5.675  0.5926  2.7375  0.3224
 1120TIP3   OH2 3323   0.283   3.639   1.700 -0.1139  0.1722 -0.3026
 1120TIP3    H1 3324   0.214   3.685   1.748  0.9634  0.4596  1.0354
 1120TIP3    H2 3325   0.245   3.554   1.680 -0.3142 -0.3347  1.9265
 1121TIP3   OH2 3326   1.818   5.731   1.819  0.0487  0.0511 -0.1733
 1121TIP3    H1 3327   1.865   5.786   1.883  0.1439 -1.7942  1.4562
 1121TIP3    H2 3328   1.817   5.783   1.739 -1.9576  3.4874  1.8140
 1122TIP3   OH2 3329   1.673   5.282   0.411 -0.3549 -0.3206  0.3110
 1122TIP3    H1 3330   1.735   5.328   0.467 -0.5042  1.2095 -0.7242
 1122TIP3    H2 3331   1.711   5.194   0.401  1.8788  0.6729 -0.6043
 1123TIP3   OH2 3332   2.819   4.662   2.475  0.3360 -0.4857 -0.1092
 1123TIP3    H1 3333   2.904   4.705   2.461 -0.5774  1.1726 -0.8591
 1123TIP3    H2 3334   2.806   4.666   2.570  0.5532  0.3556 -0.1064
 1124TIP3   OH2 3335   1.861   4.284   4.554  0.2641  0.8285 -0.2639
 1124TIP3    H1 3336   1.908   4.350   4.503  0.6663  0.5967 -0.1986
 1124TIP3    H2 3337   1.926   4.216   4.571 -0.5685 -0.4131 -1.8014
 1125TIP3   OH2 3338   6.919   3.152   5.703  0.2242 -0.5767  0.1677
 1125TIP3    H1 3339   6.956   3.065   5.717  1.9864 -0.0280 -0.8049
 1125TIP3    H2 3340   6.888   3.151   5.612  1.4354  0.1976 -0.2741
 1126TIP3   OH2 3341   4.354   4.758   1.675 -0.0126  0.3293 -0.4230
 1126TIP3    H1 3342   4.281   4.819   1.666  0.4670  1.0620  0.4602
 1126TIP3    H2 3343   4.413   4.800   1.739  0.0329 -1.3479  0.6992
 1127TIP3   OH2 3344   4.511   1.690   3.565 -0.4733  0.3889 -0.2483
 1127TIP3    H1 3345   4.429   1.701   3.614 -0.6804  2.0984 -0.9178
 1127TIP3    H2 3346   4.546   1.779   3.557 -0.9765  0.3828 -4.0874
 1128TIP3   OH2 3347   6.768   3.343   2.637 -0.5006 -0.0527  0.7629
 1128TIP3    H1 3348   6.828   3.331   2.711  2.7666 -0.5063 -1.7297
 1128TIP3    H2 3349   6.774   3.437   2.617 -0.8796 -0.0468  0.6641
 1129TIP3   OH2 3350   3.208   2.063   3.997 -0.3639  0.2848 -0.3266
 1129TIP3    H1 3351   3.280   2.002   3.985 -0.1928  0.3796  0.2086
 1129TIP3    H2 3352   3.193   2.065   4.092 -1.3342 -0.0473 -0.4604
 1130TIP3   OH2 3353   1.018   6.273   0.536 -0.1110 -0.0917  0.2345
 1130TIP3    H1 3354   1.101   6.225   0.537 -0.3149 -0.6541 -2.4686
 1130TIP3    H2 3355   0.992   6.274   0.444 -2.0246  1.9796  0.7135
 1131TIP3   OH2 3356   6.361   5.202   1.973  0.0777 -0.4607  1.0324
 1131TIP3    H1 3357   6.447   5.214   2.014  0.3617  0.1088  0.2985
 1131TIP3    H2 3358   6.356   5.271   1.907 -0.8930 -0.5786  0.9719
 1132TIP3   OH2 3359   0.222   3.631   0.328 -0.1599  0.2289  0.6225
 1132TIP3    H1 3360   0.293   3.695   0.327  0.6624 -0.5997 -1.7311
 1132TIP3    H2 3361   0.246   3.569   0.397  1.8505 -0.4354 -0.5859
 1133TIP3   OH2 3362   5.095   3.731   0.450  0.1129  0.2250 -0.4629
 1133TIP3    H1 3363   5.080   3.650   0.498 -0.2547 -0.4397 -1.6652
 1133TIP3    H2 3364   5.189   3.747   0.459  0.2938 -0.6536 -0.6975
 1134TIP3   OH2 3365   1.533   4.280   5.552  0.2211 -0.2091  0.6099
 1134TIP3    H1 3366   1.579   4.291   5.469  1.0931  1.0584  1.2221
 1134TIP3    H2 3367   1.451   4.328   5.540  0.7163  0.7101  0.7268
 1135TIP3   OH2 3368   6.990   5.470   5.722 -0.0405 -0.0362  0.0233
 1135TIP3    H1 3369   6.932   5.542   5.745 -0.3272 -0.1465 -0.3258
 1135TIP3    H2 3370   6.979   5.460   5.627  0.6520  0.0242 -0.0683
 1136TIP3   OH2 3371   4.641   3.763   2.722  0.0387 -0.1630 -0.0315
 1136TIP3    H1 3372   4.564   3.739   2.671  0.1840 -1.5889  0.3882
 1136TIP3    H2 3373   4.713   3.762   2.659  0.1476 -1.5073  0.0946
 1137TIP3   OH2 3374   5.025   2.220   5.462  0.8365 -0.1092 -0.3600
 1137TIP3    H1 3375   4.982   2.189   5.542 -1.0257 -1.9614 -1.9694
 1137TIP3    H2 3376   4.975   2.298   5.437  0.3899 -0.4577 -0.5618
 1138TIP3   OH2 3377   1.486   4.097   1.273  0.2879  0.5292  0.2959
 1138TIP3    H1 3378   1.579   4.099   1.250  0.2522 -0.6293 -0.0289
 1138TIP3    H2 3379   1.484   4.123   1.365  1.0146 -0.0314  0.4799
 1139TIP3   OH2 3380   6.413   0.757   4.527 -0.2781  0.4138 -0.1205
 1139TIP3    H1 3381   6.363   0.677   4.518  0.5600 -0.3005  1.1465
 1139TIP3    H2 3382   6.360   0.813   4.584 -0.3906  0.3236 -0.1388
 1140TIP3   OH2 3383   2.354   5.831   4.044 -0.0990 -0.1586  0.1626
 1140TIP3    H1 3384   2.409   5.909   4.038 -0.7220  0.2809  0.0431
 1140TIP3    H2 3385   2.364   5.801   4.134  1.3702 -0.8705 -0.1991
 1141TIP3   OH2 3386   4.904   6.667   4.415  0.2952 -0.4526  0.5314
 1141TIP3    H1 3387   4.811   6.643   4.412 -0.4952  2.0586  1.4926
 1141TIP3    H2 3388   4.932   6.644   4.503 -0.8606  2.9279  1.9777
 1142TIP3   OH2 3389   5.936   3.163   3.280  0.2610 -0.1376  0.3792
 1142TIP3    H1 3390   5.978   3.247   3.297  0.2844 -0.2334  0.8178
 1142TIP3    H2 3391   6.009   3.101   3.274  0.1610 -0.4562  2.0295
 1143TIP3   OH2 3392   4.377   4.125   2.991 -0.4214  0.2433 -0.3540
 1143TIP3    H1 3393   4.361   4.047   2.938 -1.2556 -0.7624  1.2851
 1143TIP3    H2 3394   4.446   4.099   3.052  0.1040  1.1728 -0.5320
 1144TIP3   OH2 3395   5.792   0.602   5.844  0.0747  0.1647  0.2599
 1144TIP3    H1 3396   5.870   0.607   5.788 -1.1332 -0.1059 -1.5161
 1144TIP3    H2 3397   5.781   0.509   5.862  0.2882  0.2252  0.7215
 1145TIP3   OH2 3398   1.118   5.382   1.453  0.3564 -0.0240 -0.1426
 1145TIP3    H1 3399   1.114   5.477   1.457 -0.9724 -0.1162  2.3868
 1145TIP3    H2 3400   1.045   5.357   1.396 -0.6884  0.4222  0.9649
 1146TIP3   OH2 3401   4.821   2.791   5.212 -0.4213  0.0884  0.1552
 1146TIP3    H1 3402   4.751   2.796   5.278 -0.5220  1.3767 -0.0184
 1146TIP3    H2 3403   4.806   2.868   5.156  1.3924  0.6259  0.3676
 1147TIP3   OH2 3404   6.684   4.285   0.920  0.4195 -0.0431 -0.3269
 1147TIP3    H1 3405   6.721   4.219   0.978 -0.1637 -2.5704 -2.6053
 1147TIP3    H2 3406   6.596   4.252   0.899  0.3292  1.1363 -2.0161
 1148TIP3   OH2 3407   2.177   6.156   2.644 -0.4834 -0.3032 -0.3962
 1148TIP3    H1 3408   2.259   6.199   2.667 -0.0514 -0.7014 -1.1521
 1148TIP3    H2 3409   2.130   6.220   2.591 -0.4449 -0.2495 -0.3649
 1149TIP3   OH2 3410   7.169   0.479   4.647 -0.3714 -0.4597  0.1112
 1149TIP3    H1 3411   7.236   0.411   4.653 -1.1627 -1.2132  0.5610
 1149TIP3    H2 3412   7.197   0.546   4.709 -0.9847 -1.6244  1.7088
 1150TIP3   OH2 3413   5.942   5.195   5.292 -0.4790 -0.3196 -0.3979
 1150TIP3    H1 3414   6.015   5.177   5.232 -0.0236 -0.6487  0.2403
 1150TIP3    H2 3415   5.973   5.164   5.377 -0.6107  1.3025  0.2738
 1151TIP3   OH2 3416   5.866   5.013   4.762 -0.0784 -0.5612  0.1078
 1151TIP3    H1 3417   5.772   4.999   4.773  0.0887 -1.4253  0.5451
 1151TIP3    H2 3418   5.891   4.952   4.693 -0.1504  0.9780 -1.3200
 1152TIP3   OH2 3419   4.848   0.975   3.216  0.1675  0.5295 -0.9640
 1152TIP3    H1 3420   4.802   1.046   3.261  0.4386 -1.3380  2.6602
 1152TIP3    H2 3421   4.778   0.917   3.185 -0.0893 -0.5372  1.4192
 1153TIP3   OH2 3422   4.578   5.857   0.834  0.0338 -0.2081  0.0314
 1153TIP3    H1 3423   4.610   5.943   0.806 -0.3355 -0.3884 -0.9722
 1153TIP3    H2 3424   4.655   5.800   0.832  0.0294 -0.1997 -0.5565
 1154TIP3   OH2 3425   5.185   0.940   5.872 -0.3139 -0.0292 -0.7456
 1154TIP3    H1 3426   5.168   0.932   5.778  0.8705  1.9753 -1.1848
 1154TIP3    H2 3427   5.275   0.909   5.884 -0.8705 -1.4695 -0.0251
 1155TIP3   OH2 3428   2.302   1.402   5.720  0.4444  0.0999 -0.1791
 1155TIP3    H1 3429   2.327   1.405   5.627  1.8590 -0.2060  0.1645
 1155TIP3    H2 3430   2.363   1.340   5.759 -2.0906 -2.1885  0.4367
 1156TIP3   OH2 3431   3.533   3.378   3.710 -0.4808  0.2157 -0.4715
 1156TIP3    H1 3432   3.514   3.335   3.626  0.2823 -1.5275  0.2041
 1156TIP3    H2 3433   3.596   3.446   3.688  0.5170 -0.9035 -1.2029
 1157TIP3   OH2 3434   5.959   4.518   1.980 -0.5036 -0.1130  0.6358
 1157TIP3    H1 3435   5.991   4.453   1.917 -1.2710 -0.4867  0.6208
 1157TIP3    H2 3436   5.884   4.558   1.936 -0.6611  0.0676  1.0657
 1158TIP3   OH2 3437   2.975   6.302   4.339  0.5406 -0.0575  0.6392
 1158TIP3    H1 3438   2.894   6.314   4.289 -0.2382  0.6833  2.0178
 1158TIP3    H2 3439   2.980   6.208   4.353 -0.7879 -0.0171  1.6128
 1159TIP3   OH2 3440   3.921   1.554   4.235 -0.1593  0.5133 -0.0818
 1159TIP3    H1 3441   3.979   1.489   4.195  0.3891 -0.5239  2.2224
 1159TIP3    H2 3442   3.873   1.592   4.161  0.7288 -1.2888 -1.6785
 1160TIP3   OH2 3443   0.548   2.430   2.720  0.4649 -0.6280  0.5095
 1160TIP3    H1 3444   0.634   2.452   2.756 -0.5753 -0.6355  3.2350
 1160TIP3    H2 3445   0.508   2.373   2.785 -2.0659  0.3045 -0.0893
 1161TIP3   OH2 3446   2.626   0.448   0.894  0.1479 -0.4520 -0.4893
 1161TIP3    H1 3447   2.620   0.476   0.803  1.1097 -0.2171 -0.4824
 1161TIP3    H2 3448   2.702   0.390   0.897 -1.2875 -2.4193 -0.3264
 1162TIP3   OH2 3449   1.943   0.973   5.833  0.3886 -0.3009 -0.0194
 1162TIP3    H1 3450   1.999   0.956   5.909  0.6967 -0.7253 -0.3311
 1162TIP3    H2 3451   1.855   0.957   5.864  0.3009  1.5815  0.8198
 1163TIP3   OH2 3452   5.344   0.686   0.315  0.5323  0.2044  0.2863
 1163TIP3    H1 3453   5.362   0.611   0.258  0.4291  0.1783  0.2882
 1163TIP3    H2 3454   5.262   0.664   0.360 -0.3843  1.0050 -0.9080
 1164TIP3   OH2 3455   1.240   0.958   0.043 -0.1189 -0.3283  0.2583
 1164TIP3    H1 3456   1.249   0.928  -0.047 -0.8853 -0.4583  0.2242
 1164TIP3    H2 3457   1.317   1.013   0.057  0.5614 -1.1539 -0.1314
 1165TIP3   OH2 3458   6.168   6.567   4.875 -0.1984 -0.5271  0.7913
 1165TIP3    H1 3459   6.158   6.625   4.951  1.0446  0.6169  0.1230
 1165TIP3    H2 3460   6.230   6.501   4.903 -0.9857 -1.0843  1.2810
 1166TIP3   OH2 3461   7.026   0.704   1.993  0.0966  0.1655 -0.0206
 1166TIP3    H1 3462   7.001   0.785   1.949 -0.1196 -0.0002 -0.2037
 1166TIP3    H2 3463   7.022   0.637   1.924 -1.0641 -0.2521  0.4211
 1167TIP3   OH2 3464   4.647   3.148   4.078  0.8405  0.2069 -0.1080
 1167TIP3    H1 3465   4.635   3.103   4.162 -0.0138 -0.8288 -0.7547
 1167TIP3    H2 3466   4.694   3.229   4.100  0.5218  0.0133  1.3799
 1168TIP3   OH2 3467   4.183   5.771   0.374 -0.0934 -0.7944 -0.2923
 1168TIP3    H1 3468   4.108   5.715   0.396 -0.4877 -0.7490 -1.4583
 1168TIP3    H2 3469   4.256   5.733   0.423 -0.8354 -0.8979  0.7970
 1169TIP3   OH2 3470   1.209   3.143   3.609 -0.5243 -0.0243 -0.0600
 1169TIP3    H1 3471   1.237   3.226   3.648  0.9916 -0.5419  0.0523
 1169TIP3    H2 3472   1.134   3.165   3.554  0.5846  1.6665 -1.0012
 1170TIP3   OH2 3473   5.825   0.738   2.803  0.3550  0.1648  0.6307
 1170TIP3    H1 3474   5.743   0.748   2.852 -0.0161  0.7452 -0.0900
 1170TIP3    H2 3475   5.812   0.660   2.750 -0.1012  0.7758 -0.1741
 1171TIP3   OH2 3476   6.732   1.248   1.449 -0.8771 -0.1263  0.4816
 1171TIP3    H1 3477   6.784   1.325   1.470 -2.6387  1.5194 -0.9302
 1171TIP3    H2 3478   6.786   1.199   1.387 -0.7806  1.3308 -0.6269
 1172TIP3   OH2 3479   5.784   6.328   2.047  0.0698  0.4455 -0.0142
 1172TIP3    H1 3480   5.862   6.298   2.094 -0.4611  0.3189  0.7961
 1172TIP3    H2 3481   5.814   6.404   1.997  2.0100 -2.4581 -3.7694
 1173TIP3   OH2 3482   7.162   5.207   4.074  0.2346 -0.1628  0.2554
 1173TIP3    H1 3483   7.071   5.179   4.058 -0.2491  2.1424 -1.5305
 1173TIP3    H2 3484   7.214   5.151   4.017 -0.5726  1.4767 -2.2257
 1174TIP3   OH2 3485   2.664   1.506   4.764 -0.9435  0.1074 -0.2980
 1174TIP3    H1 3486   2.578   1.466   4.757 -0.8718 -0.5686  1.7871
 1174TIP3    H2 3487   2.722   1.433   4.786  0.3873  0.3848 -2.5955
 1175TIP3   OH2 3488   5.163   0.478   2.820  0.0224 -0.0782 -0.4850
 1175TIP3    H1 3489   5.080   0.434   2.840 -0.0403 -0.0884 -0.7645
 1175TIP3    H2 3490   5.169   0.549   2.884  0.8982 -1.4551  1.0484
 1176TIP3   OH2 3491   5.115   4.684   0.712  0.3385  0.0175 -0.1629
 1176TIP3    H1 3492   5.040   4.656   0.764 -0.5968  1.2166 -0.7893
 1176TIP3    H2 3493   5.145   4.604   0.669 -0.6234 -0.4915  0.0661
 1177TIP3   OH2 3494   4.007   0.422   1.337 -0.1330 -0.3483  0.2061
 1177TIP3    H1 3495   3.957   0.468   1.405 -0.5193  0.5825 -0.6717
 1177TIP3    H2 3496   4.000   0.330   1.360 -0.4859 -0.0691  1.2722
 1178TIP3   OH2 3497   4.816   2.788   1.089 -0.6003  0.2085 -0.2896
 1178TIP3    H1 3498   4.874   2.863   1.103  1.2483 -1.4780  1.7929
 1178TIP3    H2 3499   4.741   2.806   1.145  0.2708  0.1211  0.9547
 1179TIP3   OH2 3500   5.965   3.640   1.697  0.8861 -0.2045  0.3273
 1179TIP3    H1 3501   5.893   3.642   1.634  0.5276 -0.9459  0.7085
 1179TIP3    H2 3502   6.043   3.628   1.643  0.5015 -1.7544  0.0572
 1180TIP3   OH2 3503   4.327   5.279   2.756 -0.2033  0.3378 -0.8475
 1180TIP3    H1 3504   4.302   5.262   2.847  3.0237 -0.1457  0.0780
 1180TIP3    H2 3505   4.290   5.206   2.707 -1.5635  0.3354  0.1333
 1181TIP3   OH2 3506   0.915   0.081   0.235 -0.2176  0.4628  0.0289
 1181TIP3    H1 3507   0.951   0.029   0.163 -1.4814  1.0303 -1.0745
 1181TIP3    H2 3508   0.821   0.061   0.233 -0.5104  1.6813  0.4934
 1182TIP3   OH2 3509   5.846   2.487   0.457  1.0668 -0.6121 -0.3811
 1182TIP3    H1 3510   5.817   2.408   0.411 -1.1037  0.4127 -0.8692
 1182TIP3    H2 3511   5.915   2.524   0.401  1.9629 -1.9973 -0.2477
 1183TIP3   OH2 3512   5.976   1.051   1.866  0.6155 -0.4499 -0.2689
 1183TIP3    H1 3513   5.953   1.019   1.778  0.4499 -1.9954  0.2944
 1183TIP3    H2 3514   6.048   1.113   1.851 -0.9965  1.1720 -1.6837
 1184TIP3   OH2 3515   0.109   2.947   4.099  0.0152 -0.0230 -0.1547
 1184TIP3    H1 3516   0.029   2.896   4.103  0.2953 -0.4280  2.4282
 1184TIP3    H2 3517   0.088   3.029   4.145  0.7288  0.3750 -0.5170
 1185TIP3   OH2 3518   4.426   4.663   5.754 -0.0742  0.0477 -0.0503
 1185TIP3    H1 3519   4.456   4.585   5.708 -1.1575 -0.1598 -0.4297
 1185TIP3    H2 3520   4.338   4.680   5.719  0.2364  1.5915 -0.1669
 1186TIP3   OH2 3521   0.965   6.073   5.452  1.0126  0.0818 -0.0173
 1186TIP3    H1 3522   0.894   6.028   5.405  2.1625  0.6514 -2.4454
 1186TIP3    H2 3523   0.922   6.148   5.493  0.2772  0.8867 -2.1272
 1187TIP3   OH2 3524   0.981   4.178   0.875 -0.0291  0.2360 -0.5193
 1187TIP3    H1 3525   0.910   4.223   0.920  0.5028  0.7204 -0.1445
 1187TIP3    H2 3526   1.060   4.224   0.904  0.3109  0.7493 -2.1666
 1188TIP3   OH2 3527   3.488   1.383   1.372  0.2679 -0.1203 -0.6507
 1188TIP3    H1 3528   3.516   1.388   1.280  1.7829 -0.5845 -0.2579
 1188TIP3    H2 3529   3.527   1.460   1.413 -0.6810  0.2638 -0.4474
 1189TIP3   OH2 3530   6.446   5.695   4.608 -0.5489 -0.3240 -0.7874
 1189TIP3    H1 3531   6.411   5.729   4.691  0.8754 -0.0073 -0.2853
 1189TIP3    H2 3532   6.384   5.725   4.542 -0.2210  1.9260 -0.1753
 1190TIP3   OH2 3533   4.748   6.577   5.438 -0.6280  0.4909  0.0005
 1190TIP3    H1 3534   4.707   6.582   5.524  1.3552  0.3615  1.0278
 1190TIP3    H2 3535   4.676   6.564   5.377 -2.0049 -0.7086  1.7807
 1191TIP3   OH2 3536   4.288   5.713   1.482 -0.1826 -0.3354  0.4074
 1191TIP3    H1 3537   4.381   5.737   1.479 -0.6016  1.4534  0.4712
 1191TIP3    H2 3538   4.268   5.709   1.576 -0.0539 -1.2733  0.4022
 1192TIP3   OH2 3539   6.770   5.829   4.888  0.0267 -0.3279  0.3205
 1192TIP3    H1 3540   6.729   5.901   4.935 -0.7182 -0.7152  0.2847
 1192TIP3    H2 3541   6.736   5.750   4.929 -0.4189 -0.6712 -0.6647
 1193TIP3   OH2 3542   5.736   3.145   0.989  0.0177  0.4210 -0.3511
 1193TIP3    H1 3543   5.790   3.114   0.916 -1.1912 -0.1749 -1.0190
 1193TIP3    H2 3544   5.660   3.088   0.989 -0.6792  1.3059  0.5067
 1194TIP3   OH2 3545   5.907   0.626   4.262  0.1659 -0.3264 -0.1457
 1194TIP3    H1 3546   5.837   0.569   4.230 -1.2644  0.7744  0.8667
 1194TIP3    H2 3547   5.865   0.680   4.329  1.6653  1.3013 -0.4348
 1195TIP3   OH2 3548   3.467   6.814   0.967  0.1534  0.1814  0.5654
 1195TIP3    H1 3549   3.403   6.818   0.896 -0.2835  1.3604  1.0060
 1195TIP3    H2 3550   3.516   6.734   0.950 -1.1564 -0.5266 -0.0187
 1196TIP3   OH2 3551   4.416   0.983   3.049 -0.4692 -0.1182 -0.4996
 1196TIP3    H1 3552   4.440   1.015   2.963 -1.6224  0.3662 -0.6639
 1196TIP3    H2 3553   4.328   0.948   3.038  0.7217 -3.5411 -0.3580
 1197TIP3   OH2 3554   2.646   0.708   4.290  0.2416  0.3349 -1.0860
 1197TIP3    H1 3555   2.650   0.625   4.243  2.4111 -0.1039 -0.2505
 1197TIP3    H2 3556   2.730   0.714   4.335 -0.9241  1.7059  1.0786
 1198TIP3   OH2 3557   5.009   4.514   4.480 -0.2877  0.2537  0.1734
 1198TIP3    H1 3558   4.939   4.450   4.492  0.1412 -0.2960 -0.1280
 1198TIP3    H2 3559   4.993   4.581   4.545 -0.8133 -0.1190  0.4340
 1199TIP3   OH2 3560   3.446   5.119   2.064  0.2056  0.1448 -0.1663
 1199TIP3    H1 3561   3.431   5.035   2.108 -1.9585  0.9195  0.6979
 1199TIP3    H2 3562   3.436   5.184   2.133  1.0724  1.1922 -0.9861
 1200TIP3   OH2 3563   0.817   3.869   1.421 -0.1731  0.0541  0.4429
 1200TIP3    H1 3564   0.831   3.935   1.353 -2.2573 -1.4105 -1.5560
 1200TIP3    H2 3565   0.896   3.814   1.418  1.2541  1.9045  1.6346
 1201TIP3   OH2 3566   4.702   4.551   1.836  0.6822  0.3955  0.2639
 1201TIP3    H1 3567   4.639   4.564   1.906  0.3626  1.6519 -0.2284
 1201TIP3    H2 3568   4.784   4.530   1.880  0.2174 -0.0159  0.9483
 1202TIP3   OH2 3569   6.172   2.269   4.238  0.9594 -0.6163 -0.1656
 1202TIP3    H1 3570   6.105   2.201   4.239 -0.4234  0.4894  3.7858
 1202TIP3    H2 3571   6.123   2.351   4.227  1.3246  0.2916  3.6074
 1203TIP3   OH2 3572   1.205   6.345   5.435 -0.1206 -0.1841 -0.2786
 1203TIP3    H1 3573   1.274   6.383   5.489  0.4011  0.9042 -1.6536
 1203TIP3    H2 3574   1.128   6.399   5.454  0.0542  0.1756 -0.5635
 1204TIP3   OH2 3575   5.119   0.961   2.455 -0.0334 -0.3204 -0.1424
 1204TIP3    H1 3576   5.180   0.971   2.528 -0.1197 -0.2643 -0.0771
 1204TIP3    H2 3577   5.049   1.025   2.473 -0.0650 -0.3206 -0.2628
 1205TIP3   OH2 3578   4.401   2.669   1.371  0.1899 -0.8287  0.5567
 1205TIP3    H1 3579   4.467   2.650   1.438  1.0058 -0.4488 -0.1202
 1205TIP3    H2 3580   4.318   2.645   1.412  0.5452  0.4364  2.1369
 1206TIP3   OH2 3581   6.297   0.592   3.070 -0.4020  0.2393 -0.1021
 1206TIP3    H1 3582   6.288   0.501   3.044  1.6050 -0.5202  1.6090
 1206TIP3    H2 3583   6.382   0.619   3.034 -0.5944  1.1792  0.1181
 1207TIP3   OH2 3584   4.093   1.827   1.921  0.0080  0.1258 -0.3516
 1207TIP3    H1 3585   4.134   1.905   1.957 -0.4666  0.4244 -0.4479
 1207TIP3    H2 3586   4.159   1.758   1.931  1.8245  1.2202 -3.3246
 1208TIP3   OH2 3587   0.117   1.106   5.119 -0.7391 -0.2251 -0.7694
 1208TIP3    H1 3588   0.210   1.087   5.103 -0.6332  1.2661 -2.1637
 1208TIP3    H2 3589   0.077   1.102   5.032 -1.4664  1.6369 -0.5517
 1209TIP3   OH2 3590   2.949   0.742   4.864 -0.5603 -0.1754 -0.2803
 1209TIP3    H1 3591   3.026   0.785   4.828 -0.3016  0.6069  1.1339
 1209TIP3    H2 3592   2.875   0.793   4.829 -0.2782  1.1675  0.9556
 1210TIP3   OH2 3593   2.415   5.844   1.257  0.0910  0.1745 -0.0430
 1210TIP3    H1 3594   2.461   5.903   1.197  1.5572  0.1037  0.9553
 1210TIP3    H2 3595   2.485   5.807   1.311 -1.0479 -0.8309  0.7687
 1211TIP3   OH2 3596   0.886   1.869   0.533  0.1539  0.1465 -0.0822
 1211TIP3    H1 3597   0.938   1.944   0.503  0.4673  0.0348  0.1792
 1211TIP3    H2 3598   0.800   1.907   0.554  0.6891  0.6745  1.2794
 1212TIP3   OH2 3599   5.888   4.799   0.632  0.1667  0.8307 -0.1918
 1212TIP3    H1 3600   5.969   4.767   0.591  0.7663  2.1720 -0.1135
 1212TIP3    H2 3601   5.824   4.799   0.561  0.0397 -0.7708 -0.1287
 1213TIP3   OH2 3602   4.974   0.697   2.038 -0.6338 -0.5727 -0.1326
 1213TIP3    H1 3603   4.915   0.644   2.092 -1.8899 -0.0642 -0.9622
 1213TIP3    H2 3604   4.940   0.786   2.047 -1.0648 -0.5194 -1.9669
 1214TIP3   OH2 3605   3.200   0.599   3.352 -0.5090  0.0495  0.3735
 1214TIP3    H1 3606   3.267   0.573   3.289  1.3297 -0.2420  2.3253
 1214TIP3    H2 3607   3.214   0.542   3.427 -1.4823  1.4986  1.7162
 1215TIP3   OH2 3608   4.995   4.125   0.163  0.1511 -0.0676 -0.0856
 1215TIP3    H1 3609   4.982   4.051   0.223  0.7679  0.3305  0.5680
 1215TIP3    H2 3610   5.083   4.158   0.185 -0.3989  1.3006  0.1449
 1216TIP3   OH2 3611   2.317   3.082   5.367  0.0892 -0.3475 -0.1068
 1216TIP3    H1 3612   2.401   3.059   5.407 -0.7721 -2.4832  0.6594
 1216TIP3    H2 3613   2.264   3.002   5.375 -2.0505  0.9372 -0.4769
 1217TIP3   OH2 3614   5.209   5.614   5.597 -0.0104  0.0899 -0.2158
 1217TIP3    H1 3615   5.160   5.686   5.636  0.5997  0.4792 -0.1622
 1217TIP3    H2 3616   5.296   5.619   5.637  0.1966 -0.3548 -0.6003
 1218TIP3   OH2 3617   5.376   2.373   4.253  0.2856 -0.0100 -0.4264
 1218TIP3    H1 3618   5.291   2.406   4.281  0.1978  0.3736 -1.1303
 1218TIP3    H2 3619   5.393   2.298   4.311 -0.5837 -0.1707 -0.3679
 1219TIP3   OH2 3620   3.549   3.767   1.859 -0.1097  0.1451 -0.4529
 1219TIP3    H1 3621   3.611   3.840   1.868 -0.9101  1.0477 -1.9302
 1219TIP3    H2 3622   3.482   3.784   1.925 -1.2191  1.7765 -1.9017
 1220TIP3   OH2 3623   2.600   3.839   1.571  0.9189 -0.0522  0.2414
 1220TIP3    H1 3624   2.596   3.744   1.576  1.4856 -0.0444  1.2466
 1220TIP3    H2 3625   2.645   3.857   1.488  1.9998 -0.7066  0.6629
 1221TIP3   OH2 3626   6.429   4.101   4.312 -0.9912  0.3818 -0.4806
 1221TIP3    H1 3627   6.420   4.006   4.324 -0.1989  0.2842 -0.6145
 1221TIP3    H2 3628   6.349   4.126   4.265 -1.1302 -0.2477 -0.5939
 1222TIP3   OH2 3629   4.314   3.280   0.883  0.6306  0.0957 -0.1637
 1222TIP3    H1 3630   4.295   3.369   0.913 -1.0332  1.0175 -3.5019
 1222TIP3    H2 3631   4.249   3.226   0.927  1.8135  0.3735  2.0953
 1223TIP3   OH2 3632   4.558   5.300   3.628  0.2853 -0.3077  0.3049
 1223TIP3    H1 3633   4.496   5.227   3.639  0.8295 -0.7233  0.6434
 1223TIP3    H2 3634   4.522   5.351   3.555 -0.2711 -0.7371  0.2699
 1224TIP3   OH2 3635   0.986   0.809   0.462  0.1078  0.2783  0.6855
 1224TIP3    H1 3636   0.901   0.768   0.476  0.3802  0.0831  1.8944
 1224TIP3    H2 3637   0.997   0.868   0.536  0.2699  1.6273 -0.3787
 1225TIP3   OH2 3638   3.467   5.871   5.165  0.2429 -0.4248  0.0384
 1225TIP3    H1 3639   3.557   5.903   5.157 -0.3946  1.0794 -2.4394
 1225TIP3    H2 3640   3.413   5.947   5.142 -1.5927 -1.7848 -0.3800
 1226TIP3   OH2 3641   5.679   5.209   5.649 -0.2549  0.4422 -0.2507
 1226TIP3    H1 3642   5.697   5.208   5.555  1.0939  1.7299 -0.0555
 1226TIP3    H2 3643   5.641   5.296   5.664 -0.2717  0.3219  0.4105
 1227TIP3   OH2 3644   7.171   2.394   3.605 -0.3721 -0.1673  0.1335
 1227TIP3    H1 3645   7.258   2.364   3.577 -0.7300 -0.6714 -0.4529
 1227TIP3    H2 3646   7.120   2.314   3.614 -1.1195  0.2021 -0.6963
 1228TIP3   OH2 3647   2.736   3.976   3.857  0.3117  0.3237  0.1799
 1228TIP3    H1 3648   2.805   3.998   3.795  0.0553  1.3390  0.2339
 1228TIP3    H2 3649   2.762   3.891   3.894  1.0746  0.2859 -0.4281
 1229TIP3   OH2 3650   1.553   4.598   1.266  0.4602  0.0737  0.3856
 1229TIP3    H1 3651   1.613   4.547   1.214 -0.0300  0.2638 -0.3857
 1229TIP3    H2 3652   1.571   4.572   1.357  1.6229  0.0651  0.1676
 1230TIP3   OH2 3653   2.107   1.111   4.057  0.4499 -0.1746  0.3307
 1230TIP3    H1 3654   2.198   1.083   4.062  0.5686 -0.3556 -1.8637
 1230TIP3    H2 3655   2.071   1.092   4.143  1.9596 -1.9606  0.6231
 1231TIP3   OH2 3656   0.051   4.820   3.956  0.0278 -0.2173  0.0361
 1231TIP3    H1 3657  -0.013   4.765   4.001  2.3618 -2.3853  1.0023
 1231TIP3    H2 3658   0.106   4.856   4.026  0.7052  0.4533 -0.8084
 1232TIP3   OH2 3659   5.491   0.066   2.983  0.5664 -0.0655 -0.7383
 1232TIP3    H1 3660   5.424   0.130   2.960  0.5083 -0.4447 -1.7144
 1232TIP3    H2 3661   5.447   0.006   3.043  0.9414  1.3980  1.0737
 1233TIP3   OH2 3662   5.201   1.541   1.269  0.3597  0.2046  0.5097
 1233TIP3    H1 3663   5.245   1.494   1.199  0.0554 -0.1571  0.5577
 1233TIP3    H2 3664   5.217   1.634   1.250  2.6479  0.0919  1.4822
 1234TIP3   OH2 3665   6.296   1.537   2.698 -1.0513  0.6963 -0.3675
 1234TIP3    H1 3666   6.231   1.605   2.715 -1.2562  0.1004  1.4822
 1234TIP3    H2 3667   6.372   1.563   2.750 -1.0516 -0.3483  0.1853
 1235TIP3   OH2 3668   4.459   3.774   2.065 -0.0790 -0.0598  0.4908
 1235TIP3    H1 3669   4.460   3.835   1.991 -0.8715  1.1485  1.4324
 1235TIP3    H2 3670   4.546   3.784   2.104 -0.0866  0.2349  0.4381
 1236TIP3   OH2 3671   5.368   4.122   2.780 -0.1126 -0.3651 -0.8547
 1236TIP3    H1 3672   5.379   4.040   2.733  0.4900 -0.5666 -0.3871
 1236TIP3    H2 3673   5.362   4.096   2.872 -0.7998  0.0523 -0.7754
 1237TIP3   OH2 3674   4.720   5.498   4.352 -0.2211  0.2268  0.2271
 1237TIP3    H1 3675   4.766   5.423   4.315 -0.4144  0.4805 -0.5662
 1237TIP3    H2 3676   4.637   5.462   4.385  0.0356 -0.0386  0.5785
 1238TIP3   OH2 3677   4.833   1.997   0.951 -0.2408 -0.4767 -0.0716
 1238TIP3    H1 3678   4.860   2.050   1.026  1.2175 -0.0471 -0.8625
 1238TIP3    H2 3679   4.778   2.055   0.899 -0.0289 -0.2963 -0.0920
 1239TIP3   OH2 3680   6.623   3.675   5.663 -0.0596 -0.2311 -0.0247
 1239TIP3    H1 3681   6.596   3.680   5.755  1.8475  4.3218  0.5367
 1239TIP3    H2 3682   6.716   3.651   5.667  0.4395  1.5067 -0.5816
 1240TIP3   OH2 3683   6.505   4.109   5.606 -0.2933 -0.6300  0.6394
 1240TIP3    H1 3684   6.577   4.066   5.560 -1.3129 -1.2529 -0.4481
 1240TIP3    H2 3685   6.490   4.055   5.684  1.3544  0.3494  1.6780
 1241TIP3   OH2 3686   0.618   3.438   4.461  0.6579 -0.1085 -0.3129
 1241TIP3    H1 3687   0.632   3.489   4.381  0.0492  0.7783  0.1302
 1241TIP3    H2 3688   0.565   3.364   4.433 -0.4874  0.7750 -0.5575
 1242TIP3   OH2 3689   4.977   1.529   4.635  0.1091 -0.6010 -0.4748
 1242TIP3    H1 3690   4.949   1.571   4.554 -3.7868 -2.7959 -0.5129
 1242TIP3    H2 3691   5.072   1.517   4.625 -0.0749  0.0687 -4.2705
 1243TIP3   OH2 3692   6.637   4.771   3.076  0.0561 -0.4349 -0.3081
 1243TIP3    H1 3693   6.720   4.804   3.040 -0.8315 -0.1587 -2.2621
 1243TIP3    H2 3694   6.648   4.676   3.079  1.1937 -0.2769  1.5309
 1244TIP3   OH2 3695   0.170   5.713   0.215  0.3299  0.0580  0.2998
 1244TIP3    H1 3696   0.233   5.666   0.160  0.7032 -1.6130  2.0299
 1244TIP3    H2 3697   0.091   5.719   0.161  1.0417 -0.4415 -0.8438
 1245TIP3   OH2 3698   6.232   5.142   3.318 -0.2245  0.3791 -0.3764
 1245TIP3    H1 3699   6.204   5.194   3.243 -0.8293 -0.8354 -1.0206
 1245TIP3    H2 3700   6.236   5.052   3.285 -3.4367 -0.7204  1.7068
 1246TIP3   OH2 3701   6.368   1.378   0.586 -0.4417  0.2902 -0.0661
 1246TIP3    H1 3702   6.314   1.340   0.655  0.8108  0.4098  1.0245
 1246TIP3    H2 3703   6.353   1.321   0.510 -1.3754 -0.2024  0.4694
 1247TIP3   OH2 3704   0.318   6.091   2.800  0.5042 -0.1738 -0.3294
 1247TIP3    H1 3705   0.358   6.033   2.865 -0.0485  0.7663  0.8896
 1247TIP3    H2 3706   0.242   6.129   2.845  1.7751  2.7700 -0.4443
 1248TIP3   OH2 3707   4.433   4.018   5.146 -0.3323  0.3426 -0.0744
 1248TIP3    H1 3708   4.520   4.057   5.156 -0.8438  1.8028 -1.0277
 1248TIP3    H2 3709   4.402   4.002   5.235  0.9825 -0.4039  0.2743
 1249TIP3   OH2 3710   5.119   4.393   5.237 -0.1381 -0.0760  0.1229
 1249TIP3    H1 3711   5.191   4.456   5.239  0.8715 -1.1045 -1.4730
 1249TIP3    H2 3712   5.122   4.350   5.323 -0.4293  1.5455  0.9842
 1250TIP3   OH2 3713   0.095   4.415   1.619 -0.4870  0.3539 -0.4132
 1250TIP3    H1 3714   0.144   4.491   1.589  0.8911  0.5523  2.0533
 1250TIP3    H2 3715   0.103   4.417   1.715 -1.2690 -2.3231 -0.1967
 1251TIP3   OH2 3716   1.273   1.102   3.618  0.1635 -0.3804 -0.5139
 1251TIP3    H1 3717   1.198   1.059   3.660 -1.1228  1.1806 -1.0741
 1251TIP3    H2 3718   1.257   1.090   3.524 -0.6081  1.7517 -0.7268
 1252TIP3   OH2 3719   7.222   1.602   1.701 -0.3586 -0.0860  0.5770
 1252TIP3    H1 3720   7.257   1.609   1.790 -0.8653  0.9572  0.7090
 1252TIP3    H2 3721   7.136   1.642   1.706 -0.9675 -1.2458 -0.0883
 1253TIP3   OH2 3722   4.130   0.660   3.960  0.6122 -0.0580 -0.4997
 1253TIP3    H1 3723   4.068   0.645   3.889 -0.3572 -1.2762  0.5582
 1253TIP3    H2 3724   4.207   0.607   3.938  0.0063 -1.0442 -0.2794
 1254TIP3   OH2 3725   6.068   0.557   5.306  0.3697 -0.4408 -0.3990
 1254TIP3    H1 3726   6.026   0.556   5.220 -0.9416  0.0576  0.2079
 1254TIP3    H2 3727   5.998   0.538   5.368  1.0329  0.3768  0.6526
 1255TIP3   OH2 3728   4.397   1.135   4.462  0.0324 -0.3703  0.2220
 1255TIP3    H1 3729   4.368   1.117   4.551 -2.4363 -0.1288 -0.4617
 1255TIP3    H2 3730   4.493   1.138   4.468 -0.0625  1.6737  3.2770
 1256TIP3   OH2 3731   5.007   2.839   3.552  0.2577 -0.5841 -0.5315
 1256TIP3    H1 3732   4.992   2.903   3.622 -1.8939 -2.2234  0.6187
 1256TIP3    H2 3733   5.008   2.891   3.472  0.5940  1.1037  0.5139
 1257TIP3   OH2 3734   2.489   4.073   4.329 -0.6805 -0.4885 -0.1492
 1257TIP3    H1 3735   2.529   4.036   4.408 -2.0708  0.2519  0.9502
 1257TIP3    H2 3736   2.553   4.056   4.260 -0.0830 -2.5177  0.8174
 1258TIP3   OH2 3737   4.980   6.426   5.060  0.0809 -0.1710  0.2455
 1258TIP3    H1 3738   4.892   6.390   5.047  0.1459 -1.2996  2.4815
 1258TIP3    H2 3739   4.971   6.519   5.040 -1.3585 -0.4642 -0.6040
 1259TIP3   OH2 3740   1.201   2.650   3.231  0.3757 -0.1013 -0.2085
 1259TIP3    H1 3741   1.179   2.736   3.197  1.6574 -0.0312 -0.9463
 1259TIP3    H2 3742   1.275   2.665   3.290  0.8273 -0.7101 -0.6007
 1260TIP3   OH2 3743   0.207   1.656   0.166 -0.4149  0.3289 -0.3691
 1260TIP3    H1 3744   0.275   1.588   0.163  0.1095  0.7691  0.7233
 1260TIP3    H2 3745   0.256   1.738   0.159 -0.5741  0.7454  2.3048
 1261TIP3   OH2 3746   6.601   2.473   2.937 -0.1528 -0.1468  0.3900
 1261TIP3    H1 3747   6.651   2.496   2.858  2.0647 -1.3790  1.3361
 1261TIP3    H2 3748   6.606   2.551   2.992  2.6156 -0.8212  1.2981
 1262TIP3   OH2 3749   2.758   6.199   3.193  0.1241 -0.0449 -0.0905
 1262TIP3    H1 3750   2.719   6.229   3.112  1.1549  1.3228 -0.1210
 1262TIP3    H2 3751   2.684   6.186   3.253 -0.4804  0.9657 -0.6017
 1263TIP3   OH2 3752   4.701   2.252   0.827  0.1425 -0.2434  1.0537
 1263TIP3    H1 3753   4.634   2.304   0.873 -0.1297 -2.0195  2.7840
 1263TIP3    H2 3754   4.653   2.210   0.756 -0.4277 -0.8323  1.7650
 1264TIP3   OH2 3755   5.734   4.067   1.887 -0.1320 -0.3906 -0.0506
 1264TIP3    H1 3756   5.685   3.988   1.863 -2.1694  0.6998  0.3017
 1264TIP3    H2 3757   5.721   4.075   1.982  2.6396 -1.2458  0.5058
 1265TIP3   OH2 3758   7.172   1.945   1.841  0.7486 -0.0760  0.0676
 1265TIP3    H1 3759   7.099   1.959   1.901  0.3740  0.5892 -0.5391
 1265TIP3    H2 3760   7.194   2.032   1.809  1.3637 -0.3533 -0.2802
 1266TIP3   OH2 3761   4.111   1.678   1.104 -0.0239  0.1257  0.2398
 1266TIP3    H1 3762   4.126   1.583   1.096 -2.0825 -0.2695  0.5181
 1266TIP3    H2 3763   4.157   1.702   1.184  0.3527 -0.6837  0.2821
 1267TIP3   OH2 3764   4.870   2.621   1.502  0.3648  0.3175 -0.1045
 1267TIP3    H1 3765   4.912   2.610   1.417  1.1643  2.4439 -0.0547
 1267TIP3    H2 3766   4.836   2.711   1.501 -2.4493 -0.6230  0.6542
 1268TIP3   OH2 3767   0.692   3.533   4.738 -0.1497 -0.1058  0.0890
 1268TIP3    H1 3768   0.715   3.624   4.752 -0.5908  0.0221 -0.0084
 1268TIP3    H2 3769   0.656   3.530   4.649  3.5170 -1.0656 -1.5560
 1269TIP3   OH2 3770   0.608   1.455   1.527  0.1699 -0.0059 -0.1988
 1269TIP3    H1 3771   0.637   1.378   1.478  0.2049  0.6563 -1.2606
 1269TIP3    H2 3772   0.688   1.506   1.542 -0.1124  0.8312 -1.3521
 1270TIP3   OH2 3773   6.155   0.117   0.774  0.0782  0.2998 -0.6360
 1270TIP3    H1 3774   6.245   0.085   0.779 -0.0298 -0.1612 -1.3992
 1270TIP3    H2 3775   6.103   0.047   0.813  0.1208  0.9834  0.6990
 1271TIP3   OH2 3776   3.846   4.735   0.432 -0.1652  0.3235 -0.2221
 1271TIP3    H1 3777   3.755   4.763   0.443  0.1112  0.9008  0.6631
 1271TIP3    H2 3778   3.857   4.662   0.493 -0.5449 -1.0211 -1.6825
 1272TIP3   OH2 3779   6.821   0.553   0.167 -0.4791 -0.4135  0.0327
 1272TIP3    H1 3780   6.835   0.462   0.193 -0.9945 -0.4371  0.2404
 1272TIP3    H2 3781   6.846   0.604   0.245 -1.5383 -0.4565  0.4071
 1273TIP3   OH2 3782   3.975   1.123   1.981 -0.0554 -0.3045  0.1861
 1273TIP3    H1 3783   3.973   1.185   1.907  0.6733 -2.0855 -1.4221
 1273TIP3    H2 3784   3.889   1.081   1.980  0.1558 -0.7348 -0.0202
 1274TIP3   OH2 3785   6.731   3.273   3.296  0.2573  0.4942  0.3710
 1274TIP3    H1 3786   6.654   3.283   3.352 -1.0377  0.8316 -1.3845
 1274TIP3    H2 3787   6.741   3.359   3.254 -0.7791 -0.5751 -2.2623
 1275TIP3   OH2 3788   0.618   5.741   3.584  0.1248 -0.3647 -0.0008
 1275TIP3    H1 3789   0.581   5.683   3.650  0.7248 -1.2596 -0.4375
 1275TIP3    H2 3790   0.542   5.780   3.541 -0.2936 -1.0491  0.1019
 1276TIP3   OH2 3791   2.412   1.395   4.736  0.0308 -0.0471 -0.0533
 1276TIP3    H1 3792   2.349   1.448   4.689 -1.3487 -0.5418  1.1590
 1276TIP3    H2 3793   2.386   1.304   4.717  0.3803 -0.2560  0.4504
 1277TIP3   OH2 3794   0.060   0.313   1.552 -0.2918  0.1837  0.0734
 1277TIP3    H1 3795   0.016   0.316   1.637 -0.7608  1.4739 -0.1859
 1277TIP3    H2 3796   0.152   0.298   1.573 -0.7920 -2.8216  0.6156
 1278TIP3   OH2 3797   4.166   6.694   1.917 -0.3334 -0.6369 -0.0733
 1278TIP3    H1 3798   4.136   6.753   1.847  0.4454  0.3079  0.3614
 1278TIP3    H2 3799   4.091   6.690   1.977  0.4320  2.0450  1.2228
 1279TIP3   OH2 3800   7.207   5.314   1.060 -0.2272  0.5419 -0.0062
 1279TIP3    H1 3801   7.205   5.288   1.152 -0.2272 -0.1396 -0.1929
 1279TIP3    H2 3802   7.127   5.365   1.047  0.4431  1.8069  0.6968
 1280TIP3   OH2 3803   0.908   4.135   5.626  0.2711 -0.3300  0.0945
 1280TIP3    H1 3804   0.879   4.189   5.553 -2.2049 -0.9968  0.4791
 1280TIP3    H2 3805   0.989   4.095   5.596 -0.0945  0.2832 -1.8443
 1281TIP3   OH2 3806   6.465   3.598   4.870  0.2822  0.2377 -0.1884
 1281TIP3    H1 3807   6.397   3.661   4.895 -0.9881 -0.7686 -0.9222
 1281TIP3    H2 3808   6.546   3.635   4.904 -0.1840  2.9429 -1.6682
 1282TIP3   OH2 3809   4.516   1.960   4.992 -0.1448 -0.2153 -0.0164
 1282TIP3    H1 3810   4.572   2.033   4.963 -0.5768 -0.0388 -0.4057
 1282TIP3    H2 3811   4.442   2.003   5.034  0.0131 -0.4532  0.5103
 1283TIP3   OH2 3812   6.359   5.168   0.767  0.3788  0.1545 -0.2605
 1283TIP3    H1 3813   6.357   5.072   0.757  2.1522 -0.0333  0.7691
 1283TIP3    H2 3814   6.295   5.200   0.704  1.0316 -1.6234 -1.9253
 1284TIP3   OH2 3815   5.657   0.991   1.641  0.1606 -0.0150  0.4202
 1284TIP3    H1 3816   5.639   0.919   1.581  2.6638  0.6255 -1.2455
 1284TIP3    H2 3817   5.666   0.950   1.726  1.0039 -1.6325 -0.4106
 1285TIP3   OH2 3818   1.266   1.987   3.296  0.1864 -0.3086  0.0360
 1285TIP3    H1 3819   1.226   2.069   3.267 -0.9817 -0.3377  1.4592
 1285TIP3    H2 3820   1.357   1.992   3.265 -0.5050  0.3769 -2.0776
 1286TIP3   OH2 3821   6.191   3.420   2.173  0.0046 -0.2442  0.3208
 1286TIP3    H1 3822   6.179   3.447   2.264 -1.0530  0.9063 -0.1402
 1286TIP3    H2 3823   6.260   3.476   2.140  1.0971 -1.3344  0.6572
 1287TIP3   OH2 3824   0.683   4.622   0.505 -0.4692 -0.2896  0.0076
 1287TIP3    H1 3825   0.725   4.578   0.579 -0.4885  2.4488  1.7736
 1287TIP3    H2 3826   0.609   4.565   0.482  0.0881 -1.6779  1.4782
 1288TIP3   OH2 3827   1.280   5.601   4.718 -0.0390  0.3169 -0.7081
 1288TIP3    H1 3828   1.323   5.671   4.669 -1.5205  0.9517 -1.1322
 1288TIP3    H2 3829   1.265   5.532   4.653  0.4362  0.0308 -0.5259
 1289TIP3   OH2 3830   3.059   1.542   0.515 -0.4875 -0.3660 -0.4609
 1289TIP3    H1 3831   3.138   1.591   0.539  0.7508 -1.2053 -2.5297
 1289TIP3    H2 3832   3.069   1.458   0.560 -1.0715  0.1067  0.5986
 1290TIP3   OH2 3833   1.457   2.545   5.755  0.3553 -0.2617  0.2532
 1290TIP3    H1 3834   1.499   2.627   5.727  1.2719 -1.0160 -0.6975
 1290TIP3    H2 3835   1.442   2.498   5.673  0.2948 -1.2477  0.8199
 1291TIP3   OH2 3836   0.838   3.255   5.391 -0.1694 -0.2294  0.2228
 1291TIP3    H1 3837   0.885   3.179   5.426 -0.8090 -0.7526 -0.0237
 1291TIP3    H2 3838   0.811   3.305   5.468  0.9107  0.1613  0.3625
 1292TIP3   OH2 3839   2.829   1.807   2.576  0.0434  0.0286 -0.4062
 1292TIP3    H1 3840   2.915   1.834   2.608 -0.9310  1.2287  1.3530
 1292TIP3    H2 3841   2.805   1.875   2.513 -1.7510  2.7502  2.9070
 1293TIP3   OH2 3842   4.593   5.401   3.208  0.0738  0.5707  0.0199
 1293TIP3    H1 3843   4.667   5.419   3.150  1.1462  0.1023  1.2026
 1293TIP3    H2 3844   4.517   5.399   3.150  0.6184  3.4061 -0.9219
 1294TIP3   OH2 3845   6.386   1.471   2.372  0.1286  0.2552  0.2896
 1294TIP3    H1 3846   6.334   1.411   2.425 -0.1605  1.1590  1.0653
 1294TIP3    H2 3847   6.427   1.530   2.436  0.1797  1.0522 -0.4571
 1295TIP3   OH2 3848   4.874   5.719   4.075 -0.1156  0.0941  0.1209
 1295TIP3    H1 3849   4.940   5.660   4.038  0.4856 -1.1870  2.9819
 1295TIP3    H2 3850   4.858   5.685   4.163 -3.4605  1.3192  0.1173
 1296TIP3   OH2 3851   0.774   2.901   5.158  0.5315  0.7444  0.1754
 1296TIP3    H1 3852   0.821   2.882   5.077  1.9805  0.5565  1.0103
 1296TIP3    H2 3853   0.723   2.980   5.139  0.0003  0.0804 -1.2187
 1297TIP3   OH2 3854   5.283   4.462   2.964 -0.2807 -0.0632  0.7141
 1297TIP3    H1 3855   5.214   4.497   2.907 -1.6367 -1.7921  1.2116
 1297TIP3    H2 3856   5.304   4.377   2.925  3.6488  1.4537 -1.0742
 1298TIP3   OH2 3857   4.196   2.909   1.992 -0.1119  0.0261 -0.2094
 1298TIP3    H1 3858   4.172   2.989   2.038  0.5776 -0.5301  1.1862
 1298TIP3    H2 3859   4.114   2.861   1.981 -0.1053 -0.6240  2.0633
 1299TIP3   OH2 3860   5.522   0.562   4.522 -0.3824  0.1765 -0.0222
 1299TIP3    H1 3861   5.590   0.521   4.576  1.7552  1.4952 -1.5628
 1299TIP3    H2 3862   5.492   0.637   4.575  2.6761  2.2882 -1.0414
 1300TIP3   OH2 3863   4.144   3.856   1.370 -0.0565 -0.6237  0.7156
 1300TIP3    H1 3864   4.073   3.795   1.350 -0.2811  0.0131 -0.4741
 1300TIP3    H2 3865   4.121   3.937   1.325  0.2776  0.3475  2.2042
 1301TIP3   OH2 3866   4.010   4.130   5.597 -0.3264  0.2800 -0.1101
 1301TIP3    H1 3867   4.001   4.106   5.505  1.4244 -0.3993 -0.1423
 1301TIP3    H2 3868   4.059   4.213   5.595 -0.3313  0.2903  0.2077
 1302TIP3   OH2 3869   4.945   1.372   2.629  0.5768 -0.4422  0.0868
 1302TIP3    H1 3870   5.011   1.413   2.685 -0.2991 -0.4843  1.1962
 1302TIP3    H2 3871   4.916   1.441   2.571  0.2431  0.1087  0.8891
 1303TIP3   OH2 3872   5.583   2.151   4.592  0.6979  0.5332  0.4153
 1303TIP3    H1 3873   5.519   2.222   4.589 -0.1485 -0.2105  0.4767
 1303TIP3    H2 3874   5.611   2.148   4.683  0.6941  0.7530  0.4242
 1304TIP3   OH2 3875   3.863   2.795   1.624  0.0070 -0.1890 -0.1341
 1304TIP3    H1 3876   3.933   2.847   1.663  0.4453 -1.5654  1.0382
 1304TIP3    H2 3877   3.784   2.847   1.635  0.5393  0.5298  0.3392
 1305TIP3   OH2 3878   1.946   4.109   5.191  0.1676 -0.1718  0.1429
 1305TIP3    H1 3879   1.904   4.082   5.273  0.8451  0.7619  0.8196
 1305TIP3    H2 3880   2.040   4.106   5.209  0.3073  1.2521 -0.1618
 1306TIP3   OH2 3881   4.044   4.920   1.251  0.2135 -0.5432 -0.4769
 1306TIP3    H1 3882   3.953   4.923   1.224 -0.4819 -2.0748  1.5116
 1306TIP3    H2 3883   4.065   4.827   1.257  1.5025 -0.2341  0.3169
 1307TIP3   OH2 3884   3.723   5.202   3.181 -0.0879 -0.1286 -0.1942
 1307TIP3    H1 3885   3.697   5.130   3.238 -1.4392  0.1410 -0.4205
 1307TIP3    H2 3886   3.772   5.160   3.110 -0.1316 -0.7098  0.1133
 1308TIP3   OH2 3887   4.824   5.736   1.566 -0.3748  0.4399  0.0408
 1308TIP3    H1 3888   4.842   5.814   1.619  2.0070  0.4535 -0.6713
 1308TIP3    H2 3889   4.893   5.674   1.590  1.2975  0.6993 -3.4477
 1309TIP3   OH2 3890   5.429   0.886   5.483  0.7569  0.2253  0.1059
 1309TIP3    H1 3891   5.451   0.862   5.573 -0.4702 -0.1080  0.3396
 1309TIP3    H2 3892   5.468   0.817   5.429  0.9203  0.0609  0.4326
 1310TIP3   OH2 3893   1.825   5.212   3.158  0.1180 -0.3868 -0.3184
 1310TIP3    H1 3894   1.883   5.166   3.218 -0.5093 -1.2998 -0.3849
 1310TIP3    H2 3895   1.876   5.287   3.128  1.2692 -1.1797 -0.4023
 1311TIP3   OH2 3896   6.375   3.948   5.797 -0.2181 -0.3828 -0.3707
 1311TIP3    H1 3897   6.340   3.999   5.870 -0.1867  1.0202 -1.2952
 1311TIP3    H2 3898   6.305   3.949   5.731 -0.4301 -2.0302 -0.2143
 1312TIP3   OH2 3899   0.341   3.696   2.148 -0.2770  0.4896  0.4899
 1312TIP3    H1 3900   0.294   3.655   2.220 -3.6821  0.0022 -1.7828
 1312TIP3    H2 3901   0.406   3.631   2.121 -1.2163 -0.7013  1.0280
 1313TIP3   OH2 3902   4.087   1.793   2.573  0.0176  0.5003 -0.2366
 1313TIP3    H1 3903   4.100   1.809   2.479  1.8526  0.4340 -0.0305
 1313TIP3    H2 3904   4.173   1.810   2.612 -1.0400  1.8601  1.6331
 1314TIP3   OH2 3905   6.925   3.780   0.704  0.4356 -0.2016  0.4928
 1314TIP3    H1 3906   6.920   3.780   0.609  1.7313 -0.8941  0.3954
 1314TIP3    H2 3907   6.899   3.692   0.730  0.8884 -0.2741  0.7153
 1315TIP3   OH2 3908   2.590   0.663   4.654  0.2783  0.0944 -0.6713
 1315TIP3    H1 3909   2.584   0.657   4.750  1.6133 -1.3603 -0.6561
 1315TIP3    H2 3910   2.658   0.729   4.639  1.0050 -0.6217 -0.5849
 1316TIP3   OH2 3911   2.807   1.868   4.203 -0.4008 -0.0882  0.3997
 1316TIP3    H1 3912   2.726   1.820   4.219 -0.2919 -0.7800 -1.0133
 1316TIP3    H2 3913   2.816   1.925   4.279 -2.7501  0.7574  0.1369
 1317TIP3   OH2 3914   3.521   5.035   5.547  0.3093 -0.2514 -0.1359
 1317TIP3    H1 3915   3.479   5.121   5.542 -1.3044 -0.9610  0.6138
 1317TIP3    H2 3916   3.541   5.014   5.456 -0.4355  0.3714 -0.4583
 1318TIP3   OH2 3917   1.062   1.818   4.591  0.2561 -0.4907  0.3815
 1318TIP3    H1 3918   1.127   1.755   4.560 -0.2286 -0.5908 -0.4722
 1318TIP3    H2 3919   0.978   1.777   4.572 -0.0945  0.8861 -1.2803
 1319TIP3   OH2 3920   5.383   6.234   5.191  0.1075  0.0232  0.4377
 1319TIP3    H1 3921   5.334   6.156   5.166 -1.5377  1.1224  0.1071
 1319TIP3    H2 3922   5.437   6.254   5.114 -0.8943  0.2765 -0.2256
 1320TIP3   OH2 3923   6.660   5.690   3.278 -0.0121 -0.0106 -0.2346
 1320TIP3    H1 3924   6.614   5.618   3.320  1.4245 -0.4438  0.6322
 1320TIP3    H2 3925   6.623   5.769   3.318  0.3052 -0.3710  0.7832
 1321TIP3   OH2 3926   6.741   1.946   3.067  0.1708  0.3305 -0.0831
 1321TIP3    H1 3927   6.736   1.997   2.986  0.7542 -1.0983 -1.0409
 1321TIP3    H2 3928   6.731   2.012   3.136  0.0731  1.6389 -1.2865
 1322TIP3   OH2 3929   6.558   5.906   2.888  0.1257 -0.0468  0.0539
 1322TIP3    H1 3930   6.582   5.820   2.924 -0.8830  0.3712  1.8751
 1322TIP3    H2 3931   6.476   5.890   2.841 -0.4416 -0.0081  0.9841
 1323TIP3   OH2 3932   1.240   2.557   3.893  0.1713  0.4118 -0.2030
 1323TIP3    H1 3933   1.145   2.563   3.887  0.0659 -0.5334  0.2619
 1323TIP3    H2 3934   1.258   2.463   3.886  1.0194  0.5229  0.3132
 1324TIP3   OH2 3935   0.147   0.637   3.534  0.3606 -0.2118 -0.3969
 1324TIP3    H1 3936   0.085   0.565   3.545 -0.5330  0.4111 -1.2503
 1324TIP3    H2 3937   0.172   0.660   3.624  0.0705 -1.0746 -0.0821
 1325TIP3   OH2 3938   1.612   4.935   2.737  0.4512 -0.8216  0.8055
 1325TIP3    H1 3939   1.600   5.010   2.796 -0.9165 -2.8288  3.2628
 1325TIP3    H2 3940   1.556   4.955   2.662 -0.8412  0.1486  1.9573
 1326TIP3   OH2 3941   5.052   5.154   3.708 -0.4192 -0.7913  0.1797
 1326TIP3    H1 3942   5.109   5.230   3.698 -0.7634 -0.7202 -1.7003
 1326TIP3    H2 3943   4.966   5.190   3.727 -0.0872 -0.8564  1.9570
 1327TIP3   OH2 3944   7.167   2.997   2.890  0.1398  0.1066 -0.1273
 1327TIP3    H1 3945   7.225   2.926   2.864 -0.5080 -0.7231  0.6340
 1327TIP3    H2 3946   7.079   2.963   2.876 -0.2027  0.2716  1.4404
 1328TIP3   OH2 3947   0.123   4.691   5.711 -0.3656  0.5032  0.5123
 1328TIP3    H1 3948   0.084   4.605   5.727 -0.7304  0.9940  2.5892
 1328TIP3    H2 3949   0.085   4.719   5.627  0.6693 -1.8006 -0.8161
 1329TIP3   OH2 3950   3.492   2.499   3.800  0.3387  0.6895 -0.3101
 1329TIP3    H1 3951   3.587   2.513   3.797  0.7133 -1.6476 -0.7580
 1329TIP3    H2 3952   3.481   2.411   3.836 -1.6341  0.5745 -1.0773
 1330TIP3   OH2 3953   3.969   5.633   4.162  0.7837 -0.4795 -0.2692
 1330TIP3    H1 3954   3.957   5.539   4.179 -0.2164 -0.3204 -0.0803
 1330TIP3    H2 3955   3.936   5.646   4.074  0.6009 -0.2387 -0.1658
 1331TIP3   OH2 3956   6.265   4.579   3.008 -0.1682 -0.3962 -0.0810
 1331TIP3    H1 3957   6.276   4.674   3.005  2.0449 -0.5464  1.1888
 1331TIP3    H2 3958   6.171   4.567   3.024 -0.2415  1.6601  1.5579
 1332TIP3   OH2 3959   5.729   6.098   0.225  0.0346  0.4078 -0.0404
 1332TIP3    H1 3960   5.732   6.193   0.233  1.0547  0.2678  1.6824
 1332TIP3    H2 3961   5.649   6.072   0.270  0.5645  0.3570  0.8951
 1333TIP3   OH2 3962   1.852   6.378   1.065 -0.5503  0.3855  0.6342
 1333TIP3    H1 3963   1.938   6.417   1.081 -0.4521  0.3981  0.1089
 1333TIP3    H2 3964   1.862   6.286   1.088 -0.4138  0.4005  0.6351
 1334TIP3   OH2 3965   3.577   0.518   4.383 -0.1433  0.3763  0.3954
 1334TIP3    H1 3966   3.602   0.442   4.436  2.1458  1.0161  0.3589
 1334TIP3    H2 3967   3.636   0.515   4.308 -2.0651  0.5557 -1.1969
 1335TIP3   OH2 3968   5.739   4.737   4.900 -0.4620 -0.3460 -0.8602
 1335TIP3    H1 3969   5.809   4.682   4.865 -0.7575  0.0190 -2.0702
 1335TIP3    H2 3970   5.719   4.698   4.986 -0.6281 -2.0793 -1.6437
 1336TIP3   OH2 3971   1.046   3.417   0.242  0.3606 -0.2295 -0.5501
 1336TIP3    H1 3972   1.123   3.440   0.294  0.3237  1.2745 -1.1107
 1336TIP3    H2 3973   0.992   3.365   0.301  0.1540  1.7036  1.0672
 1337TIP3   OH2 3974   6.384   6.521   0.987  0.2541  0.0054  0.0835
 1337TIP3    H1 3975   6.388   6.426   0.999  0.3263 -0.1344 -0.9211
 1337TIP3    H2 3976   6.474   6.551   0.994  0.3632 -0.1454 -0.5620
 1338TIP3   OH2 3977   7.078   4.199   4.407  0.8686 -0.4950 -0.0392
 1338TIP3    H1 3978   7.088   4.260   4.333  2.0839 -0.7240 -0.0782
 1338TIP3    H2 3979   7.028   4.249   4.472  0.9764  0.1889 -0.4699
 1339TIP3   OH2 3980   2.318   4.638   5.114  0.0236  0.8319  0.0573
 1339TIP3    H1 3981   2.329   4.545   5.094 -0.4111  0.4590  1.4755
 1339TIP3    H2 3982   2.327   4.644   5.209 -0.6853  2.1308  0.0665
 1340TIP3   OH2 3983   3.057   0.380   5.841  0.7292  0.2173 -0.2301
 1340TIP3    H1 3984   3.138   0.418   5.877  1.3847 -1.9012  0.7222
 1340TIP3    H2 3985   3.023   0.326   5.913 -0.5552 -0.3383 -1.2272
 1341TIP3   OH2 3986   4.657   0.287   4.293  0.7621 -0.1561 -0.1054
 1341TIP3    H1 3987   4.564   0.268   4.295  0.5408  0.9232  1.3698
 1341TIP3    H2 3988   4.679   0.293   4.200 -0.8360  0.4996 -0.4599
 1342TIP3   OH2 3989   2.856   2.486   1.230 -0.1195 -0.4231  0.3182
 1342TIP3    H1 3990   2.907   2.408   1.212  0.8622  0.4748 -1.0094
 1342TIP3    H2 3991   2.871   2.543   1.155 -1.0599  0.9169  1.0883
 1343TIP3   OH2 3992   4.037   2.699   1.021  0.2089  0.1692  0.3014
 1343TIP3    H1 3993   4.055   2.755   0.945 -0.1706  0.1235  0.1767
 1343TIP3    H2 3994   3.942   2.690   1.022  0.2605 -0.4169  0.3605
 1344TIP3   OH2 3995   3.832   5.657   5.744 -0.5305 -0.2356 -0.7001
 1344TIP3    H1 3996   3.885   5.708   5.682 -0.4635 -0.5329 -0.8879
 1344TIP3    H2 3997   3.742   5.674   5.716 -0.5433  0.3406 -0.3261
 1345TIP3   OH2 3998   1.404   1.992   4.642  0.1736  0.0659  0.0195
 1345TIP3    H1 3999   1.361   1.912   4.673 -0.1723  0.7541  1.3925
 1345TIP3    H2 4000   1.497   1.972   4.646  0.1306 -0.0168  1.1862
 1346TIP3   OH2 4001   1.928   4.645   4.670  0.3083  0.0876  0.1634
 1346TIP3    H1 4002   1.846   4.606   4.699  0.3380 -0.2414 -0.1922
 1346TIP3    H2 4003   1.907   4.685   4.585  1.0069 -1.8293 -0.9620
 1347TIP3   OH2 4004   3.501   0.321   1.380 -0.4543 -0.5982  0.0161
 1347TIP3    H1 4005   3.502   0.324   1.284  0.9338  0.5625  0.0284
 1347TIP3    H2 4006   3.565   0.254   1.403  1.9811  1.5787  0.0907
 1348TIP3   OH2 4007   1.653   0.024   1.478 -0.3779 -0.3657 -0.6138
 1348TIP3    H1 4008   1.673   0.032   1.385  0.6190 -0.3975 -0.4108
 1348TIP3    H2 4009   1.607   0.106   1.499  0.5785  0.2468 -0.8447
 1349TIP3   OH2 4010   4.195   1.089   3.299 -0.5163 -0.2901  0.4022
 1349TIP3    H1 4011   4.134   1.021   3.270  0.0132 -1.4860  1.9702
 1349TIP3    H2 4012   4.214   1.066   3.390  3.2584 -0.7533 -0.3695
 1350TIP3   OH2 4013   4.214   0.285   5.415 -0.0538  0.1990  0.2682
 1350TIP3    H1 4014   4.188   0.328   5.497 -0.7838  0.2068  0.0429
 1350TIP3    H2 4015   4.171   0.337   5.346 -0.3539 -0.4571 -0.0478
 1351TIP3   OH2 4016   2.246   6.376   5.708 -0.0808  0.1908  0.3819
 1351TIP3    H1 4017   2.181   6.445   5.725 -1.1816 -0.5769 -0.5108
 1351TIP3    H2 4018   2.324   6.403   5.756 -0.3054  2.3237 -0.3678
 1352TIP3   OH2 4019   2.272   5.078   1.464  0.2960  0.2672  0.0996
 1352TIP3    H1 4020   2.271   5.142   1.394 -0.0178 -1.7196 -1.8229
 1352TIP3    H2 4021   2.196   5.023   1.447  0.2753 -0.3539  1.9586
 1353TIP3   OH2 4022   0.312   0.419   2.222 -0.8034 -0.8374  0.3807
 1353TIP3    H1 4023   0.358   0.428   2.305  0.2609  0.5732 -0.3155
 1353TIP3    H2 4024   0.237   0.478   2.229  0.7045  1.3015 -0.5462
 1354TIP3   OH2 4025   4.401   0.221   4.221  0.1872 -0.0602 -0.2832
 1354TIP3    H1 4026   4.379   0.139   4.265 -1.6222  0.0180 -0.9627
 1354TIP3    H2 4027   4.330   0.280   4.243  0.7732  0.9020 -0.9155
 1355TIP3   OH2 4028   2.658   0.044   3.753  0.0434  0.3890  0.2913
 1355TIP3    H1 4029   2.597   0.087   3.813 -1.5968 -0.2427 -0.8353
 1355TIP3    H2 4030   2.697  -0.026   3.804 -0.3324  0.6849  1.0007
 1356TIP3   OH2 4031   4.580   5.282   1.696  0.1739  0.2153  0.6793
 1356TIP3    H1 4032   4.551   5.304   1.607  0.3570  0.5463  0.7012
 1356TIP3    H2 4033   4.600   5.189   1.693  0.5674  0.3121  0.2682
 1357TIP3   OH2 4034   3.874   1.430   5.511  0.0499 -0.1282 -0.1938
 1357TIP3    H1 4035   3.835   1.365   5.452  1.2940 -1.1509  0.0683
 1357TIP3    H2 4036   3.811   1.501   5.513 -1.3695 -1.3371 -0.4745
 1358TIP3   OH2 4037   4.798   4.748   0.721  0.6735 -0.5346  0.0188
 1358TIP3    H1 4038   4.714   4.777   0.683  0.7005 -1.5493 -0.8776
 1358TIP3    H2 4039   4.776   4.722   0.810 -0.2277 -1.9051 -0.5684
 1359TIP3   OH2 4040   3.281   4.820   4.728  0.0971  0.2529  0.7424
 1359TIP3    H1 4041   3.351   4.853   4.672 -0.1742 -1.2064 -0.5267
 1359TIP3    H2 4042   3.201   4.834   4.677 -0.1026 -1.5733  0.4906
 1360TIP3   OH2 4043   0.131   1.380   2.015  0.1601  0.1898  0.1599
 1360TIP3    H1 4044   0.183   1.318   1.963  1.5940  0.0677  1.6484
 1360TIP3    H2 4045   0.119   1.335   2.099 -0.0898  1.3059  0.7327
 1361TIP3   OH2 4046   5.782   3.402   3.427  0.3715  0.1266 -0.0007
 1361TIP3    H1 4047   5.776   3.453   3.346  0.1010 -0.3953 -0.3091
 1361TIP3    H2 4048   5.842   3.453   3.482  0.0802  0.8016 -0.2901
 1362TIP3   OH2 4049   6.692   5.660   2.994  0.2351 -0.4199  0.1378
 1362TIP3    H1 4050   6.680   5.676   3.087 -2.1487 -0.5598 -0.0829
 1362TIP3    H2 4051   6.716   5.567   2.989 -4.7746 -2.0398  0.5026
 1363TIP3   OH2 4052   6.357   4.159   1.570 -0.4668 -0.2137 -0.3995
 1363TIP3    H1 4053   6.340   4.244   1.611 -0.0452 -0.1867 -0.2827
 1363TIP3    H2 4054   6.269   4.122   1.556 -0.6202 -0.2275  0.5309
 1364TIP3   OH2 4055   4.526   5.451   4.512 -0.0953 -0.7996 -0.5190
 1364TIP3    H1 4056   4.508   5.516   4.580  1.5117 -1.7468  0.9040
 1364TIP3    H2 4057   4.491   5.369   4.547 -0.3188 -1.0946 -1.3972
 1365TIP3   OH2 4058   4.906   4.505   2.676  0.3285  0.8806  0.0492
 1365TIP3    H1 4059   4.953   4.567   2.732  0.1359  0.0066  1.2119
 1365TIP3    H2 4060   4.847   4.560   2.625  0.0661  1.6641  1.1497
 1366TIP3   OH2 4061   4.378   1.289   4.198  0.1967 -0.2357  0.4403
 1366TIP3    H1 4062   4.456   1.294   4.143  0.3285  0.7071  0.6975
 1366TIP3    H2 4063   4.411   1.263   4.284  0.0899 -0.8581  0.3039
 1367TIP3   OH2 4064   1.252   6.005   3.869  0.1763 -0.0750  0.4479
 1367TIP3    H1 4065   1.175   6.032   3.919 -1.0166 -2.3034 -0.0461
 1367TIP3    H2 4066   1.277   5.920   3.907  1.3542 -0.1771 -0.4960
 1368TIP3   OH2 4067   5.162   4.782   2.201  0.0431 -0.2628 -0.0489
 1368TIP3    H1 4068   5.074   4.743   2.209 -0.0221  0.1612  1.7206
 1368TIP3    H2 4069   5.220   4.707   2.189 -0.4254 -0.6352 -0.0405
 1369TIP3   OH2 4070   3.256   4.144   2.004 -0.2589 -0.0057  0.3826
 1369TIP3    H1 4071   3.189   4.085   2.040 -1.0234 -0.1587 -1.1762
 1369TIP3    H2 4072   3.206   4.213   1.960  0.6334  1.1873  1.2051
 1370TIP3   OH2 4073   1.102   3.256   3.966 -0.4327 -0.1280 -0.2018
 1370TIP3    H1 4074   1.098   3.248   4.062 -0.0646  0.1505 -0.1608
 1370TIP3    H2 4075   1.190   3.224   3.944 -1.0474 -1.6610 -0.6004
 1371TIP3   OH2 4076   2.759   2.376   3.256  0.2641  0.4340  0.5354
 1371TIP3    H1 4077   2.839   2.346   3.298  1.0547 -0.2894 -1.3668
 1371TIP3    H2 4078   2.748   2.317   3.181 -1.3461  1.3390  0.0110
 1372TIP3   OH2 4079   1.223   0.691   5.005  0.4272 -0.2852  0.2227
 1372TIP3    H1 4080   1.223   0.749   5.081 -0.9419 -2.1694  1.7744
 1372TIP3    H2 4081   1.137   0.705   4.965  0.9389  0.3079 -0.7188
 1373TIP3   OH2 4082   4.938   3.988   0.415 -0.7105 -0.6318 -0.0929
 1373TIP3    H1 4083   4.911   4.025   0.499 -1.4499 -0.1799 -0.5228
 1373TIP3    H2 4084   4.987   3.910   0.439  0.0909  0.1199  0.7961
 1374TIP3   OH2 4085   2.261   4.378   0.431  0.6464 -0.9582 -0.3381
 1374TIP3    H1 4086   2.306   4.299   0.403  0.0690 -0.7407 -1.9918
 1374TIP3    H2 4087   2.245   4.427   0.350 -0.6211 -0.0166  0.4379
 1375TIP3   OH2 4088   4.772   4.659   5.600  0.4479 -0.5275 -0.0865
 1375TIP3    H1 4089   4.685   4.619   5.587  0.1645 -0.1444  0.5895
 1375TIP3    H2 4090   4.822   4.631   5.524 -0.2049 -0.9389 -0.3791
 1376TIP3   OH2 4091   4.380   5.629   0.146  0.0316 -0.2467  0.4162
 1376TIP3    H1 4092   4.290   5.597   0.142 -0.6318  1.3535  1.2095
 1376TIP3    H2 4093   4.373   5.722   0.122  1.7357 -0.4705 -1.1498
 1377TIP3   OH2 4094   7.016   5.698   2.973 -0.2758  0.1699  0.1968
 1377TIP3    H1 4095   6.960   5.772   2.949 -0.0528  0.7525  1.3875
 1377TIP3    H2 4096   7.105   5.733   2.966 -0.1235 -0.2679 -0.1090
 1378TIP3   OH2 4097   5.650   6.590   1.723 -0.7458 -0.1147 -0.0056
 1378TIP3    H1 4098   5.580   6.599   1.788 -0.1844 -0.0178  0.5948
 1378TIP3    H2 4099   5.656   6.496   1.706 -1.3414 -0.0859 -0.4262
 1379TIP3   OH2 4100   4.939   5.245   4.855  0.2361 -0.1033  0.6603
 1379TIP3    H1 4101   4.872   5.177   4.850  1.2277 -0.9867 -1.7977
 1379TIP3    H2 4102   4.935   5.289   4.770  1.3014  1.2958  1.2953
 1380TIP3   OH2 4103   0.999   2.027   4.845  0.4182 -0.3110 -0.4115
 1380TIP3    H1 4104   0.909   2.043   4.814 -0.2877  1.2059  2.0820
 1380TIP3    H2 4105   1.039   1.974   4.777 -1.9229  0.1888 -2.3132
 1381TIP3   OH2 4106   4.396   3.743   1.304 -0.2381 -0.8831 -0.5629
 1381TIP3    H1 4107   4.302   3.760   1.310 -0.1766 -0.9891  0.8811
 1381TIP3    H2 4108   4.437   3.814   1.352  0.3354 -1.6145  0.0668
 1382TIP3   OH2 4109   4.039   1.614   0.819 -0.2878  0.8627 -0.4872
 1382TIP3    H1 4110   4.047   1.629   0.913 -0.3979  0.4583 -0.4135
 1382TIP3    H2 4111   4.102   1.545   0.801  0.4109  1.5748 -0.8738
 1383TIP3   OH2 4112   0.492   1.557   0.625  0.1601  0.3582  0.3874
 1383TIP3    H1 4113   0.446   1.520   0.550 -0.6398  0.8154  0.6452
 1383TIP3    H2 4114   0.487   1.652   0.613  0.4398  0.4279  0.7720
 1384TIP3   OH2 4115   2.655   0.572   1.952 -0.3987  0.0796 -0.5397
 1384TIP3    H1 4116   2.638   0.655   1.998  1.3987 -0.7638  1.8319
 1384TIP3    H2 4117   2.575   0.521   1.965 -0.6321  0.5761  0.0495
 1385TIP3   OH2 4118   7.199   1.161   5.550 -0.2946 -0.3791  0.7719
 1385TIP3    H1 4119   7.107   1.132   5.553 -0.0612 -1.6178 -1.5270
 1385TIP3    H2 4120   7.236   1.115   5.475  1.7427  1.5211  0.5061
 1386TIP3   OH2 4121   4.669   3.712   3.005 -0.1479 -0.0292  0.0687
 1386TIP3    H1 4122   4.588   3.668   3.029  0.0877 -1.2298 -1.1460
 1386TIP3    H2 4123   4.665   3.718   2.909  2.4351 -2.8987 -0.3911
 1387TIP3   OH2 4124   0.420   3.469   1.024  0.0751 -0.0193 -0.5037
 1387TIP3    H1 4125   0.351   3.403   1.024 -1.3514  1.3335  1.7692
 1387TIP3    H2 4126   0.375   3.552   1.012  1.1306  0.9888  1.8346
 1388TIP3   OH2 4127   3.234   3.648   1.743 -0.4617 -0.0446 -0.2315
 1388TIP3    H1 4128   3.250   3.740   1.761 -1.2770  0.0630 -0.0440
 1388TIP3    H2 4129   3.294   3.601   1.801 -0.2436  0.3589 -0.1309
 1389TIP3   OH2 4130   0.140   2.836   5.540 -0.1305  0.0313  0.3236
 1389TIP3    H1 4131   0.162   2.783   5.464 -0.0008  1.1106 -0.4155
 1389TIP3    H2 4132   0.091   2.910   5.504  2.9244  2.4862  0.7412
 1390TIP3   OH2 4133   1.658   5.415   2.937 -0.5578  0.2084  0.7127
 1390TIP3    H1 4134   1.619   5.338   2.979 -0.3709  1.0164  2.4506
 1390TIP3    H2 4135   1.709   5.378   2.865 -0.8829 -1.2605  1.1807
 1391TIP3   OH2 4136   3.743   4.018   1.419  0.0724  0.3702 -0.1244
 1391TIP3    H1 4137   3.767   4.065   1.339  0.5830  1.9757  0.9244
 1391TIP3    H2 4138   3.668   3.964   1.394 -0.0006  1.1081 -1.5910
 1392TIP3   OH2 4139   0.689   3.667   4.323 -0.3369  0.6633  0.1653
 1392TIP3    H1 4140   0.780   3.646   4.342 -0.5655  0.6618  1.2884
 1392TIP3    H2 4141   0.672   3.748   4.372 -0.4234  1.6936 -1.4799
 1393TIP3   OH2 4142   6.528   1.839   2.810 -0.3430  0.3204  0.2126
 1393TIP3    H1 4143   6.531   1.744   2.796  0.3426  0.4288 -0.4821
 1393TIP3    H2 4144   6.578   1.875   2.736 -0.2706  1.1974  0.6816
 1394TIP3   OH2 4145   1.161   2.365   0.671  0.6651 -0.2600 -0.6486
 1394TIP3    H1 4146   1.238   2.324   0.711  0.3186 -0.2100  0.0741
 1394TIP3    H2 4147   1.198   2.434   0.616  1.2547 -1.5736 -1.9562
 1395TIP3   OH2 4148   3.393   6.238   3.483 -0.0704 -0.1421  0.2827
 1395TIP3    H1 4149   3.336   6.315   3.488  0.6725  0.4106  0.5790
 1395TIP3    H2 4150   3.369   6.195   3.401  0.5394  1.2646 -0.6682
 1396TIP3   OH2 4151   1.696   2.952   4.966 -0.7416 -0.1385 -0.3058
 1396TIP3    H1 4152   1.726   2.941   5.056 -1.9366  0.8579  0.2557
 1396TIP3    H2 4153   1.761   2.908   4.912  0.4616  0.0125  0.9944
 1397TIP3   OH2 4154   6.491   0.675   1.111  0.0146  0.3401  0.2251
 1397TIP3    H1 4155   6.484   0.646   1.201  1.1808 -1.6230 -0.2591
 1397TIP3    H2 4156   6.417   0.734   1.099 -0.1034  0.7402  2.4732
 1398TIP3   OH2 4157   0.366   0.963   0.838 -0.2990 -0.1568 -0.3150
 1398TIP3    H1 4158   0.342   0.979   0.747  1.6630 -2.1292 -1.2516
 1398TIP3    H2 4159   0.291   0.916   0.875 -0.3622 -0.9753 -1.4517
 1399TIP3   OH2 4160   3.313   1.841   2.855 -0.1165 -0.1029  0.2936
 1399TIP3    H1 4161   3.303   1.794   2.937  2.7973 -0.3406  0.6046
 1399TIP3    H2 4162   3.355   1.779   2.796 -0.3072  0.7065 -0.7348
 1400TIP3   OH2 4163   0.116   5.252   3.056  0.1665  0.1318  0.1462
 1400TIP3    H1 4164   0.211   5.246   3.065  0.5597 -0.4789 -3.2998
 1400TIP3    H2 4165   0.087   5.162   3.046 -0.5803  0.4192 -0.3347
 1401TIP3   OH2 4166   6.222   1.798   3.679 -0.1196  0.1450  0.1993
 1401TIP3    H1 4167   6.133   1.795   3.712  0.0828  0.4784  0.7863
 1401TIP3    H2 4168   6.275   1.823   3.755  0.2672  1.6955 -0.5502
 1402TIP3   OH2 4169   2.994   2.350   0.137 -0.4943  0.8656 -0.1179
 1402TIP3    H1 4170   2.954   2.272   0.175  1.2690  0.8135  1.8281
 1402TIP3    H2 4171   2.947   2.423   0.175  0.0728  0.7715  0.8057
 1403TIP3   OH2 4172   5.445   2.308   1.851  0.0065  0.3251 -0.0770
 1403TIP3    H1 4173   5.490   2.298   1.935  0.2857  3.4246  0.2469
 1403TIP3    H2 4174   5.352   2.318   1.874  0.1413  1.6656 -0.0572
 1404TIP3   OH2 4175   3.104   0.424   1.381 -0.2920  0.0403  0.5247
 1404TIP3    H1 4176   3.089   0.422   1.475 -3.9098 -1.3060  0.0875
 1404TIP3    H2 4177   3.041   0.361   1.345 -0.5945  2.0616 -2.9543
 1405TIP3   OH2 4178   5.584   0.793   1.444  0.1941  0.0582  0.0425
 1405TIP3    H1 4179   5.664   0.840   1.420  1.1067 -1.2513  0.4005
 1405TIP3    H2 4180   5.604   0.701   1.427 -1.7916 -0.1797 -1.3144
 1406TIP3   OH2 4181   6.099   3.083   0.311  0.0547  0.0554  0.7046
 1406TIP3    H1 4182   6.177   3.038   0.278  0.5895 -0.1059  2.0880
 1406TIP3    H2 4183   6.042   3.012   0.341 -1.1052  0.1222 -1.2388
 1407TIP3   OH2 4184   0.362   2.332   2.228 -0.3160  0.1996 -0.2318
 1407TIP3    H1 4185   0.385   2.254   2.279 -1.9971 -0.0797  0.1389
 1407TIP3    H2 4186   0.413   2.323   2.148  1.0059 -0.2675  0.6279
 1408TIP3   OH2 4187   0.281   1.384   3.270  0.7153  0.2519  0.0327
 1408TIP3    H1 4188   0.272   1.428   3.355 -0.5407 -0.9181  0.5436
 1408TIP3    H2 4189   0.348   1.317   3.285  0.9979  0.4926 -0.1201
 1409TIP3   OH2 4190   7.075   5.804   5.118 -0.4329  0.5797  0.5647
 1409TIP3    H1 4191   7.154   5.754   5.096 -0.2477  0.6986  0.9615
 1409TIP3    H2 4192   7.006   5.763   5.067 -0.2959 -0.1286  0.9440
 1410TIP3   OH2 4193   2.615   2.263   3.708 -0.8946  0.3155  0.6812
 1410TIP3    H1 4194   2.671   2.186   3.722 -1.9267 -1.0168 -1.8448
 1410TIP3    H2 4195   2.669   2.323   3.657 -1.3432 -0.5387 -0.8736
 1411TIP3   OH2 4196   4.743   3.086   1.716  0.3509 -0.1978  0.1664
 1411TIP3    H1 4197   4.666   3.137   1.740 -0.0780 -1.6898  2.2340
 1411TIP3    H2 4198   4.813   3.118   1.772  0.3102 -1.2021  0.8206
 1412TIP3   OH2 4199   5.157   1.240   1.651  0.7228 -0.0057  0.5726
 1412TIP3    H1 4200   5.135   1.323   1.610  0.2792 -0.9671 -1.2247
 1412TIP3    H2 4201   5.245   1.220   1.621 -0.4134 -1.8046 -1.9252
 1413TIP3   OH2 4202   4.756   1.821   2.206 -0.4144  0.1629 -0.1006
 1413TIP3    H1 4203   4.812   1.899   2.204 -1.1473  0.6959 -0.3203
 1413TIP3    H2 4204   4.702   1.829   2.128 -2.7548  1.1545  1.4951
 1414TIP3   OH2 4205   1.619   6.549   3.341  0.0967 -0.3307 -0.0580
 1414TIP3    H1 4206   1.599   6.621   3.282 -1.1093  0.1332  0.8547
 1414TIP3    H2 4207   1.589   6.471   3.294  1.0506 -0.2225 -0.8872
 1415TIP3   OH2 4208   7.004   3.079   3.665  0.5690  0.0596 -0.1967
 1415TIP3    H1 4209   7.072   3.073   3.732  0.0779 -1.2055  0.2233
 1415TIP3    H2 4210   7.032   3.151   3.608  2.3695 -0.5520 -0.1556
 1416TIP3   OH2 4211   6.773   1.481   5.355 -0.8512 -0.4542  0.2764
 1416TIP3    H1 4212   6.820   1.397   5.353 -0.7274 -0.4044  0.8078
 1416TIP3    H2 4213   6.682   1.457   5.342 -1.0638 -0.8924  2.1928
 1417TIP3   OH2 4214   6.406   5.879   3.830 -0.3431  0.2600  0.9204
 1417TIP3    H1 4215   6.404   5.788   3.861  0.0978  0.6130  2.0346
 1417TIP3    H2 4216   6.373   5.874   3.740 -2.4423 -0.7194  1.6766
 1418TIP3   OH2 4217   4.374   6.713   2.458 -0.2643 -0.7646  0.3973
 1418TIP3    H1 4218   4.292   6.665   2.454 -0.3252 -0.7251  1.0902
 1418TIP3    H2 4219   4.416   6.683   2.539 -0.1629  0.1047  0.6827
 1419TIP3   OH2 4220   5.557   5.315   2.765  0.0885  0.3048  0.2871
 1419TIP3    H1 4221   5.588   5.240   2.714 -1.0341  0.9475 -1.3844
 1419TIP3    H2 4222   5.578   5.392   2.712 -1.3808  0.9751  0.6220
 1420TIP3   OH2 4223   5.893   5.236   3.148  0.0366 -0.0625 -0.0288
 1420TIP3    H1 4224   5.862   5.263   3.062  0.6003 -1.6397 -0.7490
 1420TIP3    H2 4225   5.866   5.145   3.156  1.1058 -0.3182  0.9300
 1421TIP3   OH2 4226   6.567   1.210   4.728  0.2810  0.3191 -0.0557
 1421TIP3    H1 4227   6.536   1.233   4.815  0.3752 -0.5642  0.2115
 1421TIP3    H2 4228   6.496   1.159   4.689 -0.2540  1.6684 -0.9455
 1422TIP3   OH2 4229   4.559   3.379   2.159 -0.5609 -0.0004 -0.2199
 1422TIP3    H1 4230   4.533   3.305   2.215 -0.3125  0.2193  0.1900
 1422TIP3    H2 4231   4.599   3.441   2.219  0.8367 -0.2926 -0.8091
 1423TIP3   OH2 4232   3.742   6.074   0.776  0.0244 -0.4718 -0.4068
 1423TIP3    H1 4233   3.729   6.146   0.714  0.2219 -0.5494 -0.5398
 1423TIP3    H2 4234   3.653   6.048   0.802 -0.2294 -2.0955 -2.5890
 1424TIP3   OH2 4235   3.066   6.388   5.054 -0.4266 -0.0470 -0.0356
 1424TIP3    H1 4236   3.138   6.440   5.090  1.2954 -2.9729  1.0812
 1424TIP3    H2 4237   2.995   6.397   5.118  0.0549  0.4302  0.4317
 1425TIP3   OH2 4238   6.285   1.459   5.228  0.0859 -0.3830 -0.3082
 1425TIP3    H1 4239   6.244   1.546   5.229  0.5133 -0.1523 -1.2894
 1425TIP3    H2 4240   6.261   1.423   5.142  0.4888 -0.9516 -0.1856
 1426TIP3   OH2 4241   2.991   6.341   3.262 -0.0732  0.2968  0.5131
 1426TIP3    H1 4242   2.911   6.290   3.247 -0.3005  1.0312 -0.8647
 1426TIP3    H2 4243   2.965   6.432   3.246  0.5592  0.7740  2.0410
 1427TIP3   OH2 4244   1.778   6.142   2.453 -0.3613  0.2093 -0.3597
 1427TIP3    H1 4245   1.685   6.150   2.432 -0.2338 -0.0387 -1.0481
 1427TIP3    H2 4246   1.812   6.079   2.389  0.2960  0.3585 -0.1696
 1428TIP3   OH2 4247   4.261   3.127   4.008  0.2665 -0.5983 -0.0769
 1428TIP3    H1 4248   4.209   3.199   4.044  0.1770 -0.5900 -0.2220
 1428TIP3    H2 4249   4.336   3.169   3.967 -0.4550 -0.4836 -1.3224
 1429TIP3   OH2 4250   4.052   4.225   4.006  0.5931 -0.1061  0.0045
 1429TIP3    H1 4251   4.113   4.217   4.079 -0.0381  1.0221  0.6841
 1429TIP3    H2 4252   3.971   4.187   4.038  0.8462 -1.4179 -0.8255
 1430TIP3   OH2 4253   5.114   5.137   4.586 -0.4798 -0.1487  0.0802
 1430TIP3    H1 4254   5.090   5.230   4.587 -2.4155 -0.6005  0.7294
 1430TIP3    H2 4255   5.188   5.130   4.645  0.4152  1.1318 -0.8293
 1431TIP3   OH2 4256   4.418   4.664   5.444 -0.8055 -0.0824  0.3509
 1431TIP3    H1 4257   4.331   4.645   5.409 -0.6262 -0.5609  0.1525
 1431TIP3    H2 4258   4.442   4.585   5.492 -0.3913 -0.0362  0.2216
 1432TIP3   OH2 4259   3.254   5.566   1.016  0.5803 -0.1201 -0.0165
 1432TIP3    H1 4260   3.232   5.473   1.024  1.1959 -0.2746 -0.0787
 1432TIP3    H2 4261   3.335   5.567   0.965  0.5918  0.4527  0.0074
 1433TIP3   OH2 4262   6.791   3.357   3.880 -0.0448  0.2871 -0.1494
 1433TIP3    H1 4263   6.847   3.425   3.843 -0.6346 -0.0032 -1.6697
 1433TIP3    H2 4264   6.783   3.379   3.973  3.6281 -0.3749  0.4733
 1434TIP3   OH2 4265   2.361   5.682   0.876  0.1361  0.2157 -0.4025
 1434TIP3    H1 4266   2.387   5.761   0.829 -0.7975  0.9170  0.2380
 1434TIP3    H2 4267   2.390   5.610   0.819  2.0988  0.9536 -0.4199
 1435TIP3   OH2 4268   5.049   2.644   5.281  0.6839  0.4262 -0.6056
 1435TIP3    H1 4269   4.987   2.698   5.231 -0.2584 -1.4842 -1.5901
 1435TIP3    H2 4270   5.128   2.697   5.285 -0.7079  2.6096 -0.0217
 1436TIP3   OH2 4271   2.420   2.995   3.427  0.0474 -0.0347  0.0733
 1436TIP3    H1 4272   2.449   2.906   3.405  0.6199  0.0483  0.4593
 1436TIP3    H2 4273   2.501   3.045   3.432  0.2582 -0.4347  4.2508
 1437TIP3   OH2 4274   0.093   1.197   2.229 -0.9780  0.0315  0.8622
 1437TIP3    H1 4275   0.054   1.227   2.311  0.2373  1.0195  1.1031
 1437TIP3    H2 4276   0.168   1.145   2.257  0.0673  1.2445  0.3874
 1438TIP3   OH2 4277   0.099   3.363   3.309  0.0881  0.3729  0.1407
 1438TIP3    H1 4278   0.166   3.294   3.306  0.5461  0.8319 -1.7211
 1438TIP3    H2 4279   0.148   3.444   3.293 -0.9514  0.6282 -2.2853
 1439TIP3   OH2 4280   2.956   6.354   5.608  0.5019 -0.0886  0.2974
 1439TIP3    H1 4281   2.885   6.406   5.572  1.1398  0.0475 -0.8022
 1439TIP3    H2 4282   2.935   6.264   5.584  1.0638  0.0293 -0.7014
 1440TIP3   OH2 4283   5.539   3.475   2.028  0.7616 -0.5148 -0.0587
 1440TIP3    H1 4284   5.579   3.395   1.994  0.7964 -0.6768  0.3567
 1440TIP3    H2 4285   5.547   3.468   2.123 -0.7357 -0.8101  0.0676
 1441TIP3   OH2 4286   0.646   3.468   0.861  0.1158 -0.3113 -0.1984
 1441TIP3    H1 4287   0.570   3.449   0.915  0.2264 -0.9735 -0.2658
 1441TIP3    H2 4288   0.678   3.552   0.894  0.0863 -0.6222  0.6615
 1442TIP3   OH2 4289   2.095   5.687   2.777  0.1021 -0.3340 -0.0778
 1442TIP3    H1 4290   2.146   5.617   2.736  1.2910  0.0568  0.6840
 1442TIP3    H2 4291   2.159   5.736   2.828 -0.7760  1.0986 -0.3065
 1443TIP3   OH2 4292   2.069   2.299   0.674 -0.2085  0.0587 -0.1964
 1443TIP3    H1 4293   2.094   2.311   0.766 -0.4483 -0.4510 -0.0597
 1443TIP3    H2 4294   1.995   2.238   0.677  0.9490 -1.4674 -0.8220
 1444TIP3   OH2 4295   3.298   0.612   2.830  0.2104  0.7877 -0.8110
 1444TIP3    H1 4296   3.316   0.701   2.860 -0.1335  0.8480 -0.7768
 1444TIP3    H2 4297   3.220   0.621   2.775 -0.2409  0.4080 -0.2477
 1445TIP3   OH2 4298   6.071   4.965   3.733  0.0169  0.3339 -0.0045
 1445TIP3    H1 4299   6.037   4.959   3.822  0.2303 -0.4577  0.0337
 1445TIP3    H2 4300   6.165   4.982   3.745  0.4932 -1.8724  0.0075
 1446TIP3   OH2 4301   0.596   6.425   0.052 -0.1265 -0.4552 -0.3070
 1446TIP3    H1 4302   0.514   6.447   0.006 -0.6121 -1.9611 -0.1968
 1446TIP3    H2 4303   0.657   6.401  -0.017  0.6698  1.8365 -0.5004
 1447TIP3   OH2 4304   7.024   0.645   3.345  0.0816 -0.0775 -0.0012
 1447TIP3    H1 4305   7.023   0.632   3.440  1.4956  0.6926  0.1488
 1447TIP3    H2 4306   7.010   0.739   3.333  0.3393 -0.1033 -0.5326
 1448TIP3   OH2 4307   2.522   6.638   4.012 -0.4378  0.3470  0.0449
 1448TIP3    H1 4308   2.438   6.670   3.978 -1.9221 -2.3539  0.7932
 1448TIP3    H2 4309   2.516   6.651   4.106 -0.7512 -1.2086  0.2760
 1449TIP3   OH2 4310   5.175   0.177   2.477  0.4406  0.2149  0.0073
 1449TIP3    H1 4311   5.189   0.270   2.457 -1.9201  0.6714  0.2423
 1449TIP3    H2 4312   5.230   0.161   2.554 -0.0950  1.7897  0.7672
 1450TIP3   OH2 4313   1.589   3.687   0.554 -0.8131  0.1837  0.0931
 1450TIP3    H1 4314   1.665   3.651   0.601 -0.4570 -1.0570 -1.3857
 1450TIP3    H2 4315   1.620   3.697   0.464 -1.9384  1.1603 -0.1996
 1451TIP3   OH2 4316   3.145   1.811   4.252 -0.3943 -0.5277  0.2974
 1451TIP3    H1 4317   3.050   1.825   4.241 -0.2543  1.1635  0.8697
 1451TIP3    H2 4318   3.183   1.897   4.233  0.9127 -0.8674  1.2796
 1452TIP3   OH2 4319   5.617   6.536   4.152 -0.0189  1.0215  0.6018
 1452TIP3    H1 4320   5.640   6.626   4.130  0.6013  0.5151 -0.9812
 1452TIP3    H2 4321   5.700   6.495   4.177 -0.2376  0.8115  0.9839
 1453TIP3   OH2 4322   2.896   4.599   0.134  0.4118 -0.0210 -0.3421
 1453TIP3    H1 4323   2.893   4.505   0.118 -1.8399 -0.4548  1.9935
 1453TIP3    H2 4324   2.932   4.636   0.053 -0.0143 -2.7219 -1.8900
 1454TIP3   OH2 4325   2.969   0.734   3.260  0.1329  0.0326  0.2349
 1454TIP3    H1 4326   3.053   0.711   3.301  1.3575  2.7686 -0.4443
 1454TIP3    H2 4327   2.988   0.815   3.212 -2.9586  0.8572  0.1879
 1455TIP3   OH2 4328   1.992   4.100   1.710 -0.2881  0.6403  0.7672
 1455TIP3    H1 4329   2.041   4.027   1.671  0.8886  1.2244  1.0966
 1455TIP3    H2 4330   1.910   4.061   1.740 -1.3578  0.2053 -2.4192
 1456TIP3   OH2 4331   4.583   1.693   0.566  0.1002 -0.2422  0.1980
 1456TIP3    H1 4332   4.606   1.760   0.631 -0.7917 -1.2020  1.5554
 1456TIP3    H2 4333   4.591   1.738   0.482  0.0465  1.4260  1.0386
 1457TIP3   OH2 4334   4.640   1.970   0.416  0.2825 -0.1046  0.5491
 1457TIP3    H1 4335   4.606   1.917   0.345 -1.4005  2.3108 -0.5851
 1457TIP3    H2 4336   4.718   2.012   0.379  0.8078 -0.6904  0.9729
 1458TIP3   OH2 4337   1.721   2.780   2.271  0.0350 -0.1063 -0.4378
 1458TIP3    H1 4338   1.741   2.816   2.184  0.1162 -0.6435 -0.6474
 1458TIP3    H2 4339   1.635   2.739   2.260 -0.3802  0.6309 -0.0132
 1459TIP3   OH2 4340   6.431   2.967   5.731 -0.3011 -0.1228 -0.2025
 1459TIP3    H1 4341   6.347   3.013   5.732 -0.1551  0.2748  3.1568
 1459TIP3    H2 4342   6.469   2.983   5.817  3.5186  0.1551 -1.7489
 1460TIP3   OH2 4343   1.030   1.231   0.345 -0.0151 -0.9841  0.3991
 1460TIP3    H1 4344   1.080   1.149   0.339  0.4087 -0.7699  0.9504
 1460TIP3    H2 4345   0.998   1.232   0.435  0.1119 -0.4634  0.4394
 1461TIP3   OH2 4346   5.825   3.499   3.158 -0.2933  0.2422  0.6469
 1461TIP3    H1 4347   5.739   3.481   3.120 -0.4782 -0.3406  1.3263
 1461TIP3    H2 4348   5.842   3.590   3.137 -0.6394  0.0845 -0.3497
 1462TIP3   OH2 4349   3.249   1.383   0.054  0.2562 -0.3292 -0.7997
 1462TIP3    H1 4350   3.211   1.455   0.003  0.4240  0.8416  0.6574
 1462TIP3    H2 4351   3.182   1.363   0.120  2.4508  2.7305  2.7452
 1463TIP3   OH2 4352   4.451   1.197   1.845  0.6226  0.2649 -0.7077
 1463TIP3    H1 4353   4.536   1.237   1.830  0.9790 -1.0759 -2.5890
 1463TIP3    H2 4354   4.454   1.167   1.936  1.3470  1.9930 -0.1109
 1464TIP3   OH2 4355   1.565   0.693   2.237 -0.5256  0.0269  0.0629
 1464TIP3    H1 4356   1.590   0.718   2.148  0.4344 -0.5545  0.1573
 1464TIP3    H2 4357   1.511   0.766   2.267  0.4624  1.0047 -0.4232
 1465TIP3   OH2 4358   6.317   0.310   3.527  0.1603 -0.3154  0.3228
 1465TIP3    H1 4359   6.312   0.405   3.531  0.4407 -0.3268  1.4196
 1465TIP3    H2 4360   6.408   0.292   3.503 -0.1753 -0.3057 -1.0103
 1466TIP3   OH2 4361   6.933   3.449   1.173  0.3631  0.2078  0.5315
 1466TIP3    H1 4362   6.907   3.535   1.204 -2.8993 -0.8344  1.0763
 1466TIP3    H2 4363   6.935   3.394   1.252  4.0407 -0.0017  0.4615
 1467TIP3   OH2 4364   4.136   1.284   0.487  0.1470 -0.4112 -0.1122
 1467TIP3    H1 4365   4.220   1.276   0.441  0.2752  0.9545 -0.1487
 1467TIP3    H2 4366   4.088   1.205   0.463  1.4961 -1.3315  0.0812
 1468TIP3   OH2 4367   4.230   1.266   1.714 -0.2481  0.3752 -0.2147
 1468TIP3    H1 4368   4.263   1.295   1.629  0.3157  1.3907  0.3314
 1468TIP3    H2 4369   4.309   1.246   1.764 -0.5207  0.9842  0.4747
 1469TIP3   OH2 4370   3.497   5.353   3.314  0.3915 -0.3235  0.1882
 1469TIP3    H1 4371   3.462   5.390   3.233  0.4560 -1.1952 -0.2507
 1469TIP3    H2 4372   3.558   5.285   3.285  1.8898  0.6487  0.9508
 1470TIP3   OH2 4373   3.411   2.267   3.068 -0.2889 -0.1551  0.3034
 1470TIP3    H1 4374   3.360   2.280   2.988 -2.4267  0.2651  1.6622
 1470TIP3    H2 4375   3.446   2.178   3.059 -3.5945 -1.6134  0.4688
 1471TIP3   OH2 4376   4.158   3.347   3.753  0.0968  0.8873  0.2376
 1471TIP3    H1 4377   4.239   3.307   3.722  0.5617  1.7601  0.2851
 1471TIP3    H2 4378   4.128   3.400   3.679 -0.2613  0.8179  0.3327
 1472TIP3   OH2 4379   5.312   6.114   1.784  0.1976 -0.2667 -0.3827
 1472TIP3    H1 4380   5.335   6.054   1.855  0.4242 -0.1267 -0.3370
 1472TIP3    H2 4381   5.239   6.072   1.740 -0.3610 -0.0524  0.3218
 1473TIP3   OH2 4382   1.274   1.530   5.386 -0.0592  0.6985 -0.7363
 1473TIP3    H1 4383   1.271   1.449   5.335  1.5409 -0.4866  0.8912
 1473TIP3    H2 4384   1.266   1.600   5.322  2.0197 -0.6913 -2.6733
 1474TIP3   OH2 4385   4.545   5.007   2.908 -0.1833 -0.0091  0.7176
 1474TIP3    H1 4386   4.502   5.016   2.993  0.3099 -1.5968  1.1633
 1474TIP3    H2 4387   4.513   4.924   2.873 -0.2650  0.5474 -0.6034
 1475TIP3   OH2 4388   2.110   3.294   1.106 -0.0840 -0.3276 -0.0867
 1475TIP3    H1 4389   2.157   3.282   1.189 -1.9785 -4.0988  0.6635
 1475TIP3    H2 4390   2.172   3.265   1.039  0.5520  0.2110  0.2517
 1476TIP3   OH2 4391   6.125   3.088   0.945 -0.0664  0.0841 -0.3358
 1476TIP3    H1 4392   6.049   3.146   0.938  0.7299  0.9509 -2.2313
 1476TIP3    H2 4393   6.101   3.011   0.893  0.1459  0.1273 -0.4965
 1477TIP3   OH2 4394   5.978   4.796   4.119 -0.0516 -0.1045 -0.0418
 1477TIP3    H1 4395   5.988   4.878   4.168  1.8150 -0.8505  0.8836
 1477TIP3    H2 4396   6.055   4.792   4.062  0.1071 -1.4328  0.2432
 1478TIP3   OH2 4397   1.432   6.760   5.834  0.2006 -0.2665  0.8063
 1478TIP3    H1 4398   1.489   6.682   5.832  1.1405  0.3576  1.8445
 1478TIP3    H2 4399   1.483   6.825   5.882 -1.3231  0.3885  1.6060
 1479TIP3   OH2 4400   0.044   5.873   2.905 -0.4999  0.1156 -0.5814
 1479TIP3    H1 4401   0.137   5.863   2.884 -0.5107 -0.3544 -0.4044
 1479TIP3    H2 4402   0.029   5.968   2.902  0.0479  0.2132 -0.3386
 1480TIP3   OH2 4403   0.768   4.523   0.751  0.6361  0.2104  0.8507
 1480TIP3    H1 4404   0.760   4.518   0.846 -1.2441  0.5037  0.7457
 1480TIP3    H2 4405   0.685   4.490   0.718  0.8436  1.1163 -0.6717
 1481TIP3   OH2 4406   5.996   0.493   4.757 -0.4106 -0.7100  0.5353
 1481TIP3    H1 4407   6.020   0.409   4.718 -1.6999 -0.7364 -0.2526
 1481TIP3    H2 4408   6.072   0.550   4.742  0.4658 -1.7158  1.0649
 1482TIP3   OH2 4409   0.812   4.102   4.847 -0.1033 -0.3233  0.6539
 1482TIP3    H1 4410   0.802   4.010   4.821 -0.5527 -0.0980  0.0081
 1482TIP3    H2 4411   0.907   4.115   4.850  0.0411 -0.0949 -1.9692
 1483TIP3   OH2 4412   1.969   2.313   0.939 -0.0677  0.4666  0.4134
 1483TIP3    H1 4413   1.918   2.344   1.015 -0.9826 -0.1279  0.0494
 1483TIP3    H2 4414   1.921   2.346   0.863  0.6785  0.7927  0.0729
 1484TIP3   OH2 4415   3.096   5.007   2.174 -0.6094 -0.2626  0.8640
 1484TIP3    H1 4416   3.112   5.058   2.094  0.5895 -0.7378  0.7871
 1484TIP3    H2 4417   3.022   5.051   2.216 -0.2754  0.9045  0.2636
 1485TIP3   OH2 4418   2.116   4.230   2.891  0.0394  0.5422  0.6464
 1485TIP3    H1 4419   2.060   4.306   2.870  0.2185  0.3561 -0.6204
 1485TIP3    H2 4420   2.156   4.207   2.807  0.1018 -0.8684  1.0425
 1486TIP3   OH2 4421   4.955   3.170   1.892 -0.8593  0.0441  0.1456
 1486TIP3    H1 4422   4.905   3.206   1.965  0.3401  2.9397 -0.3067
 1486TIP3    H2 4423   5.010   3.103   1.931 -0.9414  0.8711  1.7543
 1487TIP3   OH2 4424   0.836   0.851   3.764  0.5611  0.1444  0.8048
 1487TIP3    H1 4425   0.838   0.808   3.849  1.2939 -2.1666 -0.3153
 1487TIP3    H2 4426   0.764   0.809   3.717  1.6783 -0.3171 -0.5426
 1488TIP3   OH2 4427   3.684   4.018   4.125  0.4132  0.2738  0.1833
 1488TIP3    H1 4428   3.695   3.944   4.065  0.6425  0.3896  0.0785
 1488TIP3    H2 4429   3.603   3.999   4.173  0.2998  0.1132 -0.0695
 1489TIP3   OH2 4430   3.609   6.633   0.812 -0.9921  0.2600  0.3060
 1489TIP3    H1 4431   3.544   6.563   0.805 -0.4950 -0.0368 -2.5595
 1489TIP3    H2 4432   3.687   6.597   0.771 -1.0264  2.7402 -2.2258
 1490TIP3   OH2 4433   0.575   6.680   1.156  0.3097 -0.2465 -0.8602
 1490TIP3    H1 4434   0.598   6.692   1.248 -0.0265 -2.0779 -0.5051
 1490TIP3    H2 4435   0.484   6.712   1.150  0.9304  1.6278 -1.0142
 1491TIP3   OH2 4436   5.150   5.063   0.434 -0.1230  0.1181  0.1614
 1491TIP3    H1 4437   5.200   5.061   0.516  0.5787 -0.7064 -0.2677
 1491TIP3    H2 4438   5.099   4.981   0.436  1.8581 -1.2446 -1.3813
 1492TIP3   OH2 4439   0.568   2.944   4.383  0.1147  0.0068 -0.2523
 1492TIP3    H1 4440   0.542   2.939   4.291  0.2109 -0.4915 -0.2542
 1492TIP3    H2 4441   0.507   3.007   4.421 -1.9705 -2.0070  0.0006
 1493TIP3   OH2 4442   5.601   6.488   5.817 -0.5825 -0.1260 -0.6556
 1493TIP3    H1 4443   5.577   6.407   5.861  0.1321 -0.4036 -0.7767
 1493TIP3    H2 4444   5.517   6.534   5.805 -0.8690 -0.3887  0.2895
 1494TIP3   OH2 4445   6.425   4.205   5.170 -0.2197 -0.3880 -0.6404
 1494TIP3    H1 4446   6.421   4.276   5.107 -0.1670  0.0909 -0.1083
 1494TIP3    H2 4447   6.344   4.211   5.219 -0.7697 -1.4401 -1.3723
 1495TIP3   OH2 4448   4.327   2.481   4.610 -0.0195 -0.1843  0.4610
 1495TIP3    H1 4449   4.283   2.539   4.547 -2.7139 -1.0220  1.4318
 1495TIP3    H2 4450   4.410   2.525   4.629 -0.6584  1.8306 -1.0442
 1496TIP3   OH2 4451   0.803   6.342   4.890  0.3914 -0.2759  0.1975
 1496TIP3    H1 4452   0.745   6.351   4.815  1.5605  0.4819 -0.6511
 1496TIP3    H2 4453   0.889   6.371   4.858  1.7097 -3.1072  0.8280
 1497TIP3   OH2 4454   2.662   4.985   1.553 -0.3759  0.1585 -0.1444
 1497TIP3    H1 4455   2.707   4.902   1.568  1.1688  0.9600 -0.1109
 1497TIP3    H2 4456   2.581   4.978   1.605  0.2162 -0.9132  0.6864
 1498TIP3   OH2 4457   3.586   6.263   3.852 -0.2567 -0.0893  0.9537
 1498TIP3    H1 4458   3.646   6.277   3.779  0.5729  1.3144  1.8518
 1498TIP3    H2 4459   3.508   6.223   3.813  0.3324  0.2490 -0.6142
 1499TIP3   OH2 4460   5.535   4.119   1.164  0.2115  0.5312 -0.0201
 1499TIP3    H1 4461   5.534   4.058   1.238 -0.5771  0.6776  0.0904
 1499TIP3    H2 4462   5.445   4.149   1.156  0.8779  3.2796  1.2692
 1500TIP3   OH2 4463   1.267   3.441   0.392 -0.0047  0.2824  0.1175
 1500TIP3    H1 4464   1.356   3.415   0.367 -0.2544  0.2960 -0.8118
 1500TIP3    H2 4465   1.278   3.492   0.472  0.6720 -1.1079  0.9469
 1501TIP3   OH2 4466   4.463   3.557   0.076  0.2115  0.2241 -0.1434
 1501TIP3    H1 4467   4.419   3.561  -0.009  0.3870 -1.9283 -0.3800
 1501TIP3    H2 4468   4.507   3.472   0.077 -0.1534 -0.0121  2.2693
 1502TIP3   OH2 4469   5.305   6.056   1.424  0.3878 -0.1475 -0.3114
 1502TIP3    H1 4470   5.361   6.047   1.501 -1.6969 -0.2266  1.3052
 1502TIP3    H2 4471   5.296   6.151   1.412  0.9841 -0.1347 -0.6812
 1503TIP3   OH2 4472   1.313   1.529   3.898  0.1190  0.3604 -0.0541
 1503TIP3    H1 4473   1.260   1.449   3.900  0.5958 -0.0438 -1.9115
 1503TIP3    H2 4474   1.280   1.579   3.824  0.9862  1.0608  0.0037
 1504TIP3   OH2 4475   0.473   3.403   1.341 -0.5368 -0.3416  0.1663
 1504TIP3    H1 4476   0.533   3.445   1.280 -1.6124 -0.8311 -1.2841
 1504TIP3    H2 4477   0.398   3.462   1.345 -1.0004 -0.9159  0.0456
 1505TIP3   OH2 4478   6.625   1.044   5.053 -0.3260 -0.2037  0.3588
 1505TIP3    H1 4479   6.561   0.989   5.009 -1.6343  1.7109 -0.2721
 1505TIP3    H2 4480   6.591   1.133   5.043  1.9963  0.8027  0.7873
 1506TIP3   OH2 4481   4.841   2.507   4.582 -0.1345 -0.6358 -0.3744
 1506TIP3    H1 4482   4.843   2.602   4.586 -1.2822 -0.6039 -0.3776
 1506TIP3    H2 4483   4.844   2.486   4.489 -2.0659 -0.5157 -0.5000
 1507TIP3   OH2 4484   0.287   4.124   3.119 -0.0323  0.1180  0.0938
 1507TIP3    H1 4485   0.228   4.049   3.110  0.1351  0.0546 -0.5514
 1507TIP3    H2 4486   0.236   4.198   3.085  0.0290  0.1802  0.1381
 1508TIP3   OH2 4487   6.588   5.524   1.858  0.5958  0.2817 -0.1920
 1508TIP3    H1 4488   6.514   5.585   1.859  0.2479 -0.0986  1.6527
 1508TIP3    H2 4489   6.663   5.578   1.835  0.1266  1.2216  0.3911
 1509TIP3   OH2 4490   1.914   4.758   1.499  0.0919 -0.2343 -0.0597
 1509TIP3    H1 4491   1.910   4.830   1.436 -0.1668  0.4696  0.7380
 1509TIP3    H2 4492   1.822   4.734   1.513  0.2186 -1.2983 -0.9527
 1510TIP3   OH2 4493   1.715   0.016   1.177  0.1184 -0.5892  0.1958
 1510TIP3    H1 4494   1.797   0.039   1.133 -0.3584  0.1345 -0.3462
 1510TIP3    H2 4495   1.648   0.027   1.109 -0.4932 -0.5619  0.7987
 1511TIP3   OH2 4496   3.946   5.344   3.624 -0.4506 -0.1426 -0.2187
 1511TIP3    H1 4497   3.926   5.437   3.634  0.1330 -0.1381  1.2296
 1511TIP3    H2 4498   3.866   5.305   3.588 -0.4814  1.0001 -1.4386
 1512TIP3   OH2 4499   4.339   4.337   2.256 -0.1415  0.1379  0.4142
 1512TIP3    H1 4500   4.373   4.391   2.327 -2.5861 -0.5607  2.2782
 1512TIP3    H2 4501   4.398   4.262   2.252  0.1932  0.3101  1.5751
 1513TIP3   OH2 4502   0.585   4.411   4.843 -0.1332 -0.5605 -0.2605
 1513TIP3    H1 4503   0.606   4.468   4.769  1.3632 -1.3304 -0.4696
 1513TIP3    H2 4504   0.536   4.467   4.903  0.0232  0.5246 -1.1073
 1514TIP3   OH2 4505   7.032   1.187   1.290 -0.2657  0.9449  0.0826
 1514TIP3    H1 4506   7.018   1.157   1.201 -0.4878  2.4242 -0.4095
 1514TIP3    H2 4507   6.990   1.120   1.345 -0.3170  0.1397 -0.9240
 1515TIP3   OH2 4508   6.182   5.642   4.086 -0.0091  0.3147 -0.4763
 1515TIP3    H1 4509   6.100   5.690   4.097  0.0304  0.3505 -0.3414
 1515TIP3    H2 4510   6.249   5.698   4.125  0.1791  0.5853 -1.1693
 1516TIP3   OH2 4511   5.761   4.752   3.924  0.2934 -0.0947  0.5067
 1516TIP3    H1 4512   5.677   4.767   3.968 -0.5643 -0.8100 -0.8337
 1516TIP3    H2 4513   5.826   4.781   3.988 -0.9340 -0.2501  1.8993
 1517TIP3   OH2 4514   3.740   6.317   1.515 -0.1820 -0.7711 -0.0608
 1517TIP3    H1 4515   3.707   6.389   1.461  1.7247  1.3284  1.3745
 1517TIP3    H2 4516   3.781   6.257   1.452 -3.0966 -1.5232 -1.4523
 1518TIP3   OH2 4517   4.524   1.459   3.193 -0.6674 -0.2772  0.3024
 1518TIP3    H1 4518   4.505   1.366   3.202 -1.2327 -0.3693 -1.4455
 1518TIP3    H2 4519   4.475   1.501   3.264 -1.7503 -1.1770  0.1176
 1519TIP3   OH2 4520   4.492   5.446   3.845  0.3252 -0.2104  0.1552
 1519TIP3    H1 4521   4.534   5.384   3.905 -0.7350 -1.4650 -0.3517
 1519TIP3    H2 4522   4.527   5.424   3.759  0.2078  0.1423  0.0141
 1520TIP3   OH2 4523   0.134   5.279   1.946 -0.2644  0.1339  0.0101
 1520TIP3    H1 4524   0.131   5.281   2.042 -0.3651  0.6359 -0.0009
 1520TIP3    H2 4525   0.192   5.206   1.925 -0.5319 -0.2097  0.4504
 1521TIP3   OH2 4526   1.818   0.264   5.300  0.0499 -0.0018  0.6667
 1521TIP3    H1 4527   1.862   0.179   5.301  0.5127  0.2408  0.9030
 1521TIP3    H2 4528   1.807   0.284   5.207  0.4410 -0.0630  0.6061
 1522TIP3   OH2 4529   6.999   3.992   0.206 -0.5372 -0.2547  0.2451
 1522TIP3    H1 4530   6.993   4.086   0.221  0.6826 -0.2148  0.6468
 1522TIP3    H2 4531   7.092   3.977   0.185 -0.0609 -1.7146  2.8889
 1523TIP3   OH2 4532   5.572   3.966   5.030 -0.2736 -0.2456  0.3846
 1523TIP3    H1 4533   5.614   3.943   4.948  1.6562  3.0594  0.2513
 1523TIP3    H2 4534   5.636   3.943   5.098  1.3204  3.1937  0.3007
 1524TIP3   OH2 4535   2.393   3.434   4.180  0.0981 -0.1767  0.0897
 1524TIP3    H1 4536   2.346   3.361   4.219  0.8349  0.4352  2.3298
 1524TIP3    H2 4537   2.350   3.450   4.096 -0.1668 -3.0400 -0.3975
 1525TIP3   OH2 4538   4.146   0.338   0.022 -0.2891 -0.1765 -0.4533
 1525TIP3    H1 4539   4.106   0.418  -0.014 -0.1816  0.6017  1.0556
 1525TIP3    H2 4540   4.167   0.361   0.113  1.4854 -1.3165 -0.5260
 1526TIP3   OH2 4541   4.896   1.836   5.334 -0.0551 -0.0890 -0.3135
 1526TIP3    H1 4542   4.839   1.785   5.277 -2.0534  1.6161  0.0287
 1526TIP3    H2 4543   4.939   1.899   5.276  1.9519 -1.6507 -0.6424
 1527TIP3   OH2 4544   4.046   3.755   1.054  0.4680 -0.0442 -0.6167
 1527TIP3    H1 4545   3.967   3.808   1.052 -0.6851 -1.6655 -0.3940
 1527TIP3    H2 4546   4.118   3.818   1.053 -0.8081  1.4645 -1.2663
 1528TIP3   OH2 4547   4.994   6.607   0.400  1.1713  0.6090 -0.5549
 1528TIP3    H1 4548   5.064   6.544   0.384  2.7009  2.1860 -0.3111
 1528TIP3    H2 4549   5.028   6.664   0.469 -1.1214  0.2962  0.9310
 1529TIP3   OH2 4550   4.007   3.665   4.102 -0.0104 -0.1181 -0.2035
 1529TIP3    H1 4551   3.945   3.644   4.033  0.7387 -0.4993 -0.7779
 1529TIP3    H2 4552   4.053   3.742   4.070 -0.5781  0.5253  0.4852
 1530TIP3   OH2 4553   5.586   5.739   1.368  0.3253 -0.1944 -0.4271
 1530TIP3    H1 4554   5.548   5.811   1.317  0.1394  0.0054 -0.0098
 1530TIP3    H2 4555   5.511   5.694   1.407  0.5054  0.1909  0.3822
 1531TIP3   OH2 4556   4.794   5.168   5.833 -0.5010 -0.2028 -0.1028
 1531TIP3    H1 4557   4.774   5.076   5.849 -0.0273  0.2037  3.8739
 1531TIP3    H2 4558   4.752   5.188   5.750 -0.8067 -3.9169 -1.0010
 1532TIP3   OH2 4559   5.127   3.606   0.717 -0.2265 -1.0701  0.3099
 1532TIP3    H1 4560   5.045   3.576   0.678 -1.0701  1.0929  0.3048
 1532TIP3    H2 4561   5.116   3.700   0.728  1.7979 -0.9038  1.4681
 1533TIP3   OH2 4562   5.872   5.128   2.587  0.3209  0.1282  0.3440
 1533TIP3    H1 4563   5.884   5.074   2.665 -0.2993 -0.6850 -0.1065
 1533TIP3    H2 4564   5.781   5.158   2.593  0.0526 -0.5244 -0.4280
 1534TIP3   OH2 4565   4.073   2.151   0.454 -0.1315 -0.4217  0.8011
 1534TIP3    H1 4566   4.045   2.242   0.458 -0.2731 -0.4521  0.5719
 1534TIP3    H2 4567   3.995   2.104   0.422  0.3465 -0.4342 -0.3845
 1535TIP3   OH2 4568   5.543   5.079   1.282 -0.3482  0.2094  0.3661
 1535TIP3    H1 4569   5.551   5.119   1.195 -0.5785 -0.3448  0.0850
 1535TIP3    H2 4570   5.528   5.153   1.341 -2.6120  0.4011 -0.3760
 1536TIP3   OH2 4571   2.112   3.599   0.420 -0.1296  0.2964  0.1531
 1536TIP3    H1 4572   2.167   3.632   0.348  0.0790  0.1268  0.2316
 1536TIP3    H2 4573   2.116   3.667   0.487  1.7737 -0.6164  1.0751
 1537TIP3   OH2 4574   2.962   0.517   3.451  0.4136  0.2621  0.2753
 1537TIP3    H1 4575   3.000   0.562   3.376  2.0400 -0.3955  0.6565
 1537TIP3    H2 4576   2.989   0.426   3.441  0.9589  0.2184  1.8049
 1538TIP3   OH2 4577   5.982   6.175   0.595  0.2497  0.4384  0.1498
 1538TIP3    H1 4578   5.949   6.097   0.639 -2.0435  1.6062  0.6482
 1538TIP3    H2 4579   5.940   6.174   0.509 -1.1907  1.9135  0.7631
 1539TIP3   OH2 4580   5.818   1.425   0.424 -0.1954  0.2233 -0.0150
 1539TIP3    H1 4581   5.801   1.507   0.378  2.1457  0.0707 -1.3333
 1539TIP3    H2 4582   5.819   1.449   0.516 -0.7411  1.4280 -0.3061
 1540TIP3   OH2 4583   5.527   0.525   2.554  0.1770  0.4179  0.2253
 1540TIP3    H1 4584   5.463   0.590   2.581 -0.2988 -0.4019  1.1393
 1540TIP3    H2 4585   5.474   0.455   2.514  0.5006 -0.1961  0.8515
 1541TIP3   OH2 4586   2.046   4.633   5.189  0.3795  0.0324  0.4149
 1541TIP3    H1 4587   2.090   4.570   5.132  0.0926  0.5893 -0.4284
 1541TIP3    H2 4588   2.112   4.700   5.206 -0.0399  0.7390 -0.6492
 1542TIP3   OH2 4589   6.183   5.705   2.999  0.1038  0.0177 -0.1586
 1542TIP3    H1 4590   6.219   5.630   3.047 -1.5786 -1.3134 -0.8545
 1542TIP3    H2 4591   6.179   5.775   3.064  0.2604 -0.9677  0.9512
 1543TIP3   OH2 4592   0.969   2.632   0.347 -0.4499  0.1074  0.0070
 1543TIP3    H1 4593   0.893   2.653   0.291  0.4146  1.0946 -0.8506
 1543TIP3    H2 4594   0.962   2.538   0.363 -2.2268  0.2871  0.5160
 1544TIP3   OH2 4595   5.083   1.979   1.742 -0.0123 -0.6158  0.7963
 1544TIP3    H1 4596   5.067   2.074   1.741  0.2223 -0.5635 -1.1694
 1544TIP3    H2 4597   5.177   1.971   1.731 -0.3160 -1.0488 -2.3289
 1545TIP3   OH2 4598   5.872   3.999   1.602 -0.2122 -0.3747 -0.1742
 1545TIP3    H1 4599   5.791   3.947   1.596 -1.7188  1.5462  1.7882
 1545TIP3    H2 4600   5.869   4.036   1.690  3.2166 -0.7573  0.2147
 1546TIP3   OH2 4601   3.211   2.674   2.730 -0.1685 -0.1757 -0.1168
 1546TIP3    H1 4602   3.182   2.607   2.668  0.1785 -1.4676  1.0523
 1546TIP3    H2 4603   3.299   2.646   2.756  1.2669  2.4029 -1.8463
 1547TIP3   OH2 4604   3.940   2.792   4.093  0.4224 -0.4943 -0.7277
 1547TIP3    H1 4605   4.029   2.762   4.078  1.4150  2.5745 -1.7112
 1547TIP3    H2 4606   3.902   2.800   4.006  0.0133  0.4682 -0.4758
 1548TIP3   OH2 4607   7.170   3.849   0.474 -0.3181 -0.3233  0.3838
 1548TIP3    H1 4608   7.239   3.902   0.434 -1.0110  0.4974  0.2456
 1548TIP3    H2 4609   7.161   3.774   0.416 -0.3296  0.1446 -0.2355
 1549TIP3   OH2 4610   3.985   2.467   0.390  0.6052 -0.4248  0.0747
 1549TIP3    H1 4611   3.981   2.488   0.297 -1.2305  2.5145  0.6619
 1549TIP3    H2 4612   3.903   2.421   0.408  1.4954 -2.0765  0.0817
 1550TIP3   OH2 4613   6.117   6.045   5.853  1.0270  0.1546  0.4467
 1550TIP3    H1 4614   6.039   6.098   5.867  1.6689  0.9957  0.8724
 1550TIP3    H2 4615   6.083   5.961   5.821  0.1157  1.5909 -2.6978
 1551TIP3   OH2 4616   0.425   4.447   5.435  0.3800  0.6153  0.1252
 1551TIP3    H1 4617   0.455   4.422   5.522 -0.6369  0.4649  0.4472
 1551TIP3    H2 4618   0.401   4.539   5.443  0.9269  0.7887 -0.1790
 1552TIP3   OH2 4619   1.175   6.502   0.645  0.4040  0.4588  0.5588
 1552TIP3    H1 4620   1.128   6.426   0.609 -0.4018 -0.4631  3.3532
 1552TIP3    H2 4621   1.203   6.551   0.567 -2.0991 -0.8262 -1.3187
 1553TIP3   OH2 4622   6.660   5.304   5.097  0.4603 -0.0638  0.2389
 1553TIP3    H1 4623   6.564   5.295   5.098  0.3363  1.0243 -0.2677
 1553TIP3    H2 4624   6.683   5.327   5.187  0.2801 -0.5606  0.4167
 1554TIP3   OH2 4625   3.540   0.881   3.591  0.2996  0.3317 -0.0830
 1554TIP3    H1 4626   3.543   0.918   3.679  0.9668 -1.5436  0.7536
 1554TIP3    H2 4627   3.611   0.816   3.591  0.9799  1.0165 -2.3572
 1555TIP3   OH2 4628   2.140   4.129   3.587 -0.2451 -0.0913  0.7446
 1555TIP3    H1 4629   2.065   4.168   3.543  0.2225  1.4038  1.2456
 1555TIP3    H2 4630   2.169   4.195   3.650  1.4907 -0.6377  0.5634
 1556TIP3   OH2 4631   2.071   4.610   2.561 -0.4344 -0.0760 -0.2828
 1556TIP3    H1 4632   2.062   4.595   2.655 -1.7842  0.9568 -0.2109
 1556TIP3    H2 4633   2.139   4.676   2.554 -1.2657  0.8575  0.1042
 1557TIP3   OH2 4634   1.476   5.230   3.082  0.3124  0.4246  0.0450
 1557TIP3    H1 4635   1.393   5.210   3.039 -0.1969  0.7359  0.8680
 1557TIP3    H2 4636   1.459   5.309   3.132  0.5208 -0.6079  1.8336
 1558TIP3   OH2 4637   2.620   6.118   4.306 -0.3982  0.4223 -0.1582
 1558TIP3    H1 4638   2.657   6.098   4.392 -0.5956 -1.8650 -0.5296
 1558TIP3    H2 4639   2.607   6.213   4.307  1.8371  0.8022  1.4080
 1559TIP3   OH2 4640   1.149   0.568   2.740  0.4909  0.1411  0.1898
 1559TIP3    H1 4641   1.164   0.646   2.794 -1.4252  0.7321 -0.0776
 1559TIP3    H2 4642   1.237   0.536   2.720  1.2847  1.1689  1.8298
 1560TIP3   OH2 4643   6.918   5.210   3.662 -0.7729  0.2849  0.5981
 1560TIP3    H1 4644   7.010   5.214   3.688  0.0931  2.4876 -2.3024
 1560TIP3    H2 4645   6.885   5.299   3.674 -1.5935  0.2798 -1.2225
 1561TIP3   OH2 4646   3.810   5.583   3.938 -0.3155 -0.6270  0.2681
 1561TIP3    H1 4647   3.764   5.659   3.975 -0.2193 -0.0370 -0.7857
 1561TIP3    H2 4648   3.845   5.614   3.855  1.8540 -1.1221  0.9425
 1562TIP3   OH2 4649   6.309   5.796   0.597  0.6552 -0.3026 -0.2776
 1562TIP3    H1 4650   6.259   5.850   0.535  0.5647  0.1986  0.2213
 1562TIP3    H2 4651   6.348   5.859   0.657 -1.1025 -0.8567  1.5714
 1563TIP3   OH2 4652   2.221   1.044   1.278  0.3157  0.3388  0.5980
 1563TIP3    H1 4653   2.232   1.107   1.208  1.8554 -0.2350  0.2942
 1563TIP3    H2 4654   2.198   1.097   1.355 -1.0564  0.9927 -0.2217
 1564TIP3   OH2 4655   4.277   6.412   0.760  0.0896 -0.4234 -0.0055
 1564TIP3    H1 4656   4.325   6.460   0.828 -0.6543 -1.6575  1.4406
 1564TIP3    H2 4657   4.188   6.405   0.793 -1.0588  1.3240 -2.3848
 1565TIP3   OH2 4658   4.568   5.727   3.182  0.1851 -0.5323 -0.3523
 1565TIP3    H1 4659   4.489   5.759   3.139  0.1789 -1.1237 -0.7972
 1565TIP3    H2 4660   4.572   5.634   3.157  0.2326 -0.8611  0.8481
 1566TIP3   OH2 4661   6.651   5.200   4.648 -0.6478 -0.0499  0.3834
 1566TIP3    H1 4662   6.690   5.277   4.690  0.5714  0.1218 -0.9735
 1566TIP3    H2 4663   6.723   5.138   4.640 -0.8777 -0.1651 -1.1968
 1567TIP3   OH2 4664   4.965   5.631   2.897  0.3495  0.3650 -0.0570
 1567TIP3    H1 4665   4.919   5.690   2.837  1.1178  0.7175 -0.3102
 1567TIP3    H2 4666   5.017   5.574   2.840 -0.8484 -0.9876  0.1475
 1568TIP3   OH2 4667   3.325   1.877   5.574  0.0306 -0.2136 -0.1034
 1568TIP3    H1 4668   3.376   1.953   5.602 -1.4505  0.3542  1.2136
 1568TIP3    H2 4669   3.373   1.802   5.610 -0.0523  0.3076  1.1542
 1569TIP3   OH2 4670   0.693   6.331   5.382  0.0789 -0.3459 -0.6836
 1569TIP3    H1 4671   0.692   6.338   5.477  0.9964 -1.0426 -0.6077
 1569TIP3    H2 4672   0.616   6.380   5.353 -0.7347 -0.9012  0.4647
 1570TIP3   OH2 4673   3.189   2.517   5.582  0.5719 -0.8708 -0.4436
 1570TIP3    H1 4674   3.169   2.572   5.657 -0.0481 -2.0313  0.2816
 1570TIP3    H2 4675   3.114   2.458   5.575  1.3522 -1.8409 -0.9779
 1571TIP3   OH2 4676   4.383   5.255   0.119  0.1529  0.2221 -0.0296
 1571TIP3    H1 4677   4.347   5.174   0.082  0.3827  0.2668 -0.3542
 1571TIP3    H2 4678   4.306   5.305   0.145 -0.2168  1.4354 -3.0128
 1572TIP3   OH2 4679   4.053   5.973   0.258 -0.1349  0.2512  0.4400
 1572TIP3    H1 4680   4.107   5.898   0.283 -0.0910  0.1026 -0.1062
 1572TIP3    H2 4681   3.974   5.935   0.220  0.4923  0.4731 -1.1577
 1573TIP3   OH2 4682   3.812   4.100   0.342 -0.3849  0.0869 -0.1818
 1573TIP3    H1 4683   3.727   4.065   0.370 -0.3881 -1.1247 -1.5378
 1573TIP3    H2 4684   3.876   4.042   0.383 -0.3700 -1.2344 -1.9209
 1574TIP3   OH2 4685   1.174   0.107   4.848  0.5111  0.2263 -0.6049
 1574TIP3    H1 4686   1.136   0.174   4.905  0.3875 -0.5759  0.2720
 1574TIP3    H2 4687   1.253   0.078   4.895  0.3461 -0.5181 -0.7893
 1575TIP3   OH2 4688   1.679   5.699   2.973 -0.5465 -0.4923 -0.0842
 1575TIP3    H1 4689   1.676   5.611   2.936 -3.1321 -0.1190 -0.9617
 1575TIP3    H2 4690   1.753   5.741   2.930  0.1240 -1.9230 -0.3747
 1576TIP3   OH2 4691   5.447   1.742   5.579 -0.1397 -0.0751 -0.5667
 1576TIP3    H1 4692   5.469   1.741   5.485 -0.6340 -0.2630 -0.6838
 1576TIP3    H2 4693   5.387   1.668   5.590 -1.0529  0.6779 -0.3429
 1577TIP3   OH2 4694   2.235   5.485   3.019 -0.2127 -0.8154 -0.1862
 1577TIP3    H1 4695   2.259   5.563   3.070 -0.3734  0.0269 -1.3513
 1577TIP3    H2 4696   2.297   5.418   3.048 -0.4269 -0.4305  1.2455
 1578TIP3   OH2 4697   5.060   4.089   5.212  0.7260 -0.3265  0.3522
 1578TIP3    H1 4698   4.988   4.104   5.273  0.2639 -0.5682 -0.1245
 1578TIP3    H2 4699   5.045   4.000   5.179  2.0095 -0.9205  1.2669
 1579TIP3   OH2 4700   3.511   0.247   4.849 -0.0896  0.4485  0.2000
 1579TIP3    H1 4701   3.578   0.290   4.902 -0.9557  1.5918  0.4181
 1579TIP3    H2 4702   3.429   0.284   4.880 -0.6167  1.5402 -2.2496
 1580TIP3   OH2 4703   3.663   0.875   5.738 -0.2906 -0.3347  0.3967
 1580TIP3    H1 4704   3.571   0.900   5.747 -0.3964 -1.0466  1.5120
 1580TIP3    H2 4705   3.681   0.882   5.644 -1.0341  1.3222  0.3475
 1581TIP3   OH2 4706   2.540   2.778   1.847  0.3815  0.9711 -0.0329
 1581TIP3    H1 4707   2.605   2.713   1.871  0.5005  0.7559 -0.9077
 1581TIP3    H2 4708   2.585   2.836   1.786  0.0275  1.3773  0.0841
 1582TIP3   OH2 4709   0.711   5.581   2.862 -0.6032 -0.3792  0.3206
 1582TIP3    H1 4710   0.803   5.593   2.838 -0.5653  0.1888  0.7206
 1582TIP3    H2 4711   0.712   5.579   2.958 -1.2561  2.0954  0.4468
 1583TIP3   OH2 4712   0.054   6.245   0.107 -0.0057  0.0009 -0.0592
 1583TIP3    H1 4713   0.008   6.329   0.113  0.9432  0.4354  2.1310
 1583TIP3    H2 4714  -0.009   6.181   0.141  0.2628  0.3018  1.0584
 1584TIP3   OH2 4715   5.699   3.628   3.743  0.0347 -0.3568 -0.6480
 1584TIP3    H1 4716   5.642   3.614   3.667  0.3125 -0.3152 -0.8672
 1584TIP3    H2 4717   5.788   3.615   3.709  0.4144  2.6823 -1.1160
 1585TIP3   OH2 4718   1.645   5.716  -0.014  0.1306 -0.2400 -0.4671
 1585TIP3    H1 4719   1.660   5.687   0.076 -0.5658  0.1768 -0.2128
 1585TIP3    H2 4720   1.715   5.780  -0.030 -0.7340  0.9654  0.3787
 1586TIP3   OH2 4721   6.319   6.560   0.202 -0.0903 -0.4295 -0.0074
 1586TIP3    H1 4722   6.304   6.641   0.153  0.2453  0.6568  1.6306
 1586TIP3    H2 4723   6.231   6.528   0.222 -0.2582 -1.4088 -2.0715
 1587TIP3   OH2 4724   4.079   3.145   4.618  0.6043  0.5410  0.3027
 1587TIP3    H1 4725   4.089   3.210   4.688  0.3427  0.3439  0.5269
 1587TIP3    H2 4726   4.026   3.076   4.658  1.1963  0.0137  0.1875
 1588TIP3   OH2 4727   5.976   6.083   5.481  0.0436 -0.6601  0.9652
 1588TIP3    H1 4728   5.894   6.113   5.522 -0.2916  0.4547 -0.4149
 1588TIP3    H2 4729   5.948   6.020   5.415  0.1144  0.7307 -0.4517
 1589TIP3   OH2 4730   4.084  -0.005   1.749  0.2201  0.6667  0.3634
 1589TIP3    H1 4731   4.042   0.080   1.746 -2.6453 -0.6737 -1.0513
 1589TIP3    H2 4732   4.054  -0.045   1.830 -0.4525  0.1098 -0.1432
 1590TIP3   OH2 4733   0.972   1.569   3.818  0.4676 -0.6559  0.2308
 1590TIP3    H1 4734   0.904   1.532   3.761 -1.1690  3.2286 -0.6572
 1590TIP3    H2 4735   0.992   1.654   3.780  3.7189 -0.3608  2.2191
 1591TIP3   OH2 4736   3.028   6.365   0.983 -0.1607 -0.3587 -0.2778
 1591TIP3    H1 4737   3.103   6.419   0.958 -0.0483 -0.8695 -1.0595
 1591TIP3    H2 4738   2.952   6.410   0.945  0.1804 -2.2130 -3.5358
 1592TIP3   OH2 4739   3.098   3.400   1.375 -0.6134 -0.5396  0.4185
 1592TIP3    H1 4740   3.144   3.371   1.453  0.1051 -0.2765  0.1007
 1592TIP3    H2 4741   3.131   3.343   1.305 -0.3621  0.0111  0.0853
 1593TIP3   OH2 4742   1.344   4.063   3.284 -0.6747  0.2935 -0.4496
 1593TIP3    H1 4743   1.436   4.090   3.288 -0.7462  0.4834  2.2239
 1593TIP3    H2 4744   1.344   3.981   3.235  0.5721  1.3594 -2.3514
 1594TIP3   OH2 4745   4.139   3.667   2.486  0.2216 -0.0039 -0.1008
 1594TIP3    H1 4746   4.215   3.710   2.447 -0.5496  0.5554 -1.0387
 1594TIP3    H2 4747   4.176   3.597   2.540  1.4746  1.5555  1.1309
 1595TIP3   OH2 4748   7.187   5.661   4.784  0.3395  0.2243  0.2394
 1595TIP3    H1 4749   7.207   5.640   4.875  0.7263  1.9633  0.5989
 1595TIP3    H2 4750   7.183   5.757   4.782  0.7854  0.2413 -1.6748
 1596TIP3   OH2 4751   4.255   2.126   1.806 -0.2370  0.0448  0.0862
 1596TIP3    H1 4752   4.170   2.169   1.801 -1.8730 -2.5903  2.3676
 1596TIP3    H2 4753   4.312   2.190   1.850 -1.6827  0.9846  0.6588
 1597TIP3   OH2 4754   0.469   4.482   2.517 -0.2367 -0.3270 -0.3599
 1597TIP3    H1 4755   0.440   4.485   2.426 -0.9596  0.9678 -0.1175
 1597TIP3    H2 4756   0.388   4.483   2.568  0.1439 -1.5887  0.3112
 1598TIP3   OH2 4757   6.242   4.042   3.826 -0.1921  0.2606  0.1515
 1598TIP3    H1 4758   6.273   4.115   3.880  0.7666  1.7156 -2.2276
 1598TIP3    H2 4759   6.179   4.082   3.766  0.5474 -0.7957 -1.3774
 1599TIP3   OH2 4760   1.571   1.754   4.600 -0.5755 -0.1972  0.8002
 1599TIP3    H1 4761   1.661   1.757   4.634 -0.3651  1.0417  0.1929
 1599TIP3    H2 4762   1.581   1.766   4.505 -1.4207  0.5638  0.7994
 1600TIP3   OH2 4763   0.312   5.721   4.428  0.1044  0.2045  0.5498
 1600TIP3    H1 4764   0.235   5.668   4.450 -1.1678  0.9108 -1.8248
 1600TIP3    H2 4765   0.275   5.803   4.394  1.9352  0.9817  0.3404
 1601TIP3   OH2 4766   1.186   6.718   4.636  0.0322  0.4472  0.3535
 1601TIP3    H1 4767   1.187   6.672   4.553  2.7283  0.6289  0.2025
 1601TIP3    H2 4768   1.133   6.796   4.620 -1.7699 -0.8615 -0.3386
 1602TIP3   OH2 4769   0.948   6.054   1.790  0.4727 -0.5112 -0.3170
 1602TIP3    H1 4770   0.958   6.103   1.872  1.2784 -1.3648  0.1062
 1602TIP3    H2 4771   0.854   6.037   1.783  0.5991 -2.1870  1.4779
 1603TIP3   OH2 4772   5.669   1.800   4.863 -0.1400  0.8100 -0.0900
 1603TIP3    H1 4773   5.653   1.742   4.938  0.1950  1.6610  0.6550
 1603TIP3    H2 4774   5.584   1.840   4.845  0.0531  1.5966  0.6922
 1604TIP3   OH2 4775   4.420   2.952   4.145 -0.4168  0.5206 -0.2900
 1604TIP3    H1 4776   4.364   3.019   4.106  0.7825  1.2401 -0.8069
 1604TIP3    H2 4777   4.480   2.999   4.202  0.9430  0.0198 -1.2393
 1605TIP3   OH2 4778   5.897   2.296   3.416  0.8951 -0.9848 -0.3877
 1605TIP3    H1 4779   5.931   2.211   3.388  1.3072 -1.0515  0.2992
 1605TIP3    H2 4780   5.915   2.300   3.510 -2.1362 -1.5537  0.3200
 1606TIP3   OH2 4781   5.293   4.101   0.200 -0.5217  0.3038  0.3167
 1606TIP3    H1 4782   5.376   4.136   0.167 -1.6567  2.1073 -0.8411
 1606TIP3    H2 4783   5.274   4.027   0.143  0.5509 -0.5026  0.9697
 1607TIP3   OH2 4784   0.609   6.147   5.667  0.0751 -0.2242  0.3874
 1607TIP3    H1 4785   0.524   6.191   5.662 -0.9456 -1.8398  1.9316
 1607TIP3    H2 4786   0.673   6.217   5.661 -1.4199  1.3392  1.5012
 1608TIP3   OH2 4787   4.866   5.595   0.644 -0.0144 -0.0328 -0.4970
 1608TIP3    H1 4788   4.910   5.525   0.595 -0.9703 -1.4786  0.6457
 1608TIP3    H2 4789   4.778   5.561   0.661  0.6158 -0.2038  3.3291
 1609TIP3   OH2 4790   6.673   0.787   2.511  0.2620  0.0099 -0.3750
 1609TIP3    H1 4791   6.621   0.795   2.431 -0.3348  4.3798  0.2163
 1609TIP3    H2 4792   6.609   0.788   2.582  0.8388  3.7188  0.2968
 1610TIP3   OH2 4793   2.222   5.599   4.256 -0.1941  0.5383  0.2571
 1610TIP3    H1 4794   2.316   5.616   4.253  0.5993 -2.9656  0.8038
 1610TIP3    H2 4795   2.198   5.581   4.166  0.0593 -0.1456  0.3166
 1611TIP3   OH2 4796   1.993   6.574   1.325  0.5910 -0.3620 -0.0451
 1611TIP3    H1 4797   1.923   6.639   1.336  1.2364  0.5982 -1.4270
 1611TIP3    H2 4798   2.000   6.561   1.231  2.5387 -0.1376  0.0239
 1612TIP3   OH2 4799   3.944   2.031   4.323  0.2312 -0.2687  0.4066
 1612TIP3    H1 4800   3.908   2.066   4.242 -0.6823  0.3172  1.0534
 1612TIP3    H2 4801   3.930   2.099   4.388 -0.0949 -1.1701  1.3209
 1613TIP3   OH2 4802   3.442   2.768   0.027 -0.3041 -0.0536 -0.6024
 1613TIP3    H1 4803   3.363   2.714   0.029 -0.7669  0.5929 -0.8792
 1613TIP3    H2 4804   3.428   2.828  -0.047  0.5544 -0.0858 -0.8038
 1614TIP3   OH2 4805   5.039   3.830   5.149  0.3646  0.5767 -0.1334
 1614TIP3    H1 4806   5.101   3.757   5.153  0.2751  0.5147  0.1287
 1614TIP3    H2 4807   4.988   3.814   5.069  1.6193  1.3870 -1.1332
 1615TIP3   OH2 4808   3.874   2.421   1.030 -0.6626 -0.1839 -0.0128
 1615TIP3    H1 4809   3.957   2.457   1.062 -1.7052  0.8634  1.6392
 1615TIP3    H2 4810   3.849   2.357   1.096 -0.4848 -1.5911 -1.2548
 1616TIP3   OH2 4811   6.944   4.242   3.978 -0.2252  0.4647  0.2447
 1616TIP3    H1 4812   6.953   4.286   3.894 -0.7966  0.0348 -0.0456
 1616TIP3    H2 4813   6.898   4.161   3.958  1.0314 -0.4054  0.7316
 1617TIP3   OH2 4814   3.283   6.246   0.291 -0.2665  0.2171 -0.2236
 1617TIP3    H1 4815   3.339   6.197   0.230  0.7532  1.1788 -0.0821
 1617TIP3    H2 4816   3.208   6.188   0.306  1.0739 -1.4689  0.2474
 1618TIP3   OH2 4817   0.373   4.354   3.766 -0.0226 -0.0183  0.5531
 1618TIP3    H1 4818   0.383   4.403   3.685 -0.3298 -1.3992 -0.3559
 1618TIP3    H2 4819   0.449   4.379   3.819  0.7863  0.0685 -0.6110
 1619TIP3   OH2 4820   3.854   3.238   1.827  0.1165 -0.0347 -0.1380
 1619TIP3    H1 4821   3.814   3.299   1.889  0.7669 -1.4521  1.7678
 1619TIP3    H2 4822   3.848   3.153   1.870  1.8726 -0.8600 -1.4076
 1620TIP3   OH2 4823   2.807   1.661   4.535 -0.3310  0.0734 -0.4461
 1620TIP3    H1 4824   2.744   1.610   4.586 -1.2757  0.7200 -0.9375
 1620TIP3    H2 4825   2.777   1.652   4.444  0.0338  0.7478 -0.6398
 1621TIP3   OH2 4826   0.697   0.737   0.427  0.4550  0.0783  0.2709
 1621TIP3    H1 4827   0.722   0.645   0.422  1.4378  0.3276  0.3905
 1621TIP3    H2 4828   0.613   0.736   0.474  0.5364 -0.7435  0.4181
 1622TIP3   OH2 4829   6.479   6.444   5.393 -0.7770 -0.1497 -0.1174
 1622TIP3    H1 4830   6.413   6.479   5.453 -1.3600 -0.6265 -0.4799
 1622TIP3    H2 4831   6.492   6.514   5.329 -1.6739 -0.4432 -0.6305
 1623TIP3   OH2 4832   2.898   0.500   5.340  0.1708 -0.0647 -0.2736
 1623TIP3    H1 4833   2.835   0.475   5.408  1.4559  0.0533  1.0269
 1623TIP3    H2 4834   2.900   0.425   5.281 -0.7405 -0.3108 -0.0147
 1624TIP3   OH2 4835   0.151   1.362   1.326  0.3564  0.3312  0.9852
 1624TIP3    H1 4836   0.219   1.397   1.384  0.9352  0.7559  0.0857
 1624TIP3    H2 4837   0.078   1.423   1.336  1.2521  1.6888 -0.3472
 1625TIP3   OH2 4838   5.322   6.764   3.276  0.0049  0.4181 -0.3360
 1625TIP3    H1 4839   5.414   6.786   3.261  0.3903 -2.0016 -2.3174
 1625TIP3    H2 4840   5.312   6.762   3.371  2.7038 -1.5313  0.0198
 1626TIP3   OH2 4841   6.298   0.869   2.869 -0.5860  0.0845  0.2862
 1626TIP3    H1 4842   6.387   0.874   2.903 -0.0180  0.1358 -1.1689
 1626TIP3    H2 4843   6.263   0.958   2.879  0.4802  0.7698 -1.5760
 1627TIP3   OH2 4844   0.810   5.171   1.515 -0.0023  0.2628  0.2007
 1627TIP3    H1 4845   0.760   5.093   1.492  0.1714 -0.2682  1.5546
 1627TIP3    H2 4846   0.813   5.222   1.434 -1.1586 -0.5520 -0.3815
 1628TIP3   OH2 4847   6.577   4.304   4.750 -0.5008  0.0270 -0.6677
 1628TIP3    H1 4848   6.485   4.287   4.734 -0.9078  1.3117  0.1493
 1628TIP3    H2 4849   6.607   4.352   4.673 -0.5867 -0.1720 -0.8238
 1629TIP3   OH2 4850   1.894   3.849   0.377  0.4688  0.3123 -0.5079
 1629TIP3    H1 4851   1.893   3.859   0.472 -0.3080  2.9678 -0.7106
 1629TIP3    H2 4852   1.801   3.844   0.353  0.5740  1.4702 -1.2248
 1630TIP3   OH2 4853   4.986   1.714   5.842 -0.1090 -0.0813 -0.1918
 1630TIP3    H1 4854   4.916   1.648   5.848  0.2125 -0.4920 -0.8810
 1630TIP3    H2 4855   4.986   1.739   5.750  0.3967  0.2028 -0.1128
 1631TIP3   OH2 4856   3.898   0.245   4.832  0.5901 -0.0632  0.0019
 1631TIP3    H1 4857   3.964   0.315   4.824  0.1827  0.1803 -1.8184
 1631TIP3    H2 4858   3.823   0.288   4.874 -0.3887  1.2493 -2.8225
 1632TIP3   OH2 4859   1.256   5.973   5.148  0.2097  0.2713  0.1126
 1632TIP3    H1 4860   1.190   5.910   5.120  0.2087 -0.5051  1.7710
 1632TIP3    H2 4861   1.214   6.022   5.219 -0.0131  2.6065 -1.5175
 1633TIP3   OH2 4862   3.374   2.756   5.077 -0.3228  0.6828  0.4301
 1633TIP3    H1 4863   3.321   2.686   5.037  0.2125 -0.4612  1.6607
 1633TIP3    H2 4864   3.412   2.802   5.002 -0.0016 -0.8821 -0.4154
 1634TIP3   OH2 4865   4.349   0.660   2.504  0.2109  0.0599  0.6378
 1634TIP3    H1 4866   4.318   0.747   2.529 -0.1504 -0.4041  1.8983
 1634TIP3    H2 4867   4.343   0.609   2.585  2.2601 -0.6213  0.4110
 1635TIP3   OH2 4868   3.617   6.279   2.691  0.0397 -0.7086  0.0239
 1635TIP3    H1 4869   3.673   6.202   2.698 -1.8106 -1.9980  1.8439
 1635TIP3    H2 4870   3.528   6.243   2.681 -0.6650  1.2308 -1.5172
 1636TIP3   OH2 4871   2.866   3.444   2.689  0.4682 -0.1436  0.9204
 1636TIP3    H1 4872   2.856   3.416   2.599  0.4904 -1.3425  1.2721
 1636TIP3    H2 4873   2.782   3.424   2.730  0.1064  1.3298  0.9431
 1637TIP3   OH2 4874   4.109   1.053   4.667 -0.1925  0.1259 -0.2305
 1637TIP3    H1 4875   4.063   1.136   4.679  2.2718  1.7496 -1.1909
 1637TIP3    H2 4876   4.155   1.039   4.750 -0.3904 -0.1541 -0.1663
 1638TIP3   OH2 4877   0.065   6.406   5.704  0.1481  0.8523 -0.3715
 1638TIP3    H1 4878   0.071   6.370   5.615 -1.0098  0.8806 -0.4848
 1638TIP3    H2 4879   0.120   6.485   5.702  0.4961  0.5993 -0.9269
 1639TIP3   OH2 4880   2.580   5.818   4.492  0.1454  0.3901 -0.3166
 1639TIP3    H1 4881   2.525   5.893   4.469  0.5499  0.8956  0.3220
 1639TIP3    H2 4882   2.614   5.787   4.408  1.0455  1.7653 -0.4930
 1640TIP3   OH2 4883   0.318   5.034   1.891  0.2655 -0.1608 -0.2213
 1640TIP3    H1 4884   0.294   4.956   1.941  0.4846  0.1886  0.4376
 1640TIP3    H2 4885   0.406   5.056   1.921 -1.2377  2.7342  2.7671
 1641TIP3   OH2 4886   0.428   3.596   3.447 -0.7710  0.1087  0.3791
 1641TIP3    H1 4887   0.360   3.569   3.509 -0.0191 -0.8072  0.8297
 1641TIP3    H2 4888   0.408   3.688   3.428 -2.6883 -0.3769 -0.2435
 1642TIP3   OH2 4889   2.424   6.762   2.757 -0.6682  0.4662 -0.6746
 1642TIP3    H1 4890   2.491   6.831   2.763 -0.5269  0.5021 -2.3833
 1642TIP3    H2 4891   2.371   6.787   2.682 -1.1799 -0.8116 -0.7468
 1643TIP3   OH2 4892   3.436   6.327   5.768 -0.9025  0.4390 -0.1217
 1643TIP3    H1 4893   3.526   6.323   5.734 -0.5406  1.2055  0.7116
 1643TIP3    H2 4894   3.398   6.242   5.745  0.8223 -0.9058  1.6464
 1644TIP3   OH2 4895   3.199   2.943   2.754  0.2704 -0.4572  0.0674
 1644TIP3    H1 4896   3.203   2.848   2.761  3.1213 -0.5145 -0.9997
 1644TIP3    H2 4897   3.189   2.960   2.660 -2.3804  0.3606  0.4207
 1645TIP3   OH2 4898   2.390   6.773   1.250 -0.1518 -0.8336 -0.3757
 1645TIP3    H1 4899   2.388   6.694   1.196  1.9761 -0.2122 -1.4947
 1645TIP3    H2 4900   2.483   6.785   1.272 -0.6218  0.4967  1.0815
 1646TIP3   OH2 4901   5.955   2.789   5.043 -0.3496  0.3949  0.0486
 1646TIP3    H1 4902   5.992   2.877   5.056 -1.9196  0.9522  1.0783
 1646TIP3    H2 4903   5.933   2.759   5.131  0.2264 -1.0853 -0.2810
 1647TIP3   OH2 4904   5.186   0.016   4.195 -0.2928  0.5526  0.3835
 1647TIP3    H1 4905   5.223   0.098   4.228  0.0584  0.7172 -0.3817
 1647TIP3    H2 4906   5.092   0.032   4.190 -0.2194  0.9395  0.1710
 1648TIP3   OH2 4907   0.520   3.890   2.915  0.2475 -0.8101  0.2320
 1648TIP3    H1 4908   0.593   3.872   2.857  1.6620 -0.2298  1.7564
 1648TIP3    H2 4909   0.540   3.975   2.954 -1.9553  0.0608 -0.3243
 1649TIP3   OH2 4910   4.191   2.008   3.542  0.0174 -0.2292  0.7441
 1649TIP3    H1 4911   4.252   1.951   3.495 -0.5586 -0.0305 -0.2701
 1649TIP3    H2 4912   4.105   1.971   3.525 -0.4671  1.3987 -0.6921
 1650TIP3   OH2 4913   5.559   5.186   0.659  0.2464  0.3111  0.1061
 1650TIP3    H1 4914   5.616   5.208   0.733 -1.5047  2.0475  1.0204
 1650TIP3    H2 4915   5.475   5.164   0.698 -1.3041  3.1223 -1.2935
 1651TIP3   OH2 4916   4.053   2.883   5.108 -0.2842  0.1911  0.0406
 1651TIP3    H1 4917   4.072   2.857   5.198  0.8290  1.2527  0.1329
 1651TIP3    H2 4918   3.957   2.884   5.104 -0.3581 -0.8991  0.8900
 1652TIP3   OH2 4919   2.107   5.932   2.442 -0.0683 -0.1804  0.0918
 1652TIP3    H1 4920   2.078   5.854   2.490 -3.7143  1.0133  0.1167
 1652TIP3    H2 4921   2.127   5.996   2.510 -0.1068 -0.1116  0.0380
 1653TIP3   OH2 4922   4.239   0.768   5.010 -0.5700 -0.1312 -0.3999
 1653TIP3    H1 4923   4.326   0.807   5.003 -0.3198 -0.4960  0.6099
 1653TIP3    H2 4924   4.182   0.841   5.035 -0.3559 -0.1115  0.0410
 1654TIP3   OH2 4925   3.918   0.593   5.420  0.0279 -0.2462 -0.4154
 1654TIP3    H1 4926   3.908   0.543   5.501  2.1417  0.0745  0.1189
 1654TIP3    H2 4927   3.966   0.534   5.362  2.8929  1.1023  0.3487
 1655TIP3   OH2 4928   4.681   2.946   0.785  0.1892  0.0516 -0.0169
 1655TIP3    H1 4929   4.671   3.016   0.721 -2.1631  1.6344  1.9189
 1655TIP3    H2 4930   4.733   2.985   0.855  0.9770 -0.9869 -0.0018
 1656TIP3   OH2 4931   3.195   1.921   2.217 -0.1668 -0.1658 -0.0411
 1656TIP3    H1 4932   3.110   1.896   2.180 -0.2883 -2.1391  1.3642
 1656TIP3    H2 4933   3.227   1.991   2.161 -1.4418 -1.2895 -2.2947
 1657TIP3   OH2 4934   0.621   6.267   1.015  0.2836  0.5765  0.4641
 1657TIP3    H1 4935   0.569   6.278   1.095  0.8377 -0.9865  1.0764
 1657TIP3    H2 4936   0.617   6.173   0.997 -0.1827  0.9593 -1.6228
 1658TIP3   OH2 4937   0.427   1.213   1.001  0.0623 -0.1450  0.5494
 1658TIP3    H1 4938   0.426   1.126   0.961  0.9885  0.1630 -0.2093
 1658TIP3    H2 4939   0.516   1.245   0.985 -0.7206  1.6075 -0.7073
 1659TIP3   OH2 4940   2.637   0.623   3.212  0.2491 -0.1018 -0.1130
 1659TIP3    H1 4941   2.613   0.578   3.131 -0.1264 -1.3400  0.6586
 1659TIP3    H2 4942   2.615   0.715   3.196 -0.6176 -0.4663 -1.1049
 1660TIP3   OH2 4943   1.018   2.884   2.020  0.7791 -0.9729  0.0614
 1660TIP3    H1 4944   1.069   2.954   1.978  1.1495 -0.1919  1.7206
 1660TIP3    H2 4945   0.950   2.931   2.068 -0.3277 -1.9052 -0.5555
 1661TIP3   OH2 4946   5.094   2.612   3.432  0.2211 -0.3403  0.4169
 1661TIP3    H1 4947   5.053   2.687   3.475 -0.2621  0.1172 -0.8099
 1661TIP3    H2 4948   5.178   2.646   3.401  0.0643 -0.3301 -0.0096
 1662TIP3   OH2 4949   1.505   2.242   4.215 -0.6894 -0.5819 -0.2892
 1662TIP3    H1 4950   1.575   2.179   4.232  0.8469  0.6124 -1.7937
 1662TIP3    H2 4951   1.462   2.254   4.300 -0.6167 -3.0807  0.1879
 1663TIP3   OH2 4952   6.666   4.308   2.185  0.2949 -0.2129 -0.1284
 1663TIP3    H1 4953   6.744   4.363   2.191  0.1794  0.0389 -0.8588
 1663TIP3    H2 4954   6.609   4.340   2.255  1.0692 -0.7780  0.7869
 1664TIP3   OH2 4955   2.393   5.752   0.497 -0.0196 -0.1959 -0.5231
 1664TIP3    H1 4956   2.302   5.724   0.504 -0.7001  2.0190  0.5330
 1664TIP3    H2 4957   2.401   5.784   0.407 -0.1531 -0.7740 -0.7449
 1665TIP3   OH2 4958   4.935   3.535   5.353  0.5295 -0.3373  0.2266
 1665TIP3    H1 4959   4.993   3.562   5.424  1.5139 -0.1456 -0.6214
 1665TIP3    H2 4960   4.991   3.533   5.276  0.0127 -2.6998 -0.1718
 1666TIP3   OH2 4961   1.731   1.910   5.568  0.1480  0.2693  0.6954
 1666TIP3    H1 4962   1.748   1.876   5.480 -0.1973  0.1363  0.6788
 1666TIP3    H2 4963   1.767   1.999   5.566  0.6763  0.0628  0.6070
 1667TIP3   OH2 4964   3.014   0.511   4.974 -0.3414 -0.0109  0.4151
 1667TIP3    H1 4965   2.983   0.582   4.917  1.1182  0.1089 -0.2783
 1667TIP3    H2 4966   2.961   0.519   5.053 -4.4169 -1.8272 -1.7922
 1668TIP3   OH2 4967   1.651   6.739   1.469  0.3729 -0.3484 -0.7344
 1668TIP3    H1 4968   1.671   6.771   1.557  0.8037 -1.7424 -0.2871
 1668TIP3    H2 4969   1.612   6.653   1.483 -0.7181 -0.0686 -1.8723
 1669TIP3   OH2 4970   2.332   4.827   0.204  0.3387 -0.8421  0.3347
 1669TIP3    H1 4971   2.269   4.896   0.222  2.6320  0.8472  2.5115
 1669TIP3    H2 4972   2.359   4.842   0.114  0.0002  0.4016  0.4248
 1670TIP3   OH2 4973   1.377   0.005   3.212 -0.2949 -0.4067 -0.6706
 1670TIP3    H1 4974   1.415   0.032   3.129  0.6259 -2.8297 -1.1161
 1670TIP3    H2 4975   1.423   0.058   3.278  0.7508 -0.2257 -1.5268
 1671TIP3   OH2 4976   0.610   6.624   2.682  0.2970  0.0846 -0.3521
 1671TIP3    H1 4977   0.661   6.680   2.741  1.8669 -0.0774 -1.4890
 1671TIP3    H2 4978   0.521   6.659   2.687  0.9627  1.8778 -0.0371
 1672TIP3   OH2 4979   0.046   2.548   0.621 -0.3484 -0.9517 -0.2709
 1672TIP3    H1 4980   0.044   2.467   0.569  1.1879 -0.5731 -0.9654
 1672TIP3    H2 4981   0.083   2.613   0.562  0.4979 -0.2604  0.9925
 1673TIP3   OH2 4982   3.605   1.588   3.145  0.0640 -0.0836 -0.1784
 1673TIP3    H1 4983   3.630   1.586   3.237 -1.4719  0.4942  0.2893
 1673TIP3    H2 4984   3.631   1.675   3.115  1.7231 -0.7101 -0.6806
 1674TIP3   OH2 4985   3.120   3.125   3.661  0.0503 -0.1891 -0.2572
 1674TIP3    H1 4986   3.179   3.097   3.731  1.2482  0.5181 -0.9523
 1674TIP3    H2 4987   3.161   3.092   3.581 -1.0796 -0.6226 -0.6891
 1675TIP3   OH2 4988   2.826   2.829   2.522 -0.8190  0.3629 -0.1027
 1675TIP3    H1 4989   2.792   2.826   2.611 -0.9588  0.7117 -0.1441
 1675TIP3    H2 4990   2.910   2.875   2.530 -0.1314 -0.8808  0.0673
 1676TIP3   OH2 4991   0.657   0.481   2.401 -0.0154  0.3895  0.5179
 1676TIP3    H1 4992   0.578   0.508   2.448  1.4087  1.0930  2.6658
 1676TIP3    H2 4993   0.695   0.562   2.369 -1.0045 -0.0850 -2.1083
 1677TIP3   OH2 4994   4.302   2.046   1.301 -0.4781 -0.2951  0.3876
 1677TIP3    H1 4995   4.242   2.060   1.375 -1.8737 -0.2772 -0.6945
 1677TIP3    H2 4996   4.273   2.109   1.235  0.9415 -0.1038 -0.0804
 1678TIP3   OH2 4997   5.988   3.329   4.611 -0.2236  0.1343  0.6370
 1678TIP3    H1 4998   5.910   3.385   4.609 -0.9839 -0.8930  0.4267
 1678TIP3    H2 4999   6.047   3.368   4.546 -0.7984  0.6121  0.3904
 1679TIP3   OH2 5000   4.121   0.054   4.190  0.5492  0.4298 -0.4971
 1679TIP3    H1 5001   4.160  -0.010   4.130  2.9239  1.6029 -0.3110
 1679TIP3    H2 5002   4.176   0.051   4.268  0.2457  2.1394 -0.1813
 1680TIP3   OH2 5003   3.536   0.714   3.130 -0.7009 -0.3525 -0.1416
 1680TIP3    H1 5004   3.453   0.670   3.111 -1.3872  0.4578  0.8386
 1680TIP3    H2 5005   3.579   0.658   3.194 -0.3604 -0.9018 -0.8360
 1681TIP3   OH2 5006   0.696   1.651   2.161 -0.4338 -0.5379  0.1196
 1681TIP3    H1 5007   0.773   1.707   2.148 -1.5486  1.1691  0.5062
 1681TIP3    H2 5008   0.640   1.669   2.086 -1.3657 -0.1552  0.8860
 1682TIP3   OH2 5009   1.601   1.484   4.728 -0.0290  0.1363 -0.4985
 1682TIP3    H1 5010   1.594   1.576   4.703 -0.1486  0.1863 -0.2841
 1682TIP3    H2 5011   1.690   1.474   4.760 -0.3795  0.4617  0.6077
 1683TIP3   OH2 5012   3.972   3.459   1.542 -0.5217 -0.1740 -0.0363
 1683TIP3    H1 5013   3.960   3.543   1.586  0.3309  0.5523 -1.1396
 1683TIP3    H2 5014   3.993   3.482   1.452 -1.5626 -1.6105 -0.6766
 1684TIP3   OH2 5015   3.878   0.570   1.513  0.2439 -0.2685 -0.3153
 1684TIP3    H1 5016   3.904   0.608   1.597 -0.1073 -1.6651  0.4629
 1684TIP3    H2 5017   3.788   0.541   1.526 -0.3513  0.8600 -1.6871
 1685TIP3   OH2 5018   3.333   4.559   0.399 -0.7172 -0.5443 -0.2842
 1685TIP3    H1 5019   3.271   4.602   0.458 -4.2187 -2.9458 -1.8174
 1685TIP3    H2 5020   3.303   4.584   0.311  1.0343 -1.2013 -1.1147
 1686TIP3   OH2 5021   4.231   6.686   1.266  0.8368  0.4296  0.1107
 1686TIP3    H1 5022   4.320   6.701   1.235  1.0773 -0.1381  0.5060
 1686TIP3    H2 5023   4.220   6.746   1.340  0.7051  0.8728 -0.2650
 1687TIP3   OH2 5024   2.126   1.996   4.154  0.1725 -0.2779 -0.7700
 1687TIP3    H1 5025   2.203   2.045   4.124  0.0317 -0.5721 -1.6345
 1687TIP3    H2 5026   2.066   1.998   4.080  0.0259 -1.4732 -0.7009
 1688TIP3   OH2 5027   1.046   1.287   3.124 -0.5847 -0.0366  0.3326
 1688TIP3    H1 5028   1.053   1.194   3.145  0.5132  0.0878  0.5676
 1688TIP3    H2 5029   1.084   1.332   3.199  2.9486  0.4262 -1.5071
 1689TIP3   OH2 5030   6.556   6.722   0.276 -0.7248  0.2846 -0.2549
 1689TIP3    H1 5031   6.645   6.728   0.313 -0.4407  1.3763 -1.0501
 1689TIP3    H2 5032   6.499   6.738   0.351 -0.2417 -0.1469  0.2153
 1690TIP3   OH2 5033   3.498   0.538   5.429 -0.0186  0.6887  1.0181
 1690TIP3    H1 5034   3.441   0.552   5.353 -0.3712  0.6252  1.2642
 1690TIP3    H2 5035   3.527   0.626   5.454  0.1853  0.6985  0.7423
 1691TIP3   OH2 5036   7.098   1.639   3.671  0.3335 -0.1883 -0.7026
 1691TIP3    H1 5037   7.045   1.566   3.703 -1.0926  1.1098  0.0294
 1691TIP3    H2 5038   7.098   1.630   3.576 -1.0255 -0.3726 -0.7047
 1692TIP3   OH2 5039   2.624   0.991   2.389  0.4079 -0.1913 -0.0477
 1692TIP3    H1 5040   2.685   1.060   2.364 -1.1123  1.3345  0.2267
 1692TIP3    H2 5041   2.624   0.930   2.315  1.7817  0.0960 -0.2952
 1693TIP3   OH2 5042   1.372   2.662   0.568 -0.4812  0.5244 -0.0190
 1693TIP3    H1 5043   1.330   2.671   0.483 -1.8559 -0.7396  0.4923
 1693TIP3    H2 5044   1.303   2.680   0.631 -0.6506 -2.6854  0.8513
 1694TIP3   OH2 5045   3.925   0.593   3.802  0.3413  0.2667  0.4802
 1694TIP3    H1 5046   3.881   0.655   3.743 -0.4043 -0.9825 -0.3256
 1694TIP3    H2 5047   3.892   0.507   3.775  1.4146 -0.4988  1.5112
 1695TIP3   OH2 5048   1.151   2.925   2.306 -0.1509 -0.5267 -0.0981
 1695TIP3    H1 5049   1.150   2.847   2.362 -3.2434 -0.9456 -0.5319
 1695TIP3    H2 5050   1.072   2.916   2.252  0.1420  2.2544 -1.1439
 1696TIP3   OH2 5051   3.533   3.724   4.744 -0.1082 -0.1018 -0.0644
 1696TIP3    H1 5052   3.623   3.694   4.759 -1.1675 -3.3559  0.6784
 1696TIP3    H2 5053   3.540   3.786   4.672  2.5553 -1.6401 -1.2883
 1697TIP3   OH2 5054   3.808   5.237   2.471 -0.9699  0.1218 -0.3783
 1697TIP3    H1 5055   3.790   5.274   2.385 -0.3909  0.2491 -0.4519
 1697TIP3    H2 5056   3.879   5.292   2.506 -0.0428 -0.9468 -0.5193
 1698TIP3   OH2 5057   6.165   1.981   1.674 -0.0594 -0.3677 -0.1791
 1698TIP3    H1 5058   6.177   1.978   1.769  1.7747 -0.4496 -0.3733
 1698TIP3    H2 5059   6.218   2.055   1.645 -1.3215  0.2232 -1.0681
 1699TIP3   OH2 5060   2.721   4.433   1.788 -0.3867  0.1943  0.0235
 1699TIP3    H1 5061   2.763   4.516   1.768  0.7514 -0.1993  0.6870
 1699TIP3    H2 5062   2.767   4.369   1.733  0.8650 -0.4568  1.7321
 1700TIP3   OH2 5063   5.381   6.739   2.031 -0.5261  0.3955 -0.1256
 1700TIP3    H1 5064   5.401   6.652   1.998 -1.5250  0.1239 -0.0585
 1700TIP3    H2 5065   5.285   6.743   2.030 -0.4924  1.4952 -0.1472
 1701TIP3   OH2 5066   6.352   6.111   1.002  0.3535  0.1357 -0.4903
 1701TIP3    H1 5067   6.424   6.156   1.046  0.0134  0.6768 -0.4791
 1701TIP3    H2 5068   6.309   6.061   1.072  1.1440 -0.7834 -0.6258
 1702TIP3   OH2 5069   0.387   5.729   1.278  0.2200  0.1397 -0.4564
 1702TIP3    H1 5070   0.410   5.806   1.330  1.3024 -0.1848 -0.4197
 1702TIP3    H2 5071   0.357   5.665   1.342  1.1373 -0.1102 -0.2604
 1703TIP3   OH2 5072   6.987   0.383   0.345  0.0943 -0.0245 -0.9770
 1703TIP3    H1 5073   7.028   0.317   0.290  0.7482 -0.9067  0.5143
 1703TIP3    H2 5074   7.060   0.420   0.396 -0.6879 -0.3942  0.4638
 1704TIP3   OH2 5075   7.075   4.555   5.213  0.0373 -0.2096 -0.4428
 1704TIP3    H1 5076   7.061   4.647   5.237 -2.1664 -0.4112 -0.7334
 1704TIP3    H2 5077   7.013   4.539   5.142  0.0729 -2.0259 -0.1161
 1705TIP3   OH2 5078   1.864   4.528   0.561 -0.4842  0.2453  0.3038
 1705TIP3    H1 5079   1.892   4.438   0.544  1.8637  0.5908  1.9086
 1705TIP3    H2 5080   1.791   4.520   0.622 -0.4439 -0.5681  0.2525
 1706TIP3   OH2 5081   3.795   4.064   4.839  0.2442  0.0812  0.4011
 1706TIP3    H1 5082   3.710   4.031   4.869  0.4846 -0.4744  0.4910
 1706TIP3    H2 5083   3.810   4.143   4.891 -0.0572 -0.0162  0.6366
 1707TIP3   OH2 5084   0.278   2.538   5.408 -0.2849 -0.4100  0.1605
 1707TIP3    H1 5085   0.302   2.545   5.501  1.9488  0.2665 -0.4004
 1707TIP3    H2 5086   0.300   2.448   5.384 -3.3208 -1.4560  0.8236
 1708TIP3   OH2 5087   2.601   2.434   2.594 -0.1792  0.0404 -0.0476
 1708TIP3    H1 5088   2.546   2.399   2.665  0.2121 -0.5504 -0.0293
 1708TIP3    H2 5089   2.580   2.378   2.519  1.1395 -0.8628  0.2255
 1709TIP3   OH2 5090   1.207   3.188   2.498  0.1533 -0.6137 -0.2350
 1709TIP3    H1 5091   1.249   3.104   2.513  0.8090 -0.3970 -0.7840
 1709TIP3    H2 5092   1.271   3.238   2.447  0.1356  0.5315  0.8023
 1710TIP3   OH2 5093   3.572   6.646   2.005 -0.0619  0.9045 -0.4593
 1710TIP3    H1 5094   3.570   6.688   2.091  1.0977  1.8341 -0.8596
 1710TIP3    H2 5095   3.501   6.687   1.956 -1.5002 -0.4572  0.3788
 1711TIP3   OH2 5096   3.449   1.857   2.298 -0.1672  0.0702 -0.1336
 1711TIP3    H1 5097   3.482   1.935   2.254 -0.7536 -0.0413 -0.7743
 1711TIP3    H2 5098   3.354   1.863   2.291 -0.2040 -1.5402 -1.6918
 1712TIP3   OH2 5099   3.662   3.852   2.887 -0.1188 -0.0944  0.0396
 1712TIP3    H1 5100   3.641   3.874   2.797 -0.1652  0.9342  0.2970
 1712TIP3    H2 5101   3.694   3.933   2.926  0.3667 -0.6398  0.8209
 1713TIP3   OH2 5102   2.605   4.555   2.054  0.0010 -0.1342  0.1473
 1713TIP3    H1 5103   2.571   4.593   1.973 -1.4521  0.9641  1.2123
 1713TIP3    H2 5104   2.527   4.535   2.106  0.8889  1.1532  2.1180
 1714TIP3   OH2 5105   1.523   0.982   3.922  0.1073 -0.1268  0.6838
 1714TIP3    H1 5106   1.432   0.954   3.929  0.2671 -0.4255  1.8669
 1714TIP3    H2 5107   1.519   1.077   3.920 -0.2415 -0.1447  0.5375
 1715TIP3   OH2 5108   0.030   2.093   1.363  0.6857 -0.0941  0.3777
 1715TIP3    H1 5109   0.069   2.168   1.406  1.0803 -0.5941  0.9103
 1715TIP3    H2 5110   0.063   2.017   1.411 -1.6254 -0.5134  1.4556
 1716TIP3   OH2 5111   7.150   2.048   0.698 -0.0888  0.4056  0.4975
 1716TIP3    H1 5112   7.056   2.063   0.705 -0.4336 -0.8681 -0.9813
 1716TIP3    H2 5113   7.159   1.953   0.690  1.1249  0.6493 -1.6635
 1717TIP3   OH2 5114   4.793   1.462   0.811 -0.4466  0.6832 -0.1347
 1717TIP3    H1 5115   4.729   1.441   0.879  0.0527 -1.8553 -0.3613
 1717TIP3    H2 5116   4.819   1.552   0.830  0.6253 -0.2753  3.9037
 1718TIP3   OH2 5117   7.041   1.461   0.431 -0.1758  0.2110  0.0099
 1718TIP3    H1 5118   7.109   1.519   0.396 -0.0339 -0.5801 -1.1186
 1718TIP3    H2 5119   7.073   1.434   0.516  0.9807 -0.1970 -0.5350
 1719TIP3   OH2 5120   4.119   2.638   0.082  0.5078 -0.2109 -0.1694
 1719TIP3    H1 5121   4.039   2.659   0.130  0.9704 -1.0480  1.0107
 1719TIP3    H2 5122   4.159   2.723   0.062  1.0682  0.1628  2.2922
 1720TIP3   OH2 5123   1.926   5.479   3.146 -0.1911 -0.7382  0.6838
 1720TIP3    H1 5124   1.914   5.473   3.051 -1.0610 -0.8423  0.7918
 1720TIP3    H2 5125   1.955   5.569   3.160 -2.2784  0.0023  0.5166
 1721TIP3   OH2 5126   2.379   3.425   3.831  0.8856 -0.1994  0.1356
 1721TIP3    H1 5127   2.290   3.442   3.861  0.3160 -0.9123 -1.0670
 1721TIP3    H2 5128   2.368   3.387   3.744  2.3637 -0.4282  0.0224
 1722TIP3   OH2 5129   0.723   5.028   3.295 -0.1437  0.3775  1.0350
 1722TIP3    H1 5130   0.661   4.959   3.317  0.1858 -0.4341 -0.4525
 1722TIP3    H2 5131   0.764   4.999   3.214  2.9888  0.3190  2.4933
 1723TIP3   OH2 5132   2.725   6.582   5.907  0.5163 -0.1026 -0.3434
 1723TIP3    H1 5133   2.719   6.632   5.825  0.8693  1.0418  0.3007
 1723TIP3    H2 5134   2.815   6.549   5.908 -0.0860 -1.9138 -1.3904
 1724TIP3   OH2 5135   4.710   1.319   1.552 -0.1291  0.0724 -0.0345
 1724TIP3    H1 5136   4.644   1.373   1.509 -1.5300  1.0888  3.0455
 1724TIP3    H2 5137   4.787   1.324   1.495 -1.5383  1.9022 -1.9393
 1725TIP3   OH2 5138   3.840   4.003   5.770 -0.1855  0.0886 -0.5208
 1725TIP3    H1 5139   3.883   4.018   5.854 -0.3154 -0.4216 -0.3576
 1725TIP3    H2 5140   3.897   4.044   5.705 -0.1389  0.5801 -0.1756
 1726TIP3   OH2 5141   1.948   5.409   2.229 -0.0379 -0.5170  0.3500
 1726TIP3    H1 5142   1.953   5.367   2.143 -2.5732  0.5955 -0.4280
 1726TIP3    H2 5143   2.012   5.362   2.282  1.0242 -1.7809 -1.8976
 1727TIP3   OH2 5144   6.604   6.387   0.721 -0.4449 -0.1112 -0.2238
 1727TIP3    H1 5145   6.565   6.364   0.636 -0.3472 -1.7065  0.1273
 1727TIP3    H2 5146   6.640   6.304   0.754 -0.0524  0.5793  1.1561
 1728TIP3   OH2 5147   5.312   6.132   4.326  0.2981  0.2126 -0.0752
 1728TIP3    H1 5148   5.246   6.170   4.383  1.9415  0.2461  1.9253
 1728TIP3    H2 5149   5.325   6.196   4.257 -0.8116  0.7780  0.2266
 1729TIP3   OH2 5150   2.903   4.703   4.564  0.2731  0.1481 -0.2853
 1729TIP3    H1 5151   2.908   4.634   4.629  1.2171  0.4776  0.0016
 1729TIP3    H2 5152   2.870   4.660   4.485  0.7125 -0.5895 -0.0694
 1730TIP3   OH2 5153   5.783   0.364   1.718 -0.1212  0.4256 -0.1808
 1730TIP3    H1 5154   5.792   0.270   1.704  0.4244  0.5456 -0.6840
 1730TIP3    H2 5155   5.872   0.393   1.742  0.1869  1.1461 -2.0601
 1731TIP3   OH2 5156   1.930   2.512   2.156  0.1000  0.2908  0.0485
 1731TIP3    H1 5157   1.953   2.460   2.080  0.0811  0.6052 -0.1752
 1731TIP3    H2 5158   1.844   2.549   2.135  0.0530  0.3065  0.2597
 1732TIP3   OH2 5159   3.387   0.937   4.029 -0.3439 -0.2348 -0.6203
 1732TIP3    H1 5160   3.319   0.967   4.089 -0.4571 -0.5813 -0.5746
 1732TIP3    H2 5161   3.452   0.896   4.086 -0.2651 -0.2206 -0.6999
 1733TIP3   OH2 5162   3.433   2.184   4.561 -0.6877 -0.1304  0.2656
 1733TIP3    H1 5163   3.366   2.120   4.538 -0.6594  0.3271 -1.1816
 1733TIP3    H2 5164   3.385   2.254   4.605 -0.9737 -0.3137  0.2477
 1734TIP3   OH2 5165   0.013   5.393   3.509 -0.7419  0.7828  0.1955
 1734TIP3    H1 5166   0.104   5.415   3.487  0.0284 -0.4836  1.9135
 1734TIP3    H2 5167  -0.017   5.339   3.436  0.2078  0.4567  0.0275
 1735TIP3   OH2 5168   1.788   2.312   4.094  0.2327  0.3083 -0.2038
 1735TIP3    H1 5169   1.876   2.349   4.104  0.4716 -0.0994 -0.7875
 1735TIP3    H2 5170   1.733   2.369   4.147  0.5805  1.5427 -1.1275
 1736TIP3   OH2 5171   2.798   4.961   0.190 -0.0494  0.3226 -0.1152
 1736TIP3    H1 5172   2.783   5.011   0.271  2.3633 -0.1863  0.7470
 1736TIP3    H2 5173   2.749   4.880   0.203 -0.3480  0.5890  0.4908
 1737TIP3   OH2 5174   3.518   4.462   5.429 -0.1617 -0.2558 -0.5506
 1737TIP3    H1 5175   3.435   4.479   5.474  0.6907  0.2125  0.8977
 1737TIP3    H2 5176   3.503   4.492   5.340 -0.7891  2.1511  0.2836
 1738TIP3   OH2 5177   4.835   2.372   5.303 -0.0318  0.4899  0.3787
 1738TIP3    H1 5178   4.752   2.346   5.342 -1.0563  0.8401 -1.4741
 1738TIP3    H2 5179   4.811   2.413   5.220  1.9590  1.1580  0.0819
 1739TIP3   OH2 5180   5.572   0.817   5.692  0.1906 -0.1386 -0.6838
 1739TIP3    H1 5181   5.548   0.838   5.782  2.4718 -2.2293  0.5359
 1739TIP3    H2 5182   5.627   0.890   5.664 -0.9631  0.7815 -0.6363
 1740TIP3   OH2 5183   4.303   6.487   1.748 -0.0987 -0.5849 -0.4664
 1740TIP3    H1 5184   4.266   6.554   1.806 -1.1444 -0.7273 -0.9378
 1740TIP3    H2 5185   4.301   6.528   1.661  0.7240 -0.6562 -0.5187
 1741TIP3   OH2 5186   2.267   4.005   0.591 -0.0427 -0.6529  0.0621
 1741TIP3    H1 5187   2.306   3.959   0.666  2.9521  1.0247 -0.3242
 1741TIP3    H2 5188   2.310   4.090   0.589 -0.5742 -0.3178 -3.1154
 1742TIP3   OH2 5189   7.100   6.482   1.467 -0.5432 -0.4405 -0.0005
 1742TIP3    H1 5190   7.134   6.513   1.551 -1.3921  0.9429 -0.1401
 1742TIP3    H2 5191   7.023   6.429   1.490 -0.1652 -0.9364  0.1401
 1743TIP3   OH2 5192   1.542   1.526   4.404 -0.0255 -0.4885 -0.1814
 1743TIP3    H1 5193   1.613   1.544   4.465  0.1008 -1.3364 -0.0594
 1743TIP3    H2 5194   1.553   1.590   4.333 -0.7040  1.1115  1.0926
 1744TIP3   OH2 5195   5.413   0.876   0.090 -0.1358  0.2877  0.3590
 1744TIP3    H1 5196   5.396   0.815   0.162 -0.7324  2.1834  1.9028
 1744TIP3    H2 5197   5.460   0.823   0.025 -0.8696 -1.8771  1.4632
 1745TIP3   OH2 5198   2.761   0.622   0.473 -0.8134  0.6871 -0.4437
 1745TIP3    H1 5199   2.804   0.608   0.389 -1.3181 -0.8677 -0.4729
 1745TIP3    H2 5200   2.816   0.576   0.536  0.0024  2.4966  0.2529
 1746TIP3   OH2 5201   6.257   5.914   1.449 -0.3365 -0.1503 -0.3677
 1746TIP3    H1 5202   6.276   5.960   1.531 -0.4084 -0.2472 -0.2966
 1746TIP3    H2 5203   6.229   5.827   1.476 -1.6165  0.2163 -0.4254
 1747TIP3   OH2 5204   1.325   6.689   3.294 -0.2441  0.1618 -0.1116
 1747TIP3    H1 5205   1.344   6.728   3.209 -0.9839  0.4581 -0.1428
 1747TIP3    H2 5206   1.284   6.605   3.274  1.8317 -0.9205 -0.0491
 1748TIP3   OH2 5207   2.292   5.645   2.237 -0.0703  1.0317 -0.1730
 1748TIP3    H1 5208   2.262   5.669   2.324 -0.6359  2.2723 -0.6929
 1748TIP3    H2 5209   2.300   5.728   2.190  0.8363  0.4437 -1.1204
 1749TIP3   OH2 5210   5.511   3.905   5.486  0.3340 -0.0465  0.3337
 1749TIP3    H1 5211   5.469   3.846   5.549 -1.6940 -0.3167 -1.1576
 1749TIP3    H2 5212   5.543   3.846   5.417  2.4998  0.2462  1.0012
 1750TIP3   OH2 5213   6.947   4.120   0.686  0.3415  0.2361 -0.9144
 1750TIP3    H1 5214   7.026   4.144   0.736 -0.0627 -1.2072  0.5101
 1750TIP3    H2 5215   6.936   4.026   0.702 -0.4840 -0.0447 -2.8359
 1751TIP3   OH2 5216   1.445   1.858   5.006  0.6734 -0.1743 -0.5107
 1751TIP3    H1 5217   1.376   1.907   5.050  0.9289 -0.4760  0.2507
 1751TIP3    H2 5218   1.521   1.917   5.007  0.3047  0.3644 -1.8157
 1752TIP3   OH2 5219   0.348   0.231   1.538  0.4968  0.1871 -0.1722
 1752TIP3    H1 5220   0.348   0.163   1.605  1.0130  1.3799  1.1072
 1752TIP3    H2 5221   0.376   0.310   1.585  2.8871  0.6637 -2.2152
 1753TIP3   OH2 5222   4.339   0.403   3.042  0.1916  0.1440 -0.4991
 1753TIP3    H1 5223   4.385   0.485   3.022 -0.3606  0.5651 -0.0943
 1753TIP3    H2 5224   4.359   0.346   2.968  1.8555  0.0898 -0.0423
 1754TIP3   OH2 5225   2.504   4.319   4.020 -0.0384 -0.4802  0.3238
 1754TIP3    H1 5226   2.485   4.245   3.961  0.3714 -1.2295  1.1070
 1754TIP3    H2 5227   2.570   4.284   4.080  1.1608  0.9363 -0.1133
 1755TIP3   OH2 5228   0.589   4.088   3.717 -0.4286  0.1790  0.0929
 1755TIP3    H1 5229   0.601   4.166   3.662  1.8670  0.5211  0.9441
 1755TIP3    H2 5230   0.612   4.117   3.805  1.9745 -1.7380  0.2008
 1756TIP3   OH2 5231   2.319   6.501   0.199  0.0731  0.1988  0.7087
 1756TIP3    H1 5232   2.347   6.418   0.161  1.4754 -0.3135  2.7395
 1756TIP3    H2 5233   2.237   6.480   0.244  0.1786  0.0440  0.8265
 1757TIP3   OH2 5234   6.179   2.753   4.242 -0.0302  0.4425  0.2520
 1757TIP3    H1 5235   6.242   2.758   4.313  0.6632 -0.8589 -0.2446
 1757TIP3    H2 5236   6.233   2.752   4.162 -0.7779  1.6449 -0.3068
 1758TIP3   OH2 5237   2.947   3.078   5.767  0.7739  0.3662 -0.1030
 1758TIP3    H1 5238   2.914   2.990   5.749 -2.8063  1.5499 -0.1093
 1758TIP3    H2 5239   3.021   3.064   5.826  0.1512 -2.6310  0.1370
 1759TIP3   OH2 5240   6.906   1.991   5.572  0.0686 -0.0416 -0.1020
 1759TIP3    H1 5241   6.887   2.041   5.651 -2.0291  0.2036 -0.6983
 1759TIP3    H2 5242   6.898   1.899   5.598 -1.1437  0.0449 -0.1080
 1760TIP3   OH2 5243   6.205   5.985   1.180  0.8325  0.8811 -0.4202
 1760TIP3    H1 5244   6.190   5.894   1.158  0.5443  0.5622  0.9939
 1760TIP3    H2 5245   6.239   5.983   1.270 -3.2573  2.3157  1.4121
 1761TIP3   OH2 5246   5.557   3.448   0.516  0.9621 -0.0573 -0.2326
 1761TIP3    H1 5247   5.597   3.394   0.584  1.2738  1.5807  0.9357
 1761TIP3    H2 5248   5.465   3.454   0.542  0.8160 -0.4527 -0.6522
 1762TIP3   OH2 5249   4.571   2.265   5.406 -0.0463 -0.6262 -0.0457
 1762TIP3    H1 5250   4.499   2.279   5.345  2.2001 -0.0902 -2.7726
 1762TIP3    H2 5251   4.575   2.170   5.417 -1.0914 -0.6625  0.0518
 1763TIP3   OH2 5252   4.846   5.045   4.582 -0.4192  0.5382 -0.2253
 1763TIP3    H1 5253   4.817   5.085   4.500 -1.0801  1.2780  0.3499
 1763TIP3    H2 5254   4.940   5.061   4.585 -0.2143 -0.3745 -1.3070
 1764TIP3   OH2 5255   1.336   1.842   3.064  0.0917 -0.7071  0.3081
 1764TIP3    H1 5256   1.307   1.934   3.063 -1.3915 -1.1307 -1.0945
 1764TIP3    H2 5257   1.420   1.844   3.017  0.6357  0.0628  1.2678
 1765TIP3   OH2 5258   3.289   5.274   4.879 -0.0013 -0.0423 -0.5505
 1765TIP3    H1 5259   3.264   5.365   4.893 -0.9855 -0.3509 -0.2412
 1765TIP3    H2 5260   3.378   5.279   4.843  1.0685  0.9224  2.0238
 1766TIP3   OH2 5261   1.982   1.894   1.306  0.2412 -0.2079 -0.5265
 1766TIP3    H1 5262   1.890   1.884   1.285  0.8766 -0.0823 -4.0400
 1766TIP3    H2 5263   1.983   1.928   1.396 -3.0961  0.1440 -0.4958
 1767TIP3   OH2 5264   2.802   5.185   1.290  0.2995  0.0964  0.3959
 1767TIP3    H1 5265   2.738   5.237   1.338  1.0876  1.6366 -0.1609
 1767TIP3    H2 5266   2.760   5.100   1.279 -1.1258  0.6727  1.1330
 1768TIP3   OH2 5267   4.589   5.730   4.275 -0.5124  0.0899  0.2655
 1768TIP3    H1 5268   4.639   5.650   4.288  1.8861  1.3449 -0.6404
 1768TIP3    H2 5269   4.566   5.730   4.182 -0.8263  0.2918  0.3412
 1769TIP3   OH2 5270   4.502   0.387   1.953 -0.5605 -0.2981  0.8501
 1769TIP3    H1 5271   4.416   0.357   1.925 -0.4062  1.3517 -1.7321
 1769TIP3    H2 5272   4.560   0.312   1.938 -1.0405 -0.4255 -0.5324
 1770TIP3   OH2 5273   5.087   4.198   2.924  0.4302  0.2020  0.2907
 1770TIP3    H1 5274   5.166   4.143   2.919  0.5555  0.3467  0.7117
 1770TIP3    H2 5275   5.034   4.170   2.849  1.3278  0.8011 -0.5862
 1771TIP3   OH2 5276   0.699   1.964   4.130 -0.2233  0.1200 -0.2744
 1771TIP3    H1 5277   0.670   1.881   4.167  0.0525  0.6171  1.0994
 1771TIP3    H2 5278   0.792   1.952   4.114  0.2863  0.8140  1.8883
 1772TIP3   OH2 5279   4.505   3.864   4.336 -0.2429 -0.0774 -0.4193
 1772TIP3    H1 5280   4.468   3.856   4.424  0.7967  1.2025  0.1486
 1772TIP3    H2 5281   4.432   3.896   4.283 -0.9989 -1.2669 -0.1422
 1773TIP3   OH2 5282   6.722   5.119   1.817  0.3615 -0.0355  0.3622
 1773TIP3    H1 5283   6.743   5.193   1.759 -1.6292 -1.1772 -2.0284
 1773TIP3    H2 5284   6.676   5.158   1.890 -2.9087  1.0393 -2.0420
 1774TIP3   OH2 5285   1.376   2.520   2.372  0.1522 -0.5017  0.6406
 1774TIP3    H1 5286   1.452   2.469   2.399  0.3783 -0.6925 -0.3398
 1774TIP3    H2 5287   1.337   2.550   2.455  1.0843 -0.6902  1.1601
 1775TIP3   OH2 5288   2.650   0.365   4.736  0.4727 -0.0555  0.6096
 1775TIP3    H1 5289   2.583   0.392   4.673  1.1180  1.1511  0.4007
 1775TIP3    H2 5290   2.726   0.343   4.681  0.6192 -0.2672  0.8984
 1776TIP3   OH2 5291   6.032   5.245   4.701 -0.6442  0.2941 -0.0049
 1776TIP3    H1 5292   6.103   5.184   4.723 -0.5297  0.3630 -0.1783
 1776TIP3    H2 5293   5.952   5.193   4.711 -0.5274  0.0016 -0.4976
 1777TIP3   OH2 5294   3.324   1.213   3.602  0.1143  0.2347 -0.3799
 1777TIP3    H1 5295   3.304   1.304   3.580  0.1791  0.6132  1.0144
 1777TIP3    H2 5296   3.356   1.217   3.692  0.9792 -1.0690 -0.6066
 1778TIP3   OH2 5297   4.451   6.310   0.411 -0.3833  0.5678 -1.1529
 1778TIP3    H1 5298   4.442   6.257   0.491  0.8029  2.0767  0.0626
 1778TIP3    H2 5299   4.545   6.323   0.402 -0.5353  0.7360 -2.6034
 1779TIP3   OH2 5300   5.141   2.572   0.626  0.0571  0.3862 -0.3273
 1779TIP3    H1 5301   5.093   2.643   0.584  0.3946  0.9060  0.1507
 1779TIP3    H2 5302   5.088   2.547   0.701  0.1744  0.4721 -0.2138
 1780TIP3   OH2 5303   4.160   0.428   5.659  0.0935 -0.2501  0.8535
 1780TIP3    H1 5304   4.066   0.409   5.657  0.1346 -0.4229  0.1312
 1780TIP3    H2 5305   4.172   0.483   5.737 -0.6158 -0.1839  0.9222
 1781TIP3   OH2 5306   5.495   2.366   0.665 -0.1032  0.1693  0.7368
 1781TIP3    H1 5307   5.435   2.350   0.592  1.5807 -1.8841 -0.3147
 1781TIP3    H2 5308   5.538   2.449   0.644 -1.5050  0.9409  0.7947
 1782TIP3   OH2 5309   1.932   1.583   1.207 -0.1728  0.1973 -0.3438
 1782TIP3    H1 5310   1.920   1.640   1.283  0.4692 -0.7114  0.4680
 1782TIP3    H2 5311   2.026   1.587   1.189 -0.0407 -0.9335  0.0101
 1783TIP3   OH2 5312   0.530   0.931   2.801 -0.6532  0.3316  0.2415
 1783TIP3    H1 5313   0.498   1.009   2.756  1.4187  0.1327 -1.7238
 1783TIP3    H2 5314   0.618   0.953   2.829  0.4129 -1.5939 -1.3126
 1784TIP3   OH2 5315   2.645   0.902   3.177  0.3170 -0.0101  0.3510
 1784TIP3    H1 5316   2.671   0.946   3.097  0.8140  2.1028  1.5794
 1784TIP3    H2 5317   2.698   0.943   3.246  0.8597 -2.6344  1.6441
 1785TIP3   OH2 5318   0.689   5.795   4.486 -0.2352  0.4974 -0.1327
 1785TIP3    H1 5319   0.673   5.733   4.556 -0.0963  0.2844 -0.2877
 1785TIP3    H2 5320   0.760   5.851   4.519 -0.7301  0.9225  0.2248
 1786TIP3   OH2 5321   0.990   0.340   3.578  0.9533 -0.1987  0.3965
 1786TIP3    H1 5322   1.062   0.279   3.560  0.6904 -0.2857 -0.3908
 1786TIP3    H2 5323   0.922   0.286   3.619  1.2143 -0.1691  0.8874
 1787TIP3   OH2 5324   6.760   4.421   5.276 -0.5711 -0.2643 -0.2476
 1787TIP3    H1 5325   6.677   4.467   5.282 -1.4035 -1.5159 -1.6361
 1787TIP3    H2 5326   6.738   4.335   5.241  1.2618 -0.7722 -0.2693
 1788TIP3   OH2 5327   4.424   6.712   3.837  0.3504 -0.0541 -0.0098
 1788TIP3    H1 5328   4.368   6.706   3.914 -1.0715  2.9176 -0.6734
 1788TIP3    H2 5329   4.375   6.666   3.769 -0.3935  0.8644 -0.1118
 1789TIP3   OH2 5330   2.241   1.974   2.486 -0.0893 -0.0158  0.0978
 1789TIP3    H1 5331   2.287   1.995   2.567  0.2502 -0.5787  0.0538
 1789TIP3    H2 5332   2.185   2.050   2.470 -1.2257 -0.4975  1.6032
 1790TIP3   OH2 5333   4.291   5.976   5.601 -0.2037 -0.1781  0.2587
 1790TIP3    H1 5334   4.223   5.912   5.579 -0.2506  0.2393 -0.8566
 1790TIP3    H2 5335   4.250   6.061   5.587 -0.3367  0.1446  2.3252
 1791TIP3   OH2 5336   1.397   4.208   1.872  0.2157  0.2518  0.3398
 1791TIP3    H1 5337   1.427   4.175   1.788  1.3179  0.7201  0.5273
 1791TIP3    H2 5338   1.316   4.255   1.852  0.7526  0.8296 -0.5678
 1792TIP3   OH2 5339   1.913   3.345   3.398  0.1363  0.6219  0.2220
 1792TIP3    H1 5340   1.818   3.346   3.414  0.4283  1.0052  2.2145
 1792TIP3    H2 5341   1.951   3.379   3.479  2.0641 -1.1682  0.1582
 1793TIP3   OH2 5342   0.910   0.263   0.428  0.2125 -0.3792 -0.1111
 1793TIP3    H1 5343   0.903   0.216   0.345  1.7744  1.3242 -1.2802
 1793TIP3    H2 5344   0.821   0.263   0.464 -0.7529 -0.1125 -2.3738
 1794TIP3   OH2 5345   1.091   1.423   4.934  0.1989 -0.1470  0.0104
 1794TIP3    H1 5346   0.997   1.426   4.952  0.0825 -0.8856 -0.4299
 1794TIP3    H2 5347   1.114   1.513   4.913 -0.6412 -0.1474 -0.9998
 1795TIP3   OH2 5348   4.729   4.106   0.014 -0.3848 -0.2851 -0.6440
 1795TIP3    H1 5349   4.802   4.100   0.075  0.4997 -2.3072 -1.7992
 1795TIP3    H2 5350   4.726   4.198  -0.012  0.1959  0.2934  1.2307
 1796TIP3   OH2 5351   2.816   2.662   4.977  0.5269 -0.1381  0.2115
 1796TIP3    H1 5352   2.758   2.618   5.040  0.3261 -1.5447 -0.9165
 1796TIP3    H2 5353   2.903   2.656   5.017  0.5713 -1.9544 -0.0826
 1797TIP3   OH2 5354   1.969   5.078   0.412  0.4732 -0.3848  0.5127
 1797TIP3    H1 5355   1.899   5.075   0.347  0.6448 -1.9862  0.3589
 1797TIP3    H2 5356   1.926   5.060   0.495  0.7247 -1.6277  0.3839
 1798TIP3   OH2 5357   3.802   6.550   5.574 -0.0084  0.1938 -0.5582
 1798TIP3    H1 5358   3.792   6.627   5.518 -1.6668  2.0493  2.0489
 1798TIP3    H2 5359   3.896   6.532   5.574  0.3796  1.9987 -1.5067
 1799TIP3   OH2 5360   2.757   4.245   4.988  0.4119  0.1376 -0.5333
 1799TIP3    H1 5361   2.830   4.183   4.993 -0.2934 -0.7158 -0.4995
 1799TIP3    H2 5362   2.687   4.203   5.038  0.1754  1.3455  0.1669
 1800TIP3   OH2 5363   3.574   0.753   1.879  0.3157 -0.8801 -0.2956
 1800TIP3    H1 5364   3.547   0.693   1.810  0.3477  0.7665 -1.8171
 1800TIP3    H2 5365   3.537   0.837   1.853  2.0588  0.2155  0.5823
 1801TIP3   OH2 5366   2.081   6.648   0.448  0.4133 -0.2962  0.0580
 1801TIP3    H1 5367   2.123   6.651   0.534 -0.1916 -1.0120  0.3848
 1801TIP3    H2 5368   2.103   6.561   0.414 -0.7719 -0.6765  0.2256
 1802TIP3   OH2 5369   3.113   4.651   5.134  0.2517  0.6381  0.5396
 1802TIP3    H1 5370   3.094   4.725   5.077  0.2975 -0.7355 -1.3523
 1802TIP3    H2 5371   3.045   4.655   5.202 -0.5699  1.6277 -0.3107
 1803TIP3   OH2 5372   2.786   6.172   0.973  0.7469 -0.3834  0.3811
 1803TIP3    H1 5373   2.702   6.217   0.982 -0.5545 -1.9294 -2.5923
 1803TIP3    H2 5374   2.805   6.139   1.061 -2.0719 -0.4152  1.0559
 1804TIP3   OH2 5375   6.787   5.455   3.658  0.0159 -0.3099 -0.0918
 1804TIP3    H1 5376   6.855   5.491   3.602  0.3790 -1.3619 -0.3311
 1804TIP3    H2 5377   6.769   5.526   3.721 -0.0600  0.6977 -1.2097
 1805TIP3   OH2 5378   4.475   6.811   0.269 -0.2044 -0.6616 -0.0049
 1805TIP3    H1 5379   4.470   6.728   0.317  0.9186 -0.1903  0.9755
 1805TIP3    H2 5380   4.568   6.821   0.249 -0.4942 -0.2284 -1.2155
 1806TIP3   OH2 5381   3.446   5.843   1.656  0.0776  0.2513 -0.1554
 1806TIP3    H1 5382   3.437   5.937   1.673  0.0816  0.2828 -0.3284
 1806TIP3    H2 5383   3.366   5.819   1.608  0.7552  0.4803 -1.4563
 1807TIP3   OH2 5384   4.231   4.116   4.974  0.3121 -0.3015  0.0985
 1807TIP3    H1 5385   4.271   4.080   5.052 -0.3795  0.0613  0.6297
 1807TIP3    H2 5386   4.239   4.046   4.908  0.1516 -0.9214  0.7307
 1808TIP3   OH2 5387   0.594   4.037   0.522  0.4217  0.2979 -0.4639
 1808TIP3    H1 5388   0.532   4.108   0.540 -0.6804 -0.8003  0.3132
 1808TIP3    H2 5389   0.559   3.994   0.443 -0.0016 -0.4927  0.1335
 1809TIP3   OH2 5390   1.578   2.565   0.993 -0.5782  0.6614  0.2706
 1809TIP3    H1 5391   1.609   2.656   0.999  1.9436  0.0462 -1.5486
 1809TIP3    H2 5392   1.586   2.544   0.900 -0.5141 -1.6040  0.7324
 1810TIP3   OH2 5393   2.605   5.091   3.347 -0.4050 -0.1516  0.4329
 1810TIP3    H1 5394   2.660   5.170   3.340 -0.6922 -0.0958 -1.5970
 1810TIP3    H2 5395   2.655   5.033   3.404  0.9953  0.5331 -0.0434
 1811TIP3   OH2 5396   0.933   4.067   2.327 -0.8161  0.0574  0.2673
 1811TIP3    H1 5397   1.028   4.059   2.321 -0.6295 -0.3397  2.7178
 1811TIP3    H2 5398   0.915   4.158   2.304  0.0446 -0.1011 -1.1032
 1812TIP3   OH2 5399   1.278   3.308   3.217 -0.5974 -0.0650  0.2445
 1812TIP3    H1 5400   1.213   3.253   3.172  0.7611 -1.0170 -0.6136
 1812TIP3    H2 5401   1.306   3.371   3.151 -0.4864  0.2135  0.5560
 1813TIP3   OH2 5402   4.131   6.172   5.551  0.0594  0.5835  0.1103
 1813TIP3    H1 5403   4.041   6.193   5.575  0.3789  4.1664 -1.1091
 1813TIP3    H2 5404   4.184   6.236   5.598  1.6912  0.2423 -1.1463
 1814TIP3   OH2 5405   0.163   5.939   1.510  0.2982  0.6607  0.3100
 1814TIP3    H1 5406   0.154   5.950   1.415 -1.7734 -0.5650  0.3061
 1814TIP3    H2 5407   0.223   5.865   1.520 -1.0066 -0.4764 -0.1168
 1815TIP3   OH2 5408   2.942   3.070   4.162 -0.3149  0.7602  0.3274
 1815TIP3    H1 5409   2.855   3.108   4.171 -0.8851 -0.7317  1.7598
 1815TIP3    H2 5410   3.001   3.134   4.200 -0.5485  2.4160 -1.9050
 1816TIP3   OH2 5411   1.378   0.369   4.221 -0.1190  0.0431 -0.1197
 1816TIP3    H1 5412   1.453   0.311   4.234 -1.1205 -1.1919  0.3372
 1816TIP3    H2 5413   1.396   0.413   4.137  1.8578  0.9880  0.7210
 1817TIP3   OH2 5414   0.207   5.520   1.819 -1.3502  0.1812  0.0127
 1817TIP3    H1 5415   0.285   5.504   1.766 -1.7959  0.0950 -0.6290
 1817TIP3    H2 5416   0.181   5.434   1.851 -1.3241  0.1784  0.0262
 1818TIP3   OH2 5417   3.529   2.908   3.877  0.3098 -0.0086 -0.2939
 1818TIP3    H1 5418   3.493   2.871   3.957 -0.9365  1.7811  0.0229
 1818TIP3    H2 5419   3.596   2.970   3.906 -0.9199  1.4974 -0.4942
 1819TIP3   OH2 5420   1.867   0.201   5.748  0.0393  0.3186 -0.0237
 1819TIP3    H1 5421   1.779   0.232   5.771 -0.8183 -1.9439  0.0941
 1819TIP3    H2 5422   1.851   0.126   5.690  1.9445  0.4600 -0.8012
 1820TIP3   OH2 5423   1.378   3.849   0.463  0.5203 -0.4049  0.0781
 1820TIP3    H1 5424   1.337   3.800   0.392 -0.4504  0.9914 -0.3657
 1820TIP3    H2 5425   1.468   3.817   0.465  0.2755 -1.2354 -1.0615
 1821TIP3   OH2 5426   2.455   2.383   5.078 -0.8967 -0.2225  0.2170
 1821TIP3    H1 5427   2.362   2.383   5.100 -1.4916 -2.3107 -1.9310
 1821TIP3    H2 5428   2.458   2.371   4.983  1.5812  1.4346 -0.0294
 1822TIP3   OH2 5429   1.986   0.392   3.544  0.4174  0.2685 -0.4524
 1822TIP3    H1 5430   1.909   0.352   3.585  0.9685 -1.7454 -1.2520
 1822TIP3    H2 5431   2.051   0.396   3.615  1.3012 -3.0041 -0.8764
 1823TIP3   OH2 5432   1.575   6.425   3.676  0.0656 -0.0986  0.8112
 1823TIP3    H1 5433   1.548   6.409   3.767  0.4366 -1.7765  0.6536
 1823TIP3    H2 5434   1.550   6.516   3.660 -2.0784 -0.4461  1.8579
 1824TIP3   OH2 5435   6.466   2.151   3.267 -0.0372  0.4444  0.1352
 1824TIP3    H1 5436   6.469   2.072   3.320  1.8149  0.8239  0.6461
 1824TIP3    H2 5437   6.394   2.202   3.305 -1.5666 -1.1333 -0.4900
 1825TIP3   OH2 5438   0.322   4.751   4.414 -0.8992 -0.1031 -0.4019
 1825TIP3    H1 5439   0.368   4.820   4.462 -0.9022 -0.5291  0.2215
 1825TIP3    H2 5440   0.251   4.725   4.472 -1.8093  0.4030 -1.2730
 1826TIP3   OH2 5441   3.783   4.217   2.175  0.5667 -0.1279 -0.2426
 1826TIP3    H1 5442   3.875   4.242   2.170  0.5911 -0.3667 -1.0800
 1826TIP3    H2 5443   3.735   4.299   2.164  0.6764 -0.0088  0.1584
 1827TIP3   OH2 5444   0.291   0.958   3.270 -0.2955 -0.2874  0.0000
 1827TIP3    H1 5445   0.229   0.907   3.322 -0.1159 -0.5956 -0.0890
 1827TIP3    H2 5446   0.364   0.976   3.329  0.7980 -2.2492 -0.6494
 1828TIP3   OH2 5447   2.319   5.222   4.690 -0.7905  0.3802 -0.1348
 1828TIP3    H1 5448   2.295   5.314   4.686  1.0684  0.9200  0.2970
 1828TIP3    H2 5449   2.378   5.215   4.765 -1.1254 -1.2189  0.0120
 1829TIP3   OH2 5450   3.955   3.726   0.308  0.0195  0.0193  0.2751
 1829TIP3    H1 5451   3.963   3.734   0.403 -2.1449 -0.5242  0.5601
 1829TIP3    H2 5452   3.883   3.664   0.295 -1.5257  2.0616 -1.7035
 1830TIP3   OH2 5453   3.907   0.323   5.572  0.0173  0.1606  0.3086
 1830TIP3    H1 5454   3.847   0.261   5.532 -1.1893  1.6824 -0.3345
 1830TIP3    H2 5455   3.894   0.311   5.667 -1.5339  0.6409  0.1876
 1831TIP3   OH2 5456   6.125   4.282   3.962 -0.1219  0.3620  0.3622
 1831TIP3    H1 5457   6.162   4.317   3.880  1.1902  0.0952  0.8106
 1831TIP3    H2 5458   6.077   4.356   4.000 -1.0500  0.3975 -0.7942
 1832TIP3   OH2 5459   0.509   6.244   3.345 -0.0280  0.3817  0.3055
 1832TIP3    H1 5460   0.440   6.229   3.281 -0.9145 -0.3009  1.3913
 1832TIP3    H2 5461   0.574   6.298   3.299  0.6652 -2.2461 -2.0165
 1833TIP3   OH2 5462   3.998   6.485   5.841 -0.7378 -0.1998  0.3196
 1833TIP3    H1 5463   4.012   6.400   5.882 -1.4533 -0.0624  0.8587
 1833TIP3    H2 5464   4.073   6.496   5.782 -0.0949 -0.7299  1.0266
 1834TIP3   OH2 5465   1.036   0.093   2.806  0.1167 -0.2382 -0.7344
 1834TIP3    H1 5466   1.130   0.115   2.804  0.0060  0.3099 -0.1647
 1834TIP3    H2 5467   0.997   0.149   2.740  0.1858 -0.4550 -0.9607
 1835TIP3   OH2 5468   6.552   2.438   5.288 -0.1815 -0.3226 -0.1886
 1835TIP3    H1 5469   6.475   2.401   5.245  0.3698 -1.6223 -0.1099
 1835TIP3    H2 5470   6.597   2.487   5.219  0.8239 -2.5833 -1.2214
 1836TIP3   OH2 5471   3.346   1.991   0.456  0.3148  0.8556 -0.1154
 1836TIP3    H1 5472   3.417   2.005   0.394  0.2637  0.4851 -0.2651
 1836TIP3    H2 5473   3.355   1.899   0.482 -0.8438  0.4494 -1.0738
 1837TIP3   OH2 5474   5.872   5.539   4.974  0.0605  0.3761  0.2412
 1837TIP3    H1 5475   5.866   5.448   5.001  2.2634  0.5388  1.4965
 1837TIP3    H2 5476   5.894   5.536   4.881  0.3630 -0.3663  0.3361
 1838TIP3   OH2 5477   0.877   3.639   5.152  0.3172 -0.5327 -0.0679
 1838TIP3    H1 5478   0.817   3.586   5.203 -0.6783 -0.1387 -0.8015
 1838TIP3    H2 5479   0.899   3.713   5.208 -2.0583  0.7736 -0.7317
 1839TIP3   OH2 5480   4.545   2.092   4.279  0.3268 -0.3840  0.4135
 1839TIP3    H1 5481   4.549   2.186   4.299  0.5233 -0.4430  0.6605
 1839TIP3    H2 5482   4.628   2.073   4.235 -0.3192 -0.1523 -0.9516
 1840TIP3   OH2 5483   4.015   1.195   2.616  0.1700 -0.2843  0.2910
 1840TIP3    H1 5484   4.079   1.160   2.554 -0.3373 -1.3272  0.3356
 1840TIP3    H2 5485   3.935   1.204   2.565  0.5913  2.2025 -0.1047
 1841TIP3   OH2 5486   3.668   0.348   5.349 -0.3459 -0.6071 -0.1309
 1841TIP3    H1 5487   3.588   0.394   5.374 -0.3425 -1.6477  2.0288
 1841TIP3    H2 5488   3.738   0.400   5.386 -0.1469 -0.7068 -0.3667
 1842TIP3   OH2 5489   3.836   6.404   3.078 -0.3351 -0.2504  0.2005
 1842TIP3    H1 5490   3.784   6.435   3.004  0.3506  3.0920  0.9485
 1842TIP3    H2 5491   3.771   6.379   3.144 -1.1267  2.3521  0.5357
 1843TIP3   OH2 5492   1.529   1.287   3.035  0.2732 -0.5178 -0.4292
 1843TIP3    H1 5493   1.623   1.304   3.033  0.5016 -1.7319 -1.6102
 1843TIP3    H2 5494   1.520   1.204   3.082 -0.2342 -0.2363 -0.0277
 1844TIP3   OH2 5495   4.449   1.453   3.961 -0.5922  0.1245  0.0640
 1844TIP3    H1 5496   4.429   1.384   3.897 -0.7812 -1.8951  2.1951
 1844TIP3    H2 5497   4.543   1.469   3.950 -0.8042  0.5432 -1.3616
 1845TIP3   OH2 5498   0.957   1.713   3.191 -0.2172  0.4041 -0.2031
 1845TIP3    H1 5499   1.043   1.689   3.155  0.2088 -0.0473  1.0428
 1845TIP3    H2 5500   0.945   1.653   3.265 -2.1803 -0.3566 -1.1000
 1846TIP3   OH2 5501   3.465   5.932   3.071 -1.0794  0.2609 -0.4632
 1846TIP3    H1 5502   3.533   5.901   3.131 -2.2440 -1.8098 -0.1218
 1846TIP3    H2 5503   3.502   5.919   2.984 -0.3073  0.9973 -0.2565
 1847TIP3   OH2 5504   0.589   4.116   1.284 -0.5862 -0.2245  0.3815
 1847TIP3    H1 5505   0.515   4.176   1.279 -0.0656  0.4778  0.8429
 1847TIP3    H2 5506   0.568   4.057   1.356 -1.2104 -0.7448 -0.2293
 1848TIP3   OH2 5507   4.082   0.449   4.877 -0.1266 -0.4399  0.1582
 1848TIP3    H1 5508   4.176   0.450   4.857 -0.0874 -1.6265  0.1991
 1848TIP3    H2 5509   4.067   0.529   4.926  1.2708 -1.1834  1.9037
 1849TIP3   OH2 5510   6.137   0.153   1.761  0.0995 -0.1540 -0.1069
 1849TIP3    H1 5511   6.053   0.198   1.755  0.3995  0.4041 -0.1653
 1849TIP3    H2 5512   6.171   0.178   1.847  0.0203 -0.7094  0.0886
 1850TIP3   OH2 5513   0.506   2.284   1.971  0.1297  0.1621  0.2367
 1850TIP3    H1 5514   0.477   2.344   1.902 -2.2211 -0.2630  0.7588
 1850TIP3    H2 5515   0.552   2.214   1.924  0.3922  0.9110 -0.6605
 1851TIP3   OH2 5516   3.739   4.346   5.279  0.2617  0.1335  0.2118
 1851TIP3    H1 5517   3.683   4.403   5.331 -0.0108 -0.0026  0.0710
 1851TIP3    H2 5518   3.680   4.307   5.214  0.0995 -1.5550  1.3025
 1852TIP3   OH2 5519   2.786   5.549   3.928 -0.0839 -0.1198 -0.0280
 1852TIP3    H1 5520   2.700   5.569   3.891  0.7800  2.4695 -0.8592
 1852TIP3    H2 5521   2.777   5.565   4.022 -0.2912  1.1664 -0.2488
 1853TIP3   OH2 5522   4.863   0.141   0.997  0.4796 -0.2253 -0.2400
 1853TIP3    H1 5523   4.870   0.086   1.075 -2.2669 -0.0712  0.2186
 1853TIP3    H2 5524   4.936   0.202   1.004  1.0849 -1.0825  1.4969
 1854TIP3   OH2 5525   3.233   1.844   4.873  0.2628 -0.2091  0.2536
 1854TIP3    H1 5526   3.293   1.917   4.854 -0.1086 -0.2727 -1.2743
 1854TIP3    H2 5527   3.186   1.829   4.791 -2.2002  0.1344  1.4906
 1855TIP3   OH2 5528   2.446   4.488   2.788  0.2908  0.1743  0.4562
 1855TIP3    H1 5529   2.439   4.432   2.865  1.6536 -0.6548  0.0041
 1855TIP3    H2 5530   2.540   4.500   2.775  0.1386 -0.4539 -1.5955
 1856TIP3   OH2 5531   3.522   4.648   0.992 -0.1322  0.7498  0.2451
 1856TIP3    H1 5532   3.486   4.711   0.930 -2.6298 -0.2860  0.5533
 1856TIP3    H2 5533   3.545   4.572   0.938 -2.0996 -0.0659  0.4845
 1857TIP3   OH2 5534   1.811   1.721   4.712  0.1536  0.6624  0.2855
 1857TIP3    H1 5535   1.841   1.635   4.741  0.3243  0.4325 -0.5461
 1857TIP3    H2 5536   1.871   1.782   4.754 -0.2675  0.4148  1.2665
 1858TIP3   OH2 5537   4.774   0.049   1.663  0.3958 -0.1470 -0.2556
 1858TIP3    H1 5538   4.708  -0.009   1.624 -0.6124  0.7128  0.1397
 1858TIP3    H2 5539   4.841   0.057   1.595 -0.0785 -0.7378 -0.8107
 1859TIP3   OH2 5540   0.863   2.247   2.328  0.2021  0.0698 -0.0310
 1859TIP3    H1 5541   0.821   2.217   2.409 -0.5252 -0.4705 -0.5942
 1859TIP3    H2 5542   0.793   2.290   2.279  0.9072  1.4465  0.1303
 1860TIP3   OH2 5543   4.204   5.320   1.685  0.1312 -0.2888  0.1861
 1860TIP3    H1 5544   4.272   5.340   1.619 -0.8837 -1.0204 -1.1354
 1860TIP3    H2 5545   4.125   5.306   1.633 -0.6784 -1.0252  1.5868
 1861TIP3   OH2 5546   3.666   6.370   1.813 -0.4153 -0.0699 -0.3803
 1861TIP3    H1 5547   3.576   6.392   1.786  0.1959  0.4406 -2.0925
 1861TIP3    H2 5548   3.713   6.355   1.731  1.1838  0.1127  0.4654
 1862TIP3   OH2 5549   3.529   0.733   4.153  0.0514  0.2653 -0.0265
 1862TIP3    H1 5550   3.586   0.656   4.148  1.8373  1.4617  0.7917
 1862TIP3    H2 5551   3.525   0.754   4.246 -2.5269 -0.2927  0.0463
 1863TIP3   OH2 5552   3.153   6.327   4.796 -0.1030 -0.4645 -0.4897
 1863TIP3    H1 5553   3.104   6.382   4.735 -0.2393  0.6447  0.5843
 1863TIP3    H2 5554   3.110   6.341   4.880  2.1778  0.7829  0.5641
 1864TIP3   OH2 5555   3.495   2.028   2.949  0.0621  0.0260 -0.0968
 1864TIP3    H1 5556   3.573   1.972   2.951  0.8850  1.1727  0.8961
 1864TIP3    H2 5557   3.422   1.967   2.934  0.8933 -1.3556  1.2489
 1865TIP3   OH2 5558   0.884   4.527   1.491 -0.2430  0.0828  0.3067
 1865TIP3    H1 5559   0.924   4.444   1.515  0.1890  0.0490 -0.5063
 1865TIP3    H2 5560   0.829   4.550   1.566  1.4588  0.2481  1.5681
 1866TIP3   OH2 5561   4.057   2.345   4.633 -0.0757  0.0519 -0.1100
 1866TIP3    H1 5562   4.137   2.382   4.670 -0.3549  0.8201 -0.2506
 1866TIP3    H2 5563   4.014   2.420   4.590 -0.1241 -0.6536 -1.3364
 1867TIP3   OH2 5564   4.935   4.604   2.259 -0.4294 -0.3602 -0.3108
 1867TIP3    H1 5565   4.858   4.552   2.238  0.6243 -1.5155 -1.5114
 1867TIP3    H2 5566   4.905   4.668   2.323 -1.4465 -3.3832  2.4709
 1868TIP3   OH2 5567   7.254   6.544   4.971 -0.3098 -0.1268 -0.2700
 1868TIP3    H1 5568   7.188   6.613   4.981  0.3427  0.2803  1.4620
 1868TIP3    H2 5569   7.206   6.471   4.934 -1.4057  0.6688 -0.4720
 1869TIP3   OH2 5570   2.480   0.948   3.744  0.0876  0.1350  0.0220
 1869TIP3    H1 5571   2.509   1.039   3.746 -0.0554  0.1851 -0.1020
 1869TIP3    H2 5572   2.410   0.947   3.678  0.5037 -0.1890 -0.4153
 1870TIP3   OH2 5573   3.289   1.582   2.335  0.4768 -0.2477 -0.0757
 1870TIP3    H1 5574   3.207   1.545   2.366  1.7439 -1.9391  1.5099
 1870TIP3    H2 5575   3.266   1.630   2.256 -1.6417 -2.8824 -1.1960
 1871TIP3   OH2 5576   6.516   4.251   3.290  0.0385  0.5335 -0.1193
 1871TIP3    H1 5577   6.457   4.204   3.349 -0.1928  0.3293 -0.5103
 1871TIP3    H2 5578   6.582   4.288   3.348  0.2474 -0.3072  0.1910
 1872TIP3   OH2 5579   1.372   3.406   5.239  0.5320  0.3628  0.6082
 1872TIP3    H1 5580   1.410   3.318   5.232  1.2492  0.6303  0.9758
 1872TIP3    H2 5581   1.427   3.450   5.304 -1.0042  0.4574  1.9134
 1873TIP3   OH2 5582   3.898   0.178   1.681 -0.2250  0.8161 -0.7361
 1873TIP3    H1 5583   3.879   0.227   1.601  0.1426  0.2546 -1.1777
 1873TIP3    H2 5584   3.843   0.100   1.675  1.1910 -0.1729 -1.3896
 1874TIP3   OH2 5585   6.464   1.749   4.737 -0.4432  0.3283  0.0503
 1874TIP3    H1 5586   6.417   1.755   4.820  0.0565  2.9931  0.2201
 1874TIP3    H2 5587   6.552   1.719   4.761 -1.0091 -1.3647  0.1291
 1875TIP3   OH2 5588   4.676   1.158   5.128  0.4602 -0.1335 -0.2832
 1875TIP3    H1 5589   4.611   1.149   5.198  2.4366 -0.6311  1.6077
 1875TIP3    H2 5590   4.688   1.252   5.119 -1.8668  0.0790 -2.0769
 1876TIP3   OH2 5591   6.649   2.479   4.449  0.2810 -0.0054  0.3063
 1876TIP3    H1 5592   6.598   2.417   4.397 -0.2313  0.6535  0.0026
 1876TIP3    H2 5593   6.738   2.443   4.450  0.4792  0.2932 -1.6107
 1877TIP3   OH2 5594   6.780   1.560   4.547  0.5504 -0.0695 -0.1938
 1877TIP3    H1 5595   6.781   1.599   4.635 -0.0302 -0.6825  0.0995
 1877TIP3    H2 5596   6.866   1.579   4.511  0.8883 -0.0313  0.6137
 1878TIP3   OH2 5597   5.131   0.580   3.610 -0.1102 -0.7278  0.3321
 1878TIP3    H1 5598   5.171   0.612   3.691 -1.3857  2.0285  0.0268
 1878TIP3    H2 5599   5.189   0.512   3.578  0.9690 -1.1675  3.0234
 1879TIP3   OH2 5600   1.565   6.384   1.109  0.0520 -0.0171  0.3903
 1879TIP3    H1 5601   1.651   6.423   1.096  0.6634 -1.6362 -0.8558
 1879TIP3    H2 5602   1.577   6.326   1.185 -1.2014  2.9694  3.1134
 1880TIP3   OH2 5603   6.030   5.952   2.649 -0.0297 -0.1295  0.2136
 1880TIP3    H1 5604   6.040   5.879   2.588  1.4190  1.8609 -2.1338
 1880TIP3    H2 5605   6.012   5.910   2.733  1.8406 -3.2550 -0.7521
 1881TIP3   OH2 5606   5.421   5.607   3.879 -0.3224  0.1557 -0.5710
 1881TIP3    H1 5607   5.502   5.589   3.926  0.0766  0.5535 -1.0991
 1881TIP3    H2 5608   5.447   5.617   3.788 -1.0150 -0.0623 -0.8013
 1882TIP3   OH2 5609   2.685   5.784   3.660  0.4252 -0.2663  0.4304
 1882TIP3    H1 5610   2.608   5.835   3.684  1.0220  0.9342 -0.1618
 1882TIP3    H2 5611   2.753   5.849   3.643  2.1309 -1.3229  2.7263
 1883TIP3   OH2 5612   5.233   4.387   4.336 -0.1157 -0.0192 -0.1751
 1883TIP3    H1 5613   5.191   4.451   4.393 -1.2399 -1.3718  0.6075
 1883TIP3    H2 5614   5.292   4.338   4.393  0.5944  0.2005 -0.7164
 1884TIP3   OH2 5615   5.834   4.222   5.034  0.1886  0.3273 -0.2810
 1884TIP3    H1 5616   5.756   4.270   5.008  0.9574  0.9089 -1.6112
 1884TIP3    H2 5617   5.847   4.158   4.963  0.6974 -0.0237  0.1232
 1885TIP3   OH2 5618   0.665   0.137   4.394  0.0494 -0.2196  0.0295
 1885TIP3    H1 5619   0.698   0.058   4.438  0.2118 -1.4062 -2.1242
 1885TIP3    H2 5620   0.735   0.202   4.406 -0.0915 -0.3272  1.8377
 1886TIP3   OH2 5621   0.336   4.443   0.376 -0.6707 -0.0791 -0.5333
 1886TIP3    H1 5622   0.305   4.368   0.325 -1.2022 -0.7900  0.7855
 1886TIP3    H2 5623   0.376   4.502   0.312 -1.6189 -0.7846 -1.7913
 1887TIP3   OH2 5624   5.397   3.267   2.993 -0.0793 -0.1367  0.3749
 1887TIP3    H1 5625   5.462   3.335   3.011  0.1367 -0.2896  0.1805
 1887TIP3    H2 5626   5.318   3.315   2.967  0.3938  0.0287 -0.8462
 1888TIP3   OH2 5627   1.793   3.787   0.045 -0.4311 -0.2579 -0.0548
 1888TIP3    H1 5628   1.732   3.795  -0.028 -1.4758  0.5442  0.8705
 1888TIP3    H2 5629   1.756   3.844   0.113  1.5529  0.5650  0.4016
 1889TIP3   OH2 5630   1.937   0.789   2.756 -0.0522  0.2559  0.1964
 1889TIP3    H1 5631   1.997   0.734   2.705 -2.1991 -0.7729 -1.3494
 1889TIP3    H2 5632   1.940   0.875   2.712 -0.1369  0.0387 -0.2418
 1890TIP3   OH2 5633   5.757   5.373   3.861  0.4059 -0.0217 -0.2295
 1890TIP3    H1 5634   5.676   5.323   3.877  1.1467 -1.0292  0.4868
 1890TIP3    H2 5635   5.739   5.459   3.898 -0.7316  0.1272 -1.0695
 1891TIP3   OH2 5636   6.104   0.275   1.444 -0.0455  0.3634 -0.2165
 1891TIP3    H1 5637   6.013   0.267   1.415 -0.4984 -1.9286  1.5473
 1891TIP3    H2 5638   6.127   0.366   1.425 -3.3255  1.5884  1.0055
 1892TIP3   OH2 5639   4.566   3.774   5.515 -0.4713  0.1325  0.1949
 1892TIP3    H1 5640   4.607   3.777   5.602 -0.4139  0.3971  0.1598
 1892TIP3    H2 5641   4.639   3.783   5.454 -0.7170  2.7435  0.1391
 1893TIP3   OH2 5642   2.969   6.645   2.327  0.1993  0.4288  0.0234
 1893TIP3    H1 5643   2.876   6.661   2.313  0.4014  0.2259 -1.7176
 1893TIP3    H2 5644   3.005   6.632   2.240  1.6846 -0.4949  0.7296
 1894TIP3   OH2 5645   0.248   5.412   4.409 -0.6953 -0.1059 -1.0388
 1894TIP3    H1 5646   0.155   5.432   4.421 -1.0735 -1.8407 -0.8491
 1894TIP3    H2 5647   0.290   5.447   4.487 -1.6744 -2.1025  0.4787
 1895TIP3   OH2 5648   3.818   2.415   2.756  0.4016 -0.4491  0.4731
 1895TIP3    H1 5649   3.769   2.384   2.832 -1.2438 -0.5873 -0.5655
 1895TIP3    H2 5650   3.824   2.338   2.699 -1.4464  0.4073 -1.0038
 1896TIP3   OH2 5651   2.753   5.817   0.864 -0.5268  0.2086 -0.0499
 1896TIP3    H1 5652   2.742   5.818   0.769  2.5637 -0.0236 -0.5369
 1896TIP3    H2 5653   2.763   5.724   0.886  1.2478  0.3806  0.0469
 1897TIP3   OH2 5654   5.602   4.544   2.011  0.5595  0.0866 -0.6291
 1897TIP3    H1 5655   5.576   4.494   1.934 -3.0018  2.3234 -1.0772
 1897TIP3    H2 5656   5.543   4.515   2.080  1.2421  0.7377  0.2494
 1898TIP3   OH2 5657   2.829   0.248   0.911  0.3238  0.5045 -0.2284
 1898TIP3    H1 5658   2.918   0.250   0.876  0.5475  1.3210  0.3568
 1898TIP3    H2 5659   2.798   0.160   0.891  2.4316 -0.9884  2.3576
 1899TIP3   OH2 5660   2.509   0.624   1.520 -0.7412  0.1201 -0.1029
 1899TIP3    H1 5661   2.534   0.674   1.442 -2.6707  0.1164 -0.7592
 1899TIP3    H2 5662   2.526   0.684   1.593  0.5818  0.3159 -0.5294
 1900TIP3   OH2 5663   2.794   1.276   1.110 -0.1042  0.1777 -0.0281
 1900TIP3    H1 5664   2.701   1.280   1.088  0.0906  0.9023 -0.7867
 1900TIP3    H2 5665   2.817   1.184   1.101 -0.4836  0.1670 -1.0306
 1901TIP3   OH2 5666   6.505   4.269   0.039 -0.4761  0.4558  0.1764
 1901TIP3    H1 5667   6.498   4.348  -0.014  1.1032  0.2749 -0.3593
 1901TIP3    H2 5668   6.555   4.208  -0.015  1.7052  0.4652  2.0288
 1902TIP3   OH2 5669   6.275   0.740   5.397 -0.2483  0.2154 -0.2556
 1902TIP3    H1 5670   6.296   0.746   5.304 -0.5862 -1.0443 -0.4272
 1902TIP3    H2 5671   6.207   0.672   5.402 -2.1395  2.0374  0.6142
 1903TIP3   OH2 5672   3.721   4.450   0.074  0.6734 -0.6025 -0.2105
 1903TIP3    H1 5673   3.734   4.387   0.004  0.6203 -1.9468  0.9480
 1903TIP3    H2 5674   3.633   4.432   0.107 -0.0481  1.2547 -0.9660
 1904TIP3   OH2 5675   6.384   6.288   2.870  0.5976  0.0087  0.0452
 1904TIP3    H1 5676   6.328   6.220   2.833  0.6934  0.1957 -0.4551
 1904TIP3    H2 5677   6.463   6.241   2.898  0.8118 -0.0436 -0.6222
 1905TIP3   OH2 5678   2.624   2.438   5.464 -0.0167 -0.0094  0.0283
 1905TIP3    H1 5679   2.718   2.444   5.450  0.0569  3.1592  1.2734
 1905TIP3    H2 5680   2.611   2.464   5.555 -2.1006 -0.4577 -0.0862
 1906TIP3   OH2 5681   4.735   4.976   4.960  0.1482 -0.8962 -0.0281
 1906TIP3    H1 5682   4.783   5.030   5.024 -0.6613  1.0944 -1.0166
 1906TIP3    H2 5683   4.789   4.897   4.951  0.8564 -0.7590  2.2495
 1907TIP3   OH2 5684   0.417   0.172   5.602 -0.1583 -0.1546  0.2418
 1907TIP3    H1 5685   0.470   0.155   5.524  1.1202  0.2967  0.9837
 1907TIP3    H2 5686   0.354   0.239   5.574 -0.8250 -1.1746 -0.8317
 1908TIP3   OH2 5687   3.789   1.126   0.704 -0.0945  0.0280 -0.5638
 1908TIP3    H1 5688   3.705   1.093   0.738  0.5637 -1.5318 -0.3678
 1908TIP3    H2 5689   3.841   1.047   0.690  0.3607  0.7291 -3.4260
 1909TIP3   OH2 5690   7.182   0.230   0.276  0.1721  0.0913  0.0387
 1909TIP3    H1 5691   7.274   0.218   0.300  0.3320 -2.0933 -1.3284
 1909TIP3    H2 5692   7.185   0.248   0.182 -0.7108  2.9011  0.4615
 1910TIP3   OH2 5693   1.375   3.834   1.611 -0.0538  0.3876 -0.3019
 1910TIP3    H1 5694   1.347   3.833   1.519 -1.8452 -1.5688  0.1632
 1910TIP3    H2 5695   1.423   3.916   1.621 -0.3079  0.9360 -2.8281
 1911TIP3   OH2 5696   1.779   0.615   3.585 -0.3303  0.2597 -0.0434
 1911TIP3    H1 5697   1.823   0.542   3.542 -0.3724 -0.1091  0.5255
 1911TIP3    H2 5698   1.762   0.584   3.674  1.7992  1.7881  0.9827
 1912TIP3   OH2 5699   2.728   6.472   5.503 -0.0876 -0.5275  0.1337
 1912TIP3    H1 5700   2.668   6.400   5.482 -2.9803  1.8786 -0.5142
 1912TIP3    H2 5701   2.678   6.529   5.560  2.9729 -0.1359  2.6952
 1913TIP3   OH2 5702   2.347   2.691   3.115  0.4238  0.6747 -0.9010
 1913TIP3    H1 5703   2.406   2.629   3.157 -0.9929 -0.1837 -0.1084
 1913TIP3    H2 5704   2.316   2.646   3.036 -0.6657  0.3260 -0.2853
 1914TIP3   OH2 5705   0.141   1.198   0.071  0.3129  0.2752  0.0030
 1914TIP3    H1 5706   0.131   1.141   0.148 -0.6763  1.2925  0.6592
 1914TIP3    H2 5707   0.056   1.240   0.061  0.4735  0.2758 -1.5808
 1915TIP3   OH2 5708   2.575   5.570   1.075  0.1198  0.2227 -0.7084
 1915TIP3    H1 5709   2.577   5.612   1.160  0.8771 -1.7977  0.3418
 1915TIP3    H2 5710   2.482   5.568   1.051  0.0202  1.9522 -0.5814
 1916TIP3   OH2 5711   7.099   2.057   2.840  0.6029  0.4065 -0.9313
 1916TIP3    H1 5712   7.090   1.998   2.915  1.9706  0.7344 -0.4702
 1916TIP3    H2 5713   7.010   2.071   2.810  0.1251 -0.6986 -0.1181
 1917TIP3   OH2 5714   4.439   1.860   4.324  0.1133 -0.2950 -0.7060
 1917TIP3    H1 5715   4.386   1.899   4.394  0.9509 -1.3386  0.5511
 1917TIP3    H2 5716   4.491   1.932   4.290 -1.2464  0.5061 -1.1772
 1918TIP3   OH2 5717   7.193   4.105   0.817  0.1604 -0.0288 -0.2168
 1918TIP3    H1 5718   7.237   4.021   0.805 -0.7927 -0.7976  1.3139
 1918TIP3    H2 5719   7.175   4.110   0.911  1.0968  2.3794 -0.0939
 1919TIP3   OH2 5720   4.012   5.128   5.456 -0.1971  0.0898 -0.1929
 1919TIP3    H1 5721   3.941   5.191   5.447  0.6595  1.0428 -0.4790
 1919TIP3    H2 5722   4.079   5.174   5.505 -0.1238 -1.1121  0.8738
 1920TIP3   OH2 5723   3.478   1.734   3.721 -0.1681  0.4870  0.2018
 1920TIP3    H1 5724   3.435   1.655   3.754  0.5522 -0.2899 -0.6607
 1920TIP3    H2 5725   3.570   1.709   3.712  0.0795  1.4449 -0.0398
 1921TIP3   OH2 5726   2.937   0.089   5.721 -0.0730  0.5398 -0.0077
 1921TIP3    H1 5727   2.914   0.050   5.805  0.8004  0.0504  0.0150
 1921TIP3    H2 5728   2.933   0.183   5.736  1.2117  0.4729  0.9219
 1922TIP3   OH2 5729   3.725   5.291   5.065 -0.1356  1.0348 -0.8607
 1922TIP3    H1 5730   3.815   5.325   5.071  0.0034  0.7138 -1.0961
 1922TIP3    H2 5731   3.715   5.269   4.972 -0.5809  1.4054 -0.8995
 1923TIP3   OH2 5732   4.313   2.048   5.205 -0.4637  0.9479  0.2045
 1923TIP3    H1 5733   4.313   2.142   5.223 -1.6955  0.8392  0.9374
 1923TIP3    H2 5734   4.377   2.012   5.267 -1.4903  1.0973  1.4114
 1924TIP3   OH2 5735   0.769   1.491   2.378 -0.0871 -0.0090 -0.0202
 1924TIP3    H1 5736   0.747   1.556   2.311 -0.4084 -1.9920 -1.9737
 1924TIP3    H2 5737   0.864   1.495   2.385  0.0970 -0.6546 -1.6403
 1925TIP3   OH2 5738   6.504   4.616   0.767  0.1123  0.0305 -0.3820
 1925TIP3    H1 5739   6.509   4.582   0.678 -0.7932  1.5928 -1.0602
 1925TIP3    H2 5740   6.454   4.550   0.815 -2.2685  0.6546 -1.8466
 1926TIP3   OH2 5741   2.958   3.714   5.100  0.9122 -0.7035  0.0209
 1926TIP3    H1 5742   2.909   3.712   5.182  1.4481  0.0363  0.3579
 1926TIP3    H2 5743   2.892   3.694   5.033  0.1267  0.3366  0.4625
 1927TIP3   OH2 5744   4.551   3.956   1.412  0.0144 -0.3059  0.5950
 1927TIP3    H1 5745   4.552   4.024   1.344  1.1216 -1.2643 -0.4111
 1927TIP3    H2 5746   4.498   3.993   1.482 -1.6263  0.5266 -1.0021
 1928TIP3   OH2 5747   0.240   2.722   3.271  0.1317  0.7112 -0.2164
 1928TIP3    H1 5748   0.315   2.752   3.218 -1.2651  2.3695 -1.3523
 1928TIP3    H2 5749   0.200   2.652   3.218  1.2606 -0.7433  0.7554
 1929TIP3   OH2 5750   4.488   0.102   5.146 -0.1270 -0.0305 -0.2586
 1929TIP3    H1 5751   4.439   0.069   5.221 -2.1690  2.0805 -0.5488
 1929TIP3    H2 5752   4.578   0.075   5.163 -0.9064 -1.6924  1.7019
 1930TIP3   OH2 5753   0.397   2.744   3.657 -0.1579 -0.6084 -0.1304
 1930TIP3    H1 5754   0.369   2.786   3.738 -2.3647 -0.3212 -0.9677
 1930TIP3    H2 5755   0.315   2.725   3.610  1.0544  0.0818 -2.7108
 1931TIP3   OH2 5756   5.933   2.121   4.183 -0.1735  0.3151 -0.1728
 1931TIP3    H1 5757   5.861   2.139   4.243 -0.6573  0.3285 -0.7476
 1931TIP3    H2 5758   5.896   2.063   4.117  0.6108 -0.4664  0.0635
 1932TIP3   OH2 5759   2.545   2.221   2.431  0.6048  0.3393  0.3264
 1932TIP3    H1 5760   2.629   2.177   2.430  0.2805 -0.3007  0.5273
 1932TIP3    H2 5761   2.488   2.167   2.376 -0.3704 -0.6932  2.2449
 1933TIP3   OH2 5762   3.434   4.544   2.052 -0.4011 -0.2043  0.6529
 1933TIP3    H1 5763   3.411   4.475   2.113  1.9900 -1.9655 -0.2644
 1933TIP3    H2 5764   3.497   4.598   2.099 -2.7643  1.9421  1.6158
 1934TIP3   OH2 5765   5.528   5.655   3.634  0.1231  0.1369 -0.5169
 1934TIP3    H1 5766   5.470   5.674   3.561 -1.0483  1.5814  0.7264
 1934TIP3    H2 5767   5.614   5.685   3.605  0.1981 -1.4758 -2.1460
 1935TIP3   OH2 5768   1.610   2.119   3.727 -0.2255 -0.0322 -0.4082
 1935TIP3    H1 5769   1.658   2.098   3.808  0.4477  1.7317 -0.3148
 1935TIP3    H2 5770   1.604   2.035   3.681  1.3661 -0.6657  0.4404
 1936TIP3   OH2 5771   1.409   1.969   1.927  0.0619  0.6868 -0.0321
 1936TIP3    H1 5772   1.415   2.048   1.981  1.5561  2.6754 -2.8465
 1936TIP3    H2 5773   1.324   1.977   1.883  1.3147  2.2620 -2.3324
 1937TIP3   OH2 5774   3.745   2.888   4.378 -0.3134  0.0658 -0.1813
 1937TIP3    H1 5775   3.759   2.795   4.358  2.8969  0.4217 -0.0702
 1937TIP3    H2 5776   3.788   2.902   4.462 -1.1397  1.5736  0.0266
 1938TIP3   OH2 5777   1.807   4.290   0.842  0.2314 -0.6954 -0.5509
 1938TIP3    H1 5778   1.883   4.234   0.859  1.0350  0.6858  0.7240
 1938TIP3    H2 5779   1.820   4.365   0.900 -2.5921 -0.8316  0.3863
 1939TIP3   OH2 5780   2.215   5.200   0.498 -0.2718 -0.0029 -0.5554
 1939TIP3    H1 5781   2.251   5.143   0.565 -0.0674  1.6374  0.8079
 1939TIP3    H2 5782   2.132   5.159   0.474  0.5877 -1.6855 -0.7969
 1940TIP3   OH2 5783   6.345   2.371   2.641  0.3628 -0.5513 -0.6708
 1940TIP3    H1 5784   6.416   2.369   2.577  0.8162 -1.6406 -0.1592
 1940TIP3    H2 5785   6.388   2.355   2.725 -0.4072 -0.6045 -0.2773
 1941TIP3   OH2 5786   5.940   6.583   1.981 -0.3660  0.2337  0.4705
 1941TIP3    H1 5787   5.987   6.569   1.899  0.3150 -0.4898  0.9721
 1941TIP3    H2 5788   6.008   6.580   2.048 -1.0455 -0.1556  1.1477
 1942TIP3   OH2 5789   3.089   6.232   3.827 -0.3029 -0.2173 -0.1811
 1942TIP3    H1 5790   3.182   6.234   3.851 -0.1111  1.4294 -0.9688
 1942TIP3    H2 5791   3.044   6.275   3.899 -0.6997 -2.3794  0.9613
 1943TIP3   OH2 5792   6.695   0.208   3.052 -0.1066  0.3701  0.2264
 1943TIP3    H1 5793   6.623   0.147   3.037 -0.3835  1.1071 -1.7357
 1943TIP3    H2 5794   6.705   0.254   2.969  1.4712  1.5352  1.0109
 1944TIP3   OH2 5795   6.672   0.197   3.853  0.5569 -0.4599 -0.5377
 1944TIP3    H1 5796   6.651   0.181   3.945  1.5395  0.7526 -0.0853
 1944TIP3    H2 5797   6.735   0.128   3.830  1.4834  0.1388  0.1517
 1945TIP3   OH2 5798   7.178   0.409   3.656 -0.1352 -0.0860  0.5739
 1945TIP3    H1 5799   7.091   0.375   3.678  0.0337 -1.0551 -0.1994
 1945TIP3    H2 5800   7.210   0.447   3.738 -0.5241 -1.3877  1.3585
 1946TIP3   OH2 5801   2.101   5.644   5.010 -0.0866 -0.0973 -0.7034
 1946TIP3    H1 5802   2.172   5.581   4.995  0.6049  0.8172 -1.3335
 1946TIP3    H2 5803   2.058   5.653   4.925 -1.7729 -1.5582 -0.0775
 1947TIP3   OH2 5804   2.115   2.198   2.154 -0.5081  0.1077 -0.1024
 1947TIP3    H1 5805   2.171   2.270   2.182 -0.7570  0.4099 -0.3697
 1947TIP3    H2 5806   2.047   2.193   2.221 -1.4423  1.2186 -0.9446
 1948TIP3   OH2 5807   5.698   5.381   1.759  0.0704 -0.2199 -0.2889
 1948TIP3    H1 5808   5.689   5.320   1.685  1.2922 -0.6809 -0.0810
 1948TIP3    H2 5809   5.608   5.406   1.780 -0.2645  1.1004 -2.8840
 1949TIP3   OH2 5810   1.890   3.806   3.161  0.2163  0.3029  0.0144
 1949TIP3    H1 5811   1.858   3.732   3.110 -1.6038  1.1461 -0.1194
 1949TIP3    H2 5812   1.930   3.865   3.096 -0.1462  0.3695 -0.1475
 1950TIP3   OH2 5813   1.561   1.771   0.034  0.1114 -0.2557  0.7044
 1950TIP3    H1 5814   1.482   1.718   0.021  0.1324 -0.5424  1.6829
 1950TIP3    H2 5815   1.581   1.805  -0.053 -1.6797  0.6621  0.5980
 1951TIP3   OH2 5816   5.913   1.265   1.526 -0.2994  0.2346  0.3490
 1951TIP3    H1 5817   5.876   1.349   1.553  2.1512  1.1836  1.0040
 1951TIP3    H2 5818   5.893   1.259   1.433 -2.2666  0.5388  0.7150
 1952TIP3   OH2 5819   0.197   2.000   2.806  0.8796 -0.1336 -0.2686
 1952TIP3    H1 5820   0.108   1.975   2.784  0.3651 -0.3122  1.8205
 1952TIP3    H2 5821   0.243   2.003   2.722 -1.0929  0.0332 -1.3897
 1953TIP3   OH2 5822   3.567   5.363   2.568  0.1178 -0.3926 -0.2685
 1953TIP3    H1 5823   3.649   5.322   2.540  0.8289 -1.1251  2.5942
 1953TIP3    H2 5824   3.504   5.292   2.571 -0.0353 -0.2581 -0.2643
 1954TIP3   OH2 5825   3.372   0.580   3.677 -0.3117 -0.2042 -0.0367
 1954TIP3    H1 5826   3.397   0.509   3.618 -0.2096  0.6579 -1.0536
 1954TIP3    H2 5827   3.389   0.660   3.627  0.4772  0.5857  1.4176
 1955TIP3   OH2 5828   0.603   6.419   2.518 -0.1165 -0.8669  0.3827
 1955TIP3    H1 5829   0.568   6.335   2.550 -0.3409 -0.7780  0.3709
 1955TIP3    H2 5830   0.608   6.474   2.596 -1.5845 -0.3241  0.1174
 1956TIP3   OH2 5831   2.320   2.192   1.328 -0.4313  0.1456 -0.2338
 1956TIP3    H1 5832   2.375   2.253   1.279  2.2798 -1.8258  0.0777
 1956TIP3    H2 5833   2.320   2.225   1.418  1.0853 -0.2952 -0.0483
 1957TIP3   OH2 5834   2.931   0.667   4.023 -0.1979  0.6142 -0.1277
 1957TIP3    H1 5835   2.999   0.732   4.008  1.2123 -0.8062 -0.1143
 1957TIP3    H2 5836   2.946   0.601   3.956 -0.2269 -0.7493  1.1569
 1958TIP3   OH2 5837   2.169   4.922   5.253 -0.4799 -0.7414  0.1283
 1958TIP3    H1 5838   2.080   4.905   5.283 -0.2231 -1.1528  0.6768
 1958TIP3    H2 5839   2.182   5.015   5.267 -0.2912 -0.9664  1.5182
 1959TIP3   OH2 5840   3.465   1.647   1.639 -0.0727  0.6325 -1.0468
 1959TIP3    H1 5841   3.402   1.587   1.679 -0.0377  1.2991  0.0266
 1959TIP3    H2 5842   3.549   1.600   1.645  0.2371  1.3788  1.1988
 1960TIP3   OH2 5843   5.215   5.830   1.730 -0.7791 -0.1726 -0.5134
 1960TIP3    H1 5844   5.218   5.793   1.642 -0.0897 -0.4271 -0.3889
 1960TIP3    H2 5845   5.292   5.794   1.774  1.1268  2.9728 -1.0087
 1961TIP3   OH2 5846   6.240   4.647   1.938  0.0449  0.1657 -0.2351
 1961TIP3    H1 5847   6.166   4.596   1.970  1.2513 -1.4574  0.0967
 1961TIP3    H2 5848   6.317   4.605   1.977  1.6022 -1.5109 -4.5180
 1962TIP3   OH2 5849   1.928   0.495   5.404  0.3179  0.2817  0.0917
 1962TIP3    H1 5850   2.002   0.538   5.361  0.7359 -0.7272 -0.2175
 1962TIP3    H2 5851   1.907   0.421   5.348 -0.0917 -0.1951  0.8517
 1963TIP3   OH2 5852   7.026   3.034   4.475 -0.2231 -0.5940  0.0729
 1963TIP3    H1 5853   7.024   2.982   4.555 -2.2080  0.6541  0.9200
 1963TIP3    H2 5854   6.961   3.102   4.490  0.7935  0.8785 -1.8226
 1964TIP3   OH2 5855   2.849   2.852   1.535  0.4054  0.4497 -0.4272
 1964TIP3    H1 5856   2.891   2.766   1.538 -0.8854 -0.2081  1.9851
 1964TIP3    H2 5857   2.759   2.833   1.506 -0.2284  0.7450  1.2175
 1965TIP3   OH2 5858   0.645   1.284   2.778  0.0976 -0.4783  0.2696
 1965TIP3    H1 5859   0.553   1.298   2.798  0.1049 -1.5224  1.1382
 1965TIP3    H2 5860   0.657   1.319   2.690 -1.4458 -1.5343 -0.4049
 1966TIP3   OH2 5861   1.207   4.017   0.625 -0.1251  0.0261  0.0428
 1966TIP3    H1 5862   1.134   3.970   0.665 -0.5299 -0.2991 -1.0499
 1966TIP3    H2 5863   1.238   3.959   0.556  2.4648 -0.7424  1.7059
 1967TIP3   OH2 5864   4.467   1.707   5.075 -0.2909 -0.5110  0.5107
 1967TIP3    H1 5865   4.458   1.798   5.045  0.6916 -0.7514 -0.5678
 1967TIP3    H2 5866   4.412   1.657   5.014  3.0394 -1.2212 -2.1978
 1968TIP3   OH2 5867   4.197   0.410   4.202 -1.0224 -0.2458 -0.7601
 1968TIP3    H1 5868   4.193   0.421   4.107 -1.1052  0.2655 -0.7010
 1968TIP3    H2 5869   4.158   0.490   4.237  1.6545  0.9689 -0.2738
 1969TIP3   OH2 5870   1.313   2.668   0.297  0.1983 -0.7424  0.0357
 1969TIP3    H1 5871   1.338   2.748   0.250 -1.2103  1.0808  2.1785
 1969TIP3    H2 5872   1.256   2.621   0.236  0.3509  0.3155 -0.9612
 1970TIP3   OH2 5873   1.036   4.461   2.059 -0.0888  0.6125 -0.1039
 1970TIP3    H1 5874   1.073   4.374   2.051  2.4510  1.6417 -0.5049
 1970TIP3    H2 5875   1.042   4.482   2.152  0.0320  0.6571 -0.1219
 1971TIP3   OH2 5876   2.045   1.655   1.689 -0.2187 -0.2502 -0.3655
 1971TIP3    H1 5877   2.041   1.567   1.728  1.2938  0.2718  1.0907
 1971TIP3    H2 5878   2.134   1.661   1.653  0.5636  1.4776  1.6719
 1972TIP3   OH2 5879   1.346   5.983   1.869 -0.3059 -0.1188  0.4383
 1972TIP3    H1 5880   1.330   6.052   1.934 -1.2693 -0.8268  0.9752
 1972TIP3    H2 5881   1.442   5.981   1.860 -0.2777  1.5865  0.0597
 1973TIP3   OH2 5882   2.477   3.324   5.678 -0.1626  0.0431 -0.1143
 1973TIP3    H1 5883   2.432   3.359   5.755  2.0455  0.5010  1.0664
 1973TIP3    H2 5884   2.505   3.402   5.629  1.5733 -0.0921  0.5827
 1974TIP3   OH2 5885   3.333   3.763   4.907 -0.1770  0.1815  0.2206
 1974TIP3    H1 5886   3.399   3.759   4.838 -0.0927  0.2011  0.2992
 1974TIP3    H2 5887   3.361   3.696   4.970  0.0219  0.5013  0.4759
 1975TIP3   OH2 5888   5.219   4.597   0.001 -0.3053 -0.0305  0.1790
 1975TIP3    H1 5889   5.142   4.580  -0.053 -1.1796 -0.7626  1.5961
 1975TIP3    H2 5890   5.224   4.522   0.060  0.1960  1.0406  1.5583
 1976TIP3   OH2 5891   2.341   5.028   2.176 -0.2888 -0.1359 -0.0347
 1976TIP3    H1 5892   2.294   4.945   2.165 -0.8877  0.2806 -0.7144
 1976TIP3    H2 5893   2.272   5.093   2.187  0.1443  0.4058 -0.4600
 1977TIP3   OH2 5894   5.443   6.055   2.289  0.0130  0.1792  0.0042
 1977TIP3    H1 5895   5.416   6.147   2.297 -0.2905  0.1318 -0.4438
 1977TIP3    H2 5896   5.393   6.022   2.215 -1.9043 -1.1062  1.7512
 1978TIP3   OH2 5897   3.057   1.818   5.533 -0.3286  0.1461  0.0254
 1978TIP3    H1 5898   3.152   1.827   5.532 -0.4686  2.3045  0.5226
 1978TIP3    H2 5899   3.033   1.801   5.442  0.4885  0.2870 -0.2239
 1979TIP3   OH2 5900   6.772   2.324   0.215 -0.2311 -0.4991  0.8716
 1979TIP3    H1 5901   6.786   2.418   0.206 -1.4728 -0.1911  1.9120
 1979TIP3    H2 5902   6.806   2.286   0.134  3.5127  0.4499  1.7922
 1980TIP3   OH2 5903   4.263   5.608   5.644  0.4365 -0.1815  0.1837
 1980TIP3    H1 5904   4.306   5.581   5.726  1.5214  0.5815 -0.1263
 1980TIP3    H2 5905   4.332   5.606   5.578 -0.6917 -2.0280 -1.0255
 1981TIP3   OH2 5906   1.894   0.878   5.261 -0.9805 -0.2684 -0.0247
 1981TIP3    H1 5907   1.863   0.799   5.305  0.7668 -0.2495  1.3213
 1981TIP3    H2 5908   1.865   0.867   5.170  1.2466 -3.6783 -0.5114
 1982TIP3   OH2 5909   3.014   6.501   1.985  0.3583 -0.2255 -0.0517
 1982TIP3    H1 5910   3.083   6.495   1.919  1.5304  0.4451  1.0649
 1982TIP3    H2 5911   3.050   6.456   2.062 -0.2762  0.4945  0.6868
 1983TIP3   OH2 5912   5.367   2.531   3.704 -1.4093  0.1347 -0.1239
 1983TIP3    H1 5913   5.430   2.507   3.636 -2.2223 -1.5383 -0.3504
 1983TIP3    H2 5914   5.339   2.620   3.681 -0.3100  0.2920 -0.9133
 1984TIP3   OH2 5915   4.830   1.762   2.947 -0.4225 -0.2824 -0.2439
 1984TIP3    H1 5916   4.798   1.675   2.923  2.0153 -0.8614 -1.7911
 1984TIP3    H2 5917   4.884   1.789   2.872  0.8075  1.5191  1.1897
 1985TIP3   OH2 5918   1.814   3.505   1.600  0.4173 -0.1113 -0.1617
 1985TIP3    H1 5919   1.782   3.524   1.512 -1.1493 -1.1223  0.1556
 1985TIP3    H2 5920   1.846   3.415   1.596 -0.4283 -0.4547  0.4827
 1986TIP3   OH2 5921   3.898   4.671   5.785  0.1833 -0.2107 -0.3800
 1986TIP3    H1 5922   3.810   4.662   5.746 -0.5611 -0.1800  1.2056
 1986TIP3    H2 5923   3.894   4.618   5.865  1.2025  0.7771  0.3558
 1987TIP3   OH2 5924   6.336   3.655   4.543  0.0240  0.4605 -0.3269
 1987TIP3    H1 5925   6.362   3.623   4.456 -0.8955  0.4229 -0.5937
 1987TIP3    H2 5926   6.348   3.579   4.600  1.1913  0.6451 -0.2902
 1988TIP3   OH2 5927   1.796   3.230   3.154  0.1796 -0.3240  0.0147
 1988TIP3    H1 5928   1.833   3.256   3.238  0.1270  0.6878 -0.2627
 1988TIP3    H2 5929   1.854   3.268   3.089  0.8485 -2.0181 -0.4361
 1989TIP3   OH2 5930   4.581   4.113   3.492  0.3093  0.1503  0.3889
 1989TIP3    H1 5931   4.511   4.170   3.461  0.2009 -0.6457 -0.9121
 1989TIP3    H2 5932   4.536   4.034   3.523  0.6356 -1.0679 -1.9932
 1990TIP3   OH2 5933   6.279   0.088   2.626  0.0551 -0.1536  0.0556
 1990TIP3    H1 5934   6.198   0.047   2.599 -0.2071  0.4436 -0.0709
 1990TIP3    H2 5935   6.317   0.123   2.546 -0.3659  0.9785  0.3264
 1991TIP3   OH2 5936   0.736   3.227   3.919 -0.3672 -0.1015 -0.3088
 1991TIP3    H1 5937   0.793   3.251   3.846 -1.2743  0.7880 -0.7459
 1991TIP3    H2 5938   0.790   3.169   3.973  0.9626  0.7261 -0.6838
 1992TIP3   OH2 5939   3.462   2.311   0.429  0.2885 -0.1338 -0.1450
 1992TIP3    H1 5940   3.475   2.277   0.518  1.4771  0.8828  0.0937
 1992TIP3    H2 5941   3.368   2.309   0.417  0.1159 -0.4744  1.0676
 1993TIP3   OH2 5942   0.453   5.388   3.998  0.2980  0.5172  0.5183
 1993TIP3    H1 5943   0.373   5.435   4.021 -1.1558 -1.3488 -0.4360
 1993TIP3    H2 5944   0.434   5.347   3.914  2.0266 -0.5322  0.5775
 1994TIP3   OH2 5945   0.697   4.326   4.359  0.2122 -0.1165  0.4727
 1994TIP3    H1 5946   0.608   4.311   4.325 -0.4364  2.1711  0.9466
 1994TIP3    H2 5947   0.755   4.289   4.292 -1.0906  0.1216 -0.8419
 1995TIP3   OH2 5948   0.759   1.147   2.033 -0.5144 -0.0207 -0.2895
 1995TIP3    H1 5949   0.767   1.165   1.939 -0.6825 -0.4114 -0.3783
 1995TIP3    H2 5950   0.826   1.202   2.074 -0.3751  0.0745 -0.6444
 1996TIP3   OH2 5951   6.406   2.596   4.981 -0.1461 -0.0640 -0.3247
 1996TIP3    H1 5952   6.325   2.552   4.953  0.4569 -0.0564 -2.2104
 1996TIP3    H2 5953   6.476   2.538   4.951  0.6257  1.4432 -1.5758
 1997TIP3   OH2 5954   4.554   4.193   1.286 -1.0445 -0.3928  0.3724
 1997TIP3    H1 5955   4.474   4.242   1.266  0.0834  0.8261 -1.4756
 1997TIP3    H2 5956   4.585   4.162   1.200 -0.0281 -1.6430  1.1563
 1998TIP3   OH2 5957   2.160   3.113   3.581 -0.0756 -0.2958 -0.1307
 1998TIP3    H1 5958   2.247   3.155   3.580 -0.4250  0.5007  1.0087
 1998TIP3    H2 5959   2.130   3.120   3.491 -0.2148  2.1847  0.0457
 1999TIP3   OH2 5960   3.649   4.824   5.312  0.4713  0.2613 -0.1052
 1999TIP3    H1 5961   3.557   4.827   5.336  0.3612  0.6823 -0.5601
 1999TIP3    H2 5962   3.649   4.808   5.217  0.8066  2.4615 -0.5304
 2000TIP3   OH2 5963   5.091   1.714   1.892 -0.0670  0.6818  0.0752
 2000TIP3    H1 5964   5.170   1.666   1.864  0.5687  0.7332  1.6649
 2000TIP3    H2 5965   5.106   1.803   1.862 -0.1520  0.4013 -0.8211
 2001TIP3   OH2 5966   0.215   6.149   4.725 -0.1644 -0.0639 -0.5059
 2001TIP3    H1 5967   0.310   6.138   4.722 -0.1041  0.1563  0.3389
 2001TIP3    H2 5968   0.182   6.096   4.652  0.5682 -0.5365 -0.5018
 2002TIP3   OH2 5969   2.045   3.443   0.174  0.0503  0.4057 -0.7038
 2002TIP3    H1 5970   2.064   3.512   0.111  1.0199  1.8149  1.0121
 2002TIP3    H2 5971   1.965   3.471   0.218 -0.5809 -0.5235 -1.2310
 2003TIP3   OH2 5972   3.243   5.943   3.547 -1.1111  0.8633 -0.3240
 2003TIP3    H1 5973   3.184   6.007   3.508 -2.0691  0.4255  0.3580
 2003TIP3    H2 5974   3.213   5.859   3.513  0.9037  0.8010 -2.2003
 2004TIP3   OH2 5975   2.590   3.983   5.008 -0.3576  0.0665  0.2763
 2004TIP3    H1 5976   2.567   3.900   4.966 -0.7698 -0.0382  0.6895
 2004TIP3    H2 5977   2.566   4.050   4.944 -2.3022 -0.0079  0.8462
 2005TIP3   OH2 5978   4.625   5.039   4.142 -0.1445 -0.1492 -0.7546
 2005TIP3    H1 5979   4.557   5.007   4.084 -0.7310  0.5615 -0.4727
 2005TIP3    H2 5980   4.682   4.963   4.157 -0.9577 -0.7901 -0.8566
 2006TIP3   OH2 5981   1.841   0.401   3.920 -0.7963 -0.1355  0.1704
 2006TIP3    H1 5982   1.925   0.368   3.952 -0.3909  1.2307  0.5912
 2006TIP3    H2 5983   1.855   0.495   3.907 -2.5890  0.3697  1.4073
 2007TIP3   OH2 5984   1.836   6.718   0.545 -0.0368  0.1961  0.1793
 2007TIP3    H1 5985   1.838   6.807   0.511  1.3338 -0.3147 -1.2029
 2007TIP3    H2 5986   1.905   6.672   0.496 -0.2491 -1.4462  1.3404
 2008TIP3   OH2 5987   6.080   3.265   1.773 -0.1147 -0.0555  0.0768
 2008TIP3    H1 5988   6.169   3.233   1.782  0.0844  0.5461  0.3020
 2008TIP3    H2 5989   6.026   3.196   1.812  0.4455  0.6751  2.3259
 2009TIP3   OH2 5990   4.196   4.348   2.680 -0.3848 -0.0294  0.8107
 2009TIP3    H1 5991   4.133   4.280   2.659  0.4106 -0.8444  0.9972
 2009TIP3    H2 5992   4.143   4.422   2.710 -1.3286 -0.1572 -0.4379
 2010TIP3   OH2 5993   2.804   5.584   3.281  0.1787 -0.3751  0.4187
 2010TIP3    H1 5994   2.878   5.578   3.221  1.9019  0.1225  2.3803
 2010TIP3    H2 5995   2.756   5.662   3.254  0.6205 -0.4488 -0.6024
 2011TIP3   OH2 5996   0.718   5.595   5.683 -0.1064 -0.5447  0.7458
 2011TIP3    H1 5997   0.624   5.593   5.696 -0.3822  0.7129 -0.7209
 2011TIP3    H2 5998   0.746   5.679   5.721 -0.0551  0.4311 -1.3359
 2012TIP3   OH2 5999   0.156   4.315   1.000 -0.0903  0.1748  0.3581
 2012TIP3    H1 6000   0.222   4.254   1.032  0.3818  0.2556 -0.4537
 2012TIP3    H2 6001   0.086   4.259   0.966 -0.7878  0.0819  1.8628
 2013TIP3   OH2 6002   5.954   3.302   0.935 -0.0815  0.7739  0.1651
 2013TIP3    H1 6003   6.001   3.361   0.994 -0.8098  2.8709 -1.2401
 2013TIP3    H2 6004   5.874   3.280   0.982  0.2609  0.7900  0.7627
 2014TIP3   OH2 6005   2.463   3.165   0.066 -0.3899  0.5218 -0.0235
 2014TIP3    H1 6006   2.405   3.092   0.089 -2.0048  1.2845 -1.4760
 2014TIP3    H2 6007   2.545   3.145   0.111 -2.0969  0.0194  3.1453
 2015TIP3   OH2 6008   5.593   5.855   5.605 -0.0607  0.3602  0.2126
 2015TIP3    H1 6009   5.565   5.907   5.529  1.4070  0.1082 -0.5402
 2015TIP3    H2 6010   5.674   5.813   5.576  0.0681 -0.4243  1.6449
 2016TIP3   OH2 6011   0.406   5.854   0.069  0.4971 -0.2788 -0.1542
 2016TIP3    H1 6012   0.347   5.893   0.133  0.5751 -1.0173  0.3895
 2016TIP3    H2 6013   0.351   5.838  -0.007  0.8616  2.5842 -1.1427
 2017TIP3   OH2 6014   3.000   2.617   0.749 -0.2379  0.1259 -0.0887
 2017TIP3    H1 6015   3.065   2.572   0.802 -0.7215  0.5073  0.8383
 2017TIP3    H2 6016   2.934   2.551   0.729  0.0297 -0.0602 -0.3739
 2018TIP3   OH2 6017   5.981   6.345   3.149 -0.4315  0.1705  0.3171
 2018TIP3    H1 6018   5.972   6.317   3.240 -0.5843 -0.3188  0.1533
 2018TIP3    H2 6019   6.008   6.437   3.155  0.0376  0.0064  0.8649
 2019TIP3   OH2 6020   1.200   3.671   0.841  0.2981  0.2185  0.0556
 2019TIP3    H1 6021   1.170   3.760   0.858 -0.9149 -0.2465  0.4045
 2019TIP3    H2 6022   1.192   3.662   0.746  0.6060  0.5369 -0.0047
 2020TIP3   OH2 6023   1.548   3.906   0.767 -0.7767  0.3122 -0.0491
 2020TIP3    H1 6024   1.511   3.829   0.723 -1.1930  0.8874 -0.7127
 2020TIP3    H2 6025   1.611   3.942   0.705  0.9668 -0.6494  1.0601
 2021TIP3   OH2 6026   5.101   5.267   0.202 -0.1402  0.4947  0.2242
 2021TIP3    H1 6027   5.066   5.265   0.114 -1.2630  2.4117  0.5869
 2021TIP3    H2 6028   5.147   5.183   0.211 -1.5820 -0.5488 -1.5011
 2022TIP3   OH2 6029   5.909   2.910   4.779  0.6028  0.1867 -0.0892
 2022TIP3    H1 6030   5.925   2.995   4.820  0.3848  0.2108 -0.0512
 2022TIP3    H2 6031   5.880   2.854   4.852  0.0976  0.2625 -0.2292
 2023TIP3   OH2 6032   3.875   3.499   3.702  0.7517  0.4190  0.7067
 2023TIP3    H1 6033   3.832   3.545   3.774 -0.0181  0.3135  0.3284
 2023TIP3    H2 6034   3.904   3.569   3.643 -2.0496  0.4728 -0.8017
 2024TIP3   OH2 6035   5.691   1.052   0.057 -0.3189  0.1822 -0.0437
 2024TIP3    H1 6036   5.656   0.995   0.126  1.7691  0.4401  1.2963
 2024TIP3    H2 6037   5.651   1.137   0.075 -0.7254 -0.0312  0.0953
 2025TIP3   OH2 6038   1.437   3.141   1.684  0.5968  0.0620 -0.0279
 2025TIP3    H1 6039   1.522   3.185   1.693  0.6368  0.0800 -0.4818
 2025TIP3    H2 6040   1.458   3.048   1.690  0.6511  0.0654 -0.1694
 2026TIP3   OH2 6041   1.443   5.602   5.106  0.3077 -0.4258 -0.1679
 2026TIP3    H1 6042   1.408   5.524   5.063  1.0197 -0.0704 -1.4273
 2026TIP3    H2 6043   1.534   5.607   5.078  1.1996 -0.8475  2.3754
 2027TIP3   OH2 6044   1.506   0.100   5.486 -0.0705 -0.2180 -0.1270
 2027TIP3    H1 6045   1.483   0.188   5.513 -0.0733 -0.4799  0.7680
 2027TIP3    H2 6046   1.565   0.068   5.555  0.7539 -0.5500 -0.9599
 2028TIP3   OH2 6047   4.226   3.036   2.698 -0.1126  0.0020 -0.8020
 2028TIP3    H1 6048   4.289   2.965   2.711  0.6092  0.8830  0.7760
 2028TIP3    H2 6049   4.275   3.115   2.720 -1.3071  0.8726 -1.1981
 2029TIP3   OH2 6050   6.904   3.130   2.216 -0.0682  0.3889 -0.3817
 2029TIP3    H1 6051   6.828   3.157   2.267 -0.8663 -0.4359 -1.0896
 2029TIP3    H2 6052   6.872   3.056   2.163  1.4228 -0.4430 -0.1625
 2030TIP3   OH2 6053   5.882   1.736   4.146 -0.5302 -0.2667  0.5482
 2030TIP3    H1 6054   5.887   1.712   4.238  0.9939  2.3652  1.2609
 2030TIP3    H2 6055   5.808   1.797   4.140  0.3288  0.8105  0.4242
 2031TIP3   OH2 6056   2.597   5.306   1.965 -0.3564 -0.2495  0.1096
 2031TIP3    H1 6057   2.595   5.398   1.939  1.6735 -0.4363 -0.8453
 2031TIP3    H2 6058   2.656   5.265   1.903 -0.3687 -2.0027  1.2055
 2032TIP3   OH2 6059   5.775   1.848   0.678 -0.2479  0.1036 -0.4283
 2032TIP3    H1 6060   5.713   1.807   0.740  1.2724 -2.2305 -0.3377
 2032TIP3    H2 6061   5.832   1.901   0.733  1.5779 -2.5616  0.4077
 2033TIP3   OH2 6062   5.409   3.597   1.824  0.0086 -0.1112  0.3623
 2033TIP3    H1 6063   5.470   3.556   1.763 -1.8325 -0.2613 -1.4959
 2033TIP3    H2 6064   5.418   3.546   1.905  1.6010 -0.7208 -0.1564
 2034TIP3   OH2 6065   5.648   6.095   4.195  0.5328 -0.1373  0.0169
 2034TIP3    H1 6066   5.710   6.054   4.255 -0.7670 -1.4168  0.5470
 2034TIP3    H2 6067   5.683   6.077   4.108 -0.1729 -2.8295  0.2049
 2035TIP3   OH2 6068   5.927   5.132   5.731 -0.7394 -0.7108 -0.4273
 2035TIP3    H1 6069   5.843   5.178   5.735 -0.1325  0.4496 -0.5034
 2035TIP3    H2 6070   5.925   5.086   5.647 -1.4274 -0.9545 -0.2832
 2036TIP3   OH2 6071   0.270   5.267   3.405  0.6039 -0.5956 -0.2577
 2036TIP3    H1 6072   0.259   5.209   3.330  2.4614 -0.7784 -0.4248
 2036TIP3    H2 6073   0.292   5.208   3.477 -0.6025 -0.3644  0.3248
 2037TIP3   OH2 6074   4.251   3.515   2.169 -0.2304  0.4860 -0.6457
 2037TIP3    H1 6075   4.177   3.499   2.110 -0.4153  0.0034 -0.2955
 2037TIP3    H2 6076   4.231   3.600   2.209 -1.0085  0.0049  0.0296
 2038TIP3   OH2 6077   2.395   0.686   2.810  0.0735  0.7504  0.3920
 2038TIP3    H1 6078   2.475   0.652   2.850 -0.8754 -0.9711  0.9296
 2038TIP3    H2 6079   2.346   0.723   2.884 -0.5387 -0.0878  0.4119
 2039TIP3   OH2 6080   4.818   3.606   5.658 -0.5620 -0.1412  0.2101
 2039TIP3    H1 6081   4.797   3.512   5.663 -2.6864  0.3396  1.5562
 2039TIP3    H2 6082   4.827   3.633   5.749  1.7918  0.6840 -0.1898
 2040TIP3   OH2 6083   5.525   4.453   4.821  0.1040  0.3045  0.1986
 2040TIP3    H1 6084   5.485   4.529   4.863  0.6707  0.8484 -0.2369
 2040TIP3    H2 6085   5.530   4.387   4.891 -1.3327  0.2939  0.3136
 2041TIP3   OH2 6086   2.596   6.230   5.644  0.0560  0.0311  0.8693
 2041TIP3    H1 6087   2.671   6.174   5.623 -1.4570 -2.2354  1.1211
 2041TIP3    H2 6088   2.544   6.231   5.564 -0.9892 -0.7413  1.5060
 2042TIP3   OH2 6089   1.954   1.933   1.589  0.1748 -1.0320 -0.7890
 2042TIP3    H1 6090   1.927   1.898   1.674 -0.0984 -1.0113 -0.8657
 2042TIP3    H2 6091   1.890   2.002   1.570  0.5436 -0.6826 -0.7674
 2043TIP3   OH2 6092   3.829   3.794   4.773 -0.7897 -0.1465  0.1787
 2043TIP3    H1 6093   3.881   3.797   4.693 -0.8273 -0.7503  0.1289
 2043TIP3    H2 6094   3.809   3.886   4.793 -0.5212  0.0209 -0.3334
 2044TIP3   OH2 6095   4.605   4.397   0.955  0.1395  0.3422 -0.6030
 2044TIP3    H1 6096   4.685   4.451   0.955  0.5657 -0.2125  1.1398
 2044TIP3    H2 6097   4.553   4.432   1.027  0.8415 -2.0712  1.1907
 2045TIP3   OH2 6098   0.563   1.366   2.525 -0.2588 -0.3711 -0.1553
 2045TIP3    H1 6099   0.647   1.394   2.490  0.0339 -1.5405 -0.4363
 2045TIP3    H2 6100   0.515   1.447   2.540  1.3349  0.3935  1.1007
 2046TIP3   OH2 6101   4.228   1.129   4.920  0.1077  0.1460  0.0022
 2046TIP3    H1 6102   4.198   1.220   4.918 -1.4212 -0.2847  1.1617
 2046TIP3    H2 6103   4.210   1.101   5.010 -0.2610 -1.5534 -0.5764
 2047TIP3   OH2 6104   0.357   0.257   0.660  0.0924  0.0449  0.1334
 2047TIP3    H1 6105   0.328   0.317   0.728  0.6042  0.1794  0.2334
 2047TIP3    H2 6106   0.332   0.300   0.578  0.8078  0.5859  0.1902
 2048TIP3   OH2 6107   4.151   3.447   3.484  0.4110  0.5912 -0.0418
 2048TIP3    H1 6108   4.097   3.515   3.445  1.7837  1.9791  0.3524
 2048TIP3    H2 6109   4.107   3.365   3.463 -2.0121  1.6489  0.5867
 2049TIP3   OH2 6110   6.231   2.006   0.207 -0.3212  0.0208 -0.0467
 2049TIP3    H1 6111   6.276   2.016   0.122 -1.9390  0.5915 -0.8711
 2049TIP3    H2 6112   6.270   2.074   0.262 -0.6395  0.9871 -0.9664
 2050TIP3   OH2 6113   6.365   5.873   5.761 -0.0688  0.2283 -0.1953
 2050TIP3    H1 6114   6.451   5.886   5.722 -0.0330  0.6898  0.0314
 2050TIP3    H2 6115   6.328   5.961   5.768  0.3724  0.2908  1.8196
 2051TIP3   OH2 6116   4.776   2.939   4.842 -0.6252  0.4849 -0.0657
 2051TIP3    H1 6117   4.848   2.996   4.815 -0.7058  0.4944 -0.2620
 2051TIP3    H2 6118   4.782   2.936   4.938  0.2011 -0.2490 -0.1259
 2052TIP3   OH2 6119   4.802   1.988   1.729  0.8809  0.1601  1.1574
 2052TIP3    H1 6120   4.803   1.899   1.765  2.9570 -1.7942 -2.9900
 2052TIP3    H2 6121   4.894   2.007   1.711  0.1550  1.0572 -2.3143
 2053TIP3   OH2 6122   1.491   5.024   3.999 -0.4523  0.4754  0.0605
 2053TIP3    H1 6123   1.474   5.035   4.092  0.8499  1.9274  0.1578
 2053TIP3    H2 6124   1.419   5.072   3.956 -0.3511  0.8999  0.3538
 2054TIP3   OH2 6125   2.031   5.383   0.367 -0.2156 -0.1401  0.2885
 2054TIP3    H1 6126   2.073   5.325   0.430 -0.7336  1.9025  2.6905
 2054TIP3    H2 6127   1.953   5.415   0.412  0.1551  2.5503 -0.7801
 2055TIP3   OH2 6128   6.884   4.458   2.265 -0.0903  0.6914  0.2625
 2055TIP3    H1 6129   6.852   4.449   2.355 -0.5921 -0.5694 -0.0228
 2055TIP3    H2 6130   6.923   4.546   2.262 -0.4283  0.9070  1.5896
 2056TIP3   OH2 6131   6.284   4.105   4.754 -0.8234 -0.4321  0.3234
 2056TIP3    H1 6132   6.311   4.080   4.842  0.7974  0.0500 -0.0061
 2056TIP3    H2 6133   6.190   4.089   4.752 -0.8828 -0.4657  2.1304
 2057TIP3   OH2 6134   2.446   5.641   1.569 -0.3809  0.1398 -0.2069
 2057TIP3    H1 6135   2.530   5.624   1.526 -0.3772  0.4908 -0.3355
 2057TIP3    H2 6136   2.462   5.620   1.661 -0.0698  0.4951 -0.1816
 2058TIP3   OH2 6137   0.994   5.142   4.496  0.3007 -0.0936  0.2797
 2058TIP3    H1 6138   1.026   5.113   4.411 -0.5417  1.4035 -0.5892
 2058TIP3    H2 6139   1.030   5.079   4.558  0.3394 -1.6533 -1.2521
 2059TIP3   OH2 6140   3.599   1.601   1.144 -0.3034 -0.1442  0.2761
 2059TIP3    H1 6141   3.504   1.601   1.137 -0.4308  0.0878  1.7070
 2059TIP3    H2 6142   3.630   1.579   1.056 -1.6466  1.2801 -0.6136
 2060TIP3   OH2 6143   5.023   6.407   4.780  0.1891  0.2132 -0.3270
 2060TIP3    H1 6144   5.022   6.426   4.873 -1.4447  0.5603 -0.3925
 2060TIP3    H2 6145   5.013   6.493   4.738  0.3417 -0.0023 -0.8156
 2061TIP3   OH2 6146   5.120   3.220   0.305  0.0400  0.1336  0.2085
 2061TIP3    H1 6147   5.029   3.243   0.284  0.2641  0.2330 -0.7070
 2061TIP3    H2 6148   5.171   3.253   0.231  0.3686 -3.3617 -1.3703
 2062TIP3   OH2 6149   2.587   1.757   2.016  0.0169  0.5247  0.4890
 2062TIP3    H1 6150   2.517   1.727   2.073 -0.0284  0.3423  0.3421
 2062TIP3    H2 6151   2.624   1.676   1.980  0.4154  0.6107  0.7021
 2063TIP3   OH2 6152   4.402   3.538   5.465  0.1694  0.1000 -0.1250
 2063TIP3    H1 6153   4.431   3.512   5.378 -1.3641  0.8882 -0.9289
 2063TIP3    H2 6154   4.457   3.614   5.487 -1.3849  1.8238 -1.7830
 2064TIP3   OH2 6155   1.813   5.173   4.695 -0.2591  0.2820  0.4758
 2064TIP3    H1 6156   1.860   5.141   4.772 -0.6663  0.0853  0.6442
 2064TIP3    H2 6157   1.849   5.121   4.622 -0.0251  0.3214  0.5610
 2065TIP3   OH2 6158   3.876   5.641   2.503  0.1934  0.3188  0.1533
 2065TIP3    H1 6159   3.851   5.574   2.440 -1.0602 -0.4482  1.4283
 2065TIP3    H2 6160   3.814   5.712   2.489  1.0039  0.9004 -0.6290
 2066TIP3   OH2 6161   0.518   2.419   5.805  0.6612 -0.1805 -0.6594
 2066TIP3    H1 6162   0.529   2.477   5.729  1.5251 -1.0941 -1.2669
 2066TIP3    H2 6163   0.465   2.470   5.867  0.2862  0.7406 -1.7028
 2067TIP3   OH2 6164   6.478   5.231   0.331 -0.1821 -0.0122  0.3230
 2067TIP3    H1 6165   6.547   5.214   0.395  0.1700 -0.0056 -0.0572
 2067TIP3    H2 6166   6.468   5.326   0.332 -0.4842 -0.0445  0.6884
 2068TIP3   OH2 6167   0.818   1.072   2.404  0.0351 -0.2331  0.3900
 2068TIP3    H1 6168   0.743   1.067   2.345  0.6862 -0.5507 -0.4447
 2068TIP3    H2 6169   0.846   0.981   2.415 -0.6984 -0.2968  2.0573
 2069TIP3   OH2 6170   7.082   2.026   2.464 -0.1324 -0.5398  0.0450
 2069TIP3    H1 6171   7.156   2.078   2.433  0.5845 -0.2192  2.0804
 2069TIP3    H2 6172   7.032   2.006   2.386  0.8069  1.2849 -1.1027
 2070TIP3   OH2 6173   4.989   5.013   5.582 -0.0919 -0.1294  0.5102
 2070TIP3    H1 6174   4.903   4.982   5.610  0.5646 -1.7590  0.8211
 2070TIP3    H2 6175   5.051   4.950   5.618  1.1806  0.5093 -0.4467
 2071TIP3   OH2 6176   2.273   0.414   4.876 -0.0024  0.2041 -0.0985
 2071TIP3    H1 6177   2.189   0.446   4.910  0.9659  1.5851  1.1187
 2071TIP3    H2 6178   2.252   0.330   4.836 -2.2679  1.2138 -1.2747
 2072TIP3   OH2 6179   2.607   2.979   5.412 -0.2376 -0.1897 -0.2695
 2072TIP3    H1 6180   2.618   2.907   5.474  0.6654 -0.0463 -0.2523
 2072TIP3    H2 6181   2.636   2.943   5.328  3.5202  1.0441  0.2930
 2073TIP3   OH2 6182   2.955   5.813   5.733  0.1469 -1.0826  0.2858
 2073TIP3    H1 6183   3.049   5.815   5.718  0.3390 -0.6118  1.5162
 2073TIP3    H2 6184   2.934   5.898   5.771 -1.1844 -0.1998 -2.1568
 2074TIP3   OH2 6185   4.372   3.104   3.311  0.3212 -0.1835 -0.0600
 2074TIP3    H1 6186   4.450   3.060   3.344 -0.5642 -2.1507 -0.4418
 2074TIP3    H2 6187   4.376   3.091   3.216  0.5538  1.5135 -0.3115
 2075TIP3   OH2 6188   7.114   4.637   2.146  0.1905 -0.4347  0.0642
 2075TIP3    H1 6189   7.044   4.673   2.092 -1.3329 -2.1454  0.8146
 2075TIP3    H2 6190   7.125   4.702   2.216 -0.0233  0.2566 -0.5286
 2076TIP3   OH2 6191   2.725   2.183   5.849 -0.9962 -0.0221  0.0878
 2076TIP3    H1 6192   2.733   2.169   5.755  0.7360 -0.6522  0.2874
 2076TIP3    H2 6193   2.647   2.135   5.874 -2.2833  1.2996 -1.2184
 2077TIP3   OH2 6194   4.805   3.572   3.193 -0.1783  0.4684 -0.5001
 2077TIP3    H1 6195   4.741   3.620   3.142  0.3600  1.5900 -0.1384
 2077TIP3    H2 6196   4.775   3.578   3.283 -0.5844 -0.6528 -0.5420
 2078TIP3   OH2 6197   3.224   6.509   2.532 -0.0448  0.0436 -0.1883
 2078TIP3    H1 6198   3.169   6.432   2.543  0.3940 -0.0452  1.8278
 2078TIP3    H2 6199   3.307   6.486   2.573  0.1689  1.5068  0.2783
 2079TIP3   OH2 6200   6.523   5.860   1.327 -0.2928 -0.2542 -0.0387
 2079TIP3    H1 6201   6.431   5.843   1.344 -0.6531 -0.1961 -1.7109
 2079TIP3    H2 6202   6.570   5.800   1.384 -1.3514 -0.3492  0.7709
 2080TIP3   OH2 6203   0.934   0.712   4.910  0.3987 -0.1388 -0.0058
 2080TIP3    H1 6204   0.891   0.655   4.846  1.0129  0.1410 -0.6940
 2080TIP3    H2 6205   0.927   0.800   4.872  2.5088 -0.2170 -0.7048
 2081TIP3   OH2 6206   7.014   2.393   0.682  0.1018 -0.0331  0.7176
 2081TIP3    H1 6207   7.088   2.454   0.678 -0.4248  0.7094  1.7950
 2081TIP3    H2 6208   6.988   2.381   0.591 -0.0397  1.6886  0.4875
 2082TIP3   OH2 6209   0.906   2.367   0.506  0.0913 -0.4947  0.7682
 2082TIP3    H1 6210   0.848   2.430   0.549 -1.0925 -0.9966 -0.0495
 2082TIP3    H2 6211   0.977   2.353   0.569 -0.0663  0.9999  1.3132
 2083TIP3   OH2 6212   0.179   4.499   0.110  0.0980 -0.3002 -0.7562
 2083TIP3    H1 6213   0.208   4.586   0.139 -1.5738  0.2600 -0.6494
 2083TIP3    H2 6214   0.252   4.466   0.058  1.4104  0.5088  0.4669
 2084TIP3   OH2 6215   6.051   3.412   4.152 -0.0044  0.0841 -0.0526
 2084TIP3    H1 6216   6.053   3.321   4.123 -1.1410 -0.6078  1.9003
 2084TIP3    H2 6217   5.999   3.457   4.086 -0.9804 -1.0619 -0.0954
 2085TIP3   OH2 6218   4.252   0.621   5.266 -0.2418  0.0014 -0.4529
 2085TIP3    H1 6219   4.215   0.535   5.246 -1.2896  0.2440  0.3884
 2085TIP3    H2 6220   4.233   0.674   5.188 -0.2505 -0.3127 -0.6679
 2086TIP3   OH2 6221   2.504   5.462   4.480 -0.2113  0.2188  0.3535
 2086TIP3    H1 6222   2.504   5.536   4.420  2.0785 -1.5936 -2.1484
 2086TIP3    H2 6223   2.424   5.414   4.461  0.7701 -0.6654 -1.8718
 2087TIP3   OH2 6224   1.665   5.252   2.559 -0.4765  0.1018  0.3151
 2087TIP3    H1 6225   1.594   5.256   2.622  0.2690  0.9769  1.1271
 2087TIP3    H2 6226   1.740   5.220   2.610 -0.7432 -3.0146 -0.9873
 2088TIP3   OH2 6227   2.668   4.227   3.187  0.4528  0.0711 -0.1940
 2088TIP3    H1 6228   2.642   4.170   3.259 -0.2045 -0.2343 -0.6603
 2088TIP3    H2 6229   2.752   4.193   3.158 -0.0147 -0.7900 -0.5828
 2089TIP3   OH2 6230   1.627   4.335   5.300  0.6674 -0.3495 -0.3851
 2089TIP3    H1 6231   1.673   4.283   5.234  0.9955  0.8515 -1.1273
 2089TIP3    H2 6232   1.583   4.404   5.250 -2.6100 -1.8460  0.1915
 2090TIP3   OH2 6233   7.216   1.073   5.806 -0.0203  0.1680 -0.3976
 2090TIP3    H1 6234   7.224   1.106   5.717 -0.5717 -1.0122 -0.8962
 2090TIP3    H2 6235   7.137   1.115   5.840  0.2338  0.6780 -0.4211
 2091TIP3   OH2 6236   1.773   4.594   5.216 -0.0812 -0.4085 -0.3666
 2091TIP3    H1 6237   1.776   4.532   5.142 -1.0470 -1.8550  0.7537
 2091TIP3    H2 6238   1.864   4.620   5.229  0.0692  0.1756 -2.2864
 2092TIP3   OH2 6239   2.691   5.257   2.255  0.3985 -0.0447  0.3945
 2092TIP3    H1 6240   2.713   5.177   2.206 -0.4936  0.9548 -1.8012
 2092TIP3    H2 6241   2.666   5.319   2.187  1.0377  2.1203  2.0469
 2093TIP3   OH2 6242   6.727   0.275   0.322 -0.1896  0.4920 -0.0397
 2093TIP3    H1 6243   6.710   0.182   0.337 -0.1312  0.3356 -0.9208
 2093TIP3    H2 6244   6.819   0.286   0.349 -0.5882  0.5948  1.3505
 2094TIP3   OH2 6245   6.202   3.064   0.593 -0.0213 -0.8487  0.2586
 2094TIP3    H1 6246   6.162   3.148   0.573 -0.8019 -1.3414 -0.3260
 2094TIP3    H2 6247   6.296   3.081   0.593  0.0473 -0.5531 -2.9178
 2095TIP3   OH2 6248   5.959   5.857   2.244 -0.4720  0.1461  0.9964
 2095TIP3    H1 6249   5.951   5.921   2.315 -0.6340  0.2333  0.9006
 2095TIP3    H2 6250   5.956   5.772   2.288  1.6847  0.1912  1.3420
 2096TIP3   OH2 6251   6.205   2.974   1.437  0.3951 -0.0596 -0.2495
 2096TIP3    H1 6252   6.244   3.062   1.431 -0.6145  0.4808  0.7846
 2096TIP3    H2 6253   6.221   2.935   1.351  0.3211  1.3761 -0.9408
 2097TIP3   OH2 6254   0.637   2.627   1.756  0.0817  0.0568 -0.0040
 2097TIP3    H1 6255   0.672   2.608   1.844  1.2439  0.0777 -0.4436
 2097TIP3    H2 6256   0.664   2.717   1.739 -0.6161  0.2405 -0.1721
 2098TIP3   OH2 6257   6.572   1.068   1.571 -0.0086 -0.5309 -0.1401
 2098TIP3    H1 6258   6.607   0.979   1.569 -0.2332 -0.6144 -0.5232
 2098TIP3    H2 6259   6.629   1.117   1.512 -1.3080 -0.9705 -1.8604
 2099TIP3   OH2 6260   3.211   0.210   4.389 -0.7752 -0.1266  0.1582
 2099TIP3    H1 6261   3.288   0.242   4.342 -0.5750 -0.7959  0.0172
 2099TIP3    H2 6262   3.167   0.154   4.326 -0.4192 -1.1700  0.8174
 2100TIP3   OH2 6263   7.203   4.746   1.687  0.2647 -0.3386 -0.0563
 2100TIP3    H1 6264   7.113   4.771   1.665  0.2646 -0.3802 -0.1047
 2100TIP3    H2 6265   7.224   4.676   1.624  0.2274 -0.5335  0.1444
 2101TIP3   OH2 6266   1.777   3.742   4.503  0.1889 -0.5120  0.1705
 2101TIP3    H1 6267   1.789   3.754   4.598  1.5490 -0.9993  0.0780
 2101TIP3    H2 6268   1.701   3.686   4.495 -0.3903  0.1349  0.9445
 2102TIP3   OH2 6269   6.571   3.153   4.189 -0.6140  0.0609  0.9722
 2102TIP3    H1 6270   6.567   3.198   4.274  0.9384  1.5962  0.3046
 2102TIP3    H2 6271   6.664   3.134   4.178 -0.1754  2.9928 -1.8475
 2103TIP3   OH2 6272   2.789   6.569   4.314 -0.2603 -0.4528  0.4064
 2103TIP3    H1 6273   2.776   6.657   4.279 -1.9792 -1.3462 -1.4249
 2103TIP3    H2 6274   2.758   6.574   4.405 -0.7856  0.7155  0.1822
 2104TIP3   OH2 6275   0.154   5.375   0.409 -0.9821  0.1011  0.1524
 2104TIP3    H1 6276   0.217   5.379   0.337 -1.4219 -0.4069 -0.2684
 2104TIP3    H2 6277   0.199   5.416   0.482 -0.9715  1.7102 -0.7181
 2105TIP3   OH2 6278   5.191   2.195   3.556  0.3212  0.4353 -0.1289
 2105TIP3    H1 6279   5.197   2.209   3.461 -0.1107  0.2698 -0.1794
 2105TIP3    H2 6280   5.282   2.204   3.586  0.8447 -1.7511 -0.8705
 2106TIP3   OH2 6281   1.961   1.145   1.775  0.9935  0.0001 -0.3328
 2106TIP3    H1 6282   1.870   1.119   1.790  1.0450 -0.3401 -0.6033
 2106TIP3    H2 6283   2.011   1.099   1.843  0.8509  0.9912  0.4697
 2107TIP3   OH2 6284   0.370   3.985   2.250  0.0496  0.1718 -0.1851
 2107TIP3    H1 6285   0.275   3.978   2.246 -0.1056  0.5514  1.8217
 2107TIP3    H2 6286   0.401   3.902   2.214 -1.0944 -0.5131  0.3407
 2108TIP3   OH2 6287   5.374   1.048   1.067 -0.0575  0.1602 -0.6946
 2108TIP3    H1 6288   5.402   1.108   0.999 -1.6519 -0.1901 -1.7112
 2108TIP3    H2 6289   5.279   1.059   1.071 -0.0587 -0.2360  1.0957
 2109TIP3   OH2 6290   2.569   0.178   0.692  0.3455 -0.5880 -0.3364
 2109TIP3    H1 6291   2.527   0.264   0.701 -0.4576 -0.9202 -0.7839
 2109TIP3    H2 6292   2.663   0.196   0.702  0.2966  0.5282 -1.5822
 2110TIP3   OH2 6293   6.913   6.279   0.317  0.6003 -0.1030  0.3224
 2110TIP3    H1 6294   7.004   6.295   0.342  0.2553  1.3097  0.7442
 2110TIP3    H2 6295   6.862   6.339   0.371 -0.3560  1.3329 -2.0106
 2111TIP3   OH2 6296   1.693   3.737   2.210  0.1166  0.6424 -0.1938
 2111TIP3    H1 6297   1.624   3.732   2.144  0.4752  0.9304 -0.6011
 2111TIP3    H2 6298   1.746   3.812   2.183 -0.3870  1.4788  1.0699
 2112TIP3   OH2 6299   3.962   5.607   0.404 -0.0848  0.0662  0.3991
 2112TIP3    H1 6300   3.906   5.588   0.328 -0.9352  2.1972  0.4133
 2112TIP3    H2 6301   3.902   5.646   0.468  1.1542  1.0250  1.0144
 2113TIP3   OH2 6302   1.757   6.149   2.132  0.7886  0.3863  0.1126
 2113TIP3    H1 6303   1.822   6.172   2.067  0.9573 -2.2861 -0.7812
 2113TIP3    H2 6304   1.806   6.143   2.214  1.1516  0.9218 -0.0625
 2114TIP3   OH2 6305   1.484   3.360   4.356  0.5274 -0.3187  0.3260
 2114TIP3    H1 6306   1.435   3.298   4.410  2.5997 -1.4012  1.0827
 2114TIP3    H2 6307   1.522   3.305   4.287  0.9614  0.4257 -0.0361
 2115TIP3   OH2 6308   4.835   0.623   4.632  0.4376  0.1921  0.8765
 2115TIP3    H1 6309   4.911   0.633   4.575  0.8875  0.4467  1.5093
 2115TIP3    H2 6310   4.830   0.705   4.680 -1.4036  0.9621 -0.5223
 2116TIP3   OH2 6311   0.027   3.694   2.393 -0.1409 -0.3915 -0.3189
 2116TIP3    H1 6312   0.017   3.616   2.447  0.4332  0.2717  0.8015
 2116TIP3    H2 6313   0.111   3.731   2.422 -1.5646  2.0142  1.0438
 2117TIP3   OH2 6314   7.152   6.373   0.442  0.1271  0.0634  0.2306
 2117TIP3    H1 6315   7.221   6.379   0.376 -0.1758 -0.3129 -0.1257
 2117TIP3    H2 6316   7.103   6.455   0.433 -0.3544 -0.2971 -0.5150
 2118TIP3   OH2 6317   5.899   1.406   5.800 -0.4091  0.1835 -0.5960
 2118TIP3    H1 6318   5.938   1.472   5.743  0.5224 -1.1459 -1.5655
 2118TIP3    H2 6319   5.864   1.456   5.874  2.3040  1.5877 -0.1277
 2119TIP3   OH2 6320   6.884   3.305   1.420 -0.1155  0.2605 -0.0746
 2119TIP3    H1 6321   6.827   3.233   1.394 -0.9043  0.6617  0.4973
 2119TIP3    H2 6322   6.966   3.263   1.446 -1.2117 -0.6603  2.1579
 2120TIP3   OH2 6323   2.168   5.618   0.545 -0.7821  0.0444 -0.0413
 2120TIP3    H1 6324   2.104   5.666   0.598 -2.1225  0.7989 -2.2202
 2120TIP3    H2 6325   2.115   5.562   0.489  0.5387 -0.0866 -1.1945
 2121TIP3   OH2 6326   3.100   4.997   0.323 -0.2959  0.0054 -0.2387
 2121TIP3    H1 6327   3.063   5.014   0.410 -0.1874 -1.2425  0.0764
 2121TIP3    H2 6328   3.024   4.981   0.267 -0.3743  0.9803 -0.4274
 2122TIP3   OH2 6329   5.508   0.736   3.552 -0.1168  0.5172  0.8402
 2122TIP3    H1 6330   5.424   0.738   3.506 -0.1219  0.2743  0.8391
 2122TIP3    H2 6331   5.498   0.667   3.617  0.6041 -0.5774 -0.1659
 2123TIP3   OH2 6332   4.651   6.126   3.279  0.0318  0.5860 -0.3148
 2123TIP3    H1 6333   4.631   6.178   3.356 -1.9701 -0.8824  0.2447
 2123TIP3    H2 6334   4.568   6.119   3.232  0.6504 -0.5760 -1.3048
 2124TIP3   OH2 6335   5.824   0.852   3.189  0.0130 -0.2102 -0.3543
 2124TIP3    H1 6336   5.837   0.941   3.155  0.1222  0.8569  2.2363
 2124TIP3    H2 6337   5.886   0.798   3.140  0.5426  1.2883 -1.4112
 2125TIP3   OH2 6338   4.525   5.584   2.902 -0.2179 -0.1375  0.0634
 2125TIP3    H1 6339   4.599   5.645   2.902  0.0719 -0.4879 -0.0005
 2125TIP3    H2 6340   4.528   5.541   2.817  1.0878 -2.0372  0.9971
 2126TIP3   OH2 6341   3.794   2.307   1.433 -0.0002 -0.4558  0.1136
 2126TIP3    H1 6342   3.852   2.382   1.418  0.6148 -1.2906 -2.1174
 2126TIP3    H2 6343   3.719   2.344   1.479  0.5893  1.4039 -0.3329
 2127TIP3   OH2 6344   5.486   2.593   4.802 -0.7872  0.1372 -0.2902
 2127TIP3    H1 6345   5.558   2.635   4.849 -0.7784 -2.0717  1.8923
 2127TIP3    H2 6346   5.528   2.535   4.739 -0.7681  1.1640 -1.2620
 2128TIP3   OH2 6347   6.080   6.228   1.216  0.0612  0.5041 -0.6743
 2128TIP3    H1 6348   6.137   6.274   1.278  1.0365 -1.0805 -0.3234
 2128TIP3    H2 6349   6.133   6.155   1.185 -1.8612 -1.2145 -0.1341
 2129TIP3   OH2 6350   7.107   1.203   2.683  0.0802  0.3959  0.6914
 2129TIP3    H1 6351   7.147   1.206   2.595  0.7059 -2.5847  0.7587
 2129TIP3    H2 6352   7.013   1.199   2.666  0.1660  0.4227  0.1745
 2130TIP3   OH2 6353   5.996   3.888   4.850  0.4254  0.5312 -0.9092
 2130TIP3    H1 6354   6.015   3.973   4.812  1.5469 -0.1062 -1.8512
 2130TIP3    H2 6355   6.003   3.827   4.777 -0.6572 -0.3440 -0.3129
 2131TIP3   OH2 6356   2.071   5.300   5.016 -0.1406 -0.3560  0.0173
 2131TIP3    H1 6357   2.041   5.309   5.106 -0.4199 -0.4448 -0.0677
 2131TIP3    H2 6358   2.010   5.238   4.977  0.4219 -0.8975 -0.0229
 2132TIP3   OH2 6359   1.469   2.290   0.514  0.7931 -0.4889 -0.4117
 2132TIP3    H1 6360   1.479   2.361   0.451 -0.0311 -0.4400 -0.4966
 2132TIP3    H2 6361   1.430   2.218   0.463  1.4660 -0.9470 -0.2884
 2133TIP3   OH2 6362   2.908   3.401   2.382 -0.0916 -0.4625 -0.9464
 2133TIP3    H1 6363   3.002   3.407   2.402 -0.4335 -1.9222  1.4430
 2133TIP3    H2 6364   2.897   3.314   2.345 -0.4811 -0.2320 -1.3735
 2134TIP3   OH2 6365   0.561   5.585   2.098  0.6050  0.6568 -0.2693
 2134TIP3    H1 6366   0.507   5.531   2.156  1.8368 -0.1272  0.1829
 2134TIP3    H2 6367   0.499   5.646   2.058 -0.4084  0.6742  1.2400
 2135TIP3   OH2 6368   2.360   4.819   0.490  0.0759 -0.4454  0.2292
 2135TIP3    H1 6369   2.265   4.816   0.496  0.0580 -1.2369 -0.4304
 2135TIP3    H2 6370   2.379   4.813   0.397  0.7872 -0.7234  0.3845
 2136TIP3   OH2 6371   7.161   0.127   5.172  0.2396  0.5254  0.4549
 2136TIP3    H1 6372   7.252   0.157   5.174  0.4791 -0.1785  2.1149
 2136TIP3    H2 6373   7.136   0.122   5.264 -0.9121 -0.9642  0.1008
 2137TIP3   OH2 6374   0.928   1.438   5.504  0.3219  0.0254  0.0951
 2137TIP3    H1 6375   0.963   1.451   5.416 -3.7312  2.2518 -1.4820
 2137TIP3    H2 6376   0.882   1.354   5.499 -1.0197  0.7583 -0.4418
 2138TIP3   OH2 6377   6.614   1.314   2.358 -0.3325 -0.0784  0.0831
 2138TIP3    H1 6378   6.566   1.285   2.435 -0.9080 -0.3547 -0.3727
 2138TIP3    H2 6379   6.553   1.370   2.311  0.3502  0.8905  0.3251
 2139TIP3   OH2 6380   2.642   1.874   0.191  0.0352 -0.4548  0.5230
 2139TIP3    H1 6381   2.659   1.862   0.098 -2.1044  1.4839 -0.2169
 2139TIP3    H2 6382   2.560   1.827   0.207  0.2690 -0.5993  1.3970
 2140TIP3   OH2 6383   4.836   2.130   3.281 -0.5196 -0.0241  0.1088
 2140TIP3    H1 6384   4.845   2.038   3.308  1.1431 -0.1780 -0.8653
 2140TIP3    H2 6385   4.808   2.125   3.190  1.6994  0.3632 -0.6492
 2141TIP3   OH2 6386   4.241   0.668   0.073 -0.5705 -0.3264  0.3524
 2141TIP3    H1 6387   4.249   0.760   0.048  1.7245 -0.1673  1.4158
 2141TIP3    H2 6388   4.321   0.627   0.041 -1.8605 -2.1610 -0.7147
 2142TIP3   OH2 6389   3.971   6.365   0.073 -0.3405 -0.1210  0.3752
 2142TIP3    H1 6390   4.011   6.452   0.068  0.2348 -0.4387 -1.0499
 2142TIP3    H2 6391   3.941   6.347  -0.016  1.9914 -2.4837 -0.0625
 2143TIP3   OH2 6392   2.081   2.321   0.179 -0.3717  0.2665  0.2656
 2143TIP3    H1 6393   1.999   2.362   0.151  0.4107  1.0429 -0.9489
 2143TIP3    H2 6394   2.095   2.355   0.268 -0.8662  0.9071  0.1051
 2144TIP3   OH2 6395   6.288   2.255   0.996  0.3155  0.6455 -0.3748
 2144TIP3    H1 6396   6.375   2.295   0.993 -0.5139  3.2344  3.1855
 2144TIP3    H2 6397   6.238   2.302   0.929  0.9287  1.0931 -0.5302
 2145TIP3   OH2 6398   0.129   4.869   2.211  0.3804  0.1344 -0.4254
 2145TIP3    H1 6399   0.161   4.832   2.293  1.1775  1.8130  0.0711
 2145TIP3    H2 6400   0.177   4.821   2.143 -1.0206 -1.9633 -0.0140
 2146TIP3   OH2 6401   4.182   2.500   1.139  0.1799  0.2087  0.1859
 2146TIP3    H1 6402   4.134   2.567   1.090  0.5395  1.5621  1.5956
 2146TIP3    H2 6403   4.273   2.512   1.111 -0.1675 -2.3846 -2.5227
 2147TIP3   OH2 6404   3.138   1.241   5.619 -0.7839  0.4127  0.5887
 2147TIP3    H1 6405   3.063   1.185   5.603  1.4238 -2.4701 -0.5452
 2147TIP3    H2 6406   3.128   1.313   5.556 -3.2444  0.9439  1.4671
 2148TIP3   OH2 6407   1.181   2.387   1.456  0.6686  0.3607 -0.1420
 2148TIP3    H1 6408   1.133   2.334   1.519 -0.2996  1.0345 -0.2949
 2148TIP3    H2 6409   1.116   2.412   1.391  1.3395  0.8726 -0.6332
 2149TIP3   OH2 6410   2.625   6.715   0.351 -0.5116 -0.0992 -0.7316
 2149TIP3    H1 6411   2.656   6.702   0.440  0.1731  0.4630 -0.8783
 2149TIP3    H2 6412   2.627   6.628   0.312 -2.6519 -0.6955  0.3518
 2150TIP3   OH2 6413   1.314   2.015   3.885  0.3500 -0.5428 -0.0819
 2150TIP3    H1 6414   1.398   1.976   3.907  0.5842  0.0926  0.1870
 2150TIP3    H2 6415   1.312   2.017   3.789  1.6964  1.5843 -0.1333
 2151TIP3   OH2 6416   0.594   3.570   2.938  0.3182 -0.5976 -0.1065
 2151TIP3    H1 6417   0.558   3.601   3.021 -0.1000 -0.6295 -0.2768
 2151TIP3    H2 6418   0.687   3.557   2.956  0.0584 -1.5511  0.6427
 2152TIP3   OH2 6419   4.058   2.864   4.823  0.1867  0.4605 -0.3711
 2152TIP3    H1 6420   4.057   2.850   4.918 -2.6305  0.4103 -0.3392
 2152TIP3    H2 6421   4.143   2.829   4.795  0.9130  0.0821  2.0476
 2153TIP3   OH2 6422   3.443   3.977   4.282  0.0544  0.6127 -0.2436
 2153TIP3    H1 6423   3.350   3.973   4.305  0.4992  0.8021  1.7030
 2153TIP3    H2 6424   3.483   3.904   4.329  0.8116  0.0424 -1.6831
 2154TIP3   OH2 6425   1.758   6.754   5.659  0.1047 -0.5399 -0.4379
 2154TIP3    H1 6426   1.751   6.827   5.720 -0.3112  0.0752 -1.2078
 2154TIP3    H2 6427   1.841   6.767   5.614  0.1894 -0.7305 -0.3393
 2155TIP3   OH2 6428   1.205   1.684   3.363 -0.4334 -0.4934 -0.1187
 2155TIP3    H1 6429   1.221   1.763   3.312  0.4879  0.1021  1.0312
 2155TIP3    H2 6430   1.260   1.617   3.323  0.9178  0.1784  0.5438
 2156TIP3   OH2 6431   5.444   2.659   2.963  0.1127  0.5865 -0.2417
 2156TIP3    H1 6432   5.351   2.636   2.966 -0.2043  1.6839 -1.1637
 2156TIP3    H2 6433   5.458   2.709   3.044  0.5027 -1.5712  1.1125
 2157TIP3   OH2 6434   0.971   3.060   0.878 -0.6571  0.1081  0.4965
 2157TIP3    H1 6435   1.045   3.043   0.821 -1.2538 -0.6238 -0.0885
 2157TIP3    H2 6436   0.923   3.131   0.836 -0.9726 -0.2779  0.1931
 2158TIP3   OH2 6437   2.748   1.528   0.231  0.1657  0.2942  0.1802
 2158TIP3    H1 6438   2.768   1.558   0.319  1.2010  0.5746 -0.1305
 2158TIP3    H2 6439   2.679   1.463   0.242  2.5839 -2.2475  1.5735
 2159TIP3   OH2 6440   3.127   6.598   4.343 -0.5070 -0.3324 -0.1105
 2159TIP3    H1 6441   3.156   6.639   4.424 -0.4600  0.4984 -0.5430
 2159TIP3    H2 6442   3.032   6.590   4.353 -0.5831  0.3742 -0.2420
 2160TIP3   OH2 6443   1.976   0.467   1.165  0.9665 -0.2712 -0.5756
 2160TIP3    H1 6444   1.919   0.416   1.222 -1.5258  2.2544 -0.6267
 2160TIP3    H2 6445   2.056   0.480   1.217  0.0140 -0.6905  1.0610
 2161TIP3   OH2 6446   3.913   5.743   4.419 -1.0358  0.1059 -0.0202
 2161TIP3    H1 6447   3.881   5.832   4.434 -1.5850 -0.2414  0.9825
 2161TIP3    H2 6448   3.917   5.735   4.324 -1.8862  0.8856 -0.1403
 2162TIP3   OH2 6449   6.929   2.652   3.171 -0.0239 -0.7059  0.2252
 2162TIP3    H1 6450   6.982   2.721   3.211 -0.7254 -0.5775  0.9425
 2162TIP3    H2 6451   6.949   2.659   3.077  0.2173  0.2000  0.3345
 2163TIP3   OH2 6452   6.564   3.264   2.812 -0.4416 -0.1930 -0.1576
 2163TIP3    H1 6453   6.599   3.333   2.868  0.1881 -1.3516  0.9053
 2163TIP3    H2 6454   6.622   3.263   2.736 -0.5666  0.5535 -0.2754
 2164TIP3   OH2 6455   6.987   1.426   3.110 -0.4884  0.5940  0.0821
 2164TIP3    H1 6456   7.025   1.369   3.043 -0.2728 -1.2258  1.6616
 2164TIP3    H2 6457   6.992   1.374   3.191 -1.1156  2.5410  1.4337
 2165TIP3   OH2 6458   5.745   5.471   2.645 -0.1822  0.2843 -0.8091
 2165TIP3    H1 6459   5.837   5.461   2.624 -0.2369  1.7121 -1.8795
 2165TIP3    H2 6460   5.739   5.452   2.739  0.9632 -1.0769 -0.9864
 2166TIP3   OH2 6461   6.327   1.808   1.469  0.1597 -0.2508  0.1710
 2166TIP3    H1 6462   6.272   1.841   1.540 -1.9848 -2.4117 -0.3548
 2166TIP3    H2 6463   6.363   1.726   1.504  1.1982 -0.0434 -0.3609
 2167TIP3   OH2 6464   0.568   0.449   1.820  0.1796  0.2310  0.3634
 2167TIP3    H1 6465   0.630   0.522   1.812 -0.0595  0.4072  0.0713
 2167TIP3    H2 6466   0.620   0.377   1.855  0.2926  0.7055  1.2059
 2168TIP3   OH2 6467   1.988   1.607   3.060  0.1419 -0.1239 -0.1127
 2168TIP3    H1 6468   2.038   1.684   3.087 -1.0572  0.7628 -0.3082
 2168TIP3    H2 6469   1.989   1.549   3.136  1.7222 -0.2966 -0.2332
 2169TIP3   OH2 6470   2.570   0.373   5.203  0.2874  0.2052  0.3920
 2169TIP3    H1 6471   2.638   0.415   5.150  0.2495  0.7111  0.7442
 2169TIP3    H2 6472   2.609   0.365   5.290 -0.5469  1.6348  0.9173
 2170TIP3   OH2 6473   3.925   6.324   4.435 -0.0562 -0.1569 -0.2460
 2170TIP3    H1 6474   4.006   6.297   4.478  0.0057  1.5649  0.7786
 2170TIP3    H2 6475   3.952   6.345   4.345  0.8569  1.3532  0.3518
 2171TIP3   OH2 6476   2.495   6.195   2.259  0.5723 -0.4905  0.4166
 2171TIP3    H1 6477   2.421   6.135   2.261 -1.0065  1.3818  0.4089
 2171TIP3    H2 6478   2.516   6.210   2.351  1.0760 -1.1524  0.4163
 2172TIP3   OH2 6479   2.909   5.107   2.373 -0.1583 -0.2681 -0.0309
 2172TIP3    H1 6480   2.849   5.176   2.402 -0.9431 -0.9606  0.0477
 2172TIP3    H2 6481   2.863   5.064   2.301  1.5004  1.0239 -1.9517
 2173TIP3   OH2 6482   5.053   4.072   4.464  0.1144 -0.0174  0.0786
 2173TIP3    H1 6483   5.087   4.128   4.394  0.1454  1.0667  0.9335
 2173TIP3    H2 6484   4.960   4.095   4.470 -1.0831 -3.3471 -2.6092
 2174TIP3   OH2 6485   2.404   1.309   3.059 -0.2713  0.0188  0.1702
 2174TIP3    H1 6486   2.439   1.312   2.970  0.0584 -2.4678  0.1388
 2174TIP3    H2 6487   2.482   1.298   3.115 -0.6423 -1.3357  0.4642
 2175TIP3   OH2 6488   5.120   2.399   2.159  0.2739 -0.3286 -0.2484
 2175TIP3    H1 6489   5.185   2.406   2.230  0.9696 -2.9131 -0.5653
 2175TIP3    H2 6490   5.057   2.469   2.179  2.3545  1.3821  0.8507
 2176TIP3   OH2 6491   6.349   1.055   1.304  0.2573 -0.6863  0.0545
 2176TIP3    H1 6492   6.284   0.988   1.326 -1.6776  1.0059 -0.1854
 2176TIP3    H2 6493   6.409   1.011   1.244 -1.0413 -2.1717 -0.2290
 2177TIP3   OH2 6494   4.982   2.142   3.854  0.7158 -0.2602 -0.7403
 2177TIP3    H1 6495   4.963   2.069   3.913 -1.8836  0.3387 -0.6961
 2177TIP3    H2 6496   5.009   2.100   3.772 -0.4666 -1.2928 -0.6352
 2178TIP3   OH2 6497   1.004   4.314   1.248 -0.6172  0.4268  0.0748
 2178TIP3    H1 6498   1.091   4.282   1.269 -0.2981  1.3959  0.2852
 2178TIP3    H2 6499   1.019   4.392   1.195 -1.2685  2.0712  2.1813
 2179TIP3   OH2 6500   3.653   4.236   3.186  0.7449 -0.6819  0.1996
 2179TIP3    H1 6501   3.710   4.264   3.258  0.9350  0.4917 -0.3726
 2179TIP3    H2 6502   3.579   4.193   3.228 -0.7812  2.7491  1.3978
 2180TIP3   OH2 6503   4.355   0.988   1.662  0.1704  0.0418 -0.4804
 2180TIP3    H1 6504   4.395   1.052   1.721  0.0278 -0.9218  0.7034
 2180TIP3    H2 6505   4.411   0.990   1.584  1.5669 -0.0784  0.4800
 2181TIP3   OH2 6506   0.294   0.161   3.841 -0.1826  0.0974  0.2137
 2181TIP3    H1 6507   0.262   0.082   3.883  0.7865 -0.0900  0.6150
 2181TIP3    H2 6508   0.242   0.169   3.761 -0.8147 -0.5148  0.5605
 2182TIP3   OH2 6509   2.359   5.704   3.162  1.0005  0.3372 -0.0326
 2182TIP3    H1 6510   2.418   5.642   3.205  3.1089  2.0998 -0.1978
 2182TIP3    H2 6511   2.382   5.788   3.201 -0.0014  1.3753 -1.6028
 2183TIP3   OH2 6512   3.433   6.203   1.453  0.2979  0.6824  0.0328
 2183TIP3    H1 6513   3.397   6.170   1.371 -1.9879  1.5760  0.6141
 2183TIP3    H2 6514   3.516   6.243   1.429  0.3587 -0.3628 -1.5902
 2184TIP3   OH2 6515   0.081   2.865   1.599  0.4514 -0.0769 -0.3546
 2184TIP3    H1 6516   0.163   2.872   1.550 -0.7712 -0.6058 -2.6252
 2184TIP3    H2 6517   0.023   2.929   1.558 -0.5653 -0.3625  0.5984
 2185TIP3   OH2 6518   6.802   1.060   0.181  0.5040 -0.1469  0.0936
 2185TIP3    H1 6519   6.748   1.046   0.259  1.0938  0.3055  0.5974
 2185TIP3    H2 6520   6.753   1.125   0.130  0.1152 -0.4432  0.0861
 2186TIP3   OH2 6521   3.856   4.389   3.780  0.0483  0.7632  0.0412
 2186TIP3    H1 6522   3.915   4.464   3.771 -0.4379  1.3583  1.5054
 2186TIP3    H2 6523   3.772   4.420   3.746  0.1084  0.5297 -0.3243
 2187TIP3   OH2 6524   2.732   4.770   2.215  0.8989 -0.6082 -0.3762
 2187TIP3    H1 6525   2.778   4.708   2.271 -0.1050 -0.4331  0.6715
 2187TIP3    H2 6526   2.665   4.718   2.171 -0.4349 -0.1799  1.0654
 2188TIP3   OH2 6527   5.983   1.733   3.811  0.1440 -0.1296  0.3183
 2188TIP3    H1 6528   5.896   1.756   3.777  0.4031  0.0783 -0.2112
 2188TIP3    H2 6529   6.000   1.799   3.879 -0.0279 -0.0539  0.2880
 2189TIP3   OH2 6530   7.049   1.648   4.548 -0.5241 -0.1739  0.1764
 2189TIP3    H1 6531   7.109   1.579   4.578  1.5868  0.9122 -1.3334
 2189TIP3    H2 6532   7.013   1.684   4.629 -0.5369 -2.0360  1.0625
 2190TIP3   OH2 6533   5.733   6.565   0.557  0.6480 -0.2449  0.2759
 2190TIP3    H1 6534   5.681   6.632   0.512 -0.9717  0.2239  2.6516
 2190TIP3    H2 6535   5.752   6.603   0.643  1.0907 -2.1984  1.0960
 2191TIP3   OH2 6536   1.592   4.988   5.579 -0.8666 -0.1453 -0.4614
 2191TIP3    H1 6537   1.632   4.904   5.553 -0.1680  0.3293 -0.9605
 2191TIP3    H2 6538   1.543   4.967   5.659  0.6445 -0.7037  0.3695
 2192TIP3   OH2 6539   7.058   5.446   4.182  0.3032  0.8546 -0.5915
 2192TIP3    H1 6540   7.050   5.520   4.122  1.6272  0.9134 -0.7293
 2192TIP3    H2 6541   7.108   5.381   4.133  1.0983  0.7683  0.3090
 2193TIP3   OH2 6542   0.925   3.384   1.726 -0.3884 -1.0295  0.1851
 2193TIP3    H1 6543   1.001   3.429   1.763 -0.8079  0.4536 -0.6629
 2193TIP3    H2 6544   0.921   3.415   1.635 -2.0444 -0.9949  0.2302
 2194TIP3   OH2 6545   0.786   5.604   2.544 -0.1673  0.5742 -0.1556
 2194TIP3    H1 6546   0.843   5.598   2.620 -0.6282  0.7660  0.2126
 2194TIP3    H2 6547   0.778   5.697   2.525 -1.5928  0.6738  0.7675
 2195TIP3   OH2 6548   6.556   0.923   3.006  0.0206  0.5244 -0.1112
 2195TIP3    H1 6549   6.625   0.935   2.941  0.5395  2.1605  0.6860
 2195TIP3    H2 6550   6.597   0.871   3.076 -0.0917  0.0303 -0.4075
 2196TIP3   OH2 6551   6.141   3.504   3.034 -0.5738  0.1957 -0.2626
 2196TIP3    H1 6552   6.169   3.432   2.977 -1.9937 -0.0004 -0.7668
 2196TIP3    H2 6553   6.132   3.465   3.120  0.5390  0.2362 -0.1202
 2197TIP3   OH2 6554   4.906   0.854   0.975 -0.4524 -0.5888 -0.5083
 2197TIP3    H1 6555   4.817   0.841   1.008 -0.1355  0.4026  0.8664
 2197TIP3    H2 6556   4.901   0.935   0.924 -0.5649 -1.1373 -1.3698
 2198TIP3   OH2 6557   6.185   0.558   1.009  0.0225  1.0842 -0.1772
 2198TIP3    H1 6558   6.121   0.489   0.998 -0.1893  1.6002 -2.8979
 2198TIP3    H2 6559   6.259   0.516   1.052 -0.3505 -0.6980 -1.1921
 2199TIP3   OH2 6560   5.167   1.617   4.180  0.2280  0.3326  0.0207
 2199TIP3    H1 6561   5.207   1.610   4.267 -0.7595  0.0410  0.4638
 2199TIP3    H2 6562   5.234   1.583   4.120 -0.1964 -2.4083  0.9753
 2200TIP3   OH2 6563   6.258   1.893   5.378  0.1443 -0.0105 -0.0594
 2200TIP3    H1 6564   6.333   1.899   5.436 -0.1279 -1.3731  0.4723
 2200TIP3    H2 6565   6.194   1.954   5.415  0.1659 -0.4860  0.7910
 2201TIP3   OH2 6566   3.099   1.748   4.613 -0.3969  0.3005  0.6183
 2201TIP3    H1 6567   3.142   1.676   4.659  0.5001  1.1868  1.2030
 2201TIP3    H2 6568   3.031   1.705   4.560 -0.1824 -0.9220  1.2910
 2202TIP3   OH2 6569   2.823   6.381   2.456  0.0384 -0.0224 -0.2177
 2202TIP3    H1 6570   2.812   6.320   2.383 -0.4761  1.0323 -1.0453
 2202TIP3    H2 6571   2.897   6.346   2.506  0.5370 -0.6423 -1.3571
 2203TIP3   OH2 6572   1.914   1.296   0.976 -0.0845  0.0075 -0.3313
 2203TIP3    H1 6573   1.885   1.207   0.957 -2.0104  0.4147  0.3567
 2203TIP3    H2 6574   1.864   1.321   1.054  1.4913  1.1873  0.3536
 2204TIP3   OH2 6575   2.450   0.040   0.070 -0.0347 -0.6997 -0.6943
 2204TIP3    H1 6576   2.493  -0.041   0.044  1.2738 -0.7696  1.4198
 2204TIP3    H2 6577   2.383   0.013   0.132 -0.4289 -0.2521 -0.9165
 2205TIP3   OH2 6578   3.632   5.670   3.095  0.4573 -0.8734 -0.4381
 2205TIP3    H1 6579   3.615   5.589   3.046  0.6184 -0.5293 -1.0717
 2205TIP3    H2 6580   3.590   5.656   3.179 -0.7432 -1.0595 -1.0451
 2206TIP3   OH2 6581   1.642   5.356   4.548  0.7146 -0.0035  0.4499
 2206TIP3    H1 6582   1.615   5.411   4.621 -0.3625 -0.9878  0.8139
 2206TIP3    H2 6583   1.697   5.288   4.588 -1.4300 -1.6847  0.7086
 2207TIP3   OH2 6584   4.728   6.592   2.132  0.4129 -0.2515 -0.1309
 2207TIP3    H1 6585   4.689   6.505   2.126 -0.5786  0.1438  0.2570
 2207TIP3    H2 6586   4.661   6.645   2.176  0.9662  0.7262 -0.4341
 2208TIP3   OH2 6587   5.429   0.951   3.268  0.5434  0.3824  0.3075
 2208TIP3    H1 6588   5.459   0.860   3.256 -1.2415  0.0555 -2.8640
 2208TIP3    H2 6589   5.358   0.944   3.332 -0.6117 -0.7890 -1.0278
 2209TIP3   OH2 6590   0.988   4.886   1.544  0.2993 -0.6609 -0.3510
 2209TIP3    H1 6591   1.036   4.969   1.539  1.6958 -1.3365  0.9735
 2209TIP3    H2 6592   1.041   4.824   1.495 -0.7107 -0.8072 -1.2868
 2210TIP3   OH2 6593   5.752   2.207   2.926  0.1412 -0.5264  0.0046
 2210TIP3    H1 6594   5.709   2.208   3.012 -3.4035 -1.3349 -1.5933
 2210TIP3    H2 6595   5.753   2.115   2.901  0.5129 -0.2254 -1.1249
 2211TIP3   OH2 6596   3.765   0.114   0.613 -0.0783  0.5194 -0.6078
 2211TIP3    H1 6597   3.857   0.114   0.588 -0.2423  0.4920 -1.2312
 2211TIP3    H2 6598   3.718   0.093   0.532 -0.6325  0.5705 -0.3056
 2212TIP3   OH2 6599   1.056   1.062   3.293  1.0442 -0.0953  0.2023
 2212TIP3    H1 6600   1.038   0.989   3.352 -0.9011 -0.3635 -0.6469
 2212TIP3    H2 6601   1.138   1.038   3.249  0.1659 -2.0914 -0.4664
 2213TIP3   OH2 6602   6.842   6.376   2.773 -0.3799  0.0117 -0.1941
 2213TIP3    H1 6603   6.857   6.428   2.852  1.9455  0.2152 -0.7130
 2213TIP3    H2 6604   6.874   6.289   2.795  0.3106  0.0788 -0.9036
 2214TIP3   OH2 6605   4.825   4.968   1.578 -0.2287 -0.2120  0.3613
 2214TIP3    H1 6606   4.819   5.038   1.643  3.2534 -0.2192  0.8860
 2214TIP3    H2 6607   4.847   4.889   1.629 -0.7697 -0.9641 -0.5346
 2215TIP3   OH2 6608   3.923   6.525   1.644  0.5395 -0.2278 -0.0626
 2215TIP3    H1 6609   3.850   6.531   1.583  0.0220  0.4083  0.5951
 2215TIP3    H2 6610   3.899   6.584   1.716  1.6398 -0.1047  0.2266
 2216TIP3   OH2 6611   4.545   5.016   1.629  0.1585 -0.1155  0.1100
 2216TIP3    H1 6612   4.537   4.985   1.720  0.2738  0.7428  0.4259
 2216TIP3    H2 6613   4.619   4.967   1.593  0.4531 -0.0735  0.6494
 2217TIP3   OH2 6614   3.490   2.075   5.629 -0.0335  0.1027 -0.3091
 2217TIP3    H1 6615   3.463   2.159   5.591  1.6811  0.4757 -0.7982
 2217TIP3    H2 6616   3.528   2.099   5.714 -2.4420 -0.5663  1.0417
 2218TIP3   OH2 6617   0.729   6.755   4.254 -0.2489  0.2849 -0.2357
 2218TIP3    H1 6618   0.724   6.674   4.305 -0.5463  0.5415  0.1467
 2218TIP3    H2 6619   0.639   6.784   4.246  0.0070  1.7326  1.5066
 2219TIP3   OH2 6620   5.808   5.660   1.016 -0.6069 -0.0527  0.4287
 2219TIP3    H1 6621   5.772   5.741   0.979 -1.8528 -0.4399  0.7345
 2219TIP3    H2 6622   5.877   5.634   0.956  0.3861  1.6737  0.7622
 2220TIP3   OH2 6623   5.830   3.103   4.567 -0.2838  0.0334  0.3355
 2220TIP3    H1 6624   5.896   3.170   4.585 -1.9366  1.6996  0.5898
 2220TIP3    H2 6625   5.769   3.109   4.641 -0.7734 -1.3956  0.0795
 2221TIP3   OH2 6626   6.109   6.126   3.318 -0.2611 -0.0292 -0.0722
 2221TIP3    H1 6627   6.139   6.151   3.405 -1.4541 -2.3918  1.1013
 2221TIP3    H2 6628   6.184   6.144   3.261  1.2045 -0.0853  1.7312
 2222TIP3   OH2 6629   2.044   5.486   1.098 -0.4007  0.1489  0.0805
 2222TIP3    H1 6630   2.032   5.433   1.177 -0.4867  0.0501  0.0008
 2222TIP3    H2 6631   2.136   5.511   1.101 -0.7246  1.3136  0.9463
 2223TIP3   OH2 6632   5.933   5.028   1.448  0.6054 -0.1421  0.0182
 2223TIP3    H1 6633   5.895   4.940   1.445  1.3034 -0.4573  0.2745
 2223TIP3    H2 6634   5.963   5.045   1.358  0.0311  0.0350 -0.1427
 2224TIP3   OH2 6635   6.600   2.826   2.652  0.1786 -0.0157  0.2738
 2224TIP3    H1 6636   6.640   2.739   2.652 -1.8754 -1.0204 -0.3732
 2224TIP3    H2 6637   6.551   2.830   2.734  0.0342  0.4084  0.1674
 2225TIP3   OH2 6638   6.070   0.256   5.875  0.1789 -0.6822  0.2430
 2225TIP3    H1 6639   6.129   0.226   5.805 -0.8238  0.6217 -1.2435
 2225TIP3    H2 6640   5.998   0.193   5.873  0.2064 -0.7124  0.1735
 2226TIP3   OH2 6641   2.941   6.037   2.086  0.6693  0.6344 -0.1295
 2226TIP3    H1 6642   2.891   5.955   2.088  0.5282  0.7309  0.7016
 2226TIP3    H2 6643   2.890   6.094   2.028 -0.2059  0.7266  0.6961
 2227TIP3   OH2 6644   5.902   2.285   1.496 -0.1852 -0.1143 -1.0583
 2227TIP3    H1 6645   5.918   2.229   1.572 -1.1744 -0.0358 -0.7802
 2227TIP3    H2 6646   5.857   2.229   1.434  1.5656 -0.4856 -2.0599
 2228TIP3   OH2 6647   0.595   5.047   1.400 -0.7591  0.2661 -0.8735
 2228TIP3    H1 6648   0.520   4.995   1.428 -1.4827  1.9082  0.4806
 2228TIP3    H2 6649   0.565   5.138   1.408  1.7203  1.0567  1.0194
 2229TIP3   OH2 6650   0.252   6.449   3.480  0.1957 -0.8222 -0.2714
 2229TIP3    H1 6651   0.172   6.398   3.478 -0.0092 -0.4856 -1.7318
 2229TIP3    H2 6652   0.283   6.443   3.571 -2.2701  0.2861  0.7339
 2230TIP3   OH2 6653   0.799   0.779   0.119  0.1688  0.6271  0.2059
 2230TIP3    H1 6654   0.724   0.791   0.178 -0.3067 -0.2509 -0.1860
 2230TIP3    H2 6655   0.858   0.720   0.167 -0.9463 -1.3882 -0.7550
 2231TIP3   OH2 6656   5.993   4.144   4.770  0.4236  0.1346  0.0433
 2231TIP3    H1 6657   5.960   4.228   4.802 -0.5127  0.1305 -0.8611
 2231TIP3    H2 6658   5.951   4.133   4.685  1.7162 -0.5306 -0.5409
 2232TIP3   OH2 6659   4.885   5.505   5.576 -0.5188  0.0193 -0.1222
 2232TIP3    H1 6660   4.915   5.538   5.492 -0.5903 -0.2896 -0.2691
 2232TIP3    H2 6661   4.959   5.518   5.635 -0.7444  0.9772 -0.0361
 2233TIP3   OH2 6662   2.725   3.067   0.130  0.1301  0.6452  0.0977
 2233TIP3    H1 6663   2.812   3.098   0.105  0.3600  0.8493  1.0776
 2233TIP3    H2 6664   2.742   3.005   0.202 -0.5483  0.9218  0.5068
 2234TIP3   OH2 6665   1.419   2.717   3.352  0.6251  0.2175 -0.2294
 2234TIP3    H1 6666   1.453   2.635   3.389 -1.4766 -0.0287  1.3622
 2234TIP3    H2 6667   1.433   2.782   3.420 -0.2780  0.5207 -0.3119
 2235TIP3   OH2 6668   7.127   3.895   4.603  0.6229  0.1087  0.4782
 2235TIP3    H1 6669   7.138   3.863   4.693  1.8799 -0.1604  0.2404
 2235TIP3    H2 6670   7.215   3.893   4.566  0.5648  2.7217  0.0580
 2236TIP3   OH2 6671   0.632   4.812   4.935  0.0912 -0.4662  0.0937
 2236TIP3    H1 6672   0.564   4.877   4.952 -0.4267 -0.8318 -0.5202
 2236TIP3    H2 6673   0.697   4.826   5.004 -0.4065  0.1632  0.4427
 2237TIP3   OH2 6674   0.140   0.108   0.846 -0.4275 -0.3472  0.1207
 2237TIP3    H1 6675   0.169   0.057   0.922 -1.1643 -3.1383 -1.3592
 2237TIP3    H2 6676   0.209   0.095   0.781 -1.2452 -0.5254 -0.7284
 2238TIP3   OH2 6677   6.968   1.336   2.079 -0.4695 -0.4776 -0.5071
 2238TIP3    H1 6678   7.014   1.415   2.110  2.7208 -1.2566 -2.7096
 2238TIP3    H2 6679   6.939   1.359   1.991 -0.3688 -1.4273 -0.7957
 2239TIP3   OH2 6680   1.506   0.928   2.366  0.1972  0.5324  0.5324
 2239TIP3    H1 6681   1.599   0.945   2.384  0.5742  0.9367 -1.5131
 2239TIP3    H2 6682   1.459   0.989   2.421  1.2111  1.2020  0.6876
 2240TIP3   OH2 6683   3.809   6.742   4.770 -0.3632 -0.5423  0.2059
 2240TIP3    H1 6684   3.891   6.692   4.773  0.5609  0.8181 -0.6484
 2240TIP3    H2 6685   3.799   6.764   4.677 -1.4764 -0.3111  0.3696
 2241TIP3   OH2 6686   4.093   6.123   2.143 -0.0988 -0.0138  0.2912
 2241TIP3    H1 6687   4.099   6.216   2.119 -0.4044 -0.5572 -2.1657
 2241TIP3    H2 6688   4.044   6.083   2.072  2.6376 -2.6144 -0.3380
 2242TIP3   OH2 6689   5.330   1.755   3.337  0.1364  0.0927  0.3367
 2242TIP3    H1 6690   5.368   1.703   3.408 -2.1638  0.9844  2.3509
 2242TIP3    H2 6691   5.394   1.824   3.321  1.9611 -1.6834 -0.4809
 2243TIP3   OH2 6692   1.697   5.871   5.657  0.1676  0.4508 -0.0415
 2243TIP3    H1 6693   1.775   5.886   5.711 -0.4753  0.2246  0.9820
 2243TIP3    H2 6694   1.686   5.776   5.656  0.0881  0.4636 -0.4566
 2244TIP3   OH2 6695   1.978   5.349   3.923  0.0555 -0.2530  0.5177
 2244TIP3    H1 6696   1.995   5.279   3.859 -0.0998 -0.2003  0.4169
 2244TIP3    H2 6697   2.052   5.345   3.983  0.3103 -0.1697  0.2132
 2245TIP3   OH2 6698   3.374   1.478   0.415 -0.4049  0.0153 -0.3611
 2245TIP3    H1 6699   3.356   1.412   0.483 -0.5424  1.7121  1.3330
 2245TIP3    H2 6700   3.370   1.561   0.461  0.8866  1.1671 -2.2013
 2246TIP3   OH2 6701   6.988   5.033   4.318 -0.6170  0.1815 -0.2770
 2246TIP3    H1 6702   6.929   4.970   4.361  0.7122 -0.7694  0.2110
 2246TIP3    H2 6703   6.952   5.043   4.230 -2.0978  0.4210  0.3199
 2247TIP3   OH2 6704   6.259   5.491   3.154 -0.3038 -0.3872  0.5989
 2247TIP3    H1 6705   6.264   5.398   3.132  0.7645 -0.3017  0.4339
 2247TIP3    H2 6706   6.166   5.509   3.163 -0.5300 -1.4116  0.3554
 2248TIP3   OH2 6707   2.604   3.215   0.656  0.3423  0.2073  0.0491
 2248TIP3    H1 6708   2.541   3.258   0.598  0.4563  2.9497  1.7940
 2248TIP3    H2 6709   2.554   3.192   0.734  0.8319 -0.5286  0.1518
 2249TIP3   OH2 6710   0.200   6.755   2.426  0.0579  0.3791  0.7450
 2249TIP3    H1 6711   0.239   6.671   2.453 -0.4227 -0.7064 -1.6818
 2249TIP3    H2 6712   0.238   6.819   2.486  1.4322 -1.3894  1.8725
 2250TIP3   OH2 6713   6.554   6.785   2.415  0.3630  0.1334  0.5701
 2250TIP3    H1 6714   6.606   6.728   2.358 -2.0464 -2.2008  0.5110
 2250TIP3    H2 6715   6.543   6.734   2.496 -1.2638  0.7955  0.8019
 2251TIP3   OH2 6716   5.763   2.543   2.954 -0.5347  0.1213  0.0152
 2251TIP3    H1 6717   5.691   2.590   2.913  0.6821  2.7834  0.7506
 2251TIP3    H2 6718   5.839   2.565   2.901  0.4269  0.7334  1.5884
 2252TIP3   OH2 6719   4.976   5.341   0.919 -0.0082 -0.3374 -0.0495
 2252TIP3    H1 6720   5.063   5.375   0.899 -0.4445 -0.3165 -2.0841
 2252TIP3    H2 6721   4.992   5.259   0.965  1.0468  0.7832  1.6973
 2253TIP3   OH2 6722   6.033   5.626   3.488 -0.0618 -0.3382 -0.2111
 2253TIP3    H1 6723   6.095   5.582   3.545 -0.5366  1.1916  1.5809
 2253TIP3    H2 6724   6.042   5.581   3.403  2.9300 -0.6234  0.1603
 2254TIP3   OH2 6725   0.303   0.160   2.439 -0.3715 -0.0013 -0.9561
 2254TIP3    H1 6726   0.212   0.173   2.412 -0.1986  0.4958 -1.3129
 2254TIP3    H2 6727   0.346   0.123   2.361  0.2868  2.0782 -1.6331
 2255TIP3   OH2 6728   4.534   1.764   0.285  0.4801  0.1205 -0.7612
 2255TIP3    H1 6729   4.562   1.711   0.210  1.8301 -0.8875  0.4037
 2255TIP3    H2 6730   4.440   1.749   0.290  0.5155 -0.5579 -1.6771
 2256TIP3   OH2 6731   4.053   4.571   0.293 -0.1865  0.0628  0.0955
 2256TIP3    H1 6732   4.074   4.525   0.375  2.3823 -0.7085 -0.8923
 2256TIP3    H2 6733   4.006   4.649   0.321 -0.1460 -0.6043  2.2417
 2257TIP3   OH2 6734   0.674   4.689   5.611 -0.3824 -0.0303  0.0697
 2257TIP3    H1 6735   0.682   4.770   5.662 -1.9339  0.6632 -0.7012
 2257TIP3    H2 6736   0.580   4.672   5.608 -0.0497 -2.3562  0.9083
 2258TIP3   OH2 6737   3.914   0.119   2.861  0.4314 -0.1091 -0.1801
 2258TIP3    H1 6738   3.935   0.200   2.909  0.7824 -0.1574 -0.2473
 2258TIP3    H2 6739   3.986   0.060   2.882 -0.1739 -0.6439  0.4149
 2259TIP3   OH2 6740   4.348   1.063   5.692  0.0722  0.0264 -0.4983
 2259TIP3    H1 6741   4.406   1.136   5.671  1.8193 -1.2377 -0.3005
 2259TIP3    H2 6742   4.279   1.068   5.626  0.5915  1.3556 -0.9929
 2260TIP3   OH2 6743   3.413   2.788   4.093  0.4924 -0.4060 -0.4681
 2260TIP3    H1 6744   3.323   2.817   4.107  1.1078  1.4533 -0.1507
 2260TIP3    H2 6745   3.444   2.760   4.179  0.0718 -1.5388 -0.6730
 2261TIP3   OH2 6746   6.436   2.561   0.737  0.1599 -0.1355 -0.2548
 2261TIP3    H1 6747   6.487   2.483   0.759 -2.7643 -1.9255  0.7418
 2261TIP3    H2 6748   6.502   2.629   0.724  2.8201 -2.4839 -0.1735
 2262TIP3   OH2 6749   0.590   6.335   4.715 -0.4298  0.1455 -0.1575
 2262TIP3    H1 6750   0.524   6.397   4.684 -0.7056  0.2299  0.5669
 2262TIP3    H2 6751   0.558   6.249   4.686 -0.9972  0.1581  0.3941
 2263TIP3   OH2 6752   0.301   5.459   0.667  0.2458  0.2222  0.5774
 2263TIP3    H1 6753   0.272   5.397   0.735 -1.8882  2.9263  2.3818
 2263TIP3    H2 6754   0.395   5.469   0.682  0.6639 -2.4361  0.2270
 2264TIP3   OH2 6755   3.414   4.876   4.138 -0.4102 -0.2666 -0.5133
 2264TIP3    H1 6756   3.471   4.904   4.066  0.1431 -0.9284 -0.3386
 2264TIP3    H2 6757   3.332   4.852   4.095 -1.1837  2.2158 -0.6287
 2265TIP3   OH2 6758   0.045   5.650   1.630 -0.2363 -0.0562  0.6262
 2265TIP3    H1 6759   0.090   5.688   1.554  1.8429 -0.4057  1.6000
 2265TIP3    H2 6760   0.111   5.595   1.672 -1.7719 -1.0369  1.8872
 2266TIP3   OH2 6761   7.162   4.962   0.183 -0.1134  0.0839  0.0575
 2266TIP3    H1 6762   7.232   4.950   0.247  0.6402 -0.8503 -0.9142
 2266TIP3    H2 6763   7.191   4.913   0.106 -1.4225  0.4291 -0.6819
 2267TIP3   OH2 6764   5.405   3.842   2.211 -0.5074 -0.4417 -0.0377
 2267TIP3    H1 6765   5.475   3.875   2.154  0.1257  0.8136  1.3960
 2267TIP3    H2 6766   5.336   3.908   2.204 -1.3973 -1.4495 -1.0924
 2268TIP3   OH2 6767   6.909   6.454   4.498 -0.1643 -0.0909  0.0512
 2268TIP3    H1 6768   6.819   6.423   4.501 -0.4849  0.4605 -2.1228
 2268TIP3    H2 6769   6.962   6.375   4.493 -0.6161 -0.3902 -0.0203
 2269TIP3   OH2 6770   5.916   5.153   0.513  0.0704 -0.1465  0.3076
 2269TIP3    H1 6771   5.890   5.062   0.531 -2.6926  0.1751 -1.5017
 2269TIP3    H2 6772   5.898   5.200   0.594 -0.6510 -0.8204  0.5452
 2270TIP3   OH2 6773   3.391   3.888   5.669 -0.1287  0.3842  0.2212
 2270TIP3    H1 6774   3.443   3.942   5.728 -0.0041  1.1065 -0.5231
 2270TIP3    H2 6775   3.301   3.914   5.686 -0.5417 -2.3556  3.0181
 2271TIP3   OH2 6776   1.335   1.812   2.593  0.2370 -0.1100 -0.3528
 2271TIP3    H1 6777   1.313   1.852   2.509 -1.6885  0.1099  0.2127
 2271TIP3    H2 6778   1.261   1.832   2.650 -0.0746 -3.0221  0.4400
 2272TIP3   OH2 6779   2.341   3.674   5.030  0.2385  0.7195 -0.2104
 2272TIP3    H1 6780   2.286   3.716   4.964 -0.7530  1.6201  1.1203
 2272TIP3    H2 6781   2.286   3.673   5.109  1.2536 -0.6210  0.5184
 2273TIP3   OH2 6782   0.858   4.156   3.146 -0.3410  0.0708  0.2891
 2273TIP3    H1 6783   0.946   4.194   3.151 -0.9999  1.8965 -0.9126
 2273TIP3    H2 6784   0.865   4.089   3.078  0.2938 -0.3708  0.7719
 2274TIP3   OH2 6785   3.683   4.756   4.327  0.1469  0.3363 -0.3731
 2274TIP3    H1 6786   3.716   4.844   4.308 -0.5628  0.6568 -0.1584
 2274TIP3    H2 6787   3.588   4.763   4.317 -0.0178 -0.1347  0.6564
 2275TIP3   OH2 6788   0.373   5.102   0.420  0.0358 -0.0824 -0.1111
 2275TIP3    H1 6789   0.465   5.084   0.399  0.2326 -0.1251  0.7483
 2275TIP3    H2 6790   0.369   5.099   0.515 -0.7336  0.5373 -0.1099
 2276TIP3   OH2 6791   4.792   4.455   1.141  0.7978 -0.2207  0.2896
 2276TIP3    H1 6792   4.871   4.406   1.162  0.8624  0.5328  2.0053
 2276TIP3    H2 6793   4.807   4.542   1.180 -0.1892  0.4683 -0.8005
 2277TIP3   OH2 6794   2.698   1.514   1.896 -0.2629  0.4103 -0.1921
 2277TIP3    H1 6795   2.679   1.423   1.919 -1.2234  0.6462 -0.0114
 2277TIP3    H2 6796   2.793   1.519   1.894 -0.1840 -0.8922 -1.3425
 2278TIP3   OH2 6797   3.768   6.049   3.251  0.4783  0.1344  0.1073
 2278TIP3    H1 6798   3.812   6.060   3.335 -0.4689  0.5851  0.5487
 2278TIP3    H2 6799   3.719   6.130   3.238  0.2254 -0.1307 -0.6506
 2279TIP3   OH2 6800   1.742   4.747   4.489 -0.1144  0.7383  0.6308
 2279TIP3    H1 6801   1.703   4.736   4.402  1.5466  1.4258 -0.2312
 2279TIP3    H2 6802   1.666   4.755   4.548 -1.3236 -2.1726 -0.3471
 2280TIP3   OH2 6803   5.031   0.990   3.448 -0.1989 -0.2240  0.1772
 2280TIP3    H1 6804   4.969   0.983   3.376 -0.5816  0.7489  0.4007
 2280TIP3    H2 6805   5.111   1.026   3.408 -0.4711  0.4874  0.2654
 2281TIP3   OH2 6806   0.114   5.390   1.359 -0.3462 -1.1010 -0.0205
 2281TIP3    H1 6807   0.113   5.454   1.287  1.7623  0.2725  1.0591
 2281TIP3    H2 6808   0.039   5.415   1.413  0.6799  0.8602  0.6158
 2282TIP3   OH2 6809   0.017   5.901   0.057 -0.3090  0.8562 -0.2922
 2282TIP3    H1 6810  -0.052   5.872  -0.003  1.3412 -2.2136 -0.8850
 2282TIP3    H2 6811   0.089   5.927   0.000  0.8920 -1.0919  0.2340
 2283TIP3   OH2 6812   4.602   5.076   0.989  0.7774 -0.0996  0.4904
 2283TIP3    H1 6813   4.670   5.014   1.016  1.5899  0.1831 -0.8147
 2283TIP3    H2 6814   4.650   5.154   0.960  0.0063 -0.2570 -1.4005
 2284TIP3   OH2 6815   2.961   2.228   1.147 -0.3247 -0.5737  0.1558
 2284TIP3    H1 6816   2.954   2.135   1.169  2.4146 -0.6813  0.8677
 2284TIP3    H2 6817   3.055   2.244   1.138 -0.6480  2.3157  0.8915
 2285TIP3   OH2 6818   6.437   0.924   1.946 -0.2476  0.0894 -0.9671
 2285TIP3    H1 6819   6.380   0.909   2.022  0.9270 -1.0337 -0.2850
 2285TIP3    H2 6820   6.411   1.011   1.914 -0.2608  0.9428  1.1853
 2286TIP3   OH2 6821   4.313   0.025   5.357 -0.0875  0.1856  0.1988
 2286TIP3    H1 6822   4.345  -0.030   5.428  1.2687  0.1196 -0.4330
 2286TIP3    H2 6823   4.285   0.106   5.399 -0.1829 -0.2111  0.9078
 2287TIP3   OH2 6824   5.825   3.768   4.468  0.3708  0.4297  0.1900
 2287TIP3    H1 6825   5.911   3.754   4.508  0.4287  0.2035 -0.0115
 2287TIP3    H2 6826   5.844   3.805   4.382  0.2507  0.8053  0.3247
 2288TIP3   OH2 6827   3.640   2.085   3.677  0.1275 -0.5423 -0.1984
 2288TIP3    H1 6828   3.684   2.151   3.624 -2.1621  1.6029  0.3353
 2288TIP3    H2 6829   3.593   2.136   3.744 -0.4707 -2.8484  1.2689
 2289TIP3   OH2 6830   5.220   6.700   1.318 -0.5677 -0.0264 -0.9078
 2289TIP3    H1 6831   5.290   6.664   1.263 -0.8123  0.5418 -1.6065
 2289TIP3    H2 6832   5.201   6.785   1.279 -0.5084  0.5464  0.2741
 2290TIP3   OH2 6833   2.642   0.872   1.677  0.1695 -0.2136 -0.0221
 2290TIP3    H1 6834   2.687   0.883   1.761 -0.0218  2.6368 -0.2130
 2290TIP3    H2 6835   2.553   0.903   1.694 -0.0439 -0.2015 -1.1400
 2291TIP3   OH2 6836   6.525   1.524   2.846  0.0464  0.0741  0.5411
 2291TIP3    H1 6837   6.537   1.430   2.832  1.3613  0.1877  0.7647
 2291TIP3    H2 6838   6.582   1.544   2.921  0.8499  1.2786 -0.3539
 2292TIP3   OH2 6839   2.215   3.257   5.535  0.0847 -0.0546  0.6651
 2292TIP3    H1 6840   2.248   3.206   5.461  0.7601  2.0122 -0.5265
 2292TIP3    H2 6841   2.294   3.289   5.579 -0.2942 -1.4496  2.5056
 2293TIP3   OH2 6842   1.657   6.706   2.009  0.0088 -0.1035  0.0109
 2293TIP3    H1 6843   1.661   6.705   2.105  0.6541 -0.4754 -0.0149
 2293TIP3    H2 6844   1.713   6.633   1.982 -1.7333 -1.2641 -0.6153
 2294TIP3   OH2 6845   4.833   2.598   2.675  0.4664  0.1305  0.2537
 2294TIP3    H1 6846   4.819   2.544   2.753  0.9029 -0.4266 -0.0388
 2294TIP3    H2 6847   4.902   2.659   2.700  0.7182 -0.1513  0.2653
 2295TIP3   OH2 6848   7.030   3.948   4.335  0.0486 -0.4693  0.0133
 2295TIP3    H1 6849   7.068   3.880   4.391  0.4574  0.6260  1.1122
 2295TIP3    H2 6850   7.086   4.024   4.349  0.5635 -0.3248 -2.4238
 2296TIP3   OH2 6851   4.357   5.472   1.192 -0.9647 -0.3610 -0.0637
 2296TIP3    H1 6852   4.370   5.402   1.128 -0.0853 -0.8760  0.6413
 2296TIP3    H2 6853   4.263   5.471   1.211 -1.0127 -1.1309 -0.3201
 2297TIP3   OH2 6854  -0.005   4.836   5.492 -0.1365  0.1434 -0.5953
 2297TIP3    H1 6855   0.039   4.895   5.553 -1.6487  0.4857  0.2012
 2297TIP3    H2 6856  -0.006   4.884   5.409 -0.2292  0.7111 -0.2702
 2298TIP3   OH2 6857   7.189   5.699   0.967 -0.3307  0.1270 -0.0010
 2298TIP3    H1 6858   7.114   5.687   0.909 -1.2330  1.9603  0.6960
 2298TIP3    H2 6859   7.262   5.719   0.908 -0.9921  0.9062 -0.5804
 2299TIP3   OH2 6860   5.323   2.773   5.667 -0.4791  0.1851 -0.0084
 2299TIP3    H1 6861   5.353   2.736   5.750 -0.9167 -1.4456 -0.5433
 2299TIP3    H2 6862   5.280   2.701   5.622  1.8248  0.3106 -2.7212
 2300TIP3   OH2 6863   6.612   6.752   1.696 -0.3213 -0.7477  0.0053
 2300TIP3    H1 6864   6.650   6.703   1.623  1.2477  1.8031 -1.0248
 2300TIP3    H2 6865   6.554   6.815   1.656  0.2317  0.4107  0.9567
 2301TIP3   OH2 6866   6.665   3.120   2.009 -0.2004  0.3037  0.6229
 2301TIP3    H1 6867   6.694   3.041   2.055  0.7836  1.1876  1.5723
 2301TIP3    H2 6868   6.573   3.129   2.032  0.2574  0.6987  2.4257
 2302TIP3   OH2 6869   5.653   2.396   4.154 -0.1100  0.4257  0.4641
 2302TIP3    H1 6870   5.688   2.340   4.223  1.3454 -0.6815 -1.0675
 2302TIP3    H2 6871   5.558   2.395   4.168  0.1850  0.8726  2.8564
 2303TIP3   OH2 6872   1.229   4.691   5.801  0.1571 -0.0006 -0.0039
 2303TIP3    H1 6873   1.229   4.757   5.871 -2.2450  0.1459 -0.0751
 2303TIP3    H2 6874   1.233   4.607   5.847 -1.4297  0.0934  0.3738
 2304TIP3   OH2 6875   0.735   2.604   0.642 -0.8628 -0.1373  0.2667
 2304TIP3    H1 6876   0.710   2.533   0.702 -2.1843  0.7681  0.8306
 2304TIP3    H2 6877   0.724   2.684   0.694  0.8334  0.4939 -0.2851
 2305TIP3   OH2 6878   6.107   0.674   0.597 -0.2800  0.3012 -0.6974
 2305TIP3    H1 6879   6.094   0.745   0.534 -0.4113  0.1833 -0.8038
 2305TIP3    H2 6880   6.081   0.595   0.549  0.8292  0.0571 -0.9346
 2306TIP3   OH2 6881   2.555   0.333   1.267 -0.3248  0.2400 -0.4002
 2306TIP3    H1 6882   2.530   0.269   1.334 -0.1462  1.3256  0.7495
 2306TIP3    H2 6883   2.493   0.320   1.196 -0.9140 -0.5224  0.2398
 2307TIP3   OH2 6884   1.555   5.481   0.291  0.0094 -0.5191 -0.1615
 2307TIP3    H1 6885   1.590   5.409   0.343  2.3753 -0.5984 -1.6740
 2307TIP3    H2 6886   1.597   5.471   0.205 -2.7793  0.2904 -1.7430
 2308TIP3   OH2 6887   4.432   5.467   2.127  0.1760 -0.3260 -0.5198
 2308TIP3    H1 6888   4.421   5.408   2.053 -0.6977 -0.2764 -0.4429
 2308TIP3    H2 6889   4.512   5.437   2.170 -0.2692 -1.4833 -0.4639
 2309TIP3   OH2 6890   1.864   6.585   0.786 -0.0489 -0.1323  0.0600
 2309TIP3    H1 6891   1.864   6.630   0.701 -0.2048 -1.0711 -0.4532
 2309TIP3    H2 6892   1.816   6.503   0.769  0.5001 -0.6334  0.8916
 2310TIP3   OH2 6893   3.597   1.817   0.659 -0.0664 -0.1208  0.0586
 2310TIP3    H1 6894   3.508   1.803   0.626 -0.5941  1.0299  0.9373
 2310TIP3    H2 6895   3.586   1.847   0.749  1.2408 -0.3613  0.3285
 2311TIP3   OH2 6896   4.125   2.822   3.712  0.0255  0.1638 -0.4661
 2311TIP3    H1 6897   4.220   2.813   3.721 -0.1258 -2.1041 -0.6812
 2311TIP3    H2 6898   4.106   2.910   3.747  2.1383  0.5229 -0.1007
 2312TIP3   OH2 6899   2.668   1.604   2.388 -0.0103  0.4572 -0.1871
 2312TIP3    H1 6900   2.578   1.606   2.421  0.6470 -0.9434  1.9478
 2312TIP3    H2 6901   2.678   1.686   2.340 -1.9527  1.3828  0.8749
 2313TIP3   OH2 6902   5.140   5.594   4.036 -0.0496  0.4247  0.6106
 2313TIP3    H1 6903   5.227   5.580   4.000 -0.0060  1.6754  0.1691
 2313TIP3    H2 6904   5.099   5.507   4.035  0.9517 -0.0539  0.1910
 2314TIP3   OH2 6905   2.446   0.104   3.921  0.0236 -0.1504  0.5171
 2314TIP3    H1 6906   2.434   0.120   4.014 -0.1628 -1.4949  0.7496
 2314TIP3    H2 6907   2.385   0.033   3.901 -0.1014  0.2769 -0.6765
 2315TIP3   OH2 6908   2.684   3.489   4.240  0.0723  0.4387  0.4668
 2315TIP3    H1 6909   2.669   3.583   4.254 -0.1212  0.5581 -0.4501
 2315TIP3    H2 6910   2.596   3.451   4.240 -0.0084  0.5807 -1.2444
 2316TIP3   OH2 6911   1.697   3.333   4.936 -0.1834 -0.7465  0.2048
 2316TIP3    H1 6912   1.686   3.344   5.031  0.9101  0.0081  0.2657
 2316TIP3    H2 6913   1.781   3.287   4.927  0.0235 -0.2633 -0.4067
 2317TIP3   OH2 6914   6.250   1.053   0.668  0.1065 -0.2236 -0.3885
 2317TIP3    H1 6915   6.316   0.987   0.685  0.6661  0.4623  0.1498
 2317TIP3    H2 6916   6.217   1.078   0.755 -0.1262  0.1766 -0.5870
 2318TIP3   OH2 6917   4.249   6.552   3.375  0.6259 -0.6055 -0.3244
 2318TIP3    H1 6918   4.333   6.598   3.375 -0.2896  1.1837 -2.0122
 2318TIP3    H2 6919   4.269   6.467   3.336  1.7014 -0.3338 -0.4079
 2319TIP3   OH2 6920   1.176   3.455   1.845 -0.1614 -0.4057 -0.3865
 2319TIP3    H1 6921   1.249   3.470   1.905 -0.1542  2.6426 -0.9844
 2319TIP3    H2 6922   1.213   3.402   1.775  0.5843 -1.5859  0.8449
 2320TIP3   OH2 6923   5.661   4.018   2.132 -0.2054  0.1704 -0.6025
 2320TIP3    H1 6924   5.639   4.087   2.195 -0.3153 -0.1333 -0.3065
 2320TIP3    H2 6925   5.706   3.952   2.183 -0.1273  0.0051 -0.8826
 2321TIP3   OH2 6926   1.321   5.229   4.089 -0.4367  0.1112  0.6724
 2321TIP3    H1 6927   1.328   5.247   4.182  0.0836  1.1414  0.4427
 2321TIP3    H2 6928   1.359   5.306   4.046 -1.6781  0.1719 -0.4052
 2322TIP3   OH2 6929   6.145   3.687   3.283 -0.2124  0.3736 -0.5146
 2322TIP3    H1 6930   6.160   3.667   3.191 -1.5936  0.0079 -0.6683
 2322TIP3    H2 6931   6.069   3.745   3.283 -1.7544 -1.5442  0.5332
 2323TIP3   OH2 6932   3.909   0.587   0.381 -0.4676 -0.0407  0.6776
 2323TIP3    H1 6933   3.822   0.625   0.373 -0.4290  0.1539  1.1511
 2323TIP3    H2 6934   3.963   0.637   0.321 -0.1237  1.5563  2.2455
 2324TIP3   OH2 6935   5.852   3.149   3.610 -0.2298  0.1670  0.1526
 2324TIP3    H1 6936   5.937   3.193   3.619 -0.3515  0.9007 -1.8350
 2324TIP3    H2 6937   5.846   3.093   3.687  1.5230  0.9929  0.9465
 2325TIP3   OH2 6938   3.108   5.948   1.857  0.0715 -0.0421 -0.4580
 2325TIP3    H1 6939   3.164   5.892   1.803 -0.5432 -0.3382 -0.8071
 2325TIP3    H2 6940   3.089   5.895   1.934 -0.7608 -0.4603 -0.9281
 2326TIP3   OH2 6941   1.383   5.042   4.559  0.0810 -0.4199  0.2047
 2326TIP3    H1 6942   1.293   5.011   4.555 -0.3573  0.6201  1.3209
 2326TIP3    H2 6943   1.433   4.965   4.586 -0.2332 -1.3508 -1.6859
 2327TIP3   OH2 6944   2.681   4.561   3.877  0.0902  0.1997  0.1039
 2327TIP3    H1 6945   2.644   4.580   3.791  2.0058  0.8853 -0.6070
 2327TIP3    H2 6946   2.671   4.466   3.886 -1.5778  0.3174 -0.1429
 2328TIP3   OH2 6947   5.363   6.480   0.570  0.0457 -0.0766  0.2526
 2328TIP3    H1 6948   5.319   6.498   0.487 -0.5491 -1.5954  0.1992
 2328TIP3    H2 6949   5.428   6.414   0.549 -0.5300 -0.9342  1.0885
 2329TIP3   OH2 6950   4.436   1.881   2.761  0.2398  0.6784 -0.2453
 2329TIP3    H1 6951   4.429   1.898   2.667 -2.1173  0.4474 -0.1628
 2329TIP3    H2 6952   4.347   1.890   2.794  0.7182 -0.9947  1.6886
 2330TIP3   OH2 6953   5.086   6.529   2.471 -0.0505 -0.0731  0.4049
 2330TIP3    H1 6954   5.062   6.566   2.386  0.2938 -1.1670 -0.1903
 2330TIP3    H2 6955   5.150   6.591   2.507 -0.9090  0.8944  0.3191
 2331TIP3   OH2 6956   2.177   2.653   2.544 -0.4038  0.3335 -0.1690
 2331TIP3    H1 6957   2.206   2.744   2.541 -1.1971  0.8747  3.4175
 2331TIP3    H2 6958   2.093   2.653   2.499 -0.2024  1.2682 -0.5818
 2332TIP3   OH2 6959   1.474   6.428   3.947 -0.7352 -0.1910  0.0487
 2332TIP3    H1 6960   1.531   6.367   3.994 -0.5591 -0.9940 -1.1548
 2332TIP3    H2 6961   1.387   6.414   3.984 -1.0056 -2.3448 -1.2562
 2333TIP3   OH2 6962   3.210   6.381   5.470  0.3782  0.2699 -0.5293
 2333TIP3    H1 6963   3.126   6.416   5.498  0.6073  1.7047 -1.5056
 2333TIP3    H2 6964   3.188   6.306   5.414 -0.2298  0.3091 -0.3422
 2334TIP3   OH2 6965   1.757   5.701   5.180 -0.4009  0.3616  0.4209
 2334TIP3    H1 6966   1.809   5.704   5.100 -1.0031 -0.9330 -0.0355
 2334TIP3    H2 6967   1.715   5.615   5.179 -0.2651  0.2339  2.2371
 2335TIP3   OH2 6968   0.450   4.630   5.831 -0.3004 -0.7920 -0.0708
 2335TIP3    H1 6969   0.418   4.620   5.921  0.9186  0.1803  0.4940
 2335TIP3    H2 6970   0.446   4.724   5.814 -1.2479 -1.0281 -1.3417
 2336TIP3   OH2 6971   1.126   3.623   3.698  0.0921  0.2020  0.1353
 2336TIP3    H1 6972   1.151   3.663   3.614 -0.0110 -0.7219 -0.3428
 2336TIP3    H2 6973   1.091   3.697   3.749  1.4338  1.0376 -0.1041
 2337TIP3   OH2 6974   5.455   4.358   0.720 -0.2243  0.0407  0.0911
 2337TIP3    H1 6975   5.527   4.361   0.657 -0.7287 -0.4628 -0.5162
 2337TIP3    H2 6976   5.437   4.265   0.733 -0.9834  0.1647 -0.0216
 2338TIP3   OH2 6977   1.033   5.542   4.795 -0.1631 -0.5727 -0.0372
 2338TIP3    H1 6978   1.044   5.498   4.879  1.8639  1.0853  0.6313
 2338TIP3    H2 6979   1.122   5.552   4.761 -0.9005 -0.6735 -2.1165
 2339TIP3   OH2 6980   2.957   5.388   3.797  0.2438  0.1019  1.0942
 2339TIP3    H1 6981   2.914   5.470   3.823  0.0730  0.3179  0.1452
 2339TIP3    H2 6982   2.886   5.323   3.797 -0.8875  1.0103 -3.3202
 2340TIP3   OH2 6983   5.605   3.469   0.918  0.0344  0.3099 -0.3997
 2340TIP3    H1 6984   5.696   3.445   0.904 -0.1257 -1.9321  1.8579
 2340TIP3    H2 6985   5.554   3.400   0.876 -0.5471 -0.0732  0.8792
 2341TIP3   OH2 6986   5.243   6.412   2.699  0.0731 -0.4047 -0.9623
 2341TIP3    H1 6987   5.329   6.411   2.658  0.2377 -2.9934 -0.7587
 2341TIP3    H2 6988   5.183   6.438   2.629  0.7286 -1.4821 -1.9663
 2342TIP3   OH2 6989   2.097   3.636   1.618 -0.1903  0.6705 -0.2759
 2342TIP3    H1 6990   2.020   3.579   1.611 -0.1084  0.3575  1.1739
 2342TIP3    H2 6991   2.069   3.718   1.579 -0.7054  0.0376 -1.2924
 2343TIP3   OH2 6992   5.139   1.505   0.560 -0.0529  0.1254 -0.1230
 2343TIP3    H1 6993   5.156   1.593   0.525  1.9148 -0.6367 -1.2229
 2343TIP3    H2 6994   5.184   1.446   0.500 -0.3823 -1.5760  1.2334
 2344TIP3   OH2 6995   2.271   5.153   2.572  0.4062 -0.4517 -0.2721
 2344TIP3    H1 6996   2.234   5.071   2.539  2.1228 -0.6949 -1.7669
 2344TIP3    H2 6997   2.356   5.160   2.529  1.1117  1.2067  1.2549
 2345TIP3   OH2 6998   1.512   4.611   2.460  0.2693  0.4013 -0.2230
 2345TIP3    H1 6999   1.594   4.622   2.508  0.7446  1.8882 -1.3142
 2345TIP3    H2 7000   1.483   4.701   2.441 -1.1091 -0.1196 -0.7186
 2346TIP3   OH2 7001   4.513   5.661   4.023 -0.0421  0.2135  0.7659
 2346TIP3    H1 7002   4.551   5.615   3.948  1.4863  1.3888  0.7606
 2346TIP3    H2 7003   4.428   5.692   3.992  0.8395  1.2632 -0.7675
 2347TIP3   OH2 7004   4.716   1.834   1.286 -0.3646 -0.0242  0.1706
 2347TIP3    H1 7005   4.643   1.856   1.228 -0.1062  1.5288  0.3969
 2347TIP3    H2 7006   4.674   1.811   1.369 -0.5983  1.7012  0.5644
 2348TIP3   OH2 7007   0.332   1.196   4.617 -0.2879 -0.1725  0.0282
 2348TIP3    H1 7008   0.417   1.228   4.587 -0.8636  1.3707 -0.0366
 2348TIP3    H2 7009   0.286   1.274   4.649 -1.8188 -0.9028 -0.2625
 2349TIP3   OH2 7010   6.894   4.117   1.160  0.0457  0.1742 -0.1132
 2349TIP3    H1 7011   6.881   4.206   1.194 -0.4309  0.5584 -1.2705
 2349TIP3    H2 7012   6.862   4.060   1.230  0.5827  0.8929  0.7479
 2350TIP3   OH2 7013   4.588   3.331   2.939  1.0467  0.3920  0.0491
 2350TIP3    H1 7014   4.640   3.345   2.860 -1.1554  0.4510 -1.4808
 2350TIP3    H2 7015   4.564   3.419   2.968  0.1735  0.3210 -0.4285
 2351TIP3   OH2 7016   0.328   6.098   1.224 -0.1974 -0.6360 -0.0387
 2351TIP3    H1 7017   0.373   6.031   1.275 -0.8588  0.0779  1.5434
 2351TIP3    H2 7018   0.371   6.180   1.249 -2.2949  0.0720  1.5224
 2352TIP3   OH2 7019   5.637   2.755   5.235  0.4122 -0.3241 -0.4957
 2352TIP3    H1 7020   5.727   2.763   5.263  0.2475  2.0235 -0.4774
 2352TIP3    H2 7021   5.585   2.781   5.311 -0.2169 -0.0775 -0.9979
 2353TIP3   OH2 7022   1.792   6.001   0.264 -0.1342 -0.1431  0.6868
 2353TIP3    H1 7023   1.869   6.022   0.317  0.8025  0.3300 -0.8189
 2353TIP3    H2 7024   1.724   6.060   0.298  1.0469  1.7273 -0.0204
 2354TIP3   OH2 7025   0.399   3.223   3.493  0.1447 -0.3171  0.4980
 2354TIP3    H1 7026   0.429   3.235   3.583  0.5044  1.2128  0.2011
 2354TIP3    H2 7027   0.319   3.170   3.502 -0.6427  0.9915  1.8629
 2355TIP3   OH2 7028   3.301   2.464   1.276 -0.0574  0.1664 -0.0785
 2355TIP3    H1 7029   3.294   2.551   1.236  1.0668  1.0038  1.4737
 2355TIP3    H2 7030   3.252   2.407   1.216  0.4813  1.5637 -1.9611
 2356TIP3   OH2 7031   3.977   5.968   2.588 -0.0360 -0.0191  0.3691
 2356TIP3    H1 7032   3.932   5.919   2.519  1.6165  0.0871 -0.8632
 2356TIP3    H2 7033   4.028   6.034   2.541  0.2084  0.8507  1.7961
 2357TIP3   OH2 7034   4.278   5.762   1.176  0.3912  0.0385  0.2022
 2357TIP3    H1 7035   4.358   5.809   1.195 -0.8327  1.4508  2.2488
 2357TIP3    H2 7036   4.249   5.728   1.261 -1.7207  0.5234 -0.2691
 2358TIP3   OH2 7037   4.889   3.300   3.805  0.4878  0.6286 -0.0573
 2358TIP3    H1 7038   4.820   3.344   3.755  0.9529 -0.1123 -1.4007
 2358TIP3    H2 7039   4.895   3.350   3.887 -0.9240  1.3227 -0.3457
 2359TIP3   OH2 7040   0.110   6.172   2.965  0.3786  0.2063 -0.5818
 2359TIP3    H1 7041   0.078   6.260   2.984  3.0884  0.9263  1.1213
 2359TIP3    H2 7042   0.101   6.125   3.048  1.4741 -0.2655 -0.7182
 2360TIP3   OH2 7043   2.691   6.105   1.328 -0.0896  0.2855 -0.4586
 2360TIP3    H1 7044   2.699   6.087   1.234 -3.0778 -0.2446 -0.7280
 2360TIP3    H2 7045   2.627   6.040   1.359  0.1153  1.0675  1.7531
 2361TIP3   OH2 7046   4.267   2.657   4.430 -0.6318 -0.5267 -0.2667
 2361TIP3    H1 7047   4.334   2.678   4.365 -0.4540 -1.5610 -0.4379
 2361TIP3    H2 7048   4.207   2.732   4.428  1.3484  1.2146  1.0392
 2362TIP3   OH2 7049   4.009   5.487   4.750  0.5918  0.1396 -0.3624
 2362TIP3    H1 7050   3.963   5.450   4.675  0.3718  0.1208 -0.2176
 2362TIP3    H2 7051   4.008   5.417   4.816  0.3518  0.3311 -0.1622
 2363TIP3   OH2 7052   6.569   3.828   4.262 -0.0438 -0.1357 -0.2219
 2363TIP3    H1 7053   6.631   3.843   4.190 -0.2348 -1.2184 -0.6281
 2363TIP3    H2 7054   6.618   3.778   4.327  0.4589  1.7497  0.9363
 2364TIP3   OH2 7055   1.935   6.590   4.131 -0.4038  0.3520 -0.1788
 2364TIP3    H1 7056   1.909   6.501   4.108 -1.8862  0.1901  1.8433
 2364TIP3    H2 7057   1.925   6.639   4.050 -2.7053 -0.6943 -0.6142
 2365TIP3   OH2 7058   2.574   3.107   2.454 -0.0772 -0.4715  0.0568
 2365TIP3    H1 7059   2.540   3.051   2.523  0.7003 -0.9615  0.0611
 2365TIP3    H2 7060   2.627   3.049   2.399  1.3130  0.3519  0.4450
 2366TIP3   OH2 7061   3.992   5.015   0.974 -0.0234 -0.0569  0.0226
 2366TIP3    H1 7062   3.998   5.089   1.035 -2.2665  0.4375 -0.2946
 2366TIP3    H2 7063   4.017   5.052   0.889  0.7265 -0.1607  0.1875
 2367TIP3   OH2 7064   4.982   5.340   1.399  0.7653 -0.0994  0.3351
 2367TIP3    H1 7065   4.990   5.245   1.388 -0.7694 -0.3067  0.7899
 2367TIP3    H2 7066   5.053   5.376   1.346  1.9347 -1.5205  0.8730
 2368TIP3   OH2 7067   6.525   4.549   5.202  0.4359 -0.4525  0.3822
 2368TIP3    H1 7068   6.555   4.607   5.131 -2.4318  0.6900 -0.0169
 2368TIP3    H2 7069   6.440   4.516   5.172  0.4294 -2.1758  2.1278
 2369TIP3   OH2 7070   5.839   1.672   5.468  0.2776 -0.4514 -0.4269
 2369TIP3    H1 7071   5.772   1.622   5.421  0.7903 -0.5273 -1.0911
 2369TIP3    H2 7072   5.801   1.688   5.554 -1.2598  0.8942 -1.3162
 2370TIP3   OH2 7073   2.161   0.496   1.772  0.5080  0.3788  0.1535
 2370TIP3    H1 7074   2.084   0.440   1.761 -0.2760  0.9717  2.2035
 2370TIP3    H2 7075   2.199   0.501   1.684 -1.2237 -0.7314 -0.7257
 2371TIP3   OH2 7076   1.926   4.865   3.804  0.4572 -0.4439 -0.6903
 2371TIP3    H1 7077   1.887   4.952   3.790  0.6175 -0.3633 -0.6321
 2371TIP3    H2 7078   1.878   4.830   3.879 -0.2872 -0.8076 -1.3175
 2372TIP3   OH2 7079   0.706   2.643   0.208 -0.4519  0.3812  0.8467
 2372TIP3    H1 7080   0.635   2.640   0.144 -0.7651 -0.8320  1.2258
 2372TIP3    H2 7081   0.738   2.553   0.213  0.4510  0.7185  1.4279
 2373TIP3   OH2 7082   1.440   1.860   5.508 -0.2784 -0.0962 -0.3127
 2373TIP3    H1 7083   1.487   1.917   5.447  2.2204  1.5293  2.8198
 2373TIP3    H2 7084   1.488   1.777   5.505 -0.7209 -0.3318 -1.1482
 2374TIP3   OH2 7085   5.279   5.058   3.893 -0.4362 -0.4567  0.3113
 2374TIP3    H1 7086   5.312   4.972   3.865 -0.0114  0.3380 -1.8140
 2374TIP3    H2 7087   5.207   5.077   3.834  0.9783  1.6358 -0.8954
 2375TIP3   OH2 7088   5.151   0.642   3.249  0.0699  0.1603  0.1069
 2375TIP3    H1 7089   5.101   0.619   3.170  2.3361 -0.2986 -1.2859
 2375TIP3    H2 7090   5.193   0.560   3.275 -0.2620  0.4224  1.5500
 2376TIP3   OH2 7091   0.070   0.719   4.700  0.4171 -0.0008  0.1348
 2376TIP3    H1 7092   0.134   0.788   4.720  0.9801 -0.7645  1.0566
 2376TIP3    H2 7093   0.048   0.733   4.608  2.7237 -0.3134 -0.5432
 2377TIP3   OH2 7094   1.999   3.020   1.014  0.1257  0.3723  0.2686
 2377TIP3    H1 7095   1.975   3.011   0.922 -0.3585 -0.9345  0.5087
 2377TIP3    H2 7096   2.093   3.003   1.016  0.0670  0.0237  0.0662
 2378TIP3   OH2 7097   0.878   1.859   2.127  0.2681  0.3686  0.3509
 2378TIP3    H1 7098   0.895   1.891   2.215  0.0405 -0.1996  0.6094
 2378TIP3    H2 7099   0.925   1.920   2.069  1.8396 -0.2264  0.9429
 2379TIP3   OH2 7100   0.992   3.488   4.951 -0.3198  0.6244 -0.0190
 2379TIP3    H1 7101   0.961   3.573   4.982  0.5476  0.4724  1.3482
 2379TIP3    H2 7102   0.983   3.430   5.027 -2.7999 -1.0794 -1.4465
 2380TIP3   OH2 7103   3.274   0.114   1.659  0.0514 -0.0339  0.1326
 2380TIP3    H1 7104   3.306   0.024   1.655  1.0467  0.3615 -1.4458
 2380TIP3    H2 7105   3.256   0.138   1.568 -1.2000  1.0297  0.6202
 2381TIP3   OH2 7106   5.785   3.817   2.360 -0.2207  0.2472 -0.7107
 2381TIP3    H1 7107   5.714   3.774   2.407  1.6345 -0.9050  1.2404
 2381TIP3    H2 7108   5.805   3.759   2.286  1.1812 -1.5788  0.9759
 2382TIP3   OH2 7109   0.108   1.684   1.214 -0.3647 -0.0537 -0.2674
 2382TIP3    H1 7110   0.149   1.618   1.159 -0.1609  0.5589 -0.8769
 2382TIP3    H2 7111   0.181   1.729   1.257 -0.5431 -2.2773  2.7302
 2383TIP3   OH2 7112   0.894   3.939   3.517  0.1301 -0.2159 -0.0209
 2383TIP3    H1 7113   0.968   3.969   3.570 -1.2546 -0.1640  1.9945
 2383TIP3    H2 7114   0.876   3.850   3.549 -0.6441 -0.2466 -0.5116
 2384TIP3   OH2 7115   3.121   0.825   1.132 -0.5912  0.0461  0.4590
 2384TIP3    H1 7116   3.116   0.915   1.099  0.6066  0.1904  0.6128
 2384TIP3    H2 7117   3.179   0.780   1.071  2.4301  0.5424  2.7195
 2385TIP3   OH2 7118   6.746   2.391   4.722  0.2612 -0.1831 -0.3550
 2385TIP3    H1 7119   6.823   2.336   4.740  1.9073  1.7554 -1.0015
 2385TIP3    H2 7120   6.760   2.422   4.633 -0.5283  1.3577  0.0267
 2386TIP3   OH2 7121   3.997   6.220   3.747 -0.0309 -0.3295 -0.9741
 2386TIP3    H1 7122   4.074   6.233   3.802 -0.0314  3.1162 -1.5528
 2386TIP3    H2 7123   3.928   6.195   3.808  0.4120  1.5534  0.4028
 2387TIP3   OH2 7124   6.068   0.724   3.076  0.5012  0.0225 -0.7266
 2387TIP3    H1 7125   6.161   0.701   3.082  0.7336  1.2249  1.3395
 2387TIP3    H2 7126   6.025   0.643   3.049  1.8913 -1.3110  0.8010
 2388TIP3   OH2 7127   2.416   4.190   2.178 -0.3789 -0.0632 -0.0082
 2388TIP3    H1 7128   2.323   4.183   2.199 -0.4915 -0.2860 -0.5554
 2388TIP3    H2 7129   2.446   4.268   2.225 -0.4319 -0.9767  1.5787
 2389TIP3   OH2 7130   4.281   4.575   2.446 -0.0019 -0.0637 -0.5840
 2389TIP3    H1 7131   4.196   4.535   2.463 -0.4193  0.9384 -0.2674
 2389TIP3    H2 7132   4.336   4.546   2.519 -0.7003  1.0660  0.4131
 2390TIP3   OH2 7133   3.117   2.600   3.555 -0.3406  0.6782  0.0362
 2390TIP3    H1 7134   3.162   2.664   3.500 -0.7212  1.2202  0.3340
 2390TIP3    H2 7135   3.113   2.521   3.503  2.0599  0.2123  0.4806
 2391TIP3   OH2 7136   3.038   3.537   3.390  0.4548 -0.3541 -0.3851
 2391TIP3    H1 7137   2.947   3.535   3.360 -0.5070 -1.3344  2.2647
 2391TIP3    H2 7138   3.033   3.514   3.483  3.2674  1.1265  0.2666
 2392TIP3   OH2 7139   6.169   2.014   3.134 -0.0145  0.3343 -0.0093
 2392TIP3    H1 7140   6.257   2.019   3.097 -0.0759 -1.9627 -0.6077
 2392TIP3    H2 7141   6.169   1.934   3.187 -1.7170  0.3194  0.0365
 2393TIP3   OH2 7142   6.441   5.973   0.777 -0.3718 -0.3807 -0.6822
 2393TIP3    H1 7143   6.452   6.032   0.851 -0.8970 -0.2621 -0.6945
 2393TIP3    H2 7144   6.525   5.928   0.769 -0.4166 -0.6381  0.1966
 2394TIP3   OH2 7145   1.041   1.472   0.813 -0.2072  0.1973 -0.0797
 2394TIP3    H1 7146   0.951   1.503   0.806 -0.1472  0.7156  1.1866
 2394TIP3    H2 7147   1.053   1.453   0.906  1.0783  0.4179 -0.1815
 2395TIP3   OH2 7148   6.514   1.545   0.297  0.7468 -0.2524  0.2353
 2395TIP3    H1 7149   6.515   1.450   0.308 -0.7787 -0.4761 -1.1839
 2395TIP3    H2 7150   6.509   1.580   0.386  1.0946 -1.4979  0.7635
 2396TIP3   OH2 7151   2.335   4.562   2.163 -0.1668  0.0428 -0.2267
 2396TIP3    H1 7152   2.284   4.510   2.101  0.3506  0.5451 -1.0857
 2396TIP3    H2 7153   2.321   4.519   2.247 -1.0437 -0.5286 -0.6515
 2397TIP3   OH2 7154   2.081   6.005   5.402  0.6917 -0.0033 -0.5451
 2397TIP3    H1 7155   1.989   5.979   5.413  1.0905 -1.6406 -0.8081
 2397TIP3    H2 7156   2.116   6.005   5.491  0.6489 -0.2017 -0.5277
 2398TIP3   OH2 7157   0.522   2.645   0.452  0.3937  0.5607 -0.1703
 2398TIP3    H1 7158   0.596   2.611   0.503 -0.7898 -0.5033  0.8964
 2398TIP3    H2 7159   0.559   2.662   0.365  1.7888 -0.4218  0.1944
 2399TIP3   OH2 7160   3.254   0.174   3.565  0.1211 -0.5513 -0.7672
 2399TIP3    H1 7161   3.240   0.091   3.519 -0.3295 -0.7783 -0.2192
 2399TIP3    H2 7162   3.300   0.150   3.645  2.9769  0.0671 -2.0737
 2400TIP3   OH2 7163   4.115   1.299   1.364 -0.1503 -0.1880 -0.6864
 2400TIP3    H1 7164   4.133   1.335   1.277 -1.7628  0.4605 -0.7743
 2400TIP3    H2 7165   4.153   1.362   1.425 -2.3209  1.4140 -0.8565
 2401TIP3   OH2 7166   2.044   4.330   4.010 -0.1057  0.0647 -0.2771
 2401TIP3    H1 7167   1.995   4.249   4.022  1.2504 -1.0653 -1.9361
 2401TIP3    H2 7168   2.046   4.370   4.098  1.5196 -3.0923  1.2974
 2402TIP3   OH2 7169   0.032   5.625   1.228  0.3938 -0.5193  0.6217
 2402TIP3    H1 7170   0.074   5.711   1.234  2.5359 -1.4738 -0.0533
 2402TIP3    H2 7171   0.017   5.613   1.134 -0.3225 -0.7047  0.7545
 2403TIP3   OH2 7172   2.153   0.652   5.292  0.0004 -0.2225 -0.1074
 2403TIP3    H1 7173   2.246   0.643   5.272  0.0404 -0.0040 -0.0310
 2403TIP3    H2 7174   2.116   0.698   5.217 -0.0352 -0.2608 -0.1131
 2404TIP3   OH2 7175   6.362   0.817   3.274 -0.1670 -0.5107  0.3408
 2404TIP3    H1 7176   6.383   0.753   3.206  0.2055  0.2808 -0.3071
 2404TIP3    H2 7177   6.439   0.818   3.331  0.5681  0.5992 -0.6334
 2405TIP3   OH2 7178   4.467   3.812   0.248  0.1172 -0.1118 -0.2923
 2405TIP3    H1 7179   4.444   3.738   0.192  0.1853 -1.0189  0.8545
 2405TIP3    H2 7180   4.560   3.825   0.235 -0.1567  0.7355 -1.6007
 2406TIP3   OH2 7181   4.743   4.904   2.098 -0.1382  0.2490 -0.1747
 2406TIP3    H1 7182   4.767   4.871   2.184  1.3352 -0.3548 -0.7845
 2406TIP3    H2 7183   4.823   4.897   2.046 -1.1344  0.0096 -1.7611
 2407TIP3   OH2 7184   2.464   2.975   0.348 -0.4523 -0.1451 -0.0621
 2407TIP3    H1 7185   2.547   2.929   0.353 -0.2657 -0.1169 -1.9903
 2407TIP3    H2 7186   2.413   2.926   0.283 -0.9764  1.2516 -0.7551
 2408TIP3   OH2 7187   4.343   6.175   2.757 -0.2214 -0.1820 -0.3745
 2408TIP3    H1 7188   4.323   6.194   2.666 -1.7609  0.9407  0.1553
 2408TIP3    H2 7189   4.378   6.258   2.791 -3.0114  0.5790  0.9065
 2409TIP3   OH2 7190   6.165   1.834   3.354 -0.2044  0.3385 -0.4444
 2409TIP3    H1 7191   6.081   1.814   3.396  0.2094  2.2425  1.4664
 2409TIP3    H2 7192   6.219   1.757   3.371 -0.6471  0.3117  0.9639
 2410TIP3   OH2 7193   2.707   5.438   4.659  0.7308  0.3187 -0.0323
 2410TIP3    H1 7194   2.673   5.397   4.739 -1.2597 -0.3689 -1.1749
 2410TIP3    H2 7195   2.643   5.416   4.591  2.4678  0.7143 -1.8853
 2411TIP3   OH2 7196   7.177   6.634   2.089  0.0793  0.1594  0.1619
 2411TIP3    H1 7197   7.125   6.554   2.090 -0.5307  0.5376  1.3738
 2411TIP3    H2 7198   7.268   6.604   2.079 -0.2517 -0.5836 -0.7103
 2412TIP3   OH2 7199   6.569   0.522   3.889  0.0572 -0.1063 -0.1891
 2412TIP3    H1 7200   6.622   0.503   3.966 -0.2208  0.1985  0.0826
 2412TIP3    H2 7201   6.480   0.498   3.915  0.1110 -0.9911 -0.7770
 2413TIP3   OH2 7202   4.690   1.694   5.216  0.3553 -0.5514  0.0504
 2413TIP3    H1 7203   4.617   1.709   5.155  0.3100 -1.4932 -0.1421
 2413TIP3    H2 7204   4.648   1.664   5.296  0.5227 -1.0362 -0.0409
 2414TIP3   OH2 7205   6.224   1.198   1.571  0.1379  0.6974  0.6471
 2414TIP3    H1 7206   6.193   1.284   1.544  0.1713 -0.1467 -2.4490
 2414TIP3    H2 7207   6.276   1.167   1.497  0.7800 -1.6856  1.9929
 2415TIP3   OH2 7208   2.301   6.695   5.162  0.2108 -0.6863  0.0715
 2415TIP3    H1 7209   2.360   6.705   5.087 -0.2021 -0.2288 -0.2018
 2415TIP3    H2 7210   2.358   6.665   5.233  0.4481 -1.9901 -0.6448
 2416TIP3   OH2 7211   3.687   2.836   0.363  0.0415 -0.0156  0.2570
 2416TIP3    H1 7212   3.711   2.825   0.455  0.1892 -0.2351  0.1917
 2416TIP3    H2 7213   3.599   2.798   0.356  0.5560 -1.1975  0.0271
 2417TIP3   OH2 7214   5.768   5.265   3.545 -0.9715  0.2663 -0.3842
 2417TIP3    H1 7215   5.761   5.305   3.632 -1.8335  0.9726 -0.7587
 2417TIP3    H2 7216   5.860   5.277   3.521 -0.9176  0.8351  0.0766
 2418TIP3   OH2 7217   5.255   2.341   2.422 -0.5033  0.2423 -0.0143
 2418TIP3    H1 7218   5.214   2.391   2.493 -2.2823 -0.7591 -0.2963
 2418TIP3    H2 7219   5.294   2.265   2.467  0.2392  0.6888  0.1247
 2419TIP3   OH2 7220   1.337   3.838   1.325 -0.0155  0.1970  0.2451
 2419TIP3    H1 7221   1.355   3.932   1.322 -0.2677  0.3200  1.8570
 2419TIP3    H2 7222   1.410   3.798   1.278  0.3333  1.1652 -0.0608
 2420TIP3   OH2 7223   7.075   5.064   1.631  0.0998  0.7627 -0.1169
 2420TIP3    H1 7224   7.054   5.012   1.709 -3.2838  3.5681  1.0777
 2420TIP3    H2 7225   7.029   5.019   1.560  1.3810 -0.5756 -0.1571
 2421TIP3   OH2 7226   2.339   4.250   0.115 -0.3033  0.9871  0.3941
 2421TIP3    H1 7227   2.371   4.252   0.025  1.3749  0.3519  0.9335
 2421TIP3    H2 7228   2.249   4.282   0.109 -0.7562 -0.4525 -1.7257
 2422TIP3   OH2 7229   5.048   1.986   0.786  0.0078  0.0734 -0.0780
 2422TIP3    H1 7230   5.110   1.934   0.838 -0.4638 -2.5999 -1.9821
 2422TIP3    H2 7231   4.971   1.993   0.842  0.0685 -1.3637  0.2295
 2423TIP3   OH2 7232   3.845   3.414   4.432 -0.2837 -0.3921  0.3850
 2423TIP3    H1 7233   3.798   3.344   4.477  0.6374 -2.2158 -1.3278
 2423TIP3    H2 7234   3.892   3.369   4.362  1.6938  1.7394  0.2512
 2424TIP3   OH2 7235   0.592   6.664   3.114 -0.5997  0.0825 -0.1664
 2424TIP3    H1 7236   0.652   6.603   3.072 -0.3733  0.1999 -0.0113
 2424TIP3    H2 7237   0.560   6.617   3.191 -0.4215  0.1613 -0.0442
 2425TIP3   OH2 7238   1.083   0.757   4.057 -0.1846 -0.3151 -0.1894
 2425TIP3    H1 7239   1.165   0.790   4.020  0.5932  1.2426  2.6612
 2425TIP3    H2 7240   1.096   0.662   4.064  1.3295 -0.0967  0.1285
 2426TIP3   OH2 7241   2.921   0.215   4.913 -0.0262  0.3292  0.3521
 2426TIP3    H1 7242   2.911   0.134   4.863 -1.6225  1.1182 -0.7406
 2426TIP3    H2 7243   2.961   0.276   4.851 -0.0630  0.7362  0.7252
 2427TIP3   OH2 7244   4.708   1.258   5.514 -0.5647  0.2695 -0.1424
 2427TIP3    H1 7245   4.792   1.289   5.480 -0.3022  0.6527  0.8282
 2427TIP3    H2 7246   4.648   1.331   5.498  0.3625  2.0346  3.4332
 2428TIP3   OH2 7247   7.129   4.198   2.664  0.2121 -0.3615  0.0349
 2428TIP3    H1 7248   7.079   4.150   2.597 -2.2120  0.7184  0.9421
 2428TIP3    H2 7249   7.188   4.134   2.701 -1.3751 -2.0986 -0.2956
 2429TIP3   OH2 7250   0.589   5.246   0.663  0.4633 -0.0838 -0.4319
 2429TIP3    H1 7251   0.587   5.233   0.568  2.5575 -2.4505 -0.2627
 2429TIP3    H2 7252   0.534   5.175   0.697 -0.6895  1.0552  0.1514
 2430TIP3   OH2 7253   2.313   6.388   4.658 -0.3681  0.9039  0.8801
 2430TIP3    H1 7254   2.278   6.453   4.598 -0.8842 -0.8844 -0.8545
 2430TIP3    H2 7255   2.237   6.358   4.707 -0.2816  0.9478  1.0436
 2431TIP3   OH2 7256   0.493   4.198   2.367  0.4609  0.2326 -0.2943
 2431TIP3    H1 7257   0.458   4.277   2.327 -2.0477 -0.3180  0.6078
 2431TIP3    H2 7258   0.451   4.126   2.319  0.5607 -0.4895  0.6657
 2432TIP3   OH2 7259   0.423   2.318   0.977  0.3501  0.2081  0.2210
 2432TIP3    H1 7260   0.366   2.391   0.953 -1.4089 -0.1402  2.9139
 2432TIP3    H2 7261   0.364   2.243   0.986  1.9435 -1.3047 -1.2821
 2433TIP3   OH2 7262   5.217   5.965   0.693 -0.3896  0.2281  0.7406
 2433TIP3    H1 7263   5.203   6.056   0.716  0.8978  0.7927 -0.5425
 2433TIP3    H2 7264   5.131   5.933   0.666 -0.3391  2.0784 -2.0209
 2434TIP3   OH2 7265   6.343   3.986   5.005 -0.0844  0.6171  0.1970
 2434TIP3    H1 7266   6.350   4.054   5.073  3.0509  1.9749 -1.3034
 2434TIP3    H2 7267   6.426   3.939   5.009  0.2497  0.7937 -2.7261
 2435TIP3   OH2 7268   3.822   1.560   0.543 -0.5131  0.1002 -0.5522
 2435TIP3    H1 7269   3.905   1.542   0.498 -0.4912  0.9507 -0.8709
 2435TIP3    H2 7270   3.821   1.499   0.617  0.7420  0.5697 -0.1270
 2436TIP3   OH2 7271   2.731   4.989   5.068  0.7627  0.4299 -0.4794
 2436TIP3    H1 7272   2.784   5.054   5.021 -0.0746  1.6513  0.2175
 2436TIP3    H2 7273   2.719   4.918   5.005  1.9226  0.8117 -1.1720
 2437TIP3   OH2 7274   6.686   2.484   2.417  0.1082  0.0518 -0.0522
 2437TIP3    H1 7275   6.777   2.509   2.399  0.9319 -1.7980  1.2413
 2437TIP3    H2 7276   6.650   2.460   2.331 -0.1317  3.4672 -1.0446
 2438TIP3   OH2 7277   6.412   4.002   0.160  0.4038  0.4761  0.2359
 2438TIP3    H1 7278   6.341   4.052   0.202  0.9026  0.4687  1.1253
 2438TIP3    H2 7279   6.492   4.044   0.193  0.8185 -0.3832  0.3356
 2439TIP3   OH2 7280   1.766   6.338   5.861 -0.5784 -0.1948 -0.1610
 2439TIP3    H1 7281   1.781   6.261   5.807  1.2000 -0.8910  1.2289
 2439TIP3    H2 7282   1.833   6.401   5.833 -0.0724 -0.3127  0.7505
 2440TIP3   OH2 7283   3.459   2.862   4.780 -0.5464 -0.1362 -0.4228
 2440TIP3    H1 7284   3.424   2.775   4.758 -3.4454  0.7865  0.1266
 2440TIP3    H2 7285   3.395   2.923   4.744  0.7516  1.7509  0.3395
 2441TIP3   OH2 7286   5.491   2.912   4.463 -0.0107  0.1663  0.4936
 2441TIP3    H1 7287   5.397   2.916   4.479  0.1601 -1.0588  2.1288
 2441TIP3    H2 7288   5.528   2.885   4.547  1.2336 -4.8116 -1.2887
 2442TIP3   OH2 7289   0.751   6.066   0.402 -0.3421 -0.4805 -0.0971
 2442TIP3    H1 7290   0.777   6.107   0.485  0.9363  1.3850 -1.3374
 2442TIP3    H2 7291   0.709   6.136   0.352 -0.0486 -1.2480 -1.4769
 2443TIP3   OH2 7292   0.591   3.434   1.619  0.2983  0.3072  0.7559
 2443TIP3    H1 7293   0.563   3.443   1.528  1.0201 -0.3981  0.4474
 2443TIP3    H2 7294   0.677   3.391   1.613  0.7298  0.9992  1.7330
 2444TIP3   OH2 7295   1.665   4.621   4.782 -0.4352 -0.0354 -0.7137
 2444TIP3    H1 7296   1.679   4.590   4.871 -1.4239 -0.2045 -0.6099
 2444TIP3    H2 7297   1.639   4.543   4.733  1.2150 -0.1801 -1.4364
 2445TIP3   OH2 7298   2.342   2.302   2.892 -0.2156  0.1010  0.0316
 2445TIP3    H1 7299   2.348   2.397   2.887 -1.5710  0.3856  2.4522
 2445TIP3    H2 7300   2.337   2.274   2.800  1.2785  2.2223 -0.7824
 2446TIP3   OH2 7301   6.096   5.863   3.218  0.0278  0.4097  0.1379
 2446TIP3    H1 7302   6.019   5.845   3.272  0.3466  0.0111  0.4579
 2446TIP3    H2 7303   6.099   5.959   3.212 -2.3449  0.4706 -2.5195
 2447TIP3   OH2 7304   0.539   0.193   1.017 -0.3044  0.1820 -0.1972
 2447TIP3    H1 7305   0.620   0.215   1.063 -0.7343  0.3840  0.4710
 2447TIP3    H2 7306   0.470   0.225   1.074 -0.8925 -0.9645 -0.2349
 2448TIP3   OH2 7307   1.799   5.695   4.239  0.2205  0.0658  0.3274
 2448TIP3    H1 7308   1.819   5.764   4.302 -0.0785  1.4549 -1.0642
 2448TIP3    H2 7309   1.871   5.699   4.175  2.0662 -3.1220  1.8990
 2449TIP3   OH2 7310   2.820  -0.025   4.507  0.1528 -0.0435 -0.5484
 2449TIP3    H1 7311   2.849   0.010   4.592  1.4337  0.4901 -1.1709
 2449TIP3    H2 7312   2.744   0.028   4.484 -2.1641 -2.1600  1.6221
 2450TIP3   OH2 7313   6.193   1.263   2.182 -0.3495 -0.0876 -0.3500
 2450TIP3    H1 7314   6.266   1.203   2.197 -0.4456  0.3061  2.1796
 2450TIP3    H2 7315   6.116   1.206   2.180 -0.3982 -0.1650  1.6442
 2451TIP3   OH2 7316   0.222   1.771   4.347 -0.0588  0.2308  0.0052
 2451TIP3    H1 7317   0.134   1.763   4.311  0.2235  0.9034 -0.8686
 2451TIP3    H2 7318   0.210   1.820   4.429 -0.6154 -0.6737  0.4851
 2452TIP3   OH2 7319   2.555   3.574   2.377  0.2291  0.3774 -0.3277
 2452TIP3    H1 7320   2.489   3.597   2.312 -0.3740 -0.7854 -0.1518
 2452TIP3    H2 7321   2.516   3.503   2.427  1.9307 -0.9558 -0.7694
 2453TIP3   OH2 7322   2.120   6.382   0.345 -0.2171  0.1239 -0.1456
 2453TIP3    H1 7323   2.062   6.381   0.269 -1.7072  0.8857  0.9510
 2453TIP3    H2 7324   2.099   6.302   0.393 -0.7329  0.6492  0.5145
 2454TIP3   OH2 7325   2.085   6.027   4.147 -0.8888 -0.2788  0.0089
 2454TIP3    H1 7326   2.047   6.013   4.234  2.0844  1.0179  1.6565
 2454TIP3    H2 7327   2.179   6.015   4.160 -0.4890 -2.5468 -3.6401
 2455TIP3   OH2 7328   1.218   4.225   4.481 -0.4010  0.3798  0.3269
 2455TIP3    H1 7329   1.242   4.141   4.520 -1.1287 -0.2175 -0.4777
 2455TIP3    H2 7330   1.204   4.282   4.556  2.3286  0.4699  0.8643
 2456TIP3   OH2 7331   5.926   0.996   2.786 -0.1661 -0.3798  0.2128
 2456TIP3    H1 7332   5.943   1.029   2.698 -1.7419 -0.9426 -0.3289
 2456TIP3    H2 7333   5.905   0.904   2.774  0.6980 -0.7507  1.3279
 2457TIP3   OH2 7334   4.630   0.307   2.346  0.1163  0.5608 -0.2511
 2457TIP3    H1 7335   4.660   0.332   2.258 -0.9432  0.6302 -0.5966
 2457TIP3    H2 7336   4.696   0.244   2.376  0.6116  0.7099 -0.9971
 2458TIP3   OH2 7337   0.052   1.095   0.310 -0.3660  0.1856  0.6878
 2458TIP3    H1 7338  -0.025   1.077   0.257  0.2163  0.3593 -0.2335
 2458TIP3    H2 7339   0.078   1.010   0.345  0.4325 -0.2867 -0.9690
 2459TIP3   OH2 7340   3.372   3.742   2.079  0.4531 -0.2117  0.1835
 2459TIP3    H1 7341   3.384   3.798   2.156 -2.5839  0.1936  0.4731
 2459TIP3    H2 7342   3.382   3.653   2.113 -0.6744 -0.0276  1.0701
 2460TIP3   OH2 7343   5.401   1.928   4.080 -0.3223  0.3135  0.0845
 2460TIP3    H1 7344   5.360   1.969   4.156  1.9535  2.0655  0.4711
 2460TIP3    H2 7345   5.387   1.990   4.008 -1.6003 -0.8670 -0.7257
 2461TIP3   OH2 7346   5.205   1.711   2.836 -0.3566 -0.8103 -0.0479
 2461TIP3    H1 7347   5.115   1.719   2.803 -0.3634  0.4021  0.2105
 2461TIP3    H2 7348   5.197   1.713   2.931  0.0833  2.4168  0.0620
 2462TIP3   OH2 7349   1.386   0.959   2.666  0.4867 -0.2032  0.8362
 2462TIP3    H1 7350   1.297   0.990   2.682  0.0227 -1.3001  0.4882
 2462TIP3    H2 7351   1.408   0.906   2.743  1.1887  0.7893  1.3328
 2463TIP3   OH2 7352   2.142   4.185   2.255 -0.3538  0.3494 -0.1351
 2463TIP3    H1 7353   2.128   4.261   2.312 -1.1906  0.3314 -0.2993
 2463TIP3    H2 7354   2.111   4.110   2.306  1.4792 -0.0505  0.4511
 2464TIP3   OH2 7355   1.149   1.742   1.108  0.0660 -0.6781  0.2723
 2464TIP3    H1 7356   1.208   1.725   1.182  0.3483 -1.2472 -0.0749
 2464TIP3    H2 7357   1.185   1.689   1.037 -0.5237 -0.5608 -0.1171
 2465TIP3   OH2 7358   0.098   6.098   2.524  0.2377  0.3545 -0.8527
 2465TIP3    H1 7359   0.140   6.181   2.545 -0.3708  0.3374  0.5740
 2465TIP3    H2 7360   0.107   6.090   2.429  1.0483  1.6290 -0.9177
 2466TIP3   OH2 7361   1.625   1.098   2.662 -0.0386 -0.0644 -0.2037
 2466TIP3    H1 7362   1.607   1.177   2.610 -1.3092  0.0629  0.3883
 2466TIP3    H2 7363   1.550   1.041   2.646 -0.4455 -0.0406  1.4163
 2467TIP3   OH2 7364   3.185   1.512   5.550 -0.1700 -0.0834  0.2175
 2467TIP3    H1 7365   3.124   1.569   5.595 -0.8368 -0.8071  0.2584
 2467TIP3    H2 7366   3.179   1.537   5.458 -0.8820 -0.4521  0.1560
 2468TIP3   OH2 7367   1.183   3.623   2.376  0.0181 -0.1588  0.1055
 2468TIP3    H1 7368   1.200   3.714   2.401 -0.7807  0.7458 -2.3647
 2468TIP3    H2 7369   1.269   3.588   2.352  0.8043 -1.0373  3.6352
 2469TIP3   OH2 7370   3.988   4.145   0.834 -0.6363  0.1291  0.0491
 2469TIP3    H1 7371   4.058   4.114   0.776 -2.0499  0.4817 -1.9440
 2469TIP3    H2 7372   4.024   4.223   0.876  0.2865  0.1007 -0.6640
 2470TIP3   OH2 7373   3.212   4.574   2.483  0.2326  0.0953  0.0197
 2470TIP3    H1 7374   3.299   4.572   2.524 -0.0057 -1.9785  0.5209
 2470TIP3    H2 7375   3.152   4.553   2.554 -0.4941 -0.4390 -0.7403
 2471TIP3   OH2 7376   6.084   5.960   3.907 -0.7856 -0.3721 -0.8711
 2471TIP3    H1 7377   6.035   5.903   3.848  0.5633 -0.4589 -1.9635
 2471TIP3    H2 7378   6.055   5.935   3.995 -3.2555  0.1425 -1.4732
 2472TIP3   OH2 7379   5.006   1.137   0.536  0.5034 -0.5815  0.4140
 2472TIP3    H1 7380   5.036   1.210   0.589 -1.7650 -0.2368  1.3025
 2472TIP3    H2 7381   4.946   1.176   0.473 -1.0203 -1.6792  1.1303
 2473TIP3   OH2 7382   0.029   0.722   5.757 -0.1067  0.0291 -0.8632
 2473TIP3    H1 7383   0.006   0.629   5.752  0.4321 -0.1369 -0.3966
 2473TIP3    H2 7384   0.115   0.723   5.799  0.3043  0.6883 -1.6980
 2474TIP3   OH2 7385   6.394   5.366   4.581 -0.1118  0.2071 -0.1399
 2474TIP3    H1 7386   6.453   5.428   4.539 -0.7092 -0.3724 -1.9225
 2474TIP3    H2 7387   6.450   5.294   4.609  0.3378  0.7491  0.3941
 2475TIP3   OH2 7388   6.590   1.331   0.723  0.2225 -0.6838  0.0656
 2475TIP3    H1 7389   6.517   1.372   0.677  1.1861  1.3287  0.2000
 2475TIP3    H2 7390   6.662   1.332   0.660  0.5786 -1.1531  0.4561
 2476TIP3   OH2 7391   2.177   1.097   0.425  0.1104  0.4371 -0.1433
 2476TIP3    H1 7392   2.196   1.166   0.362  0.9896 -1.0575 -1.6085
 2476TIP3    H2 7393   2.263   1.075   0.463 -0.2960  0.7819  1.0412
 2477TIP3   OH2 7394   1.660   2.588   0.173  0.4791  0.7583 -0.0800
 2477TIP3    H1 7395   1.625   2.596   0.084 -0.5446 -0.1109  0.2312
 2477TIP3    H2 7396   1.627   2.504   0.205  1.3202  0.7868  0.9164
 2478TIP3   OH2 7397   3.958   1.844   3.055 -0.5391 -0.6703 -0.5999
 2478TIP3    H1 7398   3.995   1.777   2.998  2.0136  0.3012 -0.2390
 2478TIP3    H2 7399   3.992   1.823   3.142  1.8750  1.9457 -0.7476
 2479TIP3   OH2 7400   1.865   0.925   2.350 -0.0698 -0.3108 -0.7615
 2479TIP3    H1 7401   1.916   0.981   2.408 -0.9814  0.1918 -0.4170
 2479TIP3    H2 7402   1.862   0.840   2.394  0.4004 -0.3218 -0.7501
 2480TIP3   OH2 7403   3.746   1.861   3.290  0.0237 -0.2919 -0.2143
 2480TIP3    H1 7404   3.669   1.874   3.346  0.6856  2.2294  0.2682
 2480TIP3    H2 7405   3.768   1.949   3.259 -0.7202 -1.5382 -5.1787
 2481TIP3   OH2 7406   1.364   1.985   4.355  0.4916 -0.1993 -0.0613
 2481TIP3    H1 7407   1.387   2.003   4.446  0.5609  0.8720 -0.2786
 2481TIP3    H2 7408   1.444   1.946   4.318  0.7990  0.2803  0.0849
 2482TIP3   OH2 7409   1.434   0.659   3.200  1.0001  0.0771  0.2116
 2482TIP3    H1 7410   1.461   0.612   3.121  0.6076 -0.0438  0.1449
 2482TIP3    H2 7411   1.484   0.618   3.270  0.8206 -0.2993  0.1235
 2483TIP3   OH2 7412   6.099   2.881   0.760 -0.0416  0.3273  0.2488
 2483TIP3    H1 7413   6.125   2.790   0.776 -1.3177  0.0344  0.7574
 2483TIP3    H2 7414   6.169   2.917   0.706 -0.0804 -1.2946 -0.9443
 2484TIP3   OH2 7415   3.789   2.705   0.914 -0.3043  0.2033  0.0841
 2484TIP3    H1 7416   3.795   2.761   0.837  0.8837  0.3256  0.2467
 2484TIP3    H2 7417   3.787   2.616   0.878  0.4087  0.2540 -0.0836
 2485TIP3   OH2 7418   0.635   0.223   1.462 -0.6694 -0.2502  0.3638
 2485TIP3    H1 7419   0.546   0.224   1.496 -1.0795 -1.8375 -0.5509
 2485TIP3    H2 7420   0.670   0.138   1.490 -0.2665 -0.6397 -1.2133
 2486TIP3   OH2 7421   0.653   6.528   0.944  0.3793  0.4322 -0.1219
 2486TIP3    H1 7422   0.623   6.578   1.020 -1.4387  1.2723 -1.3260
 2486TIP3    H2 7423   0.683   6.445   0.980 -1.2196  0.4827  1.4452
 2487TIP3   OH2 7424   5.381   4.782   0.192 -0.2075  0.7691  0.4433
 2487TIP3    H1 7425   5.415   4.700   0.157  0.0750  1.0467  0.0609
 2487TIP3    H2 7426   5.372   4.766   0.286 -1.0589 -0.0149  0.2440
 2488TIP3   OH2 7427   4.015   2.606   0.621  0.3435 -0.3451 -0.0037
 2488TIP3    H1 7428   4.011   2.576   0.530  0.7756 -0.8683  0.1418
 2488TIP3    H2 7429   3.998   2.527   0.672  0.2952 -0.0909  0.3713
 2489TIP3   OH2 7430   2.566   5.001   1.288  0.2224 -0.0054 -0.3088
 2489TIP3    H1 7431   2.608   4.917   1.270  1.7963  0.8040 -0.5844
 2489TIP3    H2 7432   2.572   5.012   1.382 -1.4132 -0.8842 -0.0603
 2490TIP3   OH2 7433   6.137   1.705   1.937 -0.2667  0.3549  0.0600
 2490TIP3    H1 7434   6.077   1.668   2.002 -1.6018  1.2428 -0.6173
 2490TIP3    H2 7435   6.190   1.630   1.908 -0.8902 -0.4112  0.8324
 2491TIP3   OH2 7436   3.942   1.430   1.983  0.3179  0.3514  0.1629
 2491TIP3    H1 7437   3.896   1.429   2.067 -0.7200 -0.9440 -0.3940
 2491TIP3    H2 7438   3.886   1.381   1.924  3.2369 -3.1413 -0.0827
 2492TIP3   OH2 7439   5.805   3.865   0.676 -0.3629 -0.0810 -0.1459
 2492TIP3    H1 7440   5.715   3.833   0.663 -0.2556 -1.2603  1.6509
 2492TIP3    H2 7441   5.798   3.960   0.669 -2.0279 -0.0558  1.2234
 2493TIP3   OH2 7442   4.006   3.631   5.755 -0.3951  0.3361 -0.2216
 2493TIP3    H1 7443   4.037   3.606   5.842  0.3659  1.4042 -0.1695
 2493TIP3    H2 7444   3.971   3.549   5.718  0.9021 -0.5317  0.3867
 2494TIP3   OH2 7445   6.520   3.310   3.491 -0.2861 -0.1012 -0.0467
 2494TIP3    H1 7446   6.464   3.242   3.455 -2.4420  1.3119  0.3972
 2494TIP3    H2 7447   6.505   3.307   3.585  0.1897  0.4803  0.0590
 2495TIP3   OH2 7448   1.266   5.124   5.611  0.5042 -0.2742  0.2527
 2495TIP3    H1 7449   1.205   5.135   5.684  0.0652 -0.5331 -0.0728
 2495TIP3    H2 7450   1.345   5.086   5.651 -0.2431 -1.7395  0.3782
 2496TIP3   OH2 7451   0.318   1.179   1.847  0.5030 -0.0745  0.2912
 2496TIP3    H1 7452   0.335   1.153   1.938 -1.1336  1.9685  1.2524
 2496TIP3    H2 7453   0.398   1.225   1.820 -0.3071  2.6054  2.0705
 2497TIP3   OH2 7454   3.439   1.627   4.665 -0.2854  0.1970  0.0100
 2497TIP3    H1 7455   3.490   1.707   4.678 -0.0580 -0.1368  1.3320
 2497TIP3    H2 7456   3.409   1.632   4.574  1.8506  0.5601 -0.7485
 2498TIP3   OH2 7457   7.189   4.336   1.281 -0.0234 -0.4417  0.1825
 2498TIP3    H1 7458   7.262   4.396   1.264 -0.9405  0.5931 -0.2032
 2498TIP3    H2 7459   7.188   4.277   1.206  0.6567 -0.7157  0.3820
 2499TIP3   OH2 7460   0.027   2.259   3.147  0.2430  0.1998 -0.6684
 2499TIP3    H1 7461  -0.028   2.201   3.199 -1.0388  1.1127 -0.9568
 2499TIP3    H2 7462   0.072   2.201   3.086  0.1399 -0.6381  0.0258
 2500TIP3   OH2 7463   3.054   5.528   4.401  0.1766 -0.4285  0.1938
 2500TIP3    H1 7464   3.066   5.451   4.346  0.5223 -1.4383  1.6265
 2500TIP3    H2 7465   2.975   5.570   4.367  0.9377 -0.4275 -1.7020
 2501TIP3   OH2 7466   3.673   1.782   0.344  0.5152  0.4612  0.2233
 2501TIP3    H1 7467   3.595   1.767   0.291  0.1261  3.6114 -0.3015
 2501TIP3    H2 7468   3.660   1.728   0.422 -2.3277  1.0559  0.2676
 2502TIP3   OH2 7469   2.360   1.480   4.999 -0.2053  0.4266 -0.4486
 2502TIP3    H1 7470   2.390   1.438   4.918  0.0575 -0.7906  0.2518
 2502TIP3    H2 7471   2.316   1.410   5.048 -1.1222  1.3509  0.0935
 2503TIP3   OH2 7472   0.607   6.219   3.604  0.5310  0.4546 -0.3094
 2503TIP3    H1 7473   0.654   6.137   3.617 -0.3863 -0.0655 -0.2427
 2503TIP3    H2 7474   0.593   6.223   3.509  0.5471  0.5284 -0.3091
 2504TIP3   OH2 7475   5.971   6.021   0.295  0.2672 -0.4430  0.5130
 2504TIP3    H1 7476   6.031   6.095   0.287  0.7841 -0.9073  0.0384
 2504TIP3    H2 7477   5.884   6.059   0.283  0.6556 -0.3846 -3.2916
 2505TIP3   OH2 7478   1.143   1.562   0.554 -0.1486 -0.0477 -0.1586
 2505TIP3    H1 7479   1.094   1.562   0.636  1.2725 -0.6143  0.7186
 2505TIP3    H2 7480   1.199   1.485   0.558  0.4000  0.2528 -1.3807
 2506TIP3   OH2 7481   5.082   5.238   5.812 -0.8389  0.0180 -0.0350
 2506TIP3    H1 7482   4.992   5.203   5.812  0.0861 -2.5816  0.8085
 2506TIP3    H2 7483   5.102   5.252   5.719 -1.6715 -0.6753 -0.3360
 2507TIP3   OH2 7484   3.357   1.515   3.234  0.0187 -0.8572 -0.4557
 2507TIP3    H1 7485   3.393   1.443   3.285  0.5553 -0.8029 -0.7590
 2507TIP3    H2 7486   3.429   1.545   3.180  0.2112  0.8003  0.6314
 2508TIP3   OH2 7487   6.075   0.225   5.171  0.0221 -0.1552  0.1838
 2508TIP3    H1 7488   6.082   0.162   5.099 -0.3277 -1.4176  1.2140
 2508TIP3    H2 7489   5.994   0.272   5.153  0.2484 -0.0322 -0.5637
 2509TIP3   OH2 7490   1.195   1.012   5.419  0.1599 -0.3478  0.3509
 2509TIP3    H1 7491   1.220   1.104   5.422 -0.8739 -0.0702  0.6941
 2509TIP3    H2 7492   1.100   1.012   5.425 -0.0854 -1.3079 -2.0441
 2510TIP3   OH2 7493   2.689   2.649   3.952  0.3035  0.4992  0.8532
 2510TIP3    H1 7494   2.746   2.726   3.958  1.1836  0.1606 -1.9791
 2510TIP3    H2 7495   2.687   2.614   4.041 -0.1462  3.7544  2.2894
 2511TIP3   OH2 7496   0.343   4.006   4.335 -0.2387  0.4870  0.4522
 2511TIP3    H1 7497   0.312   3.999   4.245  1.4450 -1.5273 -0.0530
 2511TIP3    H2 7498   0.274   4.053   4.382 -1.8194  0.2511 -1.5514
 2512TIP3   OH2 7499   6.385   2.687   5.397  0.0738  0.3591 -0.5970
 2512TIP3    H1 7500   6.401   2.608   5.345  0.8321 -0.7329  1.2168
 2512TIP3    H2 7501   6.373   2.656   5.486 -3.7967  1.9182 -0.3574
 2513TIP3   OH2 7502   3.236   2.995   4.389 -0.6385  0.2900  0.7371
 2513TIP3    H1 7503   3.154   2.947   4.405 -1.0257  0.3453 -0.9118
 2513TIP3    H2 7504   3.266   3.019   4.476 -2.1334 -0.1494  1.4193
 2514TIP3   OH2 7505   0.541   1.182   3.074  0.4082 -0.5641  0.2348
 2514TIP3    H1 7506   0.616   1.238   3.055  0.1469 -0.5423 -0.7652
 2514TIP3    H2 7507   0.543   1.170   3.169  1.4245 -0.2173  0.2599
 2515TIP3   OH2 7508   7.165   3.681   5.836 -0.3980 -0.0041  0.2895
 2515TIP3    H1 7509   7.183   3.596   5.876  0.0174 -0.4181 -0.7390
 2515TIP3    H2 7510   7.120   3.731   5.904  3.7065  0.7562  2.8020
 2516TIP3   OH2 7511   5.404   5.085   5.214  0.2580 -0.2144  0.0166
 2516TIP3    H1 7512   5.417   5.070   5.121 -1.3671  0.4394 -0.3590
 2516TIP3    H2 7513   5.367   5.174   5.219  0.1358 -0.3149  1.2539
 2517TIP3   OH2 7514   0.298   0.542   1.957  0.2154 -0.3534 -0.4924
 2517TIP3    H1 7515   0.292   0.501   2.043  1.2629 -0.1738 -0.3216
 2517TIP3    H2 7516   0.369   0.495   1.913  1.8967  1.6371 -0.0595
 2518TIP3   OH2 7517   3.509   2.228   3.886 -0.0674 -0.3768 -0.4495
 2518TIP3    H1 7518   3.448   2.156   3.872  1.2346 -1.3485 -1.3624
 2518TIP3    H2 7519   3.563   2.200   3.960  0.1618 -0.1419 -0.5256
 2519TIP3   OH2 7520   4.208   3.146   0.618  0.5728 -0.4182  0.3379
 2519TIP3    H1 7521   4.220   3.052   0.616  0.7360 -0.3865 -1.7124
 2519TIP3    H2 7522   4.296   3.182   0.610  0.3089 -0.1454 -1.9355
 2520TIP3   OH2 7523   0.164   0.235   1.844 -0.1933 -0.7279 -0.6317
 2520TIP3    H1 7524   0.217   0.222   1.923 -0.0839  0.9531 -0.4019
 2520TIP3    H2 7525   0.074   0.236   1.875 -0.3016 -2.1639 -0.8349
 2521TIP3   OH2 7526   4.905   2.479   2.450  0.4513  0.5133 -0.7183
 2521TIP3    H1 7527   4.889   2.518   2.536  0.0390  0.0486 -0.5770
 2521TIP3    H2 7528   4.937   2.391   2.470 -2.9094 -0.9312 -0.9907
 2522TIP3   OH2 7529   4.798   3.857   4.341  0.0437  0.3531  0.4144
 2522TIP3    H1 7530   4.807   3.873   4.247  1.8206  0.1330  0.5190
 2522TIP3    H2 7531   4.704   3.844   4.354 -0.4141  1.8191 -1.0887
 2523TIP3   OH2 7532   6.346   3.072   0.002  0.2028 -0.0341  0.0480
 2523TIP3    H1 7533   6.368   3.100   0.091  0.0159 -2.4827  0.9601
 2523TIP3    H2 7534   6.420   3.018  -0.025 -1.0734 -1.8752  0.0203
 2524TIP3   OH2 7535   1.663   3.620   4.189  0.5292 -0.6219 -0.4884
 2524TIP3    H1 7536   1.757   3.636   4.200  0.2881 -0.0517  0.8948
 2524TIP3    H2 7537   1.625   3.643   4.273 -0.9153 -0.4486 -1.1650
 2525TIP3   OH2 7538   7.211   3.057   5.569  0.4350  0.0877 -0.1045
 2525TIP3    H1 7539   7.157   2.992   5.613  0.6960 -0.0145  0.0664
 2525TIP3    H2 7540   7.206   3.135   5.625  1.1481 -0.1941  0.3525
 2526TIP3   OH2 7541   2.063   2.940   0.047  0.6958  1.0006  0.0773
 2526TIP3    H1 7542   2.026   2.955  -0.040  0.2760 -0.4130 -0.0175
 2526TIP3    H2 7543   2.039   3.017   0.098 -0.4062  1.1431 -0.6356
 2527TIP3   OH2 7544   6.419   3.591   0.520  0.2204  0.0059  0.2479
 2527TIP3    H1 7545   6.466   3.633   0.592 -1.0027  2.5408 -0.3337
 2527TIP3    H2 7546   6.441   3.644   0.443  0.4150 -1.8224 -1.0134
 2528TIP3   OH2 7547   3.503   0.422   0.149 -0.3357  0.1206 -0.4881
 2528TIP3    H1 7548   3.597   0.433   0.163  0.4889 -2.1877 -3.2341
 2528TIP3    H2 7549   3.475   0.362   0.217  0.4396 -0.0937 -0.3487
 2529TIP3   OH2 7550   1.770   1.016   1.369  0.1076  0.3304  0.4066
 2529TIP3    H1 7551   1.795   0.924   1.381 -0.9897  0.1062  1.1652
 2529TIP3    H2 7552   1.781   1.032   1.276 -0.1183 -0.7038  0.1885
 2530TIP3   OH2 7553   5.784   4.627   4.216  0.0459  0.7038 -0.2626
 2530TIP3    H1 7554   5.801   4.544   4.172 -1.1679  1.1515 -1.6315
 2530TIP3    H2 7555   5.869   4.673   4.213  0.4904 -0.0994 -0.2982
 2531TIP3   OH2 7556   2.734   5.830   3.157 -0.4297 -0.2943 -0.8020
 2531TIP3    H1 7557   2.724   5.821   3.062  0.3985  1.2930 -1.0694
 2531TIP3    H2 7558   2.824   5.860   3.168 -0.5423 -0.4090  0.4949
 2532TIP3   OH2 7559   1.030   5.767   5.599 -0.0087 -0.2561  0.0715
 2532TIP3    H1 7560   1.069   5.792   5.515 -0.6885 -2.4161 -0.9566
 2532TIP3    H2 7561   1.034   5.672   5.599 -2.8166 -0.4552  1.1190
 2533TIP3   OH2 7562   5.176   5.710   1.470 -0.5687 -0.6284  0.3978
 2533TIP3    H1 7563   5.252   5.657   1.448 -1.3060 -1.8450  0.6810
 2533TIP3    H2 7564   5.114   5.648   1.509 -1.5093  0.4213  0.6267
 2534TIP3   OH2 7565   4.839   2.167   4.537 -0.2367 -0.2946 -0.1577
 2534TIP3    H1 7566   4.795   2.212   4.609 -1.1994 -1.2092 -0.1494
 2534TIP3    H2 7567   4.926   2.205   4.535  0.2110 -1.0007  2.2234
 2535TIP3   OH2 7568   0.861   1.884   5.560  0.2669  0.7818 -0.2314
 2535TIP3    H1 7569   0.791   1.824   5.534 -0.2421  0.8055  0.9943
 2535TIP3    H2 7570   0.820   1.970   5.558  0.3341  0.8279  0.1927
 2536TIP3   OH2 7571   2.894   5.812   1.259 -0.3529  0.1934 -0.7574
 2536TIP3    H1 7572   2.918   5.871   1.330  0.7504 -1.0694 -0.0430
 2536TIP3    H2 7573   2.977   5.788   1.218 -0.8854  0.1078 -1.8349
 2537TIP3   OH2 7574   6.993   6.593   2.503 -0.2681 -0.0464  0.7325
 2537TIP3    H1 7575   6.974   6.634   2.588  0.5457 -2.1325  2.0053
 2537TIP3    H2 7576   7.032   6.663   2.451 -0.2710  1.1697  2.2770
 2538TIP3   OH2 7577   2.475   3.680   0.333  0.8467  0.0577  0.2623
 2538TIP3    H1 7578   2.542   3.749   0.329 -0.5919  1.4768 -0.5016
 2538TIP3    H2 7579   2.430   3.685   0.249 -1.7649  0.8170  1.6112
 2539TIP3   OH2 7580   3.014   3.540   3.102 -0.1084 -0.3225  0.1234
 2539TIP3    H1 7581   2.944   3.504   3.157 -0.3669 -0.5186 -0.3230
 2539TIP3    H2 7582   3.053   3.610   3.154  0.0242 -0.8734  0.7833
 2540TIP3   OH2 7583   3.175   5.955   5.471 -0.1790 -0.4925  0.1641
 2540TIP3    H1 7584   3.157   6.017   5.401 -0.6633  0.8916  1.4779
 2540TIP3    H2 7585   3.190   5.872   5.425 -0.0932  0.4353 -1.5914
 2541TIP3   OH2 7586   7.040   0.823   5.258 -0.8301  0.6529  0.0546
 2541TIP3    H1 7587   6.955   0.846   5.295 -0.6669  1.2026  0.0995
 2541TIP3    H2 7588   7.024   0.745   5.206 -1.0808 -0.1004  1.2349
 2542TIP3   OH2 7589   4.611   5.283   2.749 -0.0093  0.2369  0.2192
 2542TIP3    H1 7590   4.560   5.355   2.711  0.4557  1.0437  1.0663
 2542TIP3    H2 7591   4.546   5.221   2.781 -0.4458  0.7201  0.2819
 2543TIP3   OH2 7592   3.263   3.040   4.676 -0.0084 -0.4140  0.2634
 2543TIP3    H1 7593   3.194   2.992   4.722 -1.0051 -0.1369 -0.8831
 2543TIP3    H2 7594   3.241   3.132   4.689 -0.4846 -0.3335 -0.9813
 2544TIP3   OH2 7595   5.819   2.654   4.149 -0.1185  0.4200  0.1158
 2544TIP3    H1 7596   5.764   2.577   4.135 -0.5269  0.8953 -1.0254
 2544TIP3    H2 7597   5.761   2.716   4.194  0.4534 -0.2137  1.7687
 2545TIP3   OH2 7598   6.271   5.983   4.508  0.5782  0.5767 -0.7023
 2545TIP3    H1 7599   6.318   5.974   4.591  0.5867  2.5772 -0.4287
 2545TIP3    H2 7600   6.179   5.993   4.533  0.2910 -0.9416 -1.0907
 2546TIP3   OH2 7601   6.949   2.423   3.777 -0.1718 -0.0999 -0.6320
 2546TIP3    H1 7602   7.021   2.362   3.763  0.6803  0.7428 -0.0346
 2546TIP3    H2 7603   6.906   2.429   3.691  0.8232 -0.1722 -1.1577
 2547TIP3   OH2 7604   3.580   3.652   1.177 -0.1150 -0.1217  0.2069
 2547TIP3    H1 7605   3.583   3.596   1.100  2.4657  0.6774 -0.3745
 2547TIP3    H2 7606   3.632   3.606   1.243  0.9538  0.9326  0.1437
 2548TIP3   OH2 7607   5.679   1.670   5.721  0.1784 -0.0825  0.3569
 2548TIP3    H1 7608   5.601   1.693   5.671  0.1898 -0.6640  0.0634
 2548TIP3    H2 7609   5.664   1.709   5.807 -0.1182  0.3971  0.0950
 2549TIP3   OH2 7610   1.014   1.416   2.392 -0.2144 -0.2873 -0.4479
 2549TIP3    H1 7611   1.092   1.456   2.430 -0.0809 -0.5533 -0.4410
 2549TIP3    H2 7612   1.024   1.322   2.411 -0.9055 -0.2360  0.2340
 2550TIP3   OH2 7613   2.561   4.146   4.795 -0.0414  0.1179  0.5794
 2550TIP3    H1 7614   2.633   4.138   4.732 -0.2234 -1.0670  0.5037
 2550TIP3    H2 7615   2.523   4.232   4.777  0.8994  0.4617  0.1372
 2551TIP3   OH2 7616   7.174   0.200   5.877  0.0842  0.0678  0.1136
 2551TIP3    H1 7617   7.121   0.145   5.819  0.5677  1.4306 -1.7022
 2551TIP3    H2 7618   7.240   0.238   5.820  0.8339  1.1898  1.6636
 2552TIP3   OH2 7619   3.112   6.055   4.735 -0.1075 -0.1811 -0.5369
 2552TIP3    H1 7620   3.121   6.148   4.718 -0.5721 -0.2520 -1.1922
 2552TIP3    H2 7621   3.040   6.049   4.798  1.7007  0.0894  1.6957
 2553TIP3   OH2 7622   4.393   2.284   5.772  0.2327 -0.2707  0.7410
 2553TIP3    H1 7623   4.378   2.312   5.862 -0.1235 -0.0501  0.6171
 2553TIP3    H2 7624   4.305   2.265   5.738  0.2840  0.4216  0.1934
 2554TIP3   OH2 7625   5.663   4.153   3.998  0.5225 -0.4901  0.0244
 2554TIP3    H1 7626   5.636   4.071   3.958 -0.4711 -0.4402  0.5572
 2554TIP3    H2 7627   5.722   4.127   4.069  0.5172 -0.7240 -0.0578
 2555TIP3   OH2 7628   4.569   4.180   0.398 -0.0319 -0.0248 -0.3555
 2555TIP3    H1 7629   4.653   4.224   0.387 -0.2222  0.9615  1.6315
 2555TIP3    H2 7630   4.587   4.110   0.462 -0.5907 -0.1762 -0.3593
 2556TIP3   OH2 7631  -0.002   5.860   4.383 -0.1235 -0.8043  0.1296
 2556TIP3    H1 7632  -0.003   5.891   4.293  0.3724 -1.7236 -0.2035
 2556TIP3    H2 7633   0.013   5.766   4.376 -0.4173 -0.9404  1.1602
 2557TIP3   OH2 7634   0.667   6.598   3.852 -0.2311  0.0689 -0.1339
 2557TIP3    H1 7635   0.705   6.529   3.905 -0.3661  1.2174  1.5348
 2557TIP3    H2 7636   0.720   6.675   3.870 -0.8094  0.7051 -1.0201
 2558TIP3   OH2 7637   6.139   3.742   5.759  0.0964  0.1100 -0.4604
 2558TIP3    H1 7638   6.150   3.788   5.843 -1.3124 -0.9902  0.3868
 2558TIP3    H2 7639   6.201   3.669   5.763 -0.9959 -0.8315  0.3522
 2559TIP3   OH2 7640   2.883   0.693   1.226  0.2842  0.3849 -0.4174
 2559TIP3    H1 7641   2.964   0.741   1.208  0.0363  0.2897 -1.9368
 2559TIP3    H2 7642   2.897   0.608   1.185 -0.1532 -0.0359  0.2995
 2560TIP3   OH2 7643   3.267   2.424   1.578 -0.2403  0.0183 -0.3540
 2560TIP3    H1 7644   3.289   2.484   1.650 -2.3959 -0.3033  0.6634
 2560TIP3    H2 7645   3.278   2.478   1.499  4.4872 -0.2679 -0.1978
 2561TIP3   OH2 7646   1.928   4.895   5.398 -0.2245 -0.0288  0.3738
 2561TIP3    H1 7647   1.856   4.847   5.438 -0.9294  0.8138  0.1322
 2561TIP3    H2 7648   1.923   4.983   5.435 -1.0348  0.8390 -1.6574
 2562TIP3   OH2 7649   3.230   3.408   1.615  0.5656  0.1524  0.1219
 2562TIP3    H1 7650   3.224   3.500   1.641 -0.7775 -0.3910  1.9857
 2562TIP3    H2 7651   3.270   3.364   1.690  2.4863 -0.6415 -1.2714
 2563TIP3   OH2 7652   5.803   1.056   3.896  0.4506  0.7529  0.1146
 2563TIP3    H1 7653   5.735   1.118   3.920  0.8066  0.8856  0.7794
 2563TIP3    H2 7654   5.758   0.993   3.839 -0.5854  0.0292  1.6543
 2564TIP3   OH2 7655   3.385   3.839   3.119 -0.5862  0.6396 -0.1800
 2564TIP3    H1 7656   3.337   3.814   3.197 -0.1695  2.4617  0.7135
 2564TIP3    H2 7657   3.475   3.812   3.136 -0.5473  0.7950 -0.1337
 2565TIP3   OH2 7658   5.767   6.584   1.441  0.2984 -0.1473 -0.5354
 2565TIP3    H1 7659   5.747   6.541   1.523  2.9994 -0.3382  0.1299
 2565TIP3    H2 7660   5.863   6.591   1.440  0.3758 -0.0500 -3.6042
 2566TIP3   OH2 7661   4.877   2.773   4.635  0.6567  0.6207 -0.2406
 2566TIP3    H1 7662   4.973   2.776   4.633  0.6649  0.8842  0.2310
 2566TIP3    H2 7663   4.854   2.819   4.716  0.1285  0.6260 -0.3917
 2567TIP3   OH2 7664   1.066   6.796   3.638 -0.3294 -0.0868  0.3221
 2567TIP3    H1 7665   1.034   6.708   3.620 -0.3307 -0.3032  1.3390
 2567TIP3    H2 7666   1.145   6.804   3.585 -0.3715 -0.6678  0.1668
 2568TIP3   OH2 7667   3.559   0.198   3.349 -0.0368 -0.0421  0.0206
 2568TIP3    H1 7668   3.597   0.147   3.421  2.0810 -1.2361 -1.8193
 2568TIP3    H2 7669   3.510   0.134   3.297 -1.1504  0.7201  0.0860
 2569TIP3   OH2 7670   2.945   3.161   3.045 -0.6107 -0.5730 -0.2313
 2569TIP3    H1 7671   3.010   3.216   3.003 -0.6572 -1.1574 -1.1141
 2569TIP3    H2 7672   2.886   3.222   3.090  0.5778 -0.0503  0.6535
 2570TIP3   OH2 7673   5.483   1.119   5.078 -0.1943 -0.3929  0.6063
 2570TIP3    H1 7674   5.408   1.165   5.039 -1.2351 -0.9142  1.9020
 2570TIP3    H2 7675   5.471   1.129   5.172  1.2653 -0.6880  0.8432
 2571TIP3   OH2 7676   5.107   5.589   4.300 -0.2368  0.0151 -0.1626
 2571TIP3    H1 7677   5.123   5.672   4.344  1.8886 -0.4890  0.1285
 2571TIP3    H2 7678   5.113   5.610   4.207 -0.8967  0.3917 -0.1239
 2572TIP3   OH2 7679   4.452   0.255   2.795 -0.3861 -0.2667 -0.1958
 2572TIP3    H1 7680   4.402   0.174   2.787 -2.4600  1.0741 -2.0158
 2572TIP3    H2 7681   4.540   0.232   2.763 -0.3531 -2.1951  1.1161
 2573TIP3   OH2 7682   3.924   2.913   4.590  0.0847  0.1125  0.6591
 2573TIP3    H1 7683   3.985   2.893   4.519 -1.4182 -1.1855 -0.3378
 2573TIP3    H2 7684   3.965   2.878   4.669  1.2045  0.4485  0.2373
 2574TIP3   OH2 7685   1.708   0.677   5.103 -0.0250 -0.5269  0.2325
 2574TIP3    H1 7686   1.656   0.717   5.172  0.0030 -1.7298  0.9785
 2574TIP3    H2 7687   1.648   0.669   5.029 -1.1818 -2.5696  1.3061
 2575TIP3   OH2 7688   6.057   3.964   3.520 -0.2970 -0.3881  0.1268
 2575TIP3    H1 7689   6.011   3.983   3.438  0.2166 -0.0260 -0.0890
 2575TIP3    H2 7690   6.011   4.016   3.586 -0.3734 -0.2523 -0.0318
 2576TIP3   OH2 7691   6.340   1.546   2.102 -0.1729 -0.5658 -0.2688
 2576TIP3    H1 7692   6.360   1.499   2.183  1.0418 -0.0324 -0.2321
 2576TIP3    H2 7693   6.310   1.479   2.041  0.9818 -1.3070 -0.0449
 2577TIP3   OH2 7694   1.471   3.592   3.307  0.3656 -0.2714  0.1690
 2577TIP3    H1 7695   1.503   3.674   3.344 -0.0199  0.4613 -1.0864
 2577TIP3    H2 7696   1.377   3.606   3.296  0.4801 -0.4372 -1.1382
 2578TIP3   OH2 7697   4.691   2.725   5.684 -0.2327  0.1867 -0.0137
 2578TIP3    H1 7698   4.674   2.781   5.759  1.2408 -1.5983  1.7571
 2578TIP3    H2 7699   4.608   2.682   5.666 -0.6944  0.9087  0.3356
 2579TIP3   OH2 7700   5.404   6.704   5.655 -0.2044  0.0683  0.1625
 2579TIP3    H1 7701   5.411   6.660   5.571  0.6639 -0.5771  0.5521
 2579TIP3    H2 7702   5.331   6.764   5.645 -0.4917 -0.4291 -0.8553
 2580TIP3   OH2 7703   4.469   1.347   5.755  0.3146  0.0018 -0.2944
 2580TIP3    H1 7704   4.386   1.393   5.742  1.1778  1.6538 -0.2102
 2580TIP3    H2 7705   4.452   1.288   5.829 -0.3880  1.3744  0.6907
 2581TIP3   OH2 7706   3.896   0.990   3.411  0.1355  0.0952 -0.5396
 2581TIP3    H1 7707   3.986   1.003   3.443  0.5003 -0.7943 -1.1762
 2581TIP3    H2 7708   3.905   0.988   3.316 -1.0614  3.7614 -0.9083
 2582TIP3   OH2 7709   5.478   2.004   2.330 -0.0793 -0.0239 -0.6540
 2582TIP3    H1 7710   5.439   2.053   2.402 -0.5666 -0.7136 -0.4398
 2582TIP3    H2 7711   5.413   2.006   2.260  0.4967  0.8600 -1.1814
 2583TIP3   OH2 7712   6.124   4.762   3.266  0.3674 -0.1173  0.4980
 2583TIP3    H1 7713   6.062   4.707   3.217 -0.2216  1.0018 -0.0512
 2583TIP3    H2 7714   6.068   4.813   3.325  0.7580  0.9487 -0.0410
 2584TIP3   OH2 7715   1.595   0.316   2.653  0.5313 -0.2264 -0.7034
 2584TIP3    H1 7716   1.605   0.372   2.575 -0.2182  2.1234  0.7912
 2584TIP3    H2 7717   1.530   0.361   2.706  2.0881 -0.9418  1.9721
 2585TIP3   OH2 7718   4.621   0.827   0.452  0.4201 -0.1490  0.2252
 2585TIP3    H1 7719   4.692   0.763   0.452  2.0350  1.5208 -1.3507
 2585TIP3    H2 7720   4.574   0.811   0.370 -0.3688 -0.5505  0.7488
 2586TIP3   OH2 7721   0.454   4.884   4.687  0.3122 -0.0437 -0.2254
 2586TIP3    H1 7722   0.501   4.948   4.634  1.3312 -0.0700  0.6103
 2586TIP3    H2 7723   0.380   4.933   4.723  1.0218  0.6518  0.3271
 2587TIP3   OH2 7724   5.403   0.002   4.949  0.1769  0.4570 -0.1354
 2587TIP3    H1 7725   5.342   0.044   4.889 -0.4933 -0.1841  0.0713
 2587TIP3    H2 7726   5.417   0.066   5.019  0.6939  1.0720 -0.7970
 2588TIP3   OH2 7727   0.067   0.479   3.898 -0.6977 -0.1427 -0.0772
 2588TIP3    H1 7728   0.084   0.414   3.966  0.4058  1.2457  1.0435
 2588TIP3    H2 7729  -0.012   0.524   3.927 -0.7746 -0.1824 -0.2237
 2589TIP3   OH2 7730   3.968   4.813   1.705  0.4820 -0.1516 -0.1943
 2589TIP3    H1 7731   3.952   4.797   1.612  2.9620 -0.5162 -0.6302
 2589TIP3    H2 7732   4.063   4.828   1.711  0.3243  0.3190  2.2147
 2590TIP3   OH2 7733   1.995   5.927   3.403 -0.4792 -0.8359 -0.2402
 2590TIP3    H1 7734   2.067   5.988   3.422  1.0126 -1.9414 -1.9469
 2590TIP3    H2 7735   2.000   5.914   3.308 -0.7823 -3.4809  0.0433
 2591TIP3   OH2 7736   1.631   6.550   0.055  0.1866 -0.1319  0.0949
 2591TIP3    H1 7737   1.606   6.627   0.005 -0.5686  0.9429  2.0394
 2591TIP3    H2 7738   1.722   6.565   0.080  0.7557 -0.9442 -1.3846
 2592TIP3   OH2 7739   5.769   4.388   5.379 -0.4587  0.2189  0.0100
 2592TIP3    H1 7740   5.814   4.417   5.458 -0.3655 -0.1291  0.0870
 2592TIP3    H2 7741   5.677   4.381   5.405 -0.8611  2.5277 -0.5843
 2593TIP3   OH2 7742   5.465   1.049   1.337 -0.1046  0.3092  0.0569
 2593TIP3    H1 7743   5.503   0.966   1.368  0.0799 -0.0499 -1.0895
 2593TIP3    H2 7744   5.454   1.036   1.243  0.5038  1.8223 -0.2338
 2594TIP3   OH2 7745   1.330   4.395   3.729  1.2883  0.2744 -0.0237
 2594TIP3    H1 7746   1.350   4.302   3.736  1.2423  0.0333 -2.2921
 2594TIP3    H2 7747   1.415   4.439   3.739  1.9360 -0.2868 -2.4351
 2595TIP3   OH2 7748   6.807   6.675   1.456 -0.1406 -0.5873 -0.0223
 2595TIP3    H1 7749   6.869   6.616   1.498  1.8045 -1.9377 -4.2531
 2595TIP3    H2 7750   6.766   6.622   1.387 -1.5197  1.9186 -1.2716
 2596TIP3   OH2 7751   3.605   4.270   4.402  0.0171  0.1532 -0.1008
 2596TIP3    H1 7752   3.622   4.289   4.310  0.5827  1.5365  0.2645
 2596TIP3    H2 7753   3.593   4.175   4.406  0.1407  0.0657 -1.5648
 2597TIP3   OH2 7754   0.440   4.402   0.913 -0.0674 -0.1614  0.5438
 2597TIP3    H1 7755   0.351   4.436   0.922  0.4546  1.2343  0.6428
 2597TIP3    H2 7756   0.483   4.425   0.995  0.4618 -0.6119  0.3986
 2598TIP3   OH2 7757   7.011   4.429   1.496  0.3681  0.4230  0.5386
 2598TIP3    H1 7758   6.952   4.358   1.473 -1.8473  2.3253  0.0107
 2598TIP3    H2 7759   7.095   4.404   1.455 -0.6836 -1.2353 -0.7370
 2599TIP3   OH2 7760   2.817   0.150   5.366  0.7959  0.1597  0.1889
 2599TIP3    H1 7761   2.911   0.158   5.383  1.0911 -0.5749 -1.0514
 2599TIP3    H2 7762   2.792   0.068   5.407  0.8876 -0.1116 -0.2991
 2600TIP3   OH2 7763   6.185   6.592   0.748 -0.1658  0.0191  1.0717
 2600TIP3    H1 7764   6.248   6.597   0.819 -0.2576  0.9162  1.1008
 2600TIP3    H2 7765   6.120   6.659   0.768 -0.4116  0.0106  0.3489
 2601TIP3   OH2 7766   0.662   5.439   3.122  0.1048  0.1205  0.1583
 2601TIP3    H1 7767   0.673   5.396   3.207 -0.8790  0.6659  0.5727
 2601TIP3    H2 7768   0.751   5.445   3.087  0.3994 -1.0916  0.6583
 2602TIP3   OH2 7769   4.504   2.056   1.501  0.2489 -0.5481  0.5985
 2602TIP3    H1 7770   4.456   2.046   1.418  1.3636  1.4090 -0.3477
 2602TIP3    H2 7771   4.469   2.136   1.539  0.7368 -0.6757  1.3254
 2603TIP3   OH2 7772   1.433   5.812   1.398 -0.1213  0.7204  0.1411
 2603TIP3    H1 7773   1.366   5.827   1.330  0.6790  1.5502 -0.5012
 2603TIP3    H2 7774   1.386   5.768   1.468 -0.2819 -3.5610 -2.3279
 2604TIP3   OH2 7775   1.894   4.625   1.906  0.2480 -0.2022  0.1230
 2604TIP3    H1 7776   1.883   4.681   1.983  0.4842 -0.2084  0.1642
 2604TIP3    H2 7777   1.943   4.549   1.939  2.9776  1.1279 -0.6071
 2605TIP3   OH2 7778   3.027   2.143   5.473  0.1869 -0.2505 -0.0385
 2605TIP3    H1 7779   2.959   2.199   5.510  0.8711 -1.0368  2.6484
 2605TIP3    H2 7780   2.980   2.070   5.435 -0.5298 -0.4504  1.1847
 2606TIP3   OH2 7781   2.481   4.560   0.171 -0.0648 -0.1861  0.4552
 2606TIP3    H1 7782   2.393   4.587   0.198 -0.2976 -1.7248  1.3468
 2606TIP3    H2 7783   2.466   4.498   0.099  0.4035  1.0809 -0.7685
 2607TIP3   OH2 7784   5.546   6.466   2.607 -0.1456 -0.0723 -0.2012
 2607TIP3    H1 7785   5.567   6.528   2.677  0.0093 -0.2161 -0.1166
 2607TIP3    H2 7786   5.632   6.440   2.572 -0.1629 -0.8026  0.2676
 2608TIP3   OH2 7787   1.828   5.603   3.897 -0.0226 -0.2997 -0.4742
 2608TIP3    H1 7788   1.906   5.552   3.874  0.5161 -0.5052  1.5903
 2608TIP3    H2 7789   1.848   5.692   3.869  1.1643 -0.2674  0.4081
 2609TIP3   OH2 7790   5.689   3.904   3.843 -0.1539  0.4552 -0.4885
 2609TIP3    H1 7791   5.776   3.902   3.882  0.4404 -0.8445 -1.7686
 2609TIP3    H2 7792   5.674   3.815   3.812 -0.1369  1.5257 -4.0417
 2610TIP3   OH2 7793   2.408   1.755   2.322  0.3293  0.5131  0.5539
 2610TIP3    H1 7794   2.358   1.706   2.387  2.5118 -0.3953  1.6543
 2610TIP3    H2 7795   2.396   1.847   2.347 -1.4236  0.3817  0.2734
 2611TIP3   OH2 7796   6.880   6.363   1.558 -0.4349 -0.3610  0.3619
 2611TIP3    H1 7797   6.855   6.273   1.536 -0.0983 -0.4908  0.5094
 2611TIP3    H2 7798   6.817   6.390   1.625 -0.7653 -0.3553  0.0564
 2612TIP3   OH2 7799   5.669   5.487   1.152  0.7224  0.4700 -0.2345
 2612TIP3    H1 7800   5.717   5.541   1.089 -0.5747  0.0614 -1.6455
 2612TIP3    H2 7801   5.641   5.548   1.220 -0.0937  1.4616 -1.4189
 2613TIP3   OH2 7802   6.388   3.089   2.320 -0.6086 -0.3475 -0.1675
 2613TIP3    H1 7803   6.397   3.154   2.390 -0.7443 -0.1419 -0.3419
 2613TIP3    H2 7804   6.349   3.137   2.248  2.1457  0.2258 -1.4256
 2614TIP3   OH2 7805   0.144   0.223   3.580 -0.1059 -0.0358  0.2174
 2614TIP3    H1 7806   0.148   0.188   3.491 -0.4287 -1.8524  0.8682
 2614TIP3    H2 7807   0.077   0.291   3.575 -0.9674 -0.9013 -0.6962
 2615TIP3   OH2 7808   4.312   6.139   1.646 -0.2844 -0.5041 -0.4893
 2615TIP3    H1 7809   4.239   6.197   1.668  0.3764  0.0582  0.2701
 2615TIP3    H2 7810   4.373   6.194   1.597  1.1824  0.0148  1.7407
 2616TIP3   OH2 7811   3.473   6.744   1.400  0.3269  0.0675 -0.4053
 2616TIP3    H1 7812   3.397   6.689   1.418 -0.3716  0.6355 -1.4692
 2616TIP3    H2 7813   3.546   6.682   1.389 -0.1938 -0.5555 -0.3935
 2617TIP3   OH2 7814   3.114   0.559   1.004 -0.2659 -0.0119  0.6226
 2617TIP3    H1 7815   3.091   0.620   0.934 -0.6232 -0.4530  0.3565
 2617TIP3    H2 7816   3.031   0.518   1.030 -0.3289  0.9221  2.0561
 2618TIP3   OH2 7817   4.252   2.590   5.272  0.2234  0.2446  0.6606
 2618TIP3    H1 7818   4.295   2.639   5.201  2.3715 -2.5908 -0.1989
 2618TIP3    H2 7819   4.161   2.581   5.242  1.2119 -1.5034 -2.2737
 2619TIP3   OH2 7820   3.452   1.890   5.068  0.0516  0.2329  0.0491
 2619TIP3    H1 7821   3.509   1.890   5.145  1.0488  0.0096 -0.6653
 2619TIP3    H2 7822   3.374   1.843   5.096  0.9269 -0.9787  0.5575
 2620TIP3   OH2 7823   2.342   1.417   1.713 -0.7317  0.2768  0.2445
 2620TIP3    H1 7824   2.380   1.404   1.800 -0.9718  0.1408  0.3296
 2620TIP3    H2 7825   2.367   1.506   1.689 -0.5685  0.2746  0.4044
 2621TIP3   OH2 7826   0.663   2.139   4.392  0.3451 -0.2546 -0.2470
 2621TIP3    H1 7827   0.672   2.213   4.331 -0.9254  0.4709  0.4044
 2621TIP3    H2 7828   0.727   2.075   4.362  0.7499  0.6888 -1.4640
 2622TIP3   OH2 7829   0.928   6.129   3.808 -0.2305 -0.1704 -0.5452
 2622TIP3    H1 7830   0.923   6.090   3.720 -1.7487  1.6389 -1.3159
 2622TIP3    H2 7831   0.993   6.199   3.800 -0.1517 -0.1921 -0.1304
 2623TIP3   OH2 7832   3.712   1.277   5.344  0.1930 -0.2730 -0.1857
 2623TIP3    H1 7833   3.649   1.348   5.352 -0.3318 -0.5479 -1.6118
 2623TIP3    H2 7834   3.660   1.201   5.316  1.0713 -0.6243 -0.9140
 2624TIP3   OH2 7835   5.793   2.744   2.370  0.7990  0.8917 -0.3611
 2624TIP3    H1 7836   5.884   2.747   2.339  1.0648 -3.1095 -0.5396
 2624TIP3    H2 7837   5.795   2.680   2.442 -1.8367  0.8850 -0.2099
 2625TIP3   OH2 7838   2.132   2.396   0.432 -0.0879  0.5420 -0.5795
 2625TIP3    H1 7839   2.145   2.491   0.437  0.7930  0.3660  1.3603
 2625TIP3    H2 7840   2.102   2.372   0.519  0.0527 -1.0163 -0.9395
 2626TIP3   OH2 7841   3.732   4.993   1.651  0.1647 -0.0901 -0.4014
 2626TIP3    H1 7842   3.783   4.922   1.613 -0.8288 -0.0218 -1.9535
 2626TIP3    H2 7843   3.698   5.041   1.576 -0.8069  0.8594  0.5996
 2627TIP3   OH2 7844   4.258   0.040   3.317 -0.3297  0.3568 -0.2266
 2627TIP3    H1 7845   4.188  -0.025   3.311  0.1177 -0.1338 -0.1918
 2627TIP3    H2 7846   4.302   0.035   3.232  1.0263 -0.9058  0.4982
 2628TIP3   OH2 7847   6.293   1.058   5.384 -0.1674 -0.1885 -0.1337
 2628TIP3    H1 7848   6.301   0.977   5.435 -1.0582 -0.3363 -0.2110
 2628TIP3    H2 7849   6.277   1.126   5.449  2.2868  0.2648  0.1137
 2629TIP3   OH2 7850   2.875   0.756   3.006 -0.6998 -0.0178 -0.2456
 2629TIP3    H1 7851   2.860   0.850   2.994  0.0285  0.2213  0.6430
 2629TIP3    H2 7852   2.883   0.744   3.100  0.6055 -0.7431 -0.4192
 2630TIP3   OH2 7853   5.908   4.935   2.785 -0.3474 -0.4849  0.0070
 2630TIP3    H1 7854   5.912   4.895   2.872 -0.6684  0.1654  0.3228
 2630TIP3    H2 7855   5.992   4.913   2.745 -0.2191 -0.8330  0.4598
 2631TIP3   OH2 7856   5.684   3.167   4.804 -0.5978 -0.2816  0.4115
 2631TIP3    H1 7857   5.724   3.216   4.876  2.1657  1.1583 -1.8526
 2631TIP3    H2 7858   5.668   3.080   4.840  1.7060  0.0331  2.5147
 2632TIP3   OH2 7859   2.109   0.769   0.561  0.4317 -0.2803  0.6533
 2632TIP3    H1 7860   2.173   0.751   0.492 -1.0007 -0.4835 -0.6775
 2632TIP3    H2 7861   2.024   0.761   0.518 -0.5002  3.4391  1.4510
 2633TIP3   OH2 7862   4.863   0.627   2.794  0.2659  0.1121 -0.0598
 2633TIP3    H1 7863   4.928   0.697   2.789  0.2364  0.1669  0.2863
 2633TIP3    H2 7864   4.789   0.666   2.842 -0.2490  0.2219 -0.9167
 2634TIP3   OH2 7865   0.078   1.908   3.953 -0.4687  0.0965  0.2667
 2634TIP3    H1 7866  -0.012   1.880   3.966 -1.0927  1.2570 -1.2356
 2634TIP3    H2 7867   0.088   1.913   3.858  1.3088 -0.3742  0.3863
 2635TIP3   OH2 7868   0.445   3.669   4.564 -0.2038 -0.4821 -0.0246
 2635TIP3    H1 7869   0.394   3.633   4.637  0.7433  0.0221  0.9251
 2635TIP3    H2 7870   0.500   3.596   4.535 -0.3069 -0.5772  0.0187
 2636TIP3   OH2 7871   3.205   1.906   1.894  0.0234 -0.0662  0.0656
 2636TIP3    H1 7872   3.284   1.901   1.840 -0.6812  2.1442 -1.3029
 2636TIP3    H2 7873   3.215   1.987   1.945 -1.6081  0.6326 -0.6357
 2637TIP3   OH2 7874   3.140   6.597   3.625 -0.2070  0.3134 -0.4332
 2637TIP3    H1 7875   3.185   6.658   3.566  1.2001  0.8128  1.1036
 2637TIP3    H2 7876   3.140   6.514   3.578  1.1401  0.6314 -1.0450
 2638TIP3   OH2 7877   4.475   2.665   4.227 -0.2679  0.0724 -0.1879
 2638TIP3    H1 7878   4.516   2.608   4.162 -0.4047 -1.3063  0.8883
 2638TIP3    H2 7879   4.481   2.753   4.189 -0.7563 -0.7280 -2.2598
 2639TIP3   OH2 7880   2.118   3.450   3.927  0.2863  0.2510  0.1426
 2639TIP3    H1 7881   2.047   3.484   3.872  0.1912  1.7193  1.1327
 2639TIP3    H2 7882   2.079   3.374   3.971  0.2205 -0.6672 -1.4067
 2640TIP3   OH2 7883   4.585   4.884   0.599 -0.2366  0.0082  0.0396
 2640TIP3    H1 7884   4.583   4.958   0.538  2.3663  0.0024 -0.1575
 2640TIP3    H2 7885   4.533   4.816   0.557  0.7666  0.3130 -1.7591
 2641TIP3   OH2 7886   7.027   2.915   5.777 -0.5254 -0.3705  0.2050
 2641TIP3    H1 7887   7.002   2.827   5.751 -0.4186 -0.2530 -0.3012
 2641TIP3    H2 7888   7.071   2.904   5.861 -2.8807 -0.5038  1.4962
 2642TIP3   OH2 7889   2.038   6.578   1.008 -0.5216  0.3425  0.7817
 2642TIP3    H1 7890   1.965   6.572   0.946 -0.6769 -1.1538  1.0673
 2642TIP3    H2 7891   2.049   6.671   1.023  0.3194  0.8833 -2.4238
 2643TIP3   OH2 7892   2.450   1.236   4.238  0.0126 -0.4771 -0.1168
 2643TIP3    H1 7893   2.379   1.265   4.296 -0.5628 -0.8923 -0.6049
 2643TIP3    H2 7894   2.442   1.291   4.161  1.1402  0.4707  0.4175
 2644TIP3   OH2 7895   0.107   2.914   3.674  0.0949  0.8621 -0.3017
 2644TIP3    H1 7896   0.084   2.872   3.757  0.0030  1.3459 -0.0805
 2644TIP3    H2 7897   0.110   2.842   3.611 -0.0335  0.5189  0.0798
 2645TIP3   OH2 7898   0.836   1.643   0.715 -0.8612 -0.2547  0.4314
 2645TIP3    H1 7899   0.840   1.700   0.639  0.2790 -0.9657 -0.0753
 2645TIP3    H2 7900   0.745   1.615   0.721 -1.2901  1.0677  0.2956
 2646TIP3   OH2 7901   5.686   4.651   0.513  0.0778  0.0145 -0.3571
 2646TIP3    H1 7902   5.609   4.704   0.493 -1.5872 -1.8770  0.6888
 2646TIP3    H2 7903   5.724   4.630   0.428 -0.1273  1.5288 -0.8512
 2647TIP3   OH2 7904   0.209   1.504   4.432  0.2149  0.9068  0.3729
 2647TIP3    H1 7905   0.225   1.459   4.349 -2.9994 -0.8743  0.5805
 2647TIP3    H2 7906   0.222   1.596   4.412  1.9878  0.3644 -1.4005
 2648TIP3   OH2 7907   3.445   3.643   5.168  0.3129  0.4508 -0.1676
 2648TIP3    H1 7908   3.496   3.678   5.240  0.4670  1.4389 -0.7381
 2648TIP3    H2 7909   3.354   3.655   5.195  0.3707  0.1538  0.1656
 2649TIP3   OH2 7910   3.484   6.551   4.982  0.1288 -0.4955 -0.1829
 2649TIP3    H1 7911   3.483   6.542   4.886  0.0780 -0.6029 -0.1720
 2649TIP3    H2 7912   3.393   6.569   5.005  0.1988 -0.1160 -0.1880
 2650TIP3   OH2 7913   0.129   1.573   4.028  0.6790  0.7293 -0.2303
 2650TIP3    H1 7914   0.115   1.491   4.076  0.1684  0.4904 -0.7694
 2650TIP3    H2 7915   0.053   1.627   4.050  0.8016  0.8932 -0.2075
 2651TIP3   OH2 7916   1.371   3.631   4.285  0.1822 -0.3241  0.5336
 2651TIP3    H1 7917   1.371   3.538   4.306  0.5482 -0.4176  0.1467
 2651TIP3    H2 7918   1.428   3.638   4.207 -0.7644  0.0593 -0.1427
 2652TIP3   OH2 7919   5.086   2.559   0.184 -0.6772 -0.3107  0.2852
 2652TIP3    H1 7920   5.072   2.646   0.146 -1.6176 -0.5199  0.1201
 2652TIP3    H2 7921   5.169   2.566   0.231  0.5006 -0.0195 -1.7286
 2653TIP3   OH2 7922   0.685   5.991   3.947  0.4492 -0.5430 -0.1328
 2653TIP3    H1 7923   0.717   5.902   3.958  2.3692  0.2081  0.8859
 2653TIP3    H2 7924   0.760   6.040   3.914 -1.1904  0.2999 -2.9194
 2654TIP3   OH2 7925   4.986   5.497   3.322 -0.5766 -0.4705 -0.6988
 2654TIP3    H1 7926   4.896   5.469   3.341 -0.3268 -0.9266 -0.1427
 2654TIP3    H2 7927   4.992   5.584   3.362 -1.7733  1.0710 -3.6026
 2655TIP3   OH2 7928   1.070   5.918   4.496  0.0026  0.3708 -0.4635
 2655TIP3    H1 7929   1.034   5.993   4.448  0.2460 -0.3787 -1.8864
 2655TIP3    H2 7930   1.154   5.901   4.453 -0.0643 -0.7225 -0.1912
 2656TIP3   OH2 7931   2.997   6.630   0.250 -0.3226  0.6783 -0.1241
 2656TIP3    H1 7932   3.087   6.597   0.248 -0.7222 -0.6577  1.7435
 2656TIP3    H2 7933   2.954   6.587   0.176 -0.4321 -1.9458  1.3529
 2657TIP3   OH2 7934   4.175   1.906   2.831  0.5205 -0.3504  0.0284
 2657TIP3    H1 7935   4.154   1.824   2.878 -1.0185  0.0927  0.1725
 2657TIP3    H2 7936   4.095   1.926   2.783  0.7530  1.2660  0.2832
 2658TIP3   OH2 7937   1.265   1.825   5.709 -0.4433  0.0939 -0.2259
 2658TIP3    H1 7938   1.270   1.747   5.653 -0.9767 -0.8050  0.9193
 2658TIP3    H2 7939   1.339   1.879   5.681  0.1589 -0.9827 -0.8180
 2659TIP3   OH2 7940   3.282   5.511   4.547  0.4693 -0.3140 -0.1869
 2659TIP3    H1 7941   3.205   5.567   4.531  0.0138  1.2117  5.3374
 2659TIP3    H2 7942   3.247   5.422   4.548 -0.7953  0.1564 -0.0040
 2660TIP3   OH2 7943   0.334   6.126   0.779  0.6792 -0.5930 -0.3937
 2660TIP3    H1 7944   0.260   6.183   0.797  1.1973 -0.0181 -0.0277
 2660TIP3    H2 7945   0.346   6.131   0.684  0.2998 -0.6240 -0.4430
 2661TIP3   OH2 7946   1.440   3.017   0.910  0.1659 -0.1222  0.2560
 2661TIP3    H1 7947   1.354   3.005   0.871  0.2499  0.7266 -0.2133
 2661TIP3    H2 7948   1.447   2.948   0.976 -0.6625 -0.5087 -0.0570
 2662TIP3   OH2 7949   3.374   6.121   1.187 -0.1339  0.2878  0.4447
 2662TIP3    H1 7950   3.345   6.210   1.166  1.6070  0.7853 -0.0077
 2662TIP3    H2 7951   3.326   6.065   1.125  0.2140  1.1311 -0.6253
 2663TIP3   OH2 7952   1.020   4.527   3.103  0.1030  0.5351 -0.4815
 2663TIP3    H1 7953   1.089   4.461   3.100  0.0491  0.4075  0.6524
 2663TIP3    H2 7954   0.959   4.501   3.035 -0.5532 -1.3254  0.7435
 2664TIP3   OH2 7955   5.716   4.612   5.195 -0.4491 -0.0279  0.1138
 2664TIP3    H1 7956   5.776   4.543   5.223 -0.2694 -0.2749 -0.8783
 2664TIP3    H2 7957   5.758   4.693   5.226  0.0938 -0.2406 -0.0521
 2665TIP3   OH2 7958   0.314   1.552   1.884  0.4536 -0.3092 -0.4094
 2665TIP3    H1 7959   0.226   1.539   1.919  0.1732  1.2437 -0.4654
 2665TIP3    H2 7960   0.314   1.504   1.801 -0.0360 -1.0620  0.0135
 2666TIP3   OH2 7961   5.240   5.982   5.559  0.1786 -0.6795 -0.2835
 2666TIP3    H1 7962   5.258   5.904   5.506  0.8792 -0.5097 -0.3031
 2666TIP3    H2 7963   5.160   6.018   5.521 -0.6662 -1.8701  0.2873
 2667TIP3   OH2 7964   3.623   2.035   2.536  0.0673 -0.0212  0.4875
 2667TIP3    H1 7965   3.641   2.099   2.467 -1.5536 -1.6609 -1.5957
 2667TIP3    H2 7966   3.671   1.957   2.509  0.6176 -0.2561  2.0574
 2668TIP3   OH2 7967   0.923   3.694   0.322  0.9131 -0.1408 -0.0587
 2668TIP3    H1 7968   0.828   3.701   0.322  0.8209 -0.6858  2.2000
 2668TIP3    H2 7969   0.944   3.642   0.244 -0.6913 -0.6477 -0.1688
 2669TIP3   OH2 7970   2.692   3.940   5.255  0.2447  0.3097  0.4247
 2669TIP3    H1 7971   2.659   3.954   5.166 -1.3681 -0.9182  0.7696
 2669TIP3    H2 7972   2.735   4.022   5.278 -1.6553  1.6443 -0.5015
 2670TIP3   OH2 7973   5.635   2.415   0.935  0.3824  0.3008  0.2301
 2670TIP3    H1 7974   5.623   2.383   0.846  0.4056  1.1525 -0.0906
 2670TIP3    H2 7975   5.632   2.511   0.927  0.1747  0.3854  1.1697
 2671TIP3   OH2 7976   3.700   4.404   0.715  0.6987 -0.3663 -0.6565
 2671TIP3    H1 7977   3.699   4.327   0.658  0.9982 -1.2997  0.5628
 2671TIP3    H2 7978   3.610   4.414   0.745  0.8073 -0.7410 -0.1870
 2672TIP3   OH2 7979   2.828   3.549   4.905 -0.1998 -0.3713  0.2944
 2672TIP3    H1 7980   2.802   3.471   4.953  0.2534 -0.5788  0.2123
 2672TIP3    H2 7981   2.751   3.606   4.907 -1.2607 -1.6578 -1.4025
 2673TIP3   OH2 7982   6.963   1.586   3.949 -0.3633 -0.3979 -0.5303
 2673TIP3    H1 7983   6.876   1.599   3.987  0.0115 -0.1699  0.2673
 2673TIP3    H2 7984   6.961   1.497   3.914 -0.8489 -0.4700 -0.3339
 2674TIP3   OH2 7985   6.795   1.630   5.852 -0.2232 -0.1562 -0.5323
 2674TIP3    H1 7986   6.813   1.701   5.791 -0.2525 -0.0058 -0.3669
 2674TIP3    H2 7987   6.881   1.592   5.871 -0.1117  0.3088 -0.0495
 2675TIP3   OH2 7988   5.429   2.592   0.023  0.7756  0.8556 -0.3641
 2675TIP3    H1 7989   5.466   2.636  -0.053  2.1671 -0.7183 -0.6427
 2675TIP3    H2 7990   5.386   2.662   0.072 -1.7091  1.6776 -3.4000
 2676TIP3   OH2 7991   2.777   2.990   0.623 -0.1927 -0.1016  0.4354
 2676TIP3    H1 7992   2.732   2.905   0.615  0.0998 -0.2708  0.5832
 2676TIP3    H2 7993   2.706   3.054   0.632 -0.3847 -0.5546  2.6343
 2677TIP3   OH2 7994   7.058   1.830   4.026  0.1532 -0.3697 -0.2839
 2677TIP3    H1 7995   7.001   1.862   4.096 -1.1438 -0.4827 -1.2371
 2677TIP3    H2 7996   7.024   1.743   4.005  3.1005 -2.1302  1.6862
 2678TIP3   OH2 7997   2.828   4.214   3.543  0.1838  0.2557  0.2220
 2678TIP3    H1 7998   2.858   4.279   3.479 -0.5659  0.6355  0.2419
 2678TIP3    H2 7999   2.747   4.180   3.506  0.7314 -0.9096  0.0681
 2679TIP3   OH2 8000   3.812   1.855   4.931  0.6563  0.1932 -0.0533
 2679TIP3    H1 8001   3.837   1.763   4.924  0.8034  0.1237  1.1908
 2679TIP3    H2 8002   3.892   1.900   4.956  1.1878  1.0664 -3.0152
 2680TIP3   OH2 8003   6.514   5.990   0.437  0.4076 -0.1615  0.1564
 2680TIP3    H1 8004   6.422   5.968   0.446  0.4219 -0.3958 -0.2140
 2680TIP3    H2 8005   6.559   5.933   0.500  0.2919  0.0292  0.4124
 2681TIP3   OH2 8006   5.954   0.410   0.786 -0.0575  0.5256 -0.0366
 2681TIP3    H1 8007   5.980   0.347   0.854 -1.5705  0.1327  0.2243
 2681TIP3    H2 8008   5.993   0.376   0.706 -1.3060 -1.1271 -0.0039
 2682TIP3   OH2 8009   6.192   2.474   3.537  0.4585  0.2608 -1.2805
 2682TIP3    H1 8010   6.174   2.490   3.444 -2.7360  2.0016 -0.4850
 2682TIP3    H2 8011   6.112   2.436   3.572  2.2021 -2.1485  0.5105
 2683TIP3   OH2 8012   5.226   5.191   2.091  0.7406  0.2194  1.0238
 2683TIP3    H1 8013   5.206   5.146   2.173 -0.0042  0.3976  0.9548
 2683TIP3    H2 8014   5.302   5.145   2.056  1.9743  1.0692  2.5096
 2684TIP3   OH2 8015   5.926   2.118   0.711 -0.4962  0.5304 -0.1338
 2684TIP3    H1 8016   5.985   2.090   0.641 -2.2990 -1.5558 -0.9774
 2684TIP3    H2 8017   5.854   2.162   0.665 -0.4776  1.4427  0.6858
 2685TIP3   OH2 8018   1.571   5.439   5.866  0.4349 -0.1558 -0.0956
 2685TIP3    H1 8019   1.558   5.424   5.772 -0.7509  0.9026 -0.1337
 2685TIP3    H2 8020   1.563   5.534   5.876 -0.9005 -0.3803  1.2754
 2686TIP3   OH2 8021   3.148   5.455   3.603  0.1755  0.2223  0.0005
 2686TIP3    H1 8022   3.230   5.428   3.645 -0.7032 -1.3487  0.7766
 2686TIP3    H2 8023   3.084   5.457   3.675 -1.6220 -3.5092 -1.2727
 2687TIP3   OH2 8024   5.759   5.888   3.020  0.1988  0.0314  0.1315
 2687TIP3    H1 8025   5.666   5.902   3.039  0.4432  0.3810  1.1119
 2687TIP3    H2 8026   5.798   5.974   3.029  0.7654 -0.2692  0.5853
 2688TIP3   OH2 8027   3.454   5.600   0.823 -0.0984  0.2032 -0.1474
 2688TIP3    H1 8028   3.491   5.680   0.860 -0.2127  0.7715 -1.2148
 2688TIP3    H2 8029   3.531   5.550   0.795  0.0453 -0.7269  1.7761
 2689TIP3   OH2 8030   0.575   1.349   0.233 -0.4275 -0.2021 -0.0714
 2689TIP3    H1 8031   0.633   1.382   0.302 -0.8555 -0.1777  0.2852
 2689TIP3    H2 8032   0.614   1.380   0.151 -1.2149  1.8620  0.2712
 2690TIP3   OH2 8033   7.009   5.581   4.406 -0.7855 -0.8455  0.1733
 2690TIP3    H1 8034   6.932   5.637   4.414 -0.8019 -0.2745 -2.7247
 2690TIP3    H2 8035   6.993   5.530   4.326  0.9429 -2.2467  0.6472
 2691TIP3   OH2 8036   2.203   4.557   0.239 -0.2014  0.2889 -0.4092
 2691TIP3    H1 8037   2.147   4.495   0.192  0.8596 -0.5752 -0.5725
 2691TIP3    H2 8038   2.152   4.638   0.242 -0.2914  0.4365 -3.1515
 2692TIP3   OH2 8039   3.908   2.027   0.983 -0.3173  0.9939  1.0466
 2692TIP3    H1 8040   3.901   2.084   1.059 -0.5476  1.2780  0.8162
 2692TIP3    H2 8041   3.873   1.943   1.013 -0.7432  1.2059  1.1541
 2693TIP3   OH2 8042   1.586   0.678   0.089  0.5418 -0.0860  0.3333
 2693TIP3    H1 8043   1.520   0.707   0.152  0.9226 -0.6762  1.0050
 2693TIP3    H2 8044   1.621   0.760   0.053 -1.1981  0.2549 -0.7394
 2694TIP3   OH2 8045   2.513   3.501   5.466 -0.2629  0.5283 -0.6286
 2694TIP3    H1 8046   2.496   3.593   5.488  0.4571  0.2637  1.2479
 2694TIP3    H2 8047   2.552   3.504   5.379  0.5758  2.1016 -0.2419
 2695TIP3   OH2 8048   1.211   3.673   2.796  0.0957 -0.3944 -0.0567
 2695TIP3    H1 8049   1.198   3.752   2.745 -0.2147 -0.3126  0.1424
 2695TIP3    H2 8050   1.136   3.671   2.857  0.2665 -0.6734  0.1495
 2696TIP3   OH2 8051   0.362   0.459   5.835  0.1097 -0.4534  0.5108
 2696TIP3    H1 8052   0.428   0.413   5.784  0.0466  0.0017  0.0076
 2696TIP3    H2 8053   0.352   0.407   5.915 -0.1450 -1.4399 -0.1528
 2697TIP3   OH2 8054   6.387   5.213   5.026 -0.1627 -0.0313  0.2013
 2697TIP3    H1 8055   6.405   5.277   4.957  3.3432  1.2167  1.9867
 2697TIP3    H2 8056   6.431   5.133   4.997 -0.5180 -0.1839  0.0728
 2698TIP3   OH2 8057   1.166   4.981   2.239  0.1976  0.0612  0.7500
 2698TIP3    H1 8058   1.080   5.019   2.224 -0.8858 -2.2156  0.6934
 2698TIP3    H2 8059   1.219   5.011   2.165 -0.3553  1.9209  1.0674
 2699TIP3   OH2 8060   2.330   4.170   3.337  0.5417 -0.2972  0.4358
 2699TIP3    H1 8061   2.308   4.159   3.430 -0.3859  2.6410  0.6589
 2699TIP3    H2 8062   2.390   4.244   3.335 -0.5193  0.5798 -1.3846
 2700TIP3   OH2 8063   3.311   3.798   0.591  0.5748  0.4480  0.2478
 2700TIP3    H1 8064   3.383   3.756   0.545 -0.1771 -0.2876 -0.2815
 2700TIP3    H2 8065   3.317   3.764   0.681  0.2060 -0.5051 -0.0790
 2701TIP3   OH2 8066   1.627   4.548   4.035 -0.2398  0.3655  0.2106
 2701TIP3    H1 8067   1.634   4.459   4.071 -1.5931 -0.0448 -0.4924
 2701TIP3    H2 8068   1.708   4.560   3.986 -0.0149 -0.4656  0.3617
 2702TIP3   OH2 8069   5.809   5.450   2.166  0.0587 -0.0022  0.0207
 2702TIP3    H1 8070   5.877   5.471   2.102  1.8866 -1.0007  1.5442
 2702TIP3    H2 8071   5.847   5.381   2.220 -2.0109 -0.2852  1.2286
 2703TIP3   OH2 8072   6.910   5.766   5.325 -0.3215  0.4526 -0.6088
 2703TIP3    H1 8073   6.984   5.788   5.268  0.1556  0.6166  0.0634
 2703TIP3    H2 8074   6.950   5.739   5.408 -0.9785 -0.5719 -0.6013
 2704TIP3   OH2 8075   5.545   4.847   3.012  0.3589 -0.0651 -0.0048
 2704TIP3    H1 8076   5.466   4.793   3.012 -0.4476  1.0745  0.0158
 2704TIP3    H2 8077   5.578   4.842   2.922 -0.1775  0.0647 -0.2117
 2705TIP3   OH2 8078   3.862   2.237   4.473 -0.4828 -0.5949 -0.1529
 2705TIP3    H1 8079   3.917   2.306   4.508  1.3018 -2.0153 -0.0447
 2705TIP3    H2 8080   3.822   2.275   4.394 -0.5083  0.9163  0.5598
 2706TIP3   OH2 8081   1.023   6.513   3.585 -0.1525  0.4856  0.3223
 2706TIP3    H1 8082   0.933   6.480   3.581 -0.4521  1.2900 -2.7434
 2706TIP3    H2 8083   1.065   6.462   3.653 -2.3278 -1.5516  0.2539
 2707TIP3   OH2 8084   0.317   1.463   1.553 -0.1003 -0.0723  0.0905
 2707TIP3    H1 8085   0.407   1.441   1.528 -0.3920 -1.7457  0.3987
 2707TIP3    H2 8086   0.312   1.559   1.544  1.7713  0.0781  0.3213
 2708TIP3   OH2 8087   1.834   3.429   2.385 -0.3121  0.0863 -0.2568
 2708TIP3    H1 8088   1.755   3.466   2.425 -0.0720  2.3561 -1.7208
 2708TIP3    H2 8089   1.805   3.396   2.300  0.3148  0.9509 -0.8118
 2709TIP3   OH2 8090   4.608   6.475   0.789  0.3865  0.1551 -0.2187
 2709TIP3    H1 8091   4.607   6.568   0.766  2.3222  0.1391 -0.5564
 2709TIP3    H2 8092   4.522   6.459   0.826 -0.2407  1.9208 -0.7828
 2710TIP3   OH2 8093   6.146   4.662   5.122  0.6189  0.0031 -0.0554
 2710TIP3    H1 8094   6.098   4.582   5.100 -2.2600  1.4086  0.6813
 2710TIP3    H2 8095   6.214   4.668   5.054 -0.5718 -1.8215 -1.5182
 2711TIP3   OH2 8096   5.088   4.748   3.340 -0.1798 -0.5727  0.5209
 2711TIP3    H1 8097   5.012   4.771   3.286  2.4123  4.1162 -1.8112
 2711TIP3    H2 8098   5.073   4.793   3.423 -0.6677 -1.1685  0.7670
 2712TIP3   OH2 8099   6.469   2.389   3.472  0.0115  0.0991 -0.6100
 2712TIP3    H1 8100   6.377   2.388   3.497  0.5048  0.2096  1.3598
 2712TIP3    H2 8101   6.475   2.458   3.406 -1.2999  0.0693 -0.7904
 2713TIP3   OH2 8102   6.901   1.843   2.676  0.5159  0.3285  0.4864
 2713TIP3    H1 8103   6.888   1.857   2.582  2.4938  1.1931  0.3101
 2713TIP3    H2 8104   6.857   1.916   2.718 -1.1922 -0.5529  0.3366
 2714TIP3   OH2 8105   2.913   1.252   4.928 -0.3109 -0.5851  0.1705
 2714TIP3    H1 8106   2.893   1.282   5.017  0.6304 -1.2154  0.6152
 2714TIP3    H2 8107   2.989   1.194   4.939 -0.4913 -1.0658 -0.9854
 2715TIP3   OH2 8108   4.727   4.417   3.550 -0.0998 -0.0016  0.3223
 2715TIP3    H1 8109   4.734   4.371   3.634 -0.8684 -0.3265  0.2172
 2715TIP3    H2 8110   4.785   4.492   3.559 -0.1021 -0.0838  1.1095
 2716TIP3   OH2 8111   0.360   3.094   3.251  0.6551  0.1757 -0.0391
 2716TIP3    H1 8112   0.405   3.155   3.309  2.1120  1.1946 -2.1314
 2716TIP3    H2 8113   0.424   3.026   3.233 -0.0579 -0.5651  0.1285
 2717TIP3   OH2 8114   6.672   2.535   2.686  0.0583  0.0454 -0.3796
 2717TIP3    H1 8115   6.664   2.529   2.591  0.5312  1.3800 -0.5251
 2717TIP3    H2 8116   6.748   2.481   2.707 -1.4307 -2.2039 -0.4495
 2718TIP3   OH2 8117   6.231   6.669   4.051  0.3375 -0.4903 -0.1022
 2718TIP3    H1 8118   6.284   6.638   3.978  0.2267 -0.2230 -0.2945
 2718TIP3    H2 8119   6.217   6.591   4.105 -2.1568 -1.4307 -1.9369
 2719TIP3   OH2 8120   0.039   0.920   2.402  0.1795  0.1825  0.4281
 2719TIP3    H1 8121   0.029   0.861   2.478  1.0801 -0.1460  0.3079
 2719TIP3    H2 8122  -0.050   0.942   2.377 -0.2376 -1.8647 -0.0785
 2720TIP3   OH2 8123   6.181   3.211   3.619  0.1707 -0.0622  0.3807
 2720TIP3    H1 8124   6.260   3.157   3.615  0.5987  0.5900 -0.4431
 2720TIP3    H2 8125   6.173   3.246   3.530 -0.4074  0.7778  0.7576
 2721TIP3   OH2 8126   4.609   0.557   2.424 -0.0253  0.0049  0.6204
 2721TIP3    H1 8127   4.593   0.469   2.390  0.8663  0.0299  0.0997
 2721TIP3    H2 8128   4.528   0.580   2.469 -1.8712  0.5547 -2.6637
 2722TIP3   OH2 8129   2.463   4.532   3.454  0.0091  0.2758  0.0070
 2722TIP3    H1 8130   2.430   4.622   3.453  0.3254  0.5162  2.6966
 2722TIP3    H2 8131   2.551   4.539   3.492 -0.8276 -1.2905  2.5379
 2723TIP3   OH2 8132   6.220   1.747   1.222  0.0190 -0.2561 -0.3167
 2723TIP3    H1 8133   6.221   1.837   1.187  1.0586 -0.8275 -1.8803
 2723TIP3    H2 8134   6.286   1.748   1.291 -0.6972  0.4273  0.3707
 2724TIP3   OH2 8135   2.594   1.021   0.209 -0.1737  0.1718 -0.5313
 2724TIP3    H1 8136   2.560   0.973   0.285 -1.0822  0.2678 -0.8722
 2724TIP3    H2 8137   2.588   0.959   0.137 -0.0843  0.3614 -0.7024
 2725TIP3   OH2 8138   3.496   2.927   1.404 -0.0212 -0.2478  0.1076
 2725TIP3    H1 8139   3.491   2.970   1.489 -0.5930 -1.3857  0.6705
 2725TIP3    H2 8140   3.486   2.833   1.424 -1.7560 -0.4195 -1.3437
 2726TIP3   OH2 8141   6.169   5.111   1.728  0.1396  0.1554  0.2867
 2726TIP3    H1 8142   6.166   5.016   1.744  2.1559 -0.3108 -1.6572
 2726TIP3    H2 8143   6.232   5.144   1.792  0.6254 -0.1027 -0.0458
 2727TIP3   OH2 8144   2.441   5.888   0.733  0.1641  0.4738 -0.0582
 2727TIP3    H1 8145   2.536   5.895   0.726  0.2165  0.3806  0.5137
 2727TIP3    H2 8146   2.414   5.843   0.653  0.7210 -0.5760  0.3332
 2728TIP3   OH2 8147   1.170   5.492   4.201 -0.2490  0.3835 -0.3867
 2728TIP3    H1 8148   1.096   5.433   4.213 -0.2571  0.0250 -1.9304
 2728TIP3    H2 8149   1.239   5.457   4.257 -0.0602 -1.4720 -1.6852
 2729TIP3   OH2 8150   3.531   0.993   3.122 -0.5395  0.3765 -0.5648
 2729TIP3    H1 8151   3.505   0.901   3.114  2.7850 -0.9324  1.5839
 2729TIP3    H2 8152   3.555   1.003   3.214  0.5302  3.0202 -1.0527
 2730TIP3   OH2 8153   2.020   2.571   4.295  0.4085  0.3476  0.6922
 2730TIP3    H1 8154   2.060   2.558   4.209  1.1414 -1.9655  1.3008
 2730TIP3    H2 8155   1.952   2.637   4.281  0.7690  0.2993 -1.5606
 2731TIP3   OH2 8156   1.229   5.787   1.217 -0.4322  0.4592 -0.9300
 2731TIP3    H1 8157   1.160   5.721   1.206  0.8144 -0.6874 -2.1663
 2731TIP3    H2 8158   1.222   5.841   1.139  1.5079 -1.0893 -2.2557
 2732TIP3   OH2 8159   1.769   1.686   4.080  0.1429 -0.1418  0.1064
 2732TIP3    H1 8160   1.750   1.617   4.017 -0.9700 -0.0375  0.3117
 2732TIP3    H2 8161   1.859   1.711   4.061 -0.4136  0.4751 -2.0367
 2733TIP3   OH2 8162   0.532   4.432   0.656  0.3546 -0.2983 -0.0309
 2733TIP3    H1 8163   0.498   4.432   0.745 -0.2427  0.8959 -0.2266
 2733TIP3    H2 8164   0.468   4.382   0.605 -0.3791  0.7023 -0.1287
 2734TIP3   OH2 8165   0.946   2.611   1.130 -0.5226 -0.4507  0.0674
 2734TIP3    H1 8166   0.901   2.667   1.066 -0.9121 -2.5196 -1.5982
 2734TIP3    H2 8167   0.876   2.564   1.175 -0.2472  0.9676  2.1104
 2735TIP3   OH2 8168   0.195   2.395   3.467  0.7046 -0.4599 -0.1088
 2735TIP3    H1 8169   0.199   2.487   3.494  0.8677 -0.2986 -0.6746
 2735TIP3    H2 8170   0.161   2.398   3.377  2.6511 -0.8024 -0.9027
 2736TIP3   OH2 8171   3.106   5.787   4.620  0.3925 -0.3347  0.4602
 2736TIP3    H1 8172   3.024   5.783   4.669  0.8039 -1.5009  1.0691
 2736TIP3    H2 8173   3.147   5.869   4.649 -0.6617  0.4083 -0.0617
 2737TIP3   OH2 8174   2.347   0.837   0.132 -0.0261 -0.1771 -0.5706
 2737TIP3    H1 8175   2.317   0.928   0.128 -0.5057 -0.3495 -0.8606
 2737TIP3    H2 8176   2.341   0.806   0.042  1.2174 -0.1578 -0.6850
 2738TIP3   OH2 8177   2.501   3.594   1.648 -0.2258  0.0708 -0.2418
 2738TIP3    H1 8178   2.461   3.530   1.708 -1.6207  0.4490 -0.7222
 2738TIP3    H2 8179   2.545   3.540   1.583 -0.3083 -0.3821  0.0694
 2739TIP3   OH2 8180   0.045   4.956   3.346 -0.4532  0.2363  0.6912
 2739TIP3    H1 8181  -0.031   4.915   3.387  0.9676 -2.7652  0.5644
 2739TIP3    H2 8182   0.114   4.950   3.412  0.7141 -0.7595 -0.5617
 2740TIP3   OH2 8183   0.812   2.866   1.631 -0.5799 -0.3138  0.2469
 2740TIP3    H1 8184   0.802   2.956   1.660  0.7283  0.5115 -1.6825
 2740TIP3    H2 8185   0.897   2.864   1.586 -0.4316 -2.5776  0.5097
 2741TIP3   OH2 8186   3.110   0.929   5.677 -0.0322  0.1775  0.7956
 2741TIP3    H1 8187   3.177   0.896   5.617  0.5893  0.9484  1.0657
 2741TIP3    H2 8188   3.044   0.968   5.619  0.1917  0.2423  0.5817
 2742TIP3   OH2 8189   0.658   3.132   1.449 -0.0951 -0.2727  0.3669
 2742TIP3    H1 8190   0.695   3.122   1.536  2.3859 -0.8134 -0.6694
 2742TIP3    H2 8191   0.692   3.216   1.418 -0.1177 -0.5510 -0.4392
 2743TIP3   OH2 8192   6.040   3.745   4.267 -0.0827 -0.3703  0.1362
 2743TIP3    H1 8193   6.023   3.837   4.247 -1.6453 -0.7354 -0.3593
 2743TIP3    H2 8194   6.121   3.725   4.220  0.6512  0.9065  0.7930
 2744TIP3   OH2 8195   5.771   0.513   1.135  0.5558  0.3509 -0.4201
 2744TIP3    H1 8196   5.833   0.512   1.062  1.4265 -0.6728  0.3066
 2744TIP3    H2 8197   5.722   0.595   1.123 -1.7741 -1.3082 -4.1140
 2745TIP3   OH2 8198   5.249   5.821   3.241  0.8190  0.1334 -0.6213
 2745TIP3    H1 8199   5.243   5.894   3.303  0.5748 -1.1951  1.0147
 2745TIP3    H2 8200   5.170   5.828   3.188  0.8228  1.0748 -0.5204
 2746TIP3   OH2 8201   5.141   0.650   0.748 -0.6362 -0.8007  0.3927
 2746TIP3    H1 8202   5.233   0.655   0.724 -0.6971  0.2385  0.3294
 2746TIP3    H2 8203   5.101   0.597   0.679 -0.1913 -0.7343  0.0822
 2747TIP3   OH2 8204   5.846   6.431   1.139  0.0049 -0.4181  0.6361
 2747TIP3    H1 8205   5.766   6.391   1.173 -0.3771 -0.3978 -0.2083
 2747TIP3    H2 8206   5.915   6.368   1.160 -0.5559 -1.4514 -0.5122
 2748TIP3   OH2 8207   6.501   0.075   0.248 -0.1173 -0.5628 -0.1275
 2748TIP3    H1 8208   6.510   0.072   0.343 -0.0138 -0.9822 -0.1504
 2748TIP3    H2 8209   6.431   0.138   0.233 -0.0308 -0.3786  0.2193
 2749TIP3   OH2 8210   5.528   2.019   1.193  0.3531 -0.3205  0.1400
 2749TIP3    H1 8211   5.468   2.043   1.122  0.7390 -1.3693 -0.5627
 2749TIP3    H2 8212   5.607   1.989   1.149 -0.0447 -2.7072  0.9330
 2750TIP3   OH2 8213   4.427   4.230   0.827  0.1692  0.4130  0.2940
 2750TIP3    H1 8214   4.494   4.282   0.871 -1.2077  1.6981  0.9890
 2750TIP3    H2 8215   4.433   4.255   0.735  0.4092  0.7991  0.4127
 2751TIP3   OH2 8216   1.324   1.245   2.493 -0.5781 -0.2513 -0.2449
 2751TIP3    H1 8217   1.239   1.201   2.495  0.2785 -1.9619 -0.0607
 2751TIP3    H2 8218   1.359   1.233   2.581  0.2697 -0.4177 -0.5949
 2752TIP3   OH2 8219   0.467   2.112   2.345  0.9084  0.0448  0.4543
 2752TIP3    H1 8220   0.528   2.156   2.403  2.3354  0.5682 -1.3720
 2752TIP3    H2 8221   0.522   2.059   2.287 -0.5447 -1.4612  0.3642
 2753TIP3   OH2 8222   4.216   3.863   3.227 -0.2960 -0.1945 -0.2917
 2753TIP3    H1 8223   4.305   3.897   3.237 -0.8848  1.7363 -1.1006
 2753TIP3    H2 8224   4.163   3.921   3.282 -1.2656 -0.2668 -1.1404
 2754TIP3   OH2 8225   6.279   4.303   2.843  0.6544  0.0680 -0.5057
 2754TIP3    H1 8226   6.329   4.284   2.922  1.8603  1.5758 -0.8489
 2754TIP3    H2 8227   6.210   4.363   2.872  0.5807 -0.0497 -0.4411
 2755TIP3   OH2 8228   3.875   5.906   1.105 -0.1693 -0.0883  0.2681
 2755TIP3    H1 8229   3.810   5.975   1.091 -0.3590 -0.3044  0.0807
 2755TIP3    H2 8230   3.833   5.846   1.167 -0.2123 -0.3098  0.0265
 2756TIP3   OH2 8231   1.573   0.389   1.663 -0.5666  0.2487 -0.0952
 2756TIP3    H1 8232   1.620   0.435   1.593  0.9521 -0.5432  0.3582
 2756TIP3    H2 8233   1.622   0.409   1.742 -0.3559 -1.4382  0.2367
 2757TIP3   OH2 8234   4.975   5.384   4.614  0.1700  0.3786  0.4978
 2757TIP3    H1 8235   4.913   5.448   4.648 -0.7939 -0.3624  0.1726
 2757TIP3    H2 8236   4.983   5.405   4.521 -1.4933 -1.0063  0.0003
 2758TIP3   OH2 8237   6.304   6.257   0.782  0.1090  0.3146 -0.0319
 2758TIP3    H1 8238   6.314   6.206   0.862  0.0800  2.0833  1.1687
 2758TIP3    H2 8239   6.392   6.260   0.744  0.6314  1.3760  1.1982
 2759TIP3   OH2 8240   4.010   3.306   0.750  0.0607  0.1964  0.4344
 2759TIP3    H1 8241   4.069   3.243   0.708 -1.5033 -0.7238 -0.4667
 2759TIP3    H2 8242   4.068   3.376   0.781  1.4817  0.1901 -1.9365
 2760TIP3   OH2 8243   3.085   5.292   5.478 -0.4531  0.2316  0.2596
 2760TIP3    H1 8244   2.990   5.296   5.492 -0.2876  1.8719  1.1367
 2760TIP3    H2 8245   3.117   5.378   5.507  1.3218 -0.3436  0.0930
 2761TIP3   OH2 8246   5.595   3.929   5.796  0.2775  0.8897  0.4701
 2761TIP3    H1 8247   5.517   3.980   5.818  0.2961  1.4970 -0.7834
 2761TIP3    H2 8248   5.650   3.989   5.745  0.4721 -0.2498 -0.7226
 2762TIP3   OH2 8249   6.597   3.836   3.518  0.1450 -0.5984  0.9950
 2762TIP3    H1 8250   6.650   3.759   3.539  2.1004  0.8211  1.4772
 2762TIP3    H2 8251   6.604   3.892   3.595 -0.5816  0.4218  0.3363
 2763TIP3   OH2 8252   2.526   6.307   5.383  0.0529  0.0835 -0.0410
 2763TIP3    H1 8253   2.551   6.290   5.292 -1.0040 -0.9091 -0.1727
 2763TIP3    H2 8254   2.435   6.277   5.389 -0.0364  0.5414  1.2364
 2764TIP3   OH2 8255   1.102   1.532   1.986 -0.1622 -0.0069 -0.2879
 2764TIP3    H1 8256   1.043   1.513   1.914  1.7713 -3.1691 -1.2218
 2764TIP3    H2 8257   1.179   1.571   1.945  0.6990 -1.2428  0.0986
 2765TIP3   OH2 8258   1.520   6.704   1.017  0.5498  0.4377  0.1585
 2765TIP3    H1 8259   1.435   6.664   1.002  0.3877  0.7477  0.2376
 2765TIP3    H2 8260   1.557   6.716   0.930 -0.6172  2.7350 -0.0899
 2766TIP3   OH2 8261   5.658   4.906   2.463 -0.0801  0.5093  0.0323
 2766TIP3    H1 8262   5.612   4.866   2.389  0.0122 -2.2233  1.3274
 2766TIP3    H2 8263   5.750   4.910   2.436 -0.4652  2.8744 -1.2650
 2767TIP3   OH2 8264   5.414   1.649   4.811 -0.4621 -0.2026  0.5820
 2767TIP3    H1 8265   5.395   1.686   4.897 -0.1269 -1.9167  1.4470
 2767TIP3    H2 8266   5.337   1.667   4.759 -0.4937  1.2512  1.1033
 2768TIP3   OH2 8267   4.997   2.139   2.837  0.1075  0.5740  0.5622
 2768TIP3    H1 8268   4.937   2.150   2.911  0.2113 -2.3107  1.2156
 2768TIP3    H2 8269   4.941   2.107   2.766  0.1823  2.3549 -0.3445
 2769TIP3   OH2 8270   0.521   0.147   2.889 -0.3392  0.2316 -0.0074
 2769TIP3    H1 8271   0.497   0.226   2.939  0.3463  0.3529  0.1447
 2769TIP3    H2 8272   0.541   0.180   2.801 -4.0184 -0.2736 -1.1901
 2770TIP3   OH2 8273   1.559   5.494   1.642 -0.1229  0.1366 -0.0193
 2770TIP3    H1 8274   1.585   5.510   1.733 -0.8192 -0.6856  0.3418
 2770TIP3    H2 8275   1.491   5.559   1.625  0.6695  0.9161 -0.2769
 2771TIP3   OH2 8276   1.263   1.649   3.641 -0.1938  0.3557  0.1871
 2771TIP3    H1 8277   1.243   1.681   3.553  1.7425 -1.1481 -0.8826
 2771TIP3    H2 8278   1.246   1.555   3.636 -1.0618  0.4025  1.7644
 2772TIP3   OH2 8279   4.762   0.423   2.100 -0.1718 -0.2649  0.5176
 2772TIP3    H1 8280   4.796   0.396   2.015  0.9390  0.1981  0.7911
 2772TIP3    H2 8281   4.694   0.487   2.080  0.8672  0.7147 -0.0285
 2773TIP3   OH2 8282   3.708   4.666   4.869 -0.3449  0.1047 -0.3424
 2773TIP3    H1 8283   3.700   4.758   4.893 -2.1716 -0.2147  0.4014
 2773TIP3    H2 8284   3.780   4.633   4.922 -1.4854  0.4733  1.5192
 2774TIP3   OH2 8285   4.716   1.512   3.936 -0.4302 -0.0627 -0.3741
 2774TIP3    H1 8286   4.749   1.540   4.021 -0.7300  0.6523 -0.4840
 2774TIP3    H2 8287   4.790   1.468   3.895  0.1041  0.6773 -0.2318
 2775TIP3   OH2 8288   4.524   6.305   5.290  0.0850 -0.4674 -0.0128
 2775TIP3    H1 8289   4.462   6.232   5.292 -0.2271 -0.2334 -0.6381
 2775TIP3    H2 8290   4.606   6.268   5.323 -0.6599 -0.4842  1.9612
 2776TIP3   OH2 8291   1.734   2.963   3.196 -0.2989  0.5667 -0.1403
 2776TIP3    H1 8292   1.650   2.997   3.225  0.1552  1.6991 -0.1213
 2776TIP3    H2 8293   1.782   3.040   3.165  0.2907 -0.2193 -1.2562
 2777TIP3   OH2 8294   5.727   2.837   0.467  0.0042 -0.4660  0.7874
 2777TIP3    H1 8295   5.815   2.856   0.499 -1.4933  1.2276  4.4888
 2777TIP3    H2 8296   5.715   2.897   0.393  1.3181  0.6915  1.4669
 2778TIP3   OH2 8297   6.357   2.707   4.027  0.5608  0.1730 -0.2935
 2778TIP3    H1 8298   6.361   2.803   4.027 -1.0892  0.2799  1.2973
 2778TIP3    H2 8299   6.312   2.685   3.945 -2.1280  0.9894  0.8715
 2779TIP3   OH2 8300   2.850   4.495   1.141 -0.1731 -0.8053 -0.0464
 2779TIP3    H1 8301   2.791   4.484   1.066  2.3629  2.1441 -2.8100
 2779TIP3    H2 8302   2.796   4.535   1.209 -2.1483 -1.7121 -0.9941
 2780TIP3   OH2 8303   0.072   6.574   3.289 -0.6016  0.4329  0.1615
 2780TIP3    H1 8304   0.158   6.584   3.330  0.0456 -0.0903 -1.0252
 2780TIP3    H2 8305   0.035   6.663   3.290  0.1076  0.7333  0.3319
 2781TIP3   OH2 8306   3.424   6.588   5.839 -0.1641  0.7190 -0.4036
 2781TIP3    H1 8307   3.426   6.493   5.840 -0.9548  0.6921  1.0914
 2781TIP3    H2 8308   3.338   6.609   5.803  0.0648  0.8803 -0.8655
 2782TIP3   OH2 8309   3.810   1.418   4.800 -0.1248  0.1320 -0.4993
 2782TIP3    H1 8310   3.714   1.424   4.806 -0.4073 -0.6651 -2.8489
 2782TIP3    H2 8311   3.836   1.503   4.764 -0.2586 -0.4191 -1.9826
 2783TIP3   OH2 8312   1.875   4.734   3.041  0.1606 -0.5286 -0.3675
 2783TIP3    H1 8313   1.961   4.718   3.079  0.3576  1.9798  0.4369
 2783TIP3    H2 8314   1.814   4.691   3.101  0.6607  0.9513  1.2888
 2784TIP3   OH2 8315   0.531   5.017   5.219  0.1482  0.3965 -0.1605
 2784TIP3    H1 8316   0.515   5.079   5.148 -2.5647 -0.2925 -0.2626
 2784TIP3    H2 8317   0.603   5.055   5.269  0.4937  2.1221 -1.8663
 2785TIP3   OH2 8318   3.222   5.254   4.520  0.4693  0.1439 -0.3335
 2785TIP3    H1 8319   3.290   5.199   4.483 -0.3903  0.8610 -3.2575
 2785TIP3    H2 8320   3.140   5.209   4.498 -0.1072  0.0633  1.7643
 2786TIP3   OH2 8321   0.837   5.546   4.387  0.2459 -0.0861  0.3112
 2786TIP3    H1 8322   0.845   5.519   4.479 -1.7503 -1.1943  0.2358
 2786TIP3    H2 8323   0.742   5.553   4.373  0.4720 -0.6295 -1.8380
 2787TIP3   OH2 8324   3.851   6.053   2.992 -0.4198  0.0865 -0.0632
 2787TIP3    H1 8325   3.921   6.113   3.019  0.0309 -0.4881  0.0667
 2787TIP3    H2 8326   3.793   6.050   3.068 -0.0572 -0.2032  0.2053
 2788TIP3   OH2 8327   0.862   0.292   2.063  0.1463  0.3532  0.9681
 2788TIP3    H1 8328   0.789   0.268   2.007 -0.2710  1.4376  1.0272
 2788TIP3    H2 8329   0.932   0.230   2.040 -0.0059  0.7875 -0.7499
 2789TIP3   OH2 8330   4.435   6.076   2.153 -0.0369 -0.1737  0.1568
 2789TIP3    H1 8331   4.387   6.002   2.114 -2.2630  1.3542 -0.1725
 2789TIP3    H2 8332   4.488   6.110   2.080  1.0772 -1.4236  0.3314
 2790TIP3   OH2 8333   4.867   2.214   5.702  0.4117  0.5015 -0.3165
 2790TIP3    H1 8334   4.792   2.269   5.728  0.1884  0.4839 -0.9067
 2790TIP3    H2 8335   4.828   2.143   5.652  0.7646  0.1270 -0.0618
 2791TIP3   OH2 8336   3.261   3.823   4.000  0.1653  0.5859 -0.5900
 2791TIP3    H1 8337   3.287   3.734   4.021  0.4915  0.3175 -1.9897
 2791TIP3    H2 8338   3.340   3.875   4.015  0.0745  0.5830 -0.1017
 2792TIP3   OH2 8339   2.614   1.046   0.909  0.3490  0.6800 -0.5198
 2792TIP3    H1 8340   2.579   1.133   0.926 -0.6436 -0.0307  1.4318
 2792TIP3    H2 8341   2.666   1.026   0.987 -2.0210 -1.6555  0.6374
 2793TIP3   OH2 8342   0.246   2.569   2.267  0.1787 -0.0948 -0.3699
 2793TIP3    H1 8343   0.271   2.478   2.249  0.0285 -0.0287 -0.9110
 2793TIP3    H2 8344   0.302   2.594   2.341  0.7741 -0.3801 -0.7134
 2794TIP3   OH2 8345   2.602   6.364   3.580  0.8008  0.1875 -0.5906
 2794TIP3    H1 8346   2.617   6.416   3.501 -2.4287  1.1406 -0.7086
 2794TIP3    H2 8347   2.553   6.422   3.638  0.5824 -1.4555  0.9374
 2795TIP3   OH2 8348   1.835   0.633   3.182 -0.2187 -0.4245  0.6831
 2795TIP3    H1 8349   1.740   0.632   3.171 -0.1894 -2.3519  0.3714
 2795TIP3    H2 8350   1.849   0.670   3.270 -1.1837  0.6463  0.4138
 2796TIP3   OH2 8351   0.303   2.593   2.703 -0.3466 -0.0858 -0.1536
 2796TIP3    H1 8352   0.311   2.615   2.796  1.0774  1.5386 -0.6193
 2796TIP3    H2 8353   0.391   2.566   2.678  0.2763  3.0632 -1.8436
 2797TIP3   OH2 8354   5.894   4.575   4.607 -0.0727 -0.2416  0.0947
 2797TIP3    H1 8355   5.952   4.545   4.537 -1.8016 -2.2572 -0.5816
 2797TIP3    H2 8356   5.948   4.635   4.658  1.9420 -0.4125 -1.6721
 2798TIP3   OH2 8357   0.933   1.196   1.826 -0.0475 -0.6644  0.2290
 2798TIP3    H1 8358   0.952   1.238   1.742 -0.3564  0.9696  0.9329
 2798TIP3    H2 8359   1.008   1.218   1.882 -1.5124  1.5185  1.4868
 2799TIP3   OH2 8360   0.191   3.577   3.620 -0.0949  0.5055  0.0686
 2799TIP3    H1 8361   0.131   3.508   3.648  1.3441 -1.5568 -1.5610
 2799TIP3    H2 8362   0.135   3.643   3.580 -1.4009 -0.5591  0.0601
 2800TIP3   OH2 8363   0.140   4.696   2.703 -0.0633  0.3500  0.0547
 2800TIP3    H1 8364   0.178   4.751   2.635  0.6241 -0.1399  0.0305
 2800TIP3    H2 8365   0.114   4.616   2.658  0.1313  0.1397  0.3107
 2801TIP3   OH2 8366   0.468   4.758   3.950 -0.2841  0.4958 -0.5505
 2801TIP3    H1 8367   0.554   4.775   3.988 -0.9426  3.2320 -0.0585
 2801TIP3    H2 8368   0.419   4.717   4.020 -0.0852  1.1900  0.0115
 2802TIP3   OH2 8369   6.405   3.217   5.156 -0.1623 -0.3030 -0.1748
 2802TIP3    H1 8370   6.324   3.166   5.151 -0.2993 -0.0765 -0.2749
 2802TIP3    H2 8371   6.425   3.239   5.065 -1.4773  1.9732  0.0174
 2803TIP3   OH2 8372   4.901   2.939   5.730 -0.3024 -0.3183  0.0511
 2803TIP3    H1 8373   4.895   2.891   5.813 -1.2277 -2.6271 -1.2729
 2803TIP3    H2 8374   4.882   2.874   5.663 -0.3998  1.6667 -1.9625
 2804TIP3   OH2 8375   2.425   5.952   2.412 -0.2000  0.2140  0.9318
 2804TIP3    H1 8376   2.439   5.863   2.445 -0.9184  0.8148  2.9918
 2804TIP3    H2 8377   2.330   5.961   2.410 -0.2155  0.1226 -1.7128
 2805TIP3   OH2 8378   5.111   4.952   4.359 -0.3507 -0.0458 -0.5457
 2805TIP3    H1 8379   5.070   4.900   4.428  1.5342 -1.2670 -0.2850
 2805TIP3    H2 8380   5.095   5.043   4.385 -0.5851 -0.4872  0.9322
 2806TIP3   OH2 8381   5.859   6.325   0.328 -0.0037 -0.7225  0.2701
 2806TIP3    H1 8382   5.869   6.398   0.267  2.1003 -0.1760  1.2001
 2806TIP3    H2 8383   5.914   6.347   0.403 -0.6630 -2.4790  1.3559
 2807TIP3   OH2 8384   1.050   2.664   1.392  0.5977 -0.3819 -0.1448
 2807TIP3    H1 8385   1.006   2.666   1.307 -0.4056  0.3784  0.3808
 2807TIP3    H2 8386   0.984   2.632   1.453  0.0070  2.7387  1.0501
 2808TIP3   OH2 8387   3.262   0.788   5.134  0.0576  0.2934 -0.3775
 2808TIP3    H1 8388   3.223   0.747   5.211 -0.5434  0.7938 -0.4112
 2808TIP3    H2 8389   3.234   0.879   5.139  0.4389  0.4414 -0.9152
 2809TIP3   OH2 8390   1.097   5.505   5.569 -0.2343 -0.4147  0.0561
 2809TIP3    H1 8391   1.121   5.470   5.655  0.7978  0.6236  0.2196
 2809TIP3    H2 8392   1.179   5.541   5.534 -0.7495 -0.3538 -1.1372
 2810TIP3   OH2 8393   2.552   2.561   3.676 -0.4213 -0.3476 -0.8102
 2810TIP3    H1 8394   2.523   2.510   3.751 -0.9532 -2.4002 -2.3466
 2810TIP3    H2 8395   2.639   2.527   3.656 -0.1492  0.4095 -0.9628
 2811TIP3   OH2 8396   2.030   3.430   4.256  0.8358  0.4475 -0.2635
 2811TIP3    H1 8397   2.022   3.356   4.315  1.0517 -0.5716 -1.4723
 2811TIP3    H2 8398   2.043   3.391   4.169 -0.0281  1.8754 -1.0808
 2812TIP3   OH2 8399   3.600   1.421   2.925  0.1870 -0.4833  0.3078
 2812TIP3    H1 8400   3.586   1.460   3.012 -0.7780 -0.5108  0.1745
 2812TIP3    H2 8401   3.539   1.348   2.921  0.6236 -0.8328 -0.1908
 2813TIP3   OH2 8402   1.665   3.511   3.776  0.0136 -0.0550  0.0161
 2813TIP3    H1 8403   1.613   3.468   3.844  1.5661  0.1392  1.4117
 2813TIP3    H2 8404   1.744   3.540   3.822  0.9081  0.5247 -1.7917
 2814TIP3   OH2 8405   1.466   2.700   2.181  0.3582  0.1568 -0.1353
 2814TIP3    H1 8406   1.423   2.785   2.192  2.7037  1.5335 -0.9128
 2814TIP3    H2 8407   1.423   2.643   2.244 -1.3144  1.8892  0.3976
 2815TIP3   OH2 8408   0.581   2.191   3.907  0.0864 -0.3541 -0.8594
 2815TIP3    H1 8409   0.533   2.176   3.988  1.0393 -0.9296 -0.3839
 2815TIP3    H2 8410   0.515   2.185   3.838 -1.3108  2.8595  0.0050
 2816TIP3   OH2 8411   6.604   5.224   4.371  0.2254  0.0613 -0.0891
 2816TIP3    H1 8412   6.641   5.219   4.459 -0.2015  0.1550  0.1001
 2816TIP3    H2 8413   6.636   5.308   4.337  0.7457 -0.1724 -0.1932
 2817TIP3   OH2 8414   5.076   2.272   0.235 -0.2840 -0.1831 -0.0290
 2817TIP3    H1 8415   5.061   2.362   0.207  0.2561 -0.0007  0.2449
 2817TIP3    H2 8416   5.066   2.220   0.156 -0.9736  0.0721 -0.1148
 2818TIP3   OH2 8417   2.418   4.906   3.144  0.0517  0.3167  0.6404
 2818TIP3    H1 8418   2.512   4.924   3.152 -0.0144  1.4020 -0.6732
 2818TIP3    H2 8419   2.412   4.811   3.140  1.1820  0.2671 -0.2032
 2819TIP3   OH2 8420   4.075   0.569   0.863 -0.0638  0.4855 -0.4929
 2819TIP3    H1 8421   4.129   0.648   0.854  0.5174  0.1484 -0.0394
 2819TIP3    H2 8422   3.990   0.602   0.892  0.3346  0.9125  0.2313
 2820TIP3   OH2 8423   1.601   0.994   3.102  0.9388 -0.3622 -0.0992
 2820TIP3    H1 8424   1.564   0.959   3.022  0.5282 -1.6375  0.6175
 2820TIP3    H2 8425   1.689   1.022   3.078  0.6373 -0.2631 -1.0987
 2821TIP3   OH2 8426   4.265   0.672   5.767 -0.7294  0.1675 -0.1916
 2821TIP3    H1 8427   4.341   0.616   5.782 -0.2855  1.0363  0.9394
 2821TIP3    H2 8428   4.285   0.719   5.686 -0.8906 -0.9275 -0.8870
 2822TIP3   OH2 8429   5.954   2.431   3.144 -0.0519  0.2607  0.0425
 2822TIP3    H1 8430   5.921   2.402   3.229 -0.1368 -0.0612 -0.0997
 2822TIP3    H2 8431   5.875   2.459   3.096  0.0591  1.0016  0.2819
 2823TIP3   OH2 8432   4.170   4.405   4.897 -0.4307  0.2745 -0.1380
 2823TIP3    H1 8433   4.174   4.310   4.907  0.3449  0.4350  1.5208
 2823TIP3    H2 8434   4.102   4.420   4.832  0.7163 -1.4797 -1.8469
 2824TIP3   OH2 8435   6.353   4.883   3.140  0.1632  0.2852  0.4670
 2824TIP3    H1 8436   6.422   4.818   3.146 -0.2459 -0.3400 -1.1189
 2824TIP3    H2 8437   6.276   4.840   3.177 -0.0881 -0.1317 -0.5099
 2825TIP3   OH2 8438   0.992   2.107   1.262  0.0425 -0.2531 -0.4641
 2825TIP3    H1 8439   0.942   2.118   1.181 -0.2346  0.4841 -0.1954
 2825TIP3    H2 8440   1.068   2.164   1.250 -0.8653  1.2154  0.4972
 2826TIP3   OH2 8441   6.285   2.352   5.190 -0.0160 -0.0344 -0.3313
 2826TIP3    H1 8442   6.217   2.350   5.257 -0.0523  1.7304 -0.2471
 2826TIP3    H2 8443   6.329   2.268   5.197  0.0810  0.1505  2.0323
 2827TIP3   OH2 8444   6.692   4.233   1.442 -0.2737  0.7227 -0.3659
 2827TIP3    H1 8445   6.644   4.165   1.396 -0.1852  0.4613 -0.0759
 2827TIP3    H2 8446   6.730   4.287   1.372  1.2946 -0.6618 -0.6657
 2828TIP3   OH2 8447   2.299   3.739   1.407 -0.3998  0.9142  0.6621
 2828TIP3    H1 8448   2.339   3.684   1.474 -0.2588  0.6911  0.3945
 2828TIP3    H2 8449   2.332   3.705   1.324 -0.3694  1.3558  0.4901
 2829TIP3   OH2 8450   5.289   1.102   0.231  0.1131 -0.5060  0.0630
 2829TIP3    H1 8451   5.205   1.070   0.197  0.6537  0.6120 -2.5493
 2829TIP3    H2 8452   5.355   1.060   0.176  1.2711 -0.7743  1.5820
 2830TIP3   OH2 8453   6.287   2.770   1.234 -0.1003 -0.4066 -0.3919
 2830TIP3    H1 8454   6.310   2.686   1.274  0.6235 -0.6407 -1.2547
 2830TIP3    H2 8455   6.193   2.763   1.217 -0.0153 -1.1217 -0.6144
 2831TIP3   OH2 8456   2.941   4.535   2.038  0.5255  0.3879 -0.2022
 2831TIP3    H1 8457   2.979   4.501   2.119 -1.1639  1.2127  0.9967
 2831TIP3    H2 8458   2.987   4.618   2.023  0.7661  0.2863 -0.0266
 2832TIP3   OH2 8459   6.211   6.432   4.183  0.0383  0.2866 -0.4737
 2832TIP3    H1 8460   6.293   6.425   4.134  0.5599  1.5286  0.1790
 2832TIP3    H2 8461   6.196   6.344   4.217  1.5425  0.2229  0.0829
 2833TIP3   OH2 8462   6.106   3.351   3.361  0.0373 -0.0775  0.6905
 2833TIP3    H1 8463   6.067   3.428   3.402  1.0849  2.8807 -3.2571
 2833TIP3    H2 8464   6.198   3.375   3.347  0.5196 -2.2376 -0.2153
 2834TIP3   OH2 8465   0.447   0.858   0.091 -0.1202  0.0095  0.3424
 2834TIP3    H1 8466   0.442   0.879  -0.003 -1.0074 -0.9489  0.1574
 2834TIP3    H2 8467   0.492   0.933   0.129  0.7548  0.1682 -0.9277
 2835TIP3   OH2 8468   0.217   2.467   3.136  0.1250  0.0237  0.4560
 2835TIP3    H1 8469   0.147   2.406   3.112  0.3307  0.6572 -2.0460
 2835TIP3    H2 8470   0.293   2.411   3.153 -0.0267 -0.5073 -0.5250
 2836TIP3   OH2 8471   4.032   4.040   0.483  0.5812 -0.1563 -0.3709
 2836TIP3    H1 8472   4.061   4.108   0.423  0.5347  0.4263  0.2588
 2836TIP3    H2 8473   4.073   4.062   0.566 -2.0813  1.0526  0.7348
 2837TIP3   OH2 8474   0.705   1.223   5.593 -0.3001 -0.2932 -0.3499
 2837TIP3    H1 8475   0.643   1.161   5.631 -1.8725  1.6215  0.4403
 2837TIP3    H2 8476   0.739   1.272   5.667 -0.0877  0.6281 -1.0349
 2838TIP3   OH2 8477   3.603   2.688   0.589  1.2103  0.4467  0.1267
 2838TIP3    H1 8478   3.586   2.611   0.644  2.1973  1.6005  2.1601
 2838TIP3    H2 8479   3.675   2.734   0.634  1.0968  2.2141 -1.3866
 2839TIP3   OH2 8480   1.306   5.654   5.803  0.5412 -0.4912 -0.6304
 2839TIP3    H1 8481   1.296   5.701   5.721 -0.5870 -0.4515 -0.4871
 2839TIP3    H2 8482   1.383   5.599   5.790 -0.3485 -1.4526 -2.2033
 2840TIP3   OH2 8483   4.407   4.079   2.455  0.1786  0.3687  0.4091
 2840TIP3    H1 8484   4.422   4.060   2.363 -1.3787  1.1781 -0.0408
 2840TIP3    H2 8485   4.367   4.165   2.456 -0.1383  0.2312  1.8270
 2841TIP3   OH2 8486   3.975   4.897   2.744 -0.1441  0.2241 -0.5606
 2841TIP3    H1 8487   4.043   4.959   2.715 -0.6567  1.6473  1.1018
 2841TIP3    H2 8488   3.903   4.910   2.682 -0.2537  1.3510 -0.2279
 2842TIP3   OH2 8489   5.331   2.281   0.460  0.2599 -0.3393  0.3787
 2842TIP3    H1 8490   5.312   2.371   0.434  2.3678  0.7858  2.3615
 2842TIP3    H2 8491   5.249   2.249   0.498 -0.1043  1.3184  1.0890
 2843TIP3   OH2 8492   6.977   2.224   4.173  0.0990 -0.0373 -0.0572
 2843TIP3    H1 8493   7.066   2.209   4.139  0.6295  1.2359  0.7060
 2843TIP3    H2 8494   6.928   2.255   4.097  0.0987 -1.4044 -0.6509
 2844TIP3   OH2 8495   4.834   3.796   2.548  0.4270  0.1861  0.0336
 2844TIP3    H1 8496   4.929   3.785   2.553  1.0014  3.1341 -1.7329
 2844TIP3    H2 8497   4.818   3.818   2.456 -1.6944  1.6264  0.6777
 2845TIP3   OH2 8498   3.236   3.511   4.019  0.1463  0.3567 -0.2102
 2845TIP3    H1 8499   3.303   3.496   3.952  0.8998  0.7869  0.4186
 2845TIP3    H2 8500   3.280   3.490   4.102 -1.0267 -1.0135  0.1039
 2846TIP3   OH2 8501   1.045   0.973   2.087 -0.7126  0.0239  0.4841
 2846TIP3    H1 8502   0.963   0.928   2.068 -0.2604 -0.5074 -0.2708
 2846TIP3    H2 8503   1.028   1.021   2.168 -1.9677  0.4443 -0.0020
 2847TIP3   OH2 8504   6.210   0.194   5.396 -0.3916  0.1261 -0.3825
 2847TIP3    H1 8505   6.239   0.106   5.373  0.4910  0.8400 -2.1679
 2847TIP3    H2 8506   6.160   0.223   5.320 -0.9865  1.0382  0.3396
 2848TIP3   OH2 8507   5.848   1.539   1.478  0.0381 -0.1056 -0.5512
 2848TIP3    H1 8508   5.856   1.583   1.393  1.3379 -1.7916 -1.3865
 2848TIP3    H2 8509   5.754   1.524   1.489 -0.0455 -1.6001 -2.7003
 2849TIP3   OH2 8510   6.573   6.670   2.670 -0.6077  0.1719  0.1447
 2849TIP3    H1 8511   6.541   6.669   2.760  0.5286  1.2662  0.5894
 2849TIP3    H2 8512   6.668   6.667   2.677 -0.5123 -0.1645 -1.0338
 2850TIP3   OH2 8513   2.133   2.861   3.104 -0.0890 -0.3218 -0.8309
 2850TIP3    H1 8514   2.094   2.822   3.026 -1.2448 -0.2652 -0.3035
 2850TIP3    H2 8515   2.219   2.819   3.112 -0.8640 -1.9965 -0.8743
 2851TIP3   OH2 8516   2.085   0.387   5.634  0.0621  0.2238 -0.1558
 2851TIP3    H1 8517   2.024   0.322   5.668 -1.0313  1.8045  1.0774
 2851TIP3    H2 8518   2.030   0.449   5.585  0.8909  0.8390 -0.3358
 2852TIP3   OH2 8519   2.234   0.095   0.710 -0.0023  0.0728  0.3332
 2852TIP3    H1 8520   2.146   0.084   0.746  0.1726  0.5365  0.9133
 2852TIP3    H2 8521   2.291   0.054   0.776  0.0766 -2.3098 -1.0872
 2853TIP3   OH2 8522   5.417   2.172   3.147  0.6205  0.3135 -0.4343
 2853TIP3    H1 8523   5.342   2.151   3.092  0.0315  0.6749  0.2077
 2853TIP3    H2 8524   5.447   2.257   3.116 -0.3216  0.9717  0.4288
 2854TIP3   OH2 8525   5.761   0.977   5.303  0.0967 -0.2057 -0.1454
 2854TIP3    H1 8526   5.748   0.989   5.209  0.3225 -0.5285 -0.2206
 2854TIP3    H2 8527   5.738   0.885   5.318  2.5943 -0.9318 -0.3440
 2855TIP3   OH2 8528   6.438   6.518   1.347 -0.2708  0.3381 -0.6429
 2855TIP3    H1 8529   6.364   6.560   1.304 -0.6459  0.7779  0.3982
 2855TIP3    H2 8530   6.515   6.555   1.303 -0.5753  2.3666  0.3850
 2856TIP3   OH2 8531   2.899   2.139   1.957  0.1047 -0.6181 -0.6893
 2856TIP3    H1 8532   2.931   2.159   1.869 -1.0379  0.0416 -0.9672
 2856TIP3    H2 8533   2.863   2.222   1.989  0.3743 -0.8878  0.3501
 2857TIP3   OH2 8534   5.737   0.626   0.053  0.6659  0.2537 -0.1759
 2857TIP3    H1 8535   5.754   0.650   0.144  1.2956  0.5665 -0.3666
 2857TIP3    H2 8536   5.776   0.540   0.042 -0.1173 -0.1359  0.0611
 2858TIP3   OH2 8537   6.377   5.941   4.112 -0.0872 -0.5804 -0.0105
 2858TIP3    H1 8538   6.424   6.025   4.115 -1.8264  0.4104  0.9834
 2858TIP3    H2 8539   6.321   5.948   4.034 -0.2011 -0.8480  0.0477
 2859TIP3   OH2 8540   5.099   1.130   3.005 -0.2051 -0.3638 -0.4302
 2859TIP3    H1 8541   5.021   1.183   2.989 -0.2062 -0.1875  0.1318
 2859TIP3    H2 8542   5.066   1.046   3.037 -0.1837 -0.5095 -0.7850
 2860TIP3   OH2 8543   2.011   5.552   1.538  0.2849  0.3506  0.0811
 2860TIP3    H1 8544   2.058   5.534   1.619  0.5869  1.0518  0.0734
 2860TIP3    H2 8545   2.052   5.632   1.504 -1.3137  1.3688  0.4135
 2861TIP3   OH2 8546   0.169   0.457   2.982 -0.8356  0.3700  0.3065
 2861TIP3    H1 8547   0.194   0.468   3.074 -1.2137 -0.7083  0.5484
 2861TIP3    H2 8548   0.177   0.545   2.945 -2.5730  1.2587  1.8551
 2862TIP3   OH2 8549   1.018   6.381   1.913  0.1136  0.2041  0.4344
 2862TIP3    H1 8550   1.000   6.320   1.985 -0.9396 -1.2590 -1.0016
 2862TIP3    H2 8551   1.075   6.448   1.952 -0.7748 -0.2823  2.7223
 2863TIP3   OH2 8552   6.386   5.043   4.370  0.6329  0.2869 -0.6426
 2863TIP3    H1 8553   6.447   5.117   4.367 -0.3903  1.2863  1.2074
 2863TIP3    H2 8554   6.409   4.997   4.451 -1.2446  0.9107  0.3001
 2864TIP3   OH2 8555   5.646   3.022   0.284 -0.2086 -0.3800 -0.4851
 2864TIP3    H1 8556   5.665   3.116   0.289  0.8095 -0.6222  0.5731
 2864TIP3    H2 8557   5.658   3.000   0.192  1.5306  0.1460 -0.4198
 2865TIP3   OH2 8558   5.236   2.975   0.634 -0.0226 -0.0107  0.3340
 2865TIP3    H1 8559   5.192   2.907   0.581  1.4372 -0.1205 -0.7882
 2865TIP3    H2 8560   5.301   2.927   0.685  0.7022  0.4872 -0.1188
 2866TIP3   OH2 8561   3.186   0.980   4.196  0.0598  0.0892 -0.1037
 2866TIP3    H1 8562   3.183   0.953   4.288 -0.1586  2.8822  0.7929
 2866TIP3    H2 8563   3.097   1.009   4.176  0.6986  2.0659 -0.2989
 2867TIP3   OH2 8564   0.463   6.005   1.667 -0.0421  0.4061 -0.0724
 2867TIP3    H1 8565   0.398   6.054   1.717 -0.9071 -1.3998  0.6701
 2867TIP3    H2 8566   0.547   6.032   1.705 -0.5469  0.6724  0.9031
 2868TIP3   OH2 8567   1.597   5.022   2.194  0.1513  0.3011  0.4020
 2868TIP3    H1 8568   1.562   5.005   2.107  2.7672  0.8641 -0.8612
 2868TIP3    H2 8569   1.621   5.115   2.193 -1.5310  0.8308  2.4506
 2869TIP3   OH2 8570   1.968   1.714   5.452  0.1878 -0.0951 -0.2522
 2869TIP3    H1 8571   2.028   1.647   5.486 -0.2043 -0.2672  0.1057
 2869TIP3    H2 8572   2.012   1.797   5.469  0.1904 -0.2055  0.2782
 2870TIP3   OH2 8573   0.286   1.484   1.046 -0.4942 -0.5065  0.1375
 2870TIP3    H1 8574   0.263   1.491   0.953 -1.1915 -0.1744  0.3269
 2870TIP3    H2 8575   0.328   1.398   1.054  0.8327  0.0212 -0.7382
 2871TIP3   OH2 8576   2.807   2.275   3.988  0.0312  0.2198 -0.2527
 2871TIP3    H1 8577   2.714   2.260   3.969 -0.3356  0.7715  0.9952
 2871TIP3    H2 8578   2.848   2.191   3.974 -0.9672 -0.4910  0.8493
 2872TIP3   OH2 8579   3.084   3.124   0.586 -0.5458  0.7511 -0.2328
 2872TIP3    H1 8580   3.027   3.201   0.592 -0.8099  0.5354  0.0653
 2872TIP3    H2 8581   3.135   3.126   0.667 -0.8138  0.4079 -0.0566
 2873TIP3   OH2 8582   1.571   3.561   5.632  0.0867 -0.4527  0.4670
 2873TIP3    H1 8583   1.644   3.501   5.644 -0.3348 -0.9240  0.6763
 2873TIP3    H2 8584   1.576   3.587   5.540  1.2112  0.4307  0.7633
 2874TIP3   OH2 8585   5.583   1.801   2.563 -0.4356  0.1676  0.3774
 2874TIP3    H1 8586   5.632   1.721   2.579 -0.7381  0.0027  0.4917
 2874TIP3    H2 8587   5.538   1.819   2.646 -0.7497  0.1876  0.2051
 2875TIP3   OH2 8588   5.861   5.177   0.184 -0.2322  0.3970 -0.3128
 2875TIP3    H1 8589   5.921   5.144   0.251  0.2863 -0.1913 -1.0591
 2875TIP3    H2 8590   5.822   5.099   0.146  0.6004  0.6399 -1.7262
 2876TIP3   OH2 8591   4.680   4.253   0.685  0.3639  0.2043  0.4938
 2876TIP3    H1 8592   4.604   4.296   0.645  0.1067 -1.3698 -0.8224
 2876TIP3    H2 8593   4.754   4.308   0.661  0.2132 -0.6670 -2.2590
 2877TIP3   OH2 8594   4.162   3.387   5.122 -0.0978 -0.3477 -0.5251
 2877TIP3    H1 8595   4.084   3.442   5.127  0.1606  0.0676 -1.0065
 2877TIP3    H2 8596   4.207   3.416   5.043  0.5535 -0.5761 -0.2439
 2878TIP3   OH2 8597   1.631   1.043   4.296 -0.3159 -0.3664 -0.6359
 2878TIP3    H1 8598   1.562   0.990   4.256 -0.9217 -1.6886  1.9021
 2878TIP3    H2 8599   1.586   1.119   4.332 -0.1930 -0.4190 -0.3667
 2879TIP3   OH2 8600   0.071   3.492   2.572 -0.5362 -0.4442  0.4080
 2879TIP3    H1 8601   0.030   3.406   2.584 -0.2768 -1.0023 -1.9999
 2879TIP3    H2 8602   0.164   3.473   2.564 -0.2715  0.2936  1.6070
 2880TIP3   OH2 8603   0.444   5.131   5.536  0.0519 -0.0428 -0.4798
 2880TIP3    H1 8604   0.454   5.219   5.500 -1.3705 -0.5457 -2.2152
 2880TIP3    H2 8605   0.519   5.083   5.502 -0.4538 -0.1056 -1.5385
 2881TIP3   OH2 8606   0.832   5.619   5.237 -0.3150  0.2230  0.6270
 2881TIP3    H1 8607   0.887   5.568   5.296 -0.0266 -1.4150 -0.9740
 2881TIP3    H2 8608   0.875   5.705   5.232  1.9817 -0.8879 -0.3017
 2882TIP3   OH2 8609   1.824   4.141   1.990  0.2932  0.1600  0.0806
 2882TIP3    H1 8610   1.770   4.215   2.018 -2.7623 -1.3243 -1.3490
 2882TIP3    H2 8611   1.806   4.132   1.896 -0.0433 -2.7791  0.3284
 2883TIP3   OH2 8612   5.665   1.584   2.298  0.8344  0.4051 -0.1794
 2883TIP3    H1 8613   5.622   1.499   2.292  0.4616  0.6061 -0.4164
 2883TIP3    H2 8614   5.723   1.577   2.374 -0.3893  0.4615  0.7885
 2884TIP3   OH2 8615   2.772   6.533   2.779 -0.5374 -0.2238  0.7428
 2884TIP3    H1 8616   2.698   6.543   2.719 -0.8460  2.2117  1.4354
 2884TIP3    H2 8617   2.849   6.551   2.726 -0.7037  0.4407  0.7125
 2885TIP3   OH2 8618   0.484   6.181   2.593  0.6666 -0.9295  0.0190
 2885TIP3    H1 8619   0.412   6.122   2.568  1.1225 -2.4038  1.9456
 2885TIP3    H2 8620   0.462   6.209   2.682  0.9161  1.1929 -0.5280
 2886TIP3   OH2 8621   1.411   0.465   0.538 -0.0937 -0.0396  0.1830
 2886TIP3    H1 8622   1.399   0.487   0.630  1.9731 -0.5796  0.6505
 2886TIP3    H2 8623   1.441   0.547   0.498  3.1676 -0.7102  0.9663
 2887TIP3   OH2 8624   1.877   6.456   3.187  0.8582  0.4140 -0.7679
 2887TIP3    H1 8625   1.879   6.480   3.280  0.5627 -1.0176 -0.3654
 2887TIP3    H2 8626   1.786   6.432   3.171  1.0817 -0.1520 -1.2081
 2888TIP3   OH2 8627   7.117   3.290   2.323  0.0946  0.3798 -0.2796
 2888TIP3    H1 8628   7.184   3.246   2.375  1.1030  0.2780 -1.6060
 2888TIP3    H2 8629   7.040   3.233   2.330 -0.2239  1.0028  2.0776
 2889TIP3   OH2 8630   5.265   2.790   5.234  0.5198  0.2642  0.0603
 2889TIP3    H1 8631   5.272   2.858   5.301  1.1265  0.3303 -0.0617
 2889TIP3    H2 8632   5.356   2.772   5.208  0.3370 -0.2553 -0.2459
 2890TIP3   OH2 8633   3.465   2.124   1.372  0.1307 -0.2412 -0.3730
 2890TIP3    H1 8634   3.501   2.094   1.456 -0.4174  0.2178  0.0342
 2890TIP3    H2 8635   3.396   2.061   1.352  0.6600 -0.6979 -0.7871
 2891TIP3   OH2 8636   1.498   0.680   4.930  0.1846 -0.1973 -0.1822
 2891TIP3    H1 8637   1.405   0.671   4.951 -0.1348 -1.2679 -1.8484
 2891TIP3    H2 8638   1.503   0.759   4.877  0.1218 -0.4703 -0.5982
 2892TIP3   OH2 8639   5.756   5.581   5.777 -0.5621 -0.0121  0.8175
 2892TIP3    H1 8640   5.711   5.538   5.703 -1.0264  0.9978  0.4979
 2892TIP3    H2 8641   5.849   5.566   5.759 -0.7149 -1.7520  1.2544
 2893TIP3   OH2 8642   7.076   6.399   4.847  0.0693  0.5773  0.2315
 2893TIP3    H1 8643   7.071   6.329   4.781 -0.2204  1.5890 -0.8507
 2893TIP3    H2 8644   6.986   6.412   4.875  0.2146  0.0274  0.9799
 2894TIP3   OH2 8645   2.221   3.400   4.522 -0.1793 -0.5206 -0.0102
 2894TIP3    H1 8646   2.136   3.357   4.513 -0.2576 -0.2428 -0.6386
 2894TIP3    H2 8647   2.221   3.468   4.455  0.5325 -0.5023 -0.0037
 2895TIP3   OH2 8648   4.365   1.686   2.525 -0.1139  0.1353  0.1170
 2895TIP3    H1 8649   4.303   1.614   2.527 -1.4805  1.2661  1.6821
 2895TIP3    H2 8650   4.390   1.694   2.433  1.2283 -3.1878  0.0517
 2896TIP3   OH2 8651   1.479   5.833   5.269 -0.5007 -0.2664 -0.0587
 2896TIP3    H1 8652   1.451   5.750   5.231 -0.5219 -0.5340  0.5311
 2896TIP3    H2 8653   1.415   5.897   5.236 -1.2991 -0.7224  0.5730
 2897TIP3   OH2 8654   5.523   6.337   3.529  0.2312  0.5299  0.3187
 2897TIP3    H1 8655   5.557   6.251   3.554  1.8087  0.7033 -1.0403
 2897TIP3    H2 8656   5.433   6.338   3.561 -0.5106 -2.4423 -1.3521
 2898TIP3   OH2 8657   2.038   1.986   5.484  0.7431  0.2412  0.1606
 2898TIP3    H1 8658   1.980   2.057   5.457 -0.1349 -0.0390  1.2050
 2898TIP3    H2 8659   2.086   2.021   5.559  0.3394 -0.2283  0.6505
 2899TIP3   OH2 8660   6.646   2.726   3.115  0.1896  0.1318  0.3012
 2899TIP3    H1 8661   6.662   2.810   3.074  1.2801 -0.3469 -0.2961
 2899TIP3    H2 8662   6.732   2.700   3.151 -0.5116  0.0977  2.0654
 2900TIP3   OH2 8663   6.841   2.353   3.530 -0.3586 -0.4173  0.0065
 2900TIP3    H1 8664   6.840   2.257   3.523 -0.1970 -0.3844 -0.5129
 2900TIP3    H2 8665   6.848   2.384   3.439  0.6596  0.0690  0.2306
 2901TIP3   OH2 8666   7.068   5.981   1.399  0.3129 -0.1106  0.5885
 2901TIP3    H1 8667   7.036   5.892   1.384 -0.6052  0.3171 -0.1146
 2901TIP3    H2 8668   7.162   5.976   1.385  0.4212 -1.1682  1.5234
 2902TIP3   OH2 8669   0.741   0.659   2.656  0.1381  0.0778 -0.1631
 2902TIP3    H1 8670   0.812   0.705   2.700  0.8973  0.7201 -2.0035
 2902TIP3    H2 8671   0.704   0.723   2.596  0.3096 -1.2654 -1.7817
 2903TIP3   OH2 8672   1.857   5.423   4.419 -0.1273 -0.3949  0.0067
 2903TIP3    H1 8673   1.813   5.433   4.334 -0.2577 -0.0337  0.1167
 2903TIP3    H2 8674   1.786   5.408   4.481 -0.2089  1.3591  0.3714
 2904TIP3   OH2 8675   5.514   2.543   2.401 -0.2975 -0.2004 -0.0425
 2904TIP3    H1 8676   5.542   2.453   2.386 -0.3911 -0.0752 -0.9825
 2904TIP3    H2 8677   5.492   2.577   2.314 -1.6441  0.2708  0.4465
 2905TIP3   OH2 8678   5.924   5.348   1.163 -0.1891  0.6602  0.0710
 2905TIP3    H1 8679   5.992   5.403   1.123 -0.9706  0.4246 -1.6759
 2905TIP3    H2 8680   5.842   5.390   1.138 -0.7565 -0.5115 -0.0954
 2906TIP3   OH2 8681   5.303   3.530   4.356 -0.6924 -0.0664  0.3007
 2906TIP3    H1 8682   5.221   3.564   4.318  0.4229  2.1101 -0.3576
 2906TIP3    H2 8683   5.290   3.535   4.450 -0.7005  2.1339  0.2446
 2907TIP3   OH2 8684   1.121   4.238   3.291 -0.4412 -0.9010 -0.3344
 2907TIP3    H1 8685   1.209   4.208   3.314  0.9631  1.5989 -2.0039
 2907TIP3    H2 8686   1.115   4.325   3.331 -0.1997  0.9998 -4.0240
 2908TIP3   OH2 8687   2.630   1.151   4.954  0.5757  0.3821 -0.1179
 2908TIP3    H1 8688   2.623   1.139   4.860 -1.1456  0.1418  0.0056
 2908TIP3    H2 8689   2.722   1.171   4.969  1.0505 -0.4066 -1.7441
 2909TIP3   OH2 8690   6.647   0.018   5.529 -0.1023 -0.1818  0.1790
 2909TIP3    H1 8691   6.659   0.047   5.619 -1.8773  1.1999  0.0282
 2909TIP3    H2 8692   6.622   0.097   5.481 -0.0257 -1.0409 -1.3597
 2910TIP3   OH2 8693   1.246   3.856   4.353 -0.2921  0.7038  0.6224
 2910TIP3    H1 8694   1.308   3.869   4.426 -1.5485 -0.8185  2.0503
 2910TIP3    H2 8695   1.273   3.773   4.313  0.2598  1.4264 -0.5523
 2911TIP3   OH2 8696   6.215   2.838   3.799 -0.3291 -0.2632  0.2505
 2911TIP3    H1 8697   6.261   2.769   3.752 -1.9105  0.5373 -2.7471
 2911TIP3    H2 8698   6.148   2.793   3.849 -0.9934 -1.0163 -1.2420
 2912TIP3   OH2 8699   0.134   5.565   2.648  0.3815  0.1451 -0.0144
 2912TIP3    H1 8700   0.178   5.489   2.685 -1.2758 -1.1455 -0.5809
 2912TIP3    H2 8701   0.202   5.632   2.644  2.2768 -1.6965 -0.7440
 2913TIP3   OH2 8702   5.266   6.376   1.707 -0.1522  0.4521 -0.0484
 2913TIP3    H1 8703   5.327   6.303   1.717 -1.8021 -0.9937 -0.1345
 2913TIP3    H2 8704   5.180   6.336   1.708 -1.0799  2.2714 -1.4494
 2914TIP3   OH2 8705   3.850   0.176   1.004  0.1522 -0.1435 -0.2741
 2914TIP3    H1 8706   3.920   0.241   1.015 -0.4607  0.2015  2.1708
 2914TIP3    H2 8707   3.897   0.092   1.000  0.7764  0.0237  1.9364
 2915TIP3   OH2 8708   5.993   6.220   2.203 -0.4656 -0.4301 -0.2972
 2915TIP3    H1 8709   6.047   6.148   2.235 -0.9509 -0.1363  1.2581
 2915TIP3    H2 8710   5.951   6.256   2.282  1.8501  3.3306 -0.5377
 2916TIP3   OH2 8711   4.620   0.494   4.791  0.0538 -0.1295  0.4715
 2916TIP3    H1 8712   4.710   0.511   4.763 -0.0543 -0.9192 -0.4033
 2916TIP3    H2 8713   4.594   0.416   4.743 -1.1646  0.1818  0.5830
 2917TIP3   OH2 8714   4.485   6.129   1.868 -0.4459  0.0107  0.2842
 2917TIP3    H1 8715   4.543   6.080   1.810 -0.4081 -0.4063  0.6691
 2917TIP3    H2 8716   4.410   6.151   1.813 -0.9012 -1.2948  0.3508
 2918TIP3   OH2 8717   5.217   5.829   0.038  0.2697 -0.5359 -0.0727
 2918TIP3    H1 8718   5.149   5.846   0.102 -1.0927 -0.3499 -1.5101
 2918TIP3    H2 8719   5.198   5.741   0.006  1.0779 -0.7205 -0.0596
 2919TIP3   OH2 8720   6.410   5.239   5.745 -0.0795 -0.0769 -0.2105
 2919TIP3    H1 8721   6.345   5.236   5.675 -0.0658 -1.6652 -0.1933
 2919TIP3    H2 8722   6.445   5.328   5.741 -0.6893  0.1332 -1.6541
 2920TIP3   OH2 8723   1.867   0.467   2.588 -0.2774  0.2491  0.1313
 2920TIP3    H1 8724   1.857   0.541   2.528 -0.7307 -0.4396 -0.6702
 2920TIP3    H2 8725   1.885   0.392   2.530  0.9431 -0.1380  0.9711
 2921TIP3   OH2 8726   2.946   2.751   2.072  0.9761  0.3798 -0.0254
 2921TIP3    H1 8727   2.903   2.686   2.016  0.2262  0.5600  0.3241
 2921TIP3    H2 8728   2.981   2.817   2.011  1.2165 -0.0363 -0.3434
 2922TIP3   OH2 8729   0.850   5.090   5.076 -0.3694 -0.3754  0.1848
 2922TIP3    H1 8730   0.837   4.997   5.096  0.5599 -0.6729 -0.5468
 2922TIP3    H2 8731   0.900   5.123   5.151  0.3924 -0.7714 -0.1324
 2923TIP3   OH2 8732   5.207   5.408   3.753 -0.1234  0.2762  0.0290
 2923TIP3    H1 8733   5.188   5.488   3.704  0.1899 -1.0802 -2.4631
 2923TIP3    H2 8734   5.301   5.413   3.773 -0.2460  0.8204  0.4922
 2924TIP3   OH2 8735   1.860   3.399   1.136 -0.2444  0.2702  0.0350
 2924TIP3    H1 8736   1.944   3.357   1.120 -1.3304 -1.5357 -1.2255
 2924TIP3    H2 8737   1.830   3.429   1.050 -1.2215  0.2519  0.3539
 2925TIP3   OH2 8738   3.192   1.159   4.794  0.3959  0.2370  0.1441
 2925TIP3    H1 8739   3.161   1.078   4.753 -0.9439  0.6416  0.3142
 2925TIP3    H2 8740   3.218   1.132   4.882  1.4984 -0.2877 -0.3214
 2926TIP3   OH2 8741   2.225   2.028   1.135 -0.3139 -0.3407 -0.7035
 2926TIP3    H1 8742   2.144   1.987   1.163 -0.2023 -1.0963 -1.4417
 2926TIP3    H2 8743   2.251   2.085   1.208 -2.0551  0.7334 -0.8739
 2927TIP3   OH2 8744   6.741   2.797   4.924  0.5024 -0.5873 -0.0665
 2927TIP3    H1 8745   6.786   2.758   4.849 -1.4179 -3.4514  0.1280
 2927TIP3    H2 8746   6.811   2.817   4.986  1.7602 -2.2040 -0.8911
 2928TIP3   OH2 8747   6.775   3.831   4.100  0.2782  0.2428  0.3679
 2928TIP3    H1 8748   6.756   3.887   4.025 -2.9523 -0.1863  0.6890
 2928TIP3    H2 8749   6.809   3.890   4.167 -0.1596  1.2943 -0.3086
 2929TIP3   OH2 8750   2.731   6.417   4.974  0.2954 -0.2660 -0.3095
 2929TIP3    H1 8751   2.650   6.445   4.931 -0.1756 -1.1419 -0.0092
 2929TIP3    H2 8752   2.765   6.496   5.015 -1.0544 -0.1206  0.6061
 2930TIP3   OH2 8753   7.000   2.298   1.526 -0.0348 -0.0850 -0.4381
 2930TIP3    H1 8754   6.995   2.355   1.603  3.0632 -1.3242  0.8699
 2930TIP3    H2 8755   7.079   2.245   1.541 -2.1983 -4.2071 -1.8684
 2931TIP3   OH2 8756   2.168   3.699   0.706  0.5725 -0.0143  0.3237
 2931TIP3    H1 8757   2.086   3.693   0.755 -0.4397 -0.3802 -1.3511
 2931TIP3    H2 8758   2.215   3.771   0.747 -0.1340 -0.4209  1.9407
 2932TIP3   OH2 8759   4.283   4.449   3.423  0.0149  0.6435  0.0627
 2932TIP3    H1 8760   4.289   4.493   3.339 -0.2189  1.3294  0.3955
 2932TIP3    H2 8761   4.329   4.366   3.411 -1.4542 -0.0295 -1.2415
 2933TIP3   OH2 8762   3.815   3.671   4.314  0.1512 -1.1942 -0.1018
 2933TIP3    H1 8763   3.821   3.592   4.367  1.2633 -0.3938  1.0305
 2933TIP3    H2 8764   3.896   3.671   4.263  0.2190 -0.7353 -0.0002
 2934TIP3   OH2 8765   2.184   0.547   4.630 -0.1535 -0.2829  0.1367
 2934TIP3    H1 8766   2.128   0.474   4.604 -1.5650  0.8837 -0.2197
 2934TIP3    H2 8767   2.270   0.508   4.641 -1.1573 -2.3024  1.4633
 2935TIP3   OH2 8768   3.908   5.062   1.832  0.3476  0.2029 -0.3848
 2935TIP3    H1 8769   3.963   5.004   1.779  0.4701  0.7322 -0.8450
 2935TIP3    H2 8770   3.826   5.069   1.783  0.0854 -0.1139  0.0049
 2936TIP3   OH2 8771   7.109   4.930   3.740  0.6190 -0.5811  0.3076
 2936TIP3    H1 8772   7.158   4.885   3.809  1.2494 -0.9574 -0.3778
 2936TIP3    H2 8773   7.149   5.016   3.735 -0.9930  0.3591  2.0571
 2937TIP3   OH2 8774   6.168   4.252   5.272 -0.0102  0.0727  0.8507
 2937TIP3    H1 8775   6.127   4.176   5.231 -1.2908  1.0635  0.2333
 2937TIP3    H2 8776   6.176   4.228   5.364  1.3223 -1.5054  0.3757
 2938TIP3   OH2 8777   4.881   0.311   0.463 -0.2988  0.2069 -0.3995
 2938TIP3    H1 8778   4.809   0.255   0.494  0.8087 -0.6583  0.7324
 2938TIP3    H2 8779   4.905   0.275   0.378 -0.7619  0.0870 -0.4826
 2939TIP3   OH2 8780   5.283   4.993   1.178  0.2769 -0.3915  0.1056
 2939TIP3    H1 8781   5.260   4.916   1.231 -0.5455 -0.9363 -1.0040
 2939TIP3    H2 8782   5.375   5.009   1.197 -0.1902 -0.0580  2.3272
 2940TIP3   OH2 8783   3.823   3.509   4.706 -0.3414  0.2110 -0.4718
 2940TIP3    H1 8784   3.824   3.500   4.611  2.0441  0.9438 -0.5706
 2940TIP3    H2 8785   3.828   3.603   4.722  1.1436  0.0276  0.3340
 2941TIP3   OH2 8786   3.683   5.765   4.647 -0.0288  0.5544  0.0802
 2941TIP3    H1 8787   3.613   5.706   4.674 -0.8591  0.3677 -2.2623
 2941TIP3    H2 8788   3.745   5.709   4.600 -0.9370  1.4717 -2.3760
 2942TIP3   OH2 8789   2.365   5.347   0.332  0.1242 -0.3857 -0.0817
 2942TIP3    H1 8790   2.308   5.307   0.397 -2.6366  1.7012 -1.0125
 2942TIP3    H2 8791   2.430   5.394   0.382 -1.9074  1.1418  1.2797
 2943TIP3   OH2 8792   2.765   4.277   3.795  0.2503 -0.2124  0.1209
 2943TIP3    H1 8793   2.820   4.246   3.723  1.5824  1.0119  0.5328
 2943TIP3    H2 8794   2.822   4.271   3.872 -0.1796  1.0949  0.5688
 2944TIP3   OH2 8795   2.459   4.816   0.993  0.0315  0.4546  0.3316
 2944TIP3    H1 8796   2.389   4.801   0.929 -0.3877  1.1396  0.6120
 2944TIP3    H2 8797   2.447   4.747   1.058 -0.0041  0.2023  0.0571
 2945TIP3   OH2 8798   3.980   5.095   0.304 -0.1261 -0.0380 -0.0883
 2945TIP3    H1 8799   4.044   5.165   0.305 -1.5578  1.3439  2.0147
 2945TIP3    H2 8800   3.920   5.118   0.233  0.8407 -0.5497 -1.0902
 2946TIP3   OH2 8801   5.661   3.719   2.054 -0.0126 -0.4418  0.0477
 2946TIP3    H1 8802   5.749   3.690   2.078 -0.0901 -0.2912  0.5284
 2946TIP3    H2 8803   5.613   3.639   2.036 -0.1430 -0.6015  1.0741
 2947TIP3   OH2 8804   1.254   4.660   3.035 -0.2728  0.0667  0.3774
 2947TIP3    H1 8805   1.169   4.616   3.042 -0.7999  1.2599  2.0576
 2947TIP3    H2 8806   1.307   4.621   3.104  0.2502 -0.0084 -0.0622
 2948TIP3   OH2 8807   3.829   0.769   3.220 -0.2727 -0.5699 -0.1451
 2948TIP3    H1 8808   3.845   0.692   3.166 -1.8692 -1.5071  0.6386
 2948TIP3    H2 8809   3.754   0.812   3.178  0.8594  0.8127 -0.8101
 2949TIP3   OH2 8810   1.179   1.275   3.904  0.4315 -0.0329  1.0612
 2949TIP3    H1 8811   1.168   1.258   3.998 -0.4161  0.6853  1.1117
 2949TIP3    H2 8812   1.089   1.279   3.871  0.5777  2.6223  0.7770
 2950TIP3   OH2 8813   2.072   1.619   2.276  0.3761 -0.0224  0.4644
 2950TIP3    H1 8814   1.989   1.571   2.280  1.3687 -1.7412  1.9846
 2950TIP3    H2 8815   2.052   1.706   2.313 -0.4497 -0.9506  2.3501
 2951TIP3   OH2 8816   0.123   2.402   0.985 -0.0851  0.3937 -0.1198
 2951TIP3    H1 8817   0.177   2.324   0.991  1.2967  1.1651 -1.8931
 2951TIP3    H2 8818   0.076   2.393   0.902  1.0705  1.9879 -1.0043
 2952TIP3   OH2 8819   1.297   4.960   0.054 -0.2694  0.7220  0.1436
 2952TIP3    H1 8820   1.273   5.051   0.067  0.0085  0.9588 -0.8596
 2952TIP3    H2 8821   1.223   4.910   0.088 -0.7468  1.3460  0.0337
 2953TIP3   OH2 8822   4.126   6.406   2.126  0.1741  0.2147 -0.3105
 2953TIP3    H1 8823   4.119   6.460   2.205 -1.9592  0.0617 -0.3322
 2953TIP3    H2 8824   4.050   6.430   2.074 -0.1396 -1.8971 -0.9160
 2954TIP3   OH2 8825   4.078   4.647   1.334  0.6205  0.5120  0.2533
 2954TIP3    H1 8826   4.031   4.618   1.413  0.9329  0.7090  0.5121
 2954TIP3    H2 8827   4.060   4.579   1.269  2.1374 -0.7888  1.1339
 2955TIP3   OH2 8828   5.489   3.417   3.342  0.0613  0.2408  0.0682
 2955TIP3    H1 8829   5.489   3.343   3.404 -2.6115  0.1672  0.0822
 2955TIP3    H2 8830   5.494   3.375   3.256 -0.4560  0.0872  0.1094
 2956TIP3   OH2 8831   1.698   4.192   3.086  0.8853 -0.1416  0.3400
 2956TIP3    H1 8832   1.690   4.272   3.033 -0.0055 -0.6515 -0.3133
 2956TIP3    H2 8833   1.788   4.194   3.118  0.9291  1.0339  0.1759
 2957TIP3   OH2 8834   2.466   1.853   1.661 -0.0763  0.7230  0.1847
 2957TIP3    H1 8835   2.502   1.887   1.579  1.6655 -0.3279  0.4574
 2957TIP3    H2 8836   2.446   1.932   1.712 -1.1074  1.3906 -1.1778
 2958TIP3   OH2 8837   3.307   5.897   0.271  0.6220 -0.1549  0.6941
 2958TIP3    H1 8838   3.243   5.967   0.282 -1.0862 -0.8206 -3.3926
 2958TIP3    H2 8839   3.268   5.822   0.316 -0.0422  0.1895  0.6944
 2959TIP3   OH2 8840   7.135   5.280   3.277  0.3310  0.4488  0.1754
 2959TIP3    H1 8841   7.066   5.219   3.247  0.4402  0.4760 -0.1366
 2959TIP3    H2 8842   7.191   5.291   3.201 -0.1874  1.6541 -0.0544
 2960TIP3   OH2 8843   2.685   4.190   2.837  0.5844 -1.0821  0.2008
 2960TIP3    H1 8844   2.613   4.128   2.848  0.9393 -1.4482  0.4828
 2960TIP3    H2 8845   2.694   4.231   2.923  0.4120 -0.6966  0.0402
 2961TIP3   OH2 8846   7.173   6.108   2.238 -0.0182  0.3305 -0.4215
 2961TIP3    H1 8847   7.233   6.154   2.179  0.1087 -0.8952 -1.2813
 2961TIP3    H2 8848   7.206   6.019   2.240 -0.1782  0.2921  1.3415
 2962TIP3   OH2 8849   3.534   0.836   4.415  0.2484 -0.2583 -0.0081
 2962TIP3    H1 8850   3.568   0.760   4.463  0.0844 -0.5630 -0.3714
 2962TIP3    H2 8851   3.603   0.901   4.421  0.7646 -0.7578 -0.4625
 2963TIP3   OH2 8852   1.703   0.242   3.396  0.1342 -0.2974  0.2147
 2963TIP3    H1 8853   1.741   0.263   3.482 -0.5482  2.2110 -0.0293
 2963TIP3    H2 8854   1.625   0.191   3.416  1.2079 -1.7106  0.9442
 2964TIP3   OH2 8855   3.534   1.039   3.814 -0.5341 -0.3081 -0.1980
 2964TIP3    H1 8856   3.483   1.000   3.885  0.5649 -1.8701 -0.2368
 2964TIP3    H2 8857   3.624   1.040   3.846 -0.2911  0.7270 -0.8515
 2965TIP3   OH2 8858   3.392   4.771   4.403 -0.0146  0.3053 -0.0377
 2965TIP3    H1 8859   3.399   4.828   4.480 -0.8436 -0.9284  1.0069
 2965TIP3    H2 8860   3.403   4.829   4.329  0.6092  1.5843  1.0122
 2966TIP3   OH2 8861   3.142   4.690   2.909  0.5204 -0.2619  0.4344
 2966TIP3    H1 8862   3.236   4.683   2.921  0.5324 -3.3321 -0.5677
 2966TIP3    H2 8863   3.107   4.708   2.996  1.8687 -2.2643  1.4688
 2967TIP3   OH2 8864   2.263   3.933   0.853 -0.1676 -0.1220 -0.2892
 2967TIP3    H1 8865   2.322   4.006   0.871 -1.0516  1.1772 -2.2503
 2967TIP3    H2 8866   2.227   3.910   0.939 -0.5276  2.3739  0.3184
 2968TIP3   OH2 8867   2.651   3.102   2.933 -0.1055  0.1292  1.1453
 2968TIP3    H1 8868   2.735   3.081   2.891 -0.0917 -0.4686  1.4645
 2968TIP3    H2 8869   2.674   3.153   3.010  0.0683 -1.0944  1.9316
 2969TIP3   OH2 8870   1.955   2.590   1.804 -0.1769 -0.5707  0.1502
 2969TIP3    H1 8871   2.041   2.620   1.833 -0.9014  0.1995  1.6219
 2969TIP3    H2 8872   1.948   2.500   1.835  0.2801 -0.7942 -0.3923
 2970TIP3   OH2 8873   6.008   5.845   0.807  0.1232  0.3475 -0.4507
 2970TIP3    H1 8874   5.983   5.926   0.851  0.3542  0.7717 -1.0918
 2970TIP3    H2 8875   6.085   5.814   0.854 -1.2583 -0.6966  1.2165
 2971TIP3   OH2 8876   1.319   1.297   0.621 -0.7910 -0.0592 -0.1213
 2971TIP3    H1 8877   1.325   1.278   0.715  0.9428 -1.0090 -0.3737
 2971TIP3    H2 8878   1.290   1.215   0.582 -0.3560 -0.0355 -0.5092
 2972TIP3   OH2 8879   5.007   3.963   3.184 -0.7779  0.3423 -0.1840
 2972TIP3    H1 8880   4.945   3.997   3.248  0.1893 -0.5659  1.3006
 2972TIP3    H2 8881   5.078   4.028   3.183 -0.0654 -0.3796  0.8643
 2973TIP3   OH2 8882   5.061   6.763   0.109  0.3561  0.3431  0.0185
 2973TIP3    H1 8883   5.154   6.743   0.100  0.3214  0.8532 -2.0442
 2973TIP3    H2 8884   5.017   6.679   0.094  0.4154  0.6941 -2.4815
 2974TIP3   OH2 8885   2.240   4.476   1.898 -0.2198 -0.2520  0.1298
 2974TIP3    H1 8886   2.202   4.391   1.919  1.0614 -1.1099 -0.8607
 2974TIP3    H2 8887   2.239   4.480   1.802 -2.0472  1.7119  0.1519
 2975TIP3   OH2 8888   6.948   4.866   5.570  0.0203 -0.1140  0.6515
 2975TIP3    H1 8889   6.940   4.928   5.642 -0.3797 -0.4147  0.8742
 2975TIP3    H2 8890   7.041   4.863   5.550  0.1973 -0.4073  1.4978
 2976TIP3   OH2 8891   0.786   5.876   2.504 -0.3476  0.1006 -0.0021
 2976TIP3    H1 8892   0.870   5.922   2.499 -0.3901  0.5124  2.1402
 2976TIP3    H2 8893   0.743   5.914   2.580 -1.3783 -1.8859  0.4646
 2977TIP3   OH2 8894   4.086   4.261   5.158 -0.0955 -0.3142 -0.6965
 2977TIP3    H1 8895   4.150   4.300   5.218 -1.6393 -0.9199  1.4417
 2977TIP3    H2 8896   4.138   4.202   5.103  1.5757  1.2830 -0.9364
 2978TIP3   OH2 8897   0.925   3.381   3.764  0.0557  0.0208  0.1733
 2978TIP3    H1 8898   0.966   3.468   3.769 -0.0497  0.1337 -0.7557
 2978TIP3    H2 8899   0.980   3.325   3.819 -0.5010  0.8997  1.6975
 2979TIP3   OH2 8900   5.464   6.044   3.705 -0.0415  0.0939 -0.1786
 2979TIP3    H1 8901   5.401   5.972   3.712  0.3323 -0.1899  0.3362
 2979TIP3    H2 8902   5.460   6.088   3.790 -0.4000  0.7959 -0.5506
 2980TIP3   OH2 8903   4.930   3.509   0.575 -0.1886 -0.4703 -0.2977
 2980TIP3    H1 8904   4.922   3.414   0.567 -2.1600 -0.6113  1.9902
 2980TIP3    H2 8905   4.869   3.544   0.510 -0.0972 -0.7912 -0.5559
 2981TIP3   OH2 8906   4.444   5.464   3.446  0.3370  0.1619 -0.1169
 2981TIP3    H1 8907   4.466   5.430   3.360  0.9017  0.3802 -0.0615
 2981TIP3    H2 8908   4.359   5.507   3.434 -0.3007 -1.1071 -0.2243
 2982TIP3   OH2 8909   5.807   1.700   0.319 -0.0454 -0.0960  0.5500
 2982TIP3    H1 8910   5.874   1.756   0.280  1.3339 -0.1443  2.6994
 2982TIP3    H2 8911   5.740   1.760   0.350  0.3351  0.1897  0.8273
 2983TIP3   OH2 8912   1.339   4.544   4.485  0.3099  0.4633  0.0623
 2983TIP3    H1 8913   1.327   4.522   4.393  0.5288  1.3858 -0.2005
 2983TIP3    H2 8914   1.417   4.495   4.511  0.2790  0.2386 -0.2596
 2984TIP3   OH2 8915   6.389   2.167   0.357  0.4395  0.2287  0.4370
 2984TIP3    H1 8916   6.343   2.141   0.437  0.7652 -0.3191  0.4508
 2984TIP3    H2 8917   6.452   2.233   0.387 -0.2451  0.8981  0.4360
 2985TIP3   OH2 8918   6.872   3.844   3.066  0.1641  0.1233  0.9605
 2985TIP3    H1 8919   6.873   3.926   3.115  0.4610  0.2822  0.6953
 2985TIP3    H2 8920   6.796   3.852   3.008  0.1854  0.2070  0.9439
 2986TIP3   OH2 8921   6.724   2.378   5.500  0.1114  0.0247 -0.1418
 2986TIP3    H1 8922   6.656   2.416   5.445 -0.4205  0.4520  0.7936
 2986TIP3    H2 8923   6.761   2.307   5.446  0.7110  1.4238 -1.6749
 2987TIP3   OH2 8924   6.336   6.113   5.418 -0.1479 -0.2383 -0.5459
 2987TIP3    H1 8925   6.251   6.130   5.458 -0.2762 -0.6295 -0.6443
 2987TIP3    H2 8926   6.397   6.171   5.464 -0.5744  0.5157 -0.9109
 2988TIP3   OH2 8927   5.791   0.321   0.260  0.5618 -0.3825 -0.1724
 2988TIP3    H1 8928   5.865   0.262   0.280 -0.6805 -1.7363  0.6501
 2988TIP3    H2 8929   5.798   0.335   0.166  2.3294  0.1888 -0.0025
 2989TIP3   OH2 8930   0.507   4.127   0.941  0.1044 -0.3029 -0.1587
 2989TIP3    H1 8931   0.443   4.095   0.878  0.9161 -1.3903 -0.4581
 2989TIP3    H2 8932   0.516   4.220   0.922 -2.7721  0.3533  1.1360
 2990TIP3   OH2 8933   6.672   0.540   3.501  0.3157  0.1903 -0.0331
 2990TIP3    H1 8934   6.657   0.446   3.508 -1.1201  0.2538 -1.7402
 2990TIP3    H2 8935   6.613   0.579   3.566  1.1339 -0.0564  0.8927
 2991TIP3   OH2 8936   1.326   1.036   1.977  0.8738 -0.2423  0.2825
 2991TIP3    H1 8937   1.364   1.050   2.064  0.3531 -0.7842  0.6036
 2991TIP3    H2 8938   1.255   0.973   1.992  0.5582 -0.0728 -0.4820
 2992TIP3   OH2 8939   1.931   4.255   0.525 -0.2400 -0.8581  0.3415
 2992TIP3    H1 8940   1.933   4.208   0.609  0.3479  0.0974  0.8772
 2992TIP3    H2 8941   1.991   4.206   0.469  1.9615  0.3367  1.5221
 2993TIP3   OH2 8942   0.422   1.992   0.778  0.2315 -0.0721  0.3666
 2993TIP3    H1 8943   0.419   1.909   0.731  0.0201  0.1452 -0.0120
 2993TIP3    H2 8944   0.463   1.971   0.862 -1.8112 -0.9968  1.1918
 2994TIP3   OH2 8945   3.759   2.783   2.143 -0.1188 -0.7943 -0.4150
 2994TIP3    H1 8946   3.782   2.741   2.226  0.2675  0.0479 -0.0847
 2994TIP3    H2 8947   3.667   2.809   2.153  0.2255  0.2560  0.1721
 2995TIP3   OH2 8948   2.850   1.410   2.710  0.4635 -0.0054 -0.6511
 2995TIP3    H1 8949   2.841   1.324   2.668  1.3655 -0.4546  0.0519
 2995TIP3    H2 8950   2.789   1.466   2.662  0.2868 -0.8955 -1.5014
 2996TIP3   OH2 8951   4.354   6.089   3.033  0.0664  0.0289  0.2285
 2996TIP3    H1 8952   4.303   6.023   3.080  0.3995  0.5253  1.3347
 2996TIP3    H2 8953   4.332   6.075   2.941 -1.6119 -0.1377  0.6170
 2997TIP3   OH2 8954   6.397   4.260   4.523 -0.1576 -0.1678 -0.3252
 2997TIP3    H1 8955   6.306   4.264   4.552 -0.8086 -1.9760 -1.9847
 2997TIP3    H2 8956   6.403   4.181   4.470  2.0278  0.7118 -1.5249
 2998TIP3   OH2 8957   1.587   3.714   1.168 -0.5752  0.4939  0.3605
 2998TIP3    H1 8958   1.555   3.693   1.080  0.0907  1.3975 -0.1190
 2998TIP3    H2 8959   1.567   3.637   1.220 -0.9354 -0.0783 -0.5965
 2999TIP3   OH2 8960   1.034   2.879   3.482  0.1728  0.3483 -0.3824
 2999TIP3    H1 8961   1.028   2.870   3.577  0.3493  1.4749 -0.2462
 2999TIP3    H2 8962   1.118   2.839   3.460 -1.0914 -2.5461 -0.4815
 3000TIP3   OH2 8963   3.120   1.326   2.412  0.0836 -0.1971  0.0987
 3000TIP3    H1 8964   3.040   1.333   2.360  1.6780  2.3141 -2.3281
 3000TIP3    H2 8965   3.156   1.240   2.390 -0.5546 -0.1861 -1.0729
 3001TIP3   OH2 8966   6.126   0.687   2.739  0.1387 -0.5381  0.1811
 3001TIP3    H1 8967   6.042   0.673   2.784  0.3438  0.5573  0.9639
 3001TIP3    H2 8968   6.175   0.744   2.799  1.1123 -0.4773 -0.6573
 3002TIP3   OH2 8969   4.092   4.786   0.060  0.2592  0.2694  0.5965
 3002TIP3    H1 8970   4.088   4.815  -0.031  0.2838 -0.1430  0.4646
 3002TIP3    H2 8971   4.001   4.769   0.084  0.1804  1.0089  0.8579
 3003TIP3   OH2 8972   5.578   2.979   4.997  0.0445  0.6641 -0.4773
 3003TIP3    H1 8973   5.624   2.932   5.066 -0.2216 -2.3619 -2.1650
 3003TIP3    H2 8974   5.494   3.004   5.037 -0.2908 -1.3984  0.2621
 3004TIP3   OH2 8975   4.697   0.042   5.463 -0.3489 -0.1349 -0.0208
 3004TIP3    H1 8976   4.754   0.049   5.540  0.5751  1.7122 -0.8159
 3004TIP3    H2 8977   4.749  -0.008   5.400  0.3946  1.4019 -0.6831
 3005TIP3   OH2 8978   4.151   3.339   0.127 -0.3604 -0.1174 -0.0992
 3005TIP3    H1 8979   4.102   3.383   0.058 -1.0971 -1.0862 -0.2134
 3005TIP3    H2 8980   4.232   3.310   0.085  0.4730  1.7394  0.1590
 3006TIP3   OH2 8981   6.706   2.425   1.289  0.5226  0.4334  0.5953
 3006TIP3    H1 8982   6.761   2.496   1.325 -0.1099  0.4324  1.6021
 3006TIP3    H2 8983   6.750   2.345   1.317  0.3682  0.4346  0.8484
 3007TIP3   OH2 8984   5.361   6.762   4.020 -0.9357 -0.4639 -0.5693
 3007TIP3    H1 8985   5.366   6.756   3.925  0.5394 -1.3189 -0.4590
 3007TIP3    H2 8986   5.321   6.679   4.047 -1.4131 -0.1941 -0.4401
 3008TIP3   OH2 8987   7.199   3.391   0.773 -0.2085 -0.1736 -0.3537
 3008TIP3    H1 8988   7.211   3.401   0.868  0.1374  0.9354 -0.5076
 3008TIP3    H2 8989   7.172   3.300   0.763 -0.5273 -0.2364  0.8414
 3009TIP3   OH2 8990   0.599   2.659   3.114 -0.0690  0.3458  0.1367
 3009TIP3    H1 8991   0.687   2.687   3.090  0.3335  0.0014  1.1305
 3009TIP3    H2 8992   0.574   2.717   3.186  0.2203 -0.8777  1.2887
 3010TIP3   OH2 8993   5.878   1.720   5.139  0.0679  0.4160 -0.2120
 3010TIP3    H1 8994   5.886   1.625   5.132 -0.7870  0.1483  1.8541
 3010TIP3    H2 8995   5.784   1.736   5.142  0.1983  1.0675  2.0086
 3011TIP3   OH2 8996   2.992   3.858   3.944  0.1825  0.1250  0.2103
 3011TIP3    H1 8997   3.015   3.951   3.940  0.3457  0.0514 -0.7652
 3011TIP3    H2 8998   3.075   3.813   3.953  0.2503  0.0021 -0.8421
 3012TIP3   OH2 8999   5.621   0.836   3.902  0.1958 -0.3125 -0.5549
 3012TIP3    H1 9000   5.552   0.881   3.951  2.0108  0.5156  1.4308
 3012TIP3    H2 9001   5.576   0.767   3.854 -1.8056 -1.0120  2.0920
 3013TIP3   OH2 9002   0.939   3.289   2.027  0.1390 -0.3788 -0.3857
 3013TIP3    H1 9003   0.929   3.383   2.015  1.3042 -0.0519  0.9350
 3013TIP3    H2 9004   0.980   3.279   2.113  2.4219 -1.9436 -1.5364
 3014TIP3   OH2 9005   2.467   1.581   3.611 -0.6645 -0.3049  0.0923
 3014TIP3    H1 9006   2.538   1.603   3.552 -0.8530 -0.0523 -0.0453
 3014TIP3    H2 9007   2.493   1.619   3.695  0.4674 -2.2315  0.6682
 3015TIP3   OH2 9008   4.263   5.243   5.204  0.1855  0.2008 -0.1641
 3015TIP3    H1 9009   4.303   5.256   5.119 -0.9560  0.9311 -0.6187
 3015TIP3    H2 9010   4.320   5.290   5.265  0.1072  1.1140 -0.7756
 3016TIP3   OH2 9011   0.967   5.413   5.344 -0.3038  0.3831 -0.4299
 3016TIP3    H1 9012   0.970   5.317   5.334 -1.1852  0.2680  0.3215
 3016TIP3    H2 9013   1.006   5.429   5.430 -1.1022  0.6005 -0.0986
 3017TIP3   OH2 9014   2.342   5.445   0.054  0.3159 -0.2751  0.1189
 3017TIP3    H1 9015   2.329   5.410   0.142  1.1768  2.5154  1.4862
 3017TIP3    H2 9016   2.437   5.438   0.039  0.3219  0.2345 -0.1155
 3018TIP3   OH2 9017   3.867   3.133   2.883  0.4804 -0.0884  0.7721
 3018TIP3    H1 9018   3.891   3.094   2.799  2.1068 -0.1955  1.2377
 3018TIP3    H2 9019   3.775   3.111   2.895  0.6663 -1.5108 -0.2044
 3019TIP3   OH2 9020   2.776   2.471   0.723 -0.3296  0.2162 -0.1620
 3019TIP3    H1 9021   2.729   2.507   0.798 -0.2809  1.6357 -0.7903
 3019TIP3    H2 9022   2.742   2.382   0.714  0.6831 -0.5074  2.3850
 3020TIP3   OH2 9023   4.912   0.545   5.119 -0.0524 -0.5565 -0.5381
 3020TIP3    H1 9024   4.888   0.632   5.151 -0.2493  0.3114 -2.8102
 3020TIP3    H2 9025   4.829   0.504   5.095  0.1873 -0.3136 -1.8789
 3021TIP3   OH2 9026   0.886   5.432   1.034 -0.1294  0.5999  0.4278
 3021TIP3    H1 9027   0.927   5.378   0.967  1.0844  2.9120 -0.8010
 3021TIP3    H2 9028   0.792   5.428   1.014  0.2261  1.5146 -1.7010
 3022TIP3   OH2 9029   5.191   1.006   4.165  0.2466 -0.1650  0.4364
 3022TIP3    H1 9030   5.262   1.029   4.106 -0.7845  1.7157 -0.1494
 3022TIP3    H2 9031   5.120   0.977   4.108 -0.9552  2.1940  0.5875
 3023TIP3   OH2 9032   5.463   3.022   0.948  0.4134  0.0201 -0.3567
 3023TIP3    H1 9033   5.369   3.019   0.964  0.6059 -1.1462  0.7226
 3023TIP3    H2 9034   5.478   2.963   0.874  0.1986  0.9353 -1.1429
 3024TIP3   OH2 9035   4.618   1.265   2.414  0.1191  0.1468 -0.1697
 3024TIP3    H1 9036   4.707   1.266   2.378  0.3158  1.0556  0.3008
 3024TIP3    H2 9037   4.625   1.210   2.492  0.3897  0.5625  0.1107
 3025TIP3   OH2 9038   5.660   3.853   3.467 -0.9284 -0.1604 -0.3050
 3025TIP3    H1 9039   5.640   3.836   3.375 -0.0574 -0.4718 -0.4449
 3025TIP3    H2 9040   5.631   3.774   3.513  2.0589 -1.6825 -0.8088
 3026TIP3   OH2 9041   3.376   4.842   5.693 -0.4519 -0.4098  0.1591
 3026TIP3    H1 9042   3.441   4.840   5.763 -0.3726 -0.5753  0.0792
 3026TIP3    H2 9043   3.413   4.900   5.627 -0.9203  0.4821  0.6428
 3027TIP3   OH2 9044   6.383   4.479   4.332  0.7862  0.3927 -0.7008
 3027TIP3    H1 9045   6.297   4.488   4.290  0.7992  1.0443 -0.6055
 3027TIP3    H2 9046   6.369   4.421   4.406  0.1847  1.3471 -0.0453
 3028TIP3   OH2 9047   5.609   2.174   4.892 -0.3943  0.1369 -0.5596
 3028TIP3    H1 9048   5.659   2.140   4.966 -2.6626  0.2803  1.1353
 3028TIP3    H2 9049   5.546   2.104   4.872 -1.3508  1.0363 -0.7807
 3029TIP3   OH2 9050   3.049   6.714   1.254 -0.2354 -0.2866  0.0892
 3029TIP3    H1 9051   3.076   6.732   1.164  0.3261 -0.1505  0.2805
 3029TIP3    H2 9052   3.039   6.619   1.258 -2.0554 -0.1557 -0.6066
 3030TIP3   OH2 9053   7.018   0.862   2.253  0.1019 -0.4067  0.0577
 3030TIP3    H1 9054   7.073   0.784   2.244  0.3816 -0.2482  0.3927
 3030TIP3    H2 9055   6.948   0.849   2.189 -0.9047 -1.8403  1.3544
 3031TIP3   OH2 9056   2.983   2.994   1.213 -0.0421 -0.1896  0.4635
 3031TIP3    H1 9057   3.045   2.954   1.152 -0.4137 -1.7112  1.0283
 3031TIP3    H2 9058   2.904   2.941   1.206  0.2244 -1.0854  2.9406
 3032TIP3   OH2 9059   0.814   4.484   3.312 -0.4200  0.2575  0.2232
 3032TIP3    H1 9060   0.765   4.415   3.269 -0.9064  1.0264 -0.4905
 3032TIP3    H2 9061   0.894   4.494   3.259  0.9930 -1.5637  1.8481
 3033TIP3   OH2 9062   5.668   5.691   2.022 -0.0201 -0.1138  0.1887
 3033TIP3    H1 9063   5.619   5.728   2.095 -1.8100 -0.3143 -0.8636
 3033TIP3    H2 9064   5.696   5.605   2.053 -0.0673  0.1325  0.9203
 3034TIP3   OH2 9065   3.195   5.126   4.097  0.1772 -0.7333 -0.5680
 3034TIP3    H1 9066   3.183   5.074   4.017  0.4628 -1.2554 -0.2788
 3034TIP3    H2 9067   3.279   5.169   4.086  0.2919 -0.9334 -0.4812
 3035TIP3   OH2 9068   6.759   6.557   2.025  0.4696 -0.2809  0.2930
 3035TIP3    H1 9069   6.693   6.614   1.984  1.0603  0.2354  0.0400
 3035TIP3    H2 9070   6.718   6.527   2.106 -0.8333 -1.5386 -0.7699
 3036TIP3   OH2 9071   5.784   6.720   3.004  0.1601 -0.5297  0.3141
 3036TIP3    H1 9072   5.701   6.759   3.031 -0.6810 -0.8830 -1.6245
 3036TIP3    H2 9073   5.817   6.778   2.935  0.6063 -1.3702 -0.1924
 3037TIP3   OH2 9074   6.466   0.766   2.675 -0.5355  0.1586 -0.2601
 3037TIP3    H1 9075   6.403   0.694   2.682 -1.7918  1.2173 -0.3236
 3037TIP3    H2 9076   6.444   0.824   2.747  0.8302  0.2149  0.1238
 3038TIP3   OH2 9077   7.095   2.828   0.732  0.0016 -0.0609 -0.3470
 3038TIP3    H1 9078   7.185   2.837   0.701 -0.1825  0.9912 -0.5897
 3038TIP3    H2 9079   7.053   2.771   0.668  0.1338  0.5517 -0.9827
 3039TIP3   OH2 9080   5.059   2.162   4.249 -0.0215 -0.0236  0.2530
 3039TIP3    H1 9081   4.998   2.224   4.287  0.8160  1.0403 -0.1020
 3039TIP3    H2 9082   5.005   2.086   4.225 -1.5858  1.6961 -2.0098
 3040TIP3   OH2 9083   6.929   1.613   2.869  0.4580 -0.3118  0.3201
 3040TIP3    H1 9084   6.911   1.542   2.931  0.0635 -0.2863  0.2412
 3040TIP3    H2 9085   6.864   1.600   2.800  0.2960  0.2083  0.3721
 3041TIP3   OH2 9086   6.107   3.716   0.476 -0.2869 -0.7623 -0.0929
 3041TIP3    H1 9087   6.128   3.783   0.541 -1.8654  0.0245 -0.3363
 3041TIP3    H2 9088   6.188   3.667   0.465  0.8023  0.8471  0.4089
 3042TIP3   OH2 9089   4.277   1.156   2.099 -0.5230  0.2129  0.6824
 3042TIP3    H1 9090   4.196   1.201   2.073 -0.4305  0.9668  1.6346
 3042TIP3    H2 9091   4.320   1.217   2.159  1.3515  0.3185 -0.7164
 3043TIP3   OH2 9092   2.704   3.462   0.473 -0.0849 -0.2722  0.4341
 3043TIP3    H1 9093   2.752   3.428   0.548 -0.7151 -0.9311  0.5500
 3043TIP3    H2 9094   2.718   3.557   0.476  2.5508 -0.5575 -0.4798
 3044TIP3   OH2 9095   0.210   4.389   4.242  0.3089  0.0426  0.4246
 3044TIP3    H1 9096   0.161   4.400   4.323 -0.4402 -1.9570  0.2980
 3044TIP3    H2 9097   0.281   4.329   4.265 -0.7102 -1.6399 -0.6620
 3045TIP3   OH2 9098   0.924   2.744   4.063  0.1452 -0.0326 -0.2544
 3045TIP3    H1 9099   0.988   2.814   4.081 -0.0154 -0.0677  0.4802
 3045TIP3    H2 9100   0.915   2.698   4.146  0.7972 -1.4009 -0.9230
 3046TIP3   OH2 9101   1.265   3.374   0.750 -0.1215  0.0952 -0.2669
 3046TIP3    H1 9102   1.315   3.337   0.678 -0.6035 -0.4947 -0.3039
 3046TIP3    H2 9103   1.193   3.421   0.708  0.6118  1.3152 -0.2347
 3047TIP3   OH2 9104   3.275   6.150   4.474 -0.3381  0.2829 -0.3640
 3047TIP3    H1 9105   3.308   6.083   4.415 -0.8915 -1.2667  1.0169
 3047TIP3    H2 9106   3.180   6.138   4.474 -0.4007  0.7368  0.2953
 3048TIP3   OH2 9107   5.254   5.175   2.645 -0.0130  0.4033 -0.0685
 3048TIP3    H1 9108   5.244   5.247   2.707 -0.9985  0.1352  0.1087
 3048TIP3    H2 9109   5.321   5.206   2.583  0.9933  0.6656  1.1130
 3049TIP3   OH2 9110   2.908   5.416   0.400  0.3597 -0.1199  0.5649
 3049TIP3    H1 9111   2.921   5.504   0.364 -0.9494 -0.5279 -1.0670
 3049TIP3    H2 9112   2.955   5.358   0.340 -0.2669 -0.6617  0.5792
 3050TIP3   OH2 9113   6.561   0.664   1.926 -0.0356  0.4407 -0.6000
 3050TIP3    H1 9114   6.503   0.738   1.945 -1.4481 -0.0507 -2.7295
 3050TIP3    H2 9115   6.503   0.597   1.891  1.8388  0.0425 -3.1610
 3051TIP3   OH2 9116   5.956   6.457   1.599  0.1758  0.2343  0.1659
 3051TIP3    H1 9117   5.967   6.364   1.579  0.3800  0.5627 -1.3709
 3051TIP3    H2 9118   6.035   6.480   1.649  1.3207  0.1093 -1.5077
 3052TIP3   OH2 9119   5.410   1.193   1.570 -0.4799 -0.1636 -0.2784
 3052TIP3    H1 9120   5.436   1.131   1.502 -0.2382 -0.2214 -0.1370
 3052TIP3    H2 9121   5.492   1.211   1.618 -0.4289  0.7015 -0.6738
 3053TIP3   OH2 9122   4.087   1.593   4.467 -0.0937  0.7634  0.0873
 3053TIP3    H1 9123   4.160   1.537   4.494  1.1936  1.8667 -0.9256
 3053TIP3    H2 9124   4.053   1.551   4.388  0.7322  1.2465 -0.5489
 3054TIP3   OH2 9125   3.646   0.047   5.352 -0.2695  0.0095 -0.2478
 3054TIP3    H1 9126   3.665   0.137   5.326  0.2352 -0.1514 -0.4564
 3054TIP3    H2 9127   3.681   0.039   5.441 -2.2427  0.6403  0.6282
 3055TIP3   OH2 9128   0.107   6.331   5.433 -0.1562 -0.1530  0.2305
 3055TIP3    H1 9129   0.105   6.361   5.342 -0.4429  0.1912  0.3476
 3055TIP3    H2 9130   0.094   6.236   5.428 -0.0492 -0.1514 -0.0947
 3056TIP3   OH2 9131   0.035   5.577   0.693  0.5383  0.1349  0.1912
 3056TIP3    H1 9132  -0.019   5.499   0.697  0.1818  0.4347  2.4685
 3056TIP3    H2 9133   0.123   5.545   0.674  0.3212 -0.7826  0.7042
 3057TIP3   OH2 9134   4.567   5.983   4.023 -0.2248 -0.1346  0.1529
 3057TIP3    H1 9135   4.493   6.003   3.965 -0.2709 -2.1226 -0.5382
 3057TIP3    H2 9136   4.627   5.932   3.968  0.4727 -0.7181  1.4215
 3058TIP3   OH2 9137   2.753   4.294   5.695 -0.1806  0.4175  0.1832
 3058TIP3    H1 9138   2.751   4.337   5.609 -1.2422 -0.5705 -0.3273
 3058TIP3    H2 9139   2.669   4.315   5.734 -0.3113 -0.3664  0.3387
 3059TIP3   OH2 9140   2.970   3.988   0.236 -0.2288 -0.0533  0.1266
 3059TIP3    H1 9141   2.942   4.071   0.197  0.0917 -0.8261 -1.8422
 3059TIP3    H2 9142   3.063   3.982   0.215  0.5356  0.4323  2.8601
 3060TIP3   OH2 9143   2.886   5.328   5.250 -0.4007 -0.2158 -0.1993
 3060TIP3    H1 9144   2.806   5.294   5.210  1.0027 -1.5071 -2.0774
 3060TIP3    H2 9145   2.863   5.340   5.342 -2.5347 -1.2079 -0.5314
 3061TIP3   OH2 9146   4.110   4.517   1.972  0.0979  0.0418 -0.0744
 3061TIP3    H1 9147   4.154   4.595   2.003  1.5080 -1.1446  1.0241
 3061TIP3    H2 9148   4.082   4.471   2.052 -3.9612  1.0828 -0.6380
 3062TIP3   OH2 9149   5.283   5.015   1.802 -0.2837  0.1813 -0.4061
 3062TIP3    H1 9150   5.310   4.979   1.717 -0.2586 -0.8159  0.0165
 3062TIP3    H2 9151   5.267   5.108   1.784  2.1308  0.5662 -0.9782
 3063TIP3   OH2 9152   6.963   1.087   5.634 -0.2031 -0.4333  0.5990
 3063TIP3    H1 9153   6.898   1.066   5.567 -0.0991 -0.1021  0.3964
 3063TIP3    H2 9154   6.911   1.117   5.709 -0.2317  0.9550  0.0362
 3064TIP3   OH2 9155   4.103   4.611   2.711 -0.1083  0.3057  0.0342
 3064TIP3    H1 9156   4.086   4.694   2.757 -2.8379  1.0912 -2.0623
 3064TIP3    H2 9157   4.053   4.619   2.630  1.4976 -2.4828 -1.3654
 3065TIP3   OH2 9158   3.579   4.033   0.465  0.0403  0.4839  0.6375
 3065TIP3    H1 9159   3.622   4.020   0.549 -0.9365  1.7767  1.3783
 3065TIP3    H2 9160   3.510   4.097   0.483 -0.6417  0.2636 -1.0022
 3066TIP3   OH2 9161   5.131   6.613   3.118  0.0481  0.1104 -0.2080
 3066TIP3    H1 9162   5.171   6.642   3.200 -0.8233  0.8780 -0.0280
 3066TIP3    H2 9163   5.058   6.674   3.105  1.7213  1.7521 -2.9357
 3067TIP3   OH2 9164   6.379   5.433   4.839 -0.1734  0.2729 -0.0189
 3067TIP3    H1 9165   6.372   5.397   4.750  0.0249  0.1618  0.0092
 3067TIP3    H2 9166   6.459   5.485   4.837  0.2330 -0.3295  0.3013
 3068TIP3   OH2 9167   0.661   0.970   3.254  0.4356  0.5116 -0.1838
 3068TIP3    H1 9168   0.730   0.917   3.295 -0.1697 -0.3508 -0.2311
 3068TIP3    H2 9169   0.629   0.915   3.182  0.6211  1.4774 -1.0280
 3069TIP3   OH2 9170   1.058   0.598   1.975 -0.2353  0.1622  0.3964
 3069TIP3    H1 9171   1.034   0.611   2.067  0.6738 -1.8761  0.9603
 3069TIP3    H2 9172   1.128   0.533   1.977  0.9052  1.2298 -1.6486
 3070TIP3   OH2 9173   0.739   4.143   3.392 -0.4949 -0.0371  0.2947
 3070TIP3    H1 9174   0.785   4.079   3.446  0.8958  0.0981 -0.6707
 3070TIP3    H2 9175   0.784   4.140   3.307 -0.9558  1.5770 -0.0468
 3071TIP3   OH2 9176   0.911   5.013   4.209 -0.3173  0.4173 -0.4861
 3071TIP3    H1 9177   0.837   5.069   4.231 -0.8966 -0.0805 -1.1081
 3071TIP3    H2 9178   0.880   4.959   4.136  0.3450 -0.4387 -0.1658
 3072TIP3   OH2 9179   5.954   6.056   1.409  0.1332  0.1690  0.6915
 3072TIP3    H1 9180   5.974   6.132   1.354 -2.7839 -0.8314 -2.0128
 3072TIP3    H2 9181   6.017   6.062   1.481  2.8678  2.7379 -1.6332
 3073TIP3   OH2 9182   3.785   6.064   2.745 -0.0477 -0.1047  0.2905
 3073TIP3    H1 9183   3.862   6.051   2.690  0.3553  2.6663  0.0798
 3073TIP3    H2 9184   3.819   6.077   2.833 -0.1798  1.6967  0.1042
 3074TIP3   OH2 9185   1.427   2.418   2.926 -0.0525 -0.4257  0.1027
 3074TIP3    H1 9186   1.377   2.398   3.005 -0.3101 -2.9499 -0.6322
 3074TIP3    H2 9187   1.513   2.445   2.958 -1.4310  3.1718  1.3572
 3075TIP3   OH2 9188   6.463   3.385   5.370 -0.0547 -0.2391  0.5038
 3075TIP3    H1 9189   6.438   3.476   5.356 -1.3540 -0.4984  1.0389
 3075TIP3    H2 9190   6.456   3.345   5.283  2.1762  0.5172 -0.0832
 3076TIP3   OH2 9191   2.622   3.631   1.900 -0.5539 -0.2591 -0.2009
 3076TIP3    H1 9192   2.589   3.649   1.812 -1.0680 -1.6154 -0.3074
 3076TIP3    H2 9193   2.690   3.697   1.915  1.2145 -1.4306 -2.5346
 3077TIP3   OH2 9194   1.644   6.034   2.754  0.1859 -0.1567 -0.2265
 3077TIP3    H1 9195   1.674   5.979   2.682 -0.0779  0.6975 -1.0262
 3077TIP3    H2 9196   1.718   6.038   2.814 -0.3592 -2.7062  0.7008
 3078TIP3   OH2 9197   4.998   2.274   2.577 -0.2590  0.2362 -0.2065
 3078TIP3    H1 9198   5.022   2.324   2.655 -0.4268  1.3794 -0.8730
 3078TIP3    H2 9199   4.935   2.209   2.608 -0.8620  1.1382  0.4863
 3079TIP3   OH2 9200   3.773   1.840   3.732 -0.3497  0.5020 -0.3418
 3079TIP3    H1 9201   3.732   1.925   3.715 -1.5949  0.2432  1.1882
 3079TIP3    H2 9202   3.835   1.858   3.804  0.0561  0.2797 -0.6296
 3080TIP3   OH2 9203   1.370   6.260   5.900  0.0784 -0.0881 -0.8890
 3080TIP3    H1 9204   1.322   6.240   5.820  2.0084 -2.3790 -1.5987
 3080TIP3    H2 9205   1.418   6.340   5.880 -0.0972 -0.1840 -1.7214
 3081TIP3   OH2 9206   1.281   3.431   2.701  0.3705  0.5537 -0.2553
 3081TIP3    H1 9207   1.264   3.424   2.607 -0.4802  0.2002 -0.0777
 3081TIP3    H2 9208   1.259   3.522   2.722  2.7768  1.3535 -0.8147
 3082TIP3   OH2 9209   5.375   1.674   3.614 -0.6057  0.0633 -0.5386
 3082TIP3    H1 9210   5.295   1.716   3.647 -0.4243  0.1167 -0.1617
 3082TIP3    H2 9211   5.441   1.744   3.614 -0.0277 -0.4386  1.0789
 3083TIP3   OH2 9212   1.794   6.795   3.615  0.1114 -0.5102 -0.3004
 3083TIP3    H1 9213   1.798   6.804   3.520  0.5245 -2.6454 -0.5313
 3083TIP3    H2 9214   1.790   6.701   3.630 -0.9481 -0.1838  1.7785
 3084TIP3   OH2 9215   0.491   5.656   3.834 -0.4246 -0.0856 -0.7408
 3084TIP3    H1 9216   0.492   5.749   3.809 -0.1645  0.4525  1.1165
 3084TIP3    H2 9217   0.520   5.656   3.925 -1.2095 -1.9342 -0.4566
 3085TIP3   OH2 9218   2.473   6.090   5.835  0.0710  0.3979 -0.9516
 3085TIP3    H1 9219   2.526   6.010   5.835  2.3205  1.7954  0.0824
 3085TIP3    H2 9220   2.523   6.152   5.783 -0.6037  1.7557 -0.0420
 3086TIP3   OH2 9221   4.837   2.514   1.788  0.2269  0.2219  0.0393
 3086TIP3    H1 9222   4.809   2.505   1.697  0.3942 -0.4100  0.0411
 3086TIP3    H2 9223   4.918   2.563   1.784 -1.6082  3.5644  0.1521
 3087TIP3   OH2 9224   6.813   4.267   1.701 -0.6168 -0.7836  0.6597
 3087TIP3    H1 9225   6.778   4.277   1.612 -0.7034 -1.8353  0.5680
 3087TIP3    H2 9226   6.831   4.174   1.710  0.4979 -0.5225  1.3469
 3088TIP3   OH2 9227   5.994   2.093   4.732 -0.2491  0.1684  0.2131
 3088TIP3    H1 9228   6.025   2.167   4.680 -0.1612 -0.8757 -1.2808
 3088TIP3    H2 9229   6.036   2.105   4.817  1.3590  0.7720 -0.6175
 3089TIP3   OH2 9230   0.774   3.231   3.082  0.2480  0.0740 -0.2462
 3089TIP3    H1 9231   0.717   3.195   3.013 -1.1758  2.2401 -0.3013
 3089TIP3    H2 9232   0.714   3.252   3.154  1.5824 -1.2378  1.3271
 3090TIP3   OH2 9233   3.189   2.773   5.674  0.0347 -0.3907 -0.8418
 3090TIP3    H1 9234   3.232   2.811   5.598  0.9178  1.7355  0.6206
 3090TIP3    H2 9235   3.181   2.845   5.736 -5.1713 -0.6784 -0.6746
 3091TIP3   OH2 9236   5.191   0.443   5.355  0.5557  0.5280  0.2788
 3091TIP3    H1 9237   5.227   0.469   5.439  0.4732  1.3714  0.0598
 3091TIP3    H2 9238   5.102   0.412   5.376  1.1526 -0.9642  0.7280
 3092TIP3   OH2 9239   2.253   3.926   1.139  0.9610 -0.5622 -0.2498
 3092TIP3    H1 9240   2.255   3.832   1.119  0.6776 -0.3265 -1.4360
 3092TIP3    H2 9241   2.204   3.931   1.221  0.2791 -1.3926 -0.5836
 3093TIP3   OH2 9242   3.028   3.228   2.031 -0.2961  0.2362  0.0572
 3093TIP3    H1 9243   2.989   3.309   1.998  1.8131  0.4446 -2.1858
 3093TIP3    H2 9244   3.121   3.236   2.011 -0.2163 -3.4733 -1.9998
 3094TIP3   OH2 9245   1.874   3.127   1.243  0.5092 -0.2626 -0.4386
 3094TIP3    H1 9246   1.889   3.197   1.180 -2.1118 -2.2265 -3.5427
 3094TIP3    H2 9247   1.916   3.050   1.204  0.5534 -1.1650  1.2782
 3095TIP3   OH2 9248   0.230   2.802   4.461  0.3031 -0.3243  0.2270
 3095TIP3    H1 9249   0.235   2.854   4.381 -0.7040 -0.7979 -0.1657
 3095TIP3    H2 9250   0.148   2.753   4.452 -0.2939  0.2851  1.9428
 3096TIP3   OH2 9251   2.467   5.472   4.062 -0.0885  0.0273 -0.6630
 3096TIP3    H1 9252   2.533   5.409   4.090 -1.0484 -0.9152 -0.4475
 3096TIP3    H2 9253   2.494   5.498   3.974  0.4469 -0.5049 -0.6665
 3097TIP3   OH2 9254   4.820   0.796   0.717  0.3601 -0.3343  0.1205
 3097TIP3    H1 9255   4.845   0.721   0.663  0.5163 -0.8077  0.8331
 3097TIP3    H2 9256   4.886   0.798   0.787  0.6663  0.7916 -0.1755
 3098TIP3   OH2 9257   5.555   2.680   2.706  0.5201  0.0735  0.3160
 3098TIP3    H1 9258   5.499   2.686   2.784 -1.1660  0.7403 -0.8663
 3098TIP3    H2 9259   5.527   2.754   2.651 -1.5671 -2.7769 -2.8855
 3099TIP3   OH2 9260   2.298   0.178   5.566 -0.2251  0.0511  0.0862
 3099TIP3    H1 9261   2.240   0.102   5.573 -0.9577  0.6327  0.4602
 3099TIP3    H2 9262   2.243   0.252   5.591  0.1662  0.8435 -1.2983
 3100TIP3   OH2 9263   5.512   0.353   4.954  0.2451  0.3033 -0.1380
 3100TIP3    H1 9264   5.426   0.346   4.996 -0.0683 -0.6035 -0.8669
 3100TIP3    H2 9265   5.495   0.403   4.874  0.5409  0.7439  0.0741
 3101TIP3   OH2 9266   3.909   0.975   2.272 -0.0219 -0.3139  0.3351
 3101TIP3    H1 9267   3.954   0.963   2.188  2.0064  0.1539  1.2897
 3101TIP3    H2 9268   3.864   1.059   2.263  2.5827  1.2301  0.6225
 3102TIP3   OH2 9269   4.055   5.796   5.588  0.6947  0.0804 -0.2165
 3102TIP3    H1 9270   4.125   5.733   5.605  0.8551 -0.0493 -1.2748
 3102TIP3    H2 9271   4.010   5.761   5.510  1.2326  1.6213 -1.2578
 3103TIP3   OH2 9272   4.798   2.543   5.098 -0.1979  0.1419 -0.0741
 3103TIP3    H1 9273   4.767   2.627   5.131 -0.6874 -0.2140  0.4118
 3103TIP3    H2 9274   4.878   2.563   5.050 -0.4389  0.9098 -0.1639
 3104TIP3   OH2 9275   1.494   1.059   0.639  0.7250 -0.5453  0.1231
 3104TIP3    H1 9276   1.404   1.085   0.620  1.4143  1.0500 -1.1914
 3104TIP3    H2 9277   1.487   1.003   0.717 -1.5845 -2.0358 -1.0440
 3105TIP3   OH2 9278   3.061   3.251   4.344  0.3812 -0.5613 -0.2091
 3105TIP3    H1 9279   3.006   3.243   4.422 -0.2997  0.1908 -0.6030
 3105TIP3    H2 9280   3.150   3.237   4.376 -0.0263 -1.7403  0.4443
 3106TIP3   OH2 9281   2.310   4.644   5.407  0.4799 -0.2428  0.3556
 3106TIP3    H1 9282   2.372   4.583   5.445  1.7412  1.0232  0.4189
 3106TIP3    H2 9283   2.226   4.622   5.447  0.8784 -1.9339  0.3216
 3107TIP3   OH2 9284   0.295   6.703   5.428 -0.0812 -0.4658 -0.1776
 3107TIP3    H1 9285   0.257   6.687   5.342  0.0325  1.4436 -0.6192
 3107TIP3    H2 9286   0.221   6.734   5.482  0.6554  3.1790 -1.0177
 3108TIP3   OH2 9287   4.624   6.766   3.008  0.0146 -0.7493 -0.7529
 3108TIP3    H1 9288   4.615   6.798   2.918  2.4082  1.1420 -0.4139
 3108TIP3    H2 9289   4.681   6.689   3.000  0.9631 -0.0508 -0.7827
 3109TIP3   OH2 9290   4.433   4.405   5.100 -0.4886  0.1189  0.1444
 3109TIP3    H1 9291   4.398   4.380   5.186  1.5002  1.7019  1.4935
 3109TIP3    H2 9292   4.527   4.394   5.108 -0.1293  1.6698 -1.3638
 3110TIP3   OH2 9293   3.767   1.835   2.386  0.1417  0.1614 -0.3978
 3110TIP3    H1 9294   3.811   1.812   2.468 -1.5246  0.9148  0.7749
 3110TIP3    H2 9295   3.711   1.760   2.368  0.1995  0.1734 -0.6241
 3111TIP3   OH2 9296   6.339   0.522   2.722  0.1247 -0.0914  0.2046
 3111TIP3    H1 9297   6.252   0.562   2.722  0.7741  1.3993  0.0837
 3111TIP3    H2 9298   6.337   0.462   2.797 -0.8973  0.1731  0.4130
 3112TIP3   OH2 9299   1.994   0.127   0.437 -0.0309 -0.1709 -0.0804
 3112TIP3    H1 9300   2.052   0.192   0.476 -0.7140  0.6095 -0.3537
 3112TIP3    H2 9301   2.009   0.135   0.342  0.8614 -1.3478 -0.0717
 3113TIP3   OH2 9302   5.277   3.221   4.355  0.2651  0.2803 -0.0013
 3113TIP3    H1 9303   5.302   3.313   4.348  1.7424 -0.1039 -0.2208
 3113TIP3    H2 9304   5.337   3.185   4.420 -2.4197  0.1303  2.5955
 3114TIP3   OH2 9305   1.034   1.836   1.590  0.0704 -0.5065  0.2223
 3114TIP3    H1 9306   1.114   1.889   1.588 -0.9964  1.2073 -1.8411
 3114TIP3    H2 9307   1.024   1.804   1.500 -1.3962 -0.9054  0.4908
 3115TIP3   OH2 9308   6.049   0.439   1.775  0.1766  0.3331  0.0744
 3115TIP3    H1 9309   6.082   0.503   1.712 -0.2746  0.0001 -0.5159
 3115TIP3    H2 9310   6.061   0.480   1.861  1.6660  0.4104 -0.1501
 3116TIP3   OH2 9311   5.779   0.620   2.569 -0.4870  0.6185  0.9583
 3116TIP3    H1 9312   5.691   0.584   2.556 -0.1571 -0.1159  0.7051
 3116TIP3    H2 9313   5.780   0.701   2.520 -0.1537 -0.7161 -1.3805
 3117TIP3   OH2 9314   3.754   5.114   2.113  0.1683  0.1381  0.2401
 3117TIP3    H1 9315   3.761   5.043   2.177 -1.7276  0.7214  1.1501
 3117TIP3    H2 9316   3.676   5.093   2.062  0.2322  1.0042 -0.2332
 3118TIP3   OH2 9317   2.882   4.774   2.839  0.2411 -0.0541  0.0746
 3118TIP3    H1 9318   2.899   4.728   2.922  0.6637 -1.5199 -0.7823
 3118TIP3    H2 9319   2.953   4.837   2.831 -0.0894  0.4636  1.0654
 3119TIP3   OH2 9320   3.636   5.317   4.775 -0.2330  0.2856  0.2637
 3119TIP3    H1 9321   3.722   5.341   4.740 -0.7800 -0.6563 -1.8540
 3119TIP3    H2 9322   3.580   5.391   4.753 -0.1659  0.5726  0.9979
 3120TIP3   OH2 9323   7.153   3.373   3.956  0.2872 -0.0294 -0.1274
 3120TIP3    H1 9324   7.112   3.344   4.037 -0.8669  1.0273 -0.3041
 3120TIP3    H2 9325   7.162   3.468   3.966  1.2250 -0.0383 -0.7582
 3121TIP3   OH2 9326   5.901   1.959   3.188 -0.0961  0.4701  0.4432
 3121TIP3    H1 9327   5.989   1.991   3.167  0.0311 -0.5618 -0.7795
 3121TIP3    H2 9328   5.855   1.962   3.104 -1.1900  0.8557  1.0457
 3122TIP3   OH2 9329   4.412   3.211   5.197 -0.1559  0.4247 -0.2764
 3122TIP3    H1 9330   4.406   3.167   5.113 -1.9066 -0.6629  0.3596
 3122TIP3    H2 9331   4.323   3.244   5.213  0.1963  0.8090  1.0464
 3123TIP3   OH2 9332   4.677   0.790   1.166 -0.2652 -0.0886  0.4174
 3123TIP3    H1 9333   4.589   0.792   1.128 -0.6348 -0.2042  1.2240
 3123TIP3    H2 9334   4.681   0.869   1.220  1.1814  1.4790 -1.7948
 3124TIP3   OH2 9335   3.829   0.778   0.604 -0.4049  0.1048 -0.0586
 3124TIP3    H1 9336   3.809   0.708   0.666  0.9476  0.6972  1.1300
 3124TIP3    H2 9337   3.868   0.733   0.529  0.5692 -0.4550  0.7433
 3125TIP3   OH2 9338   6.781   4.295   0.224 -0.2150 -0.1993 -0.3164
 3125TIP3    H1 9339   6.691   4.318   0.201 -0.2627  0.9203  0.9271
 3125TIP3    H2 9340   6.810   4.363   0.284  0.6499 -1.8206  1.2078
 3126TIP3   OH2 9341   6.313   2.199   1.581 -0.0795 -0.0359 -0.3056
 3126TIP3    H1 9342   6.349   2.284   1.606 -1.7513  0.7715 -0.5182
 3126TIP3    H2 9343   6.308   2.202   1.486 -2.2216  0.5458 -0.2052
 3127TIP3   OH2 9344   1.281   0.550   1.427 -0.2929 -0.1144  0.0886
 3127TIP3    H1 9345   1.256   0.458   1.421  0.3142 -0.1910 -2.0080
 3127TIP3    H2 9346   1.316   0.559   1.515 -1.4970 -1.5726  0.7681
 3128TIP3   OH2 9347   1.426   0.545   2.679 -0.0470  0.2175  0.2025
 3128TIP3    H1 9348   1.506   0.594   2.698 -0.5591  2.2274 -2.2869
 3128TIP3    H2 9349   1.437   0.515   2.588 -0.3066 -3.3857  1.2144
 3129TIP3   OH2 9350   3.087   5.587   5.220  0.0157 -0.1160  0.6475
 3129TIP3    H1 9351   3.164   5.594   5.276  1.4034 -0.3915 -1.1361
 3129TIP3    H2 9352   3.044   5.506   5.247  0.5969 -0.1896  1.3678
 3130TIP3   OH2 9353   2.210   5.391   0.802  0.4705  0.3475  0.1314
 3130TIP3    H1 9354   2.228   5.438   0.720 -1.6935  0.9322 -0.0792
 3130TIP3    H2 9355   2.151   5.320   0.776 -0.8723  1.0094  1.2632
 3131TIP3   OH2 9356   0.096   0.570   0.885  0.1591 -0.2052  0.3044
 3131TIP3    H1 9357   0.175   0.517   0.889  0.2781 -0.0612 -0.0730
 3131TIP3    H2 9358   0.026   0.512   0.915  0.0665 -1.0103 -1.3764
 3132TIP3   OH2 9359   6.920   2.628   1.297 -0.2125  0.4637  0.8626
 3132TIP3    H1 9360   6.974   2.556   1.264 -0.4381  0.0419  1.3893
 3132TIP3    H2 9361   6.972   2.668   1.366 -0.1320  0.7440  0.6429
 3133TIP3   OH2 9362   3.811   0.367   0.494 -0.0821  0.0890  0.0437
 3133TIP3    H1 9363   3.850   0.363   0.581  0.2200 -2.1463 -0.1611
 3133TIP3    H2 9364   3.853   0.443   0.453 -0.2654  1.2172  1.8255
 3134TIP3   OH2 9365   7.015   3.742   2.836  0.4033  0.0565  0.2096
 3134TIP3    H1 9366   6.962   3.757   2.914  0.0828  2.1213 -0.3482
 3134TIP3    H2 9367   7.102   3.772   2.860  0.8607 -1.3586  0.4365
 3135TIP3   OH2 9368   6.158   1.798   5.684  0.0432 -0.2153  0.4158
 3135TIP3    H1 9369   6.211   1.723   5.713 -0.4461 -1.1797 -1.0954
 3135TIP3    H2 9370   6.070   1.778   5.715 -0.2329 -0.6377 -0.6220
 3136TIP3   OH2 9371   0.332   6.815   1.435 -0.0001 -0.0328 -0.0379
 3136TIP3    H1 9372   0.356   6.738   1.384  1.3575  0.5242 -0.3032
 3136TIP3    H2 9373   0.238   6.825   1.422 -0.1566 -1.4749 -0.2103
 3137TIP3   OH2 9374   0.345   1.790   1.284  0.0369 -0.2165  0.1081
 3137TIP3    H1 9375   0.406   1.721   1.258  0.0569 -0.4708  0.8214
 3137TIP3    H2 9376   0.400   1.859   1.320  0.1092  0.6072 -1.4520
 3138TIP3   OH2 9377   1.845   1.865   2.677 -0.7099 -0.0996  0.0599
 3138TIP3    H1 9378   1.895   1.931   2.629  0.6928 -0.4901  0.9346
 3138TIP3    H2 9379   1.851   1.892   2.769  0.0392 -1.5207  0.4560
 3139TIP3   OH2 9380   7.096   2.868   4.222  0.0882  0.3191 -0.3993
 3139TIP3    H1 9381   7.080   2.893   4.313 -2.0908 -0.1770 -0.5952
 3139TIP3    H2 9382   7.083   2.774   4.219  1.0291  0.1946 -1.0645
 3140TIP3   OH2 9383   0.675   0.083   5.041 -0.5734 -0.0885 -0.4500
 3140TIP3    H1 9384   0.611   0.023   5.080 -1.7619  1.4769  0.1702
 3140TIP3    H2 9385   0.624   0.132   4.976 -0.0737  1.2710  0.1391
 3141TIP3   OH2 9386   7.000   6.171   4.420  0.3099  0.9087  0.3884
 3141TIP3    H1 9387   7.017   6.190   4.327 -1.2923  1.7223  0.2362
 3141TIP3    H2 9388   6.911   6.136   4.421  0.9911 -0.9287  1.4274
 3142TIP3   OH2 9389   1.185   4.431   0.923 -0.4819  0.6180  0.0014
 3142TIP3    H1 9390   1.150   4.493   0.987 -1.2672  1.3892 -1.1360
 3142TIP3    H2 9391   1.164   4.470   0.838  1.6241  0.2586 -0.7581
 3143TIP3   OH2 9392   6.358   3.829   1.218  0.1569 -0.2262  0.6398
 3143TIP3    H1 9393   6.453   3.838   1.220 -0.0471  3.1951  1.9772
 3143TIP3    H2 9394   6.334   3.803   1.307 -0.2404  1.6324  1.1225
 3144TIP3   OH2 9395   1.449   3.166   5.324 -0.5167  0.3698 -0.0649
 3144TIP3    H1 9396   1.515   3.096   5.323 -0.1219  0.7185 -1.5645
 3144TIP3    H2 9397   1.447   3.195   5.415 -0.6277 -1.5081  0.5893
 3145TIP3   OH2 9398   1.181   3.030   0.464 -0.3654 -0.2873  0.2536
 3145TIP3    H1 9399   1.276   3.023   0.467 -0.1136  1.2038 -2.0925
 3145TIP3    H2 9400   1.155   2.978   0.388 -1.3105  0.2009  0.2228
 3146TIP3   OH2 9401   1.580   3.823   2.463  0.0032  0.4766  0.2582
 3146TIP3    H1 9402   1.635   3.841   2.386 -2.1503 -0.1942 -1.5630
 3146TIP3    H2 9403   1.612   3.738   2.496  1.0696  0.8587  0.2359
 3147TIP3   OH2 9404   1.632   3.155   3.789 -0.1646  0.4473  0.3034
 3147TIP3    H1 9405   1.717   3.159   3.744 -0.7819 -0.6172 -1.0221
 3147TIP3    H2 9406   1.633   3.070   3.833 -1.0249 -0.1355 -0.7662
 3148TIP3   OH2 9407   6.044   0.976   1.562  0.2005  0.7255  0.2439
 3148TIP3    H1 9408   6.030   1.033   1.486  1.7672 -0.9277 -1.4034
 3148TIP3    H2 9409   6.133   0.996   1.591  0.7595 -0.7598 -0.3338
 3149TIP3   OH2 9410   2.132   1.601   4.271  0.6031  0.4580  0.2059
 3149TIP3    H1 9411   2.177   1.685   4.269  2.2876 -0.4072 -1.5842
 3149TIP3    H2 9412   2.179   1.546   4.208 -1.5058 -1.2965  0.0085
 3150TIP3   OH2 9413   1.111   3.956   2.702  0.0657  0.4088 -0.6770
 3150TIP3    H1 9414   1.180   3.982   2.763 -0.6983 -1.9065  1.3259
 3150TIP3    H2 9415   1.051   4.030   2.702  0.6997  0.9619  0.4443
 3151TIP3   OH2 9416   0.937   0.221   4.682  0.1083 -0.1126 -0.0052
 3151TIP3    H1 9417   0.920   0.236   4.775 -2.1556 -0.3896 -0.3213
 3151TIP3    H2 9418   0.982   0.137   4.679 -1.0379 -0.7843  0.7886
 3152TIP3   OH2 9419   3.875   6.687   3.174  0.0709 -0.0565  0.4242
 3152TIP3    H1 9420   3.891   6.592   3.182  0.1620 -0.1553 -0.7600
 3152TIP3    H2 9421   3.956   6.721   3.135 -0.3006  0.3716  0.0190
 3153TIP3   OH2 9422   4.977   0.342   5.456  0.0064  0.0371 -0.5589
 3153TIP3    H1 9423   4.900   0.371   5.407 -0.7397 -0.9209  0.0053
 3153TIP3    H2 9424   4.941   0.300   5.534  1.1598  2.3452  1.3431
 3154TIP3   OH2 9425   6.132   4.837   1.769 -0.1400 -0.2693 -0.2010
 3154TIP3    H1 9426   6.184   4.782   1.828  0.3581  0.1961 -0.2037
 3154TIP3    H2 9427   6.048   4.792   1.763  0.8714 -2.0885 -1.7297
 3155TIP3   OH2 9428   0.693   3.888   2.368 -0.0506 -0.2411  0.2635
 3155TIP3    H1 9429   0.770   3.886   2.425  0.5992  2.5366 -0.3337
 3155TIP3    H2 9430   0.729   3.899   2.280 -1.1022  0.2744 -0.1209
 3156TIP3   OH2 9431   2.266   5.441   1.380  0.3494  0.3334  0.3547
 3156TIP3    H1 9432   2.330   5.394   1.328 -0.4662 -1.0098  0.5233
 3156TIP3    H2 9433   2.284   5.534   1.363  2.6433  0.0145  0.8236
 3157TIP3   OH2 9434   2.906   3.325   0.619  0.4537  0.3187 -0.0090
 3157TIP3    H1 9435   2.928   3.379   0.694  1.1112 -0.4444  0.3648
 3157TIP3    H2 9436   2.829   3.275   0.647 -0.3018  1.2206 -0.4416
 3158TIP3   OH2 9437   6.402   0.066   4.441 -0.1841  0.1478  0.2877
 3158TIP3    H1 9438   6.437   0.013   4.370  0.4321 -0.3753  0.9659
 3158TIP3    H2 9439   6.466   0.136   4.454 -0.2840  0.2312  0.3367
 3159TIP3   OH2 9440   5.597   3.452   1.691 -0.2882 -0.1832  0.0696
 3159TIP3    H1 9441   5.613   3.361   1.717  0.4255  0.0446  0.4648
 3159TIP3    H2 9442   5.684   3.492   1.689 -0.4189  0.0960 -1.6841
 3160TIP3   OH2 9443   3.651   5.663   1.620  0.0353  0.5850 -0.3973
 3160TIP3    H1 9444   3.583   5.722   1.653  0.2364  0.9455 -0.6324
 3160TIP3    H2 9445   3.603   5.598   1.569 -0.5869 -1.3653  2.4287
 3161TIP3   OH2 9446   5.814   6.472   2.901 -0.2865 -0.4071 -0.0084
 3161TIP3    H1 9447   5.895   6.464   2.952 -1.1604 -0.0059  1.5081
 3161TIP3    H2 9448   5.768   6.546   2.941 -0.8517  0.1703 -1.6518
 3162TIP3   OH2 9449   2.764   2.031   4.423  0.1416 -0.0074 -0.2172
 3162TIP3    H1 9450   2.752   2.123   4.401 -0.2757  0.1173  0.5048
 3162TIP3    H2 9451   2.814   2.032   4.505 -0.7043 -0.3919  0.3144
 3163TIP3   OH2 9452   4.422   1.258   0.448 -0.2294 -0.1838  0.6101
 3163TIP3    H1 9453   4.430   1.329   0.512 -0.3055  0.1352  0.2684
 3163TIP3    H2 9454   4.439   1.300   0.363 -1.6723 -0.2817  0.2511
 3164TIP3   OH2 9455   4.774   2.080   1.390 -0.2694 -0.0597 -0.2723
 3164TIP3    H1 9456   4.688   2.059   1.426 -0.4285  0.5277 -0.2905
 3164TIP3    H2 9457   4.805   1.998   1.352  1.4938 -1.7809  4.2023
 3165TIP3   OH2 9458   0.702   2.102   3.041 -0.3677 -0.2506  0.1557
 3165TIP3    H1 9459   0.619   2.062   3.069 -0.0712  0.1127  1.6556
 3165TIP3    H2 9460   0.729   2.155   3.116 -0.1073  1.7656 -1.2803
 3166TIP3   OH2 9461   1.404   4.103   5.754  0.4287 -0.5933  0.4430
 3166TIP3    H1 9462   1.434   4.142   5.671 -1.0492 -0.2595  0.0397
 3166TIP3    H2 9463   1.483   4.064   5.792  0.8383 -2.5759 -2.1216
 3167TIP3   OH2 9464   3.582   0.856   0.054  0.2715  0.1859  0.7319
 3167TIP3    H1 9465   3.502   0.843   0.105  0.4408 -0.1886  0.9065
 3167TIP3    H2 9466   3.615   0.940   0.084 -0.4243  0.6819  0.1536
 3168TIP3   OH2 9467   0.588   3.776   0.590 -0.0647 -0.3258 -0.0662
 3168TIP3    H1 9468   0.608   3.767   0.497 -2.2800  0.7834 -0.7287
 3168TIP3    H2 9469   0.609   3.867   0.611  0.9724 -0.7289  0.6859
 3169TIP3   OH2 9470   0.754   2.325   4.236 -0.5092  0.0938  0.1707
 3169TIP3    H1 9471   0.754   2.256   4.169  0.9727 -1.6090  1.8302
 3169TIP3    H2 9472   0.843   2.359   4.235 -0.3655 -0.1955  1.4932
 3170TIP3   OH2 9473   3.338   0.571   4.512 -0.3453  0.8617 -0.3812
 3170TIP3    H1 9474   3.358   0.552   4.603 -1.5077  0.9498 -0.0853
 3170TIP3    H2 9475   3.423   0.573   4.468  0.2301  0.8529  0.7004
 3171TIP3   OH2 9476   1.417   3.422   2.035 -0.6910 -0.1624  0.2739
 3171TIP3    H1 9477   1.449   3.478   1.964 -1.3359  1.2306  1.0401
 3171TIP3    H2 9478   1.456   3.460   2.114 -1.6673 -0.4032  0.8832
 3172TIP3   OH2 9479   7.079   3.890   2.596  0.6098 -0.2471  0.5370
 3172TIP3    H1 9480   7.151   3.841   2.556  1.3119  1.2653 -0.1608
 3172TIP3    H2 9481   7.036   3.828   2.654  2.0599 -1.3853  0.4410
 3173TIP3   OH2 9482   3.237   1.377   2.684 -0.0662 -0.0991  0.1130
 3173TIP3    H1 9483   3.259   1.296   2.730 -0.0201  0.1695  0.5698
 3173TIP3    H2 9484   3.187   1.349   2.607  0.6735 -0.6178 -0.1847
 3174TIP3   OH2 9485   4.105   4.372   4.359  0.3028  0.1849 -0.0723
 3174TIP3    H1 9486   4.122   4.312   4.431  0.3209  0.8169  0.4618
 3174TIP3    H2 9487   4.009   4.371   4.349  0.3937 -1.0104 -1.0216
 3175TIP3   OH2 9488   0.105   3.929   2.248 -0.4103  0.4684  0.0968
 3175TIP3    H1 9489   0.108   3.959   2.339  2.1408 -0.5012  0.4087
 3175TIP3    H2 9490   0.076   3.838   2.254 -0.3322  0.4320 -0.0681
 3176TIP3   OH2 9491   0.472   3.164   0.986 -0.7602 -0.1983 -0.3668
 3176TIP3    H1 9492   0.410   3.202   1.047  2.0371  3.1810  0.6918
 3176TIP3    H2 9493   0.427   3.167   0.901 -3.0511 -0.7406  0.7559
 3177TIP3   OH2 9494   5.502   6.293   4.918  0.2763 -0.6148 -0.4106
 3177TIP3    H1 9495   5.588   6.251   4.909 -0.1402 -1.2710 -1.3685
 3177TIP3    H2 9496   5.448   6.254   4.850 -0.3075  1.0219 -0.9338
 3178TIP3   OH2 9497   0.875   5.807   0.236 -0.2410  0.1303 -0.1892
 3178TIP3    H1 9498   0.935   5.868   0.279 -0.4376 -0.9097  1.6519
 3178TIP3    H2 9499   0.888   5.724   0.281 -1.3834 -0.7184 -1.3370
 3179TIP3   OH2 9500   3.460   2.592   2.344 -0.3845 -0.2830  0.4736
 3179TIP3    H1 9501   3.490   2.524   2.283 -1.8337  0.7367 -1.5075
 3179TIP3    H2 9502   3.483   2.559   2.430  2.2807 -1.5725 -0.6106
 3180TIP3   OH2 9503   5.274   0.135   5.416  0.1008  0.2814  0.4987
 3180TIP3    H1 9504   5.239   0.118   5.329 -1.4471 -0.0132  1.1508
 3180TIP3    H2 9505   5.212   0.195   5.456 -0.3490 -1.1843  2.1278
 3181TIP3   OH2 9506   6.448   5.604   3.873 -0.1861 -0.1897  0.1087
 3181TIP3    H1 9507   6.396   5.542   3.820  0.4092 -0.6491  0.0479
 3181TIP3    H2 9508   6.452   5.563   3.959 -1.3540  0.6714  0.6056
 3182TIP3   OH2 9509   5.385   4.865   4.349  0.2579 -0.1884 -0.0441
 3182TIP3    H1 9510   5.370   4.822   4.433  0.4356  0.7269  0.4737
 3182TIP3    H2 9511   5.315   4.931   4.344  0.4090 -0.0618 -0.4878
 3183TIP3   OH2 9512   1.103   5.583   4.492 -0.2710 -0.4739 -0.5856
 3183TIP3    H1 9513   1.051   5.587   4.411  0.6124 -0.3547 -1.1630
 3183TIP3    H2 9514   1.179   5.639   4.474  0.2482 -0.9489  0.0945
 3184TIP3   OH2 9515   3.052   3.564   3.793  0.1749 -0.1748  0.1161
 3184TIP3    H1 9516   3.108   3.552   3.869  0.4077 -1.3619 -0.2359
 3184TIP3    H2 9517   3.099   3.628   3.739 -0.4417  1.4136  1.3756
 3185TIP3   OH2 9518   5.128   0.807   5.558 -0.1034 -0.1160  0.1084
 3185TIP3    H1 9519   5.188   0.847   5.495  1.1988  0.5519  1.6973
 3185TIP3    H2 9520   5.160   0.718   5.568  0.3549  0.1093  0.6372
 3186TIP3   OH2 9521   6.731   4.062   2.739  0.5516  0.1989  0.0131
 3186TIP3    H1 9522   6.808   4.115   2.758 -0.0212  0.5585  1.4951
 3186TIP3    H2 9523   6.727   4.000   2.811 -0.7353  0.4236  0.1562
 3187TIP3   OH2 9524   3.465   4.453   2.840  0.1827  0.0690 -0.1472
 3187TIP3    H1 9525   3.385   4.409   2.811  0.0928  0.2821 -0.2264
 3187TIP3    H2 9526   3.440   4.545   2.849 -0.1534 -0.1783  1.8917
 3188TIP3   OH2 9527   3.605   6.150   4.995 -0.2723  0.2559 -0.0032
 3188TIP3    H1 9528   3.637   6.237   4.973  0.1873  0.4077  1.1617
 3188TIP3    H2 9529   3.648   6.091   4.934  0.7476  0.6709  0.3003
 3189TIP3   OH2 9530   0.740   2.163   2.537 -0.3126 -0.3588  0.2609
 3189TIP3    H1 9531   0.680   2.113   2.593 -0.1891  0.3414  1.0339
 3189TIP3    H2 9532   0.827   2.143   2.571 -0.2526  0.2494  0.4894
 3190TIP3   OH2 9533   7.165   5.136   5.367 -0.1518 -0.0373  0.4612
 3190TIP3    H1 9534   7.086   5.184   5.341  0.2985 -0.8232 -2.7826
 3190TIP3    H2 9535   7.231   5.204   5.378 -0.1379  0.3941 -1.6761
 3191TIP3   OH2 9536   4.967   2.189   2.026  0.5166 -0.4627  0.1086
 3191TIP3    H1 9537   4.946   2.112   2.079  1.3577 -0.5757  0.2916
 3191TIP3    H2 9538   5.056   2.213   2.052  2.1850 -2.2574 -3.2371
 3192TIP3   OH2 9539   0.475   0.160   4.187  0.1619  0.2153 -0.7955
 3192TIP3    H1 9540   0.501   0.101   4.117  0.6298  1.0783 -1.3685
 3192TIP3    H2 9541   0.551   0.163   4.245  0.1763  0.3334 -0.8204
 3193TIP3   OH2 9542   0.815   2.742   4.556 -0.3537  0.6483  0.1126
 3193TIP3    H1 9543   0.759   2.667   4.580  0.4485  0.1474  0.4639
 3193TIP3    H2 9544   0.904   2.708   4.563  0.0046  1.4901 -0.2683
 3194TIP3   OH2 9545   0.101   0.987   1.011 -0.1890  0.2521  0.0615
 3194TIP3    H1 9546   0.137   0.907   1.049  0.5616  0.3556 -0.4148
 3194TIP3    H2 9547   0.137   1.057   1.065 -0.1301  0.3223 -0.0688
 3195TIP3   OH2 9548   0.888   4.183   0.146 -0.2291  0.2767  0.2247
 3195TIP3    H1 9549   0.956   4.157   0.209 -1.1459 -0.4033  0.9682
 3195TIP3    H2 9550   0.905   4.128   0.069 -0.6916 -0.8366  0.8903
 3196TIP3   OH2 9551   0.952   2.530   3.194 -0.1461 -0.4827 -0.0710
 3196TIP3    H1 9552   1.040   2.559   3.215 -0.3346  0.4786 -0.5639
 3196TIP3    H2 9553   0.916   2.600   3.139 -0.7103 -1.5076 -1.0621
 3197TIP3   OH2 9554   2.781   2.897   3.970 -0.2760  0.5342 -0.2317
 3197TIP3    H1 9555   2.704   2.953   3.982 -1.1658 -0.9703  1.6661
 3197TIP3    H2 9556   2.838   2.920   4.043 -0.8265 -1.2164  0.8059
 3198TIP3   OH2 9557   1.410   4.126   3.613  0.2165  0.1707  0.6052
 3198TIP3    H1 9558   1.436   4.061   3.678  0.4992  1.2090  1.5424
 3198TIP3    H2 9559   1.492   4.160   3.578  0.0768 -0.6770 -0.6393
 3199TIP3   OH2 9560   1.173   0.379   4.401 -0.1305 -0.2127 -0.3301
 3199TIP3    H1 9561   1.200   0.308   4.460 -0.3171 -1.4104 -1.6061
 3199TIP3    H2 9562   1.233   0.370   4.326 -2.5411 -1.5472 -2.2585
 3200TIP3   OH2 9563   0.166   4.005   0.440  0.3324  0.1637  0.4952
 3200TIP3    H1 9564   0.231   3.983   0.372  1.1995  1.5531  0.8171
 3200TIP3    H2 9565   0.165   4.101   0.441  2.0986  0.3054  4.0061
 3201TIP3   OH2 9566   0.823   5.914   2.053  0.0686 -0.8807 -0.0399
 3201TIP3    H1 9567   0.903   5.900   2.001 -0.2099 -1.6568 -0.2706
 3201TIP3    H2 9568   0.833   5.855   2.128  1.0140  1.0603  1.4592
 3202TIP3   OH2 9569   3.319   0.450   3.932  0.3737 -0.2091  0.0742
 3202TIP3    H1 9570   3.290   0.518   3.992 -0.7570 -1.5079  1.0609
 3202TIP3    H2 9571   3.327   0.494   3.848 -0.2798  1.1446  0.6938
 3203TIP3   OH2 9572   6.498   1.397   5.374 -0.3436  0.1672  0.4153
 3203TIP3    H1 9573   6.427   1.417   5.313  0.1290 -1.3537 -0.7060
 3203TIP3    H2 9574   6.465   1.323   5.426 -0.4074  0.8872  1.4272
 3204TIP3   OH2 9575   1.642   3.079   2.417  0.2061 -0.0440  1.0280
 3204TIP3    H1 9576   1.607   2.993   2.439  1.3267 -0.3461  1.6727
 3204TIP3    H2 9577   1.732   3.078   2.449  0.8158  0.7465 -0.5412
 3205TIP3   OH2 9578   1.589   5.267   1.290  0.2932  0.4448 -0.1460
 3205TIP3    H1 9579   1.516   5.320   1.258  0.6915  0.8868 -0.3337
 3205TIP3    H2 9580   1.646   5.329   1.334  1.1932  0.3235 -1.1056
 3206TIP3   OH2 9581   0.677   5.217   3.871 -0.0211  0.2032  0.6131
 3206TIP3    H1 9582   0.630   5.288   3.914  1.9204  2.7681 -1.2473
 3206TIP3    H2 9583   0.769   5.244   3.871  0.5998 -1.5361 -1.5522
 3207TIP3   OH2 9584   2.549   3.107   5.823 -0.2820  0.8543 -0.2958
 3207TIP3    H1 9585   2.550   3.199   5.795  0.9582  1.5865  1.8900
 3207TIP3    H2 9586   2.457   3.081   5.816 -0.7380  2.4074 -0.5412
 3208TIP3   OH2 9587   3.404   5.585   3.960  0.7210 -0.0970 -0.2405
 3208TIP3    H1 9588   3.394   5.511   3.899  1.1814  0.5049 -1.0597
 3208TIP3    H2 9589   3.487   5.625   3.936 -0.2624  1.6454 -0.8754
 3209TIP3   OH2 9590   4.613   3.053   3.609  0.2159 -0.1770 -0.3361
 3209TIP3    H1 9591   4.659   3.026   3.688 -1.4675 -1.9896  0.1343
 3209TIP3    H2 9592   4.611   3.148   3.613  0.3885 -0.2140  1.7067
 3210TIP3   OH2 9593   4.222   2.953   1.372  0.7996 -0.4546  0.2931
 3210TIP3    H1 9594   4.249   2.897   1.299  2.5313  0.4337  0.2064
 3210TIP3    H2 9595   4.134   2.922   1.395  0.6337 -1.4156 -1.4926
 3211TIP3   OH2 9596   5.635   5.082   4.089  1.1911  0.5527  0.2412
 3211TIP3    H1 9597   5.623   5.119   4.176 -0.9609 -0.2013  0.3229
 3211TIP3    H2 9598   5.581   5.003   4.089  0.1833  1.1526 -2.1280
 3212TIP3   OH2 9599   5.558   2.310   2.109 -0.3889 -0.0481 -0.0206
 3212TIP3    H1 9600   5.550   2.303   2.204 -0.2756 -0.2488 -0.0245
 3212TIP3    H2 9601   5.583   2.401   2.093 -0.9312  0.1297  0.1060
 3213TIP3   OH2 9602   1.348   5.998   2.353  0.2270 -0.0372  0.0419
 3213TIP3    H1 9603   1.278   6.026   2.294  1.0102 -0.2942 -1.0332
 3213TIP3    H2 9604   1.369   5.909   2.325  1.2555  0.1833  0.0773
 3214TIP3   OH2 9605   1.596   6.559   0.479 -0.2167  0.6043  0.2997
 3214TIP3    H1 9606   1.607   6.499   0.553 -2.2516  1.8706  1.7356
 3214TIP3    H2 9607   1.665   6.624   0.490 -0.3868  0.6765  0.9757
 3215TIP3   OH2 9608   0.661   4.283   1.513  0.2235 -0.8138 -0.0689
 3215TIP3    H1 9609   0.579   4.322   1.543  0.6649 -0.9152  1.3264
 3215TIP3    H2 9610   0.667   4.308   1.421 -2.3024 -2.3673 -0.7544
 3216TIP3   OH2 9611   2.147   2.560   1.460  0.3916 -0.5979 -0.1086
 3216TIP3    H1 9612   2.146   2.501   1.536 -2.1992  0.9513  1.1845
 3216TIP3    H2 9613   2.058   2.554   1.425  0.0766  2.3422 -0.0270
 3217TIP3   OH2 9614   0.210   0.746   2.966  0.2075  0.0662  0.3501
 3217TIP3    H1 9615   0.194   0.789   2.882  0.2610  0.8811  0.7500
 3217TIP3    H2 9616   0.135   0.770   3.020  0.5689  0.2201  0.7953
 3218TIP3   OH2 9617   3.013   4.332   0.214 -0.3810  0.0523 -0.2433
 3218TIP3    H1 9618   3.053   4.415   0.238  0.2059 -0.2472 -0.1495
 3218TIP3    H2 9619   2.938   4.322   0.272  0.0507  0.1155  0.3271
 3219TIP3   OH2 9620   0.703   6.698   1.387  0.3783 -0.3320 -0.2687
 3219TIP3    H1 9621   0.752   6.779   1.379 -0.3374 -0.0069 -1.8215
 3219TIP3    H2 9622   0.770   6.629   1.392  0.9797  0.2537 -0.2100
 3220TIP3   OH2 9623   4.207   1.893   3.919 -0.3733 -0.3571 -0.3248
 3220TIP3    H1 9624   4.111   1.893   3.914 -0.3805  0.2609 -0.3576
 3220TIP3    H2 9625   4.230   1.986   3.927  0.0660 -0.6308  2.9794
 3221TIP3   OH2 9626   7.057   2.431   2.541  0.1447  0.1580  0.2653
 3221TIP3    H1 9627   7.136   2.409   2.590 -1.0759  0.9750  2.7275
 3221TIP3    H2 9628   6.989   2.439   2.607 -1.7864  0.5872 -1.6696
 3222TIP3   OH2 9629   4.089   1.380   4.125  0.3667  0.2027  0.2720
 3222TIP3    H1 9630   4.040   1.317   4.072 -0.3604 -0.9127  2.1588
 3222TIP3    H2 9631   4.162   1.329   4.162  1.2614  1.1220 -0.1945
 3223TIP3   OH2 9632   3.729   1.059   1.307 -0.2356 -0.2046  0.6940
 3223TIP3    H1 9633   3.714   1.040   1.214  0.6947  0.2549  0.4329
 3223TIP3    H2 9634   3.823   1.048   1.319 -0.4603 -1.1087  1.7928
 3224TIP3   OH2 9635   3.567   2.869   1.017 -0.5519  0.3079 -0.1748
 3224TIP3    H1 9636   3.578   2.790   0.963 -3.1267 -2.0306  2.3483
 3224TIP3    H2 9637   3.542   2.937   0.955 -0.0318 -1.3196 -2.3031
 3225TIP3   OH2 9638   2.057   4.349   4.941 -0.1766  0.1741  0.1855
 3225TIP3    H1 9639   2.084   4.341   5.033 -0.5530  0.1733  0.2999
 3225TIP3    H2 9640   2.098   4.429   4.911  0.0460  0.1118  0.3241
 3226TIP3   OH2 9641   6.200   5.005   2.093 -0.2192 -0.5982 -0.2811
 3226TIP3    H1 9642   6.231   4.915   2.085  0.4044 -0.5958  1.5711
 3226TIP3    H2 9643   6.270   5.059   2.057 -0.3639 -0.8266 -0.9076
 3227TIP3   OH2 9644   4.013   0.921   0.721  0.0893 -0.6275  0.0938
 3227TIP3    H1 9645   3.945   0.857   0.698  1.3810 -1.8782 -0.3511
 3227TIP3    H2 9646   4.087   0.898   0.666  1.1341  0.2445  1.1044
 3228TIP3   OH2 9647   0.373   5.929   3.036  0.4493 -0.2790  0.1702
 3228TIP3    H1 9648   0.433   5.856   3.017  1.3576  0.4108  0.3117
 3228TIP3    H2 9649   0.304   5.890   3.089 -1.4658 -2.0057 -3.2523
 3229TIP3   OH2 9650   5.796   4.591   2.204  0.3889 -0.2415 -0.2035
 3229TIP3    H1 9651   5.870   4.553   2.156  0.3906  0.7031 -0.9769
 3229TIP3    H2 9652   5.723   4.586   2.144 -0.0453 -0.6054  0.3402
 3230TIP3   OH2 9653   5.928   6.677   0.738  0.3119 -0.3817 -0.1313
 3230TIP3    H1 9654   5.988   6.647   0.669  2.2948  2.3400  0.2268
 3230TIP3    H2 9655   5.915   6.770   0.719 -2.4548 -0.4833  0.8664
 3231TIP3   OH2 9656   6.544   6.302   0.472 -0.6826  0.4734  0.1621
 3231TIP3    H1 9657   6.620   6.358   0.455 -1.6769  1.7239 -0.3603
 3231TIP3    H2 9658   6.552   6.230   0.411 -0.0181  0.6952 -0.0195
 3232TIP3   OH2 9659   1.215   3.217   0.984 -0.3319  0.4676  0.3906
 3232TIP3    H1 9660   1.252   3.305   0.998  1.8590 -0.3364  0.1311
 3232TIP3    H2 9661   1.155   3.228   0.911 -1.0924  1.9863  1.1862
 3233TIP3   OH2 9662   6.993   1.846   3.001 -0.1950 -0.3171 -0.2276
 3233TIP3    H1 9663   6.908   1.887   3.018 -0.4304 -0.9186  0.0685
 3233TIP3    H2 9664   6.972   1.757   2.973  0.3472 -0.6228  0.3033
 3234TIP3   OH2 9665   5.258   2.822   4.094 -0.0765 -0.0138  0.0107
 3234TIP3    H1 9666   5.182   2.873   4.122  0.6473  0.7110  0.7122
 3234TIP3    H2 9667   5.287   2.775   4.173 -0.2683 -0.9270 -0.4420
 3235TIP3   OH2 9668   5.360   1.776   1.132  0.1185  0.1478 -0.1706
 3235TIP3    H1 9669   5.370   1.854   1.188 -2.2639 -1.4406  2.7334
 3235TIP3    H2 9670   5.298   1.803   1.065 -1.8528  0.4900  1.6695
 3236TIP3   OH2 9671   0.842  -0.005   0.704 -0.3755  0.2292  0.3736
 3236TIP3    H1 9672   0.848   0.066   0.640 -1.2627 -0.8841 -1.0099
 3236TIP3    H2 9673   0.750  -0.007   0.730 -0.1144  0.3551  1.3184
 3237TIP3   OH2 9674   4.048   1.532   0.420 -0.9502 -0.2128 -0.0147
 3237TIP3    H1 9675   4.136   1.563   0.438 -0.6720 -1.0888  0.1836
 3237TIP3    H2 9676   4.051   1.438   0.439 -2.0182 -0.1900  0.3400
 3238TIP3   OH2 9677   5.445   2.380   4.539 -0.0680  0.4899 -0.1917
 3238TIP3    H1 9678   5.516   2.436   4.507  0.0051 -0.1263 -1.1519
 3238TIP3    H2 9679   5.365   2.420   4.503 -0.1045  0.5635 -0.0266
 3239TIP3   OH2 9680   2.695   3.336   5.058  0.5064  0.4837 -0.3243
 3239TIP3    H1 9681   2.723   3.259   5.007  1.9271  0.8702 -0.1647
 3239TIP3    H2 9682   2.715   3.313   5.148  0.2636  0.7671 -0.1971
 3240TIP3   OH2 9683   4.436   1.663   2.257 -0.1860  0.4722  0.1829
 3240TIP3    H1 9684   4.472   1.623   2.177  2.3309  2.4044  0.2103
 3240TIP3    H2 9685   4.386   1.738   2.227 -0.5571  0.2932  0.3509
 3241TIP3   OH2 9686   3.270   2.847   1.743  0.1811  0.0478 -0.1534
 3241TIP3    H1 9687   3.357   2.877   1.718  0.6797  0.4380  1.8304
 3241TIP3    H2 9688   3.210   2.904   1.695  1.0120  0.0908 -1.1741
 3242TIP3   OH2 9689   5.470   6.668   3.716 -0.5375 -0.4918 -0.0252
 3242TIP3    H1 9690   5.438   6.578   3.716 -0.3603 -0.5638  0.6659
 3242TIP3    H2 9691   5.557   6.663   3.756  0.0359 -0.1952 -1.1928
 3243TIP3   OH2 9692   3.821   0.312   2.335 -0.5740  0.1324 -0.6711
 3243TIP3    H1 9693   3.897   0.263   2.304 -1.3333 -2.1875  0.8934
 3243TIP3    H2 9694   3.836   0.324   2.429 -2.2916 -0.7992 -0.2259
 3244TIP3   OH2 9695   1.577   2.547   5.059 -0.9323 -0.2252 -0.3322
 3244TIP3    H1 9696   1.617   2.535   5.145 -1.8282  3.1332  0.6761
 3244TIP3    H2 9697   1.490   2.509   5.069 -0.1052 -2.4208 -0.7643
 3245TIP3   OH2 9698   0.383   1.353   2.939 -0.1292 -0.0485  0.2169
 3245TIP3    H1 9699   0.338   1.417   2.994  0.2414  1.6856 -1.4055
 3245TIP3    H2 9700   0.434   1.300   3.001 -0.7600  0.9601  1.6443
 3246TIP3   OH2 9701   0.472   2.154   4.577  0.6936  0.3948 -0.3384
 3246TIP3    H1 9702   0.437   2.230   4.530  1.1764  0.2032 -1.0236
 3246TIP3    H2 9703   0.548   2.126   4.525  0.7437 -0.3292  0.1050
 3247TIP3   OH2 9704   5.686   5.591   0.256  0.1506  0.3694 -0.2434
 3247TIP3    H1 9705   5.603   5.546   0.242 -1.1563  2.9615 -1.4044
 3247TIP3    H2 9706   5.700   5.642   0.177  3.3695 -0.6356 -0.4908
 3248TIP3   OH2 9707   0.470   0.864   3.823 -0.5643  0.5026  0.1566
 3248TIP3    H1 9708   0.431   0.808   3.890 -1.1691  0.2868 -0.3604
 3248TIP3    H2 9709   0.518   0.804   3.767  0.9706  0.8276  1.0794
 3249TIP3   OH2 9710   5.714  -0.006   3.481 -0.6728 -0.1485 -0.1388
 3249TIP3    H1 9711   5.646   0.057   3.505 -0.0059  0.6479 -0.2828
 3249TIP3    H2 9712   5.796   0.040   3.501 -0.1824 -1.1696  0.2297
 3250TIP3   OH2 9713   4.114   1.711   3.365  0.3764  0.2470 -0.0801
 3250TIP3    H1 9714   4.051   1.768   3.410 -0.9956 -0.3650 -1.1270
 3250TIP3    H2 9715   4.105   1.626   3.410  0.3156  0.1123 -0.3462
 3251TIP3   OH2 9716   7.059   2.499   5.480  0.1403 -0.4564  0.6716
 3251TIP3    H1 9717   7.050   2.502   5.385  0.5954  2.3046  0.6103
 3251TIP3    H2 9718   7.031   2.411   5.505 -1.4777 -0.7574 -1.8608
 3252TIP3   OH2 9719   1.530   2.326   3.915  0.3552 -0.2981 -0.8800
 3252TIP3    H1 9720   1.588   2.306   3.988  0.0685  1.1836 -0.2057
 3252TIP3    H2 9721   1.554   2.263   3.847  2.1229 -0.3084 -0.2987
 3253TIP3   OH2 9722   0.894   0.517   0.424 -0.3233  0.2234 -0.0865
 3253TIP3    H1 9723   0.910   0.555   0.337 -2.6147 -1.0800 -1.1747
 3253TIP3    H2 9724   0.933   0.430   0.420  1.0790  0.7871  0.8418
 3254TIP3   OH2 9725   2.087   6.051   2.874 -0.1322  0.4566 -0.0612
 3254TIP3    H1 9726   2.105   6.101   2.794  0.9756 -1.1748 -0.8813
 3254TIP3    H2 9727   2.024   5.984   2.846 -0.7782  0.6902  0.7812
 3255TIP3   OH2 9728   0.968   5.634   3.367 -0.4415  0.1536 -0.1534
 3255TIP3    H1 9729   0.928   5.602   3.448  0.4510 -1.6852 -0.3800
 3255TIP3    H2 9730   1.054   5.591   3.365 -0.2932  0.4758 -1.8798
 3256TIP3   OH2 9731   3.655   3.131   5.168  0.3005 -0.1157  0.0157
 3256TIP3    H1 9732   3.669   3.201   5.106  0.5104 -1.1405 -1.1349
 3256TIP3    H2 9733   3.594   3.167   5.233  2.1698  1.8747  0.7841
 3257TIP3   OH2 9734   6.722   1.991   4.594 -0.1401  0.0923  0.2437
 3257TIP3    H1 9735   6.683   1.965   4.677 -0.4968 -0.3926 -0.0701
 3257TIP3    H2 9736   6.781   2.064   4.616 -0.9147  0.5646  0.7835
 3258TIP3   OH2 9737   0.884   4.743   0.890 -0.5200 -0.0041  0.3239
 3258TIP3    H1 9738   0.862   4.706   0.805 -0.9222 -1.5130  1.0499
 3258TIP3    H2 9739   0.805   4.789   0.918 -1.0522 -1.1350  0.7122
 3259TIP3   OH2 9740   6.266   3.769   4.111 -0.8286  0.5321  0.0354
 3259TIP3    H1 9741   6.347   3.757   4.061 -1.9378  0.1059 -1.7600
 3259TIP3    H2 9742   6.225   3.846   4.071 -0.5184  1.8840  2.1237
 3260TIP3   OH2 9743   5.757   0.428   4.092 -0.0363  0.5648 -0.4566
 3260TIP3    H1 9744   5.677   0.382   4.067 -0.7951  1.8255 -0.4624
 3260TIP3    H2 9745   5.800   0.371   4.156  0.3361 -1.2643 -2.2458
 3261TIP3   OH2 9746   6.167   0.406   2.502  0.0839  0.0205  0.0539
 3261TIP3    H1 9747   6.206   0.473   2.557 -1.2614  1.1933 -0.3573
 3261TIP3    H2 9748   6.108   0.358   2.561  0.2543 -0.1175  0.1123
 3262TIP3   OH2 9749   4.571   5.591   5.168 -0.3516  0.0097 -0.1556
 3262TIP3    H1 9750   4.499   5.547   5.123 -0.3323  0.7425 -0.9257
 3262TIP3    H2 9751   4.558   5.684   5.148  0.9853  0.1195 -0.5722
 3263TIP3   OH2 9752   7.184   4.227   3.331 -0.2022 -0.3322 -0.4969
 3263TIP3    H1 9753   7.253   4.290   3.352  1.5433 -1.4775 -2.4141
 3263TIP3    H2 9754   7.111   4.279   3.300  0.5316  0.8253 -0.3277
 3264TIP3   OH2 9755   6.620   3.632   2.817 -0.0611 -0.4077  0.0828
 3264TIP3    H1 9756   6.675   3.636   2.739 -0.8843 -2.4379 -0.6675
 3264TIP3    H2 9757   6.589   3.722   2.829  1.5218  0.2984 -0.8334
 3265TIP3   OH2 9758   6.782   0.655   2.773 -0.0621  0.2888  0.0314
 3265TIP3    H1 9759   6.851   0.621   2.717  0.2571 -0.6438  0.9595
 3265TIP3    H2 9760   6.824   0.725   2.823 -0.0996  0.4863 -0.2092
 3266TIP3   OH2 9761   6.718   2.702   1.963 -0.1945 -0.4092  0.2688
 3266TIP3    H1 9762   6.633   2.669   1.936 -0.1394  1.0021 -1.8663
 3266TIP3    H2 9763   6.755   2.741   1.884  2.1776 -0.4305  1.2859
 3267TIP3   OH2 9764   4.876   4.670   3.566 -0.0954 -0.0942  0.1917
 3267TIP3    H1 9765   4.952   4.725   3.547 -0.5239  1.2380  2.1368
 3267TIP3    H2 9766   4.856   4.687   3.658 -2.8277 -0.3140 -0.2869
 3268TIP3   OH2 9767   2.689   5.699   0.248  0.5339  0.5949  0.2313
 3268TIP3    H1 9768   2.675   5.783   0.205 -1.9930  0.1635  0.0365
 3268TIP3    H2 9769   2.682   5.635   0.178 -0.3873  0.0814  0.7771
 3269TIP3   OH2 9770   0.496   0.792   3.048  0.3849  0.2737  0.3343
 3269TIP3    H1 9771   0.400   0.789   3.044  0.2668  2.5767  0.0310
 3269TIP3    H2 9772   0.524   0.758   2.963 -0.3116  1.7564 -0.5489
 3270TIP3   OH2 9773   1.584   3.075   4.481  0.3651 -0.0873 -0.7664
 3270TIP3    H1 9774   1.491   3.099   4.480 -0.2656 -1.7311  2.4487
 3270TIP3    H2 9775   1.601   3.043   4.392 -1.6376  1.7989 -1.9357
 3271TIP3   OH2 9776   0.601   2.569   4.175  0.3422 -0.4106  0.1112
 3271TIP3    H1 9777   0.622   2.585   4.084  2.8726 -0.1785  0.6667
 3271TIP3    H2 9778   0.656   2.495   4.200  0.6615  0.3298  1.7673
 3272TIP3   OH2 9779   3.720   0.279   4.257 -0.2766 -0.2946  0.1224
 3272TIP3    H1 9780   3.716   0.322   4.172  0.2726 -1.1359 -0.3432
 3272TIP3    H2 9781   3.812   0.283   4.281 -0.2763 -0.9200  0.2257
 3273TIP3   OH2 9782   4.363   2.173   3.830 -0.1406  0.1536  0.0998
 3273TIP3    H1 9783   4.316   2.199   3.751 -1.7485 -1.7296  0.3639
 3273TIP3    H2 9784   4.322   2.224   3.900 -0.4669 -0.0451  0.0557
 3274TIP3   OH2 9785   1.385   3.128   4.154 -0.6695  0.1302 -0.0486
 3274TIP3    H1 9786   1.383   3.162   4.064 -1.4632  0.6666  0.1659
 3274TIP3    H2 9787   1.317   3.177   4.200 -1.2599 -1.1483  0.4881
 3275TIP3   OH2 9788   0.343   2.778   2.490  0.8686  0.1504  0.4218
 3275TIP3    H1 9789   0.332   2.716   2.562  1.0568 -0.9621 -0.4875
 3275TIP3    H2 9790   0.437   2.780   2.474  0.9278  1.1032  0.7906
 3276TIP3   OH2 9791   2.645   4.399   0.987  0.0183 -0.0866 -0.1071
 3276TIP3    H1 9792   2.632   4.481   0.939  2.0589  1.0909  1.2099
 3276TIP3    H2 9793   2.557   4.363   0.997 -0.9392  1.8899 -0.8239
 3277TIP3   OH2 9794   4.561   6.637   4.733 -0.6539  0.1013 -0.4688
 3277TIP3    H1 9795   4.504   6.568   4.767  0.4566 -1.1647 -1.0999
 3277TIP3    H2 9796   4.593   6.682   4.812 -1.3680 -0.1015 -0.0514
 3278TIP3   OH2 9797   2.350   1.812   4.563  0.1161 -0.1557  0.4217
 3278TIP3    H1 9798   2.271   1.852   4.527 -0.9165 -0.8427  1.8133
 3278TIP3    H2 9799   2.353   1.842   4.654  1.3687 -0.2931  0.4469
 3279TIP3   OH2 9800   4.994   3.505   4.812 -0.0048 -0.1293 -0.0107
 3279TIP3    H1 9801   4.915   3.559   4.813 -0.6862 -1.0571 -0.8966
 3279TIP3    H2 9802   5.066   3.568   4.811 -0.7784  0.7917 -1.5358
 3280TIP3   OH2 9803   4.262   5.852   4.690 -0.0708 -0.0570 -0.1785
 3280TIP3    H1 9804   4.338   5.910   4.705 -0.4346 -0.0510  2.0498
 3280TIP3    H2 9805   4.299   5.764   4.695 -0.1497 -0.0516  0.7815
 3281TIP3   OH2 9806   3.720   6.071   1.756 -0.6153 -0.1114 -0.1507
 3281TIP3    H1 9807   3.624   6.061   1.752 -0.8708  1.8170  0.1502
 3281TIP3    H2 9808   3.744   6.098   1.667 -0.3132 -0.6761 -0.2479
 3282TIP3   OH2 9809   5.118   2.189   0.601  0.5087 -0.4326  0.2301
 3282TIP3    H1 9810   5.120   2.103   0.644 -0.3513 -0.5043  0.1426
 3282TIP3    H2 9811   5.057   2.241   0.653 -1.0972 -0.7339 -1.2571
 3283TIP3   OH2 9812   4.785   1.708   1.775 -0.1752 -0.2030 -0.3188
 3283TIP3    H1 9813   4.804   1.640   1.710 -1.8802 -0.4511 -0.6091
 3283TIP3    H2 9814   4.830   1.678   1.855  0.7703 -0.6119 -0.9883
 3284TIP3   OH2 9815   3.293   4.607   0.095 -0.0232 -0.5668 -0.6073
 3284TIP3    H1 9816   3.252   4.658   0.026  0.8066  1.6562  0.4388
 3284TIP3    H2 9817   3.329   4.530   0.051  1.0950  1.1237 -2.8121
 3285TIP3   OH2 9818   4.719   4.936   5.621  0.1149  0.3579 -0.1211
 3285TIP3    H1 9819   4.761   4.860   5.663  1.8752 -0.0173 -2.3940
 3285TIP3    H2 9820   4.635   4.902   5.590  1.1091 -0.8828 -1.5960
 3286TIP3   OH2 9821   3.726   5.951   5.481 -0.2000 -0.0571 -0.0685
 3286TIP3    H1 9822   3.726   5.956   5.386 -1.0746  0.8507 -0.0390
 3286TIP3    H2 9823   3.677   5.870   5.501  0.6448 -0.6582 -0.3834
 3287TIP3   OH2 9824   0.085   3.916   3.032 -0.9669  0.0466 -0.0480
 3287TIP3    H1 9825   0.026   3.850   3.067  1.2947 -1.1382  1.8194
 3287TIP3    H2 9826   0.157   3.865   2.993  0.0123  1.4070 -0.0962
 3288TIP3   OH2 9827   3.437   0.293   4.254 -0.0581  0.4120 -0.2393
 3288TIP3    H1 9828   3.495   0.357   4.295  0.2197  1.1705 -1.7424
 3288TIP3    H2 9829   3.495   0.225   4.220 -0.3217 -0.4518  0.9917
 3289TIP3   OH2 9830   5.432   1.745   2.136  0.0825 -0.1621 -0.3349
 3289TIP3    H1 9831   5.388   1.660   2.131  3.4551 -1.9951 -1.2786
 3289TIP3    H2 9832   5.395   1.794   2.062 -0.9840 -1.2385 -0.5590
 3290TIP3   OH2 9833   3.013   0.776   0.851  0.1204 -0.0219 -0.2443
 3290TIP3    H1 9834   2.952   0.810   0.917  0.3841 -2.2332  1.2482
 3290TIP3    H2 9835   2.974   0.801   0.768 -2.1430 -0.1973  0.6847
 3291TIP3   OH2 9836   3.765   2.885   5.117  0.1329  0.7778 -0.1250
 3291TIP3    H1 9837   3.745   2.881   5.024  1.9641  0.6305 -0.5469
 3291TIP3    H2 9838   3.737   2.973   5.144  0.7353  1.2864 -1.1044
 3292TIP3   OH2 9839   2.560   1.817   4.357  0.3715 -0.5206 -0.4914
 3292TIP3    H1 9840   2.475   1.834   4.398  0.5909  0.3729 -0.3883
 3292TIP3    H2 9841   2.618   1.885   4.391  0.6074  0.1478 -2.1181
 3293TIP3   OH2 9842   1.969   6.581   4.410 -0.1154 -0.2895 -0.1666
 3293TIP3    H1 9843   1.889   6.597   4.460 -1.2985  1.6497 -2.4856
 3293TIP3    H2 9844   1.939   6.559   4.322  1.8676  1.2943 -1.3318
 3294TIP3   OH2 9845   0.760   5.915   5.324 -0.2834 -0.1003  0.2237
 3294TIP3    H1 9846   0.718   5.892   5.407 -1.0481  0.4804 -0.0011
 3294TIP3    H2 9847   0.702   5.979   5.284  0.6490  0.4694 -0.2504
 3295TIP3   OH2 9848   5.698   6.181   5.526  0.8766 -0.0387 -0.5855
 3295TIP3    H1 9849   5.675   6.099   5.482  0.9590 -0.8785  0.8611
 3295TIP3    H2 9850   5.614   6.223   5.543  0.7402 -0.4783 -0.1460
 3296TIP3   OH2 9851   3.098   6.051   0.353 -0.7503 -0.3100  0.0013
 3296TIP3    H1 9852   3.119   6.031   0.445 -0.9679 -0.1823  0.0807
 3296TIP3    H2 9853   3.011   6.014   0.340 -0.1890 -1.4714 -0.5375
 3297TIP3   OH2 9854   0.462   3.113   2.527  0.2035  0.0326 -0.2339
 3297TIP3    H1 9855   0.449   3.191   2.473 -0.4514  0.2608  0.2408
 3297TIP3    H2 9856   0.382   3.106   2.579 -0.1813 -1.5452 -0.9917
 3298TIP3   OH2 9857   2.958   3.822   3.646  0.0110 -0.5290  0.3203
 3298TIP3    H1 9858   2.976   3.906   3.689 -0.1022  0.1682 -0.9522
 3298TIP3    H2 9859   3.045   3.790   3.620 -0.0692 -0.0311 -0.5875
 3299TIP3   OH2 9860   5.381   3.581   4.665 -0.2952 -0.4703  0.2223
 3299TIP3    H1 9861   5.439   3.504   4.664 -1.7478 -1.6666  1.6997
 3299TIP3    H2 9862   5.435   3.652   4.631  0.3887 -2.5758 -3.6202
 3300TIP3   OH2 9863   1.863   5.326   5.216  0.0018 -0.5054 -0.3207
 3300TIP3    H1 9864   1.904   5.350   5.299 -2.3593  0.6806  0.5740
 3300TIP3    H2 9865   1.831   5.237   5.230 -0.9499 -0.0791  0.2990
 3301TIP3   OH2 9866   0.659   0.220   0.488  0.2683 -0.3284 -0.2167
 3301TIP3    H1 9867   0.623   0.131   0.493 -1.5460  0.3153 -1.0099
 3301TIP3    H2 9868   0.592   0.270   0.440  1.2139  1.4821  0.2832
 3302TIP3   OH2 9869   1.509   4.293   4.132  0.6810  0.0325 -0.6580
 3302TIP3    H1 9870   1.591   4.266   4.174  1.7341  0.0602 -2.5867
 3302TIP3    H2 9871   1.493   4.225   4.067 -0.5845  0.2975 -0.6470
 3303TIP3   OH2 9872   5.198   0.119   5.840 -0.2514 -0.0698 -0.4003
 3303TIP3    H1 9873   5.116   0.105   5.887 -0.2626 -0.9830 -0.6828
 3303TIP3    H2 9874   5.256   0.050   5.870  0.7625  1.1206  0.5072
 3304TIP3   OH2 9875   1.491   1.398   1.499  0.1711 -0.5187 -0.5626
 3304TIP3    H1 9876   1.428   1.428   1.434  0.2030 -1.3134 -0.9749
 3304TIP3    H2 9877   1.533   1.322   1.459 -0.4012 -1.5554  0.6924
 3305TIP3   OH2 9878   1.062   3.914   0.880 -0.2139 -0.1303  0.2005
 3305TIP3    H1 9879   1.057   3.889   0.972  2.8293  3.2830  1.5006
 3305TIP3    H2 9880   1.025   4.002   0.877 -2.1921 -0.9203 -2.3625
 3306TIP3   OH2 9881   1.345   5.507   2.817 -0.5602  0.4465 -0.0260
 3306TIP3    H1 9882   1.411   5.495   2.885  0.8980 -0.9749 -1.5866
 3306TIP3    H2 9883   1.266   5.531   2.864  0.4255 -0.2728  2.1335
 3307TIP3   OH2 9884   0.868   0.426   5.639 -0.2365 -0.5075  0.0749
 3307TIP3    H1 9885   0.872   0.383   5.724 -1.8751 -0.4493  0.2066
 3307TIP3    H2 9886   0.818   0.366   5.584 -1.5459  0.6567 -0.0683
 3308TIP3   OH2 9887   2.112   4.856   0.583 -0.4035  0.4902  0.4902
 3308TIP3    H1 9888   2.100   4.895   0.670 -1.0228  0.3577  0.4646
 3308TIP3    H2 9889   2.024   4.852   0.546 -0.2065  0.0547  0.0628
 3309TIP3   OH2 9890   2.397   2.577   0.790 -0.1858 -0.1356  0.5805
 3309TIP3    H1 9891   2.335   2.640   0.752 -0.4387 -0.6602  0.1218
 3309TIP3    H2 9892   2.412   2.513   0.721 -0.5733 -1.0439  1.3257
 3310TIP3   OH2 9893   6.440   2.788   3.499  0.1312  0.7352 -0.3270
 3310TIP3    H1 9894   6.462   2.705   3.542 -1.9932  0.0099 -0.5260
 3310TIP3    H2 9895   6.508   2.800   3.433  1.3452 -0.0338  0.7358
 3311TIP3   OH2 9896   0.626   3.173   4.766  0.4101  0.5578  0.1081
 3311TIP3    H1 9897   0.686   3.105   4.735 -0.6845 -1.3386  1.8889
 3311TIP3    H2 9898   0.590   3.211   4.686  0.9149 -1.1084 -0.9686
 3312TIP3   OH2 9899   1.357   2.461   1.994  0.4181  0.2999 -0.4132
 3312TIP3    H1 9900   1.305   2.422   1.923  0.2881  1.2732 -0.8661
 3312TIP3    H2 9901   1.304   2.534   2.026  0.5890  0.0191  0.5345
 3313TIP3   OH2 9902   3.272   2.807   0.629 -0.0558 -0.4814 -0.2068
 3313TIP3    H1 9903   3.230   2.753   0.696 -1.1049  0.8860  0.2943
 3313TIP3    H2 9904   3.316   2.744   0.571 -1.6102 -1.8894  0.0672
 3314TIP3   OH2 9905   1.634   5.836   2.214 -0.6170  0.4031 -0.1183
 3314TIP3    H1 9906   1.641   5.762   2.274  0.4963 -0.0221 -0.7533
 3314TIP3    H2 9907   1.647   5.913   2.270 -3.9174  0.3327  0.9518
 3315TIP3   OH2 9908   2.205   3.952   0.057  0.4618  0.2133 -0.0624
 3315TIP3    H1 9909   2.272   4.000   0.106  0.4695 -0.2852  0.4261
 3315TIP3    H2 9910   2.126   4.006   0.064  0.7322  0.6607 -0.3966
 3316TIP3   OH2 9911   4.816   4.306   0.301  0.2651  0.0461  0.7230
 3316TIP3    H1 9912   4.878   4.314   0.373  1.0918 -2.4081  0.3707
 3316TIP3    H2 9913   4.865   4.266   0.230 -0.7715  1.5770 -0.9464
 3317TIP3   OH2 9914   1.269   3.195   5.904 -0.1621 -0.4656 -0.4488
 3317TIP3    H1 9915   1.295   3.278   5.945 -0.0901 -0.8215  0.2417
 3317TIP3    H2 9916   1.231   3.221   5.820  2.0261  0.1186 -1.3384
 3318TIP3   OH2 9917   2.773   3.848   5.541  0.2280 -0.0226  0.5557
 3318TIP3    H1 9918   2.760   3.842   5.446 -0.6521 -1.0624  0.7159
 3318TIP3    H2 9919   2.838   3.780   5.560  0.2216  0.0186  0.7228
 3319TIP3   OH2 9920   6.107   0.518   0.226  0.4987 -0.7231 -0.1326
 3319TIP3    H1 9921   6.015   0.494   0.238  0.7352 -0.7424  2.0370
 3319TIP3    H2 9922   6.107   0.614   0.224  0.5111 -0.6929  0.8724
 3320TIP3   OH2 9923   0.731   2.910   0.725 -0.0342 -0.0342 -0.3907
 3320TIP3    H1 9924   0.641   2.934   0.703  0.3448  0.5835 -1.3191
 3320TIP3    H2 9925   0.765   2.985   0.775  0.2673  0.1835 -0.9051
 3321TIP3   OH2 9926   1.729   1.744   3.791  1.7230  0.2906  0.3472
 3321TIP3    H1 9927   1.683   1.671   3.831 -0.3106 -0.6394 -3.2089
 3321TIP3    H2 9928   1.816   1.710   3.772  1.3934 -0.6019  0.3888
 3322TIP3   OH2 9929   6.431   1.891   1.795 -0.2049  0.1862 -0.6395
 3322TIP3    H1 9930   6.337   1.879   1.807  0.0190  0.3769  2.1313
 3322TIP3    H2 9931   6.447   1.979   1.829  1.4316 -1.2957  2.9199
 3323TIP3   OH2 9932   1.492   1.370   1.760 -0.1369  0.8338  0.0651
 3323TIP3    H1 9933   1.506   1.373   1.665  0.6004 -1.0241  0.0756
 3323TIP3    H2 9934   1.424   1.304   1.772  1.1539 -0.3769  0.9333
 3324TIP3   OH2 9935   3.796   1.582   3.594 -0.8365  0.0726 -0.8712
 3324TIP3    H1 9936   3.763   1.529   3.666  2.0530 -0.5262  0.1217
 3324TIP3    H2 9937   3.788   1.672   3.626  1.3761 -0.2235  0.7633
 3325TIP3   OH2 9938   5.415   0.403   1.081 -0.3472 -1.1459  0.4892
 3325TIP3    H1 9939   5.423   0.495   1.103 -1.8695 -0.6962 -0.6283
 3325TIP3    H2 9940   5.463   0.357   1.150  0.6787  0.4746  0.9035
 3326TIP3   OH2 9941   5.042   5.187   3.001 -0.1771  0.0856 -0.0673
 3326TIP3    H1 9942   5.063   5.280   2.988 -0.5424  0.0389 -1.1620
 3326TIP3    H2 9943   5.076   5.166   3.087 -1.5880  1.6802  0.9608
 3327TIP3   OH2 9944   3.517   6.519   3.795  0.5543 -0.1916  0.6985
 3327TIP3    H1 9945   3.601   6.565   3.788  0.4082  0.1571  1.1634
 3327TIP3    H2 9946   3.541   6.427   3.801  1.0504  0.0349  3.0895
 3328TIP3   OH2 9947   2.108   5.675   1.758 -0.1297  0.1418  0.2597
 3328TIP3    H1 9948   2.013   5.680   1.771 -0.4293 -1.7838 -0.8287
 3328TIP3    H2 9949   2.142   5.649   1.844 -0.6156  0.4467  0.5504
 3329TIP3   OH2 9950   5.140   3.698   5.451  0.0729  0.6032 -0.1003
 3329TIP3    H1 9951   5.201   3.628   5.430 -0.9584 -0.5620  0.6810
 3329TIP3    H2 9952   5.181   3.745   5.524 -0.5046 -0.9491  1.2718
 3330TIP3   OH2 9953   0.774   1.666   4.248  0.0353 -0.0065  0.2492
 3330TIP3    H1 9954   0.702   1.719   4.281 -0.1301  1.0654 -1.7173
 3330TIP3    H2 9955   0.844   1.729   4.229  0.1085 -0.5642 -1.4237
 3331TIP3   OH2 9956   3.985   5.484   0.860  0.0262  0.4466 -0.0521
 3331TIP3    H1 9957   3.924   5.557   0.860 -1.5583 -0.8078  0.7284
 3331TIP3    H2 9958   4.067   5.521   0.827 -0.7275  2.5285  0.2630
 3332TIP3   OH2 9959   3.819   1.391   0.769 -0.2673  0.9023  0.3499
 3332TIP3    H1 9960   3.909   1.405   0.798 -0.6370 -0.2591  2.2350
 3332TIP3    H2 9961   3.812   1.296   0.759 -0.5204  1.1268 -2.5976
 3333TIP3   OH2 9962   1.568   1.679   5.177  0.1353  0.1873  1.0732
 3333TIP3    H1 9963   1.523   1.595   5.168 -0.1493  0.3576  0.8901
 3333TIP3    H2 9964   1.540   1.729   5.100  0.2251  0.4855  1.2340
 3334TIP3   OH2 9965   3.908   4.047   3.646  0.2048  0.3114  0.4278
 3334TIP3    H1 9966   3.867   4.118   3.696  0.0852  0.9165 -0.5060
 3334TIP3    H2 9967   4.001   4.067   3.650  0.0916  1.2134 -0.8209
 3335TIP3   OH2 9968   2.765   6.657   5.032  0.1239 -0.5404 -0.2209
 3335TIP3    H1 9969   2.825   6.730   5.018  0.2829 -0.6993 -0.3708
 3335TIP3    H2 9970   2.769   6.641   5.126  0.1875 -0.4405 -0.2063
 3336TIP3   OH2 9971   1.435   3.852   5.471  0.6008 -0.5873  0.1520
 3336TIP3    H1 9972   1.351   3.883   5.438  0.2532  0.0804  1.5557
 3336TIP3    H2 9973   1.419   3.839   5.565  2.0353 -0.5276  0.4164
 3337TIP3   OH2 9974   6.186   2.778   0.260  0.2293  0.3506 -0.0803
 3337TIP3    H1 9975   6.281   2.768   0.262  0.0954 -1.0905  0.6154
 3337TIP3    H2 9976   6.169   2.831   0.183  1.6478  1.3613  0.2566
 3338TIP3   OH2 9977   2.441   6.586   5.364  0.2240  0.4812 -0.1777
 3338TIP3    H1 9978   2.497   6.511   5.383 -0.8501 -0.2010  0.4310
 3338TIP3    H2 9979   2.367   6.576   5.424 -0.7991  1.0776 -1.3060
 3339TIP3   OH2 9980   3.534   0.834   2.384 -0.5292  0.0121  0.1205
 3339TIP3    H1 9981   3.502   0.884   2.309 -2.0588  0.7064  1.1827
 3339TIP3    H2 9982   3.549   0.746   2.349 -0.0353  0.6194 -1.2616
 3340TIP3   OH2 9983   1.129   2.463   5.644  0.4577 -0.4464 -0.1750
 3340TIP3    H1 9984   1.066   2.462   5.716 -0.6460 -0.6253 -1.1225
 3340TIP3    H2 9985   1.084   2.509   5.573  2.5237  2.2299  0.0892
 3341TIP3   OH2 9986   2.602   5.050   2.816  0.1966 -0.2010 -0.0337
 3341TIP3    H1 9987   2.669   4.999   2.769 -1.7441 -2.7532 -0.2660
 3341TIP3    H2 9988   2.592   5.130   2.765 -0.1044 -1.7944 -2.6300
 3342TIP3   OH2 9989   0.435   3.236   1.738  0.3147 -0.1317  0.0256
 3342TIP3    H1 9990   0.433   3.267   1.829  0.8935  1.6100 -0.5132
 3342TIP3    H2 9991   0.505   3.287   1.697  0.7750 -1.6365 -1.1592
 3343TIP3   OH2 9992   1.110   5.457   2.010  0.0975  0.6472 -0.2836
 3343TIP3    H1 9993   1.158   5.427   1.933  2.1024  0.3108  1.0340
 3343TIP3    H2 9994   1.171   5.448   2.083 -2.0462 -0.0140  1.5667
 3344TIP3   OH2 9995   6.280   3.636   3.505 -0.0682 -0.2723  0.1233
 3344TIP3    H1 9996   6.206   3.655   3.447 -1.2599 -2.2974  0.8934
 3344TIP3    H2 9997   6.241   3.592   3.581  1.7462  0.1078  1.3567
 3345TIP3   OH2 9998   6.917   2.542   2.036 -0.2602  0.4686 -0.0138
 3345TIP3    H1 9999   6.848   2.608   2.028  1.2370  2.0122 -0.7757
 3345TIP3    H210000   6.932   2.534   2.130  0.8284  2.6983  0.0725
 3346TIP3   OH210001   0.790   3.647   1.154  0.5240  0.8422  0.3713
 3346TIP3    H110002   0.804   3.613   1.065 -0.4785  0.3610  0.3780
 3346TIP3    H210003   0.766   3.739   1.140 -1.5327  0.2915 -0.0335
 3347TIP3   OH210004   6.512   1.272   5.001  0.3112 -0.5148  0.0012
 3347TIP3    H110005   6.522   1.366   5.013  0.0233 -0.2690 -1.4846
 3347TIP3    H210006   6.430   1.250   5.044 -0.0302  0.0640 -0.3473
 3348TIP3   OH210007   2.240   3.166   4.320 -0.1327  0.0648 -0.1773
 3348TIP3    H110008   2.232   3.211   4.404  0.0037 -0.9157  0.3759
 3348TIP3    H210009   2.150   3.157   4.289 -0.2819 -0.6691  0.4612
 3349TIP3   OH210010   5.340   0.732   2.688  0.0600  0.0800 -0.1643
 3349TIP3    H110011   5.292   0.721   2.771  0.3885 -0.8369 -0.0849
 3349TIP3    H210012   5.275   0.716   2.620  0.0456 -0.2941 -0.0649
 3350TIP3   OH210013   2.417   0.657   4.944  0.0204  0.0218  0.2661
 3350TIP3    H110014   2.408   0.665   5.038 -1.5779 -1.1758  0.2736
 3350TIP3    H210015   2.380   0.570   4.924 -1.5037  1.0166 -1.6449
 3351TIP3   OH210016   6.667   3.881   0.875  0.4106 -0.2003 -0.1014
 3351TIP3    H110017   6.607   3.956   0.873  0.5528 -0.0243  1.2909
 3351TIP3    H210018   6.661   3.844   0.787 -1.1351  0.2965 -0.2499
 3352TIP3   OH210019   5.309   0.141   1.318 -0.3495  0.0872  0.0225
 3352TIP3    H110020   5.375   0.206   1.295 -0.8733  1.2459  1.5694
 3352TIP3    H210021   5.356   0.057   1.319  1.1011  0.8788  1.0261
 3353TIP3   OH210022   2.594   5.543   5.721  0.6527  0.1422  0.0072
 3353TIP3    H110023   2.613   5.559   5.629 -1.2928 -2.3748 -0.9290
 3353TIP3    H210024   2.680   5.543   5.764  1.6837  0.2854 -1.9706
 3354TIP3   OH210025   5.679   5.816   0.827 -0.0699 -0.2556  0.1328
 3354TIP3    H110026   5.740   5.832   0.755  0.0887  0.7100  0.4649
 3354TIP3    H210027   5.623   5.894   0.829 -0.2921 -0.4260  0.8404
 3355TIP3   OH210028   3.109   2.793   4.842  0.0591 -0.3988  0.1369
 3355TIP3    H110029   3.080   2.766   4.929  0.5522 -0.1098  0.3943
 3355TIP3    H210030   3.182   2.735   4.821 -0.0142 -0.4217 -0.0542
 3356TIP3   OH210031   6.835   4.210   5.658 -0.0268  0.3702 -0.3140
 3356TIP3    H110032   6.818   4.207   5.564 -0.9144  1.5239 -0.2091
 3356TIP3    H210033   6.802   4.126   5.691 -3.0951  1.3432 -0.5619
 3357TIP3   OH210034   3.112   3.666   0.088 -0.0291  0.0649 -0.1006
 3357TIP3    H110035   3.176   3.647   0.019 -0.1702  0.5851 -0.3841
 3357TIP3    H210036   3.135   3.754   0.118  0.2808 -0.3104  0.8049
 3358TIP3   OH210037   6.497   5.432   4.120 -0.7520 -0.1468  0.5424
 3358TIP3    H110038   6.462   5.349   4.089 -0.5073  0.2224 -0.7917
 3358TIP3    H210039   6.589   5.415   4.137 -0.8787 -0.3438  1.0282
 3359TIP3   OH210040   1.831   3.502   0.460 -0.8221 -0.2052  0.1730
 3359TIP3    H110041   1.818   3.491   0.554 -2.8949  0.3267 -0.0035
 3359TIP3    H210042   1.924   3.519   0.450 -0.5459 -0.3986  2.1102
 3360TIP3   OH210043   1.159   3.693   5.678  0.1311 -0.1317 -0.3785
 3360TIP3    H110044   1.253   3.705   5.686  0.1887 -0.2716 -0.8198
 3360TIP3    H210045   1.148   3.637   5.601 -0.4508  2.1524 -2.0462
 3361TIP3   OH210046   3.400   4.520   1.435 -0.2177 -0.6321  0.0812
 3361TIP3    H110047   3.422   4.481   1.351  0.5167 -0.2897  0.1094
 3361TIP3    H210048   3.434   4.609   1.430 -0.4077 -0.5242  0.6387
 3362TIP3   OH210049   1.740   5.858   2.562 -0.3826  0.0611  0.5272
 3362TIP3    H110050   1.671   5.807   2.518 -0.2562  1.1958 -1.0849
 3362TIP3    H210051   1.821   5.828   2.520 -0.0445 -0.1236  1.2940
 3363TIP3   OH210052   6.741   5.990   0.043  0.5045  0.4006  0.5028
 3363TIP3    H110053   6.758   5.921   0.107  0.4441  0.0003  0.0948
 3363TIP3    H210054   6.653   6.021   0.064 -0.3904 -1.2081 -0.7076
 3364TIP3   OH210055   2.708   6.519   3.354  0.0573 -0.3116  0.1859
 3364TIP3    H110056   2.742   6.568   3.279 -1.2801 -0.6487 -0.6731
 3364TIP3    H210057   2.650   6.580   3.398  0.7145 -0.1682  0.8766
 3365TIP3   OH210058   1.816   2.222   1.193 -0.1901  0.0224 -0.1248
 3365TIP3    H110059   1.744   2.229   1.130  1.3825  0.3668 -1.9744
 3365TIP3    H210060   1.854   2.136   1.175 -0.5762 -0.4864  1.3743
 3366TIP3   OH210061   5.799   3.325   4.998  0.5818 -0.4835 -0.0118
 3366TIP3    H110062   5.847   3.408   4.999  1.2092 -0.8377 -0.3543
 3366TIP3    H210063   5.867   3.258   4.994  0.0855 -1.0287  0.6021
 3367TIP3   OH210064   1.756   2.138   0.392  0.0101  0.0864 -0.0659
 3367TIP3    H110065   1.693   2.068   0.378  1.8532 -1.5858 -0.4322
 3367TIP3    H210066   1.781   2.166   0.304  0.7386 -0.1967  0.0421
 3368TIP3   OH210067   1.024   4.466   0.693 -0.2527  0.0478 -0.0560
 3368TIP3    H110068   1.037   4.372   0.689  0.1873  0.1520 -1.6803
 3368TIP3    H210069   0.931   4.477   0.717 -0.3890 -0.7925 -0.1807
 3369TIP3   OH210070   2.936   5.200   3.320 -0.3987 -0.6968 -0.1113
 3369TIP3    H110071   3.008   5.261   3.307 -0.8040  0.0110  0.8741
 3369TIP3    H210072   2.978   5.116   3.339  0.1813 -0.1868  0.9346
 3370TIP3   OH210073   1.213   2.251   1.067 -0.3372 -0.0044 -0.3428
 3370TIP3    H110074   1.217   2.339   1.029  1.4407  0.1585  0.0975
 3370TIP3    H210075   1.181   2.195   0.997 -1.9554  1.0524 -0.4847
 3371TIP3   OH210076   4.826   6.552   0.949  0.0551 -0.1711 -0.4419
 3371TIP3    H110077   4.764   6.481   0.929 -0.5513  0.1789  0.1235
 3371TIP3    H210078   4.894   6.544   0.882 -1.5486  0.5771 -2.2597
 3372TIP3   OH210079   7.127   3.174   3.224 -0.4772 -0.2014 -0.0335
 3372TIP3    H110080   7.171   3.096   3.257 -0.0724 -0.3601 -0.9068
 3372TIP3    H210081   7.199   3.236   3.205 -0.7867  0.3532  0.5693
 3373TIP3   OH210082   4.312   4.823   2.341  0.0872 -0.5406  0.5147
 3373TIP3    H110083   4.218   4.835   2.350  0.3159  0.6733  1.5207
 3373TIP3    H210084   4.326   4.731   2.363 -0.9190 -0.9109 -0.2926
 3374TIP3   OH210085   4.772   2.046   3.005 -0.3835 -0.2745 -0.2105
 3374TIP3    H110086   4.704   2.078   2.946 -1.5117 -0.1376  1.1062
 3374TIP3    H210087   4.766   1.951   2.999  0.3550 -0.2779 -1.2183
 3375TIP3   OH210088   3.611   0.770   2.692 -0.0791 -0.5084 -0.7698
 3375TIP3    H110089   3.689   0.767   2.636  0.9912 -1.2703  0.7014
 3375TIP3    H210090   3.543   0.804   2.635  0.9051 -1.4427 -2.6235
 3376TIP3   OH210091   3.967   5.108   3.819 -0.3042 -0.3969  0.0505
 3376TIP3    H110092   4.012   5.055   3.886  2.2021 -0.6722 -1.6885
 3376TIP3    H210093   3.908   5.046   3.776 -0.4195 -0.7297  0.6735
 3377TIP3   OH210094   2.380   6.551   4.296 -0.2784 -0.7186  0.2340
 3377TIP3    H110095   2.456   6.494   4.285  1.1750  1.0741  0.3159
 3377TIP3    H210096   2.332   6.544   4.213  0.8512 -0.7154 -0.4441
 3378TIP3   OH210097   5.906   4.689   3.511  0.3255 -0.2099  0.1440
 3378TIP3    H110098   5.849   4.763   3.534 -0.6077 -1.2765  1.4844
 3378TIP3    H210099   5.969   4.685   3.583  1.1452 -0.0011 -0.5465
 3379TIP3   OH210100   4.744   3.841   0.993  0.0500 -0.1214  0.2790
 3379TIP3    H110101   4.715   3.930   1.011  0.6889  0.2406 -0.4228
 3379TIP3    H210102   4.829   3.834   1.037 -0.7584 -0.9724  1.8086
 3380TIP3   OH210103   4.765   1.166   5.776  0.1582  0.4634 -0.2147
 3380TIP3    H110104   4.736   1.205   5.694 -1.3901 -0.2381 -0.0511
 3380TIP3    H210105   4.822   1.094   5.750 -0.2206  0.3244 -0.6880
 3381TIP3   OH210106   4.450   5.041   3.174  0.0456 -0.6199  0.0562
 3381TIP3    H110107   4.356   5.040   3.154  0.2426  2.3105 -1.4899
 3381TIP3    H210108   4.465   5.124   3.219  2.0194 -0.6543 -0.4465
 3382TIP3   OH210109   2.845   5.911   4.693  0.2030  0.4305  0.6002
 3382TIP3    H110110   2.785   5.985   4.685  2.6328  2.3601 -1.0038
 3382TIP3    H210111   2.822   5.853   4.621  0.1398  1.0734  0.0990
 3383TIP3   OH210112   2.314   1.078   5.770  0.0711  0.2987  0.4720
 3383TIP3    H110113   2.395   1.084   5.719  0.4744 -1.4902  0.8289
 3383TIP3    H210114   2.328   1.137   5.844  0.5559  0.9014 -0.0910
 3384TIP3   OH210115   5.846   3.566   5.820  0.1285 -0.3085 -0.8196
 3384TIP3    H110116   5.872   3.499   5.883 -1.7811  1.2116  1.7644
 3384TIP3    H210117   5.915   3.632   5.825 -1.6483  1.5712  2.6689
 3385TIP3   OH210118   2.925   6.369   3.578 -0.9387  0.3584 -0.1047
 3385TIP3    H110119   2.960   6.450   3.618 -1.9798  0.0879  1.4545
 3385TIP3    H210120   2.837   6.393   3.551 -2.1666 -0.7775  2.4993
 3386TIP3   OH210121   4.831   0.238   1.404  0.1004 -0.5949 -0.0364
 3386TIP3    H110122   4.772   0.294   1.355  1.5580 -0.7356 -2.0983
 3386TIP3    H210123   4.812   0.149   1.374  1.5159 -0.6125 -0.9958
 3387TIP3   OH210124   5.622   2.863   5.506  0.1210  0.5991  0.4935
 3387TIP3    H110125   5.714   2.879   5.525  0.7838 -3.7483  2.0933
 3387TIP3    H210126   5.575   2.911   5.575  1.1382  2.1640  0.1590
 3388TIP3   OH210127   0.841   3.562   1.923 -0.2439  0.0065  0.1339
 3388TIP3    H110128   0.877   3.646   1.893  0.7782 -0.2958  0.4758
 3388TIP3    H210129   0.886   3.496   1.869 -1.2204 -0.3227 -0.3040
 3389TIP3   OH210130   3.384   5.494   5.133 -0.1853  0.0065 -0.3047
 3389TIP3    H110131   3.324   5.567   5.116  2.0198  2.4808  1.6562
 3389TIP3    H210132   3.327   5.418   5.139 -3.0619  2.0465  0.6631
 3390TIP3   OH210133   1.748   6.339   1.732 -0.8998  0.2642 -0.6605
 3390TIP3    H110134   1.711   6.251   1.734 -0.3306  0.0092 -0.9429
 3390TIP3    H210135   1.801   6.340   1.652 -1.9285  1.2929 -1.3399
 3391TIP3   OH210136   3.947   1.644   4.700  0.2335  0.3311  0.1094
 3391TIP3    H110137   3.925   1.738   4.703 -1.1495  0.1212 -1.6720
 3391TIP3    H210138   4.013   1.637   4.631 -0.6626 -0.1362 -0.7293
 3392TIP3   OH210139   1.689   0.652   0.679  0.3524  0.5777  0.1492
 3392TIP3    H110140   1.743   0.652   0.758  0.2891  1.9737  0.2169
 3392TIP3    H210141   1.603   0.623   0.709  1.0319 -1.8630  0.0057
 3393TIP3   OH210142   2.114   5.827   5.746  0.4789  0.3798  0.4479
 3393TIP3    H110143   2.099   5.799   5.656 -0.1924 -0.6645  0.8632
 3393TIP3    H210144   2.202   5.797   5.766 -0.6123 -2.6608  1.2573
 3394TIP3   OH210145   4.191   0.360   0.318  0.2556  0.1063  1.1415
 3394TIP3    H110146   4.248   0.283   0.326 -0.4129 -0.3216  2.0693
 3394TIP3    H210147   4.103   0.324   0.310  0.0933  0.7574 -0.3829
 3395TIP3   OH210148   1.801   4.477   4.980  0.1879  0.0784 -0.4938
 3395TIP3    H110149   1.885   4.458   4.938  1.0269 -0.8796  1.4612
 3395TIP3    H210150   1.762   4.390   4.994 -0.3433  0.4062  0.1015
 3396TIP3   OH210151   3.298   5.459   3.101  0.8401 -0.2941 -0.0988
 3396TIP3    H110152   3.287   5.450   3.006 -0.6637  0.7408 -0.0738
 3396TIP3    H210153   3.294   5.554   3.116 -0.2809 -0.5027  1.1144
 3397TIP3   OH210154   0.336   3.220   2.309  0.0099  0.2454  0.1781
 3397TIP3    H110155   0.271   3.271   2.260 -0.9976  0.0563  1.2540
 3397TIP3    H210156   0.326   3.131   2.276  0.2562  0.3491 -0.1839
 3398TIP3   OH210157   2.597   4.707   5.316  0.0850  0.2574 -0.1819
 3398TIP3    H110158   2.674   4.763   5.307  0.4017 -0.0309  0.6612
 3398TIP3    H210159   2.523   4.767   5.307  0.3901  0.4773 -1.4114
 3399TIP3   OH210160   0.629   5.863   3.237  0.3857  0.4564 -0.8735
 3399TIP3    H110161   0.584   5.905   3.311 -0.7710  1.7824 -2.2767
 3399TIP3    H210162   0.586   5.778   3.227  0.4690  0.3172 -0.1233
 3400TIP3   OH210163   5.755   3.507   4.584  0.0589 -0.1597 -0.4450
 3400TIP3    H110164   5.766   3.602   4.577  4.0490 -0.1141  2.9261
 3400TIP3    H210165   5.679   3.495   4.641  0.5776  1.1415  0.5640
 3401TIP3   OH210166   5.585   1.723   0.896  0.4367 -0.9013  0.3745
 3401TIP3    H110167   5.617   1.661   0.831  1.2203  0.3406 -0.4710
 3401TIP3    H210168   5.543   1.668   0.963  0.9224 -2.3064 -0.4251
 3402TIP3   OH210169   5.070   2.637   1.702 -0.1692  0.1773 -0.5548
 3402TIP3    H110170   5.144   2.695   1.685  0.3527 -0.0428  0.8588
 3402TIP3    H210171   5.002   2.666   1.640  0.1094  2.2611  0.0454
 3403TIP3   OH210172   0.201   2.590   4.102  0.2334  0.0678  0.0838
 3403TIP3    H110173   0.124   2.629   4.144  0.4085  1.6653 -0.9668
 3403TIP3    H210174   0.174   2.501   4.080 -0.8879  0.2040  0.8002
 3404TIP3   OH210175   1.507   0.890   4.747  0.0404  0.5499 -0.5238
 3404TIP3    H110176   1.591   0.914   4.707 -0.3354  1.7776 -0.6086
 3404TIP3    H210177   1.466   0.974   4.769 -0.0737 -0.0587  1.8457
 3405TIP3   OH210178   6.001   5.758   0.242 -0.0619  0.0306  0.7046
 3405TIP3    H110179   6.014   5.841   0.287 -2.0547  0.5074  0.5182
 3405TIP3    H210180   5.914   5.766   0.203  0.1402 -1.7489 -0.2069
 3406TIP3   OH210181   3.885   2.085   1.588 -0.0630 -0.3387  0.2959
 3406TIP3    H110182   3.846   2.110   1.671  0.3564 -1.2100  0.7723
 3406TIP3    H210183   3.842   2.140   1.523 -2.0921 -1.2487  0.7835
 3407TIP3   OH210184   2.198   6.141   0.534 -0.0152  0.0702  0.0177
 3407TIP3    H110185   2.135   6.070   0.538 -0.2179  0.2962  1.4384
 3407TIP3    H210186   2.160   6.210   0.588 -0.4651  1.8157 -2.3588
 3408TIP3   OH210187   4.520   3.488   5.218  0.6250  0.2864 -0.0476
 3408TIP3    H110188   4.461   3.542   5.166  1.6012  0.2680 -1.2383
 3408TIP3    H210189   4.497   3.398   5.194 -0.5831  0.1531  1.4653
 3409TIP3   OH210190   1.951   1.236   4.299  0.1758 -0.1427 -0.5785
 3409TIP3    H110191   1.881   1.284   4.254  1.9297  0.4574 -2.8926
 3409TIP3    H210192   1.918   1.147   4.306 -1.3709  0.4137 -0.2964
 3410TIP3   OH210193   2.387   0.490   5.602  0.1688 -0.0626 -0.3581
 3410TIP3    H110194   2.429   0.405   5.598  0.9913  0.3490 -0.5435
 3410TIP3    H210195   2.387   0.521   5.512  1.0741  0.7117 -0.0968
 3411TIP3   OH210196   2.217   2.433   1.033 -0.1220  0.6086 -0.5341
 3411TIP3    H110197   2.155   2.402   0.966  0.8679 -0.2508 -1.0838
 3411TIP3    H210198   2.290   2.370   1.029  1.1749  2.0510 -0.4853
 3412TIP3   OH210199   1.335   6.585   4.825 -0.1304 -0.0198 -0.1744
 3412TIP3    H110200   1.296   6.646   4.762 -1.1183  0.2141  0.6587
 3412TIP3    H210201   1.424   6.618   4.837 -0.0064  0.0851 -1.2329
 3413TIP3   OH210202   5.142   4.219   4.716  0.3766  0.4677  0.1330
 3413TIP3    H110203   5.080   4.196   4.785  0.6264  2.8850  1.2600
 3413TIP3    H210204   5.094   4.204   4.635 -0.5152 -0.7886  0.8524
 3414TIP3   OH210205   3.641   1.916   4.080  0.1374  0.2256 -0.3530
 3414TIP3    H110206   3.666   2.009   4.081  0.0958  0.2490 -1.1080
 3414TIP3    H210207   3.606   1.900   4.168 -2.7272  1.7364 -1.0838
 3415TIP3   OH210208   4.305   6.718   4.631  0.3460 -0.5397 -0.2036
 3415TIP3    H110209   4.318   6.789   4.694  0.1781 -0.7138  0.0295
 3415TIP3    H210210   4.392   6.679   4.621  0.5725  0.1225 -0.8454
 3416TIP3   OH210211   3.267   6.706   4.849  0.3752 -0.3418 -0.1249
 3416TIP3    H110212   3.343   6.763   4.840  0.4644 -0.3464  0.5247
 3416TIP3    H210213   3.194   6.766   4.863  0.2305 -0.3311 -0.9040
 3417TIP3   OH210214   2.693   1.728   1.274  0.1023 -0.4653 -0.3093
 3417TIP3    H110215   2.602   1.726   1.302 -0.4866  0.7236 -1.9944
 3417TIP3    H210216   2.729   1.644   1.304 -0.9763 -0.1774  2.0398
 3418TIP3   OH210217   6.695   3.474   1.575 -0.1377  0.2770  0.5865
 3418TIP3    H110218   6.733   3.415   1.510 -0.1286  0.6694  0.2262
 3418TIP3    H210219   6.657   3.545   1.523 -0.0164  0.6613  1.0168
 3419TIP3   OH210220   4.793   4.987   5.355  0.0379  0.4124 -0.0540
 3419TIP3    H110221   4.839   5.026   5.430 -0.6290  0.0047  0.5805
 3419TIP3    H210222   4.818   5.042   5.281  1.0529  0.5736  0.3836
 3420TIP3   OH210223   5.233   6.796   5.096  0.1270 -0.5214 -0.6188
 3420TIP3    H110224   5.153   6.837   5.063 -0.0971 -0.3145  0.1555
 3420TIP3    H210225   5.223   6.703   5.077 -0.2514 -0.4789 -0.6229
 3421TIP3   OH210226   3.195   6.717   0.715  0.1165 -0.0915 -0.0680
 3421TIP3    H110227   3.264   6.780   0.696  0.1825 -0.2775 -0.4470
 3421TIP3    H210228   3.151   6.702   0.631  1.0414 -1.6563 -0.3168
 3422TIP3   OH210229   1.331   0.726   1.089 -0.5555 -0.2110  0.4762
 3422TIP3    H110230   1.382   0.748   1.011 -1.3693 -0.0266 -0.0167
 3422TIP3    H210231   1.316   0.631   1.082 -1.6097 -0.0163 -0.2203
 3423TIP3   OH210232   2.128   0.985   4.961 -0.2178 -0.4523 -0.0136
 3423TIP3    H110233   2.034   0.967   4.954  0.2277 -2.7201 -1.1269
 3423TIP3    H210234   2.170   0.917   4.908  2.0758  0.4248  0.5382
 3424TIP3   OH210235   5.434   4.517   3.198 -0.1326  0.3547  0.1941
 3424TIP3    H110236   5.366   4.539   3.261 -0.2465  0.1414  0.1431
 3424TIP3    H210237   5.387   4.501   3.116  0.0533  1.1572 -0.0841
 3425TIP3   OH210238   5.228   6.172   2.105  0.5772  0.1778 -0.3359
 3425TIP3    H110239   5.273   6.251   2.131 -0.3749  0.3607  0.8138
 3425TIP3    H210240   5.291   6.125   2.051  2.2811  0.2516  1.4898
 3426TIP3   OH210241   1.212   1.037   3.027  0.0157 -0.4990  0.1013
 3426TIP3    H110242   1.196   0.947   3.055  0.0621 -0.6048 -0.2167
 3426TIP3    H210243   1.197   1.036   2.933 -1.1418  0.0824  0.2707
 3427TIP3   OH210244   1.161   5.098   1.530  0.2960  0.5766  0.1389
 3427TIP3    H110245   1.126   5.182   1.499  0.1537  0.6422  0.4776
 3427TIP3    H210246   1.236   5.082   1.472 -0.3148  0.4034 -0.6166
 3428TIP3   OH210247   1.458   0.137   3.469  0.3049  0.2406 -0.4828
 3428TIP3    H110248   1.370   0.163   3.496  0.6885  0.5318  0.5245
 3428TIP3    H210249   1.500   0.108   3.549  1.1014  0.0031 -0.9764
 3429TIP3   OH210250   6.713   2.933   5.821 -0.1847  0.5166 -0.0309
 3429TIP3    H110251   6.786   2.939   5.760 -0.4287  0.6488 -0.3091
 3429TIP3    H210252   6.647   2.880   5.776 -0.9264  1.7523 -0.4519
 3430TIP3   OH210253   3.096   3.915   5.465 -0.6015 -0.8122  0.2257
 3430TIP3    H110254   3.047   3.946   5.388 -0.3879 -2.7698 -0.7783
 3430TIP3    H210255   3.170   3.975   5.472 -0.9900 -0.2001 -0.7012
 3431TIP3   OH210256   3.719   2.580   3.508  0.2145  0.1135 -0.2646
 3431TIP3    H110257   3.666   2.657   3.486  1.4835  0.8612 -0.8088
 3431TIP3    H210258   3.800   2.617   3.545  2.1553 -0.7895 -3.2775
 3432TIP3   OH210259   1.390   0.591   4.050  0.0548 -0.0241  0.6889
 3432TIP3    H110260   1.354   0.674   4.081 -1.2799 -0.3285  0.0014
 3432TIP3    H210261   1.460   0.616   3.990  0.3136  0.5839  1.2369
 3433TIP3   OH210262   3.752   6.634   3.797 -0.2474 -0.5563  0.4953
 3433TIP3    H110263   3.771   6.667   3.709  2.1756  0.1680  1.2096
 3433TIP3    H210264   3.807   6.687   3.855 -2.1969 -0.6432  2.5404
 3434TIP3   OH210265   0.386   0.365   3.569 -0.5331 -0.1102  0.2042
 3434TIP3    H110266   0.335   0.290   3.596  0.4122 -1.4101 -1.4172
 3434TIP3    H210267   0.360   0.435   3.629 -3.1134 -1.0851  0.3374
 3435TIP3   OH210268   5.591   4.406   1.282  0.2244  0.0142 -0.0233
 3435TIP3    H110269   5.564   4.395   1.191  0.1455  0.1742 -0.0187
 3435TIP3    H210270   5.556   4.329   1.326 -0.2210  0.2140 -0.0198
 3436TIP3   OH210271   6.498   2.256   3.978 -0.1607 -0.1583  0.4041
 3436TIP3    H110272   6.514   2.245   3.884 -1.0250 -1.1198  0.3580
 3436TIP3    H210273   6.429   2.194   3.998  0.9434 -0.9428  1.9658
 3437TIP3   OH210274   0.862   0.784   5.546 -0.2930  0.2516  0.0010
 3437TIP3    H110275   0.862   0.877   5.522  1.1338  0.8991  2.2122
 3437TIP3    H210276   0.944   0.771   5.593 -0.2049 -2.2986 -0.7035
 3438TIP3   OH210277   5.630   6.038   1.955  0.6098 -0.0850  0.3733
 3438TIP3    H110278   5.711   5.989   1.942  0.8171  0.7921 -2.4524
 3438TIP3    H210279   5.660   6.127   1.977  0.3406 -0.2395  1.3923
 3439TIP3   OH210280   4.639   5.839   5.585  0.0420  0.6068 -0.0065
 3439TIP3    H110281   4.636   5.935   5.585 -0.0684  0.6260 -1.6750
 3439TIP3    H210282   4.558   5.813   5.630 -0.0510  1.2906  0.2367
 3440TIP3   OH210283   4.911   0.507   0.893  0.1168 -0.2032 -0.0573
 3440TIP3    H110284   4.998   0.540   0.871  0.8684 -0.2119  2.5708
 3440TIP3    H210285   4.890   0.548   0.976 -3.1769  1.0923 -1.3604
 3441TIP3   OH210286   5.004   1.816   2.660 -1.0365  0.5274  0.2450
 3441TIP3    H110287   5.040   1.884   2.603 -0.6002  0.0593 -0.0459
 3441TIP3    H210288   4.911   1.813   2.637 -0.9923  0.7942  0.0175
 3442TIP3   OH210289   1.728   4.729   0.902  0.3137 -0.2675  0.3378
 3442TIP3    H110290   1.753   4.821   0.915 -0.6468  0.1454 -0.6009
 3442TIP3    H210291   1.753   4.686   0.984 -0.2163  1.0580  1.2405
 3443TIP3   OH210292   4.552   5.249   0.630 -0.1745  0.7412 -0.1015
 3443TIP3    H110293   4.542   5.344   0.632 -0.2420  0.7428 -0.4425
 3443TIP3    H210294   4.596   5.228   0.712 -0.4719  1.0307  0.1318
 3444TIP3   OH210295   6.611   6.644   5.771  0.0704  0.4329 -0.3124
 3444TIP3    H110296   6.659   6.681   5.698 -0.4200 -0.4524 -1.1025
 3444TIP3    H210297   6.521   6.674   5.758  0.2711  1.7089  0.9094
 3445TIP3   OH210298   1.303   4.450   4.230  0.0895  0.3118 -0.3993
 3445TIP3    H110299   1.378   4.393   4.217  0.4892  0.2253  1.8210
 3445TIP3    H210300   1.304   4.510   4.155  2.0264 -0.0474 -0.7026
 3446TIP3   OH210301   1.823   3.078   5.328  0.1396 -0.4380 -0.2575
 3446TIP3    H110302   1.868   3.034   5.255  1.3788  0.6076 -0.1772
 3446TIP3    H210303   1.791   3.007   5.383  0.9060 -1.2485 -0.8206
 3447TIP3   OH210304   3.881   0.726   4.076  0.2338 -0.6060 -0.2009
 3447TIP3    H110305   3.899   0.812   4.114  0.6798 -0.4141 -0.8264
 3447TIP3    H210306   3.964   0.700   4.035  0.0276 -1.2158 -0.2400
 3448TIP3   OH210307   3.984   0.984   0.057 -0.2660 -0.1929  0.0415
 3448TIP3    H110308   4.035   1.044   0.111 -0.1735 -0.5765  0.3856
 3448TIP3    H210309   3.971   1.031  -0.025 -0.3080  0.3520  0.3510
 3449TIP3   OH210310   2.045   0.176   1.215  0.7430  0.0196  0.2699
 3449TIP3    H110311   2.005   0.166   1.128 -0.8045  0.3835  0.9244
 3449TIP3    H210312   2.136   0.148   1.201  0.4454 -0.2829 -1.3853
 3450TIP3   OH210313   6.445   4.955   4.115 -0.0165 -0.3505 -0.0359
 3450TIP3    H110314   6.436   5.038   4.067 -0.3085  0.0969  0.7868
 3450TIP3    H210315   6.429   4.978   4.206 -0.1464 -1.3319  0.1939
 3451TIP3   OH210316   4.059   2.259   3.846 -0.0156  0.4426 -0.0383
 3451TIP3    H110317   4.058   2.257   3.750  0.1335 -0.0360 -0.0301
 3451TIP3    H210318   4.028   2.347   3.868  0.4210  0.7227 -0.5304
 3452TIP3   OH210319   4.384   0.521   1.062 -0.6500  0.1054 -0.3346
 3452TIP3    H110320   4.415   0.433   1.084  1.4180  0.8106 -0.2037
 3452TIP3    H210321   4.452   0.557   1.005 -1.2860  1.7470 -0.1079
 3453TIP3   OH210322   6.249   2.151   0.625  0.0309 -0.3601 -0.0673
 3453TIP3    H110323   6.181   2.118   0.567  0.3064 -1.3425  0.1434
 3453TIP3    H210324   6.302   2.074   0.646  1.5009  0.4588 -0.6150
 3454TIP3   OH210325   2.597   1.621   4.013 -0.4007  0.5630 -0.0398
 3454TIP3    H110326   2.543   1.542   4.016  0.9438 -0.4196 -0.5676
 3454TIP3    H210327   2.658   1.605   3.940  0.7380  1.5135  0.6751
 3455TIP3   OH210328   5.654   1.498   0.746  0.0229  0.0063 -0.7203
 3455TIP3    H110329   5.560   1.481   0.743 -0.2991  1.7348 -2.1410
 3455TIP3    H210330   5.694   1.417   0.714 -1.1147  0.0041 -2.2176
 3456TIP3   OH210331   6.316   5.954   4.795 -0.1385 -0.2132  0.1701
 3456TIP3    H110332   6.293   6.028   4.851 -1.6491 -1.2801  1.0407
 3456TIP3    H210333   6.266   5.881   4.830  0.0348 -1.2837 -1.6608
 3457TIP3   OH210334   0.434   4.204   5.299  0.6739 -0.0826  0.0985
 3457TIP3    H110335   0.493   4.132   5.322 -0.1196 -0.3561  1.3501
 3457TIP3    H210336   0.454   4.272   5.363  1.1749  0.7030 -0.8632
 3458TIP3   OH210337   5.480   4.842   4.080  0.3490 -0.1768  0.3534
 3458TIP3    H110338   5.426   4.874   4.153  2.2250 -0.7393  2.0941
 3458TIP3    H210339   5.421   4.786   4.030 -1.4625  1.5344  0.4486
 3459TIP3   OH210340   3.519   0.387   0.544  0.0561 -0.3146  0.5874
 3459TIP3    H110341   3.614   0.383   0.559  0.3972  2.8304 -0.0166
 3459TIP3    H210342   3.481   0.348   0.623  1.8423 -0.5027  1.4160
 3460TIP3   OH210343   6.007   3.276   1.328 -0.2547  0.2023  0.3297
 3460TIP3    H110344   6.053   3.321   1.258  1.3068  0.8074  1.6717
 3460TIP3    H210345   5.990   3.189   1.294  1.3759  0.1568 -0.4578
 3461TIP3   OH210346   4.455   2.537   0.268  0.0825 -0.0812 -0.2238
 3461TIP3    H110347   4.431   2.579   0.185  1.8895 -0.3739 -0.9448
 3461TIP3    H210348   4.455   2.444   0.248  1.2032 -0.1169 -0.1087
 3462TIP3   OH210349   5.662   5.201   5.333 -0.0648  0.0545 -0.8863
 3462TIP3    H110350   5.751   5.220   5.303 -0.2035  0.3639 -1.1190
 3462TIP3    H210351   5.624   5.150   5.262 -0.1233  0.0556 -0.8556
 3463TIP3   OH210352   2.884   6.107   5.515  0.6600  0.2721  0.0716
 3463TIP3    H110353   2.834   6.040   5.561  2.2106  0.4229  2.1136
 3463TIP3    H210354   2.930   6.059   5.446 -0.2592 -0.2931 -0.1610
 3464TIP3   OH210355   3.387   6.065   5.621 -0.9641 -0.6984  0.9496
 3464TIP3    H110356   3.311   6.014   5.592  0.3253 -1.0487 -2.2539
 3464TIP3    H210357   3.400   6.129   5.551  0.0842  1.1923  2.7805
 3465TIP3   OH210358   0.946   0.662   5.290  0.2160  0.7532 -0.9638
 3465TIP3    H110359   1.039   0.687   5.287  0.6994 -0.7420  0.1342
 3465TIP3    H210360   0.918   0.684   5.379  0.2470 -1.0283 -0.4591
 3466TIP3   OH210361   1.881   3.787   1.114  0.7206  0.2947  0.1920
 3466TIP3    H110362   1.789   3.767   1.126  1.1551 -0.5971  2.5274
 3466TIP3    H210363   1.890   3.878   1.144  0.6486  0.2901  0.2276
 3467TIP3   OH210364   3.813   1.006   1.762 -0.1751  0.1309  0.4405
 3467TIP3    H110365   3.734   0.995   1.814  0.0361 -1.5071  0.4808
 3467TIP3    H210366   3.788   0.976   1.674  0.1887  0.3124  0.2725
 3468TIP3   OH210367   0.112   6.710   0.645  1.0911  0.4796 -0.5933
 3468TIP3    H110368   0.138   6.665   0.565 -3.1589 -0.6105 -1.5934
 3468TIP3    H210369   0.089   6.799   0.617  0.8232  0.4912 -0.3379
 3469TIP3   OH210370   2.279   0.950   2.601  0.2770  0.6271 -0.0885
 3469TIP3    H110371   2.226   0.956   2.522 -0.6536 -0.2243  0.4568
 3469TIP3    H210372   2.251   0.869   2.643  1.1388  0.7941  0.8475
 3470TIP3   OH210373   2.202   6.664   1.540 -0.0196 -0.5072 -0.0668
 3470TIP3    H110374   2.126   6.672   1.483  0.9765 -0.9094 -1.5017
 3470TIP3    H210375   2.260   6.603   1.495 -0.1006 -2.5830  2.4262
 3471TIP3   OH210376   4.070   3.667   5.033  0.2024  0.1097  0.0713
 3471TIP3    H110377   4.007   3.618   5.086 -0.6514 -0.4810 -1.4280
 3471TIP3    H210378   4.073   3.754   5.072  0.4032 -0.6032  1.7093
 3472TIP3   OH210379   3.807   1.584   5.011  0.1202 -0.0038  0.2036
 3472TIP3    H110380   3.782   1.631   5.090 -1.9445  1.1733 -1.0853
 3472TIP3    H210381   3.767   1.498   5.021 -1.1415  0.5407 -0.0741
 3473TIP3   OH210382   7.045   3.267   4.211  0.3648  0.0282 -0.2079
 3473TIP3    H110383   7.124   3.214   4.216 -0.0517 -0.5293  2.9859
 3473TIP3    H210384   6.974   3.205   4.228 -0.4004  1.0800  0.5609
 3474TIP3   OH210385   7.143   2.896   1.822  0.4723  0.7481  0.0456
 3474TIP3    H110386   7.200   2.949   1.877  1.2550  0.2238 -0.2400
 3474TIP3    H210387   7.195   2.880   1.743  0.7802 -1.5144  0.6456
 3475TIP3   OH210388   1.464   1.488   4.966 -0.6877  0.0803 -0.5683
 3475TIP3    H110389   1.514   1.467   4.887  0.8935  1.1214  0.1090
 3475TIP3    H210390   1.404   1.557   4.939  0.7849  1.4021 -0.5928
 3476TIP3   OH210391   0.430   0.661   0.279 -0.5775  0.4285  0.3525
 3476TIP3    H110392   0.452   0.702   0.196  0.4800 -0.1261  0.3357
 3476TIP3    H210393   0.411   0.733   0.338 -1.1701  0.8323 -0.3309
 3477TIP3   OH210394   6.393   3.067   2.887 -0.2021  0.4090  0.1310
 3477TIP3    H110395   6.438   2.994   2.930  0.4749  2.2035  2.7308
 3477TIP3    H210396   6.463   3.126   2.860 -0.8189  1.5848  1.0072
 3478TIP3   OH210397   0.035   3.499   5.116  0.2536  0.1648  0.3673
 3478TIP3    H110398  -0.043   3.481   5.170 -0.4498 -0.3162 -0.7774
 3478TIP3    H210399   0.109   3.478   5.174 -0.4726 -0.0134  1.2579
 3479TIP3   OH210400   6.331   0.338   1.640  0.3101 -0.1444 -0.1480
 3479TIP3    H110401   6.257   0.280   1.654  0.6653 -1.0563 -1.7831
 3479TIP3    H210402   6.316   0.375   1.553  0.5939  1.4897  0.4631
 3480TIP3   OH210403   3.584   0.300   1.120 -0.1552 -0.2588 -0.0147
 3480TIP3    H110404   3.586   0.214   1.078  0.6769 -0.0840 -0.3593
 3480TIP3    H210405   3.671   0.337   1.102 -0.2175  0.3158  0.8257
 3481TIP3   OH210406   7.037   1.404   2.361  0.2392 -0.2829 -0.1581
 3481TIP3    H110407   7.101   1.353   2.410 -0.0845 -0.6110 -0.0752
 3481TIP3    H210408   7.007   1.346   2.291  0.1706 -0.0674 -0.3095
 3482TIP3   OH210409   4.933   3.515   1.217 -0.3464 -0.2931  0.0591
 3482TIP3    H110410   4.991   3.453   1.261 -1.0209 -0.9707  0.0086
 3482TIP3    H210411   4.980   3.539   1.137  0.3209 -0.0245  0.5174
 3483TIP3   OH210412   5.411   4.695   1.076 -0.2273  0.0450  0.4574
 3483TIP3    H110413   5.332   4.654   1.110  0.7390 -1.5576  0.8638
 3483TIP3    H210414   5.462   4.623   1.038  1.1204  0.9988  0.3574
 3484TIP3   OH210415   6.293   3.864   2.115  0.6047  0.1146  0.3415
 3484TIP3    H110416   6.211   3.878   2.162  0.6576 -1.1000  0.8385
 3484TIP3    H210417   6.291   3.926   2.043 -0.4723  0.5145  0.7032
 3485TIP3   OH210418   2.629   1.892   3.989  0.1973  0.1058 -0.1469
 3485TIP3    H110419   2.591   1.804   3.984  1.9395 -0.6631 -0.6372
 3485TIP3    H210420   2.693   1.887   4.060 -0.5138  1.3375  0.6078
 3486TIP3   OH210421   3.446   6.135   0.022 -0.1953  0.2170  0.1755
 3486TIP3    H110422   3.481   6.213   0.066 -0.2083  1.6375 -2.1576
 3486TIP3    H210423   3.509   6.066   0.041  0.1846  0.9539  1.7357
 3487TIP3   OH210424   7.111   2.645   0.143 -0.0663 -0.1996  0.2625
 3487TIP3    H110425   7.142   2.668   0.056 -1.0759 -2.0786 -0.6769
 3487TIP3    H210426   7.175   2.582   0.176 -0.6260 -0.8967  0.0668
 3488TIP3   OH210427   3.569   5.726   2.410 -0.2346  0.3040 -0.6570
 3488TIP3    H110428   3.632   5.773   2.355  0.9793  1.5669  1.6851
 3488TIP3    H210429   3.531   5.794   2.466 -2.0814 -0.7911 -0.4952
 3489TIP3   OH210430   2.474   3.964   0.170 -0.2680  0.1900  0.4373
 3489TIP3    H110431   2.564   3.934   0.180 -1.1425 -2.1809  2.3106
 3489TIP3    H210432   2.459   4.021   0.246 -0.6207 -0.3082  0.7531
 3490TIP3   OH210433   7.034   3.708   4.119 -0.1169 -0.3860  0.0573
 3490TIP3    H110434   7.018   3.783   4.062 -1.0385  0.5034  1.4205
 3490TIP3    H210435   7.103   3.659   4.075 -0.2549  0.6691 -1.4183
 3491TIP3   OH210436   2.515   2.102   3.006  0.2679  0.6825  0.4867
 3491TIP3    H110437   2.597   2.147   3.025  0.8352 -0.6111  1.2404
 3491TIP3    H210438   2.459   2.170   2.968  1.2842  1.8644  1.0107
 3492TIP3   OH210439   3.493   1.380   4.813  0.5449  0.1516  0.3909
 3492TIP3    H110440   3.496   1.308   4.751  1.9077  0.2114  0.3566
 3492TIP3    H210441   3.477   1.458   4.759  0.4322  0.0498  0.2756
 3493TIP3   OH210442   2.272   1.609   2.870  0.0208 -0.3149  0.3687
 3493TIP3    H110443   2.181   1.628   2.891 -0.0112  1.2347 -0.9644
 3493TIP3    H210444   2.268   1.567   2.784  0.6935  3.4154 -1.6734
 3494TIP3   OH210445   0.594   4.706   3.697  0.7063  0.1127 -0.3394
 3494TIP3    H110446   0.545   4.729   3.776 -0.7677 -2.6250 -0.3387
 3494TIP3    H210447   0.595   4.610   3.697  1.5544  0.0445 -3.1410
 3495TIP3   OH210448   0.734   4.689   2.083  0.1632 -0.3790 -0.0320
 3495TIP3    H110449   0.779   4.637   2.016 -1.0904 -1.2934 -0.1879
 3495TIP3    H210450   0.790   4.682   2.160  1.5034  0.4785 -0.8702
 3496TIP3   OH210451   4.270   1.723   3.713  0.0168  0.7843 -0.4286
 3496TIP3    H110452   4.278   1.800   3.770 -0.3148  0.5358 -0.0443
 3496TIP3    H210453   4.200   1.671   3.752  0.8136 -0.1416 -0.1779
 3497TIP3   OH210454   0.565   4.612   4.627  0.2863 -0.6481  0.4472
 3497TIP3    H110455   0.530   4.700   4.645  1.0794 -0.7320  2.6426
 3497TIP3    H210456   0.632   4.627   4.560 -1.7289 -0.0852 -1.6025
 3498TIP3   OH210457   0.658   3.391   5.832  0.6022 -0.3235 -0.2748
 3498TIP3    H110458   0.713   3.376   5.909 -1.4672 -0.4154  1.2835
 3498TIP3    H210459   0.576   3.346   5.852 -0.9373  1.8169 -1.4025
 3499TIP3   OH210460   1.950   6.320   2.554  0.4011  0.3383 -0.0967
 3499TIP3    H110461   1.889   6.246   2.553 -0.4391  0.9575  1.4814
 3499TIP3    H210462   1.989   6.320   2.467 -2.0606  0.0716 -1.2961
 3500TIP3   OH210463   3.781   3.629   3.928 -0.1245  0.2439 -0.0885
 3500TIP3    H110464   3.750   3.713   3.895 -1.2988 -0.7612 -1.7008
 3500TIP3    H210465   3.711   3.600   3.988 -0.0456  0.1157 -0.0582
 3501TIP3   OH210466   7.040   4.701   4.084 -0.4640 -0.2817  0.5115
 3501TIP3    H110467   6.948   4.696   4.061 -0.4748 -0.9440  0.6599
 3501TIP3    H210468   7.042   4.691   4.179 -0.3187  0.9380  0.6441
 3502TIP3   OH210469   3.598   4.587   3.557  0.4263 -0.0324 -0.4952
 3502TIP3    H110470   3.626   4.541   3.636  0.3651  0.9148  0.0946
 3502TIP3    H210471   3.673   4.642   3.533  1.0826 -1.5526 -2.0916
 3503TIP3   OH210472   1.851   1.484   0.359 -0.1384 -0.8292  0.6026
 3503TIP3    H110473   1.942   1.513   0.364  0.0055 -1.3012  0.7145
 3503TIP3    H210474   1.800   1.564   0.377  0.2651 -0.8261  1.8209
 3504TIP3   OH210475   6.151   3.737   5.468  0.0231  0.5941 -0.1182
 3504TIP3    H110476   6.103   3.818   5.450 -0.1007  0.1730 -1.7996
 3504TIP3    H210477   6.144   3.726   5.563  0.4223  2.7785  0.2096
 3505TIP3   OH210478   5.547   0.232   4.077 -0.7514 -0.1556 -0.4824
 3505TIP3    H110479   5.548   0.137   4.065 -1.5312  0.0581 -2.5307
 3505TIP3    H210480   5.459   0.251   4.109 -0.7224 -0.0718 -0.4534
 3506TIP3   OH210481   3.952  -0.018   4.801 -0.3095  0.0649 -0.0774
 3506TIP3    H110482   3.929   0.055   4.857 -4.0066 -0.1206 -1.0826
 3506TIP3    H210483   3.916   0.005   4.715 -0.6719 -2.4466 -0.6779
 3507TIP3   OH210484   0.964   3.414   0.918 -0.3836  0.4505  0.5228
 3507TIP3    H110485   0.891   3.409   0.857  0.8021 -2.1407 -0.8653
 3507TIP3    H210486   1.041   3.427   0.863  0.6883 -1.6730  1.3949
 3508TIP3   OH210487   1.658   3.048   2.714  0.2085 -0.1909 -0.1751
 3508TIP3    H110488   1.570   3.076   2.740 -0.2723 -1.2807 -0.6064
 3508TIP3    H210489   1.703   3.030   2.797 -0.2750 -0.5232  0.0187
 3509TIP3   OH210490   3.979   2.676   3.523 -0.4326 -0.0743  0.0391
 3509TIP3    H110491   4.033   2.725   3.584 -0.1491 -0.5971  0.2148
 3509TIP3    H210492   4.025   2.682   3.440 -0.9680  0.8831 -0.2009
 3510TIP3   OH210493   2.426   2.001   5.676 -0.2202  0.2882  0.1223
 3510TIP3    H110494   2.423   2.039   5.764  0.3375  0.2155  0.1727
 3510TIP3    H210495   2.340   1.960   5.665 -0.0566 -0.2805  0.8957
 3511TIP3   OH210496   3.881   1.281   1.489 -0.5235 -0.0030  0.2792
 3511TIP3    H110497   3.969   1.293   1.453 -1.7787  0.4802 -2.9291
 3511TIP3    H210498   3.839   1.219   1.430 -2.6133  0.4462  1.2126
 3512TIP3   OH210499   6.960   0.259   2.215 -0.0043 -0.1875  0.2537
 3512TIP3    H110500   6.928   0.249   2.125 -0.2071 -2.0490  0.4903
 3512TIP3    H210501   7.018   0.335   2.212 -1.6096  1.0594 -0.9802
 3513TIP3   OH210502   6.664   1.307   0.084 -0.0776  0.3991  0.8463
 3513TIP3    H110503   6.588   1.271   0.040  1.2432 -2.7097  0.8913
 3513TIP3    H210504   6.641   1.306   0.177  0.2623 -1.2948  0.9320
 3514TIP3   OH210505   3.303   0.863   0.116  0.7108  0.1108 -0.1097
 3514TIP3    H110506   3.284   0.926   0.186  0.0238  1.0435 -1.0939
 3514TIP3    H210507   3.279   0.778   0.153  1.0063  0.4987  1.0200
 3515TIP3   OH210508   7.015   4.851   5.237  0.1170  0.1484 -0.0941
 3515TIP3    H110509   7.089   4.912   5.229 -0.8800  1.5213  0.7322
 3515TIP3    H210510   6.938   4.905   5.219 -0.7513 -1.0825 -0.1711
 3516TIP3   OH210511   5.179   3.207   2.360  0.2409 -0.1305  0.5644
 3516TIP3    H110512   5.188   3.114   2.341 -1.3086  0.2232 -2.3247
 3516TIP3    H210513   5.221   3.251   2.286 -2.6203  1.4112 -0.2658
 3517TIP3   OH210514   5.812   0.113   1.610 -0.3894 -0.8719 -0.2914
 3517TIP3    H110515   5.730   0.117   1.560 -0.9709 -1.9325  0.5472
 3517TIP3    H210516   5.871   0.063   1.554 -0.1998  0.1331 -1.0256
 3518TIP3   OH210517   6.013   0.150   0.281  0.4265 -0.2120 -0.0674
 3518TIP3    H110518   6.017   0.082   0.213 -4.4143 -1.0338  0.1456
 3518TIP3    H210519   5.980   0.104   0.359 -1.3404  2.0093  0.5828
 3519TIP3   OH210520   0.480   4.913   5.757 -0.5547 -0.2886  0.1356
 3519TIP3    H110521   0.475   4.973   5.682  1.7597 -0.8198 -0.4939
 3519TIP3    H210522   0.415   4.948   5.819  0.9081  3.1452 -0.0179
 3520TIP3   OH210523   7.201   5.363   5.877 -0.1036 -0.1400  0.4692
 3520TIP3    H110524   7.124   5.407   5.842  0.4582  0.2201 -0.3549
 3520TIP3    H210525   7.168   5.308   5.948 -1.1765 -0.3323 -0.1669
 3521TIP3   OH210526   5.482   2.085   0.311 -0.0638  0.0760  0.6814
 3521TIP3    H110527   5.468   2.169   0.355  1.0307  0.4659  0.3133
 3521TIP3    H210528   5.463   2.102   0.219  0.4878  0.0127  0.5519
 3522TIP3   OH210529   1.281   1.687   4.867 -0.3490  0.1676 -0.2333
 3522TIP3    H110530   1.348   1.734   4.917  0.5725 -0.7881 -0.5339
 3522TIP3    H210531   1.270   1.739   4.788  2.0234 -1.0034 -1.4455
 3523TIP3   OH210532   2.458   3.537   0.902 -0.0663 -0.6003  0.2424
 3523TIP3    H110533   2.463   3.454   0.948 -1.9110 -0.9479 -0.1089
 3523TIP3    H210534   2.413   3.517   0.820  0.1036  0.6174 -0.1754
 3524TIP3   OH210535   3.517   4.185   3.579  0.0516  0.3504 -0.8476
 3524TIP3    H110536   3.448   4.141   3.529 -0.6963 -0.9879  1.2256
 3524TIP3    H210537   3.470   4.238   3.644  0.9738  0.7865 -0.5154
 3525TIP3   OH210538   2.207   1.960   1.526 -0.2085 -0.0423  0.3238
 3525TIP3    H110539   2.124   1.950   1.573  0.5453  0.7413  1.8890
 3525TIP3    H210540   2.207   2.051   1.497  0.5270  0.2718  1.2426
 3526TIP3   OH210541   2.442   3.177   1.982  0.2295 -0.1520 -0.1704
 3526TIP3    H110542   2.433   3.209   2.072  0.0167  0.9194 -0.5580
 3526TIP3    H210543   2.534   3.193   1.960  0.2652 -0.3520 -0.1666
 3527TIP3   OH210544   5.187   2.084   4.780 -0.0986  0.0333  0.5532
 3527TIP3    H110545   5.149   2.073   4.867 -0.2742  0.5803  0.5483
 3527TIP3    H210546   5.243   2.161   4.787  0.9133 -0.6823  0.5152
 3528TIP3   OH210547   2.254   6.478   3.430  0.0139 -0.5880  0.1646
 3528TIP3    H110548   2.335   6.445   3.393  0.4717 -0.1922  0.8042
 3528TIP3    H210549   2.217   6.535   3.362 -0.0453 -1.2527 -0.3657
 3529TIP3   OH210550   1.201   6.359   4.037 -0.7820  0.0634 -0.1984
 3529TIP3    H110551   1.261   6.326   4.105 -1.8168 -2.7007 -0.4859
 3529TIP3    H210552   1.116   6.366   4.082 -1.3352 -1.1732 -1.0105
 3530TIP3   OH210553   1.954   3.548   5.046 -0.2521 -0.3249  0.3703
 3530TIP3    H110554   1.950   3.514   5.135 -1.6604 -1.4868 -0.0909
 3530TIP3    H210555   1.868   3.527   5.009  0.1738  0.4623 -1.1413
 3531TIP3   OH210556   0.245   5.045   4.823 -0.5638 -0.2533 -0.2051
 3531TIP3    H110557   0.195   5.088   4.753 -1.3895  0.3993  0.7476
 3531TIP3    H210558   0.295   5.116   4.863 -2.2116 -0.0160  1.6179
 3532TIP3   OH210559   4.927   4.804   2.424 -0.0095  0.3408  0.3424
 3532TIP3    H110560   5.016   4.793   2.456  1.5091  0.5273 -3.3103
 3532TIP3    H210561   4.914   4.899   2.418  0.2468  0.3238 -0.7141
 3533TIP3   OH210562   1.290   0.114   2.685  0.3015 -0.3808 -0.3286
 3533TIP3    H110563   1.275   0.167   2.607  1.8924  0.6367  0.0042
 3533TIP3    H210564   1.385   0.103   2.689  0.2860 -0.2530  1.5478
 3534TIP3   OH210565   3.876   6.188   5.605  0.0885  0.4560  0.6007
 3534TIP3    H110566   3.821   6.117   5.573  0.7784  0.0865  0.2148
 3534TIP3    H210567   3.814   6.255   5.634 -0.5606  0.0081  0.2742
 3535TIP3   OH210568   4.847   6.017   2.698 -0.1240  0.7426 -1.0315
 3535TIP3    H110569   4.786   6.091   2.701 -1.9607 -0.7247 -0.2708
 3535TIP3    H210570   4.918   6.042   2.756 -1.1368  1.5965 -0.1076
 3536TIP3   OH210571   0.679   3.724   0.196 -0.1510 -0.2238  0.0141
 3536TIP3    H110572   0.662   3.816   0.176  0.9543  0.6403  2.5542
 3536TIP3    H210573   0.594   3.687   0.217 -0.6422  0.0965 -1.3038
 3537TIP3   OH210574   4.139   1.496   1.814  0.3383  0.4559  0.4268
 3537TIP3    H110575   4.060   1.487   1.868  1.1998 -0.6607  1.5687
 3537TIP3    H210576   4.177   1.408   1.813 -0.2321  0.0916 -3.0255
 3538TIP3   OH210577   6.119   4.477   4.217  0.3122 -0.1525  0.3863
 3538TIP3    H110578   6.107   4.540   4.146  1.0593 -0.1338  0.2665
 3538TIP3    H210579   6.056   4.407   4.198  0.1222  0.1165  0.0084
 3539TIP3   OH210580   1.945   2.539   5.129 -0.0332  0.2522 -0.0017
 3539TIP3    H110581   1.854   2.527   5.156 -1.2815  1.5632 -3.1640
 3539TIP3    H210582   1.980   2.603   5.191 -0.7855 -1.1754  2.0170
 3540TIP3   OH210583   6.034   1.273   0.551  0.5126 -0.0774 -0.4196
 3540TIP3    H110584   6.108   1.239   0.602  1.6373 -1.1085 -2.6274
 3540TIP3    H210585   6.058   1.363   0.530  0.6287 -0.0626 -0.2316
 3541TIP3   OH210586   6.584   4.206   1.889 -0.1941  0.1187 -0.2200
 3541TIP3    H110587   6.613   4.217   1.979  0.6327  0.3702 -0.5053
 3541TIP3    H210588   6.653   4.246   1.836 -0.9519  0.5056 -0.9415
 3542TIP3   OH210589   1.230   6.274   5.172 -0.1926  0.0228  0.6242
 3542TIP3    H110590   1.276   6.290   5.254  0.0389  1.0504  0.3127
 3542TIP3    H210591   1.138   6.295   5.191 -0.2259 -0.2435  0.7570
 3543TIP3   OH210592   5.951   6.434   5.118  0.1337  0.1795  0.4008
 3543TIP3    H110593   5.885   6.491   5.078 -0.0255 -0.0086  0.3928
 3543TIP3    H210594   5.900   6.365   5.160  0.3726 -0.6290 -0.6133
 3544TIP3   OH210595   3.525   3.071   1.974  0.4112 -0.2650 -0.1406
 3544TIP3    H110596   3.593   3.094   2.037  1.5887  0.6343 -1.6771
 3544TIP3    H210597   3.569   3.015   1.911 -1.1126 -2.4137  0.5701
 3545TIP3   OH210598   6.200   3.986   3.166  0.5088  0.0449 -0.4980
 3545TIP3    H110599   6.236   3.927   3.099  0.4899 -1.2347  0.5660
 3545TIP3    H210600   6.256   3.972   3.242 -0.4739  0.2133  0.2750
 3546TIP3   OH210601   0.847   2.190   5.817  0.6786  0.1903  0.4002
 3546TIP3    H110602   0.887   2.202   5.731  0.0996  1.2046  0.2686
 3546TIP3    H210603   0.895   2.249   5.875  1.2958 -0.7341  0.8723
 3547TIP3   OH210604   0.230   1.491   2.331  0.0253  0.1648 -0.0522
 3547TIP3    H110605   0.310   1.541   2.315  0.6956  0.2406  2.8380
 3547TIP3    H210606   0.165   1.557   2.354 -0.7137  0.0542 -1.7432
 3548TIP3   OH210607   5.172   5.852   2.484 -0.0224 -0.2181 -0.1014
 3548TIP3    H110608   5.167   5.774   2.429 -0.4944 -1.7608  1.9895
 3548TIP3    H210609   5.119   5.918   2.439  0.8962 -0.8619 -2.2378
 3549TIP3   OH210610   2.432   0.554   4.016  0.1655  0.5726  0.1657
 3549TIP3    H110611   2.503   0.551   4.080 -1.6555  0.0196  2.3054
 3549TIP3    H210612   2.397   0.643   4.023  1.1381  1.1319 -1.5302
 3550TIP3   OH210613   4.900   1.153   2.440  0.0515  0.4445  0.1190
 3550TIP3    H110614   4.930   1.221   2.501  2.0024  1.6109 -1.9915
 3550TIP3    H210615   4.849   1.093   2.494  4.2695 -0.4449  3.7348
 3551TIP3   OH210616   0.412   2.222   5.051 -0.3384 -0.0834  0.4992
 3551TIP3    H110617   0.465   2.150   5.016 -0.9531 -0.0958 -0.4306
 3551TIP3    H210618   0.369   2.260   4.975  1.5152  2.5778  0.6506
 3552TIP3   OH210619   5.786   1.869   1.503  0.4534 -0.1000  0.0936
 3552TIP3    H110620   5.745   1.823   1.429 -1.5048  2.8165 -0.8091
 3552TIP3    H210621   5.752   1.825   1.581 -1.5588 -0.1053 -0.7214
 3553TIP3   OH210622   0.393   6.162   1.921  0.4168  0.3379 -0.1152
 3553TIP3    H110623   0.300   6.151   1.942  0.4297 -0.0128 -0.2473
 3553TIP3    H210624   0.398   6.249   1.881  0.0138  0.0155 -0.8768
 3554TIP3   OH210625   4.018   4.937   2.075 -0.0015  0.2574  0.2152
 3554TIP3    H110626   4.031   4.990   1.997  1.6814  1.4804  1.2536
 3554TIP3    H210627   3.943   4.881   2.054  1.2310 -0.4614 -2.7613
 3555TIP3   OH210628   0.621   6.337   1.587  0.5026  0.3576 -0.0282
 3555TIP3    H110629   0.571   6.328   1.669  0.5754 -1.8204 -0.1534
 3555TIP3    H210630   0.712   6.323   1.613  0.4036 -1.6722 -0.6111
 3556TIP3   OH210631   0.665   1.835   4.650  0.6945 -0.2745  0.1378
 3556TIP3    H110632   0.600   1.765   4.639 -0.1139  0.6318 -1.1105
 3556TIP3    H210633   0.741   1.805   4.601  1.0682 -1.0971  1.1610
 3557TIP3   OH210634   2.014   1.847   0.345 -0.2219  0.0502 -0.1758
 3557TIP3    H110635   2.063   1.894   0.413  1.5916  1.4646 -2.3184
 3557TIP3    H210636   2.019   1.903   0.268 -0.2226 -2.4425 -2.1497
 3558TIP3   OH210637   3.424   4.679   2.615 -0.0814 -0.4095  0.5502
 3558TIP3    H110638   3.412   4.724   2.699 -0.1666  0.5121  0.0614
 3558TIP3    H210639   3.517   4.657   2.612  0.3079  1.1630  0.1284
 3559TIP3   OH210640   2.693   0.430   1.514  0.0410 -0.7183  0.1181
 3559TIP3    H110641   2.650   0.395   1.436  0.2623  1.6160 -1.1332
 3559TIP3    H210642   2.636   0.501   1.543 -0.1155 -1.6474  2.2300
 3560TIP3   OH210643   5.424   3.420   4.128 -0.6086  0.2111  0.1952
 3560TIP3    H110644   5.369   3.434   4.206 -0.0980 -0.2612  0.6506
 3560TIP3    H210645   5.510   3.450   4.155 -0.1098 -1.2114  0.2906
 3561TIP3   OH210646   2.763   1.788   5.566 -0.3007 -0.0764  0.1587
 3561TIP3    H110647   2.857   1.784   5.546  0.1036 -1.2671  2.0322
 3561TIP3    H210648   2.720   1.773   5.482  1.1967  0.0899 -0.6702
 3562TIP3   OH210649   5.232   4.006   5.439  0.6007 -0.1750 -0.2369
 3562TIP3    H110650   5.324   3.981   5.427  1.0854  1.5763 -0.3925
 3562TIP3    H210651   5.206   4.042   5.354  0.3001  0.9272  0.3059
 3563TIP3   OH210652   2.362   2.298   0.067  0.3485 -0.2848  0.5656
 3563TIP3    H110653   2.267   2.309   0.073  0.0743  0.2364 -2.8522
 3563TIP3    H210654   2.374   2.210   0.031  1.1590 -0.1883  0.5783
 3564TIP3   OH210655   1.846   5.697   0.218 -0.8492  0.0474  0.5904
 3564TIP3    H110656   1.871   5.777   0.172  0.2684 -0.5060  0.2005
 3564TIP3    H210657   1.925   5.669   0.263 -0.9417 -1.3757 -0.0783
 3565TIP3   OH210658   4.653   6.485   4.443 -0.0151 -0.1383  0.3705
 3565TIP3    H110659   4.652   6.421   4.372  1.3119  0.5335 -0.2987
 3565TIP3    H210660   4.564   6.519   4.447  0.5366  2.4753 -3.5142
 3566TIP3   OH210661   3.734   2.317   5.595 -0.2056  0.6764 -0.1941
 3566TIP3    H110662   3.729   2.393   5.653 -0.9287 -0.6807  1.6239
 3566TIP3    H210663   3.746   2.243   5.654 -2.3186 -0.9655 -1.6829
 3567TIP3   OH210664   4.620   2.992   3.320  0.1461 -0.3570 -0.5391
 3567TIP3    H110665   4.675   3.047   3.264  2.3151 -2.2637 -0.3969
 3567TIP3    H210666   4.648   3.012   3.409  1.1346 -1.7852 -0.4937
 3568TIP3   OH210667   5.243   0.993   4.919 -0.8523  0.0720 -0.0415
 3568TIP3    H110668   5.221   0.934   4.847  0.4718 -0.4129 -0.0731
 3568TIP3    H210669   5.268   1.075   4.876 -0.2785 -0.1466 -0.1320
 3569TIP3   OH210670   2.008   3.242   4.748 -0.0474 -0.1774  0.1625
 3569TIP3    H110671   2.018   3.147   4.757 -1.1358 -0.4710 -1.3600
 3569TIP3    H210672   1.939   3.253   4.683 -0.1994  1.6758  0.5828
 3570TIP3   OH210673   0.593   5.372   1.459 -0.1598  0.7550  0.0072
 3570TIP3    H110674   0.588   5.333   1.372  1.4524 -0.9662  0.6273
 3570TIP3    H210675   0.670   5.430   1.455  0.7789 -0.4040  0.6429
 3571TIP3   OH210676   1.738   4.231   5.088  0.0710  0.0322  0.5356
 3571TIP3    H110677   1.818   4.193   5.123 -0.7320 -0.4062  1.9589
 3571TIP3    H210678   1.713   4.172   5.017  0.2527 -0.6060  1.0006
 3572TIP3   OH210679   2.343   2.196   2.624 -0.3668 -0.0081 -1.0208
 3572TIP3    H110680   2.269   2.257   2.623 -0.6982 -0.3832 -0.2724
 3572TIP3    H210681   2.399   2.225   2.552 -0.0833  1.7408 -0.1737
 3573TIP3   OH210682   4.740   6.740   0.308 -0.2261  0.1759 -0.0406
 3573TIP3    H110683   4.772   6.829   0.315 -0.0246  0.3843 -2.6608
 3573TIP3    H210684   4.808   6.686   0.348 -0.1030  1.1116  1.0687
 3574TIP3   OH210685   0.430   5.753   0.982 -0.6994 -0.1719 -1.2324
 3574TIP3    H110686   0.473   5.838   0.971  0.7419 -0.9016 -1.5300
 3574TIP3    H210687   0.400   5.753   1.073 -1.5584  1.0011 -1.4848
 3575TIP3   OH210688   6.679   6.395   3.363  0.3226  0.0997 -0.5690
 3575TIP3    H110689   6.649   6.315   3.319 -0.3135 -1.0833  1.8638
 3575TIP3    H210690   6.601   6.450   3.371  0.3951  0.2293 -0.7554
 3576TIP3   OH210691   6.400   0.992   2.478 -0.3469 -0.1749 -0.2359
 3576TIP3    H110692   6.454   0.927   2.523  0.5972  0.3296 -0.6153
 3576TIP3    H210693   6.311   0.975   2.510  0.1593 -0.4106  1.1229
 3577TIP3   OH210694   6.916   2.700   5.645  0.0788  0.4758 -0.1371
 3577TIP3    H110695   6.988   2.658   5.598 -1.1551 -1.3648 -0.4839
 3577TIP3    H210696   6.856   2.728   5.575  0.3771  1.9467  0.1510
 3578TIP3   OH210697   6.792   1.540  -0.003  0.1002  0.0297  0.0036
 3578TIP3    H110698   6.753   1.454   0.015  0.2884  0.1063  0.8318
 3578TIP3    H210699   6.829   1.567   0.081 -1.1828  1.5522  0.1259
 3579TIP3   OH210700   0.656   5.546   4.641 -0.1441 -0.2783  0.1587
 3579TIP3    H110701   0.710   5.468   4.651  1.6272  0.8047 -0.3717
 3579TIP3    H210702   0.633   5.572   4.730  0.1017 -0.8442  0.3891
 3580TIP3   OH210703   1.308   6.703   3.782  0.3419 -0.5753  0.2370
 3580TIP3    H110704   1.239   6.640   3.762  0.1162 -0.3131  0.1777
 3580TIP3    H210705   1.353   6.717   3.699 -1.0571  1.0661 -0.3086
 3581TIP3   OH210706   0.145   1.829   0.523 -0.1834  0.4468  0.0819
 3581TIP3    H110707   0.104   1.859   0.442  1.1711  2.5659  0.1137
 3581TIP3    H210708   0.077   1.779   0.567 -1.2592  0.0666 -1.8919
 3582TIP3   OH210709   2.743   3.246   1.957  0.2190 -0.1262  0.3984
 3582TIP3    H110710   2.791   3.324   1.928  1.1196 -0.5858  0.6136
 3582TIP3    H210711   2.707   3.271   2.042  0.5216  0.0546  0.4763
 3583TIP3   OH210712   0.990   1.809   5.789  0.2181 -0.3812 -0.5944
 3583TIP3    H110713   0.933   1.842   5.719 -0.4424  3.4093  1.4459
 3583TIP3    H210714   1.079   1.820   5.755 -0.1129 -1.5645 -1.9243
 3584TIP3   OH210715   6.293   1.988   1.106 -0.1680  0.9363 -0.2066
 3584TIP3    H110716   6.375   1.974   1.059 -1.0506 -1.9549 -1.1544
 3584TIP3    H210717   6.265   2.075   1.081  1.6289  1.2212 -1.4326
 3585TIP3   OH210718   1.456   3.565   1.778 -1.0970  0.0983 -0.6807
 3585TIP3    H110719   1.460   3.647   1.730  2.2010  0.7245  0.4004
 3585TIP3    H210720   1.501   3.502   1.722 -0.8372 -0.1826 -0.1620
 3586TIP3   OH210721   7.010   4.249   0.387 -0.3010  0.3673  0.1583
 3586TIP3    H110722   7.058   4.185   0.440 -0.5044 -0.9717 -1.2224
 3586TIP3    H210723   7.078   4.299   0.342 -0.0467 -2.1263 -2.5095
 3587TIP3   OH210724   4.638   5.266   5.362  0.3481 -0.0127 -0.3568
 3587TIP3    H110725   4.637   5.171   5.347  0.3933 -0.0405 -0.1933
 3587TIP3    H210726   4.681   5.302   5.285 -0.3953 -0.0499 -0.8020
 3588TIP3   OH210727   1.111   0.988   0.279 -0.3165 -0.0573  0.0194
 3588TIP3    H110728   1.128   0.978   0.186 -1.1796  1.9752 -0.4093
 3588TIP3    H210729   1.047   0.920   0.299  0.6746 -1.2082 -0.5858
 3589TIP3   OH210730   4.656   0.115   0.825 -0.4809  0.0309 -0.3928
 3589TIP3    H110731   4.739   0.127   0.872 -1.6461  2.6437  1.2658
 3589TIP3    H210732   4.601   0.066   0.886 -0.2797 -1.5526 -1.4222
 3590TIP3   OH210733   6.038   2.471   0.041  0.2758 -0.2031 -0.0232
 3590TIP3    H110734   6.030   2.528  -0.035 -0.4815  0.8545  0.8196
 3590TIP3    H210735   6.089   2.396   0.010  3.7396  2.1352 -0.5203
 3591TIP3   OH210736   4.327   4.650   0.187 -0.4534 -0.3644  0.0813
 3591TIP3    H110737   4.382   4.659   0.109  0.0618  1.1127  0.5703
 3591TIP3    H210738   4.238   4.661   0.155 -0.1698  1.9682 -0.1461
 3592TIP3   OH210739   5.315   2.069   4.307 -0.2272 -0.5811 -0.4229
 3592TIP3    H110740   5.304   2.050   4.400  1.4700 -1.8057 -0.4373
 3592TIP3    H210741   5.231   2.106   4.280  0.0559  2.3609  2.1710
 3593TIP3   OH210742   0.447   3.187   4.399  0.4346 -0.0018 -0.0834
 3593TIP3    H110743   0.361   3.146   4.405  0.2520  0.1989 -1.0853
 3593TIP3    H210744   0.455   3.212   4.307  0.3400  2.6398  0.5472
 3594TIP3   OH210745   3.926   4.155   5.351  0.1748  0.0772 -0.1396
 3594TIP3    H110746   3.979   4.168   5.272  1.1429  0.8804  0.6224
 3594TIP3    H210747   3.851   4.213   5.339  1.2456  1.6136  0.3325
 3595TIP3   OH210748   2.096   0.479   2.920 -0.1025  0.0681 -0.3775
 3595TIP3    H110749   2.044   0.421   2.864 -0.2425  0.9483 -1.1918
 3595TIP3    H210750   2.032   0.535   2.964 -0.0701 -1.3066  1.5224
 3596TIP3   OH210751   6.873   0.113   0.853 -0.1848 -0.4433  0.2397
 3596TIP3    H110752   6.944   0.064   0.896 -1.0437 -2.2076 -0.2312
 3596TIP3    H210753   6.904   0.127   0.764 -0.5883 -1.6435 -0.1071
 3597TIP3   OH210754   2.114   0.642   3.164  0.1971 -0.6413  0.3624
 3597TIP3    H110755   2.022   0.666   3.173  0.2415  0.0311 -0.8080
 3597TIP3    H210756   2.151   0.709   3.107  1.0816 -1.6518 -0.3022
 3598TIP3   OH210757   0.268   4.411   4.919  0.1920  0.0395 -0.5111
 3598TIP3    H110758   0.286   4.504   4.928 -1.6818  0.4078 -0.2435
 3598TIP3    H210759   0.230   4.386   5.004 -0.3351 -0.7069 -0.9573
 3599TIP3   OH210760   3.674   4.328   0.427  0.0463  0.4333 -0.2707
 3599TIP3    H110761   3.734   4.267   0.384  0.0885  0.7861 -0.7266
 3599TIP3    H210762   3.609   4.349   0.359 -0.1736  0.6146 -0.0077
 3600TIP3   OH210763   6.119   5.779   5.717 -0.3671  0.2209 -0.1856
 3600TIP3    H110764   6.071   5.767   5.799 -0.2470  0.6718 -0.0460
 3600TIP3    H210765   6.211   5.775   5.743 -0.3193 -0.4182 -0.4194
 3601TIP3   OH210766   6.108   4.679   3.688  0.2706  0.3982 -0.2667
 3601TIP3    H110767   6.128   4.757   3.637 -0.1581  2.0821  1.9872
 3601TIP3    H210768   6.193   4.649   3.720  0.4670 -0.2717 -1.3656
 3602TIP3   OH210769   1.655   2.450   2.197 -0.7236  0.2589 -0.0662
 3602TIP3    H110770   1.672   2.359   2.172  0.5363  0.3042  0.5563
 3602TIP3    H210771   1.693   2.458   2.284  0.1015  1.6504 -0.5262
 3603TIP3   OH210772   0.358   2.661   2.982  0.2474 -0.7509 -0.1959
 3603TIP3    H110773   0.302   2.603   3.033  1.3074 -2.1387 -0.5572
 3603TIP3    H210774   0.444   2.653   3.021  0.7909 -0.8153 -1.3502
 3604TIP3   OH210775   3.030   1.759   3.277 -0.1677  0.4681  0.0317
 3604TIP3    H110776   2.999   1.674   3.246 -1.2769  0.9114 -0.1325
 3604TIP3    H210777   3.111   1.775   3.227 -0.2309 -0.2513 -0.3136
 3605TIP3   OH210778   5.774   6.586   4.974  0.0123 -0.3606  0.3451
 3605TIP3    H110779   5.790   6.679   4.993 -1.2718 -0.2801  1.2275
 3605TIP3    H210780   5.681   6.582   4.951  0.5994 -1.0886 -2.2182
 3606TIP3   OH210781   5.186   1.165   3.276 -0.1331  0.1375 -0.0254
 3606TIP3    H110782   5.120   1.235   3.272  0.8905  1.1014 -0.7249
 3606TIP3    H210783   5.186   1.128   3.188 -0.0549 -0.1585  0.0994
 3607TIP3   OH210784   5.882   3.237   1.602  0.4418  0.0960 -0.0835
 3607TIP3    H110785   5.891   3.267   1.512 -0.5507  3.6240  0.8260
 3607TIP3    H210786   5.967   3.254   1.642  0.7200 -0.9696 -0.2045
 3608TIP3   OH210787   6.455   3.321   4.880 -0.5455 -0.1345  0.1463
 3608TIP3    H110788   6.492   3.409   4.887  2.0007 -1.1510  0.6787
 3608TIP3    H210789   6.426   3.315   4.789  0.7808  0.7405 -0.3748
 3609TIP3   OH210790   3.802   2.422   4.935  0.2686  0.3936 -0.0839
 3609TIP3    H110791   3.816   2.374   4.854 -2.5808 -0.8490  0.0543
 3609TIP3    H210792   3.728   2.378   4.977  0.5489  2.0512  2.3729
 3610TIP3   OH210793   0.421   1.802   2.758 -0.6607  0.9138 -0.2470
 3610TIP3    H110794   0.334   1.837   2.778 -1.0198 -0.5166  0.8410
 3610TIP3    H210795   0.451   1.765   2.840  0.9293  1.2359 -0.6556
 3611TIP3   OH210796   1.924   1.323   0.583 -0.2554 -0.3094 -0.0102
 3611TIP3    H110797   1.955   1.259   0.519 -1.2942  0.0435 -0.8987
 3611TIP3    H210798   1.874   1.386   0.531  0.3962  1.0034  0.9034
 3612TIP3   OH210799   0.551   4.782   2.340 -0.2177  0.0038  0.0467
 3612TIP3    H110800   0.579   4.862   2.296  1.4142 -0.6285 -0.1511
 3612TIP3    H210801   0.617   4.768   2.408 -0.4143 -1.2084  0.0209
 3613TIP3   OH210802   3.038   1.084   0.669  0.0468  0.1027 -0.5399
 3613TIP3    H110803   3.126   1.048   0.684  0.3669  0.1486 -2.1748
 3613TIP3    H210804   2.983   1.007   0.651  0.0287  0.1706 -0.7781
 3614TIP3   OH210805   2.580   0.570   1.134 -0.2063 -0.7338 -0.1403
 3614TIP3    H110806   2.601   0.531   1.049 -0.7889 -1.2132 -0.0748
 3614TIP3    H210807   2.580   0.496   1.195  2.0080 -0.1487  0.6409
 3615TIP3   OH210808   3.387   5.975   4.274  0.3407  0.0777  0.5114
 3615TIP3    H110809   3.384   5.904   4.338  1.3540 -1.0452 -0.6285
 3615TIP3    H210810   3.380   5.931   4.189  1.8236  1.2621 -0.2615
 3616TIP3   OH210811   6.498   4.361   2.426 -0.1959 -0.0266 -0.4038
 3616TIP3    H110812   6.443   4.439   2.432  0.0067  0.0827  0.0987
 3616TIP3    H210813   6.467   4.304   2.497 -0.1224 -0.2629 -0.5596
 3617TIP3   OH210814   0.451   0.488   1.576 -0.4951 -0.2742  0.2628
 3617TIP3    H110815   0.513   0.452   1.639  0.4604 -1.7717 -1.4497
 3617TIP3    H210816   0.471   0.581   1.574  2.1087 -0.7622 -0.5929
 3618TIP3   OH210817   2.048   0.152   1.502 -0.4344  0.1155  0.5583
 3618TIP3    H110818   2.043   0.174   1.408  0.5081  0.7589  0.6446
 3618TIP3    H210819   2.036   0.057   1.505  0.2969 -0.0155 -0.2863
 3619TIP3   OH210820   6.160   0.934   2.561  0.0236  0.2066  0.2430
 3619TIP3    H110821   6.143   0.870   2.492  1.2396 -0.1682  0.2634
 3619TIP3    H210822   6.137   0.889   2.642 -0.4029  0.2781  0.1649
 3620TIP3   OH210823   7.142   4.185   4.912  0.7945  0.9745  0.5060
 3620TIP3    H110824   7.137   4.164   5.005 -1.2041  1.1128  0.4789
 3620TIP3    H210825   7.075   4.129   4.872  1.2304  1.3403 -0.7641
 3621TIP3   OH210826   0.667   4.723   3.289  0.5836 -0.1743  0.3660
 3621TIP3    H110827   0.695   4.633   3.304  1.6702  0.3246  1.5759
 3621TIP3    H210828   0.623   4.721   3.204 -1.2604 -2.2368  1.2544
 3622TIP3   OH210829   3.280   0.955   3.514 -0.0083  0.3697 -0.0221
 3622TIP3    H110830   3.278   1.037   3.562  0.2438 -1.1230  2.7396
 3622TIP3    H210831   3.368   0.921   3.528 -0.2296 -0.5609 -0.7918
 3623TIP3   OH210832   6.577   6.050   2.616 -0.7088  0.4383  0.9607
 3623TIP3    H110833   6.594   6.037   2.710  0.5271 -0.3394  0.6512
 3623TIP3    H210834   6.594   6.143   2.602  1.9275  0.0566  1.0176
 3624TIP3   OH210835   3.904   0.744   1.287  0.0693  0.2221 -0.1939
 3624TIP3    H110836   3.904   0.677   1.355  2.7310 -0.0462 -0.3463
 3624TIP3    H210837   3.930   0.824   1.332  1.4651  0.1243 -0.7948
 3625TIP3   OH210838   5.759   5.256   4.945 -0.6577 -0.3277 -0.6132
 3625TIP3    H110839   5.830   5.195   4.927 -0.1409  0.7410 -2.5285
 3625TIP3    H210840   5.698   5.207   5.000  0.5102 -1.9871 -0.7305
 3626TIP3   OH210841   6.677   6.802   4.281  0.0079 -0.3539 -0.4143
 3626TIP3    H110842   6.589   6.825   4.311  0.5204  0.2306  0.6921
 3626TIP3    H210843   6.663   6.726   4.224 -1.4765  1.2587 -2.3413
 3627TIP3   OH210844   5.507   0.873   4.934 -0.1685  0.2246 -0.1822
 3627TIP3    H110845   5.565   0.931   4.983 -0.9380  1.3266 -0.5224
 3627TIP3    H210846   5.428   0.926   4.918 -0.2142 -0.3083 -2.0018
 3628TIP3   OH210847   7.081   2.861   5.302  0.4625  0.6244  0.2479
 3628TIP3    H110848   7.131   2.788   5.267  0.6710 -0.1387  2.0495
 3628TIP3    H210849   7.010   2.875   5.238 -0.2741 -1.9273  0.4224
 3629TIP3   OH210850   2.097   5.186   2.259  0.3938 -0.2140 -0.1864
 3629TIP3    H110851   2.060   5.174   2.172  0.4701  3.2846 -0.8280
 3629TIP3    H210852   2.027   5.162   2.319  0.2706 -2.4562 -1.1476
 3630TIP3   OH210853   0.053   2.444   1.412 -0.6283  0.6214  0.3284
 3630TIP3    H110854  -0.025   2.490   1.443  0.6921  2.1468  1.6316
 3630TIP3    H210855   0.117   2.514   1.396  1.1957 -0.6697  1.5310
 3631TIP3   OH210856   6.113   6.219   1.577 -0.0791  0.4107  0.5647
 3631TIP3    H110857   6.185   6.248   1.522  0.0747 -0.3835  0.3423
 3631TIP3    H210858   6.149   6.218   1.666  0.1666  0.0664  0.4603
 3632TIP3   OH210859   3.302   3.873   4.578 -0.3247  0.1459 -0.2490
 3632TIP3    H110860   3.268   3.866   4.488 -0.3514 -1.0153 -0.1665
 3632TIP3    H210861   3.241   3.821   4.630  2.1585 -3.0555 -0.2707
 3633TIP3   OH210862   0.588   3.258   0.303  0.1894 -0.7471 -0.0261
 3633TIP3    H110863   0.598   3.270   0.397 -2.6774  0.1256  0.2436
 3633TIP3    H210864   0.599   3.164   0.289 -0.4202 -1.0430  1.3541
 3634TIP3   OH210865   5.388   2.221   2.809 -0.1602 -0.2794 -0.4204
 3634TIP3    H110866   5.327   2.179   2.870  1.1858 -2.7064 -0.6126
 3634TIP3    H210867   5.425   2.293   2.859 -1.0598 -0.5424  0.6816
 3635TIP3   OH210868   2.200   2.281   4.102  0.3253  0.0780 -0.5284
 3635TIP3    H110869   2.231   2.342   4.035  1.4707 -0.3681 -0.4227
 3635TIP3    H210870   2.267   2.284   4.171 -1.1783  1.0657  0.9642
 3636TIP3   OH210871   2.420   0.910   4.843 -0.7940  0.1642 -0.2209
 3636TIP3    H110872   2.409   0.964   4.921  0.8254  0.2010  0.0311
 3636TIP3    H210873   2.415   0.820   4.876  1.2769  0.1532  0.2381
 3637TIP3   OH210874   0.445   5.180   4.540  0.3656 -0.4638 -0.2233
 3637TIP3    H110875   0.349   5.184   4.546  0.3656 -0.6037 -0.1280
 3637TIP3    H210876   0.463   5.191   4.447  0.2850  0.1218 -0.1726
 3638TIP3   OH210877   6.551   5.316   3.155 -0.7174  0.1602 -0.9161
 3638TIP3    H110878   6.543   5.240   3.097 -1.0404 -0.2241 -0.3707
 3638TIP3    H210879   6.628   5.296   3.209 -1.0874 -0.0005 -0.4480
 3639TIP3   OH210880   5.651   3.747   4.147 -0.4346 -0.1224 -0.0585
 3639TIP3    H110881   5.667   3.677   4.211  1.6668 -0.3516 -0.7605
 3639TIP3    H210882   5.686   3.826   4.188 -2.6400  0.5573  0.6520
 3640TIP3   OH210883   1.398   1.565   1.319  0.4662 -0.2649  0.2568
 3640TIP3    H110884   1.457   1.543   1.246 -0.0344 -0.1706 -0.1810
 3640TIP3    H210885   1.398   1.660   1.322 -1.0325 -0.1893 -0.9045
 3641TIP3   OH210886   0.416   5.751   5.052 -0.0267 -0.1788  0.5065
 3641TIP3    H110887   0.466   5.800   5.118  2.5249 -0.3222 -1.1568
 3641TIP3    H210888   0.358   5.816   5.013  0.4993  0.5965  0.9876
 3642TIP3   OH210889   6.324   2.261   2.347  0.2950  0.1480  0.3690
 3642TIP3    H110890   6.235   2.227   2.348 -0.6487  2.4652  1.6180
 3642TIP3    H210891   6.355   2.250   2.437  1.8193 -1.8150 -0.3272
 3643TIP3   OH210892   1.379   0.772   0.247  0.1882 -0.0861 -0.2618
 3643TIP3    H110893   1.337   0.722   0.317  0.5152  0.3597  0.2677
 3643TIP3    H210894   1.316   0.841   0.225  0.0500 -0.2776 -0.4656
 3644TIP3   OH210895   5.356   0.781   1.895  0.4469  0.3032 -0.4955
 3644TIP3    H110896   5.318   0.827   1.820  1.3750 -1.5156 -2.1577
 3644TIP3    H210897   5.288   0.719   1.921 -0.9059  2.6112  1.9060
 3645TIP3   OH210898   4.390   2.871   5.489 -0.0157 -0.0773 -0.1711
 3645TIP3    H110899   4.366   2.783   5.459 -0.9404 -0.0761  0.5213
 3645TIP3    H210900   4.306   2.915   5.503  0.4330  0.7209  0.0658
 3646TIP3   OH210901   6.646   4.996   2.384 -0.0589 -0.1275 -0.1754
 3646TIP3    H110902   6.684   5.083   2.375 -0.9243  0.2266 -0.5623
 3646TIP3    H210903   6.559   5.004   2.343 -0.7133 -0.7796  1.0370
 3647TIP3   OH210904   3.939   1.892   3.507  0.1216  0.3180  0.4216
 3647TIP3    H110905   3.898   1.884   3.593 -1.0812  2.4683  0.1079
 3647TIP3    H210906   3.866   1.901   3.446  0.9924  0.0580 -0.7025
 3648TIP3   OH210907   7.171   0.412   3.284  0.1430  0.1641  0.2707
 3648TIP3    H110908   7.106   0.476   3.314 -1.4716 -1.5061  0.4438
 3648TIP3    H210909   7.121   0.342   3.244  1.7432 -1.6818  1.3061
 3649TIP3   OH210910   1.997   6.534   2.338 -0.1812 -0.0541  0.3302
 3649TIP3    H110911   2.003   6.611   2.282 -1.0009  0.9940  1.6007
 3649TIP3    H210912   2.087   6.500   2.343 -0.3028 -1.1597 -2.8092
 3650TIP3   OH210913   5.089   3.703   2.568 -0.0658 -0.2895 -0.2564
 3650TIP3    H110914   5.117   3.724   2.658 -0.1582 -0.4131 -0.1987
 3650TIP3    H210915   5.171   3.681   2.523  0.0081 -0.0106 -0.2634
 3651TIP3   OH210916   3.413   6.664   0.101 -0.5666 -0.2554 -0.3313
 3651TIP3    H110917   3.416   6.688   0.008  0.2432  1.3839  0.0779
 3651TIP3    H210918   3.352   6.726   0.140  1.9933  1.7431  0.8540
 3652TIP3   OH210919   1.375   6.529   5.110 -0.5663 -0.2464 -0.3619
 3652TIP3    H110920   1.400   6.533   5.018 -0.5783 -1.7320 -0.4532
 3652TIP3    H210921   1.318   6.452   5.116 -0.5553 -0.1768  0.8880
 3653TIP3   OH210922   1.034   4.913   0.620  0.1141 -0.5470 -0.3270
 3653TIP3    H110923   1.086   4.836   0.593 -2.0986 -2.9525  1.7404
 3653TIP3    H210924   1.038   4.912   0.716 -2.3739  0.1205 -0.1536
 3654TIP3   OH210925   5.291   5.407   0.879 -0.1452  0.3538 -0.2548
 3654TIP3    H110926   5.363   5.466   0.901  1.8738 -1.9667 -0.2857
 3654TIP3    H210927   5.286   5.346   0.952  0.2779 -1.6086 -1.7673
 3655TIP3   OH210928   1.167   4.684   4.637 -0.0254 -0.4149 -0.1315
 3655TIP3    H110929   1.076   4.657   4.628  0.0311 -0.5917 -0.1832
 3655TIP3    H210930   1.215   4.625   4.579  0.3574 -1.6398  1.3543
 3656TIP3   OH210931   6.790   6.492   3.039 -0.0751 -0.0903 -0.0244
 3656TIP3    H110932   6.704   6.526   3.012 -0.1096 -1.2102 -1.4667
 3656TIP3    H210933   6.824   6.558   3.099 -0.2691  2.3385 -2.4033
 3657TIP3   OH210934   1.742   1.483   5.359  0.3314  0.2982 -0.3208
 3657TIP3    H110935   1.690   1.560   5.335  0.2434  0.6966  1.0430
 3657TIP3    H210936   1.833   1.514   5.355  0.2311  1.1430  2.2058
 3658TIP3   OH210937   0.281   6.367   4.403  0.0366 -0.2224  0.5259
 3658TIP3    H110938   0.271   6.403   4.491 -1.1704 -1.0168  0.7470
 3658TIP3    H210939   0.337   6.291   4.414 -0.8295 -0.8430  0.7843
 3659TIP3   OH210940   0.944   3.266   2.332 -0.3058 -0.0599 -0.6418
 3659TIP3    H110941   0.950   3.269   2.427 -1.1904 -2.3350 -0.4539
 3659TIP3    H210942   1.018   3.319   2.302  1.4072 -1.1830  1.3232
 3660TIP3   OH210943   2.554   1.821   5.845  0.1074  0.6610  0.4135
 3660TIP3    H110944   2.490   1.767   5.799  0.5484  0.3678  0.1304
 3660TIP3    H210945   2.556   1.903   5.795 -0.8351  1.0911  1.0644
 3661TIP3   OH210946   0.901   0.446   1.613  0.3016 -0.6958 -0.6126
 3661TIP3    H110947   0.966   0.384   1.579  0.1554 -1.4208  0.3691
 3661TIP3    H210948   0.819   0.396   1.612  0.5425 -1.2715  2.1171
 3662TIP3   OH210949   4.110   4.946   3.993 -0.0041  0.4018  0.1820
 3662TIP3    H110950   4.044   4.893   4.038  0.8262 -0.8273  0.0186
 3662TIP3    H210951   4.164   4.981   4.063 -0.2665  0.6516  0.2648
 3663TIP3   OH210952   5.026   3.445   4.009  0.3881  0.1135  0.1945
 3663TIP3    H110953   5.040   3.507   4.080  2.8849 -0.2617  0.0956
 3663TIP3    H210954   5.067   3.364   4.039  2.3694  0.2100 -1.9880
 3664TIP3   OH210955   5.686   3.117   5.238 -0.5546 -0.1177  0.4189
 3664TIP3    H110956   5.763   3.090   5.289 -0.1679 -0.3027 -0.2482
 3664TIP3    H210957   5.723   3.166   5.165 -1.1519  0.7729  0.7015
 3665TIP3   OH210958   3.672   1.096   1.988  0.1850  0.2378 -0.2046
 3665TIP3    H110959   3.647   1.105   2.080  0.3032 -2.6296  0.1947
 3665TIP3    H210960   3.591   1.073   1.943  0.6189 -1.2250 -0.2804
 3666TIP3   OH210961   2.696   3.193   4.175  0.1592  0.1990  0.0324
 3666TIP3    H110962   2.647   3.217   4.096  1.4701  0.6418 -0.6750
 3666TIP3    H210963   2.632   3.203   4.246 -1.1395 -0.5260 -0.9801
 3667TIP3   OH210964   2.770   2.601   0.189  0.1205 -0.6533 -0.0743
 3667TIP3    H110965   2.716   2.523   0.180 -0.3754 -0.1685 -1.9265
 3667TIP3    H210966   2.805   2.616   0.101 -0.1847  1.4526  0.0976
 3668TIP3   OH210967   6.677   5.392   2.621  0.0234  0.2314  0.1946
 3668TIP3    H110968   6.744   5.439   2.670  1.5106 -1.6427  0.0614
 3668TIP3    H210969   6.618   5.461   2.589  2.2816  2.0246 -0.3292
 3669TIP3   OH210970   5.700   2.741   4.926 -0.3207 -0.3972  0.1824
 3669TIP3    H110971   5.711   2.742   5.021 -0.1360 -1.1605  0.1780
 3669TIP3    H210972   5.781   2.701   4.893 -0.0335  0.5866 -0.3591
 3670TIP3   OH210973   6.150   5.911   3.544 -0.6870  0.5852  0.1737
 3670TIP3    H110974   6.123   5.894   3.454  1.1670  1.1850 -0.5373
 3670TIP3    H210975   6.196   5.831   3.571  2.2286  1.7915 -0.8607
 3671TIP3   OH210976   4.517   4.957   1.314 -0.4563 -0.0682 -0.6071
 3671TIP3    H110977   4.456   4.960   1.388 -0.1118 -0.9126 -0.2790
 3671TIP3    H210978   4.571   5.035   1.324  0.7399 -1.0468  1.0614
 3672TIP3   OH210979   4.099   3.156   4.904  0.1779 -0.3381 -0.1141
 3672TIP3    H110980   4.116   3.062   4.911  1.9538 -0.0364  0.1380
 3672TIP3    H210981   4.023   3.171   4.959 -0.8632 -1.7967 -1.0833
 3673TIP3   OH210982   4.409   2.878   2.483 -0.4246 -0.1967  0.4405
 3673TIP3    H110983   4.334   2.888   2.425 -0.1445 -2.4964 -0.4106
 3673TIP3    H210984   4.371   2.843   2.564 -0.4986  0.6505  0.7862
 3674TIP3   OH210985   0.153   3.613   3.207  0.2738 -0.3956 -0.3416
 3674TIP3    H110986   0.214   3.628   3.135 -0.6597  2.7636 -0.5986
 3674TIP3    H210987   0.067   3.636   3.171 -0.2238  1.2324  1.6987
 3675TIP3   OH210988   6.589   4.108   3.622  0.0296  0.2854 -0.7508
 3675TIP3    H110989   6.639   4.145   3.548  1.0168  1.9409  0.6727
 3675TIP3    H210990   6.583   4.180   3.685 -1.3127 -0.9077  0.5515
 3676TIP3   OH210991   0.490   1.686   5.699  0.3956 -0.6396  0.1588
 3676TIP3    H110992   0.557   1.753   5.707 -0.4945  0.2107  0.7230
 3676TIP3    H210993   0.408   1.731   5.721 -0.4823 -1.4325 -1.3189
 3677TIP3   OH210994   0.458   2.588   0.083  0.2422  0.3296 -0.7885
 3677TIP3    H110995   0.472   2.529   0.156  0.7859  0.8448 -0.4687
 3677TIP3    H210996   0.371   2.566   0.050 -0.4309  0.7476  0.6310
 3678TIP3   OH210997   5.953   5.964   4.395  0.4715 -0.3915 -0.3886
 3678TIP3    H110998   5.885   6.014   4.440  0.8090  0.3623 -0.6912
 3678TIP3    H210999   5.980   5.898   4.458  2.0056  1.5804  1.1821
 3679TIP3   OH211000   1.137   5.337   0.310 -0.0641  0.1843 -0.7008
 3679TIP3    H111001   1.129   5.424   0.348  1.4748  0.0019  0.0936
 3679TIP3    H211002   1.071   5.285   0.356 -0.0827  0.6193 -0.2232
 3680TIP3   OH211003   7.190   3.414   3.683 -0.5853  0.4718 -0.1044
 3680TIP3    H111004   7.182   3.395   3.776 -1.6519 -0.8942 -0.4383
 3680TIP3    H211005   7.117   3.472   3.663 -0.4550  0.6310 -0.1154
 3681TIP3   OH211006   2.826   3.586   0.126 -0.1844  0.7433  0.6486
 3681TIP3    H111007   2.920   3.583   0.108 -0.2868  1.8582 -0.2702
 3681TIP3    H211008   2.803   3.498   0.154  1.4607  0.9026  2.6963
 3682TIP3   OH211009   1.207   6.421   1.390 -0.1076 -0.2022 -0.5388
 3682TIP3    H111010   1.269   6.391   1.324 -1.2764  1.6460 -2.6337
 3682TIP3    H211011   1.126   6.374   1.370 -0.8034  1.2355 -1.2446
 3683TIP3   OH211012   0.311   4.054   0.771 -0.2169  0.1096  0.3536
 3683TIP3    H111013   0.333   4.122   0.706 -1.1351 -0.2751 -0.3900
 3683TIP3    H211014   0.350   3.974   0.736 -0.0248  0.0515  0.6970
 3684TIP3   OH211015   6.450   1.374   3.486  0.1630 -0.1130 -0.2208
 3684TIP3    H111016   6.538   1.411   3.492  1.2308 -1.8949 -2.9182
 3684TIP3    H211017   6.457   1.290   3.532 -0.1069 -0.2793 -0.4822
 3685TIP3   OH211018   4.821   2.079   2.659 -0.6548 -0.0150  0.0118
 3685TIP3    H111019   4.744   2.112   2.613 -1.4878 -0.8749  0.7628
 3685TIP3    H211020   4.793   1.998   2.700  0.3481  0.1924  1.1929
 3686TIP3   OH211021   4.388   1.590   0.931 -0.1387 -0.3301 -0.0248
 3686TIP3    H111022   4.377   1.684   0.940  1.8175 -0.0157 -0.5569
 3686TIP3    H211023   4.407   1.559   1.020  3.0487  0.4011 -0.3353
 3687TIP3   OH211024   0.127   3.358   1.915  0.5368  0.0816 -0.3127
 3687TIP3    H111025   0.133   3.334   1.823 -0.0897  0.0827 -0.3602
 3687TIP3    H211026   0.062   3.298   1.951 -2.1084  2.4706 -0.7252
 3688TIP3   OH211027   2.909   3.449   1.898  0.1476 -0.4071 -0.1591
 3688TIP3    H111028   2.898   3.530   1.949 -0.4994  0.4085 -1.5169
 3688TIP3    H211029   2.911   3.479   1.807  0.4941 -1.8858 -0.6627
 3689TIP3   OH211030   1.532   5.129   0.108  0.2412 -0.0031  0.6293
 3689TIP3    H111031   1.441   5.159   0.099  0.6626  1.3393  0.6643
 3689TIP3    H211032   1.583   5.194   0.061  1.2943 -0.0991  1.6105
 3690TIP3   OH211033   6.687   3.195   0.780 -0.1970 -0.0820 -0.3547
 3690TIP3    H111034   6.733   3.119   0.816 -0.2088 -0.3270 -0.8455
 3690TIP3    H211035   6.697   3.263   0.847 -1.9164 -1.0984  1.0019
 3691TIP3   OH211036   2.220   5.620   3.909 -0.1440 -0.8176  0.2915
 3691TIP3    H111037   2.262   5.534   3.909 -1.3670 -1.4764  2.2616
 3691TIP3    H211038   2.282   5.677   3.955 -0.7519 -1.4846  2.0246
 3692TIP3   OH211039   4.906   0.213   4.633 -0.1778  0.1749 -0.4542
 3692TIP3    H111040   4.859   0.146   4.584  0.7457 -0.7256 -0.1232
 3692TIP3    H211041   4.925   0.281   4.568  0.8743 -0.9193 -1.3286
 3693TIP3   OH211042   0.861   6.145   5.085 -0.1417 -0.2611  0.3884
 3693TIP3    H111043   0.881   6.219   5.142  1.4493 -0.4962  0.1592
 3693TIP3    H211044   0.840   6.186   5.001 -1.5952  0.0319  0.8641
 3694TIP3   OH211045   1.826   5.002   2.968  0.0600 -0.4875  0.2672
 3694TIP3    H111046   1.855   4.912   2.986  0.0183 -0.4451  0.5589
 3694TIP3    H211047   1.806   5.038   3.055  2.8507  0.7549  0.5193
 3695TIP3   OH211048   6.528   2.373   4.887 -0.0557  0.1108 -0.6583
 3695TIP3    H111049   6.467   2.308   4.853  0.4503 -0.4237 -0.5447
 3695TIP3    H211050   6.606   2.365   4.833  0.0149  0.6293 -0.6472
 3696TIP3   OH211051   0.360   5.650   2.956 -0.1628 -0.2272 -0.3669
 3696TIP3    H111052   0.296   5.588   2.991 -0.3247  0.3486  0.3887
 3696TIP3    H211053   0.370   5.625   2.864 -2.4850  0.4640 -0.9003
 3697TIP3   OH211054   4.128   1.068   5.548  0.1620 -0.4910  0.2929
 3697TIP3    H111055   4.095   0.978   5.551 -2.3274  0.3551  2.5465
 3697TIP3    H211056   4.084   1.107   5.473  0.1171 -0.7955  0.1593
 3698TIP3   OH211057   5.787   3.659   1.499 -0.0702  0.1878  0.2235
 3698TIP3    H111058   5.759   3.736   1.450 -0.8511  0.2923  0.8179
 3698TIP3    H211059   5.808   3.594   1.432 -0.2629  0.6248 -0.2618
 3699TIP3   OH211060   6.917   6.140   2.842  0.4988 -0.1533 -0.1089
 3699TIP3    H111061   6.958   6.084   2.776  1.7774  1.2637 -0.5963
 3699TIP3    H211062   6.925   6.091   2.924 -1.3624 -2.0646 -0.9724
 3700TIP3   OH211063   1.437   0.207   1.471 -0.6963 -0.2371  0.2745
 3700TIP3    H111064   1.342   0.214   1.464 -1.0952 -2.0830  2.5858
 3700TIP3    H211065   1.461   0.273   1.535 -0.2500  0.7761 -0.8885
 3701TIP3   OH211066   3.228   0.045   2.186 -0.0378 -0.0972 -0.1462
 3701TIP3    H111067   3.248  -0.044   2.157  2.1574  0.4605 -0.5442
 3701TIP3    H211068   3.300   0.098   2.152  0.0594  1.4065  2.1665
 3702TIP3   OH211069   6.255   6.346   0.486 -0.0432  0.0215  0.7218
 3702TIP3    H111070   6.221   6.327   0.399  0.1248 -2.4321  1.1292
 3702TIP3    H211071   6.350   6.342   0.476 -0.0270 -0.6882  1.0641
 3703TIP3   OH211072   3.943   1.903   4.609  0.4503 -0.2518  0.1738
 3703TIP3    H111073   3.948   1.930   4.517 -0.5211 -0.6146  0.0075
 3703TIP3    H211074   3.971   1.980   4.658  0.6879  0.0438 -0.4091
 3704TIP3   OH211075   3.195   2.879   5.396 -0.3125  0.2168 -0.6713
 3704TIP3    H111076   3.122   2.935   5.370  0.6885  1.0577 -1.7854
 3704TIP3    H211077   3.260   2.891   5.327  1.3628  0.3723  0.8763
 3705TIP3   OH211078   3.433   2.597   5.854 -0.4526 -0.4718 -0.0277
 3705TIP3    H111079   3.410   2.640   5.936 -0.9568 -0.2882 -0.2634
 3705TIP3    H211080   3.405   2.658   5.785  2.1233  0.4813 -0.3357
 3706TIP3   OH211081   2.768   2.454   3.543  0.0845  0.4827  0.1292
 3706TIP3    H111082   2.853   2.411   3.544 -0.3560 -0.4240  0.5532
 3706TIP3    H211083   2.741   2.452   3.451  0.0558 -0.2066  0.1456
 3707TIP3   OH211084   4.272   0.433   1.817 -0.2145 -0.0531  0.0437
 3707TIP3    H111085   4.185   0.401   1.838  0.0952 -0.6896  0.4089
 3707TIP3    H211086   4.258   0.507   1.758 -1.0180  0.3093  0.6849
 3708TIP3   OH211087   3.520   4.959   2.822  0.4076 -0.1632  0.2847
 3708TIP3    H111088   3.530   5.009   2.740  0.2690 -0.0486  0.3378
 3708TIP3    H211089   3.510   5.026   2.889  1.7538 -0.2198  0.5677
 3709TIP3   OH211090   1.615   4.437   2.964  0.5185 -0.1816  0.0373
 3709TIP3    H111091   1.635   4.473   3.051 -2.5213  1.5800  0.1383
 3709TIP3    H211092   1.611   4.514   2.907  0.8432 -1.1603 -1.3350
 3710TIP3   OH211093   2.472   2.584   2.345  0.7048  0.0421  0.5841
 3710TIP3    H111094   2.472   2.511   2.408 -0.9924 -0.1482  0.4152
 3710TIP3    H211095   2.561   2.584   2.308  1.1093 -1.1451  1.4876
 3711TIP3   OH211096   5.398   2.867   1.632 -0.2473  0.1437 -0.6245
 3711TIP3    H111097   5.392   2.901   1.721 -0.7632 -0.6485 -0.3522
 3711TIP3    H211098   5.492   2.866   1.613 -0.1136  0.0238  0.0239
 3712TIP3   OH211099   2.087   2.513   3.223 -0.5115  0.0456 -0.4909
 3712TIP3    H111100   2.152   2.582   3.234 -0.3087  0.2846 -2.7499
 3712TIP3    H211101   2.006   2.550   3.258 -0.1297  0.9389 -0.5263
 3713TIP3   OH211102   6.498   5.981   0.140 -0.2996 -0.2626  0.3112
 3713TIP3    H111103   6.407   6.007   0.124  0.3759  1.4520 -1.1192
 3713TIP3    H211104   6.514   6.005   0.232 -1.2937 -0.6425  0.5903
 3714TIP3   OH211105   2.602   0.900   5.138 -0.1313 -0.4283 -0.4399
 3714TIP3    H111106   2.530   0.942   5.185 -0.0132  0.3747 -0.9610
 3714TIP3    H211107   2.606   0.946   5.054  0.0325 -1.4538 -1.0134
 3715TIP3   OH211108   0.557   3.969   0.049 -0.0142 -0.1062 -0.4099
 3715TIP3    H111109   0.512   3.974   0.133 -0.6254  1.7687 -0.7744
 3715TIP3    H211110   0.505   3.907  -0.002 -1.9754  1.5692 -0.6215
 3716TIP3   OH211111   6.096   2.790   2.276  0.1601 -0.1041 -0.1996
 3716TIP3    H111112   6.182   2.767   2.242  0.5386  0.3508  0.4279
 3716TIP3    H211113   6.098   2.763   2.368 -0.2787  0.1329 -0.1162
 3717TIP3   OH211114   5.844   5.647   3.111 -0.3139  0.7652  0.1393
 3717TIP3    H111115   5.767   5.608   3.069 -2.1718  2.9264  1.3086
 3717TIP3    H211116   5.838   5.740   3.091  2.4469  0.9318 -0.2895
 3718TIP3   OH211117   7.018   6.061   5.358 -0.5000  0.5455 -0.8682
 3718TIP3    H111118   7.106   6.039   5.387 -0.6101  2.3321  1.0867
 3718TIP3    H211119   6.968   5.980   5.367  0.7869 -0.3424 -1.4664
 3719TIP3   OH211120   3.897   5.763   1.656 -0.3154  0.2642 -0.0041
 3719TIP3    H111121   3.816   5.712   1.656  0.8962 -1.7716 -0.3397
 3719TIP3    H211122   3.960   5.707   1.701  0.8635  1.9015  0.4399
 3720TIP3   OH211123   4.262   0.266   3.670 -0.0308  0.2625 -0.2247
 3720TIP3    H111124   4.212   0.185   3.659 -0.0779  0.2597  0.0064
 3720TIP3    H211125   4.329   0.262   3.601 -0.3905  0.2985 -0.5822
 3721TIP3   OH211126   2.792   3.536   5.564  0.4764 -0.1538 -0.0158
 3721TIP3    H111127   2.716   3.479   5.572 -0.8341  1.4712 -0.4120
 3721TIP3    H211128   2.789   3.592   5.641 -0.5195  1.9154 -1.4616
 3722TIP3   OH211129   2.385   6.485   1.434 -0.1748  0.9147  0.4235
 3722TIP3    H111130   2.480   6.486   1.448 -0.1315 -0.7831  0.4644
 3722TIP3    H211131   2.351   6.427   1.503 -0.9898 -0.2118 -0.8716
 3723TIP3   OH211132   5.211   2.649   4.916 -0.0102  0.1313 -0.3322
 3723TIP3    H111133   5.212   2.741   4.890  1.2305  0.3188  0.3158
 3723TIP3    H211134   5.303   2.626   4.925 -0.3190 -0.3369  2.3280
 3724TIP3   OH211135   6.168   2.117   3.648  0.3260  0.2717 -0.0615
 3724TIP3    H111136   6.153   2.164   3.730 -1.4735  1.1420 -0.8384
 3724TIP3    H211137   6.104   2.046   3.649  0.7129 -0.0883 -0.4436
 3725TIP3   OH211138   4.056   6.802   5.071  0.7933 -0.4296  0.3795
 3725TIP3    H111139   4.079   6.752   4.993 -0.9170  1.6344 -1.5911
 3725TIP3    H211140   3.961   6.794   5.079  0.7094  0.9072  1.1150
 3726TIP3   OH211141   5.358   1.246   2.030  0.6461  0.3927 -0.3009
 3726TIP3    H111142   5.273   1.225   2.069  0.0681  0.7219 -1.3678
 3726TIP3    H211143   5.411   1.168   2.046 -1.1769 -1.6688 -3.3681
 3727TIP3   OH211144   2.226   6.560   4.935 -0.1969 -0.4299 -0.2253
 3727TIP3    H111145   2.230   6.561   5.030  1.9453 -1.0205 -0.2581
 3727TIP3    H211146   2.238   6.652   4.909 -0.7952 -0.2677  0.0496
 3728TIP3   OH211147   6.031   2.738   5.702  0.5173  0.3522  0.2376
 3728TIP3    H111148   5.995   2.822   5.674 -1.6221  1.3798  4.9926
 3728TIP3    H211149   5.954   2.682   5.714  1.4530 -0.7502  1.3817
 3729TIP3   OH211150   4.235   2.547   3.845  0.1514  0.7247 -0.2208
 3729TIP3    H111151   4.246   2.484   3.774 -2.6236  0.1567 -0.2347
 3729TIP3    H211152   4.260   2.631   3.807 -1.6519  0.5014 -2.0523
 3730TIP3   OH211153   2.821   0.537   2.182 -0.5339 -0.6409 -0.3184
 3730TIP3    H111154   2.805   0.629   2.206 -0.1511 -1.0633  1.7344
 3730TIP3    H211155   2.773   0.525   2.100 -1.7911  1.0016  0.1251
 3731TIP3   OH211156   1.831   5.921   5.390 -0.3221 -0.3532  0.2799
 3731TIP3    H111157   1.793   5.839   5.358 -1.6151  0.4508 -0.3489
 3731TIP3    H211158   1.772   5.949   5.460 -0.3910  0.4586 -0.0937
 3732TIP3   OH211159   6.524   5.910   5.495 -0.2420  0.1662 -0.0279
 3732TIP3    H111160   6.602   5.934   5.546  0.8304 -0.2384 -1.3817
 3732TIP3    H211161   6.480   5.993   5.478  0.5110  0.5465 -0.1744
 3733TIP3   OH211162   0.905   6.096   5.829  0.4216 -0.5278 -0.3763
 3733TIP3    H111163   0.994   6.073   5.804  1.0303  0.8736  0.3690
 3733TIP3    H211164   0.907   6.096   5.925 -0.8850 -2.2596 -0.3121
 3734TIP3   OH211165   1.874   0.656   4.756  0.1649 -0.8188  0.0617
 3734TIP3    H111166   1.892   0.646   4.662 -1.0375  1.0432 -0.4295
 3734TIP3    H211167   1.799   0.599   4.773  0.8602 -1.7482  0.0907
 3735TIP3   OH211168   4.392   0.494   2.711  0.4062 -0.2349  0.0570
 3735TIP3    H111169   4.415   0.402   2.720 -1.9813 -1.1211 -1.7633
 3735TIP3    H211170   4.420   0.534   2.794  2.4192 -2.3276  0.4936
 3736TIP3   OH211171   0.982   6.337   2.954  0.2463  0.1775  0.3603
 3736TIP3    H111172   1.004   6.341   2.861  0.3778  1.9101  0.4155
 3736TIP3    H211173   1.035   6.265   2.988  0.9691  0.1683 -0.7194
 3737TIP3   OH211174   1.094   4.707   4.285  0.1130 -0.3555  0.4119
 3737TIP3    H111175   1.037   4.782   4.303  0.5367  0.6708 -2.0396
 3737TIP3    H211176   1.141   4.732   4.205  1.0745 -2.8092  0.1314
 3738TIP3   OH211177   3.426   3.507   1.859  0.2810  0.5468 -0.5380
 3738TIP3    H111178   3.453   3.430   1.808  1.7179 -0.9548  2.2940
 3738TIP3    H211179   3.495   3.571   1.843 -0.3524  0.9109 -2.0346
 3739TIP3   OH211180   3.457   5.207   2.933 -0.5933  0.8020  0.4697
 3739TIP3    H111181   3.402   5.191   3.009  1.9248  0.7905  2.4322
 3739TIP3    H211182   3.511   5.282   2.957  1.6896 -0.4430 -0.3837
 3740TIP3   OH211183   3.088   3.980   2.154  0.1802  0.0312 -0.1593
 3740TIP3    H111184   3.040   4.027   2.221  0.5846 -0.3895  0.4302
 3740TIP3    H211185   3.092   3.889   2.185 -1.2510 -0.5916 -1.6327
 3741TIP3   OH211186   6.432   1.618   0.906  0.1271 -0.6093  0.2982
 3741TIP3    H111187   6.489   1.556   0.951  1.7641  0.4736 -0.2313
 3741TIP3    H211188   6.474   1.703   0.917 -0.8646  0.0796 -0.9764
 3742TIP3   OH211189   3.662   3.936   3.533 -0.0243  0.3994 -0.0748
 3742TIP3    H111190   3.747   3.935   3.578  0.8253  1.3641 -1.5456
 3742TIP3    H211191   3.633   4.027   3.538 -0.3931  0.3184 -0.5922
 3743TIP3   OH211192   2.134   4.647   3.116 -0.3002  0.0938 -1.1043
 3743TIP3    H111193   2.138   4.558   3.151  0.7957  0.3181 -0.6003
 3743TIP3    H211194   2.208   4.653   3.057  0.5236  1.1022 -0.0242
 3744TIP3   OH211195   3.552   3.506   2.446  0.3987  0.2587  0.1628
 3744TIP3    H111196   3.536   3.459   2.528  1.9727 -1.3119 -0.3698
 3744TIP3    H211197   3.522   3.596   2.464  3.1168  0.7457  3.4190
 3745TIP3   OH211198   3.626   5.367   0.239  0.1387  0.4423  0.5540
 3745TIP3    H111199   3.649   5.346   0.329 -0.8199 -0.5068  0.6006
 3745TIP3    H211200   3.637   5.284   0.191 -1.0899  0.4752  0.1808
 3746TIP3   OH211201   6.223   4.452   4.758  0.6025  0.3027 -0.2781
 3746TIP3    H111202   6.208   4.444   4.664  0.1608  1.0127 -0.2790
 3746TIP3    H211203   6.155   4.399   4.798  1.6510 -1.1661 -0.3632
 3747TIP3   OH211204   7.109   0.968   1.602 -0.1449  0.3375 -0.2024
 3747TIP3    H111205   7.178   1.018   1.560  0.6984  0.5415  1.3512
 3747TIP3    H211206   7.145   0.879   1.610 -1.1379 -0.2593 -1.7922
 3748TIP3   OH211207   6.151   4.094   5.787 -0.2024 -0.2623  0.0324
 3748TIP3    H111208   6.107   4.012   5.811  1.8561 -0.3975  4.3811
 3748TIP3    H211209   6.100   4.161   5.831  0.5072  0.2683  0.0564
 3749TIP3   OH211210   5.956   1.744   2.856 -0.1622  0.2282 -0.3403
 3749TIP3    H111211   6.044   1.770   2.826 -0.1275 -1.1694 -1.5623
 3749TIP3    H211212   5.971   1.663   2.905 -0.6915  0.4093  0.1252
 3750TIP3   OH211213   0.412   1.117   1.466 -0.6298  0.1225  0.1309
 3750TIP3    H111214   0.341   1.121   1.402  0.8782 -2.1602 -1.8644
 3750TIP3    H211215   0.386   1.048   1.527 -1.0025  0.6874  0.6252
 3751TIP3   OH211216   1.120   2.221   3.255 -0.6924 -0.2621 -0.6029
 3751TIP3    H111217   1.155   2.285   3.192 -1.3188  0.3927 -0.2952
 3751TIP3    H211218   1.142   2.258   3.341 -1.4370 -0.2436 -0.4185
 3752TIP3   OH211219   2.577   5.517   3.557  0.2007 -0.5472  0.5372
 3752TIP3    H111220   2.615   5.602   3.577 -0.5066 -0.3291  1.0082
 3752TIP3    H211221   2.651   5.461   3.534  0.6615  0.2061  0.1798
 3753TIP3   OH211222   6.947   2.899   2.794 -0.1193  0.0807 -0.0237
 3753TIP3    H111223   6.948   2.822   2.851 -1.5815 -0.8657 -1.2079
 3753TIP3    H211224   6.968   2.865   2.707 -2.9986  0.5288 -1.0128
 3754TIP3   OH211225   1.185   4.126   3.882  0.0052  0.2628 -0.3163
 3754TIP3    H111226   1.113   4.073   3.917 -1.1706  0.9155 -1.6141
 3754TIP3    H211227   1.154   4.216   3.890  0.9506  0.6027 -0.3409
 3755TIP3   OH211228   2.608   1.545   5.706  0.4900 -0.7145  0.1232
 3755TIP3    H111229   2.565   1.483   5.766 -1.5069 -0.3472 -0.8343
 3755TIP3    H211230   2.631   1.492   5.630 -1.7908 -0.2805 -0.9687
 3756TIP3   OH211231   6.912   3.851   1.029 -0.0995  0.1765 -0.6379
 3756TIP3    H111232   6.840   3.847   0.966 -1.9784 -1.5992  1.4384
 3756TIP3    H211233   6.901   3.936   1.072 -2.2200 -0.7378  0.8630
 3757TIP3   OH211234   5.242   2.380   1.591  0.4926  0.2514  0.9898
 3757TIP3    H111235   5.283   2.461   1.563  1.5985 -1.1447 -1.7465
 3757TIP3    H211236   5.149   2.402   1.601  0.5888  1.6246 -0.7765
 3758TIP3   OH211237   4.173   5.468   4.422 -0.1624 -0.3132  0.0341
 3758TIP3    H111238   4.256   5.502   4.390  1.0967 -1.0027  2.3164
 3758TIP3    H211239   4.186   5.373   4.427 -0.8172 -0.3708  1.0504
 3759TIP3   OH211240   6.091   0.788   1.919 -0.3664 -0.0932  0.3429
 3759TIP3    H111241   6.093   0.765   1.826 -1.5880 -1.6788  0.6599
 3759TIP3    H211242   6.055   0.877   1.921 -0.7439 -0.2136 -0.6881
 3760TIP3   OH211243   3.977   2.959   2.682 -0.2947  0.5947 -0.2183
 3760TIP3    H111244   4.063   3.000   2.669  0.9629 -1.2672  1.6718
 3760TIP3    H211245   3.997   2.867   2.701 -2.8666 -0.4172 -1.8993
 3761TIP3   OH211246   2.178   5.322   4.104 -0.6440  0.0490  0.3219
 3761TIP3    H111247   2.211   5.232   4.112 -0.4983  0.0934  0.2238
 3761TIP3    H211248   2.221   5.369   4.175 -0.9663 -0.0295  0.5736
 3762TIP3   OH211249   2.438   2.998   5.077 -0.0701  0.0918  0.4571
 3762TIP3    H111250   2.435   3.066   5.144 -0.3897  0.8216 -0.2890
 3762TIP3    H211251   2.511   2.941   5.104  0.3034  0.8105  0.9992
 3763TIP3   OH211252   5.597   6.348   0.609  0.6766  0.2721  0.3838
 3763TIP3    H111253   5.643   6.417   0.563  2.4688 -1.5161 -0.6746
 3763TIP3    H211254   5.659   6.318   0.676 -0.3247  0.1090  1.2729
 3764TIP3   OH211255   3.142   4.715   2.069  0.3031  0.1842 -0.5259
 3764TIP3    H111256   3.102   4.792   2.028 -2.4018 -1.2518 -0.7939
 3764TIP3    H211257   3.183   4.668   1.996  3.0394  1.8302 -0.2032
 3765TIP3   OH211258   1.101   3.931   4.604  0.5252  0.0990  0.4729
 3765TIP3    H111259   1.096   3.857   4.545 -1.6997  2.1309 -2.1380
 3765TIP3    H211260   1.185   3.920   4.649  2.5456 -1.5262 -3.2216
 3766TIP3   OH211261   7.212   4.972   4.535  0.5948  0.2890 -0.0971
 3766TIP3    H111262   7.239   4.996   4.446  1.2929  0.1173  0.0644
 3766TIP3    H211263   7.117   4.970   4.531  0.5058  2.4746 -0.2813
 3767TIP3   OH211264   4.290   5.785   3.055  0.1968 -0.3868 -0.2237
 3767TIP3    H111265   4.236   5.840   3.113  1.0655  0.5066 -0.2364
 3767TIP3    H211266   4.233   5.765   2.981  0.2324  1.5715 -0.8301
 3768TIP3   OH211267   0.452   1.828   0.574  0.4051  0.1253  0.0657
 3768TIP3    H111268   0.369   1.862   0.542 -0.3406 -1.4275  0.2669
 3768TIP3    H211269   0.508   1.823   0.496  0.9256  2.7485  0.1961
 3769TIP3   OH211270   2.897   4.256   1.629 -0.6383  0.1584  0.3254
 3769TIP3    H111271   2.860   4.167   1.630  0.3343 -0.2544  1.1492
 3769TIP3    H211272   2.860   4.296   1.551  1.1447 -1.9414 -1.7423
 3770TIP3   OH211273   3.728   1.907   1.358  0.2725  0.1564  0.2488
 3770TIP3    H111274   3.790   1.834   1.356 -0.6514 -0.6415 -0.2063
 3770TIP3    H211275   3.667   1.889   1.286 -0.2719  1.1144  0.4502
 3771TIP3   OH211276   0.319   0.401   0.927 -0.5450  0.0429 -0.1232
 3771TIP3    H111277   0.412   0.409   0.906 -0.4703 -1.3840 -0.4462
 3771TIP3    H211278   0.317   0.367   1.016 -0.8127  1.8485  0.6060
 3772TIP3   OH211279   5.292   4.296   2.363  0.3351 -0.0323  0.0608
 3772TIP3    H111280   5.310   4.375   2.312 -2.0461  1.9351  2.0402
 3772TIP3    H211281   5.220   4.253   2.316 -0.3036  0.5412  0.5037
 3773TIP3   OH211282   2.325   0.421   2.625 -0.0659  0.1044 -0.0671
 3773TIP3    H111283   2.328   0.413   2.720 -1.1465 -0.1823 -0.0501
 3773TIP3    H211284   2.300   0.334   2.594 -1.9609  0.7464 -0.4702
 3774TIP3   OH211285   0.125   6.691   0.351  0.2443  0.5957  0.8346
 3774TIP3    H111286   0.173   6.626   0.299 -0.3016  0.8847 -0.0491
 3774TIP3    H211287   0.176   6.771   0.343  0.6518  0.4104  1.5153
 3775TIP3   OH211288   2.773   0.894   4.690  0.1199 -0.3806 -1.0087
 3775TIP3    H111289   2.709   0.964   4.695  1.2157  0.6416 -0.7892
 3775TIP3    H211290   2.847   0.932   4.643  1.8343 -0.4842  1.3855
 3776TIP3   OH211291   2.632   1.275   2.026  0.9160  0.5906  0.2425
 3776TIP3    H111292   2.586   1.294   2.107  2.0787 -1.2563  1.4039
 3776TIP3    H211293   2.591   1.195   1.992  1.4475  0.4811 -0.1637
 3777TIP3   OH211294   2.007   1.670   3.705  0.5392 -0.3718 -0.3719
 3777TIP3    H111295   1.959   1.593   3.675 -0.9750  0.5453 -0.4306
 3777TIP3    H211296   2.094   1.662   3.665  1.3357 -3.3168  1.6546
 3778TIP3   OH211297   1.562   0.186   5.092 -0.2685  0.2305  0.2415
 3778TIP3    H111298   1.541   0.241   5.167 -1.1922 -1.3491  1.2161
 3778TIP3    H211299   1.648   0.216   5.063 -0.0824  1.1724  1.6576
 3779TIP3   OH211300   4.711   4.400   5.144 -0.6033 -0.1214  0.2395
 3779TIP3    H111301   4.742   4.403   5.054 -1.5213  1.5892 -0.0724
 3779TIP3    H211302   4.789   4.420   5.197  0.0490 -1.6194 -0.0941
 3780TIP3   OH211303   2.425   1.731   0.300  0.2344 -0.2292  0.1724
 3780TIP3    H111304   2.375   1.694   0.227 -1.5828  1.4802  0.4939
 3780TIP3    H211305   2.471   1.655   0.338 -0.1630 -1.4430 -1.6329
 3781TIP3   OH211306   5.849   0.632   0.312  0.0833  0.0314  0.0876
 3781TIP3    H111307   5.905   0.706   0.336  1.5433 -0.8950 -0.3163
 3781TIP3    H211308   5.789   0.622   0.386  0.5471  0.9733  0.6086
 3782TIP3   OH211309   4.751   1.997   5.547  0.0190  0.0254  0.4417
 3782TIP3    H111310   4.730   1.934   5.616 -2.5357 -0.1111 -0.3412
 3782TIP3    H211311   4.758   1.945   5.467  0.6945  0.4218  0.2333
 3783TIP3   OH211312   1.260   4.849   2.452  0.0718 -0.1657  0.8268
 3783TIP3    H111313   1.215   4.882   2.375  0.0994  1.6256  1.5255
 3783TIP3    H211314   1.274   4.756   2.434  0.4562  0.2735 -1.4905
 3784TIP3   OH211315   6.309   6.175   3.165  0.1149 -0.0778  0.1404
 3784TIP3    H111316   6.315   6.147   3.073 -0.2995 -1.1159  0.4172
 3784TIP3    H211317   6.334   6.267   3.163 -0.6677  0.1377 -1.1393
 3785TIP3   OH211318   0.498   5.975   1.396 -0.1564 -0.3153 -0.6700
 3785TIP3    H111319   0.498   5.968   1.492 -0.0344  0.3470 -0.6171
 3785TIP3    H211320   0.578   6.022   1.375 -0.4411 -0.0025 -1.0651
 3786TIP3   OH211321   3.129   3.291   2.631  0.6289 -0.3510 -0.0632
 3786TIP3    H111322   3.068   3.310   2.703 -0.2233 -1.6826 -0.4046
 3786TIP3    H211323   3.163   3.377   2.606  0.2821  0.2248  1.3533
 3787TIP3   OH211324   5.921   5.432   0.273  0.6913 -0.2390 -0.3696
 3787TIP3    H111325   5.921   5.345   0.235  0.9764 -1.0532  1.3664
 3787TIP3    H211326   5.829   5.459   0.272  0.3843 -1.2037  0.3959
 3788TIP3   OH211327   5.939   1.923   5.401 -0.5015 -0.1686 -0.0642
 3788TIP3    H111328   5.914   1.833   5.420 -0.4800 -0.0627  0.4860
 3788TIP3    H211329   5.953   1.963   5.487  0.7489  0.0001 -0.3239
 3789TIP3   OH211330   2.811   2.724   4.267 -0.1840 -0.2597 -0.0113
 3789TIP3    H111331   2.854   2.643   4.241 -0.3868  0.3317 -2.3663
 3789TIP3    H211332   2.718   2.703   4.265 -0.2675  0.1463 -1.2016
 3790TIP3   OH211333   2.356   6.551   1.082 -0.0118 -0.0513  0.2336
 3790TIP3    H111334   2.391   6.468   1.116  2.2645  0.0781 -1.5458
 3790TIP3    H211335   2.288   6.524   1.020 -1.0593 -0.4533  1.5253
 3791TIP3   OH211336   0.508   6.300   1.300  0.7078 -0.4882 -0.2612
 3791TIP3    H111337   0.507   6.396   1.291 -1.2109 -0.4130  0.2067
 3791TIP3    H211338   0.562   6.284   1.377 -0.8774  0.4432  1.1282
 3792TIP3   OH211339   4.974   6.766   1.086  0.1773 -0.0152 -0.1322
 3792TIP3    H111340   4.991   6.672   1.089  1.3315  0.1690 -0.2423
 3792TIP3    H211341   4.985   6.796   1.176 -0.0011  0.0511 -0.1313
 3793TIP3   OH211342   2.147   2.859   3.677  0.2535  0.1187 -0.6158
 3793TIP3    H111343   2.151   2.942   3.629  2.5549  0.7676  0.5356
 3793TIP3    H211344   2.068   2.867   3.731  0.3865  1.5587 -0.5739
 3794TIP3   OH211345   2.652   6.082   3.733  0.1268 -0.5941  0.1636
 3794TIP3    H111346   2.559   6.059   3.722  0.0292  0.0061 -0.3359
 3794TIP3    H211347   2.660   6.169   3.693  0.8945 -0.6165  0.2539
 3795TIP3   OH211348   0.432   3.147   5.587 -0.2161 -1.1259  0.4562
 3795TIP3    H111349   0.371   3.153   5.513  0.1634 -1.0382  0.1440
 3795TIP3    H211350   0.463   3.237   5.600 -0.5300 -1.0879  0.9341
 3796TIP3   OH211351   7.074   6.419   5.198 -0.4135  0.1480  0.1069
 3796TIP3    H111352   7.130   6.343   5.209 -2.8899 -1.8605 -0.3900
 3796TIP3    H211353   7.052   6.421   5.105 -3.1667 -0.7350  0.6340
 3797TIP3   OH211354   4.488   1.753   4.007 -0.4185 -0.5420  0.4545
 3797TIP3    H111355   4.480   1.661   3.985 -2.2575 -0.3854  0.3249
 3797TIP3    H211356   4.541   1.790   3.936 -0.7811 -1.2487 -0.2002
 3798TIP3   OH211357   1.327   2.668   1.288  0.6256 -0.1358 -0.1733
 3798TIP3    H111358   1.237   2.666   1.321  0.0760  2.4010 -1.2111
 3798TIP3    H211359   1.361   2.580   1.301 -0.9275 -0.3729  3.1940
 3799TIP3   OH211360   1.735   1.381   4.197  0.1981 -0.5955 -0.1551
 3799TIP3    H111361   1.674   1.404   4.267  0.6187  0.6414 -0.1716
 3799TIP3    H211362   1.697   1.419   4.118  0.6415 -0.4126 -0.2825
 3800TIP3   OH211363   2.639   0.018   2.161 -0.7565 -0.3795 -0.4212
 3800TIP3    H111364   2.641   0.113   2.169 -0.6961 -0.5444  2.1623
 3800TIP3    H211365   2.631  -0.014   2.250  2.3505 -2.9179 -0.8638
 3801TIP3   OH211366   0.942   1.250   3.483 -0.1053  0.6431  0.4622
 3801TIP3    H111367   0.855   1.251   3.444 -0.1192 -1.4821  0.3313
 3801TIP3    H211368   0.994   1.197   3.424  1.3487  1.9671  0.4884
 3802TIP3   OH211369   1.456   5.226   2.737 -0.0550 -0.0165 -0.7065
 3802TIP3    H111370   1.393   5.261   2.799  0.4012 -1.9034  0.9329
 3802TIP3    H211371   1.412   5.149   2.699  0.3188  0.1331 -1.4753
 3803TIP3   OH211372   3.201   2.415   3.331  0.0326  0.5554  0.9826
 3803TIP3    H111373   3.273   2.376   3.380  0.3220  0.6425  0.6292
 3803TIP3    H211374   3.243   2.459   3.257 -0.4368 -0.0083  0.3647
 3804TIP3   OH211375   4.112   4.048   2.102  0.1913  0.2635  0.1523
 3804TIP3    H111376   4.094   4.138   2.126 -0.1205  0.2349  0.0245
 3804TIP3    H211377   4.033   4.000   2.126  0.5247 -0.0577  0.6446
 3805TIP3   OH211378   1.315   6.805   0.051 -0.3696 -0.2460  1.0490
 3805TIP3    H111379   1.240   6.810   0.110  0.0593  0.5523  1.5380
 3805TIP3    H211380   1.288   6.742  -0.017 -0.1733 -2.6724  3.0675
 3806TIP3   OH211381   3.698   1.855   1.081 -0.1114 -0.1413 -0.1906
 3806TIP3    H111382   3.635   1.903   1.028 -0.7967 -1.9289 -1.0726
 3806TIP3    H211383   3.669   1.764   1.077  2.6485 -1.1026 -0.8218
 3807TIP3   OH211384   6.188   6.015   2.285  0.3272 -0.7153  0.1076
 3807TIP3    H111385   6.157   5.925   2.287  0.8456 -1.0857  5.6291
 3807TIP3    H211386   6.280   6.010   2.312  0.7757  1.4454 -0.7494
 3808TIP3   OH211387   0.604   3.347   3.312 -0.0192 -0.1300 -0.0128
 3808TIP3    H111388   0.556   3.405   3.253  2.3201 -0.7833 -2.7835
 3808TIP3    H211389   0.542   3.328   3.382 -3.0690  0.6236 -2.2755
 3809TIP3   OH211390   0.953   5.592   2.757  0.5526 -0.3420 -0.3416
 3809TIP3    H111391   1.026   5.654   2.757  0.9786 -0.8012 -1.3742
 3809TIP3    H211392   0.995   5.506   2.761  0.0707 -0.6070 -0.7660
 3810TIP3   OH211393   6.579   0.760   5.152  0.1250 -0.4987 -0.7828
 3810TIP3    H111394   6.488   0.789   5.154  0.4530  0.5662  0.6825
 3810TIP3    H211395   6.594   0.724   5.239  1.5331  0.8829 -0.4038
 3811TIP3   OH211396   1.484   4.547   5.181  0.1434  0.1682  0.1237
 3811TIP3    H111397   1.577   4.571   5.188  0.2313 -0.0409 -0.3302
 3811TIP3    H211398   1.458   4.577   5.094 -0.2154  0.2226  0.2503
 3812TIP3   OH211399   1.269   3.403   3.674  0.1518  0.5387 -0.0509
 3812TIP3    H111400   1.289   3.360   3.757 -2.0383 -1.1206 -0.2779
 3812TIP3    H211401   1.230   3.486   3.699 -2.0451 -0.6445  0.7336
 3813TIP3   OH211402   6.300   0.769   2.139  0.2041  0.6988  0.2033
 3813TIP3    H111403   6.255   0.763   2.055  1.3056 -2.2112 -0.2957
 3813TIP3    H211404   6.231   0.757   2.204 -0.2132 -0.6993 -0.4534
 3814TIP3   OH211405   6.888   0.718   3.573 -0.0811 -0.2464  0.3362
 3814TIP3    H111406   6.910   0.709   3.666 -0.7088  1.7203  0.7080
 3814TIP3    H211407   6.813   0.660   3.560  0.5880 -1.2549  0.8010
 3815TIP3   OH211408   5.108   2.031   2.447 -0.3891  0.1678  0.0533
 3815TIP3    H111409   5.112   2.118   2.487 -0.7879 -0.3293  1.2443
 3815TIP3    H211410   5.193   1.992   2.465 -1.0014 -0.5341  1.6315
 3816TIP3   OH211411   0.233   4.182   0.224 -0.2390  0.2568 -0.3667
 3816TIP3    H111412   0.270   4.186   0.136 -1.6387  1.5883 -0.9422
 3816TIP3    H211413   0.143   4.152   0.211 -0.1221 -0.6198  0.7353
 3817TIP3   OH211414   3.235   3.907   0.162  0.4690  0.6763  0.6205
 3817TIP3    H111415   3.325   3.881   0.146  0.3936  2.2072 -3.3929
 3817TIP3    H211416   3.241   3.993   0.204  1.0547  1.9961 -1.9808
 3818TIP3   OH211417   5.754   2.260   4.391 -0.5517 -0.2345 -0.2532
 3818TIP3    H111418   5.800   2.317   4.453  3.1989 -2.6284 -0.5436
 3818TIP3    H211419   5.705   2.199   4.447 -0.2699 -0.0290  0.2252
 3819TIP3   OH211420   1.444   3.548   2.323 -0.0581 -0.3357  0.1677
 3819TIP3    H111421   1.482   3.535   2.410  0.0102  0.6254  0.2922
 3819TIP3    H211422   1.504   3.608   2.279 -0.9043  0.4304  0.0232
 3820TIP3   OH211423   7.117   1.205   0.694  0.0528 -0.3763  0.2468
 3820TIP3    H111424   7.082   1.248   0.772  0.0279  0.0862 -0.0213
 3820TIP3    H211425   7.044   1.153   0.661 -0.1561  0.0070  0.1085
 3821TIP3   OH211426   5.234   0.196   0.719 -0.4226 -0.1034  0.1470
 3821TIP3    H111427   5.207   0.123   0.663 -0.0450 -0.8893  0.9722
 3821TIP3    H211428   5.213   0.168   0.808 -2.2417  1.6705  0.3324
 3822TIP3   OH211429   3.186   3.788   3.322 -0.5266 -0.1584 -0.6631
 3822TIP3    H111430   3.149   3.869   3.357  0.4243  0.0911 -0.1929
 3822TIP3    H211431   3.138   3.718   3.366 -0.5264  0.1540 -0.1657
 3823TIP3   OH211432   0.963   3.737   4.422 -0.4350  0.0371  0.3557
 3823TIP3    H111433   0.973   3.648   4.387 -1.0400  0.5896 -1.3039
 3823TIP3    H211434   1.031   3.788   4.378 -1.4764  0.8403 -0.3729
 3824TIP3   OH211435   1.333   6.745   3.014  0.2121  0.3686  0.0232
 3824TIP3    H111436   1.242   6.752   2.985 -0.1394  1.0928  1.2499
 3824TIP3    H211437   1.382   6.799   2.952  0.0579 -1.2312 -1.5722
 3825TIP3   OH211438   3.788   2.582   3.807 -0.4385 -0.0335  0.0102
 3825TIP3    H111439   3.846   2.539   3.870 -0.1510  0.3619  0.0214
 3825TIP3    H211440   3.823   2.671   3.799  0.2748 -0.4177 -1.6241
 3826TIP3   OH211441   0.066   6.488   4.064 -0.5097  0.3906  0.3557
 3826TIP3    H111442   0.137   6.534   4.108 -1.8665 -0.2884  3.5211
 3826TIP3    H211443   0.084   6.395   4.082  0.3182 -0.2222 -2.9834
 3827TIP3   OH211444   6.197   1.975   4.906  0.5367  0.0689  0.2622
 3827TIP3    H111445   6.265   1.915   4.936  0.7896  0.9327  1.5006
 3827TIP3    H211446   6.134   1.978   4.978 -0.6729 -0.4776 -0.7397
 3828TIP3   OH211447   5.689   2.085   0.038  0.3406 -0.5308  0.4607
 3828TIP3    H111448   5.606   2.090  -0.009  0.1834 -0.5511  0.7343
 3828TIP3    H211449   5.704   2.174   0.071  0.0407 -0.6957  1.0651
 3829TIP3   OH211450   5.255   2.151   5.315 -0.5801 -0.3484  0.5953
 3829TIP3    H111451   5.294   2.193   5.392 -1.3047  1.5186  0.0080
 3829TIP3    H211452   5.160   2.161   5.328 -0.7137 -0.1691 -0.4495
 3830TIP3   OH211453   1.386   6.444   0.127 -0.5727  0.4645 -0.3074
 3830TIP3    H111454   1.432   6.435   0.211 -0.4564 -1.4502 -0.5338
 3830TIP3    H211455   1.456   6.454   0.063 -0.5202 -0.9819 -0.4883
 3831TIP3   OH211456   2.406   3.554   0.627 -0.9252 -0.5899 -0.4738
 3831TIP3    H111457   2.474   3.607   0.669 -0.0946 -1.7855 -0.2444
 3831TIP3    H211458   2.324   3.587   0.663 -0.3179 -0.5553  0.9447
 3832TIP3   OH211459   3.005   0.081   0.129 -0.0936 -0.3703  0.0087
 3832TIP3    H111460   3.079   0.112   0.076 -0.5648 -0.5926 -0.7900
 3832TIP3    H211461   2.927   0.111   0.082 -0.5796 -2.4928 -0.6443
 3833TIP3   OH211462   0.235   1.528   0.783 -0.5491  0.0116 -0.3882
 3833TIP3    H111463   0.239   1.623   0.776  0.4387 -0.0977 -1.6873
 3833TIP3    H211464   0.294   1.496   0.714  2.0039 -1.4961  2.2528
 3834TIP3   OH211465   0.428   5.241   3.716  0.0978  0.6604 -0.7474
 3834TIP3    H111466   0.513   5.198   3.723 -0.0921  0.4349  0.4453
 3834TIP3    H211467   0.371   5.175   3.677 -0.2041 -0.2631  1.1133
 3835TIP3   OH211468   2.443   6.740   2.352  0.0853  0.5996 -0.5969
 3835TIP3    H111469   2.391   6.757   2.430 -0.4425 -1.4612 -0.4196
 3835TIP3    H211470   2.378   6.732   2.282  0.1685 -1.2786 -0.5082
 3836TIP3   OH211471   2.271   6.390   0.878  0.1678  0.2601  0.3454
 3836TIP3    H111472   2.241   6.309   0.919  1.4823  0.1011  1.0810
 3836TIP3    H211473   2.194   6.425   0.834 -1.2660  0.2676  2.6724
 3837TIP3   OH211474   6.399   1.952   3.426 -0.0810 -0.5822 -0.3041
 3837TIP3    H111475   6.360   2.000   3.499 -0.1637  2.8428 -2.3905
 3837TIP3    H211476   6.327   1.901   3.390 -0.7046 -0.2568  0.4460
 3838TIP3   OH211477   6.727   6.415   1.782 -0.1416  0.3593 -0.1037
 3838TIP3    H111478   6.635   6.386   1.788 -0.4372  1.1184 -0.7403
 3838TIP3    H211479   6.754   6.428   1.872  0.1132 -2.1736  0.2540
 3839TIP3   OH211480   2.058   6.100   5.677 -0.2657 -0.2291  0.0088
 3839TIP3    H111481   2.125   6.161   5.707 -0.0323 -0.1296 -0.6933
 3839TIP3    H211482   2.081   6.016   5.717 -0.1937 -0.0188  0.4202
 3840TIP3   OH211483   2.350   6.273   3.017 -0.3167  0.6427  0.0103
 3840TIP3    H111484   2.258   6.282   3.041 -0.0117  0.3232  1.3577
 3840TIP3    H211485   2.372   6.355   2.972 -0.7512  1.5526  1.4003
 3841TIP3   OH211486   6.310   3.798   3.759 -0.4553  0.0178  0.1106
 3841TIP3    H111487   6.292   3.798   3.665 -1.1559 -1.7806  0.2090
 3841TIP3    H211488   6.301   3.889   3.785  2.8328  1.1467 -2.0789
 3842TIP3   OH211489   1.661   6.477   2.878 -0.1924  0.0893  0.0238
 3842TIP3    H111490   1.715   6.483   2.799 -0.5255 -0.6929 -0.2727
 3842TIP3    H211491   1.571   6.480   2.846 -0.3308  0.6226  0.4533
 3843TIP3   OH211492   3.619   5.472   1.409 -0.1014  0.1275 -0.4199
 3843TIP3    H111493   3.630   5.438   1.498 -0.2148 -0.4728 -0.6273
 3843TIP3    H211494   3.702   5.452   1.366  0.6443  2.0553  0.0593
 3844TIP3   OH211495   6.861   4.858   2.948 -0.4106 -0.0102 -0.0955
 3844TIP3    H111496   6.899   4.781   2.906 -3.1399 -1.5654  0.0713
 3844TIP3    H211497   6.847   4.920   2.877  0.3144 -0.2936 -0.4972
 3845TIP3   OH211498   6.424   2.338   4.278 -0.1164 -0.0780 -0.4204
 3845TIP3    H111499   6.336   2.308   4.257 -0.9103  1.8880 -0.1211
 3845TIP3    H211500   6.462   2.363   4.194  0.2318 -1.0308 -0.5632
 3846TIP3   OH211501   6.640   3.528   1.927 -0.0948 -0.2656  0.7154
 3846TIP3    H111502   6.721   3.501   1.968  0.0836 -1.9061 -0.6058
 3846TIP3    H211503   6.667   3.582   1.853 -0.0557 -2.0664 -0.6533
 3847TIP3   OH211504   1.004   4.546   4.480 -0.6070 -0.1566 -0.0056
 3847TIP3    H111505   0.985   4.452   4.473 -3.3699  0.3986 -1.5077
 3847TIP3    H211506   1.066   4.564   4.410  0.6321 -0.9558  0.8420
 3848TIP3   OH211507   7.036   0.550   4.021  0.1766 -0.4031 -0.1429
 3848TIP3    H111508   7.059   0.471   4.070  0.0856  0.5710  1.5445
 3848TIP3    H211509   6.942   0.560   4.035  0.2555  0.2039 -0.0224
 3849TIP3   OH211510   2.720   4.885   0.678  0.1728 -0.3255 -0.3861
 3849TIP3    H111511   2.653   4.938   0.721 -0.6329 -1.2435 -0.4743
 3849TIP3    H211512   2.802   4.913   0.719  0.1787  2.8681 -2.2799
 3850TIP3   OH211513   6.623   1.848   1.562 -0.3748  0.5152  0.0032
 3850TIP3    H111514   6.550   1.833   1.622 -0.3661  1.9347  0.4009
 3850TIP3    H211515   6.586   1.900   1.491 -0.7044 -2.2149 -1.9870
 3851TIP3   OH211516   4.211   2.761   4.089  0.7348 -0.7215  0.0214
 3851TIP3    H111517   4.238   2.692   4.148  1.3716  0.3196  0.9964
 3851TIP3    H211518   4.282   2.826   4.094 -0.8916  1.0778  0.9637
 3852TIP3   OH211519   6.895   5.577   3.945  0.0268 -0.2449  0.5300
 3852TIP3    H111520   6.834   5.646   3.920 -0.7525 -1.0604  0.1267
 3852TIP3    H211521   6.978   5.602   3.905 -0.6252 -0.3263 -0.9474
 3853TIP3   OH211522   6.927   0.358   2.868 -0.3721 -0.6729 -0.4467
 3853TIP3    H111523   6.902   0.443   2.904 -0.1004 -0.4772 -0.7204
 3853TIP3    H211524   6.986   0.321   2.934 -2.9292 -2.0545  1.2557
 3854TIP3   OH211525   0.865   3.458   4.058 -0.3305 -0.1683 -0.4171
 3854TIP3    H111526   0.864   3.522   3.987  1.6084 -0.9430 -1.2061
 3854TIP3    H211527   0.839   3.376   4.016  1.1699 -0.7021 -0.3564
 3855TIP3   OH211528   1.037   0.607   0.173  0.1021  0.9189 -0.2294
 3855TIP3    H111529   1.078   0.520   0.178  0.4304  1.0209 -0.9985
 3855TIP3    H211530   1.069   0.643   0.090  0.6905  2.1327  0.5004
 3856TIP3   OH211531   3.704   1.498   1.808 -0.1296  0.3230 -0.1251
 3856TIP3    H111532   3.723   1.565   1.742 -2.4811 -0.7139 -2.0021
 3856TIP3    H211533   3.763   1.426   1.787 -1.9407 -0.6546 -2.2856
 3857TIP3   OH211534   4.368   6.532   0.997  0.7049  0.5523 -0.3073
 3857TIP3    H111535   4.403   6.608   1.044 -1.4151  0.7533  1.0695
 3857TIP3    H211536   4.386   6.458   1.054 -1.2847  0.7075  0.6154
 3858TIP3   OH211537   6.430   1.868   3.851 -0.4864  0.3544 -0.0464
 3858TIP3    H111538   6.485   1.888   3.776 -0.8294  1.3773 -0.0421
 3858TIP3    H211539   6.479   1.802   3.900 -0.3695 -0.4845 -1.2749
 3859TIP3   OH211540   1.224   1.138   1.094  0.0465  0.6803 -0.1670
 3859TIP3    H111541   1.198   1.080   1.166  0.1615  2.2896  1.2353
 3859TIP3    H211542   1.317   1.153   1.108  0.0870  0.9222 -0.7034
 3860TIP3   OH211543   2.453   2.547   1.415 -0.0721  0.1747 -0.4031
 3860TIP3    H111544   2.360   2.543   1.391 -0.2411 -0.3557  0.3259
 3860TIP3    H211545   2.453   2.556   1.510  0.6260  0.5807 -0.4312
 3861TIP3   OH211546   6.189   6.742   4.328  0.6337  0.1767 -0.3393
 3861TIP3    H111547   6.116   6.685   4.353  2.4245 -1.2763  1.9658
 3861TIP3    H211548   6.175   6.758   4.234 -1.8615 -1.1653 -0.2818
 3862TIP3   OH211549   2.190   6.626   1.982 -0.1483 -0.8251 -0.1653
 3862TIP3    H111550   2.162   6.556   1.923  0.7853 -2.0874  0.8140
 3862TIP3    H211551   2.118   6.688   1.982 -0.6476 -1.3698 -1.7193
 3863TIP3   OH211552   3.552   1.315   3.982 -0.5155 -0.5847 -0.1516
 3863TIP3    H111553   3.488   1.356   4.041 -0.0353  0.6140 -0.4274
 3863TIP3    H211554   3.501   1.253   3.931 -1.3908  0.0435 -0.0644
 3864TIP3   OH211555   3.462   0.999   2.596 -0.3702  0.5674 -0.0582
 3864TIP3    H111556   3.367   1.005   2.601 -0.2703  1.4633  1.0405
 3864TIP3    H211557   3.478   0.949   2.516 -1.7360  0.9485 -0.5980
 3865TIP3   OH211558   1.847   3.668   3.416  0.1748  0.6191  0.4668
 3865TIP3    H111559   1.773   3.608   3.413  0.5285  0.0841  1.6404
 3865TIP3    H211560   1.845   3.714   3.332  0.4341 -1.6853 -0.8887
 3866TIP3   OH211561   0.631   6.695   1.842 -0.0822  0.3457 -0.1766
 3866TIP3    H111562   0.720   6.726   1.859 -0.1212  0.4824 -0.2210
 3866TIP3    H211563   0.579   6.734   1.912  0.0307 -0.4027  0.3433
 3867TIP3   OH211564   1.783   5.536   2.651  0.3706 -0.0166  0.0265
 3867TIP3    H111565   1.756   5.450   2.618  0.3666  0.9495 -2.7317
 3867TIP3    H211566   1.701   5.583   2.666  0.3858  0.1918 -0.5142
 3868TIP3   OH211567   3.632   6.132   2.008  0.0881  0.3400 -0.0685
 3868TIP3    H111568   3.673   6.138   1.922  0.9947 -1.6274  0.1751
 3868TIP3    H211569   3.567   6.062   1.999 -1.5648  1.7770  0.2151
 3869TIP3   OH211570   2.220   6.548   4.079  0.0534  0.5136  0.3151
 3869TIP3    H111571   2.127   6.559   4.098 -0.7202  0.7634 -2.9780
 3869TIP3    H211572   2.240   6.617   4.016  2.6093  0.6812  1.1960
 3870TIP3   OH211573   0.451   1.662   4.637  0.1289 -0.1500 -0.1785
 3870TIP3    H111574   0.377   1.718   4.660  0.1034 -0.2264 -0.0692
 3870TIP3    H211575   0.415   1.573   4.638  0.1289 -0.1541 -0.5207
 3871TIP3   OH211576   1.869   0.605   0.948 -0.5374 -0.1216 -0.5097
 3871TIP3    H111577   1.884   0.566   1.034  0.2149 -0.5210 -0.8125
 3871TIP3    H211578   1.871   0.530   0.888 -0.0790  0.2667 -0.9848
 3872TIP3   OH211579   4.590   5.164   4.802  0.3751  0.5142  0.1715
 3872TIP3    H111580   4.625   5.252   4.822  1.4902  0.0540  0.3205
 3872TIP3    H211581   4.634   5.107   4.865  1.5602 -0.5204 -1.5374
 3873TIP3   OH211582   6.362   4.566   5.734  0.1762  0.1814  0.1267
 3873TIP3    H111583   6.334   4.624   5.805 -0.7404  0.0195 -0.0875
 3873TIP3    H211584   6.296   4.577   5.666  0.5789 -0.3030 -0.3537
 3874TIP3   OH211585   2.006   5.780   4.068 -0.2577  0.5354 -0.0750
 3874TIP3    H111586   2.075   5.732   4.022 -2.2410 -2.3422 -0.3874
 3874TIP3    H211587   2.033   5.871   4.064  1.6933 -0.0110 -3.3883
 3875TIP3   OH211588   6.499   2.001   1.328  0.2509  0.0977  0.0066
 3875TIP3    H111589   6.472   2.092   1.338  3.4534  1.2136 -0.1274
 3875TIP3    H211590   6.444   1.952   1.389 -2.8299  1.7641 -1.2298
 3876TIP3   OH211591   1.481   3.085   3.295 -0.4328  0.2557 -0.0619
 3876TIP3    H111592   1.445   3.029   3.364 -1.1341  0.4480 -0.2643
 3876TIP3    H211593   1.429   3.165   3.301 -0.6234  0.1999 -0.9401
 3877TIP3   OH211594   5.629   1.412   4.985  0.1516 -0.2031  0.3489
 3877TIP3    H111595   5.647   1.349   5.054 -0.3131  1.1273  1.7509
 3877TIP3    H211596   5.535   1.432   4.994  0.5018  1.4711  0.6801
 3878TIP3   OH211597   3.606   2.218   2.764 -0.3768  0.5593  0.2282
 3878TIP3    H111598   3.608   2.153   2.694 -1.1514  0.4977  0.2544
 3878TIP3    H211599   3.551   2.178   2.832  0.0142  0.7992  0.6867
 3879TIP3   OH211600   0.659   5.232   5.359  0.6859  0.0820  0.0735
 3879TIP3    H111601   0.674   5.283   5.279 -0.3059  0.4071  0.0845
 3879TIP3    H211602   0.566   5.242   5.377  0.8162 -0.3295  1.0448
 3880TIP3   OH211603   0.337   0.780   4.081 -0.5276 -0.1367  0.4151
 3880TIP3    H111604   0.419   0.788   4.129 -0.2873  1.9353 -0.2502
 3880TIP3    H211605   0.294   0.704   4.120  0.4984  0.3282  2.5910
 3881TIP3   OH211606   5.106   1.214   2.229 -0.3169  0.3596  0.5654
 3881TIP3    H111607   5.033   1.163   2.265 -1.2555  1.1176 -0.1945
 3881TIP3    H211608   5.146   1.256   2.305 -0.4798 -0.3003  1.0252
 3882TIP3   OH211609   6.925   4.608   0.903 -0.2037 -0.1438  0.1399
 3882TIP3    H111610   6.907   4.621   0.810 -1.6418 -2.0507  0.0834
 3882TIP3    H211611   6.953   4.516   0.909  2.0502  0.5605  1.3346
 3883TIP3   OH211612   2.425   1.179   2.427  0.2915  0.0747 -0.2674
 3883TIP3    H111613   2.472   1.098   2.409 -1.3483 -0.7708 -0.9096
 3883TIP3    H211614   2.335   1.152   2.446 -0.1087  1.6788  0.3222
 3884TIP3   OH211615   2.316   1.924   3.013  0.0310  0.3606  0.4281
 3884TIP3    H111616   2.280   1.937   2.925  0.7181 -0.2345  0.0441
 3884TIP3    H211617   2.403   1.965   3.010  0.3726 -0.3251  0.5779
 3885TIP3   OH211618   1.199   6.315   2.457  0.7393 -0.5202 -0.1565
 3885TIP3    H111619   1.291   6.289   2.457  1.3406  1.3236  2.5803
 3885TIP3    H211620   1.200   6.409   2.443 -0.6908 -0.3751  0.5606
 3886TIP3   OH211621   1.795   4.482   0.169 -0.2621  0.4077 -0.2133
 3886TIP3    H111622   1.785   4.490   0.075 -1.8279 -0.8090 -0.1819
 3886TIP3    H211623   1.879   4.437   0.181  0.9760  2.4180 -0.9001
 3887TIP3   OH211624   6.665   3.002   4.392 -0.3841  0.0657 -0.0176
 3887TIP3    H111625   6.599   2.953   4.343 -0.9369  0.6065  0.1673
 3887TIP3    H211626   6.738   3.010   4.331 -0.2999 -0.9499 -0.0574
 3888TIP3   OH211627   3.683   6.703   4.499  0.4001  0.2885 -0.3031
 3888TIP3    H111628   3.734   6.769   4.452 -1.3096  1.7504 -0.2020
 3888TIP3    H211629   3.612   6.679   4.439 -0.0238 -0.1257  0.3414
 3889TIP3   OH211630   1.473   2.770   3.071 -0.0242 -0.5161  0.1937
 3889TIP3    H111631   1.434   2.759   3.157  1.0771  1.1301  0.9575
 3889TIP3    H211632   1.423   2.842   3.031  1.1053  0.5069  0.5441
 3890TIP3   OH211633   6.679   2.962   3.006 -0.1399 -0.5287  0.2272
 3890TIP3    H111634   6.719   3.039   3.046 -1.1059 -0.5123  1.2003
 3890TIP3    H211635   6.701   2.969   2.913 -0.2099  0.9179  0.3008
 3891TIP3   OH211636   3.843   3.921   4.465  0.0838  0.3198 -0.5732
 3891TIP3    H111637   3.836   3.839   4.416  0.1318  0.5819 -1.0170
 3891TIP3    H211638   3.752   3.948   4.480 -0.0236 -0.9256  1.4687
 3892TIP3   OH211639   3.578   2.366   2.063 -0.0555  0.2495  0.4856
 3892TIP3    H111640   3.637   2.437   2.037  0.7053  0.0803  1.6493
 3892TIP3    H211641   3.511   2.364   1.995  1.6397  0.0360 -1.2513
 3893TIP3   OH211642   6.322   5.776   4.334 -0.2797  0.1194 -0.6119
 3893TIP3    H111643   6.342   5.837   4.263  2.4397  0.4161  0.2987
 3893TIP3    H211644   6.309   5.832   4.411  3.4447 -0.2756  0.5122
 3894TIP3   OH211645   6.845   5.865   2.859 -0.2365 -0.3545  0.7056
 3894TIP3    H111646   6.774   5.827   2.912 -1.0030  0.0372 -0.0095
 3894TIP3    H211647   6.815   5.855   2.769  1.1815 -1.2557  0.3146
 3895TIP3   OH211648   5.423   3.896   2.658  0.2515 -0.4976  0.0374
 3895TIP3    H111649   5.440   3.865   2.569 -0.8279  1.2113 -0.8222
 3895TIP3    H211650   5.374   3.825   2.699  0.1026 -1.0097 -0.9856
 3896TIP3   OH211651   3.798   2.038   0.380  0.1741 -0.0331 -0.0398
 3896TIP3    H111652   3.728   1.974   0.391 -2.4618  2.4680 -0.9752
 3896TIP3    H211653   3.822   2.031   0.288  2.4287 -1.9179  0.5711
 3897TIP3   OH211654   2.866   5.331   0.050 -0.0315 -0.1602  0.8057
 3897TIP3    H111655   2.905   5.408   0.007  0.2396 -0.1135  1.1291
 3897TIP3    H211656   2.937   5.295   0.102  0.0207 -0.9937  0.1840
 3898TIP3   OH211657   1.957   3.877   2.840  0.3839  0.3079  0.0275
 3898TIP3    H111658   1.975   3.958   2.887 -1.3738  1.1208 -0.6387
 3898TIP3    H211659   2.043   3.846   2.812  1.1260  1.6568  0.7369
 3899TIP3   OH211660   2.738   4.078   2.580  0.6162 -0.4591 -0.5576
 3899TIP3    H111661   2.753   4.132   2.657 -0.9135  0.3258 -0.7742
 3899TIP3    H211662   2.722   3.990   2.614  2.3134 -0.6446 -0.1525
 3900TIP3   OH211663   2.782   1.638   3.805 -0.6794  0.7822  0.5196
 3900TIP3    H111664   2.783   1.602   3.717  0.1011 -0.6901  1.1063
 3900TIP3    H211665   2.828   1.722   3.797 -1.3416  1.0636 -0.6042
 3901TIP3   OH211666   5.134   0.618   1.765 -0.9911  0.4496  1.0160
 3901TIP3    H111667   5.099   0.529   1.761 -2.8877  1.1714  0.1314
 3901TIP3    H211668   5.107   0.651   1.850 -1.7769  0.7258  0.6679
 3902TIP3   OH211669   3.389   3.530   4.515  0.0425  0.0800  0.5037
 3902TIP3    H111670   3.440   3.464   4.561  1.4798  0.7986 -0.0065
 3902TIP3    H211671   3.380   3.601   4.578  0.5845  0.3768  0.2576
 3903TIP3   OH211672   6.212   0.888   5.659 -0.2897  0.1391 -0.0335
 3903TIP3    H111673   6.239   0.904   5.750 -0.6782  0.8327 -0.0360
 3903TIP3    H211674   6.294   0.895   5.609 -0.3464  1.5917  0.0395
 3904TIP3   OH211675   0.221   2.974   5.764  0.2058  0.0045  0.2625
 3904TIP3    H111676   0.220   2.912   5.691 -2.6429  0.4211 -0.1714
 3904TIP3    H211677   0.223   3.060   5.723 -2.3296  0.2696  0.5339
 3905TIP3   OH211678   4.026   2.495   5.153 -0.0164 -0.2294  0.3139
 3905TIP3    H111679   3.960   2.501   5.085  0.1577  1.8338  0.2776
 3905TIP3    H211680   3.979   2.461   5.230 -0.5297 -1.1489 -0.3868
 3906TIP3   OH211681   3.697   1.526   4.504 -0.1680  0.0093  0.4894
 3906TIP3    H111682   3.619   1.551   4.554  1.9463  0.0823  4.0475
 3906TIP3    H211683   3.735   1.609   4.474 -0.6560  0.0532 -0.0325
 3907TIP3   OH211684   3.416   1.055   1.251 -0.0621  0.4398 -0.2018
 3907TIP3    H111685   3.427   1.070   1.345  0.1003  0.6072 -0.2470
 3907TIP3    H211686   3.434   1.140   1.211  0.9371  0.1176 -0.4678
 3908TIP3   OH211687   6.235   5.234   1.033  0.0668  0.4555  0.1882
 3908TIP3    H111688   6.293   5.224   0.957 -0.1541  0.5067  0.0124
 3908TIP3    H211689   6.181   5.310   1.012 -1.2138 -0.5750 -0.4137
 3909TIP3   OH211690   4.226   3.463   4.169 -0.0141  0.4419  0.7358
 3909TIP3    H111691   4.134   3.453   4.144 -0.1940  0.4289  1.4040
 3909TIP3    H211692   4.270   3.487   4.087 -0.6892  0.9577  0.5160
 3910TIP3   OH211693   1.642   0.729   3.899 -0.0114 -0.3273  0.1066
 3910TIP3    H111694   1.735   0.723   3.878 -0.2396 -1.2361 -0.7174
 3910TIP3    H211695   1.618   0.819   3.879  0.3015 -0.5640 -1.4437
 3911TIP3   OH211696   6.462   3.753   2.517 -0.0333  0.0980  0.3386
 3911TIP3    H111697   6.556   3.742   2.531  0.1901 -1.2973 -1.8912
 3911TIP3    H211698   6.455   3.834   2.466 -0.1032  0.4227  0.8521
 3912TIP3   OH211699   7.175   4.551   5.532  0.1064 -0.3416 -0.7399
 3912TIP3    H111700   7.116   4.503   5.473  0.9808 -1.1904 -0.9553
 3912TIP3    H211701   7.158   4.643   5.513  0.0922 -0.5870 -2.0688
 3913TIP3   OH211702   2.907   4.254   4.027 -0.3894  0.8442 -0.1783
 3913TIP3    H111703   2.914   4.308   4.105  1.7927  1.5193 -0.7686
 3913TIP3    H211704   2.997   4.229   4.007 -0.4321  2.8582 -3.9134
 3914TIP3   OH211705   4.478   6.054   4.295  0.0657  0.1649  0.2358
 3914TIP3    H111706   4.516   5.987   4.238  0.1331 -0.7446  1.3196
 3914TIP3    H211707   4.388   6.065   4.264 -0.4231 -1.5313  0.9724
 3915TIP3   OH211708   2.412   2.330   0.469 -0.3733  0.0305 -0.2796
 3915TIP3    H111709   2.318   2.338   0.451 -0.9060 -0.5809  1.9258
 3915TIP3    H211710   2.447   2.416   0.445 -1.3957  0.1488 -1.5096
 3916TIP3   OH211711   1.425   0.336   5.611 -0.1654 -0.0724  0.2145
 3916TIP3    H111712   1.375   0.330   5.692 -2.2550 -2.2947 -1.1357
 3916TIP3    H211713   1.382   0.405   5.561  0.0499  0.1057  0.2701
 3917TIP3   OH211714   1.269   3.493   4.857 -0.1849  0.1068 -0.3926
 3917TIP3    H111715   1.288   3.574   4.809  0.9032 -0.5147 -1.0197
 3917TIP3    H211716   1.175   3.500   4.878 -0.1238  1.5046 -0.4714
 3918TIP3   OH211717   4.351   6.688   0.007 -0.3683  0.1756  0.0943
 3918TIP3    H111718   4.437   6.648   0.000 -0.2752  0.3739  0.0984
 3918TIP3    H211719   4.358   6.749   0.081 -0.3583  0.5700 -0.2261
 3919TIP3   OH211720   2.623   5.513   0.427  0.6846 -0.0885 -0.3259
 3919TIP3    H111721   2.711   5.478   0.435  0.5753 -0.6948 -1.4556
 3919TIP3    H211722   2.631   5.581   0.360  0.6770  1.3319  1.0547
 3920TIP3   OH211723   6.881   0.536   5.359 -0.1178 -0.1518  0.6455
 3920TIP3    H111724   6.944   0.553   5.428  1.1664  2.4676 -1.0082
 3920TIP3    H211725   6.934   0.519   5.281 -1.5182 -2.8297  0.1308
 3921TIP3   OH211726   1.165   4.572   2.714  0.1615  0.0028 -0.0891
 3921TIP3    H111727   1.169   4.525   2.798  2.6453 -0.3032 -0.2977
 3921TIP3    H211728   1.220   4.649   2.727 -0.1115  0.4023 -1.1811
 3922TIP3   OH211729   0.203   0.501   0.216 -0.4732 -0.0546 -0.1149
 3922TIP3    H111730   0.130   0.548   0.174 -1.7735 -1.4693  0.4518
 3922TIP3    H211731   0.274   0.564   0.218 -1.3547  1.0560 -1.6341
 3923TIP3   OH211732   3.918   0.254   0.244  0.1399 -0.2057  0.3841
 3923TIP3    H111733   3.880   0.167   0.230 -0.5576  0.1936 -0.2568
 3923TIP3    H211734   3.894   0.277   0.333  0.8718 -0.9319  0.7840
 3924TIP3   OH211735   3.163   6.821   1.504 -0.4065 -0.0618  1.1005
 3924TIP3    H111736   3.133   6.773   1.427  1.2150  1.3653 -0.5007
 3924TIP3    H211737   3.096   6.804   1.571 -1.8435 -1.3663 -0.5950
 3925TIP3   OH211738   1.938   5.952   1.596  0.1976  0.1318 -0.3464
 3925TIP3    H111739   1.940   5.928   1.504  0.9904 -0.7332 -0.1155
 3925TIP3    H211740   2.030   5.952   1.624 -0.0364  0.2856  0.4627
 3926TIP3   OH211741   3.049   0.295   3.671  0.4094  0.2048 -0.2890
 3926TIP3    H111742   3.095   0.262   3.594 -0.0057  1.0747 -0.9235
 3926TIP3    H211743   2.956   0.279   3.653  0.1953  1.6806 -0.6155
 3927TIP3   OH211744   6.960   5.402   5.435  0.0948 -0.2961  0.1526
 3927TIP3    H111745   7.055   5.401   5.445  0.1108  0.7837  0.1580
 3927TIP3    H211746   6.943   5.335   5.368  0.5500 -2.8406  2.3950
 3928TIP3   OH211747   1.731   2.937   3.961 -0.0195 -0.0320  0.0231
 3928TIP3    H111748   1.725   2.845   3.986 -0.9567  0.0225  0.0138
 3928TIP3    H211749   1.819   2.963   3.988 -0.2603 -0.5349  1.3352
 3929TIP3   OH211750   4.834   1.781   0.213  0.3603 -0.6539  0.1111
 3929TIP3    H111751   4.886   1.708   0.178 -1.8059 -1.7303 -1.1019
 3929TIP3    H211752   4.803   1.750   0.298 -3.2808 -2.7919 -1.7180
 3930TIP3   OH211753   4.489   1.352   4.696 -0.5053 -0.0136 -0.1730
 3930TIP3    H111754   4.509   1.268   4.739 -0.6731 -0.1093 -0.2776
 3930TIP3    H211755   4.561   1.410   4.720  1.5896 -1.2015 -3.0183
 3931TIP3   OH211756   4.866   5.760   0.857  0.3953 -0.5896  0.3467
 3931TIP3    H111757   4.879   5.707   0.779  0.5582 -2.1838  1.4262
 3931TIP3    H211758   4.866   5.698   0.929 -2.7047  0.4467  1.4053
 3932TIP3   OH211759   3.886   0.736   1.015 -0.5888 -0.4799  0.5716
 3932TIP3    H111760   3.823   0.808   1.017 -1.4718 -1.2130  0.2250
 3932TIP3    H211761   3.915   0.727   1.106  0.4815  1.0869  0.4233
 3933TIP3   OH211762   5.533   3.201   1.494 -0.0133  0.2642 -0.3645
 3933TIP3    H111763   5.597   3.167   1.432 -0.8234 -0.8278 -0.6278
 3933TIP3    H211764   5.486   3.269   1.446 -0.2104 -0.1366 -0.7471
 3934TIP3   OH211765   1.140   0.479   3.849 -0.0670  0.0674  0.0350
 3934TIP3    H111766   1.201   0.492   3.922 -0.1379 -1.8692  0.4906
 3934TIP3    H211767   1.079   0.412   3.880 -0.8227  0.0650 -1.3818
 3935TIP3   OH211768   1.204   0.978   1.307  0.0975  0.4043 -0.1218
 3935TIP3    H111769   1.283   0.926   1.322 -0.3977 -0.0302  1.0488
 3935TIP3    H211770   1.145   0.953   1.377 -1.0949  0.7351 -0.9805
 3936TIP3   OH211771   0.063   1.084   1.437  0.3386 -0.1445  0.2028
 3936TIP3    H111772   0.074   1.172   1.473  2.9126 -0.8023  1.2533
 3936TIP3    H211773   0.017   1.097   1.355  2.4194  2.4776 -0.6864
 3937TIP3   OH211774   5.908   5.545   0.790 -0.1990  0.1553  0.3496
 3937TIP3    H111775   5.848   5.602   0.741  1.3142  0.9988 -0.6353
 3937TIP3    H211776   5.971   5.516   0.724  2.4758  2.0788  1.8557
 3938TIP3   OH211777   2.742   4.324   2.254  0.3041 -0.5143 -0.2106
 3938TIP3    H111778   2.774   4.350   2.341 -0.4729 -0.1445 -0.0196
 3938TIP3    H211779   2.647   4.324   2.264  0.2445 -1.7483 -0.7077
 3939TIP3   OH211780   3.742   0.306   0.784  0.0492 -0.1275 -0.0565
 3939TIP3    H111781   3.779   0.280   0.868 -0.0537  0.8054  0.2962
 3939TIP3    H211782   3.728   0.224   0.736  0.8993 -0.6052  0.5004
 3940TIP3   OH211783   1.943   6.096   3.917 -0.0646  0.8572  0.2584
 3940TIP3    H111784   1.879   6.025   3.909  0.2162  0.6945 -0.6874
 3940TIP3    H211785   1.995   6.072   3.995 -0.0331  0.0606  0.0078
 3941TIP3   OH211786   0.121   5.523   3.072 -0.0670 -0.4520  0.0758
 3941TIP3    H111787   0.064   5.452   3.042  0.6445 -0.1747 -2.1574
 3941TIP3    H211788   0.178   5.483   3.137 -0.6210 -1.5659 -0.0946
 3942TIP3   OH211789   7.197   3.115   0.788  0.4998  0.5309  0.4660
 3942TIP3    H111790   7.281   3.132   0.831  0.6935 -0.6736  0.5935
 3942TIP3    H211791   7.163   3.037   0.831 -0.4090  0.6558  0.0066
 3943TIP3   OH211792   1.433   4.084   2.634  0.4058 -0.0154 -0.3495
 3943TIP3    H111793   1.506   4.048   2.583  0.1764 -0.7000 -0.2038
 3943TIP3    H211794   1.469   4.098   2.722  0.2354 -0.8008 -0.1524
 3944TIP3   OH211795   2.979   4.097   3.734  0.5363  0.2543 -0.7936
 3944TIP3    H111796   2.935   4.137   3.659  0.6751  0.3309 -0.8351
 3944TIP3    H211797   3.070   4.126   3.726  1.4602 -2.7264 -2.7086
 3945TIP3   OH211798   4.053   5.870   2.834 -0.1417  0.4293  0.3580
 3945TIP3    H111799   4.014   5.893   2.750  0.5747  1.1566  0.2064
 3945TIP3    H211800   4.033   5.944   2.891  1.8871  1.3625 -0.0326
 3946TIP3   OH211801   0.213   6.505   1.386  0.4951 -0.2323  0.3798
 3946TIP3    H111802   0.190   6.576   1.446  0.8281  0.6873 -0.5586
 3946TIP3    H211803   0.306   6.490   1.402  0.7988  0.6070 -0.4773
 3947TIP3   OH211804   3.062   3.075   4.999  0.0079  0.5590  0.0098
 3947TIP3    H111805   3.029   2.999   4.952  0.8248 -0.2056  0.6119
 3947TIP3    H211806   3.002   3.146   4.977 -0.6764 -0.2192 -0.7016
 3948TIP3   OH211807   3.835   6.629   0.428 -0.2385 -0.2935  0.3990
 3948TIP3    H111808   3.818   6.535   0.416 -1.0192 -0.1378  0.2664
 3948TIP3    H211809   3.850   6.662   0.339 -1.9457  0.0751  0.2161
 3949TIP3   OH211810   6.209   4.574   2.661  0.2401 -0.0205  0.0387
 3949TIP3    H111811   6.166   4.488   2.665 -1.2104  0.6516 -0.4181
 3949TIP3    H211812   6.137   4.637   2.667  1.2723  1.1770  0.2973
 3950TIP3   OH211813   1.292   5.301   2.155  0.0854  0.2510 -0.3649
 3950TIP3    H111814   1.378   5.299   2.196  0.8612  0.1423 -1.9291
 3950TIP3    H211815   1.277   5.211   2.126 -0.3519  0.3704 -0.5153
 3951TIP3   OH211816   4.886   1.570   4.147 -0.0719  0.0305  0.0491
 3951TIP3    H111817   4.883   1.609   4.235  0.0786 -1.2345  0.6355
 3951TIP3    H211818   4.979   1.567   4.125 -0.1832  1.6248 -0.7695
 3952TIP3   OH211819   2.261   2.990   4.654  0.1101 -0.6616  0.6216
 3952TIP3    H111820   2.328   3.052   4.684  0.0260 -0.7843  1.0692
 3952TIP3    H211821   2.303   2.904   4.663  0.3645 -0.6457 -0.3627
 3953TIP3   OH211822   1.353   3.211   4.526  0.1692 -0.1560 -0.2399
 3953TIP3    H111823   1.267   3.172   4.512  0.5417 -1.6430  1.2487
 3953TIP3    H211824   1.369   3.200   4.619  1.8027  0.4486 -0.4231
 3954TIP3   OH211825   0.502   6.626   5.621  0.4921  0.5473  0.0595
 3954TIP3    H111826   0.512   6.709   5.669 -0.8562  0.1253  1.1200
 3954TIP3    H211827   0.446   6.648   5.547 -2.0951  0.1169  1.7827
 3955TIP3   OH211828   0.296   4.279   2.608 -0.0725  0.6272  0.3457
 3955TIP3    H111829   0.288   4.185   2.591  0.0376  0.7461 -0.4139
 3955TIP3    H211830   0.377   4.305   2.565 -1.1194  1.4382 -1.2900
 3956TIP3   OH211831   4.238   0.383   3.912 -0.1606 -0.1670  0.1102
 3956TIP3    H111832   4.242   0.353   3.821 -1.0714  1.1202 -0.3945
 3956TIP3    H211833   4.302   0.454   3.917 -0.1126 -0.2336  0.4683
 3957TIP3   OH211834   1.256   0.744   0.491 -0.1190  0.1350  0.0802
 3957TIP3    H111835   1.162   0.746   0.472 -0.2884 -1.4862  0.5643
 3957TIP3    H211836   1.261   0.720   0.584  0.7729  1.3116  0.3525
 3958TIP3   OH211837   3.801   0.776   5.220 -0.2528  0.5519  0.0183
 3958TIP3    H111838   3.869   0.733   5.271 -1.8432 -0.0051  1.8002
 3958TIP3    H211839   3.829   0.868   5.216  0.8249  0.2531  0.3065
 3959TIP3   OH211840   2.910   5.911   4.978 -0.2827 -0.6003 -0.1832
 3959TIP3    H111841   2.873   5.861   4.905 -1.1765  0.5880 -0.5751
 3959TIP3    H211842   2.898   6.002   4.952  3.4521 -0.0735 -0.6106
 3960TIP3   OH211843   6.030   0.261   0.995  0.4390  0.1782 -0.1373
 3960TIP3    H111844   6.056   0.211   1.072  1.2162  0.2240 -0.3633
 3960TIP3    H211845   6.090   0.232   0.926 -0.4777 -0.1328 -0.8247
 3961TIP3   OH211846   3.448   2.505   2.840  0.5955 -0.1039  0.4027
 3961TIP3    H111847   3.410   2.419   2.828  0.2912 -0.1986  1.8808
 3961TIP3    H211848   3.502   2.497   2.918 -0.1170  1.2591  1.0690
 3962TIP3   OH211849   7.178   4.585   3.312 -0.1577  0.8123 -0.1218
 3962TIP3    H111850   7.100   4.532   3.295  0.0299 -0.1880  1.7813
 3962TIP3    H211851   7.147   4.655   3.370  0.1626  0.9779 -0.1494
 3963TIP3   OH211852   1.917   0.518   0.315  0.0258 -0.1850 -0.1574
 3963TIP3    H111853   1.868   0.579   0.369  0.8485  0.6397 -0.3097
 3963TIP3    H211854   1.859   0.499   0.241  0.3538  1.7715 -1.0021
 3964TIP3   OH211855   6.550   2.990   4.836  0.4602  0.4201 -0.3076
 3964TIP3    H111856   6.598   2.910   4.858 -0.0762  0.0680 -0.3812
 3964TIP3    H211857   6.486   3.000   4.907 -0.7607 -0.2922 -1.2674
 3965TIP3   OH211858   2.227   2.687   0.312  0.3500 -0.2185 -0.0141
 3965TIP3    H111859   2.139   2.693   0.349  0.0521  2.2610 -0.8957
 3965TIP3    H211860   2.212   2.663   0.220  0.4867  0.8759 -0.3442
 3966TIP3   OH211861   6.420   3.089   3.307 -0.1668  0.1075  0.1139
 3966TIP3    H111862   6.398   3.065   3.397  2.2242 -2.8539  0.1063
 3966TIP3    H211863   6.487   3.024   3.282  0.0602  1.5210 -3.4148
 3967TIP3   OH211864   4.057   6.257   3.100  0.4561 -0.2080  0.6352
 3967TIP3    H111865   4.078   6.262   3.007  1.2421  1.5033  0.8638
 3967TIP3    H211866   3.993   6.327   3.114 -1.9211 -2.3328  0.8601
 3968TIP3   OH211867   4.002   2.311   3.166 -0.0502  0.3253  0.0758
 3968TIP3    H111868   4.060   2.370   3.118 -0.0670  0.2237 -0.0709
 3968TIP3    H211869   3.921   2.361   3.179 -0.4084  0.0220 -0.8623
 3969TIP3   OH211870   4.310   5.721   2.609  0.4686  0.2989  0.2481
 3969TIP3    H111871   4.276   5.749   2.524 -0.0653  0.4472  0.5069
 3969TIP3    H211872   4.371   5.791   2.634  1.1073 -0.0526 -0.2966
 3970TIP3   OH211873   3.260   2.426   5.177 -0.4761 -0.3634 -0.2059
 3970TIP3    H111874   3.315   2.410   5.100  0.9182  1.2468  0.4141
 3970TIP3    H211875   3.255   2.341   5.221 -0.3070 -1.0201 -1.4240
 3971TIP3   OH211876   6.436   2.752   2.874 -0.1099  0.4381  0.2847
 3971TIP3    H111877   6.406   2.745   2.965  0.0047  0.6026  0.3352
 3971TIP3    H211878   6.388   2.683   2.828 -0.7497  0.8586  0.3139
 3972TIP3   OH211879   5.272   2.314   0.889  0.3800  0.7851  0.1806
 3972TIP3    H111880   5.184   2.320   0.851  0.1724  0.8783  0.6637
 3972TIP3    H211881   5.330   2.342   0.819  0.1859 -1.0682 -0.7693
 3973TIP3   OH211882   0.701   6.534   4.473  0.4025 -0.0471  0.1775
 3973TIP3    H111883   0.630   6.496   4.525  1.1540 -2.1892 -0.2704
 3973TIP3    H211884   0.757   6.577   4.537 -0.6141  0.5657  0.6832
 3974TIP3   OH211885   0.084   2.337   0.464 -0.3365  0.5464 -0.3120
 3974TIP3    H111886   0.165   2.292   0.440  0.2121  0.0926  2.0954
 3974TIP3    H211887   0.016   2.270   0.455 -0.0743  0.2548 -0.1470
 3975TIP3   OH211888   0.513   3.188   3.770  0.1834  0.1366 -0.4340
 3975TIP3    H111889   0.548   3.221   3.853 -0.8171  0.9507 -0.3153
 3975TIP3    H211890   0.572   3.223   3.703 -0.2462  1.2980 -0.2259
 3976TIP3   OH211891   7.000   4.374   3.205 -0.5480 -0.1433 -0.3656
 3976TIP3    H111892   6.969   4.417   3.125 -1.2336  0.1029  0.0245
 3976TIP3    H211893   6.970   4.283   3.197 -2.1133  0.2731  0.3673
 3977TIP3   OH211894   5.907   1.904   3.506 -0.0434  0.0766  0.2367
 3977TIP3    H111895   5.884   1.964   3.576  0.2798  1.1440 -0.5462
 3977TIP3    H211896   5.866   1.942   3.427  0.5838 -0.4503 -0.3574
 3978TIP3   OH211897   3.146   2.850   0.064 -0.2396  0.3323 -0.1248
 3978TIP3    H111898   3.200   2.877   0.138 -0.4676  0.5481 -0.0316
 3978TIP3    H211899   3.138   2.755   0.073 -1.4858  0.4952  0.9949
 3979TIP3   OH211900   5.715   0.804   0.845  0.2842 -0.3430 -0.1939
 3979TIP3    H111901   5.715   0.721   0.797  2.2113 -0.7619  0.4401
 3979TIP3    H211902   5.695   0.780   0.935 -0.9669  0.1400 -0.3269
 3980TIP3   OH211903   0.193   5.954   3.592  0.0879 -0.7149  0.0261
 3980TIP3    H111904   0.111   6.003   3.596 -0.8218 -2.2266  1.0977
 3980TIP3    H211905   0.165   5.863   3.583  1.6587 -1.2559  0.3539
 3981TIP3   OH211906   6.706   1.636   1.764 -0.1517 -0.5380  0.5550
 3981TIP3    H111907   6.669   1.670   1.846  1.7852  0.2350  1.1755
 3981TIP3    H211908   6.722   1.544   1.782 -1.7400 -0.9050  0.2534
 3982TIP3   OH211909   0.137   3.393   2.199 -0.3443 -0.7771 -0.0081
 3982TIP3    H111910   0.055   3.345   2.211 -0.9228  0.1739 -0.0475
 3982TIP3    H211911   0.140   3.413   2.105  0.8321 -2.3476 -0.3386
 3983TIP3   OH211912   4.634   0.451   5.066  0.0262 -0.5164  0.6399
 3983TIP3    H111913   4.539   0.441   5.062  0.0720 -0.7304 -0.1026
 3983TIP3    H211914   4.664   0.436   4.976  0.6652  0.6487  0.6363
 3984TIP3   OH211915   6.349   1.660   3.448 -0.5928  0.3106  0.5947
 3984TIP3    H111916   6.411   1.594   3.479 -2.6620 -3.2384 -2.0483
 3984TIP3    H211917   6.317   1.702   3.528  0.9134 -1.8258  2.4526
 3985TIP3   OH211918   0.221   3.112   3.817  1.0164  0.1842  0.3197
 3985TIP3    H111919   0.314   3.107   3.797  1.2941 -0.9072  1.6463
 3985TIP3    H211920   0.190   3.022   3.807  0.1207  0.5272 -0.0513
 3986TIP3   OH211921   1.411   4.544   1.906  0.3053  0.0211  0.0776
 3986TIP3    H111922   1.402   4.492   1.986  0.2493  0.0863  0.1142
 3986TIP3    H211923   1.490   4.511   1.865  0.0199 -0.4122 -0.1327
 3987TIP3   OH211924   2.872   5.179   4.936  0.0851  0.2369 -0.3310
 3987TIP3    H111925   2.943   5.120   4.910 -1.1452 -0.3199 -2.7676
 3987TIP3    H211926   2.914   5.264   4.945  1.5740 -0.6142  1.4363
 3988TIP3   OH211927   2.044   4.381   1.673 -0.0984  0.3494  0.2398
 3988TIP3    H111928   1.958   4.388   1.633 -0.6196 -0.6404  1.1181
 3988TIP3    H211929   2.046   4.292   1.708  0.2754  1.1787  2.4676
 3989TIP3   OH211930   3.894   4.789   5.408  0.1313  0.0232  0.1306
 3989TIP3    H111931   3.809   4.788   5.364  0.1318  2.3684 -0.0470
 3989TIP3    H211932   3.872   4.780   5.501 -0.3874  1.2288  0.1415
 3990TIP3   OH211933   7.237   5.167   5.677 -0.6160 -0.2155 -0.2308
 3990TIP3    H111934   7.146   5.138   5.686 -0.8326  0.3375 -0.6171
 3990TIP3    H211935   7.244   5.242   5.736 -0.1713 -0.7759  0.4457
 3991TIP3   OH211936   1.594   2.585   0.711  0.3374 -0.1348 -0.3372
 3991TIP3    H111937   1.642   2.548   0.637  0.2865 -0.5226 -0.1773
 3991TIP3    H211938   1.507   2.603   0.676  0.1545 -0.8012 -0.2394
 3992TIP3   OH211939   5.795   5.104   1.723  0.2914  0.0826 -0.0528
 3992TIP3    H111940   5.764   5.129   1.810  0.1902  0.7357 -0.2692
 3992TIP3    H211941   5.781   5.010   1.719 -0.5075  0.1752  0.3166
 3993TIP3   OH211942   5.178   3.229   4.089  0.2509 -0.2252 -0.1599
 3993TIP3    H111943   5.231   3.217   4.167 -1.4348  0.0325  1.0924
 3993TIP3    H211944   5.136   3.145   4.075 -1.0220  0.2781  0.4668
 3994TIP3   OH211945   3.130   5.016   4.342 -0.3605  0.1316 -0.0600
 3994TIP3    H111946   3.169   5.054   4.263 -0.6634  1.1773  0.2748
 3994TIP3    H211947   3.081   4.940   4.311  0.4103 -0.0996 -0.7303
 3995TIP3   OH211948   5.590   1.686   5.096  0.4005 -0.4105 -0.4185
 3995TIP3    H111949   5.600   1.595   5.124 -1.0774 -1.0427 -1.7740
 3995TIP3    H211950   5.539   1.727   5.167 -0.3980 -1.1027 -0.5732
 3996TIP3   OH211951   0.907   5.419   3.028  0.4823  0.1555 -0.0357
 3996TIP3    H111952   0.972   5.468   2.977  1.9128  1.6506  3.0001
 3996TIP3    H211953   0.954   5.388   3.105 -2.2916  1.0516  2.2040
 3997TIP3   OH211954   3.157   0.230   5.504  0.1401 -0.0546  0.1576
 3997TIP3    H111955   3.162   0.173   5.427 -0.6467 -1.2848  0.9794
 3997TIP3    H211956   3.214   0.189   5.569  0.8086  0.9753  0.2534
 3998TIP3   OH211957   6.561   2.517   4.084 -0.0427 -0.7034 -0.1749
 3998TIP3    H111958   6.548   2.447   4.020 -2.8125  0.2143 -0.7714
 3998TIP3    H211959   6.483   2.572   4.076  0.3501  0.4868  2.7465
 3999TIP3   OH211960   0.400   5.301   3.047  0.4667  0.1020  0.2962
 3999TIP3    H111961   0.438   5.221   3.085  1.7817  0.2825 -0.5860
 3999TIP3    H211962   0.471   5.364   3.047 -0.0248  0.6779 -0.7790
 4000TIP3   OH211963   6.712   3.006   3.949 -0.0109  0.2968 -0.4954
 4000TIP3    H111964   6.740   2.936   3.890 -0.8907 -2.1853  1.8178
 4000TIP3    H211965   6.694   3.080   3.892 -0.3152 -1.7709 -3.2873
 4001TIP3   OH211966   5.659   5.604   2.424  0.0899 -0.3783 -0.0704
 4001TIP3    H111967   5.745   5.617   2.385  0.5428 -0.4430  0.8796
 4001TIP3    H211968   5.677   5.575   2.513 -0.9006  0.8870  0.5766
 4002TIP3   OH211969   0.295   2.294   2.554  0.0114  0.0382 -0.7667
 4002TIP3    H111970   0.274   2.315   2.645 -0.0969 -1.3535 -0.4357
 4002TIP3    H211971   0.385   2.322   2.543 -0.6746  2.3235 -0.9512
 4003TIP3   OH211972   3.916   3.059   2.345 -0.2076  0.3239  0.4112
 4003TIP3    H111973   3.840   3.017   2.386 -3.2227  4.1677 -0.5660
 4003TIP3    H211974   3.956   3.110   2.416 -0.5947  0.8149  0.2879
 4004TIP3   OH211975   2.785   0.365  -0.009  0.4007  0.9677 -0.7127
 4004TIP3    H111976   2.708   0.408  -0.045 -0.0232 -0.1832 -1.2194
 4004TIP3    H211977   2.809   0.418   0.068 -3.0892 -0.5871  1.7078
 4005TIP3   OH211978   2.848   2.099   2.799  0.2956  0.3120 -0.0975
 4005TIP3    H111979   2.905   2.035   2.756  1.8426  1.6294 -0.0719
 4005TIP3    H211980   2.760   2.076   2.768  0.9004 -1.2852 -0.7490
 4006TIP3   OH211981   7.039   4.586   3.840 -0.0639  0.2882 -0.2520
 4006TIP3    H111982   6.949   4.569   3.867  0.0680 -0.2850 -0.1672
 4006TIP3    H211983   7.078   4.634   3.914 -0.6610  1.7110 -0.8125
 4007TIP3   OH211984   1.207   5.346   1.748 -0.0188  0.5087 -0.7448
 4007TIP3    H111985   1.202   5.255   1.777  4.3912 -0.1894 -1.4829
 4007TIP3    H211986   1.188   5.341   1.654  1.4127  0.0427 -1.0431
 4008TIP3   OH211987   6.989   4.990   1.391 -0.6283  0.9300 -0.4040
 4008TIP3    H111988   6.894   4.989   1.406 -0.8164  1.2760 -1.4392
 4008TIP3    H211989   7.011   4.899   1.372 -0.9466  0.9909 -1.1363
 4009TIP3   OH211990   0.893   2.938   3.270  0.5981 -0.0400  0.3545
 4009TIP3    H111991   0.937   2.897   3.345  2.8124  2.1240  0.3384
 4009TIP3    H211992   0.853   3.017   3.306  0.4175  0.2640 -0.4951
 4010TIP3   OH211993   0.446   1.683   2.314  0.1086 -0.1843  0.7313
 4010TIP3    H111994   0.522   1.645   2.270 -0.0121  1.6793 -1.2062
 4010TIP3    H211995   0.447   1.775   2.290 -4.0000 -0.4508 -1.3441
 4011TIP3   OH211996   5.574   0.897   2.689 -0.1875  0.0865  0.1508
 4011TIP3    H111997   5.638   0.879   2.758  0.8106 -1.2470 -1.0594
 4011TIP3    H211998   5.498   0.843   2.712  0.7583 -1.6569 -0.5950
 4012TIP3   OH211999   2.607   6.401   4.216 -0.2627 -0.2966 -0.3390
 4012TIP3    H112000   2.568   6.407   4.128 -1.2405  0.8673  0.1427
 4012TIP3    H212001   2.693   6.443   4.207 -1.4792  2.4445 -0.1747
 4013TIP3   OH212002   6.757   3.580   2.198  0.1821 -0.0603 -0.2138
 4013TIP3    H112003   6.703   3.575   2.277  0.5059 -0.1608  0.0013
 4013TIP3    H212004   6.846   3.563   2.228  0.2855 -0.2733 -0.6281
 4014TIP3   OH212005   0.130   4.063   5.606  0.5056 -0.0525  0.1977
 4014TIP3    H112006   0.050   4.107   5.578  2.5578  4.2977  0.3209
 4014TIP3    H212007   0.162   4.020   5.527 -1.7650 -1.7107  0.1114
 4015TIP3   OH212008   6.301   3.246   1.480  0.3464  0.3092 -0.4845
 4015TIP3    H112009   6.362   3.297   1.427 -0.5390  0.1753 -1.6735
 4015TIP3    H212010   6.215   3.287   1.464  0.2483  1.2437  2.0765
 4016TIP3   OH212011   7.043   1.197   2.947 -0.0492 -0.2674  0.3605
 4016TIP3    H112012   7.065   1.223   2.858 -1.1514  1.2833  0.4948
 4016TIP3    H212013   7.126   1.171   2.986  0.7752  0.9292 -0.5287
 4017TIP3   OH212014   1.524   6.073   3.809  0.0926 -0.2739 -0.2273
 4017TIP3    H112015   1.544   6.125   3.886 -0.0870 -0.3755 -0.1139
 4017TIP3    H212016   1.433   6.045   3.820 -0.1813  0.3534 -0.8437
 4018TIP3   OH212017   5.063   0.198   1.589 -0.2514  0.2691  0.2928
 4018TIP3    H112018   5.002   0.272   1.585  0.0594  0.5445 -4.1205
 4018TIP3    H212019   5.138   0.230   1.639 -1.5472  1.6365  1.4538
 4019TIP3   OH212020   4.198   5.864   0.009 -0.0982  0.1536  0.3351
 4019TIP3    H112021   4.136   5.815   0.063  0.5899 -1.3550 -0.2181
 4019TIP3    H212022   4.174   5.956   0.024 -1.7802 -0.3454  0.9459
 4020TIP3   OH212023   0.369   0.748   2.661 -0.4353  0.3265 -0.2613
 4020TIP3    H112024   0.397   0.778   2.748  0.1582 -1.0457  0.0470
 4020TIP3    H212025   0.442   0.771   2.604 -1.0131  1.6344 -0.5061
 4021TIP3   OH212026   4.224   1.330   3.066  0.2147  0.2049  0.0921
 4021TIP3    H112027   4.162   1.270   3.025  0.3319 -0.0107  0.2296
 4021TIP3    H212028   4.303   1.278   3.080  0.1205  0.2249  0.7517
 4022TIP3   OH212029   6.962   6.025   3.146  0.2580 -0.0623  0.1242
 4022TIP3    H112030   7.020   6.004   3.220 -0.5326 -0.4428  0.6533
 4022TIP3    H212031   6.910   5.946   3.133  2.1701 -1.0277 -2.6068
 4023TIP3   OH212032   3.602   5.799   0.954  0.4004  0.3852 -0.2834
 4023TIP3    H112033   3.619   5.891   0.971  1.1370  0.0615  0.8762
 4023TIP3    H212034   3.581   5.763   1.041  0.8990 -0.6954 -0.5993
 4024TIP3   OH212035   2.301   1.091   0.777  0.2193  0.1810  0.9068
 4024TIP3    H112036   2.395   1.090   0.790  0.2801 -1.1732  0.4993
 4024TIP3    H212037   2.285   1.168   0.722  1.3852 -0.9345 -1.0775
 4025TIP3   OH212038   3.519   1.241   0.121 -0.0682 -0.1341 -0.1277
 4025TIP3    H112039   3.428   1.247   0.092  0.0722 -0.5452 -0.6725
 4025TIP3    H212040   3.555   1.328   0.106 -0.6054  0.2983  0.9405
 4026TIP3   OH212041   0.078   5.909   1.243  0.7797 -0.1773  0.2844
 4026TIP3    H112042   0.121   5.975   1.189  0.8531 -1.0975 -0.8339
 4026TIP3    H212043  -0.012   5.904   1.210 -0.9088  2.9423  3.7012
 4027TIP3   OH212044   7.158  -0.006   4.189  0.4096  0.3037 -0.2389
 4027TIP3    H112045   7.235  -0.021   4.243  0.1561 -1.2434 -0.2792
 4027TIP3    H212046   7.105   0.056   4.241  0.7874 -0.1118  0.6685
 4028TIP3   OH212047   5.729   1.847   3.813 -0.7100  0.5680 -0.6970
 4028TIP3    H112048   5.677   1.859   3.892  1.1972 -0.5750  0.8334
 4028TIP3    H212049   5.668   1.810   3.748 -1.7985 -0.7851  1.0104
 4029TIP3   OH212050   5.443   5.599   2.705 -0.3385  0.3102  0.8866
 4029TIP3    H112051   5.500   5.662   2.662  0.0638  1.0532  2.4174
 4029TIP3    H212052   5.367   5.650   2.732 -1.2715 -0.4513 -0.2014
 4030TIP3   OH212053   4.857   6.702   2.353  0.0637  0.0138  0.1207
 4030TIP3    H112054   4.773   6.747   2.348 -0.1970 -0.4783  0.0931
 4030TIP3    H212055   4.875   6.673   2.264 -0.0973 -0.5380  0.2659
 4031TIP3   OH212056   5.316   5.299   2.914  0.5218  0.4411 -0.1904
 4031TIP3    H112057   5.291   5.390   2.927  0.3317  0.4161 -0.3707
 4031TIP3    H212058   5.404   5.303   2.875  0.9659  0.5209  0.7918
 4032TIP3   OH212059   2.489   5.908   3.281 -0.0729 -0.6316  0.4301
 4032TIP3    H112060   2.498   5.972   3.351 -0.1880  0.9329 -0.9165
 4032TIP3    H212061   2.575   5.903   3.241 -0.6860  0.7645 -1.1609
 4033TIP3   OH212062   2.690   3.751   4.284 -0.2737 -0.3346 -0.3773
 4033TIP3    H112063   2.765   3.783   4.233  0.0013 -1.8571 -0.9973
 4033TIP3    H212064   2.706   3.784   4.373 -0.3227  1.6647 -1.0663
 4034TIP3   OH212065   4.892   4.760   1.749  0.5272 -0.3058 -0.6175
 4034TIP3    H112066   4.969   4.703   1.751 -0.1784 -1.2799 -0.1478
 4034TIP3    H212067   4.822   4.707   1.789 -0.3541  0.5993 -0.9163
 4035TIP3   OH212068   0.102   2.193   0.150  0.1085  0.5581  0.4730
 4035TIP3    H112069   0.014   2.155   0.149  0.4645 -0.3457  1.1030
 4035TIP3    H212070   0.158   2.122   0.119  0.4814  1.5521 -1.1860
 4036TIP3   OH212071   0.633   1.453   5.173 -0.1419 -0.1458  0.0090
 4036TIP3    H112072   0.626   1.374   5.227 -1.7619 -0.3028 -0.3736
 4036TIP3    H212073   0.565   1.512   5.207  0.4322  0.7109 -0.3000
 4037TIP3   OH212074   2.394   2.030   3.989 -0.6205  0.5805 -0.4451
 4037TIP3    H112075   2.464   1.967   4.008 -1.3254 -0.2814 -0.6253
 4037TIP3    H212076   2.430   2.115   4.015 -0.1852 -0.0714  1.1980
 4038TIP3   OH212077   0.324   0.728   5.883 -0.2750  0.4871 -0.0907
 4038TIP3    H112078   0.327   0.633   5.874  2.6513  0.4361  0.4638
 4038TIP3    H212079   0.414   0.757   5.868 -0.4802  2.9153  2.4567
 4039TIP3   OH212080   5.347   1.154   3.498  0.1848  0.4866  0.2963
 4039TIP3    H112081   5.352   1.250   3.502  0.5614  0.5832 -1.6540
 4039TIP3    H212082   5.314   1.136   3.410  0.6140 -1.1939  0.4572
 4040TIP3   OH212083   2.623   5.271   4.852 -0.0470 -0.0102 -0.4587
 4040TIP3    H112084   2.548   5.228   4.892  0.2221 -0.6684 -0.6509
 4040TIP3    H212085   2.699   5.231   4.894  0.2057  1.1058  0.2083
 4041TIP3   OH212086   5.201   4.278   5.516  0.2949  0.0061  0.3613
 4041TIP3    H112087   5.289   4.308   5.538  0.5199 -0.3052 -0.1111
 4041TIP3    H212088   5.210   4.185   5.499  0.1314  0.2088 -0.9978
 4042TIP3   OH212089   0.778   6.357   3.922 -0.3619  0.0676 -0.0700
 4042TIP3    H112090   0.734   6.331   4.003 -0.7598  0.5469 -0.1299
 4042TIP3    H212091   0.822   6.277   3.892 -0.2695 -0.1326  0.5803
 4043TIP3   OH212092   4.063   2.427   5.795  0.4115  0.3400 -0.1226
 4043TIP3    H112093   3.977   2.418   5.836  0.7038  0.7494  0.5959
 4043TIP3    H212094   4.121   2.454   5.866  1.6284 -2.1270 -0.0682
 4044TIP3   OH212095   0.988   6.615   4.006  0.1821 -0.2662 -0.3713
 4044TIP3    H112096   0.983   6.606   3.911 -1.9645  0.1641 -0.3468
 4044TIP3    H212097   0.943   6.698   4.024 -0.1600 -0.7485  1.0882
 4045TIP3   OH212098   3.046   2.500   1.821 -0.4069  0.0540  0.5199
 4045TIP3    H112099   3.139   2.513   1.840  0.1042 -2.0363 -0.2678
 4045TIP3    H212100   3.035   2.536   1.733 -0.5023  0.7968  0.8227
 4046TIP3   OH212101   3.913   5.280   0.684  0.3238 -0.3281  0.0473
 4046TIP3    H112102   4.001   5.247   0.668  0.6107  0.8958 -1.0196
 4046TIP3    H212103   3.925   5.352   0.746 -0.0996 -1.0520  0.9929
 4047TIP3   OH212104   4.521   3.274   5.874 -0.0393 -0.1617  0.1459
 4047TIP3    H112105   4.479   3.352   5.835  0.2070  0.7254  1.5894
 4047TIP3    H212106   4.500   3.203   5.813 -2.1457  0.5940 -0.0900
 4048TIP3   OH212107   4.935   6.253   1.046 -0.4925 -0.0381  0.0688
 4048TIP3    H112108   4.899   6.279   1.131 -0.5252  0.2843 -0.0388
 4048TIP3    H212109   5.014   6.307   1.037 -0.9010  0.4867 -0.4388
 4049TIP3   OH212110   3.060   4.507   2.703  0.2816  0.2049 -0.6781
 4049TIP3    H112111   3.078   4.563   2.779  0.1827 -1.4823  0.6336
 4049TIP3    H212112   3.010   4.434   2.738 -0.3252 -0.3171 -2.4994
 4050TIP3   OH212113   2.585   4.444   5.136 -0.1453  0.8894  0.5174
 4050TIP3    H112114   2.600   4.447   5.041 -0.5827  1.1364  0.4533
 4050TIP3    H212115   2.604   4.532   5.166 -0.1420  0.8472  0.6366
 4051TIP3   OH212116   6.350   2.906   1.007 -0.3027 -0.8953  0.2620
 4051TIP3    H112117   6.279   2.971   1.005 -0.1308 -0.6771  0.9860
 4051TIP3    H212118   6.311   2.830   1.051 -0.3430 -1.0937 -0.1115
 4052TIP3   OH212119   6.441   0.316   0.702  0.3694  0.7773 -0.6435
 4052TIP3    H112120   6.386   0.392   0.679 -0.3942  0.4241 -0.0202
 4052TIP3    H212121   6.440   0.314   0.798  0.4858  0.0552 -0.6550
 4053TIP3   OH212122   4.828   3.299   2.087  0.2645  0.1439  0.2977
 4053TIP3    H112123   4.769   3.374   2.075  0.4074  0.2883  0.4938
 4053TIP3    H212124   4.788   3.249   2.158  0.2968  0.1627  0.3293
 4054TIP3   OH212125   0.327   1.058   4.390  0.6719  0.0414 -0.1524
 4054TIP3    H112126   0.317   1.124   4.459 -1.0695  0.7649 -1.0321
 4054TIP3    H212127   0.404   1.087   4.341  0.1326  1.2921 -0.3202
 4055TIP3   OH212128   6.948   3.572   3.797  0.6801 -0.5448 -0.1536
 4055TIP3    H112129   6.962   3.591   3.704 -0.5324 -2.0128 -0.6873
 4055TIP3    H212130   6.957   3.656   3.841  1.5127  0.1419 -1.5673
 4056TIP3   OH212131   6.995   3.480   5.192  0.1763 -0.0490 -1.0133
 4056TIP3    H112132   6.904   3.454   5.206 -0.5707  2.9140  0.5663
 4056TIP3    H212133   6.990   3.550   5.126  1.3141  0.0553 -1.0006
 4057TIP3   OH212134   5.881   1.394   4.911  0.0468  0.5635  0.0456
 4057TIP3    H112135   5.791   1.407   4.941 -0.4123  0.3453 -1.1870
 4057TIP3    H212136   5.909   1.313   4.953 -0.3048  0.6553  0.4647
 4058TIP3   OH212137   3.726   1.798   1.650  0.1252  0.2890 -0.6802
 4058TIP3    H112138   3.792   1.802   1.719 -0.9212  1.0029  0.3277
 4058TIP3    H212139   3.774   1.818   1.570  1.5294 -1.3626 -0.3206
 4059TIP3   OH212140   0.634   3.153   5.164  0.2272 -0.5142 -0.0682
 4059TIP3    H112141   0.711   3.144   5.220  0.2534 -0.5157 -0.1043
 4059TIP3    H212142   0.651   3.233   5.113  1.4336 -1.9022 -1.9746
 4060TIP3   OH212143   1.451   4.369   0.865 -0.7357 -0.1543  0.2696
 4060TIP3    H112144   1.370   4.395   0.910 -1.0423  1.0638 -0.9030
 4060TIP3    H212145   1.435   4.279   0.837 -1.6005 -0.0085  0.2534
 4061TIP3   OH212146   6.310   0.429   2.193 -0.2361  0.5531 -0.2056
 4061TIP3    H112147   6.237   0.423   2.254 -0.3284  2.1251 -0.1314
 4061TIP3    H212148   6.388   0.432   2.249 -0.0613 -1.3874 -0.2910
 4062TIP3   OH212149   3.033   2.832   3.791 -0.1855  0.7765  0.7752
 4062TIP3    H112150   3.112   2.886   3.800 -0.7068  2.0508 -1.4893
 4062TIP3    H212151   2.965   2.884   3.834 -0.2034  0.7004  0.8382
 4063TIP3   OH212152   4.471   6.352   2.304 -0.0043  0.4023  0.6021
 4063TIP3    H112153   4.442   6.374   2.216 -1.4532  0.2151  1.0073
 4063TIP3    H212154   4.566   6.359   2.300 -0.1241  1.7554 -0.6006
 4064TIP3   OH212155   1.557   0.918   5.515  0.1271  0.0385 -0.0738
 4064TIP3    H112156   1.613   0.845   5.543  0.5571 -0.6446 -2.4519
 4064TIP3    H212157   1.576   0.989   5.576  1.6635 -1.0087  0.7178
 4065TIP3   OH212158   2.415   1.995   1.919 -0.9613 -0.1443  0.1745
 4065TIP3    H112159   2.501   1.953   1.913 -1.0384 -0.1833 -0.7454
 4065TIP3    H212160   2.365   1.938   1.978  0.5312  1.4352  3.2337
 4066TIP3   OH212161   1.540   6.684   5.290 -0.0842 -0.1382  0.2932
 4066TIP3    H112162   1.492   6.751   5.339 -0.6404  1.1640 -1.9167
 4066TIP3    H212163   1.474   6.644   5.234  0.9472  0.0981 -1.1284
 4067TIP3   OH212164   5.350   6.163   1.052  0.4055 -0.2455 -0.3456
 4067TIP3    H112165   5.256   6.145   1.045  0.2060  0.2901  0.7969
 4067TIP3    H212166   5.383   6.148   0.963 -0.8068 -0.1453 -0.8403
 4068TIP3   OH212167   2.006   2.042   0.146  0.1826 -0.3652  0.8221
 4068TIP3    H112168   1.914   2.049   0.122  0.4048 -1.3737 -0.4192
 4068TIP3    H212169   2.027   2.127   0.184 -1.2714 -0.1468  1.2076
 4069TIP3   OH212170   0.947   5.780   3.831 -0.2671 -0.3926  0.9435
 4069TIP3    H112171   0.996   5.705   3.864 -0.3611 -1.3076 -0.8788
 4069TIP3    H212172   0.997   5.856   3.861  1.8418 -1.2789 -0.1157
 4070TIP3   OH212173   4.284   0.762   4.608  0.2106 -0.6990 -0.3638
 4070TIP3    H112174   4.304   0.679   4.564  2.3571 -0.8600  0.7783
 4070TIP3    H212175   4.280   0.826   4.538 -1.6510 -1.7371 -1.2934
 4071TIP3   OH212176   4.538   6.596   5.656  0.0079  0.1548  0.3051
 4071TIP3    H112177   4.558   6.543   5.733  0.1275  0.8362  0.7514
 4071TIP3    H212178   4.479   6.541   5.604  1.2725 -1.0198  0.0365
 4072TIP3   OH212179   5.573   2.887   1.173 -0.4776 -0.3270 -0.0837
 4072TIP3    H112180   5.599   2.963   1.226  0.8244 -0.4783 -0.4707
 4072TIP3    H212181   5.511   2.922   1.110 -1.7686 -0.0687  1.2733
 4073TIP3   OH212182   0.610   4.816   0.069 -0.2102 -0.2613  0.1418
 4073TIP3    H112183   0.643   4.901   0.039  0.0927 -0.6900 -0.7596
 4073TIP3    H212184   0.661   4.752   0.020 -0.1111 -0.9784  1.1619
 4074TIP3   OH212185   3.472   6.529   0.446  0.4440  0.0415  0.2175
 4074TIP3    H112186   3.381   6.512   0.469  0.1359  2.8775  1.5112
 4074TIP3    H212187   3.509   6.442   0.431 -2.4672 -1.2054 -0.5086
 4075TIP3   OH212188   6.143   2.084   5.546 -0.3702  0.3405 -0.1759
 4075TIP3    H112189   6.109   2.043   5.625 -1.0373  0.0057 -0.6322
 4075TIP3    H212190   6.226   2.123   5.574 -1.3704  1.6922  1.1008
 4076TIP3   OH212191   1.133   2.633   2.040  0.2044 -0.3612 -0.2474
 4076TIP3    H112192   1.072   2.706   2.046  1.3068  0.6078 -0.4648
 4076TIP3    H212193   1.117   2.582   2.119 -0.9143 -0.1495 -0.3319
 4077TIP3   OH212194   1.314   5.431   4.919 -0.4096 -0.0265 -0.0724
 4077TIP3    H112195   1.287   5.361   4.860  1.0453 -0.1669 -0.6036
 4077TIP3    H212196   1.309   5.510   4.866 -0.1181 -0.0010 -0.0589
 4078TIP3   OH212197   5.630   0.914   2.432 -0.0235 -0.1233 -0.3152
 4078TIP3    H112198   5.587   0.990   2.393  2.0034  0.9779 -0.5483
 4078TIP3    H212199   5.604   0.917   2.524 -1.4619 -0.2772 -0.6940
 4079TIP3   OH212200   2.896   3.536   1.516  0.2966 -0.1984 -0.2116
 4079TIP3    H112201   2.974   3.486   1.490 -0.0451 -0.1532 -1.3495
 4079TIP3    H212202   2.894   3.611   1.457 -1.3449 -0.9028 -1.1182
 4080TIP3   OH212203   4.599   2.653   1.915  0.1958  0.1316 -0.0948
 4080TIP3    H112204   4.691   2.629   1.906  0.0632 -0.2631 -0.4323
 4080TIP3    H212205   4.591   2.684   2.005  1.3229  3.1375 -0.9400
 4081TIP3   OH212206   2.321   6.385   3.691 -0.1187 -0.1221 -0.3427
 4081TIP3    H112207   2.296   6.413   3.603  0.0707 -1.0468 -0.6960
 4081TIP3    H212208   2.250   6.327   3.719  1.3188 -2.4124 -1.1796
 4082TIP3   OH212209   5.360   2.135   2.551 -0.1446  0.2518  0.4353
 4082TIP3    H112210   5.347   2.042   2.566  0.3416  0.3067  1.2463
 4082TIP3    H212211   5.380   2.172   2.637 -1.5314  1.3274  0.3382
 4083TIP3   OH212212   0.984   1.282   2.136  0.3158 -0.1450 -0.0052
 4083TIP3    H112213   0.992   1.368   2.177  0.0754 -0.4110  0.6135
 4083TIP3    H212214   1.054   1.280   2.071  0.5576  0.3727  0.2309
 4084TIP3   OH212215   3.087   0.034   0.964  0.2966  0.0799 -0.6337
 4084TIP3    H112216   3.150   0.080   1.019  1.1863 -0.7858 -0.8863
 4084TIP3    H212217   3.053  -0.036   1.020 -0.0399  0.2213 -0.6634
 4085TIP3   OH212218   5.447   5.614   5.238 -0.2110  0.6159  0.0566
 4085TIP3    H112219   5.374   5.553   5.225  0.3301 -0.0791  0.1843
 4085TIP3    H212220   5.481   5.631   5.150  2.2307 -2.5600  0.1855
 4086TIP3   OH212221   6.558   3.379   4.384 -0.3089 -0.0486  0.0848
 4086TIP3    H112222   6.513   3.454   4.347  1.0232 -0.4036 -2.4380
 4086TIP3    H212223   6.603   3.413   4.462 -0.0277  1.6953 -0.8090
 4087TIP3   OH212224   4.004   2.073   0.158 -0.0449 -0.0327  0.5679
 4087TIP3    H112225   4.000   2.169   0.156  0.3923 -0.0255 -0.1698
 4087TIP3    H212226   4.068   2.051   0.091 -1.0626 -0.9098 -0.1435
 4088TIP3   OH212227   7.108   4.246   1.819 -0.6210  0.2962  0.0706
 4088TIP3    H112228   7.017   4.238   1.789 -0.3556 -1.9983 -0.3216
 4088TIP3    H212229   7.152   4.169   1.782  1.2380  0.8088  1.1114
 4089TIP3   OH212230   6.865   3.640   5.796 -0.4822  0.0763  0.4336
 4089TIP3    H112231   6.931   3.654   5.728 -1.5136  1.3368 -0.3578
 4089TIP3    H212232   6.842   3.547   5.788  0.0171  0.0114 -0.3684
 4090TIP3   OH212233   6.044   4.180   2.743  0.1660  0.4511 -0.2225
 4090TIP3    H112234   6.113   4.203   2.806 -0.5172  1.9428  0.0294
 4090TIP3    H212235   6.038   4.084   2.748  0.4342  0.4951  1.6641
 4091TIP3   OH212236   6.536   4.913   3.734 -0.2510  0.1786  0.1429
 4091TIP3    H112237   6.566   4.925   3.644 -0.7065 -0.0626 -0.0475
 4091TIP3    H212238   6.614   4.926   3.787  0.3413 -1.0782 -0.3766
 4092TIP3   OH212239   3.360   1.607   4.406  0.0059 -0.8245  0.1652
 4092TIP3    H112240   3.357   1.513   4.424 -0.4806 -0.3964  2.7573
 4092TIP3    H212241   3.275   1.626   4.366 -0.0689 -1.4363  0.0247
 4093TIP3   OH212242   0.430   5.391   5.438  0.1779 -0.4861 -0.5319
 4093TIP3    H112243   0.362   5.446   5.400 -1.5650 -2.5224 -0.5388
 4093TIP3    H212244   0.508   5.447   5.439 -1.3459  1.7834 -0.9398
 4094TIP3   OH212245   3.202   2.191   0.353  0.0799  0.0346 -0.1650
 4094TIP3    H112246   3.229   2.114   0.403 -1.3441 -0.8170 -0.6627
 4094TIP3    H212247   3.135   2.233   0.406  0.3594  0.5700 -0.2186
 4095TIP3   OH212248   6.692   6.547   5.219  0.4444 -0.1998 -0.2017
 4095TIP3    H112249   6.665   6.543   5.127  0.1400  0.1274 -0.1267
 4095TIP3    H212250   6.683   6.457   5.250  0.1093 -0.2268 -0.3709
 4096TIP3   OH212251   6.533   1.492   3.835 -0.3162 -0.1815 -0.0484
 4096TIP3    H112252   6.572   1.511   3.749 -0.6936 -0.0335 -0.1903
 4096TIP3    H212253   6.586   1.421   3.870 -1.0764 -1.2893 -1.0573
 4097TIP3   OH212254   4.544   0.583   3.697  0.4128  0.4564 -0.1982
 4097TIP3    H112255   4.614   0.540   3.746  1.6003  1.3229 -1.0382
 4097TIP3    H212256   4.590   0.626   3.624 -1.2560 -0.7866 -2.0906
 4098TIP3   OH212257   0.072   3.061   1.363  0.1677  0.3445  0.0239
 4098TIP3    H112258   0.125   3.085   1.288 -0.6749  1.4506 -0.2500
 4098TIP3    H212259   0.132   3.062   1.437  0.5318  1.7379 -0.2511
 4099TIP3   OH212260   3.806   5.680   0.823  0.1274  0.2374 -0.3895
 4099TIP3    H112261   3.749   5.630   0.764 -0.3349 -2.0441  1.8299
 4099TIP3    H212262   3.747   5.713   0.891  1.0930 -0.1984  0.6924
 4100TIP3   OH212263   1.152   3.417   2.177 -0.2264 -0.6538 -0.8496
 4100TIP3    H112264   1.184   3.503   2.205  1.0300 -1.5578  0.6542
 4100TIP3    H212265   1.222   3.382   2.122 -0.5827 -0.8763 -1.1674
 4101TIP3   OH212266   4.292   5.859   2.087  0.3167 -0.4907 -0.0426
 4101TIP3    H112267   4.253   5.883   2.002  0.1805 -1.0936 -0.1518
 4101TIP3    H212268   4.334   5.775   2.071 -0.0473 -0.7947  0.5910
 4102TIP3   OH212269   4.229   5.201   4.404  0.1598  0.5657 -0.4651
 4102TIP3    H112270   4.321   5.195   4.431  0.5914  0.9190 -1.8125
 4102TIP3    H212271   4.185   5.131   4.453  1.4310 -0.6576 -1.0135
 4103TIP3   OH212272   7.176   3.218   2.683 -0.6702 -0.3104  0.7737
 4103TIP3    H112273   7.145   3.153   2.620 -3.5976  0.8449  0.8396
 4103TIP3    H212274   7.106   3.223   2.749  2.0611 -1.1986  4.0412
 4104TIP3   OH212275   2.523   4.257   3.631  0.1816 -0.0774 -0.1606
 4104TIP3    H112276   2.597   4.271   3.690  0.0020  0.2484 -0.0102
 4104TIP3    H212277   2.472   4.337   3.637 -0.7129 -0.6720  0.4914
 4105TIP3   OH212278   2.077   6.292   3.075 -0.1284 -0.6714 -0.4028
 4105TIP3    H112279   2.074   6.295   2.980  2.0395  3.2431 -0.6022
 4105TIP3    H212280   1.991   6.321   3.103 -0.1792  0.1008 -1.2997
 4106TIP3   OH212281   2.214   3.645   1.084 -0.4371 -0.1849  0.2492
 4106TIP3    H112282   2.286   3.586   1.062 -0.3312 -0.2784  0.8371
 4106TIP3    H212283   2.136   3.602   1.048 -0.5586 -1.3745  1.8256
 4107TIP3   OH212284   5.229   0.717   3.823 -0.0538 -0.3297  0.2889
 4107TIP3    H112285   5.252   0.808   3.839  1.0827 -0.6067  0.3010
 4107TIP3    H212286   5.293   0.667   3.873 -0.3947 -1.1409 -0.0711
 4108TIP3   OH212287   5.737   4.455   3.471 -0.5388 -0.9907  0.3613
 4108TIP3    H112288   5.729   4.482   3.563  0.7711 -2.1542  0.8497
 4108TIP3    H212289   5.760   4.535   3.424  0.2788 -0.6585  1.2981
 4109TIP3   OH212290   5.500   1.426   1.900 -0.2916  0.2777 -0.2233
 4109TIP3    H112291   5.459   1.355   1.950 -3.1407 -0.2807 -3.0167
 4109TIP3    H212292   5.547   1.382   1.830 -0.5141  1.0798 -0.8947
 4110TIP3   OH212293   5.869   2.394   5.036  0.2068  0.6354  0.2305
 4110TIP3    H112294   5.910   2.413   5.121  0.0135 -2.5752  1.1942
 4110TIP3    H212295   5.847   2.301   5.041 -0.5380  0.5169 -3.0876
 4111TIP3   OH212296   3.221   5.796   5.734 -0.2369 -0.0302  0.3203
 4111TIP3    H112297   3.222   5.807   5.829 -1.3755  0.8255  0.2461
 4111TIP3    H212298   3.307   5.757   5.714 -0.8030 -2.3128  1.9207
 4112TIP3   OH212299   0.217   2.826   0.184 -0.0999  0.5125  0.2351
 4112TIP3    H112300   0.209   2.815   0.090  2.3973  0.3730 -0.0316
 4112TIP3    H212301   0.128   2.815   0.217 -0.7904 -1.1453 -1.9293
 4113TIP3   OH212302   1.838   0.728   0.456  0.5652  0.4030 -0.2738
 4113TIP3    H112303   1.800   0.680   0.530 -0.9020 -0.8698 -1.7892
 4113TIP3    H212304   1.765   0.774   0.416  0.8220 -0.8447 -2.3351
 4114TIP3   OH212305   4.341   1.576   2.834 -0.3537  0.0164  0.4870
 4114TIP3    H112306   4.386   1.622   2.764 -1.6828 -1.0399 -1.1742
 4114TIP3    H212307   4.403   1.573   2.906  1.1817  0.9121 -0.7484
 4115TIP3   OH212308   1.448   0.834   2.920 -0.0011  0.5733  0.7257
 4115TIP3    H112309   1.513   0.770   2.952  0.8824  1.6848  1.2461
 4115TIP3    H212310   1.364   0.791   2.932  0.5644 -0.4427  1.1927
 4116TIP3   OH212311   0.078   0.448   5.799 -0.3348  0.9591 -0.1724
 4116TIP3    H112312   0.025   0.444   5.879  0.7425 -2.2360  0.5364
 4116TIP3    H212313   0.165   0.475   5.830  0.9141 -3.0847  0.4714
 4117TIP3   OH212314   5.232   5.742   2.732 -0.1727  0.0279  0.0341
 4117TIP3    H112315   5.193   5.656   2.719 -1.8922  0.5945  1.1391
 4117TIP3    H212316   5.207   5.791   2.653 -1.5809  0.3164  0.6303
 4118TIP3   OH212317   1.020   5.739   1.929 -0.2589  0.5113  0.1439
 4118TIP3    H112318   1.090   5.694   1.977 -0.5609 -0.5473 -0.3862
 4118TIP3    H212319   1.064   5.776   1.852 -0.3350 -0.4549 -0.3720
 4119TIP3   OH212320   4.543   6.269   1.540  0.8201 -0.4209 -0.2201
 4119TIP3    H112321   4.535   6.306   1.452  0.6470 -1.8386 -0.8328
 4119TIP3    H212322   4.601   6.329   1.587 -0.7851  1.5577 -0.5972
 4120TIP3   OH212323   3.181   3.623   5.227  0.2777 -0.1918  0.8048
 4120TIP3    H112324   3.103   3.650   5.178  1.1873  0.4050 -0.3750
 4120TIP3    H212325   3.151   3.611   5.317 -0.6546  2.6222  0.9394
 4121TIP3   OH212326   4.802   2.343   4.792 -0.2316 -0.6509  0.5417
 4121TIP3    H112327   4.811   2.406   4.720  0.1939 -1.0414  0.2483
 4121TIP3    H212328   4.868   2.370   4.856 -0.1060 -0.7537  0.4538
 4122TIP3   OH212329   2.109   3.914   1.561  0.3129  0.4148  0.1888
 4122TIP3    H112330   2.153   3.864   1.492 -0.1442  1.7866 -1.1768
 4122TIP3    H212331   2.181   3.956   1.609  0.6645 -1.0056  0.9491
 4123TIP3   OH212332   1.725   0.741   5.711 -0.1506 -0.0226  0.3599
 4123TIP3    H112333   1.671   0.744   5.789  0.1379  0.8772  0.5332
 4123TIP3    H212334   1.814   0.730   5.744  0.0505  1.0555  0.1964
 4124TIP3   OH212335   6.711   4.171   5.186 -0.5899 -0.4947 -0.2630
 4124TIP3    H112336   6.616   4.162   5.187 -0.6726  0.2274 -0.6930
 4124TIP3    H212337   6.733   4.187   5.094 -0.4362  2.7916  0.2162
 4125TIP3   OH212338   4.331   2.820   4.796  0.4932 -0.3881  0.0668
 4125TIP3    H112339   4.374   2.900   4.768  2.0667 -0.5299  1.8486
 4125TIP3    H212340   4.389   2.749   4.767 -1.2956 -1.0160 -2.2390
 4126TIP3   OH212341   4.904   0.505   3.494 -0.1690  0.0728 -0.8020
 4126TIP3    H112342   4.987   0.533   3.532 -1.0540  2.4760 -0.4398
 4126TIP3    H212343   4.915   0.411   3.478  1.4272 -0.4059  2.3246
 4127TIP3   OH212344   5.543   2.771   3.235 -0.5170 -0.3376  0.3449
 4127TIP3    H112345   5.541   2.853   3.185 -1.1978 -0.2088  0.5843
 4127TIP3    H212346   5.628   2.772   3.279 -0.4675  0.1777  0.2402
 4128TIP3   OH212347   2.632   0.418   3.581  0.2510 -1.0941  0.0285
 4128TIP3    H112348   2.567   0.358   3.616 -0.1849  0.0035  1.1686
 4128TIP3    H212349   2.624   0.497   3.635  2.1297 -0.7204 -0.1652
 4129TIP3   OH212350   1.906   2.894   2.102  1.0752 -0.1558 -0.2411
 4129TIP3    H112351   1.897   2.974   2.051  1.6314  0.2551  0.2894
 4129TIP3    H212352   1.975   2.914   2.166  0.4047 -0.6634  0.6602
 4130TIP3   OH212353   4.957   1.530   1.649  0.6460 -0.1358  0.0129
 4130TIP3    H112354   5.052   1.542   1.651  0.6809 -0.4776  0.7335
 4130TIP3    H212355   4.938   1.502   1.559  0.9561  1.9575 -0.7549
 4131TIP3   OH212356   1.919   6.511   5.732  0.0415 -0.5808 -0.2113
 4131TIP3    H112357   1.926   6.445   5.662  0.6025  0.3015 -1.0138
 4131TIP3    H212358   1.893   6.591   5.686 -0.4607 -0.1953  0.7256
 4132TIP3   OH212359   1.912   0.669   3.895  0.3601 -0.0837  0.0946
 4132TIP3    H112360   1.970   0.689   3.969  0.5715 -0.1161 -0.0605
 4132TIP3    H212361   1.962   0.696   3.818  1.1749 -2.3121 -0.2350
 4133TIP3   OH212362   1.698   3.496   1.345 -0.4409 -0.0019  0.6806
 4133TIP3    H112363   1.773   3.502   1.286 -1.3635 -1.1143 -0.6621
 4133TIP3    H212364   1.633   3.447   1.296 -0.7905 -2.1539  3.1091
 4134TIP3   OH212365   6.702   3.788   4.805  0.2902  0.3103  0.1966
 4134TIP3    H112366   6.621   3.828   4.774 -0.9057 -2.7922 -1.1526
 4134TIP3    H212367   6.769   3.818   4.745 -0.0952  1.8426  0.4913
 4135TIP3   OH212368   4.179   5.769   4.382  0.0861 -0.4512  0.5118
 4135TIP3    H112369   4.088   5.757   4.406 -0.2549 -1.8263 -1.2161
 4135TIP3    H212370   4.218   5.682   4.390  1.5472  0.2854  2.1985
 4136TIP3   OH212371   5.856   5.825   3.792 -0.7302  0.1200 -0.4948
 4136TIP3    H112372   5.849   5.768   3.716 -1.4413 -0.6218  0.1060
 4136TIP3    H212373   5.796   5.897   3.773 -0.6308  0.1256 -0.7961
 4137TIP3   OH212374   3.983   0.704   0.142  0.2904 -0.0241 -0.0465
 4137TIP3    H112375   3.980   0.796   0.115  0.5491 -0.4211 -1.5340
 4137TIP3    H212376   4.072   0.676   0.120 -0.9302 -1.7070 -3.6139
 4138TIP3   OH212377   6.252   2.081   2.720 -0.3558 -0.1978 -0.2513
 4138TIP3    H112378   6.239   2.168   2.682 -0.0101 -0.3116 -0.6350
 4138TIP3    H212379   6.312   2.096   2.793  1.3807 -0.3936 -1.5806
 4139TIP3   OH212380   4.427   2.720   0.069 -0.0588  0.0290 -0.1237
 4139TIP3    H112381   4.473   2.724  -0.015 -0.5755 -1.0771 -0.4761
 4139TIP3    H212382   4.355   2.783   0.060 -0.0221  0.0247 -0.4522
 4140TIP3   OH212383   0.948   6.401   5.241 -0.6096 -0.1833 -0.4904
 4140TIP3    H112384   0.863   6.387   5.285  0.2153  1.0381  1.6534
 4140TIP3    H212385   0.944   6.492   5.210  0.5707  0.5845  1.3981
 4141TIP3   OH212386   5.223   0.324   3.556  0.0059 -0.2391 -0.3223
 4141TIP3    H112387   5.139   0.299   3.519 -0.3653 -3.0338  2.0520
 4141TIP3    H212388   5.288   0.299   3.490 -0.8629 -0.8732 -0.9473
 4142TIP3   OH212389   3.268   3.912   1.864  0.1194 -0.3161 -0.2070
 4142TIP3    H112390   3.267   4.001   1.901 -2.5790 -0.4899  0.3381
 4142TIP3    H212391   3.292   3.856   1.937  2.2103 -0.0766 -0.6416
 4143TIP3   OH212392   2.712   3.936   1.326  0.8265  0.2755 -0.5814
 4143TIP3    H112393   2.647   4.005   1.314 -1.7438 -1.4741  1.7898
 4143TIP3    H212394   2.796   3.979   1.311 -0.5544  4.0628  1.1272
 4144TIP3   OH212395   0.574   6.068   0.039  0.3327 -0.2707 -0.3052
 4144TIP3    H112396   0.500   6.118   0.075 -0.8312 -0.7442 -1.9086
 4144TIP3    H212397   0.550   5.977   0.055  1.2764 -0.3969  0.4334
 4145TIP3   OH212398   0.123   5.371   5.080  0.4379 -0.1007 -0.4098
 4145TIP3    H112399   0.183   5.306   5.042 -0.0345 -0.6830 -0.1794
 4145TIP3    H212400   0.037   5.347   5.045  0.2903  0.5393 -0.4941
 4146TIP3   OH212401   6.178   3.723   1.010  0.2282 -0.3500 -0.5148
 4146TIP3    H112402   6.226   3.744   1.091  0.2439 -0.3355 -0.5283
 4146TIP3    H212403   6.237   3.748   0.940  0.3171 -0.6007 -0.5318
 4147TIP3   OH212404   0.273   4.870   3.777 -0.0132 -0.2889  1.1773
 4147TIP3    H112405   0.220   4.796   3.748  0.4496 -0.5846  1.0727
 4147TIP3    H212406   0.336   4.832   3.837  0.7153 -0.1111  0.5414
 4148TIP3   OH212407   5.154   4.809   5.703 -0.1073 -0.3036 -0.0764
 4148TIP3    H112408   5.222   4.873   5.723  0.7504 -0.8177 -1.2282
 4148TIP3    H212409   5.202   4.730   5.677 -1.1289 -0.4628 -1.5888
 4149TIP3   OH212410   7.018   5.128   2.442  0.3108  0.0985  0.2526
 4149TIP3    H112411   7.055   5.095   2.360  2.6091 -0.1704  1.3115
 4149TIP3    H212412   7.003   5.049   2.495  0.1114  0.3576  0.5889
 4150TIP3   OH212413   7.057   3.178   1.631  0.4302 -0.4754 -0.7467
 4150TIP3    H112414   6.998   3.237   1.679  1.4910 -0.6079  0.7851
 4150TIP3    H212415   7.144   3.216   1.642  0.8240 -1.0173 -1.8311
 4151TIP3   OH212416   1.051   6.508   5.651 -0.4844 -0.2422  0.0790
 4151TIP3    H112417   0.979   6.561   5.617 -1.0284 -0.8007  0.3424
 4151TIP3    H212418   1.071   6.548   5.736  0.7705  1.0535 -0.7830
 4152TIP3   OH212419   2.123   4.717   3.661  0.2996  0.3268 -0.3989
 4152TIP3    H112420   2.034   4.730   3.695  0.8769  1.7349  0.6512
 4152TIP3    H212421   2.119   4.749   3.571 -0.7948 -1.7831 -1.1974
 4153TIP3   OH212422   0.352   5.095   0.697 -0.2584  0.1700  0.4418
 4153TIP3    H112423   0.337   5.006   0.731 -0.1350 -0.3464 -0.7871
 4153TIP3    H212424   0.278   5.146   0.730 -0.5993 -0.4996  0.7563
 4154TIP3   OH212425   4.314   5.250   3.276  0.0917 -0.6086  0.1166
 4154TIP3    H112426   4.328   5.294   3.191  0.3235  1.1756  1.0262
 4154TIP3    H212427   4.239   5.295   3.313  0.9217 -0.3084  1.5034
 4155TIP3   OH212428   6.012   4.542   3.932  0.3653 -0.7689 -0.2697
 4155TIP3    H112429   6.054   4.600   3.868 -2.2264  2.1210  0.3816
 4155TIP3    H212430   5.922   4.533   3.901  0.3261 -3.5733  0.3625
 4156TIP3   OH212431   4.646   5.228   0.082  0.0880  0.5145 -0.0349
 4156TIP3    H112432   4.551   5.229   0.092 -0.0849  0.0380 -1.4251
 4156TIP3    H212433   4.661   5.181  -0.001  1.3697  2.8290 -1.2186
 4157TIP3   OH212434   7.103   5.711   3.750  0.2981  0.6922 -0.5976
 4157TIP3    H112435   7.124   5.699   3.657  0.8460  1.7032 -0.6192
 4157TIP3    H212436   7.079   5.803   3.757  0.1013  0.5832  0.2418
 4158TIP3   OH212437   1.419   6.015   5.706 -0.7900 -0.7176 -0.0441
 4158TIP3    H112438   1.466   6.038   5.626 -0.9242  0.9149  0.3166
 4158TIP3    H212439   1.487   5.992   5.769 -0.6827 -1.9761 -0.5942
 4159TIP3   OH212440   5.816   6.642   5.707 -0.0296  0.8404 -0.3105
 4159TIP3    H112441   5.761   6.565   5.724 -2.2949  2.0725 -1.6320
 4159TIP3    H212442   5.774   6.685   5.632  1.4893  3.0693  0.0428
 4160TIP3   OH212443   7.088   4.978   2.191 -0.5379  0.0053 -0.3655
 4160TIP3    H112444   7.057   4.981   2.101 -0.2854 -0.2419 -0.4597
 4160TIP3    H212445   7.169   4.928   2.188 -0.7511 -0.3769  0.0643
 4161TIP3   OH212446   0.290   5.033   3.564 -0.7213 -0.4019 -0.4433
 4161TIP3    H112447   0.358   4.989   3.514  0.2987  0.0794  0.4807
 4161TIP3    H212448   0.272   4.975   3.638  1.4648  1.1269  1.4353
 4162TIP3   OH212449   3.399   0.179   2.022  0.6649 -0.2580  0.1975
 4162TIP3    H112450   3.414   0.230   1.943  3.0300 -0.0349  0.7141
 4162TIP3    H212451   3.486   0.153   2.051 -0.1673 -0.8347  2.4100
 4163TIP3   OH212452   2.473   3.302   1.070 -0.1247 -0.5022 -0.4706
 4163TIP3    H112453   2.563   3.278   1.089 -0.3103 -0.7784  0.0835
 4163TIP3    H212454   2.422   3.222   1.085 -0.4890 -0.2955 -0.5709
 4164TIP3   OH212455   0.529   3.934   1.973  0.0264 -0.2609  0.0242
 4164TIP3    H112456   0.520   4.029   1.969 -1.0449 -0.3341  0.2775
 4164TIP3    H212457   0.608   3.919   2.024  1.5679  0.4824 -2.0186
 4165TIP3   OH212458   3.639   4.262   1.535  0.1576 -0.3265  0.5296
 4165TIP3    H112459   3.707   4.199   1.511  1.2558  0.8772  0.4111
 4165TIP3    H212460   3.590   4.277   1.454  0.5154 -0.2869  0.3192
 4166TIP3   OH212461   5.173   0.144   2.125 -0.1365 -0.1176  0.3186
 4166TIP3    H112462   5.210   0.096   2.051  0.1163 -1.2759  1.1576
 4166TIP3    H212463   5.143   0.075   2.185 -1.2480  0.7937  0.8441
 4167TIP3   OH212464   1.879   1.056   3.215 -0.2535  0.3600 -0.5936
 4167TIP3    H112465   1.847   0.974   3.255 -0.5256  0.1964 -1.1372
 4167TIP3    H212466   1.842   1.125   3.269  1.4053  0.1236  0.9608
 4168TIP3   OH212467   4.252   4.961   5.647 -0.4435 -0.2570 -0.0484
 4168TIP3    H112468   4.345   4.979   5.632 -0.7815  0.7008 -1.1180
 4168TIP3    H212469   4.212   5.047   5.660 -1.1961 -0.6510  0.3063
 4169TIP3   OH212470   6.959   5.117   5.733 -0.8531 -0.2525 -0.2369
 4169TIP3    H112471   6.924   5.170   5.662 -0.2207  0.5925  0.0742
 4169TIP3    H212472   6.914   5.148   5.811 -1.4651 -1.1037 -0.2324
 4170TIP3   OH212473   0.231   4.888   0.318  0.7604  0.3645 -0.1757
 4170TIP3    H112474   0.285   4.963   0.342  0.4414  1.0331 -1.4386
 4170TIP3    H212475   0.239   4.828   0.392  2.4206  0.8702  0.1013
 4171TIP3   OH212476   6.163   4.120   2.372  0.7327  0.4163 -0.1654
 4171TIP3    H112477   6.172   4.172   2.292 -1.4539  1.3021  0.0996
 4171TIP3    H212478   6.108   4.173   2.429  1.7103 -0.4875  1.7148
 4172TIP3   OH212479   5.678   2.219   5.523 -0.2076 -0.2114  0.0874
 4172TIP3    H112480   5.714   2.212   5.611 -0.6700  0.9395  0.3906
 4172TIP3    H212481   5.722   2.295   5.484 -0.9246  0.0688 -0.2020
 4173TIP3   OH212482   3.213   5.693   1.904 -0.2890  0.2130  0.2760
 4173TIP3    H112483   3.250   5.610   1.874 -0.6847  0.2924 -0.4497
 4173TIP3    H212484   3.119   5.676   1.912 -0.4375  0.7046 -0.3123
 4174TIP3   OH212485   4.613   3.703   3.787  0.2956 -0.0966 -0.6163
 4174TIP3    H112486   4.637   3.619   3.748 -0.4526 -1.4309  1.6212
 4174TIP3    H212487   4.557   3.745   3.721  3.1409  0.1485 -3.0873
 4175TIP3   OH212488   6.974   3.414   1.786  0.5664  0.8280 -0.0157
 4175TIP3    H112489   7.048   3.472   1.802  0.9165  0.5680 -0.6496
 4175TIP3    H212490   6.961   3.368   1.868  1.8393  0.0570 -0.2172
 4176TIP3   OH212491   6.882   3.376   2.058  0.6438 -0.4796 -0.0758
 4176TIP3    H112492   6.839   3.444   2.109  1.0060  0.9199 -1.5546
 4176TIP3    H212493   6.880   3.299   2.114  0.3940  0.7936  1.7303
 4177TIP3   OH212494   6.332   0.588   3.632 -0.5837  0.2767 -0.2694
 4177TIP3    H112495   6.250   0.552   3.667 -0.0093 -0.1308  0.7350
 4177TIP3    H212496   6.371   0.635   3.706 -0.1440  0.8823 -0.8722
 4178TIP3   OH212497   7.010   5.850   1.115  0.2530 -0.3135 -0.3268
 4178TIP3    H112498   6.952   5.786   1.157  0.1976  0.1427  0.3010
 4178TIP3    H212499   7.070   5.797   1.063  1.3623 -1.0260  1.5828
 4179TIP3   OH212500   1.289   1.608   0.841  0.0668  0.0737  0.8601
 4179TIP3    H112501   1.339   1.532   0.871  1.4258 -0.5056 -2.3950
 4179TIP3    H212502   1.201   1.574   0.825  0.2990 -0.4676  0.7139
 4180TIP3   OH212503   5.523   5.189   3.829 -0.6465 -0.3876 -0.2940
 4180TIP3    H112504   5.570   5.145   3.900 -1.0213 -0.5776 -0.1566
 4180TIP3    H212505   5.430   5.176   3.850 -0.7729  0.8270 -0.0280
 4181TIP3   OH212506   0.381   6.292   5.581 -0.0329 -0.3681 -0.1419
 4181TIP3    H112507   0.339   6.242   5.511  0.2336 -0.4935 -0.2106
 4181TIP3    H212508   0.416   6.369   5.538  1.2492 -1.0626 -0.3752
 4182TIP3   OH212509   2.128   1.039   5.246 -0.4266  0.5687 -0.1563
 4182TIP3    H112510   2.054   0.981   5.228  0.9417 -1.0314 -0.8408
 4182TIP3    H212511   2.144   1.084   5.163  0.2756 -0.1745 -0.4288
 4183TIP3   OH212512   1.674   4.947   4.917 -0.4372  0.5258 -0.3743
 4183TIP3    H112513   1.722   5.023   4.951 -2.6904  1.2926  1.3300
 4183TIP3    H212514   1.591   4.948   4.964 -0.3850 -3.3376  0.0800
 4184TIP3   OH212515   1.443   6.229   2.677  0.1992  0.2550 -0.2179
 4184TIP3    H112516   1.517   6.169   2.686  0.5104  0.5220 -0.9212
 4184TIP3    H212517   1.393   6.217   2.758  1.0263  0.0925  0.2905
 4185TIP3   OH212518   3.725   2.895   1.254 -0.3079  0.1944 -0.6580
 4185TIP3    H112519   3.675   2.881   1.174 -2.4913  1.9646  0.3023
 4185TIP3    H212520   3.661   2.927   1.318  1.7088  0.7026  1.2437
 4186TIP3   OH212521   6.051   1.571   3.046  0.0182  0.2725  0.2437
 4186TIP3    H112522   6.136   1.526   3.041  0.1214  0.5778 -1.1142
 4186TIP3    H212523   6.021   1.555   3.135  2.5469  2.0736  1.5544
 4187TIP3   OH212524   4.224   4.233   4.649 -0.1510  0.1816  0.9637
 4187TIP3    H112525   4.192   4.148   4.681 -0.6565  0.7628  2.0496
 4187TIP3    H212526   4.145   4.281   4.624  0.2308 -0.3274 -1.4691
 4188TIP3   OH212527   2.580   0.329   2.859  0.3019  0.0817  0.2045
 4188TIP3    H112528   2.496   0.284   2.850  1.1974 -1.8439  1.0439
 4188TIP3    H212529   2.556   0.421   2.873 -1.6496 -0.3796  0.2070
 4189TIP3   OH212530   0.454   5.950   2.286 -0.4908 -0.5283  0.0593
 4189TIP3    H112531   0.487   5.927   2.199 -0.3842  0.6131 -0.2121
 4189TIP3    H212532   0.473   5.872   2.339  2.6289 -0.0157 -0.0944
 4190TIP3   OH212533   4.120   3.201   5.304 -0.0414  0.5430  0.2255
 4190TIP3    H112534   4.165   3.261   5.363 -0.5897 -0.4058  1.6839
 4190TIP3    H212535   4.112   3.248   5.221  1.2958  1.6906  0.7232
 4191TIP3   OH212536   0.925   2.587   4.282 -0.3117 -0.3680  0.6237
 4191TIP3    H112537   0.908   2.597   4.376  0.5939 -0.4128  0.8091
 4191TIP3    H212538   1.003   2.532   4.278 -1.1386 -1.5191 -0.2057
 4192TIP3   OH212539   3.436   6.599   2.716 -0.1267 -0.8076  0.1658
 4192TIP3    H112540   3.482   6.550   2.785  0.7453 -1.8969 -1.1443
 4192TIP3    H212541   3.358   6.633   2.760  0.6685 -1.0202  1.8248
 4193TIP3   OH212542   5.955   6.517   2.642  0.1732  0.7987  0.5044
 4193TIP3    H112543   6.025   6.532   2.706 -0.3316 -0.3558  1.3728
 4193TIP3    H212544   5.887   6.471   2.692 -1.1746  1.7856 -0.3402
 4194TIP3   OH212545   2.365   3.048   1.113 -0.2201 -0.6459  0.1455
 4194TIP3    H112546   2.387   2.973   1.058  0.5467 -0.2170 -0.1466
 4194TIP3    H212547   2.396   3.024   1.201 -0.7080 -0.9986  0.2213
 4195TIP3   OH212548   4.935   3.499   2.656  0.2778 -0.1493  0.1146
 4195TIP3    H112549   4.900   3.539   2.736 -2.3563  0.2587 -1.1703
 4195TIP3    H212550   4.980   3.570   2.611 -1.4675  0.6068 -0.5192
 4196TIP3   OH212551   4.713   4.753   2.846  0.6666 -0.1943  0.6322
 4196TIP3    H112552   4.772   4.794   2.909  0.3828 -0.3853  1.0285
 4196TIP3    H212553   4.658   4.694   2.899  0.8773 -0.8700  0.1129
 4197TIP3   OH212554   5.088   6.282   2.961 -0.2900 -0.0991 -0.0303
 4197TIP3    H112555   5.100   6.192   2.930 -0.6521 -0.3303  0.4949
 4197TIP3    H212556   4.995   6.287   2.982 -0.5372  0.7688 -1.2160
 4198TIP3   OH212557   0.001   4.420   4.770  0.2016 -0.1934 -0.0885
 4198TIP3    H112558  -0.006   4.357   4.842  1.8074 -0.7298 -0.3624
 4198TIP3    H212559   0.016   4.504   4.813  1.9533 -0.6322  0.2283
 4199TIP3   OH212560   1.713   2.436   0.455  0.1669  0.1664  0.0034
 4199TIP3    H112561   1.726   2.347   0.424 -0.9280 -0.2523  0.6848
 4199TIP3    H212562   1.800   2.477   0.449  0.5275 -0.7171 -0.9749
 4200TIP3   OH212563   2.240   5.983   1.611  0.0241 -0.2568 -0.0793
 4200TIP3    H112564   2.331   6.009   1.597  0.2098 -0.3001  0.9746
 4200TIP3    H212565   2.236   5.892   1.582  0.6199 -0.6314  0.9590
 4201TIP3   OH212566   3.207   3.570   0.334 -0.2382  0.3749  0.5474
 4201TIP3    H112567   3.183   3.630   0.263 -2.0204  0.8834  1.5186
 4201TIP3    H212568   3.144   3.590   0.404  1.3452 -0.2405  2.2057
 4202TIP3   OH212569   0.476   6.429   2.219 -0.2977 -0.5351 -0.3760
 4202TIP3    H112570   0.407   6.479   2.175  0.7945  0.3699 -1.1077
 4202TIP3    H212571   0.430   6.354   2.257 -1.7600  0.3010 -0.4128
 4203TIP3   OH212572   4.025   6.285   1.428  0.7769 -0.0265 -0.5119
 4203TIP3    H112573   4.047   6.193   1.413  0.2639 -0.1207 -0.7153
 4203TIP3    H212574   4.036   6.297   1.522  0.2162 -0.4757 -0.3838
 4204TIP3   OH212575   3.191   0.002   3.971 -0.4655 -0.3166 -0.0700
 4204TIP3    H112576   3.179   0.096   3.968 -3.2436 -0.6133 -1.6703
 4204TIP3    H212577   3.160  -0.024   4.058 -0.4099  0.1587  0.0903
 4205TIP3   OH212578   6.368   2.358   2.066 -0.0914 -0.4157 -0.2115
 4205TIP3    H112579   6.313   2.371   2.144 -0.9948  1.7039 -1.1178
 4205TIP3    H212580   6.457   2.372   2.097 -0.4987  1.2276  0.3466
 4206TIP3   OH212581   5.569   4.430   0.995  0.0597 -0.3499  0.0270
 4206TIP3    H112582   5.539   4.394   0.912 -0.0092 -0.3379  0.0464
 4206TIP3    H212583   5.659   4.457   0.979 -0.1550  0.2278 -0.2195
 4207TIP3   OH212584   3.705   5.159   3.963 -0.2244  0.1503 -0.2550
 4207TIP3    H112585   3.699   5.252   3.984 -0.8677  0.2998 -1.0317
 4207TIP3    H212586   3.775   5.154   3.898 -1.4472  0.3850 -1.6461
 4208TIP3   OH212587   4.025   1.186   2.908 -0.4811 -0.1346  0.2884
 4208TIP3    H112588   4.001   1.278   2.919 -0.3500 -0.1652  0.9187
 4208TIP3    H212589   4.024   1.171   2.814  2.0303  1.2033 -0.0317
 4209TIP3   OH212590   5.320   5.019   3.446 -0.0089 -0.0326  0.0322
 4209TIP3    H112591   5.381   4.949   3.468  0.1891 -0.7525 -2.4750
 4209TIP3    H212592   5.234   4.982   3.463  0.1343 -0.4053 -0.0582
 4210TIP3   OH212593   4.829   5.597   1.321  0.1168 -0.3141  0.4759
 4210TIP3    H112594   4.853   5.639   1.404  1.4661 -0.8247  0.3716
 4210TIP3    H212595   4.734   5.610   1.314  0.0945  0.3693  1.7398
 4211TIP3   OH212596   3.476   3.758   2.509  0.5574  0.5787 -0.1659
 4211TIP3    H112597   3.406   3.802   2.460  0.4650  1.0055  0.3371
 4211TIP3    H212598   3.433   3.723   2.587  0.8811  0.7467  0.0916
 4212TIP3   OH212599   1.348   2.094   0.358  0.2513 -0.2528  0.6245
 4212TIP3    H112600   1.276   2.105   0.296 -0.1071 -0.9359  0.9014
 4212TIP3    H212601   1.365   2.000   0.359 -0.6166 -0.4324  2.4992
 4213TIP3   OH212602   1.412   2.253   1.445 -0.4328  0.9638 -0.1456
 4213TIP3    H112603   1.415   2.227   1.353 -0.0122  0.4807  0.0036
 4213TIP3    H212604   1.336   2.312   1.450 -1.1459  0.1173 -0.5773
 4214TIP3   OH212605   0.968   0.489   2.246  0.1588 -0.3843  0.1067
 4214TIP3    H112606   0.986   0.441   2.327 -0.1023  0.8799  0.9403
 4214TIP3    H212607   0.928   0.424   2.188  0.9149 -1.4581  0.7610
 4215TIP3   OH212608   4.604   2.621   3.082  0.1920 -0.2695 -0.1342
 4215TIP3    H112609   4.662   2.663   3.146 -0.0116  0.0077 -0.1290
 4215TIP3    H212610   4.530   2.589   3.134 -0.5276  0.9419 -0.3588
 4216TIP3   OH212611   4.739   5.839   0.390 -0.1652  0.1517 -0.1810
 4216TIP3    H112612   4.684   5.762   0.377  1.5596 -1.5235  1.6604
 4216TIP3    H212613   4.684   5.899   0.440 -0.7416 -0.9778  0.5936
 4217TIP3   OH212614   3.054   5.215   1.380 -0.0112  0.0996  0.0465
 4217TIP3    H112615   2.963   5.207   1.354  0.1344  0.2708 -0.5222
 4217TIP3    H212616   3.070   5.140   1.438 -0.4481 -0.0473 -0.0241
 4218TIP3   OH212617   5.544   1.442   3.814 -0.0805  0.0421 -0.6209
 4218TIP3    H112618   5.624   1.491   3.833 -0.4932  0.9814 -1.1754
 4218TIP3    H212619   5.566   1.391   3.736  0.2844 -0.4868 -0.1760
 4219TIP3   OH212620   5.547   0.260   0.584  0.6852  0.3577  0.6295
 4219TIP3    H112621   5.513   0.172   0.602 -0.2929  0.7045  0.5709
 4219TIP3    H212622   5.543   0.305   0.668  0.3670  0.6046  0.4849
 4220TIP3   OH212623   3.897   4.525   1.794 -0.0070  0.1479 -0.0703
 4220TIP3    H112624   3.881   4.619   1.781 -1.2425 -0.0733 -0.1807
 4220TIP3    H212625   3.979   4.522   1.844  0.5317  1.2514 -0.8362
 4221TIP3   OH212626   3.653   6.377   4.085 -0.3417  0.2312 -0.1417
 4221TIP3    H112627   3.643   6.305   4.146 -2.0803 -0.1872 -0.8563
 4221TIP3    H212628   3.650   6.336   3.998  1.7504  0.8421 -0.5519
 4222TIP3   OH212629   3.144   0.293   1.826  0.1557 -0.3314 -0.1652
 4222TIP3    H112630   3.075   0.305   1.760 -1.2099 -2.1534  0.8556
 4222TIP3    H212631   3.200   0.225   1.789 -0.7083 -1.4774  0.5880
 4223TIP3   OH212632   6.352   4.717   3.802 -0.5276  0.0557 -0.6069
 4223TIP3    H112633   6.428   4.774   3.787 -0.7273  0.1909 -1.1423
 4223TIP3    H212634   6.296   4.766   3.861  0.1916 -0.4032  0.4991
 4224TIP3   OH212635   4.214   1.496   1.498  0.5367 -0.4176  0.1775
 4224TIP3    H112636   4.186   1.522   1.586 -2.1567 -1.5963 -0.2508
 4224TIP3    H212637   4.175   1.562   1.440 -0.4096 -1.4065 -0.3457
 4225TIP3   OH212638   0.966   6.401   4.175 -0.3276  0.1333  0.0152
 4225TIP3    H112639   0.875   6.375   4.190 -0.4657  0.3456 -0.4086
 4225TIP3    H212640   0.959   6.475   4.114  0.0351  1.3966  1.4682
 4226TIP3   OH212641   2.462   1.543   4.481  0.2718  0.2540 -0.0475
 4226TIP3    H112642   2.393   1.480   4.463  0.9859 -0.9631  1.2950
 4226TIP3    H212643   2.417   1.618   4.519 -0.2928 -0.6907  1.2036
 4227TIP3   OH212644   0.085   2.986   3.327 -0.0512  0.1414  0.4592
 4227TIP3    H112645   0.121   3.050   3.389 -1.5402  0.3449  1.1391
 4227TIP3    H212646   0.162   2.936   3.299  0.8868  1.0540  1.2760
 4228TIP3   OH212647   4.116   6.331   4.684  0.5435  0.4693  0.2306
 4228TIP3    H112648   4.192   6.274   4.693  0.5985  0.6154  0.7166
 4228TIP3    H212649   4.063   6.314   4.762 -0.6467 -0.6771 -0.7730
 4229TIP3   OH212650   2.914   2.138   1.669  0.0470 -0.2696  0.1050
 4229TIP3    H112651   2.834   2.151   1.618 -0.3814  0.8995  1.0386
 4229TIP3    H212652   2.984   2.141   1.604 -0.6367 -1.2027 -0.7094
 4230TIP3   OH212653   1.625   1.355   0.720  0.3972 -0.0308  0.0612
 4230TIP3    H112654   1.658   1.266   0.711  1.8653  0.3397  1.4653
 4230TIP3    H212655   1.594   1.378   0.632 -0.0178 -1.9013 -0.3219
 4231TIP3   OH212656   3.986   0.050   4.516  0.0941  0.1653 -0.0183
 4231TIP3    H112657   3.960   0.030   4.427  0.6166 -1.5756  0.1886
 4231TIP3    H212658   4.018   0.140   4.512 -0.9187  0.4977 -1.3397
 4232TIP3   OH212659   3.442   1.683   0.183 -0.0590  0.7657 -0.1076
 4232TIP3    H112660   3.388   1.612   0.219 -0.6474  1.1166 -0.2846
 4232TIP3    H212661   3.379   1.748   0.152  0.4146  0.5849 -1.5550
 4233TIP3   OH212662   1.763   5.350   4.107  1.0588 -0.3068 -0.3099
 4233TIP3    H112663   1.826   5.357   4.036  1.2599  1.7993  0.0120
 4233TIP3    H212664   1.687   5.400   4.076  0.3116 -1.1622  0.1047
 4234TIP3   OH212665   6.567   4.732   1.019  0.1581  0.3202  0.6003
 4234TIP3    H112666   6.505   4.803   1.037  0.1418  0.2097  0.9882
 4234TIP3    H212667   6.570   4.727   0.924  1.6919  2.1900  0.4884
 4235TIP3   OH212668   3.825   6.613   2.803  0.1012  0.4721  0.1843
 4235TIP3    H112669   3.764   6.556   2.850  0.4503  0.4200  0.5798
 4235TIP3    H212670   3.874   6.554   2.746  0.7617  0.3085  0.9105
 4236TIP3   OH212671   0.536   0.526   3.184 -0.3164  0.5053 -0.4377
 4236TIP3    H112672   0.582   0.610   3.177 -0.7825  0.7103 -1.0989
 4236TIP3    H212673   0.483   0.521   3.105  0.4527 -0.8655 -0.9069
 4237TIP3   OH212674   2.174   6.310   2.388 -0.8050 -0.1076  0.6949
 4237TIP3    H112675   2.257   6.313   2.435 -0.3844  0.0372 -0.0598
 4237TIP3    H212676   2.190   6.252   2.314 -1.0785  0.7207 -0.0275
 4238TIP3   OH212677   1.484   3.285   0.938 -0.3308  0.1015 -0.5694
 4238TIP3    H112678   1.415   3.325   0.885 -2.0692  0.9902  2.1497
 4238TIP3    H212679   1.453   3.196   0.953 -0.8571  0.4603  0.5452
 4239TIP3   OH212680   4.412   4.163   5.815  0.4859  0.1568 -0.2738
 4239TIP3    H112681   4.457   4.200   5.891  2.5572  0.3695 -1.5373
 4239TIP3    H212682   4.444   4.214   5.741 -2.0410  0.4392 -1.2803
 4240TIP3   OH212683   6.554   6.289   1.112  0.5367 -0.4908 -0.4568
 4240TIP3    H112684   6.606   6.309   1.190  1.0380 -1.3204 -0.5610
 4240TIP3    H212685   6.618   6.287   1.041  0.2012 -0.5116 -0.7607
 4241TIP3   OH212686   1.773   5.100   3.869  0.1284  0.3367 -0.0116
 4241TIP3    H112687   1.682   5.097   3.840  0.0887  1.6912 -0.0464
 4241TIP3    H212688   1.773   5.052   3.951 -0.3941 -0.6254 -0.5483
 4242TIP3   OH212689   5.061   1.709   2.278 -0.3399  0.0259  0.2925
 4242TIP3    H112690   5.054   1.636   2.217  1.3290  0.1374 -0.0907
 4242TIP3    H212691   5.059   1.787   2.223 -0.0586  0.1790  0.4945
 4243TIP3   OH212692   3.491   1.193   4.616 -0.3315 -0.3813 -0.1828
 4243TIP3    H112693   3.456   1.121   4.668 -0.9434 -0.6913 -1.0184
 4243TIP3    H212694   3.552   1.152   4.555  1.9358  0.1884  1.5450
 4244TIP3   OH212695   6.562   1.432   1.340  0.0139  0.1421  0.2880
 4244TIP3    H112696   6.543   1.488   1.415  0.0176 -0.0692  0.4459
 4244TIP3    H212697   6.610   1.358   1.376 -0.5029 -0.2573  0.1759
 4245TIP3   OH212698   1.966   5.881   5.086 -0.0986  0.3224  0.5361
 4245TIP3    H112699   1.938   5.947   5.022  1.0774  0.6156  0.2992
 4245TIP3    H212700   2.032   5.830   5.040  1.8873  1.4874  1.9429
 4246TIP3   OH212701   0.556   0.798   4.262 -0.3791  0.1993 -0.0960
 4246TIP3    H112702   0.594   0.813   4.348  1.8531  2.5265 -1.3639
 4246TIP3    H212703   0.606   0.724   4.226 -1.4374 -0.8945  0.6153
 4247TIP3   OH212704   2.752   1.504   1.450 -0.1438  0.3640  0.0093
 4247TIP3    H112705   2.796   1.434   1.499 -0.7925  1.3625  2.1314
 4247TIP3    H212706   2.746   1.576   1.512 -1.2936  1.6112 -1.4842
 4248TIP3   OH212707   3.277   5.608   4.192 -0.1283  0.1935  0.8114
 4248TIP3    H112708   3.327   5.591   4.112  1.0931 -1.4844  1.8822
 4248TIP3    H212709   3.217   5.533   4.198 -2.0768  1.6189  0.1411
 4249TIP3   OH212710   6.231   4.338   3.705 -0.0098 -0.5468  0.3607
 4249TIP3    H112711   6.150   4.366   3.663 -0.6878 -2.4054  0.3536
 4249TIP3    H212712   6.266   4.271   3.646  1.6607  0.3525  0.2606
 4250TIP3   OH212713   6.374   5.729   3.578 -0.4839  0.3219  0.7768
 4250TIP3    H112714   6.417   5.784   3.513 -0.9556  0.7102  0.7909
 4250TIP3    H212715   6.380   5.640   3.543 -2.0131  0.6905 -0.5161
 4251TIP3   OH212716   6.777   4.980   5.175  0.3622  0.1310 -0.3158
 4251TIP3    H112717   6.743   4.998   5.263 -0.0569 -2.0762  0.0197
 4251TIP3    H212718   6.703   4.998   5.117 -1.0773 -3.1987  0.2847
 4252TIP3   OH212719   5.937   6.107   3.018  0.4798 -0.2824  0.4661
 4252TIP3    H112720   5.960   6.172   3.085 -2.0149  0.4783  0.6782
 4252TIP3    H212721   5.954   6.151   2.935  3.0124 -1.0183  0.5036
 4253TIP3   OH212722   4.644   5.808   4.711  0.2528  0.0390 -0.2627
 4253TIP3    H112723   4.642   5.865   4.788  1.7873 -0.0528 -0.1138
 4253TIP3    H212724   4.659   5.867   4.637  1.3001 -0.0822 -0.1707
 4254TIP3   OH212725   1.191   4.860   0.337 -0.2124 -0.2518  0.2761
 4254TIP3    H112726   1.261   4.889   0.395 -0.4429  0.3201  0.2737
 4254TIP3    H212727   1.158   4.780   0.378  0.6669 -0.7271  0.0927
 4255TIP3   OH212728   0.502   2.376   0.261 -0.4345  0.3224 -0.3163
 4255TIP3    H112729   0.577   2.346   0.312 -0.5253  1.3357  0.4470
 4255TIP3    H212730   0.429   2.321   0.290  0.1593 -1.2783 -1.7090
 4256TIP3   OH212731   3.202   5.103   3.724 -0.0199 -0.1110  0.2418
 4256TIP3    H112732   3.247   5.171   3.774 -2.1131  2.1571 -0.7289
 4256TIP3    H212733   3.213   5.128   3.633 -1.8106 -0.3708 -0.0902
 4257TIP3   OH212734   6.726   0.591   0.440  0.9470 -0.6688 -0.6410
 4257TIP3    H112735   6.736   0.550   0.526 -0.2385  0.9405  0.3201
 4257TIP3    H212736   6.670   0.531   0.391  0.4167 -0.9073  0.2391
 4258TIP3   OH212737   6.319   3.472   2.735  0.2635  0.4283 -0.1513
 4258TIP3    H112738   6.232   3.496   2.704 -0.1147 -0.3267  0.2995
 4258TIP3    H212739   6.368   3.554   2.735 -1.0142  1.2557  1.4486
 4259TIP3   OH212740   4.352   1.354   2.284  0.1288 -0.0358 -0.0439
 4259TIP3    H112741   4.358   1.441   2.244  1.9546  0.3881  1.0474
 4259TIP3    H212742   4.438   1.341   2.325 -1.4094 -0.6344  3.3051
 4260TIP3   OH212743   0.267   1.410   2.700  0.0552 -0.2157 -0.2173
 4260TIP3    H112744   0.337   1.453   2.651 -0.6232 -0.1387 -1.1532
 4260TIP3    H212745   0.311   1.368   2.774  1.0430  0.0736 -0.6303
 4261TIP3   OH212746   7.086   3.050   2.469  0.4478 -0.1627 -0.3709
 4261TIP3    H112747   7.156   2.985   2.459  0.1628 -1.3015  3.5640
 4261TIP3    H212748   7.008   2.999   2.488 -0.2472  1.2427  0.7617
 4262TIP3   OH212749   5.785   2.135   5.104 -0.0054 -0.5808  0.2342
 4262TIP3    H112750   5.723   2.095   5.165 -1.2499  0.6439 -0.1818
 4262TIP3    H212751   5.867   2.090   5.121 -0.7514 -1.5193  1.5502
 4263TIP3   OH212752   5.676   3.200   3.179 -0.1207 -0.1697 -0.3346
 4263TIP3    H112753   5.655   3.131   3.116  0.5063 -0.2271 -0.4855
 4263TIP3    H212754   5.759   3.237   3.148 -0.4613  0.6793 -0.2767
 4264TIP3   OH212755   0.291   1.791   3.423  0.2268  0.1137  0.9278
 4264TIP3    H112756   0.222   1.858   3.418 -0.8971 -1.0034  0.9934
 4264TIP3    H212757   0.362   1.826   3.370 -0.4229  1.2629  0.7822
 4265TIP3   OH212758   1.227   1.022   0.538 -0.2691 -0.8156  0.3301
 4265TIP3    H112759   1.200   1.025   0.446  0.1697 -0.2787  0.2160
 4265TIP3    H212760   1.251   0.930   0.553 -0.3200 -0.8998 -0.0989
 4266TIP3   OH212761   4.478   0.087   3.115 -0.2294  0.2105  0.4557
 4266TIP3    H112762   4.530   0.148   3.167  0.0200  1.1658 -0.8787
 4266TIP3    H212763   4.486   0.118   3.025  1.0404 -2.5613 -0.5075
 4267TIP3   OH212764   4.216   3.699   2.987  0.7675 -0.0151 -0.2015
 4267TIP3    H112765   4.219   3.749   3.069  0.5268 -1.9559  1.0536
 4267TIP3    H212766   4.125   3.705   2.958  0.7937  0.4540 -0.1943
 4268TIP3   OH212767   4.789   2.378   3.869  0.9342 -0.4207  0.0945
 4268TIP3    H112768   4.866   2.427   3.840  0.6713  0.1002  0.2641
 4268TIP3    H212769   4.803   2.289   3.837  1.5546 -0.3018  0.0338
 4269TIP3   OH212770   3.628   4.678   1.306  0.4050 -0.0160  0.5314
 4269TIP3    H112771   3.642   4.640   1.219 -0.8877 -0.6837  0.5941
 4269TIP3    H212772   3.572   4.754   1.291 -0.8091 -0.8161  0.8813
 4270TIP3   OH212773   1.066   3.172   4.841 -0.7482  0.3058  0.1898
 4270TIP3    H112774   1.011   3.166   4.919  0.0113  0.8759  0.7769
 4270TIP3    H212775   1.008   3.210   4.774 -1.4816 -0.4455  0.3829
 4271TIP3   OH212776   5.742   1.933   2.923  0.1457 -0.1889 -0.3247
 4271TIP3    H112777   5.668   1.930   2.863 -0.7995 -2.0242  0.8277
 4271TIP3    H212778   5.789   1.851   2.907  0.6740 -0.0516  0.4376
 4272TIP3   OH212779   6.358   3.563   5.804  0.3704  0.2611 -0.3990
 4272TIP3    H112780   6.428   3.618   5.840  1.3110 -1.4983  0.5699
 4272TIP3    H212781   6.310   3.532   5.881  1.8793 -2.8559 -0.5517
 4273TIP3   OH212782   2.932   4.927   1.873  0.2744 -0.4121 -0.1314
 4273TIP3    H112783   2.984   4.940   1.793 -1.2396 -0.0541 -1.0966
 4273TIP3    H212784   2.878   5.005   1.880  1.2056  0.1277  1.9593
 4274TIP3   OH212785   0.112   1.399   5.511  0.3871  0.5392  0.2909
 4274TIP3    H112786   0.193   1.389   5.560  1.3199 -0.1500 -1.3319
 4274TIP3    H212787   0.061   1.321   5.531  0.0885  0.9867  1.3324
 4275TIP3   OH212788   2.164   3.199   1.347  0.0569 -0.6625  0.1518
 4275TIP3    H112789   2.098   3.131   1.331  1.0555 -1.5103 -0.5163
 4275TIP3    H212790   2.246   3.150   1.352  0.9811  0.6323 -1.6420
 4276TIP3   OH212791   1.106   2.279   2.206  0.1994 -0.0866 -0.0337
 4276TIP3    H112792   1.077   2.370   2.211  0.6177  0.0247  0.3314
 4276TIP3    H212793   1.027   2.229   2.228 -0.6816  0.0821 -2.4338
 4277TIP3   OH212794   0.929   0.319   3.971  0.3321  0.1358 -0.2934
 4277TIP3    H112795   0.902   0.232   3.941  2.8083 -1.0435  0.6307
 4277TIP3    H212796   0.862   0.378   3.936 -1.7464 -2.1711 -0.5105
 4278TIP3   OH212797   4.049   2.101   4.750  0.0353  0.4867  0.2114
 4278TIP3    H112798   4.077   2.127   4.838 -1.7985  0.2299  0.9054
 4278TIP3    H212799   4.066   2.179   4.696  0.3314  0.9728  0.9827
 4279TIP3   OH212800   1.010   0.525   3.016 -0.0302  0.5161 -0.3036
 4279TIP3    H112801   0.924   0.504   2.979 -0.1783  0.1236  0.2525
 4279TIP3    H212802   1.003   0.500   3.108 -0.3426  3.2439  0.5101
 4280TIP3   OH212803   1.741   5.207   5.662 -0.3208 -0.1686 -0.0809
 4280TIP3    H112804   1.728   5.112   5.655  1.7116 -0.5084  0.1252
 4280TIP3    H212805   1.740   5.224   5.756 -0.8886  0.0552 -0.1258
 4281TIP3   OH212806   1.716   2.357   3.628  0.5465 -0.3206 -0.3312
 4281TIP3    H112807   1.810   2.359   3.650  0.3424 -1.8277  0.8120
 4281TIP3    H212808   1.691   2.266   3.638 -0.8248 -0.1243 -1.7010
 4282TIP3   OH212809   0.352   2.852   1.830 -0.4196 -0.3859 -0.1629
 4282TIP3    H112810   0.316   2.805   1.754  2.2267 -1.7207 -0.7230
 4282TIP3    H212811   0.398   2.927   1.791  1.5794 -1.4862 -0.0219
 4283TIP3   OH212812   2.508   1.466   1.269  0.1100 -0.5281  0.4789
 4283TIP3    H112813   2.584   1.451   1.324 -0.2265  0.6053  1.3030
 4283TIP3    H212814   2.515   1.401   1.199  0.8951 -1.5792  1.4930
 4284TIP3   OH212815   3.546   3.269   0.258 -0.3088  0.8250 -0.2089
 4284TIP3    H112816   3.589   3.186   0.239  0.2472  1.1546 -0.4249
 4284TIP3    H212817   3.454   3.255   0.237 -0.1770  0.3304 -0.4519
 4285TIP3   OH212818   3.132   0.955   4.632  0.2865  0.3943 -0.2909
 4285TIP3    H112819   3.074   1.019   4.591 -3.2463 -2.0285  0.5052
 4285TIP3    H212820   3.152   0.892   4.562  0.8684  0.4701 -0.2017
 4286TIP3   OH212821   0.053   4.651   3.073  0.6926 -0.0237  0.3343
 4286TIP3    H112822   0.008   4.624   3.153  1.7764 -0.3295  0.8615
 4286TIP3    H212823  -0.014   4.649   3.006  0.2274 -1.8635  0.7958
 4287TIP3   OH212824   4.924   2.551   5.510 -0.0974  0.1163  0.3097
 4287TIP3    H112825   4.829   2.539   5.500 -0.3278  1.1932  1.0369
 4287TIP3    H212826   4.954   2.580   5.425 -0.2353 -1.2114 -0.2227
 4288TIP3   OH212827   3.710   6.294   0.637  0.4135  0.1101 -0.4299
 4288TIP3    H112828   3.689   6.311   0.545  1.0989 -0.4053 -0.6895
 4288TIP3    H212829   3.764   6.368   0.664  1.7447 -0.6254 -0.9868
 4289TIP3   OH212830   5.772   4.163   1.002 -0.0032  0.4948 -0.2823
 4289TIP3    H112831   5.701   4.188   1.061  0.8414 -0.0687  1.0070
 4289TIP3    H212832   5.794   4.074   1.027  1.8024  0.9911 -0.0121
 4290TIP3   OH212833   2.420   4.974   4.277 -0.4416  0.0981  0.0723
 4290TIP3    H112834   2.351   4.995   4.214  0.9266  2.4671 -0.7367
 4290TIP3    H212835   2.419   5.047   4.339  1.4038  0.2511 -0.0297
 4291TIP3   OH212836   7.133   5.601   2.305 -0.4015 -0.4258 -0.1016
 4291TIP3    H112837   7.099   5.615   2.217  1.1532  3.2446 -0.3334
 4291TIP3    H212838   7.058   5.613   2.363 -1.0187 -0.7087 -0.8325
 4292TIP3   OH212839   0.246   5.858   0.581 -0.2806 -0.1873  0.3378
 4292TIP3    H112840   0.190   5.790   0.545  0.2472  0.1268 -1.1387
 4292TIP3    H212841   0.245   5.928   0.516 -0.8314  1.2525  1.8225
 4293TIP3   OH212842   3.458   3.318   1.067 -0.2378  0.0413 -0.4711
 4293TIP3    H112843   3.488   3.347   1.153  0.6947 -0.1843 -0.7055
 4293TIP3    H212844   3.503   3.376   1.005  1.0705 -1.3558 -0.9060
 4294TIP3   OH212845   6.913   4.783   2.292 -0.0515  0.1356  0.4791
 4294TIP3    H112846   6.824   4.772   2.259 -0.3423  2.2369  0.4190
 4294TIP3    H212847   6.947   4.859   2.245  1.0730  0.5469  1.8676
 4295TIP3   OH212848   6.806   1.713   1.398 -0.2251  0.6229 -0.1271
 4295TIP3    H112849   6.740   1.751   1.456  0.7098  1.2089  0.5930
 4295TIP3    H212850   6.826   1.628   1.438  0.6083  1.1376  0.5917
 4296TIP3   OH212851   2.270   6.662   3.828 -0.2814 -0.1023  0.6026
 4296TIP3    H112852   2.226   6.726   3.772  0.9793  1.1662  0.9732
 4296TIP3    H212853   2.276   6.583   3.775  1.4967  1.2541 -1.4071
 4297TIP3   OH212854   5.230   1.736   4.640 -0.1422 -0.3861  0.3671
 4297TIP3    H112855   5.270   1.819   4.614 -0.3857 -0.4945 -0.3721
 4297TIP3    H212856   5.140   1.758   4.661 -0.2782 -0.4978 -0.0797
 4298TIP3   OH212857   0.858   3.050   5.803  0.1310 -0.6937 -0.0494
 4298TIP3    H112858   0.814   2.972   5.836 -0.5216 -0.3096  0.0086
 4298TIP3    H212859   0.917   3.076   5.874  1.6183 -2.0809 -0.7188
 4299TIP3   OH212860   5.871   4.517   0.066  0.1945 -0.1523 -0.3115
 4299TIP3    H112861   5.849   4.504  -0.027 -0.4429 -1.3752 -0.0230
 4299TIP3    H212862   5.959   4.554   0.065 -0.0189  0.3814 -1.4192
 4300TIP3   OH212863   1.656   5.460   5.047 -0.8394  0.5036 -0.3799
 4300TIP3    H112864   1.744   5.427   5.066 -0.8840 -0.8355 -2.2473
 4300TIP3    H212865   1.600   5.419   5.113 -0.4099 -0.6950 -0.7327
 4301TIP3   OH212866   6.793   3.958   5.762  0.1576 -0.8626 -0.3461
 4301TIP3    H112867   6.740   3.882   5.785 -0.1051 -0.4427  0.4788
 4301TIP3    H212868   6.878   3.941   5.802  0.1768 -0.8348 -0.3753
 4302TIP3   OH212869   1.834   6.329   3.669 -0.0534  0.3079 -0.4172
 4302TIP3    H112870   1.856   6.263   3.602 -0.1738 -1.7745  1.4859
 4302TIP3    H212871   1.740   6.341   3.659  0.2789  1.9587 -2.2236
 4303TIP3   OH212872   6.347   1.039   2.220 -0.2764 -1.5275  0.2240
 4303TIP3    H112873   6.356   0.945   2.205 -4.0796 -2.1430  0.6819
 4303TIP3    H212874   6.340   1.047   2.315 -1.9376 -1.1290  0.1072
 4304TIP3   OH212875   1.387   3.265   3.872 -0.2096  0.3843 -0.5667
 4304TIP3    H112876   1.430   3.331   3.927  3.5410 -2.0337 -0.2789
 4304TIP3    H212877   1.457   3.226   3.821 -2.4316 -2.4940 -1.7238
 4305TIP3   OH212878   2.734   0.838   3.751  0.1043 -0.1623 -0.1880
 4305TIP3    H112879   2.763   0.838   3.659  2.0661  3.7049  0.2071
 4305TIP3    H212880   2.646   0.874   3.748 -0.3815 -1.3411 -0.6009
 4306TIP3   OH212881   5.956   3.588   5.048 -0.2768  0.4710 -0.4000
 4306TIP3    H112882   5.991   3.567   5.134  1.8763 -0.7282 -1.4706
 4306TIP3    H212883   6.025   3.640   5.006 -2.1484  2.8666 -0.7396
 4307TIP3   OH212884   6.378   0.899   4.832 -0.2531  0.1558 -0.5573
 4307TIP3    H112885   6.403   0.943   4.751  0.2911 -1.4924 -1.3496
 4307TIP3    H212886   6.446   0.833   4.845 -1.2581 -0.7558  0.2983
 4308TIP3   OH212887   2.954   3.141   2.293 -0.4086  0.3349 -0.5172
 4308TIP3    H112888   2.883   3.077   2.286  0.3891 -0.5109 -1.0587
 4308TIP3    H212889   2.971   3.168   2.203  0.0354  0.4460 -0.4011
 4309TIP3   OH212890   3.259   2.142   2.079 -0.0685 -0.2399  0.4274
 4309TIP3    H112891   3.231   2.189   2.158 -2.6224 -0.0612 -0.4648
 4309TIP3    H212892   3.284   2.211   2.018 -3.0895  0.0799 -0.6180
 4310TIP3   OH212893   4.354   6.728   3.098  0.6022  0.0182  0.2812
 4310TIP3    H112894   4.414   6.796   3.068  0.6487  1.0240  2.4939
 4310TIP3    H212895   4.397   6.646   3.075  1.5950  0.7226 -0.4397
 4311TIP3   OH212896   0.143   2.492   1.679 -0.2466 -0.6046 -0.1388
 4311TIP3    H112897   0.111   2.530   1.760  1.0953  1.8130 -0.6508
 4311TIP3    H212898   0.213   2.433   1.705  0.4650  0.4843  0.4595
 4312TIP3   OH212899   0.996   0.065   0.961  0.4763  0.0024 -0.5939
 4312TIP3    H112900   0.980  -0.028   0.972  1.2401 -0.3832 -2.3617
 4312TIP3    H212901   0.931   0.094   0.897 -0.1639  0.8410  0.4072
 4313TIP3   OH212902   3.309   6.741   4.566 -0.1430 -0.6706  0.3946
 4313TIP3    H112903   3.312   6.834   4.591 -1.2862 -0.4883 -0.0659
 4313TIP3    H212904   3.355   6.737   4.483  0.0004 -0.5338  0.4665
 4314TIP3   OH212905   1.940   6.172   4.953  0.2896 -0.2299  0.1035
 4314TIP3    H112906   1.853   6.212   4.953  0.1881 -0.4096 -1.0829
 4314TIP3    H212907   1.996   6.237   4.912  0.5026 -0.5371 -0.1001
 4315TIP3   OH212908   5.038   1.811   4.873 -0.0231 -0.6746 -0.7744
 4315TIP3    H112909   4.949   1.808   4.909  0.8850  0.5034  1.8276
 4315TIP3    H212910   5.081   1.881   4.922  3.1895 -3.1081  0.2719
 4316TIP3   OH212911   5.413   0.141   3.282 -0.2010 -0.3948 -0.2681
 4316TIP3    H112912   5.495   0.146   3.332 -0.1109  1.5274 -0.5039
 4316TIP3    H212913   5.417   0.057   3.238  0.8862 -1.0455  1.0022
 4317TIP3   OH212914   1.068   0.669   1.287 -0.7628  0.6157 -0.2361
 4317TIP3    H112915   1.147   0.643   1.335 -0.5705  1.0801 -0.2914
 4317TIP3    H212916   1.096   0.674   1.196 -1.5823 -2.1568 -0.7494
 4318TIP3   OH212917   5.570   3.242   4.396  0.0774  0.0173 -0.0102
 4318TIP3    H112918   5.636   3.281   4.338  1.4625 -0.9122  0.8901
 4318TIP3    H212919   5.594   3.150   4.401 -0.3974 -0.0515  1.5119
 4319TIP3   OH212920   2.937   5.203   1.026  0.4898  0.5732  0.0249
 4319TIP3    H112921   2.900   5.206   1.114 -1.2946  0.0416 -0.6599
 4319TIP3    H212922   2.885   5.267   0.977  0.6768  0.0157 -0.9102
 4320TIP3   OH212923   2.856   3.793   1.902  0.1960  0.0896  0.6517
 4320TIP3    H112924   2.936   3.772   1.853  0.2301  0.3894  0.5736
 4320TIP3    H212925   2.888   3.830   1.985  0.1452  0.9117  0.3128
 4321TIP3   OH212926   5.850   0.019   2.190 -0.4420  0.1753 -0.6362
 4321TIP3    H112927   5.852   0.061   2.276  0.9831  0.2595 -0.6899
 4321TIP3    H212928   5.881   0.087   2.129 -2.1046  0.3514 -1.3517
 4322TIP3   OH212929   6.394   2.270   1.313  0.0404 -0.3365  0.1356
 4322TIP3    H112930   6.384   2.275   1.218 -0.0164 -2.2964  0.0159
 4322TIP3    H212931   6.369   2.358   1.344  0.0441  0.3276 -1.6332
 4323TIP3   OH212932   7.146   1.223   4.197  0.2393  0.3562 -0.3831
 4323TIP3    H112933   7.122   1.235   4.288  0.2575  0.8649 -0.4442
 4323TIP3    H212934   7.070   1.255   4.148  0.7602  1.3554 -0.5641
 4324TIP3   OH212935   1.856   0.241   2.424 -0.2369 -0.3579  0.2908
 4324TIP3    H112936   1.929   0.221   2.365 -1.0936 -1.0407 -0.5604
 4324TIP3    H212937   1.808   0.159   2.431 -0.8943  0.0700  0.9015
 4325TIP3   OH212938   1.761   3.863   1.376 -0.4074 -0.2367  0.3851
 4325TIP3    H112939   1.837   3.806   1.381  0.5872  0.7035 -2.3149
 4325TIP3    H212940   1.692   3.808   1.339  0.2316 -0.0458 -1.1640
 4326TIP3   OH212941   4.426   2.199   2.233  0.5664 -0.4680  0.1382
 4326TIP3    H112942   4.348   2.232   2.277  1.2686 -0.2937  1.2788
 4326TIP3    H212943   4.417   2.104   2.234 -1.2971 -0.4464 -2.8503
 4327TIP3   OH212944   7.151   3.670   0.279 -0.2778 -0.2218 -0.2484
 4327TIP3    H112945   7.108   3.637   0.200 -1.4937  0.1225  0.2557
 4327TIP3    H212946   7.232   3.620   0.284 -0.5647 -0.8306 -1.2651
 4328TIP3   OH212947   3.035   2.710   2.969 -0.1328 -0.1291 -0.0811
 4328TIP3    H112948   3.095   2.692   2.897  2.3645  2.1749  1.2288
 4328TIP3    H212949   2.996   2.795   2.947  0.0350  0.2079  0.8492
 4329TIP3   OH212950   6.061   4.392   5.059  0.1139 -0.5164 -0.3069
 4329TIP3    H112951   5.971   4.372   5.034 -0.7399  1.7285  0.6722
 4329TIP3    H212952   6.075   4.343   5.140 -0.2116 -0.8591 -0.4529
 4330TIP3   OH212953   2.711   3.848   0.232  0.2646 -0.8092 -0.6046
 4330TIP3    H112954   2.773   3.920   0.224 -0.6644  0.2190  0.8864
 4330TIP3    H212955   2.765   3.769   0.236  1.4423  0.0113  0.0715
 4331TIP3   OH212956   0.127   6.224   4.224  0.1922 -0.0531  0.2739
 4331TIP3    H112957   0.146   6.263   4.309  0.2799 -3.5220  1.9859
 4331TIP3    H212958   0.193   6.156   4.213 -0.3396 -0.2781 -2.2292
 4332TIP3   OH212959   5.278   1.483   3.878 -0.0325  0.3600 -0.1524
 4332TIP3    H112960   5.250   1.571   3.856 -1.3471  0.4157  1.5573
 4332TIP3    H212961   5.373   1.485   3.869 -0.0724  1.8701 -0.4076
 4333TIP3   OH212962   5.981   4.056   0.456  0.4407 -0.8766  0.2403
 4333TIP3    H112963   6.012   4.128   0.510 -1.8689 -0.1218  0.6610
 4333TIP3    H212964   6.003   3.977   0.506 -1.3204 -0.2114  2.2086
 4334TIP3   OH212965   1.439   3.333   3.461  0.0436  0.4770  0.2651
 4334TIP3    H112966   1.381   3.365   3.391  0.0384  0.7451  0.3896
 4334TIP3    H212967   1.385   3.335   3.539  0.1548  0.5174  0.3411
 4335TIP3   OH212968   4.976   6.166   0.535  0.3323 -0.1449 -0.4546
 4335TIP3    H112969   4.972   6.071   0.527  1.0674 -0.2364  0.1315
 4335TIP3    H212970   4.906   6.188   0.597 -0.0942 -0.2536 -0.8895
 4336TIP3   OH212971   5.532   3.673   1.218 -0.2643  0.1859 -0.1005
 4336TIP3    H112972   5.627   3.660   1.214 -0.2483  0.6095 -2.1943
 4336TIP3    H212973   5.520   3.743   1.282  0.7261 -0.5298  0.9191
 4337TIP3   OH212974   4.630   4.686   0.368 -0.5424 -0.3295 -0.1809
 4337TIP3    H112975   4.546   4.641   0.381 -1.2238  1.0834  0.6398
 4337TIP3    H212976   4.606   4.767   0.322  0.6560 -0.8056 -1.7187
 4338TIP3   OH212977   2.010   2.494   4.868 -0.2404  0.2192  0.1580
 4338TIP3    H112978   1.982   2.525   4.954 -1.7361 -0.4900 -0.0407
 4338TIP3    H212979   1.983   2.403   4.865  0.6556 -0.0379 -0.7163
 4339TIP3   OH212980   6.723   6.799   5.295  0.1614 -0.1030  0.1923
 4339TIP3    H112981   6.814   6.817   5.272  0.1145 -0.2986 -0.1400
 4339TIP3    H212982   6.714   6.704   5.288 -0.1797 -0.0446 -0.1748
 4340TIP3   OH212983   2.664   1.067   4.203 -0.2182 -0.0549 -0.0861
 4340TIP3    H112984   2.665   0.992   4.263 -1.6851 -0.7018 -0.8322
 4340TIP3    H212985   2.599   1.126   4.241  0.4339  0.5430  0.1213
 4341TIP3   OH212986   5.455   1.138   5.356 -0.2599 -0.3041  0.1040
 4341TIP3    H112987   5.528   1.196   5.381 -0.1448 -0.3951 -0.0174
 4341TIP3    H212988   5.482   1.051   5.386 -0.1418 -0.4066 -0.2918
 4342TIP3   OH212989   5.103   5.827   4.688 -0.6384 -0.3397  0.2164
 4342TIP3    H112990   5.110   5.922   4.681  0.4657 -0.4640 -0.6527
 4342TIP3    H212991   5.048   5.801   4.615 -0.5720 -0.4147  0.1930
 4343TIP3   OH212992   0.624   5.165   4.948 -0.3062 -0.2694  0.2240
 4343TIP3    H112993   0.647   5.174   4.856 -2.2436  1.1356 -0.2035
 4343TIP3    H212994   0.705   5.141   4.992  0.7656 -0.4443 -1.7674
 4344TIP3   OH212995   5.160   5.993   3.509 -0.7321  0.2569  0.6655
 4344TIP3    H112996   5.174   5.965   3.599  3.3127  2.0211  0.7746
 4344TIP3    H212997   5.113   6.076   3.516 -0.2275  0.4988  1.1360
 4345TIP3   OH212998   1.544   2.218   1.711 -0.1097  0.5617  0.2381
 4345TIP3    H112999   1.456   2.219   1.750  0.3653 -1.2933  1.4912
 4345TIP3    H213000   1.528   2.223   1.617 -1.5143  0.8722  0.4630
 4346TIP3   OH213001   5.995   3.496   3.562  0.2810  0.1726  0.6341
 4346TIP3    H113002   5.957   3.581   3.585 -1.3923 -0.5904  0.7970
 4346TIP3    H213003   6.077   3.493   3.611 -0.5332  0.9283  2.1054
 4347TIP3   OH213004   5.829   3.829   5.068  0.0334  0.2748  0.3885
 4347TIP3    H113005   5.847   3.741   5.036  0.0429  0.0386  1.0343
 4347TIP3    H213006   5.872   3.887   5.005  1.7976 -0.2388  1.0651
 4348TIP3   OH213007   5.877   6.328   5.661 -0.1046 -0.5469 -0.2856
 4348TIP3    H113008   5.884   6.408   5.608 -0.6305  1.9022  3.0482
 4348TIP3    H213009   5.805   6.280   5.621 -1.1234  1.6368 -1.2447
 4349TIP3   OH213010   6.192   6.338   4.578  0.1100  0.0181  0.2829
 4349TIP3    H113011   6.129   6.268   4.596 -0.7571  0.3541 -1.3272
 4349TIP3    H213012   6.235   6.312   4.497 -0.0274  1.2212 -0.1922
 4350TIP3   OH213013   6.586   1.252   0.350 -0.1498 -0.2431 -0.3378
 4350TIP3    H113014   6.635   1.236   0.431  1.0971 -0.1398 -1.0478
 4350TIP3    H213015   6.500   1.215   0.367 -0.0657  0.1821  1.2080
 4351TIP3   OH213016   0.857   1.223   0.836  0.7105 -0.3673  0.0163
 4351TIP3    H113017   0.799   1.147   0.840 -0.0682  0.1277 -1.1875
 4351TIP3    H213018   0.815   1.288   0.893  1.2131 -0.7212  0.8027
 4352TIP3   OH213019   1.093   4.523   2.442 -0.8521 -0.4110  0.1092
 4352TIP3    H113020   1.022   4.458   2.442  0.1098 -1.4860 -0.2201
 4352TIP3    H213021   1.133   4.515   2.528 -0.3462 -0.6848 -0.1504
 4353TIP3   OH213022   0.225   4.673   0.492  0.0273  0.0485 -0.1336
 4353TIP3    H113023   0.262   4.586   0.476  0.3370 -0.3705  2.4167
 4353TIP3    H213024   0.132   4.664   0.469  0.1808 -0.7699 -0.4772
 4354TIP3   OH213025   0.445   5.085   2.563 -0.3856 -0.4892 -0.1958
 4354TIP3    H113026   0.359   5.119   2.541  0.0744 -0.7857 -2.6547
 4354TIP3    H213027   0.485   5.153   2.618 -1.0528  1.0105 -1.5150
 4355TIP3   OH213028   2.885   1.955   1.164 -0.4269 -0.0998 -0.2266
 4355TIP3    H113029   2.822   1.894   1.201 -0.5860  0.8900  1.2002
 4355TIP3    H213030   2.929   1.905   1.095 -2.1706 -1.0665 -0.6935
 4356TIP3   OH213031   1.788   2.474   2.928  0.1250 -0.1267  0.6851
 4356TIP3    H113032   1.777   2.487   3.023  0.5993 -1.8953  1.0101
 4356TIP3    H213033   1.878   2.442   2.919  0.5499  1.2949 -0.5381
 4357TIP3   OH213034   1.657   3.483   0.923  0.9033  0.0511 -0.0240
 4357TIP3    H113035   1.618   3.397   0.912  0.4919  0.2283 -0.0001
 4357TIP3    H213036   1.582   3.541   0.940  1.0772  0.5613 -0.8969
 4358TIP3   OH213037   1.513   0.096   0.332 -0.2622 -0.7625 -0.2346
 4358TIP3    H113038   1.550   0.185   0.329 -1.4947 -0.2127  0.0496
 4358TIP3    H213039   1.444   0.102   0.399 -1.4368 -1.4982 -1.3407
 4359TIP3   OH213040   6.739   5.823   2.589 -0.2184 -0.6373  0.3984
 4359TIP3    H113041   6.674   5.756   2.567  0.3939 -0.6028 -1.7266
 4359TIP3    H213042   6.696   5.906   2.570 -0.1913 -0.5324  0.7978
 4360TIP3   OH213043   3.675   3.869   3.859  0.2917 -0.2174  0.2461
 4360TIP3    H113044   3.602   3.930   3.850 -0.3406 -0.7624  1.5199
 4360TIP3    H213045   3.745   3.908   3.806 -0.0634  1.6745  1.0898
 4361TIP3   OH213046   4.835   0.039   0.042  0.6788 -0.2870 -0.2617
 4361TIP3    H113047   4.874   0.009  -0.040 -0.2956 -2.2424 -0.0676
 4361TIP3    H213048   4.762  -0.022   0.057 -2.7312  3.2493 -0.7683
 4362TIP3   OH213049   4.683   4.471   2.213 -0.3608 -0.2873  0.5546
 4362TIP3    H113050   4.620   4.429   2.271 -0.8597  0.8408  0.8527
 4362TIP3    H213051   4.630   4.507   2.142  0.0838 -0.3715  0.1781
 4363TIP3   OH213052   3.106   1.326   0.306 -0.4736  0.3815 -0.1935
 4363TIP3    H113053   3.178   1.383   0.331 -0.5459  0.1990  0.4373
 4363TIP3    H213054   3.027   1.371   0.338 -0.5622  0.1329 -0.0545
 4364TIP3   OH213055   5.804   3.590   1.213  0.3701 -0.6333 -0.2536
 4364TIP3    H113056   5.831   3.590   1.121  1.4536  0.4088  0.0467
 4364TIP3    H213057   5.765   3.503   1.226 -2.0825  0.0127 -2.3173
 4365TIP3   OH213058   0.131   1.290   1.651  0.7871  0.0814  0.2470
 4365TIP3    H113059   0.184   1.226   1.699  1.9637 -0.4352 -1.6118
 4365TIP3    H213060   0.195   1.350   1.613 -0.2032  1.4060  0.6140
 4366TIP3   OH213061   6.921   0.034   1.988 -0.1867  0.3933 -0.2939
 4366TIP3    H113062   6.867   0.050   1.911 -1.3889  1.3245  0.6902
 4366TIP3    H213063   6.859   0.006   2.055  0.7191  0.3572  0.5555
 4367TIP3   OH213064   3.239   5.022   1.230  0.1931 -0.1519 -0.0447
 4367TIP3    H113065   3.261   5.079   1.305  1.6090  1.6560 -1.7217
 4367TIP3    H213066   3.144   5.032   1.220  0.2504  1.0662  0.3858
 4368TIP3   OH213067   4.480   4.923   1.871  0.4652 -0.4218  0.1313
 4368TIP3    H113068   4.398   4.973   1.876 -0.9099 -2.4353 -1.0065
 4368TIP3    H213069   4.516   4.927   1.960 -1.2877 -0.1586  0.8622
 4369TIP3   OH213070   4.431   2.638   5.671 -0.1411 -0.0284 -0.2642
 4369TIP3    H113071   4.340   2.666   5.656 -0.0424 -0.9318 -3.0372
 4369TIP3    H213072   4.435   2.621   5.765 -2.2649  1.9466  0.2821
 4370TIP3   OH213073   4.750   2.387   3.172  0.3170  0.0438 -0.3054
 4370TIP3    H113074   4.674   2.331   3.155 -0.8863  1.9021 -1.3606
 4370TIP3    H213075   4.733   2.467   3.122  1.9519  1.3793  1.1340
 4371TIP3   OH213076   4.840   5.589   4.725  0.1389  0.1274  0.0416
 4371TIP3    H113077   4.880   5.628   4.803  0.0995 -0.8944  0.5933
 4371TIP3    H213078   4.774   5.652   4.698  1.5090  1.4484 -0.3713
 4372TIP3   OH213079   3.463   3.753   3.626  0.2219  0.9620  0.0586
 4372TIP3    H113080   3.449   3.844   3.599  0.7855  0.9115 -0.4242
 4372TIP3    H213081   3.546   3.754   3.674  0.2655  0.6871 -0.0069
 4373TIP3   OH213082   0.727   5.802   4.854 -0.0035  0.6069 -0.2664
 4373TIP3    H113083   0.814   5.770   4.831  0.6502  1.1575  1.2936
 4373TIP3    H213084   0.689   5.731   4.907  0.4544  1.3257  1.0602
 4374TIP3   OH213085   3.190   4.695   0.579  0.4521 -0.3096  0.6769
 4374TIP3    H113086   3.214   4.775   0.625 -0.6714  0.0798  0.6154
 4374TIP3    H213087   3.148   4.641   0.646 -3.8139  1.4004 -0.3293
 4375TIP3   OH213088   2.091   6.271   3.376  0.8731  0.2144  0.1393
 4375TIP3    H113089   2.142   6.349   3.398  0.0399  1.1644 -1.1753
 4375TIP3    H213090   2.099   6.262   3.281  0.1194 -0.7086  0.1421
 4376TIP3   OH213091   0.731   2.513   2.889 -0.7807  0.1018  0.0752
 4376TIP3    H113092   0.712   2.532   2.980 -1.1078  0.8038 -0.1370
 4376TIP3    H213093   0.820   2.478   2.890 -0.5008  0.8120  0.5817
 4377TIP3   OH213094   0.244   6.614   5.774 -0.1989  0.5019  0.2181
 4377TIP3    H113095   0.295   6.653   5.845  2.1362 -1.6046 -0.1676
 4377TIP3    H213096   0.300   6.622   5.697 -1.0010 -0.7432 -0.5140
 4378TIP3   OH213097   2.496   5.521   2.848 -0.1585  0.1717 -0.4646
 4378TIP3    H113098   2.403   5.534   2.866 -0.5758 -0.3315 -2.0658
 4378TIP3    H213099   2.518   5.441   2.896 -0.6497  0.0706 -0.3997
 4379TIP3   OH213100   2.770   5.028   2.145  0.0912 -0.3334 -0.4547
 4379TIP3    H113101   2.742   4.950   2.193 -1.2628  0.4388  0.0584
 4379TIP3    H213102   2.717   5.028   2.066 -0.3457  0.3785 -0.1672
 4380TIP3   OH213103   2.172   4.733   4.637 -0.2260  0.5396  0.4162
 4380TIP3    H113104   2.082   4.710   4.657 -0.8496  3.1761  1.0137
 4380TIP3    H213105   2.172   4.828   4.631  2.4694  0.6071  0.1481
 4381TIP3   OH213106   0.293   6.757   1.096 -0.0790 -0.6054 -0.0669
 4381TIP3    H113107   0.200   6.754   1.119 -0.1727  1.3970 -0.0383
 4381TIP3    H213108   0.295   6.743   1.001 -0.5004  0.1361 -0.1932
 4382TIP3   OH213109   6.308   0.308   5.046 -0.1591  0.2085  0.3930
 4382TIP3    H113110   6.390   0.280   5.086 -0.4477  1.7804  2.2697
 4382TIP3    H213111   6.241   0.286   5.110 -0.7862  1.7869  0.3400
 4383TIP3   OH213112   2.561   6.247   1.999 -0.3144  0.1549 -0.5320
 4383TIP3    H113113   2.576   6.337   1.969 -1.0557  0.7262  0.7385
 4383TIP3    H213114   2.499   6.256   2.071  0.4869 -1.2843  0.3789
 4384TIP3   OH213115   3.382   6.299   2.056 -0.1869  0.0922  0.6094
 4384TIP3    H113116   3.383   6.395   2.052 -0.9146  0.0698 -0.7459
 4384TIP3    H213117   3.472   6.274   2.037  0.4031  0.5181  2.6450
 4385TIP3   OH213118   4.924   3.235   0.844  0.6270  0.7783  0.4821
 4385TIP3    H113119   4.971   3.221   0.762  0.8358 -0.9780  0.8675
 4385TIP3    H213120   4.831   3.236   0.819  0.6088 -1.1400  0.3599
 4386TIP3   OH213121   0.673   1.038   5.076 -0.1506  0.0099  0.2232
 4386TIP3    H113122   0.736   1.101   5.040 -0.8137  0.5765  0.0498
 4386TIP3    H213123   0.708   1.016   5.162  0.1868  0.4599  0.2050
 4387TIP3   OH213124   5.280   4.891   3.158 -0.3778 -0.6719 -0.2007
 4387TIP3    H113125   5.272   4.819   3.220 -1.8596  0.3423  0.8509
 4387TIP3    H213126   5.227   4.864   3.083 -0.4939 -0.9028 -0.0361
 4388TIP3   OH213127   6.874   6.354   2.478  0.0707  0.7459 -0.2785
 4388TIP3    H113128   6.843   6.344   2.568  2.1455 -0.4361  0.3668
 4388TIP3    H213129   6.937   6.426   2.482 -0.9317  1.7081 -1.1293
 4389TIP3   OH213130   4.619   6.735   0.599 -0.0153  0.8223 -0.2012
 4389TIP3    H113131   4.534   6.695   0.580 -0.0257  0.6158  0.2781
 4389TIP3    H213132   4.611   6.825   0.568 -0.6568  1.0226  0.5241
 4390TIP3   OH213133   4.638   3.992   0.570  0.8246 -0.0726 -0.8863
 4390TIP3    H113134   4.677   3.924   0.625  0.1704  0.3098  0.0635
 4390TIP3    H213135   4.661   4.074   0.613 -0.1112  0.2081 -0.9065
 4391TIP3   OH213136   3.277   6.378   1.180  0.2177  0.3964  0.6349
 4391TIP3    H113137   3.193   6.414   1.209 -1.1939 -2.4266  0.4469
 4391TIP3    H213138   3.299   6.428   1.101 -1.3179  1.1583  0.6532
 4392TIP3   OH213139   5.137   1.146   4.432 -0.1616  0.0270  0.1337
 4392TIP3    H113140   5.066   1.129   4.494  1.6566 -1.4905  1.9267
 4392TIP3    H213141   5.111   1.097   4.353 -1.5949  0.4018  0.3381
 4393TIP3   OH213142   6.705   2.101   1.122  0.5824 -0.3517 -0.2709
 4393TIP3    H113143   6.624   2.062   1.154  0.8096 -1.2604 -0.7662
 4393TIP3    H213144   6.757   2.116   1.201 -0.8887  2.2882  0.3133
 4394TIP3   OH213145   4.721   6.249   2.604 -0.4454  0.1160  0.0634
 4394TIP3    H113146   4.647   6.296   2.567 -0.4241 -0.4214 -0.6827
 4394TIP3    H213147   4.793   6.266   2.543  0.4020  1.6381  1.4079
 4395TIP3   OH213148   0.866   0.514   5.087 -0.5768  0.2486 -0.2110
 4395TIP3    H113149   0.875   0.556   5.172 -1.6237 -0.7316  0.4239
 4395TIP3    H213150   0.896   0.579   5.023 -0.5239  1.2773  0.8482
 4396TIP3   OH213151   3.208   6.110   2.197 -0.0585 -0.4285  0.0208
 4396TIP3    H113152   3.140   6.072   2.142 -0.7647  1.7307 -0.7128
 4396TIP3    H213153   3.208   6.203   2.174  2.0301 -0.0771  1.1970
 4397TIP3   OH213154   4.075   3.487   1.974  0.3567  0.3731 -0.0612
 4397TIP3    H113155   3.985   3.493   2.005  0.3228 -0.2291 -0.0205
 4397TIP3    H213156   4.101   3.577   1.956  0.4850  0.8012  2.0254
 4398TIP3   OH213157   3.688   5.403   4.084  0.0550  0.0592  0.3715
 4398TIP3    H113158   3.674   5.442   4.171  0.3667  0.2417  0.3391
 4398TIP3    H213159   3.724   5.474   4.031 -1.9977  0.5474 -0.4871
 4399TIP3   OH213160   5.132   6.281   4.496  0.1522  0.3194  0.0463
 4399TIP3    H113161   5.051   6.240   4.467  0.2966 -0.0240  0.1285
 4399TIP3    H213162   5.110   6.320   4.581  0.1519 -0.0370  0.2133
 4400TIP3   OH213163   0.235   0.943   4.726 -0.1128 -0.1828  0.6145
 4400TIP3    H113164   0.306   0.957   4.789 -0.9655  1.8219  1.2387
 4400TIP3    H213165   0.232   1.024   4.675 -0.5180 -1.1227 -0.9149
 4401TIP3   OH213166   0.059   1.234   3.239  0.5561  0.0813 -0.3243
 4401TIP3    H113167   0.044   1.228   3.145  1.3914  1.6728 -0.5979
 4401TIP3    H213168   0.129   1.299   3.248  0.3673  0.0940  1.4025
 4402TIP3   OH213169   1.356   5.774   0.036  0.0273  0.2730  0.4147
 4402TIP3    H113170   1.446   5.781   0.006 -0.3225 -1.0022 -1.0359
 4402TIP3    H213171   1.359   5.802   0.128  1.5968  1.7990 -0.0486
 4403TIP3   OH213172   7.116   0.129   5.461 -0.1518 -0.2880 -0.1592
 4403TIP3    H113173   7.064   0.056   5.493  1.3749 -1.6083 -0.5383
 4403TIP3    H213174   7.205   0.110   5.490  0.0503  2.3768  1.2889
 4404TIP3   OH213175   3.391   1.551   0.850 -0.2306 -0.2965  0.1350
 4404TIP3    H113176   3.483   1.571   0.839 -0.1953 -1.1254 -1.3928
 4404TIP3    H213177   3.347   1.592   0.776 -1.0006 -0.4470  0.4873
 4405TIP3   OH213178   2.571   4.027   0.628 -0.4386  0.1363 -0.4338
 4405TIP3    H113179   2.536   4.090   0.566 -0.5372  0.3367 -0.1749
 4405TIP3    H213180   2.666   4.028   0.612 -0.5671 -0.6517 -1.3640
 4406TIP3   OH213181   3.340   3.729   0.877  0.6140 -0.2115  0.3993
 4406TIP3    H113182   3.307   3.670   0.945 -0.8914 -0.4413 -0.4986
 4406TIP3    H213183   3.430   3.700   0.862  0.6470 -0.7860  1.5821
 4407TIP3   OH213184   5.179   3.482   3.355 -0.0531 -0.3513 -0.1592
 4407TIP3    H113185   5.275   3.486   3.356 -0.0692  0.0361  0.4380
 4407TIP3    H213186   5.152   3.565   3.315 -0.1502 -0.2037  0.2134
 4408TIP3   OH213187   6.934   4.485   2.966 -0.4199 -0.0709 -0.4829
 4408TIP3    H113188   6.857   4.431   2.944 -0.4336 -0.1519 -0.2350
 4408TIP3    H213189   6.975   4.502   2.881 -0.6388 -0.1366 -0.6051
 4409TIP3   OH213190   0.343   0.417   4.911  0.0017 -0.0424  0.1004
 4409TIP3    H113191   0.298   0.465   4.980  1.0207 -0.0850  0.8113
 4409TIP3    H213192   0.431   0.403   4.945  0.6098  0.1855 -1.3233
 4410TIP3   OH213193   0.175   4.077   3.466 -0.3993  0.3856  0.4164
 4410TIP3    H113194   0.184   4.052   3.558 -0.4206  0.1658  0.3577
 4410TIP3    H213195   0.098   4.134   3.464 -1.1363 -0.5971  0.3311
 4411TIP3   OH213196   6.232   6.500   3.789 -0.2861 -0.2340  0.1412
 4411TIP3    H113197   6.215   6.535   3.702 -0.5370  0.5551  0.5007
 4411TIP3    H213198   6.299   6.433   3.775 -0.7760 -0.5578 -0.7391
 4412TIP3   OH213199   6.601   1.779   1.094  0.5351 -0.3534 -0.3791
 4412TIP3    H113200   6.688   1.749   1.120  0.9604  0.6591 -0.5547
 4412TIP3    H213201   6.558   1.802   1.176  1.3842  1.5568 -0.4066
 4413TIP3   OH213202   4.903   0.758   3.708 -0.0094 -0.6721  0.2586
 4413TIP3    H113203   4.905   0.759   3.804 -0.2957  0.6618  0.2781
 4413TIP3    H213204   4.965   0.690   3.683  0.2223 -0.8978  1.3880
 4414TIP3   OH213205   1.551   3.439   0.377  0.7069  0.0686 -0.6807
 4414TIP3    H113206   1.552   3.529   0.345  0.3765  0.5319  0.5440
 4414TIP3    H213207   1.637   3.427   0.417  0.1534  0.4302  0.6659
 4415TIP3   OH213208   3.267   2.560   0.782  0.1908 -0.6475 -0.6455
 4415TIP3    H113209   3.245   2.501   0.710  0.7408 -0.4102 -1.0064
 4415TIP3    H213210   3.316   2.505   0.844  1.2624 -0.4193 -1.2790
 4416TIP3   OH213211   3.579   0.192   2.839  0.0447  0.0769 -0.7874
 4416TIP3    H113212   3.594   0.159   2.751  0.7543  0.3817 -0.7841
 4416TIP3    H213213   3.599   0.285   2.833 -1.1768  0.3642 -0.6124
 4417TIP3   OH213214   1.280   5.110   1.100  0.5602 -0.3192  0.3364
 4417TIP3    H113215   1.186   5.103   1.081  0.6887 -1.1439 -0.0576
 4417TIP3    H213216   1.304   5.196   1.067 -0.0684 -0.0810  0.4753
 4418TIP3   OH213217   5.439   4.983   1.571 -0.6239  0.3049 -0.4004
 4418TIP3    H113218   5.402   5.055   1.520 -1.6248 -0.9576 -1.5237
 4418TIP3    H213219   5.532   4.984   1.549 -0.8166  0.5982 -1.2172
 4419TIP3   OH213220   4.780   5.421   5.163  0.0630  0.2851 -0.3840
 4419TIP3    H113221   4.730   5.496   5.131  0.3471 -0.2817 -2.3077
 4419TIP3    H213222   4.853   5.460   5.211 -1.9388  1.1352  2.2291
 4420TIP3   OH213223   1.310   5.475   2.521 -0.4624  0.3906 -0.1356
 4420TIP3    H113224   1.391   5.431   2.495  0.5417  1.3049  1.2953
 4420TIP3    H213225   1.301   5.454   2.614 -1.7680  0.4842 -0.2317
 4421TIP3   OH213226   5.339   3.128   3.246 -0.1170  0.1476  0.0561
 4421TIP3    H113227   5.264   3.069   3.248  0.0433 -0.0893 -0.6462
 4421TIP3    H213228   5.325   3.182   3.168  1.6167 -1.4855 -1.4776
 4422TIP3   OH213229   2.157   6.513   5.414  0.5378  0.4047  0.0306
 4422TIP3    H113230   2.168   6.510   5.318 -1.3823 -0.9931 -0.1908
 4422TIP3    H213231   2.069   6.480   5.429  1.0447 -0.0244  2.3525
 4423TIP3   OH213232   1.523   5.039   3.282  0.1109  0.6242 -0.0477
 4423TIP3    H113233   1.457   4.975   3.253  0.2067  0.1384  0.7471
 4423TIP3    H213234   1.534   5.099   3.208  0.1307 -0.3732 -0.8745
 4424TIP3   OH213235   0.948   3.002   2.548  0.3336  0.2767 -0.2769
 4424TIP3    H113236   0.894   3.011   2.626  0.9679 -0.6655  0.2903
 4424TIP3    H213237   0.990   3.087   2.537  1.4771 -0.0372  1.3631
 4425TIP3   OH213238   3.462   3.430   2.721 -0.4702 -0.2347  0.6984
 4425TIP3    H113239   3.371   3.449   2.700 -0.8974 -1.4286  1.3888
 4425TIP3    H213240   3.466   3.335   2.730  0.7009 -0.1488  1.3055
 4426TIP3   OH213241   2.742   1.099   1.482  0.2736 -0.4197 -0.7522
 4426TIP3    H113242   2.659   1.107   1.435  0.9690  1.4406 -1.7906
 4426TIP3    H213243   2.734   1.018   1.532 -2.4509  0.0572 -0.2281
 4427TIP3   OH213244   6.718   1.750   0.497  0.0865  0.1833  0.1875
 4427TIP3    H113245   6.727   1.845   0.496 -0.6484  0.2568 -0.4272
 4427TIP3    H213246   6.626   1.736   0.522 -0.3031 -0.3171 -1.4237
 4428TIP3   OH213247   1.951   5.136   5.505  0.0424 -0.1882  0.0410
 4428TIP3    H113248   2.032   5.186   5.516  0.0260  0.1391 -1.1684
 4428TIP3    H213249   1.890   5.174   5.569  0.0052  1.4273 -0.8944
 4429TIP3   OH213250   6.042   2.761   1.063 -0.3412 -0.3440  0.5866
 4429TIP3    H113251   6.089   2.739   0.982 -1.1119  1.5815 -0.4554
 4429TIP3    H213252   5.997   2.680   1.088 -0.1741 -0.9553 -0.9751
 4430TIP3   OH213253   5.877   0.069   3.041 -0.3408  0.3456  0.0931
 4430TIP3    H113254   5.957   0.096   2.995 -1.1166  3.0582  0.1847
 4430TIP3    H213255   5.863   0.137   3.106 -1.5471 -1.2752  1.6035
 4431TIP3   OH213256   1.864   1.243   1.505  0.3880  0.6329 -0.0283
 4431TIP3    H113257   1.837   1.169   1.451 -0.7722  1.3589 -0.4918
 4431TIP3    H213258   1.891   1.204   1.589  0.2551 -0.3299 -0.4217
 4432TIP3   OH213259   0.996   6.755   3.315  0.1277  0.1809 -0.6678
 4432TIP3    H113260   1.036   6.675   3.280  0.3864  0.3929 -0.8610
 4432TIP3    H213261   0.908   6.728   3.341  0.3934 -0.2920 -0.2415
 4433TIP3   OH213262   5.141   6.136   2.710 -0.0110  0.0026  0.1327
 4433TIP3    H113263   5.205   6.072   2.677 -1.5399 -0.5849 -1.8485
 4433TIP3    H213264   5.184   6.221   2.696  0.9247 -0.4345  0.2193
 4434TIP3   OH213265   0.935   3.290   1.171  0.0386  0.0246  0.1403
 4434TIP3    H113266   0.975   3.205   1.150 -0.9928 -0.4417 -0.0442
 4434TIP3    H213267   0.953   3.345   1.095  0.1889 -0.2288 -0.0071
 4435TIP3   OH213268   3.515   3.594   0.248  0.1081  0.3179  0.6552
 4435TIP3    H113269   3.468   3.573   0.329 -1.2263  0.4206 -0.0521
 4435TIP3    H213270   3.595   3.542   0.253 -0.2696 -0.2075  1.7296
 4436TIP3   OH213271   1.143   5.082   3.921  0.6202 -0.0830  0.1214
 4436TIP3    H113272   1.168   5.110   3.833  1.8220  1.0317  0.7656
 4436TIP3    H213273   1.181   5.149   3.979 -0.9967 -0.2164  1.4296
 4437TIP3   OH213274   1.256   1.497   2.828 -1.0776 -0.4030  0.0348
 4437TIP3    H113275   1.299   1.411   2.827 -0.1234  0.0650 -0.7293
 4437TIP3    H213276   1.262   1.528   2.738 -2.7882 -0.1833 -0.0261
 4438TIP3   OH213277   0.912   5.151   5.342 -0.1591 -0.4137  0.6563
 4438TIP3    H113278   0.825   5.146   5.382 -0.5049 -0.1477 -0.0562
 4438TIP3    H213279   0.959   5.075   5.378 -0.3638 -0.0196  1.7903
 4439TIP3   OH213280   2.517   6.480   4.811 -0.1114 -0.7151 -0.0821
 4439TIP3    H113281   2.446   6.441   4.762 -1.1818 -0.4403  1.1949
 4439TIP3    H213282   2.481   6.562   4.845  0.9398 -0.3673  0.2485
 4440TIP3   OH213283   2.207   1.084   1.638  0.2626 -0.3914 -0.3210
 4440TIP3    H113284   2.217   1.178   1.620 -0.9252 -0.0060  0.8563
 4440TIP3    H213285   2.113   1.073   1.652  0.7323 -0.9916  3.2805
 4441TIP3   OH213286   1.796   3.417   5.654  0.4965  0.5368 -0.1304
 4441TIP3    H113287   1.855   3.357   5.608  1.0742  1.3158 -0.4266
 4441TIP3    H213288   1.829   3.419   5.744  0.0103 -0.1677  0.0723
 4442TIP3   OH213289   1.615   4.732   1.984 -0.2873 -0.5788 -0.0888
 4442TIP3    H113290   1.604   4.821   1.950 -1.3148  1.3593  4.5513
 4442TIP3    H213291   1.594   4.675   1.910  1.0019  2.9299 -3.4904
 4443TIP3   OH213292   5.022   2.331   3.121  0.1903 -0.3546 -0.6344
 4443TIP3    H113293   5.040   2.246   3.160  0.0959 -0.2577 -0.3720
 4443TIP3    H213294   4.928   2.344   3.136  0.2595 -0.0819 -0.4229
 4444TIP3   OH213295   0.744   0.998   0.425 -0.1732  0.1685  0.4588
 4444TIP3    H113296   0.810   1.016   0.492  0.7599  0.4454 -0.5303
 4444TIP3    H213297   0.728   0.903   0.432 -0.5886  0.2974  1.5095
 4445TIP3   OH213298   5.008   6.189   3.665  0.0383 -0.2556  0.3742
 4445TIP3    H113299   5.025   6.272   3.621 -0.1049  0.0815  0.9454
 4445TIP3    H213300   5.055   6.195   3.748  1.8376 -1.6264 -0.4845
 4446TIP3   OH213301   0.872   6.600   1.645 -0.4708 -0.1898 -0.2459
 4446TIP3    H113302   0.881   6.522   1.590  1.5456  0.3238 -0.7064
 4446TIP3    H213303   0.832   6.568   1.726  0.0869 -1.6535 -0.5294
 4447TIP3   OH213304   6.042   0.883   0.412  0.1359  0.5831  0.1384
 4447TIP3    H113305   5.957   0.912   0.378 -0.1827  1.0544  1.2740
 4447TIP3    H213306   6.066   0.951   0.475  1.1828  0.2548  0.1101
 4448TIP3   OH213307   5.686   2.411   4.799  0.5421  0.0589 -0.2601
 4448TIP3    H113308   5.739   2.424   4.878  1.6578  1.2433 -1.1528
 4448TIP3    H213309   5.634   2.332   4.817  2.3397 -0.9504  0.8183
 4449TIP3   OH213310   6.053   3.756   1.916 -0.2532  0.2990 -0.1535
 4449TIP3    H113311   6.008   3.729   1.836  1.3284  2.4798 -1.9204
 4449TIP3    H213312   6.143   3.727   1.904 -0.0715  0.3082  1.0484
 4450TIP3   OH213313   3.321   2.849   0.316 -0.1827  0.1284  0.3392
 4450TIP3    H113314   3.237   2.873   0.356  0.6719  0.6409  1.8959
 4450TIP3    H213315   3.336   2.758   0.342 -0.6844 -0.2829 -0.7436
 4451TIP3   OH213316   6.838   3.054   4.181 -0.2114 -0.5938 -0.0697
 4451TIP3    H113317   6.782   3.048   4.103 -0.4446 -0.5140  0.0913
 4451TIP3    H213318   6.893   2.976   4.177  0.9896  0.2452 -1.2521
 4452TIP3   OH213319   1.748   6.442   2.218 -0.1905  0.2729  0.7653
 4452TIP3    H113320   1.781   6.457   2.129 -0.8524 -0.0621  0.4567
 4452TIP3    H213321   1.825   6.452   2.274  0.9598 -2.5929 -0.1142
 4453TIP3   OH213322   6.555   0.027   2.772  0.5207  0.0970 -0.2549
 4453TIP3    H113323   6.466   0.060   2.759  0.0090 -1.4807 -0.8968
 4453TIP3    H213324   6.611   0.104   2.760 -0.7375  1.0865  0.0574
 4454TIP3   OH213325   1.777   6.732   5.129 -0.3420  0.1977  0.3421
 4454TIP3    H113326   1.686   6.721   5.156  0.0026 -2.2808  0.7854
 4454TIP3    H213327   1.818   6.775   5.204 -0.2600 -2.9495  2.3101
 4455TIP3   OH213328   3.435   1.934   3.533 -0.5534  0.1165  0.5049
 4455TIP3    H113329   3.420   1.848   3.574  0.7954 -0.5141 -0.2385
 4455TIP3    H213330   3.508   1.971   3.582  1.6774 -1.0284 -1.7426
 4456TIP3   OH213331   1.810   6.794   3.892 -0.1639 -0.1682 -0.0327
 4456TIP3    H113332   1.808   6.804   3.797  1.4214 -0.1446 -0.0912
 4456TIP3    H213333   1.718   6.783   3.917 -0.5631 -0.7385 -1.6208
 4457TIP3   OH213334   4.944   6.689   5.014 -0.1638 -0.2754 -0.0087
 4457TIP3    H113335   4.955   6.706   5.108 -2.9652  2.1829  0.0289
 4457TIP3    H213336   4.984   6.765   4.971  0.5582 -1.0874 -0.8172
 4458TIP3   OH213337   5.080   4.288   1.574  0.3097  0.2520  0.4606
 4458TIP3    H113338   5.168   4.299   1.538  0.9013 -0.5990  1.5858
 4458TIP3    H213339   5.033   4.366   1.545  1.5670  0.9568  0.2245
 4459TIP3   OH213340   5.550   5.860   0.282  0.1091 -0.3521 -0.1488
 4459TIP3    H113341   5.607   5.795   0.242 -0.6020 -0.5972 -0.8062
 4459TIP3    H213342   5.469   5.813   0.300 -0.2580  0.2394 -0.2095
 4460TIP3   OH213343   2.642   2.758   5.553 -0.3695 -0.0192  0.1452
 4460TIP3    H113344   2.618   2.718   5.636  1.8261  1.8095  1.7819
 4460TIP3    H213345   2.736   2.743   5.545 -0.5718 -0.4091 -2.2060
 4461TIP3   OH213346   1.414   4.935   0.502  0.7491 -0.3167 -0.3024
 4461TIP3    H113347   1.380   5.019   0.531 -0.0616 -0.0503 -1.8803
 4461TIP3    H213348   1.451   4.895   0.580  1.4035  1.6212  0.4239
 4462TIP3   OH213349   1.297   1.404   4.236 -0.1865  0.2577  0.3040
 4462TIP3    H113350   1.208   1.417   4.269 -0.6883  0.0263 -0.9027
 4462TIP3    H213351   1.332   1.493   4.227 -0.2347  0.3445  0.9131
 4463TIP3   OH213352   1.774   1.823   2.123  0.2572 -0.2196 -0.0950
 4463TIP3    H113353   1.839   1.857   2.186 -1.2282 -1.8425  2.5149
 4463TIP3    H213354   1.800   1.732   2.110 -1.3597 -0.8839  0.9574
 4464TIP3   OH213355   6.216   0.886   4.255  0.5675 -0.0083 -0.0887
 4464TIP3    H113356   6.307   0.904   4.277  0.4661 -0.2761  0.5601
 4464TIP3    H213357   6.172   0.970   4.264  1.3175  0.9346 -3.5828
 4465TIP3   OH213358   3.155   2.730   1.372 -0.0016  0.4327  0.3428
 4465TIP3    H113359   3.150   2.713   1.278 -1.4674  0.2796  0.4237
 4465TIP3    H213360   3.158   2.826   1.379 -1.0165  0.4960  0.1445
 4466TIP3   OH213361   3.190   1.497   1.694 -0.1001  0.0443  0.3626
 4466TIP3    H113362   3.104   1.509   1.735 -0.6046 -0.1310 -0.6191
 4466TIP3    H213363   3.187   1.410   1.656  0.9889 -0.4817  1.3937
 4467TIP3   OH213364   6.495   0.427   4.532 -0.0867  0.2711  0.4482
 4467TIP3    H113365   6.518   0.505   4.583 -0.2020  0.1787  0.6405
 4467TIP3    H213366   6.490   0.357   4.596  1.1773 -0.1445  0.1221
 4468TIP3   OH213367   2.217   6.086   2.208  0.7010 -0.1295  0.4799
 4468TIP3    H113368   2.204   6.056   2.118  1.6887 -0.0354  0.2993
 4468TIP3    H213369   2.154   6.034   2.259 -1.9815  1.8713 -0.5890
 4469TIP3   OH213370   0.851   4.070   1.250  0.3372  0.4271 -0.0918
 4469TIP3    H113371   0.765   4.109   1.263  0.8717  1.4842  0.3614
 4469TIP3    H213372   0.912   4.142   1.259  1.3044 -0.3693 -0.0514
 4470TIP3   OH213373   2.311   2.501   3.983 -0.2809 -0.2206  0.3555
 4470TIP3    H113374   2.333   2.575   4.040 -0.3741 -0.3859  0.6091
 4470TIP3    H213375   2.298   2.540   3.897 -0.1530  0.0350  0.4498
 4471TIP3   OH213376   0.740   0.799   4.455 -0.6182  0.1388  0.0664
 4471TIP3    H113377   0.816   0.761   4.411  0.6572  0.4179  1.9241
 4471TIP3    H213378   0.700   0.726   4.502  0.8738  0.6735  2.3012
 4472TIP3   OH213379   4.961   4.188   1.263  0.0424  0.2487  0.4647
 4472TIP3    H113380   4.908   4.109   1.268  2.4734 -1.5009  0.3712
 4472TIP3    H213381   4.947   4.232   1.347 -0.8360 -0.6183  0.7934
 4473TIP3   OH213382   4.687   1.236   0.629  0.2080  0.1864  0.4725
 4473TIP3    H113383   4.707   1.326   0.656  1.1955  0.8399 -2.0736
 4473TIP3    H213384   4.596   1.239   0.600  0.8740  1.0650 -1.7928
 4474TIP3   OH213385   4.724   1.502   2.860  0.4044 -0.3408 -0.5351
 4474TIP3    H113386   4.672   1.483   2.782 -0.4687  0.9812 -0.3176
 4474TIP3    H213387   4.661   1.533   2.924  1.0567 -1.7935  0.8604
 4475TIP3   OH213388   1.424   3.751   5.708  0.1777  0.0987  0.1697
 4475TIP3    H113389   1.483   3.676   5.703 -1.5413 -1.3478  0.4175
 4475TIP3    H213390   1.433   3.782   5.798 -0.5960 -1.1581  0.7109
 4476TIP3   OH213391   6.629   0.802   1.704 -0.2789  0.0316 -0.0398
 4476TIP3    H113392   6.714   0.770   1.672  0.2277 -0.2317  1.4930
 4476TIP3    H213393   6.615   0.755   1.786 -2.2400 -0.4111 -0.5740
 4477TIP3   OH213394   5.077   0.630   0.399  0.1173 -0.0443  0.6648
 4477TIP3    H113395   5.100   0.557   0.456 -0.9124 -0.4444  0.5981
 4477TIP3    H213396   5.055   0.702   0.459 -2.0946 -0.8025  0.8858
 4478TIP3   OH213397   1.948   3.951   4.289 -0.3084  0.4948 -0.4156
 4478TIP3    H113398   1.998   4.031   4.301  0.6265 -0.1607  0.1828
 4478TIP3    H213399   1.920   3.954   4.198  0.2079  1.2208 -0.5603
 4479TIP3   OH213400   7.127   1.619   2.513  0.5055 -0.1069 -0.2780
 4479TIP3    H113401   7.096   1.533   2.484 -0.2603  0.0631  0.0199
 4479TIP3    H213402   7.171   1.655   2.436  1.1671 -0.9138 -0.2903
 4480TIP3   OH213403   0.864   4.176   1.903  0.2219  0.1894 -0.6251
 4480TIP3    H113404   0.923   4.214   1.968 -1.1618 -0.2236  0.9087
 4480TIP3    H213405   0.785   4.153   1.951  0.4719 -3.5206 -1.6878
 4481TIP3   OH213406   0.327   6.185   2.208 -0.2901 -0.1241 -0.6770
 4481TIP3    H113407   0.312   6.169   2.115 -1.3835 -0.4844 -0.4548
 4481TIP3    H213408   0.375   6.108   2.238  1.0183  0.4853 -1.1518
 4482TIP3   OH213409   2.788   3.567   3.941  0.2087 -0.5183  0.1834
 4482TIP3    H113410   2.715   3.607   3.894 -0.2654 -1.8185 -0.2512
 4482TIP3    H213411   2.853   3.548   3.872  0.6390 -0.0701  0.4563
 4483TIP3   OH213412   2.003   6.777   2.814  0.1401 -0.2953  0.2777
 4483TIP3    H113413   2.049   6.698   2.841  0.2681 -0.7530 -1.1917
 4483TIP3    H213414   1.962   6.754   2.730 -1.9724  0.3935  1.0498
 4484TIP3   OH213415   3.836   4.743   3.492  0.0185  0.6369 -0.1138
 4484TIP3    H113416   3.844   4.750   3.397  0.4679 -3.4309 -0.5530
 4484TIP3    H213417   3.915   4.695   3.519 -1.4058 -0.7424  1.8724
 4485TIP3   OH213418   3.116   2.678   4.521  0.5655  0.5656 -0.1002
 4485TIP3    H113419   3.089   2.685   4.613 -1.5623 -0.0420 -0.6345
 4485TIP3    H213420   3.064   2.744   4.476  0.1314 -0.4685 -1.1506
 4486TIP3   OH213421   0.496   1.379   3.793  0.1537  0.0268 -0.2248
 4486TIP3    H113422   0.529   1.376   3.883  1.2909 -1.3096 -0.6498
 4486TIP3    H213423   0.568   1.419   3.743 -0.3301  0.4302 -0.6069
 4487TIP3   OH213424   0.119   5.123   3.883 -0.1301  0.2179 -0.9858
 4487TIP3    H113425   0.165   5.048   3.847 -1.1724 -0.8641 -0.1732
 4487TIP3    H213426   0.172   5.150   3.958 -0.8946 -1.1884  0.1085
 4488TIP3   OH213427   5.545   5.871   2.779  0.3116 -0.0623  0.3892
 4488TIP3    H113428   5.488   5.864   2.856  0.4653 -1.5702  0.3893
 4488TIP3    H213429   5.501   5.934   2.723 -1.1849 -0.9086  0.5582
 4489TIP3   OH213430   5.847   4.992   3.309 -0.0678 -0.3712  0.4767
 4489TIP3    H113431   5.914   5.053   3.338  1.7145 -1.9604 -0.1269
 4489TIP3    H213432   5.825   4.942   3.388  1.6783 -1.8433  0.0729
 4490TIP3   OH213433   2.644   6.099   2.779  0.6641  0.0611  0.1337
 4490TIP3    H113434   2.582   6.044   2.825  0.5577  0.1482  0.0943
 4490TIP3    H213435   2.645   6.181   2.828 -1.3365  1.1063 -1.4180
 4491TIP3   OH213436   0.191   3.287   1.070  0.0796  0.3143  0.2704
 4491TIP3    H113437   0.127   3.356   1.088  0.4805  1.3969 -2.0178
 4491TIP3    H213438   0.139   3.207   1.062 -0.7645  0.8650  0.1747
 4492TIP3   OH213439   0.675   1.130   1.425 -0.3062 -0.1534  0.3975
 4492TIP3    H113440   0.707   1.043   1.448 -0.4064 -0.2556  0.1563
 4492TIP3    H213441   0.583   1.130   1.454 -0.5390 -0.4127 -0.3387
 4493TIP3   OH213442   6.394   3.247   2.556  0.2577 -0.5602 -0.0633
 4493TIP3    H113443   6.454   3.247   2.631 -0.5688 -2.5715  0.6583
 4493TIP3    H213444   6.339   3.325   2.569  0.2094 -0.8121  1.3674
 4494TIP3   OH213445   0.862   2.324   4.511  0.0404  0.0909  0.6330
 4494TIP3    H113446   0.941   2.269   4.513 -0.5356 -0.7577  0.5661
 4494TIP3    H213447   0.800   2.276   4.456 -0.7948  0.3759  1.3051
 4495TIP3   OH213448   2.626   5.209   5.228 -0.4378 -0.1186  0.2558
 4495TIP3    H113449   2.633   5.148   5.154  0.3066  0.3220 -0.0518
 4495TIP3    H213450   2.547   5.260   5.210 -0.7462 -0.6040  0.2183
 4496TIP3   OH213451   6.270   5.266   2.821  0.1804  0.6494  0.0042
 4496TIP3    H113452   6.278   5.360   2.807 -1.3228  0.6550 -1.0150
 4496TIP3    H213453   6.222   5.234   2.745  0.2562 -0.8875  0.5583
 4497TIP3   OH213454   0.087   0.982   0.744 -0.7370 -0.1661 -0.0246
 4497TIP3    H113455   0.054   0.970   0.833 -1.0801 -1.1002 -0.2674
 4497TIP3    H213456   0.028   1.047   0.705 -0.3113  0.5877  0.5607
 4498TIP3   OH213457   6.216   3.646   2.402 -0.1286 -0.2958  0.7046
 4498TIP3    H113458   6.289   3.701   2.432  0.4209 -1.2916  1.2517
 4498TIP3    H213459   6.152   3.708   2.368  0.2305  0.7350  1.8189
 4499TIP3   OH213460   1.996   3.669   2.381 -0.2215 -0.5817  0.3153
 4499TIP3    H113461   1.952   3.586   2.400  0.0599 -0.5387  1.1786
 4499TIP3    H213462   1.975   3.686   2.289 -0.0476 -1.7434  0.0456
 4500TIP3   OH213463   4.682   5.756   2.009 -0.2476 -0.3001 -0.1860
 4500TIP3    H113464   4.644   5.702   1.940 -0.7430 -2.5902  1.7477
 4500TIP3    H213465   4.767   5.783   1.974 -0.7740 -0.7922 -1.9328
 4501TIP3   OH213466   6.840   2.388   5.736 -0.3639  0.1697  0.7524
 4501TIP3    H113467   6.769   2.442   5.772 -0.5055  1.3606 -1.1630
 4501TIP3    H213468   6.831   2.397   5.641  2.9862  1.2760  0.3957
 4502TIP3   OH213469   6.175   0.575   4.523 -0.6578 -0.5634 -0.1591
 4502TIP3    H113470   6.170   0.479   4.525 -0.9835 -0.5401  1.1521
 4502TIP3    H213471   6.087   0.603   4.499 -0.7466 -0.5760  0.1550
 4503TIP3   OH213472   4.688   4.678   0.975 -0.6934  0.1515 -0.1361
 4503TIP3    H113473   4.601   4.647   0.951 -0.8681  1.2010 -0.9710
 4503TIP3    H213474   4.685   4.688   1.070 -1.8963  1.2852 -0.2612
 4504TIP3   OH213475   2.525   0.576   0.114 -0.4933 -0.1849 -0.1162
 4504TIP3    H113476   2.488   0.660   0.140  2.8148  1.3383  0.1939
 4504TIP3    H213477   2.584   0.553   0.186 -0.8922 -2.5332 -0.4611
 4505TIP3   OH213478   4.768   4.156   2.121 -0.2348 -0.2710  0.5051
 4505TIP3    H113479   4.841   4.210   2.150  0.3023 -0.3556 -0.6121
 4505TIP3    H213480   4.801   4.113   2.042 -1.5211 -0.2355 -0.0703
 4506TIP3   OH213481   6.993   6.436   1.066  0.3472 -0.1837 -0.1176
 4506TIP3    H113482   7.052   6.376   1.021 -2.1427 -1.7535 -1.5245
 4506TIP3    H213483   6.986   6.511   1.008  1.0087  0.0456  0.0972
 4507TIP3   OH213484   6.733   1.062   1.835  0.3264 -0.1027 -0.1910
 4507TIP3    H113485   6.818   1.019   1.837  0.2742 -0.2165 -0.3475
 4507TIP3    H213486   6.673   0.994   1.805  0.0722 -0.1968  0.5103
 4508TIP3   OH213487   3.689   2.122   5.246  0.1517  0.2337  0.0855
 4508TIP3    H113488   3.773   2.159   5.274 -0.5436  2.0697 -0.1346
 4508TIP3    H213489   3.707   2.089   5.158  0.9869 -0.7000  0.5847
 4509TIP3   OH213490   0.706   2.467   5.393  0.4921 -0.2870  0.0512
 4509TIP3    H113491   0.680   2.558   5.400  0.1589 -0.4290  0.7763
 4509TIP3    H213492   0.681   2.441   5.304  0.8784  0.4124 -0.2597
 4510TIP3   OH213493   4.953   0.915   2.222  0.0717  0.3829  0.7014
 4510TIP3    H113494   4.887   0.847   2.233 -0.9409  1.2859  0.4645
 4510TIP3    H213495   4.975   0.942   2.311 -0.6347  0.7463  0.7799
 4511TIP3   OH213496   0.747   2.719   2.343 -0.3839 -0.2719  0.0655
 4511TIP3    H113497   0.799   2.732   2.422 -1.0772  0.0082  0.4825
 4511TIP3    H213498   0.691   2.796   2.338  0.0685  0.0085 -1.0363
 4512TIP3   OH213499   2.013   3.680   3.629  0.2167  0.3229  0.4352
 4512TIP3    H113500   1.978   3.598   3.665  0.9591  0.0665  0.5871
 4512TIP3    H213501   1.970   3.688   3.543 -1.0426  0.5903  1.0600
 4513TIP3   OH213502   5.997   5.470   3.240  0.5685  0.3253 -0.5291
 4513TIP3    H113503   5.932   5.403   3.218  0.0708  0.9910 -1.1429
 4513TIP3    H213504   5.964   5.549   3.198 -0.3357  1.6756  2.4428
 4514TIP3   OH213505   1.813   1.355   1.214  0.0428  0.7896  0.5794
 4514TIP3    H113506   1.852   1.440   1.193 -0.1458  0.8329  0.4017
 4514TIP3    H213507   1.845   1.335   1.302 -0.2400  1.2317  0.7843
 4515TIP3   OH213508   3.074   0.098   3.053  0.0193  0.6627  0.1032
 4515TIP3    H113509   3.024   0.159   3.108 -1.2312  0.3050 -0.5880
 4515TIP3    H213510   3.037   0.012   3.073  0.7273  0.3200 -0.0406
 4516TIP3   OH213511   1.054   6.768   4.900 -0.1421  0.1519 -0.2947
 4516TIP3    H113512   1.104   6.723   4.832 -1.5832  1.2458 -2.1549
 4516TIP3    H213513   1.089   6.857   4.901  0.2694 -0.0009  0.8534
 4517TIP3   OH213514   0.794   4.724   5.365  0.3197  0.1014  0.4028
 4517TIP3    H113515   0.868   4.670   5.341  0.2307 -0.0330  0.4309
 4517TIP3    H213516   0.778   4.704   5.457 -0.1628 -0.3556  0.2228
 4518TIP3   OH213517   0.183   5.174   4.576  0.0482  1.0519 -0.0772
 4518TIP3    H113518   0.131   5.243   4.617  0.0915 -0.4187  2.7124
 4518TIP3    H213519   0.120   5.106   4.553  0.2330  1.1671 -0.9654
 4519TIP3   OH213520   7.173   1.704   4.297  0.5916  0.0861 -0.1093
 4519TIP3    H113521   7.135   1.665   4.375  0.3241 -0.0730 -0.3159
 4519TIP3    H213522   7.109   1.769   4.269  0.6667  0.1137 -0.2179
 4520TIP3   OH213523   4.003   6.161   2.408 -0.0625  0.1891 -0.7328
 4520TIP3    H113524   4.061   6.122   2.343  3.4709  1.5763  1.2751
 4520TIP3    H213525   3.917   6.162   2.366  1.0171 -3.1687 -3.4843
 4521TIP3   OH213526   5.708   6.088   2.823  0.2928  0.0062  0.2744
 4521TIP3    H113527   5.657   6.009   2.839  1.8353 -1.3977 -1.3491
 4521TIP3    H213528   5.741   6.077   2.733 -0.5242  3.1173 -0.5262
 4522TIP3   OH213529   2.132   0.800   1.059 -0.3753  0.3527  0.0120
 4522TIP3    H113530   2.090   0.855   0.993 -0.3569  1.3648  0.8268
 4522TIP3    H213531   2.222   0.790   1.027  0.2143  2.5094  0.8403
 4523TIP3   OH213532   1.093   5.959   4.116 -0.5005 -0.2732  0.7911
 4523TIP3    H113533   1.069   6.012   4.192  0.6703 -1.8626  2.3534
 4523TIP3    H213534   1.048   5.875   4.129 -2.4928  0.2650 -1.7410
 4524TIP3   OH213535   4.375   4.699   3.702  0.0482  0.2688  0.0528
 4524TIP3    H113536   4.419   4.684   3.619  1.1733 -0.6083  0.7888
 4524TIP3    H213537   4.445   4.697   3.767 -1.0966 -1.5020  1.2945
 4525TIP3   OH213538   5.866   0.792   4.935 -0.3547  0.5218  0.1225
 4525TIP3    H113539   5.885   0.851   4.861 -1.8674  1.1165  0.1752
 4525TIP3    H213540   5.851   0.851   5.009 -1.7682  0.0870  0.2055
 4526TIP3   OH213541   3.361   0.941   0.458 -0.1114  0.0294 -0.0385
 4526TIP3    H113542   3.369   0.846   0.472 -1.2523 -0.1530 -0.5333
 4526TIP3    H213543   3.450   0.970   0.442  0.3301 -0.8716  0.6596
 4527TIP3   OH213544   0.335   6.430   3.752 -0.2340  0.0168  0.1234
 4527TIP3    H113545   0.340   6.355   3.811  1.0936 -0.4529 -0.5602
 4527TIP3    H213546   0.316   6.504   3.809 -2.2724 -0.9005  0.7328
 4528TIP3   OH213547   4.109   6.493   5.285  0.0069  0.1516  0.3824
 4528TIP3    H113548   4.022   6.515   5.253 -0.2912  2.8232  2.7149
 4528TIP3    H213549   4.094   6.446   5.367  0.7730 -0.6504  0.0826
 4529TIP3   OH213550   3.150   5.836   1.605  0.0555 -0.2776 -0.1407
 4529TIP3    H113551   3.071   5.785   1.621 -0.1370  0.3934  1.1779
 4529TIP3    H213552   3.124   5.898   1.536 -0.8544  0.4844  0.8382
 4530TIP3   OH213553   5.496   3.130   5.420 -0.2505  0.4049  0.0938
 4530TIP3    H113554   5.547   3.103   5.343  1.8948  1.6790  0.9817
 4530TIP3    H213555   5.433   3.059   5.433  2.0893 -1.9012 -0.3634
 4531TIP3   OH213556   0.969   5.279   3.852  0.2383 -0.2382 -1.0090
 4531TIP3    H113557   1.024   5.332   3.795 -0.1591  0.3316 -0.8709
 4531TIP3    H213558   1.023   5.204   3.876  1.4257  0.9604  0.2035
 4532TIP3   OH213559   5.003   0.029   3.138 -0.9126 -0.4478 -0.2108
 4532TIP3    H113560   5.069  -0.022   3.186  0.4309  1.1347 -0.2879
 4532TIP3    H213561   5.032   0.027   3.047 -0.0718  1.4661 -0.0420
 4533TIP3   OH213562   3.961   5.194   4.697 -0.0486 -0.1235  0.2169
 4533TIP3    H113563   3.990   5.160   4.782 -0.7723 -1.4270 -0.0167
 4533TIP3    H213564   4.034   5.174   4.638 -1.5378 -4.3380 -0.5946
 4534TIP3   OH213565   6.590   4.920   1.695 -0.3454  0.0493  0.5727
 4534TIP3    H113566   6.587   4.884   1.784 -2.6478  0.5216  0.7458
 4534TIP3    H213567   6.606   5.013   1.707 -2.1250  0.3825  0.6379
 4535TIP3   OH213568   0.475   1.428   5.823 -0.2041  0.3272  0.4819
 4535TIP3    H113569   0.521   1.495   5.772  0.8666 -2.4786 -2.6219
 4535TIP3    H213570   0.429   1.477   5.891  3.6105  3.7822  0.9548
 4536TIP3   OH213571   0.810   4.912   4.640  0.3982 -0.1631 -0.0316
 4536TIP3    H113572   0.740   4.913   4.705  0.1408 -1.1169 -0.2682
 4536TIP3    H213573   0.818   5.002   4.611  0.3685  0.2425  1.1623
 4537TIP3   OH213574   3.233   6.528   0.919 -0.0259 -0.0341  0.9962
 4537TIP3    H113575   3.211   6.593   0.853 -1.9469 -0.4989  1.1018
 4537TIP3    H213576   3.318   6.494   0.893 -1.0371 -0.7561 -1.7042
 4538TIP3   OH213577   6.734   6.719   3.864  0.2149 -0.6418 -0.1849
 4538TIP3    H113578   6.809   6.659   3.868  0.2174 -0.6657 -0.5623
 4538TIP3    H213579   6.772   6.804   3.842  0.0380 -0.8497 -1.3531
 4539TIP3   OH213580   6.372   1.037   4.597  0.1189  0.0730 -0.2649
 4539TIP3    H113581   6.278   1.029   4.580 -0.0784  1.1666  0.2305
 4539TIP3    H213582   6.412   1.043   4.510 -0.4839  1.6521 -0.4681
 4540TIP3   OH213583   6.199   6.421   2.485 -0.1800  0.5324 -0.2454
 4540TIP3    H113584   6.165   6.501   2.524  0.4446  0.0778  1.2817
 4540TIP3    H213585   6.142   6.352   2.519  1.0792 -0.0093  0.8580
 4541TIP3   OH213586   0.274   1.045   3.960  0.1883  0.5849  0.3687
 4541TIP3    H113587   0.319   1.015   3.881 -1.9038 -0.3997 -0.5418
 4541TIP3    H213588   0.274   0.969   4.018 -0.3638  0.5304  0.3066
 4542TIP3   OH213589   4.890   6.649   0.663  0.1563  0.6801  0.0874
 4542TIP3    H113590   4.862   6.700   0.739 -1.0029 -0.2934  0.3465
 4542TIP3    H213591   4.810   6.635   0.612  0.8536  1.0212 -1.1558
 4543TIP3   OH213592   0.426   4.406   5.715 -0.0846 -0.3542  0.0930
 4543TIP3    H113593   0.331   4.399   5.724 -0.3432  1.1780 -1.1924
 4543TIP3    H213594   0.445   4.498   5.729  1.1713 -0.5595 -0.1593
 4544TIP3   OH213595   2.006   2.905   4.627  0.2317 -0.5741  0.0501
 4544TIP3    H113596   1.966   2.881   4.711  0.4682  2.2148  1.0742
 4544TIP3    H213597   2.089   2.946   4.651 -0.0356  0.9664 -1.4676
 4545TIP3   OH213598   4.013   3.043   3.915 -0.3222  0.5987 -0.3395
 4545TIP3    H113599   4.108   3.044   3.923 -0.0950 -1.5294 -1.7664
 4545TIP3    H213600   3.984   2.980   3.982 -0.5649  0.1647 -0.8440
 4546TIP3   OH213601   1.892   2.723   3.292 -0.1016  0.1321 -0.0504
 4546TIP3    H113602   1.964   2.762   3.341  1.4345 -0.4435 -1.7773
 4546TIP3    H213603   1.838   2.798   3.266  0.3239  0.6502  0.5209
 4547TIP3   OH213604   7.069   6.032   2.632  0.0944 -0.0827  0.6296
 4547TIP3    H113605   7.045   5.994   2.547  0.5474 -0.7511  0.7931
 4547TIP3    H213606   7.164   6.042   2.628  0.1354 -0.2455  1.1080
 4548TIP3   OH213607   0.697   1.317   4.727  0.4101 -0.3719 -0.0457
 4548TIP3    H113608   0.628   1.319   4.660  0.3023 -1.7587  0.0131
 4548TIP3    H213609   0.650   1.328   4.810  0.2970 -0.9561 -0.0316
 4549TIP3   OH213610   2.702   1.658   1.658 -0.1563 -0.2232  0.1224
 4549TIP3    H113611   2.688   1.612   1.741  0.9105 -0.1356  0.3619
 4549TIP3    H213612   2.638   1.729   1.659 -1.2981 -1.2167  0.0942
 4550TIP3   OH213613   4.150   2.074   0.850 -0.1610  0.5102  0.4427
 4550TIP3    H113614   4.120   2.074   0.759  0.7600  0.4992  0.1292
 4550TIP3    H213615   4.070   2.059   0.901 -0.6626  0.3208 -0.3685
 4551TIP3   OH213616   0.895   0.487   1.160 -0.0370 -0.5304  0.2860
 4551TIP3    H113617   0.977   0.509   1.202  0.0984 -2.5375  1.2005
 4551TIP3    H213618   0.859   0.570   1.131  2.9817  0.3150 -1.4587
 4552TIP3   OH213619   6.613   2.779   0.645 -0.2206  0.2846 -1.0417
 4552TIP3    H113620   6.671   2.703   0.651 -0.5832 -0.0575 -1.7411
 4552TIP3    H213621   6.664   2.844   0.596  0.6340  1.0417  0.7665
 4553TIP3   OH213622   0.122   2.332   3.887  0.1989 -0.0544  0.0439
 4553TIP3    H113623   0.086   2.419   3.870  0.2700  0.2548  1.3867
 4553TIP3    H213624   0.205   2.331   3.838  0.5478  0.9018  0.5949
 4554TIP3   OH213625   5.600   4.177   1.589 -0.2603 -0.4235  0.0143
 4554TIP3    H113626   5.582   4.093   1.548  2.4172 -1.9459  1.6652
 4554TIP3    H213627   5.674   4.213   1.540 -1.9605  1.5703 -1.3010
 4555TIP3   OH213628   4.308   6.225   2.498  0.4638 -0.5453  0.0087
 4555TIP3    H113629   4.351   6.270   2.425  3.5157 -0.3540  1.7652
 4555TIP3    H213630   4.279   6.141   2.460  0.7948  0.0524 -1.6797
 4556TIP3   OH213631   3.430   3.203   3.898  0.3470  0.1504  0.8569
 4556TIP3    H113632   3.465   3.260   3.830 -0.5118  0.0282  0.2942
 4556TIP3    H213633   3.497   3.136   3.911  0.0690 -0.4634 -0.6734
 4557TIP3   OH213634   5.421   5.296   5.453 -0.4185 -0.0462  0.3505
 4557TIP3    H113635   5.507   5.260   5.429  0.2543  1.6529  0.1182
 4557TIP3    H213636   5.387   5.332   5.371 -0.6056  0.7741  0.7787
 4558TIP3   OH213637   3.561   6.392   5.180 -0.1517 -0.2567 -0.2186
 4558TIP3    H113638   3.480   6.365   5.225  0.6629 -0.5157  1.1638
 4558TIP3    H213639   3.532   6.454   5.113 -1.5143 -0.4632  0.1484
 4559TIP3   OH213640   2.354   1.766   4.146  0.0841 -0.4634  0.2176
 4559TIP3    H113641   2.328   1.858   4.148  1.1969 -0.1025 -0.7084
 4559TIP3    H213642   2.428   1.761   4.206 -0.9212 -1.0980  1.4467
 4560TIP3   OH213643   4.773   3.662   4.865 -0.1230 -0.2319 -0.4440
 4560TIP3    H113644   4.767   3.731   4.931  0.8715 -0.3162 -0.2489
 4560TIP3    H213645   4.698   3.678   4.807 -0.3676  0.5186  0.0603
 4561TIP3   OH213646   3.836   6.230   1.038 -0.1977  0.2102  0.2085
 4561TIP3    H113647   3.824   6.198   0.949 -0.9453 -0.4377  0.5277
 4561TIP3    H213648   3.920   6.276   1.036  0.4191 -0.9006 -0.5170
 4562TIP3   OH213649   2.016   1.798   5.045  0.4010 -0.4517  0.0472
 4562TIP3    H113650   1.966   1.835   4.972 -1.8747  0.1669  1.8230
 4562TIP3    H213651   2.063   1.873   5.082  0.9403 -0.6224 -0.2723
 4563TIP3   OH213652   5.000   1.057   5.486  0.1189  0.1348 -0.4336
 4563TIP3    H113653   5.045   1.140   5.499  0.7427 -0.2930  0.2174
 4563TIP3    H213654   5.025   1.004   5.562  0.7503 -1.0901 -1.4692
 4564TIP3   OH213655   6.966   0.311   4.176 -0.1172 -0.3849 -0.3786
 4564TIP3    H113656   6.882   0.322   4.220  0.8896 -1.8992  2.1388
 4564TIP3    H213657   6.954   0.235   4.120 -0.5766 -0.2157 -0.5177
 4565TIP3   OH213658   6.854   3.962   1.385 -0.2311 -0.3923 -0.0280
 4565TIP3    H113659   6.895   3.974   1.471 -1.0944  1.8464  0.1569
 4565TIP3    H213660   6.760   3.959   1.404 -0.5569  1.9299 -0.9598
 4566TIP3   OH213661   5.025   5.057   2.583  0.2367  0.0188  0.6406
 4566TIP3    H113662   5.108   5.091   2.618 -0.4021  2.7332 -0.2829
 4566TIP3    H213663   4.959   5.086   2.646 -0.2208 -0.6668  0.4869
 4567TIP3   OH213664   1.503   5.166   4.785 -0.8707 -0.3694  0.5654
 4567TIP3    H113665   1.485   5.120   4.703  0.9669  0.0643 -0.1326
 4567TIP3    H213666   1.599   5.171   4.789 -0.8395  4.2043  0.0382
 4568TIP3   OH213667   6.931   2.155   4.671  0.6595 -0.4588  0.6358
 4568TIP3    H113668   6.977   2.086   4.622  0.4091 -1.2406  1.4699
 4568TIP3    H213669   6.998   2.194   4.727  0.7181 -0.2921  0.4490
 4569TIP3   OH213670   6.075   0.936   4.518  0.5713 -0.3463 -0.1714
 4569TIP3    H113671   6.117   0.911   4.436  0.4384  0.2569 -0.4304
 4569TIP3    H213672   6.045   1.026   4.503  1.0101 -0.0441  0.7182
 4570TIP3   OH213673   4.471   2.976   1.919  0.3035 -0.0394  0.0501
 4570TIP3    H113674   4.382   2.951   1.943  0.1136  1.2793  0.8438
 4570TIP3    H213675   4.497   2.914   1.851 -0.6477 -1.4095  0.9021
 4571TIP3   OH213676   1.514   6.158   4.732  0.3725 -0.8865 -0.0055
 4571TIP3    H113677   1.583   6.093   4.743  0.9844 -0.7183 -2.2082
 4571TIP3    H213678   1.491   6.185   4.821  3.3643 -0.7481  0.8490
 4572TIP3   OH213679   0.721   0.182   5.398  0.3585 -0.2372  0.0045
 4572TIP3    H113680   0.697   0.141   5.315 -1.7261  1.1768 -0.1708
 4572TIP3    H213681   0.673   0.265   5.399  2.5781  1.1447  1.3681
 4573TIP3   OH213682   2.800   4.068   4.656 -0.1267 -0.5111  0.0896
 4573TIP3    H113683   2.818   4.031   4.569  0.8693 -1.0123  0.4821
 4573TIP3    H213684   2.874   4.126   4.673 -0.2761 -0.4714  0.6219
 4574TIP3   OH213685   3.129   2.098   3.496  0.4313 -0.3470  0.0929
 4574TIP3    H113686   3.181   2.139   3.565  0.0561  2.3423 -1.1014
 4574TIP3    H213687   3.181   2.110   3.417 -0.7709 -0.0795 -0.6820
 4575TIP3   OH213688   0.482   3.912   5.513 -0.2639 -0.0165 -0.3826
 4575TIP3    H113689   0.509   4.004   5.515 -3.1905  0.9455  1.0336
 4575TIP3    H213690   0.487   3.888   5.420 -0.8122  2.0715 -1.0138
 4576TIP3   OH213691   5.312   5.168   4.139 -0.6167  0.5347  0.4192
 4576TIP3    H113692   5.303   5.108   4.065  0.5688  2.0017 -1.0081
 4576TIP3    H213693   5.244   5.234   4.124  1.6075  2.6172 -1.2638
 4577TIP3   OH213694   3.013   0.178   0.642  0.0807  0.0262 -0.2179
 4577TIP3    H113695   3.042   0.097   0.685 -0.6868  0.0714  0.4057
 4577TIP3    H213696   3.005   0.155   0.550 -0.0670 -0.5900 -0.0577
 4578TIP3   OH213697   3.876   1.179   4.900 -0.0282 -0.2924 -0.0643
 4578TIP3    H113698   3.849   1.257   4.850  0.9981  0.1465  0.0426
 4578TIP3    H213699   3.862   1.106   4.840 -2.8069 -0.3142  0.4475
 4579TIP3   OH213700   4.577   2.153   2.540  0.4067  0.7782  0.0333
 4579TIP3    H113701   4.599   2.220   2.476 -3.1233  1.1351 -1.0278
 4579TIP3    H213702   4.484   2.166   2.558  0.1448 -2.2788  1.6724
 4580TIP3   OH213703   2.912   4.439   4.682  0.2574 -0.4565 -0.2637
 4580TIP3    H113704   2.914   4.442   4.778  1.5133 -0.0349 -0.2804
 4580TIP3    H213705   2.992   4.392   4.658 -0.5793 -1.4861 -1.0889
 4581TIP3   OH213706   1.977   6.457   5.128 -0.2402 -0.0513  0.4831
 4581TIP3    H113707   1.967   6.367   5.159 -1.6419 -0.7013 -1.6527
 4581TIP3    H213708   1.914   6.507   5.179  0.5900 -0.2198  1.7280
 4582TIP3   OH213709   0.297   6.549   0.207  0.0922 -0.1348 -0.3776
 4582TIP3    H113710   0.313   6.525   0.116 -1.6813 -2.3544 -0.2117
 4582TIP3    H213711   0.384   6.566   0.243  0.9768 -0.8053 -2.0838
 4583TIP3   OH213712   5.649   2.289   2.375 -0.0581 -0.1790 -0.4869
 4583TIP3    H113713   5.704   2.227   2.328  2.5454  0.0878  1.9767
 4583TIP3    H213714   5.597   2.235   2.434 -2.0530 -0.3631 -2.2857
 4584TIP3   OH213715   5.509   0.994   2.029  0.9805 -0.2525 -0.5237
 4584TIP3    H113716   5.449   0.923   2.006  0.1377  0.9524 -2.2971
 4584TIP3    H213717   5.591   0.972   1.985  0.3179  0.4719 -2.2111
 4585TIP3   OH213718   7.123   0.510   0.612  0.6124 -0.5490  0.1415
 4585TIP3    H113719   7.158   0.594   0.643 -0.6123 -0.3840  1.1370
 4585TIP3    H213720   7.148   0.447   0.680 -1.6604 -0.2736  1.3408
 4586TIP3   OH213721   7.129   0.978   4.336 -0.0418 -0.2703  0.1143
 4586TIP3    H113722   7.220   0.973   4.363 -0.1222 -0.7499  0.2949
 4586TIP3    H213723   7.129   1.037   4.260  0.6862 -1.7897 -1.1194
 4587TIP3   OH213724   0.600   2.035   1.855  0.3112  0.6894  0.4237
 4587TIP3    H113725   0.676   2.005   1.806 -0.2209  0.5125 -0.3188
 4587TIP3    H213726   0.525   2.001   1.806 -0.2328 -0.5980  2.0565
 4588TIP3   OH213727   1.028   0.880   2.394 -0.1023 -0.0322  0.2819
 4588TIP3    H113728   0.980   0.805   2.358 -0.7046 -0.8796  2.6647
 4588TIP3    H213729   1.103   0.840   2.440  1.1118  1.0566 -0.6646
 4589TIP3   OH213730   1.668   5.311   3.532 -0.3828  0.1480  0.2768
 4589TIP3    H113731   1.762   5.303   3.548  0.1703 -1.0172 -2.8459
 4589TIP3    H213732   1.662   5.340   3.440 -3.0882  2.0859  0.9378
 4590TIP3   OH213733   1.857   2.820   3.666 -0.2720 -0.3350 -0.4815
 4590TIP3    H113734   1.814   2.738   3.640  1.1876 -0.6867 -1.9478
 4590TIP3    H213735   1.836   2.881   3.596  0.9730 -0.2973 -0.8400
 4591TIP3   OH213736   4.871   5.155   5.132  0.0295  0.4226  0.0561
 4591TIP3    H113737   4.844   5.246   5.120  0.2122  0.4094 -0.5083
 4591TIP3    H213738   4.940   5.158   5.198 -1.2067  0.4764  1.3925
 4592TIP3   OH213739   5.088   4.863   5.257 -0.3395 -0.0513 -0.4233
 4592TIP3    H113740   5.070   4.946   5.302  0.4426  0.1318 -0.4283
 4592TIP3    H213741   5.183   4.855   5.260 -0.3731 -0.6736 -0.9251
 4593TIP3   OH213742   5.311   2.926   5.454  0.1258 -0.2185  0.2575
 4593TIP3    H113743   5.335   2.877   5.533  0.6245  0.6891  0.6791
 4593TIP3    H213744   5.233   2.975   5.478  0.4413  0.2796  0.2868
 4594TIP3   OH213745   1.139   5.466   2.314  0.2756  0.1567  0.2980
 4594TIP3    H113746   1.187   5.476   2.396 -1.8563  2.7242  1.3920
 4594TIP3    H213747   1.179   5.390   2.272  0.4417 -2.3639  4.4320
 4595TIP3   OH213748   0.201   1.353   4.203 -0.1994  0.7216 -0.1144
 4595TIP3    H113749   0.120   1.305   4.221 -0.0435  0.7157  0.6106
 4595TIP3    H213750   0.260   1.288   4.166 -0.4129  0.6421 -0.3111
 4596TIP3   OH213751   1.715   2.216   2.630  0.2170 -0.4478 -0.0135
 4596TIP3    H113752   1.751   2.302   2.605 -0.3182 -0.1821  0.1141
 4596TIP3    H213753   1.625   2.219   2.599 -0.4587 -0.1206  1.8988
 4597TIP3   OH213754   4.588   4.720   3.904  0.3977  0.4157 -0.0603
 4597TIP3    H113755   4.658   4.666   3.866 -1.7208 -1.4849 -1.4980
 4597TIP3    H213756   4.596   4.704   3.998  1.2645 -0.5703 -0.2723
 4598TIP3   OH213757   4.598   4.906   3.619 -0.0067  0.1904 -0.0512
 4598TIP3    H113758   4.509   4.942   3.622 -0.2716 -0.2413 -1.7126
 4598TIP3    H213759   4.590   4.827   3.567  1.2591 -0.2061  0.3142
 4599TIP3   OH213760   4.280   1.971   4.538 -0.1049  0.3955  0.1482
 4599TIP3    H113761   4.196   1.976   4.583  0.4932 -0.9723  1.5064
 4599TIP3    H213762   4.334   2.037   4.583  0.1322 -0.1363  0.6620
 4600TIP3   OH213763   6.049   2.433   1.656  0.1000 -0.1627 -0.1055
 4600TIP3    H113764   6.021   2.374   1.586  0.2496 -1.5241  0.9342
 4600TIP3    H213765   5.973   2.441   1.714  0.3177  0.0671  0.1542
 4601TIP3   OH213766   5.049   1.878   4.206  0.6750 -0.7808  0.4012
 4601TIP3    H113767   5.079   1.788   4.196  1.4644 -0.5997  1.0794
 4601TIP3    H213768   5.030   1.887   4.299  1.0101 -0.1155  0.4100
 4602TIP3   OH213769   5.747   1.232   3.237  0.4019 -0.2768 -0.3558
 4602TIP3    H113770   5.832   1.255   3.275  0.3025 -2.7439  1.6843
 4602TIP3    H213771   5.768   1.169   3.168  0.3008  0.3309 -0.9454
 4603TIP3   OH213772   2.185   3.519   2.781 -0.0942 -0.3009 -0.1151
 4603TIP3    H113773   2.125   3.532   2.855  0.2851 -0.5016  0.2309
 4603TIP3    H213774   2.128   3.490   2.709 -0.3512 -0.9971  0.3514
 4604TIP3   OH213775   7.017   2.693   0.437 -0.4041 -0.1328  0.4718
 4604TIP3    H113776   7.012   2.601   0.461  1.2343 -0.0156  1.3853
 4604TIP3    H213777   7.046   2.692   0.345 -1.4501 -0.5128  0.1290
 4605TIP3   OH213778   0.514   3.776   5.267 -0.2692  0.2239  0.2297
 4605TIP3    H113779   0.580   3.845   5.260 -2.4237  2.4051  0.2094
 4605TIP3    H213780   0.503   3.744   5.178  1.1753 -0.6656  0.3279
 4606TIP3   OH213781   5.775   1.432   4.444  0.0952  0.0944  0.3656
 4606TIP3    H113782   5.855   1.484   4.446  0.7534 -0.9089  0.9407
 4606TIP3    H213783   5.717   1.476   4.506  0.6838  0.1024  0.9265
 4607TIP3   OH213784   1.152   6.389   2.728 -0.1840 -0.6628  0.2992
 4607TIP3    H113785   1.175   6.335   2.653  1.4353 -0.7973  0.8455
 4607TIP3    H213786   1.096   6.458   2.693 -2.5956 -2.8465 -0.3570
 4608TIP3   OH213787   5.513   4.385   1.789  0.0298  0.4338  0.3506
 4608TIP3    H113788   5.525   4.442   1.713 -1.1590 -0.0886 -0.2579
 4608TIP3    H213789   5.546   4.300   1.761  0.1381  0.3858  0.6226
 4609TIP3   OH213790   2.043   1.643   5.753  0.3306  0.1113 -0.2331
 4609TIP3    H113791   2.046   1.551   5.782 -0.5383  0.8191  2.4293
 4609TIP3    H213792   1.950   1.664   5.750  0.4920  1.7785  2.6295
 4610TIP3   OH213793   1.525   5.695   2.692  0.0433  0.0454 -0.1766
 4610TIP3    H113794   1.476   5.652   2.762  1.1657  0.6445  1.0261
 4610TIP3    H213795   1.470   5.769   2.666  0.4423  0.9361  1.4200
 4611TIP3   OH213796   1.600   4.318   3.593  0.5215  0.6654 -0.0269
 4611TIP3    H113797   1.675   4.331   3.534  1.5790 -0.1120  1.0914
 4611TIP3    H213798   1.633   4.344   3.679 -0.6638  0.7703  0.4112
 4612TIP3   OH213799   4.002   1.668   0.081  0.4945 -0.1022 -0.5602
 4612TIP3    H113800   4.019   1.735   0.014  0.0697  1.3747  0.7513
 4612TIP3    H213801   3.955   1.714   0.150 -2.6915 -2.4476 -0.9364
 4613TIP3   OH213802   0.252   2.883   2.858  0.4879  0.1348 -0.5544
 4613TIP3    H113803   0.293   2.799   2.878 -1.6965 -0.5013  1.6318
 4613TIP3    H213804   0.279   2.941   2.929 -0.3898  0.4160 -0.4422
 4614TIP3   OH213805   5.446   6.142   3.953 -0.0216 -0.6095 -0.0492
 4614TIP3    H113806   5.486   6.201   4.018 -2.4409  1.8337 -0.6027
 4614TIP3    H213807   5.397   6.079   4.005  2.6245 -2.3026  0.5612
 4615TIP3   OH213808   7.134   1.325   4.986  0.4549 -0.0421 -0.3849
 4615TIP3    H113809   7.162   1.246   4.940 -0.5623 -0.8837  0.3921
 4615TIP3    H213810   7.156   1.309   5.078 -2.3524 -0.6960  0.2455
 4616TIP3   OH213811   2.182   3.440   0.817  0.0191  0.1240 -0.1550
 4616TIP3    H113812   2.116   3.377   0.789 -1.8843  0.4748  3.0491
 4616TIP3    H213813   2.158   3.522   0.774 -1.5745  0.1786  0.7508
 4617TIP3   OH213814   4.350   3.764   5.784  0.4693 -0.5283  0.0716
 4617TIP3    H113815   4.304   3.833   5.736 -1.5704  0.9873  3.7655
 4617TIP3    H213816   4.439   3.798   5.793  0.4803 -0.1394 -1.2518
 4618TIP3   OH213817   2.333   1.715   0.613  0.1172  0.6906 -0.1407
 4618TIP3    H113818   2.404   1.685   0.555  1.1866  0.9265  0.9932
 4618TIP3    H213819   2.366   1.698   0.701 -1.4770  0.3407  0.4114
 4619TIP3   OH213820   1.744   4.167   0.331 -0.5214  0.4490  0.4113
 4619TIP3    H113821   1.776   4.171   0.241  0.6419 -1.2139  0.7190
 4619TIP3    H213822   1.802   4.227   0.379 -0.0257  0.0137  0.3603
 4620TIP3   OH213823   6.613   4.622   2.326  0.2270  0.2520  0.0665
 4620TIP3    H113824   6.529   4.598   2.366  0.8269  0.1582  1.3008
 4620TIP3    H213825   6.677   4.610   2.395  1.0176  2.1355 -0.2819
 4621TIP3   OH213826   2.352   1.008   4.145 -0.2300  0.3467 -0.3599
 4621TIP3    H113827   2.374   0.948   4.216  0.2713 -0.9287 -1.5332
 4621TIP3    H213828   2.386   1.093   4.173  0.8054 -0.3347  0.5133
 4622TIP3   OH213829   3.807   0.977   4.476 -0.3592 -0.7282  0.2243
 4622TIP3    H113830   3.894   1.001   4.443 -0.0065 -0.8001  1.0974
 4622TIP3    H213831   3.763   1.061   4.489  0.2729 -0.5885  1.6329
 4623TIP3   OH213832   4.423   0.230   3.460 -0.4246 -0.1324  0.2407
 4623TIP3    H113833   4.387   0.161   3.405 -1.1365  0.2073  0.2743
 4623TIP3    H213834   4.423   0.308   3.405 -0.8243  0.1320  0.6107
 4624TIP3   OH213835   5.641   1.402   4.206  0.6821  0.0553  0.2917
 4624TIP3    H113836   5.556   1.447   4.213  0.9565  0.6220  0.0071
 4624TIP3    H213837   5.687   1.425   4.286  0.5951 -0.1938  0.4131
 4625TIP3   OH213838   1.542   1.913   4.030 -0.0873 -0.0123  0.3828
 4625TIP3    H113839   1.597   1.974   4.080  0.5735  0.3451 -0.7328
 4625TIP3    H213840   1.605   1.859   3.981 -0.7159  0.0813 -0.5485
 4626TIP3   OH213841   5.157   0.938   0.764 -0.0653  0.0374  0.3312
 4626TIP3    H113842   5.157   0.842   0.758  0.0133  0.0805 -0.4409
 4626TIP3    H213843   5.195   0.967   0.681  1.7000  0.6963  1.3163
 4627TIP3   OH213844   5.502   0.137   5.188 -0.2423 -0.0744  0.0540
 4627TIP3    H113845   5.540   0.055   5.222  0.4931  0.2333 -0.0040
 4627TIP3    H213846   5.546   0.206   5.238  1.4478  0.4310 -2.0041
 4628TIP3   OH213847   0.661   5.548   1.827 -0.0711 -0.0273  0.1857
 4628TIP3    H113848   0.618   5.516   1.906  1.2525 -2.7362 -0.0680
 4628TIP3    H213849   0.746   5.503   1.826  0.8395  1.5633 -1.7071
 4629TIP3   OH213850   2.517   1.250   1.105  0.0274  0.0298  0.2674
 4629TIP3    H113851   2.432   1.228   1.069  0.9066 -1.9928 -0.7572
 4629TIP3    H213852   2.523   1.199   1.186  0.3622 -0.0273  0.2098
 4630TIP3   OH213853   6.523   0.205   4.672  0.0127  0.1693  0.0516
 4630TIP3    H113854   6.450   0.199   4.734  0.3323  1.3250  0.5767
 4630TIP3    H213855   6.599   0.175   4.722  0.7449  3.4271  1.1448
 4631TIP3   OH213856   3.601   1.196   2.243  0.5783 -0.0123 -0.0293
 4631TIP3    H113857   3.598   1.203   2.338  0.2339  0.4998 -0.0765
 4631TIP3    H213858   3.559   1.276   2.211 -0.1602 -0.6132 -0.5989
 4632TIP3   OH213859   5.258   2.767   3.640  0.1041 -0.6786 -0.6016
 4632TIP3    H113860   5.284   2.837   3.701 -0.2110 -2.0541  1.2032
 4632TIP3    H213861   5.167   2.786   3.619 -0.3541 -1.1344  0.8214
 4633TIP3   OH213862   4.456   3.533   1.941  0.0826 -0.3784  0.5433
 4633TIP3    H113863   4.440   3.622   1.973 -0.5294 -0.5514  0.7368
 4633TIP3    H213864   4.459   3.479   2.020  1.9510 -0.3366  0.5549
 4634TIP3   OH213865   6.336   3.909   3.385  0.0167  0.0051  0.1739
 4634TIP3    H113866   6.419   3.874   3.418  0.1338 -0.4737 -0.6016
 4634TIP3    H213867   6.272   3.840   3.401  0.1912 -0.4767 -1.1047
 4635TIP3   OH213868   1.872   2.781   1.619 -0.4766 -0.1287 -0.2628
 4635TIP3    H113869   1.884   2.705   1.676 -2.8446  0.7809  1.6391
 4635TIP3    H213870   1.928   2.848   1.658  0.0652 -0.2921 -0.7408
 4636TIP3   OH213871   2.760   5.489   1.606 -0.0527  0.5233  0.5089
 4636TIP3    H113872   2.696   5.528   1.665 -0.8962 -1.3779  0.9409
 4636TIP3    H213873   2.712   5.417   1.565  1.2023  0.3964 -0.7907
 4637TIP3   OH213874   6.540   6.120   1.453  0.2477 -0.3779 -0.3017
 4637TIP3    H113875   6.635   6.118   1.465  0.4443  2.8630 -0.3750
 4637TIP3    H213876   6.525   6.073   1.372  1.6372 -1.8387  0.2328
 4638TIP3   OH213877   4.957   4.641   0.977  0.3398 -0.4965 -0.3783
 4638TIP3    H113878   4.975   4.573   1.042  0.8850 -1.0221 -1.0625
 4638TIP3    H213879   4.864   4.661   0.988  0.6501  0.1713  1.2447
 4639TIP3   OH213880   2.179   2.097   4.659  0.5697  0.4263  0.2456
 4639TIP3    H113881   2.226   2.100   4.575 -0.3299 -1.0469 -0.3526
 4639TIP3    H213882   2.233   2.043   4.715  0.6845  0.5965  0.3009
 4640TIP3   OH213883   2.643   6.480   1.516  0.3867 -0.0638  0.3486
 4640TIP3    H113884   2.686   6.565   1.522  0.5494 -0.2054  1.5235
 4640TIP3    H213885   2.714   6.417   1.532 -0.0149 -0.3476  1.0593
 4641TIP3   OH213886   5.538   4.851   3.518  0.3913 -0.0513 -0.0297
 4641TIP3    H113887   5.588   4.801   3.453 -0.0299 -0.7282  0.1638
 4641TIP3    H213888   5.601   4.916   3.551  1.5099 -1.5810  1.0124
 4642TIP3   OH213889   2.131   0.097   3.812 -0.1150 -0.3757  0.1857
 4642TIP3    H113890   2.145   0.073   3.904  0.3454 -0.2062  0.1617
 4642TIP3    H213891   2.157   0.189   3.807  0.9262 -0.6769 -0.3430
 4643TIP3   OH213892   3.611   5.157   1.469  0.1971  0.1175 -0.0885
 4643TIP3    H113893   3.519   5.182   1.470  0.3631  0.8603 -1.5167
 4643TIP3    H213894   3.650   5.204   1.543 -0.2037  1.2847 -0.6045
 4644TIP3   OH213895   3.282   5.830   3.827 -0.2495  0.3863  0.2751
 4644TIP3    H113896   3.281   5.740   3.858 -0.3430  0.2890 -0.0123
 4644TIP3    H213897   3.190   5.855   3.822 -0.2887  0.0370 -0.9860
 4645TIP3   OH213898   6.795   3.150   1.116  0.2522 -0.0107  0.5488
 4645TIP3    H113899   6.744   3.074   1.090 -0.1439  1.0218 -2.0782
 4645TIP3    H213900   6.884   3.116   1.128 -0.2943 -1.1933  1.4590
 4646TIP3   OH213901   4.652   2.824   4.484  0.0388 -0.4505 -0.1544
 4646TIP3    H113902   4.732   2.848   4.531  0.1296  0.4366 -0.7342
 4646TIP3    H213903   4.605   2.766   4.544 -0.6192  1.8959  1.7473
 4647TIP3   OH213904   3.056   1.030   1.000  0.3973 -1.0169  0.4800
 4647TIP3    H113905   3.038   1.027   0.906 -0.2063  0.4354  0.5257
 4647TIP3    H213906   3.089   1.118   1.015 -1.3073 -0.5618  1.9134
 4648TIP3   OH213907   2.459   4.319   3.029  0.1584  0.8267 -0.1939
 4648TIP3    H113908   2.529   4.308   3.093  0.4557 -0.8480 -0.7456
 4648TIP3    H213909   2.457   4.236   2.982 -0.6483  1.6862 -1.7572
 4649TIP3   OH213910   4.604   3.542   4.301  0.2541  0.1455 -0.2616
 4649TIP3    H113911   4.563   3.628   4.300 -1.4932 -0.5340  2.3400
 4649TIP3    H213912   4.564   3.497   4.375  2.0981 -2.4468 -0.6866
 4650TIP3   OH213913   3.967   4.513   4.068 -0.4810  0.0121 -0.6323
 4650TIP3    H113914   3.991   4.425   4.040 -0.3805 -0.7131  1.5553
 4650TIP3    H213915   4.050   4.558   4.082 -0.5104  0.0055 -0.4330
 4651TIP3   OH213916   0.089   0.726  -0.005 -0.0515  0.0010  0.4100
 4651TIP3    H113917   0.053   0.752   0.079 -0.2356  1.0874  0.0007
 4651TIP3    H213918   0.158   0.790  -0.023  0.5273 -0.6926  0.1040
 4652TIP3   OH213919   0.119   6.400   1.142  0.3295 -0.6666  0.4592
 4652TIP3    H113920   0.056   6.338   1.178  0.1912 -0.7082  0.1460
 4652TIP3    H213921   0.176   6.422   1.216 -1.5465  1.2930  1.4169
 4653TIP3   OH213922   1.057   2.081   4.538  0.3820  0.2420 -0.4134
 4653TIP3    H113923   1.077   1.989   4.557  0.2859  0.3498  0.2036
 4653TIP3    H213924   1.122   2.131   4.588  0.4597  0.5147 -0.7773
 4654TIP3   OH213925   0.681   5.125   4.257 -0.6746 -0.4192  0.4942
 4654TIP3    H113926   0.673   5.035   4.287 -0.3745 -1.8184 -3.0753
 4654TIP3    H213927   0.591   5.153   4.239 -0.6944 -0.3614  0.6811
 4655TIP3   OH213928   6.906   1.431   3.668  0.5034  0.0332 -0.0024
 4655TIP3    H113929   6.866   1.370   3.607 -0.6153  0.7402 -0.0132
 4655TIP3    H213930   6.951   1.376   3.732 -0.4055 -0.7998 -0.0598
 4656TIP3   OH213931   2.921   1.290   3.557 -0.8292 -0.0973 -0.5212
 4656TIP3    H113932   2.982   1.240   3.502 -0.3997 -0.2511  0.0736
 4656TIP3    H213933   2.967   1.299   3.641 -0.3779  2.3537 -0.9596
 4657TIP3   OH213934   6.099   0.490   2.041 -0.0350 -0.0834 -0.0210
 4657TIP3    H113935   6.038   0.522   2.108 -1.6892 -0.5013 -1.2708
 4657TIP3    H213936   6.177   0.465   2.090 -0.0680  2.3051  1.4292
 4658TIP3   OH213937   1.788   2.906   5.575 -0.2979 -0.3515 -0.3346
 4658TIP3    H113938   1.772   2.816   5.601 -1.2674  0.0393  0.5042
 4658TIP3    H213939   1.772   2.957   5.655  1.4654  0.4601 -0.4492
 4659TIP3   OH213940   2.613   0.726   5.436 -0.1804  0.0738 -0.1338
 4659TIP3    H113941   2.637   0.706   5.346  0.6449 -2.7532  0.5925
 4659TIP3    H213942   2.684   0.689   5.489 -1.7440 -0.4552  1.7292
 4660TIP3   OH213943   1.081   5.051   3.154  0.2922 -0.6329  0.2482
 4660TIP3    H113944   1.076   5.127   3.212  0.0323  0.6380 -1.3651
 4660TIP3    H213945   0.993   5.013   3.156 -0.1056  0.2306 -0.3519
 4661TIP3   OH213946   2.730   2.791   2.864  0.3993 -0.0981 -0.0249
 4661TIP3    H113947   2.698   2.804   2.953 -0.3590 -1.1120 -0.1306
 4661TIP3    H213948   2.789   2.865   2.849 -0.6106  0.9162  0.7799
 4662TIP3   OH213949   5.003   1.835   0.549  0.4324 -0.0306 -0.6903
 4662TIP3    H113950   5.017   1.888   0.628  0.8490 -0.3288 -0.5592
 4662TIP3    H213951   5.091   1.826   0.511  0.0937  0.9626 -1.7438
 4663TIP3   OH213952   1.386   6.553   2.823  0.0171  0.0367 -0.6860
 4663TIP3    H113953   1.359   6.600   2.902 -0.0177 -0.9681 -0.0946
 4663TIP3    H213954   1.311   6.500   2.798 -0.0179  0.4393 -1.4775
 4664TIP3   OH213955   4.617   5.142   2.118  0.1240  0.0356  0.5136
 4664TIP3    H113956   4.655   5.059   2.088  0.2871 -0.0733  1.0210
 4664TIP3    H213957   4.571   5.119   2.199 -2.4355 -0.1995 -0.8828
 4665TIP3   OH213958   3.395   4.270   4.014 -0.6220  0.3247  0.3699
 4665TIP3    H113959   3.361   4.345   4.064  0.5157  1.4049 -0.4157
 4665TIP3    H213960   3.387   4.297   3.922 -1.5363 -1.1288 -0.0012
 4666TIP3   OH213961   2.705   4.516   5.491  0.0780  0.1752 -0.5135
 4666TIP3    H113962   2.659   4.525   5.574 -1.4317 -0.6692 -1.2158
 4666TIP3    H213963   2.656   4.572   5.430  3.3394  3.8952 -0.1368
 4667TIP3   OH213964   1.932   5.681   2.164 -0.4546  0.0400 -0.0102
 4667TIP3    H113965   1.966   5.694   2.076 -1.4281 -0.3077 -0.4515
 4667TIP3    H213966   1.949   5.589   2.183  0.5920  0.3317  0.5479
 4668TIP3   OH213967   0.574   1.903   5.165  0.0445  0.1467 -0.4912
 4668TIP3    H113968   0.505   1.946   5.216 -0.3239  0.4193 -1.2144
 4668TIP3    H213969   0.617   1.974   5.118  0.8202 -0.0249 -0.0519
 4669TIP3   OH213970   2.913   6.041   1.710 -0.2517 -0.0683 -0.3755
 4669TIP3    H113971   2.976   5.993   1.763 -1.9747 -2.4755 -0.3791
 4669TIP3    H213972   2.868   6.099   1.771  0.0852 -0.3297  0.1209
 4670TIP3   OH213973   2.155   1.479   5.443 -0.4249  0.4933 -0.1032
 4670TIP3    H113974   2.236   1.427   5.443 -0.2702  0.6967  1.2014
 4670TIP3    H213975   2.087   1.418   5.469 -0.2368  0.9130  1.4712
 4671TIP3   OH213976   0.727   2.999   3.655  0.0880  0.5756 -0.2424
 4671TIP3    H113977   0.818   2.980   3.681  0.2114 -2.2466 -2.3226
 4671TIP3    H213978   0.680   3.007   3.738  1.9253  0.4685  0.8701
 4672TIP3   OH213979   6.531   0.720   5.789 -0.1773 -0.2167 -0.4452
 4672TIP3    H113980   6.458   0.745   5.846  1.5597 -1.8767  2.8383
 4672TIP3    H213981   6.505   0.636   5.751 -1.3258  0.8757 -2.2159
 4673TIP3   OH213982   6.731   5.162   5.505  0.3047 -0.0599 -0.4946
 4673TIP3    H113983   6.656   5.217   5.528  0.3135 -0.1153 -0.3346
 4673TIP3    H213984   6.700   5.072   5.520  0.1758 -0.1193 -1.0755
 4674TIP3   OH213985   4.353   4.501   1.828 -0.0297  0.6193  0.2964
 4674TIP3    H113986   4.346   4.593   1.804 -1.1938  0.4390 -0.0984
 4674TIP3    H213987   4.263   4.472   1.843  0.3479 -0.3615  0.7785
 4675TIP3   OH213988   2.996   3.382   3.609 -0.2318  0.1590  0.1224
 4675TIP3    H113989   3.007   3.449   3.676 -1.8542 -1.0946  1.7689
 4675TIP3    H213990   3.065   3.318   3.628 -0.7154 -0.2154  0.6643
 4676TIP3   OH213991   4.911   6.789   3.934 -0.1632 -0.3725  0.3399
 4676TIP3    H113992   4.897   6.714   3.993  1.2388 -0.5437  0.4950
 4676TIP3    H213993   4.860   6.768   3.856 -0.7961 -0.8884  0.8777
 4677TIP3   OH213994   2.809   1.472   0.909 -0.0934  0.5330  0.2731
 4677TIP3    H113995   2.890   1.461   0.859 -0.2740 -1.3924  0.3176
 4677TIP3    H213996   2.828   1.432   0.994 -0.9663  0.4114  0.4195
 4678TIP3   OH213997   2.588   6.528   2.525  1.0972  0.7551  0.1345
 4678TIP3    H113998   2.662   6.470   2.509 -0.5865 -1.6236  0.5051
 4678TIP3    H213999   2.571   6.568   2.439  0.1023 -2.0982 -1.1190
 4679TIP3   OH214000   7.088   2.087   3.284 -0.0500  0.6580 -0.3624
 4679TIP3    H114001   7.018   2.152   3.284 -0.3040  0.4881  2.2367
 4679TIP3    H214002   7.046   2.007   3.314  0.9534  0.1654 -0.2372
 4680TIP3   OH214003   1.876   2.948   2.496  0.3931  0.5815 -0.1811
 4680TIP3    H114004   1.845   2.889   2.426 -1.6269  1.2823  0.0409
 4680TIP3    H214005   1.823   2.923   2.572 -1.7571  3.6274 -0.4799
 4681TIP3   OH214006   6.481   3.499   1.041  0.6077 -0.1598  0.2451
 4681TIP3    H114007   6.419   3.441   0.997 -0.3255  0.0202  1.2847
 4681TIP3    H214008   6.454   3.587   1.014  0.4952 -0.0890  0.5858
 4682TIP3   OH214009   6.113   4.786   1.280 -0.0744  0.3469  0.0267
 4682TIP3    H114010   6.204   4.786   1.252 -0.0509  0.8498  0.1030
 4682TIP3    H214011   6.082   4.874   1.262 -1.3603 -0.5539 -2.5830
 4683TIP3   OH214012   6.684   5.465   5.337  0.0482  0.1076 -0.0246
 4683TIP3    H114013   6.749   5.446   5.406  1.5410  2.4007 -0.6683
 4683TIP3    H214014   6.645   5.548   5.365 -0.9781 -0.0948 -0.8317
 4684TIP3   OH214015   0.460   0.979   3.494  0.0200 -0.3621 -0.0464
 4684TIP3    H114016   0.477   0.885   3.498 -1.3937 -0.6080  2.6671
 4684TIP3    H214017   0.518   1.017   3.559  0.4439  0.6765 -0.9889
 4685TIP3   OH214018   1.560   1.395   2.177 -0.7805  0.2508 -0.1258
 4685TIP3    H114019   1.470   1.407   2.207 -0.7282  0.1199  0.0858
 4685TIP3    H214020   1.564   1.441   2.093 -1.0341  0.2877 -0.1177
 4686TIP3   OH214021   5.508   3.175   3.936  0.1292 -0.0543  0.6996
 4686TIP3    H114022   5.497   3.217   4.022  0.2673  0.7507  0.3341
 4686TIP3    H214023   5.588   3.215   3.901 -0.4856  0.3829 -0.2334
 4687TIP3   OH214024   6.485   3.772   3.132 -0.9835 -0.0134 -0.1152
 4687TIP3    H114025   6.396   3.758   3.098 -1.9680  1.1906  1.7946
 4687TIP3    H214026   6.504   3.692   3.181 -0.3963 -0.8714 -1.6754
 4688TIP3   OH214027   0.805   4.819   1.743 -0.0284  0.0757  0.1514
 4688TIP3    H114028   0.875   4.810   1.679 -1.9819  0.4989 -2.2017
 4688TIP3    H214029   0.753   4.739   1.735 -0.9695  0.6416  0.3261
 4689TIP3   OH214030   3.727   4.088   2.972  0.0374 -0.7149 -0.2728
 4689TIP3    H114031   3.682   4.116   3.051  0.5792 -0.5183 -0.0314
 4689TIP3    H214032   3.817   4.118   2.983 -0.2107  0.6524 -1.6201
 4690TIP3   OH214033   6.477   3.380   1.306 -0.5230  0.3051  0.4224
 4690TIP3    H114034   6.525   3.376   1.223 -3.1190 -0.3405 -1.1580
 4690TIP3    H214035   6.404   3.439   1.288 -1.1750  0.1130  2.2555
 4691TIP3   OH214036   6.132   5.627   1.800  0.4713 -0.9003  0.5236
 4691TIP3    H114037   6.039   5.649   1.799  0.3937 -1.2397 -0.4212
 4691TIP3    H214038   6.170   5.684   1.867 -0.3661 -0.5783  0.7323
 4692TIP3   OH214039   3.779   3.373   2.392  0.4347  0.0501 -0.7697
 4692TIP3    H114040   3.820   3.355   2.476  0.6260 -0.5000 -0.9740
 4692TIP3    H214041   3.703   3.428   2.413  1.4697  1.3807 -0.4224
 4693TIP3   OH214042   1.093   2.186   3.742  0.1023  0.6123  0.0694
 4693TIP3    H114043   1.057   2.266   3.703 -1.4299 -1.0819 -2.2969
 4693TIP3    H214044   1.157   2.155   3.678  0.6029 -0.1362  0.9116
 4694TIP3   OH214045   2.567   0.636   2.555 -0.3133  0.1419 -0.2631
 4694TIP3    H114046   2.490   0.606   2.603 -0.8124 -0.9300 -1.6703
 4694TIP3    H214047   2.531   0.689   2.484  0.2425 -0.3678 -0.9309
 4695TIP3   OH214048   0.031   1.913   0.278 -0.0736 -0.3506 -0.1834
 4695TIP3    H114049   0.087   1.922   0.201 -2.7759 -0.6779 -2.3034
 4695TIP3    H214050  -0.044   1.861   0.249 -1.4863 -0.0391  2.5250
 4696TIP3   OH214051   6.254   5.742   2.316 -0.1692  0.1312 -0.2729
 4696TIP3    H114052   6.309   5.714   2.389 -0.5373  1.8024  0.6980
 4696TIP3    H214053   6.207   5.663   2.290  1.0363 -0.8304  0.3247
 4697TIP3   OH214054   4.976   1.077   5.210 -0.0781  0.4273  0.1754
 4697TIP3    H114055   5.060   1.036   5.190 -0.5513 -0.3035 -0.3454
 4697TIP3    H214056   4.966   1.065   5.305  0.0227 -0.2138  0.1069
 4698TIP3   OH214057   5.968   2.352   2.087 -0.0609  0.0264  0.2666
 4698TIP3    H114058   5.948   2.274   2.139 -0.3132  0.4622  0.8377
 4698TIP3    H214059   5.967   2.423   2.151 -0.3209  0.5631 -0.3347
 4699TIP3   OH214060   4.592   0.026   2.192 -0.8761 -0.1415  0.1305
 4699TIP3    H114061   4.511   0.077   2.190 -1.1214 -0.5676 -1.0561
 4699TIP3    H214062   4.584  -0.037   2.121 -0.1594 -1.2167  0.9594
 4700TIP3   OH214063   6.575   2.766   1.391  0.2877  0.2475 -0.2141
 4700TIP3    H114064   6.590   2.860   1.386 -1.1865  0.5181 -0.0485
 4700TIP3    H214065   6.515   2.755   1.465  0.9998 -0.9085  0.2292
 4701TIP3   OH214066   1.919   3.644   4.744 -0.3461  0.2431 -0.2030
 4701TIP3    H114067   1.954   3.689   4.821  1.7928 -1.2824 -0.1845
 4701TIP3    H214068   1.990   3.647   4.680  0.3307 -3.7240  0.1155
 4702TIP3   OH214069   2.169   3.828   4.842  0.5335 -0.1807  0.0607
 4702TIP3    H114070   2.146   3.835   4.749  0.0501  0.4582  0.2153
 4702TIP3    H214071   2.165   3.918   4.874  0.2701 -0.4446  0.7947
 4703TIP3   OH214072   6.795   4.112   4.364 -0.1645  0.6918  0.3401
 4703TIP3    H114073   6.764   4.124   4.274 -2.1128 -1.4634  0.6134
 4703TIP3    H214074   6.869   4.051   4.356 -0.8712 -0.1767  0.2150
 4704TIP3   OH214075   1.676   4.503   1.794  0.1093 -0.0917 -0.5805
 4704TIP3    H114076   1.756   4.548   1.822 -1.0083  1.1809  0.6805
 4704TIP3    H214077   1.687   4.414   1.827  1.4158 -0.2353 -1.2935
 4705TIP3   OH214078   2.364   1.546   0.114 -0.1072 -0.0679  0.9458
 4705TIP3    H114079   2.424   1.479   0.083  0.2052  0.4387  0.4220
 4705TIP3    H214080   2.277   1.509   0.100  0.0308  0.0122 -0.2881
 4706TIP3   OH214081   0.860   1.577   1.546  0.4936 -0.4492 -0.1130
 4706TIP3    H114082   0.879   1.671   1.554 -1.7576 -0.0281  1.0749
 4706TIP3    H214083   0.883   1.541   1.632 -0.2487 -0.6528  0.0061
 4707TIP3   OH214084   0.918   3.800   5.368  0.4568  0.4052 -0.2203
 4707TIP3    H114085   0.875   3.770   5.448 -0.1428 -1.3712 -1.1642
 4707TIP3    H214086   0.949   3.888   5.389 -1.2642  0.6842  1.3832
 4708TIP3   OH214087   0.888   6.471   1.384 -0.4068  0.2286 -0.1443
 4708TIP3    H114088   0.930   6.438   1.304  0.6766  0.4616  0.3043
 4708TIP3    H214089   0.854   6.393   1.427 -0.8050  0.0782 -0.7183
 4709TIP3   OH214090   0.574   2.857   3.463 -0.2692 -0.0553 -0.8418
 4709TIP3    H114091   0.512   2.814   3.522  0.4436 -0.1736 -0.1635
 4709TIP3    H214092   0.644   2.889   3.521  1.2791 -1.6039 -1.7705
 4710TIP3   OH214093   4.308   6.317   3.226  0.1312  0.3145  0.1998
 4710TIP3    H114094   4.364   6.267   3.166  2.4632  0.5526  2.0450
 4710TIP3    H214095   4.219   6.291   3.203  1.1167 -2.6061 -0.7084
 4711TIP3   OH214096   6.813   4.375   1.242  0.4107  0.1832 -0.2771
 4711TIP3    H114097   6.860   4.451   1.207 -0.7040  0.9756 -0.1435
 4711TIP3    H214098   6.728   4.378   1.197 -0.6647  0.6268  1.6826
 4712TIP3   OH214099   0.195   2.141   1.010 -0.2445  0.3667 -0.1361
 4712TIP3    H114100   0.142   2.115   1.085 -1.0649 -0.3108 -0.9233
 4712TIP3    H214101   0.207   2.060   0.960  1.0407  0.6292 -0.2849
 4713TIP3   OH214102   3.061   3.391   2.866 -0.0263 -0.3327 -0.3785
 4713TIP3    H114103   3.049   3.448   2.942 -0.7662 -2.6771  1.4017
 4713TIP3    H214104   2.986   3.411   2.810 -0.2474  0.4592  0.1711
 4714TIP3   OH214105   6.646   4.779   0.124 -0.3740  0.2761  0.9024
 4714TIP3    H114106   6.717   4.819   0.174  0.5482 -1.8493  1.3935
 4714TIP3    H214107   6.660   4.810   0.034  1.7115 -0.6633  0.8195
 4715TIP3   OH214108   2.695   4.608   3.592  0.4008  0.1284  0.2287
 4715TIP3    H114109   2.745   4.683   3.559  1.9542 -1.6374 -1.6894
 4715TIP3    H214110   2.761   4.547   3.625 -0.7081 -0.9988  0.4352
 4716TIP3   OH214111   3.480   2.251   1.766  0.4315 -0.6769  0.0576
 4716TIP3    H114112   3.384   2.246   1.771  0.3638 -0.7817 -1.1778
 4716TIP3    H214113   3.504   2.190   1.696  1.1951  1.1518 -1.3568
 4717TIP3   OH214114   3.965   1.089   5.332  0.0376  0.1518 -0.2818
 4717TIP3    H114115   3.885   1.104   5.382  0.0087  1.0542 -0.5747
 4717TIP3    H214116   3.971   1.164   5.273  1.5877  0.5983  0.3972
 4718TIP3   OH214117   3.539   5.799   3.711 -0.0641  0.2311 -0.6137
 4718TIP3    H114118   3.512   5.829   3.624 -1.3648  0.9421  0.0002
 4718TIP3    H214119   3.469   5.829   3.769 -0.0199 -1.5967  0.4593
 4719TIP3   OH214120   0.684   2.468   4.655  0.0557  0.3146  0.2930
 4719TIP3    H114121   0.604   2.456   4.604  1.3346 -1.9919 -1.3720
 4719TIP3    H214122   0.754   2.432   4.600  1.3931 -4.1509  4.2027
 4720TIP3   OH214123   4.132   2.086   5.841  0.4021 -0.4211  0.0429
 4720TIP3    H114124   4.162   1.996   5.850 -0.0592 -0.6321 -0.4690
 4720TIP3    H214125   4.095   2.108   5.927 -0.4489 -1.0829 -0.1440
 4721TIP3   OH214126   4.837   1.739   0.798 -0.3917  0.1860 -0.4842
 4721TIP3    H114127   4.932   1.746   0.787 -0.5641  0.7831 -1.8179
 4721TIP3    H214128   4.817   1.800   0.869  0.3574 -0.9346  0.7233
 4722TIP3   OH214129   2.704   1.143   3.654  0.2365  0.0621  1.1501
 4722TIP3    H114130   2.775   1.186   3.607 -0.4369 -0.2341 -0.1818
 4722TIP3    H214131   2.677   1.208   3.720  1.0181  0.5911  0.9676
 4723TIP3   OH214132   3.490   0.005   0.196  0.4865 -0.3519 -0.9713
 4723TIP3    H114133   3.435  -0.065   0.231  2.4780 -0.4263  2.4644
 4723TIP3    H214134   3.460   0.084   0.242  1.0992  0.2063 -1.5174
 4724TIP3   OH214135   2.598   0.599   3.777  0.1639  0.0546  0.8165
 4724TIP3    H114136   2.562   0.596   3.866  1.3849 -0.7230  1.3152
 4724TIP3    H214137   2.670   0.662   3.783 -0.7466  1.2132 -0.0400
 4725TIP3   OH214138   5.792   4.597   1.210  0.3735  0.7899 -0.3551
 4725TIP3    H114139   5.737   4.530   1.252  1.3947  0.4429  0.4775
 4725TIP3    H214140   5.749   4.680   1.231  0.1597  0.5253  0.2751
 4726TIP3   OH214141   0.034   5.076   0.788 -0.0217 -0.3498  0.4173
 4726TIP3    H114142  -0.006   5.041   0.867 -1.0394 -2.8629 -1.0623
 4726TIP3    H214143   0.018   5.008   0.722  0.2191  1.8883 -2.0985
 4727TIP3   OH214144   2.957   2.383   5.633 -0.0948 -0.0486 -0.0568
 4727TIP3    H114145   2.978   2.304   5.682 -0.0213  0.0905  0.1374
 4727TIP3    H214146   2.891   2.428   5.686 -0.8278 -0.4356 -0.6146
 4728TIP3   OH214147   6.886   1.011   3.600 -0.2104  0.7092  0.0906
 4728TIP3    H114148   6.974   1.038   3.571 -0.3941  0.8831 -0.3138
 4728TIP3    H214149   6.874   0.924   3.562  0.0079  0.4445  0.6151
 4729TIP3   OH214150   4.712   4.654   4.148  0.3161 -0.0567  0.0405
 4729TIP3    H114151   4.792   4.627   4.193  0.9895  0.9755 -0.5144
 4729TIP3    H214152   4.645   4.651   4.217  1.4162  1.9787  1.2976
 4730TIP3   OH214153   4.655   2.550   4.034  0.5464 -0.0514  0.1201
 4730TIP3    H114154   4.637   2.629   3.982  1.9415 -0.0450 -0.3913
 4730TIP3    H214155   4.708   2.495   3.976 -0.8591 -1.6528  0.2463
 4731TIP3   OH214156   0.444   2.313   3.204  0.1573  0.3250 -0.0286
 4731TIP3    H114157   0.489   2.385   3.247  0.8409  1.2496 -2.1436
 4731TIP3    H214158   0.473   2.235   3.250  1.0379  1.2276  0.9853
 4732TIP3   OH214159   0.867   0.733   2.237 -0.0293 -0.8236  0.2867
 4732TIP3    H114160   0.887   0.640   2.222  1.9446 -0.3049 -0.6545
 4732TIP3    H214161   0.837   0.764   2.151  0.7543 -0.2868  0.1927
 4733TIP3   OH214162   2.331   1.996   0.302 -0.1839  0.3912  0.6956
 4733TIP3    H114163   2.351   1.902   0.305  1.0007  0.6120  0.2315
 4733TIP3    H214164   2.251   2.005   0.353 -0.6862 -0.9724  0.1911
 4734TIP3   OH214165   5.265   4.095   0.628 -0.3786 -0.4338 -0.1637
 4734TIP3    H114166   5.295   4.078   0.539 -1.0803 -0.8992 -0.3148
 4734TIP3    H214167   5.336   4.060   0.683 -0.6332 -1.5635 -0.5173
 4735TIP3   OH214168   4.860   5.185   2.781 -0.3839  0.3557 -0.3301
 4735TIP3    H114169   4.769   5.214   2.773 -0.4269  0.1334 -0.6633
 4735TIP3    H214170   4.895   5.236   2.854 -0.9924 -0.0949  0.2988
 4736TIP3   OH214171   2.796   6.413   0.512 -0.5252  0.5019 -0.1864
 4736TIP3    H114172   2.815   6.357   0.587 -1.4111 -0.8403 -0.9122
 4736TIP3    H214173   2.711   6.452   0.532 -0.4689  0.6414 -0.2179
 4737TIP3   OH214174   6.238   2.897   1.909 -0.3174 -0.4935  0.4731
 4737TIP3    H114175   6.195   2.855   1.835 -0.0420 -2.7589  1.4965
 4737TIP3    H214176   6.272   2.979   1.874 -0.7797 -1.1658 -1.7199
 4738TIP3   OH214177   3.187   6.292   2.853  0.5729  0.3135  0.5684
 4738TIP3    H114178   3.134   6.227   2.901 -1.5014  1.5043  0.0056
 4738TIP3    H214179   3.192   6.367   2.912 -0.6073  1.1759 -0.3901
 4739TIP3   OH214180   1.112   0.881   1.812  0.5567 -0.6357 -0.0350
 4739TIP3    H114181   1.100   0.809   1.874  0.7330 -1.4551 -0.9264
 4739TIP3    H214182   1.099   0.960   1.865 -1.1766 -1.3269  0.6563
 4740TIP3   OH214183   1.086   5.106   4.880  0.0885 -0.3164  0.0409
 4740TIP3    H114184   1.009   5.101   4.936 -1.2873  0.9328 -1.6647
 4740TIP3    H214185   1.157   5.133   4.939 -1.1165  0.1217  1.3290
 4741TIP3   OH214186   7.071   6.283   4.171 -0.0955 -0.4294  0.9037
 4741TIP3    H114187   7.077   6.378   4.169 -0.7981 -0.3875  0.4063
 4741TIP3    H214188   7.160   6.253   4.188  0.0599  0.3266  1.4688
 4742TIP3   OH214189   5.807   6.790   1.794 -0.0815  0.1908  0.1128
 4742TIP3    H114190   5.785   6.791   1.887 -2.3928 -0.4576 -0.3591
 4742TIP3    H214191   5.760   6.713   1.759  0.6130  0.5044 -1.6035
 4743TIP3   OH214192   0.219   5.168   2.223 -0.6629  0.0711 -0.5278
 4743TIP3    H114193   0.138   5.216   2.243 -0.7161 -0.5737  0.9082
 4743TIP3    H214194   0.210   5.086   2.271  1.6693  0.7666  1.2501
 4744TIP3   OH214195   2.095   2.658   0.045  0.2525  0.3322  0.6803
 4744TIP3    H114196   2.070   2.751   0.039  0.0466  0.3702  1.9715
 4744TIP3    H214197   2.178   2.653  -0.003 -0.6267  0.8040 -0.9863
 4745TIP3   OH214198   1.465   0.328   1.196  0.6143 -0.3201 -0.3308
 4745TIP3    H114199   1.430   0.316   1.108 -0.4438 -0.0596  0.0452
 4745TIP3    H214200   1.427   0.257   1.248 -0.8877  1.0298  0.5039
 4746TIP3   OH214201   2.789   4.218   5.304  0.0054  0.1196  0.4205
 4746TIP3    H114202   2.798   4.310   5.330  0.3570 -0.0678  1.0005
 4746TIP3    H214203   2.866   4.201   5.249 -1.4859  0.9132 -2.0297
 4747TIP3   OH214204   6.103   0.479   3.750 -0.0687 -0.2689 -0.0577
 4747TIP3    H114205   6.032   0.505   3.808  1.4926 -0.1712  1.9400
 4747TIP3    H214206   6.108   0.384   3.758  1.6891 -0.0695  1.9953
 4748TIP3   OH214207   4.155   2.865   1.701  0.1522 -0.6799  0.5430
 4748TIP3    H114208   4.101   2.944   1.693  0.4078 -0.3227  2.0977
 4748TIP3    H214209   4.196   2.872   1.787  1.7298 -1.5448 -0.0860
 4749TIP3   OH214210   3.081   2.779   2.322  0.0088  0.0897  0.1928
 4749TIP3    H114211   3.056   2.767   2.231  2.5277 -0.3841 -0.5153
 4749TIP3    H214212   3.141   2.854   2.321 -0.8356  0.8384  1.6685
 4750TIP3   OH214213   0.172   5.778   3.185 -0.0091 -0.1495 -0.0869
 4750TIP3    H114214   0.231   5.735   3.247 -1.8396 -0.9274  1.2135
 4750TIP3    H214215   0.138   5.706   3.131 -0.6893  0.0923  0.0047
 4751TIP3   OH214216   3.254   2.399   4.609  0.6137  0.0146  0.2570
 4751TIP3    H114217   3.193   2.461   4.569  1.1956  0.7405  0.4937
 4751TIP3    H214218   3.198   2.325   4.633 -0.2767  0.8752  0.9278
 4752TIP3   OH214219   3.378   4.869   2.174 -0.0652  0.2813  0.1465
 4752TIP3    H114220   3.369   4.794   2.116  1.6088 -1.0352  1.4775
 4752TIP3    H214221   3.328   4.845   2.252  1.0040  0.2440  0.8351
 4753TIP3   OH214222   4.820   4.082   5.784 -0.0462  0.0171 -0.7629
 4753TIP3    H114223   4.851   4.172   5.768  1.3061 -0.7380 -2.8469
 4753TIP3    H214224   4.890   4.041   5.835 -0.3512 -0.0390 -0.3907
 4754TIP3   OH214225   3.839   1.274   1.748 -0.0675 -0.1752 -0.4744
 4754TIP3    H114226   3.828   1.179   1.753 -1.2064 -0.0807 -0.9446
 4754TIP3    H214227   3.870   1.290   1.659 -0.8116 -0.0381 -0.7180
 4755TIP3   OH214228   5.777   1.266   0.675 -0.0177  0.0440 -0.0527
 4755TIP3    H114229   5.859   1.277   0.627  1.7896 -1.2063  2.5080
 4755TIP3    H214230   5.756   1.173   0.666 -0.7865  0.2150 -0.1071
 4756TIP3   OH214231   1.202   5.472   3.724  0.4080 -0.1700 -0.3198
 4756TIP3    H114232   1.291   5.499   3.703  1.1791 -2.1663  0.2245
 4756TIP3    H214233   1.178   5.524   3.801  1.3090 -0.0388 -0.1246
 4757TIP3   OH214234   0.156   5.316   0.841 -0.0490 -0.0502  0.2135
 4757TIP3    H114235   0.099   5.241   0.821 -2.1221  1.6474 -0.6206
 4757TIP3    H214236   0.117   5.354   0.920  0.5369  0.5664  0.2066
 4758TIP3   OH214237   6.389   0.723   0.410  0.1860 -0.3278 -0.2856
 4758TIP3    H114238   6.315   0.731   0.349 -0.3106 -2.9715 -0.1456
 4758TIP3    H214239   6.457   0.679   0.359  0.4202 -0.9692  0.5756
 4759TIP3   OH214240   6.544   1.737   1.974  0.0786  0.3529 -0.3719
 4759TIP3    H114241   6.479   1.675   2.005  0.7162 -0.1256  0.0136
 4759TIP3    H214242   6.496   1.791   1.909 -0.3197 -0.9102 -1.1597
 4760TIP3   OH214243   5.305   6.730   4.559 -0.0081 -0.1697 -0.0363
 4760TIP3    H114244   5.400   6.732   4.556  0.0530 -1.8205 -2.4556
 4760TIP3    H214245   5.280   6.661   4.498 -2.8087  1.7397 -1.3231
 4761TIP3   OH214246   0.190   3.153   0.496  1.0632  0.4037  0.0874
 4761TIP3    H114247   0.240   3.098   0.436  0.2098 -1.9756  1.4299
 4761TIP3    H214248   0.189   3.239   0.454 -0.1523 -1.2544 -3.7194
 4762TIP3   OH214249   6.267   4.920   5.778  0.4607 -0.1325  0.0979
 4762TIP3    H114250   6.179   4.882   5.790  0.3199  0.1861  0.0775
 4762TIP3    H214251   6.279   4.976   5.855  0.2815  0.5223 -0.3514
 4763TIP3   OH214252   3.825   6.536   0.678 -0.6227  0.1795 -0.0984
 4763TIP3    H114253   3.862   6.546   0.590  0.1366 -0.1963  0.1705
 4763TIP3    H214254   3.858   6.611   0.727 -1.4221  0.6443 -0.2440
 4764TIP3   OH214255   5.569   6.340   0.256  0.3642 -0.1641 -0.0787
 4764TIP3    H114256   5.511   6.271   0.287  1.2394 -0.2629  1.4525
 4764TIP3    H214257   5.599   6.384   0.335  1.8673  0.3010 -0.8597
 4765TIP3   OH214258   0.955   0.952   5.857 -0.2546 -0.9934  0.0813
 4765TIP3    H114259   0.920   0.872   5.817  1.1644 -1.3657 -0.4597
 4765TIP3    H214260   1.015   0.987   5.792 -2.7087  1.9780 -0.8238
 4766TIP3   OH214261   2.309   2.657   1.738  0.0405  0.0656 -0.2994
 4766TIP3    H114262   2.333   2.702   1.819  0.8944 -0.3625 -0.3084
 4766TIP3    H214263   2.301   2.727   1.673 -2.4620  0.6549  0.5074
 4767TIP3   OH214264   2.504   2.687   3.421 -0.2038 -0.1049 -0.2167
 4767TIP3    H114265   2.484   2.612   3.365  0.1433 -0.8772  0.6557
 4767TIP3    H214266   2.518   2.649   3.508  1.4703  0.7803 -0.0392
 4768TIP3   OH214267   0.734   5.372   5.136 -0.1263 -0.2226 -0.0911
 4768TIP3    H114268   0.775   5.333   5.058  1.5488 -0.2628  0.7542
 4768TIP3    H214269   0.768   5.461   5.138  0.5664 -0.4868  1.0483
 4769TIP3   OH214270   3.428   1.660   5.386 -0.4847 -0.1184  0.0625
 4769TIP3    H114271   3.360   1.653   5.319 -2.2767 -0.2203  1.7782
 4769TIP3    H214272   3.440   1.754   5.398 -0.2294 -0.1000 -0.3261
 4770TIP3   OH214273   5.405   3.297   2.490 -0.1386  0.3861  0.0092
 4770TIP3    H114274   5.396   3.218   2.544  0.2316  1.4950  1.7958
 4770TIP3    H214275   5.324   3.301   2.439 -0.0206 -1.3041 -0.3572
 4771TIP3   OH214276   1.437   6.798   0.356  0.2594  0.1554 -0.5716
 4771TIP3    H114277   1.438   6.721   0.414  1.2236  1.6760  1.5479
 4771TIP3    H214278   1.525   6.800   0.318 -0.0727 -0.3076 -1.3826
 4772TIP3   OH214279   5.644   4.907   2.778  0.4356 -0.5899  0.3484
 4772TIP3    H114280   5.736   4.936   2.779 -0.0322  0.9748  1.2029
 4772TIP3    H214281   5.630   4.877   2.689  1.6909 -0.5185  0.1003
 4773TIP3   OH214282   5.750   2.139   1.342  0.0670 -0.1962 -0.1137
 4773TIP3    H114283   5.756   2.049   1.371 -0.4523 -0.3403 -0.4455
 4773TIP3    H214284   5.658   2.151   1.318 -0.0549  0.6726  0.7305
 4774TIP3   OH214285   6.831   6.214   5.135 -0.3776  0.3875  0.0984
 4774TIP3    H114286   6.868   6.196   5.221 -1.2540  0.8158  0.5867
 4774TIP3    H214287   6.738   6.192   5.143 -0.8706  2.1720 -0.1498
 4775TIP3   OH214288   2.178   0.305   0.527  0.1185 -0.0484 -0.0965
 4775TIP3    H114289   2.204   0.248   0.600 -1.2618 -1.0664 -0.3451
 4775TIP3    H214290   2.184   0.394   0.562 -0.9290 -0.5394  1.4068
 4776TIP3   OH214291   2.210   0.811   2.276  0.0046 -0.3025  0.0285
 4776TIP3    H114292   2.137   0.769   2.229 -0.0080 -0.3603  0.1007
 4776TIP3    H214293   2.174   0.895   2.304 -0.3782 -0.7798  1.0045
 4777TIP3   OH214294   5.920   2.819   2.023  0.1732  0.4480 -0.1593
 4777TIP3    H114295   5.894   2.738   1.980 -1.6070  1.3104 -0.8209
 4777TIP3    H214296   5.975   2.791   2.096  1.5210 -1.1859 -1.7123
 4778TIP3   OH214297   5.358   4.319   1.482  0.1584  0.2578  0.0923
 4778TIP3    H114298   5.414   4.262   1.534  0.1182 -0.5879 -0.7529
 4778TIP3    H214299   5.333   4.265   1.407 -0.0840  1.3104 -0.6073
 4779TIP3   OH214300   3.636   4.911   5.037 -0.0312  0.4335 -0.0370
 4779TIP3    H114301   3.551   4.866   5.027 -0.1378  0.2842  1.3394
 4779TIP3    H214302   3.643   4.966   4.959 -0.9698 -0.2511 -0.6299
 4780TIP3   OH214303   3.231   6.768   5.701 -0.0943 -0.4523 -0.1275
 4780TIP3    H114304   3.165   6.814   5.753  0.7943  1.3931 -0.5521
 4780TIP3    H214305   3.180   6.716   5.639 -1.1415 -0.1348  0.4329
 4781TIP3   OH214306   5.350   5.864   0.967  0.2313 -0.1963 -0.4444
 4781TIP3    H114307   5.316   5.836   0.882  2.3198 -2.0328 -0.7757
 4781TIP3    H214308   5.407   5.938   0.947 -1.3893  1.1584 -0.2308
 4782TIP3   OH214309   6.246   5.548   2.756  0.3606 -0.5062 -0.1721
 4782TIP3    H114310   6.317   5.561   2.694  1.0371  0.8461  0.8243
 4782TIP3    H214311   6.252   5.623   2.815 -2.0555 -0.2046 -0.1970
 4783TIP3   OH214312   4.786   1.571   3.212  0.7230 -0.1325  0.8205
 4783TIP3    H114313   4.695   1.541   3.218  0.2619  0.8528 -0.7009
 4783TIP3    H214314   4.780   1.657   3.170  2.3017  0.3750  1.5696
 4784TIP3   OH214315   4.219   4.931   3.763 -0.2133 -0.0195  0.1753
 4784TIP3    H114316   4.265   4.849   3.746  0.7499  0.6282 -0.4679
 4784TIP3    H214317   4.207   4.933   3.858  1.1324 -0.2020  0.3679
 4785TIP3   OH214318   4.099   6.772   3.305 -0.3224 -0.2296  0.1742
 4785TIP3    H114319   4.135   6.684   3.322  2.6154  1.0972  1.6339
 4785TIP3    H214320   4.164   6.814   3.248 -1.3997  1.1853 -0.0656
 4786TIP3   OH214321   1.757   1.357   0.093 -0.2167  0.5021  0.5117
 4786TIP3    H114322   1.676   1.377   0.047 -0.1439 -0.2402  0.0233
 4786TIP3    H214323   1.732   1.345   0.184 -1.0748 -1.9225  0.0263
 4787TIP3   OH214324   0.022   1.347   4.568  0.5829 -0.0847 -0.0937
 4787TIP3    H114325   0.088   1.412   4.542  1.8428 -1.9797 -1.9275
 4787TIP3    H214326   0.064   1.299   4.640  0.9805 -0.9062 -0.8641
 4788TIP3   OH214327   2.026   2.231   4.351 -0.0689  0.1544  0.1861
 4788TIP3    H114328   2.048   2.314   4.309  2.0419 -0.9797 -1.1056
 4788TIP3    H214329   2.056   2.164   4.290 -0.7130 -1.5818  1.6785
 4789TIP3   OH214330   1.665   6.218   5.261 -0.3676 -0.6299 -0.3893
 4789TIP3    H114331   1.672   6.312   5.275  1.3442 -0.8365  0.3350
 4789TIP3    H214332   1.728   6.199   5.192  0.5214 -1.4551  0.6058
 4790TIP3   OH214333   5.961   1.015   0.001  0.1108 -0.0332  0.4947
 4790TIP3    H114334   5.869   1.037   0.012 -0.0294 -0.7450  0.7798
 4790TIP3    H214335   5.963   0.920  -0.004  0.8853 -0.0607  1.1035
 4791TIP3   OH214336   5.989   6.664   3.461 -0.4581 -0.8838 -0.1064
 4791TIP3    H114337   5.911   6.700   3.418  0.9803 -0.2072 -2.3461
 4791TIP3    H214338   6.040   6.741   3.485 -0.4166 -1.3252  1.2718
 4792TIP3   OH214339   0.490   4.735   5.227  0.6288  0.0020  0.2254
 4792TIP3    H114340   0.433   4.699   5.295  1.8981 -0.6194  0.9998
 4792TIP3    H214341   0.501   4.827   5.252 -0.6553  0.3461 -0.3874
 4793TIP3   OH214342   3.294   5.106   3.132 -0.4886  0.3515 -0.1650
 4793TIP3    H114343   3.245   5.162   3.072  0.4270  2.2561  0.8093
 4793TIP3    H214344   3.262   5.129   3.219 -0.6441 -1.2323  0.2299
 4794TIP3   OH214345   1.070   1.215   1.360 -0.5965 -0.1248  0.2890
 4794TIP3    H114346   0.983   1.206   1.322 -1.5425 -2.4598  2.7165
 4794TIP3    H214347   1.117   1.137   1.332  0.7449  1.0063 -0.8220
 4795TIP3   OH214348   6.147   5.118   5.154 -0.0255 -0.1110  0.0736
 4795TIP3    H114349   6.130   5.059   5.081  1.0709 -1.5857  0.9728
 4795TIP3    H214350   6.234   5.154   5.137 -0.3752  0.7003 -0.0770
 4796TIP3   OH214351   4.261   4.969   0.181  0.3151 -0.4448 -0.0947
 4796TIP3    H114352   4.206   4.915   0.123 -0.1206  0.6510 -0.7184
 4796TIP3    H214353   4.220   4.961   0.267  0.2478 -1.0886 -0.1803
 4797TIP3   OH214354   6.888   5.896   4.649 -0.1751  0.8442 -0.0468
 4797TIP3    H114355   6.829   5.829   4.613 -0.4478  0.8001  0.4701
 4797TIP3    H214356   6.871   5.894   4.744 -0.1265  1.5866 -0.0154
 4798TIP3   OH214357   0.405   3.554   5.076  0.2269  0.2155  0.2282
 4798TIP3    H114358   0.363   3.619   5.019 -0.0956 -1.0345 -1.0205
 4798TIP3    H214359   0.332   3.509   5.119  0.2583 -1.2673 -1.1666
 4799TIP3   OH214360   0.293   2.894   1.184 -0.4217  0.9676 -0.1894
 4799TIP3    H114361   0.362   2.874   1.122 -0.0441  1.3134  0.1102
 4799TIP3    H214362   0.330   2.963   1.240 -0.6141  0.4009  0.6558
 4800TIP3   OH214363   2.267   6.110   5.175  0.2610  0.2033  0.4831
 4800TIP3    H114364   2.289   6.137   5.264 -1.8713 -2.8181  2.1042
 4800TIP3    H214365   2.179   6.073   5.182 -0.7688  1.4820 -3.2964
 4801TIP3   OH214366   5.064   4.562   3.838  0.1987  0.0617  0.2527
 4801TIP3    H114367   5.086   4.497   3.771  0.5844  0.2687  0.1785
 4801TIP3    H214368   5.053   4.511   3.918  0.4502 -0.1031  0.1836
 4802TIP3   OH214369   5.964   1.261   0.272  0.0661  0.2353  0.3702
 4802TIP3    H114370   5.940   1.293   0.359 -1.3141 -0.9338  0.4710
 4802TIP3    H214371   5.886   1.214   0.242  1.3759 -1.5694 -0.4286
 4803TIP3   OH214372   3.463   1.124   5.329  0.4889 -0.1182  0.8323
 4803TIP3    H114373   3.369   1.136   5.311  0.6843  0.1815 -0.0385
 4803TIP3    H214374   3.474   1.030   5.338  0.5272 -0.4184 -1.6860
 4804TIP3   OH214375   1.674   1.487   3.908  0.7319 -0.0729  0.2569
 4804TIP3    H114376   1.618   1.414   3.933  0.7998  0.4494  2.0412
 4804TIP3    H214377   1.742   1.448   3.853 -1.1734 -0.7636 -1.7455
 4805TIP3   OH214378   1.257   2.994   5.210  0.5151  0.1330  0.4557
 4805TIP3    H114379   1.320   2.990   5.138  0.4337  2.5318  0.1823
 4805TIP3    H214380   1.286   3.068   5.263 -2.1813  1.5141  0.1614
 4806TIP3   OH214381   2.744   2.302   4.339 -0.3688 -0.5526 -0.3570
 4806TIP3    H114382   2.655   2.339   4.342 -0.4788 -0.8215 -0.2524
 4806TIP3    H214383   2.762   2.290   4.246 -0.7005 -1.1112 -0.3510
 4807TIP3   OH214384   4.135   3.556   0.805 -0.0128 -0.1332 -0.0546
 4807TIP3    H114385   4.220   3.527   0.772  0.0480 -0.5128  0.4258
 4807TIP3    H214386   4.155   3.618   0.875 -0.1410  1.1748 -1.1290
 4808TIP3   OH214387   1.292   6.664   4.055  0.0883 -0.0122 -0.2200
 4808TIP3    H114388   1.224   6.596   4.059 -0.4945  0.5759  0.0225
 4808TIP3    H214389   1.275   6.710   3.973 -0.5553  0.8976  0.4114
 4809TIP3   OH214390   3.413   3.107   2.814  0.2959 -0.1569  0.5511
 4809TIP3    H114391   3.468   3.092   2.737  0.7685  0.4957  0.7509
 4809TIP3    H214392   3.329   3.068   2.792  0.3140  0.3408 -0.4384
 4810TIP3   OH214393   6.486   1.566   1.578  0.6514  0.2094  0.3434
 4810TIP3    H114394   6.502   1.475   1.604 -1.5914 -0.7443 -1.2620
 4810TIP3    H214395   6.546   1.617   1.632 -0.0863 -1.9498  3.5404
 4811TIP3   OH214396   1.598   3.680   0.273 -0.1433  0.4428 -0.2352
 4811TIP3    H114397   1.597   3.774   0.252  3.0922  0.5344 -0.4450
 4811TIP3    H214398   1.611   3.637   0.189 -0.8404 -0.1598 -0.0397
 4812TIP3   OH214399   4.892   0.782   5.252  0.2987  0.4633  0.4925
 4812TIP3    H114400   4.985   0.774   5.229  0.0431  0.4291 -0.6117
 4812TIP3    H214401   4.892   0.807   5.344  1.4210  1.2642  0.2952
 4813TIP3   OH214402   5.326   5.343   1.180  0.6874 -0.5221  0.5986
 4813TIP3    H114403   5.322   5.436   1.159  0.1392 -0.6611  0.0457
 4813TIP3    H214404   5.411   5.314   1.145  0.4309 -0.4316 -0.1238
 4814TIP3   OH214405   0.351   0.601   4.690 -0.5047 -0.3542  0.1196
 4814TIP3    H114406   0.370   0.595   4.784  0.3015  1.9817  0.1574
 4814TIP3    H214407   0.297   0.680   4.681 -0.8115 -0.7019 -1.3584
 4815TIP3   OH214408   4.906   0.304   2.966  0.5867 -0.4700 -0.3045
 4815TIP3    H114409   4.827   0.294   2.913  0.8015  1.3213 -1.0228
 4815TIP3    H214410   4.962   0.230   2.941 -0.2020 -0.8481 -0.9655
 4816TIP3   OH214411   4.849   4.764   4.570 -0.0596 -0.0924  0.1888
 4816TIP3    H114412   4.771   4.714   4.596 -0.0830  0.0336  0.3647
 4816TIP3    H214413   4.823   4.856   4.578  0.7691  0.0126  2.4405
 4817TIP3   OH214414   4.787   0.943   1.704 -0.5490  0.4045  0.2422
 4817TIP3    H114415   4.834   0.950   1.787  0.6082  0.3172 -0.3730
 4817TIP3    H214416   4.797   0.851   1.678 -1.9406  0.1472  0.5809
 4818TIP3   OH214417   0.795   0.751   1.068 -0.0511  0.0946  0.0123
 4818TIP3    H114418   0.717   0.774   1.017  0.7870  1.4911 -0.7169
 4818TIP3    H214419   0.782   0.794   1.153  1.3602  3.3076 -1.2365
 4819TIP3   OH214420   4.149   4.569   5.411 -0.6279 -0.0673 -0.7199
 4819TIP3    H114421   4.105   4.597   5.330 -2.6656 -0.7410  0.0828
 4819TIP3    H214422   4.109   4.621   5.480  0.4295 -0.1575 -0.0103
 4820TIP3   OH214423   3.517   2.162   1.114 -0.3082  0.5851  0.6372
 4820TIP3    H114424   3.493   2.159   1.207  0.7353  2.1316  1.0079
 4820TIP3    H214425   3.608   2.134   1.112 -0.5003 -0.0229 -0.0151
 4821TIP3   OH214426   4.527   5.874   0.096 -0.2326  0.0157  0.6644
 4821TIP3    H114427   4.483   5.942   0.146 -0.6605  0.8583 -0.8083
 4821TIP3    H214428   4.505   5.893   0.005  0.7684 -1.2878  0.1226
 4822TIP3   OH214429   1.920   1.514   2.829  0.4646  0.0966  0.0356
 4822TIP3    H114430   1.903   1.563   2.910 -1.1453 -0.5635  0.1439
 4822TIP3    H214431   1.909   1.579   2.759 -0.2120  0.2387  0.2583
 4823TIP3   OH214432   5.091   3.594   1.010 -0.1641  0.0080 -0.2905
 4823TIP3    H114433   5.086   3.579   0.915 -1.3529  0.9128 -0.4054
 4823TIP3    H214434   5.170   3.548   1.038  0.0661 -0.4940 -1.6795
 4824TIP3   OH214435   5.455   0.290   2.377 -0.0360 -0.4353  0.2766
 4824TIP3    H114436   5.397   0.331   2.313  1.7750  0.2511 -1.0025
 4824TIP3    H214437   5.431   0.198   2.376 -0.8097 -0.2305 -0.5358
 4825TIP3   OH214438   2.958   2.690   1.051 -0.1999 -0.3600  0.5440
 4825TIP3    H114439   3.048   2.718   1.065 -0.6494  1.4710  0.0587
 4825TIP3    H214440   2.943   2.705   0.957 -1.1012 -0.3333  0.6873
 4826TIP3   OH214441   2.533   2.690   2.726  0.1781 -0.0304  0.3036
 4826TIP3    H114442   2.570   2.622   2.670  0.6967  0.2787  0.2611
 4826TIP3    H214443   2.603   2.709   2.790  0.3356  0.9875 -0.1477
 4827TIP3   OH214444   6.253   3.286   4.348 -0.4634  0.1800  0.3997
 4827TIP3    H114445   6.217   3.305   4.262  0.7302  0.6977 -0.0119
 4827TIP3    H214446   6.345   3.265   4.331 -0.7374 -1.9709  1.3046
 4828TIP3   OH214447   3.739   4.144   3.873 -0.7139  0.1144 -0.2476
 4828TIP3    H114448   3.757   4.238   3.875 -0.9146  0.1806 -1.1387
 4828TIP3    H214449   3.719   4.121   3.963 -0.5236  0.9008 -0.0016
 4829TIP3   OH214450   0.857   1.758   0.088 -0.1443 -0.4910 -0.0646
 4829TIP3    H114451   0.945   1.744   0.052 -0.2761  0.1427 -0.6600
 4829TIP3    H214452   0.866   1.740   0.181  0.1499 -2.4674 -0.4283
 4830TIP3   OH214453   1.980   5.717   2.525  0.6258 -0.4836 -0.4455
 4830TIP3    H114454   1.955   5.629   2.498 -0.6615 -0.1518 -0.3813
 4830TIP3    H214455   2.009   5.707   2.616 -1.0456 -0.5982  0.0972
 4831TIP3   OH214456   0.751   0.426   2.938 -0.2553  0.1074 -0.0063
 4831TIP3    H114457   0.676   0.470   2.978 -0.3245 -0.2170  0.2247
 4831TIP3    H214458   0.729   0.422   2.845 -0.1116  0.8277 -0.0800
 4832TIP3   OH214459   1.840   3.065   1.873 -0.5532  0.0250 -0.0746
 4832TIP3    H114460   1.762   3.042   1.924 -0.6060  1.5542  0.5937
 4832TIP3    H214461   1.806   3.116   1.800 -0.1341  1.5747  0.7687
 4833TIP3   OH214462   5.698   0.478   0.477  0.1055  0.1132  0.2136
 4833TIP3    H114463   5.654   0.406   0.522  3.9405 -1.1300  2.4187
 4833TIP3    H214464   5.747   0.437   0.406  0.4212  0.9164 -0.0550
 4834TIP3   OH214465   3.888   4.726   3.897 -0.6691 -0.1240  0.1270
 4834TIP3    H114466   3.902   4.736   3.802  0.6812  0.6774  0.3808
 4834TIP3    H214467   3.902   4.633   3.913  3.1057  0.2789  0.0614
 4835TIP3   OH214468   4.990   0.148   0.240  0.3921 -0.2055  0.0668
 4835TIP3    H114469   5.014   0.065   0.280  0.0357  0.2592  1.2655
 4835TIP3    H214470   4.926   0.125   0.173 -0.7260 -0.7690  1.2957
 4836TIP3   OH214471   0.576   4.954   1.767  0.6593 -0.1860 -0.3293
 4836TIP3    H114472   0.565   5.049   1.766 -1.4330 -0.3792 -0.5398
 4836TIP3    H214473   0.667   4.939   1.740  0.5256  1.6826 -2.0134
 4837TIP3   OH214474   6.220   5.996   0.440 -0.6392 -0.2711 -0.1781
 4837TIP3    H114475   6.134   5.992   0.397 -0.4714 -1.6243 -0.4187
 4837TIP3    H214476   6.225   6.085   0.475 -1.3044  0.4967 -1.9046
 4838TIP3   OH214477   6.507   6.730   4.775  0.4045 -0.5321  0.6825
 4838TIP3    H114478   6.542   6.664   4.835  2.7639 -0.2832 -0.3043
 4838TIP3    H214479   6.583   6.785   4.753 -0.9377  0.9367 -0.5342
 4839TIP3   OH214480   0.448   0.087   5.349  0.8818 -0.0018  0.5217
 4839TIP3    H114481   0.458   0.082   5.254  0.7029  0.7784  0.4556
 4839TIP3    H214482   0.413   0.001   5.374 -0.3243  0.2356 -0.2770
 4840TIP3   OH214483   3.694   1.030   5.073  0.2101 -0.3036  0.4394
 4840TIP3    H114484   3.624   1.095   5.078  2.0399  1.7891  0.4761
 4840TIP3    H214485   3.763   1.073   5.023  1.4461 -2.3454  0.2623
 4841TIP3   OH214486   5.432   0.751   4.686  0.1499  0.1564  0.2283
 4841TIP3    H114487   5.384   0.826   4.651 -0.8976 -0.8587 -0.5579
 4841TIP3    H214488   5.484   0.788   4.758 -0.1754  1.6643 -0.2685
 4842TIP3   OH214489   5.089   2.075   1.176  0.0561  0.3513 -0.3200
 4842TIP3    H114490   5.082   1.980   1.168  1.1726  0.4013 -2.7919
 4842TIP3    H214491   5.119   2.089   1.266  3.0118 -1.9046 -0.7915
 4843TIP3   OH214492   1.473   1.599   5.843 -0.2277  0.3282  0.1987
 4843TIP3    H114493   1.552   1.650   5.829 -1.1092  1.6103 -0.2686
 4843TIP3    H214494   1.461   1.550   5.762  0.8573 -1.0262  0.8060
 4844TIP3   OH214495   2.501   6.058   1.557 -0.1299 -0.0881  0.0974
 4844TIP3    H114496   2.556   6.005   1.615  2.2653  0.4931 -1.4865
 4844TIP3    H214497   2.492   6.142   1.603 -0.6082 -0.5457  0.8490
 4845TIP3   OH214498   2.901   1.402   4.229 -0.2662  0.1244 -0.1645
 4845TIP3    H114499   2.911   1.454   4.149  1.3269  0.9444  0.5184
 4845TIP3    H214500   2.843   1.454   4.284  0.1730  0.5061 -0.0519
 4846TIP3   OH214501   0.573   4.040   4.151 -0.0983  0.2991 -0.2036
 4846TIP3    H114502   0.506   4.082   4.098 -1.6106  0.8547  1.9787
 4846TIP3    H214503   0.649   4.098   4.143  0.1824 -0.3202 -2.6785
 4847TIP3   OH214504   6.235   6.050   2.900 -0.2378  0.2865  0.3522
 4847TIP3    H114505   6.143   6.027   2.888  0.3691 -1.6038 -1.1918
 4847TIP3    H214506   6.282   5.991   2.842  1.9297  1.6156  0.6523
 4848TIP3   OH214507   1.014   3.834   3.225  0.4111  0.7383 -0.0557
 4848TIP3    H114508   1.000   3.864   3.315 -0.1504  0.6218 -0.1019
 4848TIP3    H214509   1.109   3.840   3.212  0.3031  3.1224 -0.2692
 4849TIP3   OH214510   1.484   1.100   0.124  0.5996 -0.3730  0.6742
 4849TIP3    H114511   1.528   1.162   0.182  0.8604  1.5280 -1.4568
 4849TIP3    H214512   1.550   1.033   0.106  1.2521  0.2391  0.7784
 4850TIP3   OH214513   7.095   0.059   4.506  0.7124  0.4920 -0.3371
 4850TIP3    H114514   7.153   0.129   4.476  1.3182  0.2852  0.3491
 4850TIP3    H214515   7.132   0.030   4.589 -0.0177 -0.0714 -0.1968
 4851TIP3   OH214516   6.459   0.026   3.681  0.1422  0.6588 -0.2605
 4851TIP3    H114517   6.395  -0.010   3.619 -0.4583  0.3232  0.5405
 4851TIP3    H214518   6.506   0.092   3.631 -1.3558  1.4660 -0.6477
 4852TIP3   OH214519   1.800   5.085   4.224 -0.0217  0.0767  0.0279
 4852TIP3    H114520   1.716   5.056   4.259  0.4635 -0.5876  0.6885
 4852TIP3    H214521   1.786   5.176   4.199 -0.5928  0.3754  1.3493
 4853TIP3   OH214522   0.631   4.249   3.951 -0.2369  0.3195 -0.6003
 4853TIP3    H114523   0.602   4.307   4.021  1.5514 -0.0985  0.5355
 4853TIP3    H214524   0.686   4.304   3.895 -0.6142  0.3312 -0.9674
 4854TIP3   OH214525   6.176   1.679   2.487  0.3019  0.9162 -0.2576
 4854TIP3    H114526   6.238   1.627   2.539 -1.4825 -1.0693 -0.0144
 4854TIP3    H214527   6.219   1.690   2.402  0.1301 -2.3839 -0.8734
 4855TIP3   OH214528   6.857   1.960   1.748 -0.3134 -0.1976  0.0633
 4855TIP3    H114529   6.867   2.004   1.664  0.1452  0.9042  0.6719
 4855TIP3    H214530   6.786   1.897   1.734 -1.4340  1.1612 -0.6945
 4856TIP3   OH214531   5.409   6.018   0.072 -0.0573 -0.1463  0.0763
 4856TIP3    H114532   5.338   5.954   0.060 -0.2557  0.4574 -2.3271
 4856TIP3    H214533   5.474   5.972   0.125 -1.4359 -1.3331  0.8157
 4857TIP3   OH214534   3.557   1.202   1.590 -0.6464 -0.0977 -0.2495
 4857TIP3    H114535   3.620   1.150   1.540 -0.6581 -0.6695  0.3149
 4857TIP3    H214536   3.543   1.280   1.537  1.3675  0.5651  0.1230
 4858TIP3   OH214537   3.430   5.655   1.361  0.7597 -0.5922 -0.2371
 4858TIP3    H114538   3.494   5.583   1.363  0.5485 -0.9944 -3.2426
 4858TIP3    H214539   3.482   5.733   1.339  0.5583 -0.4366 -0.1692
 4859TIP3   OH214540   1.239   5.249   2.960  0.4599 -0.0946 -0.1146
 4859TIP3    H114541   1.179   5.174   2.962  1.2657 -0.7400  1.4924
 4859TIP3    H214542   1.185   5.323   2.932 -0.5984 -1.0545 -0.6870
 4860TIP3   OH214543   2.979   2.198   5.855  0.4036 -0.8584  0.3395
 4860TIP3    H114544   2.892   2.161   5.847  0.8086 -1.6529 -0.4787
 4860TIP3    H214545   3.001   2.187   5.948  0.0255 -1.5258  0.3517
 4861TIP3   OH214546   1.889   1.101   0.104  0.2218 -0.0280  0.1084
 4861TIP3    H114547   1.862   1.129   0.192 -0.2224  0.4224 -0.1675
 4861TIP3    H214548   1.884   1.180   0.051 -2.1599 -0.7915 -0.9529
 4862TIP3   OH214549   5.964   6.670   1.210 -0.1110 -0.1607  0.1330
 4862TIP3    H114550   5.908   6.746   1.228 -1.0724 -0.1482 -2.4263
 4862TIP3    H214551   5.906   6.595   1.222  0.5874 -0.4797  1.7493
 4863TIP3   OH214552   0.572   5.653   4.282 -0.1060 -0.2158 -0.3574
 4863TIP3    H114553   0.478   5.640   4.292  0.2471 -2.1788  1.0851
 4863TIP3    H214554   0.598   5.699   4.362  0.1816  0.2413 -0.7097
 4864TIP3   OH214555   0.589   1.720   0.366 -0.6462 -0.0065  0.2709
 4864TIP3    H114556   0.631   1.796   0.325 -0.5576 -0.2594 -0.1090
 4864TIP3    H214557   0.551   1.671   0.292 -1.3433  0.0558  0.5744
 4865TIP3   OH214558   0.590   4.182   5.559  0.4281  0.4550 -0.5414
 4865TIP3    H114559   0.650   4.257   5.555  0.8300  0.1592 -0.1271
 4865TIP3    H214560   0.597   4.150   5.649  0.6650 -0.4120 -0.8590
 4866TIP3   OH214561   3.468   3.265   3.452 -0.5450 -0.1816  0.3728
 4866TIP3    H114562   3.546   3.221   3.418 -1.7499  0.3628 -3.6515
 4866TIP3    H214563   3.401   3.197   3.451 -0.6888 -0.0799  1.6249
 4867TIP3   OH214564   1.640   2.169   0.984  0.1568 -0.1100  0.1011
 4867TIP3    H114565   1.620   2.197   0.894 -1.5224 -1.4575  0.0028
 4867TIP3    H214566   1.696   2.092   0.973  2.0598  1.1734  0.3101
 4868TIP3   OH214567   1.118   4.205   2.071 -0.3194 -0.3755 -0.0034
 4868TIP3    H114568   1.160   4.186   2.155  0.1142  0.7455  0.0557
 4868TIP3    H214569   1.136   4.128   2.017  1.5898 -0.0623  0.1144
 4869TIP3   OH214570   3.100   0.508   5.592  0.1289  0.1558  0.1877
 4869TIP3    H114571   3.095   0.434   5.532  1.0691 -1.0551  1.5490
 4869TIP3    H214572   3.109   0.469   5.679 -0.4289  1.8604  1.0618
 4870TIP3   OH214573   5.630   1.545   4.655  0.3066 -0.1319  0.1210
 4870TIP3    H114574   5.656   1.630   4.690 -1.6938  0.8482 -0.5657
 4870TIP3    H214575   5.551   1.523   4.705  1.3376 -2.1161  0.9792
 4871TIP3   OH214576   5.330   4.889   0.874 -0.2690  0.0496  0.2410
 4871TIP3    H114577   5.385   4.866   0.948  1.9880  1.2369 -0.9739
 4871TIP3    H214578   5.355   4.827   0.805 -0.8765  0.2412 -0.1688
 4872TIP3   OH214579   5.024   0.633   4.447 -0.2291  0.8538 -0.4709
 4872TIP3    H114580   4.981   0.646   4.362  0.1144 -1.3734 -1.0462
 4872TIP3    H214581   5.116   0.651   4.430 -0.2157  0.7671 -0.4936
 4873TIP3   OH214582   3.469   5.332   1.167 -0.0993  0.0924 -0.5111
 4873TIP3    H114583   3.375   5.325   1.150 -0.2263 -0.8241  0.4816
 4873TIP3    H214584   3.476   5.338   1.262  0.8067  1.1080 -0.6297
 4874TIP3   OH214585   4.776   0.062   4.431 -0.0682 -0.1902 -0.0550
 4874TIP3    H114586   4.730  -0.022   4.432 -0.0793 -0.3538 -3.2512
 4874TIP3    H214587   4.708   0.127   4.415  0.3918 -0.0914 -1.7737
 4875TIP3   OH214588   2.427   3.406   0.184 -0.5253 -0.2015  0.0361
 4875TIP3    H114589   2.394   3.469   0.120 -1.0220 -0.8703 -0.3808
 4875TIP3    H214590   2.424   3.321   0.139  0.1119 -0.5352  0.5919
 4876TIP3   OH214591   1.516   1.232   1.157 -0.4756  0.3438  0.1024
 4876TIP3    H114592   1.570   1.269   1.227 -0.0458 -0.4483  0.1995
 4876TIP3    H214593   1.563   1.152   1.131  0.0123  1.2202 -1.8923
 4877TIP3   OH214594   3.154   5.624   2.887  0.0309  0.6285  0.2762
 4877TIP3    H114595   3.242   5.640   2.853  0.0782  0.6460  0.4064
 4877TIP3    H214596   3.095   5.654   2.817  0.1296  0.3960  0.0938
 4878TIP3   OH214597   5.033   6.093   5.764  0.1265  0.3898 -0.6985
 4878TIP3    H114598   5.119   6.072   5.798 -0.0945  0.3003 -0.1931
 4878TIP3    H214599   5.046   6.099   5.669  0.9600  1.6792 -0.5320
 4879TIP3   OH214600   0.634   0.968   1.133  0.2535 -0.2046  0.0474
 4879TIP3    H114601   0.594   0.919   1.205  2.4822 -0.5604  1.1157
 4879TIP3    H214602   0.697   1.026   1.176  0.0933  1.1409 -1.4709
 4880TIP3   OH214603   6.464   5.516   4.369  0.2893  0.2968  0.6138
 4880TIP3    H114604   6.406   5.591   4.362 -0.8027 -0.5996 -0.0985
 4880TIP3    H214605   6.465   5.477   4.282  2.6102  0.7258  0.3599
 4881TIP3   OH214606   3.622   4.862   5.867  0.0962 -0.4449 -0.2970
 4881TIP3    H114607   3.645   4.797   5.801 -1.2080 -0.2131 -0.9969
 4881TIP3    H214608   3.658   4.944   5.834 -0.0491 -0.4360 -0.4329
 4882TIP3   OH214609   5.197   2.535   3.008  0.0437 -0.0417 -0.1940
 4882TIP3    H114610   5.114   2.581   3.020  0.1544 -0.1917  1.4554
 4882TIP3    H214611   5.176   2.443   3.024  0.2282 -0.3121 -1.4160
 4883TIP3   OH214612   6.539   6.507   4.962 -0.0995  0.2021 -0.4706
 4883TIP3    H114613   6.515   6.444   4.894  0.8306  0.0758 -0.6917
 4883TIP3    H214614   6.470   6.500   5.027 -1.3438  0.7365 -1.6670
 4884TIP3   OH214615   3.069   6.445   1.354 -0.2031 -0.0569 -0.3066
 4884TIP3    H114616   2.978   6.422   1.335 -0.7750  0.7003  1.3338
 4884TIP3    H214617   3.096   6.382   1.420 -0.2572  0.9976  0.7628
 4885TIP3   OH214618   2.980   0.459   2.376 -0.4599  0.8412  0.0529
 4885TIP3    H114619   2.939   0.482   2.293 -1.8649 -0.7272  0.2542
 4885TIP3    H214620   2.908   0.456   2.439  0.2653  0.0771  0.8922
 4886TIP3   OH214621   0.492   5.909   0.639  0.2324 -0.0106 -0.0637
 4886TIP3    H114622   0.522   5.901   0.548 -0.7873  0.2567 -0.4286
 4886TIP3    H214623   0.401   5.881   0.637  0.5403 -1.2214  1.1144
 4887TIP3   OH214624   0.304   0.684   5.003  0.5009  0.2557  0.2179
 4887TIP3    H114625   0.266   0.738   5.072 -0.5757 -0.5962  0.3217
 4887TIP3    H214626   0.392   0.719   4.991  0.1674  1.3941  0.9513
 4888TIP3   OH214627   2.331   2.117   4.413  0.5869 -0.3283 -0.5537
 4888TIP3    H114628   2.345   2.191   4.354  0.1439  0.0762 -0.1636
 4888TIP3    H214629   2.408   2.116   4.469  0.5883 -0.1460 -0.5508
 4889TIP3   OH214630   0.144   4.533   1.183  0.4131 -0.4253 -0.0307
 4889TIP3    H114631   0.175   4.611   1.137 -0.4023 -0.3307 -0.4475
 4889TIP3    H214632   0.165   4.460   1.124  1.4990 -0.5737  0.5183
 4890TIP3   OH214633   6.215   2.462   3.225 -0.5108  0.5894 -0.4274
 4890TIP3    H114634   6.132   2.454   3.178 -0.3203 -1.7033 -0.4763
 4890TIP3    H214635   6.229   2.376   3.263  1.3282  1.2580  0.4997
 4891TIP3   OH214636   3.685   1.810   4.545 -0.6212 -0.5714 -0.1818
 4891TIP3    H114637   3.656   1.858   4.622  0.3166 -0.6037  0.1986
 4891TIP3    H214638   3.780   1.819   4.544 -0.6405 -0.1919 -1.5821
 4892TIP3   OH214639   6.706   5.265   2.354  0.5783  0.1119  0.4013
 4892TIP3    H114640   6.762   5.308   2.289 -0.1591  2.6764  1.3609
 4892TIP3    H214641   6.741   5.295   2.439 -0.4656 -0.5665  1.0874
 4893TIP3   OH214642   6.109   5.536   5.559 -0.0688 -0.3918  0.1017
 4893TIP3    H114643   6.155   5.452   5.554  1.1472  0.2815 -0.2983
 4893TIP3    H214644   6.096   5.550   5.652 -0.2026 -0.9808  0.1789
 4894TIP3   OH214645   6.905   6.696   2.759 -0.0288 -0.1253  0.1439
 4894TIP3    H114646   6.855   6.733   2.831 -0.5177  0.9676 -0.7208
 4894TIP3    H214647   6.974   6.645   2.801 -0.3153  0.4614  1.3715
 4895TIP3   OH214648   2.260   0.223   3.530 -0.0184 -0.3287  0.3388
 4895TIP3    H114649   2.346   0.222   3.573  0.6538 -1.1692 -0.9654
 4895TIP3    H214650   2.279   0.241   3.438 -1.4006  1.1573  0.3020
 4896TIP3   OH214651   5.100   3.142   5.542 -0.1918  0.0150  0.6341
 4896TIP3    H114652   5.145   3.192   5.611 -2.1747  0.9517  1.3403
 4896TIP3    H214653   5.008   3.139   5.571 -0.5325 -2.2474 -0.4600
 4897TIP3   OH214654   3.568   2.448   1.050  0.4928 -0.0309  0.1271
 4897TIP3    H114655   3.564   2.358   1.081  0.3377 -0.5348 -1.3364
 4897TIP3    H214656   3.651   2.481   1.085  0.3725 -0.6051  0.9867
 4898TIP3   OH214657   1.865   5.948   4.389  0.1090 -0.2813 -0.0810
 4898TIP3    H114658   1.884   5.957   4.482 -1.5259 -1.2734  0.3874
 4898TIP3    H214659   1.857   6.038   4.357  0.4666  0.0630  0.7706
 4899TIP3   OH214660   4.593   3.831   4.704  0.0848  0.2926 -0.7814
 4899TIP3    H114661   4.589   3.910   4.758 -0.8888  0.1916 -0.6910
 4899TIP3    H214662   4.542   3.852   4.626 -0.8153 -0.4724 -0.4274
 4900TIP3   OH214663   6.950   3.570   4.337 -0.0242  0.3681 -0.0645
 4900TIP3    H114664   6.942   3.624   4.258 -0.6570 -1.3868 -1.2555
 4900TIP3    H214665   7.027   3.516   4.321 -0.8946 -0.8984 -0.0640
 4901TIP3   OH214666   5.820   0.059   1.876 -0.1395 -0.2382 -0.0733
 4901TIP3    H114667   5.888   0.119   1.907 -1.1854 -0.0033  1.9376
 4901TIP3    H214668   5.822   0.068   1.780  1.1167  1.4516  0.0602
 4902TIP3   OH214669   0.209   5.547   5.839  0.0311 -0.3620 -0.3446
 4902TIP3    H114670   0.171   5.466   5.873  1.0894 -1.3059 -1.2971
 4902TIP3    H214671   0.300   5.524   5.820 -0.3843  0.1318 -3.5062
 4903TIP3   OH214672   4.106   5.571   0.126 -0.5538 -0.5290 -0.3037
 4903TIP3    H114673   4.037   5.628   0.159  0.4078 -0.2220  1.2683
 4903TIP3    H214674   4.079   5.550   0.037 -1.0664  2.1697 -0.8656
 4904TIP3   OH214675   6.990   0.763   3.831  0.1936  0.3895  0.6196
 4904TIP3    H114676   7.021   0.709   3.903 -0.9729  1.1384  1.7268
 4904TIP3    H214677   7.069   0.796   3.789  0.8919  0.0747  1.6636
 4905TIP3   OH214678   1.894   4.831   2.429  0.1526 -0.2006  0.2346
 4905TIP3    H114679   1.949   4.910   2.433  0.0549 -0.1794  1.6238
 4905TIP3    H214680   1.956   4.759   2.426  0.2388 -0.1132 -0.5599
 4906TIP3   OH214681   2.311   0.315   2.974  0.0365 -0.2130 -0.1797
 4906TIP3    H114682   2.309   0.265   2.893  0.9653 -0.3139 -0.1573
 4906TIP3    H214683   2.232   0.368   2.972  0.4755  0.4381 -1.5754
 4907TIP3   OH214684   6.800   1.538   2.349 -0.4156 -0.8845  0.2621
 4907TIP3    H114685   6.871   1.484   2.386 -0.0683 -0.9055 -0.4167
 4907TIP3    H214686   6.728   1.476   2.337 -0.1940 -1.0915 -0.0260
 4908TIP3   OH214687   5.665   2.049   2.610  0.0517 -0.1614  0.0853
 4908TIP3    H114688   5.757   2.025   2.594  0.1909  0.3157  0.1552
 4908TIP3    H214689   5.615   1.981   2.566  0.4414 -0.0617 -0.5238
 4909TIP3   OH214690   0.320   4.922   2.843  0.0999  0.1008  0.5049
 4909TIP3    H114691   0.299   4.830   2.826 -0.2765  0.0210  1.3895
 4909TIP3    H214692   0.237   4.968   2.827  0.6105  0.4874 -1.2894
 4910TIP3   OH214693   6.933   3.821   5.399 -0.6496  0.3110  0.7819
 4910TIP3    H114694   6.907   3.729   5.401  2.5040 -0.7795 -0.7470
 4910TIP3    H214695   6.992   3.832   5.473 -0.4973  0.9070  0.5858
 4911TIP3   OH214696   0.063   1.601   2.775 -0.3450 -0.3423 -0.5559
 4911TIP3    H114697   0.099   1.594   2.864 -0.6262 -0.6544 -0.4640
 4911TIP3    H214698   0.110   1.535   2.724 -0.9590 -0.9445 -0.3715
 4912TIP3   OH214699   6.912   4.099   3.215  0.1392  0.1613  0.5654
 4912TIP3    H114700   6.974   4.057   3.275  1.6533  0.5063 -0.7129
 4912TIP3    H214701   6.826   4.078   3.252  0.9828 -0.6103  2.2011
 4913TIP3   OH214702   1.225   0.746   3.797  0.1671 -0.5582  0.5631
 4913TIP3    H114703   1.181   0.662   3.795  0.3430 -0.7132  2.0675
 4913TIP3    H214704   1.292   0.739   3.729 -0.2566 -1.3684  0.2098
 4914TIP3   OH214705   5.292   4.379   1.983 -0.1662  0.1394 -0.2876
 4914TIP3    H114706   5.363   4.401   1.923 -0.6610  0.1782 -0.8593
 4914TIP3    H214707   5.314   4.426   2.064  0.9120 -0.5448 -0.1652
 4915TIP3   OH214708   0.828   3.658   3.881  0.1018  0.0670  0.2117
 4915TIP3    H114709   0.756   3.690   3.826  1.6554  2.0893 -0.7947
 4915TIP3    H214710   0.848   3.732   3.939  0.5410 -0.9307  1.3700
 4916TIP3   OH214711   7.045   1.986   5.037  0.1126  0.2167  0.3087
 4916TIP3    H114712   7.076   2.071   5.007  2.1221 -0.3951  0.5446
 4916TIP3    H214713   7.074   1.981   5.128 -0.9289 -0.3056  0.6287
 4917TIP3   OH214714   6.884   2.963   5.109 -0.6345  0.2542  0.6685
 4917TIP3    H114715   6.856   3.005   5.028  0.0971  0.2225  0.3859
 4917TIP3    H214716   6.811   2.976   5.170 -0.7133  1.3320  0.3717
 4918TIP3   OH214717   1.643   3.144   0.282  0.4241 -0.2494  0.6154
 4918TIP3    H114718   1.713   3.204   0.310  1.7474 -1.7517  0.6300
 4918TIP3    H214719   1.652   3.139   0.187 -1.1389  1.2685  0.3304
 4919TIP3   OH214720   1.122   2.868   3.104 -0.1614  0.6416 -0.3867
 4919TIP3    H114721   1.177   2.893   3.030  1.4715  0.6629  0.7963
 4919TIP3    H214722   1.062   2.942   3.116 -0.6648  0.5036 -1.8537
 4920TIP3   OH214723   5.616   2.101   1.728  0.2531  0.2151  0.4754
 4920TIP3    H114724   5.705   2.076   1.702  1.1002  1.2666  2.1454
 4920TIP3    H214725   5.593   2.173   1.669 -0.2420 -1.2077 -1.1311
 4921TIP3   OH214726   0.071   2.263   5.242 -0.0270 -0.2420  0.2345
 4921TIP3    H114727   0.098   2.262   5.151 -1.0033 -0.2847 -0.0653
 4921TIP3    H214728   0.147   2.295   5.290  0.1098  0.9125 -0.7212
 4922TIP3   OH214729   6.843   3.396   0.041 -0.4139  0.1432 -0.0066
 4922TIP3    H114730   6.812   3.484   0.019  1.6784  1.2532  1.1734
 4922TIP3    H214731   6.771   3.355   0.089 -0.2201  2.5857  2.6215
 4923TIP3   OH214732   5.662   3.892   4.760  0.1171 -0.6479  0.0805
 4923TIP3    H114733   5.726   3.882   4.690  0.3907 -1.6277  0.4588
 4923TIP3    H214734   5.578   3.893   4.716  0.3209 -0.6402 -0.3079
 4924TIP3   OH214735   5.911   6.535   4.724 -0.4327 -0.0319 -0.1855
 4924TIP3    H114736   5.867   6.544   4.808  0.8801  1.3734  0.3902
 4924TIP3    H214737   6.003   6.519   4.746 -0.1720 -0.2772 -1.3504
 4925TIP3   OH214738   6.627   4.910   3.358 -0.2349 -0.1762 -0.1955
 4925TIP3    H114739   6.599   4.828   3.316  1.3164 -0.5470 -0.5535
 4925TIP3    H214740   6.618   4.975   3.289 -1.9389  0.0965  0.2257
 4926TIP3   OH214741   3.171   2.346   3.830 -0.0408  0.5743  0.1905
 4926TIP3    H114742   3.227   2.317   3.757 -1.6910  1.8479 -1.6677
 4926TIP3    H214743   3.159   2.267   3.883  0.9224 -0.4927 -1.1042
 4927TIP3   OH214744   6.360   1.774   5.023 -0.6195  0.8270  0.1245
 4927TIP3    H114745   6.304   1.697   5.017  1.5284 -0.8182 -0.4851
 4927TIP3    H214746   6.388   1.776   5.114  0.1064  0.2371 -0.0711
 4928TIP3   OH214747   1.339   3.212   4.794 -0.0142 -0.1778 -0.6452
 4928TIP3    H114748   1.351   3.302   4.823  1.1975  0.0369 -1.7486
 4928TIP3    H214749   1.245   3.196   4.806 -0.3781  1.4557 -1.0629
 4929TIP3   OH214750   0.788   1.811   1.003 -0.0135  0.2994 -0.0966
 4929TIP3    H114751   0.876   1.830   1.035 -0.0780  1.2385 -0.4428
 4929TIP3    H214752   0.801   1.744   0.936  0.1276 -1.6449  1.7576
 4930TIP3   OH214753   3.511   1.458   5.212  0.0397 -0.3918  0.2054
 4930TIP3    H114754   3.519   1.542   5.259  1.4727 -0.0650 -0.5637
 4930TIP3    H214755   3.438   1.413   5.255 -2.0772  2.0294 -0.5697
 4931TIP3   OH214756   5.503   0.008   0.955 -0.6899 -0.5240  0.8824
 4931TIP3    H114757   5.529  -0.020   0.867 -2.8177 -0.0129  0.0449
 4931TIP3    H214758   5.552   0.089   0.970  0.1046 -0.9072  0.4239
 4932TIP3   OH214759   4.557   5.700   2.258 -0.5437 -0.1403  0.3009
 4932TIP3    H114760   4.624   5.697   2.189 -2.0497  3.7138 -1.5985
 4932TIP3    H214761   4.484   5.648   2.224 -0.7597  0.6231 -0.4201
 4933TIP3   OH214762   4.130   0.842   0.982 -0.0697  0.4461 -0.5575
 4933TIP3    H114763   4.087   0.887   0.910 -0.9212  1.0955  0.3290
 4933TIP3    H214764   4.059   0.796   1.028  0.4964 -0.1786 -0.2769
 4934TIP3   OH214765   5.885   6.472   5.450  0.3842  0.0467  0.1952
 4934TIP3    H114766   5.913   6.561   5.431  0.3878 -0.1947 -0.9876
 4934TIP3    H214767   5.814   6.455   5.388  1.6637 -1.4336 -0.9398
 4935TIP3   OH214768   6.766   4.563   0.351 -0.3230  0.2688  0.1135
 4935TIP3    H114769   6.787   4.599   0.265  0.1856 -0.8861 -0.2485
 4935TIP3    H214770   6.671   4.550   0.348 -0.4051  0.8334 -0.0221
 4936TIP3   OH214771   3.669   4.866   3.110 -0.1751 -0.2318  0.9058
 4936TIP3    H114772   3.647   4.798   3.175 -0.9266  0.4838  1.4222
 4936TIP3    H214773   3.699   4.817   3.034 -2.0260 -1.2447  0.7578
 4937TIP3   OH214774   0.230   2.622   0.448 -0.2210 -0.0194 -0.1413
 4937TIP3    H114775   0.216   2.712   0.418  1.5735  0.4885  0.3758
 4937TIP3    H214776   0.325   2.616   0.461 -0.3944 -1.7451  0.6257
 4938TIP3   OH214777   1.607   0.555   4.520  0.0797 -0.1797 -0.0902
 4938TIP3    H114778   1.511   0.563   4.521  0.1606  1.9877 -2.0526
 4938TIP3    H214779   1.629   0.524   4.608 -2.3843 -0.4879  0.4952
 4939TIP3   OH214780   1.285   0.396   5.885  0.4227 -0.4573 -0.5174
 4939TIP3    H114781   1.211   0.336   5.873  0.3915 -0.5197 -0.0557
 4939TIP3    H214782   1.244   0.481   5.903  0.4661 -0.1874 -1.6520
 4940TIP3   OH214783   6.768   3.659   0.007  0.3583 -0.0129  1.6009
 4940TIP3    H114784   6.743   3.746   0.038 -1.4528 -0.8939  2.7949
 4940TIP3    H214785   6.685   3.617  -0.017  1.3994 -0.3995 -1.9147
 4941TIP3   OH214786   6.684   0.216   0.042  0.4486 -0.5452  0.6742
 4941TIP3    H114787   6.612   0.171   0.087  1.5657 -2.0532  1.0319
 4941TIP3    H214788   6.734   0.258   0.113 -0.8620  1.8110  0.3095
 4942TIP3   OH214789   6.311   6.143   2.056 -0.1057 -0.9521  0.1801
 4942TIP3    H114790   6.333   6.223   2.105 -0.7794 -0.9354  0.4713
 4942TIP3    H214791   6.258   6.092   2.117  1.8978 -2.5251  0.7005
 4943TIP3   OH214792   6.949   4.414   4.674 -0.2512 -0.6804 -0.6222
 4943TIP3    H114793   7.042   4.422   4.698 -0.3709 -0.1533 -0.3080
 4943TIP3    H214794   6.914   4.349   4.734  0.0247 -1.2541 -1.0741
 4944TIP3   OH214795   4.039   1.295   5.120  0.6376 -0.1563 -0.5701
 4944TIP3    H114796   4.015   1.382   5.088  1.9093  0.0253 -1.0711
 4944TIP3    H214797   4.016   1.236   5.049  0.0819 -0.1941 -0.3619
 4945TIP3   OH214798   1.823   2.150   0.704  0.1936  0.3507 -0.4318
 4945TIP3    H114799   1.823   2.199   0.621 -0.6854  2.4861  0.7448
 4945TIP3    H214800   1.763   2.077   0.688  0.8649  0.0955 -1.9833
 4946TIP3   OH214801   2.951   1.742   2.155  0.5215  0.0483 -0.3109
 4946TIP3    H114802   2.946   1.756   2.060 -0.8464 -1.4385 -0.4946
 4946TIP3    H214803   2.865   1.770   2.187  0.6802 -0.2466  0.3709
 4947TIP3   OH214804   1.660   3.033   4.212  0.2316  0.5563  0.6580
 4947TIP3    H114805   1.572   3.021   4.176 -0.0177  0.9629  1.1192
 4947TIP3    H214806   1.704   3.089   4.148  0.0282  0.6774  0.6221
 4948TIP3   OH214807   3.062   5.258   0.239  0.1318 -0.8213  0.0843
 4948TIP3    H114808   3.086   5.184   0.294  3.1217  0.9044  1.3595
 4948TIP3    H214809   3.140   5.274   0.186 -1.2067  0.1410 -1.6906
 4949TIP3   OH214810   5.190   3.572   1.602  0.0113  0.1285  0.2102
 4949TIP3    H114811   5.267   3.557   1.547  0.6081 -0.0151  1.0552
 4949TIP3    H214812   5.149   3.487   1.611 -0.5316  0.2899 -0.6333
 4950TIP3   OH214813   5.746   1.026   5.565  0.5811  0.3793  0.0870
 4950TIP3    H114814   5.822   1.013   5.622  0.9120  1.9616  0.0619
 4950TIP3    H214815   5.779   1.014   5.476  0.9844  1.6904  0.0374
 4951TIP3   OH214816   0.359   6.669   2.884 -0.6912  0.4780  0.1676
 4951TIP3    H114817   0.306   6.713   2.950 -0.6816 -0.4708  0.8277
 4951TIP3    H214818   0.406   6.600   2.931 -1.4937 -0.9229 -0.9648
 4952TIP3   OH214819   2.691   2.240   1.503 -0.2322  0.3467 -0.0116
 4952TIP3    H114820   2.640   2.160   1.508 -0.8104  0.6458 -0.8912
 4952TIP3    H214821   2.664   2.281   1.421 -0.5620  1.8630  0.8198
 4953TIP3   OH214822   1.060   0.986   3.773  0.0436 -0.2044 -0.1564
 4953TIP3    H114823   0.987   0.928   3.750 -0.1248  0.0363 -0.2345
 4953TIP3    H214824   1.027   1.074   3.756 -0.2423  0.0290  1.3920
 4954TIP3   OH214825   2.506   1.278   5.179  0.2483  0.0393 -0.6212
 4954TIP3    H114826   2.547   1.259   5.095  2.1478 -2.0131  0.6633
 4954TIP3    H214827   2.524   1.371   5.194  0.6105  0.2236 -2.0903
 4955TIP3   OH214828   2.281   5.445   4.940 -0.3378 -0.0959  0.7830
 4955TIP3    H114829   2.292   5.468   4.848  0.4904 -0.1074  0.8734
 4955TIP3    H214830   2.199   5.396   4.942 -0.5464  0.2047  0.1099
 4956TIP3   OH214831   1.276   4.208   0.073 -0.3913 -0.1730 -0.2365
 4956TIP3    H114832   1.299   4.175   0.160  0.4746  0.5944 -0.1543
 4956TIP3    H214833   1.181   4.219   0.076 -0.2417  1.1245  1.1093
 4957TIP3   OH214834   5.791   4.761   1.462 -0.6806  0.3167  0.7221
 4957TIP3    H114835   5.788   4.669   1.488  1.0865 -0.2656 -0.9178
 4957TIP3    H214836   5.708   4.775   1.415 -1.2252 -0.2413  1.4894
 4958TIP3   OH214837   2.566   3.676   5.218 -0.0954 -0.1813  0.1320
 4958TIP3    H114838   2.486   3.672   5.166  1.0652  0.7392 -1.8457
 4958TIP3    H214839   2.562   3.761   5.261  0.5946  0.6279 -1.3540
 4959TIP3   OH214840   1.596   2.615   4.803 -0.3272 -0.6130 -0.3225
 4959TIP3    H114841   1.591   2.604   4.898  0.5309 -0.4029 -0.2430
 4959TIP3    H214842   1.517   2.664   4.780  1.1300  2.4882  0.7770
 4960TIP3   OH214843   5.070   6.319   0.087 -0.2213 -0.9530 -0.2551
 4960TIP3    H114844   5.032   6.385   0.029  0.0144  1.0030  1.7010
 4960TIP3    H214845   4.995   6.267   0.116 -0.7221 -0.1829 -0.1537
 4961TIP3   OH214846   0.024   1.872   1.566  0.2882 -0.2210  0.0098
 4961TIP3    H114847   0.004   1.780   1.552 -1.9200  0.3206 -0.7962
 4961TIP3    H214848  -0.000   1.889   1.657 -2.0039  0.1501 -0.6200
 4962TIP3   OH214849   5.163   2.422   1.876  0.5768 -0.0980 -0.2637
 4962TIP3    H114850   5.142   2.509   1.841 -0.3426 -0.0196  0.4305
 4962TIP3    H214851   5.143   2.428   1.970  3.0273 -0.2792  0.3543
 4963TIP3   OH214852   4.820   4.959   1.135 -0.0950 -0.9802 -0.1518
 4963TIP3    H114853   4.848   5.042   1.175 -1.1612  0.0810 -1.4960
 4963TIP3    H214854   4.897   4.929   1.087  0.0616 -0.3292 -0.3278
 4964TIP3   OH214855   0.830   5.295   1.257  0.2557  0.4607 -0.3151
 4964TIP3    H114856   0.865   5.358   1.194  2.3160 -0.0063  0.2677
 4964TIP3    H214857   0.758   5.253   1.212  1.1941  0.6705 -2.0898
 4965TIP3   OH214858   3.798   6.099   3.910  0.0114  0.2552 -0.0445
 4965TIP3    H114859   3.714   6.129   3.945  0.3171  0.2390  0.7152
 4965TIP3    H214860   3.775   6.022   3.858 -0.5074  0.5585 -0.2738
 4966TIP3   OH214861   4.616   2.605   3.562 -0.5334  0.0567 -0.0780
 4966TIP3    H114862   4.685   2.633   3.621 -0.9793  0.7280  0.1358
 4966TIP3    H214863   4.645   2.519   3.530  0.6624  0.5765 -0.4444
 4967TIP3   OH214864   6.519   1.246   1.842 -0.0879 -0.3483  0.4445
 4967TIP3    H114865   6.540   1.216   1.753  0.4905  0.2304  0.3724
 4967TIP3    H214866   6.589   1.209   1.896 -1.7805 -2.7582  1.0903
 4968TIP3   OH214867   7.036   3.628   1.961 -0.4600 -0.0828 -0.6396
 4968TIP3    H114868   7.012   3.544   2.000 -2.9837 -0.2917 -2.3673
 4968TIP3    H214869   6.953   3.677   1.955  0.4126  1.3285 -2.3389
 4969TIP3   OH214870   3.724   6.585   1.403 -0.1566 -0.0041  0.2451
 4969TIP3    H114871   3.777   6.558   1.329 -0.7499  0.8019 -0.5027
 4969TIP3    H214872   3.761   6.669   1.430 -1.0138  0.5636 -0.2788
 4970TIP3   OH214873   0.761   3.854   2.766  0.3200 -0.1735 -0.0318
 4970TIP3    H114874   0.779   3.870   2.673  0.2448 -0.2254 -0.0547
 4970TIP3    H214875   0.759   3.758   2.774 -2.9838 -0.2697 -0.6122
 4971TIP3   OH214876   3.240   4.813   3.522  0.6227 -0.2890 -0.6588
 4971TIP3    H114877   3.302   4.770   3.463  0.5828 -1.4761  0.1300
 4971TIP3    H214878   3.292   4.836   3.599  0.9189  2.2178 -1.5220
 4972TIP3   OH214879   4.783   5.746   0.087  0.8380 -0.4229  0.0929
 4972TIP3    H114880   4.697   5.784   0.107  0.3981 -1.4816  0.3091
 4972TIP3    H214881   4.846   5.809   0.121  0.1353 -0.7046  2.0780
 4973TIP3   OH214882   2.644   5.500   0.055  0.1919  0.0529 -0.2828
 4973TIP3    H114883   2.724   5.456   0.085  1.0476  0.7972 -1.3844
 4973TIP3    H214884   2.663   5.525  -0.035 -1.2995  0.2571 -0.5677
 4974TIP3   OH214885   2.125   1.864   4.405  0.4520 -0.1013 -0.4236
 4974TIP3    H114886   2.032   1.846   4.393  0.5659 -0.0688 -1.4966
 4974TIP3    H214887   2.142   1.940   4.350  0.4072  2.1517  2.4729
 4975TIP3   OH214888   1.810   2.739   4.225  0.3319  0.4852 -0.2715
 4975TIP3    H114889   1.761   2.753   4.144 -1.1188  0.2776  0.5250
 4975TIP3    H214890   1.782   2.811   4.282  2.0948  1.2105 -0.2648
 4976TIP3   OH214891   1.255   6.177   2.873 -0.0365 -0.6869 -0.9268
 4976TIP3    H114892   1.211   6.251   2.833 -1.2051 -0.7773  0.1207
 4976TIP3    H214893   1.190   6.107   2.873 -0.1126 -0.6899  1.0751
 4977TIP3   OH214894   2.263   0.802   3.010 -0.6046 -0.2862 -0.0966
 4977TIP3    H114895   2.191   0.856   2.977 -0.5770  0.6142  1.2220
 4977TIP3    H214896   2.313   0.861   3.066 -0.0359 -1.4426  0.6522
 4978TIP3   OH214897   6.653   2.927   3.344  0.3099  0.1358  0.4026
 4978TIP3    H114898   6.727   2.909   3.403 -0.5224 -1.6407  0.9682
 4978TIP3    H214899   6.676   2.883   3.263  0.4320  0.6593  0.1498
 4979TIP3   OH214900   7.197   3.420   5.419  0.2107  0.6165  0.2829
 4979TIP3    H114901   7.217   3.328   5.401 -0.1669  0.5994 -0.0693
 4979TIP3    H214902   7.128   3.442   5.356 -1.1446  0.5624  1.6958
 4980TIP3   OH214903   6.837   5.666   1.198 -0.2960  0.4601  0.0237
 4980TIP3    H114904   6.821   5.575   1.222  1.5380  0.2084  0.4047
 4980TIP3    H214905   6.750   5.704   1.188 -1.1592 -0.5373  2.8696
 4981TIP3   OH214906   0.099   4.513   3.981  0.2000 -0.1014  0.1189
 4981TIP3    H114907   0.150   4.593   3.969  0.7762 -0.3746  0.6758
 4981TIP3    H214908   0.160   4.452   4.022 -0.5451 -0.4717  0.6976
 4982TIP3   OH214909   5.053   5.748   5.778  0.5969 -0.2588  0.4779
 4982TIP3    H114910   5.044   5.758   5.872 -1.0704 -2.2556  0.5930
 4982TIP3    H214911   5.005   5.822   5.741  0.3405 -0.0630  1.1973
 4983TIP3   OH214912   5.042   2.976   4.139  0.1041 -0.8868  0.0376
 4983TIP3    H114913   5.000   3.044   4.192 -0.4548  0.3761 -1.9137
 4983TIP3    H214914   4.980   2.904   4.139  0.8799 -1.6588  2.4708
 4984TIP3   OH214915   3.884   5.695   1.345  0.3300  0.7801 -0.0963
 4984TIP3    H114916   3.806   5.646   1.371  1.4939 -0.2844  1.5809
 4984TIP3    H214917   3.895   5.760   1.414  2.5131 -0.9633  1.3143
 4985TIP3   OH214918   5.850   6.757   5.360  0.5354  0.0540  0.5675
 4985TIP3    H114919   5.780   6.797   5.412  1.7943  0.8815  1.6996
 4985TIP3    H214920   5.821   6.765   5.269 -1.7293 -1.4048  1.0635
 4986TIP3   OH214921   6.253   4.241   5.549  0.1292 -0.0722 -0.3800
 4986TIP3    H114922   6.228   4.260   5.639  0.0356 -1.7954 -0.0027
 4986TIP3    H214923   6.326   4.179   5.557 -0.2750 -0.7213 -1.4712
 4987TIP3   OH214924   0.831   2.772   3.058  0.3131 -0.4889  0.2298
 4987TIP3    H114925   0.922   2.782   3.031 -0.1752  1.8031 -0.8048
 4987TIP3    H214926   0.820   2.833   3.130 -0.1348 -1.6613  1.1932
 4988TIP3   OH214927   5.649   0.701   5.362 -0.0513 -0.2575  0.7168
 4988TIP3    H114928   5.645   0.649   5.443 -0.6926  0.0544  0.8921
 4988TIP3    H214929   5.592   0.654   5.301 -0.7081  0.2788  0.9052
 4989TIP3   OH214930   3.581   0.953   0.785 -0.4952 -0.3321 -0.1525
 4989TIP3    H114931   3.566   0.880   0.725 -1.3565 -1.0653  0.9046
 4989TIP3    H214932   3.529   0.932   0.862 -0.4246  1.2106  0.3574
 4990TIP3   OH214933   6.319   6.385   5.151 -0.1345  0.2164  0.2664
 4990TIP3    H114934   6.265   6.343   5.219  0.9343 -0.2432  0.8502
 4990TIP3    H214935   6.316   6.478   5.173 -1.9723  0.4377 -0.6487
 4991TIP3   OH214936   1.520   5.103   4.281  0.4887  0.3543 -0.2431
 4991TIP3    H114937   1.451   5.060   4.332  0.2031  0.1179 -0.8241
 4991TIP3    H214938   1.506   5.196   4.296  1.8024  0.2777  1.9419
 4992TIP3   OH214939   1.526   1.845   3.627  0.1686 -0.6706  0.3470
 4992TIP3    H114940   1.574   1.788   3.686 -0.8162 -0.5965  1.2530
 4992TIP3    H214941   1.440   1.804   3.618 -1.1534  1.3955  2.2983
 4993TIP3   OH214942   2.710   4.720   0.260 -0.4004 -0.1377 -0.6001
 4993TIP3    H114943   2.792   4.696   0.217 -1.0163 -1.5664 -1.0384
 4993TIP3    H214944   2.652   4.646   0.244 -1.3720  0.2802  0.8024
 4994TIP3   OH214945   5.497   2.826   2.486 -0.1077  0.2596 -0.1535
 4994TIP3    H114946   5.486   2.732   2.471  1.4398  0.2550 -1.5353
 4994TIP3    H214947   5.572   2.850   2.432 -1.8958  2.7721 -1.7782
 4995TIP3   OH214948   7.104   4.315   3.777 -0.0643  0.1544 -0.0556
 4995TIP3    H114949   7.071   4.405   3.786  1.3742  0.6183  0.9249
 4995TIP3    H214950   7.176   4.310   3.840 -0.2674 -1.7758  0.0731
 4996TIP3   OH214951   1.874   6.360   3.980  0.1274  0.0900  0.3040
 4996TIP3    H114952   1.905   6.286   3.927  0.3935 -0.0065  0.5871
 4996TIP3    H214953   1.781   6.365   3.962 -0.0424 -0.8119  0.8728
 4997TIP3   OH214954   1.805   3.554   3.031 -0.3420 -0.6140  0.2672
 4997TIP3    H114955   1.886   3.503   3.026 -0.1178 -0.1256 -1.7854
 4997TIP3    H214956   1.736   3.488   3.027 -0.0776 -1.0083  1.6481
 4998TIP3   OH214957   4.155   2.676   5.668  0.0028  0.2144 -0.1426
 4998TIP3    H114958   4.068   2.681   5.628 -0.5223  0.7278  1.0315
 4998TIP3    H214959   4.161   2.587   5.701  0.4705 -0.2395 -1.3814
 4999TIP3   OH214960   4.965   3.728   1.411  0.5338  0.3814 -0.1345
 4999TIP3    H114961   4.998   3.718   1.500 -1.2309  1.4393  0.7195
 4999TIP3    H214962   4.991   3.648   1.366 -0.5908 -1.3420  2.0429
 5000TIP3   OH214963   2.728   1.183   0.477  0.3580 -0.2682 -0.4345
 5000TIP3    H114964   2.748   1.109   0.419 -0.0980  0.6737 -1.8503
 5000TIP3    H214965   2.813   1.213   0.508  0.5714 -1.1465 -0.1367
 5001TIP3   OH214966   3.994   5.237   2.024  0.0110 -0.2118 -0.1903
 5001TIP3    H114967   3.966   5.176   2.093  0.6504 -0.3454 -0.0441
 5001TIP3    H214968   3.975   5.190   1.943  0.0513 -0.4101 -0.0876
 5002TIP3   OH214969   3.723   4.064   0.690  0.3113 -0.2097 -0.4434
 5002TIP3    H114970   3.713   4.011   0.768 -0.8284  2.5794  1.4743
 5002TIP3    H214971   3.808   4.108   0.701 -0.5603  1.4222  0.1348
 5003TIP3   OH214972   5.250   2.999   4.541  0.2684  0.1424  0.0662
 5003TIP3    H114973   5.190   3.054   4.491  0.9824  1.0762  0.2061
 5003TIP3    H214974   5.264   3.047   4.622  2.0419  0.4914 -0.4080
 5004TIP3   OH214975   3.223   3.981   0.906 -0.5591 -0.1725 -0.1766
 5004TIP3    H114976   3.282   4.054   0.924 -3.6402  2.6373 -0.4458
 5004TIP3    H214977   3.281   3.905   0.895  3.3994  2.9130 -4.5262
 5005TIP3   OH214978   6.604   2.293   3.677  0.1806 -0.5043  0.1337
 5005TIP3    H114979   6.538   2.315   3.611  0.9840 -1.2902 -0.9708
 5005TIP3    H214980   6.688   2.307   3.634  0.7217 -2.0144  0.6257
 5006TIP3   OH214981   4.395   3.190   0.254  0.0636  0.2027  0.0298
 5006TIP3    H114982   4.339   3.113   0.253 -0.3312  0.4765  0.6182
 5006TIP3    H214983   4.352   3.250   0.314 -0.3324  1.4196 -1.4237
 5007TIP3   OH214984   5.879   4.351   4.142  0.2304 -0.0575 -0.3324
 5007TIP3    H114985   5.866   4.330   4.049 -1.5914 -2.5902  0.3754
 5007TIP3    H214986   5.859   4.269   4.188  1.8744  0.8829  2.2862
 5008TIP3   OH214987   1.924   2.199   2.351  0.4257 -0.3825  0.8004
 5008TIP3    H114988   1.851   2.139   2.362 -0.9433  0.6233 -1.9850
 5008TIP3    H214989   1.886   2.286   2.369  0.4241  0.3185 -2.1878
 5009TIP3   OH214990   1.097   3.801   1.458  0.8100 -0.2538 -0.0344
 5009TIP3    H114991   1.179   3.813   1.409  0.2775 -1.0389 -1.1716
 5009TIP3    H214992   1.091   3.879   1.513  2.8034 -0.6252  0.8208
 5010TIP3   OH214993   2.282   0.031   5.032  0.6557 -0.2686 -0.0943
 5010TIP3    H114994   2.370   0.067   5.042  0.2743  0.6868 -0.0922
 5010TIP3    H214995   2.241   0.042   5.118  0.6744 -1.1366  0.0427
 5011TIP3   OH214996   1.519   1.416   0.480  0.5733  0.3161  0.2139
 5011TIP3    H114997   1.432   1.378   0.496  0.5787  0.3600  0.3477
 5011TIP3    H214998   1.505   1.510   0.485  0.7970  0.3071  1.1190
 5012TIP3   OH214999   2.891   5.100   3.996  0.7504 -0.0979 -0.0974
 5012TIP3    H115000   2.822   5.086   4.062 -0.7633 -0.7999 -1.7606
 5012TIP3    H215001   2.960   5.147   4.044 -0.9553  0.8353  1.5927
 5013TIP3   OH215002   3.858   5.594   3.655 -0.0239  0.0825 -0.3050
 5013TIP3    H115003   3.768   5.595   3.623 -0.5993  0.8469  1.2387
 5013TIP3    H215004   3.908   5.646   3.592 -0.0086 -2.6687 -2.7834
 5014TIP3   OH215005   0.363   2.231   3.747 -0.4127 -0.4174 -0.5816
 5014TIP3    H115006   0.414   2.312   3.737  2.2421 -1.6471  1.8268
 5014TIP3    H215007   0.350   2.200   3.658  1.2258  1.0653 -1.3997
 5015TIP3   OH215008   6.886   0.995   1.417  0.0613  0.0054  0.2000
 5015TIP3    H115009   6.820   0.930   1.392  0.2329  0.5196 -1.7837
 5015TIP3    H215010   6.964   0.943   1.437  0.0933 -0.4374 -0.9992
 5016TIP3   OH215011   5.474   4.659   0.728 -0.5780  0.5433  0.2381
 5016TIP3    H115012   5.558   4.665   0.773 -0.0508  0.0227 -0.6312
 5016TIP3    H215013   5.448   4.567   0.738 -0.5194  0.4539 -0.3834
 5017TIP3   OH215014   1.988   2.790   3.910  0.0168  0.1647  0.1941
 5017TIP3    H115015   1.929   2.801   3.836 -0.9086 -1.3849  0.6635
 5017TIP3    H215016   2.008   2.879   3.939 -0.8192  0.7425 -0.9531
 5018TIP3   OH215017   4.723   0.039   0.362  0.2694  0.3664  0.2501
 5018TIP3    H115018   4.685  -0.027   0.420 -0.8609  1.9749  1.4139
 5018TIP3    H215019   4.817   0.019   0.362 -0.0867 -1.4908  0.1896
 5019TIP3   OH215020   1.973   1.635   2.563  0.4039  0.2298  0.3203
 5019TIP3    H115021   1.952   1.597   2.478  1.6881 -0.3563  0.2468
 5019TIP3    H215022   1.904   1.700   2.578 -0.4253 -0.3939 -0.6789
 5020TIP3   OH215023   5.343   2.005   4.581  0.8488 -0.3160 -0.0339
 5020TIP3    H115024   5.287   2.046   4.647 -0.8928 -0.3702 -1.4343
 5020TIP3    H215025   5.432   2.031   4.607  0.2492 -0.3510  2.3241
 5021TIP3   OH215026   3.600   6.720   4.070  0.3796  0.0783 -0.4152
 5021TIP3    H115027   3.599   6.642   4.015 -0.9173  0.0515 -0.3812
 5021TIP3    H215028   3.686   6.759   4.055  1.6188 -2.0521  0.5848
 5022TIP3   OH215029   6.154   1.487   1.524 -0.2758  0.0928 -0.6801
 5022TIP3    H115030   6.059   1.482   1.539 -0.3475 -0.5637 -1.2821
 5022TIP3    H215031   6.162   1.500   1.430  0.2660 -2.2189 -1.0052
 5023TIP3   OH215032   5.625   1.064   3.423  0.2061  0.0041  0.3835
 5023TIP3    H115033   5.542   1.033   3.388  0.3498  0.7443 -0.6778
 5023TIP3    H215034   5.654   1.130   3.360  0.5362  1.3428  1.8676
 5024TIP3   OH215035   3.959   5.410   5.698 -0.0171 -0.0907  0.2571
 5024TIP3    H115036   3.871   5.383   5.673  0.6212 -2.2165  0.0991
 5024TIP3    H215037   3.946   5.490   5.750 -1.9451  0.1095 -0.4540
 5025TIP3   OH215038   0.396   0.695   3.453 -0.9777  0.0211  0.2552
 5025TIP3    H115039   0.408   0.628   3.385 -1.5156 -1.9585  2.0029
 5025TIP3    H215040   0.304   0.686   3.479 -0.8914  1.0303  0.9512
 5026TIP3   OH215041   2.408   0.351   1.041  0.0712  0.3136  0.2143
 5026TIP3    H115042   2.335   0.409   1.016 -1.9391 -2.6545 -1.4378
 5026TIP3    H215043   2.478   0.372   0.979 -0.7922  0.6771 -0.6707
 5027TIP3   OH215044   2.351   0.906   1.764 -0.0586  0.2332 -0.0853
 5027TIP3    H115045   2.294   0.829   1.765  0.8349 -0.4622 -0.5444
 5027TIP3    H215046   2.303   0.972   1.715 -1.0634  0.1583  0.7725
 5028TIP3   OH215047   6.562   5.156   1.327 -0.1164 -0.2477 -0.3261
 5028TIP3    H115048   6.648   5.130   1.361  0.4879  0.5650 -1.1627
 5028TIP3    H215049   6.499   5.118   1.388  0.8745 -0.0212  0.8739
 5029TIP3   OH215050   4.143   4.993   4.587  0.3338 -0.7747 -0.4508
 5029TIP3    H115051   4.202   4.980   4.662 -1.0694 -1.1752  0.6379
 5029TIP3    H215052   4.117   4.904   4.561  1.3869 -0.6755 -1.9249
 5030TIP3   OH215053   4.975   3.474   3.521  0.3874  0.0104  0.1910
 5030TIP3    H115054   5.067   3.473   3.494  0.6803  2.0606  0.9060
 5030TIP3    H215055   4.957   3.384   3.549  2.2429 -0.3868  0.2666
 5031TIP3   OH215056   3.370   4.517   3.145 -0.5667 -0.0764 -0.2384
 5031TIP3    H115057   3.425   4.485   3.216  1.0031  2.6221 -0.0896
 5031TIP3    H215058   3.421   4.501   3.065  0.1222  1.5913 -0.1859
 5032TIP3   OH215059   2.108   2.961   2.798  0.0021  0.2280 -0.2693
 5032TIP3    H115060   2.107   2.867   2.813 -0.7830  0.2940  0.0939
 5032TIP3    H215061   2.141   2.970   2.708 -0.4833 -0.4208 -0.5181
 5033TIP3   OH215062   3.625   6.376   4.383  0.2744  0.1959 -0.0464
 5033TIP3    H115063   3.697   6.374   4.447  1.0865 -0.9105 -0.9708
 5033TIP3    H215064   3.613   6.285   4.357 -1.6612  0.3166  0.2648
 5034TIP3   OH215065   6.842   3.618   4.969 -0.2647 -0.7472 -0.1098
 5034TIP3    H115066   6.778   3.625   5.040 -0.0099  0.8127  0.0065
 5034TIP3    H215067   6.823   3.692   4.912  0.4906 -1.1220 -0.8785
 5035TIP3   OH215068   1.349   2.992   2.090  0.2699 -0.1070 -0.1986
 5035TIP3    H115069   1.291   2.989   2.165  0.6225 -0.2932  0.0679
 5035TIP3    H215070   1.314   3.063   2.036  1.4973  1.8006  1.3744
 5036TIP3   OH215071   0.003   4.028   3.758 -0.2731  0.6277 -0.3656
 5036TIP3    H115072   0.099   4.024   3.756 -0.2840 -0.2088  0.0878
 5036TIP3    H215073  -0.016   4.094   3.824  0.0286 -1.3054  1.8101
 5037TIP3   OH215074   1.426   5.349   4.331 -0.1443  0.0171 -0.0850
 5037TIP3    H115075   1.443   5.420   4.268 -1.5953 -0.5410 -1.1516
 5037TIP3    H215076   1.501   5.352   4.391  1.5025  0.3699 -2.0266
 5038TIP3   OH215077   4.598   1.830   1.984 -0.0772  0.0709  0.4904
 5038TIP3    H115078   4.594   1.899   1.918 -1.2233 -0.7151 -0.2845
 5038TIP3    H215079   4.556   1.755   1.944 -0.3076 -0.5983  1.9153
 5039TIP3   OH215080   5.034   3.858   1.652 -0.5218  0.0195 -0.0086
 5039TIP3    H115081   4.992   3.941   1.628 -1.9827 -0.8222 -0.4591
 5039TIP3    H215082   4.965   3.793   1.645  0.3182 -1.0883  1.4543
 5040TIP3   OH215083   7.108   5.688   5.504  0.0183  0.4385  0.0008
 5040TIP3    H115084   7.069   5.601   5.497 -0.0010  0.4435  0.0426
 5040TIP3    H215085   7.195   5.671   5.542 -0.2536  0.4999  0.6760
 5041TIP3   OH215086   6.028   3.512   4.419 -0.2693  0.1362 -0.6539
 5041TIP3    H115087   6.021   3.608   4.415  0.2838  0.1836 -0.4924
 5041TIP3    H215088   6.057   3.487   4.331  1.1898  0.2646 -0.2389
 5042TIP3   OH215089   1.302   6.664   0.842 -0.4609  0.3603  0.2876
 5042TIP3    H115090   1.312   6.722   0.767 -1.5745 -2.3190 -2.1170
 5042TIP3    H215091   1.247   6.592   0.810 -0.3231 -1.3546  3.4619
 5043TIP3   OH215092   5.506   1.805   2.836 -0.0420  0.2726  0.0370
 5043TIP3    H115093   5.423   1.761   2.816  0.4378 -0.3558 -0.6094
 5043TIP3    H215094   5.526   1.778   2.925 -0.5825  0.5121  0.2363
 5044TIP3   OH215095   6.824   1.760   5.327  0.0610  0.1616 -0.4696
 5044TIP3    H115096   6.792   1.677   5.361  1.7720  0.4481  2.0819
 5044TIP3    H215097   6.766   1.826   5.367 -0.1901  0.3022 -1.0593
 5045TIP3   OH215098   4.625   6.588   3.974 -0.2021 -0.4870  0.1549
 5045TIP3    H115099   4.608   6.647   4.047 -1.7217  0.0169 -0.5693
 5045TIP3    H215100   4.539   6.574   3.934  0.7095  0.0614 -2.1356
 5046TIP3   OH215101   1.137   2.922   4.675  0.4118  0.3749  0.5067
 5046TIP3    H115102   1.120   2.964   4.591  0.7397  1.4960  0.9915
 5046TIP3    H215103   1.116   2.989   4.740 -1.6568 -1.0454  1.4324
 5047TIP3   OH215104   4.412   5.338   5.731  0.3456 -0.1657  0.1329
 5047TIP3    H115105   4.494   5.332   5.682  0.9351  2.2700  0.6637
 5047TIP3    H215106   4.440   5.360   5.820 -0.8321  3.1752 -0.1830
 5048TIP3   OH215107   2.397   3.249   4.673 -0.5711 -0.1394 -0.4864
 5048TIP3    H115108   2.432   3.308   4.740 -1.4543 -1.0668  0.8182
 5048TIP3    H215109   2.340   3.305   4.620 -0.0648  0.5391 -0.3427
 5049TIP3   OH215110   1.682   2.786   2.906 -0.1201 -0.7136 -0.4224
 5049TIP3    H115111   1.754   2.837   2.945 -0.6233  0.3950 -0.8921
 5049TIP3    H215112   1.605   2.811   2.958 -0.5863 -0.0909 -1.3804
 5050TIP3   OH215113   0.964   6.335   1.153 -0.3576 -0.0331  0.1440
 5050TIP3    H115114   0.950   6.256   1.101 -0.0431  0.9250 -1.4699
 5050TIP3    H215115   1.036   6.380   1.109  1.7311 -0.3904  2.9225
 5051TIP3   OH215116   5.910   0.450   5.515  0.1619 -0.5060  0.0957
 5051TIP3    H115117   5.889   0.496   5.597  0.8685 -0.2567  0.1422
 5051TIP3    H215118   5.922   0.359   5.541 -3.3160 -1.2205 -0.2928
 5052TIP3   OH215119   4.210   2.610   1.633  0.5324  0.4953 -0.2504
 5052TIP3    H115120   4.176   2.698   1.651  0.5464 -0.0377  2.9570
 5052TIP3    H215121   4.250   2.583   1.715  0.6485 -2.4949 -1.1875
 5053TIP3   OH215122   4.603   2.249   3.661 -0.0227  0.1571  0.0946
 5053TIP3    H115123   4.668   2.311   3.694 -0.0956  1.0770 -1.3883
 5053TIP3    H215124   4.534   2.250   3.726  0.5046  0.7669  0.6608
 5054TIP3   OH215125   5.972   2.857   4.114  0.2825  0.0743  0.4338
 5054TIP3    H115126   5.912   2.783   4.124  1.1440 -0.5610  1.0019
 5054TIP3    H215127   6.047   2.835   4.168  0.2480  1.7008  1.2121
 5055TIP3   OH215128   3.557   1.855   4.805  0.6066  1.1013  0.3702
 5055TIP3    H115129   3.510   1.840   4.887  0.5037 -0.9106 -0.0139
 5055TIP3    H215130   3.649   1.855   4.830  0.7341 -2.1319  0.2076
 5056TIP3   OH215131   1.765   4.643   3.687  0.2531  0.1250 -0.4111
 5056TIP3    H115132   1.813   4.723   3.709  0.1623  0.6886 -2.1115
 5056TIP3    H215133   1.733   4.611   3.771  1.0942  1.3506  0.4199
 5057TIP3   OH215134   3.957   6.716   0.803 -0.3010  0.0970 -0.0768
 5057TIP3    H115135   3.934   6.675   0.886 -0.3184  2.3014  1.1027
 5057TIP3    H215136   4.034   6.770   0.825 -0.6757  1.1786 -1.3423
 5058TIP3   OH215137   6.126   5.456   4.540 -0.0837 -0.4642  0.4005
 5058TIP3    H115138   6.082   5.385   4.586  1.0387 -1.3000  0.2503
 5058TIP3    H215139   6.218   5.445   4.563  0.0977  0.9980  0.4176
 5059TIP3   OH215140   3.016   4.110   5.157  0.3534 -0.0309 -0.1949
 5059TIP3    H115141   3.078   4.046   5.123  2.4570  2.6561 -1.9396
 5059TIP3    H215142   3.070   4.174   5.204 -1.3894  1.2700  0.1801
 5060TIP3   OH215143   2.994   0.014   4.733 -0.3915 -0.3105 -1.1674
 5060TIP3    H115144   3.039  -0.060   4.774  0.8518  0.4047 -1.2241
 5060TIP3    H215145   3.061   0.059   4.683 -1.6941 -0.6804 -3.3643
 5061TIP3   OH215146   3.210   5.657   2.449 -0.7683  0.6683 -0.1726
 5061TIP3    H115147   3.276   5.638   2.515 -0.5528 -1.5060 -0.9560
 5061TIP3    H215148   3.260   5.670   2.368 -1.2275  0.2932 -0.5194
 5062TIP3   OH215149   3.964   5.337   3.977 -0.3029 -0.1648  0.5423
 5062TIP3    H115150   3.914   5.415   3.950  2.0104  1.4181  0.5552
 5062TIP3    H215151   3.972   5.345   4.072 -0.7819 -0.9108  0.6542
 5063TIP3   OH215152   0.419   3.897   1.366 -0.1049 -0.2654  0.5526
 5063TIP3    H115153   0.412   3.904   1.271 -1.0964  2.2897  0.7293
 5063TIP3    H215154   0.383   3.811   1.387 -0.8624 -0.4401 -1.3000
 5064TIP3   OH215155   2.400   2.876   2.273  0.0604  0.3468  0.5508
 5064TIP3    H115156   2.365   2.863   2.185 -0.3671  0.4897  0.6928
 5064TIP3    H215157   2.456   2.800   2.289 -0.5643 -0.1338  0.4903
 5065TIP3   OH215158   2.114   2.489   5.629 -0.4153 -0.1523 -0.2426
 5065TIP3    H115159   2.203   2.519   5.610 -0.2494 -0.4698  0.0335
 5065TIP3    H215160   2.066   2.570   5.649  0.0085 -0.0550  0.4016
 5066TIP3   OH215161   0.026   4.634   4.962  0.3579 -0.0636  0.3144
 5066TIP3    H115162   0.066   4.616   5.047 -0.6357 -1.1483  0.5722
 5066TIP3    H215163   0.083   4.700   4.922  1.6916 -0.6532  1.1769
 5067TIP3   OH215164   2.218   2.453   3.493  0.2284  0.4244  0.2448
 5067TIP3    H115165   2.164   2.430   3.418 -1.2463  0.2036  1.3115
 5067TIP3    H215166   2.271   2.376   3.510  2.9247  1.5155 -2.3978
 5068TIP3   OH215167   4.917   0.068   4.194  0.6160 -0.0170  0.0614
 5068TIP3    H115168   4.874   0.129   4.135 -2.0459 -2.2763 -0.5651
 5068TIP3    H215169   4.874   0.081   4.278  1.3642  0.2149  0.4227
 5069TIP3   OH215170   3.642   2.491   5.401  0.6299 -0.8363 -0.2464
 5069TIP3    H115171   3.637   2.416   5.460 -1.8497  0.9042  1.9779
 5069TIP3    H215172   3.550   2.515   5.385  1.3238  1.8830 -0.6065
 5070TIP3   OH215173   2.860   0.307   4.299 -0.4781 -0.0046 -0.5136
 5070TIP3    H115174   2.928   0.372   4.283  1.3661 -1.4507  0.8788
 5070TIP3    H215175   2.853   0.258   4.217  0.8208 -0.3694 -0.4345
 5071TIP3   OH215176   0.187   2.026   4.485 -0.7472  0.5203 -0.4050
 5071TIP3    H115177   0.247   2.079   4.433  1.4799 -0.2403  1.2053
 5071TIP3    H215178   0.112   2.083   4.501  0.5938  2.4088 -0.5454
 5072TIP3   OH215179   3.257   4.237   2.837  0.0562 -0.2634 -0.0664
 5072TIP3    H115180   3.162   4.224   2.831  0.2139 -0.9712 -1.6281
 5072TIP3    H215181   3.289   4.159   2.881 -0.0332 -0.2919 -0.0513
 5073TIP3   OH215182   0.448   0.355   3.942  0.4064  0.3466  0.5098
 5073TIP3    H115183   0.393   0.293   3.893 -0.1319  0.9430  0.3446
 5073TIP3    H215184   0.470   0.308   4.023 -0.4906  0.1518  0.6586
 5074TIP3   OH215185   3.014   3.043   2.552  0.2180  0.1102  0.2768
 5074TIP3    H115186   3.034   3.129   2.589  0.2762  0.5322 -0.6922
 5074TIP3    H215187   2.985   3.062   2.463 -1.6476 -0.7291  0.6674
 5075TIP3   OH215188   6.796   4.023   3.892  0.0123  0.1145 -0.4476
 5075TIP3    H115189   6.744   3.986   3.820  0.4805  2.6961 -2.2395
 5075TIP3    H215190   6.732   4.064   3.950 -0.1895  0.2394 -0.7606
 5076TIP3   OH215191   0.663   5.228   2.355 -0.0156  0.3900 -0.3824
 5076TIP3    H115192   0.677   5.159   2.420  1.5228 -0.1857 -1.2620
 5076TIP3    H215193   0.732   5.293   2.374 -0.5606  0.9943 -0.4467
 5077TIP3   OH215194   2.016   3.915   1.974 -0.6445  0.4298 -0.3137
 5077TIP3    H115195   1.982   3.833   2.010  3.9541 -0.2884  3.5135
 5077TIP3    H215196   1.959   3.983   2.010 -1.5775 -0.8458  0.7148
 5078TIP3   OH215197   2.607   2.027   2.715  0.6061  0.7754 -0.0782
 5078TIP3    H115198   2.546   1.961   2.747  0.4141  1.5639  1.2675
 5078TIP3    H215199   2.551   2.101   2.691  0.9574  1.1447  0.2339
 5079TIP3   OH215200   4.100   5.975   0.570  0.0982 -0.6168 -0.4743
 5079TIP3    H115201   4.042   5.899   0.576  3.3711 -3.2373  0.7684
 5079TIP3    H215202   4.134   5.972   0.481 -0.1793 -0.2351 -0.5968
 5080TIP3   OH215203   6.947   0.833   2.931  0.0054  0.0613 -0.3242
 5080TIP3    H115204   6.911   0.898   2.991  0.3998  0.7498 -0.8214
 5080TIP3    H215205   7.041   0.849   2.932  0.1364 -0.6840 -0.2440
 5081TIP3   OH215206   0.544   1.213   0.524  0.5009  0.3839  0.3989
 5081TIP3    H115207   0.628   1.171   0.505 -0.4172 -1.5392  0.4216
 5081TIP3    H215208   0.546   1.295   0.474  2.2375  0.2223  0.1509
 5082TIP3   OH215209   2.998   4.290   1.190  0.1407 -0.2112 -0.2357
 5082TIP3    H115210   2.949   4.369   1.167 -0.6319 -0.3106  0.9741
 5082TIP3    H215211   3.061   4.318   1.256 -0.4421 -0.6720  0.5338
 5083TIP3   OH215212   6.872   3.143   3.103  0.1180  0.3112  0.2982
 5083TIP3    H115213   6.957   3.139   3.147  0.3806  0.5810 -0.1619
 5083TIP3    H215214   6.815   3.188   3.164 -0.9739 -3.6535  2.5555
 5084TIP3   OH215215   2.738   0.013   3.378  0.4361  0.2059  0.3068
 5084TIP3    H115216   2.653   0.050   3.352 -0.2462 -0.1301  1.9134
 5084TIP3    H215217   2.758   0.056   3.461  1.0359 -0.9243  0.7730
 5085TIP3   OH215218   2.858   0.572   0.191  1.0071 -0.1062  0.0485
 5085TIP3    H115219   2.904   0.620   0.122  0.3607  0.9682  0.3382
 5085TIP3    H215220   2.922   0.509   0.224  1.3434 -0.6191 -1.5028
 5086TIP3   OH215221   0.967   2.213   5.579  0.3627 -0.7267 -0.1542
 5086TIP3    H115222   1.030   2.285   5.580 -0.0951 -0.2279  2.9327
 5086TIP3    H215223   1.019   2.136   5.555  1.2673  0.2468 -1.5213
 5087TIP3   OH215224   0.616   6.282   0.307 -0.1800 -0.0800 -0.2057
 5087TIP3    H115225   0.526   6.291   0.339 -0.9293 -0.6831 -1.9748
 5087TIP3    H215226   0.616   6.329   0.223  1.6828  1.4811  0.5977
 5088TIP3   OH215227   5.076   4.515   5.767 -0.2639 -0.5687 -0.3844
 5088TIP3    H115228   5.012   4.533   5.837 -1.2396 -0.7008 -1.2210
 5088TIP3    H215229   5.062   4.423   5.744  0.5560 -0.7285 -0.2588
 5089TIP3   OH215230   6.271   1.453   1.809 -0.6274  1.1289 -0.3369
 5089TIP3    H115231   6.266   1.458   1.713  0.3322 -0.8683 -0.5464
 5089TIP3    H215232   6.247   1.362   1.829 -0.0016  1.2934  1.2466
 5090TIP3   OH215233   2.417   5.391   5.164 -0.0899 -0.1253 -0.1794
 5090TIP3    H115234   2.454   5.458   5.221  0.5622 -0.4184 -0.2520
 5090TIP3    H215235   2.381   5.440   5.089 -0.0886  0.1806  0.0190
 5091TIP3   OH215236   4.185   1.449   0.077 -0.0244  0.2244 -0.4989
 5091TIP3    H115237   4.181   1.401  -0.005  1.7982  2.2161 -1.8717
 5091TIP3    H215238   4.120   1.519   0.066 -0.8338 -0.3601  0.4142
 5092TIP3   OH215239   5.294   6.485   4.408 -0.3100  0.0966 -0.0782
 5092TIP3    H115240   5.251   6.422   4.464  0.6317 -0.7176 -0.2394
 5092TIP3    H215241   5.388   6.472   4.424 -0.0344  0.1602 -1.4787
 5093TIP3   OH215242   2.466   2.494   3.246  0.2862  0.7383 -0.6077
 5093TIP3    H115243   2.399   2.426   3.250 -0.4462  1.3158 -2.2194
 5093TIP3    H215244   2.549   2.447   3.240  0.0658  0.0116  1.2443
 5094TIP3   OH215245   0.569   3.106   2.916  0.4610 -0.2702  0.4291
 5094TIP3    H115246   0.617   3.121   2.834 -1.2978 -1.3133 -0.8779
 5094TIP3    H215247   0.477   3.114   2.890 -0.1312 -0.0904  2.4537
 5095TIP3   OH215248   3.103   3.993   0.581 -0.1934 -0.4252 -0.1957
 5095TIP3    H115249   3.177   3.932   0.584 -0.2864 -0.5067  1.2580
 5095TIP3    H215250   3.142   4.078   0.564  0.6544  0.0223  3.2212
 5096TIP3   OH215251   6.917   6.336   5.401  0.7288 -0.3905 -0.0940
 5096TIP3    H115252   6.961   6.367   5.322 -0.5238 -1.0083 -1.0730
 5096TIP3    H215253   6.944   6.245   5.409  2.4366  0.1960  1.3661
 5097TIP3   OH215254   3.066   0.439   2.045  0.4238  0.5899  0.4559
 5097TIP3    H115255   3.033   0.387   1.971  0.2303  0.5993  0.5347
 5097TIP3    H215256   2.987   0.476   2.085  0.3357 -0.8908  1.7677
 5098TIP3   OH215257   0.569   1.047   5.727  0.5125 -0.0996 -0.0535
 5098TIP3    H115258   0.591   0.957   5.750 -0.4049 -0.6966 -1.3988
 5098TIP3    H215259   0.474   1.052   5.736  0.5753  0.7937  0.1995
 5099TIP3   OH215260   4.364   6.104   3.396  0.2317  0.2262  0.6034
 5099TIP3    H115261   4.417   6.153   3.460 -0.6528  1.5135  0.3900
 5099TIP3    H215262   4.340   6.169   3.330  0.1632 -0.8244 -0.4412
 5100TIP3   OH215263   6.162   0.979   3.138  0.2464  0.1613  0.1934
 5100TIP3    H115264   6.231   0.935   3.187 -0.4708 -0.2187  0.8976
 5100TIP3    H215265   6.108   0.908   3.103  0.2261  0.4484 -0.3651
 5101TIP3   OH215266   4.545   4.612   3.020  0.1999 -0.3588  0.3225
 5101TIP3    H115267   4.503   4.547   2.964 -1.5067 -0.8515  2.0711
 5101TIP3    H215268   4.578   4.563   3.095  0.4870  0.5535  0.8154
 5102TIP3   OH215269   4.699   5.277   1.386 -1.0224  0.8873  0.1638
 5102TIP3    H115270   4.777   5.312   1.429 -0.1662 -0.6076 -0.0888
 5102TIP3    H215271   4.693   5.325   1.304 -0.4117  1.0731  0.2220
 5103TIP3   OH215272   3.424   0.645   0.459  0.0167 -0.4850 -0.4519
 5103TIP3    H115273   3.356   0.615   0.399  0.0502 -1.1974 -0.1469
 5103TIP3    H215274   3.475   0.566   0.478  1.9091  0.3194 -1.9082
 5104TIP3   OH215275   5.969   1.401   2.674  0.4173 -0.4152 -0.2286
 5104TIP3    H115276   6.044   1.383   2.617  0.4062  0.1046 -0.4166
 5104TIP3    H215277   5.939   1.315   2.703  0.8720 -0.6448 -0.4318
 5105TIP3   OH215278   5.166   5.293   3.405 -1.0155  0.0034 -0.3537
 5105TIP3    H115279   5.092   5.270   3.349 -0.0046 -0.7232 -1.4197
 5105TIP3    H215280   5.146   5.382   3.434 -1.7534  0.2582 -1.5531
 5106TIP3   OH215281   6.756   3.466   2.961 -0.1694 -0.0249 -0.0100
 5106TIP3    H115282   6.740   3.496   3.051  0.0328  0.7311 -0.2175
 5106TIP3    H215283   6.690   3.512   2.909  0.1968  0.1245 -0.3453
 5107TIP3   OH215284   1.558   3.594   4.487  0.3125 -0.1460 -0.7088
 5107TIP3    H115285   1.547   3.521   4.426  0.2429 -0.7906  0.0538
 5107TIP3    H215286   1.592   3.553   4.567 -0.1191  0.5913 -0.1354
 5108TIP3   OH215287   6.585   5.563   4.962 -0.5957 -0.0473  0.1915
 5108TIP3    H115288   6.545   5.644   4.995  0.8239  0.1234  1.6666
 5108TIP3    H215289   6.619   5.520   5.041 -0.4555 -1.6036 -0.6845
 5109TIP3   OH215290   5.093   4.766   1.443  0.0858  0.5069 -0.3507
 5109TIP3    H115291   5.169   4.735   1.492 -1.2556 -1.8666  0.3992
 5109TIP3    H215292   5.028   4.787   1.510 -0.8986 -0.3061 -1.0177
 5110TIP3   OH215293   0.272   0.690   5.305  0.0221  0.1999 -0.2890
 5110TIP3    H115294   0.365   0.700   5.287 -0.1362  0.6579 -0.8775
 5110TIP3    H215295   0.260   0.728   5.392  0.4924 -0.4654  0.0768
 5111TIP3   OH215296   3.955   0.956   4.183 -0.4290 -0.4016  0.1283
 5111TIP3    H115297   3.902   1.035   4.174  1.6679  1.0538 -0.3151
 5111TIP3    H215298   4.014   0.975   4.256 -0.9561 -2.2513  1.0848
 5112TIP3   OH215299   7.035   2.817   3.872  0.4838  0.9447 -0.1619
 5112TIP3    H115300   7.062   2.904   3.902  1.3513 -0.0145  2.0143
 5112TIP3    H215301   6.940   2.818   3.876  0.5304  1.3673  1.1958
 5113TIP3   OH215302   0.440   5.646   5.680  0.0960  0.0658  0.1647
 5113TIP3    H115303   0.456   5.664   5.587  0.0087  1.7523  0.4316
 5113TIP3    H215304   0.393   5.724   5.710  2.1239  0.6177  2.1521
 5114TIP3   OH215305   2.598   0.098   4.803  0.2757  0.1243 -0.0777
 5114TIP3    H115306   2.529   0.092   4.737 -0.6894  0.8695  0.8305
 5114TIP3    H215307   2.631   0.188   4.795  0.1358  0.2277  0.4467
 5115TIP3   OH215308   7.201   4.172   3.039  0.7113  0.1562 -0.1186
 5115TIP3    H115309   7.179   4.185   3.131  0.5892  1.7476 -0.3351
 5115TIP3    H215310   7.236   4.083   3.034  0.8611  0.1052  1.4883
 5116TIP3   OH215311   2.109   1.447   0.027  0.6903 -0.1347 -0.4161
 5116TIP3    H115312   2.033   1.505   0.020  1.6623  1.1739 -0.3299
 5116TIP3    H215313   2.084   1.370  -0.024 -0.9570 -0.0236  0.1716
 5117TIP3   OH215314   7.016   2.413   0.405  1.0241  0.4527  0.1468
 5117TIP3    H115315   7.026   2.319   0.423 -0.1062  0.2189 -0.3665
 5117TIP3    H215316   7.003   2.418   0.310 -0.8645  0.9343  0.3932
 5118TIP3   OH215317   5.964   1.206   4.557 -0.4659  0.3821  0.0870
 5118TIP3    H115318   5.877   1.245   4.544 -0.4405  0.2383 -0.5216
 5118TIP3    H215319   6.025   1.277   4.537 -0.4384  0.5644  0.7824
 5119TIP3   OH215320   5.578   1.679   4.357  0.1066 -0.3031 -0.0433
 5119TIP3    H115321   5.582   1.774   4.372 -0.3205 -0.5941  2.2514
 5119TIP3    H215322   5.660   1.646   4.394  0.3470 -0.8281 -1.0248
 5120TIP3   OH215323   4.771   0.483   3.832 -0.0806  0.1343 -0.4802
 5120TIP3    H115324   4.836   0.516   3.770 -0.8977  2.2822 -0.2802
 5120TIP3    H215325   4.812   0.495   3.918 -0.1862  0.1581 -0.4332
 5121TIP3   OH215326   3.515   1.949   5.340 -0.8648 -0.0528 -0.1155
 5121TIP3    H115327   3.582   2.006   5.302  0.2256  0.5402  2.4697
 5121TIP3    H215328   3.465   2.007   5.398 -0.4109 -1.4325  1.7580
 5122TIP3   OH215329   2.256   3.813   2.773 -0.4891 -0.1617 -0.1900
 5122TIP3    H115330   2.237   3.719   2.773 -0.9752 -0.0915  1.0956
 5122TIP3    H215331   2.276   3.833   2.864 -0.6409  1.0291 -0.3988
 5123TIP3   OH215332   1.493   0.810   5.267 -0.2399  0.1775 -0.0144
 5123TIP3    H115333   1.538   0.841   5.346  1.1490 -1.1676 -0.2187
 5123TIP3    H215334   1.463   0.890   5.224  0.5343  1.0443  0.9834
 5124TIP3   OH215335   3.409   5.567   2.717 -0.0423  0.0907  0.1133
 5124TIP3    H115336   3.495   5.603   2.738  0.0585 -0.0914  0.0083
 5124TIP3    H215337   3.427   5.482   2.677 -0.2693  0.0620  0.0707
 5125TIP3   OH215338   2.823   1.173   2.292 -0.0405 -0.0106  0.2225
 5125TIP3    H115339   2.807   1.266   2.273 -0.1891  0.0964  0.8633
 5125TIP3    H215340   2.910   1.156   2.256  0.6056  0.7487  1.3798
 5126TIP3   OH215341   5.432   1.954   4.894  0.2372  0.0584 -0.9070
 5126TIP3    H115342   5.342   1.965   4.864 -0.4019 -1.2249  0.4701
 5126TIP3    H215343   5.428   1.965   4.989  1.4218 -0.6349 -0.7599
 5127TIP3   OH215344   5.845   3.473   5.553 -0.5304 -0.1465  0.0207
 5127TIP3    H115345   5.795   3.391   5.558 -0.9146  0.0248 -0.8546
 5127TIP3    H215346   5.835   3.512   5.640  0.6373 -1.5739  0.8547
 5128TIP3   OH215347   1.998   2.544   4.567  0.1907 -0.1002 -0.1059
 5128TIP3    H115348   2.013   2.545   4.472  0.5588 -2.4447 -0.1347
 5128TIP3    H215349   1.904   2.527   4.576  0.0939  0.4502 -0.0268
 5129TIP3   OH215350   5.829   3.254   2.762 -0.4817 -0.0220  0.3539
 5129TIP3    H115351   5.886   3.255   2.685 -1.9180 -0.5041 -0.7579
 5129TIP3    H215352   5.749   3.298   2.733 -1.0269 -0.1431  1.6037
 5130TIP3   OH215353   4.052   6.583   3.789  0.3715  0.3096 -0.7056
 5130TIP3    H115354   3.978   6.577   3.849 -0.4516 -0.6566 -1.7635
 5130TIP3    H215355   4.053   6.675   3.762 -0.5759  0.3007 -0.8264
 5131TIP3   OH215356   0.379   1.440   0.396  0.0694 -0.0634 -0.5425
 5131TIP3    H115357   0.306   1.383   0.421 -0.3436  0.9221  0.6892
 5131TIP3    H215358   0.413   1.403   0.315 -1.4046 -0.9182 -0.8109
 5132TIP3   OH215359   1.794   2.432   2.436  0.1081  0.1343  0.3007
 5132TIP3    H115360   1.772   2.488   2.510 -1.9038  3.0853 -2.2255
 5132TIP3    H215361   1.857   2.483   2.385  0.3185 -1.1115 -0.7553
 5133TIP3   OH215362   2.955   1.113   4.470 -0.0529 -0.4043  0.4479
 5133TIP3    H115363   2.886   1.174   4.495  1.4280  0.9834  1.3785
 5133TIP3    H215364   2.947   1.106   4.374 -0.2823  1.2533  0.3221
 5134TIP3   OH215365   4.687   2.314   2.327  0.1255  0.6775 -0.6382
 5134TIP3    H115366   4.756   2.352   2.273 -0.0245  0.6524 -0.8517
 5134TIP3    H215367   4.610   2.313   2.270  0.2059 -0.2285 -0.7406
 5135TIP3   OH215368   3.381   0.867   2.888  0.4806  0.4153 -0.3631
 5135TIP3    H115369   3.384   0.963   2.892 -0.7823  0.5294 -1.4415
 5135TIP3    H215370   3.464   0.843   2.846  0.1848  1.1554 -1.4135
 5136TIP3   OH215371   0.056   4.246   0.573  0.3347  0.6322  0.1633
 5136TIP3    H115372   0.022   4.330   0.604  1.7691  1.5825 -0.7430
 5136TIP3    H215373   0.026   4.183   0.639 -1.8929  1.6075  0.1834
 5137TIP3   OH215374   4.795   3.370   4.141  0.5284 -0.3202 -0.3135
 5137TIP3    H115375   4.859   3.426   4.099  1.7110 -0.9088  0.6473
 5137TIP3    H215376   4.735   3.430   4.185  2.2359  0.2251  1.3688
 5138TIP3   OH215377   0.535   0.752   5.240  0.1601  0.1602 -0.1770
 5138TIP3    H115378   0.609   0.791   5.287  0.2668 -0.6768  0.3647
 5138TIP3    H215379   0.548   0.779   5.149 -1.2562  3.6875  0.5111
 5139TIP3   OH215380   4.490   0.286   5.404  0.0581  0.1195 -0.3188
 5139TIP3    H115381   4.399   0.293   5.433  0.4806  0.4230  1.0092
 5139TIP3    H215382   4.528   0.218   5.460  0.5608 -0.2683 -1.1141
 5140TIP3   OH215383   1.307   5.352   5.450 -0.3360 -0.2172  0.1165
 5140TIP3    H115384   1.227   5.310   5.483 -1.0266 -0.7648 -2.0652
 5140TIP3    H215385   1.346   5.287   5.392 -0.0351  1.1901 -1.3180
 5141TIP3   OH215386   6.090   2.680   2.521  0.0021 -0.5326 -0.1951
 5141TIP3    H115387   6.138   2.608   2.481  0.1787 -0.4415 -0.1484
 5141TIP3    H215388   6.046   2.641   2.596  1.6502 -0.2109  0.9923
 5142TIP3   OH215389   6.081   0.771   2.347 -0.3545  0.2609 -0.3326
 5142TIP3    H115390   6.003   0.824   2.330 -0.2994  0.2547 -0.6218
 5142TIP3    H215391   6.060   0.686   2.309 -0.5856 -0.0393  0.4573
 5143TIP3   OH215392   0.024   5.394   5.493 -0.0633  0.3171 -0.0529
 5143TIP3    H115393   0.097   5.456   5.486  0.3607 -0.2274 -0.5270
 5143TIP3    H215394   0.042   5.345   5.573 -0.4199  0.8229  0.3445
 5144TIP3   OH215395   2.750   2.973   2.294 -0.5452 -0.3593  0.0193
 5144TIP3    H115396   2.724   2.919   2.220  1.7007 -0.7419 -0.5533
 5144TIP3    H215397   2.755   2.912   2.368  1.8630 -0.9993 -0.5988
 5145TIP3   OH215398   0.060   0.249   4.455 -0.1308 -0.0688 -0.0502
 5145TIP3    H115399   0.106   0.284   4.531 -0.1284 -0.1039 -0.0356
 5145TIP3    H215400   0.128   0.212   4.400 -0.0133  0.8228 -0.5361
 5146TIP3   OH215401   3.754   3.590   0.565 -0.1925  0.0224  0.3693
 5146TIP3    H115402   3.750   3.568   0.472 -0.0830 -2.1368  0.8235
 5146TIP3    H215403   3.847   3.606   0.582 -0.2393  0.6190  0.0615
 5147TIP3   OH215404   5.774   0.654   2.064  0.4933 -0.2178 -0.2279
 5147TIP3    H115405   5.681   0.652   2.088  0.1435  3.4995 -0.6435
 5147TIP3    H215406   5.779   0.605   1.982 -1.2535  0.0293 -0.5169
 5148TIP3   OH215407   4.149   1.041   3.560 -0.1677 -0.3727 -0.3706
 5148TIP3    H115408   4.140   1.107   3.629  2.1142  0.3983 -0.7396
 5148TIP3    H215409   4.142   0.958   3.606  0.1090  0.1335  0.6151
 5149TIP3   OH215410   3.891   0.177   1.383  0.2184 -0.0529  0.3208
 5149TIP3    H115411   3.940   0.099   1.359  0.3209  0.0415  0.2179
 5149TIP3    H215412   3.800   0.157   1.361 -0.0565 -0.8504  2.0415
 5150TIP3   OH215413   0.368   5.923   5.781 -0.6279 -0.1957  0.2228
 5150TIP3    H115414   0.316   5.911   5.860  0.4156 -2.5847  0.6327
 5150TIP3    H215415   0.458   5.934   5.813 -0.4431  0.7932 -0.5851
 5151TIP3   OH215416   2.829   3.659   1.035 -0.6841  0.1522 -0.2083
 5151TIP3    H115417   2.735   3.672   1.050 -0.6471 -0.5285  0.6675
 5151TIP3    H215418   2.869   3.670   1.121  0.2781  2.2006 -0.8545
 5152TIP3   OH215419   6.557   6.623   4.113  0.6393  0.1230  0.2241
 5152TIP3    H115420   6.480   6.567   4.103  0.6810  0.1510 -0.2761
 5152TIP3    H215421   6.596   6.627   4.025  1.1220  0.2351  0.4366
 5153TIP3   OH215422   4.251   0.394   3.292  0.5356 -0.0394  0.1401
 5153TIP3    H115423   4.197   0.316   3.282  1.1914 -0.6240  1.0143
 5153TIP3    H215424   4.288   0.408   3.204 -0.7094  0.1601 -0.3776
 5154TIP3   OH215425   0.678   0.615   4.822 -0.4071 -0.1730  0.2693
 5154TIP3    H115426   0.653   0.612   4.729  0.9315 -0.0861 -0.1291
 5154TIP3    H215427   0.662   0.526   4.854 -0.3221 -0.3658 -0.2132
 5155TIP3   OH215428   0.256   3.695   4.101 -0.2730 -0.0935  0.7859
 5155TIP3    H115429   0.349   3.697   4.080  0.0075 -2.3738  1.4865
 5155TIP3    H215430   0.253   3.708   4.196 -1.0517  3.7988  0.4121
 5156TIP3   OH215431   6.360   2.508   1.413 -0.0685  0.7360 -0.2119
 5156TIP3    H115432   6.362   2.533   1.506  0.4459 -3.4993  1.1616
 5156TIP3    H215433   6.451   2.518   1.384  0.3293 -0.2694  0.5935
 5157TIP3   OH215434   0.591   0.603   4.555 -0.1063 -0.0411 -0.1075
 5157TIP3    H115435   0.578   0.540   4.484 -0.0480 -1.8154  1.3849
 5157TIP3    H215436   0.508   0.602   4.603  1.3404 -2.6849  2.6895
 5158TIP3   OH215437   4.155   2.993   3.482 -0.5119 -0.0901 -0.0426
 5158TIP3    H115438   4.191   3.013   3.568 -1.7058 -1.1498  0.7247
 5158TIP3    H215439   4.218   3.031   3.421 -0.4245  2.0799  1.2749
 5159TIP3   OH215440   5.086   2.502   2.728 -0.0791 -0.0546  0.2071
 5159TIP3    H115441   5.178   2.522   2.709 -0.2244 -0.2198 -0.7139
 5159TIP3    H215442   5.047   2.586   2.753 -0.1880  0.4566 -1.5521
 5160TIP3   OH215443   0.213   1.529   3.480 -0.0316 -0.2592  0.1639
 5160TIP3    H115444   0.268   1.606   3.468  1.0383 -0.9308  0.6323
 5160TIP3    H215445   0.187   1.532   3.572  0.2750 -0.6143  0.2665
 5161TIP3   OH215446   5.579   2.640   4.492  0.4669  0.5739  0.1276
 5161TIP3    H115447   5.548   2.703   4.426 -1.5244 -0.6402 -0.1941
 5161TIP3    H215448   5.586   2.691   4.573 -2.2409  1.0650  0.1427
 5162TIP3   OH215449   0.619   1.078   0.208 -0.0175  0.4758 -0.3063
 5162TIP3    H115450   0.656   1.045   0.290 -3.6799  0.6574  1.6045
 5162TIP3    H215451   0.600   1.170   0.226 -2.2253  0.1571 -0.7702
 5163TIP3   OH215452   2.833   2.139   2.265  0.1401  0.0563  0.6266
 5163TIP3    H115453   2.884   2.192   2.325  1.1421 -0.6520  0.4274
 5163TIP3    H215454   2.887   2.134   2.186 -0.7430  0.2191 -0.0030
 5164TIP3   OH215455   0.942   3.324   2.896  0.1960  0.2694 -0.3270
 5164TIP3    H115456   1.015   3.270   2.928 -0.0610  0.0532 -0.1014
 5164TIP3    H215457   0.876   3.317   2.964  0.8308  2.3201  0.5548
 5165TIP3   OH215458   4.290   3.365   4.859 -0.0104 -0.5434  0.2439
 5165TIP3    H115459   4.223   3.409   4.806  1.7875 -1.3729 -2.9781
 5165TIP3    H215460   4.257   3.275   4.870  0.4602 -0.9181 -1.2321
 5166TIP3   OH215461   5.989   1.416   1.882  0.2399 -0.3468  0.3882
 5166TIP3    H115462   5.987   1.466   1.964  0.5833  0.1813  0.0811
 5166TIP3    H215463   6.069   1.446   1.838 -0.5667  0.2989 -0.7069
 5167TIP3   OH215464   2.019  -0.006   2.991 -0.3635  0.1286 -0.5277
 5167TIP3    H115465   1.965   0.008   3.070  0.3124  0.1857 -0.0665
 5167TIP3    H215466   2.024   0.081   2.951  1.7507  0.7970  0.9927
 5168TIP3   OH215467   5.922   1.968   2.607  0.7103  0.0545  0.4380
 5168TIP3    H115468   5.911   1.891   2.663 -0.4519 -0.5015 -0.5304
 5168TIP3    H215469   5.969   2.030   2.662  0.7609 -0.9625  1.5883
 5169TIP3   OH215470   0.924   5.112   2.266  0.0430  0.1822  0.1100
 5169TIP3    H115471   0.910   5.199   2.228  1.4942 -0.0585 -1.0363
 5169TIP3    H215472   0.852   5.059   2.231 -0.9530  0.9241  0.9519
 5170TIP3   OH215473   1.748   1.120   0.665 -0.0965 -0.0866 -0.1220
 5170TIP3    H115474   1.789   1.099   0.581 -0.0278  0.9372 -0.3557
 5170TIP3    H215475   1.660   1.083   0.658  0.4610 -1.5056  0.0339
 5171TIP3   OH215476   6.388   3.562   2.056  0.3102  0.3570 -0.0286
 5171TIP3    H115477   6.382   3.647   2.012  0.5890 -0.6483 -2.1281
 5171TIP3    H215478   6.475   3.529   2.032  0.0478 -0.7035  0.4233
 5172TIP3   OH215479   5.050   4.225   2.247 -0.7839  0.1782 -0.3626
 5172TIP3    H115480   5.045   4.130   2.262  2.1125 -0.2168 -1.3405
 5172TIP3    H215481   5.002   4.263   2.321 -0.9264 -2.0051  0.7512
 5173TIP3   OH215482   4.537   6.024   5.335  0.3093 -0.5747  0.0113
 5173TIP3    H115483   4.582   6.087   5.392 -0.2229  0.1787 -0.3981
 5173TIP3    H215484   4.509   5.954   5.394  0.3303 -0.1123  0.5744
 5174TIP3   OH215485   2.597   4.819   4.423 -0.1614  0.4448 -0.2637
 5174TIP3    H115486   2.548   4.866   4.356 -0.6328  0.4508  0.0765
 5174TIP3    H215487   2.604   4.882   4.495  1.1429  0.7631 -0.6509
 5175TIP3   OH215488   6.045   5.082   1.184  0.0293  0.0685  0.3612
 5175TIP3    H115489   6.127   5.120   1.153  0.0952  0.6879  1.2393
 5175TIP3    H215490   5.978   5.142   1.151  0.0075  0.0902  0.4444
 5176TIP3   OH215491   6.970   1.130   2.313  0.0182  0.5780  0.0003
 5176TIP3    H115492   6.905   1.149   2.245  0.4774 -0.6319 -0.7982
 5176TIP3    H215493   6.998   1.040   2.296  2.6075  1.3529 -0.2682
 5177TIP3   OH215494   2.217   4.436   3.498 -0.2401  0.3775  0.0378
 5177TIP3    H115495   2.311   4.441   3.483 -0.2602  1.3813  0.1830
 5177TIP3    H215496   2.207   4.444   3.593 -0.4562 -0.0921  0.0576
 5178TIP3   OH215497   3.604   2.473   0.771  0.0215  0.4556  0.3475
 5178TIP3    H115498   3.593   2.383   0.740  2.2358  0.3335 -0.2268
 5178TIP3    H215499   3.585   2.469   0.865 -2.9253  0.0690 -0.1547
 5179TIP3   OH215500   0.960   5.094   2.870 -0.0693  0.3240  0.0889
 5179TIP3    H115501   0.882   5.074   2.922  0.7351 -1.3754  0.7427
 5179TIP3    H215502   1.031   5.049   2.916  1.3693  2.0780 -0.3161
 5180TIP3   OH215503   5.315   3.483   5.436  0.5347  0.2325  0.0111
 5180TIP3    H115504   5.370   3.439   5.500  0.8376 -0.5154 -0.7369
 5180TIP3    H215505   5.370   3.490   5.358 -0.4716 -0.7340 -0.8289
 5181TIP3   OH215506   4.877   0.081   3.673 -0.3312 -0.0693  0.1847
 5181TIP3    H115507   4.894   0.115   3.761  0.2973 -0.6657  0.3087
 5181TIP3    H215508   4.783   0.090   3.661 -0.1475  2.0925  0.0345
 5182TIP3   OH215509   5.390   0.427   1.644 -0.3884 -0.7759  0.1547
 5182TIP3    H115510   5.359   0.385   1.724 -0.4598 -1.8700 -0.4291
 5182TIP3    H215511   5.481   0.398   1.637  0.3663  1.1850  1.0461
 5183TIP3   OH215512   3.297   0.544   3.088 -0.2765  0.3617 -0.7317
 5183TIP3    H115513   3.276   0.538   2.995 -2.1781  1.4520 -0.4052
 5183TIP3    H215514   3.254   0.468   3.128  0.3326  0.0319 -0.6774
 5184TIP3   OH215515   5.014   3.085   3.092  0.4029  0.1114  0.0476
 5184TIP3    H115516   5.062   3.020   3.143 -2.3048 -0.5063  2.0839
 5184TIP3    H215517   5.007   3.161   3.150 -0.9582  0.1943 -0.1906
 5185TIP3   OH215518   2.137   1.367   0.333  0.1824  0.2262  0.2375
 5185TIP3    H115519   2.102   1.365   0.244 -1.3408 -0.6877  0.8098
 5185TIP3    H215520   2.125   1.457   0.362  0.1440  0.3910 -0.2860
 5186TIP3   OH215521   0.389   0.221   3.237  0.0047 -0.0503  0.1646
 5186TIP3    H115522   0.450   0.285   3.201  0.5909 -1.3356 -1.2389
 5186TIP3    H215523   0.443   0.145   3.257 -1.0137 -0.9989 -0.5372
 5187TIP3   OH215524   6.160   5.466   2.284 -0.1288  0.1409 -0.3184
 5187TIP3    H115525   6.149   5.410   2.362 -2.9912 -0.8088 -1.2805
 5187TIP3    H215526   6.188   5.406   2.215  1.3328  0.7871 -0.3213
 5188TIP3   OH215527   4.895   5.651   4.986  0.4979  0.0743 -0.0426
 5188TIP3    H115528   4.949   5.721   5.024  0.5141  0.3131 -0.4994
 5188TIP3    H215529   4.953   5.575   4.984  0.9735  0.4431 -0.9437
 5189TIP3   OH215530   0.976   1.503   5.245  0.0066 -0.5764 -0.2442
 5189TIP3    H115531   1.049   1.562   5.229 -0.3797  0.2389  0.8663
 5189TIP3    H215532   0.909   1.529   5.182 -0.9493  1.6277  1.5109
 5190TIP3   OH215533   6.743   1.155   2.169  0.3253  0.1221  0.4926
 5190TIP3    H115534   6.690   1.199   2.235 -0.5602  1.1345 -0.8291
 5190TIP3    H215535   6.768   1.224   2.108 -0.5865 -1.0597 -1.3219
 5191TIP3   OH215536   1.175   0.250   0.749 -0.2277  0.4382 -0.4897
 5191TIP3    H115537   1.212   0.238   0.661 -1.6522 -1.1525 -0.9123
 5191TIP3    H215538   1.108   0.317   0.737  0.3356  1.0365 -0.3641
 5192TIP3   OH215539   1.213   4.558   0.041  0.0123 -0.0514  0.2354
 5192TIP3    H115540   1.191   4.625  -0.023  0.8945 -1.0874 -1.2317
 5192TIP3    H215541   1.131   4.538   0.086 -0.9445 -0.2435 -1.5350
 5193TIP3   OH215542   4.615   3.259   0.824 -0.2142  0.2631  0.3199
 5193TIP3    H115543   4.644   3.288   0.910 -0.9346  2.5518 -0.1339
 5193TIP3    H215544   4.519   3.266   0.827 -0.1662  2.6718 -1.3262
 5194TIP3   OH215545   2.820   3.157   4.862  0.3850 -0.2567  0.4200
 5194TIP3    H115546   2.824   3.078   4.809 -1.3813 -0.4323  0.4954
 5194TIP3    H215547   2.783   3.224   4.804 -1.0681 -0.3163  1.2199
 5195TIP3   OH215548   2.631   1.516   0.665 -0.1294  0.4380 -0.1393
 5195TIP3    H115549   2.703   1.515   0.602  0.7171 -0.2158  0.8062
 5195TIP3    H215550   2.672   1.497   0.749 -1.1540  1.7942  0.7148
 5196TIP3   OH215551   2.435   2.083   2.239  0.5917  0.1735  0.2636
 5196TIP3    H115552   2.437   2.151   2.171 -0.9584  0.0080  0.0155
 5196TIP3    H215553   2.360   2.028   2.216 -1.2343  1.2272  3.1578
 5197TIP3   OH215554   1.532   1.266   3.654  0.1551  0.0654 -0.1521
 5197TIP3    H115555   1.457   1.217   3.688  0.9828 -0.5158  0.8839
 5197TIP3    H215556   1.504   1.295   3.567 -1.5491  0.4821  0.4779
 5198TIP3   OH215557   5.374   4.810   4.858  0.6278  0.3751  0.5963
 5198TIP3    H115558   5.295   4.857   4.886 -1.0579 -0.5390 -2.1527
 5198TIP3    H215559   5.396   4.754   4.932 -0.1599  1.9895  2.1322
 5199TIP3   OH215560   1.244   0.265   0.475 -0.4768 -0.3823 -0.1758
 5199TIP3    H115561   1.297   0.343   0.489 -1.3937  0.1791  0.2945
 5199TIP3    H215562   1.157   0.299   0.455 -1.0732 -1.2907  0.7881
 5200TIP3   OH215563   4.732   5.017   3.818  0.4937  0.3863  0.6950
 5200TIP3    H115564   4.778   4.942   3.856  0.1392  0.4410  1.2446
 5200TIP3    H215565   4.697   4.984   3.736 -0.6599 -0.4185  1.4757
 5201TIP3   OH215566   0.342   1.309   5.601 -0.2646  0.5805  0.0517
 5201TIP3    H115567   0.328   1.215   5.610 -3.2233  1.0615  1.8992
 5201TIP3    H215568   0.365   1.339   5.689 -0.1953  1.7166 -0.3271
 5202TIP3   OH215569   3.423   5.252   4.055  0.4015 -0.0929  0.0216
 5202TIP3    H115570   3.511   5.282   4.074  0.3005  0.3233 -0.1525
 5202TIP3    H215571   3.404   5.286   3.968 -0.2119  0.4710  0.3612
 5203TIP3   OH215572   4.973   5.889   0.532  0.4329 -0.1228 -0.3841
 5203TIP3    H115573   4.913   5.881   0.458 -0.4230  0.7531  0.1866
 5203TIP3    H215574   4.949   5.818   0.591  0.4177 -0.1922 -0.4745
 5204TIP3   OH215575   2.831   1.171   1.842 -0.3846 -0.3400  0.5559
 5204TIP3    H115576   2.758   1.194   1.898 -0.4704  2.0644 -0.3980
 5204TIP3    H215577   2.909   1.200   1.890 -0.3143 -0.0041  0.2444
 5205TIP3   OH215578   4.024   4.068   4.669  0.5732 -0.1959 -0.2717
 5205TIP3    H115579   3.975   4.029   4.596  0.4273 -0.9321  0.2106
 5205TIP3    H215580   3.956   4.098   4.730  0.6636  1.1971 -0.7986
 5206TIP3   OH215581   2.630   1.349   2.542  0.2158 -0.2490 -0.1948
 5206TIP3    H115582   2.555   1.302   2.505  1.1351 -1.6196 -0.3884
 5206TIP3    H215583   2.674   1.387   2.466  0.3811 -0.4544 -0.2024
 5207TIP3   OH215584   2.232   4.720   1.359 -0.0678 -0.1241  0.4468
 5207TIP3    H115585   2.188   4.774   1.293  0.0593 -1.1518 -0.5100
 5207TIP3    H215586   2.177   4.727   1.437 -1.2125 -0.3255 -0.3220
 5208TIP3   OH215587   0.786   1.836   2.514 -0.2311 -0.1217 -0.3195
 5208TIP3    H115588   0.786   1.744   2.541  2.6343  0.0181  0.4394
 5208TIP3    H215589   0.722   1.878   2.572 -0.2649 -1.3179  0.5535
 5209TIP3   OH215590   2.938   1.620   4.047  0.5336 -0.2446  0.3398
 5209TIP3    H115591   2.856   1.624   3.997  1.1051 -0.1978 -0.6155
 5209TIP3    H215592   2.979   1.705   4.033  2.0128 -1.1992 -1.4223
 5210TIP3   OH215593   2.358   3.877   2.522  0.2598  0.1321  0.6409
 5210TIP3    H115594   2.373   3.786   2.498 -1.8131  0.0745 -0.6730
 5210TIP3    H215595   2.330   3.874   2.613 -0.0801 -0.5688  0.5148
 5211TIP3   OH215596   6.253   4.867   3.503  0.1930 -0.1006 -0.6328
 5211TIP3    H115597   6.325   4.837   3.447 -0.0934 -0.7348 -0.6710
 5211TIP3    H215598   6.294   4.925   3.567  0.4212  1.2802 -1.9719
 5212TIP3   OH215599   4.614   3.054   0.365 -0.1122  0.4741 -0.2606
 5212TIP3    H115600   4.562   3.118   0.317 -0.3669 -0.3704 -1.1291
 5212TIP3    H215601   4.618   2.977   0.308  0.1753 -0.3006  0.7593
 5213TIP3   OH215602   3.868   2.649   5.600  0.5293  0.6655  0.4593
 5213TIP3    H115603   3.834   2.576   5.652 -1.0774 -0.6464 -2.2150
 5213TIP3    H215604   3.853   2.623   5.509  1.2620  3.7129 -0.6613
 5214TIP3   OH215605   2.065   0.731   3.663  0.4220 -0.0316  0.1495
 5214TIP3    H115606   2.064   0.812   3.611  0.8084  0.3748  0.7718
 5214TIP3    H215607   2.143   0.684   3.633  1.5964  0.9687  1.4998
 5215TIP3   OH215608   3.898   0.312   2.596  0.0702  0.0368 -0.3365
 5215TIP3    H115609   3.883   0.258   2.674 -0.9283 -0.4230 -0.8236
 5215TIP3    H215610   3.834   0.383   2.603  1.0658  0.9258  0.0644
 5216TIP3   OH215611   2.478   2.352   5.686 -0.1389 -0.1732 -0.1307
 5216TIP3    H115612   2.449   2.281   5.629 -2.1079  1.1085 -0.8299
 5216TIP3    H215613   2.423   2.344   5.765  1.5210 -1.0211  0.9974
 5217TIP3   OH215614   4.824   0.580   0.538  0.3147 -0.0512 -0.2946
 5217TIP3    H115615   4.732   0.560   0.554  1.0410 -2.2759  1.6218
 5217TIP3    H215616   4.861   0.499   0.504  1.7917  0.4453  0.0555
 5218TIP3   OH215617   0.453   6.465   5.346  0.0931  0.7443  0.3224
 5218TIP3    H115618   0.384   6.531   5.356 -0.6868 -0.2136  1.6085
 5218TIP3    H215619   0.445   6.435   5.255 -0.6632  1.2091  0.2256
 5219TIP3   OH215620   5.450   3.610   5.195 -0.5891 -0.3013  0.5240
 5219TIP3    H115621   5.457   3.516   5.177  0.0027 -0.4184  1.3212
 5219TIP3    H215622   5.528   3.631   5.247 -0.3851  0.7640 -0.1650
 5220TIP3   OH215623   1.600   0.144   2.060  0.7131 -0.2867  0.5869
 5220TIP3    H115624   1.554   0.170   1.980  0.5749 -1.2049  0.3627
 5220TIP3    H215625   1.622   0.227   2.102 -0.4558  0.1798  0.3097
 5221TIP3   OH215626   6.807   1.090   4.681 -0.3346  0.1906  0.0438
 5221TIP3    H115627   6.735   1.151   4.697 -0.5547 -0.5079  2.1177
 5221TIP3    H215628   6.766   1.003   4.684  0.8053 -0.4772  4.4827
 5222TIP3   OH215629   1.688   4.797   5.408  0.4010 -0.3503  0.0232
 5222TIP3    H115630   1.731   4.713   5.396  0.8527 -0.0668 -0.4091
 5222TIP3    H215631   1.635   4.809   5.329  0.7348 -0.0031 -0.1516
 5223TIP3   OH215632   6.930   3.177   2.820 -0.4041 -0.8224 -0.1344
 5223TIP3    H115633   6.916   3.087   2.791 -0.6345 -0.8769  0.1394
 5223TIP3    H215634   6.906   3.176   2.913 -1.2047 -0.2863 -0.3252
 5224TIP3   OH215635   1.219   3.790   3.445 -0.1052  0.5612  0.3728
 5224TIP3    H115636   1.177   3.862   3.493 -0.5708  1.6095 -1.5055
 5224TIP3    H215637   1.312   3.814   3.443 -0.0387  0.3790  0.9193
 5225TIP3   OH215638   6.386   6.343   5.801  0.1102  0.5761 -0.0020
 5225TIP3    H115639   6.330   6.305   5.733  0.3160 -0.0905  0.1911
 5225TIP3    H215640   6.331   6.409   5.844 -1.1004 -1.1288  1.2303
 5226TIP3   OH215641   2.256   3.622   2.500  0.3575 -0.1930 -0.3627
 5226TIP3    H115642   2.301   3.557   2.447 -0.8757 -2.8352  1.6185
 5226TIP3    H215643   2.164   3.615   2.474  0.0035 -0.2776  0.8322
 5227TIP3   OH215644   5.973   2.194   2.738  0.4545 -0.9111 -0.4423
 5227TIP3    H115645   6.047   2.160   2.788  1.4736 -0.0475 -1.3116
 5227TIP3    H215646   5.905   2.209   2.803  1.3101 -1.0019  0.4991
 5228TIP3   OH215647   2.909   1.695   0.073  0.1132 -0.3988  0.6340
 5228TIP3    H115648   2.860   1.645   0.139  0.3321  0.4957  1.4963
 5228TIP3    H215649   2.845   1.754   0.035  0.0605 -0.6908  0.2653
 5229TIP3   OH215650   5.741   1.859   2.232 -0.4671  0.0764 -0.0371
 5229TIP3    H115651   5.811   1.830   2.291 -0.9292  1.3598  1.1893
 5229TIP3    H215652   5.787   1.879   2.150  0.3899 -0.4033  0.3005
 5230TIP3   OH215653   6.548   6.079   4.696  0.0302  0.1183  0.2777
 5230TIP3    H115654   6.483   6.045   4.758 -1.4553  0.8291 -0.8182
 5230TIP3    H215655   6.600   6.140   4.747  0.1615 -0.8076  1.2982
 5231TIP3   OH215656   5.339   6.302   5.768  0.4519 -0.4359 -0.6676
 5231TIP3    H115657   5.291   6.231   5.811 -4.3518  2.9429  0.2639
 5231TIP3    H215658   5.402   6.331   5.834 -1.0207 -0.6699  0.9167
 5232TIP3   OH215659   5.660   0.202   3.835  0.7843  0.4410  0.0050
 5232TIP3    H115660   5.633   0.228   3.923  1.0036  1.3534 -0.1826
 5232TIP3    H215661   5.689   0.112   3.844 -1.5798 -0.3580  0.3727
 5233TIP3   OH215662   0.324   1.937   1.989  0.0453  0.1275  0.6668
 5233TIP3    H115663   0.346   2.029   2.000  0.4374  0.1340 -0.1448
 5233TIP3    H215664   0.406   1.890   2.001  0.3601  0.0800 -1.3311
 5234TIP3   OH215665   6.856   6.288   3.547  0.0111 -0.2356 -0.3631
 5234TIP3    H115666   6.935   6.316   3.500  1.2943 -3.1440 -0.1515
 5234TIP3    H215667   6.784   6.304   3.486  1.1676 -0.3582 -1.8024
 5235TIP3   OH215668   2.659   6.587   3.767  0.0788  0.2291 -0.6757
 5235TIP3    H115669   2.720   6.660   3.782 -1.5885  1.8567 -1.3986
 5235TIP3    H215670   2.612   6.578   3.850  1.7597 -1.5664  0.1529
 5236TIP3   OH215671   0.588   1.997   1.020  0.2995 -0.0167  0.6052
 5236TIP3    H115672   0.641   1.918   1.025  0.4629 -0.3504 -3.3758
 5236TIP3    H215673   0.650   2.067   1.001 -0.2948  0.2326 -0.4682
 5237TIP3   OH215674   1.098   6.064   1.247 -0.7437  0.3978  0.1131
 5237TIP3    H115675   1.076   5.990   1.303  0.4338 -1.0113 -1.2081
 5237TIP3    H215676   1.041   6.053   1.170 -0.1191  0.4771 -0.3692
 5238TIP3   OH215677   6.000   2.882   0.473  0.1315 -0.2089 -0.3148
 5238TIP3    H115678   6.069   2.930   0.519 -0.3950  1.6443 -1.3252
 5238TIP3    H215679   6.020   2.790   0.488 -0.0559  0.2245  3.6226
 5239TIP3   OH215680   0.514   2.251   1.415 -0.1576  1.1828  0.0616
 5239TIP3    H115681   0.420   2.237   1.404 -0.2619  1.3985  0.6146
 5239TIP3    H215682   0.521   2.306   1.494  0.4180  1.3481 -0.0966
 5240TIP3   OH215683   2.473   0.082   1.392 -0.0009  0.1331 -0.5452
 5240TIP3    H115684   2.423   0.047   1.466  0.5564 -0.7778 -0.5886
 5240TIP3    H215685   2.428   0.049   1.315  1.0372 -1.2588 -0.5817
 5241TIP3   OH215686   0.865   1.380   4.520 -0.2167  0.3002  0.1294
 5241TIP3    H115687   0.824   1.346   4.600 -0.8570 -0.7182 -0.6071
 5241TIP3    H215688   0.825   1.329   4.450  0.9899  0.5640 -0.7677
 5242TIP3   OH215689   6.465   2.961   4.007 -0.3347  0.1500  0.1515
 5242TIP3    H115690   6.558   2.957   3.985 -0.1257 -2.7684  1.1795
 5242TIP3    H215691   6.463   2.995   4.097 -0.1992 -0.4035  0.3664
 5243TIP3   OH215692   2.419   1.360   5.454  0.4068  0.2713 -0.3684
 5243TIP3    H115693   2.440   1.316   5.372  0.8441  0.1701 -0.2023
 5243TIP3    H215694   2.495   1.345   5.510 -0.2349 -0.3664  0.3533
 5244TIP3   OH215695   1.255   2.320   0.134 -0.2466  0.3519 -0.0224
 5244TIP3    H115696   1.211   2.269   0.066 -0.0918  1.1036 -0.6982
 5244TIP3    H215697   1.201   2.399   0.143 -0.7158 -0.0892  1.3027
 5245TIP3   OH215698   4.697   5.011   2.598 -0.8141  0.1490  0.2077
 5245TIP3    H115699   4.751   5.077   2.642 -0.2977 -1.6330  2.4475
 5245TIP3    H215700   4.629   4.990   2.662 -1.5924 -0.7508 -0.8810
 5246TIP3   OH215701   1.879   1.679   1.457 -0.2100  0.1056  0.0312
 5246TIP3    H115702   1.796   1.721   1.434 -0.7917  0.1974  2.0867
 5246TIP3    H215703   1.908   1.726   1.535  0.5830 -1.4580  0.7196
 5247TIP3   OH215704   2.256   2.782   0.583  0.0838  0.2044 -0.3296
 5247TIP3    H115705   2.308   2.846   0.632  2.1390 -0.7275 -1.1698
 5247TIP3    H215706   2.294   2.783   0.495  1.0567 -3.0233 -0.0478
 5248TIP3   OH215707   6.550   6.639   2.978  0.1250  0.3261  0.2337
 5248TIP3    H115708   6.609   6.713   2.991 -0.0760  0.0478  3.6089
 5248TIP3    H215709   6.463   6.674   2.998 -0.2745 -0.2979 -0.3694
 5249TIP3   OH215710   2.676   1.544   4.297 -0.4729 -0.3380  0.1609
 5249TIP3    H115711   2.596   1.579   4.335  0.6606  1.3335  1.1480
 5249TIP3    H215712   2.677   1.576   4.207  0.1483  1.5801  0.8105
 5250TIP3   OH215713   7.030   5.773   1.800 -0.8424  0.1989 -0.0792
 5250TIP3    H115714   7.105   5.829   1.783 -1.3752  1.0863  0.4004
 5250TIP3    H215715   7.030   5.709   1.729 -0.4368  1.0362 -0.8443
 5251TIP3   OH215716   5.676   0.415   2.276 -0.0224  0.2741 -0.2699
 5251TIP3    H115717   5.590   0.384   2.305 -0.4552  0.1364 -1.6362
 5251TIP3    H215718   5.672   0.510   2.287 -0.1285  0.2148  0.2273
 5252TIP3   OH215719   5.640   2.694   3.798  0.5331  0.1943  0.4198
 5252TIP3    H115720   5.558   2.665   3.757  0.2425  1.7446 -0.1675
 5252TIP3    H215721   5.615   2.721   3.886  0.0058  2.3845 -0.3372
 5253TIP3   OH215722   6.590   3.685   1.450 -0.4199 -0.3116  0.4004
 5253TIP3    H115723   6.513   3.707   1.502  1.7801  2.2249  2.9560
 5253TIP3    H215724   6.584   3.740   1.373 -1.1786 -0.1301  0.5861
 5254TIP3   OH215725   2.172   5.422   2.628 -0.6751 -0.3539  0.2759
 5254TIP3    H115726   2.185   5.332   2.656 -2.0493 -0.5703  0.2995
 5254TIP3    H215727   2.200   5.423   2.536 -0.3587 -0.7182  0.3654
 5255TIP3   OH215728   2.844   5.976   0.284 -0.7685 -0.3515 -0.0558
 5255TIP3    H115729   2.871   6.032   0.210 -0.3334 -1.7907 -1.0265
 5255TIP3    H215730   2.781   6.029   0.333  0.3102  1.3319 -0.4153
 5256TIP3   OH215731   2.709   2.223   0.599 -0.3442  0.0694 -0.3893
 5256TIP3    H115732   2.700   2.175   0.517 -0.0265  3.1391 -2.3901
 5256TIP3    H215733   2.620   2.252   0.620 -0.2317  0.4391 -0.4138
 5257TIP3   OH215734   3.748   1.123   0.233  0.0701  0.2687  0.2193
 5257TIP3    H115735   3.670   1.171   0.205  0.2223  0.8378  0.7670
 5257TIP3    H215736   3.822   1.174   0.200  0.2271  0.1558  0.3943
 5258TIP3   OH215737   3.625   6.746   3.264 -0.6108  0.1115  0.2323
 5258TIP3    H115738   3.583   6.824   3.227  1.3451  1.6343  1.0211
 5258TIP3    H215739   3.702   6.732   3.209  0.5677  0.4692  1.7251
 5259TIP3   OH215740   1.468   3.409   5.863 -0.0898  0.1219 -0.0064
 5259TIP3    H115741   1.514   3.469   5.805  0.2804  0.4390  0.6002
 5259TIP3    H215742   1.375   3.426   5.848 -0.0244 -0.5643 -1.2870
 5260TIP3   OH215743   6.640   4.043   0.595  0.4767  0.2192 -0.4477
 5260TIP3    H115744   6.692   4.120   0.618 -0.1099  0.3438  0.5451
 5260TIP3    H215745   6.558   4.055   0.643  0.0472 -0.6054 -0.9612
 5261TIP3   OH215746   2.999   6.141   3.039  0.1582  0.5981  0.2605
 5261TIP3    H115747   3.006   6.046   3.050  2.2065  0.6638 -0.2014
 5261TIP3    H215748   2.923   6.165   3.092  1.7197 -0.8263  3.3790
 5262TIP3   OH215749   6.316   0.198   3.226 -0.3443 -0.5649 -0.0564
 5262TIP3    H115750   6.331   0.246   3.307 -0.8061  1.1401 -0.9287
 5262TIP3    H215751   6.357   0.112   3.241  0.0937 -0.0908  1.7366
 5263TIP3   OH215752   1.740   2.190   0.102 -0.5776 -0.1852 -0.1635
 5263TIP3    H115753   1.656   2.232   0.120 -0.1347  0.7096 -0.1166
 5263TIP3    H215754   1.791   2.257   0.057 -0.3651 -1.1786 -1.4499
 5264TIP3   OH215755   1.820   4.234   2.306 -0.3267 -0.3845 -0.4370
 5264TIP3    H115756   1.894   4.249   2.365 -0.1155 -1.3695 -0.4354
 5264TIP3    H215757   1.781   4.320   2.295  0.7209  0.1314 -0.3036
 5265TIP3   OH215758   6.902   5.619   0.512  0.1307 -0.2413 -0.5796
 5265TIP3    H115759   6.911   5.692   0.451  0.4862  1.0183  0.9091
 5265TIP3    H215760   6.942   5.545   0.467  1.2057  0.8567 -1.5042
 5266TIP3   OH215761   1.492   0.241   4.820  0.0309  0.1489  0.3891
 5266TIP3    H115762   1.508   0.236   4.914  2.4171 -1.1013  0.0050
 5266TIP3    H215763   1.478   0.150   4.793 -1.4567  0.5811 -0.3606
 5267TIP3   OH215764   4.343   3.668   5.087 -0.5338 -0.2214 -0.4235
 5267TIP3    H115765   4.381   3.755   5.100  1.0807 -1.2192  2.2735
 5267TIP3    H215766   4.254   3.676   5.120 -0.6926  0.5974 -1.0126
 5268TIP3   OH215767   2.636   1.639   2.695 -0.0182  0.2227  0.3802
 5268TIP3    H115768   2.679   1.653   2.610 -1.9942  0.0210 -0.7098
 5268TIP3    H215769   2.574   1.712   2.702 -2.0405 -1.3799  0.1744
 5269TIP3   OH215770   1.151   6.720   5.812 -0.4393 -0.4783  0.0862
 5269TIP3    H115771   1.245   6.726   5.829 -0.3628 -0.1784 -0.4513
 5269TIP3    H215772   1.111   6.720   5.900  0.0708 -0.8665  0.3233
 5270TIP3   OH215773   5.300   2.313   4.829  0.7952  0.6049 -0.3607
 5270TIP3    H115774   5.309   2.405   4.805  1.8406  0.6205  0.0025
 5270TIP3    H215775   5.348   2.305   4.912  1.6008 -0.4610 -0.8990
 5271TIP3   OH215776   4.861   1.528   1.133  0.4386 -0.1530 -0.1056
 5271TIP3    H115777   4.835   1.620   1.132  1.6648  0.2010 -0.7858
 5271TIP3    H215778   4.795   1.486   1.188 -1.4386  0.7365 -1.5114
 5272TIP3   OH215779   0.033   0.401   5.520 -0.3976 -0.4113  0.5113
 5272TIP3    H115780  -0.012   0.318   5.504 -1.8819  0.3123  0.7446
 5272TIP3    H215781   0.073   0.390   5.606 -0.2795 -1.0111  0.3839
 5273TIP3   OH215782   3.255   6.556   5.197 -0.0594 -0.8180  0.1728
 5273TIP3    H115783   3.206   6.531   5.276 -0.0696 -0.3398  0.3211
 5273TIP3    H215784   3.292   6.642   5.218  1.7437 -1.6272  0.4557
 5274TIP3   OH215785   4.711   3.051   2.659  0.6401 -0.8708  0.2160
 5274TIP3    H115786   4.750   3.012   2.738 -0.0396 -0.4973  0.7416
 5274TIP3    H215787   4.758   3.009   2.587 -0.0331 -2.6654  0.7521
 5275TIP3   OH215788   5.589   0.561   5.617 -0.6901 -0.0029 -0.5144
 5275TIP3    H115789   5.609   0.509   5.695  0.3762  1.5909  0.3315
 5275TIP3    H215790   5.598   0.652   5.646  0.1906  0.6286 -2.6170
 5276TIP3   OH215791   2.109   4.658   1.629 -0.6961  0.0923 -0.1925
 5276TIP3    H115792   2.034   4.693   1.583 -1.0158 -1.2041 -0.7032
 5276TIP3    H215793   2.086   4.567   1.648  0.5284 -0.1849  0.0953
 5277TIP3   OH215794   0.101   3.978   1.312 -0.2871 -0.2429 -0.5474
 5277TIP3    H115795   0.119   4.001   1.403 -1.8349  1.4827 -0.6197
 5277TIP3    H215796   0.185   3.988   1.268  0.4848 -1.1036  0.6569
 5278TIP3   OH215797   3.169   1.468   4.768 -0.3354 -0.1262 -0.2811
 5278TIP3    H115798   3.200   1.378   4.759  0.5466  0.2099 -0.7262
 5278TIP3    H215799   3.180   1.487   4.862  3.3748  0.8149 -0.7354
 5279TIP3   OH215800   1.189   2.028   4.144  0.3215 -0.1627 -0.2564
 5279TIP3    H115801   1.249   2.024   4.218  1.0747  3.1582 -0.5383
 5279TIP3    H215802   1.239   1.992   4.071  1.3174  0.8854 -0.1088
 5280TIP3   OH215803   6.656   3.550   3.615  0.1518 -0.0823  0.1835
 5280TIP3    H115804   6.742   3.515   3.634 -0.6147 -1.3402  1.4834
 5280TIP3    H215805   6.594   3.489   3.656 -1.5908 -1.4902 -3.9931
 5281TIP3   OH215806   5.965   1.841   2.376 -0.4601  0.0683  0.6920
 5281TIP3    H115807   5.960   1.879   2.463 -0.8635  0.4664  0.4968
 5281TIP3    H215808   6.030   1.771   2.384 -0.4147  0.1757  1.2810
 5282TIP3   OH215809   5.008   2.950   0.275  0.3805  0.0842 -0.1772
 5282TIP3    H115810   4.931   2.971   0.222 -0.8410 -0.9159  1.1310
 5282TIP3    H215811   5.072   3.018   0.253 -1.3170  1.6862 -0.3754
 5283TIP3   OH215812   2.067   0.813   1.317  0.0625 -0.2823  0.3748
 5283TIP3    H115813   2.070   0.783   1.226  0.6831 -1.1578  0.6675
 5283TIP3    H215814   2.122   0.891   1.318  2.2330 -1.7196  0.4822
 5284TIP3   OH215815   2.958   5.468   4.951  0.1614  0.0179 -0.1180
 5284TIP3    H115816   3.044   5.490   4.988  0.4911  0.4843 -1.1287
 5284TIP3    H215817   2.963   5.496   4.860  0.4690 -3.8841 -1.4978
 5285TIP3   OH215818   2.131   5.016   4.675  0.3037  0.0999 -0.3596
 5285TIP3    H115819   2.079   5.050   4.602  0.8944 -1.3226 -1.4968
 5285TIP3    H215820   2.206   5.075   4.681  0.6414 -0.1984 -1.4274
 5286TIP3   OH215821   5.033   0.861   2.809 -0.1526 -0.0424 -0.0460
 5286TIP3    H115822   5.124   0.847   2.835 -0.6600 -0.9446  1.3534
 5286TIP3    H215823   5.033   0.948   2.769  1.2664  0.1135  0.2324
 5287TIP3   OH215824   1.942   2.341   1.929 -0.1943  0.2081 -0.0542
 5287TIP3    H115825   2.013   2.280   1.949  0.0920  0.7602  0.6563
 5287TIP3    H215826   1.866   2.285   1.915  0.3212 -0.3778 -0.5918
 5288TIP3   OH215827   5.504   0.701   2.181  0.0453  0.3039  0.6419
 5288TIP3    H115828   5.478   0.785   2.218 -0.2051  0.0746  1.0009
 5288TIP3    H215829   5.423   0.662   2.149  0.5691  1.8119 -3.0611
 5289TIP3   OH215830   3.157   3.909   5.053  0.0165  0.3290 -0.7970
 5289TIP3    H115831   3.080   3.853   5.061  0.0919  0.3617  0.2865
 5289TIP3    H215832   3.207   3.870   4.981 -0.5729 -0.2108 -0.9296
 5290TIP3   OH215833   5.943   2.489   5.282 -0.0963  0.3618  0.1749
 5290TIP3    H115834   5.940   2.415   5.344 -2.4464  0.3062  0.0635
 5290TIP3    H215835   5.986   2.559   5.332  0.7068 -0.5611  0.8357
 5291TIP3   OH215836   6.031   0.783   3.577 -0.3244 -0.6580 -0.1330
 5291TIP3    H115837   5.951   0.828   3.548  0.0311 -0.8625 -1.5071
 5291TIP3    H215838   6.029   0.699   3.531  1.5669  0.0621 -1.6740
 5292TIP3   OH215839   4.264   5.621   3.267  0.4600  0.1104 -0.0949
 5292TIP3    H115840   4.185   5.571   3.251 -0.9205  1.7954  1.0758
 5292TIP3    H215841   4.286   5.659   3.182  0.1184 -0.5038 -0.4605
 5293TIP3   OH215842   4.537   0.599   2.114  0.3776  0.9061  0.4179
 5293TIP3    H115843   4.496   0.529   2.063  1.2474 -0.0281  0.9550
 5293TIP3    H215844   4.464   0.648   2.151 -0.2553  0.2756  0.0349
 5294TIP3   OH215845   4.634   3.032   4.322 -0.1252 -0.2734 -0.5800
 5294TIP3    H115846   4.642   3.101   4.388 -1.8243  0.7099 -1.3200
 5294TIP3    H215847   4.651   2.951   4.369 -1.4552  0.3788  1.1315
 5295TIP3   OH215848   2.563   4.418   0.425 -0.0919  0.1136  0.6197
 5295TIP3    H115849   2.601   4.485   0.482 -0.2323  0.4042  0.3765
 5295TIP3    H215850   2.496   4.464   0.376 -1.1412 -0.5050  1.4262
 5296TIP3   OH215851   6.666   3.828   1.687  0.4070  0.0423 -0.3581
 5296TIP3    H115852   6.630   3.758   1.633  0.3404 -0.2282  0.0405
 5296TIP3    H215853   6.590   3.882   1.709  0.6687  1.1645 -1.9966
 5297TIP3   OH215854   4.119   4.301   5.887  0.4258 -1.1363 -0.1153
 5297TIP3    H115855   4.213   4.313   5.903  0.4123  2.3086 -1.5939
 5297TIP3    H215856   4.110   4.312   5.792 -1.5476 -0.7435  0.0882
 5298TIP3   OH215857   6.975   4.773   3.196  0.8357  0.4292 -0.0401
 5298TIP3    H115858   6.915   4.728   3.255  1.2011  0.3289  0.2566
 5298TIP3    H215859   6.921   4.797   3.120  0.3750  0.5322  0.3188
 5299TIP3   OH215860   2.167   5.541   1.994  0.0277  0.1664  0.1414
 5299TIP3    H115861   2.208   5.457   1.977  1.5926  1.0936 -0.9057
 5299TIP3    H215862   2.221   5.581   2.062 -0.7987  0.2841  0.7462
 5300TIP3   OH215863   2.019   0.679   1.542 -0.4575 -0.2135  0.3698
 5300TIP3    H115864   2.103   0.636   1.556 -0.7250 -1.5490 -1.7134
 5300TIP3    H215865   2.035   0.741   1.471 -1.6406 -2.0381 -1.5986
 5301TIP3   OH215866   3.272   1.006   0.779 -0.2242  0.3871 -0.1555
 5301TIP3    H115867   3.305   0.964   0.858  0.8296  0.7475 -0.3863
 5301TIP3    H215868   3.342   0.996   0.715 -1.8126 -1.5743 -1.6811
 5302TIP3   OH215869   2.227   1.213   1.055  0.4108 -0.1136 -0.7568
 5302TIP3    H115870   2.150   1.265   1.033 -0.7088 -0.8735  1.1157
 5302TIP3    H215871   2.224   1.139   0.994 -1.1410 -0.8434  0.1535
 5303TIP3   OH215872   4.577   4.765   1.516  0.2179  0.0572 -0.2594
 5303TIP3    H115873   4.500   4.754   1.573  0.6027  0.4562  0.3626
 5303TIP3    H215874   4.545   4.817   1.443  0.0321  0.8081  0.3346
 5304TIP3   OH215875   7.079   6.058   5.003  0.3304  0.5749  0.1157
 5304TIP3    H115876   7.013   6.107   5.051 -0.6406  0.2123 -0.8216
 5304TIP3    H215877   7.070   5.968   5.034  2.0589  0.8936  1.7756
 5305TIP3   OH215878   3.159   2.119   4.277 -0.2433 -0.6140 -0.2498
 5305TIP3    H115879   3.162   2.072   4.360 -0.4707  0.9903  0.7209
 5305TIP3    H215880   3.127   2.206   4.300  2.6688  0.9373 -1.5002
 5306TIP3   OH215881   5.756   1.557   0.063  0.1317  0.6196  0.0984
 5306TIP3    H115882   5.818   1.584  -0.004  0.2791  0.6802  0.2589
 5306TIP3    H215883   5.754   1.630   0.125 -1.2846  1.3140 -0.7160
 5307TIP3   OH215884   6.357   4.511   2.158 -0.7300 -0.3826  0.2352
 5307TIP3    H115885   6.274   4.515   2.205 -0.8169  0.0831  0.0424
 5307TIP3    H215886   6.381   4.418   2.160 -0.7563 -0.3827  1.1562
 5308TIP3   OH215887   4.990   3.907   4.805 -0.0193  0.0404 -0.6294
 5308TIP3    H115888   5.038   3.827   4.783  0.7500  0.1983  0.4076
 5308TIP3    H215889   4.898   3.882   4.798  0.1826 -0.4363 -2.0640
 5309TIP3   OH215890   3.779   5.861   2.308 -0.3081 -0.1493 -0.0522
 5309TIP3    H115891   3.785   5.956   2.319  0.5941 -0.1307 -0.6671
 5309TIP3    H215892   3.842   5.840   2.239  0.5695 -1.3730  1.0625
 5310TIP3   OH215893   2.613   5.258   1.510  0.3265  0.3421  0.3040
 5310TIP3    H115894   2.551   5.293   1.574  1.1968  1.1909  0.6970
 5310TIP3    H215895   2.612   5.163   1.525  0.0197  0.4671  1.1082
 5311TIP3   OH215896   4.433   1.571   1.227 -0.7581 -0.4490 -0.0801
 5311TIP3    H115897   4.489   1.566   1.304  1.6512  1.1140 -1.5866
 5311TIP3    H215898   4.384   1.652   1.237 -0.4605 -0.2572 -0.1699
 5312TIP3   OH215899   0.928   1.224   3.762 -0.1619 -0.1557  0.1966
 5312TIP3    H115900   0.851   1.184   3.802 -0.3286 -0.7331 -0.6634
 5312TIP3    H215901   0.899   1.245   3.673  0.1068  1.3434  0.4319
 5313TIP3   OH215902   0.943   2.778   0.881  0.1423  0.5758 -0.2436
 5313TIP3    H115903   0.870   2.807   0.827  1.1633  1.3114 -1.2840
 5313TIP3    H215904   0.975   2.858   0.923  0.6892  0.3530 -0.2350
 5314TIP3   OH215905   4.219   4.249   0.351  0.0838  0.0585 -0.0007
 5314TIP3    H115906   4.176   4.305   0.416  1.5556 -0.3683  1.4147
 5314TIP3    H215907   4.268   4.310   0.296 -0.2029  0.3373  0.0504
 5315TIP3   OH215908   5.792   2.600   1.892  0.0855 -0.0102  1.0423
 5315TIP3    H115909   5.809   2.506   1.882 -1.2514 -0.3931  2.1647
 5315TIP3    H215910   5.729   2.620   1.823 -1.3662 -0.4515  2.2075
 5316TIP3   OH215911   4.899   0.099   5.267  0.3259  0.0412  0.0837
 5316TIP3    H115912   4.819   0.137   5.304 -1.9738  0.1686 -4.3267
 5316TIP3    H215913   4.935   0.168   5.212  0.5362 -1.5960 -1.9437
 5317TIP3   OH215914   0.294   4.072   1.137  0.0278  0.3450 -0.0519
 5317TIP3    H115915   0.381   4.105   1.158  0.0829  0.2124 -0.0723
 5317TIP3    H215916   0.310   3.989   1.091 -0.1028  0.4258 -0.2423
 5318TIP3   OH215917   4.642   2.368   5.759 -0.2321 -0.4689 -0.4866
 5318TIP3    H115918   4.620   2.450   5.714 -0.8043 -0.4855 -0.2432
 5318TIP3    H215919   4.559   2.321   5.765 -0.2098 -0.3775  0.7494
 5319TIP3   OH215920   1.942   6.003   0.553 -0.4038  0.7738  0.0900
 5319TIP3    H115921   1.902   6.078   0.509  1.6560  1.6681 -0.3669
 5319TIP3    H215922   1.872   5.968   0.609 -1.5136  2.8210  0.0824
 5320TIP3   OH215923   2.369   2.318   4.780 -0.4313  0.1654  0.2956
 5320TIP3    H115924   2.314   2.253   4.737 -0.0599 -0.1595  0.3051
 5320TIP3    H215925   2.456   2.278   4.783  0.1793  1.3005 -1.1341
 5321TIP3   OH215926   2.962   4.606   5.351  0.4258  0.1473  0.0777
 5321TIP3    H115927   2.889   4.657   5.315 -1.5638 -3.4333 -1.4416
 5321TIP3    H215928   2.923   4.555   5.422  1.6643 -1.1541 -0.1447
 5322TIP3   OH215929   2.414   0.042   4.626 -0.1933  0.2856  0.6865
 5322TIP3    H115930   2.395  -0.050   4.639  1.1054 -0.0625  0.3049
 5322TIP3    H215931   2.411   0.054   4.531  1.8571  0.0739  0.5407
 5323TIP3   OH215932   5.399   3.855   1.678 -0.6879  0.4879 -0.1642
 5323TIP3    H115933   5.455   3.887   1.750  0.4910 -1.9560  0.0797
 5323TIP3    H215934   5.454   3.863   1.600 -2.1623  3.6851 -1.0518
 5324TIP3   OH215935   1.442   5.445   3.955 -0.1178 -0.2269 -0.2906
 5324TIP3    H115936   1.477   5.523   3.997 -0.4150  0.8810 -2.0094
 5324TIP3    H215937   1.446   5.464   3.862 -1.8669 -1.5459 -0.6921
 5325TIP3   OH215938   1.572   0.100   0.953 -0.0488  0.3796  0.2381
 5325TIP3    H115939   1.619   0.171   0.908 -0.5686  1.1485  0.8940
 5325TIP3    H215940   1.486   0.099   0.911  0.5166 -1.0438 -0.9781
 5326TIP3   OH215941   0.152   0.791   4.423  0.2557  0.1616 -0.0896
 5326TIP3    H115942   0.128   0.784   4.331 -1.1421 -0.2246  0.2807
 5326TIP3    H215943   0.236   0.836   4.423  1.0337 -1.2077 -1.6328
 5327TIP3   OH215944   2.216   6.735   2.552  0.1226  0.2625  0.5374
 5327TIP3    H115945   2.140   6.792   2.539 -0.3688 -0.5936 -0.4013
 5327TIP3    H215946   2.197   6.687   2.633 -0.6648 -0.4537 -0.0616
 5328TIP3   OH215947   6.495   4.566   0.181 -0.4870  0.2337  0.3419
 5328TIP3    H115948   6.458   4.521   0.105 -1.1496 -0.0359  0.8099
 5328TIP3    H215949   6.548   4.637   0.145  0.3171 -0.7290 -0.4034
 5329TIP3   OH215950   2.712   4.917   4.163 -0.1006 -0.1300  0.0933
 5329TIP3    H115951   2.622   4.919   4.196 -0.0006  1.0545  0.3341
 5329TIP3    H215952   2.702   4.902   4.069 -0.6980  2.2697 -0.2781
 5330TIP3   OH215953   6.541   1.777   5.808 -0.2150  0.3861  0.1680
 5330TIP3    H115954   6.541   1.681   5.815  0.0052  0.4334  0.9151
 5330TIP3    H215955   6.633   1.802   5.820 -0.5474  0.8178  2.3610
 5331TIP3   OH215956   0.715   2.213   0.403  0.0233  0.0309 -0.1348
 5331TIP3    H115957   0.685   2.214   0.494 -1.3939  1.2810 -0.5776
 5331TIP3    H215958   0.803   2.251   0.406  0.2873 -0.6100  0.7836
 5332TIP3   OH215959   1.893   4.347   2.554 -0.4099  0.0404 -0.0146
 5332TIP3    H115960   1.900   4.255   2.579  0.2472 -0.0350 -0.4516
 5332TIP3    H215961   1.983   4.377   2.545 -0.6023  0.9683  0.9639
 5333TIP3   OH215962   4.233   1.077   4.064 -0.2541 -0.1333  0.2280
 5333TIP3    H115963   4.254   1.064   4.156  1.6010  0.0035 -0.1400
 5333TIP3    H215964   4.269   1.164   4.043 -0.8068 -0.0853 -0.5761
 5334TIP3   OH215965   1.821   0.662   2.389  0.1043 -0.5055 -0.2000
 5334TIP3    H115966   1.861   0.633   2.307 -0.7582  0.7146 -1.0926
 5334TIP3    H215967   1.730   0.680   2.366 -0.4737 -1.3081  1.3283
 5335TIP3   OH215968   4.432   4.376   0.210  0.1389 -0.0562 -0.2370
 5335TIP3    H115969   4.446   4.462   0.248  1.9695 -0.6884  0.6489
 5335TIP3    H215970   4.484   4.317   0.265 -0.3226 -1.5808 -1.3732
 5336TIP3   OH215971   1.772   5.434   1.467 -0.4722  0.3331  0.6137
 5336TIP3    H115972   1.708   5.454   1.535 -0.6614  1.3657  0.1403
 5336TIP3    H215973   1.847   5.491   1.486 -0.0720 -0.1765  0.5987
 5337TIP3   OH215974   0.016   5.990   1.743 -0.2882  0.0566 -0.1157
 5337TIP3    H115975  -0.018   6.071   1.706  1.3410  0.9795  0.3251
 5337TIP3    H215976   0.063   5.948   1.670  0.0029  0.1743  0.0034
 5338TIP3   OH215977   3.646   4.484   2.263  0.2355 -0.1546 -0.3825
 5338TIP3    H115978   3.573   4.433   2.229  0.2164  1.4318 -3.0086
 5338TIP3    H215979   3.644   4.469   2.358 -2.9296 -0.8818 -0.4486
 5339TIP3   OH215980   5.924   3.648   2.170  0.1124  0.2638 -0.5528
 5339TIP3    H115981   5.992   3.715   2.163 -0.6137  1.0075 -0.6427
 5339TIP3    H215982   5.950   3.581   2.108  1.0910  0.2414 -0.1332
 5340TIP3   OH215983   6.182   4.124   4.176 -0.2123 -0.8668  0.1012
 5340TIP3    H115984   6.161   4.160   4.089  0.7772 -0.3407  0.0669
 5340TIP3    H215985   6.102   4.078   4.202 -0.4308 -1.2982 -1.2166
 5341TIP3   OH215986   5.974   4.769   2.367 -0.1727 -0.1129  0.8911
 5341TIP3    H115987   5.909   4.708   2.331  2.4536 -1.6456 -1.6500
 5341TIP3    H215988   5.947   4.855   2.334 -0.8616 -0.7416 -0.2681
 5342TIP3   OH215989   0.891   2.352   3.583  0.3500 -0.2320  0.2450
 5342TIP3    H115990   0.829   2.390   3.646  1.4699  0.0485  1.1988
 5342TIP3    H215991   0.860   2.262   3.571 -0.2080 -0.1140  0.7399
 5343TIP3   OH215992   3.692   1.818   2.965  0.1386 -0.0545  0.5323
 5343TIP3    H115993   3.742   1.785   2.890 -0.7546  1.4683 -0.8154
 5343TIP3    H215994   3.759   1.850   3.026  0.8723  0.6464 -0.6025
 5344TIP3   OH215995   4.478   3.235   3.886 -0.1149 -0.7808  0.3072
 5344TIP3    H115996   4.546   3.196   3.941 -1.4392 -0.8609  1.9690
 5344TIP3    H215997   4.526   3.292   3.826  1.4129 -0.7228  1.5144
 5345TIP3   OH215998   0.085   3.326   5.699 -0.1890  0.2696  0.3388
 5345TIP3    H115999   0.178   3.337   5.679 -0.0989 -0.3368  0.3853
 5345TIP3    H216000   0.040   3.362   5.623  0.1269 -0.9410 -0.4532
 5346TIP3   OH216001   6.506   5.621   5.499  0.0288 -0.2738 -0.0768
 5346TIP3    H116002   6.477   5.712   5.486  0.5089 -0.0647  0.2485
 5346TIP3    H216003   6.434   5.568   5.467 -1.1610  0.2239  1.6325
 5347TIP3   OH216004   6.224   1.130   2.889  0.5546  0.4113  0.2475
 5347TIP3    H116005   6.243   1.222   2.909 -0.8610  0.6723  0.4878
 5347TIP3    H216006   6.178   1.098   2.967  0.1604 -0.2262 -0.2423
 5348TIP3   OH216007   6.224   0.521   1.413 -0.4596  0.2933 -0.4409
 5348TIP3    H116008   6.285   0.573   1.361  0.0998  0.6528  0.5646
 5348TIP3    H216009   6.172   0.585   1.461 -0.7099 -0.0480 -0.2521
 5349TIP3   OH216010   6.415   1.900   5.592 -0.1031 -1.0301 -0.4119
 5349TIP3    H116011   6.326   1.865   5.598 -0.7490  0.7013  0.8926
 5349TIP3    H216012   6.461   1.860   5.666  0.7395 -3.1898 -2.0097
 5350TIP3   OH216013   4.163   1.010   5.164 -0.3287  0.1584 -0.0029
 5350TIP3    H116014   4.081   1.017   5.213 -0.6454 -0.6633 -0.3922
 5350TIP3    H216015   4.231   1.025   5.229 -0.7699  0.1382  0.4731
 5351TIP3   OH216016   4.749   3.861   5.058  0.2540 -0.6335  0.1622
 5351TIP3    H116017   4.797   3.831   5.136 -0.6033 -2.5563 -0.0127
 5351TIP3    H216018   4.665   3.891   5.092  0.8352  1.0392  0.2441
 5352TIP3   OH216019   1.918   2.116   5.161 -0.3297  0.2182  0.6187
 5352TIP3    H116020   1.967   2.163   5.229 -0.3140 -0.8313  1.3556
 5352TIP3    H216021   1.879   2.041   5.207 -0.3159 -0.5133 -0.5336
 5353TIP3   OH216022   5.258   6.538   4.118 -0.0268 -0.7538 -0.4739
 5353TIP3    H116023   5.202   6.564   4.191 -1.5284 -0.5495 -1.6255
 5353TIP3    H216024   5.327   6.486   4.158 -0.0845  0.3793  1.2210
 5354TIP3   OH216025   2.084   2.203   3.324 -0.0392 -0.5038  0.1052
 5354TIP3    H116026   2.000   2.250   3.319  1.9072  3.5700  1.7173
 5354TIP3    H216027   2.069   2.134   3.389 -2.6234 -1.4160 -1.2629
 5355TIP3   OH216028   5.115   1.303   3.703  0.0466  0.3264 -0.0454
 5355TIP3    H116029   5.168   1.361   3.756 -0.1307 -0.4123  0.9777
 5355TIP3    H216030   5.178   1.251   3.653  0.2441  0.3613  0.1683
 5356TIP3   OH216031   5.665   1.493   5.287 -0.3042  0.0782 -0.4007
 5356TIP3    H116032   5.649   1.430   5.357 -0.2096  0.7979  0.2844
 5356TIP3    H216033   5.751   1.471   5.252  0.0319  0.2563  0.3050
 5357TIP3   OH216034   2.392   6.299   0.642  0.5031 -0.5304 -0.2485
 5357TIP3    H116035   2.338   6.323   0.717 -0.3797  1.6341 -1.4901
 5357TIP3    H216036   2.357   6.215   0.613 -1.4876  0.2664 -0.3184
 5358TIP3   OH216037   0.216   1.149   1.185  0.1248 -0.2216  0.2053
 5358TIP3    H116038   0.192   1.217   1.248 -1.6189 -1.3487  0.8384
 5358TIP3    H216039   0.284   1.189   1.131  1.1245  1.0670  2.2909
 5359TIP3   OH216040   1.961   3.855   3.907  0.5478  0.4227  0.2443
 5359TIP3    H116041   1.935   3.898   3.826  0.6240  1.3248  0.6885
 5359TIP3    H216042   1.936   3.917   3.976 -0.3186 -0.6969  0.9734
 5360TIP3   OH216043   0.881   4.631   1.240  0.4324  0.1119 -0.6483
 5360TIP3    H116044   0.853   4.720   1.261  0.2286  0.1611 -1.1123
 5360TIP3    H216045   0.890   4.588   1.325  1.1117  0.7410 -0.3928
 5361TIP3   OH216046   7.007   0.063   5.715 -0.3105 -0.2630 -0.1845
 5361TIP3    H116047   6.972  -0.021   5.685 -0.7665  0.3659 -1.5067
 5361TIP3    H216048   6.934   0.124   5.706 -0.2448  0.1322  1.5943
 5362TIP3   OH216049   5.673   4.539   3.754 -0.4878 -0.1120  1.0052
 5362TIP3    H116050   5.695   4.619   3.801  0.0554  0.3460 -0.0057
 5362TIP3    H216051   5.577   4.537   3.754 -0.5531  1.2117 -0.0189
 5363TIP3   OH216052   1.821   4.077   5.829 -0.0339  0.1455 -0.2877
 5363TIP3    H116053   1.744   4.102   5.879  0.1808 -1.4332  0.8795
 5363TIP3    H216054   1.788   4.023   5.757 -0.0222 -0.4903  0.1841
 5364TIP3   OH216055   6.506   0.661   1.386  0.4705 -0.9738  0.1271
 5364TIP3    H116056   6.548   0.614   1.458 -2.3697 -0.7021  2.1461
 5364TIP3    H216057   6.479   0.745   1.425  2.0250  0.8104 -2.3170
 5365TIP3   OH216058   0.291   5.472   4.725  1.0564 -0.1772  0.1656
 5365TIP3    H116059   0.211   5.427   4.751  0.2771 -0.1313 -1.9320
 5365TIP3    H216060   0.362   5.411   4.747  0.1043 -2.0829 -1.6658
 5366TIP3   OH216061   6.094   6.304   5.346  0.3127 -0.3807 -0.1527
 5366TIP3    H116062   6.022   6.298   5.283  0.2867 -0.7165 -0.0923
 5366TIP3    H216063   6.071   6.242   5.415 -0.4433  1.1216  1.0088
 5367TIP3   OH216064   1.688   1.005   1.098  0.1337 -0.0283  0.3889
 5367TIP3    H116065   1.773   0.985   1.058 -0.0875 -0.4972  0.1483
 5367TIP3    H216066   1.638   0.924   1.091 -1.1198  0.8261 -1.4337
 5368TIP3   OH216067   3.320   2.624   4.783  0.6008 -0.1163 -0.2052
 5368TIP3    H116068   3.348   2.560   4.848  0.9659 -0.1113 -0.3558
 5368TIP3    H216069   3.285   2.572   4.711 -0.0742 -0.1151  0.1103
 5369TIP3   OH216070   1.875   1.028   0.885 -0.1357  0.5470  0.4196
 5369TIP3    H116071   1.943   0.980   0.838 -0.2707  1.3811 -0.6838
 5369TIP3    H216072   1.812   1.051   0.817 -1.9498 -0.8658  1.5281
 5370TIP3   OH216073   7.092   4.374   4.199 -0.0218  0.2105 -0.2448
 5370TIP3    H116074   7.041   4.356   4.121  0.2911  0.2695 -0.4661
 5370TIP3    H216075   7.172   4.416   4.167  0.4958 -0.5358  0.0243
 5371TIP3   OH216076   0.884   6.193   2.070 -0.0389 -0.0248 -0.5709
 5371TIP3    H116077   0.869   6.099   2.076  1.2997 -0.1736  1.3228
 5371TIP3    H216078   0.815   6.232   2.122 -0.6278  0.0694 -1.4028
 5372TIP3   OH216079   6.932   2.332   3.236 -0.7265 -0.2356  0.2880
 5372TIP3    H116080   6.852   2.317   3.187  0.0456 -0.4652 -0.9321
 5372TIP3    H216081   6.947   2.427   3.230 -1.9384  0.1267  2.2043
 5373TIP3   OH216082   5.739   1.715   1.715 -0.2680 -0.0245  0.2080
 5373TIP3    H116083   5.698   1.706   1.800  0.0607  1.7009  0.5708
 5373TIP3    H216084   5.824   1.672   1.725 -0.8637 -1.2395  0.2448
 5374TIP3   OH216085   1.951   3.752   0.856  0.1982 -0.0863  0.4191
 5374TIP3    H116086   1.939   3.749   0.951  1.8277  0.2322  0.6721
 5374TIP3    H216087   1.936   3.844   0.832  2.9588  0.6023  0.9252
 5375TIP3   OH216088   1.508   2.362   1.165 -0.2128  0.0419  0.3062
 5375TIP3    H116089   1.508   2.422   1.090  0.1250  0.6492  0.7829
 5375TIP3    H216090   1.547   2.281   1.131 -0.4114  0.1834 -0.2727
 5376TIP3   OH216091   3.748   5.291   2.782  0.3769  0.2027  0.3953
 5376TIP3    H116092   3.766   5.213   2.833 -0.4759 -0.9774 -1.0272
 5376TIP3    H216093   3.663   5.275   2.742  0.0775  1.9569  0.2336
 5377TIP3   OH216094   3.962   0.609   2.591  0.0807  0.2403  0.1578
 5377TIP3    H116095   3.911   0.651   2.522  0.3949  2.3076  1.1171
 5377TIP3    H216096   3.897   0.571   2.650 -0.1917 -1.4188 -1.1288
 5378TIP3   OH216097   1.661   0.376   4.301 -0.2145 -0.4593  0.2231
 5378TIP3    H116098   1.641   0.466   4.275 -0.6708 -0.6263  0.0057
 5378TIP3    H216099   1.651   0.376   4.396  1.2024  0.0824  0.4089
 5379TIP3   OH216100   5.943   3.925   2.849 -0.5142  0.4058 -0.4099
 5379TIP3    H116101   5.864   3.941   2.797 -2.6045 -2.1124  1.6627
 5379TIP3    H216102   5.971   3.838   2.823  0.2739  0.3958  0.4465
 5380TIP3   OH216103   5.402   3.006   1.852 -0.6211  0.1130  0.1847
 5380TIP3    H116104   5.386   3.096   1.824 -0.2626  0.0847 -0.1164
 5380TIP3    H216105   5.457   3.013   1.930  1.2271  0.1145 -1.0596
 5381TIP3   OH216106   0.863   0.084   2.546  0.0482  0.1111 -0.2180
 5381TIP3    H116107   0.773   0.116   2.539 -0.8242 -1.9525  0.6088
 5381TIP3    H216108   0.913   0.141   2.488 -2.1365  0.0525 -2.3349
 5382TIP3   OH216109   6.057   1.111   3.791 -0.5331 -0.4327  0.1574
 5382TIP3    H116110   5.976   1.067   3.815 -0.9570 -0.0880 -0.5767
 5382TIP3    H216111   6.115   1.100   3.866 -0.4526 -2.6039 -0.1577
 5383TIP3   OH216112   2.267   5.382   2.352  0.3966 -0.6862 -0.0081
 5383TIP3    H116113   2.221   5.314   2.302  1.3485 -0.7136 -0.8790
 5383TIP3    H216114   2.256   5.461   2.299 -0.8237 -0.0985  1.0683
 5384TIP3   OH216115   1.354   4.831   4.310 -0.3444  0.3114 -0.1392
 5384TIP3    H116116   1.293   4.779   4.362  0.1676  0.5125  0.6816
 5384TIP3    H216117   1.299   4.898   4.269 -1.0843 -1.0817 -1.5490
 5385TIP3   OH216118   3.028   2.588   1.562 -0.0457 -0.7572  0.1166
 5385TIP3    H116119   3.075   2.656   1.514  0.7576 -0.6390  1.0208
 5385TIP3    H216120   3.047   2.507   1.515  1.3228 -0.7507  0.6189
 5386TIP3   OH216121   5.059   5.127   5.328  0.3888 -0.1563 -0.2553
 5386TIP3    H116122   5.051   5.142   5.422 -1.4250  1.1622 -0.5700
 5386TIP3    H216123   5.146   5.159   5.306 -0.2697  2.3628  0.5051
 5387TIP3   OH216124   4.981   4.292   4.009 -0.0819  0.1115  0.2786
 5387TIP3    H116125   4.985   4.216   3.951 -0.2299  1.2115 -1.2256
 5387TIP3    H216126   4.888   4.303   4.028 -0.1194  0.2376  0.0325
 5388TIP3   OH216127   2.556   5.262   0.550 -0.3985  0.1783 -0.0301
 5388TIP3    H116128   2.578   5.333   0.491 -0.2384  0.3049  0.1807
 5388TIP3    H216129   2.527   5.306   0.631  1.3114  0.0153  0.7087
 5389TIP3   OH216130   0.120   5.710   3.543 -0.0918  0.0527 -0.1756
 5389TIP3    H116131   0.169   5.698   3.462 -0.5219  0.9429 -0.5819
 5389TIP3    H216132   0.138   5.631   3.594  2.0087  0.4798 -0.1761
 5390TIP3   OH216133   6.050   5.135   3.522  0.1187  0.2881  0.1926
 5390TIP3    H116134   6.125   5.165   3.471  0.6853  0.2591  0.9904
 5390TIP3    H216135   6.087   5.071   3.583 -0.5591  0.2670  0.5905
 5391TIP3   OH216136   2.769   3.971   0.943 -0.4386 -0.0241  0.1584
 5391TIP3    H116137   2.753   3.890   0.992 -1.2423 -0.6231 -1.0280
 5391TIP3    H216138   2.840   3.947   0.882 -0.2822  0.3458  0.1946
 5392TIP3   OH216139   6.082   4.937   0.097 -0.2194  0.3857  0.0514
 5392TIP3    H116140   6.129   4.892   0.168  2.7432  1.4720 -1.1139
 5392TIP3    H216141   6.077   4.871   0.027  1.2672  0.7896 -0.4758
 5393TIP3   OH216142   2.110   3.120   2.512  0.1854  0.2060 -0.2171
 5393TIP3    H116143   2.199   3.087   2.519  1.0236  2.3323  0.0040
 5393TIP3    H216144   2.054   3.042   2.517  1.9390 -1.0216  1.4862
 5394TIP3   OH216145   3.224   4.905   0.969  0.7380  0.1092 -0.5285
 5394TIP3    H116146   3.227   4.966   1.042  0.7990  1.7757 -1.8789
 5394TIP3    H216147   3.197   4.822   1.008  1.2936  0.8150  1.4594
 5395TIP3   OH216148   0.231   0.505   4.405  0.0516  0.1981 -0.3331
 5395TIP3    H116149   0.183   0.588   4.407  0.2005  0.3354 -1.7316
 5395TIP3    H216150   0.209   0.463   4.488 -0.2980  1.4817  0.2456
 5396TIP3   OH216151   6.194   1.231   1.154 -0.8409  0.9199  0.4601
 5396TIP3    H116152   6.244   1.185   1.222  2.0294  1.3281 -1.2255
 5396TIP3    H216153   6.189   1.321   1.186  1.5734  1.3915 -0.3276
 5397TIP3   OH216154   3.402   2.408   4.940  0.5316 -0.2639  0.2925
 5397TIP3    H116155   3.395   2.314   4.924  1.4447 -0.1375 -0.9935
 5397TIP3    H216156   3.478   2.417   4.997  0.0166 -0.3540  1.0007
 5398TIP3   OH216157   6.513   4.903   4.577  0.0699  0.2359 -0.0175
 5398TIP3    H116158   6.559   4.823   4.552 -0.0223  0.1292  0.1467
 5398TIP3    H216159   6.582   4.965   4.598  0.1424 -0.1745  1.0097
 5399TIP3   OH216160   2.358   4.917   2.802  0.5944 -0.0324 -0.1603
 5399TIP3    H116161   2.441   4.931   2.846  0.4142  2.6660 -0.5355
 5399TIP3    H216162   2.294   4.965   2.855 -0.2572  0.1631 -1.3122
 5400TIP3   OH216163   1.960   6.207   5.216 -0.2615  0.0202 -0.0556
 5400TIP3    H116164   1.992   6.138   5.274 -0.1841  0.8127  0.8495
 5400TIP3    H216165   1.988   6.178   5.128  0.3745 -0.7525  0.3841
 5401TIP3   OH216166   5.494   4.279   4.179  0.1253  0.0041  0.6284
 5401TIP3    H116167   5.543   4.228   4.114  1.1294  1.5800  0.0838
 5401TIP3    H216168   5.422   4.317   4.129  0.4567  0.6003  0.5958
 5402TIP3   OH216169   3.451   4.163   1.332  0.5016 -0.1613  0.2828
 5402TIP3    H116170   3.357   4.169   1.318  0.0901 -1.0760  2.3463
 5402TIP3    H216171   3.467   4.072   1.355  1.5697  0.3654  1.8525
 5403TIP3   OH216172   5.105   2.216   1.410 -0.3898  0.3541  0.1256
 5403TIP3    H116173   5.178   2.238   1.468 -1.1196 -0.2008  1.2989
 5403TIP3    H216174   5.028   2.217   1.468 -0.9871 -1.3856 -0.5738
 5404TIP3   OH216175   4.249   3.983   5.656 -0.9207  0.3230 -0.5781
 5404TIP3    H116176   4.310   4.037   5.706 -0.7778  1.0111 -1.4491
 5404TIP3    H216177   4.164   4.023   5.672 -1.7692 -2.4809  3.1639
 5405TIP3   OH216178   4.762   3.489   2.376  0.3719 -0.3784  0.0545
 5405TIP3    H116179   4.815   3.414   2.403  2.7420  0.3581 -2.1398
 5405TIP3    H216180   4.823   3.563   2.376 -0.8599  0.7311 -1.7247
 5406TIP3   OH216181   1.529   2.785   4.583  0.8976 -0.1790  0.0459
 5406TIP3    H116182   1.523   2.879   4.565  1.3647 -0.2199 -0.3423
 5406TIP3    H216183   1.607   2.756   4.536  0.9522 -0.6987  0.4393
 5407TIP3   OH216184   5.849   4.761   5.703 -0.3522  0.1509 -0.2844
 5407TIP3    H116185   5.756   4.759   5.680 -0.6254  3.4615  0.0676
 5407TIP3    H216186   5.850   4.775   5.798  0.5617 -0.5448 -0.1667
 5408TIP3   OH216187   1.633   1.023   5.063  0.4786  0.0595 -0.2013
 5408TIP3    H116188   1.676   1.100   5.102  0.8071 -0.3203  0.2025
 5408TIP3    H216189   1.556   1.008   5.118 -0.7330  1.3253 -1.5057
 5409TIP3   OH216190   1.857   6.162   3.449  0.1885  0.2462  1.0034
 5409TIP3    H116191   1.870   6.070   3.427 -0.7251  0.1075  0.9852
 5409TIP3    H216192   1.944   6.201   3.445  0.5348 -0.5470  0.6870
 5410TIP3   OH216193   0.763   6.390   3.342  0.7475 -0.2333  0.4090
 5410TIP3    H116194   0.808   6.310   3.371 -0.9474 -0.8010  1.7174
 5410TIP3    H216195   0.725   6.425   3.423 -1.2323  0.1024 -0.6159
 5411TIP3   OH216196   3.430   3.532   3.314 -0.6950  0.2466 -0.4125
 5411TIP3    H116197   3.496   3.595   3.287 -1.6494  1.4584  0.0137
 5411TIP3    H216198   3.475   3.477   3.379 -0.5243  2.0728  1.0917
 5412TIP3   OH216199   1.389   2.865   2.662 -0.0861 -0.1923  0.2042
 5412TIP3    H116200   1.350   2.783   2.632 -0.1276  0.1986 -0.8370
 5412TIP3    H216201   1.483   2.854   2.644 -0.0016 -0.2660  0.6769
 5413TIP3   OH216202   0.699   1.590   3.649  0.9159 -0.3012 -0.6563
 5413TIP3    H116203   0.718   1.658   3.584  0.5394 -1.2273 -1.7590
 5413TIP3    H216204   0.641   1.633   3.711  1.7479  0.7740 -0.5847
 5414TIP3   OH216205   2.517   2.988   4.799 -0.3444 -0.0100 -0.0409
 5414TIP3    H116206   2.501   3.033   4.883  0.8992 -0.2874  0.3564
 5414TIP3    H216207   2.584   2.923   4.819 -2.1622 -2.1845 -0.5636
 5415TIP3   OH216208   3.384   0.255   0.334 -0.2362  0.2003  0.2226
 5415TIP3    H116209   3.430   0.306   0.401  1.9509  0.5012 -1.4031
 5415TIP3    H216210   3.305   0.223   0.378  1.1026  0.3569  2.9444
 5416TIP3   OH216211   3.657   3.084   3.371  0.4306 -0.2657  0.3503
 5416TIP3    H116212   3.732   3.050   3.419  0.4396 -0.3740  0.2598
 5416TIP3    H216213   3.690   3.161   3.324  0.4850 -0.3130  0.3106
 5417TIP3   OH216214   6.154   2.665   0.550  0.1470  0.3192 -0.5098
 5417TIP3    H116215   6.075   2.661   0.603  0.8425 -0.5937  0.4911
 5417TIP3    H216216   6.166   2.576   0.518  1.2783  0.2290  0.1249
 5418TIP3   OH216217   1.149   4.639   4.900 -0.0952  0.0616 -0.2582
 5418TIP3    H116218   1.056   4.629   4.923 -0.1612 -1.1127 -0.9772
 5418TIP3    H216219   1.148   4.658   4.806  0.2871  2.6471  0.1957
 5419TIP3   OH216220   1.795   0.312   5.033  0.0418  0.1232 -0.3036
 5419TIP3    H116221   1.772   0.350   4.948 -0.3262  1.9237  0.5551
 5419TIP3    H216222   1.890   0.300   5.028  0.2809  1.7270 -0.4486
 5420TIP3   OH216223   2.145   6.627   3.194  0.1025  0.5210 -0.5647
 5420TIP3    H116224   2.103   6.713   3.201  0.4046  0.7202 -1.1084
 5420TIP3    H216225   2.074   6.568   3.167 -0.1770  0.5328  0.1338
 5421TIP3   OH216226   3.612   5.044   0.517 -0.4863  0.1216 -0.0559
 5421TIP3    H116227   3.665   4.997   0.453  0.4333 -0.8105  1.3358
 5421TIP3    H216228   3.525   5.051   0.477  0.5156  1.2759 -2.1887
 5422TIP3   OH216229   4.047   4.915   0.527  0.3680  0.4342 -0.4500
 5422TIP3    H116230   4.018   4.980   0.463  0.5674  1.5084  0.5002
 5422TIP3    H216231   3.982   4.845   0.522  0.1680  0.6889 -1.5308
 5423TIP3   OH216232   5.646   0.625   4.949  0.0181  0.0534  0.4692
 5423TIP3    H116233   5.733   0.662   4.959  0.2667 -0.7910  1.6643
 5423TIP3    H216234   5.588   0.701   4.944  0.8562  0.6363 -1.0518
 5424TIP3   OH216235   4.423   5.377   1.445 -0.2047 -0.3249  0.4009
 5424TIP3    H116236   4.394   5.409   1.360  0.2353 -1.2375 -0.1069
 5424TIP3    H216237   4.514   5.349   1.431  0.3178  0.7110  1.4915
 5425TIP3   OH216238   5.478   2.232   1.420 -0.3779  0.0019  0.3827
 5425TIP3    H116239   5.498   2.254   1.329  1.4982  1.8202  1.1798
 5425TIP3    H216240   5.432   2.308   1.454 -2.5148 -1.2961  0.5902
 5426TIP3   OH216241   1.680   0.785   1.956  0.0838 -0.0506  0.1136
 5426TIP3    H116242   1.589   0.759   1.942 -0.3051  0.8133  1.0109
 5426TIP3    H216243   1.726   0.749   1.880 -0.8989 -0.9830 -0.0666
 5427TIP3   OH216244   4.393   4.998   0.788  0.1941  0.5555 -0.3180
 5427TIP3    H116245   4.471   5.013   0.841  0.0322 -1.0545  0.4323
 5427TIP3    H216246   4.425   4.949   0.712 -0.0662 -0.1143 -0.0056
 5428TIP3   OH216247   1.092   0.493   4.138  0.1744  0.6563 -0.5949
 5428TIP3    H116248   1.025   0.429   4.116  0.3896  0.1266  0.2440
 5428TIP3    H216249   1.150   0.447   4.198 -0.1397  1.8832  0.7054
 5429TIP3   OH216250   1.867   6.247   0.434 -0.6066  0.1179  0.1282
 5429TIP3    H116251   1.877   6.304   0.358  1.5100 -0.5619 -0.1675
 5429TIP3    H216252   1.825   6.302   0.500  2.2308  2.3919  0.2104
 5430TIP3   OH216253   3.123   0.842   3.933  0.8932 -0.2620  1.0529
 5430TIP3    H116254   3.212   0.865   3.958  0.5430  1.7534  0.6455
 5430TIP3    H216255   3.114   0.875   3.843  0.1275 -1.5840  0.6270
 5431TIP3   OH216256   5.042   1.190   1.265  0.5168 -0.2425  0.0581
 5431TIP3    H116257   4.975   1.202   1.198  0.8580  0.4931 -0.1590
 5431TIP3    H216258   5.115   1.149   1.217  0.5196 -0.3188  0.1269
 5432TIP3   OH216259   1.396   6.365   2.081  0.3101  0.4751  0.3583
 5432TIP3    H116260   1.482   6.392   2.112  0.8983 -0.7568 -0.1235
 5432TIP3    H216261   1.396   6.386   1.988  0.8364 -1.2313 -0.0580
 5433TIP3   OH216262   1.969   6.221   1.981 -0.3292  0.0675 -0.1256
 5433TIP3    H116263   2.031   6.178   1.923 -1.2917 -0.1347 -1.0507
 5433TIP3    H216264   2.011   6.304   2.005  1.3915 -1.1718  1.3926
 5434TIP3   OH216265   0.890   2.269   5.137 -0.2697 -0.0624  0.9265
 5434TIP3    H116266   0.882   2.307   5.224 -1.0247 -0.0827  0.8786
 5434TIP3    H216267   0.914   2.342   5.081  1.0937 -0.2136  1.2761
 5435TIP3   OH216268   3.056   1.457   2.873 -0.0419 -0.4893 -0.4487
 5435TIP3    H116269   3.146   1.438   2.848  0.2762  0.3071  0.0582
 5435TIP3    H216270   3.003   1.422   2.801  0.6383 -1.3264 -0.5587
 5436TIP3   OH216271   5.349   1.641   1.825 -0.6508 -0.0746 -0.2499
 5436TIP3    H116272   5.400   1.568   1.858  2.2961  1.5489 -0.8956
 5436TIP3    H216273   5.372   1.647   1.732 -1.6756  1.0081 -0.4583
 5437TIP3   OH216274   1.930   3.180   5.554 -0.1421 -0.0387  0.3608
 5437TIP3    H116275   2.019   3.203   5.526 -0.2727  0.1588  0.0998
 5437TIP3    H216276   1.891   3.139   5.477  0.0287 -1.0037  0.7640
 5438TIP3   OH216277   5.847   2.671   4.547  0.4611  0.0806  0.0234
 5438TIP3    H116278   5.868   2.580   4.569 -0.4186 -0.0183  0.5162
 5438TIP3    H216279   5.768   2.664   4.492  0.2072  0.5564  0.3169
 5439TIP3   OH216280   2.803   3.599   4.626 -0.2796 -0.2703 -0.2383
 5439TIP3    H116281   2.835   3.665   4.565 -0.1375  0.3738  0.5180
 5439TIP3    H216282   2.831   3.630   4.712 -0.9713 -0.8641  0.2129
 5440TIP3   OH216283   7.148   3.741   5.568  0.0488  0.2942  0.1239
 5440TIP3    H116284   7.163   3.747   5.663 -0.2074  0.7698  0.1356
 5440TIP3    H216285   7.226   3.697   5.535  0.2584  0.3518  0.5269
 5441TIP3   OH216286   3.850   1.885   5.476 -1.0327 -0.2266 -0.2838
 5441TIP3    H116287   3.780   1.829   5.509 -0.0258 -1.7415 -0.6420
 5441TIP3    H216288   3.856   1.955   5.541 -0.3865 -2.1039  1.8101
 5442TIP3   OH216289   1.248   6.329   4.808  0.0278 -0.0718  0.0823
 5442TIP3    H116290   1.162   6.368   4.794 -0.4671 -0.9225  0.6546
 5442TIP3    H216291   1.309   6.403   4.805 -0.9009  0.7894  1.3572
 5443TIP3   OH216292   6.838   2.464   4.056 -0.5306 -0.1069 -0.2867
 5443TIP3    H116293   6.852   2.463   3.962 -0.7732  0.6309 -0.3330
 5443TIP3    H216294   6.763   2.522   4.069  0.4239  0.9879  0.4874
 5444TIP3   OH216295   4.964   4.779   0.007 -0.7352 -0.2019  0.2120
 5444TIP3    H116296   4.935   4.821   0.088  1.6637  1.0889  0.4975
 5444TIP3    H216297   5.054   4.752   0.026 -1.2299 -2.9198 -0.9633
 5445TIP3   OH216298   3.118   5.053   5.776  0.1140 -0.3874 -0.1431
 5445TIP3    H116299   3.091   5.104   5.699  1.8457 -0.4983 -0.8552
 5445TIP3    H216300   3.172   5.113   5.827 -0.4992 -0.5233  0.6860
 5446TIP3   OH216301   5.006   5.495   5.321  0.1556  0.0550  0.6119
 5446TIP3    H116302   5.048   5.550   5.255 -0.7981 -0.5970 -0.5592
 5446TIP3    H216303   5.049   5.410   5.312  0.9066  0.2825  1.7238
 5447TIP3   OH216304   1.128   5.437   5.831 -0.3896 -0.0457 -0.2112
 5447TIP3    H116305   1.036   5.457   5.851  0.2478  1.7841  1.2206
 5447TIP3    H216306   1.177   5.505   5.878  1.6893 -0.8445 -1.1405
 5448TIP3   OH216307   0.337   1.993   5.288  0.3856 -0.0736  0.4572
 5448TIP3    H116308   0.272   2.027   5.226  0.4346 -0.3581  0.2513
 5448TIP3    H216309   0.285   1.953   5.357  0.3359  0.0026  0.4646
 5449TIP3   OH216310   0.098   5.033   4.293 -0.1943 -0.2395 -0.3227
 5449TIP3    H116311   0.174   5.064   4.243 -1.0147  2.3680 -0.1439
 5449TIP3    H216312   0.023   5.063   4.242 -1.1721 -2.5579 -0.3757
 5450TIP3   OH216313   3.188   5.574   4.853  0.0648 -0.0297 -0.4357
 5450TIP3    H116314   3.224   5.657   4.883  1.5358 -0.5628 -0.6504
 5450TIP3    H216315   3.132   5.598   4.780 -1.0557  0.9523  0.6986
 5451TIP3   OH216316   0.683   4.989   5.548 -0.5514  0.1311 -0.0361
 5451TIP3    H116317   0.720   4.906   5.516 -0.0388  0.3078  0.0746
 5451TIP3    H216318   0.702   4.988   5.642 -0.1044  0.5896 -0.1164
 5452TIP3   OH216319   4.783   3.053   0.091  0.5912 -0.2391  0.1322
 5452TIP3    H116320   4.803   3.045  -0.002 -0.0324  0.3095 -0.0575
 5452TIP3    H216321   4.739   2.971   0.113 -0.5511  0.2016 -0.4120
 5453TIP3   OH216322   6.753   5.405   4.187 -0.3434 -0.3010  0.0128
 5453TIP3    H116323   6.802   5.468   4.135 -0.9556 -0.5707 -0.9121
 5453TIP3    H216324   6.804   5.324   4.183 -1.0594 -0.7137 -1.3315
 5454TIP3   OH216325   0.943   2.111   0.142  0.3318 -0.2056  0.0302
 5454TIP3    H116326   0.964   2.111   0.049 -0.9015 -1.6501 -0.2869
 5454TIP3    H216327   1.022   2.080   0.185  0.5545 -0.5586 -0.6343
 5455TIP3   OH216328   6.630   5.211   0.868 -0.8883 -0.0553 -0.3876
 5455TIP3    H116329   6.537   5.189   0.859 -0.8412  0.2884 -1.9420
 5455TIP3    H216330   6.643   5.286   0.811  0.4752 -0.4919 -0.7014
 5456TIP3   OH216331   1.682   5.938   1.326  0.0175 -0.5851 -0.5827
 5456TIP3    H116332   1.736   6.012   1.355  0.7942 -0.7071 -1.6431
 5456TIP3    H216333   1.602   5.944   1.378 -0.9765  2.4035 -2.2493
 5457TIP3   OH216334   3.877   3.960   1.061  0.5023  0.3955 -0.1077
 5457TIP3    H116335   3.863   4.015   1.138  0.1632  0.2969 -0.0992
 5457TIP3    H216336   3.911   4.020   0.995  1.5665  0.3344  0.3586
 5458TIP3   OH216337   5.550   0.035   2.258 -0.5355 -0.2551 -0.3210
 5458TIP3    H116338   5.621   0.009   2.317 -0.8507  1.2910  0.8161
 5458TIP3    H216339   5.473  -0.010   2.293 -0.9082  1.3831  1.0996
 5459TIP3   OH216340   5.779   0.211   4.584  0.5736  0.2996  0.0098
 5459TIP3    H116341   5.824   0.161   4.652  0.8400 -0.5178 -0.7586
 5459TIP3    H216342   5.769   0.299   4.622 -1.9459 -0.8286  2.3565
 5460TIP3   OH216343   4.236   2.399   0.121 -0.2291  0.0931 -0.2699
 5460TIP3    H116344   4.153   2.350   0.119 -0.2637 -0.0029  1.7023
 5460TIP3    H216345   4.209   2.491   0.123 -0.3526  0.0509  1.1050
 5461TIP3   OH216346   1.407   5.913   2.605 -0.1936  0.0200 -0.2420
 5461TIP3    H116347   1.461   5.977   2.651 -1.7097  0.7437  0.5914
 5461TIP3    H216348   1.391   5.952   2.519  1.6519 -0.7961 -1.0053
 5462TIP3   OH216349   0.468   6.008   4.716 -0.7505  0.5460  1.0299
 5462TIP3    H116350   0.438   5.923   4.748  0.1716 -0.5270 -0.8015
 5462TIP3    H216351   0.560   5.994   4.694 -1.0531  1.4769 -1.0079
 5463TIP3   OH216352   3.200   5.579   0.697  0.2226 -0.3683 -0.4571
 5463TIP3    H116353   3.163   5.493   0.714 -0.4642 -0.0254 -0.1345
 5463TIP3    H216354   3.281   5.582   0.749  1.4622 -1.6163 -2.2083
 5464TIP3   OH216355   6.359   6.659   5.234  0.0652  0.1623  0.7450
 5464TIP3    H116356   6.305   6.683   5.309 -0.2568 -0.2988  0.6662
 5464TIP3    H216357   6.363   6.738   5.180 -1.2470 -0.0446  0.3164
 5465TIP3   OH216358   2.921   1.061   5.165 -0.3279 -0.2672 -0.9241
 5465TIP3    H116359   2.932   0.995   5.234 -0.5192  0.3384 -0.2934
 5465TIP3    H216360   2.884   1.136   5.211  2.1668  1.1893 -1.1220
 5466TIP3   OH216361   5.232   0.263   4.300 -0.0606 -0.5381 -0.0439
 5466TIP3    H116362   5.281   0.261   4.382  1.5927 -0.0301 -0.9792
 5466TIP3    H216363   5.141   0.246   4.326  0.1456  1.1940  2.0635
 5467TIP3   OH216364   0.388   5.452   2.808 -0.2213 -0.2195  0.7991
 5467TIP3    H116365   0.385   5.396   2.886  0.0852 -0.7063  0.4623
 5467TIP3    H216366   0.456   5.414   2.753 -2.2462 -1.5348 -0.9460
 5468TIP3   OH216367   2.713   5.745   2.895 -0.2379 -0.2478 -0.6679
 5468TIP3    H116368   2.764   5.695   2.830 -0.8161  0.6622 -1.8710
 5468TIP3    H216369   2.628   5.701   2.898 -1.4887  1.7175 -3.2693
 5469TIP3   OH216370   1.200   5.467   3.395  0.0711  0.3115 -0.0109
 5469TIP3    H116371   1.291   5.495   3.402  0.3633 -0.6864  0.2490
 5469TIP3    H216372   1.196   5.385   3.443 -0.9266  0.2432 -0.1916
 5470TIP3   OH216373   4.821   4.494   0.593  0.0487 -0.1965  0.4793
 5470TIP3    H116374   4.806   4.566   0.654  1.0793  0.2629  0.2125
 5470TIP3    H216375   4.792   4.529   0.508  1.8336  0.4485  0.0882
 5471TIP3   OH216376   3.675   6.812   4.991  0.2074  0.4662 -0.2443
 5471TIP3    H116377   3.688   6.795   4.898  0.5382  0.0128 -0.1179
 5471TIP3    H216378   3.643   6.728   5.027 -1.5980  1.0983 -0.2557
 5472TIP3   OH216379   5.185   0.138   4.710  0.4461  0.0414 -0.3438
 5472TIP3    H116380   5.229   0.170   4.631 -0.5732  0.7126 -0.6625
 5472TIP3    H216381   5.092   0.149   4.692  0.1056 -1.5328  0.2316
 5473TIP3   OH216382   3.200   3.241   1.165  0.5515 -0.1614  0.0402
 5473TIP3    H116383   3.223   3.150   1.186  0.5306  0.2429  1.9518
 5473TIP3    H216384   3.280   3.278   1.129  0.6599 -0.8184 -0.4333
 5474TIP3   OH216385   0.641   1.821   1.412  0.0363 -0.2013 -0.1112
 5474TIP3    H116386   0.725   1.824   1.365  0.3241 -0.4003  0.3854
 5474TIP3    H216387   0.587   1.887   1.368  0.7955  0.6533  0.2181
 5475TIP3   OH216388   6.069   1.497   0.112  0.5481  0.4644 -0.0319
 5475TIP3    H116389   6.146   1.518   0.165 -0.0022  1.0975  0.5171
 5475TIP3    H216390   5.994   1.517   0.168 -0.0271  0.2847 -0.7255
 5476TIP3   OH216391   3.666   6.146   5.281 -0.7066 -0.2682 -0.5022
 5476TIP3    H116392   3.648   6.198   5.203 -0.0901 -0.6705 -0.9314
 5476TIP3    H216393   3.615   6.187   5.351  0.6020  1.5918 -0.5669
 5477TIP3   OH216394   6.894   3.753   3.327 -0.0277  0.5233  0.0447
 5477TIP3    H116395   6.857   3.808   3.257 -0.1979 -0.2643 -0.4881
 5477TIP3    H216396   6.961   3.808   3.367  0.6786  0.6753 -1.2998
 5478TIP3   OH216397   0.073   5.601   3.921 -0.3395 -0.1564  0.1134
 5478TIP3    H116398   0.003   5.644   3.872  1.0360  1.0057 -0.9271
 5478TIP3    H216399   0.109   5.537   3.860  1.4677  1.3839 -0.5430
 5479TIP3   OH216400   3.604   1.599   2.424  0.2406  0.2282  0.0451
 5479TIP3    H116401   3.516   1.636   2.413  0.6353  1.1129 -0.1618
 5479TIP3    H216402   3.612   1.586   2.518  0.0935  0.6659  0.1220
 5480TIP3   OH216403   2.343   4.639   4.166  0.0134 -0.2978  0.0726
 5480TIP3    H116404   2.388   4.707   4.217  0.4931  1.7922 -2.8672
 5480TIP3    H216405   2.274   4.686   4.119 -0.8406 -2.2143 -0.6889
 5481TIP3   OH216406   4.011   6.653   4.219 -0.5628  0.4233 -0.3859
 5481TIP3    H116407   4.028   6.624   4.309 -1.9961  1.1398  0.1604
 5481TIP3    H216408   3.997   6.572   4.170 -3.7720 -0.0177  0.9449
 5482TIP3   OH216409   6.061   3.320   0.668  0.4146 -0.0659  1.1162
 5482TIP3    H116410   5.997   3.321   0.739 -0.7385 -1.8515  0.1746
 5482TIP3    H216411   6.114   3.399   0.682 -1.0236  0.6595  2.7976
 5483TIP3   OH216412   5.403   1.709   5.311  0.1268 -0.3231  0.2614
 5483TIP3    H116413   5.314   1.734   5.286  0.5879 -0.1901 -1.3456
 5483TIP3    H216414   5.401   1.613   5.313 -0.0533 -0.3200  0.2462
 5484TIP3   OH216415   3.464   4.763   3.351 -0.5322 -0.0667 -0.1031
 5484TIP3    H116416   3.540   4.707   3.364 -1.8170 -1.9889 -0.5188
 5484TIP3    H216417   3.417   4.725   3.277 -2.3950  0.4907  0.7178
 5485TIP3   OH216418   1.083   5.217   2.467 -0.2511  0.2207 -0.5287
 5485TIP3    H116419   1.039   5.158   2.406 -0.4025  0.1658 -0.3672
 5485TIP3    H216420   1.176   5.214   2.441 -0.3791  0.5613 -1.0533
 5486TIP3   OH216421   2.260   0.227   3.234  0.0990 -0.2635 -0.2662
 5486TIP3    H116422   2.287   0.242   3.143  1.0725  1.7790  0.3047
 5486TIP3    H216423   2.178   0.275   3.243 -0.8460 -1.7793 -0.4513
 5487TIP3   OH216424   0.207   3.709   5.558  0.8245  0.2399 -0.0785
 5487TIP3    H116425   0.227   3.665   5.641  0.8965  0.7973  0.2011
 5487TIP3    H216426   0.278   3.771   5.545  1.6214 -0.8651 -1.3211
 5488TIP3   OH216427   4.113   0.810   3.212 -0.6398 -0.1826  0.0170
 5488TIP3    H116428   4.125   0.747   3.140 -0.7432 -1.4522  1.0821
 5488TIP3    H216429   4.020   0.808   3.231 -0.3955 -1.0369  1.2156
 5489TIP3   OH216430   0.231   1.513   3.779 -0.5907  0.1924 -0.3343
 5489TIP3    H116431   0.201   1.540   3.866 -0.9343 -0.5254 -0.2187
 5489TIP3    H216432   0.322   1.487   3.792 -0.9175 -0.8475  0.0365
 5490TIP3   OH216433   2.626   3.363   2.175 -0.1268 -0.2710  0.1313
 5490TIP3    H116434   2.646   3.353   2.268  2.0576 -0.7000 -0.3350
 5490TIP3    H216435   2.581   3.447   2.169  2.6067  1.3878  1.2198
 5491TIP3   OH216436   1.092   0.751   5.674 -0.3679  0.7841  0.7655
 5491TIP3    H116437   1.165   0.785   5.726 -0.2675  2.1003 -0.1837
 5491TIP3    H216438   1.119   0.662   5.650  0.4177  0.8542  1.3512
 5492TIP3   OH216439   2.348   0.908   3.410  0.7270  0.0421  0.1509
 5492TIP3    H116440   2.393   0.829   3.440  0.0847 -1.0966 -1.6992
 5492TIP3    H216441   2.414   0.976   3.413  1.5343 -0.7449  0.9792
 5493TIP3   OH216442   1.061   4.344   4.290 -0.5563  0.1506 -0.0414
 5493TIP3    H116443   1.143   4.376   4.252 -1.3612  2.4840  0.0613
 5493TIP3    H216444   1.089   4.296   4.368  0.7705  0.0014 -0.5801
 5494TIP3   OH216445   5.460   3.424   5.673  0.0007 -0.3649  0.9824
 5494TIP3    H116446   5.498   3.344   5.636 -1.0747 -0.2992 -0.3324
 5494TIP3    H216447   5.532   3.463   5.723  1.5794 -0.4016 -1.1307
 5495TIP3   OH216448   3.006   4.512   5.618 -0.0071 -0.1986  0.2005
 5495TIP3    H116449   3.067   4.486   5.688 -0.1888 -0.3122  0.3184
 5495TIP3    H216450   2.952   4.580   5.658  2.7977  3.1738 -1.1374
 5496TIP3   OH216451   5.485   0.693   4.271 -0.0722  0.2196  0.0523
 5496TIP3    H116452   5.505   0.674   4.363 -0.4958  2.3260  0.6285
 5496TIP3    H216453   5.566   0.729   4.236  0.2742 -1.1255 -0.6182
 5497TIP3   OH216454   3.028   6.755   5.521 -0.2052 -0.1382  0.5831
 5497TIP3    H116455   2.979   6.829   5.486 -0.5236 -0.0705  1.1511
 5497TIP3    H216456   3.007   6.682   5.462 -0.2714  0.1101  0.3003
 5498TIP3   OH216457   2.817   6.525   0.882 -0.5219  1.0252 -0.6280
 5498TIP3    H116458   2.762   6.473   0.941 -2.3765  0.3372 -2.8353
 5498TIP3    H216459   2.783   6.614   0.889 -2.5365  0.4853 -2.5023
 5499TIP3   OH216460   0.324   1.476   5.347 -0.3104 -0.3215 -0.1261
 5499TIP3    H116461   0.248   1.453   5.400  1.0479  0.3638  2.2535
 5499TIP3    H216462   0.354   1.560   5.381  1.0526 -0.1825 -1.5262
 5500TIP3   OH216463   4.989   2.728   3.070 -0.0584 -0.1132  0.2531
 5500TIP3    H116464   4.933   2.709   3.145  0.6442 -0.6056  0.6635
 5500TIP3    H216465   5.062   2.779   3.106  0.0993 -0.0455 -0.1549
 5501TIP3   OH216466   4.130   1.840   2.306 -0.2325 -0.4023  0.2640
 5501TIP3    H116467   4.154   1.910   2.245 -0.6977 -1.0288 -0.6673
 5501TIP3    H216468   4.110   1.765   2.249 -1.5233 -0.7513  1.1266
 5502TIP3   OH216469   5.325   5.765   0.379 -0.2146  0.3486  0.4640
 5502TIP3    H116470   5.323   5.750   0.473 -0.8867  0.4456  0.4723
 5502TIP3    H216471   5.293   5.683   0.341 -2.1833  1.0589  0.4354
 5503TIP3   OH216472   2.501   6.713   4.959  0.1312 -0.4239  0.0655
 5503TIP3    H116473   2.503   6.795   4.910  0.6444 -1.0752 -1.0415
 5503TIP3    H216474   2.593   6.691   4.975  0.0313 -1.1326 -0.2671
 5504TIP3   OH216475   4.006   5.396   2.580  0.1144  0.2897 -0.1618
 5504TIP3    H116476   4.033   5.365   2.666 -0.3325 -2.4419 -0.8952
 5504TIP3    H216477   3.997   5.490   2.589 -1.6341 -0.0711  3.2796
 5505TIP3   OH216478   3.622   0.344   5.071  0.0709 -0.1909 -0.3528
 5505TIP3    H116479   3.563   0.404   5.117  0.5901 -0.7176  1.0607
 5505TIP3    H216480   3.692   0.327   5.134  1.8694  0.5704 -2.0329
 5506TIP3   OH216481   7.129   5.288   1.753 -0.0060  0.1123  0.4378
 5506TIP3    H116482   7.197   5.275   1.819  0.8678 -1.1881 -0.6487
 5506TIP3    H216483   7.134   5.210   1.697 -1.0451  0.9207 -0.8693
 5507TIP3   OH216484   3.238   1.345   1.278 -0.1804  0.6219  0.3882
 5507TIP3    H116485   3.318   1.336   1.330 -0.0337 -0.0162  0.0621
 5507TIP3    H216486   3.170   1.305   1.332 -0.2335  0.9043  0.5377
 5508TIP3   OH216487   1.746   2.142   1.866  0.4845  0.0492 -0.0541
 5508TIP3    H116488   1.772   2.055   1.834 -2.3120 -0.4000 -1.3444
 5508TIP3    H216489   1.666   2.163   1.819 -0.4510  2.1664  2.2240
 5509TIP3   OH216490   6.691   2.186   5.110  0.0398  0.4358 -0.4193
 5509TIP3    H116491   6.639   2.243   5.053 -1.2521  0.7344  0.9904
 5509TIP3    H216492   6.716   2.112   5.054 -2.1912  0.1295 -1.1012
 5510TIP3   OH216493   5.695   5.112   4.382 -0.3727  0.4211 -0.4692
 5510TIP3    H116494   5.699   5.017   4.374  1.3911  0.3228  0.9272
 5510TIP3    H216495   5.621   5.128   4.440 -0.2098 -0.1609 -0.0877
 5511TIP3   OH216496   2.942   4.984   0.876 -0.7378  0.5404  0.2915
 5511TIP3    H116497   3.028   4.941   0.877 -0.1158  1.6662 -1.2371
 5511TIP3    H216498   2.946   5.048   0.946 -0.1859  0.8391 -0.0090
 5512TIP3   OH216499   3.052   0.871   3.647  0.0650  0.1735 -0.1904
 5512TIP3    H116500   3.130   0.869   3.591  0.6712  0.9126  0.6010
 5512TIP3    H216501   2.984   0.829   3.595  0.8034  0.1858 -1.1907
 5513TIP3   OH216502   3.701   5.617   2.751 -0.1599  0.4931 -0.0866
 5513TIP3    H116503   3.749   5.581   2.825 -0.7479  0.2610  0.1854
 5513TIP3    H216504   3.754   5.593   2.674 -0.2049 -0.3840  0.1469
 5514TIP3   OH216505   5.325   3.958   3.008 -0.0769  0.2878 -0.3872
 5514TIP3    H116506   5.376   3.887   3.046  1.9292  1.5742 -0.5098
 5514TIP3    H216507   5.307   4.017   3.081 -1.7271 -0.2800 -0.2842
 5515TIP3   OH216508   6.941   4.337   0.877  0.4297 -0.0007  0.1091
 5515TIP3    H116509   6.942   4.281   0.799  0.4485 -0.8631  0.7084
 5515TIP3    H216510   6.852   4.329   0.911  0.2473  0.8550 -0.1584
 5516TIP3   OH216511   4.617   2.874   2.956 -1.0541  0.3612  0.0671
 5516TIP3    H116512   4.592   2.807   3.019  2.4987  0.8610  2.3188
 5516TIP3    H216513   4.576   2.954   2.989  0.0977  0.4532  1.4063
 5517TIP3   OH216514   3.981   3.645   3.350  0.3616  0.4168  0.5874
 5517TIP3    H116515   4.003   3.725   3.303  2.7898 -0.0460  0.7683
 5517TIP3    H216516   3.935   3.591   3.287  0.2463  1.2610 -0.0682
 5518TIP3   OH216517   7.017   6.410   2.039 -0.2237  0.1992 -0.5602
 5518TIP3    H116518   6.924   6.425   2.060 -0.6688 -0.0269 -2.2023
 5518TIP3    H216519   7.022   6.317   2.018  0.0654  0.4877 -1.8397
 5519TIP3   OH216520   4.770   4.315   3.111  0.4929 -0.1276 -0.4472
 5519TIP3    H116521   4.866   4.320   3.113  0.5372 -0.6801 -0.9484
 5519TIP3    H216522   4.747   4.328   3.019  0.0366  0.6596 -0.2363
 5520TIP3   OH216523   3.817   4.540   1.448  0.6932 -0.3461  0.1858
 5520TIP3    H116524   3.746   4.583   1.402  1.0116  0.4341  0.4105
 5520TIP3    H216525   3.773   4.482   1.510  0.2336  0.5814  0.7493
 5521TIP3   OH216526   1.986   4.390   1.224 -0.3300  0.0574  0.3350
 5521TIP3    H116527   1.926   4.406   1.296  2.0683  0.1628  2.4388
 5521TIP3    H216528   2.048   4.325   1.257  1.3840  0.7424 -1.3150
 5522TIP3   OH216529   7.068   5.608   2.021  0.1925  0.0478 -0.1809
 5522TIP3    H116530   7.032   5.662   1.951  0.8767  1.2376  0.3648
 5522TIP3    H216531   7.144   5.564   1.981  1.7574  2.1859  0.2605
 5523TIP3   OH216532   4.968   4.526   4.203  0.6406 -0.2443 -0.6648
 5523TIP3    H116533   4.988   4.516   4.296 -1.5230 -0.3559 -0.1401
 5523TIP3    H216534   4.926   4.443   4.179  2.2925 -0.7228 -2.1172
 5524TIP3   OH216535   1.574   1.903   2.930  0.2396 -0.2749 -0.2056
 5524TIP3    H116536   1.571   1.999   2.924 -2.5113 -0.1680  1.3463
 5524TIP3    H216537   1.654   1.885   2.981  1.4922  1.0507 -1.5983
 5525TIP3   OH216538   0.558   5.986   4.251 -0.3222 -0.2030  0.1658
 5525TIP3    H116539   0.617   5.964   4.180  0.6447  0.1044  0.8536
 5525TIP3    H216540   0.581   5.925   4.321 -1.1072 -0.3551  0.2993
 5526TIP3   OH216541   1.522   1.673   0.534 -0.2221  0.2439 -0.3603
 5526TIP3    H116542   1.603   1.705   0.494  0.8175  0.0981  1.5136
 5526TIP3    H216543   1.453   1.723   0.491  1.1469  3.2215  0.6381
 5527TIP3   OH216544   0.451   5.529   1.659  0.2136  0.0960  0.7108
 5527TIP3    H116545   0.523   5.545   1.719  0.5417 -0.2983  0.4303
 5527TIP3    H216546   0.491   5.479   1.587 -0.3377 -0.1235  0.5542
 5528TIP3   OH216547   0.767   6.467   2.080  0.2926  0.3409  0.2748
 5528TIP3    H116548   0.857   6.440   2.061 -0.1768 -0.7484 -0.5739
 5528TIP3    H216549   0.746   6.531   2.011  0.7649  1.4465  1.1328
 5529TIP3   OH216550   4.465   3.080   1.388  0.2071  0.4904 -0.6391
 5529TIP3    H116551   4.486   3.032   1.468  0.8797 -0.9402 -1.6294
 5529TIP3    H216552   4.376   3.052   1.366  0.4109  0.0595 -0.9399
 5530TIP3   OH216553   6.192   0.666   1.703  0.9890  0.7287 -0.3669
 5530TIP3    H116554   6.246   0.617   1.765 -0.6007  1.1038  1.3713
 5530TIP3    H216555   6.242   0.746   1.686  0.8925  1.2226  1.4663
 5531TIP3   OH216556   6.159   5.240   5.586 -0.4606  0.6430  0.0834
 5531TIP3    H116557   6.172   5.157   5.540  2.4638  0.9172  0.2452
 5531TIP3    H216558   6.126   5.214   5.672  0.5507 -0.4212  0.1863
 5532TIP3   OH216559   0.806   3.375   1.389 -0.0133  0.4297 -0.4653
 5532TIP3    H116560   0.847   3.347   1.308  1.1038 -1.4536  0.6823
 5532TIP3    H216561   0.853   3.455   1.414 -0.7659  1.3696 -1.9084
 5533TIP3   OH216562   1.736   0.141   2.953  0.3275  0.2438 -0.2630
 5533TIP3    H116563   1.716   0.166   3.044 -0.0898 -0.4861 -0.1509
 5533TIP3    H216564   1.679   0.197   2.900  0.7841  0.8829 -0.0968
 5534TIP3   OH216565   3.159   4.238   1.468 -0.1279  0.0286 -0.0541
 5534TIP3    H116566   3.072   4.239   1.508 -0.3771  0.3960 -0.6009
 5534TIP3    H216567   3.211   4.183   1.527 -1.1339 -1.5610 -0.5789
 5535TIP3   OH216568   1.348   3.736   4.791 -0.7178 -0.2592  0.6177
 5535TIP3    H116569   1.370   3.778   4.708 -0.0692 -0.2508  0.7889
 5535TIP3    H216570   1.336   3.809   4.852 -2.7968 -0.1727  0.1832
 5536TIP3   OH216571   6.568   4.367   4.109 -0.0543 -0.0710 -0.0741
 5536TIP3    H116572   6.523   4.408   4.183  1.9191 -1.3448  1.9732
 5536TIP3    H216573   6.534   4.412   4.032 -1.3863  2.1255  1.6743
 5537TIP3   OH216574   1.641   2.990   2.020 -0.2495 -0.4649 -0.3447
 5537TIP3    H116575   1.597   3.026   2.096 -1.2057 -0.3661 -0.9320
 5537TIP3    H216576   1.586   2.918   1.992  0.3870 -0.8538 -0.6175
 5538TIP3   OH216577   2.493   5.180   5.779 -0.1000  0.1233 -0.1196
 5538TIP3    H116578   2.458   5.160   5.692  1.1966 -1.0189 -0.4150
 5538TIP3    H216579   2.519   5.096   5.815  1.5488  0.8158  0.4126
 5539TIP3   OH216580   0.979   3.286   2.601  0.1684 -0.1077  0.4015
 5539TIP3    H116581   1.069   3.279   2.570  0.3492 -0.1813  0.9404
 5539TIP3    H216582   0.986   3.286   2.696 -0.4265 -0.4805  0.4514
 5540TIP3   OH216583   1.656   3.960   4.344  0.3099 -0.0962  0.6142
 5540TIP3    H116584   1.730   3.901   4.360  0.6161  0.5469  1.7326
 5540TIP3    H216585   1.679   4.006   4.263  0.7491 -0.4879  0.5146
 5541TIP3   OH216586   6.532   4.408   0.570 -0.3178 -0.1548  0.2765
 5541TIP3    H116587   6.502   4.351   0.641  0.0624  1.1938  1.5663
 5541TIP3    H216588   6.618   4.374   0.546 -0.2019 -0.2746  0.8616
 5542TIP3   OH216589   1.315   0.000   5.301 -0.6011  0.4881  0.3386
 5542TIP3    H116590   1.358   0.044   5.374  0.1611  2.7960 -1.3685
 5542TIP3    H216591   1.222   0.004   5.321 -0.3638  0.4228  1.5025
 5543TIP3   OH216592   3.750   0.968   1.011  0.3311 -0.6746 -0.0391
 5543TIP3    H116593   3.699   0.959   0.931 -2.1667 -0.2287  1.3906
 5543TIP3    H216594   3.817   1.034   0.991 -0.8121  0.0860 -1.4824
 5544TIP3   OH216595   3.872   3.495   3.109 -0.3034 -0.5378 -0.2395
 5544TIP3    H116596   3.916   3.461   3.031  0.3748 -2.7856  1.0184
 5544TIP3    H216597   3.836   3.417   3.152 -0.6077  0.6108  1.7197
 5545TIP3   OH216598   5.077   1.678   3.399 -0.3244 -0.1651  0.2835
 5545TIP3    H116599   5.058   1.591   3.365 -1.1650 -0.0802  0.5283
 5545TIP3    H216600   5.170   1.692   3.377 -0.5107 -0.6034 -0.8482
 5546TIP3   OH216601   6.718   4.589   1.558 -0.1166  0.2933  0.1161
 5546TIP3    H116602   6.802   4.547   1.540  0.2321  0.5527  1.0609
 5546TIP3    H216603   6.700   4.643   1.481 -0.3504 -1.2177 -0.9207
 5547TIP3   OH216604   1.510   4.432   1.476 -0.0181 -0.6432 -0.6718
 5547TIP3    H116605   1.513   4.341   1.503 -0.3699 -0.6495 -0.6422
 5547TIP3    H216606   1.425   4.463   1.507  0.2406 -0.2097 -0.3812
 5548TIP3   OH216607   1.155   2.918   4.104  0.2726  0.7674 -0.0238
 5548TIP3    H116608   1.220   2.882   4.164 -1.8917 -1.4785  1.1966
 5548TIP3    H216609   1.194   2.910   4.018  2.4849  1.7153  0.8247
 5549TIP3   OH216610   3.783   3.509   0.306  0.0659 -0.0590  0.1233
 5549TIP3    H116611   3.786   3.512   0.211 -1.8752  0.6759  0.0497
 5549TIP3    H216612   3.798   3.416   0.327 -1.9312 -0.7129 -1.0650
 5550TIP3   OH216613   1.533   1.130   1.431 -0.1773 -0.1316 -0.0101
 5550TIP3    H116614   1.615   1.083   1.418 -0.9970 -1.5868 -0.1423
 5550TIP3    H216615   1.472   1.063   1.463 -1.2920  0.9311  0.1514
 5551TIP3   OH216616   7.156   3.086   5.027 -0.2715 -0.3651  0.2015
 5551TIP3    H116617   7.137   3.153   4.961  2.0112 -1.8418 -2.1232
 5551TIP3    H216618   7.072   3.040   5.039 -1.0206  0.7012 -0.7732
 5552TIP3   OH216619   2.436   1.329   2.196 -0.2415  0.3692 -0.1180
 5552TIP3    H116620   2.422   1.272   2.271 -0.2988 -0.7099 -0.9196
 5552TIP3    H216621   2.364   1.308   2.136  0.8015 -0.1208 -1.2463
 5553TIP3   OH216622   1.094   0.981   2.788 -0.3745 -0.0284 -0.7400
 5553TIP3    H116623   1.063   0.892   2.770 -1.0461  0.2030 -0.7738
 5553TIP3    H216624   1.016   1.035   2.779 -0.1622  0.4511  0.1950
 5554TIP3   OH216625   0.902   2.954   1.321 -0.1057 -0.0232 -0.0022
 5554TIP3    H116626   0.858   3.038   1.335  1.2162  0.5021  1.2884
 5554TIP3    H216627   0.990   2.978   1.291  0.4864 -0.9055  0.9657
 5555TIP3   OH216628   6.513   3.380   5.652 -0.6575  0.2077  0.5231
 5555TIP3    H116629   6.489   3.381   5.559 -0.8477  0.4136  0.5751
 5555TIP3    H216630   6.444   3.430   5.696 -0.7340 -0.1508  0.8187
 5556TIP3   OH216631   3.323   6.559   2.236  0.0055  0.0517 -0.3280
 5556TIP3    H116632   3.384   6.633   2.228  2.3338 -1.5081  1.3904
 5556TIP3    H216633   3.341   6.524   2.324 -2.4526 -1.3601 -0.3139
 5557TIP3   OH216634   5.122   3.053   2.754 -0.0808 -0.2709 -0.0031
 5557TIP3    H116635   5.078   3.049   2.839  0.7255 -2.1519  0.3982
 5557TIP3    H216636   5.128   3.146   2.734 -1.2146  0.1684  1.5056
 5558TIP3   OH216637   5.950   5.809   5.470 -0.1369 -0.5331 -0.2655
 5558TIP3    H116638   6.005   5.859   5.531 -0.8606  0.5830 -0.4935
 5558TIP3    H216639   5.972   5.718   5.487  0.1373 -0.2168  1.2237
 5559TIP3   OH216640   6.643   2.813   0.217 -0.0073 -0.1543 -0.1221
 5559TIP3    H116641   6.550   2.808   0.194 -1.1160  4.0443  2.3280
 5559TIP3    H216642   6.675   2.889   0.168  1.7484 -0.6368  0.2323
 5560TIP3   OH216643   0.943   4.929   1.955  0.7231  0.0026  0.0532
 5560TIP3    H116644   0.874   4.956   2.015  0.0703  0.7245 -1.0005
 5560TIP3    H216645   0.898   4.907   1.874  1.7126  0.2398 -0.5743
 5561TIP3   OH216646   6.172   6.460   2.818  0.0671 -0.6232  0.0041
 5561TIP3    H116647   6.259   6.433   2.790  0.0654  1.8575 -2.8915
 5561TIP3    H216648   6.183   6.488   2.908  2.3418 -0.1781 -0.3624
 5562TIP3   OH216649   4.411   2.946   1.614  0.3578  0.1420 -0.1060
 5562TIP3    H116650   4.318   2.925   1.614  0.1981  0.8435 -0.0159
 5562TIP3    H216651   4.455   2.860   1.612 -0.2548 -0.3822  2.8805
 5563TIP3   OH216652   1.610   6.363   3.114  0.3233  0.6200  0.4945
 5563TIP3    H116653   1.549   6.289   3.107  1.4825 -0.2907 -0.3338
 5563TIP3    H216654   1.620   6.393   3.024  0.1223  1.5898  0.7897
 5564TIP3   OH216655   2.286   5.136   0.955 -0.1419 -0.3950 -0.3375
 5564TIP3    H116656   2.310   5.066   0.895 -1.3751 -1.3803  0.2859
 5564TIP3    H216657   2.288   5.215   0.901  1.1687 -0.8945 -1.0726
 5565TIP3   OH216658   4.181   3.823   5.243  0.2813  0.0309 -0.4915
 5565TIP3    H116659   4.264   3.861   5.271 -0.3236  1.4566 -0.5543
 5565TIP3    H216660   4.142   3.787   5.323  0.3486  0.5668 -0.2168
 5566TIP3   OH216661   4.587   2.447   2.846  1.0505  0.3686 -0.8378
 5566TIP3    H116662   4.599   2.513   2.915  0.0556 -0.7492  0.4532
 5566TIP3    H216663   4.563   2.498   2.769 -1.3435  1.4753  0.5228
 5567TIP3   OH216664   4.599   1.427   3.647 -0.0151  0.4028 -0.0479
 5567TIP3    H116665   4.587   1.519   3.672  2.4638  0.7266  0.2302
 5567TIP3    H216666   4.690   1.421   3.619 -0.4472 -1.7417 -1.2668
 5568TIP3   OH216667   4.023   3.329   4.030  0.4394 -0.4161 -0.0511
 5568TIP3    H116668   3.928   3.337   4.027  0.3019 -1.5587  0.6660
 5568TIP3    H216669   4.052   3.356   3.943 -0.7911 -2.9660 -1.3547
 5569TIP3   OH216670   3.410   4.763   3.750  0.1862  0.1648  0.4279
 5569TIP3    H116671   3.444   4.675   3.734  0.8613  0.2101  1.4909
 5569TIP3    H216672   3.488   4.819   3.748 -0.1684  0.6556  0.2870
 5570TIP3   OH216673   5.165   3.706   4.807 -0.5696 -0.0141 -0.1994
 5570TIP3    H116674   5.204   3.775   4.859 -1.3081 -1.0842  1.8885
 5570TIP3    H216675   5.234   3.680   4.746  1.3506 -0.5287  2.0458
 5571TIP3   OH216676   1.669   4.574   3.180  0.2246 -0.1716  0.2341
 5571TIP3    H116677   1.690   4.588   3.272  2.6366 -0.6677 -0.1688
 5571TIP3    H216678   1.583   4.615   3.168  0.9780  2.1803  2.1044
 5572TIP3   OH216679   4.929   4.472   4.963  0.1422 -0.5719  0.5504
 5572TIP3    H116680   5.019   4.446   4.983  0.8633  2.0639  1.1317
 5572TIP3    H216681   4.903   4.415   4.891  2.6776 -0.6693 -0.3817
 5573TIP3   OH216682   6.435   5.210   3.952  0.4717 -0.2736  0.1995
 5573TIP3    H116683   6.364   5.185   3.893 -0.0591  0.5493  0.4659
 5573TIP3    H216684   6.497   5.259   3.898 -0.6060  1.5518  0.5119
 5574TIP3   OH216685   0.239   5.520   3.706  0.0484 -0.0622 -0.0715
 5574TIP3    H116686   0.321   5.560   3.734  1.4578 -2.0626 -1.2057
 5574TIP3    H216687   0.261   5.430   3.683 -2.1417 -0.2126 -1.9606
 5575TIP3   OH216688   4.739   6.271   0.635  0.4499  0.0853  0.0848
 5575TIP3    H116689   4.689   6.334   0.688  2.9179  1.1349  1.3309
 5575TIP3    H216690   4.698   6.187   0.653 -3.1703  1.2086 -1.8650
 5576TIP3   OH216691   1.878   6.361   1.495  0.6583  0.5371  0.2503
 5576TIP3    H116692   1.892   6.456   1.492  1.7751  0.6610  4.0528
 5576TIP3    H216693   1.966   6.324   1.486  0.5019 -0.0127  0.9535
 5577TIP3   OH216694   2.434   1.069   2.790  0.3556  0.2295 -0.3853
 5577TIP3    H116695   2.382   1.026   2.721 -0.4831  1.5271 -0.6073
 5577TIP3    H216696   2.430   1.009   2.864  0.6371 -0.8487 -1.2279
 5578TIP3   OH216697   5.912   2.049   1.669 -0.5944  0.6099  0.5895
 5578TIP3    H116698   5.873   1.993   1.602 -0.6020  1.4457 -0.1306
 5578TIP3    H216699   6.000   2.014   1.681 -1.0791 -0.4377  1.2134
 5579TIP3   OH216700   2.715   0.649   5.158 -1.0634 -0.2415 -0.1156
 5579TIP3    H116701   2.722   0.597   5.078  0.1400 -0.2619 -0.0164
 5579TIP3    H216702   2.697   0.738   5.128 -1.0029 -0.3206 -0.3866
 5580TIP3   OH216703   4.168   3.765   4.353  0.1435  0.3212  0.0249
 5580TIP3    H116704   4.206   3.729   4.273 -1.2359  0.1214 -0.5757
 5580TIP3    H216705   4.129   3.848   4.325 -2.3413 -0.7833 -0.0903
 5581TIP3   OH216706   7.079   6.765   3.318 -0.1338  0.2993 -0.1077
 5581TIP3    H116707   7.073   6.853   3.280 -0.1753  0.0948 -0.5781
 5581TIP3    H216708   7.129   6.778   3.399  1.6053  0.4560 -1.1496
 5582TIP3   OH216709   2.620   2.531   0.939  0.4799  0.2101  0.0339
 5582TIP3    H116710   2.536   2.552   0.899 -0.3567 -2.9406 -0.1353
 5582TIP3    H216711   2.611   2.558   1.030 -0.7653 -0.1029  0.0188
 5583TIP3   OH216712   5.699   4.064   3.631 -0.1694 -0.0528  0.4286
 5583TIP3    H116713   5.708   4.028   3.719 -1.7338 -1.3613  0.1066
 5583TIP3    H216714   5.703   3.987   3.573  0.6187  0.7562 -0.6521
 5584TIP3   OH216715   4.542   2.300   1.105  0.2977  0.0349 -0.0359
 5584TIP3    H116716   4.542   2.389   1.140  0.4675 -0.1605  0.4673
 5584TIP3    H216717   4.450   2.284   1.081  0.3090  0.4269 -0.3466
 5585TIP3   OH216718   5.325   3.646   3.703 -0.3051  0.4580  0.8591
 5585TIP3    H116719   5.283   3.565   3.731  0.4618 -0.5094 -0.6832
 5585TIP3    H216720   5.355   3.686   3.785  1.3579 -1.9542  1.5336
 5586TIP3   OH216721   3.580   2.649   3.237  0.5238 -0.6549  0.4120
 5586TIP3    H116722   3.570   2.718   3.172  0.9617 -0.5637  0.4374
 5586TIP3    H216723   3.509   2.665   3.300  0.5899 -0.2639  0.3896
 5587TIP3   OH216724   6.864   0.258   5.532 -0.1942 -0.3149 -0.1928
 5587TIP3    H116725   6.942   0.222   5.490 -0.0161 -0.4864  0.2780
 5587TIP3    H216726   6.896   0.335   5.580 -0.6034  0.5855 -1.3367
 5588TIP3   OH216727   4.125   5.858   0.969  0.3227  0.2983  0.1664
 5588TIP3    H116728   4.034   5.867   0.999  0.3367  0.5912  0.1193
 5588TIP3    H216729   4.166   5.801   1.034 -0.2576 -0.9853 -0.5541
 5589TIP3   OH216730   3.604   4.617   0.484 -0.3483  0.2125  0.3646
 5589TIP3    H116731   3.664   4.542   0.490  1.3488  0.9475 -3.7533
 5589TIP3    H216732   3.517   4.578   0.477  0.3805 -1.3737 -0.5178
 5590TIP3   OH216733   5.018   0.300   5.072 -0.4521  0.3424 -0.1497
 5590TIP3    H116734   5.113   0.302   5.086 -0.4024 -2.2911  0.3644
 5590TIP3    H216735   4.989   0.389   5.093  1.7432  0.9034  0.8185
 5591TIP3   OH216736   3.605   3.150   2.629  0.3425 -0.2403  0.1451
 5591TIP3    H116737   3.582   3.115   2.543 -1.8643 -1.9812  1.3296
 5591TIP3    H216738   3.648   3.233   2.610 -0.3054 -0.4261 -2.6223
 5592TIP3   OH216739   2.744   0.413   5.003 -0.1731  0.4442  0.1560
 5592TIP3    H116740   2.814   0.350   4.984 -0.3365  0.4397 -0.4532
 5592TIP3    H216741   2.693   0.416   4.922 -1.5847 -0.4613  0.9635
 5593TIP3   OH216742   5.560   4.807   2.227 -0.4044  0.6024  0.3013
 5593TIP3    H116743   5.525   4.873   2.168 -1.6158 -0.4232 -0.1607
 5593TIP3    H216744   5.514   4.726   2.204  1.7518 -0.6616  0.1551
 5594TIP3   OH216745   1.548   3.419   3.112  0.6416  0.4912 -0.3852
 5594TIP3    H116746   1.567   3.463   3.194 -0.4206  3.2517 -1.4893
 5594TIP3    H216747   1.475   3.469   3.074 -0.5681 -2.1865 -1.8710
 5595TIP3   OH216748   5.904   6.800   4.628  0.4723 -0.4400 -0.3745
 5595TIP3    H116749   5.939   6.711   4.638  0.3016 -0.4765 -0.0957
 5595TIP3    H216750   5.938   6.848   4.703  0.3042 -0.3533 -0.3529
 5596TIP3   OH216751   5.127   6.304   3.340  0.0945 -0.0364  0.2218
 5596TIP3    H116752   5.132   6.365   3.267  3.2742  0.0307  0.3706
 5596TIP3    H216753   5.049   6.331   3.389 -1.1213  0.9931 -2.1323
 5597TIP3   OH216754   6.992   5.554   3.501  0.4697 -0.4730  0.1821
 5597TIP3    H116755   6.995   5.615   3.427 -0.4049 -0.8155 -0.1433
 5597TIP3    H216756   7.076   5.508   3.498  1.3573  1.0283  0.7204
 5598TIP3   OH216757   4.463   5.167   4.534  0.4163  0.0411  0.0442
 5598TIP3    H116758   4.549   5.137   4.504  0.7362 -1.3172  2.0513
 5598TIP3    H216759   4.468   5.160   4.630 -1.7319  0.5091  0.2434
 5599TIP3   OH216760   5.184   2.760   2.596  0.3569 -0.2266 -0.1848
 5599TIP3    H116761   5.135   2.760   2.678  1.2028  0.0635  0.3316
 5599TIP3    H216762   5.212   2.669   2.585  0.9609 -0.0990  0.2880
 5600TIP3   OH216763   7.099   4.266   5.638 -0.1753 -0.2072 -0.2296
 5600TIP3    H116764   7.016   4.222   5.655 -0.5185  0.3569 -0.4153
 5600TIP3    H216765   7.097   4.285   5.544  0.8187 -1.5174 -0.5508
 5601TIP3   OH216766   1.494   3.847   3.418  0.5146 -0.5759 -0.3414
 5601TIP3    H116767   1.545   3.867   3.496 -0.6399  2.0754 -0.1480
 5601TIP3    H216768   1.533   3.902   3.349  0.8855 -2.1104 -1.3957
 5602TIP3   OH216769   4.386   6.383   2.032 -0.4947 -0.2525 -0.3348
 5602TIP3    H116770   4.388   6.320   1.959 -1.6938  0.0243 -0.6233
 5602TIP3    H216771   4.296   6.380   2.064  0.0684 -0.5418  1.3109
 5603TIP3   OH216772   1.697   6.762   2.928 -0.6193 -0.1791 -0.0292
 5603TIP3    H116773   1.666   6.677   2.896 -0.8783 -0.7883  1.7354
 5603TIP3    H216774   1.782   6.773   2.885 -1.0186 -0.8504 -1.0502
 5604TIP3   OH216775   5.696   0.336   5.814  0.1299  0.0589 -0.0161
 5604TIP3    H116776   5.747   0.256   5.829 -0.4896 -0.2053  0.7231
 5604TIP3    H216777   5.608   0.313   5.842 -0.2717  0.6980 -0.7417
 5605TIP3   OH216778   5.030   6.401   4.240  0.4049 -0.2878  0.3089
 5605TIP3    H116779   4.990   6.428   4.158  1.5180  3.8519  0.8862
 5605TIP3    H216780   4.982   6.449   4.307  2.0162 -0.4477  1.6522
 5606TIP3   OH216781   1.322   4.803   1.884  0.2636  0.4436 -0.1574
 5606TIP3    H116782   1.377   4.725   1.883 -0.3547  0.0053 -0.4338
 5606TIP3    H216783   1.237   4.773   1.916  0.5549  1.3814  1.6540
 5607TIP3   OH216784   3.078   3.478   4.550 -0.1650 -0.0588 -0.1317
 5607TIP3    H116785   2.987   3.499   4.571 -0.3008  0.9850 -1.6105
 5607TIP3    H216786   3.127   3.555   4.579  0.3690 -0.8848  1.2576
 5608TIP3   OH216787   4.884   6.073   4.968 -0.6209  0.2481 -0.2418
 5608TIP3    H116788   4.827   6.142   5.002 -2.9115 -1.8565  0.4722
 5608TIP3    H216789   4.824   6.004   4.940  1.5599 -1.5885 -0.6494
 5609TIP3   OH216790   4.351   5.125   3.551 -0.9210 -0.2416 -0.8631
 5609TIP3    H116791   4.319   5.166   3.471  0.8714  0.1236 -1.4487
 5609TIP3    H216792   4.291   5.052   3.567 -2.4155  0.8099 -1.4610
 5610TIP3   OH216793   6.624   6.292   5.896  0.3069  0.7149  0.5560
 5610TIP3    H116794   6.531   6.304   5.878  0.5579  0.6631 -0.9069
 5610TIP3    H216795   6.668   6.342   5.827  1.3639  0.2652  0.8914
 5611TIP3   OH216796   5.376   5.861   1.240  0.5081  0.3444 -0.4800
 5611TIP3    H116797   5.346   5.886   1.153 -0.5402 -1.4255 -0.6522
 5611TIP3    H216798   5.338   5.927   1.298 -0.8296  0.1320 -1.0988
 5612TIP3   OH216799   6.392   2.180   5.628  0.0518 -0.0255 -0.0017
 5612TIP3    H116800   6.402   2.087   5.649  0.3876  0.0661  0.2600
 5612TIP3    H216801   6.427   2.225   5.705  0.3861  0.3180 -0.3499
 5613TIP3   OH216802   3.392   4.823   1.381  0.6608 -0.0882  0.2699
 5613TIP3    H116803   3.338   4.902   1.373 -0.0484 -0.6868 -1.3943
 5613TIP3    H216804   3.438   4.833   1.464  0.9283  2.2762 -0.1163
 5614TIP3   OH216805   1.966   2.499   1.216 -0.5710 -0.5817 -0.3173
 5614TIP3    H116806   2.046   2.482   1.166 -1.4400 -0.1338 -1.8957
 5614TIP3    H216807   1.934   2.412   1.240 -1.0189 -0.8958 -1.9713
 5615TIP3   OH216808   4.091   1.652   2.935  0.0588  0.4749 -0.8096
 5615TIP3    H116809   4.179   1.629   2.902  0.3338  0.7833 -0.2925
 5615TIP3    H216810   4.063   1.574   2.982 -0.0628  0.2757 -1.2023
 5616TIP3   OH216811   5.332   3.215   1.691  0.3019 -0.0731 -0.4795
 5616TIP3    H116812   5.386   3.188   1.617  0.1767  0.3061 -0.7183
 5616TIP3    H216813   5.324   3.310   1.681 -0.8712 -0.1793 -0.7833
 5617TIP3   OH216814   2.795   5.614   5.893  0.1658 -0.7095  0.2391
 5617TIP3    H116815   2.856   5.672   5.848 -0.3865 -0.3947 -0.1116
 5617TIP3    H216816   2.848   5.538   5.919  0.5627 -0.7430 -0.6435
 5618TIP3   OH216817   3.307   3.919   2.375  0.2382 -0.2700  0.1174
 5618TIP3    H116818   3.291   4.012   2.361 -1.9831 -0.3321  1.7101
 5618TIP3    H216819   3.234   3.876   2.331  3.0808 -1.6736 -3.8782
 5619TIP3   OH216820   3.033   4.795   2.343 -0.3342  0.1206  0.4897
 5619TIP3    H116821   3.000   4.884   2.335  0.1990  0.3981  1.2883
 5619TIP3    H216822   3.064   4.773   2.254 -1.7960  0.1726 -0.0582
 5620TIP3   OH216823   4.885   4.778   3.887 -0.3148  0.4897 -0.2092
 5620TIP3    H116824   4.958   4.720   3.862  1.5401  2.2379  0.8567
 5620TIP3    H216825   4.890   4.781   3.983 -3.8274 -1.7814  0.2191
 5621TIP3   OH216826   6.263   4.403   0.886 -0.5373 -0.0502 -0.0750
 5621TIP3    H116827   6.324   4.335   0.857 -1.1568  0.0496 -1.6681
 5621TIP3    H216828   6.225   4.368   0.967 -1.5583 -2.0657 -1.3467
 5622TIP3   OH216829   0.249   6.625   4.800 -0.1438 -0.4050 -0.3424
 5622TIP3    H116830   0.169   6.602   4.848  0.0386 -0.3252 -0.0022
 5622TIP3    H216831   0.263   6.717   4.819  0.9831 -0.8204  0.9963
 5623TIP3   OH216832   3.731   0.352   1.965  0.0891  0.1214 -0.5286
 5623TIP3    H116833   3.643   0.336   1.929  0.2926  0.9437 -1.4210
 5623TIP3    H216834   3.745   0.278   2.024 -2.8239  1.9107  2.7868
 5624TIP3   OH216835   6.289   6.141   4.984 -0.3178 -0.0524 -0.4679
 5624TIP3    H116836   6.264   6.078   5.052  0.2423 -0.7788 -0.9114
 5624TIP3    H216837   6.336   6.210   5.030 -1.6989  0.5086  0.1502
 5625TIP3   OH216838   1.012   2.985   5.321  0.4339 -0.1254 -0.3350
 5625TIP3    H116839   0.998   2.939   5.238  2.6798  1.4667 -1.7312
 5625TIP3    H216840   1.107   2.990   5.330  0.2642 -0.5547  2.5828
 5626TIP3   OH216841   5.648   5.303   0.380 -0.3111 -0.2408 -0.4506
 5626TIP3    H116842   5.735   5.283   0.344 -0.2513  0.5690 -0.7874
 5626TIP3    H216843   5.649   5.264   0.467  0.6690  0.3560 -0.1663
 5627TIP3   OH216844   6.396   4.775   2.155 -0.0147  0.3771  0.2740
 5627TIP3    H116845   6.363   4.685   2.148  5.5079 -2.0883  0.3873
 5627TIP3    H216846   6.430   4.780   2.244 -0.1512  2.6094  0.2334
 5628TIP3   OH216847   6.302   4.697   4.860 -0.2180 -0.6374 -0.1325
 5628TIP3    H116848   6.261   4.635   4.800 -0.5478  0.2737 -0.8740
 5628TIP3    H216849   6.394   4.697   4.834 -0.2258 -0.7847 -0.1633
 5629TIP3   OH216850   4.395   6.411   4.792 -0.0261  0.4444 -0.3474
 5629TIP3    H116851   4.404   6.322   4.760 -0.2226  0.9632 -1.9617
 5629TIP3    H216852   4.338   6.404   4.868 -2.0024 -0.5674 -1.8329
 5630TIP3   OH216853   5.628   4.652   4.615  0.1730 -0.4836 -0.3208
 5630TIP3    H116854   5.721   4.637   4.598  0.0960 -0.8276 -0.4237
 5630TIP3    H216855   5.607   4.729   4.563  0.1245 -1.0652 -1.1809
 5631TIP3   OH216856   0.769   6.458   3.042  0.3519 -0.3622 -0.1523
 5631TIP3    H116857   0.778   6.442   3.137 -0.4645 -3.9760 -0.5049
 5631TIP3    H216858   0.850   6.425   3.005  0.0594 -0.3510 -0.8110
 5632TIP3   OH216859   1.640   1.785   1.277 -0.0498 -0.0705  0.4257
 5632TIP3    H116860   1.552   1.816   1.299  0.5249  1.3693  0.7876
 5632TIP3    H216861   1.626   1.725   1.204 -1.2948  0.5005  0.1582
 5633TIP3   OH216862   5.496   3.159   3.475  0.2978  0.2646  0.1272
 5633TIP3    H116863   5.455   3.118   3.399  1.4390 -0.0080 -0.3602
 5633TIP3    H216864   5.533   3.086   3.524 -1.0108  0.3715  1.3291
 5634TIP3   OH216865   7.039   3.201   0.084 -0.1877  0.4193 -0.8579
 5634TIP3    H116866   7.070   3.236   0.168  1.3514  2.1497 -2.0519
 5634TIP3    H216867   6.984   3.271   0.049  1.6275  1.0617 -2.5821
 5635TIP3   OH216868   5.862   6.545   2.390  0.0245 -0.9036 -0.2236
 5635TIP3    H116869   5.890   6.566   2.479 -1.8753  2.4109 -0.2620
 5635TIP3    H216870   5.801   6.472   2.401 -1.5242  0.5434  1.5018
 5636TIP3   OH216871   6.856   4.837   3.869 -0.0771 -1.0416 -0.3735
 5636TIP3    H116872   6.926   4.772   3.863  0.2344 -0.8212  0.5853
 5636TIP3    H216873   6.857   4.882   3.785  2.8287  0.8152  0.4910
 5637TIP3   OH216874   1.451   3.476   1.249 -0.2067 -0.2950  0.3181
 5637TIP3    H116875   1.415   3.480   1.160 -0.8110 -0.2403  0.5652
 5637TIP3    H216876   1.375   3.463   1.305  0.1723 -0.2888  0.8352
 5638TIP3   OH216877   3.846   0.647   5.703  0.3558  0.7495  0.0297
 5638TIP3    H116878   3.783   0.704   5.747  0.7068  1.1919 -0.0410
 5638TIP3    H216879   3.842   0.564   5.752 -0.7534  0.5468 -0.3679
 5639TIP3   OH216880   4.530   5.000   2.369 -0.0652 -0.2786  0.3733
 5639TIP3    H116881   4.462   4.933   2.371  0.1644 -0.5033  0.9689
 5639TIP3    H216882   4.587   4.979   2.443 -0.0434  0.6315  0.6365
 5640TIP3   OH216883   6.553   4.753   1.377 -0.2224 -0.0742  0.1856
 5640TIP3    H116884   6.498   4.719   1.448  0.0452  0.3787  0.6111
 5640TIP3    H216885   6.493   4.761   1.303 -0.5719 -0.2604  0.4414
 5641TIP3   OH216886   1.563   1.596   1.091  0.0791  0.2432 -0.2704
 5641TIP3    H116887   1.505   1.537   1.043  1.0117 -0.6520 -0.3228
 5641TIP3    H216888   1.651   1.573   1.061  0.7799 -0.8008  2.3029
 5642TIP3   OH216889   6.483   1.927   4.406  0.1181 -0.8895  0.2610
 5642TIP3    H116890   6.421   1.986   4.448  2.0431  2.0804 -0.7194
 5642TIP3    H216891   6.538   1.894   4.478  1.4725  1.7299  0.5355
 5643TIP3   OH216892   3.017   6.056   4.456 -0.4009  0.6422  0.2260
 5643TIP3    H116893   3.043   5.985   4.398  0.8966 -0.2933  1.8955
 5643TIP3    H216894   2.951   6.018   4.514  0.0095  0.8979  0.8720
 5644TIP3   OH216895   0.953   1.555   3.434 -0.4412 -0.7153  0.2161
 5644TIP3    H116896   1.038   1.599   3.437 -1.2297  0.8750  0.4227
 5644TIP3    H216897   0.974   1.462   3.438  1.2581 -0.3455  0.7976
 5645TIP3   OH216898   2.737   5.385   0.923  0.2882 -0.2265 -0.2646
 5645TIP3    H116899   2.714   5.452   0.988  1.9516  0.5349 -0.4264
 5645TIP3    H216900   2.682   5.310   0.947  0.0353  0.4146  1.3270
 5646TIP3   OH216901   5.552   4.994   5.780 -0.1069  0.4950 -0.1053
 5646TIP3    H116902   5.487   5.045   5.829  0.1659  0.3156  0.4501
 5646TIP3    H216903   5.589   5.056   5.718  0.1252  0.9460  0.4744
 5647TIP3   OH216904   3.697   2.299   2.386  0.0818  0.3171  0.6513
 5647TIP3    H116905   3.670   2.366   2.448  0.4014 -0.1755  1.3391
 5647TIP3    H216906   3.619   2.283   2.333  0.2949  1.9491 -0.2201
 5648TIP3   OH216907   5.052   4.791   4.141 -0.2671  0.3291  0.1275
 5648TIP3    H116908   5.089   4.862   4.194 -0.3137  0.6683 -0.2843
 5648TIP3    H216909   5.029   4.723   4.204  0.8691  0.1894  0.4202
 5649TIP3   OH216910   7.024   3.547   2.274  0.1812 -0.2809 -0.1669
 5649TIP3    H116911   7.053   3.458   2.295 -0.1182 -0.7433 -1.5921
 5649TIP3    H216912   7.101   3.601   2.287  0.5651 -0.8580  0.0064
 5650TIP3   OH216913   6.488   6.207   4.157 -0.4733  0.1068  0.6612
 5650TIP3    H116914   6.578   6.211   4.126 -0.6830  1.0294  0.1569
 5650TIP3    H216915   6.494   6.219   4.252 -0.1175  0.8369  0.5485
 5651TIP3   OH216916   0.844   4.220   4.155 -0.3914  0.4742  0.6123
 5651TIP3    H116917   0.920   4.265   4.192 -0.7240  0.8991  0.7704
 5651TIP3    H216918   0.843   4.246   4.063 -1.9432  2.6929  1.1824
 5652TIP3   OH216919   6.211   2.618   4.638  0.6189 -0.0010 -0.2657
 5652TIP3    H116920   6.280   2.674   4.671 -0.0329 -0.4653  2.1347
 5652TIP3    H216921   6.256   2.542   4.602  1.3949  0.0397  0.5945
 5653TIP3   OH216922   6.217   5.750   0.990 -0.1248  0.7172 -0.6060
 5653TIP3    H116923   6.265   5.683   0.942  0.0044 -1.2103  2.0016
 5653TIP3    H216924   6.222   5.722   1.082 -4.5699  1.4384  0.0711
 5654TIP3   OH216925   5.634   0.967   0.647  0.0879 -0.0078 -0.4424
 5654TIP3    H116926   5.673   0.920   0.721 -0.1128 -0.9834 -0.9345
 5654TIP3    H216927   5.609   0.898   0.586 -3.0687  0.4604  0.1490
 5655TIP3   OH216928   5.040   4.360   3.129  0.0788  0.4726 -0.1015
 5655TIP3    H116929   5.049   4.310   3.048 -1.8260 -0.3180  0.1476
 5655TIP3    H216930   5.039   4.452   3.100  1.7058  0.3260 -0.7249
 5656TIP3   OH216931   6.077   4.973   4.915 -0.0386  0.1194  0.6762
 5656TIP3    H116932   5.984   4.976   4.890 -0.5201 -0.9287  2.2101
 5656TIP3    H216933   6.124   4.994   4.834 -1.5670 -1.0299 -0.5707
 5657TIP3   OH216934   3.191   0.934   2.543  0.1414 -0.2043  0.1565
 5657TIP3    H116935   3.189   0.839   2.539 -1.7481 -0.1744 -0.4097
 5657TIP3    H216936   3.192   0.962   2.452  0.7842  0.3444  0.3188
 5658TIP3   OH216937   1.305   4.101   0.330  0.4917 -0.3051 -0.2775
 5658TIP3    H116938   1.352   4.032   0.377 -0.8250  0.0143  1.6275
 5658TIP3    H216939   1.217   4.065   0.317  0.2526  0.4169 -0.6771
 5659TIP3   OH216940   1.748   0.310   1.250  0.1050 -0.1341  0.2270
 5659TIP3    H116941   1.662   0.336   1.219  0.8970  0.7886 -1.3388
 5659TIP3    H216942   1.755   0.217   1.227 -0.4920 -0.2268  0.4220
 5660TIP3   OH216943   6.210   3.109   3.863 -0.0381  0.6736 -0.0666
 5660TIP3    H116944   6.213   3.160   3.782 -0.8516  1.3203  0.2950
 5660TIP3    H216945   6.229   3.020   3.835  0.0567  0.9442 -0.9190
 5661TIP3   OH216946   0.573   5.234   1.714 -0.2104  0.2351 -0.7112
 5661TIP3    H116947   0.599   5.290   1.641 -1.6434  1.2138 -0.5078
 5661TIP3    H216948   0.618   5.271   1.790 -0.5723  0.6709 -0.7042
 5662TIP3   OH216949   0.032   0.262   4.931  0.2421 -0.2122  0.1769
 5662TIP3    H116950  -0.028   0.259   5.006  1.4603  1.2917  1.2813
 5662TIP3    H216951   0.065   0.352   4.930  1.6616 -0.6986 -1.0460
 5663TIP3   OH216952   5.742   5.099   1.986 -0.3656  0.1616 -0.6440
 5663TIP3    H116953   5.809   5.126   2.049 -0.9638  1.6608 -0.5900
 5663TIP3    H216954   5.735   5.004   1.997 -0.8305  0.4205  1.9744
 5664TIP3   OH216955   2.557   3.688   1.110  0.4400  0.7005  0.0176
 5664TIP3    H116956   2.512   3.645   1.183  3.2646 -0.7305  1.0891
 5664TIP3    H216957   2.519   3.650   1.032 -2.5530  2.1394  0.6300
 5665TIP3   OH216958   5.864   2.403   4.595 -0.1277 -0.6668  0.5455
 5665TIP3    H116959   5.945   2.362   4.624 -0.5991 -2.2693 -0.2720
 5665TIP3    H216960   5.817   2.424   4.676  0.9402 -0.0397  1.0139
 5666TIP3   OH216961   3.618   4.075   5.198  0.0064  0.0052  0.2458
 5666TIP3    H116962   3.634   4.011   5.128  1.4585 -0.0879  0.6412
 5666TIP3    H216963   3.524   4.094   5.191 -0.1362 -0.9663 -0.8979
 5667TIP3   OH216964   0.790   4.268   5.081  0.3263 -0.1483  0.4018
 5667TIP3    H116965   0.790   4.210   5.004 -1.5733 -1.9620  1.6706
 5667TIP3    H216966   0.702   4.305   5.083  0.3553 -0.1102  1.6735
 5668TIP3   OH216967   1.291   0.676   1.689  0.1286 -0.2827  0.0051
 5668TIP3    H116968   1.331   0.661   1.775 -0.1529 -0.4734  0.1018
 5668TIP3    H216969   1.208   0.719   1.708 -0.0750 -0.6093 -0.1578
 5669TIP3   OH216970   6.239   6.787   4.713  0.1472  0.0392  0.2955
 5669TIP3    H116971   6.328   6.770   4.746  0.1791 -2.2752 -0.7358
 5669TIP3    H216972   6.185   6.721   4.756 -0.5822 -0.1708 -0.8888
 5670TIP3   OH216973   6.471   5.423   1.060 -0.0637  0.2809 -0.3159
 5670TIP3    H116974   6.401   5.448   1.000 -0.1547  1.0521  0.0919
 5670TIP3    H216975   6.474   5.327   1.056 -0.4595  0.2952 -1.0958
 5671TIP3   OH216976   0.518   4.121   5.025  0.5014 -0.1743  0.2130
 5671TIP3    H116977   0.488   4.158   5.109  0.7184  0.4016  0.0441
 5671TIP3    H216978   0.478   4.034   5.021 -1.0576  0.5103  0.0564
 5672TIP3   OH216979   1.624   6.202   4.017 -0.1636 -0.2957 -0.5189
 5672TIP3    H116980   1.584   6.153   4.089  0.2159  0.4828  0.2438
 5672TIP3    H216981   1.716   6.176   4.019  0.2230  1.0139  0.4243
 5673TIP3   OH216982   6.131   3.994   1.505 -0.1371 -0.5550  0.3049
 5673TIP3    H116983   6.048   4.019   1.547  0.6987  1.6623  0.8172
 5673TIP3    H216984   6.115   4.004   1.412 -1.3512 -3.3262  0.1353
 5674TIP3   OH216985   3.730   2.102   4.983  0.7725 -0.6918  0.3972
 5674TIP3    H116986   3.707   2.009   4.986 -0.9309 -0.3034  0.4987
 5674TIP3    H216987   3.732   2.123   4.889 -1.1883 -0.3306  0.4004
 5675TIP3   OH216988   6.605   2.711   4.287  0.0530  0.6049  0.0617
 5675TIP3    H116989   6.604   2.689   4.194  2.3534 -2.2601  0.5744
 5675TIP3    H216990   6.562   2.637   4.330 -1.4868  2.1412  1.3084
 5676TIP3   OH216991   6.132   2.331   4.696 -0.2478 -0.2349  0.0223
 5676TIP3    H116992   6.215   2.324   4.647  0.3822  0.8601  0.8747
 5676TIP3    H216993   6.159   2.352   4.785 -1.4215 -1.1059  0.6020
 5677TIP3   OH216994   4.845   6.062   5.248  0.0868  0.1566  0.0215
 5677TIP3    H116995   4.750   6.061   5.232 -0.0328 -0.1643  0.7460
 5677TIP3    H216996   4.882   6.018   5.171 -0.3564  0.1916 -0.2172
 5678TIP3   OH216997   5.655   1.299   5.470 -0.6765 -0.7808 -0.0915
 5678TIP3    H116998   5.705   1.218   5.476 -0.5081 -0.7308 -0.8060
 5678TIP3    H216999   5.634   1.321   5.561  0.1011 -1.1118  0.1701
 5679TIP3   OH217000   0.168   6.253   1.534 -0.3754  0.3861  0.3303
 5679TIP3    H117001   0.223   6.189   1.489 -0.9837  0.3341 -0.3669
 5679TIP3    H217002   0.167   6.329   1.476 -1.3020  0.2625  0.1608
 5680TIP3   OH217003   6.187   6.733   1.468 -0.3573  0.5891 -0.6625
 5680TIP3    H117004   6.204   6.709   1.377 -0.5905  0.9822 -0.8140
 5680TIP3    H217005   6.239   6.812   1.482  0.2745  0.1045 -0.2205
 5681TIP3   OH217006   5.892   0.180   5.579  0.5272 -0.5728  0.6122
 5681TIP3    H117007   5.799   0.159   5.591 -0.0200  0.2609 -1.5556
 5681TIP3    H217008   5.939   0.103   5.609 -1.0508 -2.2554 -0.9743
 5682TIP3   OH217009   6.829   6.496   4.869 -0.2907  0.3718 -0.7005
 5682TIP3    H117010   6.872   6.567   4.821  1.3344 -0.1337 -0.0735
 5682TIP3    H217011   6.758   6.538   4.917  0.0308  1.4019 -1.1064
 5683TIP3   OH217012   6.604   1.145   5.514 -0.6363  0.0698 -0.1194
 5683TIP3    H117013   6.544   1.071   5.521  0.6102 -1.0539 -0.8335
 5683TIP3    H217014   6.609   1.181   5.603 -1.5008 -0.4971  0.1681
 5684TIP3   OH217015   6.564   0.456   0.155  0.3723  0.1909  0.5471
 5684TIP3    H117016   6.618   0.388   0.194  0.9610 -0.6176 -1.5406
 5684TIP3    H217017   6.626   0.513   0.109 -0.1675  1.8621  1.7891
 5685TIP3   OH217018   2.859   0.305   4.586  0.0263 -0.5407 -0.0698
 5685TIP3    H117019   2.871   0.311   4.491  1.1114  0.9763  0.1147
 5685TIP3    H217020   2.948   0.298   4.620 -0.4307 -3.0459  0.7884
 5686TIP3   OH217021   6.056   5.724   4.467 -0.2110 -0.1299  0.1862
 5686TIP3    H117022   6.114   5.648   4.470  2.4493  1.6641 -0.9101
 5686TIP3    H217023   6.032   5.732   4.375 -0.4946  0.3179  0.2982
 5687TIP3   OH217024   6.080   4.306   0.525  0.2472 -0.1994 -0.7368
 5687TIP3    H117025   6.074   4.316   0.620 -4.2861 -0.3840 -0.7932
 5687TIP3    H217026   6.032   4.381   0.490  0.2888 -1.0691 -2.7933
 5688TIP3   OH217027   5.073   5.453   4.951  0.0946  0.0453 -0.7173
 5688TIP3    H117028   5.010   5.391   4.914 -0.0236  0.1698 -0.7254
 5688TIP3    H217029   5.125   5.401   5.012  1.5968 -0.6331 -2.4843
 5689TIP3   OH217030   2.351   5.502   5.592 -0.5611  0.2334 -0.0124
 5689TIP3    H117031   2.307   5.584   5.611 -1.9996 -0.7932  1.3662
 5689TIP3    H217032   2.423   5.498   5.655 -0.6024  0.3584  0.0427
 5690TIP3   OH217033   4.427   2.764   5.106 -0.3426  0.4713  0.0593
 5690TIP3    H117034   4.374   2.840   5.084 -1.5407 -0.2162  0.4671
 5690TIP3    H217035   4.480   2.791   5.180  1.6472  1.9105 -1.7674
 5691TIP3   OH217036   1.887   4.431   3.553  0.1470 -0.2257  0.3858
 5691TIP3    H117037   1.975   4.470   3.557  0.3711 -0.6531 -0.2816
 5691TIP3    H217038   1.832   4.491   3.604  0.5429  0.8140 -0.3742
 5692TIP3   OH217039   2.769   2.652   2.316 -0.6135 -0.0333  0.1309
 5692TIP3    H117040   2.787   2.717   2.384  1.9207 -1.7658  1.2870
 5692TIP3    H217041   2.823   2.680   2.242 -0.2250 -0.3091  0.3060
 5693TIP3   OH217042   4.428   4.246   3.315  0.1175  0.5111 -0.1713
 5693TIP3    H117043   4.490   4.282   3.252  2.7385 -0.1510  1.8622
 5693TIP3    H217044   4.400   4.163   3.276 -0.8186  1.5602 -1.8480
 5694TIP3   OH217045   1.835   5.531   0.496  0.2788  0.4984 -0.0061
 5694TIP3    H117046   1.789   5.535   0.580 -0.6662  1.8387 -0.5427
 5694TIP3    H217047   1.777   5.577   0.435  0.3221 -1.5973 -1.7171
 5695TIP3   OH217048   2.245   3.472   1.778  0.1867 -0.1780 -0.3542
 5695TIP3    H117049   2.227   3.553   1.730  0.9489 -0.4005 -1.0372
 5695TIP3    H217050   2.215   3.490   1.867 -0.9329  0.3660 -0.8143
 5696TIP3   OH217051   0.950   6.653   5.124 -0.3862  0.3809  0.4683
 5696TIP3    H117052   0.938   6.710   5.200 -0.7827  0.9306 -0.0043
 5696TIP3    H217053   0.985   6.710   5.056  0.9702 -0.3248  0.5418
 5697TIP3   OH217054   6.799   3.746   4.511  0.1954 -0.8475  0.0997
 5697TIP3    H117055   6.827   3.837   4.508 -2.5572  0.0685  0.1654
 5697TIP3    H217056   6.867   3.699   4.462  2.3264  0.9980  1.0850
 5698TIP3   OH217057   2.600   3.914   4.526  0.2749 -0.3422  0.2252
 5698TIP3    H117058   2.560   3.840   4.573  1.4432 -1.7497 -0.9183
 5698TIP3    H217059   2.655   3.957   4.592 -0.5888 -0.3155  0.9592
 5699TIP3   OH217060   3.504   3.366   1.370 -0.3254  0.0380  0.4213
 5699TIP3    H117061   3.510   3.294   1.432  3.6727 -0.3878 -0.1811
 5699TIP3    H217062   3.580   3.421   1.389 -1.2440  2.1636 -1.4745
 5700TIP3   OH217063   0.512   2.600   2.323 -0.5873 -0.1652 -0.4077
 5700TIP3    H117064   0.468   2.650   2.254 -1.5474  2.2625  1.7694
 5700TIP3    H217065   0.592   2.649   2.341 -0.5676 -0.4914  0.4624
 5701TIP3   OH217066   5.355   5.397   5.853  0.0905  0.2588 -0.0916
 5701TIP3    H117067   5.365   5.481   5.808 -0.6284  0.0984 -0.5571
 5701TIP3    H217068   5.285   5.353   5.806  0.3452 -0.5348  0.2625
 5702TIP3   OH217069   4.686   1.836   5.773 -0.4143 -0.0127  0.5017
 5702TIP3    H117070   4.663   1.848   5.865 -0.3434  1.1190  0.3836
 5702TIP3    H217071   4.692   1.741   5.762 -0.9562 -0.1807  1.5283
 5703TIP3   OH217072   1.341   2.382   3.183 -0.3014 -0.0484  0.1369
 5703TIP3    H117073   1.303   2.460   3.224  1.1529  0.2467  1.0087
 5703TIP3    H217074   1.364   2.326   3.257 -1.4746 -1.4002 -0.4932
 5704TIP3   OH217075   0.869   3.837   1.822 -0.3442  0.3906  0.3477
 5704TIP3    H117076   0.964   3.841   1.831 -0.4785  0.3473  2.3438
 5704TIP3    H217077   0.843   3.929   1.808 -0.0414  0.4438  0.1208
 5705TIP3   OH217078   1.352   1.970   0.931 -0.2858 -0.1371  0.6513
 5705TIP3    H117079   1.257   1.986   0.938 -0.2881  0.3749 -0.4043
 5705TIP3    H217080   1.358   1.890   0.879 -0.1196  0.8174 -0.8432
 5706TIP3   OH217081   4.341   5.987   0.849  0.0350  0.4700  0.9118
 5706TIP3    H117082   4.416   5.928   0.839 -0.1098  0.4377 -0.1158
 5706TIP3    H217083   4.269   5.929   0.872 -0.2023  0.1519 -0.5144
 5707TIP3   OH217084   3.710   0.503   2.567  0.8428 -0.0776  0.1541
 5707TIP3    H117085   3.697   0.544   2.482  0.6138 -0.3865  0.0386
 5707TIP3    H217086   3.628   0.519   2.614  0.6804 -0.5645  0.0395
 5708TIP3   OH217087   5.914   1.989   5.737  0.3146 -0.1265 -0.3989
 5708TIP3    H117088   5.897   1.944   5.819  0.6361  1.3425  0.5110
 5708TIP3    H217089   5.841   2.050   5.728  0.4901 -0.0042 -1.0099
 5709TIP3   OH217090   3.950   2.293   2.200  0.4509  0.2306 -0.9235
 5709TIP3    H117091   3.968   2.366   2.259  2.4859 -0.5204 -0.5144
 5709TIP3    H217092   3.859   2.271   2.215  0.5643  0.8958  1.0114
 5710TIP3   OH217093   0.376   5.743   4.695 -0.0289 -0.0057  0.1875
 5710TIP3    H117094   0.347   5.659   4.731 -0.1993  0.0260  0.1243
 5710TIP3    H217095   0.394   5.725   4.603 -1.9657  0.4561 -0.3362
 5711TIP3   OH217096   4.063   4.300   3.448  0.6114 -0.0869 -0.5089
 5711TIP3    H117097   4.144   4.350   3.448  0.0490  0.8531 -0.9226
 5711TIP3    H217098   4.051   4.274   3.540 -0.3471  2.7143  0.2493
 5712TIP3   OH217099   4.270   3.933   1.031 -0.3109 -0.6243 -0.2968
 5712TIP3    H117100   4.297   3.889   0.950  0.0946 -1.0316  0.0547
 5712TIP3    H217101   4.275   4.027   1.010  0.0662 -0.7227 -0.6573
 5713TIP3   OH217102   7.041   0.546   5.106 -0.0491  0.1102  0.4093
 5713TIP3    H117103   7.124   0.555   5.153  0.6381 -3.3671  0.1066
 5713TIP3    H217104   7.061   0.577   5.017  0.7174 -0.0231  0.5260
 5714TIP3   OH217105   6.423   6.308   3.730 -0.2787 -0.2094  0.1100
 5714TIP3    H117106   6.484   6.311   3.656  0.4428 -0.9164  0.6554
 5714TIP3    H217107   6.453   6.234   3.782  0.8517  1.7972  2.5040
 5715TIP3   OH217108   7.083   1.518   4.787 -0.0949  0.1384 -0.3410
 5715TIP3    H117109   7.154   1.458   4.809  0.0686 -0.3887 -2.1560
 5715TIP3    H217110   7.006   1.480   4.829  0.2273 -0.7099 -0.4915
 5716TIP3   OH217111   3.586   6.287   0.360 -0.0972  1.0875  0.2011
 5716TIP3    H117112   3.679   6.293   0.339  0.6116  0.3370  2.7498
 5716TIP3    H217113   3.569   6.194   0.372 -1.1116  1.2354  0.0044
 5717TIP3   OH217114   3.525   2.682   1.943 -0.0380  0.0131 -0.0201
 5717TIP3    H117115   3.546   2.735   2.020  0.5782  0.7179 -0.6513
 5717TIP3    H217116   3.554   2.735   1.869 -1.6411 -0.1527 -0.8181
 5718TIP3   OH217117   1.661   4.817   3.908  0.5886  0.5357 -0.0643
 5718TIP3    H117118   1.598   4.744   3.907  1.8740 -0.6336  0.8265
 5718TIP3    H217119   1.610   4.892   3.940 -0.6095 -0.1025 -0.3913
 5719TIP3   OH217120   6.061   3.743   1.281 -0.2587  0.2596  0.2970
 5719TIP3    H117121   6.056   3.835   1.255 -0.1500  0.4739  0.9965
 5719TIP3    H217122   5.975   3.708   1.259 -0.8643  0.9393  1.4342
 5720TIP3   OH217123   2.506   0.004   5.599  0.0218  0.1233 -0.5401
 5720TIP3    H117124   2.441   0.073   5.582 -1.2305 -0.9325 -0.2252
 5720TIP3    H217125   2.488  -0.026   5.688  0.9298 -0.2201 -0.4587
 5721TIP3   OH217126   5.629   1.326   0.123 -0.3603  0.4369  0.1088
 5721TIP3    H117127   5.668   1.410   0.096  0.0665 -0.7494 -3.5956
 5721TIP3    H217128   5.535   1.346   0.131 -0.2514  1.3333 -0.5995
 5722TIP3   OH217129   1.671   2.114   4.767  0.4792 -0.6042  0.0760
 5722TIP3    H117130   1.680   2.190   4.824  2.8373 -0.8641  0.1464
 5722TIP3    H217131   1.704   2.143   4.682  1.5745 -1.5622  0.1514
 5723TIP3   OH217132   3.171   5.407   2.198 -0.4416 -0.2296 -0.1389
 5723TIP3    H117133   3.191   5.334   2.257 -1.0165  1.3045  2.0860
 5723TIP3    H217134   3.238   5.473   2.218 -1.1292  0.6387 -0.6298
 5724TIP3   OH217135   6.391   2.851   2.152 -0.4181 -0.1613 -0.1688
 5724TIP3    H117136   6.344   2.864   2.070 -0.1762 -0.7602 -0.4141
 5724TIP3    H217137   6.398   2.939   2.190  1.5760  0.5660 -1.9663
 5725TIP3   OH217138   1.490   6.748   2.644 -0.4296 -0.4172 -0.2350
 5725TIP3    H117139   1.506   6.813   2.713  0.5964 -1.5737  0.6837
 5725TIP3    H217140   1.440   6.679   2.688 -1.3545 -0.3483 -1.1469
 5726TIP3   OH217141   6.883   2.912   3.501  0.2683 -0.4131 -0.6975
 5726TIP3    H117142   6.924   2.985   3.547 -0.3516  0.0953 -0.9426
 5726TIP3    H217143   6.952   2.878   3.444  0.4026  0.3238 -0.9753
 5727TIP3   OH217144   6.411   2.679   0.092 -0.9559 -0.7462  0.1760
 5727TIP3    H117145   6.338   2.715   0.042 -0.1789 -0.7899 -1.0102
 5727TIP3    H217146   6.375   2.599   0.132 -1.4833 -0.9051 -0.5950
 5728TIP3   OH217147   3.624   5.410   3.011 -0.6247  0.3899 -0.2946
 5728TIP3    H117148   3.673   5.403   2.929  1.8376  0.1989  1.1152
 5728TIP3    H217149   3.690   5.401   3.079 -2.7979 -1.2440  1.7624
 5729TIP3   OH217150   6.335   0.592   4.018 -0.3171 -0.6873  0.2813
 5729TIP3    H117151   6.273   0.657   3.985  0.2228  0.0582  0.7016
 5729TIP3    H217152   6.391   0.640   4.079 -0.0106 -1.5853  0.7379
 5730TIP3   OH217153   5.611   5.964   5.341 -0.1575  0.5007  0.1942
 5730TIP3    H117154   5.564   6.002   5.267 -2.0852 -1.2490  0.4343
 5730TIP3    H217155   5.683   5.914   5.302 -0.3765  0.6455 -0.3955
 5731TIP3   OH217156   3.335   6.226   2.611 -0.0668 -0.1255  0.1184
 5731TIP3    H117157   3.291   6.141   2.605  1.3762 -0.7805 -2.6342
 5731TIP3    H217158   3.283   6.275   2.676 -2.0019 -2.4441  0.4664
 5732TIP3   OH217159   2.407   0.337   0.018 -0.0864  0.5204 -0.1989
 5732TIP3    H117160   2.438   0.413   0.067 -2.5260  1.4649  0.0372
 5732TIP3    H217161   2.428   0.262   0.074  0.5330  1.2134  0.5240
 5733TIP3   OH217162   5.790   5.788   2.660 -0.6443 -0.3107 -0.3837
 5733TIP3    H117163   5.850   5.802   2.733  1.2203 -0.1513 -1.8604
 5733TIP3    H217164   5.703   5.792   2.699  0.1849  2.1081  1.4509
 5734TIP3   OH217165   7.041   0.164   3.950 -0.1422 -0.1635  0.3300
 5734TIP3    H117166   7.045   0.069   3.948 -1.2194 -0.2857  2.0242
 5734TIP3    H217167   7.132   0.192   3.963  0.1018 -0.9825  0.4436
 5735TIP3   OH217168   3.161   1.281   3.127  0.5679 -0.7264 -0.4552
 5735TIP3    H117169   3.087   1.264   3.069  0.5471 -0.4205 -0.5239
 5735TIP3    H217170   3.159   1.376   3.140 -0.8512 -1.0054  1.9509
 5736TIP3   OH217171   1.449   6.157   3.056 -0.2437 -0.0510 -0.3618
 5736TIP3    H117172   1.392   6.158   2.979 -0.9661  0.6993  0.1738
 5736TIP3    H217173   1.390   6.144   3.130  0.6116 -2.6113 -0.0381
 5737TIP3   OH217174   2.450   5.883   4.916 -0.3703 -0.2200  0.2020
 5737TIP3    H117175   2.517   5.951   4.910 -0.9459  0.3556  0.1496
 5737TIP3    H217176   2.479   5.816   4.854  0.1999 -0.0159  0.2406
 5738TIP3   OH217177   6.020   3.517   0.227  0.4730 -0.1675 -0.3888
 5738TIP3    H117178   5.952   3.455   0.200 -1.0902  0.4088  1.9214
 5738TIP3    H217179   6.072   3.469   0.291  0.3682  0.2920  0.0549
 5739TIP3   OH217180   5.918   0.165   3.580 -0.7348 -0.2145 -0.2016
 5739TIP3    H117181   5.986   0.167   3.648  0.2004  2.5017 -1.0588
 5739TIP3    H217182   5.889   0.256   3.574 -1.3563 -0.5227 -2.8519
 5740TIP3   OH217183   5.163   2.730   4.607  0.2110  0.3141 -0.7434
 5740TIP3    H117184   5.177   2.822   4.586  0.5237  0.5270  0.3161
 5740TIP3    H217185   5.242   2.703   4.654 -0.8120  0.1629  0.9947
 5741TIP3   OH217186   1.392   3.879   5.039 -0.0570  0.1298 -0.5376
 5741TIP3    H117187   1.427   3.794   5.063  2.9532  1.0097 -1.4260
 5741TIP3    H217188   1.337   3.904   5.114  0.1961 -1.9209  0.3930
 5742TIP3   OH217189   0.556   2.903   3.203  0.1678 -0.3578 -0.2355
 5742TIP3    H117190   0.572   2.908   3.298  1.0016  0.0680 -0.3858
 5742TIP3    H217191   0.638   2.934   3.164 -1.3854  3.1250 -1.0844
 5743TIP3   OH217192   6.171   6.484   3.506 -0.0989 -0.2273 -0.0705
 5743TIP3    H117193   6.186   6.417   3.439  0.3018 -1.4468  1.1909
 5743TIP3    H217194   6.090   6.528   3.479 -0.6601 -1.5736 -0.6503
 5744TIP3   OH217195   4.666   5.523   2.487 -0.0733 -0.2408  0.8339
 5744TIP3    H117196   4.582   5.513   2.533 -0.8447 -0.6845 -0.5943
 5744TIP3    H217197   4.646   5.584   2.416  0.3832 -1.6047 -0.5136
 5745TIP3   OH217198   5.421   2.136   3.878  0.5358 -0.5770  0.5268
 5745TIP3    H117199   5.370   2.210   3.913  0.0412 -0.6097 -0.1196
 5745TIP3    H217200   5.412   2.143   3.783 -1.9802 -3.1664  0.4647
 5746TIP3   OH217201   3.496   3.428   5.023 -0.0719  0.0218  0.1398
 5746TIP3    H117202   3.420   3.391   5.067  0.1688  0.2214  0.7431
 5746TIP3    H217203   3.503   3.517   5.058 -1.5314  1.2400 -2.3774
 5747TIP3   OH217204   2.570   4.584   1.301 -0.2153 -0.1495  0.1893
 5747TIP3    H117205   2.485   4.568   1.260 -0.2034 -0.8608  0.4304
 5747TIP3    H217206   2.553   4.653   1.366 -1.3823 -2.4856  2.5943
 5748TIP3   OH217207   4.237   1.740   0.266 -0.3134  0.3360 -0.1279
 5748TIP3    H117208   4.186   1.793   0.327 -1.0935  0.4786 -0.8895
 5748TIP3    H217209   4.174   1.710   0.201  0.6909  1.2501 -1.6015
 5749TIP3   OH217210   5.073   5.505   1.624  0.2290  0.2047 -0.0702
 5749TIP3    H117211   5.070   5.485   1.718 -0.9270 -1.0170 -0.3267
 5749TIP3    H217212   5.037   5.427   1.582 -1.2790  1.5590 -1.4188
 5750TIP3   OH217213   4.871   2.639   2.236  0.0833 -0.0159 -0.1415
 5750TIP3    H117214   4.878   2.596   2.321 -0.2936  2.6128  1.3348
 5750TIP3    H217215   4.836   2.571   2.178  0.1882 -1.8571  1.8032
 5751TIP3   OH217216   5.433   3.336   5.174 -0.6495 -0.0242 -0.1192
 5751TIP3    H117217   5.359   3.278   5.193 -0.8160  0.3341  0.3370
 5751TIP3    H217218   5.510   3.287   5.205 -0.8496  0.2570  0.8626
 5752TIP3   OH217219   3.277   4.047   1.623 -0.5005 -0.3310  0.7341
 5752TIP3    H117220   3.278   3.984   1.551  1.7926 -1.4294  1.6117
 5752TIP3    H217221   3.247   3.998   1.699 -0.9709  0.2748  0.9491
 5753TIP3   OH217222   4.802   2.200   1.150 -0.3237  0.5136  0.1638
 5753TIP3    H117223   4.726   2.223   1.096 -0.8497 -1.8377 -0.1995
 5753TIP3    H217224   4.766   2.185   1.237 -0.0834  0.5290  0.2671
 5754TIP3   OH217225   4.893   6.315   2.384 -0.0295  0.1532  0.4478
 5754TIP3    H117226   4.959   6.374   2.419  0.6609  0.9923 -2.0831
 5754TIP3    H217227   4.843   6.368   2.322 -1.2740 -1.1965  0.2408
 5755TIP3   OH217228   0.954   4.220   2.651  0.6836  0.6719  0.7757
 5755TIP3    H117229   1.049   4.219   2.649  0.6900  0.0168  1.1799
 5755TIP3    H217230   0.932   4.286   2.717  0.8857 -0.2174  1.7586
 5756TIP3   OH217231   2.566   4.793   3.951 -0.2510  0.3349  0.5900
 5756TIP3    H117232   2.623   4.716   3.949  0.1419  0.6198  0.7827
 5756TIP3    H217233   2.502   4.777   3.882 -0.7387 -0.5914  1.2449
 5757TIP3   OH217234   6.724   0.365   4.353 -0.7079 -0.1087 -0.3764
 5757TIP3    H117235   6.748   0.286   4.401  0.1732  0.4426  0.1101
 5757TIP3    H217236   6.666   0.413   4.412  0.1331  0.4228  0.0341
 5758TIP3   OH217237   0.692   1.021   0.871 -0.0828 -0.0066 -0.2233
 5758TIP3    H117238   0.610   1.019   0.821 -1.0156  0.3054  1.2120
 5758TIP3    H217239   0.666   0.995   0.960  1.2301  0.9088  0.4647
 5759TIP3   OH217240   1.734   5.677   4.799 -0.3255 -0.0262 -0.2814
 5759TIP3    H117241   1.705   5.586   4.793 -0.0796 -0.1213 -0.0913
 5759TIP3    H217242   1.829   5.671   4.808 -0.4000  0.2054  0.7516
 5760TIP3   OH217243   4.770   5.865   3.874 -0.2937  0.3498  0.0998
 5760TIP3    H117244   4.814   5.791   3.831  1.5687  0.6831  1.3283
 5760TIP3    H217245   4.770   5.842   3.967 -1.0418  1.2452  0.3366
 5761TIP3   OH217246   2.588   2.133   0.294 -0.2726  0.0112 -0.0073
 5761TIP3    H117247   2.632   2.052   0.266  0.5888 -0.4197  2.3712
 5761TIP3    H217248   2.498   2.105   0.311  0.0995 -0.5845  1.1310
 5762TIP3   OH217249   1.921   4.143   3.425 -0.0459  0.0482 -0.7961
 5762TIP3    H117250   1.858   4.198   3.379  2.2142  2.6600 -0.9969
 5762TIP3    H217251   1.962   4.091   3.356  1.8290  2.4130 -1.6005
 5763TIP3   OH217252   4.098   5.269   2.952 -0.1546  0.3134  0.2511
 5763TIP3    H117253   4.135   5.189   2.990  0.6500  0.3637 -0.4051
 5763TIP3    H217254   4.014   5.279   2.996 -0.2658 -0.8908  0.3606
 5764TIP3   OH217255   4.473   6.687   1.524 -0.0956 -0.0272 -0.6557
 5764TIP3    H117256   4.534   6.737   1.578  0.3328  1.2127 -2.2129
 5764TIP3    H217257   4.415   6.753   1.486 -0.8658 -0.9456 -1.1040
 5765TIP3   OH217258   1.574   1.922   1.607 -0.8234  0.3794  0.2211
 5765TIP3    H117259   1.577   1.827   1.592  2.8557  0.2277  0.8990
 5765TIP3    H217260   1.528   1.932   1.691 -0.4181 -0.8998  0.6205
 5766TIP3   OH217261   1.663   6.770   2.291 -0.3037  0.3985 -0.0771
 5766TIP3    H117262   1.582   6.758   2.341  0.7225  0.9837  1.8651
 5766TIP3    H217263   1.682   6.864   2.298 -0.6271  0.7081 -2.5137
 5767TIP3   OH217264   5.995   5.582   1.505  0.1637 -0.3473  0.2541
 5767TIP3    H117265   5.952   5.649   1.453 -0.6417 -0.9966  0.0540
 5767TIP3    H217266   6.083   5.615   1.520 -0.2758  0.8238  0.3139
 5768TIP3   OH217267   3.116   6.146   5.699  0.1282  0.2249  0.0800
 5768TIP3    H117268   3.086   6.231   5.668  1.6241 -0.0333 -2.3503
 5768TIP3    H217269   3.084   6.084   5.634  1.0544 -0.7572  0.5332
 5769TIP3   OH217270   1.415   4.037   2.086  0.3470 -0.0297 -0.1192
 5769TIP3    H117271   1.460   4.093   2.150 -0.9385 -1.5920  2.2741
 5769TIP3    H217272   1.400   4.095   2.011  2.1623  1.8121  0.8287
 5770TIP3   OH217273   4.192   3.924   3.750  0.0427 -0.1743 -0.1569
 5770TIP3    H117274   4.230   3.886   3.829  1.6077 -0.2449 -0.9073
 5770TIP3    H217275   4.141   3.999   3.780  2.0730  0.8930  0.7780
 5771TIP3   OH217276   3.534   3.613   0.715 -0.0320  0.3382  0.3395
 5771TIP3    H117277   3.622   3.612   0.678  0.0271  0.4672  0.4723
 5771TIP3    H217278   3.479   3.572   0.649  0.3175 -0.7955  0.7221
 5772TIP3   OH217279   0.798   1.790   3.486 -0.8509  0.3824 -0.4537
 5772TIP3    H117280   0.852   1.712   3.475 -1.4748 -0.3175  1.1648
 5772TIP3    H217281   0.860   1.863   3.480  0.0898 -0.3398  0.1863
 5773TIP3   OH217282   6.670   1.139   3.917 -0.7152  0.3993  0.1520
 5773TIP3    H117283   6.710   1.134   4.004  1.4611 -0.1024 -0.8069
 5773TIP3    H217284   6.669   1.048   3.886 -2.8291  0.3660  0.1835
 5774TIP3   OH217285   6.539   0.652   4.895 -0.0586 -0.0695 -0.2034
 5774TIP3    H117286   6.615   0.646   4.837 -0.7603  0.2261 -1.1774
 5774TIP3    H217287   6.576   0.668   4.982  1.1636 -3.1181 -0.0641
 5775TIP3   OH217288   4.710   4.717   1.248 -0.3612 -0.4878 -0.1555
 5775TIP3    H117289   4.715   4.736   1.341  0.1006  0.6851 -0.3894
 5775TIP3    H217290   4.715   4.804   1.206  0.5614 -1.0640 -1.2956
 5776TIP3   OH217291   2.737   2.345   2.055  0.1456 -0.1595 -0.0556
 5776TIP3    H117292   2.746   2.323   2.148 -0.6721  2.4010  0.7236
 5776TIP3    H217293   2.651   2.313   2.030  0.9981 -2.3048 -0.4540
 5777TIP3   OH217294   6.904   0.950   4.957  0.1600  0.1793  0.5008
 5777TIP3    H117295   6.822   0.980   4.996  0.7971  1.4926  0.8742
 5777TIP3    H217296   6.944   1.029   4.921  0.6538 -0.6573 -0.8431
 5778TIP3   OH217297   5.629   4.756   3.264  0.7310 -0.4256 -0.0633
 5778TIP3    H117298   5.599   4.814   3.194  1.1343 -1.4733 -1.1475
 5778TIP3    H217299   5.584   4.674   3.247  1.4696 -0.9386  0.4142
 5779TIP3   OH217300   1.784   4.604   2.562 -0.2019  0.0389  0.9229
 5779TIP3    H117301   1.842   4.527   2.559  0.1212  0.3063  0.1429
 5779TIP3    H217302   1.840   4.675   2.591  0.0955  0.4763 -0.6065
 5780TIP3   OH217303   1.325   2.779   4.875 -0.0943  0.0980 -0.3059
 5780TIP3    H117304   1.312   2.822   4.790  0.6764  2.0692  0.5202
 5780TIP3    H217305   1.342   2.850   4.936  0.6455 -1.3625  1.2887
 5781TIP3   OH217306   2.842   4.826   5.266 -0.8355 -0.5302  0.1870
 5781TIP3    H117307   2.813   4.864   5.183 -0.6555 -2.3377 -0.7525
 5781TIP3    H217308   2.887   4.898   5.311 -0.6401  0.4010 -1.4181
 5782TIP3   OH217309   1.490   2.621   5.419  0.0880 -0.2191 -0.2830
 5782TIP3    H117310   1.410   2.656   5.379  0.3149  1.3074  0.5032
 5782TIP3    H217311   1.466   2.535   5.451 -1.8013  0.8790  1.5028
 5783TIP3   OH217312   3.486   0.613   5.082  0.4885 -0.3198 -0.0858
 5783TIP3    H117313   3.423   0.685   5.091 -0.8489 -1.0970 -2.4925
 5783TIP3    H217314   3.564   0.654   5.047  0.0798  0.1172 -0.4990
 5784TIP3   OH217315   7.046   1.923   5.324 -0.4064 -0.4407  0.1660
 5784TIP3    H117316   6.983   1.851   5.314 -2.1163  0.9792  0.1664
 5784TIP3    H217317   7.042   1.945   5.417 -0.1975 -0.0933  0.0938
 5785TIP3   OH217318   4.196   1.413   1.134 -0.0539 -0.3970  0.4855
 5785TIP3    H117319   4.283   1.441   1.160  0.4261 -0.9184 -0.5180
 5785TIP3    H217320   4.209   1.363   1.053 -1.3803  0.4505 -0.3017
 5786TIP3   OH217321   3.569   3.894   1.040  0.5050  0.5806 -0.1885
 5786TIP3    H117322   3.560   3.827   1.108 -0.6385  0.9930  0.0862
 5786TIP3    H217323   3.650   3.870   0.993  0.0168 -1.1003 -0.2343
 5787TIP3   OH217324   0.956   0.965   4.838  0.3018 -0.4858  0.0558
 5787TIP3    H117325   0.932   1.045   4.886 -2.6555 -0.7248 -0.8326
 5787TIP3    H217326   0.963   0.993   4.747  0.4971 -1.0284 -0.0975
 5788TIP3   OH217327   0.903   2.474   4.983 -0.0307 -0.1120  0.1427
 5788TIP3    H117328   0.989   2.506   5.008 -1.0346  2.7431  0.2505
 5788TIP3    H217329   0.909   2.459   4.888  0.9227 -1.2846  0.3614
 5789TIP3   OH217330   2.454   0.297   3.741 -0.0353  0.5233  0.1884
 5789TIP3    H117331   2.390   0.359   3.777 -0.6159 -0.0450  0.1607
 5789TIP3    H217332   2.450   0.221   3.800  3.3895  1.9041  2.5017
 5790TIP3   OH217333   2.885   3.726   1.334 -0.0055  0.2157  0.6060
 5790TIP3    H117334   2.803   3.776   1.336  0.9775  1.9354 -0.3704
 5790TIP3    H217335   2.952   3.791   1.317  1.4542 -1.3454  0.1985
 5791TIP3   OH217336   3.447   6.105   1.708  0.5122 -0.5810  0.0087
 5791TIP3    H117337   3.453   6.132   1.616  1.6323  0.3525  0.3382
 5791TIP3    H217338   3.386   6.168   1.748  1.5325  0.2318  0.3204
 5792TIP3   OH217339   6.677   6.548   0.936 -0.4623 -0.4863  0.4122
 5792TIP3    H117340   6.662   6.512   0.849  0.7297 -1.3542  0.5511
 5792TIP3    H217341   6.771   6.566   0.939 -0.6345  0.3779  1.2192
 5793TIP3   OH217342   1.145   1.463   0.266 -0.1149  0.0806  0.0047
 5793TIP3    H117343   1.187   1.410   0.198  2.5729 -0.4950  1.9506
 5793TIP3    H217344   1.089   1.401   0.312 -1.9649  0.4764 -1.5823
 5794TIP3   OH217345   4.671   5.961   4.461 -0.2613 -0.0435 -0.1325
 5794TIP3    H117346   4.645   5.883   4.411  0.3519  0.4102 -1.1877
 5794TIP3    H217347   4.608   6.028   4.434  0.3086  0.3076 -0.5991
 5795TIP3   OH217348   1.098   1.748   5.472 -0.6686  0.0392  0.3706
 5795TIP3    H117349   1.078   1.655   5.471  0.0098 -0.1146  0.2023
 5795TIP3    H217350   1.021   1.789   5.510 -0.2610 -0.7627  2.1814
 5796TIP3   OH217351   7.221   0.047   2.003 -0.3509 -0.1374 -0.2065
 5796TIP3    H117352   7.205  -0.009   1.927 -0.8269 -0.2136 -0.0580
 5796TIP3    H217353   7.137   0.047   2.051 -0.2908  0.5174 -0.0867
 5797TIP3   OH217354   5.719   0.422   3.713 -0.1282 -0.2565  0.3876
 5797TIP3    H117355   5.707   0.338   3.757  0.7952  0.3138  1.8024
 5797TIP3    H217356   5.777   0.472   3.770  0.3787  0.8917 -1.0395
 5798TIP3   OH217357   3.199   4.457   0.889 -0.2443 -0.2873 -0.0238
 5798TIP3    H117358   3.127   4.520   0.889 -0.1737 -0.1912 -0.8592
 5798TIP3    H217359   3.158   4.374   0.863  0.1416  0.0474 -1.8830
 5799TIP3   OH217360   5.724   3.348   3.851  0.2715  0.3689  0.2406
 5799TIP3    H117361   5.771   3.336   3.769 -0.8963  0.8403 -0.5253
 5799TIP3    H217362   5.721   3.443   3.864 -1.6674  0.4472 -0.4828
 5800TIP3   OH217363   5.089   0.237   3.823  0.4823  0.1145  0.2804
 5800TIP3    H117364   5.120   0.148   3.809  0.4792  0.1538  0.0345
 5800TIP3    H217365   5.144   0.292   3.768 -0.1842  0.1609 -0.3514
 5801TIP3   OH217366   4.804   4.696   5.255  0.0562 -0.2097  0.1541
 5801TIP3    H117367   4.764   4.760   5.314  1.6670  0.5025  0.5213
 5801TIP3    H217368   4.892   4.683   5.290  0.8236 -0.2752 -1.7262
 5802TIP3   OH217369   6.587   3.890   5.112 -1.2155 -0.9252  0.3183
 5802TIP3    H117370   6.664   3.939   5.081 -1.4007  0.2654  1.6032
 5802TIP3    H217371   6.598   3.803   5.076 -0.4597 -0.1514 -1.4437
 5803TIP3   OH217372   4.864   0.963   4.907 -0.6806  0.2317  0.7896
 5803TIP3    H117373   4.809   0.966   4.829 -0.8281 -0.2833  0.8678
 5803TIP3    H217374   4.954   0.963   4.874 -0.7390 -1.5243  0.5344
 5804TIP3   OH217375   5.262   4.225   5.084 -0.2420  0.2916 -0.1743
 5804TIP3    H117376   5.209   4.295   5.121  0.1454  0.1087  0.7730
 5804TIP3    H217377   5.223   4.145   5.119 -1.7656 -0.1238 -2.6194
 5805TIP3   OH217378   6.597   1.469   1.054  0.2979  0.1425 -0.2502
 5805TIP3    H117379   6.618   1.378   1.034 -3.0087 -0.4771 -1.6507
 5805TIP3    H217380   6.590   1.471   1.150 -0.0446 -1.2365 -0.2187
 5806TIP3   OH217381   4.221   1.083   0.767 -0.7873  0.2160  0.2941
 5806TIP3    H117382   4.152   1.047   0.712 -0.1575 -1.6837  0.6616
 5806TIP3    H217383   4.302   1.066   0.719 -0.4795  1.5998  0.2801
 5807TIP3   OH217384   0.498   1.678   5.279  0.5228 -0.1388 -0.1509
 5807TIP3    H117385   0.552   1.750   5.247  1.4189 -1.2337 -1.1620
 5807TIP3    H217386   0.416   1.687   5.231 -0.2905  1.5464  1.4077
 5808TIP3   OH217387   6.339   1.195   3.893 -0.1820 -0.4411 -0.1305
 5808TIP3    H117388   6.398   1.268   3.912  0.8040 -1.5665  1.3872
 5808TIP3    H217389   6.263   1.235   3.851  0.4744  1.3989  0.3695
 5809TIP3   OH217390   1.171   5.630   3.940  0.1584 -0.0566  0.1962
 5809TIP3    H117391   1.183   5.704   3.999 -1.0747  0.9338 -0.7331
 5809TIP3    H217392   1.157   5.555   3.998 -0.2857  0.7519  1.1690
 5810TIP3   OH217393   5.539   6.776   4.797 -0.2165 -0.3513  0.2433
 5810TIP3    H117394   5.527   6.828   4.877  0.4284 -0.3169  0.3231
 5810TIP3    H217395   5.523   6.686   4.824  0.4627 -0.3920  0.5210
 5811TIP3   OH217396   2.636   2.809   3.145 -0.7753  0.1562  0.2278
 5811TIP3    H117397   2.710   2.750   3.156 -1.4844 -1.4274 -2.4591
 5811TIP3    H217398   2.585   2.799   3.225  0.3853 -0.9893  0.8614
 5812TIP3   OH217399   4.870   1.931   4.416 -0.0380  0.2195 -0.3613
 5812TIP3    H117400   4.854   2.018   4.453 -0.6106  0.4607 -1.1456
 5812TIP3    H217401   4.805   1.922   4.346  0.1597 -0.7538 -0.4372
 5813TIP3   OH217402   7.139   2.648   1.943  0.1291  0.2722 -0.0532
 5813TIP3    H117403   7.052   2.611   1.959  0.6924 -0.9069  0.3574
 5813TIP3    H217404   7.122   2.729   1.895 -1.1345 -0.7287 -1.3847
 5814TIP3   OH217405   3.192   5.707   1.241 -0.8214 -0.3435  0.0280
 5814TIP3    H117406   3.191   5.653   1.162 -1.9642  2.0642 -1.7130
 5814TIP3    H217407   3.277   5.690   1.280 -0.9558 -3.0308 -0.6238
 5815TIP3   OH217408   2.737   4.559   2.769 -0.1506 -0.2345 -0.0868
 5815TIP3    H117409   2.784   4.641   2.782  0.3477 -0.5524  0.1549
 5815TIP3    H217410   2.745   4.513   2.853  0.8495 -1.1667 -0.6495
 5816TIP3   OH217411   4.494   6.712   1.155  0.4833 -0.0101  0.1600
 5816TIP3    H117412   4.561   6.768   1.115  2.9337 -3.0510 -0.3948
 5816TIP3    H217413   4.532   6.685   1.239  0.0041 -1.7879 -0.1507
 5817TIP3   OH217414   1.877   2.422   0.044  0.1530 -0.1766  0.2064
 5817TIP3    H117415   1.832   2.502   0.069 -1.4268 -1.1023  0.4541
 5817TIP3    H217416   1.921   2.445  -0.038 -1.1550  0.6578 -0.3017
 5818TIP3   OH217417   2.885   6.329   4.609 -0.4431 -0.2426 -0.0595
 5818TIP3    H117418   2.843   6.414   4.596 -0.6969 -0.5189 -1.1732
 5818TIP3    H217419   2.953   6.325   4.541 -1.0995 -1.3335 -0.6881
 5819TIP3   OH217420   5.425   6.105   0.374  0.0906  0.3667 -0.0518
 5819TIP3    H117421   5.418   6.010   0.382 -0.6774  0.4021 -0.2456
 5819TIP3    H217422   5.338   6.134   0.347  0.7304  0.9686 -1.5713
 5820TIP3   OH217423   0.206   3.805   3.860 -0.0516  0.0716  0.8764
 5820TIP3    H117424   0.226   3.760   3.778 -1.0783  1.2634 -0.0589
 5820TIP3    H217425   0.255   3.756   3.927  1.3357 -0.5158 -0.5212
 5821TIP3   OH217426   0.237   4.765   4.858  0.2410 -0.8812  0.1023
 5821TIP3    H117427   0.246   4.861   4.853  1.4899 -0.8641  1.9169
 5821TIP3    H217428   0.327   4.733   4.864 -0.1988 -2.1098  0.2856
 5822TIP3   OH217429   6.966   5.728   3.257  0.2106 -0.3803 -0.3550
 5822TIP3    H117430   7.020   5.698   3.184 -0.2363  0.4996 -1.0715
 5822TIP3    H217431   6.876   5.711   3.230  0.0861 -1.5123  0.6805
 5823TIP3   OH217432   6.351   2.491   5.602  0.2254 -0.1552  0.2124
 5823TIP3    H117433   6.379   2.400   5.605 -3.8200 -1.6347 -1.0607
 5823TIP3    H217434   6.304   2.504   5.685 -0.1987  0.3815 -0.1054
 5824TIP3   OH217435   6.685   4.871   5.499  0.1477 -0.2234 -0.0748
 5824TIP3    H117436   6.673   4.779   5.475  0.0170 -0.5045  1.0330
 5824TIP3    H217437   6.779   4.887   5.484  0.0387 -0.3400 -0.9125
 5825TIP3   OH217438   1.513   1.576   2.991  0.2432  0.6018  0.3037
 5825TIP3    H117439   1.511   1.572   2.895  0.1234  0.1684  0.3256
 5825TIP3    H217440   1.491   1.488   3.020 -1.2656  1.0994  0.7610
 5826TIP3   OH217441   3.484   4.150   0.993 -0.1266  0.1109 -0.1237
 5826TIP3    H117442   3.492   4.174   1.085  1.8461 -0.6446 -0.0414
 5826TIP3    H217443   3.499   4.055   0.992 -2.7833 -0.3812 -0.9599
 5827TIP3   OH217444   5.929   3.886   3.932  0.0637  0.1386  0.2197
 5827TIP3    H117445   5.983   3.947   3.883  0.5131  0.0968  0.6561
 5827TIP3    H217446   5.923   3.924   4.020 -0.8690  0.2990  0.0985
 5828TIP3   OH217447   1.300   5.836   4.381 -0.0390 -0.5550 -0.0029
 5828TIP3    H117448   1.392   5.849   4.405  0.0960 -2.8408  0.9776
 5828TIP3    H217449   1.300   5.830   4.286  0.5096  1.3707 -0.1585
 5829TIP3   OH217450   6.910   1.668   2.121  0.0661 -0.0199  0.4786
 5829TIP3    H117451   6.904   1.625   2.206 -0.7758 -1.9564 -0.5056
 5829TIP3    H217452   6.984   1.625   2.078  0.2013  0.6193  0.0627
 5830TIP3   OH217453   1.843   0.024   3.202  0.0101  0.0058  0.8186
 5830TIP3    H117454   1.899  -0.035   3.252  0.8657 -0.7464 -0.9507
 5830TIP3    H217455   1.822   0.095   3.264  2.2126 -0.1250  1.8153
 5831TIP3   OH217456   1.640   3.868   3.659 -0.7100 -0.3304  0.3547
 5831TIP3    H117457   1.735   3.862   3.646 -0.6172 -1.5034  1.3609
 5831TIP3    H217458   1.627   3.849   3.752 -1.8782  0.5693  0.3946
 5832TIP3   OH217459   2.394   2.283   1.600  0.0974 -0.0828  0.3168
 5832TIP3    H117460   2.464   2.310   1.660  0.0227  0.6879  0.0562
 5832TIP3    H217461   2.316   2.328   1.632 -0.5982 -1.8992  1.3691
 5833TIP3   OH217462   6.947   1.942   4.258  0.2813 -0.1369 -0.2433
 5833TIP3    H117463   6.944   2.037   4.241  1.7540  0.3389  1.7562
 5833TIP3    H217464   6.863   1.922   4.297 -0.7770 -0.0767 -2.3438
 5834TIP3   OH217465   6.142   4.713   0.531  0.0077 -0.1142 -0.0819
 5834TIP3    H117466   6.227   4.672   0.514 -0.4548 -1.4295  0.6708
 5834TIP3    H217467   6.122   4.690   0.622 -0.6899  1.0536  0.0787
 5835TIP3   OH217468   5.116   1.759   3.686  0.2330 -0.6532 -0.3049
 5835TIP3    H117469   5.080   1.757   3.598  1.2066  1.6370 -0.8377
 5835TIP3    H217470   5.086   1.843   3.723  2.0766 -0.2760  0.4763
 5836TIP3   OH217471   0.997   1.231   5.199  0.4917 -0.2261  0.1753
 5836TIP3    H117472   1.090   1.216   5.184  0.0309 -1.0897 -2.1928
 5836TIP3    H217473   0.991   1.325   5.218  1.7881 -0.0721 -0.0530
 5837TIP3   OH217474   4.281   5.407   4.678 -0.1482  0.4914 -0.6735
 5837TIP3    H117475   4.201   5.417   4.626  0.7509 -1.0774 -2.4567
 5837TIP3    H217476   4.318   5.496   4.681 -0.3320  0.6795 -2.5905
 5838TIP3   OH217477   1.787   3.212   4.056 -0.2673 -0.0303  0.6179
 5838TIP3    H117478   1.881   3.213   4.073  0.0255 -0.0883 -0.8471
 5838TIP3    H217479   1.779   3.183   3.965 -1.6492  1.0220  0.3705
 5839TIP3   OH217480   0.733   1.641   5.427  0.4503 -0.5416 -0.5549
 5839TIP3    H117481   0.645   1.629   5.392  0.6102 -0.5295 -0.9702
 5839TIP3    H217482   0.758   1.555   5.460 -0.3364 -0.1896  1.0545
 5840TIP3   OH217483   2.321   2.596   5.191  0.2541  0.0952  0.4688
 5840TIP3    H117484   2.281   2.650   5.123 -0.8321  0.1484  1.1376
 5840TIP3    H217485   2.414   2.592   5.166  0.0305  0.8028 -0.5500
 5841TIP3   OH217486   4.098   4.741   4.521  0.1744 -0.0215  0.0917
 5841TIP3    H117487   4.007   4.734   4.549 -0.1576  2.1416 -0.2880
 5841TIP3    H217488   4.101   4.693   4.439 -0.8649  0.5911 -0.3284
 5842TIP3   OH217489   6.290   1.250   5.575  0.5826 -0.0963 -0.2732
 5842TIP3    H117490   6.307   1.274   5.666 -1.2875 -0.1150  0.1131
 5842TIP3    H217491   6.219   1.309   5.547  0.6838 -0.5248 -1.5218
 5843TIP3   OH217492   1.413   1.305   2.746 -0.1857 -0.7288  0.5178
 5843TIP3    H117493   1.483   1.325   2.684 -1.2829  2.9584  0.2339
 5843TIP3    H217494   1.459   1.271   2.823  1.8074  0.3596 -0.1232
 5844TIP3   OH217495   2.977   1.831   5.777  0.2344 -0.6690  0.3656
 5844TIP3    H117496   3.042   1.866   5.838  0.9179 -0.7264 -0.3207
 5844TIP3    H217497   3.018   1.837   5.691 -0.0773 -2.0977  0.0911
 5845TIP3   OH217498   5.495   3.795   4.537 -0.1340 -0.2537 -0.0775
 5845TIP3    H117499   5.407   3.831   4.545  0.2367  0.5329  0.6582
 5845TIP3    H217500   5.541   3.858   4.482  0.1736 -0.2609  0.1704
 5846TIP3   OH217501   6.230   1.307   2.580 -0.0110  0.2637 -0.7860
 5846TIP3    H117502   6.259   1.387   2.624 -0.5641 -0.0636  0.2073
 5846TIP3    H217503   6.307   1.251   2.580  0.9102  1.4018 -3.0598
 5847TIP3   OH217504   2.182   4.871   2.453 -0.0427  0.1999 -0.4619
 5847TIP3    H117505   2.273   4.861   2.479 -0.1011 -0.8756 -0.5916
 5847TIP3    H217506   2.178   4.831   2.366 -0.9096 -1.1499  0.1492
 5848TIP3   OH217507   3.766   4.459   4.567  0.1733 -0.0071 -0.0330
 5848TIP3    H117508   3.674   4.434   4.572  0.2768 -0.3582  0.0764
 5848TIP3    H217509   3.783   4.467   4.473 -0.2404  1.0659 -0.0335
 5849TIP3   OH217510   2.435   5.041   1.683  0.1209  0.3810 -0.0244
 5849TIP3    H117511   2.382   5.081   1.615 -1.2037 -0.4704  0.4618
 5849TIP3    H217512   2.385   5.053   1.764  1.5152  1.1075  0.7672
 5850TIP3   OH217513   5.724   1.868   4.585 -0.5950 -0.1056 -0.2607
 5850TIP3    H117514   5.712   1.861   4.680 -1.7568  0.1673 -0.3651
 5850TIP3    H217515   5.817   1.854   4.571 -0.7276 -2.5448  0.7120
 5851TIP3   OH217516   5.718   5.295   0.862 -0.2148  0.2511  0.4104
 5851TIP3    H117517   5.806   5.290   0.823 -0.3928 -1.9622  0.1935
 5851TIP3    H217518   5.700   5.389   0.867  2.0985  0.7645  0.3204
 5852TIP3   OH217519   4.830   6.017   4.232  0.0548 -0.7415  0.0129
 5852TIP3    H117520   4.819   5.946   4.169 -0.6760 -1.5770  1.0449
 5852TIP3    H217521   4.799   6.095   4.186  1.2674 -0.9794 -1.2901
 5853TIP3   OH217522   4.701   6.333   4.684 -0.3525 -0.7495 -0.4394
 5853TIP3    H117523   4.656   6.412   4.654 -1.7972 -1.8675 -1.3349
 5853TIP3    H217524   4.794   6.357   4.684 -0.6517  0.5774 -1.8852
 5854TIP3   OH217525   0.172   0.110   3.356  0.0860  0.4915 -0.2983
 5854TIP3    H117526   0.149   0.055   3.281  0.0416 -0.4848  0.4155
 5854TIP3    H217527   0.248   0.160   3.326 -0.3363  0.6109 -1.2162
 5855TIP3   OH217528   3.210   3.338   5.266  0.3417 -0.0004 -0.3602
 5855TIP3    H117529   3.136   3.355   5.324  1.6821  0.3548  1.3153
 5855TIP3    H217530   3.219   3.419   5.214 -1.2469 -0.5497 -1.5921
 5856TIP3   OH217531   1.797   5.053   5.162 -0.7125 -0.3831 -0.1116
 5856TIP3    H117532   1.845   4.991   5.217 -1.1532 -0.9297 -0.3363
 5856TIP3    H217533   1.707   5.020   5.162 -0.1439 -2.4984 -3.9830
 5857TIP3   OH217534   1.476   6.275   0.352  0.2314  0.0380 -0.0279
 5857TIP3    H117535   1.451   6.311   0.437 -1.5146  2.7312 -1.5207
 5857TIP3    H217536   1.544   6.211   0.372 -0.4373  0.1993  3.4049
 5858TIP3   OH217537   0.037   2.147   4.071  0.3435  0.1357 -0.0205
 5858TIP3    H117538   0.076   2.068   4.033  0.4306 -0.1999  0.7666
 5858TIP3    H217539   0.074   2.218   4.019  1.8095 -0.1884  0.5302
 5859TIP3   OH217540   2.328   4.370   1.326 -0.1921 -0.5002 -0.2942
 5859TIP3    H117541   2.334   4.444   1.265 -0.9606  0.1504  0.3978
 5859TIP3    H217542   2.323   4.411   1.413  0.1442 -1.3938  0.1524
 5860TIP3   OH217543   6.578   0.251   3.574  0.2302  0.2785  0.2901
 5860TIP3    H117544   6.609   0.249   3.665  1.3021 -1.7462 -0.0494
 5860TIP3    H217545   6.658   0.263   3.522 -0.1692 -0.0963 -0.4320
 5861TIP3   OH217546   6.561   2.213   2.510 -0.3895 -0.0131  0.1479
 5861TIP3    H117547   6.623   2.168   2.567 -0.7408  0.8176  1.2153
 5861TIP3    H217548   6.615   2.268   2.453 -0.0953 -0.0659  0.3759
 5862TIP3   OH217549   1.943   4.881   4.124  0.0746 -0.2207  0.2986
 5862TIP3    H117550   1.910   4.961   4.167 -1.3424  0.3674 -1.7414
 5862TIP3    H217551   1.869   4.820   4.127  0.7710 -1.0611  0.8009
 5863TIP3   OH217552   1.608   0.316   4.042  0.1435  0.2925  0.2031
 5863TIP3    H117553   1.691   0.336   3.999 -0.2363  1.4252 -0.0389
 5863TIP3    H217554   1.633   0.283   4.128  0.9392 -2.5266 -1.0141
 5864TIP3   OH217555   6.275   4.791   1.533  0.2672  0.2369 -0.0162
 5864TIP3    H117556   6.192   4.781   1.485  0.5329 -2.2538 -0.0577
 5864TIP3    H217557   6.251   4.783   1.625  0.5229 -1.6477 -0.0639
 5865TIP3   OH217558   2.565   6.526   0.625  0.5398 -0.5485  0.2292
 5865TIP3    H117559   2.533   6.562   0.708 -1.4800 -1.1183 -0.2416
 5865TIP3    H217560   2.526   6.438   0.621  1.4363 -0.9175 -0.8669
 5866TIP3   OH217561   5.749   1.007   1.198  0.2900  0.2023  0.3337
 5866TIP3    H117562   5.840   1.004   1.169  0.4429 -0.0573  0.8362
 5866TIP3    H217563   5.724   1.099   1.188  0.1133  0.0121 -1.2811
 5867TIP3   OH217564   5.018   6.449   0.793  0.5228  0.3237 -0.1966
 5867TIP3    H117565   4.980   6.509   0.729 -0.6096  0.1614  0.3090
 5867TIP3    H217566   4.965   6.369   0.787  0.7415  0.1081  0.5579
 5868TIP3   OH217567   4.614   2.082   3.955  0.1167 -0.1081 -0.0702
 5868TIP3    H117568   4.526   2.101   3.922  1.3979  3.2709 -1.9850
 5868TIP3    H217569   4.646   2.012   3.898 -0.4214  0.4510 -1.0861
 5869TIP3   OH217570   2.438   3.922   2.103 -0.0295  0.2735 -0.0959
 5869TIP3    H117571   2.425   4.016   2.111 -0.6276  0.2884 -1.0817
 5869TIP3    H217572   2.522   3.905   2.146 -0.5771  1.0425  1.3147
 5870TIP3   OH217573   5.047   5.838   5.191  0.0986  0.3267 -0.1830
 5870TIP3    H117574   4.967   5.810   5.237 -0.0096  0.6838 -0.1478
 5870TIP3    H217575   5.117   5.827   5.255  0.0126  0.4205 -0.0737
 5871TIP3   OH217576   1.906   1.219   5.731  0.3646 -0.1486 -0.3982
 5871TIP3    H117577   1.903   1.144   5.791 -1.0783  0.4260  0.3003
 5871TIP3    H217578   1.970   1.279   5.770  2.0181 -1.2532 -1.3036
 5872TIP3   OH217579   4.097   5.517   1.259  0.2984  0.2504  0.5160
 5872TIP3    H117580   4.052   5.566   1.328 -0.7949 -0.7745  0.5786
 5872TIP3    H217581   4.036   5.519   1.185  0.3913 -0.6797  0.4023
 5873TIP3   OH217582   4.719   2.200   1.877  0.1298  0.2492  0.1553
 5873TIP3    H117583   4.737   2.134   1.810 -1.1971  1.4507 -1.4584
 5873TIP3    H217584   4.794   2.194   1.937  0.5771 -1.9459 -0.5281
 5874TIP3   OH217585   1.654   4.424   1.082  0.0238  0.6349  0.3831
 5874TIP3    H117586   1.595   4.443   1.009 -0.5283  1.1822  0.9633
 5874TIP3    H217587   1.740   4.454   1.052 -0.1200  0.5047 -0.1838
 5875TIP3   OH217588   4.855   2.950   2.886 -0.3332  0.9396  0.2385
 5875TIP3    H117589   4.903   2.993   2.957 -0.3481  1.9354 -0.3361
 5875TIP3    H217590   4.776   2.915   2.927  0.0986  0.7140  0.8810
 5876TIP3   OH217591   4.609   1.663   4.764 -0.1225 -0.2847  0.4378
 5876TIP3    H117592   4.515   1.679   4.762 -0.1234 -0.0007  1.7028
 5876TIP3    H217593   4.645   1.738   4.811  0.8727  0.1367 -0.9448
 5877TIP3   OH217594   2.240   1.902   2.122 -0.6132  0.9819 -0.6605
 5877TIP3    H117595   2.277   1.838   2.183 -1.2908 -0.5613 -1.7795
 5877TIP3    H217596   2.168   1.855   2.079 -0.8228  2.3435 -1.8876
 5878TIP3   OH217597   7.097   2.697   3.591 -0.4192 -0.3283  0.3374
 5878TIP3    H117598   7.047   2.739   3.661 -1.5198  1.4085 -1.3847
 5878TIP3    H217599   7.097   2.604   3.614 -1.4381  0.0827  2.1940
 5879TIP3   OH217600   4.144   5.331   0.251 -0.1433 -0.6875  0.2736
 5879TIP3    H117601   4.112   5.392   0.185 -0.6912 -2.6873 -1.4183
 5879TIP3    H217602   4.164   5.386   0.327  1.6254  1.9144 -1.8782
 5880TIP3   OH217603   0.736   0.532   4.231  0.4855  0.0219  0.3954
 5880TIP3    H117604   0.647   0.509   4.261  0.3295 -0.8711 -0.6763
 5880TIP3    H217605   0.793   0.494   4.298  0.0913 -0.4045  0.5036
 5881TIP3   OH217606   0.108   2.828   4.785  0.1610 -0.1026 -0.0280
 5881TIP3    H117607   0.027   2.879   4.778 -0.6047 -1.4388 -1.4441
 5881TIP3    H217608   0.111   2.801   4.877 -0.3472  0.9719  0.3221
 5882TIP3   OH217609   1.795   1.841   1.815  0.8085  0.2253 -0.3529
 5882TIP3    H117610   1.802   1.818   1.908 -0.0135 -0.1572 -0.3747
 5882TIP3    H217611   1.772   1.759   1.772 -1.2444  0.8666 -0.5693
 5883TIP3   OH217612   6.761   5.361   0.240  0.4472 -0.1081 -0.6302
 5883TIP3    H117613   6.698   5.427   0.268  1.6740 -0.0244  2.1709
 5883TIP3    H217614   6.744   5.285   0.296  1.8723 -0.5986 -0.8030
 5884TIP3   OH217615   5.174   3.063   5.828 -0.1314 -0.2209  0.1526
 5884TIP3    H117616   5.149   3.005   5.756  2.2080 -1.1387 -0.0131
 5884TIP3    H217617   5.188   3.148   5.786 -1.3606 -0.0533  0.0226
 5885TIP3   OH217618   4.933   3.163   4.295 -0.1232  0.1106 -0.2600
 5885TIP3    H117619   4.970   3.206   4.372  0.8387 -1.3058  0.1136
 5885TIP3    H217620   4.895   3.234   4.244  2.6083  1.6400 -0.3720
 5886TIP3   OH217621   4.194   5.889   5.014  0.4881 -0.3954 -0.0131
 5886TIP3    H117622   4.148   5.864   4.934 -0.5336  0.0428  0.4188
 5886TIP3    H217623   4.141   5.960   5.051  0.9247 -0.6098  1.0672
 5887TIP3   OH217624   2.634   2.812   5.152  0.4125 -0.0392  0.1267
 5887TIP3    H117625   2.719   2.848   5.128  0.2269 -0.3489 -1.0512
 5887TIP3    H217626   2.649   2.717   5.158  0.7864  0.1008  2.7268
 5888TIP3   OH217627   3.093   4.998   2.861  0.6839 -0.1819 -0.5664
 5888TIP3    H117628   3.167   4.971   2.806  0.9280  0.6434 -0.6687
 5888TIP3    H217629   3.100   4.944   2.939  1.3073 -0.2280 -0.6458
 5889TIP3   OH217630   5.083   4.874   3.596  0.6711  0.0491 -0.1810
 5889TIP3    H117631   5.050   4.958   3.626  1.3970  0.3506 -0.1991
 5889TIP3    H217632   5.155   4.853   3.656 -0.6908 -1.4791  0.9981
 5890TIP3   OH217633   5.121   6.477   5.674  0.5897 -0.3566 -0.0075
 5890TIP3    H117634   5.071   6.495   5.753  0.2043 -0.5986 -0.1917
 5890TIP3    H217635   5.188   6.414   5.701 -0.0959 -1.1297 -0.0526
 5891TIP3   OH217636   2.394   4.496   3.822  0.0863  0.1106  0.0563
 5891TIP3    H117637   2.443   4.473   3.901  1.3558 -0.7426 -0.9268
 5891TIP3    H217638   2.414   4.588   3.807  1.2239 -0.1555 -0.1765
 5892TIP3   OH217639   6.818   6.635   0.682  0.5482  0.3145  0.2947
 5892TIP3    H117640   6.768   6.717   0.688  1.2800  0.9117 -1.3703
 5892TIP3    H217641   6.902   6.656   0.722  0.2099 -0.1078  1.2697
 5893TIP3   OH217642   6.674   3.151   0.464  0.1627  0.3106 -0.3080
 5893TIP3    H117643   6.708   3.064   0.443  1.5449  0.8591 -0.4313
 5893TIP3    H217644   6.702   3.167   0.555 -0.1301  0.6093 -0.2667
 5894TIP3   OH217645   1.223   1.876   0.692 -0.2057  0.1135  0.1434
 5894TIP3    H117646   1.214   1.852   0.599 -1.2837 -0.4592  0.3834
 5894TIP3    H217647   1.203   1.796   0.739 -0.6573  0.6651  0.9026
 5895TIP3   OH217648   3.134   4.009   5.764  0.2811 -0.2941  0.1755
 5895TIP3    H117649   3.158   4.055   5.844 -0.0014  0.7033 -0.3030
 5895TIP3    H217650   3.048   3.971   5.783 -0.1185  0.5612  0.0962
 5896TIP3   OH217651   3.831   2.975   5.381 -0.1636 -0.1317 -0.1943
 5896TIP3    H117652   3.790   2.928   5.308  1.1181  1.2697 -1.9221
 5896TIP3    H217653   3.833   3.066   5.351  1.3317  0.3258  1.1879
 5897TIP3   OH217654   0.924   1.076   5.514 -0.0896 -0.0111  0.2849
 5897TIP3    H117655   0.838   1.116   5.530 -0.5353 -0.9124  0.2177
 5897TIP3    H217656   0.977   1.104   5.589 -1.2642 -1.6918  1.8577
 5898TIP3   OH217657   3.020   4.196   5.576 -0.1634  0.1073  0.2456
 5898TIP3    H117658   3.022   4.109   5.614  1.0520 -0.1371 -0.3470
 5898TIP3    H217659   2.962   4.246   5.634 -1.3969 -1.2304  0.2368
 5899TIP3   OH217660   0.907   5.888   1.374 -0.2445 -0.3518  0.1838
 5899TIP3    H117661   0.886   5.850   1.459 -1.3485  0.8835  0.5026
 5899TIP3    H217662   0.852   5.840   1.312  1.1825 -1.8357  0.0045
 5900TIP3   OH217663   2.906   0.702   4.306  0.3991 -0.5372  0.0062
 5900TIP3    H117664   2.972   0.636   4.327  0.9273  0.4596  1.6843
 5900TIP3    H217665   2.911   0.713   4.211  1.9573 -1.2014 -0.0055
 5901TIP3   OH217666   0.396   6.419   1.803  0.5123  0.2700 -0.3309
 5901TIP3    H117667   0.413   6.507   1.836 -2.9065  0.0497  2.6494
 5901TIP3    H217668   0.324   6.431   1.740  1.4473 -0.2296 -1.5281
 5902TIP3   OH217669   3.020   5.536   3.138  0.2612 -0.4968  0.0651
 5902TIP3    H117670   3.068   5.561   3.059  0.0963  0.4353  0.2550
 5902TIP3    H217671   3.069   5.461   3.173  1.8577  0.6869  0.4910
 5903TIP3   OH217672   0.899   2.705   0.023  0.4861 -0.2782 -0.3397
 5903TIP3    H117673   0.839   2.687   0.095  0.2361  0.1291 -0.4430
 5903TIP3    H217674   0.845   2.699  -0.055  0.1264  1.9726 -0.3165
 5904TIP3   OH217675   0.271   0.100   4.886 -0.0012  0.0514 -0.7932
 5904TIP3    H117676   0.333   0.093   4.813 -2.4336 -0.7700 -2.9242
 5904TIP3    H217677   0.243   0.191   4.885 -0.1407  0.0062 -0.9685
 5905TIP3   OH217678   1.730   1.272   2.338 -0.5143 -0.9574  0.4111
 5905TIP3    H117679   1.804   1.253   2.281 -0.5265 -1.3724  0.5321
 5905TIP3    H217680   1.657   1.290   2.278 -0.1063  0.3552  0.2770
 5906TIP3   OH217681   0.623   6.571   5.045  0.2231  0.2515 -0.1488
 5906TIP3    H117682   0.610   6.645   5.105 -1.8127 -0.5192  0.4384
 5906TIP3    H217683   0.717   6.556   5.046  0.2650  0.0473  3.1628
 5907TIP3   OH217684   4.239   1.022   1.202  0.2002  0.4852 -0.2101
 5907TIP3    H117685   4.203   0.975   1.127  1.5430 -0.3177 -0.3847
 5907TIP3    H217686   4.270   0.954   1.261  1.1707  1.1287  0.0482
 5908TIP3   OH217687   0.839   6.054   0.105  0.3285  0.2695 -0.0470
 5908TIP3    H117688   0.745   6.058   0.088  0.2391  2.0876  0.6976
 5908TIP3    H217689   0.852   5.973   0.153 -1.1313  0.8238  1.3492
 5909TIP3   OH217690   0.379   0.791   2.375  0.3177  1.0670  0.5863
 5909TIP3    H117691   0.330   0.873   2.368  0.8189  1.4014  1.0151
 5909TIP3    H217692   0.323   0.727   2.331 -0.4173  1.4868  0.8902
 5910TIP3   OH217693   1.651   5.007   1.588  0.2260 -0.4622 -0.4793
 5910TIP3    H117694   1.623   4.920   1.562  1.4782 -1.5084  1.4702
 5910TIP3    H217695   1.574   5.047   1.628 -0.5534 -0.3491 -2.0041
 5911TIP3   OH217696   6.066   3.332   5.295  0.6167 -0.4684  0.5338
 5911TIP3    H117697   6.009   3.408   5.296 -1.0721 -1.5821 -1.8544
 5911TIP3    H217698   6.141   3.358   5.242 -0.5703 -0.7693 -1.3954
 5912TIP3   OH217699   0.267   1.009   5.745  0.4146 -0.0332 -0.5016
 5912TIP3    H117700   0.284   0.915   5.735 -0.3629 -0.3391  0.7491
 5912TIP3    H217701   0.173   1.015   5.759  0.5252  0.8845 -0.0516
 5913TIP3   OH217702   5.995   5.202   2.106  0.3688 -0.0750  0.0320
 5913TIP3    H117703   6.027   5.269   2.046  1.8436 -1.3967 -0.7404
 5913TIP3    H217704   6.072   5.149   2.128 -0.3870 -0.4311  2.0816
 5914TIP3   OH217705   0.492   0.114   2.230  0.1549  0.0288  0.7915
 5914TIP3    H117706   0.439   0.172   2.175 -1.3695 -1.1585  0.9758
 5914TIP3    H217707   0.555   0.075   2.169 -0.1921  0.2624  0.2768
 5915TIP3   OH217708   3.421   5.519   2.307  0.3763 -0.3984 -0.1893
 5915TIP3    H117709   3.475   5.591   2.340  1.7747 -0.5037 -2.1102
 5915TIP3    H217710   3.427   5.453   2.376  1.7921  0.0414  0.1642
 5916TIP3   OH217711   4.766   2.767   0.605  0.3188  0.1793 -0.0158
 5916TIP3    H117712   4.731   2.828   0.670  0.2935 -0.5522  0.6639
 5916TIP3    H217713   4.690   2.740   0.554  0.3849  0.9978 -0.5781
 5917TIP3   OH217714   5.898   4.573   2.708 -0.3675 -0.2707 -0.2390
 5917TIP3    H117715   5.873   4.559   2.799  0.5902 -2.7724 -0.2545
 5917TIP3    H217716   5.851   4.652   2.681  1.1367  1.9856  3.0671
 5918TIP3   OH217717   4.218   1.609   4.017 -0.3882  0.0471 -0.7002
 5918TIP3    H117718   4.168   1.542   4.063  1.0529  0.5223  1.7692
 5918TIP3    H217719   4.297   1.564   3.987 -0.4017  0.1651 -0.9097
 5919TIP3   OH217720   0.063   1.759   5.746  0.1386 -0.1090 -0.2604
 5919TIP3    H117721   0.107   1.778   5.663 -1.1193  0.9398 -0.7266
 5919TIP3    H217722   0.132   1.768   5.812  1.0148 -0.3225 -1.1218
 5920TIP3   OH217723   4.671   6.377   1.163 -0.0232 -0.0854  0.3235
 5920TIP3    H117724   4.722   6.458   1.168 -0.4468  0.3198 -1.3135
 5920TIP3    H217725   4.599   6.390   1.224  0.1415  0.6078  0.3784
 5921TIP3   OH217726   4.800   5.571   3.751  0.3821  0.2676 -0.1450
 5921TIP3    H117727   4.859   5.520   3.808 -0.9075 -0.7998  0.2821
 5921TIP3    H217728   4.792   5.519   3.672  0.6339  0.8122 -0.5376
 5922TIP3   OH217729   1.624   2.064   5.781 -0.0660 -0.6238 -0.1537
 5922TIP3    H117730   1.533   2.055   5.809  0.4509 -3.4622  0.9926
 5922TIP3    H217731   1.632   2.004   5.707  0.9636 -0.7613  0.0578
 5923TIP3   OH217732   5.868   0.220   2.387 -0.0183  0.3553  0.2629
 5923TIP3    H117733   5.816   0.164   2.445  0.5890  1.4669  1.9863
 5923TIP3    H217734   5.805   0.285   2.353  0.0248  1.1767  1.6627
 5924TIP3   OH217735   0.649   2.376   1.128 -0.6463 -0.2148  0.2409
 5924TIP3    H117736   0.615   2.432   1.198 -0.0177 -0.5369  0.8254
 5924TIP3    H217737   0.572   2.330   1.094 -1.3933  1.9122 -1.1433
 5925TIP3   OH217738   1.965   3.298   0.742  0.1206 -0.7205 -0.3543
 5925TIP3    H117739   1.966   3.204   0.757 -1.4440 -0.6102  0.6288
 5925TIP3    H217740   1.905   3.310   0.668 -2.1407 -0.3192  1.4434
 5926TIP3   OH217741   2.380   6.012   5.595  0.2806 -0.0247 -0.2763
 5926TIP3    H117742   2.365   5.918   5.592  1.9031 -0.2926 -1.5744
 5926TIP3    H217743   2.422   6.028   5.679 -1.6128 -0.1495  0.7330
 5927TIP3   OH217744   1.908   4.779   2.759  0.4629  0.2635 -0.5634
 5927TIP3    H117745   1.863   4.863   2.758  1.0566  0.6410  1.3545
 5927TIP3    H217746   1.913   4.755   2.851 -0.0459 -2.0925 -1.0738
 5928TIP3   OH217747   0.446   1.992   4.841 -0.3937  0.5561  0.4465
 5928TIP3    H117748   0.420   2.037   4.761  0.3813  0.9458  0.4071
 5928TIP3    H217749   0.516   1.932   4.814 -2.5081 -1.9649  0.1742
 5929TIP3   OH217750   6.100   4.054   1.221  0.1390 -0.0873 -0.0369
 5929TIP3    H117751   6.142   4.137   1.197  1.7373 -0.6045  0.8079
 5929TIP3    H217752   6.007   4.074   1.222  0.5655  2.6007  3.2262
 5930TIP3   OH217753   2.206   6.033   4.787 -0.0418 -0.6268 -0.3420
 5930TIP3    H117754   2.202   6.098   4.857 -1.4878 -0.5322 -0.4788
 5930TIP3    H217755   2.270   5.969   4.817 -0.6536 -0.6065  1.1074
 5931TIP3   OH217756   6.585   3.782   5.417 -0.2972  0.4372 -0.0920
 5931TIP3    H117757   6.653   3.848   5.402  1.2237 -1.2312 -0.8628
 5931TIP3    H217758   6.602   3.751   5.506 -1.4096  1.4985  0.5079
 5932TIP3   OH217759   2.144   6.150   1.014  0.1397  0.6863 -0.2032
 5932TIP3    H117760   2.074   6.163   1.077 -0.5588  0.6579 -0.9590
 5932TIP3    H217761   2.115   6.076   0.961  2.1712 -1.4358  1.4311
 5933TIP3   OH217762   4.026   4.055   2.812 -0.6643  0.4352 -0.3395
 5933TIP3    H117763   4.003   3.998   2.739 -1.1445  0.0255  0.1302
 5933TIP3    H217764   4.119   4.040   2.826 -1.0337 -1.1425  0.5612
 5934TIP3   OH217765   6.168   0.212   3.731 -0.3347 -0.1361 -0.1674
 5934TIP3    H117766   6.226   0.232   3.658 -0.9587  0.6396 -0.4682
 5934TIP3    H217767   6.219   0.232   3.809  0.0142 -0.0560 -0.4159
 5935TIP3   OH217768   3.412   3.492   0.492 -0.1901 -0.1715 -0.0833
 5935TIP3    H117769   3.337   3.504   0.433 -1.0250 -0.8517  0.7949
 5935TIP3    H217770   3.426   3.398   0.495 -0.3109 -0.1684  0.9628
 5936TIP3   OH217771   5.768   6.089   3.953 -0.3710 -0.0503  0.0247
 5936TIP3    H117772   5.753   6.096   3.859  1.4148 -0.9184 -0.3649
 5936TIP3    H217773   5.813   6.170   3.976 -2.1446  0.8648  0.4763
 5937TIP3   OH217774   3.979   4.094   3.079  0.1185 -0.3334 -0.1233
 5937TIP3    H117775   4.012   4.076   2.991  1.2244 -4.2423  0.8999
 5937TIP3    H217776   4.057   4.104   3.133 -0.5400  1.0590  0.6254
 5938TIP3   OH217777   5.513   0.272   0.226 -0.1747 -0.1560 -0.2967
 5938TIP3    H117778   5.433   0.261   0.278  1.2092 -1.9018  1.6439
 5938TIP3    H217779   5.566   0.333   0.277 -0.4779  1.5376 -1.9189
 5939TIP3   OH217780   2.298   2.295   3.193 -0.0675 -0.5369  0.2131
 5939TIP3    H117781   2.285   2.286   3.098 -0.6561  0.7239  0.1464
 5939TIP3    H217782   2.218   2.260   3.232 -0.9599  1.2571  0.0987
 5940TIP3   OH217783   0.459   5.945   3.470  0.3437 -0.1092  0.1645
 5940TIP3    H117784   0.501   6.029   3.449  0.7725 -0.4589 -0.3967
 5940TIP3    H217785   0.374   5.969   3.507  0.1929  0.5568 -0.5962
 5941TIP3   OH217786   4.455   5.296   1.933  0.2768 -0.0412 -0.4600
 5941TIP3    H117787   4.511   5.264   2.004  0.2645  1.4173  0.2419
 5941TIP3    H217788   4.503   5.277   1.853 -0.5240 -3.4293 -0.2805
 5942TIP3   OH217789   2.162   2.969   5.088 -0.0548  0.6140 -0.2048
 5942TIP3    H117790   2.135   3.060   5.095  0.6203  0.8695 -0.8216
 5942TIP3    H217791   2.251   2.973   5.052  0.2095 -0.2622  0.3184
 5943TIP3   OH217792   1.707   3.719   5.005  0.2384 -0.5431 -0.1561
 5943TIP3    H117793   1.657   3.692   4.927 -2.1804  4.2762 -0.6178
 5943TIP3    H217794   1.650   3.699   5.078  0.8722 -1.5440  0.0956
 5944TIP3   OH217795   1.574   1.970   3.271  0.0950  0.1517  0.1360
 5944TIP3    H117796   1.597   1.882   3.242  2.4365  1.0241 -0.9478
 5944TIP3    H217797   1.551   2.016   3.190 -0.5692  0.6886  0.6229
 5945TIP3   OH217798   6.925   4.801   1.663 -0.0712 -0.2493  0.2994
 5945TIP3    H117799   6.882   4.717   1.680  0.9675 -1.1952 -1.4316
 5945TIP3    H217800   6.854   4.859   1.635 -0.8567 -0.4183  1.8617
 5946TIP3   OH217801   5.784   5.597   0.513  0.6397 -0.1683 -0.1927
 5946TIP3    H117802   5.689   5.597   0.509  0.6418  1.8359 -2.0150
 5946TIP3    H217803   5.812   5.563   0.428  1.5929 -1.8055  0.7390
 5947TIP3   OH217804   5.940   2.439   2.339  0.5782 -0.5050 -0.5511
 5947TIP3    H117805   5.853   2.447   2.378  0.3293 -0.0042 -1.2065
 5947TIP3    H217806   5.995   2.410   2.411  0.4963  2.1166  0.6779
 5948TIP3   OH217807   4.943   0.455   5.788 -0.3592 -0.1827 -0.2367
 5948TIP3    H117808   4.907   0.367   5.780 -0.3157 -0.0619 -3.0980
 5948TIP3    H217809   4.902   0.491   5.866 -0.5794 -2.6207  0.8763
 5949TIP3   OH217810   1.731   4.238   4.275 -0.5123  0.1830  0.6224
 5949TIP3    H117811   1.775   4.207   4.196 -0.7962 -0.4023  0.6856
 5949TIP3    H217812   1.790   4.211   4.346 -0.3392  0.5592  0.6231
 5950TIP3   OH217813   0.893   0.315   4.416  0.0081 -0.2279  0.5488
 5950TIP3    H117814   0.972   0.354   4.378  0.9514 -0.9911  1.6627
 5950TIP3    H217815   0.916   0.297   4.507 -1.1409 -1.3237  0.6544
 5951TIP3   OH217816   6.272   0.234   4.777 -0.3545 -0.0187 -0.5124
 5951TIP3    H117817   6.258   0.142   4.801 -1.5363 -0.2442 -1.9496
 5951TIP3    H217818   6.272   0.281   4.861  0.3121 -1.3228  0.2481
 5952TIP3   OH217819   2.405   5.856   3.756  0.0033 -0.1844  0.2939
 5952TIP3    H117820   2.380   5.834   3.846 -1.0603 -2.7248 -0.5316
 5952TIP3    H217821   2.328   5.900   3.720  1.0681  2.5327  1.0514
 5953TIP3   OH217822   1.565   1.285   5.488 -0.0441  0.1384  0.3842
 5953TIP3    H117823   1.601   1.225   5.553  0.4349  0.2822  0.2514
 5953TIP3    H217824   1.605   1.258   5.405 -3.5950 -2.6751 -0.6799
 5954TIP3   OH217825   1.499   5.741   4.666  0.1333  0.1093 -0.4993
 5954TIP3    H117826   1.573   5.696   4.708  0.0566  0.5192  0.0760
 5954TIP3    H217827   1.536   5.774   4.583  0.6412  0.4494 -0.1434
 5955TIP3   OH217828   1.634   1.208   0.311 -0.1972 -0.3518  0.0495
 5955TIP3    H117829   1.583   1.278   0.352  0.8478  0.7159 -0.4307
 5955TIP3    H217830   1.712   1.200   0.366  0.6833  0.3185 -1.0717
 5956TIP3   OH217831   0.764   3.691   3.412 -0.5978  0.4268  0.2698
 5956TIP3    H117832   0.701   3.719   3.345  0.5651  1.9956 -0.2117
 5956TIP3    H217833   0.806   3.613   3.375  0.0762  1.3135 -0.8687
 5957TIP3   OH217834   7.066   1.061   1.060 -0.0047 -0.2066  1.1469
 5957TIP3    H117835   7.158   1.071   1.037 -0.1876  0.4758  0.6797
 5957TIP3    H217836   7.048   0.968   1.049  0.0274 -0.0009 -1.1486
 5958TIP3   OH217837   1.993   0.075   3.500 -0.4011 -0.3173 -0.0351
 5958TIP3    H117838   2.057   0.072   3.430  1.9533 -2.4563  1.9946
 5958TIP3    H217839   2.022   0.146   3.557 -0.9432 -0.0891 -0.0320
 5959TIP3   OH217840   6.307   0.551   0.737  0.1784  0.1010  0.3555
 5959TIP3    H117841   6.257   0.600   0.672  1.4436 -0.4125 -1.0602
 5959TIP3    H217842   6.272   0.580   0.822 -0.6362  1.7403 -0.5041
 5960TIP3   OH217843   5.997   3.643   2.840 -0.0612  0.8178 -0.5325
 5960TIP3    H117844   6.009   3.592   2.920  0.5576  0.5781 -0.7726
 5960TIP3    H217845   6.028   3.585   2.770  0.2048  1.3413 -0.8548
 5961TIP3   OH217846   4.036   4.460   1.148 -0.3358  0.1933 -0.1614
 5961TIP3    H117847   4.063   4.421   1.065  0.5080  1.7052 -0.6380
 5961TIP3    H217848   3.940   4.458   1.146 -0.3213  0.2015 -1.1541
 5962TIP3   OH217849   4.270   4.499   3.992  0.0762 -0.3744  0.3891
 5962TIP3    H117850   4.290   4.431   3.928  0.8169 -2.4021  2.6118
 5962TIP3    H217851   4.334   4.568   3.974 -1.2332  0.2385 -2.4599
 5963TIP3   OH217852   4.307   0.744   2.161  0.1118 -0.4560  0.2670
 5963TIP3    H117853   4.250   0.671   2.184  0.0177 -0.1382  1.0836
 5963TIP3    H217854   4.251   0.804   2.113 -0.2042 -0.2318  0.9025
 5964TIP3   OH217855   0.989   2.737   2.515  0.2840  0.2876 -0.0825
 5964TIP3    H117856   0.912   2.707   2.564 -0.6097 -0.1196 -1.6588
 5964TIP3    H217857   0.994   2.831   2.533  0.6604 -0.0397  1.6574
 5965TIP3   OH217858   6.211   3.263   2.909  0.1162  0.3927 -0.1592
 5965TIP3    H117859   6.267   3.186   2.903  0.7740  0.8372  0.0931
 5965TIP3    H217860   6.219   3.305   2.823 -1.6394 -0.7403 -0.9200
 5966TIP3   OH217861   3.638   4.321   4.137  0.0366 -0.1860 -0.5868
 5966TIP3    H117862   3.647   4.414   4.118 -0.9867  0.3043  1.1259
 5966TIP3    H217863   3.554   4.296   4.098 -1.8802  0.7327  2.5922
 5967TIP3   OH217864   4.451   1.163   1.288  0.3393 -0.1989 -0.0640
 5967TIP3    H117865   4.374   1.110   1.266 -0.7734  0.4881  1.9673
 5967TIP3    H217866   4.472   1.137   1.378  0.4080  2.0270  0.6059
 5968TIP3   OH217867   2.716   3.308   3.099 -0.1484  0.1106  0.1534
 5968TIP3    H117868   2.665   3.353   3.166  1.9562 -0.7850  2.5487
 5968TIP3    H217869   2.706   3.361   3.020 -1.5728  2.0696  1.5670
 5969TIP3   OH217870   4.701   4.512   0.165 -0.0941  0.2718 -0.1137
 5969TIP3    H117871   4.732   4.432   0.207 -1.2808  0.1123  0.5164
 5969TIP3    H217872   4.695   4.576   0.236 -0.5778  0.4722 -0.3268
 5970TIP3   OH217873   0.872   4.609   3.890 -0.0549 -0.5061 -0.2827
 5970TIP3    H117874   0.943   4.554   3.856  0.2319 -0.9008  0.9294
 5970TIP3    H217875   0.831   4.557   3.959 -0.4869  0.3556  0.1297
 5971TIP3   OH217876   5.777   2.573   5.721 -0.4341  0.4356  0.2869
 5971TIP3    H117877   5.736   2.577   5.634  2.0322 -2.3012 -1.1579
 5971TIP3    H217878   5.710   2.536   5.777 -1.0685 -0.8483 -1.2349
 5972TIP3   OH217879   3.172   5.078   5.314 -0.2110 -0.0510  0.0022
 5972TIP3    H117880   3.145   4.992   5.347  2.3568 -0.5363  1.0853
 5972TIP3    H217881   3.170   5.134   5.391 -0.2947  0.4475 -0.3621
 5973TIP3   OH217882   4.889   4.794   5.798  0.0419  0.1123  0.1778
 5973TIP3    H117883   4.856   4.729   5.737 -1.0280  0.3054  0.5338
 5973TIP3    H217884   4.984   4.792   5.786 -0.1752  0.7599 -2.1251
 5974TIP3   OH217885   5.338   2.258   5.782  0.4087 -0.0579 -0.4795
 5974TIP3    H117886   5.331   2.329   5.846  0.7271 -0.3778 -0.0802
 5974TIP3    H217887   5.400   2.196   5.822  1.8576  0.4833 -1.8119
 5975TIP3   OH217888   6.697   3.168   3.724  0.7589 -0.1980 -0.4678
 5975TIP3    H117889   6.785   3.133   3.708  1.2880  1.2496 -0.8844
 5975TIP3    H217890   6.712   3.254   3.762 -0.4882  0.0509 -0.5087
 5976TIP3   OH217891   3.784   1.025   5.527  0.7796  0.5599  0.1986
 5976TIP3    H117892   3.857   0.967   5.544  0.8739  0.0418 -1.7647
 5976TIP3    H217893   3.801   1.102   5.583  2.0593 -0.1367  0.8079
 5977TIP3   OH217894   5.511   1.142   5.696 -0.4003 -0.0465 -0.1064
 5977TIP3    H117895   5.568   1.197   5.749 -1.6267 -1.5114  2.9732
 5977TIP3    H217896   5.570   1.078   5.656  0.4321  0.0175  0.9609
 5978TIP3   OH217897   3.130   4.310   0.583 -0.6503  0.2008  0.9533
 5978TIP3    H117898   3.086   4.299   0.668 -2.6851  0.5729  0.0068
 5978TIP3    H217899   3.060   4.339   0.524  1.2734  2.7587 -0.2219
 5979TIP3   OH217900   2.692   4.653   0.527 -0.2796 -0.2742 -0.2338
 5979TIP3    H117901   2.710   4.686   0.438  0.5577 -0.6060 -0.1876
 5979TIP3    H217902   2.724   4.722   0.585  1.5075 -1.1528 -0.1353
 5980TIP3   OH217903   7.000   5.249   0.490  0.1170 -0.1664 -0.3393
 5980TIP3    H117904   7.017   5.335   0.450 -1.0389  0.9370  1.4084
 5980TIP3    H217905   7.076   5.196   0.465  0.6474  1.2073 -1.8373
 5981TIP3   OH217906   0.437   0.753   1.530  0.6398  0.2770 -0.0398
 5981TIP3    H117907   0.342   0.762   1.525  0.4596  0.0384  2.0024
 5981TIP3    H217908   0.461   0.799   1.611  2.3425  0.8196 -0.8097
 5982TIP3   OH217909   2.248   0.123   2.549  0.5593  0.1282  0.3301
 5982TIP3    H117910   2.259   0.089   2.460 -0.2321 -1.4087  0.7769
 5982TIP3    H217911   2.160   0.095   2.575  0.3670  1.4586  1.2293
 5983TIP3   OH217912   0.750   4.831   4.035  0.0768 -0.1707  0.1713
 5983TIP3    H117913   0.784   4.742   4.027  0.2096  0.0031 -1.8682
 5983TIP3    H217914   0.765   4.869   3.948  0.8511  2.1422  1.2502
 5984TIP3   OH217915   4.276   1.862   1.592 -0.0792 -0.2591 -0.2910
 5984TIP3    H117916   4.351   1.863   1.650 -1.2908  1.1579  1.3636
 5984TIP3    H217917   4.263   1.954   1.568 -1.4071 -0.4419 -0.3538
 5985TIP3   OH217918   6.142   1.957   4.277  0.4627  0.0251  0.0750
 5985TIP3    H117919   6.059   1.997   4.248 -0.4239 -0.9851  1.1122
 5985TIP3    H217920   6.148   1.876   4.226  1.2656  0.4983 -0.6096
 5986TIP3   OH217921   6.169   5.252   3.083 -0.2200  0.4453 -0.1817
 5986TIP3    H117922   6.199   5.248   2.992  0.4665 -0.9748  0.0969
 5986TIP3    H217923   6.074   5.263   3.076 -0.2682 -0.4414 -1.0754
 5987TIP3   OH217924   3.618   4.871   0.296  0.2851 -0.1294  0.6379
 5987TIP3    H117925   3.597   4.781   0.321 -0.7155  0.3113  1.4376
 5987TIP3    H217926   3.533   4.912   0.281  0.7709  0.1328 -1.8146
 5988TIP3   OH217927   3.346   5.242   5.560  0.4901 -0.1216 -0.1233
 5988TIP3    H117928   3.254   5.250   5.538  0.6459 -1.9131 -1.6896
 5988TIP3    H217929   3.366   5.321   5.611 -1.7904  0.4679 -0.0589
 5989TIP3   OH217930   1.568   1.656   1.603 -0.5937  0.7718  0.1053
 5989TIP3    H117931   1.498   1.596   1.577 -0.3986  0.3273  0.5773
 5989TIP3    H217932   1.623   1.604   1.663  0.6067  0.8387 -0.8936
 5990TIP3   OH217933   5.340   4.736   1.611 -0.2221  0.2321 -0.3684
 5990TIP3    H117934   5.382   4.816   1.581 -2.1183  1.5905  0.3955
 5990TIP3    H217935   5.408   4.668   1.603  2.5887  2.4980  2.0971
 5991TIP3   OH217936   6.337   2.056   4.037 -0.0111  0.7041  0.0905
 5991TIP3    H117937   6.330   1.983   4.099  2.4038  0.3563  0.0882
 5991TIP3    H217938   6.358   2.015   3.953  0.1593  1.3197 -0.1790
 5992TIP3   OH217939   2.306   0.138   1.152  0.4972 -0.3034 -0.0120
 5992TIP3    H117940   2.350   0.209   1.105  0.7289 -0.0491  0.5771
 5992TIP3    H217941   2.315   0.062   1.095  1.1129 -0.0884 -0.2037
 5993TIP3   OH217942   3.686   0.515   4.086  0.0823 -0.5064 -0.1825
 5993TIP3    H117943   3.767   0.565   4.075 -0.3366  0.3813  0.5933
 5993TIP3    H217944   3.668   0.480   3.998  0.8103  0.0412 -0.5700
 5994TIP3   OH217945   5.134   4.032   5.687  0.4018 -0.1953 -0.1980
 5994TIP3    H117946   5.072   3.959   5.693 -1.5067  1.3680  0.3282
 5994TIP3    H217947   5.179   4.019   5.604 -1.2123 -0.9806 -0.9899
 5995TIP3   OH217948   7.150   3.096   3.888  0.0904  0.1516  0.6217
 5995TIP3    H117949   7.245   3.103   3.876  0.0800 -1.4473 -0.7232
 5995TIP3    H217950   7.125   3.178   3.930  2.0388  0.6947  0.8002
 5996TIP3   OH217951   0.066   3.907   4.139 -0.4734  0.0378 -0.0019
 5996TIP3    H117952   0.114   3.842   4.088  1.2514  0.7506  0.6384
 5996TIP3    H217953   0.003   3.855   4.190 -0.4745 -0.9206 -0.9550
 5997TIP3   OH217954   5.951   4.094   3.739 -0.2226  0.0467  0.3068
 5997TIP3    H117955   5.977   4.182   3.768 -0.7902 -0.0079  0.9985
 5997TIP3    H217956   5.874   4.109   3.684  0.9404  0.1667 -1.3790
 5998TIP3   OH217957   4.829   1.646   0.478  0.2430  0.1640 -0.1190
 5998TIP3    H117958   4.896   1.700   0.521  1.2988 -0.7704 -0.5501
 5998TIP3    H217959   4.754   1.651   0.536  1.0134  0.4553  0.8857
 5999TIP3   OH217960   2.625   2.723   4.809 -0.3238  0.5263  0.5158
 5999TIP3    H117961   2.693   2.720   4.876  0.2801 -1.2512 -0.1034
 5999TIP3    H217962   2.671   2.702   4.728 -1.3674  0.6836 -0.1351
 6000TIP3   OH217963   3.310   4.850   3.089 -0.2974  0.3046  0.6539
 6000TIP3    H117964   3.315   4.940   3.121 -2.5538 -0.1047  2.4016
 6000TIP3    H217965   3.230   4.815   3.128 -0.4897 -1.9032 -1.4729
 6001TIP3   OH217966   4.356   3.920   0.527 -0.0879 -1.0186  1.1596
 6001TIP3    H117967   4.333   3.828   0.510  0.3318 -0.9443  0.0729
 6001TIP3    H217968   4.411   3.945   0.452 -0.6796  0.2926  1.1340
 6002TIP3   OH217969   1.766   5.599   5.658 -0.2158  0.2992  0.9906
 6002TIP3    H117970   1.690   5.540   5.660 -1.5733  1.9826  0.9374
 6002TIP3    H217971   1.811   5.576   5.576 -1.3644  0.0971  0.3935
 6003TIP3   OH217972   0.773   2.208   1.557 -0.0555 -0.7545 -0.0752
 6003TIP3    H117973   0.735   2.293   1.577  1.2295 -0.2349  0.2038
 6003TIP3    H217974   0.749   2.191   1.466 -1.2173 -0.6000  0.1837
 6004TIP3   OH217975   2.644   5.771   1.381 -0.1567 -0.0792  0.0246
 6004TIP3    H117976   2.729   5.793   1.343 -1.0334  1.5129 -1.1569
 6004TIP3    H217977   2.641   5.822   1.462  0.1224 -0.3636  0.2162
 6005TIP3   OH217978   0.903   3.893   2.528 -0.0868  0.2925  0.0036
 6005TIP3    H117979   0.932   3.953   2.459 -0.0969  0.0923 -0.1759
 6005TIP3    H217980   0.978   3.885   2.586  0.5146 -0.8628 -0.8990
 6006TIP3   OH217981   4.824   6.691   5.739 -0.7327 -0.2719  0.3315
 6006TIP3    H117982   4.747   6.731   5.778 -0.9595 -1.3520  1.0367
 6006TIP3    H217983   4.867   6.646   5.812 -0.4326 -1.1985 -0.4010
 6007TIP3   OH217984   6.483   2.594   1.958  0.1014 -0.1659 -0.1313
 6007TIP3    H117985   6.437   2.635   2.031 -0.0950  0.9599 -0.8609
 6007TIP3    H217986   6.422   2.528   1.925 -0.2828  0.1303 -0.0162
 6008TIP3   OH217987   6.658   1.184   0.955  0.2464  0.2772  0.0113
 6008TIP3    H117988   6.644   1.213   0.865  0.4561  0.4565  0.0371
 6008TIP3    H217989   6.720   1.112   0.947 -0.6229 -0.4797 -0.0971
 6009TIP3   OH217990   2.252   2.752   1.303 -0.1318 -0.0037  0.1433
 6009TIP3    H117991   2.218   2.686   1.364  1.0924  1.4815  2.5710
 6009TIP3    H217992   2.189   2.824   1.309  0.8754  0.8413  1.0426
 6010TIP3   OH217993   1.001   6.119   2.416 -0.8516 -0.0514  0.0685
 6010TIP3    H117994   1.067   6.188   2.418  0.3836 -1.2009 -0.2127
 6010TIP3    H217995   1.027   6.059   2.486 -0.7844 -1.2313 -0.9367
 6011TIP3   OH217996   0.668   1.202   3.435  0.1438  0.5967 -0.4529
 6011TIP3    H117997   0.658   1.149   3.514 -2.2945  1.1492 -0.3198
 6011TIP3    H217998   0.656   1.140   3.363 -3.5501  0.9386 -0.2992
 6012TIP3   OH217999   1.387   2.084   1.182 -0.3283 -0.9158 -0.1925
 6012TIP3    H118000   1.323   2.148   1.151  1.1352 -0.2415 -1.9947
 6012TIP3    H218001   1.414   2.037   1.103  0.7596 -1.8006  0.6668
 6013TIP3   OH218002   5.831   1.101   3.007 -0.1272  0.3009 -0.5541
 6013TIP3    H118003   5.867   1.040   2.942 -0.8076 -0.2444 -0.4329
 6013TIP3    H218004   5.862   1.187   2.980 -0.1473  0.0377 -1.4195
 6014TIP3   OH218005   5.027   1.783   5.578  1.2880  0.2490 -0.0182
 6014TIP3    H118006   5.071   1.868   5.583 -1.8877  1.9888  0.6607
 6014TIP3    H218007   4.973   1.789   5.499  1.7337 -1.5953 -0.5211
 6015TIP3   OH218008   6.997   0.960   1.858 -0.1793 -0.1015 -0.0727
 6015TIP3    H118009   7.059   1.026   1.889  0.1674 -0.1670 -0.6067
 6015TIP3    H218010   7.021   0.946   1.767 -0.0550 -1.1851  0.1138
 6016TIP3   OH218011   4.863   6.339   1.412 -0.2145 -0.0434 -0.1232
 6016TIP3    H118012   4.811   6.409   1.451 -0.1756  0.2055 -0.5085
 6016TIP3    H218013   4.934   6.384   1.367 -0.5396 -0.2908 -0.8970
 6017TIP3   OH218014   3.062   3.009   1.642  0.6698  0.7635 -0.2209
 6017TIP3    H118015   3.071   3.094   1.598  2.9882 -0.6313 -2.7341
 6017TIP3    H218016   2.988   2.967   1.597 -0.2454  1.2325  0.7826
 6018TIP3   OH218017   3.864   5.042   2.960 -0.5311 -0.1110  0.6499
 6018TIP3    H118018   3.817   4.966   2.994  0.5150 -0.7942  0.6287
 6018TIP3    H218019   3.916   5.007   2.887 -2.6867  1.2992 -1.7096
 6019TIP3   OH218020   0.950   6.571   0.227  0.0895 -0.0043  0.0640
 6019TIP3    H118021   0.996   6.522   0.159  0.3734 -0.5799  0.6645
 6019TIP3    H218022   0.862   6.532   0.229 -1.0163  2.0649 -2.1235
 6020TIP3   OH218023   1.621   3.484   5.363  0.2028  0.3110 -0.3595
 6020TIP3    H118024   1.679   3.425   5.315  0.3588  0.7773 -0.7567
 6020TIP3    H218025   1.623   3.566   5.312 -0.1670  0.5905  0.0685
 6021TIP3   OH218026   7.027  -0.007   2.309  0.3375 -0.2436  0.0828
 6021TIP3    H118027   6.999   0.076   2.271 -0.8188 -0.6465  0.0069
 6021TIP3    H218028   6.949  -0.042   2.352 -0.0179 -2.5836 -2.2002
 6022TIP3   OH218029   1.139   6.023   5.709 -0.3100  0.5208  0.2065
 6022TIP3    H118030   1.111   5.958   5.645  1.7460  0.2248 -0.4534
 6022TIP3    H218031   1.231   6.039   5.689  0.0538  1.3768  2.2797
 6023TIP3   OH218032   2.836   6.010   2.588 -0.5409 -0.1514 -0.0862
 6023TIP3    H118033   2.795   6.072   2.529  0.7555  1.8418  1.0099
 6023TIP3    H218034   2.769   5.992   2.654 -0.8483  0.2409 -0.2885
 6024TIP3   OH218035   0.388   4.228   0.542 -0.2101  0.1135 -0.0791
 6024TIP3    H118036   0.368   4.297   0.479 -0.8356 -1.1455 -1.3260
 6024TIP3    H218037   0.319   4.163   0.529  0.3251 -0.7326  1.0965
 6025TIP3   OH218038   5.870   6.020   3.396  0.4401 -0.0450  0.0487
 6025TIP3    H118039   5.959   6.043   3.371  0.1526 -0.1116 -1.1278
 6025TIP3    H218040   5.814   6.078   3.344 -0.2011 -0.2427  0.4984
 6026TIP3   OH218041   0.500   5.627   3.185 -0.2568 -0.3425  0.7570
 6026TIP3    H118042   0.571   5.565   3.169 -0.1827  0.0462 -0.5326
 6026TIP3    H218043   0.451   5.630   3.104  0.2221  1.8695  0.4650
 6027TIP3   OH218044   3.902   2.058   5.697 -0.4637 -0.1364  0.2881
 6027TIP3    H118045   3.982   2.076   5.746  0.1670  0.1538 -0.8161
 6027TIP3    H218046   3.837   2.037   5.765 -0.0536  1.8089  1.3799
 6028TIP3   OH218047   7.157   6.582   2.850 -0.1370 -0.3849  0.7717
 6028TIP3    H118048   7.136   6.501   2.803  1.8898 -1.0484  0.9357
 6028TIP3    H218049   7.213   6.555   2.922  0.3177  1.1422  1.0306
 6029TIP3   OH218050   1.319   0.044   0.890  0.0764  0.5979 -0.0194
 6029TIP3    H118051   1.255   0.090   0.836  0.9145  1.7546 -0.0723
 6029TIP3    H218052   1.269   0.014   0.965 -0.7911  0.3192 -0.6840
 6030TIP3   OH218053   3.790   4.749   2.903 -0.5470 -0.2066  0.5891
 6030TIP3    H118054   3.765   4.662   2.870 -0.2997  0.0867 -0.3836
 6030TIP3    H218055   3.842   4.787   2.833  0.6293  0.1437  1.6171
 6031TIP3   OH218056   2.843   1.645   5.175 -0.5557 -0.1551  0.0423
 6031TIP3    H118057   2.857   1.728   5.219 -1.1344 -0.7466  1.4116
 6031TIP3    H218058   2.848   1.666   5.081 -1.0323  1.4591  0.3510
 6032TIP3   OH218059   3.743   0.518   4.755  0.2292  0.1646  0.5846
 6032TIP3    H118060   3.727   0.575   4.830 -0.7540  4.0715 -2.2609
 6032TIP3    H218061   3.656   0.502   4.718  0.7865 -0.3695 -0.5521
 6033TIP3   OH218062   6.050   3.486   2.626  0.1022  0.2248 -0.0391
 6033TIP3    H118063   6.095   3.500   2.543  0.1823 -2.0960 -0.4544
 6033TIP3    H218064   5.984   3.420   2.606 -0.3481  0.1474  1.5903
 6034TIP3   OH218065   4.085   3.517   4.783 -0.0963  0.3307  0.4768
 6034TIP3    H118066   3.994   3.489   4.776  0.3472 -1.3228  0.9516
 6034TIP3    H218067   4.086   3.576   4.859 -0.8422  0.7715  0.1607
 6035TIP3   OH218068   3.687   5.377   5.675  0.4666  0.3573 -0.0798
 6035TIP3    H118069   3.687   5.355   5.582  2.1733  0.2146 -0.0764
 6035TIP3    H218070   3.605   5.424   5.689 -1.2000 -2.0752 -1.0229
 6036TIP3   OH218071   4.348   5.257   4.924 -0.5159  0.0731 -0.1487
 6036TIP3    H118072   4.421   5.207   4.887 -0.6527 -0.2726  0.0496
 6036TIP3    H218073   4.323   5.317   4.854  0.0663  0.3096 -0.1619
 6037TIP3   OH218074   1.021   5.309   3.264 -0.3691  0.1293 -0.2570
 6037TIP3    H118075   1.081   5.372   3.304  0.5148 -1.2756  0.6802
 6037TIP3    H218076   0.941   5.316   3.317  0.7172 -1.5734  1.7490
 6038TIP3   OH218077   3.059   5.052   0.607  0.0117  0.0093 -0.3368
 6038TIP3    H118078   3.154   5.042   0.608 -0.0519 -0.7043 -0.6503
 6038TIP3    H218079   3.035   5.073   0.697  0.4503  0.0309 -0.2268
 6039TIP3   OH218080   7.082   4.823   3.495  0.3341  0.4838 -0.3306
 6039TIP3    H118081   6.991   4.807   3.473  0.5393  0.5602 -1.2697
 6039TIP3    H218082   7.081   4.844   3.589 -0.3111 -1.8521  0.2306
 6040TIP3   OH218083   4.289   5.248   1.027 -0.0638 -0.2678 -0.0899
 6040TIP3    H118084   4.288   5.235   0.932  1.1615  0.4034 -0.2222
 6040TIP3    H218085   4.323   5.165   1.062  1.6567  0.2529 -0.4378
 6041TIP3   OH218086   0.126   6.393   2.126  0.3810  0.0904 -0.5636
 6041TIP3    H118087   0.179   6.315   2.142 -1.1280 -0.8469  0.0778
 6041TIP3    H218088   0.086   6.413   2.210 -0.2784  0.7761 -1.0306
 6042TIP3   OH218089   3.204   4.232   4.946 -0.3973 -0.3664  0.4813
 6042TIP3    H118090   3.246   4.194   5.023  1.4212  0.6928  0.0770
 6042TIP3    H218091   3.138   4.291   4.982  1.8841  1.8154  1.4320
 6043TIP3   OH218092   6.629   3.878   2.946 -0.4099  0.5734 -0.8208
 6043TIP3    H118093   6.581   3.960   2.948  0.6484  1.1934  0.9689
 6043TIP3    H218094   6.594   3.827   3.018 -0.5688 -0.2753 -1.4823
 6044TIP3   OH218095   1.320   4.531   1.647  0.3017 -0.0541 -0.8508
 6044TIP3    H118096   1.240   4.478   1.648  0.9761 -1.1265 -1.8642
 6044TIP3    H218097   1.342   4.541   1.740 -2.5781  2.8142 -0.2707
 6045TIP3   OH218098   6.291   5.764   5.352  0.4553 -0.0734  0.0729
 6045TIP3    H118099   6.301   5.781   5.446  1.8376 -2.1019  0.3801
 6045TIP3    H218100   6.288   5.668   5.346  1.1841 -0.0120 -2.0060
 6046TIP3   OH218101   5.464   5.715   4.711  0.0351 -0.1325 -0.0042
 6046TIP3    H118102   5.480   5.671   4.628  0.2174 -0.9212  0.4358
 6046TIP3    H218103   5.381   5.680   4.742 -1.0911  1.6805 -0.8065
 6047TIP3   OH218104   3.587   0.874   5.380 -0.5418 -0.0456  0.6739
 6047TIP3    H118105   3.647   0.849   5.310  0.1332  0.3606  1.0889
 6047TIP3    H218106   3.635   0.941   5.430 -2.2961  2.1700 -0.4485
 6048TIP3   OH218107   5.022   0.709   0.138  0.5479  0.9254  0.5031
 6048TIP3    H118108   5.056   0.687   0.225  1.0221  1.3666  0.4299
 6048TIP3    H218109   5.100   0.729   0.086  0.2058  1.5288  0.2187
 6049TIP3   OH218110   3.285   1.251   3.880 -0.6041  0.2330  0.4029
 6049TIP3    H118111   3.296   1.242   3.975 -0.3539 -1.3730  0.2552
 6049TIP3    H218112   3.200   1.212   3.862 -1.7273  2.6188  0.2041
 6050TIP3   OH218113   2.460   3.602   2.119 -0.3397  0.8240  0.0080
 6050TIP3    H118114   2.417   3.687   2.105  0.7943  1.2058 -1.4417
 6050TIP3    H218115   2.532   3.602   2.057 -0.2324 -1.1712  0.0805
 6051TIP3   OH218116   1.905   4.546   3.924  0.7563 -0.2758 -0.0489
 6051TIP3    H118117   1.972   4.611   3.903  1.2010  0.6177  3.4125
 6051TIP3    H218118   1.954   4.464   3.930  1.4469  0.2006  1.4832
 6052TIP3   OH218119   3.823   5.329   1.234  0.6629  0.0823 -0.5689
 6052TIP3    H118120   3.875   5.293   1.161  1.3198 -1.7636  0.7326
 6052TIP3    H218121   3.843   5.271   1.308 -1.6658  0.5856  0.5252
 6053TIP3   OH218122   7.018   3.568   1.527  0.0295 -0.3996  0.1951
 6053TIP3    H118123   6.978   3.487   1.559 -1.2172  0.6544  1.3752
 6053TIP3    H218124   6.975   3.585   1.444 -0.2885 -0.5049  0.3389
 6054TIP3   OH218125   5.218   2.503   4.470  0.0554 -0.0691  0.2229
 6054TIP3    H118126   5.190   2.579   4.521  0.2282 -0.3011  0.6686
 6054TIP3    H218127   5.155   2.434   4.494 -2.0242  0.7138 -2.4483
 6055TIP3   OH218128   3.429   1.931   3.897  0.0124 -0.4271  0.3985
 6055TIP3    H118129   3.447   1.868   3.826 -0.5198  0.8442 -0.9075
 6055TIP3    H218130   3.500   1.916   3.960  0.6622 -1.4053 -0.5230
 6056TIP3   OH218131   4.736   1.017   5.372 -0.3757 -0.0994  0.1812
 6056TIP3    H118132   4.778   1.093   5.412 -2.3292  1.4754 -0.5774
 6056TIP3    H218133   4.695   0.971   5.445  0.1731 -0.0027  0.5570
 6057TIP3   OH218134   4.491   1.399   5.345 -0.4717  0.1999 -0.4410
 6057TIP3    H118135   4.500   1.482   5.392 -1.3148 -0.1896  0.4562
 6057TIP3    H218136   4.397   1.392   5.328 -0.3659 -0.4174 -0.7972
 6058TIP3   OH218137   1.958   6.136   1.234  0.1652 -0.7365  0.3038
 6058TIP3    H118138   1.960   6.041   1.240  4.7310 -0.8298  0.1934
 6058TIP3    H218139   1.964   6.166   1.325 -2.3147 -0.3862  0.4340
 6059TIP3   OH218140   1.735   1.951   3.499  0.3299  0.5239 -0.8211
 6059TIP3    H118141   1.674   1.901   3.553  0.9413  1.8816  1.1999
 6059TIP3    H218142   1.686   1.968   3.418 -1.2668 -0.0301 -0.0196
 6060TIP3   OH218143   4.882   1.292   2.927  0.0855  0.0314 -0.0295
 6060TIP3    H118144   4.923   1.283   2.841 -0.9597 -0.5694 -0.4835
 6060TIP3    H218145   4.832   1.374   2.922 -1.4936 -0.9181 -0.6838
 6061TIP3   OH218146   1.202   4.378   2.926 -0.0103 -0.1653  0.0108
 6061TIP3    H118147   1.195   4.329   2.844 -0.0497  1.0180 -0.7160
 6061TIP3    H218148   1.250   4.320   2.985  2.8262  0.0970 -1.8368
 6062TIP3   OH218149   6.867   3.794   0.422 -0.2918 -0.0941 -0.0894
 6062TIP3    H118150   6.831   3.753   0.343  1.1561 -3.1778  0.6844
 6062TIP3    H218151   6.925   3.862   0.389  2.1579 -2.8503 -1.9746
 6063TIP3   OH218152   5.366   5.410   4.910  0.2115 -0.0513 -0.0900
 6063TIP3    H118153   5.355   5.402   5.005  0.8710  0.5754  0.0505
 6063TIP3    H218154   5.310   5.482   4.884 -0.0148 -0.2614 -0.1916
 6064TIP3   OH218155   0.375   2.290   5.336 -0.3211 -0.3109  0.2940
 6064TIP3    H118156   0.439   2.251   5.395  0.7943 -0.0104 -0.6857
 6064TIP3    H218157   0.382   2.238   5.255  1.2353  1.8379 -1.0661
 6065TIP3   OH218158   5.765   5.788   4.973  0.0023 -0.3799 -0.4779
 6065TIP3    H118159   5.804   5.846   5.039 -1.0122 -0.5921  0.3345
 6065TIP3    H218160   5.812   5.706   4.984  1.6277  0.3112 -1.8086
 6066TIP3   OH218161   2.117   4.402   3.229  0.1876  0.1003  0.3446
 6066TIP3    H118162   2.144   4.411   3.321 -1.2966 -2.2265  1.0996
 6066TIP3    H218163   2.160   4.322   3.199  0.1206  0.4785 -0.8190
 6067TIP3   OH218164   0.907   2.425   1.843 -0.0482 -0.9015  0.0109
 6067TIP3    H118165   0.924   2.502   1.788 -0.0313 -1.6296 -1.0333
 6067TIP3    H218166   0.861   2.460   1.919  1.2151  0.3536  0.2597
 6068TIP3   OH218167   0.725   2.410   0.854  0.2556  0.2247 -0.4628
 6068TIP3    H118168   0.664   2.452   0.915  0.2447  0.2978 -0.5239
 6068TIP3    H218169   0.810   2.449   0.875 -0.1900  2.5790 -2.5279
 6069TIP3   OH218170   1.864   1.130   3.905  0.5450 -0.2941 -0.2556
 6069TIP3    H118171   1.809   1.160   3.977 -0.2366 -0.2206 -0.8714
 6069TIP3    H218172   1.953   1.138   3.939  0.1451 -1.8033  1.2787
 6070TIP3   OH218173   6.607   0.016   0.895  0.0677 -0.4861  0.8564
 6070TIP3    H118174   6.632  -0.070   0.929  2.2759 -1.1850 -2.1264
 6070TIP3    H218175   6.690   0.063   0.885 -0.0768 -0.6852 -3.9556
 6071TIP3   OH218176   0.314   3.332   0.263 -0.4150 -0.7994  0.9062
 6071TIP3    H118177   0.409   3.331   0.270 -0.4121 -0.1753  1.0235
 6071TIP3    H218178   0.295   3.284   0.182  0.2147  2.1656 -1.1550
 6072TIP3   OH218179   6.583   2.117   0.884  0.0295  0.2959  0.1524
 6072TIP3    H118180   6.592   2.024   0.864  0.7993  0.5171 -0.6061
 6072TIP3    H218181   6.630   2.128   0.966  1.1730  0.2473 -0.4664
 6073TIP3   OH218182   4.613   4.882   3.347  0.4294  0.1080  0.5063
 6073TIP3    H118183   4.572   4.924   3.271  0.5020  0.0503  0.4348
 6073TIP3    H218184   4.657   4.954   3.393  1.3469 -0.0268 -0.1287
 6074TIP3   OH218185   3.960   0.360   2.978 -0.0079 -0.6027  0.4441
 6074TIP3    H118186   4.052   0.373   2.955 -0.6853  2.3193 -1.0731
 6074TIP3    H218187   3.940   0.433   3.036 -1.9370  0.3183 -1.2572
 6075TIP3   OH218188   0.272   1.049   2.367  0.3338 -0.3464  0.4737
 6075TIP3    H118189   0.187   1.022   2.401 -0.5230  0.5780 -0.8185
 6075TIP3    H218190   0.315   1.092   2.441 -1.5764  1.8457  0.4260
 6076TIP3   OH218191   4.080   5.019   3.553 -0.0106  0.1772  0.1358
 6076TIP3    H118192   4.126   4.978   3.626 -0.1890  0.1148  0.2121
 6076TIP3    H218193   4.008   5.066   3.593  0.8749  1.5683  0.1770
 6077TIP3   OH218194   1.876   5.883   5.855  0.4489  0.5020 -0.5314
 6077TIP3    H118195   1.897   5.916   5.943  1.3511  1.4736 -1.0892
 6077TIP3    H218196   1.957   5.843   5.825  0.3446  0.7692 -1.1768
 6078TIP3   OH218197   7.101   2.157   3.727 -0.3008  0.3508 -0.5672
 6078TIP3    H118198   7.086   2.063   3.714  2.8212 -0.5084  1.0359
 6078TIP3    H218199   7.174   2.161   3.788  0.7535  3.8364 -1.8368
 6079TIP3   OH218200   5.956   3.034   1.881  0.1255  0.2073  0.0147
 6079TIP3    H118201   5.959   2.972   1.953 -1.2272  0.4654  0.3328
 6079TIP3    H218202   5.937   2.980   1.804 -0.4840  0.1410  0.2009
 6080TIP3   OH218203   4.711   1.869   4.168 -0.0665 -0.3571  0.0256
 6080TIP3    H118204   4.635   1.835   4.121  0.7851 -1.5996 -0.5201
 6080TIP3    H218205   4.784   1.857   4.107  0.7174 -0.0458  0.8794
 6081TIP3   OH218206   4.307   2.780   2.709 -0.1689  0.2429  0.3257
 6081TIP3    H118207   4.261   2.730   2.641 -0.5865  0.1023  0.7036
 6081TIP3    H218208   4.270   2.747   2.792 -0.2774  1.0066  0.5867
 6082TIP3   OH218209   7.031   1.532   5.543 -0.0658 -0.6536  0.2985
 6082TIP3    H118210   7.100   1.468   5.525 -0.1570 -0.6701  0.0028
 6082TIP3    H218211   7.009   1.569   5.457  0.0580 -0.1490  0.4835
 6083TIP3   OH218212   5.556   4.551   1.560 -0.3176  0.2726 -0.3229
 6083TIP3    H118213   5.642   4.511   1.560 -0.3189  0.2705 -0.1170
 6083TIP3    H218214   5.522   4.536   1.471 -0.0643  0.3666 -0.4348
 6084TIP3   OH218215   5.050   2.972   5.071  0.1049 -0.0998  0.3980
 6084TIP3    H118216   5.012   2.987   5.158 -1.0067  1.2554 -0.2647
 6084TIP3    H218217   5.095   2.888   5.078 -0.0923 -0.0933  2.2306
 6085TIP3   OH218218   0.337   6.415   0.627 -0.3183  0.0169  0.1815
 6085TIP3    H118219   0.294   6.447   0.707 -0.8096 -0.2728  0.0358
 6085TIP3    H218220   0.418   6.375   0.658 -0.9838 -1.0019  0.6484
 6086TIP3   OH218221   1.897   4.556   4.353  0.2629  0.1732 -0.0561
 6086TIP3    H118222   1.828   4.491   4.343 -0.2412  0.8064 -0.8067
 6086TIP3    H218223   1.851   4.638   4.374  0.6129  0.9588 -2.1111
 6087TIP3   OH218224   5.449   1.230   0.858  0.1249  0.8611 -0.4384
 6087TIP3    H118225   5.542   1.254   0.866  0.5059 -0.7791  0.3951
 6087TIP3    H218226   5.426   1.255   0.769  1.6301  0.4478 -0.9775
 6088TIP3   OH218227   4.894   3.179   5.858 -0.1666  0.6025  0.4198
 6088TIP3    H118228   4.929   3.100   5.815 -1.4791 -0.0966  0.5924
 6088TIP3    H218229   4.845   3.223   5.789 -2.0513 -0.3811  1.0542
 6089TIP3   OH218230   5.728   3.944   2.652  0.0102 -0.0294 -0.7635
 6089TIP3    H118231   5.659   3.879   2.638 -0.3706  0.5058 -1.3891
 6089TIP3    H218232   5.692   4.026   2.619 -0.4955  1.1031  2.2594
 6090TIP3   OH218233   0.899   4.012   5.134 -0.4114  0.4158  0.0381
 6090TIP3    H118234   0.932   4.094   5.099  0.2979  0.0324 -0.2083
 6090TIP3    H218235   0.874   3.961   5.057 -1.8066  0.7844  0.2292
 6091TIP3   OH218236   2.867   0.393   3.027 -0.4524 -0.0412 -0.1966
 6091TIP3    H118237   2.881   0.321   2.966 -0.3044 -1.0424  0.9756
 6091TIP3    H218238   2.810   0.357   3.095 -3.1250  1.8915 -1.1955
 6092TIP3   OH218239   2.690   5.567   5.465  0.2428 -0.6140  0.4307
 6092TIP3    H118240   2.653   5.564   5.377 -2.2569 -1.4109  1.3904
 6092TIP3    H218241   2.771   5.617   5.456 -0.2534 -0.1272 -2.1871
 6093TIP3   OH218242   1.645   0.341   5.812  0.0298 -0.3630  0.4505
 6093TIP3    H118243   1.615   0.419   5.858  0.9270  0.2074  0.1095
 6093TIP3    H218244   1.601   0.344   5.727  0.9803  0.4625 -0.0438
 6094TIP3   OH218245   0.526   1.715   3.001  0.1548  0.1755  0.1724
 6094TIP3    H118246   0.530   1.639   3.059  0.6097  0.9766  1.2352
 6094TIP3    H218247   0.615   1.725   2.969 -0.3028 -0.9098 -1.5935
 6095TIP3   OH218248   4.767   0.271   4.895  0.6326 -0.1039  0.1324
 6095TIP3    H118249   4.852   0.282   4.937  0.0511 -0.0617  1.3317
 6095TIP3    H218250   4.788   0.254   4.803  1.8560  1.9141 -0.0095
 6096TIP3   OH218251   1.708   2.829   0.936 -0.2537 -0.9160 -0.3164
 6096TIP3    H118252   1.622   2.833   0.977  0.5105  0.4534  1.2694
 6096TIP3    H218253   1.731   2.921   0.921  0.8308 -1.2728 -0.9399
 6097TIP3   OH218254   4.641   5.594   5.492 -0.3218  0.0148  0.1382
 6097TIP3    H118255   4.716   5.544   5.523  0.9782  0.9446 -1.3189
 6097TIP3    H218256   4.633   5.666   5.555 -0.8059 -0.7635  0.9930
 6098TIP3   OH218257   1.035   2.549   2.295  0.0992  0.1635 -0.0262
 6098TIP3    H118258   0.966   2.605   2.330  2.0887  2.4674  0.5347
 6098TIP3    H218259   1.076   2.510   2.372  0.1396 -0.2981 -0.2765
 6099TIP3   OH218260   3.452   0.585   1.697  0.6734  0.3080 -0.1985
 6099TIP3    H118261   3.372   0.638   1.689  0.8454  0.3195 -2.4277
 6099TIP3    H218262   3.487   0.581   1.608  1.2609 -2.6693  0.0729
 6100TIP3   OH218263   6.758   0.865   3.939 -0.0236 -0.2648 -0.5910
 6100TIP3    H118264   6.698   0.807   3.891 -0.4360  1.7302 -2.6866
 6100TIP3    H218265   6.841   0.859   3.892 -0.3337  1.4695 -1.4322
 6101TIP3   OH218266   2.093   1.747   1.978  0.0150  0.2007 -0.3258
 6101TIP3    H118267   2.092   1.736   1.883 -1.5302  1.8778 -0.5658
 6101TIP3    H218268   2.032   1.681   2.011  0.2405 -0.1128 -0.5331
 6102TIP3   OH218269   4.096   3.695   5.495 -0.5735 -0.1058 -0.1902
 6102TIP3    H118270   4.051   3.666   5.574 -0.0867  1.2735  0.6243
 6102TIP3    H218271   4.178   3.645   5.495 -1.1247 -1.0332 -0.5202
 6103TIP3   OH218272   3.187   4.183   2.390  0.3236 -0.8860 -0.0325
 6103TIP3    H118273   3.138   4.237   2.328 -0.2822 -0.8812  0.4356
 6103TIP3    H218274   3.141   4.195   2.473  1.7031 -0.1328  0.6396
 6104TIP3   OH218275   6.180   6.184   3.574 -0.0901  0.1468 -0.4504
 6104TIP3    H118276   6.253   6.234   3.611 -1.0450  1.5399 -0.3619
 6104TIP3    H218277   6.201   6.093   3.594  1.2386  0.5750  0.2547
 6105TIP3   OH218278   1.227   2.663   2.604 -0.0341  0.2625 -0.4137
 6105TIP3    H118279   1.148   2.701   2.567 -0.0125  2.8799  1.9487
 6105TIP3    H218280   1.197   2.613   2.680  0.5067  1.0210  0.3182
 6106TIP3   OH218281   0.075   3.749   2.723  0.6680  0.0732  0.1769
 6106TIP3    H118282   0.134   3.740   2.797 -0.3168  1.9292  1.2700
 6106TIP3    H218283   0.072   3.662   2.683  2.4614 -0.5631  1.3408
 6107TIP3   OH218284   0.611   3.489   0.592 -0.0353  0.2038 -0.2999
 6107TIP3    H118285   0.637   3.579   0.611 -0.2148 -0.0244  1.1755
 6107TIP3    H218286   0.618   3.444   0.676  2.9511 -1.9139 -1.5375
 6108TIP3   OH218287   4.116   5.459   5.465  0.2841 -0.1441 -0.3100
 6108TIP3    H118288   4.160   5.515   5.529  1.1948 -1.4713  0.2523
 6108TIP3    H218289   4.040   5.425   5.512  0.4148 -0.3500 -0.2467
 6109TIP3   OH218290   7.127   5.456   1.515  0.0152  0.5585 -0.0567
 6109TIP3    H118291   7.152   5.529   1.571 -0.8275  0.4481  0.4833
 6109TIP3    H218292   7.141   5.378   1.569  0.2522  0.3636 -0.3897
 6110TIP3   OH218293   5.806   4.846   5.288 -0.3748 -0.1080  0.2710
 6110TIP3    H118294   5.901   4.838   5.274 -0.1967 -1.3783  1.8750
 6110TIP3    H218295   5.798   4.898   5.368 -1.1023  1.0423 -0.5195
 6111TIP3   OH218296   5.756   2.549   2.563  0.0253  0.0323 -0.1203
 6111TIP3    H118297   5.690   2.606   2.603 -0.5232 -0.6149 -0.0867
 6111TIP3    H218298   5.740   2.463   2.602  1.6345  0.0925  0.7723
 6112TIP3   OH218299   1.943   4.079   2.604  0.1169 -0.1391  0.1706
 6112TIP3    H118300   1.989   4.019   2.545  1.8736  1.2323  0.0610
 6112TIP3    H218301   1.917   4.024   2.678  3.3049 -0.7749  0.9659
 6113TIP3   OH218302   5.727   0.464   4.730 -0.5208 -0.5539  0.2538
 6113TIP3    H118303   5.818   0.472   4.760 -0.6331 -0.1621  0.4894
 6113TIP3    H218304   5.676   0.510   4.796 -0.8506 -0.3982 -0.1089
 6114TIP3   OH218305   0.787   0.885   1.994 -0.0884  0.2037  0.4777
 6114TIP3    H118306   0.773   0.979   2.006 -0.0825  0.4270 -1.1022
 6114TIP3    H218307   0.711   0.855   1.945  0.4226 -0.4003  0.0366
 6115TIP3   OH218308   3.815   3.372   2.106  0.3597 -0.4173  0.3665
 6115TIP3    H118309   3.809   3.279   2.087 -0.3383 -0.6879  1.7102
 6115TIP3    H218310   3.814   3.377   2.202  1.6305  0.9079  0.3438
 6116TIP3   OH218311   4.680   4.132   5.232  0.7850 -0.2899 -0.0041
 6116TIP3    H118312   4.703   4.223   5.211  0.9313 -0.3091  0.0723
 6116TIP3    H218313   4.688   4.127   5.327 -1.7284  0.3157  0.3144
 6117TIP3   OH218314   2.869   2.407   4.569  0.2732  0.1311  0.3128
 6117TIP3    H118315   2.811   2.462   4.621  0.2092 -0.4756  0.8970
 6117TIP3    H218316   2.811   2.368   4.503  0.5577  1.7929 -0.9810
 6118TIP3   OH218317   4.321   3.055   3.050  0.4599  0.3959  0.1257
 6118TIP3    H118318   4.356   3.082   2.965 -0.0977  0.4499 -0.0923
 6118TIP3    H218319   4.230   3.031   3.032 -0.4111  2.6679  1.1147
 6119TIP3   OH218320   0.075   0.508   2.572 -0.4088 -0.3351 -0.1038
 6119TIP3    H118321   0.091   0.602   2.563  2.1845 -0.6941  0.0078
 6119TIP3    H218322  -0.007   0.502   2.621 -0.5428  1.8522  0.0313
 6120TIP3   OH218323   4.935   5.837   4.449 -0.2111 -0.0600 -0.0820
 6120TIP3    H118324   4.885   5.917   4.436  0.8011  0.8237  1.2269
 6120TIP3    H218325   4.869   5.767   4.448 -1.0316  0.6537 -2.0066
 6121TIP3   OH218326   3.384   2.304   5.503  0.0348 -0.0230  0.1278
 6121TIP3    H118327   3.322   2.268   5.567 -0.0726 -1.1034 -0.5664
 6121TIP3    H218328   3.376   2.399   5.513 -0.3035 -0.1723  1.4014
 6122TIP3   OH218329   0.948   2.684   5.242 -0.4567  0.0034  0.1709
 6122TIP3    H118330   0.928   2.600   5.200 -3.1860 -0.9398  3.0023
 6122TIP3    H218331   0.873   2.740   5.221  0.5817  1.2471 -0.3631
 6123TIP3   OH218332   6.845   1.373   5.034 -0.1166 -0.1069  0.4465
 6123TIP3    H118333   6.831   1.289   5.077 -0.0317  0.8940  2.5267
 6123TIP3    H218334   6.936   1.396   5.054 -0.1371  0.4974 -0.1053
 6124TIP3   OH218335   3.532   0.562   5.848  0.0710  0.5575 -0.9220
 6124TIP3    H118336   3.595   0.566   5.920 -0.8570  1.4156 -0.1219
 6124TIP3    H218337   3.552   0.480   5.803  1.0847  0.3144 -0.0724
 6125TIP3   OH218338   2.840   5.360   2.812  0.3843  0.4782  0.3867
 6125TIP3    H118339   2.771   5.304   2.777 -1.1283  2.0557  0.7109
 6125TIP3    H218340   2.840   5.342   2.907  0.7810  0.1327  0.3279
 6126TIP3   OH218341   7.111   6.068   3.402 -0.1244  0.0901 -0.6365
 6126TIP3    H118342   7.041   6.025   3.451 -0.3800  1.2927  0.1168
 6126TIP3    H218343   7.132   6.146   3.454 -0.2763  1.3322 -2.3311
 6127TIP3   OH218344   0.156   4.584   5.218  0.2750  0.3974 -0.6292
 6127TIP3    H118345   0.185   4.493   5.220 -1.4957 -0.1955  1.1556
 6127TIP3    H218346   0.073   4.584   5.266  0.5909  3.0906  0.0688
 6128TIP3   OH218347   4.612   3.029   2.161  0.4140  0.0075 -0.0645
 6128TIP3    H118348   4.692   2.977   2.164 -0.6013 -1.7375 -1.1667
 6128TIP3    H218349   4.556   2.983   2.099 -1.0399  1.7824 -0.1496
 6129TIP3   OH218350   0.173   5.903   2.289  0.0731 -0.6724 -0.2656
 6129TIP3    H118351   0.175   5.813   2.323  0.5330  0.0213  1.6773
 6129TIP3    H218352   0.263   5.921   2.264 -0.3945 -1.4397 -2.7288
 6130TIP3   OH218353   6.688   4.384   2.775  0.2209  0.1273 -0.1156
 6130TIP3    H118354   6.623   4.447   2.743 -0.5179  0.2075  1.4545
 6130TIP3    H218355   6.763   4.396   2.717 -0.0137  2.2505 -0.0771
 6131TIP3   OH218356   4.357   5.593   4.262  0.4188  0.0469 -0.1038
 6131TIP3    H118357   4.309   5.607   4.180 -0.6681 -0.9828  0.3272
 6131TIP3    H218358   4.433   5.651   4.255  0.4588 -0.1526 -1.9112
 6132TIP3   OH218359   6.833   6.650   3.289  0.0989 -0.0182 -0.1890
 6132TIP3    H118360   6.825   6.567   3.336  0.1682  0.0797 -0.0016
 6132TIP3    H218361   6.924   6.676   3.301 -0.4553  1.2449  1.7771
 6133TIP3   OH218362   4.162   4.629   4.279 -0.3706  0.1929 -0.0379
 6133TIP3    H118363   4.236   4.633   4.218 -0.6345  0.6158 -0.3349
 6133TIP3    H218364   4.161   4.538   4.309  1.9725  0.7562  2.1195
 6134TIP3   OH218365   1.818   1.111   5.425  0.2120  0.2134 -0.0763
 6134TIP3    H118366   1.839   1.023   5.394 -0.5241  0.6269 -1.8550
 6134TIP3    H218367   1.902   1.149   5.450  0.4423 -1.3114  1.7263
 6135TIP3   OH218368   2.445   4.171   0.361  0.3766 -0.4880 -0.0881
 6135TIP3    H118369   2.403   4.217   0.288 -1.4036  0.7633  1.6254
 6135TIP3    H218370   2.515   4.230   0.389 -1.4008  0.9672  1.5983
 6136TIP3   OH218371   4.844   3.018   5.435  0.1515  0.4129 -0.4896
 6136TIP3    H118372   4.778   3.074   5.394  0.4217 -1.1508 -3.3286
 6136TIP3    H218373   4.795   2.940   5.462  0.2696  0.7542  0.7713
 6137TIP3   OH218374   1.227   2.914   5.532 -0.1748  0.0380  0.3749
 6137TIP3    H118375   1.181   2.836   5.502  0.0893 -1.0774  2.6170
 6137TIP3    H218376   1.245   2.897   5.625 -0.0835  2.7622  0.9458
 6138TIP3   OH218377   5.721   6.082   2.290 -0.4785  0.6671 -0.4666
 6138TIP3    H118378   5.629   6.070   2.265 -0.9646  2.2944  0.4199
 6138TIP3    H218379   5.768   6.089   2.207 -0.5664 -3.4025 -1.0822
 6139TIP3   OH218380   4.317   0.824   1.355  0.0553 -0.1353 -0.0613
 6139TIP3    H118381   4.287   0.809   1.445 -2.3248 -0.5014 -0.8344
 6139TIP3    H218382   4.282   0.750   1.306  1.5707 -0.0940 -1.2516
 6140TIP3   OH218383   5.003   5.358   3.943  0.1753  0.4661  0.2762
 6140TIP3    H118384   4.950   5.306   3.882  2.1074 -1.5056  0.1459
 6140TIP3    H218385   5.079   5.385   3.892  1.2757 -0.2598  1.4809
 6141TIP3   OH218386   5.516   5.713   4.989  0.4108 -0.4726  0.6639
 6141TIP3    H118387   5.611   5.721   4.979  0.2062  0.8998 -0.5382
 6141TIP3    H218388   5.481   5.731   4.902 -1.0548  1.5269  1.5848
 6142TIP3   OH218389   0.226   2.466  -0.014 -0.0605 -0.1734  0.5701
 6142TIP3    H118390   0.192   2.472   0.075 -1.3798 -2.7445  0.3384
 6142TIP3    H218391   0.259   2.376  -0.021 -1.2026 -0.4942 -1.8779
 6143TIP3   OH218392   6.747   6.181   4.062 -0.1392  0.5361  0.1281
 6143TIP3    H118393   6.815   6.116   4.082 -1.0518  0.1212  2.0901
 6143TIP3    H218394   6.793   6.265   4.066  0.3520  0.2396  1.0794
 6144TIP3   OH218395   2.357   2.242   3.601 -0.4979  0.4809 -0.2444
 6144TIP3    H118396   2.449   2.244   3.629 -0.1455 -0.4262 -1.2703
 6144TIP3    H218397   2.354   2.175   3.534 -2.3060 -0.9419  1.1404
 6145TIP3   OH218398   7.043   0.283   2.616 -0.0254  0.0488 -0.3147
 6145TIP3    H118399   6.990   0.295   2.538 -1.7068 -1.4349  0.5305
 6145TIP3    H218400   6.999   0.335   2.683 -1.4069 -2.3688  0.7752
 6146TIP3   OH218401   0.274   3.750   4.372 -0.2951 -0.1154  0.6942
 6146TIP3    H118402   0.332   3.703   4.433  1.8925 -0.7010 -1.6616
 6146TIP3    H218403   0.311   3.838   4.367 -1.0508  0.2253  0.8780
 6147TIP3   OH218404   1.472   5.651   3.410  0.2980  0.0901  0.6020
 6147TIP3    H118405   1.480   5.734   3.458 -0.6957  0.3790  0.3048
 6147TIP3    H218406   1.558   5.638   3.369  0.4074  1.0746  0.4988
 6148TIP3   OH218407   6.363   5.254   3.521  0.3856  0.5193  0.0642
 6148TIP3    H118408   6.326   5.214   3.442 -1.3726 -0.4394  1.3039
 6148TIP3    H218409   6.401   5.337   3.491 -0.6125  0.3709 -1.7198
 6149TIP3   OH218410   4.062   0.347   1.022 -0.3316  0.0422  0.1061
 6149TIP3    H118411   4.085   0.434   0.989  1.7835 -0.2666  0.6409
 6149TIP3    H218412   4.128   0.327   1.088 -1.4454 -1.5180  0.8258
 6150TIP3   OH218413   5.285   3.811   3.501 -0.7650  0.2368  0.0294
 6150TIP3    H118414   5.318   3.753   3.570 -0.0675 -0.0782 -0.5493
 6150TIP3    H218415   5.294   3.899   3.538  0.6123  0.1542 -0.0381
 6151TIP3   OH218416   0.840   4.429   2.876 -0.3948 -0.1330  0.3509
 6151TIP3    H118417   0.776   4.369   2.915 -0.9354  0.8616  1.0140
 6151TIP3    H218418   0.800   4.456   2.793 -1.3677  1.3469  1.2720
 6152TIP3   OH218419   3.302   6.682   3.869 -0.0502 -0.0885  0.3542
 6152TIP3    H118420   3.233   6.664   3.805  0.3911 -0.3547 -0.0604
 6152TIP3    H218421   3.375   6.627   3.840  0.2142 -0.0703  0.9904
 6153TIP3   OH218422   5.058   4.890   0.972  0.0901 -0.0479 -0.1840
 6153TIP3    H118423   5.043   4.797   0.956  2.9757 -0.5866 -0.2499
 6153TIP3    H218424   5.149   4.905   0.946  0.9730  1.9109  3.3419
 6154TIP3   OH218425   1.188   1.681   5.167  0.5341 -0.1193 -0.5905
 6154TIP3    H118426   1.242   1.668   5.089 -0.2797  0.0339 -1.1957
 6154TIP3    H218427   1.154   1.770   5.158  0.9874  0.1561  0.3030
 6155TIP3   OH218428   0.381   4.300   3.348  0.4969 -0.4885 -0.0258
 6155TIP3    H118429   0.303   4.354   3.353 -0.2430 -1.5350  0.0431
 6155TIP3    H218430   0.356   4.227   3.291  1.9535  0.0087 -1.3748
 6156TIP3   OH218431   3.967   6.770   2.125  1.1842 -0.3007 -0.7157
 6156TIP3    H118432   4.020   6.822   2.186  2.6839 -1.9318 -0.5662
 6156TIP3    H218433   3.901   6.728   2.180  1.2944 -0.2153 -0.5171
 6157TIP3   OH218434   3.125   5.157   2.601 -0.2341  0.0985  0.1129
 6157TIP3    H118435   3.048   5.136   2.547  0.7480  1.1523 -1.7883
 6157TIP3    H218436   3.127   5.252   2.603  0.3145  0.0754  1.2526
 6158TIP3   OH218437   5.974   4.092   3.055 -0.7597 -0.7530 -0.6287
 6158TIP3    H118438   5.983   4.048   2.971 -0.5185  0.2860 -1.1664
 6158TIP3    H218439   6.048   4.060   3.107 -0.6906 -1.1147 -0.9473
 6159TIP3   OH218440   7.168   4.322   2.246 -0.5232 -0.3980 -0.5365
 6159TIP3    H118441   7.122   4.393   2.201 -1.1897 -0.4189  0.1094
 6159TIP3    H218442   7.103   4.283   2.303  0.7889  0.9916  2.1095
 6160TIP3   OH218443   0.571   4.590   3.031 -0.4974  0.2292 -0.3977
 6160TIP3    H118444   0.608   4.509   3.066  0.3204  0.8953  0.3247
 6160TIP3    H218445   0.493   4.562   2.982 -0.1278 -1.0010 -0.3092
 6161TIP3   OH218446   4.671   3.413   4.908 -0.4229  0.4124 -0.6958
 6161TIP3    H118447   4.588   3.460   4.909  0.1403  1.4246  0.5433
 6161TIP3    H218448   4.737   3.479   4.925  0.3287 -0.8683  1.9770
 6162TIP3   OH218449   4.626   0.513   4.477  0.7211 -0.2462 -0.5041
 6162TIP3    H118450   4.693   0.544   4.537  0.9789 -1.7249  0.0155
 6162TIP3    H218451   4.664   0.435   4.436 -0.2572 -0.4804 -1.0155
 6163TIP3   OH218452   3.534   3.753   5.403 -0.0476  0.8123  0.1731
 6163TIP3    H118453   3.465   3.776   5.465 -0.9320 -0.0149 -0.4715
 6163TIP3    H218454   3.614   3.788   5.442 -0.5060 -0.0378  2.0056
 6164TIP3   OH218455   4.502   0.876   2.385  0.2243  0.0329  0.1030
 6164TIP3    H118456   4.516   0.917   2.300  0.4802 -1.4019 -0.5857
 6164TIP3    H218457   4.471   0.788   2.364 -0.5082 -0.0689  1.5154
 6165TIP3   OH218458   4.277   4.010   0.202  0.0339 -0.1023  0.0733
 6165TIP3    H118459   4.292   3.925   0.243 -1.9564 -0.4664  0.1341
 6165TIP3    H218460   4.258   4.069   0.275 -2.1680 -0.4520 -0.1468
 6166TIP3   OH218461   6.139   4.629   0.791  0.0070 -0.1457  0.3656
 6166TIP3    H118462   6.184   4.552   0.825  0.0749 -0.2746 -0.0096
 6166TIP3    H218463   6.132   4.688   0.866 -2.6100 -1.6711  1.4707
 6167TIP3   OH218464   6.960   2.543   2.306 -0.0514  0.0495 -0.7307
 6167TIP3    H118465   7.012   2.510   2.379  0.3096  0.7753 -0.6553
 6167TIP3    H218466   6.996   2.630   2.287 -1.6312  0.8433 -0.2683
 6168TIP3   OH218467   2.794   3.431   1.250 -0.1976 -0.0961 -0.1163
 6168TIP3    H118468   2.752   3.516   1.264 -0.4231  0.3688 -2.9196
 6168TIP3    H218469   2.738   3.369   1.296  0.0227  1.2342  2.0892
 6169TIP3   OH218470   0.866   6.752   0.783 -0.4044 -0.1930  0.1019
 6169TIP3    H118471   0.892   6.667   0.818 -2.9863 -0.7571  0.8394
 6169TIP3    H218472   0.810   6.790   0.851 -1.4835  0.9144 -1.3344
 6170TIP3   OH218473   0.221   1.915   2.254  0.5166 -0.3250 -0.0234
 6170TIP3    H118474   0.211   2.001   2.296  0.1807 -1.0442  1.4150
 6170TIP3    H218475   0.251   1.936   2.165 -1.5720  1.3903 -0.4198
 6171TIP3   OH218476   0.706   1.966   3.846 -0.3817  0.4801 -0.3866
 6171TIP3    H118477   0.791   1.954   3.887 -0.5569  0.5636  0.0054
 6171TIP3    H218478   0.660   2.028   3.902 -0.5816  0.6881 -0.7749
 6172TIP3   OH218479   5.091   0.393   4.035 -0.3842 -0.2021 -0.0188
 6172TIP3    H118480   5.153   0.347   4.091  1.9059 -1.4458 -3.2658
 6172TIP3    H218481   5.086   0.339   3.956  0.2092  3.6179 -2.9258
 6173TIP3   OH218482   6.026   1.126   5.272  0.0836  0.3648  0.6085
 6173TIP3    H118483   5.967   1.051   5.284  0.9130 -0.3015  0.6248
 6173TIP3    H218484   6.102   1.105   5.326  1.1437  0.3080 -0.8399
 6174TIP3   OH218485   4.976   3.134   4.858  0.1307  0.2622 -0.0309
 6174TIP3    H118486   4.999   3.085   4.937 -1.9130  0.3567  0.7068
 6174TIP3    H218487   4.983   3.226   4.884  2.9903  0.4227 -1.1139
 6175TIP3   OH218488   5.572   2.856   4.069  0.0717 -0.4611 -0.2444
 6175TIP3    H118489   5.514   2.785   4.096 -0.9110 -0.0471 -1.1821
 6175TIP3    H218490   5.555   2.927   4.130  0.5907 -0.7948  0.3020
 6176TIP3   OH218491   6.844   5.617   1.665 -0.2656 -0.0066  0.0441
 6176TIP3    H118492   6.862   5.523   1.666 -0.4484 -0.0494  1.0866
 6176TIP3    H218493   6.893   5.651   1.590  1.3581 -0.6490  0.7614
 6177TIP3   OH218494   3.358   3.414   4.257  0.0724  0.4382  0.2023
 6177TIP3    H118495   3.431   3.353   4.248  0.5491  1.2095 -1.7102
 6177TIP3    H218496   3.363   3.445   4.347  1.0601 -0.7937  0.5964
 6178TIP3   OH218497   2.805   5.487   4.259 -0.1422 -0.2777  0.0683
 6178TIP3    H118498   2.803   5.403   4.212 -0.3573  0.4449 -1.2604
 6178TIP3    H218499   2.745   5.474   4.333 -0.5247 -1.1515 -0.3725
 6179TIP3   OH218500   5.030   1.472   2.135 -0.5975 -0.0672 -0.6104
 6179TIP3    H118501   5.032   1.470   2.039  0.2379 -0.3381 -0.5902
 6179TIP3    H218502   5.067   1.388   2.161 -2.9427 -1.0013 -0.0580
 6180TIP3   OH218503   1.387   4.555   0.538 -0.0174  0.8139 -0.4106
 6180TIP3    H118504   1.439   4.549   0.458 -0.9963  2.9731 -1.3023
 6180TIP3    H218505   1.445   4.599   0.601  0.4905 -0.2117 -0.1316
 6181TIP3   OH218506   1.949   4.116   5.446  0.5295  0.3400  0.5164
 6181TIP3    H118507   1.895   4.194   5.457 -0.6335 -0.4795  0.7215
 6181TIP3    H218508   1.921   4.057   5.515  1.1068 -0.4281  0.1123
 6182TIP3   OH218509   4.564   1.324   0.928 -0.1885 -0.0011 -0.2926
 6182TIP3    H118510   4.468   1.320   0.932 -0.1100 -0.7874  2.7837
 6182TIP3    H218511   4.588   1.256   0.865 -1.6103 -0.8348  0.0329
 6183TIP3   OH218512   4.370   3.184   4.591 -0.2853  0.0101  0.1457
 6183TIP3    H118513   4.427   3.114   4.562  0.1622 -0.3992  1.8990
 6183TIP3    H218514   4.282   3.145   4.593  0.0127 -0.6278  1.4520
 6184TIP3   OH218515   1.381   0.662   1.962 -0.0653 -0.2600 -0.3086
 6184TIP3    H118516   1.310   0.716   1.996 -1.1429 -0.3906 -2.1716
 6184TIP3    H218517   1.367   0.576   2.001 -0.2348  0.0078  0.2276
 6185TIP3   OH218518   0.227   0.359   4.640 -0.8271  0.9489 -0.4757
 6185TIP3    H118519   0.283   0.282   4.651 -0.0936  1.3260 -1.4296
 6185TIP3    H218520   0.276   0.431   4.680 -0.9407  1.1517 -0.6951
 6186TIP3   OH218521   6.353   2.808   4.425  0.2032 -0.0460 -0.1105
 6186TIP3    H118522   6.421   2.782   4.488  0.3789  1.1287  0.1986
 6186TIP3    H218523   6.329   2.897   4.451  0.5918  0.6453 -1.9819
 6187TIP3   OH218524   6.830   4.358   2.519 -0.2650 -0.0886  0.4200
 6187TIP3    H118525   6.749   4.327   2.479  0.6133 -0.6591 -0.9823
 6187TIP3    H218526   6.885   4.280   2.526 -1.1190 -0.5733  4.9001
 6188TIP3   OH218527   0.236   2.149   0.633  0.1424 -0.0054  0.0579
 6188TIP3    H118528   0.288   2.101   0.698  0.4555 -1.9103 -1.5112
 6188TIP3    H218529   0.148   2.111   0.639  0.0411  0.1757 -0.2540
 6189TIP3   OH218530   5.888   2.639   3.719 -0.2366 -0.1874 -0.3388
 6189TIP3    H118531   5.928   2.705   3.663  1.0770  1.0679  1.9092
 6189TIP3    H218532   5.802   2.675   3.740  0.3106  0.6992  0.5359
 6190TIP3   OH218533   2.208   2.075   3.773  0.0673  0.4601  0.2979
 6190TIP3    H118534   2.258   2.140   3.724  1.5322 -0.9245 -0.0899
 6190TIP3    H218535   2.267   2.047   3.843 -0.9557  0.3086  1.1350
 6191TIP3   OH218536   0.984   4.489   5.275  0.7499 -0.2334  0.4199
 6191TIP3    H118537   0.969   4.498   5.181  1.3688 -0.5324  0.2872
 6191TIP3    H218538   1.079   4.478   5.284  0.7627  0.3158  1.1238
 6192TIP3   OH218539   5.043   0.977   0.184 -0.0800  0.1798  0.1499
 6192TIP3    H118540   5.001   0.968   0.269 -0.8684  1.3580 -0.0849
 6192TIP3    H218541   5.010   0.903   0.133 -0.8991  0.3866  0.3661
 6193TIP3   OH218542   2.343   3.843   3.490 -0.2940 -0.4324  0.4456
 6193TIP3    H118543   2.333   3.754   3.458 -0.0104 -0.5709  0.7385
 6193TIP3    H218544   2.436   3.851   3.513 -0.2366  0.0578  0.0691
 6194TIP3   OH218545   3.813   4.781   1.958  0.3155  0.7502 -0.1673
 6194TIP3    H118546   3.801   4.806   1.867 -2.9500 -0.6897 -0.2476
 6194TIP3    H218547   3.729   4.799   2.000 -0.1309 -3.4562  1.2628
 6195TIP3   OH218548   1.742   6.637   4.564 -0.2030 -0.1740  0.2348
 6195TIP3    H118549   1.716   6.729   4.560  0.5124 -0.0012 -0.9277
 6195TIP3    H218550   1.753   6.619   4.658 -2.4468  0.2955  0.6444
 6196TIP3   OH218551   3.945   1.879   3.977 -0.4019  0.5577 -0.0320
 6196TIP3    H118552   3.911   1.821   4.045  1.3488 -1.7746 -1.0483
 6196TIP3    H218553   3.955   1.964   4.020 -2.7930  0.1114  1.5695
 6197TIP3   OH218554   6.456   5.916   3.395  0.0077 -0.0248 -0.5519
 6197TIP3    H118555   6.383   5.906   3.333 -0.8967  1.6675  0.1837
 6197TIP3    H218556   6.489   6.004   3.380  1.3651 -0.4671 -0.2736
 6198TIP3   OH218557   4.816   1.112   0.051  0.0526 -0.1681 -0.4971
 6198TIP3    H118558   4.742   1.054   0.072  1.3679 -1.7877 -0.1452
 6198TIP3    H218559   4.871   1.060  -0.008  0.3356  1.4618 -1.7178
 6199TIP3   OH218560   4.743   4.239   4.862  0.2530  0.0415 -0.3527
 6199TIP3    H118561   4.822   4.188   4.880  0.8206  0.8868 -0.3938
 6199TIP3    H218562   4.672   4.175   4.866  0.8471 -0.5953  0.4774
 6200TIP3   OH218563   6.125   1.475   5.467  0.0300  0.2258 -0.0429
 6200TIP3    H118564   6.078   1.557   5.455 -1.6363 -0.6774 -0.0606
 6200TIP3    H218565   6.180   1.467   5.389  0.0065  1.1824 -0.1651
 6201TIP3   OH218566   0.046   6.018   5.483 -0.4107 -0.3091  0.2785
 6201TIP3    H118567   0.103   5.943   5.463 -0.1911  0.0253 -0.3557
 6201TIP3    H218568   0.040   6.017   5.579 -0.5003 -1.2025  0.2786
 6202TIP3   OH218569   5.827   1.624   1.203 -0.4036  0.8790  0.2601
 6202TIP3    H118570   5.737   1.614   1.175 -1.3124  2.2653  2.4067
 6202TIP3    H218571   5.848   1.716   1.184  1.2444  0.1400 -1.8874
 6203TIP3   OH218572   6.466   1.631   0.598 -0.0506 -0.4827 -0.1065
 6203TIP3    H118573   6.441   1.674   0.680 -1.6975  0.3374 -0.9976
 6203TIP3    H218574   6.417   1.549   0.597 -0.2993 -0.3285 -0.4425
 6204TIP3   OH218575   7.078   6.611   4.647  0.0663  0.2341 -0.0536
 6204TIP3    H118576   7.099   6.549   4.717  0.8042  0.6660  0.1273
 6204TIP3    H218577   7.021   6.563   4.587  2.3755 -1.3607 -1.0972
 6205TIP3   OH218578   7.120   3.710   3.144 -0.2094  0.4824 -0.6133
 6205TIP3    H118579   7.041   3.755   3.116  0.5933  1.3558 -1.5443
 6205TIP3    H218580   7.088   3.635   3.194 -1.5943  1.4118 -0.0437
 6206TIP3   OH218581   6.926   4.546   1.751 -1.2470  0.8027 -0.8236
 6206TIP3    H118582   6.980   4.475   1.716  0.5284  0.5813  2.0136
 6206TIP3    H218583   6.837   4.511   1.749 -0.5377 -1.1550 -0.3834
 6207TIP3   OH218584   5.231   0.406   1.413  0.3037  0.5147  0.1758
 6207TIP3    H118585   5.254   0.324   1.370  0.4343  0.0318  1.1341
 6207TIP3    H218586   5.288   0.409   1.490 -0.6132  0.8647  0.8544
 6208TIP3   OH218587   5.915   3.760   3.600 -0.5515 -0.0909  1.0194
 6208TIP3    H118588   5.988   3.811   3.565 -0.4179 -0.5096  0.6746
 6208TIP3    H218589   5.837   3.795   3.555 -0.3150 -1.0290 -0.1940
 6209TIP3   OH218590   4.340   3.385   3.244 -0.1815  0.4512  0.2589
 6209TIP3    H118591   4.292   3.413   3.323 -0.2766 -1.2583  0.8515
 6209TIP3    H218592   4.387   3.307   3.271  1.8679  1.2642 -0.7157
 6210TIP3   OH218593   5.165   3.746   3.255  0.5296 -0.1754 -0.5573
 6210TIP3    H118594   5.199   3.779   3.339  1.3808  0.5796 -1.1681
 6210TIP3    H218595   5.101   3.812   3.228  1.0591  0.1663 -1.0105
 6211TIP3   OH218596   6.267   1.163   1.832  0.5365 -0.2500 -0.3719
 6211TIP3    H118597   6.260   1.167   1.737  0.9863 -1.1849 -0.4552
 6211TIP3    H218598   6.358   1.186   1.850  0.1942  0.9026 -0.0937
 6212TIP3   OH218599   4.615   1.553   0.089  0.6664  0.2269 -0.7478
 6212TIP3    H118600   4.655   1.618   0.031 -1.7763 -0.1158 -3.0482
 6212TIP3    H218601   4.615   1.472   0.037 -0.5521 -0.4119  0.1925
 6213TIP3   OH218602   7.060   4.611   4.361 -0.2496 -0.2618 -0.0090
 6213TIP3    H118603   7.112   4.558   4.422  1.6431  0.3403 -1.0150
 6213TIP3    H218604   7.028   4.548   4.296  0.1431 -0.4924  0.0182
 6214TIP3   OH218605   2.110   1.019   1.958  1.0545  0.7229  0.0451
 6214TIP3    H118606   2.136   0.936   1.918  1.3440  1.7066 -1.9522
 6214TIP3    H218607   2.035   0.997   2.013  2.8645 -1.3260  1.9050
 6215TIP3   OH218608   4.497   1.141   4.883  0.5680 -0.2598  0.2294
 6215TIP3    H118609   4.409   1.116   4.912  0.6080 -1.4397 -0.6213
 6215TIP3    H218610   4.554   1.119   4.957  0.2780 -0.4699  0.3924
 6216TIP3   OH218611   2.213   6.598   4.506 -0.2568 -0.1674  0.2755
 6216TIP3    H118612   2.274   6.573   4.437 -0.8900 -0.1272 -0.3184
 6216TIP3    H218613   2.128   6.564   4.476 -0.2137 -2.0190  2.0589
 6217TIP3   OH218614   6.015   6.514   4.440 -0.7819  0.2191  0.2555
 6217TIP3    H118615   6.091   6.487   4.491 -0.5163  0.3690 -0.0633
 6217TIP3    H218616   5.952   6.545   4.505 -1.3518 -1.7448  0.7116
 6218TIP3   OH218617   1.177   1.267   1.930 -0.1959 -0.5764 -0.6445
 6218TIP3    H118618   1.246   1.203   1.945  0.8656  0.4245 -1.1453
 6218TIP3    H218619   1.223   1.347   1.904 -1.5834 -0.1401 -1.8936
 6219TIP3   OH218620   1.526   0.472   3.843 -0.3917  0.1055  0.5225
 6219TIP3    H118621   1.547   0.422   3.921 -0.1278  1.3488  1.2796
 6219TIP3    H218622   1.549   0.562   3.865 -1.0929  0.6145 -0.6967
 6220TIP3   OH218623   3.919   5.659   5.041 -0.1440 -0.4446  0.1060
 6220TIP3    H118624   3.826   5.644   5.027 -0.7138  1.4726  1.4543
 6220TIP3    H218625   3.950   5.697   4.959 -1.0748  0.9333  0.3607
 6221TIP3   OH218626   6.090   2.386   2.557  0.1982 -0.3097 -0.2592
 6221TIP3    H118627   6.182   2.400   2.579  1.4274 -4.7789 -1.5154
 6221TIP3    H218628   6.056   2.332   2.629 -0.9323 -0.1817 -0.6762
 6222TIP3   OH218629   1.082   4.136   4.850  0.7744 -0.4586 -0.2373
 6222TIP3    H118630   1.157   4.151   4.793  0.6913  1.8220  0.1609
 6222TIP3    H218631   1.108   4.172   4.934 -0.3977 -0.5477  0.1823
 6223TIP3   OH218632   6.245   0.940   3.482  0.0773 -0.7947  0.2048
 6223TIP3    H118633   6.172   0.890   3.519 -0.4690  0.3023  0.6677
 6223TIP3    H218634   6.279   0.886   3.412 -1.4143 -1.1812 -0.2486
 6224TIP3   OH218635   5.356   6.667   1.060 -0.0669  0.1839  0.0027
 6224TIP3    H118636   5.377   6.742   1.005 -1.3830  0.4860 -0.1102
 6224TIP3    H218637   5.385   6.591   1.009 -0.7018  0.5008 -0.8518
 6225TIP3   OH218638   0.840   1.792   5.197 -0.4651  0.0442  0.0866
 6225TIP3    H118639   0.829   1.742   5.278  0.4002 -0.0012  0.1792
 6225TIP3    H218640   0.750   1.815   5.171 -0.6977  1.3031  1.8268
 6226TIP3   OH218641   2.099   5.594   0.176 -0.3687  0.2888 -0.2233
 6226TIP3    H118642   2.103   5.513   0.226  0.0185  1.3202  1.5049
 6226TIP3    H218643   2.167   5.584   0.109 -1.4709 -1.4658 -1.1672
 6227TIP3   OH218644   7.199   1.963   1.122  0.6168 -0.3134 -0.2779
 6227TIP3    H118645   7.108   1.985   1.100  0.4942 -1.8145 -1.4462
 6227TIP3    H218646   7.217   2.014   1.201 -2.2004 -2.0765  1.7249
 6228TIP3   OH218647   0.619   5.297   1.978  0.1082 -0.3351 -1.0914
 6228TIP3    H118648   0.570   5.274   2.057  0.5373 -0.2132 -0.7871
 6228TIP3    H218649   0.706   5.321   2.010  0.1749  0.0651 -1.5657
 6229TIP3   OH218650   6.223   6.509   5.492 -0.0063  0.1144 -0.1647
 6229TIP3    H118651   6.217   6.473   5.404 -1.3319  1.2110 -0.5587
 6229TIP3    H218652   6.193   6.439   5.550 -2.0477  0.3658 -0.8649
 6230TIP3   OH218653   1.389   4.555   3.246  0.4869 -0.1259  0.3768
 6230TIP3    H118654   1.436   4.472   3.256 -0.6258 -1.0002 -1.1918
 6230TIP3    H218655   1.339   4.564   3.327 -0.8609 -2.0088 -0.1797
 6231TIP3   OH218656   4.957   1.215   3.951 -0.5343  0.4609 -0.7707
 6231TIP3    H118657   5.011   1.243   3.877  1.5116 -0.2551  0.3522
 6231TIP3    H218658   5.018   1.212   4.025 -1.5246 -2.6829  0.0977
 6232TIP3   OH218659   1.477   6.501   1.509 -0.0257  0.3115 -0.0432
 6232TIP3    H118660   1.388   6.497   1.474 -0.3650  2.0336  0.5296
 6232TIP3    H218661   1.484   6.424   1.566 -1.6105  0.8517  0.9247
 6233TIP3   OH218662   2.467   5.275   3.001 -0.1943 -0.1630 -0.4683
 6233TIP3    H118663   2.471   5.191   2.955 -1.3273  0.3226 -1.5000
 6233TIP3    H218664   2.515   5.260   3.082 -0.8867 -1.9946 -0.3510
 6234TIP3   OH218665   5.962   2.398   3.970  0.5535  0.0246  0.3214
 6234TIP3    H118666   5.950   2.450   4.050  0.8343  0.6181 -0.0167
 6234TIP3    H218667   5.882   2.346   3.963  0.4475  0.1043  0.8861
 6235TIP3   OH218668   6.897   4.558   0.593 -0.5016  0.2133  0.3397
 6235TIP3    H118669   6.838   4.610   0.539 -0.3137 -0.5210 -0.5995
 6235TIP3    H218670   6.889   4.469   0.559  2.1348  0.2952 -0.7407
 6236TIP3   OH218671   5.975   2.281   5.460  0.0797 -0.0721  0.1113
 6236TIP3    H118672   6.042   2.216   5.483  0.9135 -0.1421 -2.2417
 6236TIP3    H218673   5.983   2.348   5.528  1.8421 -0.5945  0.4713
 6237TIP3   OH218674   3.955   6.458   4.046 -0.4347  0.7411  0.2695
 6237TIP3    H118675   3.986   6.368   4.036 -0.3969  0.5917  1.5463
 6237TIP3    H218676   3.864   6.449   4.076  0.0071  1.0713  1.8252
 6238TIP3   OH218677   5.669   1.183   2.656  0.4140  0.2656  0.5000
 6238TIP3    H118678   5.608   1.125   2.702 -0.6172 -0.0431 -1.1780
 6238TIP3    H218679   5.754   1.140   2.665 -0.0499 -0.6300  0.6990
 6239TIP3   OH218680   1.306   2.005   5.196  0.2010  0.1433  0.2192
 6239TIP3    H118681   1.217   2.014   5.162  0.2379  0.2232  0.1450
 6239TIP3    H218682   1.302   2.044   5.283  0.7630  2.4492 -0.7193
 6240TIP3   OH218683   2.276   4.535   5.755 -0.6651  0.2289 -0.7673
 6240TIP3    H118684   2.250   4.611   5.703  0.1981 -0.4668 -2.2859
 6240TIP3    H218685   2.215   4.466   5.728  0.3978 -0.4028 -1.6434
 6241TIP3   OH218686   0.653   0.168   1.896  0.1662 -0.5177 -0.4472
 6241TIP3    H118687   0.581   0.148   1.836  0.1053 -1.2878 -0.1212
 6241TIP3    H218688   0.681   0.083   1.929  0.7490 -0.1619 -0.0169
 6242TIP3   OH218689   2.865   0.204   4.062  0.7729 -0.0749 -0.3660
 6242TIP3    H118690   2.816   0.252   3.995  1.5595  0.9242 -0.2669
 6242TIP3    H218691   2.957   0.218   4.037  1.0923  0.6447  1.1287
 6243TIP3   OH218692   5.402   5.528   1.457 -0.1807  0.1584  0.0743
 6243TIP3    H118693   5.403   5.508   1.550  1.4472  0.2160  0.0895
 6243TIP3    H218694   5.431   5.448   1.414  2.0314  1.0152 -0.1525
 6244TIP3   OH218695   7.063   4.010   3.439 -0.0362  0.1158  0.3382
 6244TIP3    H118696   7.128   3.950   3.475 -0.2605 -1.7817 -2.1858
 6244TIP3    H218697   7.114   4.079   3.398  0.4374 -1.0138 -1.0495
 6245TIP3   OH218698   3.117   5.287   2.937 -0.2113 -0.1528  0.3675
 6245TIP3    H118699   3.092   5.205   2.894 -0.3173  0.2252 -0.3132
 6245TIP3    H218700   3.094   5.355   2.873  1.4851  0.3000  0.1829
 6246TIP3   OH218701   4.167   0.929   2.003  0.3710  0.1027  0.4320
 6246TIP3    H118702   4.232   0.992   2.034  1.3413 -0.9021  0.5061
 6246TIP3    H218703   4.096   0.983   1.969  0.3092  1.2410  2.2501
 6247TIP3   OH218704   5.204   0.393   5.811  0.4091  0.5146 -0.2991
 6247TIP3    H118705   5.118   0.419   5.777  0.8260  0.3327 -1.5589
 6247TIP3    H218706   5.199   0.298   5.820  0.9869  0.2924 -1.9745
 6248TIP3   OH218707   3.653   3.101   5.687 -0.2153 -0.2572 -0.7319
 6248TIP3    H118708   3.613   3.032   5.632  0.0473 -1.4818  0.5476
 6248TIP3    H218709   3.745   3.102   5.661 -0.1229 -0.7288 -0.4356
 6249TIP3   OH218710   4.677   5.418   4.890 -0.3453 -0.4974 -0.1603
 6249TIP3    H118711   4.726   5.480   4.836 -2.9458  0.4564 -1.5549
 6249TIP3    H218712   4.726   5.416   4.973  0.5649  2.4490 -0.4946
 6250TIP3   OH218713   4.225   2.272   4.377  0.1453  0.1788  0.4097
 6250TIP3    H118714   4.319   2.286   4.387  0.2312  0.2142 -0.4260
 6250TIP3    H218715   4.199   2.229   4.459  0.8969  0.0916  0.6116
 6251TIP3   OH218716   4.840   2.060   2.305 -0.2754  0.2036  0.2562
 6251TIP3    H118717   4.785   2.138   2.304  0.8017  0.9892  0.7241
 6251TIP3    H218718   4.903   2.076   2.375  3.2217  1.2500 -2.8310
 6252TIP3   OH218719   6.094   2.639   3.923 -0.1275 -0.8467 -0.3328
 6252TIP3    H118720   6.051   2.692   3.991  1.5838 -0.9598  0.9114
 6252TIP3    H218721   6.041   2.560   3.918 -0.8071 -0.4385  0.2171
 6253TIP3   OH218722   3.906   5.485   2.881  0.5593 -0.3125 -0.5914
 6253TIP3    H118723   3.874   5.408   2.833 -1.2667  1.1801 -1.9166
 6253TIP3    H218724   3.982   5.514   2.831 -0.0332 -0.0385 -1.3534
 6254TIP3   OH218725   4.304   0.697   3.763  0.0575  0.2662  0.2115
 6254TIP3    H118726   4.264   0.661   3.684  0.5965  1.0174 -0.4205
 6254TIP3    H218727   4.393   0.661   3.762  0.4787  1.2722 -0.2247
 6255TIP3   OH218728   0.997   4.881   2.647 -0.1225 -0.0282  0.0529
 6255TIP3    H118729   1.089   4.873   2.624 -0.6015  0.9859 -2.5922
 6255TIP3    H218730   0.985   4.972   2.673 -0.2017 -0.4232  1.4786
 6256TIP3   OH218731   5.467   2.965   3.016  0.8308 -0.0329  0.0374
 6256TIP3    H118732   5.548   2.967   2.964 -0.1582 -2.0195 -1.7058
 6256TIP3    H218733   5.440   3.056   3.021  3.0104  0.6670  0.4703
 6257TIP3   OH218734   6.835   1.199   5.852  0.1108 -0.0790  0.2536
 6257TIP3    H118735   6.851   1.262   5.923 -0.7923  0.0493  0.3461
 6257TIP3    H218736   6.743   1.212   5.828  0.0210 -1.1051  0.0095
 6258TIP3   OH218737   1.642   0.889   1.652  0.1488 -0.3554  0.1388
 6258TIP3    H118738   1.556   0.902   1.611  0.4233  1.1818 -0.0036
 6258TIP3    H218739   1.698   0.859   1.581  0.1750  0.5081 -0.2189
 6259TIP3   OH218740   2.402   6.087   0.319  0.2026 -0.3296 -0.1026
 6259TIP3    H118741   2.391   5.992   0.314 -0.4196 -0.2148 -1.2690
 6259TIP3    H218742   2.335   6.115   0.382 -1.5185 -0.4080 -1.8031
 6260TIP3   OH218743   6.975   6.563   3.957  1.2705  0.1672 -0.4358
 6260TIP3    H118744   7.056   6.592   3.914  1.9460 -0.7937  0.1495
 6260TIP3    H218745   7.001   6.546   4.048  0.8161 -1.7507 -0.6276
 6261TIP3   OH218746   0.617   3.179   2.257 -0.8879 -0.2152  0.2641
 6261TIP3    H118747   0.646   3.265   2.290 -0.2202  0.0099 -0.8517
 6261TIP3    H218748   0.521   3.184   2.258 -0.8736  0.0116  1.5396
 6262TIP3   OH218749   7.188   0.932   3.018 -0.6760  0.0021 -0.1174
 6262TIP3    H118750   7.163   0.962   3.105  0.0457  0.3053 -0.0073
 6262TIP3    H218751   7.282   0.946   3.014 -0.6361 -0.4052 -0.7943
 6263TIP3   OH218752   2.742   4.959   5.692  0.5517  0.2550  0.2952
 6263TIP3    H118753   2.690   4.977   5.614  0.9395  0.0165 -0.0239
 6263TIP3    H218754   2.778   5.044   5.717 -0.7489  0.5901  1.0777
 6264TIP3   OH218755   6.024   1.832   4.500 -0.0446  0.5415 -0.4537
 6264TIP3    H118756   6.061   1.855   4.585 -2.5236  2.1236  0.3280
 6264TIP3    H218757   6.074   1.884   4.437 -0.3949  2.0637  0.4669
 6265TIP3   OH218758   0.623   3.720   5.009  0.3774 -0.2607  0.0373
 6265TIP3    H118759   0.567   3.642   5.011 -0.1213  0.0424  2.6070
 6265TIP3    H218760   0.711   3.687   5.025  0.6569 -0.5426 -1.9220
 6266TIP3   OH218761   6.793   1.694   5.595  0.3364 -0.4042  0.2463
 6266TIP3    H118762   6.705   1.660   5.579  0.3971 -0.3512 -0.2011
 6266TIP3    H218763   6.848   1.616   5.602  0.0333 -0.5006  1.9190
 6267TIP3   OH218764   0.491   3.887   2.564  0.3249  0.3650  0.5118
 6267TIP3    H118765   0.531   3.926   2.641 -0.8443  1.3858  0.6288
 6267TIP3    H218766   0.548   3.912   2.491  1.4854 -0.6830  1.0129
 6268TIP3   OH218767   6.921   4.887   0.496  0.5449  0.6695 -0.4253
 6268TIP3    H118768   6.903   4.863   0.405 -1.0850  0.0171  0.0397
 6268TIP3    H218769   6.845   4.940   0.522  0.2513 -0.4080  0.9959
 6269TIP3   OH218770   0.666   5.035   3.652  0.6143 -0.1617  0.2085
 6269TIP3    H118771   0.683   5.106   3.713  2.4970  0.5409 -1.0275
 6269TIP3    H218772   0.711   4.960   3.690  2.4155  0.4559 -0.6015
 6270TIP3   OH218773   6.055   4.415   3.516 -0.1044  0.1300  0.1648
 6270TIP3    H118774   5.976   4.468   3.513 -0.7737 -0.8723 -2.2780
 6270TIP3    H218775   6.078   4.400   3.424  3.1296  0.6297  0.7694
 6271TIP3   OH218776   1.314   6.091   1.414 -0.3446  0.0726 -0.6021
 6271TIP3    H118777   1.345   6.001   1.401 -0.4235 -0.0543  0.0369
 6271TIP3    H218778   1.250   6.104   1.345 -2.2045 -1.2628  0.7439
 6272TIP3   OH218779   4.004   6.115   5.093 -0.3337 -0.0026  0.0889
 6272TIP3    H118780   4.065   6.127   5.166  1.2220 -2.1853 -0.7462
 6272TIP3    H218781   3.939   6.054   5.127  0.1107 -0.6307 -0.1740
 6273TIP3   OH218782   0.182   2.254   2.895 -0.3279 -0.3669 -0.0427
 6273TIP3    H118783   0.211   2.166   2.870  0.0349 -0.7091  1.4687
 6273TIP3    H218784   0.263   2.299   2.919 -0.7500 -0.5031  1.7697
 6274TIP3   OH218785   5.337   0.102   2.685 -0.0567  0.1240  0.0128
 6274TIP3    H118786   5.371   0.013   2.691  1.6370  0.8055  4.2393
 6274TIP3    H218787   5.330   0.131   2.776 -0.5934  4.3061 -1.1416
 6275TIP3   OH218788   1.685   6.389   4.380  0.5261  0.3819  0.1543
 6275TIP3    H118789   1.599   6.418   4.349 -1.0842 -0.6548  3.1509
 6275TIP3    H218790   1.719   6.463   4.431  0.9634  0.4426 -0.2198
 6276TIP3   OH218791   1.046   3.898   1.148 -0.0336 -0.7232  0.1224
 6276TIP3    H118792   1.105   3.907   1.223 -0.3354  1.0160  0.1758
 6276TIP3    H218793   0.969   3.950   1.171 -0.9109 -1.6250 -0.6513
 6277TIP3   OH218794   5.967   6.413   0.869 -0.2466  0.1573 -0.2970
 6277TIP3    H118795   5.959   6.489   0.813 -0.8176  1.1197  1.0348
 6277TIP3    H218796   5.955   6.447   0.958  0.6613 -1.2953  0.4265
 6278TIP3   OH218797   3.086   6.427   0.565  0.0187  0.1227 -0.2805
 6278TIP3    H118798   3.056   6.484   0.636  0.9398 -0.3082  0.4822
 6278TIP3    H218799   3.006   6.398   0.522 -0.5776  0.0690  0.8400
 6279TIP3   OH218800   5.842   2.075   3.719 -0.0702 -0.5319 -0.5273
 6279TIP3    H118801   5.815   1.997   3.768 -0.3239  0.7974  1.5760
 6279TIP3    H218802   5.851   2.143   3.786  1.1464  0.9955 -2.1635
 6280TIP3   OH218803   6.663   3.953   3.283 -0.3637 -0.2539  0.3007
 6280TIP3    H118804   6.578   3.928   3.247 -1.7319  0.9719  2.4528
 6280TIP3    H218805   6.684   3.882   3.344  0.3584 -0.7050 -0.4460
 6281TIP3   OH218806   2.275   3.019   5.824  0.1095  0.0386  0.5752
 6281TIP3    H118807   2.255   3.090   5.885 -0.0887 -1.4854  2.3556
 6281TIP3    H218808   2.193   3.004   5.777  0.1697  0.9936  0.1402
 6282TIP3   OH218809   7.064   2.140   0.065  0.0809  0.0646  0.4298
 6282TIP3    H118810   7.055   2.050   0.098 -0.2762 -0.0010  0.1579
 6282TIP3    H218811   6.986   2.154   0.013  0.3363  0.3959  0.1350
 6283TIP3   OH218812   1.249   6.014   3.585  0.6106 -0.1767  0.1942
 6283TIP3    H118813   1.274   6.106   3.585 -1.2872  0.3627  0.7484
 6283TIP3    H218814   1.248   5.989   3.677 -0.9811 -0.1278  0.2143
 6284TIP3   OH218815   5.377   1.425   3.516 -0.0201  0.1806  0.3389
 6284TIP3    H118816   5.364   1.503   3.570  0.0949 -0.4397  1.3066
 6284TIP3    H218817   5.472   1.415   3.512 -0.0315  0.1672  0.1072
 6285TIP3   OH218818   2.782   4.395   2.527 -0.0818 -0.0229 -0.4218
 6285TIP3    H118819   2.821   4.478   2.499  0.6159  0.0159  0.6094
 6285TIP3    H218820   2.718   4.421   2.594  0.6016 -0.3605  0.3681
 6286TIP3   OH218821   2.842   3.639   5.321 -0.5170 -0.1195 -0.3319
 6286TIP3    H118822   2.827   3.597   5.406 -0.1120 -0.9801 -0.6741
 6286TIP3    H218823   2.754   3.646   5.283 -0.7689  0.8037  0.3937
 6287TIP3   OH218824   2.193   0.195   4.717  0.0570 -0.6121 -0.2489
 6287TIP3    H118825   2.176   0.227   4.629 -0.1857  0.8283  0.3008
 6287TIP3    H218826   2.267   0.135   4.707 -1.0459 -1.8305 -1.6701
 6288TIP3   OH218827   3.623   1.046   3.356 -0.2835  0.1017  0.3662
 6288TIP3    H118828   3.595   1.008   3.439  0.4450 -2.2383 -0.3934
 6288TIP3    H218829   3.715   1.023   3.348 -0.2394  0.6048 -0.9105
 6289TIP3   OH218830   1.673   4.307   5.826 -0.1839 -0.0157  0.2619
 6289TIP3    H118831   1.625   4.303   5.744 -0.2311  0.3459  0.2696
 6289TIP3    H218832   1.765   4.312   5.800 -0.1708 -0.3324  0.2408
 6290TIP3   OH218833   6.346   5.499   5.299  0.2945 -0.7242 -0.4321
 6290TIP3    H118834   6.307   5.491   5.212 -0.4240 -1.6415 -0.0602
 6290TIP3    H218835   6.382   5.412   5.316  0.6615 -0.4730  0.0766
 6291TIP3   OH218836   3.919   5.129   1.399 -0.1742 -0.3465 -0.0228
 6291TIP3    H118837   3.953   5.061   1.341  0.1136 -1.1939  1.1031
 6291TIP3    H218838   3.834   5.095   1.429  0.0739 -0.3280  0.7262
 6292TIP3   OH218839   5.890   5.945   5.205 -0.3114  0.0283 -0.2982
 6292TIP3    H118840   5.874   5.870   5.262 -0.0961  0.2429  0.0457
 6292TIP3    H218841   5.982   5.938   5.180 -0.0489  0.6529  0.4431
 6293TIP3   OH218842   3.466   6.666   4.332 -0.0526 -0.0810  0.0051
 6293TIP3    H118843   3.528   6.696   4.266  0.0803 -0.2161  0.0666
 6293TIP3    H218844   3.413   6.599   4.287  0.8990 -1.1275  0.3917
 6294TIP3   OH218845   0.619   0.408   2.690  1.0268  0.2356  0.2533
 6294TIP3    H118846   0.656   0.493   2.665 -0.3119  0.8410  0.2510
 6294TIP3    H218847   0.615   0.359   2.609  1.7094  0.2020  0.2354
 6295TIP3   OH218848   3.318   4.507   4.153 -0.3711  0.2709 -0.1159
 6295TIP3    H118849   3.317   4.551   4.238 -0.8059  1.5367 -0.7500
 6295TIP3    H218850   3.247   4.549   4.103 -1.6824 -2.0235 -0.3490
 6296TIP3   OH218851   1.582   3.424   4.021  0.0503  0.4450  0.2177
 6296TIP3    H118852   1.655   3.364   4.037 -0.7199 -0.5796 -0.0389
 6296TIP3    H218853   1.610   3.507   4.061  0.5609 -0.4399  1.7607
 6297TIP3   OH218854   4.597   4.731   4.391  0.5919 -0.2587 -0.0210
 6297TIP3    H118855   4.515   4.779   4.403 -1.2108 -2.6695 -1.6741
 6297TIP3    H218856   4.610   4.684   4.473 -0.7704 -1.2970 -0.3548
 6298TIP3   OH218857   6.543   2.667   1.150 -0.0682 -0.3105 -0.3353
 6298TIP3    H118858   6.500   2.750   1.133 -1.0586 -0.6706  0.3155
 6298TIP3    H218859   6.565   2.670   1.244 -1.5236 -1.3830  0.0822
 6299TIP3   OH218860   4.314   0.184   0.771 -0.1123  0.6445 -0.6182
 6299TIP3    H118861   4.283   0.268   0.736 -1.1297 -0.1275 -1.6130
 6299TIP3    H218862   4.377   0.153   0.706  0.6690  0.8706  0.0131
 6300TIP3   OH218863   5.302   0.579   5.596 -0.0908 -0.0351 -0.0286
 6300TIP3    H118864   5.301   0.515   5.668  2.0228 -0.2768 -0.1626
 6300TIP3    H218865   5.377   0.635   5.614 -2.1680  2.8867  0.3769
 6301TIP3   OH218866   5.163   0.587   4.953 -0.7232 -0.1678  0.4506
 6301TIP3    H118867   5.088   0.536   4.982  1.1769 -2.6273  1.5085
 6301TIP3    H218868   5.192   0.635   5.032 -1.0754  0.6461  0.0921
 6302TIP3   OH218869   0.170   4.412   3.040 -0.0852  0.1655  0.0417
 6302TIP3    H118870   0.137   4.501   3.044 -0.4628  0.2288 -2.6056
 6302TIP3    H218871   0.093   4.357   3.052 -0.4843  0.2774 -1.7374
 6303TIP3   OH218872   2.411   0.600   5.305 -0.1075  1.0875 -0.1919
 6303TIP3    H118873   2.475   0.665   5.333  1.5973 -0.4304 -0.4112
 6303TIP3    H218874   2.463   0.529   5.268 -1.9079 -0.3926 -0.0356
 6304TIP3   OH218875   0.431   0.813   2.041 -0.1232  0.1222 -0.2037
 6304TIP3    H118876   0.404   0.723   2.056  0.5116 -0.2094 -0.9256
 6304TIP3    H218877   0.471   0.811   1.953  0.0569  1.0627 -0.1529
 6305TIP3   OH218878   0.160   4.849   1.017 -0.2135 -0.2192 -0.6105
 6305TIP3    H118879   0.113   4.845   0.934 -1.0898 -1.6612 -0.0975
 6305TIP3    H218880   0.100   4.893   1.077  0.0375  0.0063 -0.5246
 6306TIP3   OH218881   6.825   3.788   1.968  0.9924  0.4413  0.1993
 6306TIP3    H118882   6.797   3.767   2.058  1.6366 -0.2226  0.2514
 6306TIP3    H218883   6.751   3.835   1.931  1.3744  2.2597  1.6263
 6307TIP3   OH218884   4.209   5.032   3.043  0.3023 -0.0642  0.5064
 6307TIP3    H118885   4.120   5.018   3.075  0.7703 -0.3935  1.7193
 6307TIP3    H218886   4.244   4.944   3.031 -0.1313  0.0089 -1.8345
 6308TIP3   OH218887   1.383   4.225   3.047  0.0805  0.2746  0.0383
 6308TIP3    H118888   1.394   4.209   3.141 -0.4529  2.7001  0.5670
 6308TIP3    H218889   1.450   4.290   3.026  0.9204 -1.0279 -1.5459
 6309TIP3   OH218890   3.606   4.326   5.669 -0.2638 -0.0521  0.0780
 6309TIP3    H118891   3.600   4.387   5.595  2.2052  0.3677  0.1477
 6309TIP3    H218892   3.656   4.252   5.635 -0.1762 -0.4277  0.9975
 6310TIP3   OH218893   5.959   2.913   3.038  0.1936  0.1652  0.1961
 6310TIP3    H118894   5.950   2.908   2.943  1.1650 -0.1504  0.1102
 6310TIP3    H218895   6.015   2.990   3.052 -0.9233  0.9185  0.5840
 6311TIP3   OH218896   4.510   4.905   5.349  0.3320  0.2354  0.1177
 6311TIP3    H118897   4.603   4.910   5.368 -0.2812  1.3242  3.4177
 6311TIP3    H218898   4.488   4.812   5.358  1.1743 -0.1657 -1.5416
 6312TIP3   OH218899   3.324   5.738   5.362 -0.0227  0.3107  0.0449
 6312TIP3    H118900   3.367   5.769   5.282  1.0724 -1.6753 -0.1806
 6312TIP3    H218901   3.395   5.709   5.418 -0.8766  0.3344  1.1800
 6313TIP3   OH218902   3.214   2.195   5.678  0.1692 -0.1240 -0.1278
 6313TIP3    H118903   3.232   2.107   5.710  1.0473 -1.0783 -2.9631
 6313TIP3    H218904   3.131   2.188   5.631 -0.1130  0.7301  0.2238
 6314TIP3   OH218905   1.294   4.883   3.204  0.0444  0.0483  0.0775
 6314TIP3    H118906   1.296   4.816   3.135 -0.1308  0.2334 -0.1076
 6314TIP3    H218907   1.215   4.934   3.185  0.5131  0.6952 -0.1442
 6315TIP3   OH218908   4.262   5.032   1.393 -0.0740  0.2514  0.0115
 6315TIP3    H118909   4.238   5.123   1.412 -2.1250 -0.7550  3.1697
 6315TIP3    H218910   4.185   4.996   1.348  0.8120  0.0816 -1.4102
 6316TIP3   OH218911   6.386   6.216   4.429  0.0388 -0.5157 -0.2923
 6316TIP3    H118912   6.401   6.225   4.523  0.1919  2.6155 -0.4899
 6316TIP3    H218913   6.364   6.124   4.416  1.8699 -1.4723  2.5097
 6317TIP3   OH218914   0.826   4.904   3.052  0.5536  0.2267 -0.7057
 6317TIP3    H118915   0.750   4.888   2.997  0.3181 -0.4746 -0.1936
 6317TIP3    H218916   0.885   4.831   3.034  0.6548  0.2148 -0.3403
 6318TIP3   OH218917   6.065   4.014   0.194  0.3682 -0.0615  0.0617
 6318TIP3    H118918   6.117   4.091   0.173  1.0518 -0.5927 -0.2166
 6318TIP3    H218919   6.025   4.034   0.279  0.8861  0.4199  0.1960
 6319TIP3   OH218920   5.600   0.632   1.852  0.2315  0.2150 -0.5725
 6319TIP3    H118921   5.565   0.543   1.860 -0.3628  0.4362 -0.6090
 6319TIP3    H218922   5.524   0.688   1.866  0.5367  0.7123 -0.8741
 6320TIP3   OH218923   6.973   6.658   3.645 -0.4578  1.0541  0.1022
 6320TIP3    H118924   6.920   6.668   3.566 -1.6881  0.1986  0.7959
 6320TIP3    H218925   6.961   6.740   3.693 -1.7500  0.5977  0.5918
 6321TIP3   OH218926   2.328   6.246   0.119  0.2293 -0.3167  0.0394
 6321TIP3    H118927   2.237   6.215   0.124  0.4480 -1.3051 -1.6522
 6321TIP3    H218928   2.377   6.184   0.174  0.1404 -0.8680 -0.4973
 6322TIP3   OH218929   1.170   1.176   0.829  0.1941  0.0222  0.1345
 6322TIP3    H118930   1.081   1.212   0.836  0.5745  0.6503  2.0590
 6322TIP3    H218931   1.193   1.151   0.918  1.2068 -2.0133 -0.6559
 6323TIP3   OH218932   6.332   4.943   1.219  0.1114  0.0498  0.0094
 6323TIP3    H118933   6.334   4.986   1.305 -2.2179  0.7170 -0.1967
 6323TIP3    H218934   6.411   4.975   1.174  0.5221  0.9518  1.3167
 6324TIP3   OH218935   1.350   5.770   5.557 -0.1004  0.4310 -0.1136
 6324TIP3    H118936   1.367   5.780   5.463  1.5009 -0.8471 -0.0087
 6324TIP3    H218937   1.381   5.852   5.596  0.3362  0.4930 -0.5845
 6325TIP3   OH218938   3.108   4.527   1.400 -0.3287  0.2791  0.3089
 6325TIP3    H118939   3.181   4.587   1.419 -0.4290  0.4402  0.1829
 6325TIP3    H218940   3.130   4.447   1.448 -1.0573  0.9969  1.9204
 6326TIP3   OH218941   3.930   5.824   3.509  0.2124 -0.1076 -0.4605
 6326TIP3    H118942   3.997   5.892   3.501 -0.7681  0.9783  0.1751
 6326TIP3    H218943   3.889   5.819   3.423  0.6022 -0.2425 -0.6407
 6327TIP3   OH218944   3.627   6.344   1.202 -0.2237  0.3543 -0.2338
 6327TIP3    H118945   3.685   6.410   1.241 -0.0588 -0.4807  0.9992
 6327TIP3    H218946   3.678   6.306   1.131  1.5671 -1.6303  1.9415
 6328TIP3   OH218947   3.736   1.670   4.030  0.1283  0.2201 -0.4466
 6328TIP3    H118948   3.705   1.758   4.011 -1.8913 -0.3172  0.1722
 6328TIP3    H218949   3.676   1.637   4.097  3.2066 -0.2122  2.3426
 6329TIP3   OH218950   5.456   3.023   2.134 -0.3114  0.1115 -0.3180
 6329TIP3    H118951   5.547   3.006   2.157 -0.2028  3.1446  2.1624
 6329TIP3    H218952   5.405   2.972   2.197 -0.2007  0.9312  0.4611
 6330TIP3   OH218953   4.089   1.579   5.512 -0.3521  0.0358  0.2189
 6330TIP3    H118954   4.022   1.513   5.529 -1.3101  0.5265 -1.4541
 6330TIP3    H218955   4.063   1.654   5.566 -0.7411 -0.0309  0.1257
 6331TIP3   OH218956   2.070   0.950   3.482  0.3427 -0.9476  0.9283
 6331TIP3    H118957   2.150   0.929   3.433  0.9229 -0.6913  1.7401
 6331TIP3    H218958   2.071   1.045   3.491 -1.7681 -0.5432 -1.8745
 6332TIP3   OH218959   1.289   0.126   2.404 -0.1423 -0.2175  0.0105
 6332TIP3    H118960   1.368   0.112   2.352  0.0287  0.3334  0.1105
 6332TIP3    H218961   1.257   0.038   2.423  0.6256 -0.4610  0.2387
 6333TIP3   OH218962   2.249   1.400   2.650  0.2229 -0.6020 -0.0713
 6333TIP3    H118963   2.326   1.372   2.699 -0.1613 -0.9168  0.3610
 6333TIP3    H218964   2.176   1.353   2.691 -0.3829  0.6793  0.3837
 6334TIP3   OH218965   1.915   3.420   3.672  0.2374  0.3367 -0.1745
 6334TIP3    H118966   1.898   3.336   3.716 -0.1866 -0.3355 -1.5498
 6334TIP3    H218967   1.832   3.441   3.629  0.9331  0.4020 -1.5301
 6335TIP3   OH218968   1.828   3.983   2.205 -0.2778 -0.8255  0.4413
 6335TIP3    H118969   1.820   4.043   2.279 -2.7936 -2.8330  1.9550
 6335TIP3    H218970   1.811   4.038   2.128  0.2893  0.9009  1.4946
 6336TIP3   OH218971   3.863   3.035   1.023 -0.0115  0.1401 -0.0303
 6336TIP3    H118972   3.833   3.118   1.059 -0.7033 -0.9851  2.2087
 6336TIP3    H218973   3.823   2.969   1.080 -1.1915 -1.8549 -2.9673
 6337TIP3   OH218974   3.409   0.117   5.648 -0.6856  0.0083  0.0247
 6337TIP3    H118975   3.330   0.079   5.689 -0.4482 -0.5694 -0.0387
 6337TIP3    H218976   3.481   0.062   5.680 -0.4009  0.0481 -0.5348
 6338TIP3   OH218977   2.771   6.751   2.925 -0.2263  0.4947  0.2728
 6338TIP3    H118978   2.829   6.730   2.998 -0.9448 -0.1299  0.6741
 6338TIP3    H218979   2.769   6.672   2.872  0.9520  1.2141 -0.9056
 6339TIP3   OH218980   3.826   2.653   4.284 -0.4683  0.4221 -0.1450
 6339TIP3    H118981   3.777   2.584   4.239  1.1438 -0.6242 -0.3928
 6339TIP3    H218982   3.844   2.719   4.216  0.5553 -0.3755 -0.6791
 6340TIP3   OH218983   0.736   3.211   0.810 -0.1595  0.3619 -0.0268
 6340TIP3    H118984   0.684   3.280   0.852  1.6242  1.4211  0.5517
 6340TIP3    H218985   0.701   3.206   0.721 -3.0233 -0.8853  1.0347
 6341TIP3   OH218986   4.197   4.334   5.605 -0.0373  0.5030 -0.6639
 6341TIP3    H118987   4.152   4.404   5.559 -0.9459 -0.4430 -1.2596
 6341TIP3    H218988   4.290   4.359   5.601 -0.4252  2.1825  0.0712
 6342TIP3   OH218989   3.417   3.244   1.766 -0.0269 -0.6801 -0.1530
 6342TIP3    H118990   3.455   3.214   1.684  0.9483 -0.2500  0.1258
 6342TIP3    H218991   3.420   3.167   1.824  1.4742 -0.3584  0.2216
 6343TIP3   OH218992   3.415   0.110   4.582  0.1143  0.1184  0.7869
 6343TIP3    H118993   3.491   0.168   4.574  0.1124  0.0653  0.3371
 6343TIP3    H218994   3.362   0.130   4.504  1.0732 -1.8877 -0.4358
 6344TIP3   OH218995   3.558   3.746   4.359  0.1466  0.1188 -0.2268
 6344TIP3    H118996   3.630   3.686   4.339  0.1232 -0.3276  0.9739
 6344TIP3    H218997   3.489   3.689   4.394 -0.3555  0.6932 -0.2708
 6345TIP3   OH218998   4.424   1.392   0.222 -0.3091 -0.4535  0.0002
 6345TIP3    H118999   4.497   1.442   0.185  1.7167 -3.5924 -0.6093
 6345TIP3    H219000   4.346   1.441   0.195  1.4430  1.9147 -1.1761
 6346TIP3   OH219001   2.966   3.702   4.170 -0.4746 -0.0155 -0.1905
 6346TIP3    H119002   2.962   3.609   4.148  0.4352 -0.1582  0.1581
 6346TIP3    H219003   2.985   3.746   4.087  0.1252 -0.2561 -0.1888
 6347TIP3   OH219004   0.797   0.912   5.302 -0.0160  0.5735  0.1494
 6347TIP3    H119005   0.836   0.832   5.267 -1.2097 -0.2051  0.5353
 6347TIP3    H219006   0.870   0.973   5.307  0.6144  0.0449 -1.6645
 6348TIP3   OH219007   3.697   6.378   4.917 -0.1150 -0.3675 -0.2226
 6348TIP3    H119008   3.644   6.450   4.952  0.1501  0.4427 -1.4179
 6348TIP3    H219009   3.730   6.412   4.834  1.0198 -1.4364 -0.2241
 6349TIP3   OH219010   0.635   0.982   2.224 -0.2040  0.7071  0.1037
 6349TIP3    H119011   0.555   0.932   2.208  1.3007 -1.8148  0.0762
 6349TIP3    H219012   0.639   1.044   2.151 -2.7685  1.8527  0.8157
 6350TIP3   OH219013   5.597   0.702   3.234 -0.2512 -0.3370  0.3783
 6350TIP3    H119014   5.600   0.630   3.297  1.5096  0.8054  1.6808
 6350TIP3    H219015   5.681   0.745   3.243  0.1136 -0.1481 -2.8743
 6351TIP3   OH219016   4.860   2.530   1.145  0.3418  0.1933 -0.6235
 6351TIP3    H119017   4.769   2.517   1.119  0.3351 -1.1068 -0.0086
 6351TIP3    H219018   4.875   2.624   1.135 -1.5285  0.6799  0.7276
 6352TIP3   OH219019   0.556   0.697   0.875  0.0706 -0.5020 -0.4920
 6352TIP3    H119020   0.511   0.781   0.870 -0.2493 -0.6479 -0.1505
 6352TIP3    H219021   0.526   0.650   0.797  0.2707 -0.2905 -0.6977
 6353TIP3   OH219022   4.324   3.254   4.324 -0.7421 -0.2034  0.2825
 6353TIP3    H119023   4.306   3.338   4.284 -0.9142 -0.5791 -0.4379
 6353TIP3    H219024   4.342   3.274   4.416 -0.7332  0.6174  0.1024
 6354TIP3   OH219025   3.542   3.408  -0.006 -0.6482  0.4079  0.1470
 6354TIP3    H119026   3.487   3.353  -0.063  1.3239 -1.6943  0.1413
 6354TIP3    H219027   3.511   3.389   0.082  1.1358 -2.2292  0.3085
 6355TIP3   OH219028   6.982   5.710   1.441 -0.5817 -0.2428 -0.3215
 6355TIP3    H119029   6.919   5.699   1.370 -1.1560  0.0471  0.1335
 6355TIP3    H219030   7.046   5.641   1.427  1.9051  2.3644 -3.7534
 6356TIP3   OH219031   3.214   3.687   3.601  0.1725 -0.3841 -0.0141
 6356TIP3    H119032   3.220   3.624   3.529 -0.6189 -0.4598 -0.0253
 6356TIP3    H219033   3.304   3.713   3.618  0.4668 -1.1488 -0.3448
 6357TIP3   OH219034   4.698   5.409   2.194  0.1357  0.3320  0.2730
 6357TIP3    H119035   4.692   5.320   2.229  2.0800 -0.6546 -1.6585
 6357TIP3    H219036   4.792   5.429   2.199 -0.2909  2.3533  0.7970
 6358TIP3   OH219037   0.031   1.601   0.357 -0.2829 -0.6783 -0.1488
 6358TIP3    H119038   0.075   1.639   0.280  0.2120 -2.7655 -0.9800
 6358TIP3    H219039   0.103   1.577   0.416 -0.6840  1.4793  1.3389
 6359TIP3   OH219040   1.608   0.887   0.394 -0.6234 -0.5307  0.1075
 6359TIP3    H119041   1.555   0.868   0.316 -0.1857 -0.0521 -0.3201
 6359TIP3    H219042   1.557   0.952   0.442  0.5513  1.6660 -1.4522
 6360TIP3   OH219043   1.922   2.882   5.169 -0.3266 -0.7654  0.3228
 6360TIP3    H119044   1.928   2.827   5.247  0.0167 -1.7975 -0.4167
 6360TIP3    H219045   2.014   2.896   5.143 -0.4637 -1.0854 -0.3466
 6361TIP3   OH219046   0.759   5.703   1.206 -0.3668  0.0939  0.3167
 6361TIP3    H119047   0.671   5.666   1.198 -0.2233  0.0945 -1.7291
 6361TIP3    H219048   0.782   5.730   1.117  0.8210  2.1560  1.1859
 6362TIP3   OH219049   1.181   3.997   3.628  0.6612 -0.5253  0.2996
 6362TIP3    H119050   1.253   4.041   3.584 -0.3368  1.4258  0.4667
 6362TIP3    H219051   1.171   4.045   3.711  0.9410 -2.5515  1.5804
 6363TIP3   OH219052   6.647   1.959   2.184 -0.1009  0.3448 -0.3859
 6363TIP3    H119053   6.661   1.899   2.110 -0.9228 -1.9339  1.1968
 6363TIP3    H219054   6.555   1.984   2.177  0.4587  2.2387 -1.5559
 6364TIP3   OH219055   1.898   0.673   4.417  0.2043  0.4336  0.8008
 6364TIP3    H119056   1.812   0.643   4.447 -0.8804 -1.7872 -3.6540
 6364TIP3    H219057   1.886   0.688   4.323  4.5898  0.5567  0.0818
 6365TIP3   OH219058   2.833   1.936   3.167 -0.0752  0.0518 -0.1175
 6365TIP3    H119059   2.903   1.904   3.223 -1.2463  0.0394  1.4138
 6365TIP3    H219060   2.827   1.873   3.096 -0.4369 -1.5852  1.2996
 6366TIP3   OH219061   2.596   3.383   2.767  0.2217 -0.4128 -0.1640
 6366TIP3    H119062   2.512   3.351   2.733  0.0520  0.2622 -0.3983
 6366TIP3    H219063   2.572   3.433   2.845  0.2383  1.0620 -1.0797
 6367TIP3   OH219064   3.844   4.517   4.313  0.3064 -0.3419  0.0077
 6367TIP3    H119065   3.906   4.538   4.243  1.0894  0.5707  0.9617
 6367TIP3    H219066   3.773   4.581   4.301 -0.5897 -1.4949 -1.1898
 6368TIP3   OH219067   3.156   4.140   4.278  1.0101 -0.4678 -0.3680
 6368TIP3    H119068   3.155   4.146   4.183 -0.5518  0.4506 -0.3364
 6368TIP3    H219069   3.155   4.230   4.309  0.8196 -0.7516  0.5049
 6369TIP3   OH219070   0.878   2.795   4.927  0.3218 -0.5076 -0.1705
 6369TIP3    H119071   0.865   2.704   4.952 -0.9658 -1.1722 -2.8207
 6369TIP3    H219072   0.968   2.799   4.893  0.5875 -0.6192  0.5104
 6370TIP3   OH219073   5.282   1.876   2.606  0.4662 -0.0615  0.0674
 6370TIP3    H119074   5.290   1.797   2.553 -0.5004  0.5737 -1.0786
 6370TIP3    H219075   5.265   1.844   2.694  0.8357 -1.1274 -0.2283
 6371TIP3   OH219076   6.907   3.307   3.500 -0.4109 -0.5513 -0.0022
 6371TIP3    H119077   6.830   3.273   3.455  0.2318  0.4164 -1.9205
 6371TIP3    H219078   6.959   3.349   3.432  0.7262  0.8312  1.6240
 6372TIP3   OH219079   6.701   4.078   4.635 -0.0926  0.3028  0.0356
 6372TIP3    H119080   6.607   4.073   4.653 -0.1902  0.0012 -0.5346
 6372TIP3    H219081   6.706   4.106   4.544  0.3680 -0.1487 -0.0800
 6373TIP3   OH219082   1.658   5.311   2.158 -0.0981 -0.0857  0.2700
 6373TIP3    H119083   1.628   5.360   2.081 -0.2395 -0.1358  0.2931
 6373TIP3    H219084   1.718   5.371   2.202 -1.0916  0.4762  0.8741
 6374TIP3   OH219085   2.341   1.059   4.637 -0.2522  0.5257 -0.3248
 6374TIP3    H119086   2.356   1.004   4.714  1.5172  2.4274  0.7694
 6374TIP3    H219087   2.271   1.014   4.589  0.6116 -2.2889  0.8431
 6375TIP3   OH219088   4.805   5.273   2.470  0.2265 -0.1113  1.0221
 6375TIP3    H119089   4.738   5.220   2.513  0.6659 -2.7500 -1.2543
 6375TIP3    H219090   4.772   5.363   2.474 -2.9464 -1.1665  0.8972
 6376TIP3   OH219091   5.589   0.331   2.759  0.0635 -0.6886  0.1189
 6376TIP3    H119092   5.678   0.357   2.785  1.2763 -2.4768 -1.9323
 6376TIP3    H219093   5.564   0.394   2.692 -0.7713  0.5039  1.4695
 6377TIP3   OH219094   4.831   6.281   3.104  0.7050 -0.7280  0.0351
 6377TIP3    H119095   4.748   6.256   3.063  0.2826  1.6630 -0.6857
 6377TIP3    H219096   4.829   6.238   3.190 -0.8371 -1.4677 -0.3382
 6378TIP3   OH219097   2.073   5.738   3.717 -0.2473  0.0349 -0.2024
 6378TIP3    H119098   2.133   5.693   3.776  0.5780  1.5140  0.1258
 6378TIP3    H219099   2.075   5.686   3.637  1.7950  0.2595 -0.3406
 6379TIP3   OH219100   3.610   2.459   1.656  0.0051 -0.2953  0.0349
 6379TIP3    H119101   3.553   2.421   1.589  0.5332  0.2127 -0.7217
 6379TIP3    H219102   3.583   2.417   1.738 -1.6627  0.1794 -0.2551
 6380TIP3   OH219103   6.492   3.634   4.019  0.2366 -0.1074  0.5169
 6380TIP3    H119104   6.568   3.602   4.068  1.7955 -0.4005 -1.9281
 6380TIP3    H219105   6.457   3.555   3.976  0.9496  0.5622 -1.4106
 6381TIP3   OH219106   0.643   0.800   2.451  0.3688 -0.0555 -0.1629
 6381TIP3    H119107   0.683   0.817   2.367 -0.6413  3.6867 -0.0877
 6381TIP3    H219108   0.549   0.809   2.435  0.1755  1.1740  1.3486
 6382TIP3   OH219109   3.174   0.843   1.423 -0.1283  0.0137 -0.1166
 6382TIP3    H119110   3.089   0.829   1.465 -0.2533  0.9044 -0.0450
 6382TIP3    H219111   3.152   0.863   1.332  0.1505 -2.1155 -0.7099
 6383TIP3   OH219112   6.059   3.156   2.205 -0.4359 -0.2322 -0.2493
 6383TIP3    H119113   6.067   3.100   2.128 -0.2662  0.7038 -0.9335
 6383TIP3    H219114   6.089   3.242   2.175 -3.1101  0.8917  0.0186
 6384TIP3   OH219115   3.629   0.292   4.603 -0.2435 -0.0325  0.1073
 6384TIP3    H119116   3.716   0.328   4.618 -0.8338  1.2049  0.7033
 6384TIP3    H219117   3.595   0.274   4.691 -0.1680 -1.6316 -0.1477
 6385TIP3   OH219118   1.452   4.862   3.597 -0.7308 -0.3783  0.2998
 6385TIP3    H119119   1.500   4.819   3.526  1.1161  0.0862  1.1774
 6385TIP3    H219120   1.447   4.954   3.571 -1.3701 -0.4637  0.1104
 6386TIP3   OH219121   6.021   0.491   3.493 -0.1779 -0.1526 -0.1655
 6386TIP3    H119122   6.077   0.490   3.571 -0.1691  1.7736 -0.0965
 6386TIP3    H219123   6.080   0.469   3.421  0.6487  1.4738 -0.0408
 6387TIP3   OH219124   6.525   2.725   5.684 -0.1514  0.0278 -0.2844
 6387TIP3    H119125   6.460   2.659   5.709  0.7148  0.1622  2.6507
 6387TIP3    H219126   6.478   2.808   5.689  0.2113  0.1656  2.2047
 6388TIP3   OH219127   0.099   2.921   0.605 -0.5236  0.2122  0.5149
 6388TIP3    H119128   0.045   2.920   0.526  2.6916  1.4771 -1.9059
 6388TIP3    H219129   0.122   3.013   0.617  0.1946 -0.1494  2.1268
 6389TIP3   OH219130   3.557   4.017   2.631 -0.1533 -0.4489  0.2832
 6389TIP3    H119131   3.550   4.096   2.578 -1.4659  0.4582  1.7550
 6389TIP3    H219132   3.497   3.955   2.590  0.4876 -0.5301 -0.5609
 6390TIP3   OH219133   3.777   3.214   3.181  0.5231  0.2567 -0.0355
 6390TIP3    H119134   3.732   3.152   3.124 -0.8983  0.9107  0.3299
 6390TIP3    H219135   3.869   3.189   3.176  0.3075 -0.2890 -1.8714
 6391TIP3   OH219136   6.433   4.931   5.547 -0.0923  0.0088 -0.2231
 6391TIP3    H119137   6.521   4.896   5.553  1.0241  2.5775 -0.4837
 6391TIP3    H219138   6.396   4.919   5.634  1.2666  0.7090  0.4782
 6392TIP3   OH219139   4.599   1.825   1.560 -0.2017 -0.3984 -0.3945
 6392TIP3    H119140   4.643   1.815   1.645  2.4154  1.1103 -1.4650
 6392TIP3    H219141   4.573   1.917   1.557 -0.5737 -0.5213 -1.1085
 6393TIP3   OH219142   6.693   2.290   3.119 -0.0627 -0.2595  0.5800
 6393TIP3    H119143   6.661   2.354   3.054 -0.0303 -1.3052 -0.4945
 6393TIP3    H219144   6.614   2.261   3.165 -0.4207 -1.2900 -0.6475
 6394TIP3   OH219145   2.239   1.568   3.969 -0.7701  0.1636  0.3544
 6394TIP3    H119146   2.313   1.528   3.924 -1.2071  0.0008 -0.2240
 6394TIP3    H219147   2.277   1.645   4.013  0.1154 -0.9571  1.6292
 6395TIP3   OH219148   1.473   4.107   3.918 -0.2784 -0.7154 -0.0919
 6395TIP3    H119149   1.515   4.024   3.937 -1.5461 -0.9610  1.8646
 6395TIP3    H219150   1.383   4.085   3.896 -1.2474  0.1978  2.5768
 6396TIP3   OH219151   4.136   0.396   0.658 -0.2693  0.4422 -0.0999
 6396TIP3    H119152   4.168   0.449   0.585 -0.6333 -0.7449 -1.1482
 6396TIP3    H219153   4.102   0.460   0.720  0.4090  1.5004 -0.7822
 6397TIP3   OH219154   7.121   6.340   2.727 -0.8623  0.4304  0.3275
 6397TIP3    H119155   7.143   6.247   2.725  0.4268  0.7248 -0.0147
 6397TIP3    H219156   7.025   6.342   2.732 -0.9332 -0.9015 -0.1131
 6398TIP3   OH219157   6.023   5.470   2.590  0.1230 -0.5306 -0.0319
 6398TIP3    H119158   6.083   5.514   2.649 -0.5393 -1.5448  1.4681
 6398TIP3    H219159   6.060   5.382   2.580 -0.9841 -1.1023  0.7554
 6399TIP3   OH219160   2.140   0.735   1.910 -0.5752 -0.0217 -0.9839
 6399TIP3    H119161   2.184   0.686   1.980  0.4340  0.1660 -1.4659
 6399TIP3    H219162   2.126   0.670   1.841 -0.4068  0.0747 -1.1102
 6400TIP3   OH219163   0.399   5.631   0.331 -0.3024 -0.1387 -0.6520
 6400TIP3    H119164   0.313   5.667   0.309 -0.4171 -0.2687 -0.4153
 6400TIP3    H219165   0.460   5.703   0.312 -0.6364  0.6093  0.9387
 6401TIP3   OH219166   6.607   2.981   1.593  0.7303 -0.3250 -0.1424
 6401TIP3    H119167   6.622   3.027   1.510  1.2112 -1.1916 -0.5474
 6401TIP3    H219168   6.609   3.051   1.659 -1.3034  0.6118 -0.9936
 6402TIP3   OH219169   1.952   1.319   5.050  0.5600  0.8239 -0.2476
 6402TIP3    H119170   1.859   1.310   5.072  0.5594  0.6933 -0.3029
 6402TIP3    H219171   1.980   1.398   5.095  0.0806  1.6318 -1.3056
 6403TIP3   OH219172   7.041   0.950   3.297  0.2722  0.7251 -0.4389
 6403TIP3    H119173   6.982   0.989   3.233  0.5513  2.0236  0.0599
 6403TIP3    H219174   7.064   1.022   3.356 -0.3552 -0.5078  1.4162
 6404TIP3   OH219175   4.572   6.582   1.842 -0.1487 -0.0399 -0.6897
 6404TIP3    H119176   4.590   6.597   1.935  0.4431  0.0292 -0.8106
 6404TIP3    H219177   4.477   6.581   1.836 -0.2026 -1.0407  0.0786
 6405TIP3   OH219178   4.167   5.219   2.401  0.5375  0.3201 -0.3594
 6405TIP3    H119179   4.156   5.283   2.330 -1.3439  0.6300  0.1519
 6405TIP3    H219180   4.111   5.251   2.471  0.1958 -1.4513  0.2362
 6406TIP3   OH219181   0.598   2.269   0.649  0.3692 -0.4574  0.0863
 6406TIP3    H119182   0.521   2.326   0.648  0.2118 -0.6437  0.8446
 6406TIP3    H219183   0.651   2.303   0.722  1.4491  0.2426 -0.9881
 6407TIP3   OH219184   7.043   3.633   3.541 -0.5186  0.6440  0.0673
 6407TIP3    H119185   7.125   3.665   3.501 -0.3934 -0.0918 -0.2885
 6407TIP3    H219186   6.986   3.615   3.466 -0.4853 -0.2101  0.2337
 6408TIP3   OH219187   5.847   4.427   0.993  0.0244 -0.6174  0.2062
 6408TIP3    H119188   5.842   4.489   1.066  2.6896 -0.4857  0.3650
 6408TIP3    H219189   5.872   4.344   1.033 -3.6190 -2.0047  0.0151
 6409TIP3   OH219190   4.010   5.846   2.163  0.2344 -0.3146 -0.1236
 6409TIP3    H119191   4.052   5.793   2.232  0.0482  1.0018  1.0441
 6409TIP3    H219192   4.047   5.933   2.174  1.6407 -0.4435 -2.9688
 6410TIP3   OH219193   3.349   2.876   3.584 -0.2807  0.3266 -0.7510
 6410TIP3    H119194   3.351   2.805   3.647 -1.0332  0.7884 -0.1880
 6410TIP3    H219195   3.392   2.949   3.628 -0.9837  0.7098 -0.6773
 6411TIP3   OH219196   6.696   1.197   3.653  0.0361  0.0308 -0.1751
 6411TIP3    H119197   6.761   1.128   3.639 -0.4753 -0.3205 -0.9403
 6411TIP3    H219198   6.671   1.188   3.745  0.3853 -0.4396 -0.1180
 6412TIP3   OH219199   5.934   5.752   4.144 -0.3636 -0.2737 -0.4226
 6412TIP3    H119200   5.855   5.707   4.174  0.8774 -2.1323  0.2243
 6412TIP3    H219201   5.935   5.834   4.192 -1.2488 -0.8088  0.5393
 6413TIP3   OH219202   5.264   5.771   5.364 -0.3813 -0.5144 -0.3237
 6413TIP3    H119203   5.330   5.720   5.317  0.9875  1.8967 -1.1909
 6413TIP3    H219204   5.240   5.716   5.439  1.6506 -2.0104 -0.6976
 6414TIP3   OH219205   5.323   2.737   3.366 -0.2048  0.3054 -0.0135
 6414TIP3    H119206   5.410   2.743   3.326 -0.1311  0.1945  0.1317
 6414TIP3    H219207   5.338   2.758   3.458 -0.7308  3.0063 -0.4619
 6415TIP3   OH219208   2.073   6.341   0.708  0.6541  0.4331 -0.0064
 6415TIP3    H119209   2.023   6.268   0.745  1.9935 -1.0679 -1.0090
 6415TIP3    H219210   2.010   6.413   0.702 -0.7169 -0.6228  1.0186
 6416TIP3   OH219211   3.545   2.855   5.556  0.5109  0.1570  0.3924
 6416TIP3    H119212   3.635   2.825   5.552  0.1505 -0.8615 -0.3142
 6416TIP3    H219213   3.513   2.850   5.466  0.0418  1.4760  0.4522
 6417TIP3   OH219214   5.724   2.851   4.321  0.0733 -0.1994  0.7874
 6417TIP3    H119215   5.649   2.889   4.367  0.9731  0.6870  1.5708
 6417TIP3    H219216   5.775   2.927   4.292 -0.8124 -0.6837 -2.3914
 6418TIP3   OH219217   1.955   0.266   4.251  0.2365  0.1732  0.0229
 6418TIP3    H119218   1.868   0.298   4.227  0.1044  0.5466  0.9640
 6418TIP3    H219219   1.943   0.173   4.268 -0.3160  0.5253  1.6787
 6419TIP3   OH219220   3.336   6.419   4.439  0.2469 -0.1220 -0.3978
 6419TIP3    H119221   3.430   6.425   4.420  0.5395 -0.7143  0.7721
 6419TIP3    H219222   3.327   6.336   4.486 -0.6954  0.4165  0.4024
 6420TIP3   OH219223   5.938   2.654   2.763  0.1580  0.0133 -0.0924
 6420TIP3    H119224   5.952   2.747   2.783 -1.5817  0.2648  0.1701
 6420TIP3    H219225   5.874   2.655   2.692  0.3631 -0.9885 -0.2997
 6421TIP3   OH219226   5.258   4.389   0.175 -0.1136 -0.6764 -0.1829
 6421TIP3    H119227   5.245   4.406   0.268  3.5299 -1.4638  0.5946
 6421TIP3    H219228   5.258   4.294   0.167 -1.2700 -0.6231 -1.2051
 6422TIP3   OH219229   1.731   4.983   1.299 -0.0157 -0.0267  0.8662
 6422TIP3    H119230   1.708   5.061   1.249 -0.2515 -0.2386  0.6428
 6422TIP3    H219231   1.684   4.993   1.382  1.3979  0.9615  1.5897
 6423TIP3   OH219232   5.202   6.037   5.057  0.4445  0.2729 -0.2500
 6423TIP3    H119233   5.170   6.078   4.976 -0.1690 -0.6399 -0.4868
 6423TIP3    H219234   5.133   5.975   5.081  1.7572 -1.3302 -0.4598
 6424TIP3   OH219235   6.697   0.875   4.545  0.4241 -0.4640 -0.0503
 6424TIP3    H119236   6.731   0.862   4.457 -0.2152 -0.5235 -0.2896
 6424TIP3    H219237   6.605   0.849   4.540  0.5267 -1.0270  0.7738
 6425TIP3   OH219238   6.735   6.162   0.853 -0.4079 -0.0540  0.5763
 6425TIP3    H119239   6.795   6.149   0.926 -0.4083  1.7976  0.9544
 6425TIP3    H219240   6.760   6.095   0.789  2.0538  0.6178  0.7234
 6426TIP3   OH219241   5.958   4.937   4.520 -0.2464  0.3023  0.1240
 6426TIP3    H119242   6.024   4.989   4.474  1.3416 -2.2802 -0.7542
 6426TIP3    H219243   5.883   4.934   4.461  0.5210 -0.2342 -0.8513
 6427TIP3   OH219244   5.428   6.512   1.895  0.3206 -0.1508 -0.3414
 6427TIP3    H119245   5.367   6.485   1.826 -2.9961 -1.0780  2.6743
 6427TIP3    H219246   5.445   6.432   1.944  1.0657  0.8035  1.0076
 6428TIP3   OH219247   1.058   3.644   3.037  0.4991  0.3454  0.0903
 6428TIP3    H119248   1.075   3.715   3.098  1.6749 -0.2076  0.4286
 6428TIP3    H219249   1.009   3.579   3.088  1.4628 -0.1075  0.4570
 6429TIP3   OH219250   5.017   3.476   0.105 -0.1789  0.1750  0.3194
 6429TIP3    H119251   4.982   3.430   0.182  0.3436  1.2476  1.2289
 6429TIP3    H219252   5.103   3.437   0.091  0.0864  0.5602  0.8289
 6430TIP3   OH219253   6.454   3.530   1.712 -0.0312  0.3676 -0.1972
 6430TIP3    H119254   6.466   3.526   1.807  0.5132  0.5394 -0.2582
 6430TIP3    H219255   6.536   3.497   1.676  0.3110  1.6234 -0.6192
 6431TIP3   OH219256   4.335   3.929   2.833 -0.0364  0.9898 -0.2294
 6431TIP3    H119257   4.309   3.860   2.895  3.4000  1.3859  1.9430
 6431TIP3    H219258   4.332   3.886   2.747 -2.8193 -0.2505  0.3650
 6432TIP3   OH219259   7.121   5.688   2.705 -0.3351 -0.7176 -0.4124
 6432TIP3    H119260   7.141   5.744   2.780  2.8195 -2.8039  0.5180
 6432TIP3    H219261   7.206   5.667   2.667 -1.6346 -2.1703 -2.7501
 6433TIP3   OH219262   4.056   1.110   5.797  0.1768 -0.0803  0.2853
 6433TIP3    H119263   3.972   1.150   5.774  1.5019  2.3880 -0.6250
 6433TIP3    H219264   4.095   1.084   5.713  0.6502 -0.4951  0.6250
 6434TIP3   OH219265   5.722   3.296   1.920  0.3311  0.3610 -0.2176
 6434TIP3    H119266   5.760   3.219   1.879  0.5799  0.6366 -0.5133
 6434TIP3    H219267   5.797   3.349   1.947  0.1652  0.3001  0.3676
 6435TIP3   OH219268   0.327   1.867   4.087  0.0851  0.2249  0.3444
 6435TIP3    H119269   0.240   1.886   4.052  0.1712  2.9490  1.3938
 6435TIP3    H219270   0.312   1.801   4.155 -0.7728 -1.1699 -1.1340
 6436TIP3   OH219271   0.664   3.368   4.985 -0.3106  0.0153  0.3268
 6436TIP3    H119272   0.655   3.295   4.923  0.6023  0.5198 -0.4227
 6436TIP3    H219273   0.678   3.445   4.930  2.2291  0.2267  1.1493
 6437TIP3   OH219274   0.099   6.039   3.201  0.5188 -0.2355  0.0866
 6437TIP3    H119275   0.046   6.052   3.279 -4.3099 -0.5209 -2.7606
 6437TIP3    H219276   0.113   5.945   3.197 -0.5898 -0.4074 -0.1127
 6438TIP3   OH219277   0.602   2.499   4.915 -0.9870  0.2848 -0.1171
 6438TIP3    H119278   0.559   2.574   4.873 -2.9868 -1.1285 -0.7404
 6438TIP3    H219279   0.649   2.456   4.844 -0.7570  0.3059  0.0201
 6439TIP3   OH219280   3.367   0.002   5.388  0.2698  0.0545  0.2674
 6439TIP3    H119281   3.361   0.044   5.474  1.1497  0.9144 -0.0704
 6439TIP3    H219282   3.459   0.011   5.364  0.0896 -0.4521 -0.6341
 6440TIP3   OH219283   2.979   4.278   2.854  0.3298  0.0524  0.1583
 6440TIP3    H119284   2.991   4.309   2.944  0.4174  0.3302  0.0506
 6440TIP3    H219285   2.885   4.265   2.845  0.3401 -0.1609  0.3522
 6441TIP3   OH219286   5.564   4.508   4.353  0.0348 -0.2532  0.4463
 6441TIP3    H119287   5.531   4.445   4.288 -0.0802 -1.0622  1.2724
 6441TIP3    H219288   5.632   4.557   4.306 -0.8917  0.0297 -0.6536
 6442TIP3   OH219289   4.913   2.164   0.412 -0.2203  0.0555  0.6247
 6442TIP3    H119290   4.961   2.205   0.340  0.2042  1.2303  1.5584
 6442TIP3    H219291   4.978   2.152   0.481 -0.1651 -2.7989  0.2159
 6443TIP3   OH219292   3.371   2.069   0.159 -0.4599  0.0322  0.2661
 6443TIP3    H119293   3.303   2.118   0.205 -0.4376  1.0865 -0.7681
 6443TIP3    H219294   3.323   2.016   0.095 -0.4602 -1.0797  1.1642
 6444TIP3   OH219295   0.856   5.541   0.635  0.5294 -0.2477 -0.4887
 6444TIP3    H119296   0.849   5.457   0.680  2.0429 -0.2609 -0.2385
 6444TIP3    H219297   0.766   5.563   0.612 -0.0739 -1.1418  0.8970
 6445TIP3   OH219298   0.947   2.284   3.976 -0.1105  0.3093  0.0947
 6445TIP3    H119299   1.018   2.261   3.917  0.9602  1.4652  0.8853
 6445TIP3    H219300   0.869   2.286   3.920  0.2561 -1.9447 -0.5980
 6446TIP3   OH219301   5.828   1.652   2.635 -0.2581 -0.1817 -0.0466
 6446TIP3    H119302   5.855   1.679   2.723 -2.3237 -1.0539  0.9121
 6446TIP3    H219303   5.878   1.573   2.619  0.8432  0.4972 -0.0866
 6447TIP3   OH219304   2.205   6.015   1.939 -0.5150 -0.1158 -0.6563
 6447TIP3    H119305   2.270   6.069   1.894 -1.6898  2.6191  0.6892
 6447TIP3    H219306   2.246   5.929   1.945  2.3350  1.0807 -1.2155
 6448TIP3   OH219307   4.901   6.178   4.450 -0.6873 -0.4397  0.6735
 6448TIP3    H119308   4.827   6.171   4.509 -0.8858 -3.9438  0.2409
 6448TIP3    H219309   4.881   6.117   4.379  1.8857 -0.3132 -0.2757
 6449TIP3   OH219310   2.808   6.809   3.738  0.1958 -0.2978  0.1614
 6449TIP3    H119311   2.880   6.795   3.800  0.4426 -2.9606 -0.5841
 6449TIP3    H219312   2.848   6.799   3.652 -0.2358  2.8893 -0.5074
 6450TIP3   OH219313   3.643   6.777   5.654 -0.0086 -0.1770  0.3959
 6450TIP3    H119314   3.684   6.693   5.675 -2.2392 -1.7452 -1.0405
 6450TIP3    H219315   3.708   6.842   5.678  0.9942 -2.1614  3.6217
 6451TIP3   OH219316   1.125   1.425   1.075  0.0993  0.1376  0.0712
 6451TIP3    H119317   1.130   1.464   1.162 -0.3075 -0.2029  0.2506
 6451TIP3    H219318   1.144   1.333   1.089  1.3652  0.3031 -0.3957
 6452TIP3   OH219319   4.468   4.965   3.919  0.0620  0.2002 -0.0886
 6452TIP3    H119320   4.532   5.000   3.857  0.5806 -0.3998  0.1021
 6452TIP3    H219321   4.493   4.874   3.931 -1.0140 -0.1320 -0.2374
 6453TIP3   OH219322   2.405   5.135   4.968  0.1926  0.1318 -0.3911
 6453TIP3    H119323   2.353   5.054   4.972 -1.1458  0.9884  0.1338
 6453TIP3    H219324   2.359   5.196   5.025  2.5252  0.5543  1.1806
 6454TIP3   OH219325   6.803   2.879   0.434 -0.5498 -0.1042  0.1435
 6454TIP3    H119326   6.887   2.839   0.414 -0.1429  0.5265  0.5629
 6454TIP3    H219327   6.744   2.845   0.367  0.2360  0.1270 -0.6917
 6455TIP3   OH219328   6.648   0.703   5.419  0.3653  0.0578 -0.0227
 6455TIP3    H119329   6.584   0.648   5.463 -1.9520  1.9084 -0.8517
 6455TIP3    H219330   6.714   0.642   5.386 -3.0481 -2.5957 -2.6710
 6456TIP3   OH219331   6.038   6.585   0.272 -0.2999  0.7047 -0.2626
 6456TIP3    H119332   6.021   6.658   0.332 -1.2843  1.0746 -0.9723
 6456TIP3    H219333   6.014   6.619   0.186  3.4563  1.0823 -1.3499
 6457TIP3   OH219334   6.627   0.457   3.164 -0.0590  0.1087  0.0521
 6457TIP3    H119335   6.703   0.500   3.204  0.9865  0.3520 -2.0419
 6457TIP3    H219336   6.656   0.367   3.148 -0.8213 -0.2729  0.7407
 6458TIP3   OH219337   0.590   6.622   0.230 -0.1623  0.1310  0.5524
 6458TIP3    H119338   0.606   6.554   0.165 -1.2607 -0.9351  1.3628
 6458TIP3    H219339   0.585   6.703   0.178 -0.4486 -0.6134 -0.6309
 6459TIP3   OH219340   3.853   2.552   1.745  0.2735  0.2318  0.7785
 6459TIP3    H119341   3.858   2.640   1.708 -1.8008 -0.4707 -1.4885
 6459TIP3    H219342   3.762   2.542   1.772  0.6687 -0.9589  1.7875
 6460TIP3   OH219343   3.794   3.798   5.555  0.2993 -0.0188  0.0331
 6460TIP3    H119344   3.883   3.764   5.561  1.3000  2.0390 -1.7993
 6460TIP3    H219345   3.795   3.877   5.609 -0.6124 -0.3128  0.4925
 6461TIP3   OH219346   6.097   1.563   0.536  0.1514  0.5831 -0.5438
 6461TIP3    H119347   6.142   1.602   0.461 -1.7164 -0.8821 -2.5467
 6461TIP3    H219348   6.032   1.629   0.562 -0.0470  0.5916 -1.0533
 6462TIP3   OH219349   1.210   0.149   1.962  0.4256 -0.4846  0.3194
 6462TIP3    H119350   1.268   0.099   1.905  2.0318 -0.2227  1.6273
 6462TIP3    H219351   1.141   0.088   1.987  1.0031 -1.2999 -0.0432
 6463TIP3   OH219352   5.967   3.281   5.749 -0.0931  0.1506 -0.0256
 6463TIP3    H119353   5.924   3.335   5.683  0.9456 -0.6900 -1.4246
 6463TIP3    H219354   5.936   3.192   5.730 -1.1270  0.0911  1.7206
 6464TIP3   OH219355   6.265   5.697   2.050  0.0296  0.2033  0.3065
 6464TIP3    H119356   6.230   5.715   2.137  1.3767  0.8749  0.7282
 6464TIP3    H219357   6.358   5.716   2.056  0.7488 -2.4987 -0.4747
 6465TIP3   OH219358   6.943   5.271   2.661 -0.3639  0.4195 -0.6567
 6465TIP3    H119359   6.946   5.252   2.567 -1.1324  0.3292 -0.6725
 6465TIP3    H219360   7.033   5.261   2.691 -0.3696 -1.1082 -1.0869
 6466TIP3   OH219361   5.705   3.049   1.689 -0.0201  0.3237  0.4559
 6466TIP3    H119362   5.774   3.103   1.652 -0.7507  0.0254 -1.4407
 6466TIP3    H219363   5.624   3.088   1.657 -0.6413 -0.6137  0.8236
 6467TIP3   OH219364   3.473   6.393   0.767  0.5776 -0.4339 -0.2629
 6467TIP3    H119365   3.545   6.333   0.744  1.3440  0.5222 -0.4536
 6467TIP3    H219366   3.402   6.368   0.707  0.2361 -2.2872  0.8412
 6468TIP3   OH219367   3.226   3.546   2.552 -0.0782 -0.1571 -0.1441
 6468TIP3    H119368   3.192   3.633   2.574  1.0806  0.3116 -0.1533
 6468TIP3    H219369   3.231   3.546   2.456  0.8104  0.1351 -0.1115
 6469TIP3   OH219370   5.433   3.686   3.977 -0.0080 -0.5134  0.4439
 6469TIP3    H119371   5.411   3.597   4.006  0.1153 -0.3411  1.0750
 6469TIP3    H219372   5.518   3.704   4.018  0.6310 -0.6253 -0.8001
 6470TIP3   OH219373   0.146   0.644   2.261  0.0831  0.0984 -0.2051
 6470TIP3    H119374   0.062   0.605   2.285 -0.4424 -0.0383 -2.1441
 6470TIP3    H219375   0.130   0.688   2.178  1.8307  0.4783 -0.3826
 6471TIP3   OH219376   1.218   0.028   3.839 -0.2169 -0.0823 -0.0621
 6471TIP3    H119377   1.163  -0.049   3.851  1.0346 -1.1834 -1.1099
 6471TIP3    H219378   1.274   0.031   3.916 -1.1617  0.5808  0.6214
 6472TIP3   OH219379   5.676   5.485   2.971  0.4626  0.4310 -0.7486
 6472TIP3    H119380   5.653   5.395   2.947  0.7548  0.5444 -1.4794
 6472TIP3    H219381   5.594   5.523   3.004  0.1454  0.1374 -1.1857
 6473TIP3   OH219382   2.474   2.594   0.395 -0.0917  0.0265 -0.0421
 6473TIP3    H119383   2.393   2.641   0.378  0.2024  1.0891  1.3382
 6473TIP3    H219384   2.498   2.556   0.310 -2.2713 -0.7366 -0.3738
 6474TIP3   OH219385   5.073   2.325   4.628 -0.0766  0.2234 -0.4880
 6474TIP3    H119386   4.996   2.362   4.671 -1.2745  0.9728 -3.1132
 6474TIP3    H219387   5.107   2.261   4.691 -1.4350  1.5451  1.7086
 6475TIP3   OH219388   4.214   2.272   2.856  0.1858 -0.4635  0.3483
 6475TIP3    H119389   4.193   2.189   2.899 -0.5981 -0.0051  0.8790
 6475TIP3    H219390   4.195   2.339   2.922  0.0593  0.1832 -0.3286
 6476TIP3   OH219391   1.836   4.395   1.461 -0.2200  0.3994 -0.2045
 6476TIP3    H119392   1.804   4.305   1.468  0.4725  0.1643  0.0016
 6476TIP3    H219393   1.757   4.448   1.449 -0.5965 -0.2744 -0.7141
 6477TIP3   OH219394   2.168   4.522   0.926 -0.7138 -0.1619  0.2364
 6477TIP3    H119395   2.185   4.429   0.940  1.5457 -0.0774 -1.4393
 6477TIP3    H219396   2.195   4.539   0.836  1.6181  2.6468  1.2843
 6478TIP3   OH219397   5.349   0.280   2.900 -0.4100 -0.4461 -0.0431
 6478TIP3    H119398   5.280   0.338   2.868 -0.4428  1.2134  2.7066
 6478TIP3    H219399   5.429   0.316   2.863 -0.7438 -0.7662 -1.1126
 6479TIP3   OH219400   6.982   5.785   0.312  0.0552  0.7236 -0.2351
 6479TIP3    H119401   7.026   5.722   0.255 -1.6975 -0.7840 -0.0225
 6479TIP3    H219402   6.903   5.809   0.264  0.2765  2.1465  0.0713
 6480TIP3   OH219403   0.995   6.176   4.676 -0.6673  0.1478 -0.5295
 6480TIP3    H119404   1.023   6.094   4.637 -2.7122 -0.9051  0.1095
 6480TIP3    H219405   1.021   6.170   4.768  0.1642  0.7264 -0.7093
 6481TIP3   OH219406   4.220   4.573   3.182 -0.2887 -0.2961  0.1060
 6481TIP3    H119407   4.283   4.622   3.130 -0.7615 -0.2406 -0.4172
 6481TIP3    H219408   4.164   4.640   3.221 -1.3958 -0.4423 -1.1978
 6482TIP3   OH219409   4.206   2.981   0.281  0.3409 -0.2185 -0.2594
 6482TIP3    H119410   4.223   2.939   0.197  1.0436  2.9808 -1.8958
 6482TIP3    H219411   4.110   2.982   0.288  0.3018 -2.0061 -0.1285
 6483TIP3   OH219412   6.071   6.802   1.703 -0.3297  0.3097  0.2357
 6483TIP3    H119413   5.981   6.812   1.736 -1.0812  1.2812 -1.9247
 6483TIP3    H219414   6.061   6.751   1.623  0.7875  2.0602 -1.0825
 6484TIP3   OH219415   6.447   0.180   1.332 -0.3976  0.2051 -0.3647
 6484TIP3    H119416   6.533   0.159   1.368 -0.4001  2.3521  1.0865
 6484TIP3    H219417   6.385   0.134   1.390 -0.2902 -2.2295 -2.0488
 6485TIP3   OH219418   1.565   2.003   0.639  0.3469 -0.0855  0.0889
 6485TIP3    H119419   1.482   2.028   0.600 -0.0285  2.0393  2.0321
 6485TIP3    H219420   1.545   1.924   0.690  0.1924 -1.1667 -1.5930
 6486TIP3   OH219421   5.022   1.896   3.951 -0.1492  0.2982  0.9156
 6486TIP3    H119422   5.003   1.803   3.945  0.1007  0.1684  1.8950
 6486TIP3    H219423   5.051   1.909   4.042  0.8802  1.1243  0.4971
 6487TIP3   OH219424   2.158   1.337   2.384 -0.1606 -0.1434  0.5405
 6487TIP3    H119425   2.131   1.421   2.345 -0.5811 -0.2404  0.6181
 6487TIP3    H219426   2.213   1.362   2.458  0.7299  0.0436 -0.1651
 6488TIP3   OH219427   5.214   2.893   3.158 -0.1451  0.5959  0.1504
 6488TIP3    H119428   5.244   2.826   3.220 -0.9483 -0.7618 -0.8717
 6488TIP3    H219429   5.286   2.901   3.095 -1.1509 -1.4929 -1.3856
 6489TIP3   OH219430   5.512   6.321   2.082  0.3511 -0.3405  0.0578
 6489TIP3    H119431   5.496   6.340   2.175  1.6220  0.4292  0.1381
 6489TIP3    H219432   5.604   6.340   2.069 -0.0063  0.4528 -1.5934
 6490TIP3   OH219433   6.307   2.532   3.781  0.0719 -0.5018  0.0312
 6490TIP3    H119434   6.272   2.508   3.695 -1.0183  0.7140  0.0991
 6490TIP3    H219435   6.230   2.545   3.836  0.7205 -0.3335  0.9299
 6491TIP3   OH219436   4.047   3.209   3.194 -0.3198  0.2941  0.4140
 6491TIP3    H119437   4.111   3.249   3.136 -1.1171  1.6855  0.4449
 6491TIP3    H219438   4.096   3.146   3.245  0.9196  0.9675  0.0842
 6492TIP3   OH219439   5.933   3.092   5.355  0.3556  0.2855 -0.2651
 6492TIP3    H119440   5.969   3.178   5.334 -0.5277  0.7249 -0.0429
 6492TIP3    H219441   5.939   3.086   5.450 -0.7322  0.6542 -0.1521
 6493TIP3   OH219442   4.040   1.623   2.158  0.1568  0.0643  0.0498
 6493TIP3    H119443   4.003   1.582   2.080  0.7800 -0.3520 -0.0324
 6493TIP3    H219444   3.977   1.602   2.228 -0.7957  1.0919 -0.4776
 6494TIP3   OH219445   5.259   0.908   2.210 -0.7877  0.3211  0.2479
 6494TIP3    H119446   5.183   0.960   2.238 -1.9312 -0.9477 -0.3795
 6494TIP3    H219447   5.224   0.819   2.200  0.7238 -0.2253 -0.3646
 6495TIP3   OH219448   6.887   1.294   4.142  0.0483 -0.4595 -0.0712
 6495TIP3    H119449   6.926   1.302   4.229  0.7515  2.0917 -0.5376
 6495TIP3    H219450   6.829   1.370   4.134  1.2235  0.2987 -2.3693
 6496TIP3   OH219451   1.993   5.173   3.621  0.0495 -0.2821 -0.1841
 6496TIP3    H119452   1.981   5.234   3.548 -0.5781  1.9954  1.6813
 6496TIP3    H219453   1.916   5.116   3.618 -0.6131  0.6104 -0.5424
 6497TIP3   OH219454   0.218   2.656   1.339  0.1205 -0.7915  0.1354
 6497TIP3    H119455   0.200   2.714   1.264 -1.2510 -0.0178  1.0151
 6497TIP3    H219456   0.311   2.638   1.333 -0.0121 -1.0354 -1.9639
 6498TIP3   OH219457   1.323   2.905   5.789 -0.3961  0.0577  0.2951
 6498TIP3    H119458   1.327   2.978   5.850 -2.9486  1.8001 -1.4466
 6498TIP3    H219459   1.256   2.847   5.825  0.1005 -0.3583  0.5644
 6499TIP3   OH219460   1.987   5.309   0.046 -0.8797 -0.2921 -0.5485
 6499TIP3    H119461   2.073   5.297   0.005 -0.5592 -0.3423  0.1224
 6499TIP3    H219462   2.007   5.330   0.138 -1.5638  0.4249 -0.5516
 6500TIP3   OH219463   2.313   3.859   3.790 -0.0901  0.9145 -0.0354
 6500TIP3    H119464   2.291   3.797   3.860 -0.8322 -0.1023 -1.1296
 6500TIP3    H219465   2.398   3.895   3.815 -0.0596  0.1082  1.0737
 6501TIP3   OH219466   5.807   3.704   0.277  0.2364 -0.1452  0.0996
 6501TIP3    H119467   5.875   3.642   0.250  0.3896 -0.3260  0.8777
 6501TIP3    H219468   5.849   3.756   0.346 -0.4051 -0.2292  0.5562
 6502TIP3   OH219469   2.314   0.302   1.654 -0.1109  0.3439 -0.2798
 6502TIP3    H119470   2.229   0.265   1.630  0.5963  0.0779 -2.6312
 6502TIP3    H219471   2.368   0.227   1.676 -0.6917  0.5748  2.1404
 6503TIP3   OH219472   7.050   0.631   2.676 -0.1404 -0.2483  0.1967
 6503TIP3    H119473   7.018   0.654   2.589  2.3446 -2.6088 -1.5006
 6503TIP3    H219474   7.123   0.690   2.691 -0.0308 -0.4148  0.3153
 6504TIP3   OH219475   5.583   6.764   4.545  0.0540 -0.3451 -0.0598
 6504TIP3    H119476   5.595   6.784   4.638 -1.4552 -1.7938  0.5108
 6504TIP3    H219477   5.640   6.689   4.529 -0.6473 -0.9175  0.0607
 6505TIP3   OH219478   6.878   2.735   4.715 -0.0067  0.1836 -0.0252
 6505TIP3    H119479   6.932   2.659   4.738  0.4205  0.6581  0.5838
 6505TIP3    H219480   6.886   2.742   4.620  2.2651  1.1091  0.1642
 6506TIP3   OH219481   6.929   3.523   0.716  0.0281 -0.3194 -0.4800
 6506TIP3    H119482   6.866   3.487   0.779  0.4903 -0.0345  0.1566
 6506TIP3    H219483   7.014   3.493   0.748  0.6220  2.6654  1.0780
 6507TIP3   OH219484   0.996   6.590   2.650 -0.0261 -0.1828  0.4800
 6507TIP3    H119485   1.026   6.662   2.594 -0.1748 -0.5977 -0.1449
 6507TIP3    H219486   0.912   6.619   2.684  0.1441  0.1423  0.6252
 6508TIP3   OH219487   6.900   4.711   1.986 -0.3734 -0.1815 -0.1504
 6508TIP3    H119488   6.911   4.670   1.900  0.5240 -3.9339  1.5716
 6508TIP3    H219489   6.815   4.681   2.016 -0.4392  0.6710  0.5598
 6509TIP3   OH219490   1.247   4.807   0.892 -0.1108  0.2694  0.4896
 6509TIP3    H119491   1.299   4.817   0.971 -0.5482 -1.1774  1.0000
 6509TIP3    H219492   1.210   4.719   0.898  0.3598 -0.1487 -1.6379
 6510TIP3   OH219493   4.320   2.160   0.005 -0.6548  0.1664 -0.5358
 6510TIP3    H119494   4.304   2.254   0.013 -1.8221 -0.1196  1.3073
 6510TIP3    H219495   4.358   2.135   0.090  0.3170 -0.9041 -1.2640
 6511TIP3   OH219496   3.332   1.597   1.160 -0.4018  0.3729 -0.7962
 6511TIP3    H119497   3.286   1.518   1.186 -1.4495  0.2991 -2.6407
 6511TIP3    H219498   3.264   1.665   1.162  0.4102  1.1847  0.4657
 6512TIP3   OH219499   2.136   3.613   3.045  0.0513  0.3634  0.3740
 6512TIP3    H119500   2.218   3.656   3.069 -0.3513  1.2533  0.1978
 6512TIP3    H219501   2.123   3.545   3.111  2.7831 -2.3063 -1.5582
 6513TIP3   OH219502   2.559   3.773   0.742 -0.8873 -0.1426 -0.3618
 6513TIP3    H119503   2.556   3.859   0.702 -1.1337 -0.5437 -1.2188
 6513TIP3    H219504   2.544   3.790   0.835  0.3020  0.8528 -0.3295
 6514TIP3   OH219505   6.664   5.851   0.620 -0.6137  0.5510  0.2765
 6514TIP3    H119506   6.756   5.824   0.622 -0.8115 -0.1080  1.2637
 6514TIP3    H219507   6.616   5.770   0.602 -0.9597  1.0721 -1.2895
 6515TIP3   OH219508   2.124   6.306   1.421 -0.0694  0.0492 -0.6958
 6515TIP3    H119509   2.196   6.243   1.411  0.9365  0.8318  1.1130
 6515TIP3    H219510   2.145   6.376   1.360  1.3100  0.7500  0.5233
 6516TIP3   OH219511   2.933   3.519   0.807 -0.4221  0.2322 -0.0201
 6516TIP3    H119512   2.906   3.590   0.866  0.6340  1.6119 -1.1130
 6516TIP3    H219513   2.972   3.454   0.865 -1.9134  0.2579  1.0801
 6517TIP3   OH219514   2.218   1.561   1.281 -0.1173  0.6107  0.7145
 6517TIP3    H119515   2.302   1.519   1.265 -0.2336  0.2523  1.0341
 6517TIP3    H219516   2.162   1.491   1.314 -0.6283  0.7825  0.2278
 6518TIP3   OH219517   6.714   5.932   5.678  0.1592  0.1582  0.2243
 6518TIP3    H119518   6.702   6.001   5.744 -0.2715  0.4869 -0.1890
 6518TIP3    H219519   6.808   5.916   5.677  0.2253  0.4974  0.5682
 6519TIP3   OH219520   3.613   6.468   2.878 -0.0239  0.1445 -0.0313
 6519TIP3    H119521   3.606   6.404   2.808 -0.8345 -0.5399  0.6430
 6519TIP3    H219522   3.549   6.438   2.944  1.2399  0.3115  1.3347
 6520TIP3   OH219523   4.240   3.751   1.629  0.1790 -0.0038  0.2674
 6520TIP3    H119524   4.260   3.822   1.689 -0.6434 -0.3181  0.9240
 6520TIP3    H219525   4.213   3.795   1.548 -0.9720  0.4536  0.8818
 6521TIP3   OH219526   6.576   1.147   3.186 -0.2538  0.0754  0.5185
 6521TIP3    H119527   6.547   1.091   3.114 -2.2905  0.3837  1.0418
 6521TIP3    H219528   6.495   1.178   3.227  0.8413  1.0770  2.0449
 6522TIP3   OH219529   5.365   1.399   5.030 -0.3474 -0.2305 -0.6321
 6522TIP3    H119530   5.331   1.439   4.950  0.8138  0.7414 -0.6581
 6522TIP3    H219531   5.289   1.394   5.088 -1.1114 -0.5519 -1.6260
 6523TIP3   OH219532   0.678   3.137   1.969  0.1631  0.0317  0.2056
 6523TIP3    H119533   0.619   3.184   2.028 -0.7473  1.4328 -1.7227
 6523TIP3    H219534   0.765   3.172   1.989 -0.1943  0.8084  0.4148
 6524TIP3   OH219535   0.692   3.453   5.251  0.0424 -0.2619 -0.2712
 6524TIP3    H119536   0.674   3.426   5.161 -1.8845 -2.5324  0.7034
 6524TIP3    H219537   0.742   3.380   5.289 -2.6963 -1.3446  1.5842
 6525TIP3   OH219538   5.182   2.278   3.966  0.2307  0.1078  0.3704
 6525TIP3    H119539   5.109   2.262   3.906  0.9148 -2.4601  0.0796
 6525TIP3    H219540   5.150   2.250   4.052  0.4411  0.2262  0.4897
 6526TIP3   OH219541   6.346   0.487   1.869 -0.1966  0.1029 -0.1683
 6526TIP3    H119542   6.348   0.422   1.799  1.2841 -0.7280  0.5945
 6526TIP3    H219543   6.342   0.436   1.949 -1.1460  1.0237  0.3934
 6527TIP3   OH219544   4.625   1.432   5.096  0.3120 -0.2793  0.1001
 6527TIP3    H119545   4.594   1.453   5.184  0.7210  1.3581 -0.1240
 6527TIP3    H219546   4.548   1.447   5.040  0.4071 -0.0923  0.0208
 6528TIP3   OH219547   5.686   4.846   4.364  0.1547  0.0884  0.0240
 6528TIP3    H119548   5.593   4.855   4.341 -0.6031 -0.3647  2.6456
 6528TIP3    H219549   5.717   4.774   4.308 -0.8437  0.6879 -1.3737
 6529TIP3   OH219550   2.257   2.459   2.176  0.3147  0.3835 -0.4306
 6529TIP3    H119551   2.180   2.512   2.155 -1.2018 -1.2520  0.7025
 6529TIP3    H219552   2.330   2.521   2.171 -1.3365  2.5890  0.8141
 6530TIP3   OH219553   0.316   6.751   0.831  0.0220  0.1218  0.1697
 6530TIP3    H119554   0.398   6.719   0.795 -0.2578 -1.3936  0.7604
 6530TIP3    H219555   0.250   6.724   0.767 -0.3118 -1.3192  1.0537
 6531TIP3   OH219556   6.610   5.288   1.992 -0.0846 -0.2104  0.0265
 6531TIP3    H119557   6.599   5.374   1.950  1.9294  0.1022  0.0497
 6531TIP3    H219558   6.650   5.308   2.077 -1.9888 -1.0196  1.1804
 6532TIP3   OH219559   3.788   5.981   4.536 -0.1097 -0.6148 -0.1843
 6532TIP3    H119560   3.771   6.069   4.570 -0.8585 -0.2309 -1.4693
 6532TIP3    H219561   3.749   5.923   4.600  0.2032 -0.0093  0.5769
 6533TIP3   OH219562   6.454   5.492   3.348  0.0576  0.0326 -0.1420
 6533TIP3    H119563   6.516   5.433   3.306 -0.8970 -1.1968  0.1276
 6533TIP3    H219564   6.385   5.505   3.282  0.2708  0.8759 -0.2086
 6534TIP3   OH219565   6.378   1.606   4.494  0.3047  0.1535 -0.4830
 6534TIP3    H119566   6.441   1.538   4.515  0.6186 -0.1734 -2.3516
 6534TIP3    H219567   6.373   1.659   4.573  0.8960 -1.3662  0.6160
 6535TIP3   OH219568   0.986   1.408   2.891  0.4917 -0.4739 -0.1396
 6535TIP3    H119569   1.068   1.446   2.860  0.8236  0.2247  1.4855
 6535TIP3    H219570   1.004   1.380   2.980 -1.4083  1.0379  0.8120
 6536TIP3   OH219571   1.175   2.697   1.786  0.4859 -0.7041  0.2982
 6536TIP3    H119572   1.146   2.675   1.875  1.3994 -1.5715  0.3977
 6536TIP3    H219573   1.137   2.783   1.769 -0.0041 -0.6892  1.3922
 6537TIP3   OH219574   2.349   2.726   5.806 -0.6316  0.1511  0.9252
 6537TIP3    H119575   2.417   2.727   5.738  0.1322 -0.3368  1.6609
 6537TIP3    H219576   2.325   2.818   5.816 -0.6268  0.2495  0.1230
 6538TIP3   OH219577   1.079   5.754   5.125  0.2671 -0.6763 -0.7345
 6538TIP3    H119578   1.137   5.698   5.177  2.2097  0.7056 -1.3180
 6538TIP3    H219579   1.015   5.693   5.089  0.9366 -2.1820  0.4815
 6539TIP3   OH219580   0.067   5.612   4.510 -0.3118 -0.0915  0.2643
 6539TIP3    H119581   0.073   5.631   4.604 -0.9921  1.1003  0.0789
 6539TIP3    H219582  -0.027   5.609   4.492 -0.1901 -0.7981 -0.3001
 6540TIP3   OH219583   2.393   3.912   5.742 -0.3684 -0.1564 -0.1027
 6540TIP3    H119584   2.301   3.907   5.766 -1.2847  2.0162 -2.5923
 6540TIP3    H219585   2.432   3.969   5.808 -0.5059 -1.8955  1.5510
 6541TIP3   OH219586   1.191   6.444   3.363 -0.1091  0.0534  0.1531
 6541TIP3    H119587   1.150   6.473   3.282 -0.2048  1.4457  0.6614
 6541TIP3    H219588   1.128   6.467   3.431 -0.0138 -1.0571  0.6293
 6542TIP3   OH219589   6.447   5.805   1.714 -0.5665 -0.3342  0.1716
 6542TIP3    H119590   6.424   5.898   1.704 -0.4334  0.0342  2.6211
 6542TIP3    H219591   6.532   5.796   1.671 -0.3431  0.8108  0.3413
 6543TIP3   OH219592   5.465   6.368   4.605  0.2891  0.1562  0.1635
 6543TIP3    H119593   5.400   6.302   4.631  0.3649 -0.5516 -1.3339
 6543TIP3    H219594   5.498   6.403   4.687  0.2846 -1.7262  1.0222
 6544TIP3   OH219595   3.779   6.699   1.835  0.2602  0.3586 -0.1354
 6544TIP3    H119596   3.735   6.779   1.809  1.3192  1.8395  2.3130
 6544TIP3    H219597   3.718   6.655   1.894 -0.2082 -0.5504 -1.2607
 6545TIP3   OH219598   6.329   4.435   5.028 -0.0474 -0.2818 -0.3223
 6545TIP3    H119599   6.332   4.440   4.932 -0.5414  1.4697 -0.2770
 6545TIP3    H219600   6.238   4.415   5.048 -0.2646  0.7397 -0.2096
 6546TIP3   OH219601   6.053   1.464   2.329  0.8850 -0.0725  0.3442
 6546TIP3    H119602   6.100   1.513   2.395  1.3285 -0.9866  0.7250
 6546TIP3    H219603   6.119   1.409   2.287  0.2319 -1.1395  0.6651
 6547TIP3   OH219604   5.363   3.843   1.038 -0.1639 -0.4016  0.0712
 6547TIP3    H119605   5.438   3.863   1.094 -1.2941 -0.0362  1.5153
 6547TIP3    H219606   5.341   3.752   1.059 -1.9422  0.3747  1.9725
 6548TIP3   OH219607   3.921   3.047   0.748 -0.5062 -0.3349 -0.1808
 6548TIP3    H119608   3.899   3.021   0.837  0.6098  0.9688  0.5273
 6548TIP3    H219609   3.934   3.142   0.754 -0.9487 -0.1453 -1.8605
 6549TIP3   OH219610   4.958   3.835   5.647 -0.0107  0.1393  0.3264
 6549TIP3    H119611   5.004   3.783   5.581 -0.3426  1.3037 -0.8622
 6549TIP3    H219612   4.873   3.791   5.657 -0.1050  0.1576 -0.3134
 6550TIP3   OH219613   3.777   0.490   0.104  0.1155  0.0483 -0.4478
 6550TIP3    H119614   3.755   0.571   0.149  1.4517  1.1590 -1.7029
 6550TIP3    H219615   3.826   0.439   0.168 -0.0714  0.5488  0.1035
 6551TIP3   OH219616   0.093   6.440   1.839 -0.1481 -0.1918 -0.0417
 6551TIP3    H119617   0.150   6.516   1.831  0.4742 -0.7870 -1.4932
 6551TIP3    H219618   0.101   6.414   1.931 -0.9862  1.9367  0.6913
 6552TIP3   OH219619   5.227   3.314   5.738  0.3509  0.2753  0.0764
 6552TIP3    H119620   5.169   3.376   5.782  0.0939  0.7998 -0.9638
 6552TIP3    H219621   5.303   3.366   5.711 -1.8526  1.4545 -4.9842
 6553TIP3   OH219622   5.853   2.304   1.847 -0.3908  0.2349  0.0061
 6553TIP3    H119623   5.899   2.312   1.931 -1.4560 -1.3142  0.7778
 6553TIP3    H219624   5.889   2.224   1.808  0.2621  1.0633 -1.1579
 6554TIP3   OH219625   5.325   0.494   4.745  0.0760  0.0214 -0.0849
 6554TIP3    H119626   5.252   0.516   4.803 -0.7258  0.4728 -1.2456
 6554TIP3    H219627   5.356   0.577   4.711  0.0541 -0.2817 -0.8761
 6555TIP3   OH219628   2.516   4.546   0.751  0.0007  0.2908 -0.5757
 6555TIP3    H119629   2.454   4.607   0.790 -0.7627  0.4638 -1.9876
 6555TIP3    H219630   2.563   4.598   0.686  1.3212  0.0453  0.1618
 6556TIP3   OH219631   1.211   5.462   0.996 -0.3852  0.3822 -0.0772
 6556TIP3    H119632   1.187   5.547   0.959  1.3909  0.6847 -0.5920
 6556TIP3    H219633   1.200   5.400   0.925 -0.3810  0.3949 -0.0889
 6557TIP3   OH219634   3.246   4.138   0.295 -0.4240  0.0330  0.4095
 6557TIP3    H119635   3.323   4.189   0.321  0.5198 -0.7076 -0.8378
 6557TIP3    H219636   3.173   4.199   0.307  0.3366  0.7686  1.5777
 6558TIP3   OH219637   3.689   5.344   1.661  0.1023  0.0252 -0.1595
 6558TIP3    H119638   3.650   5.339   1.748  1.0160 -2.1030  0.1875
 6558TIP3    H219639   3.778   5.376   1.676  0.2323 -0.2626 -0.3132
 6559TIP3   OH219640   1.757   3.923   5.567 -0.2926 -0.6316  0.2306
 6559TIP3    H119641   1.788   3.839   5.601  0.9334 -0.4797 -0.4618
 6559TIP3    H219642   1.675   3.901   5.523 -0.9371 -1.1406  1.6224
 6560TIP3   OH219643   4.342   2.102   0.286  0.4900  0.1035  0.0228
 6560TIP3    H119644   4.277   2.163   0.321 -0.7276 -0.2791 -1.4571
 6560TIP3    H219645   4.320   2.018   0.327 -0.6133 -0.2337 -1.1756
 6561TIP3   OH219646   5.006   0.933   3.945  0.1787  0.1720 -0.1090
 6561TIP3    H119647   5.053   0.969   3.870 -1.9751 -2.5168 -3.0048
 6561TIP3    H219648   4.933   0.994   3.959 -0.4605 -0.2394 -1.4943
 6562TIP3   OH219649   6.516   5.008   5.266  0.2513 -0.1026  0.1980
 6562TIP3    H119650   6.518   4.926   5.216 -1.5701 -0.4025  0.5548
 6562TIP3    H219651   6.499   4.980   5.356 -0.2800  0.6584  0.3385
 6563TIP3   OH219652   5.698   3.109   1.300 -0.0597  0.1833  0.0265
 6563TIP3    H119653   5.779   3.060   1.285 -0.3941 -0.3069 -0.2002
 6563TIP3    H219654   5.711   3.191   1.253  0.4830  0.2989  0.3609
 6564TIP3   OH219655   2.814   0.758   3.495  0.5093  0.3187 -0.2084
 6564TIP3    H119656   2.785   0.765   3.404 -0.8383  0.6509  0.2229
 6564TIP3    H219657   2.845   0.667   3.503 -1.9492 -0.6058 -0.3175
 6565TIP3   OH219658   2.739   5.655   5.002  0.3400 -0.4545 -0.1355
 6565TIP3    H119659   2.811   5.594   4.988  1.7846  1.0977  0.1149
 6565TIP3    H219660   2.687   5.651   4.922 -0.3446 -2.8704  0.3636
 6566TIP3   OH219661   3.319   6.300   0.584 -0.1283 -0.5274  0.4996
 6566TIP3    H119662   3.338   6.279   0.493  1.0759 -1.7188  0.9792
 6566TIP3    H219663   3.242   6.355   0.581  1.7264  2.1953 -1.4456
 6567TIP3   OH219664   5.092   0.645   1.347  0.1652  0.0322 -0.0606
 6567TIP3    H119665   5.119   0.554   1.341 -0.9276 -0.2486 -1.1457
 6567TIP3    H219666   5.069   0.670   1.258  2.7730  2.1566 -0.2522
 6568TIP3   OH219667   0.620   4.326   3.534 -0.6105 -0.6792  0.6717
 6568TIP3    H119668   0.530   4.341   3.503 -1.5039 -1.7010  2.6138
 6568TIP3    H219669   0.655   4.259   3.475 -0.1643  1.4457 -1.6585
 6569TIP3   OH219670   0.924   0.772   2.826 -0.5056 -1.1135 -0.1367
 6569TIP3    H119671   0.955   0.706   2.888  0.3760 -0.1259  0.5131
 6569TIP3    H219672   0.872   0.832   2.879  0.7494  0.0694 -0.1851
 6570TIP3   OH219673   6.555   2.601   3.669  0.4649  0.3815  0.1605
 6570TIP3    H119674   6.586   2.511   3.673  0.7545  0.5259  1.3465
 6570TIP3    H219675   6.474   2.602   3.719  1.2731  1.0883  1.5180
 6571TIP3   OH219676   1.236   6.184   1.980 -0.3822  0.5778  0.2218
 6571TIP3    H119677   1.285   6.248   2.031 -0.5160  0.4918  0.4614
 6571TIP3    H219678   1.198   6.126   2.046  1.0278 -0.7012 -0.0175
 6572TIP3   OH219679   1.111   5.891   3.361 -0.1705  0.3771 -0.1864
 6572TIP3    H119680   1.155   5.904   3.445  0.2743 -0.1081 -0.3407
 6572TIP3    H219681   1.035   5.837   3.382 -1.2079  1.9071  0.2197
 6573TIP3   OH219682   6.097   6.221   3.985  0.0275 -0.1121 -0.0698
 6573TIP3    H119683   6.128   6.134   3.960  0.3457  0.4709 -1.8286
 6573TIP3    H219684   6.067   6.261   3.904 -0.1214  1.4269  0.6974
 6574TIP3   OH219685   7.202   2.910   0.349 -0.2642 -0.4916  0.0667
 6574TIP3    H119686   7.156   2.965   0.413  1.7951  0.0899  1.1060
 6574TIP3    H219687   7.180   2.949   0.264  2.6319  3.3003  0.8042
 6575TIP3   OH219688   3.773   2.884   2.512 -0.2684 -0.4433  0.0716
 6575TIP3    H119689   3.861   2.885   2.551 -0.1047 -1.4404 -0.2428
 6575TIP3    H219690   3.715   2.913   2.583  0.2932  0.1255  0.3142
 6576TIP3   OH219691   1.988   2.299   3.846  0.5533 -0.7461 -0.0893
 6576TIP3    H119692   2.013   2.332   3.932 -0.7858  0.9112 -0.2963
 6576TIP3    H219693   2.058   2.237   3.823  2.0530  0.3800  1.2543
 6577TIP3   OH219694   5.363   5.639   3.418  0.1406 -0.0255 -0.2821
 6577TIP3    H119695   5.352   5.706   3.351 -0.4457 -0.3890 -0.5513
 6577TIP3    H219696   5.382   5.559   3.370 -1.6965 -0.6008 -0.1102
 6578TIP3   OH219697   2.972   6.694   1.651  0.0805 -0.0464 -0.0852
 6578TIP3    H119698   2.966   6.603   1.679 -0.2347 -0.4273 -1.2933
 6578TIP3    H219699   2.885   6.714   1.616  0.5648  0.2236 -1.1855
 6579TIP3   OH219700   1.116   2.213   5.315 -0.8763 -0.1798 -0.1114
 6579TIP3    H119701   1.047   2.195   5.251 -0.3913 -1.4022 -0.3135
 6579TIP3    H219702   1.116   2.136   5.372  0.2912 -0.1811 -0.0882
 6580TIP3   OH219703   5.802   0.373   1.367 -0.2355 -0.0233 -0.6392
 6580TIP3    H119704   5.802   0.287   1.326 -2.0478  0.0207 -0.8461
 6580TIP3    H219705   5.789   0.435   1.295  0.7256  0.4015 -0.4576
 6581TIP3   OH219706   1.499   1.762   0.782  0.0760  0.3105  0.4990
 6581TIP3    H119707   1.423   1.722   0.824  0.7173 -0.5155  0.9029
 6581TIP3    H219708   1.525   1.700   0.714  0.9834  0.0827  1.0274
 6582TIP3   OH219709   2.212   5.174   2.861 -0.1271  0.2435 -0.0234
 6582TIP3    H119710   2.133   5.220   2.890 -0.0129 -0.7852  2.1796
 6582TIP3    H219711   2.203   5.167   2.766 -2.4156  0.6510  0.1003
 6583TIP3   OH219712   0.897   5.627  -0.016 -0.2050  0.7341  0.6353
 6583TIP3    H119713   0.958   5.685   0.029  1.7914 -0.6382 -0.1987
 6583TIP3    H219714   0.849   5.583   0.054  0.6742  0.8820  1.3520
 6584TIP3   OH219715   1.139   1.398   4.524  0.3786 -0.0237  0.0240
 6584TIP3    H119716   1.154   1.321   4.579  1.5915 -0.3689 -0.7495
 6584TIP3    H219717   1.044   1.405   4.517  0.2116 -0.2757  1.7162
 6585TIP3   OH219718   3.189   2.158   1.563 -0.5770  0.0276  0.0232
 6585TIP3    H119719   3.223   2.247   1.572 -1.0001  0.0595  1.4063
 6585TIP3    H219720   3.231   2.109   1.634 -2.3518 -0.2499  0.9241
 6586TIP3   OH219721   5.764   1.518   3.953  0.3554 -0.3893 -0.8891
 6586TIP3    H119722   5.824   1.592   3.953 -0.3932  0.2331 -0.7233
 6586TIP3    H219723   5.724   1.519   4.040 -0.4795 -0.3021 -1.2621
 6587TIP3   OH219724   5.552   2.025   0.820 -0.0104 -0.2602 -0.4788
 6587TIP3    H119725   5.536   1.933   0.843 -1.7435 -0.0625 -0.7461
 6587TIP3    H219726   5.536   2.073   0.901  0.8866 -0.1806 -0.3423
 6588TIP3   OH219727   4.881   1.414   5.841  0.0394  0.6191 -0.0763
 6588TIP3    H119728   4.837   1.329   5.850 -0.3258  0.8620  0.5494
 6588TIP3    H219729   4.974   1.393   5.840 -0.0199  0.2477  0.7893
 6589TIP3   OH219730   0.441   6.145   4.452  0.1068 -0.4915  0.1143
 6589TIP3    H119731   0.493   6.098   4.387 -1.8413 -1.0679 -1.1013
 6589TIP3    H219732   0.444   6.089   4.530 -1.7883 -2.5570 -1.1610
 6590TIP3   OH219733   5.906   2.811   5.309  0.2230 -0.1932  0.6905
 6590TIP3    H119734   5.990   2.777   5.340  0.0470  0.8190  2.4144
 6590TIP3    H219735   5.899   2.897   5.350 -1.1584  0.2129 -0.3299
 6591TIP3   OH219736   4.400   2.980   5.759 -0.2634 -0.1796  0.0399
 6591TIP3    H119737   4.425   2.933   5.679 -0.5151 -0.6168  0.2124
 6591TIP3    H219738   4.417   2.917   5.830  0.0710  0.2458  0.3428
 6592TIP3   OH219739   0.274   3.452   2.962  0.0102 -0.0764  0.0908
 6592TIP3    H119740   0.341   3.403   2.915  0.4660  1.0420 -0.4779
 6592TIP3    H219741   0.198   3.394   2.964  0.3045 -0.5336 -1.1764
 6593TIP3   OH219742   4.381   3.835   2.581 -0.3397  0.8069  0.1826
 6593TIP3    H119743   4.436   3.796   2.513  1.6212  0.7897  1.6789
 6593TIP3    H219744   4.358   3.922   2.547  1.8811  1.4157  0.0400
 6594TIP3   OH219745   2.136   1.073   2.390  0.2264  0.1496  0.3409
 6594TIP3    H119746   2.081   1.081   2.469  0.4250 -1.7701  0.7230
 6594TIP3    H219747   2.142   1.162   2.357 -2.9627  0.5315  0.3976
 6595TIP3   OH219748   1.161   5.065   4.257  0.1085 -0.2199 -0.1973
 6595TIP3    H119749   1.076   5.033   4.227 -0.4635  0.9810  0.0660
 6595TIP3    H219750   1.173   5.149   4.212 -0.0373  0.8561  1.6426
 6596TIP3   OH219751   0.526   3.776   4.102 -0.3662 -0.0018 -0.7598
 6596TIP3    H119752   0.524   3.870   4.121  0.4639  0.2835 -1.9713
 6596TIP3    H219753   0.595   3.742   4.158 -1.2761 -0.0675  0.3511
 6597TIP3   OH219754   5.463   0.990   3.691 -0.5664 -0.0607 -0.0500
 6597TIP3    H119755   5.514   0.918   3.653  0.9886 -0.1336  2.0320
 6597TIP3    H219756   5.489   1.067   3.639 -0.2838 -0.5406 -0.6349
 6598TIP3   OH219757   6.839   2.942   0.739 -0.5507 -0.4955  0.1310
 6598TIP3    H119758   6.922   2.951   0.785 -0.9981 -1.1103  1.0900
 6598TIP3    H219759   6.818   2.849   0.744 -1.4087 -0.3129  0.0889
 6599TIP3   OH219760   4.418   0.689   5.503 -0.2720  0.0076  0.3187
 6599TIP3    H119761   4.460   0.603   5.515 -2.5180 -1.5391 -1.8400
 6599TIP3    H219762   4.363   0.678   5.425 -1.0559  3.2934  0.2727
 6600TIP3   OH219763   4.217   1.371   5.326 -0.2411 -0.7251 -0.1292
 6600TIP3    H119764   4.161   1.408   5.394  0.1033  1.2502 -0.8419
 6600TIP3    H219765   4.158   1.354   5.253 -0.0947  0.4650 -0.5447
 6601TIP3   OH219766   1.647   4.460   0.692  0.1997  0.3951 -0.4290
 6601TIP3    H119767   1.559   4.434   0.719  0.5762 -0.4567 -0.0193
 6601TIP3    H219768   1.703   4.386   0.715  0.8217  0.3844 -1.8789
 6602TIP3   OH219769   6.992   2.754   2.568 -0.0792 -0.5125  0.3860
 6602TIP3    H119770   7.013   2.763   2.475  2.9874  1.0271  1.1015
 6602TIP3    H219771   7.075   2.730   2.609 -0.1741  3.1784  3.2405
 6603TIP3   OH219772   1.324   4.705   2.183 -0.7717 -0.3203 -0.4195
 6603TIP3    H119773   1.252   4.714   2.121 -1.7518 -0.2960  0.6910
 6603TIP3    H219774   1.394   4.758   2.146 -1.4858  0.0604 -1.2740
 6604TIP3   OH219775   4.747   6.773   3.669 -0.3307  0.8272 -0.2065
 6604TIP3    H119776   4.792   6.698   3.630  1.2242  1.8217 -0.4257
 6604TIP3    H219777   4.670   6.735   3.713 -0.2156 -0.7311 -1.2672
 6605TIP3   OH219778   6.505   5.827   2.129 -0.3131  0.5939 -0.3930
 6605TIP3    H119779   6.439   5.865   2.187 -1.0902 -1.8147  0.4164
 6605TIP3    H219780   6.561   5.774   2.186 -0.5878 -1.1902 -1.6718
 6606TIP3   OH219781   1.063   2.678   4.575  0.0468 -0.1962  0.9124
 6606TIP3    H119782   1.142   2.638   4.539  1.2945  0.2749  2.9126
 6606TIP3    H219783   1.093   2.764   4.607 -2.0086  1.4060 -1.1217
 6607TIP3   OH219784   5.698   3.852   0.059 -0.8877  0.1279 -0.2880
 6607TIP3    H119785   5.781   3.891   0.033 -0.0530 -2.2518 -1.4182
 6607TIP3    H219786   5.721   3.789   0.127 -2.0334  0.5854  0.5736
 6608TIP3   OH219787   5.298   2.048   0.985  0.6639 -0.5225 -0.3592
 6608TIP3    H119788   5.320   2.136   0.954  2.5259 -1.0334 -0.6261
 6608TIP3    H219789   5.211   2.057   1.022  0.0865  1.0556 -1.9280
 6609TIP3   OH219790   6.032   4.384   2.969 -0.0736  0.7713 -0.2886
 6609TIP3    H119791   6.052   4.300   3.010  0.8019  0.4338 -1.3498
 6609TIP3    H219792   5.947   4.371   2.926  1.9813 -1.1581 -4.2993
 6610TIP3   OH219793   0.726   4.974   2.143  0.1306 -0.3302  0.4695
 6610TIP3    H119794   0.688   4.888   2.130 -0.1222  0.0359 -1.6132
 6610TIP3    H219795   0.654   5.035   2.129  0.7263  0.2674 -0.0779
 6611TIP3   OH219796   4.453   3.574   4.805 -1.2658 -0.4806 -0.5096
 6611TIP3    H119797   4.448   3.651   4.862 -0.2241  0.2354 -1.3558
 6611TIP3    H219798   4.392   3.511   4.845 -0.5326 -0.0442  1.4316
 6612TIP3   OH219799   6.993   4.974   4.945 -0.2461  0.1519 -0.3289
 6612TIP3    H119800   6.916   5.018   4.979 -0.8004 -1.9634  1.4458
 6612TIP3    H219801   7.057   4.980   5.016  0.4029 -0.0935 -0.8804
 6613TIP3   OH219802   4.997   0.556   3.044 -0.4290 -0.0658  0.0030
 6613TIP3    H119803   4.971   0.464   3.046 -0.8470  0.0626  1.7293
 6613TIP3    H219804   4.972   0.586   2.957 -2.3193 -1.0185  0.1693
 6614TIP3   OH219805   5.364   3.660   3.102  0.2083 -0.5745 -0.6628
 6614TIP3    H119806   5.422   3.661   3.178  1.7498  0.8282 -1.7692
 6614TIP3    H219807   5.277   3.676   3.137  0.9215  0.3325  0.7842
 6615TIP3   OH219808   4.235   5.982   2.356 -0.1005  0.2734  0.1412
 6615TIP3    H119809   4.220   5.890   2.334  0.0068  0.3342 -0.1887
 6615TIP3    H219810   4.287   6.016   2.283  2.4543 -0.1728  1.6390
 6616TIP3   OH219811   4.874   1.663   4.413  0.5227 -0.0042  0.2282
 6616TIP3    H119812   4.780   1.648   4.401  0.1274  2.9660 -1.3900
 6616TIP3    H219813   4.881   1.756   4.436  2.9639 -0.6919  2.7182
 6617TIP3   OH219814   6.395   4.017   2.440 -0.3221 -0.1981 -0.4113
 6617TIP3    H119815   6.306   4.034   2.409 -0.6959  0.1782  0.8472
 6617TIP3    H219816   6.414   4.089   2.500  1.2008  0.2601 -1.3748
 6618TIP3   OH219817   2.483   2.231   5.379  0.4289 -0.1284 -0.0858
 6618TIP3    H119818   2.532   2.154   5.409 -0.0610  0.5919  2.7711
 6618TIP3    H219819   2.538   2.306   5.404 -0.1862  0.5565 -0.7311
 6619TIP3   OH219820   5.132   5.186   1.075 -0.6805  0.1292  0.1638
 6619TIP3    H119821   5.194   5.247   1.116  0.4543 -1.6657  1.2690
 6619TIP3    H219822   5.172   5.100   1.087 -2.6373 -0.9418 -0.5597
 6620TIP3   OH219823   4.724   6.788   1.695 -0.5135 -0.0700 -0.3496
 6620TIP3    H119824   4.810   6.768   1.657 -0.1002  1.4895 -0.3448
 6620TIP3    H219825   4.683   6.703   1.710  1.1084 -0.8619 -0.1759
 6621TIP3   OH219826   6.507   1.231   2.579 -0.1106  0.0695 -0.0507
 6621TIP3    H119827   6.539   1.220   2.669 -0.6160  0.2086  0.1526
 6621TIP3    H219828   6.484   1.142   2.551  0.1890  0.0068 -0.0961
 6622TIP3   OH219829   6.838   5.253   3.937  0.8632  0.3090 -0.5997
 6622TIP3    H119830   6.904   5.322   3.933  1.2735 -0.0651 -0.3914
 6622TIP3    H219831   6.769   5.281   3.877  1.4634  0.4379 -1.2380
 6623TIP3   OH219832   6.579   5.042   4.936 -0.2010  0.2625  0.1095
 6623TIP3    H119833   6.533   4.978   4.990  2.5539 -1.4791  0.5682
 6623TIP3    H219834   6.636   4.989   4.880  0.7398  2.2578 -0.9058
 6624TIP3   OH219835   3.244   1.548   2.007 -0.4224 -0.1346  0.1652
 6624TIP3    H119836   3.328   1.591   2.027 -0.2139 -1.4276  2.3546
 6624TIP3    H219837   3.263   1.494   1.930  0.4569  0.4172 -0.0218
 6625TIP3   OH219838   0.661   4.229   4.598  0.3535  0.5013  0.2327
 6625TIP3    H119839   0.753   4.235   4.627  0.5666  0.1973 -0.3719
 6625TIP3    H219840   0.659   4.276   4.515 -0.0896  0.6759  0.3383
 6626TIP3   OH219841   1.378   5.719   1.980 -0.4698 -0.3229 -0.5480
 6626TIP3    H119842   1.349   5.790   1.922 -0.4883 -0.2254 -0.4181
 6626TIP3    H219843   1.405   5.650   1.920 -0.7445 -0.3246 -0.6730
 6627TIP3   OH219844   1.425   2.363   5.493  0.4196  0.1950  0.2107
 6627TIP3    H119845   1.487   2.291   5.478  2.0185  0.8879  2.9109
 6627TIP3    H219846   1.347   2.319   5.528  0.8553 -0.3543  0.5179
 6628TIP3   OH219847   2.192   5.049   3.113  0.1855 -0.0876 -0.5908
 6628TIP3    H119848   2.212   5.108   3.040  1.3451  1.6550  1.0212
 6628TIP3    H219849   2.265   4.986   3.113  1.3505  1.2039  0.2802
 6629TIP3   OH219850   2.484   2.464   1.809 -0.4792  0.5236 -0.0451
 6629TIP3    H119851   2.557   2.501   1.759 -1.1145 -0.8573 -2.1453
 6629TIP3    H219852   2.406   2.506   1.772 -0.9428 -0.2541  0.0272
 6630TIP3   OH219853   3.529   1.832   4.325 -0.3387 -0.2929  0.0223
 6630TIP3    H119854   3.474   1.754   4.331 -1.4255  0.4141 -0.3681
 6630TIP3    H219855   3.571   1.839   4.411  0.8453 -2.0326 -0.3539
 6631TIP3   OH219856   0.622   5.356   2.667  0.1345  0.1463 -0.3333
 6631TIP3    H119857   0.657   5.375   2.580  1.0386 -0.1910 -0.0614
 6631TIP3    H219858   0.686   5.393   2.727  0.6942 -1.5494  0.1847
 6632TIP3   OH219859   2.083   2.947   5.650 -0.5554 -0.1479  0.2508
 6632TIP3    H119860   2.007   2.969   5.596  0.0743  1.9551  0.1322
 6632TIP3    H219861   2.146   2.908   5.589  0.3845  2.7385 -0.7924
 6633TIP3   OH219862   6.561   2.747   4.599  0.0310 -0.1287  0.0875
 6633TIP3    H119863   6.581   2.654   4.595 -0.9088 -0.4170  1.2306
 6633TIP3    H219864   6.614   2.780   4.672  0.0906  0.1471 -0.0804
 6634TIP3   OH219865   6.415   1.157  -0.004 -0.0266 -0.4671 -0.1083
 6634TIP3    H119866   6.330   1.150   0.040  0.7335  2.4191  2.1493
 6634TIP3    H219867   6.453   1.069   0.002 -2.5891 -1.7303 -0.8178
 6635TIP3   OH219868   1.357   1.851   1.336  0.7792  0.2955 -0.2431
 6635TIP3    H119869   1.358   1.937   1.294 -2.1768  0.1198 -0.9552
 6635TIP3    H219870   1.323   1.868   1.424  2.6701  0.1209  0.5495
 6636TIP3   OH219871   6.504   1.538   0.015  0.2564  0.3499  0.6744
 6636TIP3    H119872   6.598   1.551  -0.002  0.7664 -1.0124  2.1759
 6636TIP3    H219873   6.496   1.549   0.110 -0.7194 -1.6322  0.8604
 6637TIP3   OH219874   1.789   5.071   0.238  0.3729  0.5159  1.0062
 6637TIP3    H119875   1.818   5.070   0.146 -1.6379  0.7165  0.3376
 6637TIP3    H219876   1.694   5.079   0.233  0.2495  0.7315  3.1350
 6638TIP3   OH219877   6.848   3.274   5.402  0.1556 -0.5339 -0.3321
 6638TIP3    H119878   6.942   3.273   5.381  0.0758  0.9583 -0.8689
 6638TIP3    H219879   6.819   3.184   5.387  1.5161 -1.0509 -0.0349
 6639TIP3   OH219880   1.143   0.508   5.562 -0.1765  0.1797 -0.1676
 6639TIP3    H119881   1.053   0.478   5.548  0.0770 -0.8340  0.2474
 6639TIP3    H219882   1.183   0.504   5.475 -0.6958  1.2379 -0.4662
 6640TIP3   OH219883   3.263   4.052   3.490  0.1526  0.4498  0.0123
 6640TIP3    H119884   3.243   4.084   3.578 -0.5560  0.9580 -0.3287
 6640TIP3    H219885   3.178   4.043   3.447  0.4931  0.2704 -0.6431
 6641TIP3   OH219886   3.402   3.659  -0.003 -0.0084  0.2645  0.5451
 6641TIP3    H119887   3.433   3.651   0.087 -0.8457  2.5343  1.1251
 6641TIP3    H219888   3.367   3.573  -0.025 -0.1299 -0.2397  2.5459
 6642TIP3   OH219889   6.568   2.550   0.396 -0.0924 -0.2077  1.1498
 6642TIP3    H119890   6.503   2.601   0.443 -0.2072  0.4008  0.3535
 6642TIP3    H219891   6.628   2.615   0.360  0.2233 -0.6849  0.7981
 6643TIP3   OH219892   2.049   2.957   1.751 -0.2691 -0.2277  0.0775
 6643TIP3    H119893   2.122   3.016   1.771 -0.8105  0.3658  0.3475
 6643TIP3    H219894   1.972   3.005   1.780 -0.9492 -0.0525 -1.8880
 6644TIP3   OH219895   6.508   3.048   5.479 -0.3917  0.3507 -0.0877
 6644TIP3    H119896   6.504   3.012   5.568  1.2622 -0.4129 -0.2941
 6644TIP3    H219897   6.509   3.143   5.492  0.4803  0.2407  0.7680
 6645TIP3   OH219898   4.132   4.703   3.505  0.0926 -0.1465  0.1373
 6645TIP3    H119899   4.228   4.701   3.504  0.1076  0.4002 -0.1503
 6645TIP3    H219900   4.106   4.676   3.417  0.0671  2.1645 -0.6240
 6646TIP3   OH219901   2.056   5.265   1.297  0.0192 -0.0412 -0.1372
 6646TIP3    H119902   1.987   5.247   1.360  0.7549 -1.0476  0.4035
 6646TIP3    H219903   2.112   5.329   1.340  0.5116 -0.7147  0.2369
 6647TIP3   OH219904   6.593   3.826   3.838 -0.5493  0.2682  0.1937
 6647TIP3    H119905   6.510   3.822   3.791 -0.1408  0.0631 -0.5092
 6647TIP3    H219906   6.585   3.759   3.906 -0.9480  0.2437  0.1280
 6648TIP3   OH219907   1.040   1.934   5.092  0.6734  0.2453 -0.0796
 6648TIP3    H119908   0.995   1.968   5.015  0.9589 -0.1702 -0.4265
 6648TIP3    H219909   0.973   1.884   5.139  0.3059  1.0933  0.3225
 6649TIP3   OH219910   3.812   0.942   3.905 -0.4834  0.1750  0.5526
 6649TIP3    H119911   3.785   0.854   3.932 -1.4610  0.1812 -0.3407
 6649TIP3    H219912   3.908   0.939   3.909 -0.5160 -0.7833  0.9885
 6650TIP3   OH219913   3.189   5.900   1.065  0.3255  0.7082 -0.4601
 6650TIP3    H119914   3.203   5.825   1.123 -1.1880  0.7610 -0.0031
 6650TIP3    H219915   3.142   5.863   0.989  0.5092  1.0063 -0.7216
 6651TIP3   OH219916   6.844   2.997   0.069  0.0670  0.0901 -0.0981
 6651TIP3    H119917   6.920   3.056   0.075 -1.6106  2.4874 -0.8503
 6651TIP3    H219918   6.801   3.021  -0.013 -2.1275 -0.3860  0.8321
 6652TIP3   OH219919   5.109   4.878   2.915  0.1251 -0.0976 -0.2551
 6652TIP3    H119920   5.191   4.885   2.866  0.7571  0.3239  0.8373
 6652TIP3    H219921   5.065   4.961   2.899  0.6934  0.3629  0.5021
 6653TIP3   OH219922   5.667   5.575   3.337  0.7194 -0.1550 -0.2998
 6653TIP3    H119923   5.705   5.598   3.421  0.4303 -0.5004 -0.0745
 6653TIP3    H219924   5.729   5.611   3.273  0.0910  1.5904  0.0163
 6654TIP3   OH219925   2.023   0.944   2.985 -0.3988  0.1966  0.5083
 6654TIP3    H119926   1.965   0.911   2.916  1.1420 -0.2230 -0.6201
 6654TIP3    H219927   1.963   0.978   3.052 -1.9710 -1.5891  0.0764
 6655TIP3   OH219928   2.121   1.624   0.459 -0.1192 -0.3265  0.5420
 6655TIP3    H119929   2.088   1.704   0.419 -1.3895 -0.9401  0.3162
 6655TIP3    H219930   2.193   1.653   0.515 -3.0591  1.6145  3.7209
 6656TIP3   OH219931   3.318   2.144   5.046 -0.2521 -0.2139 -0.4471
 6656TIP3    H119932   3.305   2.150   5.140  0.7114 -0.2722 -0.2948
 6656TIP3    H219933   3.388   2.079   5.035  0.0944  0.2562 -1.1509
 6657TIP3   OH219934   3.990   6.023   5.808  0.2265 -0.0431  0.3551
 6657TIP3    H119935   4.031   5.954   5.756  0.0506 -0.9830  1.4234
 6657TIP3    H219936   3.915   6.052   5.755  1.8523  1.2954 -1.3628
 6658TIP3   OH219937   2.710   3.858   2.234  0.1993 -0.1192  0.1034
 6658TIP3    H119938   2.687   3.837   2.325 -0.1722  0.3129  0.1104
 6658TIP3    H219939   2.767   3.935   2.241  0.1265 -0.0529 -0.0374
 6659TIP3   OH219940   1.168   1.403   3.658 -0.0912  0.1969  0.1080
 6659TIP3    H119941   1.079   1.381   3.632  0.1427 -0.4717 -0.1319
 6659TIP3    H219942   1.201   1.325   3.701 -0.0531  0.8844  1.3565
 6660TIP3   OH219943   4.514   2.701   2.174 -0.0769  0.2332  0.1508
 6660TIP3    H119944   4.425   2.733   2.186  0.0629  0.6755  0.0196
 6660TIP3    H219945   4.520   2.625   2.232 -1.1370 -0.9580 -1.1973
 6661TIP3   OH219946   3.147   6.737   4.107  0.1280 -0.6353  0.0089
 6661TIP3    H119947   3.230   6.720   4.062  0.6590  1.0637  0.2615
 6661TIP3    H219948   3.149   6.679   4.183  0.3235 -1.7783 -0.8424
 6662TIP3   OH219949   6.100   1.503   3.550  0.0703  0.3375  0.8198
 6662TIP3    H119950   6.109   1.459   3.635  1.3096 -1.1049  0.0104
 6662TIP3    H219951   6.189   1.531   3.529 -0.4340  1.7869  0.5301
 6663TIP3   OH219952   3.925   1.713   1.352 -0.2126 -0.0473 -0.1723
 6663TIP3    H119953   3.983   1.703   1.276  0.5386 -0.8559  0.4925
 6663TIP3    H219954   3.984   1.729   1.426 -0.9802  1.7764  0.1187
 6664TIP3   OH219955   2.132   0.409   4.067  0.1434 -0.5208 -0.8696
 6664TIP3    H119956   2.090   0.364   4.140  2.1287 -0.1552  0.5730
 6664TIP3    H219957   2.126   0.502   4.088 -2.4666 -0.0772 -3.0258
 6665TIP3   OH219958   2.740   4.369   1.444  0.6181  0.0838  0.3900
 6665TIP3    H119959   2.671   4.306   1.423  1.0919 -0.0001 -1.0268
 6665TIP3    H219960   2.709   4.452   1.408  0.3451  0.5008  1.5657
 6666TIP3   OH219961   3.442   0.924   4.727 -0.4995  0.1596  0.5440
 6666TIP3    H119962   3.347   0.924   4.713 -0.1608 -0.6704 -2.4826
 6666TIP3    H219963   3.453   0.896   4.818 -3.1269 -0.6492  0.6884
 6667TIP3   OH219964   6.014   1.949   5.120 -0.3963 -0.0813  0.2519
 6667TIP3    H119965   6.018   1.973   5.212 -1.6404  0.1617  0.2673
 6667TIP3    H219966   5.969   1.865   5.118  0.2503 -0.4285 -0.0932
 6668TIP3   OH219967   1.005   6.026   2.960 -0.2973 -0.2108  0.4845
 6668TIP3    H119968   1.062   5.954   2.988  1.5286  1.0129  0.0608
 6668TIP3    H219969   0.958   6.051   3.039 -0.9958 -1.8502  0.6393
 6669TIP3   OH219970   5.482   6.561   4.952  0.4014 -0.8711  0.2279
 6669TIP3    H119971   5.484   6.466   4.957 -1.7553 -1.0445 -0.9191
 6669TIP3    H219972   5.405   6.586   5.004  0.3157  0.1389 -0.3604
 6670TIP3   OH219973   6.534   4.360   1.193  0.2694 -0.8273  0.1834
 6670TIP3    H119974   6.510   4.379   1.284  1.3924  0.0816  0.3213
 6670TIP3    H219975   6.514   4.267   1.182  0.2424 -0.9887  1.4086
 6671TIP3   OH219976   4.006  -0.001   3.198 -0.2997 -0.0175 -0.3796
 6671TIP3    H119977   4.002  -0.014   3.103  2.9826  0.1933 -0.6740
 6671TIP3    H219978   3.968   0.086   3.212 -0.0081  0.3441 -1.6539
 6672TIP3   OH219979   0.532   4.832   0.595  0.2753  0.3194  0.4378
 6672TIP3    H119980   0.575   4.755   0.559 -0.2042  0.6169 -0.8290
 6672TIP3    H219981   0.461   4.798   0.649  0.9842 -0.1372  1.0989
 6673TIP3   OH219982   6.838   0.444   2.005 -0.2125  0.2850  0.5528
 6673TIP3    H119983   6.857   0.473   1.916 -0.8425  1.5853  0.8258
 6673TIP3    H219984   6.742   0.439   2.009 -0.2900  1.9816  1.6640
 6674TIP3   OH219985   2.567   2.647   4.211  0.1904 -0.4422 -0.2145
 6674TIP3    H119986   2.557   2.566   4.262 -0.1630 -0.6672 -0.6339
 6674TIP3    H219987   2.477   2.676   4.194  0.2756 -0.8789 -1.5155
 6675TIP3   OH219988   2.476   0.744   2.309 -0.6718  0.5029 -0.1083
 6675TIP3    H119989   2.473   0.664   2.257 -1.9105 -0.6497  1.6302
 6675TIP3    H219990   2.390   0.783   2.298 -0.3852  1.1238 -0.2043
 6676TIP3   OH219991   4.079   2.486   4.258 -0.6000 -0.2246  0.2387
 6676TIP3    H119992   4.010   2.536   4.300  0.3627  0.6603  0.8097
 6676TIP3    H219993   4.121   2.438   4.329  2.0113  2.4339  0.6907
 6677TIP3   OH219994   2.896   6.347   0.239  0.2711 -0.3589  0.0648
 6677TIP3    H119995   2.852   6.353   0.324 -0.2199 -0.0097 -0.2164
 6677TIP3    H219996   2.955   6.423   0.238 -0.5579  0.2949 -0.3809
 6678TIP3   OH219997   5.692   6.634   1.035 -0.0107 -0.2494 -0.6591
 6678TIP3    H119998   5.730   6.552   1.066 -0.2990 -0.3523 -0.5681
 6678TIP3    H219999   5.612   6.608   0.989  0.6601 -0.1403 -1.9330
 6679TIP3   OH220000   3.773   2.434   3.280  0.2299 -0.0706 -0.4254
 6679TIP3    H120001   3.764   2.456   3.373  3.5293  2.0752 -0.4327
 6679TIP3    H220002   3.715   2.496   3.235 -0.8180 -0.6190  0.1352
 6680TIP3   OH220003   7.042   4.734   4.821  0.4505 -0.2215 -0.2556
 6680TIP3    H120004   7.091   4.688   4.890  1.5765  1.3810  0.0581
 6680TIP3    H220005   7.031   4.823   4.854 -2.0362 -0.2997 -0.6856
 6681TIP3   OH220006   5.920   2.657   0.674 -0.5684  0.0357 -0.0704
 6681TIP3    H120007   5.874   2.592   0.620 -2.4698  0.9961  0.3153
 6681TIP3    H220008   5.913   2.622   0.763 -0.2924  0.0472 -0.0449
 6682TIP3   OH220009   5.376   5.721   0.652  0.1950 -0.4308 -0.0769
 6682TIP3    H120010   5.313   5.669   0.602 -0.7072 -1.4170  1.9518
 6682TIP3    H220011   5.330   5.803   0.672 -0.5204 -1.1499  1.4030
 6683TIP3   OH220012   0.495   3.514   3.957  0.2108  0.2416 -0.0726
 6683TIP3    H120013   0.527   3.539   3.870  0.1969  0.1100 -0.1162
 6683TIP3    H220014   0.512   3.591   4.012  1.4276 -0.1416  0.1134
 6684TIP3   OH220015   1.314   6.334   4.278  0.0811 -0.2890  0.2247
 6684TIP3    H120016   1.383   6.383   4.324  2.1816 -1.4459 -1.5210
 6684TIP3    H220017   1.261   6.297   4.349 -0.7793  3.2250  1.6181
 6685TIP3   OH220018   6.979   4.587   0.078  0.4040  0.0171 -0.1208
 6685TIP3    H120019   6.998   4.509   0.131  1.0228  0.5470  0.4450
 6685TIP3    H220020   7.009   4.564  -0.010  1.5175 -0.0252  0.2597
 6686TIP3   OH220021   0.320   1.405   0.091 -0.1662  0.5030  0.0945
 6686TIP3    H120022   0.261   1.329   0.090 -1.2618  1.3313 -0.1767
 6686TIP3    H220023   0.408   1.367   0.089 -0.6789 -0.7731  0.7523
 6687TIP3   OH220024   4.996   0.357   1.202 -0.1590  1.1275  0.6883
 6687TIP3    H120025   4.976   0.325   1.289  1.8972 -0.4594  0.6413
 6687TIP3    H220026   4.941   0.435   1.192 -2.1379  0.0598  2.4726
 6688TIP3   OH220027   5.604   1.958   4.375  0.1587 -0.8079  0.3401
 6688TIP3    H120028   5.644   1.954   4.461  0.0766 -0.0276  0.4218
 6688TIP3    H220029   5.522   2.006   4.388  1.2690  1.5392 -0.5401
 6689TIP3   OH220030   0.107   3.402   0.520  0.1698  0.1673 -0.1163
 6689TIP3    H120031   0.183   3.457   0.539 -0.2571  1.0370 -0.8552
 6689TIP3    H220032   0.052   3.409   0.599 -0.0718  1.1414 -0.3634
 6690TIP3   OH220033   1.845   2.360   3.330  0.2461  0.0951  0.5526
 6690TIP3    H120034   1.801   2.434   3.289 -0.6140 -0.6061  0.2002
 6690TIP3    H220035   1.803   2.350   3.415 -1.3473 -1.4911 -0.3604
 6691TIP3   OH220036   1.639   2.173   2.938  0.1975 -0.6859 -0.0628
 6691TIP3    H120037   1.714   2.147   2.991  0.0170 -2.3175 -0.5684
 6691TIP3    H220038   1.671   2.168   2.847 -0.1817 -0.2003 -0.2282
 6692TIP3   OH220039   4.714   1.421   4.304 -0.2456 -0.7242  0.2733
 6692TIP3    H120040   4.662   1.492   4.342 -1.2736 -1.0596 -0.4486
 6692TIP3    H220041   4.759   1.462   4.230  0.8427 -0.3453  1.1209
 6693TIP3   OH220042   5.943   1.824   4.801 -0.0151 -0.6528  0.3677
 6693TIP3    H120043   5.961   1.912   4.769  1.4146 -1.5934 -1.5825
 6693TIP3    H220044   5.864   1.834   4.854 -0.2134  1.6872 -0.2538
 6694TIP3   OH220045   1.691   6.333   0.639 -0.1020 -0.1978  0.1253
 6694TIP3    H120046   1.719   6.280   0.714  0.5186  0.5494  0.4363
 6694TIP3    H220047   1.597   6.317   0.632  0.1880 -1.9499 -0.2900
 6695TIP3   OH220048   1.046   6.067   4.929  0.0119 -0.0601 -0.4923
 6695TIP3    H120049   0.992   6.093   5.004 -0.1938 -0.0131 -0.6556
 6695TIP3    H220050   1.027   5.974   4.917  1.4119 -0.5447  0.6459
 6696TIP3   OH220051   2.491   5.552   0.671  0.2061 -0.8319  0.3704
 6696TIP3    H120052   2.439   5.614   0.620  0.5333 -0.5097  0.4251
 6696TIP3    H220053   2.560   5.524   0.611 -0.4274 -1.7936  0.0672
 6697TIP3   OH220054   5.567   3.746   0.718  0.0215 -0.1086  0.3698
 6697TIP3    H120055   5.536   3.721   0.805 -2.0305 -0.9304 -0.5326
 6697TIP3    H220056   5.491   3.735   0.662  1.4212 -0.0345 -1.6332
 6698TIP3   OH220057   0.015   2.226   1.837  0.1436 -0.8518 -0.3481
 6698TIP3    H120058   0.049   2.252   1.923 -1.8772  0.0313  0.2490
 6698TIP3    H220059  -0.042   2.299   1.812 -0.0796 -1.5630 -1.9854
 6699TIP3   OH220060   6.361   3.803   0.818 -0.0406 -0.0898 -0.2562
 6699TIP3    H120061   6.408   3.886   0.824 -1.8249  1.0293 -0.9228
 6699TIP3    H220062   6.392   3.763   0.737  3.6343 -2.0056  1.8509
 6700TIP3   OH220063   5.411   2.311   5.515  0.0446 -0.3135 -0.6320
 6700TIP3    H120064   5.381   2.292   5.604 -2.5053  0.6349 -1.2082
 6700TIP3    H220065   5.504   2.287   5.516 -0.5647 -3.1690  1.4111
 6701TIP3   OH220066   2.990   1.566   1.869  0.7145  0.6842 -0.4114
 6701TIP3    H120067   2.955   1.655   1.874 -1.7824 -0.2991  2.2636
 6701TIP3    H220068   3.067   1.567   1.925  0.4583  1.0865 -0.0586
 6702TIP3   OH220069   4.184   0.840   0.537 -0.0456 -0.0844 -0.1333
 6702TIP3    H120070   4.201   0.755   0.497  0.4699  0.7066 -1.6752
 6702TIP3    H220071   4.268   0.886   0.533  0.7364 -0.7234  4.0005
 6703TIP3   OH220072   4.662   6.731   4.970 -0.1003 -0.2273 -0.0162
 6703TIP3    H120073   4.608   6.668   5.017 -0.8916 -0.8845 -1.7241
 6703TIP3    H220074   4.741   6.740   5.023 -0.9636 -0.8859  1.4291
 6704TIP3   OH220075   2.927   2.975   2.862  1.2377  0.2598  0.4532
 6704TIP3    H120076   2.999   2.986   2.799 -0.1514  1.3102 -1.0291
 6704TIP3    H220077   2.943   3.040   2.929  3.0157 -1.1996  1.5486
 6705TIP3   OH220078   4.102   1.792   4.257 -0.0746 -0.5082  0.1353
 6705TIP3    H120079   4.087   1.724   4.323 -0.2387 -0.7398 -0.1427
 6705TIP3    H220080   4.054   1.868   4.291  1.1857 -0.1104  1.1176
 6706TIP3   OH220081   2.115   1.250   3.797  0.3926 -0.2041 -0.2413
 6706TIP3    H120082   2.140   1.206   3.879  0.0525  1.7401  0.9776
 6706TIP3    H220083   2.042   1.307   3.822  1.4788  1.8405 -1.4730
 6707TIP3   OH220084   3.063   0.180   2.379  0.2872 -0.4025 -0.2476
 6707TIP3    H120085   3.142   0.166   2.328 -0.3003  1.0683 -1.6608
 6707TIP3    H220086   3.045   0.274   2.371 -0.6400 -0.3730  1.5108
 6708TIP3   OH220087   1.750   5.674   3.372 -0.0953 -0.0375 -0.5390
 6708TIP3    H120088   1.834   5.670   3.326 -0.0081  1.0022 -0.4861
 6708TIP3    H220089   1.768   5.722   3.452 -0.6921  0.0077 -0.4229
 6709TIP3   OH220090   7.021   6.512   5.734 -0.0862  0.2717 -0.5949
 6709TIP3    H120091   6.939   6.464   5.734 -0.0871  0.1925  1.2497
 6709TIP3    H220092   7.084   6.453   5.692 -0.4146 -0.7673  0.3176
 6710TIP3   OH220093   1.375   5.148   2.404 -0.5877 -0.4760 -0.0820
 6710TIP3    H120094   1.333   5.065   2.381 -0.1259 -0.7018 -0.1300
 6710TIP3    H220095   1.452   5.122   2.455  0.0652 -0.1257 -0.8699
 6711TIP3   OH220096   4.073   3.769   1.923  0.3234  0.1219  0.2009
 6711TIP3    H120097   4.128   3.846   1.941  0.7202 -0.2251  0.4987
 6711TIP3    H220098   4.012   3.765   1.996  0.7035 -0.1951  0.5075
 6712TIP3   OH220099   3.736   6.374   3.635  0.2282 -0.8055  0.2674
 6712TIP3    H120100   3.799   6.434   3.675  1.3498 -1.4731 -0.4354
 6712TIP3    H220101   3.694   6.426   3.567  1.5914 -0.9207 -0.7132
 6713TIP3   OH220102   5.107   1.257   5.051 -0.5784 -0.7745 -0.2888
 6713TIP3    H120103   5.047   1.311   5.103  0.4819 -1.7257  2.0692
 6713TIP3    H220104   5.084   1.167   5.076  0.2481 -1.2430 -1.1918
 6714TIP3   OH220105   3.649   4.699   5.632 -0.4634 -0.2462  0.0870
 6714TIP3    H120106   3.629   4.608   5.612  1.1865 -0.1588 -2.4552
 6714TIP3    H220107   3.603   4.749   5.565  2.1180  0.3971 -1.3654
 6715TIP3   OH220108   3.820   6.001   1.504  0.0889 -0.1341  0.0454
 6715TIP3    H120109   3.904   6.010   1.459 -0.4434  1.4181 -0.7114
 6715TIP3    H220110   3.838   5.939   1.575  1.2268 -1.8503 -1.6195
 6716TIP3   OH220111   6.789   6.730   4.531 -0.5224 -0.0636  0.2108
 6716TIP3    H120112   6.760   6.756   4.443 -0.3223 -0.7625 -0.0636
 6716TIP3    H220113   6.824   6.642   4.520 -0.3211 -0.0826  0.9611
 6717TIP3   OH220114   3.764   1.530   1.495 -0.1118  0.2940 -0.3397
 6717TIP3    H120115   3.811   1.447   1.505 -2.2343 -1.1377 -1.3075
 6717TIP3    H220116   3.810   1.575   1.424  0.3057 -0.6813 -0.7161
 6718TIP3   OH220117   6.201   3.539   3.764 -0.0387 -0.4440 -0.0320
 6718TIP3    H120118   6.231   3.630   3.767 -0.7844 -0.2017  0.4639
 6718TIP3    H220119   6.181   3.518   3.855 -1.6212 -0.4838 -0.3514
 6719TIP3   OH220120   0.681   2.752   5.373  0.2494  0.0622 -0.3213
 6719TIP3    H120121   0.707   2.819   5.437  1.1568 -0.2196 -0.3805
 6719TIP3    H220122   0.668   2.801   5.292 -0.4585  0.3582 -0.0317
 6720TIP3   OH220123   1.623   5.976   1.953 -0.3103 -0.5038  0.0590
 6720TIP3    H120124   1.642   6.058   1.999 -0.1423  0.2117 -1.2504
 6720TIP3    H220125   1.611   5.912   2.023  1.2049  0.2676  1.0740
 6721TIP3   OH220126   4.378   0.350   5.106 -0.0765  0.5396 -0.5461
 6721TIP3    H120127   4.379   0.255   5.093  0.2885  0.5194 -0.3818
 6721TIP3    H220128   4.412   0.362   5.195 -1.0055  0.7728 -0.2157
 6722TIP3   OH220129   3.307   2.363   5.925 -0.0855 -0.7590 -0.4225
 6722TIP3    H120130   3.275   2.317   5.848  0.3545 -0.6931 -0.6495
 6722TIP3    H220131   3.344   2.444   5.892  1.4256 -1.3775 -0.3309
 6723TIP3   OH220132   2.854   1.981   0.456 -0.1287  0.1194  0.7998
 6723TIP3    H120133   2.934   1.975   0.509  0.2155 -1.2189  0.1818
 6723TIP3    H220134   2.884   1.984   0.366 -0.7570 -0.9081  0.5294
 6724TIP3   OH220135   4.442   1.057   2.793 -0.1020 -0.1084 -0.6951
 6724TIP3    H120136   4.414   1.146   2.774  1.0238  0.3827 -0.1276
 6724TIP3    H220137   4.374   1.002   2.754 -0.3959  0.9683 -1.7589
 6725TIP3   OH220138   1.601   6.197   0.903 -0.0445  0.2995 -0.0565
 6725TIP3    H120139   1.614   6.265   0.970  0.3681  1.6158 -1.4125
 6725TIP3    H220140   1.506   6.184   0.901 -0.1358  0.9048  0.1603
 6726TIP3   OH220141   6.947   5.662   2.506 -0.0496  0.0068  0.5290
 6726TIP3    H120142   6.874   5.723   2.506  0.0661  0.1477  0.8564
 6726TIP3    H220143   6.983   5.668   2.594 -0.3343 -0.9019  0.7089
 6727TIP3   OH220144   6.965   6.137   5.718  0.3021  0.2386  0.6325
 6727TIP3    H120145   6.966   6.047   5.687 -1.0180  0.8339 -1.3396
 6727TIP3    H220146   7.055   6.154   5.746  1.2400 -0.8859 -1.4582
 6728TIP3   OH220147   1.875   0.060   0.679  0.7971  0.5227 -0.4297
 6728TIP3    H120148   1.794   0.016   0.654 -0.0027  1.2258  0.8215
 6728TIP3    H220149   1.917   0.083   0.596 -0.4804  0.5021 -1.0958
 6729TIP3   OH220150   3.058   6.124   3.511  0.1647 -0.6905  0.3629
 6729TIP3    H120151   3.047   6.185   3.584 -1.1198 -3.2193  2.4374
 6729TIP3    H220152   3.052   6.180   3.433  0.2610  1.9653  2.1155
 6730TIP3   OH220153   1.122   4.973   4.657  0.0935  0.2714 -0.1853
 6730TIP3    H120154   1.108   5.015   4.742  0.1634  1.3280 -0.6802
 6730TIP3    H220155   1.113   4.879   4.674 -3.5346  0.5673  0.3638
 6731TIP3   OH220156   5.905   3.261   2.485  0.6396 -0.1563  0.4837
 6731TIP3    H120157   5.947   3.175   2.490  2.1819  0.5171 -0.2545
 6731TIP3    H220158   5.880   3.270   2.393 -1.6361 -0.7296  0.9833
 6732TIP3   OH220159   6.618   4.375   5.580 -0.1536  0.8231  0.0615
 6732TIP3    H120160   6.561   4.298   5.584 -1.4745  1.7472 -0.4806
 6732TIP3    H220161   6.696   4.348   5.628  0.1069 -1.4122 -1.4353
 6733TIP3   OH220162   5.443   3.485   1.470  0.1003 -0.3924 -0.0140
 6733TIP3    H120163   5.507   3.463   1.539 -0.6018 -1.1434  0.4187
 6733TIP3    H220164   5.479   3.563   1.428  1.4537 -0.9783  0.0186
 6734TIP3   OH220165   0.987   6.596   1.034  0.5565 -0.0664  0.3280
 6734TIP3    H120166   0.893   6.582   1.043  0.7300 -0.5291  1.8423
 6734TIP3    H220167   1.017   6.523   0.980  0.2001 -0.6106  0.8474
 6735TIP3   OH220168   5.146   2.021   5.035 -0.4057 -0.6068 -0.1963
 6735TIP3    H120169   5.206   2.086   5.072 -1.4907  0.8521 -0.9170
 6735TIP3    H220170   5.065   2.031   5.086 -0.5478 -1.5202 -0.2183
 6736TIP3   OH220171   3.866   6.520   5.171 -0.2172 -0.2401 -0.0431
 6736TIP3    H120172   3.782   6.478   5.189 -1.1668  1.1985 -0.8715
 6736TIP3    H220173   3.900   6.474   5.095 -0.5614 -0.4231 -0.0904
 6737TIP3   OH220174   1.277   3.834   3.091  0.2117 -0.2642 -0.6929
 6737TIP3    H120175   1.321   3.757   3.056 -1.4147 -0.9817 -1.2485
 6737TIP3    H220176   1.262   3.890   3.015 -2.9615 -1.6431 -1.2483
 6738TIP3   OH220177   4.867   1.867   3.399  0.0010  0.2488 -0.1793
 6738TIP3    H120178   4.782   1.826   3.414 -0.1536  0.1839 -1.1866
 6738TIP3    H220179   4.927   1.794   3.387  0.1521  0.3013  0.2217
 6739TIP3   OH220180   0.895   0.018   1.249 -0.6443  0.0470 -0.1730
 6739TIP3    H120181   0.875  -0.054   1.189  0.8880 -0.0506 -0.5842
 6739TIP3    H220182   0.847   0.093   1.213 -1.9463 -0.6348  0.0471
 6740TIP3   OH220183   0.218   1.813   4.667  0.0405 -0.5801  0.2217
 6740TIP3    H120184   0.238   1.861   4.747  1.7402 -1.4633  0.3631
 6740TIP3    H220185   0.178   1.879   4.609  0.0460  0.3914  1.2864
 6741TIP3   OH220186   2.146   3.694   5.845 -0.4561 -0.0087 -0.8854
 6741TIP3    H120187   2.124   3.783   5.817 -0.1343 -0.1215 -1.4938
 6741TIP3    H220188   2.064   3.659   5.879 -0.3566  0.8965  0.3903
 6742TIP3   OH220189   5.107   1.790   0.975 -0.0903  0.7171  0.1492
 6742TIP3    H120190   5.097   1.780   1.069  1.9530 -0.1305  0.3389
 6742TIP3    H220191   5.104   1.701   0.941 -1.4994  1.0638 -0.6967
 6743TIP3   OH220192   2.468   0.944   0.471  0.2622 -0.6547 -0.0519
 6743TIP3    H120193   2.416   0.865   0.458 -0.5425 -0.2925  0.8468
 6743TIP3    H220194   2.507   0.933   0.558  0.4328 -0.2254 -0.0692
 6744TIP3   OH220195   3.829   2.804   0.667  0.3325 -0.2214 -1.2248
 6744TIP3    H120196   3.901   2.744   0.651 -1.5636 -2.8651 -0.5820
 6744TIP3    H220197   3.871   2.889   0.683  3.1071 -1.1109 -3.0668
 6745TIP3   OH220198   1.231   6.064   5.412  0.0667  0.2081 -0.0299
 6745TIP3    H120199   1.144   6.034   5.439 -0.3411  0.3031 -1.2084
 6745TIP3    H220200   1.230   6.158   5.429  0.3151  0.0567  0.9074
 6746TIP3   OH220201   3.382   1.639   2.696 -0.3955 -0.2360  0.5625
 6746TIP3    H120202   3.469   1.600   2.701 -0.7659 -0.9811  3.4486
 6746TIP3    H220203   3.322   1.565   2.702 -1.2885  0.2781 -1.2145
 6747TIP3   OH220204   0.091   0.725   0.674 -0.6970  0.1883 -0.0347
 6747TIP3    H120205   0.067   0.817   0.687 -1.2340  0.2074 -1.0986
 6747TIP3    H220206   0.091   0.688   0.763 -0.2188  1.2662  0.4321
 6748TIP3   OH220207   0.554   2.578   1.284 -0.2757 -0.1730 -1.1532
 6748TIP3    H120208   0.621   2.638   1.316 -1.3480  0.5413 -0.1397
 6748TIP3    H220209   0.542   2.602   1.192 -0.3075  0.8389 -0.9016
 6749TIP3   OH220210   5.665   2.796   1.549 -0.2417 -0.1854 -0.3600
 6749TIP3    H120211   5.684   2.872   1.605 -0.6725 -0.4602  0.1608
 6749TIP3    H220212   5.748   2.748   1.546 -0.5864 -0.9876  1.3109
 6750TIP3   OH220213   2.602   2.035   1.113 -0.5893 -0.5413  0.1166
 6750TIP3    H120214   2.691   2.045   1.147  0.1435 -2.3667 -1.0891
 6750TIP3    H220215   2.595   2.103   1.046 -0.0976 -0.3793  0.2228
 6751TIP3   OH220216   5.724   1.026   5.046 -0.2889 -0.0246  0.3240
 6751TIP3    H120217   5.652   1.088   5.037 -0.2818  0.0981  1.0814
 6751TIP3    H220218   5.772   1.033   4.963 -1.1282 -0.0976 -0.1785
 6752TIP3   OH220219   4.955   3.776   2.137 -0.5220 -0.4733  0.1033
 6752TIP3    H120220   5.003   3.695   2.153 -1.0630 -0.7394  0.4269
 6752TIP3    H220221   4.910   3.761   2.054 -0.7072 -0.5496  0.2161
 6753TIP3   OH220222   5.214   2.102   2.975  0.3001  0.0163 -0.0288
 6753TIP3    H120223   5.128   2.128   2.942  0.2354 -2.2132 -1.8852
 6753TIP3    H220224   5.197   2.022   3.025  1.2174 -0.0782  0.1492
 6754TIP3   OH220225   4.542   3.293   0.051  0.2677 -0.8150 -0.0312
 6754TIP3    H120226   4.472   3.256   0.105 -1.0167 -0.2481 -1.2434
 6754TIP3    H220227   4.567   3.221  -0.007 -0.7047 -0.4536 -0.9189
 6755TIP3   OH220228   6.799   5.864   0.882 -0.1999 -0.1408 -0.0028
 6755TIP3    H120229   6.845   5.915   0.949 -0.0979 -1.3772  0.9075
 6755TIP3    H220230   6.711   5.851   0.918 -0.3788 -0.1742 -0.4529
 6756TIP3   OH220231   0.243   0.563   0.496  0.1633  0.0982 -0.1712
 6756TIP3    H120232   0.187   0.557   0.418 -2.1546 -2.3333  1.4900
 6756TIP3    H220233   0.189   0.608   0.560  2.7846  3.9609 -0.3704
 6757TIP3   OH220234   3.724   5.121   0.119  0.1100  0.4711 -0.7665
 6757TIP3    H120235   3.745   5.097   0.028  2.1708 -0.1747 -0.1663
 6757TIP3    H220236   3.718   5.037   0.165  0.6624  0.8504  0.0124
 6758TIP3   OH220237   2.186   5.053   4.127  0.6691 -0.2379  0.5465
 6758TIP3    H120238   2.226   5.039   4.041  0.2049  0.2003  0.2523
 6758TIP3    H220239   2.096   5.077   4.107  0.2489 -1.2426  1.2008
 6759TIP3   OH220240   3.679   1.463   3.378  0.0199 -0.5420  0.0191
 6759TIP3    H120241   3.708   1.486   3.467  1.0770 -0.6326 -0.2829
 6759TIP3    H220242   3.619   1.390   3.391 -0.3872 -0.0983  0.7109
 6760TIP3   OH220243   0.818   3.732   0.851  0.1966  0.2160  0.2825
 6760TIP3    H120244   0.892   3.778   0.812  1.1661 -0.9793  0.6610
 6760TIP3    H220245   0.763   3.802   0.886  0.2322  1.2217 -1.5388
 6761TIP3   OH220246   2.398   2.921   0.782  0.8657 -0.2044  0.3801
 6761TIP3    H120247   2.364   2.888   0.865  0.3698 -0.0419  0.2471
 6761TIP3    H220248   2.485   2.954   0.803  1.3694 -1.5722  0.5186
 6762TIP3   OH220249   0.076   4.452   4.479  0.5016  0.0470 -0.1949
 6762TIP3    H120250   0.052   4.396   4.553 -0.0110 -0.3358 -0.6439
 6762TIP3    H220251   0.080   4.541   4.516 -3.0511  0.3877 -0.3579
 6763TIP3   OH220252   0.671   4.131   2.625  0.1315  0.2263 -0.2563
 6763TIP3    H120253   0.758   4.161   2.651  0.4296  0.7466 -1.7169
 6763TIP3    H220254   0.674   4.130   2.529 -1.2793 -0.3428 -0.3198
 6764TIP3   OH220255   0.433   0.458   2.937  0.3400  0.6957 -0.3383
 6764TIP3    H120256   0.448   0.462   2.843 -0.5099  0.0797 -0.5198
 6764TIP3    H220257   0.338   0.453   2.946  0.2038  3.3237  0.6742
 6765TIP3   OH220258   6.806   3.566   5.480 -0.1847  0.3601  0.0310
 6765TIP3    H120259   6.716   3.561   5.512 -0.4366  0.8608 -0.5761
 6765TIP3    H220260   6.819   3.486   5.430 -0.4355  0.4873 -0.2360
 6766TIP3   OH220261   4.989   5.933   0.178 -0.3753 -0.8403  0.5609
 6766TIP3    H120262   4.917   5.997   0.177  0.3752  0.0320  1.0144
 6766TIP3    H220263   5.033   5.949   0.262 -0.0857 -1.8615  0.6105
 6767TIP3   OH220264   5.564   2.575   5.531  0.4285  0.6634 -0.5043
 6767TIP3    H120265   5.540   2.663   5.558 -1.1603 -0.0395  0.5708
 6767TIP3    H220266   5.480   2.529   5.523  1.2148 -0.7305 -1.0764
 6768TIP3   OH220267   7.032   3.792   1.720 -0.6754  0.4262  0.3593
 6768TIP3    H120268   7.049   3.719   1.661  1.3152 -1.1308  2.6784
 6768TIP3    H220269   6.998   3.752   1.800 -0.0745  2.0744  1.4987
 6769TIP3   OH220270   4.463   0.761   4.817  0.1835 -0.1616 -0.4326
 6769TIP3    H120271   4.488   0.669   4.808 -0.8705 -0.3363 -1.9559
 6769TIP3    H220272   4.378   0.767   4.774  0.3809  1.5864 -0.6598
 6770TIP3   OH220273   1.161   2.257   4.894 -0.0584  0.0943  0.1525
 6770TIP3    H120274   1.118   2.322   4.838  0.0990 -1.6534 -2.1591
 6770TIP3    H220275   1.114   2.175   4.876  0.6863 -0.7676  1.8501
 6771TIP3   OH220276   3.438   0.858   1.480 -0.2900  0.3029 -0.3516
 6771TIP3    H120277   3.342   0.858   1.478 -0.3418 -0.8353  0.6775
 6771TIP3    H220278   3.462   0.773   1.443  0.4701  1.6218 -3.1497
 6772TIP3   OH220279   1.175   1.634   3.060  0.1928 -0.0204  0.3425
 6772TIP3    H120280   1.227   1.713   3.068  1.5610 -0.8642  0.1424
 6772TIP3    H220281   1.233   1.572   3.015 -1.5961 -0.4452 -1.5305
 6773TIP3   OH220282   4.431   0.064   0.996  0.3070  0.3809 -0.1535
 6773TIP3    H120283   4.406   0.125   1.065 -2.1002 -0.5848 -0.0459
 6773TIP3    H220284   4.385   0.095   0.918 -1.4917 -1.5302  0.0481
 6774TIP3   OH220285   1.084   6.354   0.894 -0.4540 -0.3096 -0.1035
 6774TIP3    H120286   1.144   6.282   0.913 -1.1618 -0.8958 -0.0109
 6774TIP3    H220287   1.018   6.315   0.836 -0.4188  0.4738 -0.6849
 6775TIP3   OH220288   0.717   3.630   2.254  0.5325  0.4403 -0.2511
 6775TIP3    H120289   0.679   3.693   2.315  0.8378  1.2406 -0.8640
 6775TIP3    H220290   0.808   3.659   2.243  0.3556  0.5951 -1.4383
 6776TIP3   OH220291   3.532   0.717   0.688 -0.0364  0.3924 -0.1445
 6776TIP3    H120292   3.501   0.692   0.601  0.3827  0.0085 -0.1804
 6776TIP3    H220293   3.519   0.639   0.742 -0.5340  0.7084  0.2023
 6777TIP3   OH220294   5.775   6.043   2.551  0.4271  0.4910 -0.0008
 6777TIP3    H120295   5.812   5.957   2.567 -0.3468 -0.1488 -1.5252
 6777TIP3    H220296   5.761   6.047   2.457  0.5611  2.3438  0.0069
 6778TIP3   OH220297   2.026   4.302   0.175  0.3463 -0.0592 -0.3785
 6778TIP3    H120298   2.009   4.242   0.103 -2.4787 -0.8788  0.8029
 6778TIP3    H220299   2.022   4.247   0.253  0.0135  1.2918  0.5936
 6779TIP3   OH220300   2.499   6.179   4.811 -0.0928 -0.4009  0.0291
 6779TIP3    H120301   2.424   6.201   4.866  0.8991  0.9054  0.9002
 6779TIP3    H220302   2.528   6.263   4.776  0.8020 -0.9335 -0.5261
 6780TIP3   OH220303   2.289   1.651   1.588 -0.1558 -1.0325  0.1932
 6780TIP3    H120304   2.279   1.646   1.493  0.7689 -2.9190  0.1401
 6780TIP3    H220305   2.354   1.720   1.602  0.9054 -1.8016 -0.6901
 6781TIP3   OH220306   4.576   0.675   1.455 -0.2754 -0.1382 -0.6066
 6781TIP3    H120307   4.510   0.725   1.407  0.0279  0.6094 -0.2562
 6781TIP3    H220308   4.541   0.670   1.544 -0.7195 -1.3119 -0.8236
 6782TIP3   OH220309   5.348   2.979   0.324 -0.6402 -0.1781  0.1698
 6782TIP3    H120310   5.436   3.014   0.309 -0.3196 -0.3109  1.5791
 6782TIP3    H220311   5.301   3.051   0.366 -0.8504 -0.4920  0.4737
 6783TIP3   OH220312   6.305   0.488   0.044 -0.1389 -0.1280  0.3037
 6783TIP3    H120313   6.238   0.517   0.106 -1.5247 -1.4402 -0.5286
 6783TIP3    H220314   6.379   0.462   0.099 -0.7327  0.2510  1.3062
 6784TIP3   OH220315   0.530   1.740   3.821 -0.0317 -0.0611  0.3276
 6784TIP3    H120316   0.443   1.779   3.811  0.5325  0.9184 -1.0663
 6784TIP3    H220317   0.587   1.816   3.837  1.0848 -0.2356 -2.3298
 6785TIP3   OH220318   4.308   2.589   1.915  0.5355 -0.0425  0.0331
 6785TIP3    H120319   4.337   2.498   1.912 -0.7718 -0.4718 -0.0563
 6785TIP3    H220320   4.387   2.638   1.939  0.9967 -1.3128  1.2450
 6786TIP3   OH220321   3.554   5.577   5.319 -0.4548  0.1985 -0.2846
 6786TIP3    H120322   3.629   5.521   5.297 -0.9324 -1.0135  1.0626
 6786TIP3    H220323   3.486   5.550   5.257 -0.9113 -1.2847  0.7908
 6787TIP3   OH220324   0.658   4.901   0.915  0.3299 -0.3035  0.2183
 6787TIP3    H120325   0.631   4.909   0.823  1.0876 -3.3121 -0.3740
 6787TIP3    H220326   0.579   4.922   0.965 -0.1688  1.1202 -1.1036
 6788TIP3   OH220327   2.627   5.172   0.058 -0.2949 -0.4746 -0.0218
 6788TIP3    H120328   2.699   5.235   0.057 -1.0750  0.4943  0.8566
 6788TIP3    H220329   2.660   5.098   0.108 -0.5230  0.8360  2.2204
 6789TIP3   OH220330   0.666   5.326   5.632  0.2857  0.1530 -0.2131
 6789TIP3    H120331   0.716   5.280   5.564  0.4388 -0.1036  0.0674
 6789TIP3    H220332   0.704   5.414   5.634  0.1239  0.2315 -0.6181
 6790TIP3   OH220333   6.764   0.586   4.111  0.2755  0.3109  0.4655
 6790TIP3    H120334   6.735   0.522   4.176  1.9016 -0.6487  0.3007
 6790TIP3    H220335   6.781   0.666   4.162 -1.0546  0.4098  0.7861
 6791TIP3   OH220336   5.119   0.703   2.508  0.3513 -0.1666  0.0078
 6791TIP3    H120337   5.042   0.678   2.458  0.4215 -0.2098 -0.0794
 6791TIP3    H220338   5.157   0.776   2.459  0.5528 -0.3634 -0.1310
 6792TIP3   OH220339   2.985   6.611   2.617 -0.3159 -0.8218 -0.1151
 6792TIP3    H120340   3.078   6.593   2.633 -0.4266 -1.3402 -0.0391
 6792TIP3    H220341   2.975   6.605   2.522 -0.3241 -1.0467 -0.1016
 6793TIP3   OH220342   1.900   0.958   4.268 -0.4833 -0.1199 -0.0161
 6793TIP3    H120343   1.901   0.872   4.309 -0.8569 -0.3512 -0.4808
 6793TIP3    H220344   1.807   0.977   4.256 -0.3946  0.2530 -0.1122
 6794TIP3   OH220345   0.063   3.765   3.429  0.3123 -0.1921  0.0959
 6794TIP3    H120346   0.087   3.700   3.363  0.9370  1.5605 -1.5012
 6794TIP3    H220347   0.122   3.839   3.413 -1.3941  1.4122  0.7645
 6795TIP3   OH220348   0.995   1.959   3.907  0.5123  0.4367 -0.1640
 6795TIP3    H120349   1.031   2.005   3.831 -0.2950  1.0422 -0.2030
 6795TIP3    H220350   1.008   2.020   3.980  0.9843 -0.0037  0.1226
 6796TIP3   OH220351   7.083   2.221   5.529  0.8726 -0.6120 -0.0864
 6796TIP3    H120352   7.080   2.222   5.625 -1.2483  0.6990 -0.0810
 6796TIP3    H220353   7.009   2.165   5.503 -1.8925  2.9420 -0.8057
 6797TIP3   OH220354   1.074   5.735   0.642 -0.1125  0.0774  0.0376
 6797TIP3    H120355   1.044   5.823   0.618  0.0032  0.2558  0.5309
 6797TIP3    H220356   0.995   5.689   0.667 -0.0676  0.3283  0.6569
 6798TIP3   OH220357   0.153   6.059   1.991  0.3527 -0.3235 -0.1028
 6798TIP3    H120358   0.142   5.964   1.999  0.8130 -0.4444 -0.7536
 6798TIP3    H220359   0.087   6.086   1.927 -1.6251  0.2423  2.0555
 6799TIP3   OH220360   6.743   5.429   4.772  0.0701 -0.0949 -0.2413
 6799TIP3    H120361   6.814   5.480   4.732 -1.8276  1.2779 -2.0922
 6799TIP3    H220362   6.709   5.487   4.841  0.5012 -0.6156  0.4229
 6800TIP3   OH220363   0.740   0.246   1.199 -0.3430 -0.1859  0.6930
 6800TIP3    H120364   0.785   0.330   1.201 -1.1200  0.3468 -1.4968
 6800TIP3    H220365   0.701   0.238   1.286  0.1909  1.4478  1.1236
 6801TIP3   OH220366   3.703   5.305   0.510  0.5607 -0.1618  0.3822
 6801TIP3    H120367   3.791   5.295   0.545  0.6909 -0.6144 -0.0728
 6801TIP3    H220368   3.653   5.233   0.548  0.5950 -0.3953 -0.0074
 6802TIP3   OH220369   4.035   5.577   3.117 -0.4186  0.0308  0.8351
 6802TIP3    H120370   3.995   5.659   3.147 -1.1726 -0.1093  0.2457
 6802TIP3    H220371   3.968   5.536   3.063  0.8359  0.2511 -1.0061
 6803TIP3   OH220372   4.919   0.730   5.711  0.0350 -0.0504  0.0286
 6803TIP3    H120373   4.986   0.782   5.667 -0.1613  0.4855  0.3625
 6803TIP3    H220374   4.958   0.643   5.718 -0.4527 -0.5300 -2.4234
 6804TIP3   OH220375   1.617   1.600   2.488 -1.0917 -0.1203 -0.0180
 6804TIP3    H120376   1.610   1.628   2.580  0.2621 -0.4064  0.1847
 6804TIP3    H220377   1.535   1.629   2.449 -1.0372  1.4156  0.9134
 6805TIP3   OH220378   5.766   0.920   0.360  0.6880 -0.2563  0.3243
 6805TIP3    H120379   5.684   0.871   0.372  0.0655  1.2124  2.9113
 6805TIP3    H220380   5.741   1.012   0.371  2.4985  0.3165 -0.0137
 6806TIP3   OH220381   7.146   1.599   3.361  0.0001 -0.0894  0.0364
 6806TIP3    H120382   7.233   1.565   3.380  0.0870  1.6007  3.4316
 6806TIP3    H220383   7.090   1.521   3.360  1.2333 -0.9969 -0.0630
 6807TIP3   OH220384   4.944   5.851   2.201  0.3281  0.1187 -0.1601
 6807TIP3    H120385   4.971   5.939   2.230 -0.5104  0.0460  0.9174
 6807TIP3    H220386   4.903   5.812   2.279 -1.7438 -0.2220 -1.3560
 6808TIP3   OH220387   7.139   5.492   0.422 -0.4390  0.2193  0.1406
 6808TIP3    H120388   7.133   5.579   0.463 -0.0267  0.5230 -0.4240
 6808TIP3    H220389   7.232   5.482   0.402 -0.6618  0.1804 -0.9203
 6809TIP3   OH220390   2.071   1.221   5.457 -0.2089 -0.1432  0.7561
 6809TIP3    H120391   2.095   1.161   5.386 -2.4388 -0.4530  0.1888
 6809TIP3    H220392   2.104   1.179   5.536 -0.0111 -1.1185  0.1764
 6810TIP3   OH220393   3.631   5.771   4.058 -0.0952  0.4046 -0.4794
 6810TIP3    H120394   3.564   5.830   4.023  0.0098  0.0101 -1.3916
 6810TIP3    H220395   3.618   5.772   4.152 -2.1335 -0.5228 -0.6999
 6811TIP3   OH220396   2.562   4.245   1.943 -0.3967  0.5418  0.7014
 6811TIP3    H120397   2.497   4.202   1.998 -0.3971  1.1787  1.1988
 6811TIP3    H220398   2.523   4.245   1.856 -0.1669 -0.9743  0.5559
 6812TIP3   OH220399   0.395   0.521   2.517 -0.3418 -0.2636  0.1608
 6812TIP3    H120400   0.377   0.606   2.558 -0.4206  0.0587 -0.5142
 6812TIP3    H220401   0.332   0.461   2.555 -0.4386  0.0390  0.4744
 6813TIP3   OH220402   5.425   4.000   0.417  0.1181 -0.5053  0.1376
 6813TIP3    H120403   5.518   4.020   0.400  0.4719 -1.8950  0.3481
 6813TIP3    H220404   5.380   4.026   0.337  0.9797 -1.6605 -0.7566
 6814TIP3   OH220405   3.616   2.506   2.587 -0.6250 -0.3303  0.3431
 6814TIP3    H120406   3.546   2.501   2.653 -0.4838  1.3850  0.6539
 6814TIP3    H220407   3.696   2.491   2.636 -0.6296 -0.6392  0.2638
 6815TIP3   OH220408   2.082   1.879   3.116  0.1641  0.7449 -0.4750
 6815TIP3    H120409   2.085   1.917   3.204  0.3251  0.7435 -0.4799
 6815TIP3    H220410   2.174   1.867   3.091  0.1530 -1.1345  0.1828
 6816TIP3   OH220411   4.122   4.589   0.847  0.4495  0.1438  0.6236
 6816TIP3    H120412   4.041   4.624   0.809  0.7162 -0.1749 -0.2833
 6816TIP3    H220413   4.145   4.651   0.916  0.6361  1.5107 -0.5989
 6817TIP3   OH220414   6.971   5.509   0.146  0.1247 -0.0988 -0.2685
 6817TIP3    H120415   7.054   5.461   0.153 -0.1030 -0.3771  0.6387
 6817TIP3    H220416   6.903   5.441   0.156 -0.2121  0.1895 -0.5774
 6818TIP3   OH220417   1.562   6.688   3.898 -0.3039  0.6771 -0.7993
 6818TIP3    H120418   1.503   6.738   3.843 -0.3634 -1.0917 -2.4486
 6818TIP3    H220419   1.507   6.619   3.935  0.2080  0.5596 -0.2440
 6819TIP3   OH220420   3.546   3.991   4.922 -0.1546  0.6904  0.1613
 6819TIP3    H120421   3.502   4.052   4.863 -0.7201  1.7178  1.5722
 6819TIP3    H220422   3.479   3.927   4.945 -0.3923  1.1667  0.8378
 6820TIP3   OH220423   0.101   3.190   4.226 -0.2141 -0.0763  0.0688
 6820TIP3    H120424   0.158   3.238   4.166 -2.4762  0.1630 -2.0483
 6820TIP3    H220425   0.155   3.175   4.304  2.4902  0.6412 -1.5338
 6821TIP3   OH220426   2.399   0.149   2.764 -0.2940  1.0049 -0.3643
 6821TIP3    H120427   2.411   0.059   2.793  0.4440  0.8971 -0.9718
 6821TIP3    H220428   2.364   0.142   2.675  0.5047  1.2977 -0.7164
 6822TIP3   OH220429   6.229   5.388   0.082  0.2440 -0.7282 -0.5125
 6822TIP3    H120430   6.182   5.320   0.130 -2.8521  1.3157 -0.3620
 6822TIP3    H220431   6.303   5.411   0.138 -1.1677 -0.9867  1.5538
 6823TIP3   OH220432   4.894   5.499   0.060 -0.2909  0.0507  0.0248
 6823TIP3    H120433   4.837   5.445   0.115 -0.5020 -0.9223 -1.1218
 6823TIP3    H220434   4.873   5.589   0.085  0.1404 -0.3511  2.0431
 6824TIP3   OH220435   6.060   4.361   2.548 -0.3603  0.4092  0.1046
 6824TIP3    H120436   6.064   4.299   2.621 -0.7117  2.0549  1.5853
 6824TIP3    H220437   5.995   4.426   2.575 -0.6222  0.9887 -1.7640
 6825TIP3   OH220438   2.094   3.030   2.228 -0.1713  0.2617 -0.1112
 6825TIP3    H120439   2.154   3.057   2.298 -1.4635  1.3395  0.6279
 6825TIP3    H220440   2.084   3.108   2.173 -2.3842  0.7810  0.9048
 6826TIP3   OH220441   6.686   5.823   1.589  0.0267 -0.0597 -0.3607
 6826TIP3    H120442   6.732   5.898   1.627  0.6525  0.0545 -1.3075
 6826TIP3    H220443   6.738   5.747   1.616  1.1301  0.1128 -1.8804
 6827TIP3   OH220444   0.941   4.245   4.608 -0.4482 -0.3385 -0.1253
 6827TIP3    H120445   0.988   4.270   4.688 -0.8355  3.2831 -0.8538
 6827TIP3    H220446   0.967   4.155   4.592  1.2897 -0.5123  2.9102
 6828TIP3   OH220447   4.420   4.324   0.581 -0.2744  0.6339 -0.2551
 6828TIP3    H120448   4.385   4.407   0.549  1.7832  1.0451 -1.6621
 6828TIP3    H220449   4.440   4.274   0.502  2.1459  0.4088  0.4226
 6829TIP3   OH220450   5.051   6.069   2.324 -0.2148  0.0610  0.2593
 6829TIP3    H120451   5.110   6.105   2.258  1.0965  0.8016  1.7671
 6829TIP3    H220452   4.994   6.142   2.346 -0.0747  0.0769  0.5688
 6830TIP3   OH220453   4.319   4.013   4.204  0.7688 -0.5786 -0.5080
 6830TIP3    H120454   4.223   4.010   4.201  0.6968 -0.5711  0.8483
 6830TIP3    H220455   4.342   4.090   4.153  0.0753 -0.7345 -1.0849
 6831TIP3   OH220456   5.718   6.172   1.125  0.1047 -0.5029 -0.3475
 6831TIP3    H120457   5.703   6.179   1.220  0.2116 -1.5038 -0.2437
 6831TIP3    H220458   5.631   6.155   1.089  0.2404 -1.3946 -0.2796
 6832TIP3   OH220459   4.506   4.150   2.187 -0.0831  0.2667  0.2401
 6832TIP3    H120460   4.473   4.111   2.107  1.9662 -2.0640  0.4023
 6832TIP3    H220461   4.596   4.177   2.166  1.2190 -2.1777  2.1384
 6833TIP3   OH220462   3.601   5.763   4.325 -0.6928  0.4611 -0.5361
 6833TIP3    H120463   3.586   5.825   4.397  1.5964 -1.3067  1.6057
 6833TIP3    H220464   3.572   5.679   4.359 -2.0978 -0.0535 -2.7694
 6834TIP3   OH220465   1.095  -0.012   0.429 -0.2751 -0.3070 -0.5282
 6834TIP3    H120466   1.014   0.011   0.383 -0.9710 -0.7336  0.4507
 6834TIP3    H220467   1.141   0.071   0.440 -1.0033  0.0721 -0.3005
 6835TIP3   OH220468   4.231   2.437   1.410  0.3427 -0.2232 -0.2611
 6835TIP3    H120469   4.208   2.457   1.319 -0.6797 -2.8905 -0.6816
 6835TIP3    H220470   4.176   2.495   1.462 -2.0758 -1.3429 -1.3845
 6836TIP3   OH220471   5.544   4.564   2.869 -0.1238  0.3459 -0.3352
 6836TIP3    H120472   5.449   4.552   2.859  0.0656 -2.3429  0.3082
 6836TIP3    H220473   5.580   4.539   2.784  0.0438  0.7436 -0.3801
 6837TIP3   OH220474   5.386   4.892   2.017 -0.4917  0.6466  0.2615
 6837TIP3    H120475   5.311   4.843   2.052 -1.2703  2.2227  0.9148
 6837TIP3    H220476   5.352   4.934   1.937 -0.4129  1.5623  0.6911
 6838TIP3   OH220477   0.508   2.023   1.279 -0.1647  0.5089  0.0901
 6838TIP3    H120478   0.500   2.030   1.184 -3.7881  2.5727  0.3599
 6838TIP3    H220479   0.537   2.109   1.307 -3.5074  1.4828  0.9960
 6839TIP3   OH220480   1.598   1.119   5.733 -0.1315 -0.4290  0.7942
 6839TIP3    H120481   1.589   1.108   5.827 -1.0500 -0.7694  0.6717
 6839TIP3    H220482   1.693   1.112   5.717  0.2102  1.2126  1.8694
 6840TIP3   OH220483   7.154   0.498   4.333 -0.3287 -0.2472  0.0357
 6840TIP3    H120484   7.093   0.445   4.282 -0.9900  0.6584 -0.1363
 6840TIP3    H220485   7.155   0.457   4.420 -0.0986 -1.0928 -0.3575
 6841TIP3   OH220486   3.246   0.682   4.879 -0.5062 -0.5658 -0.0107
 6841TIP3    H120487   3.251   0.734   4.959 -0.3315  1.2363 -1.1385
 6841TIP3    H220488   3.164   0.632   4.888 -1.0814  0.4753  0.8024
 6842TIP3   OH220489   0.388   6.659   3.934 -0.0538 -0.1526 -0.7602
 6842TIP3    H120490   0.479   6.664   3.906 -0.0724  1.1020 -0.6583
 6842TIP3    H220491   0.392   6.628   4.025  0.2591 -0.2264 -0.7984
 6843TIP3   OH220492   2.828   1.042   3.342  0.9395  0.1878  0.0782
 6843TIP3    H120493   2.835   1.009   3.431  0.0607 -0.0305  0.0771
 6843TIP3    H220494   2.914   1.079   3.323  0.9386  0.8577  1.2586
 6844TIP3   OH220495   0.296   4.078   3.732  0.2471 -0.6838 -0.5205
 6844TIP3    H120496   0.389   4.055   3.727  0.5641  0.7215 -2.5639
 6844TIP3    H220497   0.296   4.174   3.736 -1.1322 -0.6843 -0.1292
 6845TIP3   OH220498   1.346   5.891   0.281  0.2250 -0.2263 -0.1699
 6845TIP3    H120499   1.326   5.981   0.257  1.5275  0.2056  0.2559
 6845TIP3    H220500   1.268   5.860   0.327 -1.5298 -0.4264 -3.0828
 6846TIP3   OH220501   3.149   3.863   1.155  0.2777  0.3982 -0.5299
 6846TIP3    H120502   3.164   3.772   1.132 -2.3282 -0.1707 -0.3187
 6846TIP3    H220503   3.153   3.910   1.072 -0.9894 -0.3815 -1.0736
 6847TIP3   OH220504   3.260   1.723   3.095 -0.1512 -0.0468  0.0239
 6847TIP3    H120505   3.253   1.634   3.127  0.9388 -0.1679 -0.0551
 6847TIP3    H220506   3.312   1.769   3.161 -1.1721  0.6846  0.3459
 6848TIP3   OH220507   0.708   0.177   3.436  0.3994 -0.5272 -0.2413
 6848TIP3    H120508   0.740   0.164   3.525  1.4429 -0.7637 -0.6429
 6848TIP3    H220509   0.701   0.272   3.427  0.2104 -0.5046  0.1171
 6849TIP3   OH220510   0.565   1.279   4.968 -0.0164 -0.0241 -0.1845
 6849TIP3    H120511   0.547   1.360   5.015  0.3992 -0.2540  0.3893
 6849TIP3    H220512   0.539   1.210   5.030 -1.4155 -0.3336 -1.0816
 6850TIP3   OH220513   3.186   0.334   3.227  0.7108  0.2623 -1.0001
 6850TIP3    H120514   3.222   0.249   3.251 -1.2971 -0.4873 -0.4746
 6850TIP3    H220515   3.093   0.319   3.215  0.1567  2.5312 -0.1492
 6851TIP3   OH220516   5.239   0.451   2.531  0.2616  0.1201 -0.0016
 6851TIP3    H120517   5.209   0.446   2.622 -0.2439 -0.1695 -0.1784
 6851TIP3    H220518   5.203   0.534   2.499  0.6386  0.3347  0.1329
 6852TIP3   OH220519   2.553   6.697   3.492  0.4381 -0.0636 -0.5362
 6852TIP3    H120520   2.496   6.768   3.521  0.8670  0.1925 -0.3063
 6852TIP3    H220521   2.612   6.682   3.566 -1.2008 -2.3560  0.4329
 6853TIP3   OH220522   6.370   3.684   5.279 -0.0149  0.4685 -0.8103
 6853TIP3    H120523   6.307   3.695   5.350 -0.0258  1.0155 -0.8989
 6853TIP3    H220524   6.441   3.744   5.300 -0.5952  1.6016 -1.8966
 6854TIP3   OH220525   1.642   4.713   1.569 -0.1277  0.0223  0.0869
 6854TIP3    H120526   1.547   4.729   1.563 -0.1953  0.4389  1.7503
 6854TIP3    H220527   1.649   4.628   1.612  0.2042  1.2367  2.5978
 6855TIP3   OH220528   0.961   3.488   4.298 -0.7457 -0.5111 -0.5530
 6855TIP3    H120529   0.916   3.485   4.214 -2.4567  0.6242  0.2473
 6855TIP3    H220530   0.911   3.429   4.354 -0.5554 -0.1149  0.0503
 6856TIP3   OH220531   7.146   1.553   2.073  0.0636 -0.0407 -0.2681
 6856TIP3    H120532   7.177   1.627   2.021  1.1439 -0.3365 -0.0722
 6856TIP3    H220533   7.216   1.488   2.068 -2.0303 -2.3444 -2.8862
 6857TIP3   OH220534   5.732   4.211   3.410  0.2271  0.3106  0.4978
 6857TIP3    H120535   5.696   4.162   3.484 -0.9564  0.1476 -0.1730
 6857TIP3    H220536   5.744   4.300   3.444  1.4563 -0.1777  1.4231
 6858TIP3   OH220537   4.466   1.196   3.222  0.1461  0.9179  0.3822
 6858TIP3    H120538   4.449   1.115   3.173 -0.3380  1.2135  0.0490
 6858TIP3    H220539   4.433   1.177   3.310 -0.6636  0.9994  0.1070
 6859TIP3   OH220540   2.117   0.777   4.780 -1.0328  0.3873 -0.0973
 6859TIP3    H120541   2.026   0.745   4.785 -0.3362 -1.7392  0.2936
 6859TIP3    H220542   2.168   0.698   4.764  0.9021  1.3234  1.1860
 6860TIP3   OH220543   2.110   6.218   1.711 -0.8434 -0.4045 -0.4749
 6860TIP3    H120544   2.044   6.151   1.691 -0.9804  0.0980 -1.7991
 6860TIP3    H220545   2.193   6.177   1.690 -0.6938 -1.0421  1.2039
 6861TIP3   OH220546   1.175   6.650   1.214  0.1684 -0.2737  0.1539
 6861TIP3    H120547   1.154   6.564   1.250  0.9261 -1.0885 -1.2302
 6861TIP3    H220548   1.121   6.657   1.135  1.5660 -0.3872 -0.8545
 6862TIP3   OH220549   2.472   3.472   3.018 -0.6729 -0.3356 -0.1268
 6862TIP3    H120550   2.427   3.405   3.070  0.8088 -0.6497  0.8242
 6862TIP3    H220551   2.439   3.554   3.054 -0.1077 -0.5527  0.9521
 6863TIP3   OH220552   4.231   2.875   1.107  0.1272  0.3282 -0.2076
 6863TIP3    H120553   4.169   2.803   1.118 -0.0748  0.7277  1.5232
 6863TIP3    H220554   4.296   2.841   1.045  0.4956 -1.6640  1.1772
 6864TIP3   OH220555   5.292   0.303   5.130  0.1022  0.6675  0.6356
 6864TIP3    H120556   5.365   0.245   5.151 -1.0140 -1.0578  0.0004
 6864TIP3    H220557   5.282   0.359   5.206  2.0390  0.9189  0.7506
 6865TIP3   OH220558   0.848   2.924   0.473  0.4067 -0.1968  0.0135
 6865TIP3    H120559   0.825   2.904   0.564  1.1446 -0.9836  0.0336
 6865TIP3    H220560   0.914   2.859   0.450  0.3318  0.0916 -1.0439
 6866TIP3   OH220561   4.486   1.446   0.651 -0.4299  0.7921 -0.0557
 6866TIP3    H120562   4.452   1.470   0.737 -1.7832 -0.6830 -0.1406
 6866TIP3    H220563   4.532   1.525   0.621  0.1690  1.3196  2.0282
 6867TIP3   OH220564   3.453   1.375   1.797 -0.0299  0.2524  0.1036
 6867TIP3    H120565   3.530   1.419   1.833 -0.0311 -1.6671  2.7479
 6867TIP3    H220566   3.488   1.298   1.753 -0.2231  1.4035 -2.1915
 6868TIP3   OH220567   0.367   1.076   2.090  0.2891 -0.0933  0.3712
 6868TIP3    H120568   0.382   0.981   2.093  0.2915 -0.0789  0.9497
 6868TIP3    H220569   0.330   1.097   2.175 -1.2552  0.1771 -0.3268
 6869TIP3   OH220570   1.699   4.758   0.527  0.3572 -0.0996 -0.6610
 6869TIP3    H120571   1.626   4.750   0.588  1.6396  1.0619  1.1164
 6869TIP3    H220572   1.746   4.675   0.535 -0.1701 -0.4501 -1.0666
 6870TIP3   OH220573   0.829   4.843   5.140 -0.3566 -0.1075  0.4464
 6870TIP3    H120574   0.787   4.804   5.217  0.6273  0.7539  1.4622
 6870TIP3    H220575   0.904   4.786   5.122  0.0278  0.2704  0.8067
 6871TIP3   OH220576   4.391   3.825   0.801 -0.7100 -0.3796 -0.0475
 6871TIP3    H120577   4.376   3.732   0.788 -0.4785 -0.6613  1.5257
 6871TIP3    H220578   4.410   3.859   0.713 -3.1170 -1.3390 -0.9986
 6872TIP3   OH220579   2.289   4.860   4.949  0.1782 -0.0540 -0.0217
 6872TIP3    H120580   2.314   4.813   5.028 -1.0724  0.6023  0.8066
 6872TIP3    H220581   2.193   4.861   4.951  0.1501  1.7424 -0.4557
 6873TIP3   OH220582   1.186   3.746   1.792 -0.2937 -0.2731 -0.6892
 6873TIP3    H120583   1.171   3.653   1.777  1.5485 -1.1253  1.8458
 6873TIP3    H220584   1.254   3.770   1.729 -0.9246 -0.5720 -1.4947
 6874TIP3   OH220585   4.464   1.879   1.169  0.0279  0.2113  0.3322
 6874TIP3    H120586   4.452   1.890   1.075  1.1895 -0.3250  0.0959
 6874TIP3    H220587   4.410   1.947   1.209  0.3367  1.1219 -0.7619
 6875TIP3   OH220588   0.980   3.219   0.454  0.0623 -0.2290 -0.2495
 6875TIP3    H120589   0.895   3.175   0.459 -0.9749  1.7164  0.0507
 6875TIP3    H220590   1.043   3.147   0.452 -1.5732 -1.7420 -0.6725
 6876TIP3   OH220591   5.575   3.637   5.804 -0.2135  0.2597 -0.1456
 6876TIP3    H120592   5.670   3.636   5.818 -0.0470  0.2816 -1.1317
 6876TIP3    H220593   5.557   3.727   5.775 -0.5335  0.2591  0.0583
 6877TIP3   OH220594   3.824   4.709   0.121  0.0824  0.0873  0.2134
 6877TIP3    H120595   3.821   4.721   0.216  0.7163 -0.6205  0.3370
 6877TIP3    H220596   3.783   4.624   0.107  0.3235  0.0225 -0.1043
 6878TIP3   OH220597   5.528   2.649   1.286  0.4143 -0.3661  0.3870
 6878TIP3    H120598   5.544   2.732   1.241 -1.1271 -0.3613 -0.2302
 6878TIP3    H220599   5.605   2.636   1.341  0.8705  1.2650  0.1923
 6879TIP3   OH220600   3.274   0.370   2.234  0.0175  0.2359  0.4659
 6879TIP3    H120601   3.308   0.313   2.165 -0.1391  0.9272 -0.2086
 6879TIP3    H220602   3.190   0.402   2.199 -2.1651 -2.5628  2.6760
 6880TIP3   OH220603   4.771   6.077   0.897  0.1713  0.3522 -0.1100
 6880TIP3    H120604   4.803   6.140   0.960 -1.6509  0.4651  0.7662
 6880TIP3    H220605   4.836   6.006   0.898  0.9036  1.0177  0.7905
 6881TIP3   OH220606   4.521   0.271   4.637  0.1042 -0.0829 -0.5215
 6881TIP3    H120607   4.505   0.177   4.623  0.9601 -0.6726  2.0193
 6881TIP3    H220608   4.470   0.314   4.567 -1.0053 -2.3731 -1.2410
 6882TIP3   OH220609   0.178   0.874   0.442  0.5003  0.9620  0.5910
 6882TIP3    H120610   0.148   0.821   0.515  0.6633  0.1147  0.0489
 6882TIP3    H220611   0.244   0.932   0.481  0.7109  0.4004  1.0898
 6883TIP3   OH220612   3.122   2.118   0.840 -0.7532  0.0210  1.0576
 6883TIP3    H120613   3.035   2.081   0.857 -0.6626 -1.5737 -1.4095
 6883TIP3    H220614   3.182   2.046   0.861 -0.3993 -0.5177 -1.4922
 6884TIP3   OH220615   5.840   4.199   1.415  0.1618  0.2345  0.3665
 6884TIP3    H120616   5.839   4.118   1.465  1.3132 -0.7910 -1.1820
 6884TIP3    H220617   5.816   4.173   1.326 -0.6542  1.8077  0.0823
 6885TIP3   OH220618   4.043   4.040   3.376  0.2947  0.0926  0.0618
 6885TIP3    H120619   3.951   4.040   3.400  0.0694 -1.2121 -0.6952
 6885TIP3    H220620   4.072   4.131   3.390 -0.7056  0.1897  1.7022
 6886TIP3   OH220621   0.285   5.535   3.333  0.2905 -0.5234  0.2202
 6886TIP3    H120622   0.293   5.440   3.342 -0.9160 -0.9757 -2.3421
 6886TIP3    H220623   0.373   5.565   3.314  0.5358 -1.2688  0.1343
 6887TIP3   OH220624   5.744   2.550   3.338 -0.2957  0.7414 -0.4520
 6887TIP3    H120625   5.799   2.624   3.312 -0.5086  0.0821 -3.0187
 6887TIP3    H220626   5.802   2.492   3.387  0.4485  1.5634 -0.3347
 6888TIP3   OH220627   0.933   4.725   2.271 -0.0834 -0.3023 -0.2924
 6888TIP3    H120628   0.963   4.648   2.320 -0.0616 -2.0049 -2.8240
 6888TIP3    H220629   0.985   4.797   2.306 -0.0865 -1.3799  2.1676
 6889TIP3   OH220630   3.389   0.494   0.811 -0.5480 -0.3304  0.2295
 6889TIP3    H120631   3.395   0.507   0.905  1.9728 -0.0414  0.0911
 6889TIP3    H220632   3.399   0.400   0.799 -2.9240 -0.6589  0.3002
 6890TIP3   OH220633   2.720   3.573   5.849 -0.5573  0.3040  0.5632
 6890TIP3    H120634   2.642   3.626   5.865 -0.1272  0.6827  1.4663
 6890TIP3    H220635   2.703   3.491   5.896  0.0202  0.7898  1.6405
 6891TIP3   OH220636   0.360   3.857   3.418  0.0196 -0.1960 -0.3596
 6891TIP3    H120637   0.432   3.863   3.354  1.4389  0.8115  1.2554
 6891TIP3    H220638   0.334   3.947   3.433  0.0565 -0.3789  0.8524
 6892TIP3   OH220639   0.357   4.886   1.461  0.6993 -0.3789  0.5081
 6892TIP3    H120640   0.332   4.811   1.514 -0.9861 -0.7580 -0.7267
 6892TIP3    H220641   0.274   4.932   1.444  1.4814  0.8774 -0.0445
 6893TIP3   OH220642   5.225   5.625   4.833 -0.3298  0.1160  0.2912
 6893TIP3    H120643   5.156   5.575   4.875 -0.0542 -0.5266 -0.0126
 6893TIP3    H220644   5.180   5.683   4.772 -0.7287  1.0002  1.3826
 6894TIP3   OH220645   6.872   0.616   0.808 -0.3861  0.1260  0.1086
 6894TIP3    H120646   6.872   0.553   0.736  3.7573  0.5268 -0.4906
 6894TIP3    H220647   6.799   0.675   0.789 -1.3145 -1.5699 -2.0050
 6895TIP3   OH220648   1.022   5.329   2.721  0.0777 -0.1970 -0.6186
 6895TIP3    H120649   0.999   5.242   2.754  1.7207 -0.8063 -0.9760
 6895TIP3    H220650   1.042   5.315   2.629 -0.1910  0.6846 -0.8231
 6896TIP3   OH220651   1.725   3.242   1.693  0.0576 -0.3649  0.2449
 6896TIP3    H120652   1.806   3.264   1.645 -0.8547  0.4319 -0.9896
 6896TIP3    H220653   1.673   3.322   1.689  0.1748 -0.0632  3.1688
 6897TIP3   OH220654   3.961   2.746   1.963 -0.5178  0.3387  0.2984
 6897TIP3    H120655   3.876   2.763   2.003 -0.2135  0.7332  0.7814
 6897TIP3    H220656   3.957   2.653   1.939 -2.1873  0.9960 -2.3791
 6898TIP3   OH220657   0.072   3.899   0.165  0.1509 -0.5487 -0.5456
 6898TIP3    H120658   0.014   3.848   0.222 -1.2492  0.5565 -0.9231
 6898TIP3    H220659   0.159   3.863   0.181 -0.5301 -1.7788  0.5873
 6899TIP3   OH220660   6.801   4.288   0.542  0.8063 -0.0066  0.1861
 6899TIP3    H120661   6.856   4.321   0.471  1.4390  0.7181  0.9737
 6899TIP3    H220662   6.858   4.229   0.591  0.3518 -0.5663  0.0386
 6900TIP3   OH220663   0.962   2.075   0.787  0.2287  0.0469  1.0448
 6900TIP3    H120664   1.005   2.014   0.728  0.7410  0.1698  1.2844
 6900TIP3    H220665   0.870   2.075   0.760  0.7255  1.3050 -0.7781
 6901TIP3   OH220666   5.065   4.290   3.397  0.3141 -0.1228 -0.1466
 6901TIP3    H120667   5.062   4.309   3.303  0.0329 -0.5269 -0.2216
 6901TIP3    H220668   4.977   4.258   3.417  0.5005 -0.4318  0.1722
 6902TIP3   OH220669   1.554   5.851   3.592 -0.1834  0.1563 -0.4424
 6902TIP3    H120670   1.646   5.856   3.618 -0.4723 -1.5601  1.1072
 6902TIP3    H220671   1.516   5.934   3.620  0.8068  0.6965 -0.6971
 6903TIP3   OH220672   3.351   3.608   5.683  0.0425 -0.3981  0.1148
 6903TIP3    H120673   3.367   3.703   5.680 -0.1094 -0.3091  1.5097
 6903TIP3    H220674   3.437   3.570   5.697 -0.0259 -0.3804  0.6216
 6904TIP3   OH220675   2.325   5.772   5.141  0.3456  0.2687  0.1614
 6904TIP3    H120676   2.235   5.804   5.141  0.4715  0.6217  0.3432
 6904TIP3    H220677   2.370   5.825   5.076 -0.1766 -1.6369 -1.8893
 6905TIP3   OH220678   0.102   2.209   4.977 -0.4185 -0.0227  0.5433
 6905TIP3    H120679   0.180   2.250   4.938  0.5417 -0.2980  2.0949
 6905TIP3    H220680   0.089   2.129   4.925 -0.3119  0.5439 -0.3890
 6906TIP3   OH220681   2.473   4.743   1.509 -0.1350  0.4029 -0.4811
 6906TIP3    H120682   2.387   4.764   1.472  0.2372 -0.0261 -1.6592
 6906TIP3    H220683   2.455   4.677   1.576 -0.5883 -1.0128 -1.9345
 6907TIP3   OH220684   0.739   6.065   4.692  0.4663 -0.0413  0.3834
 6907TIP3    H120685   0.765   6.009   4.765  0.2967  0.9157  1.2114
 6907TIP3    H220686   0.810   6.129   4.685  1.5642 -1.3800 -1.7341
 6908TIP3   OH220687   4.053   3.135   2.106  0.1946  0.8317  0.2759
 6908TIP3    H120688   4.118   3.184   2.157 -0.1808  0.4636  1.1271
 6908TIP3    H220689   3.997   3.093   2.172  0.1631 -0.2888 -0.4403
 6909TIP3   OH220690   3.831   0.715   4.347  0.3654  0.4513  0.5639
 6909TIP3    H120691   3.825   0.810   4.357 -2.5887  0.8108 -2.5467
 6909TIP3    H220692   3.839   0.702   4.252  1.5032 -2.4303  0.9719
 6910TIP3   OH220693   2.758   5.367   3.435 -0.3293  0.4829 -0.0989
 6910TIP3    H120694   2.807   5.292   3.400  0.6682  0.0423  2.0727
 6910TIP3    H220695   2.796   5.443   3.392  1.2321  0.0138  0.4049
 6911TIP3   OH220696   4.777   4.350   4.607  0.0609 -0.2774  0.0534
 6911TIP3    H120697   4.765   4.331   4.700 -0.7122 -0.2549 -0.0390
 6911TIP3    H220698   4.730   4.280   4.562 -0.6635  0.4195 -0.3041
 6912TIP3   OH220699   0.462   2.905   0.592 -0.1702 -0.0711 -0.0754
 6912TIP3    H120700   0.482   2.811   0.585  1.6936  0.3651 -1.2298
 6912TIP3    H220701   0.418   2.926   0.509  3.8382  0.9749 -2.2063
 6913TIP3   OH220702   4.730   4.326   4.122  0.1117  0.1437  0.2213
 6913TIP3    H120703   4.667   4.385   4.164 -0.8060  0.0816 -1.0043
 6913TIP3    H220704   4.695   4.239   4.137  0.7512 -0.0153  0.8612
 6914TIP3   OH220705   1.413   0.722   3.587  0.1929  0.5677  0.1291
 6914TIP3    H120706   1.458   0.794   3.542  0.5538 -1.0924 -2.4088
 6914TIP3    H220707   1.468   0.645   3.569 -1.1910 -0.6778  1.0276
 6915TIP3   OH220708   5.235   5.625   2.285  0.0156  0.0328  0.2008
 6915TIP3    H120709   5.244   5.697   2.222  0.3191  0.1091  0.3316
 6915TIP3    H220710   5.321   5.584   2.287 -0.5730 -1.3613 -1.0989
 6916TIP3   OH220711   5.525   5.298   1.994  0.0966 -0.0494  0.8220
 6916TIP3    H120712   5.504   5.318   2.085 -0.9319 -0.0275  0.5843
 6916TIP3    H220713   5.592   5.229   2.000  0.5406  0.4378  1.5940
 6917TIP3   OH220714   3.601   0.239   2.524 -0.0191 -0.0013  0.1966
 6917TIP3    H120715   3.636   0.299   2.459  1.1839 -1.5821 -0.6934
 6917TIP3    H220716   3.569   0.295   2.595 -0.7935  1.7315 -1.4638
 6918TIP3   OH220717   3.170   1.801   5.117  0.3381 -0.0357  0.3556
 6918TIP3    H120718   3.178   1.820   5.024  1.1233  0.7398  0.5665
 6918TIP3    H220719   3.093   1.852   5.145  1.1783  1.2003  0.4853
 6919TIP3   OH220720   5.261   4.149   3.182  0.1153 -0.2803  0.3131
 6919TIP3    H120721   5.223   4.236   3.193  1.0938  0.1712  0.1637
 6919TIP3    H220722   5.353   4.160   3.202  0.5641 -0.9442 -1.2439
 6920TIP3   OH220723   1.234   0.668   3.000 -0.2997  0.0109 -0.1169
 6920TIP3    H120724   1.271   0.682   3.086 -0.9003  2.8458 -0.2215
 6920TIP3    H220725   1.146   0.633   3.017 -1.2521  2.5326  0.6138
 6921TIP3   OH220726   0.029   2.714   2.711 -0.0834 -0.2521 -0.1291
 6921TIP3    H120727   0.087   2.645   2.679  2.5885  2.0620 -0.7466
 6921TIP3    H220728   0.067   2.795   2.674 -3.5987  1.4828 -0.3073
 6922TIP3   OH220729   0.386   3.284   2.010 -0.3144 -0.2470 -0.2599
 6922TIP3    H120730   0.445   3.350   2.047 -0.7294 -0.1225  0.1968
 6922TIP3    H220731   0.300   3.327   2.010 -0.7945 -1.1409  1.0280
 6923TIP3   OH220732   4.864   3.593   1.711  0.0964 -0.2359 -0.2989
 6923TIP3    H120733   4.777   3.623   1.685  0.1250  0.5899  0.5351
 6923TIP3    H220734   4.874   3.509   1.666 -1.7555 -1.1223  0.8194
 6924TIP3   OH220735   1.319   5.634   1.690 -0.2549  0.1858 -1.1204
 6924TIP3    H120736   1.269   5.556   1.714 -1.4614  0.3484 -2.9137
 6924TIP3    H220737   1.265   5.707   1.719  1.7443  0.5150  2.3560
 6925TIP3   OH220738   4.248   1.181   0.139  0.1758  0.2587 -0.3158
 6925TIP3    H120739   4.316   1.244   0.162  0.9914  0.2095 -2.3643
 6925TIP3    H220740   4.233   1.195   0.045  0.5203 -2.6276 -0.9197
 6926TIP3   OH220741   1.053   5.185   5.773  0.2128 -0.3467 -0.1612
 6926TIP3    H120742   0.960   5.168   5.758  0.2787 -0.6312 -0.2424
 6926TIP3    H220743   1.057   5.278   5.797 -0.3382 -0.8589  2.0939
 6927TIP3   OH220744   4.681   0.915   4.719 -0.0959  0.0659 -0.2983
 6927TIP3    H120745   4.662   1.008   4.712 -0.5939 -0.0757 -0.9593
 6927TIP3    H220746   4.596   0.875   4.739  0.2322 -0.1837  0.6481
 6928TIP3   OH220747   3.504   3.871   0.199 -0.3980 -0.0119  0.4906
 6928TIP3    H120748   3.516   3.779   0.218 -2.2769 -0.3299  0.3014
 6928TIP3    H220749   3.526   3.916   0.280 -0.4883 -0.7057  0.9044
 6929TIP3   OH220750   6.194   1.747   0.929  0.2243  0.2138  0.1321
 6929TIP3    H120751   6.186   1.753   1.024 -0.7251 -0.7522  0.1327
 6929TIP3    H220752   6.278   1.702   0.915  0.2620  0.1581  0.5223
 6930TIP3   OH220753   4.437   1.249   3.773 -1.0106 -0.2733 -0.0984
 6930TIP3    H120754   4.477   1.318   3.721 -0.6289 -1.8848 -2.0669
 6930TIP3    H220755   4.468   1.168   3.732 -1.8497 -1.6107  1.8042
 6931TIP3   OH220756   2.402   5.248   1.202 -0.8709  0.9071 -0.8619
 6931TIP3    H120757   2.339   5.231   1.132 -0.9728  0.5110 -0.6753
 6931TIP3    H220758   2.465   5.177   1.194 -1.5692  0.1407  0.2378
 6932TIP3   OH220759   1.156   4.075   1.494 -0.4636  0.3037  0.0932
 6932TIP3    H120760   1.109   4.149   1.533 -0.9710 -0.3852  0.8309
 6932TIP3    H220761   1.239   4.072   1.540 -1.4152 -1.0588  1.8473
 6933TIP3   OH220762   2.299   1.730   5.725  0.2830 -0.1711  0.7527
 6933TIP3    H120763   2.208   1.701   5.737  0.6237 -1.2374  0.7970
 6933TIP3    H220764   2.333   1.675   5.656  1.0365 -0.0780  1.0465
 6934TIP3   OH220765   6.398   0.233   3.909  0.2906 -0.1022 -0.7810
 6934TIP3    H120766   6.447   0.249   3.828 -0.6822  1.3733 -1.1263
 6934TIP3    H220767   6.462   0.244   3.979  0.5436  1.5936 -1.2283
 6935TIP3   OH220768   1.264   0.288   2.963 -0.3107  0.0716 -0.2499
 6935TIP3    H120769   1.224   0.346   2.898  1.6770  1.2164 -0.5432
 6935TIP3    H220770   1.203   0.288   3.036 -1.6774  0.3026 -1.3511
 6936TIP3   OH220771   1.885   5.933   2.292 -0.5236 -0.4176  0.1608
 6936TIP3    H120772   1.943   5.952   2.365 -0.0597  0.7715 -0.4952
 6936TIP3    H220773   1.914   5.848   2.260 -0.1397 -0.5317  0.7888
 6937TIP3   OH220774   4.559   6.531   3.607  0.0178  0.0891 -0.0404
 6937TIP3    H120775   4.465   6.545   3.615 -0.1404 -0.9656  0.0846
 6937TIP3    H220776   4.576   6.535   3.513 -0.8260 -3.4275 -0.4976
 6938TIP3   OH220777   3.153   0.118   5.087  1.0481  0.2192 -0.0930
 6938TIP3    H120778   3.225   0.164   5.043  0.6183  0.8934 -0.1150
 6938TIP3    H220779   3.075   0.139   5.035  0.3486  1.8815  1.5056
 6939TIP3   OH220780   2.591   3.212   1.312 -0.5472  0.1870  0.0893
 6939TIP3    H120781   2.681   3.179   1.305 -1.5972 -2.5690 -3.2403
 6939TIP3    H220782   2.544   3.144   1.360 -1.1849  0.8814  0.4708
 6940TIP3   OH220783   6.385   5.038   1.496 -0.2153  0.4454  0.2106
 6940TIP3    H120784   6.326   5.079   1.559 -0.5173  1.6596 -0.8244
 6940TIP3    H220785   6.399   4.950   1.530  0.6542  1.4294  2.6620
 6941TIP3   OH220786   3.207   2.030   4.556  0.3603 -0.3174 -0.4618
 6941TIP3    H120787   3.167   1.946   4.574  0.7859 -0.7974 -1.6684
 6941TIP3    H220788   3.152   2.093   4.603 -0.9786 -1.0884 -0.9415
 6942TIP3   OH220789   1.621   0.058   4.409 -0.2309  0.4481  0.8945
 6942TIP3    H120790   1.621  -0.011   4.476  2.6028 -0.2180  0.3389
 6942TIP3    H220791   1.575   0.019   4.335  2.2005 -1.3431  0.2235
 6943TIP3   OH220792   2.536   6.157   3.435 -0.1098  0.1319 -0.2195
 6943TIP3    H120793   2.562   6.221   3.501  0.4619  1.3632 -1.5721
 6943TIP3    H220794   2.491   6.209   3.368 -0.0323 -0.9588 -1.1399
 6944TIP3   OH220795   3.621   5.697   5.561  0.1259  0.4368 -0.4790
 6944TIP3    H120796   3.549   5.669   5.618  1.4763 -1.0216  0.6122
 6944TIP3    H220797   3.605   5.650   5.479 -0.4199  0.5257 -0.4336
 6945TIP3   OH220798   4.986   6.521   2.173  0.2432  0.0763 -0.2588
 6945TIP3    H120799   4.897   6.547   2.148  0.0860 -0.7813 -0.6168
 6945TIP3    H220800   5.009   6.451   2.112  1.2259  0.3821 -0.2587
 6946TIP3   OH220801   3.897   5.590   2.072  0.3459 -0.4589 -0.4094
 6946TIP3    H120802   3.961   5.659   2.087 -0.8096  0.8596 -1.3296
 6946TIP3    H220803   3.815   5.636   2.053 -0.7558 -2.0870  0.1450
 6947TIP3   OH220804   1.118   0.147   3.198  0.4554  0.1142  0.0445
 6947TIP3    H120805   1.205   0.110   3.215  0.1281 -0.4674  0.4878
 6947TIP3    H220806   1.057   0.081   3.230 -0.1843 -0.1271 -1.6192
 6948TIP3   OH220807   6.775   0.931   0.930  0.3691  0.4743 -0.0449
 6948TIP3    H120808   6.852   0.881   0.955 -0.4065 -0.7197  0.0024
 6948TIP3    H220809   6.728   0.946   1.012  1.4600  2.8448  0.2257
 6949TIP3   OH220810   1.293   4.602   4.011 -0.3036 -0.0268 -0.0584
 6949TIP3    H120811   1.277   4.696   4.022  1.1531  0.3929 -1.2650
 6949TIP3    H220812   1.382   4.597   3.977 -0.4761 -1.8384 -0.3036
 6950TIP3   OH220813   4.566   1.514   2.020  0.1836  0.4328 -0.3514
 6950TIP3    H120814   4.642   1.527   2.077 -0.4952 -3.4869  1.7789
 6950TIP3    H220815   4.598   1.459   1.949 -0.2540  0.2593 -0.4207
 6951TIP3   OH220816   6.741   1.532   2.652 -0.1250 -0.2054 -0.6648
 6951TIP3    H120817   6.754   1.560   2.562 -0.1058  1.0345 -0.3036
 6951TIP3    H220818   6.649   1.553   2.671 -0.7066 -2.2975 -0.9918
 6952TIP3   OH220819   0.560   4.102   3.068  0.1352 -0.2919  0.2826
 6952TIP3    H120820   0.570   4.180   3.014  0.2249 -1.6673 -1.7935
 6952TIP3    H220821   0.465   4.090   3.075  0.1303 -0.4432 -0.0594
 6953TIP3   OH220822   3.793   4.964   1.187  0.4388 -0.2556  0.6891
 6953TIP3    H120823   3.699   4.948   1.184  0.2016  1.0766 -0.3647
 6953TIP3    H220824   3.811   5.011   1.105  1.7468  0.7775  1.5297
 6954TIP3   OH220825   5.433   5.644   5.751 -0.1261 -0.0460  0.0834
 6954TIP3    H120826   5.463   5.687   5.831 -0.3946  1.6313 -0.6689
 6954TIP3    H220827   5.510   5.641   5.694 -0.4914  1.0228 -0.5010
 6955TIP3   OH220828   5.226   5.497   0.297 -0.0211 -0.3114  0.3532
 6955TIP3    H120829   5.235   5.469   0.388  0.4546 -0.7902  0.1653
 6955TIP3    H220830   5.169   5.431   0.257 -1.0976  0.4712  0.5459
 6956TIP3   OH220831   0.554   6.676   0.707  0.0323  0.3264 -0.5658
 6956TIP3    H120832   0.595   6.643   0.627  0.0124 -1.6496  0.1874
 6956TIP3    H220833   0.605   6.636   0.778 -1.0795  0.5614  0.3877
 6957TIP3   OH220834   0.123   4.074   4.471  0.5834  0.1676  0.3512
 6957TIP3    H120835   0.031   4.098   4.459  0.0770 -1.3906  0.8944
 6957TIP3    H220836   0.136   4.075   4.565  0.8324 -0.5963  0.3308
 6958TIP3   OH220837   4.717   4.354   2.855  0.1750 -0.4974  0.0063
 6958TIP3    H120838   4.641   4.347   2.797  0.7095  0.6269 -0.8669
 6958TIP3    H220839   4.782   4.400   2.803  1.0657 -0.4431  1.1414
 6959TIP3   OH220840   0.797   5.565   1.524  0.1167  0.3864 -0.4748
 6959TIP3    H120841   0.827   5.480   1.558 -0.1417  0.1255 -0.8920
 6959TIP3    H220842   0.877   5.616   1.514  0.5471 -0.5666 -2.3152
 6960TIP3   OH220843   7.031   0.416   5.696  0.4440 -0.7590  0.4825
 6960TIP3    H120844   7.000   0.400   5.785  0.8500 -0.2548  0.7191
 6960TIP3    H220845   7.125   0.427   5.705  0.1909  2.0786  0.4209
 6961TIP3   OH220846   4.616   5.550   1.790  0.0161 -0.3264 -0.4021
 6961TIP3    H120847   4.603   5.465   1.750  2.3824 -0.6394 -0.6526
 6961TIP3    H220848   4.685   5.535   1.856 -0.8380  1.0240  0.8686
 6962TIP3   OH220849   2.727   1.305   4.507 -0.1828 -0.5303 -0.2518
 6962TIP3    H120850   2.785   1.366   4.552 -0.2507 -0.0393 -0.8144
 6962TIP3    H220851   2.677   1.360   4.447 -1.0762 -0.9767  0.0652
 6963TIP3   OH220852   0.637   4.220   0.035  0.3685 -0.1473 -0.7246
 6963TIP3    H120853   0.621   4.126   0.026  1.5873 -0.6232  1.3136
 6963TIP3    H220854   0.691   4.228   0.113 -2.0983  2.5278  0.9208
 6964TIP3   OH220855   3.053   4.946   3.371  0.2483  0.2283 -0.3584
 6964TIP3    H120856   3.043   4.890   3.294  0.5144  0.1159 -0.3133
 6964TIP3    H220857   3.116   4.899   3.426 -0.5926 -0.1255  0.3333
 6965TIP3   OH220858   6.649   2.300   0.447 -0.4248 -0.2145 -0.2140
 6965TIP3    H120859   6.618   2.389   0.434  1.0778  0.5723  1.1816
 6965TIP3    H220860   6.684   2.273   0.361  1.5804  1.5986 -0.0409
 6966TIP3   OH220861   2.241   4.998   3.845  0.0090 -0.1159  0.0477
 6966TIP3    H120862   2.284   4.937   3.785  0.6144  0.9633 -0.6552
 6966TIP3    H220863   2.196   5.060   3.788 -1.5304 -0.5378  0.7640
 6967TIP3   OH220864   7.031   3.851   3.874  0.1564  0.4408  0.4164
 6967TIP3    H120865   7.105   3.901   3.838 -1.3574  0.6723 -2.7354
 6967TIP3    H220866   6.957   3.913   3.871 -0.8282 -0.6990  0.4768
 6968TIP3   OH220867   4.779   6.526   2.985  0.2647  0.4183  0.3888
 6968TIP3    H120868   4.848   6.533   2.919 -1.6840  0.6997 -1.7413
 6968TIP3    H220869   4.807   6.455   3.042  3.8565  2.5590  1.6584
 6969TIP3   OH220870   1.115   6.335   3.759 -0.2422 -0.0328 -0.0711
 6969TIP3    H120871   1.156   6.342   3.846  0.1111 -1.6206 -0.0777
 6969TIP3    H220872   1.189   6.334   3.698 -0.3374 -1.6301 -0.1807
 6970TIP3   OH220873   3.613   4.349   1.969 -0.6464  0.2436  0.0072
 6970TIP3    H120874   3.556   4.276   1.941 -0.7553  0.8824 -1.5074
 6970TIP3    H220875   3.564   4.428   1.945  0.0738  0.8162  0.3924
 6971TIP3   OH220876   3.235   3.015   3.903 -0.4661 -1.0477 -0.4998
 6971TIP3    H120877   3.288   3.094   3.919 -1.2771 -0.6916  0.5862
 6971TIP3    H220878   3.279   2.947   3.954 -0.1679 -1.1333 -0.8673
 6972TIP3   OH220879   4.754   3.743   1.931 -0.3277 -0.1079 -0.3224
 6972TIP3    H120880   4.736   3.679   1.861  0.4641 -0.5825 -0.0980
 6972TIP3    H220881   4.701   3.819   1.907 -1.4281 -0.8980 -0.5127
 6973TIP3   OH220882   5.423   1.313   1.277 -0.5667  0.2734 -0.2565
 6973TIP3    H120883   5.333   1.324   1.245 -0.1876  0.2021 -1.3733
 6973TIP3    H220884   5.423   1.226   1.317 -0.5339 -0.5453 -1.9418
 6974TIP3   OH220885   0.130   1.979   3.124 -0.4295  0.7310  0.0471
 6974TIP3    H120886   0.104   1.895   3.086 -0.1454 -0.7428  2.8649
 6974TIP3    H220887   0.059   2.002   3.184  0.3583  1.5310  0.7038
 6975TIP3   OH220888   1.464   3.263   5.597  0.2121  0.4335  0.3405
 6975TIP3    H120889   1.521   3.225   5.663 -0.0115  0.5942  0.6303
 6975TIP3    H220890   1.495   3.353   5.587  1.1182  0.0263 -0.7718
 6976TIP3   OH220891   1.580   2.915   5.376 -0.2824  0.3403  0.7233
 6976TIP3    H120892   1.538   2.836   5.341  1.3408 -0.7487  1.1282
 6976TIP3    H220893   1.651   2.882   5.431  1.5562  2.0944 -0.4638
 6977TIP3   OH220894   2.322   5.483   3.469  0.0026 -0.8742 -0.3225
 6977TIP3    H120895   2.329   5.424   3.394 -0.7391  0.5647 -1.5908
 6977TIP3    H220896   2.413   5.506   3.489  0.2675 -2.0123 -0.1341
 6978TIP3   OH220897   4.287   6.414   5.098 -0.1260  0.2939  0.2039
 6978TIP3    H120898   4.348   6.402   5.172 -0.3308  2.9649  0.8949
 6978TIP3    H220899   4.204   6.437   5.139 -0.3908  1.2739 -0.8343
 6979TIP3   OH220900   4.595   0.082   3.649  0.0258  0.2524 -0.4835
 6979TIP3    H120901   4.546   0.107   3.727 -1.6287 -0.7615 -1.1373
 6979TIP3    H220902   4.568   0.144   3.582 -2.1530 -1.5654 -1.4269
 6980TIP3   OH220903   3.641   5.500   1.074  0.0620  0.0371  0.4968
 6980TIP3    H120904   3.717   5.450   1.105  1.1102 -1.2472 -3.5029
 6980TIP3    H220905   3.567   5.441   1.087  0.9289 -1.7746 -1.9218
 6981TIP3   OH220906   5.497   3.247   0.801 -0.6174 -0.1181  0.0287
 6981TIP3    H120907   5.490   3.174   0.862  1.1352  0.1328  0.5927
 6981TIP3    H220908   5.504   3.206   0.715 -1.1523 -0.5436  0.1836
 6982TIP3   OH220909   3.786   4.987   2.546 -0.0789  0.2115 -0.1225
 6982TIP3    H120910   3.796   5.082   2.541  1.4788  0.1880  1.5162
 6982TIP3    H220911   3.694   4.972   2.525 -0.8926  2.2834  1.5669
 6983TIP3   OH220912   2.195   4.798   2.190  0.1741  0.0837  0.0075
 6983TIP3    H120913   2.128   4.803   2.121  0.6475  0.5369 -0.4214
 6983TIP3    H220914   2.242   4.717   2.171 -0.4906 -0.4397  0.5374
 6984TIP3   OH220915   1.938   2.666   2.400  0.1475  0.0316  0.3523
 6984TIP3    H120916   1.947   2.634   2.311 -1.5279  0.6839 -0.0928
 6984TIP3    H220917   1.854   2.712   2.401  0.4765  0.6893  2.0720
 6985TIP3   OH220918   4.130   1.543   4.956 -0.0438 -0.6836  0.0639
 6985TIP3    H120919   4.087   1.521   4.874 -0.1252 -0.9309  0.1730
 6985TIP3    H220920   4.064   1.593   5.005  0.3866  0.4548 -0.4824
 6986TIP3   OH220921   1.166   2.623   3.615 -0.2233 -0.5513  0.1011
 6986TIP3    H120922   1.109   2.630   3.692 -1.2883 -0.4837 -0.6667
 6986TIP3    H220923   1.244   2.577   3.647 -1.1399 -1.5612  0.9678
 6987TIP3   OH220924   6.506   4.565   2.733 -0.1259  0.1799  0.1318
 6987TIP3    H120925   6.526   4.647   2.778 -0.4988  0.0103  0.6135
 6987TIP3    H220926   6.419   4.540   2.765 -0.0399 -0.3766 -0.0475
 6988TIP3   OH220927   6.795   4.942   4.746  0.2630  0.5218 -0.5495
 6988TIP3    H120928   6.870   4.995   4.774  0.8447 -0.6931  0.2902
 6988TIP3    H220929   6.832   4.879   4.685  0.1084 -0.6068  0.4862
 6989TIP3   OH220930   5.844   0.108   5.879  0.3856  0.0586  0.3149
 6989TIP3    H120931   5.858   0.029   5.828 -2.9128  0.3119 -1.2951
 6989TIP3    H220932   5.824   0.077   5.967  1.1992 -0.7274  0.2342
 6990TIP3   OH220933   2.422   0.019   0.901  0.0851 -0.3247 -0.0840
 6990TIP3    H120934   2.486  -0.049   0.877  0.6556 -0.6433  2.1169
 6990TIP3    H220935   2.455   0.098   0.858  1.4023 -0.7046  0.1597
 6991TIP3   OH220936   7.199   5.967   4.776 -0.0796 -0.1083  0.0958
 6991TIP3    H120937   7.158   6.020   4.845  1.2183  0.7222  0.2682
 6991TIP3    H220938   7.240   6.031   4.718  0.8892 -0.8916 -0.1107
 6992TIP3   OH220939   0.426   4.736   1.218 -0.2233  0.2049 -0.4415
 6992TIP3    H120940   0.407   4.777   1.302 -1.7673  1.4859 -1.3451
 6992TIP3    H220941   0.443   4.809   1.159  2.5284 -0.7069 -0.9537
 6993TIP3   OH220942   3.517   5.013   1.184  0.1317 -0.0215  0.0548
 6993TIP3    H120943   3.501   5.106   1.196 -0.7371  0.1654 -2.1526
 6993TIP3    H220944   3.430   4.973   1.193  0.4952 -0.6294  0.9712
 6994TIP3   OH220945   4.136   3.237   1.416  0.5392 -0.1107  0.0309
 6994TIP3    H120946   4.139   3.288   1.335 -1.4969  1.5787  0.9127
 6994TIP3    H220947   4.168   3.150   1.391 -2.0786 -0.3639 -3.1246
 6995TIP3   OH220948   6.735   2.159   1.922 -0.1739  0.2730 -0.1344
 6995TIP3    H120949   6.784   2.168   2.004 -0.5639  0.0629  0.1273
 6995TIP3    H220950   6.798   2.120   1.861  0.2233  0.7519 -0.0386
 6996TIP3   OH220951   1.775   2.857   4.464 -0.1505 -0.3860  0.4588
 6996TIP3    H120952   1.740   2.939   4.500  1.8000  1.4879 -1.6039
 6996TIP3    H220953   1.856   2.842   4.512 -0.0174 -0.5771  0.1796
 6997TIP3   OH220954   1.901   1.579   4.409 -0.0631  0.6315  0.2290
 6997TIP3    H120955   1.974   1.641   4.406 -0.5723  1.2684  0.6338
 6997TIP3    H220956   1.897   1.542   4.321 -0.2225  1.7516 -0.2558
 6998TIP3   OH220957   1.309   4.809   5.080  0.1700  0.4764 -0.2029
 6998TIP3    H120958   1.270   4.821   5.167  0.9368 -0.6166  0.3085
 6998TIP3    H220959   1.246   4.757   5.032  1.0997 -1.7085  0.7787
 6999TIP3   OH220960   6.340   3.795   1.486 -0.0689 -0.2984 -0.0713
 6999TIP3    H120961   6.282   3.871   1.496  1.3630  0.8674 -0.2153
 6999TIP3    H220962   6.289   3.721   1.519 -1.4834  0.7346  0.1570
 7000TIP3   OH220963   3.987   4.322   1.432 -0.5318  0.0638 -0.4591
 7000TIP3    H120964   4.015   4.364   1.350  2.0426  0.6668  0.6299
 7000TIP3    H220965   3.911   4.374   1.460  0.2483  1.6033 -1.0784
 7001TIP3   OH220966   6.863   2.144   0.758  0.3012 -0.3669 -0.4492
 7001TIP3    H120967   6.823   2.137   0.844 -0.4967 -1.9853 -0.9121
 7001TIP3    H220968   6.910   2.227   0.760 -1.8975  0.9542  0.6144
 7002TIP3   OH220969   5.283   4.601   5.303  0.2667 -0.2655 -0.2455
 7002TIP3    H120970   5.305   4.694   5.313  0.3679 -0.3030 -0.1119
 7002TIP3    H220971   5.297   4.564   5.390 -1.1731 -0.1167  0.0738
 7003TIP3   OH220972   1.973   1.931   4.805  0.4451 -0.0745  0.6753
 7003TIP3    H120973   1.938   2.009   4.762  0.3049 -1.7439 -2.6370
 7003TIP3    H220974   2.065   1.929   4.778  0.0668 -1.7857 -0.6957
 7004TIP3   OH220975   6.730   0.843   2.156 -0.0480 -0.6322 -0.5640
 7004TIP3    H120976   6.714   0.937   2.162 -1.3541 -0.8663 -0.1213
 7004TIP3    H220977   6.707   0.821   2.065 -2.0989 -0.9047 -0.0307
 7005TIP3   OH220978   0.894   3.356   4.693 -0.0799 -0.0561 -0.2014
 7005TIP3    H120979   0.817   3.408   4.717 -0.0510 -0.9880  2.1767
 7005TIP3    H220980   0.962   3.384   4.754 -0.1063 -2.9068  1.2881
 7006TIP3   OH220981   4.528   4.058   4.883 -0.0505  0.2899 -0.2163
 7006TIP3    H120982   4.462   4.123   4.860 -1.7094 -1.6608 -1.3664
 7006TIP3    H220983   4.503   4.026   4.970  0.2787  0.6102 -0.0029
 7007TIP3   OH220984   2.436   4.851   2.555 -0.7633 -0.4337  0.1000
 7007TIP3    H120985   2.418   4.888   2.641  0.1956  0.2208  0.0362
 7007TIP3    H220986   2.514   4.897   2.525 -1.2131 -0.4730 -1.2176
 7008TIP3   OH220987   1.296   0.324   0.983 -0.3340 -0.2165  0.4886
 7008TIP3    H120988   1.334   0.404   0.946  0.8532 -1.1435 -0.3658
 7008TIP3    H220989   1.264   0.276   0.907  1.3492 -1.7516  0.6970
 7009TIP3   OH220990   5.492   1.912   1.879 -0.6464  0.6908 -0.1420
 7009TIP3    H120991   5.457   1.851   1.814  0.6897 -0.3297  0.0528
 7009TIP3    H220992   5.538   1.978   1.827 -0.4465  0.4489 -0.2735
 7010TIP3   OH220993   4.083   4.097   1.275 -0.4759  0.4003  0.4439
 7010TIP3    H120994   4.143   4.165   1.248 -0.1899  0.5388  1.3972
 7010TIP3    H220995   4.030   4.137   1.344 -3.0307  0.9306 -1.6681
 7011TIP3   OH220996   6.178   2.610   0.871  0.1785 -0.1145  1.3120
 7011TIP3    H120997   6.258   2.600   0.820 -0.9293 -0.3152 -0.4797
 7011TIP3    H220998   6.132   2.526   0.861 -0.8340  0.4243  1.2672
 7012TIP3   OH220999   0.339   6.413   2.777  0.1832 -0.6433 -0.2533
 7012TIP3    H121000   0.257   6.388   2.820 -0.0170 -0.5153 -0.5539
 7012TIP3    H221001   0.342   6.509   2.786 -0.8389 -0.3639 -2.1858
 7013TIP3   OH221002   7.148   5.320   3.759 -0.2815  0.4077  0.3339
 7013TIP3    H121003   7.194   5.355   3.682 -0.1805  0.6133  0.4856
 7013TIP3    H221004   7.215   5.273   3.808 -0.3067  0.4280  0.3880
 7014TIP3   OH221005   0.873   1.029   4.548 -0.2103 -0.2441  0.0136
 7014TIP3    H121006   0.794   0.997   4.505  0.3161 -0.6359 -0.6848
 7014TIP3    H221007   0.851   1.118   4.576 -0.3181  0.3440 -1.8079
 7015TIP3   OH221008   4.159   2.709   3.041  0.1703 -0.0222 -0.2940
 7015TIP3    H121009   4.157   2.802   3.017  0.8855 -0.5893 -2.9182
 7015TIP3    H221010   4.070   2.678   3.023  0.5353 -0.2994 -1.8099
 7016TIP3   OH221011   4.922   1.514   5.171  0.4704  0.4107 -0.3356
 7016TIP3    H121012   4.832   1.546   5.176  1.1881  2.6962 -0.8151
 7016TIP3    H221013   4.946   1.527   5.079  1.3558 -0.0118 -0.1681
 7017TIP3   OH221014   1.821   1.855   3.045  0.0177 -0.6223  0.0474
 7017TIP3    H121015   1.916   1.862   3.059 -0.1684 -0.3469  1.2420
 7017TIP3    H221016   1.810   1.772   2.998  1.0263  0.3937 -2.1500
 7018TIP3   OH221017   5.375   1.528   0.729 -0.2008  0.1756  0.6223
 7018TIP3    H121018   5.293   1.510   0.683 -0.7801  1.3021  1.1496
 7018TIP3    H221019   5.352   1.597   0.792  0.0804 -2.4986  3.9266
 7019TIP3   OH221020   5.338   0.722   1.546 -0.0613 -0.1031  0.0817
 7019TIP3    H121021   5.367   0.661   1.614  0.8467 -0.5792 -0.7187
 7019TIP3    H221022   5.419   0.760   1.511 -0.5274  0.2803 -0.6036
 7020TIP3   OH221023   5.807   1.341   2.417 -0.0540  0.0964  0.2090
 7020TIP3    H121024   5.849   1.278   2.475 -0.6652 -0.1135  0.4306
 7020TIP3    H221025   5.878   1.377   2.364  0.0498 -2.4385 -1.5445
 7021TIP3   OH221026   5.810   4.331   5.715  0.3837 -0.4337  0.3530
 7021TIP3    H121027   5.821   4.309   5.808  0.0534 -0.8870  0.2917
 7021TIP3    H221028   5.769   4.253   5.677  1.9251 -0.8688 -0.4870
 7022TIP3   OH221029   7.060   0.552   2.220  0.2728  0.2069  0.3530
 7022TIP3    H121030   6.978   0.554   2.271 -0.2786  0.9465 -0.5284
 7022TIP3    H221031   7.039   0.599   2.139  1.4195 -0.0825 -0.1325
 7023TIP3   OH221032   1.856   5.173   1.506  0.7111 -0.1566  0.7822
 7023TIP3    H121033   1.815   5.257   1.488  0.9607 -0.4087 -1.2142
 7023TIP3    H221034   1.793   5.126   1.559 -0.5113  0.3917 -0.1312
 7024TIP3   OH221035   1.398   2.364   4.659  0.1057 -0.1160  0.4897
 7024TIP3    H121036   1.348   2.296   4.704 -1.6586 -0.0975 -1.3425
 7024TIP3    H221037   1.469   2.316   4.616  0.3916 -0.4293  1.2805
 7025TIP3   OH221038   0.170   4.301   5.174 -0.1574  0.1302  0.4765
 7025TIP3    H121039   0.245   4.251   5.207 -0.1275 -0.3112 -0.2480
 7025TIP3    H221040   0.111   4.235   5.137 -0.2887  0.5918 -0.1614
 7026TIP3   OH221041   5.915   2.757   3.261  0.8232  0.4996 -0.0710
 7026TIP3    H121042   5.927   2.803   3.178  2.1101 -0.7021 -0.5831
 7026TIP3    H221043   6.003   2.733   3.288  0.2021 -1.6254  0.1978
 7027TIP3   OH221044   1.114   1.083   4.171  0.3365  0.0568  0.3178
 7027TIP3    H121045   1.125   1.043   4.257  1.6081 -0.7503 -0.1836
 7027TIP3    H221046   1.067   1.165   4.188 -2.7893 -1.7748  1.3357
 7028TIP3   OH221047   2.219   1.956   0.821 -0.0228 -0.1045 -0.0531
 7028TIP3    H121048   2.308   1.936   0.792 -0.1649 -0.4531 -0.2570
 7028TIP3    H221049   2.228   1.980   0.913  0.5207  1.6132 -0.5239
 7029TIP3   OH221050   1.427   5.849   0.926 -0.2070  0.1465 -0.4583
 7029TIP3    H121051   1.399   5.941   0.930  1.5364  0.7322 -0.6538
 7029TIP3    H221052   1.482   5.837   1.003 -0.5533 -0.7959 -0.3443
 7030TIP3   OH221053   2.414   2.960   2.983 -0.0544 -0.0750 -0.2580
 7030TIP3    H121054   2.503   2.987   2.960  0.3400 -2.6962 -2.3485
 7030TIP3    H221055   2.426   2.880   3.035 -1.2150  1.2373  2.2042
 7031TIP3   OH221056   4.161   3.244   1.834 -0.0229  0.2266  0.0489
 7031TIP3    H121057   4.092   3.215   1.894  0.0866  1.3239  0.7443
 7031TIP3    H221058   4.188   3.330   1.868  1.8742 -0.2767 -0.0373
 7032TIP3   OH221059   0.538   3.604   2.642 -0.6267 -0.0907 -0.2898
 7032TIP3    H121060   0.504   3.687   2.674  1.0125  0.0903  1.1225
 7032TIP3    H221061   0.614   3.586   2.698 -1.1117 -2.6887 -0.3321
 7033TIP3   OH221062   1.964   0.612   5.074  0.1184 -0.0979 -0.0800
 7033TIP3    H121063   1.875   0.579   5.085  0.1582  0.4264  2.4403
 7033TIP3    H221064   1.962   0.656   4.989 -2.0723 -0.0094 -0.0628
 7034TIP3   OH221065   7.116   4.098   5.201  0.2822 -0.0492  0.0998
 7034TIP3    H121066   7.103   4.165   5.268  0.8867  0.5997 -0.4146
 7034TIP3    H221067   7.182   4.039   5.238  1.1315  0.7009 -0.1894
 7035TIP3   OH221068   2.581   3.281   3.958 -0.0010  0.2667 -0.3205
 7035TIP3    H121069   2.625   3.226   3.893 -0.6649  1.4994 -1.8755
 7035TIP3    H221070   2.504   3.315   3.913 -0.7930  0.7237  1.3076
 7036TIP3   OH221071   3.991   2.517   4.005 -0.0495 -0.2285  0.5181
 7036TIP3    H121072   4.071   2.556   3.968 -0.6039  1.0050  0.5736
 7036TIP3    H221073   4.016   2.491   4.093  0.7363 -1.3700 -0.0146
 7037TIP3   OH221074   2.212   1.235   5.038  0.3890  0.2898  0.4540
 7037TIP3    H121075   2.125   1.275   5.051  1.0295  2.4600 -1.1767
 7037TIP3    H221076   2.193   1.148   5.002 -1.0899 -0.0997  2.0575
 7038TIP3   OH221077   7.101   2.311   2.249  0.8422  0.2186 -0.0735
 7038TIP3    H121078   7.060   2.393   2.275  0.2992  0.6917 -2.2284
 7038TIP3    H221079   7.029   2.258   2.214  1.4025 -0.6557  0.0552
 7039TIP3   OH221080   2.582   0.671   5.739  0.2766 -0.7027  0.0676
 7039TIP3    H121081   2.559   0.725   5.663 -1.1305 -1.7285 -0.2847
 7039TIP3    H221082   2.534   0.589   5.725  0.7171 -1.2552  1.6144
 7040TIP3   OH221083   4.383   4.576   0.440 -0.4542  0.5245 -0.0023
 7040TIP3    H121084   4.357   4.609   0.354  1.1807 -0.9229 -1.1026
 7040TIP3    H221085   4.342   4.637   0.502 -0.4007  2.5099 -1.8208
 7041TIP3   OH221086   5.761   3.237   4.112  0.5570  0.1686 -0.2088
 7041TIP3    H121087   5.741   3.273   4.026  0.7390 -1.4248 -0.9465
 7041TIP3    H221088   5.857   3.235   4.116  0.6506  2.8907  1.2238
 7042TIP3   OH221089   5.819   3.327   0.181 -0.3415 -0.4899  0.5904
 7042TIP3    H121090   5.724   3.334   0.189 -0.3749 -1.2308  0.9342
 7042TIP3    H221091   5.847   3.287   0.264  0.1802 -0.9959  0.1775
 7043TIP3   OH221092   3.496   6.579   4.695  0.0478  0.1005 -0.1458
 7043TIP3    H121093   3.415   6.599   4.649  0.7816 -2.3924 -2.8726
 7043TIP3    H221094   3.565   6.614   4.638  0.9550 -1.4565 -0.0627
 7044TIP3   OH221095   5.190   0.223   1.068 -0.3965  0.5127 -0.3221
 7044TIP3    H121096   5.114   0.263   1.109 -1.2028  1.4935 -2.6048
 7044TIP3    H221097   5.260   0.287   1.080  0.6912 -1.0839  3.2413
 7045TIP3   OH221098   1.549   0.888   3.368  0.4563 -0.1582  0.5857
 7045TIP3    H121099   1.536   0.900   3.274  1.0862  2.9441  0.7778
 7045TIP3    H221100   1.643   0.871   3.378  0.5457  0.3862  0.6984
 7046TIP3   OH221101   2.882   0.953   0.316  0.3533 -0.2566 -0.0748
 7046TIP3    H121102   2.884   0.937   0.222  2.6763 -0.9923  0.0302
 7046TIP3    H221103   2.958   1.009   0.333 -1.8827  2.6599  0.9882
 7047TIP3   OH221104   5.438   1.426   3.251  0.0598 -0.0783 -0.4672
 7047TIP3    H121105   5.371   1.441   3.317  0.6184  1.5341 -0.2259
 7047TIP3    H221106   5.521   1.438   3.298  0.4922 -0.4057 -1.1287
 7048TIP3   OH221107   2.665   4.807   3.060  0.3404  0.3762  0.0901
 7048TIP3    H121108   2.714   4.888   3.046  1.9266 -0.4332  0.7049
 7048TIP3    H221109   2.729   4.746   3.096 -1.2121 -0.6483  1.2468
 7049TIP3   OH221110   2.359   4.209   5.608  0.1878  0.3728  0.3646
 7049TIP3    H121111   2.384   4.180   5.696  0.9579  3.0337  1.0907
 7049TIP3    H221112   2.442   4.220   5.561 -0.2099 -0.9360 -0.7249
 7050TIP3   OH221113   2.955   3.784   4.491 -0.3168  0.3594  0.0140
 7050TIP3    H121114   2.951   3.860   4.433  0.3237 -0.4444 -1.1387
 7050TIP3    H221115   3.049   3.767   4.502 -0.4484 -0.5202 -0.1113
 7051TIP3   OH221116   6.072   6.255   1.881 -0.1410 -0.0943 -0.3922
 7051TIP3    H121117   6.094   6.236   1.972  0.5953 -2.0036 -0.9042
 7051TIP3    H221118   6.110   6.341   1.864  0.5584 -0.1379  0.8418
 7052TIP3   OH221119   3.481   0.649   1.057 -0.2784 -0.5373 -0.0648
 7052TIP3    H121120   3.415   0.592   1.095 -1.5472  1.2764  0.6075
 7052TIP3    H221121   3.558   0.640   1.114 -0.9864 -0.4387  0.9235
 7053TIP3   OH221122   2.807   1.621   0.473  0.3019 -0.6448  0.3910
 7053TIP3    H121123   2.801   1.702   0.524 -0.1314  0.5192 -1.4108
 7053TIP3    H221124   2.895   1.589   0.490  1.9584  2.3014 -1.7569
 7054TIP3   OH221125   4.604   1.653   4.449  0.1687 -0.2930  0.0299
 7054TIP3    H121126   4.579   1.658   4.541  1.3414 -1.5135  0.4557
 7054TIP3    H221127   4.558   1.726   4.407 -0.6502  0.0785  1.5099
 7055TIP3   OH221128   5.314   0.418   3.261 -0.0352  0.2497  0.2155
 7055TIP3    H121129   5.345   0.328   3.271  1.3187  0.6888  0.1233
 7055TIP3    H221130   5.341   0.444   3.173 -0.5881  0.6855  0.1673
 7056TIP3   OH221131   0.250   3.807   1.919  0.1684  0.2975  0.2956
 7056TIP3    H121132   0.156   3.827   1.926 -0.5715 -2.4199 -0.5524
 7056TIP3    H221133   0.276   3.784   2.008 -0.0656  0.6740  0.4637
 7057TIP3   OH221134   4.550   3.022   4.709 -0.5706 -0.0744  0.2914
 7057TIP3    H121135   4.585   3.106   4.678  1.0069 -1.5138 -2.0920
 7057TIP3    H221136   4.626   2.974   4.739 -1.2235 -1.2690  0.0790
 7058TIP3   OH221137   3.078   4.207   0.839 -0.2313 -0.3636 -0.4646
 7058TIP3    H121138   3.104   4.116   0.851 -0.6980 -0.1820  3.0130
 7058TIP3    H221139   2.987   4.210   0.867  0.1833  1.3667  0.8446
 7059TIP3   OH221140   2.908   1.953   4.664 -0.3615  0.8682 -0.4993
 7059TIP3    H121141   2.916   1.976   4.756  0.2980  0.4761 -0.4502
 7059TIP3    H221142   2.945   1.865   4.658 -0.8881  0.6764 -1.0464
 7060TIP3   OH221143   3.005   1.313   2.008  0.1102 -0.1810  0.3150
 7060TIP3    H121144   2.997   1.387   1.948 -0.6731 -0.7777 -0.3359
 7060TIP3    H221145   3.089   1.327   2.052 -0.3606  1.4867  0.7530
 7061TIP3   OH221146   4.683   0.275   4.029  0.0255  0.1634  0.4457
 7061TIP3    H121147   4.618   0.225   3.979 -0.9772  0.7628  1.1206
 7061TIP3    H221148   4.675   0.364   3.997  0.9169  0.1462  0.1482
 7062TIP3   OH221149   4.460   6.597   0.417  0.6530  0.5381  0.0399
 7062TIP3    H121150   4.365   6.591   0.426  0.7640  0.9696  1.9436
 7062TIP3    H221151   4.491   6.506   0.421  0.3658  0.4341 -0.1048
 7063TIP3   OH221152   6.007   4.043   1.913  0.1812  0.2360 -0.7733
 7063TIP3    H121153   5.914   4.056   1.894 -0.0149  0.3331  0.1989
 7063TIP3    H221154   6.022   3.950   1.899 -0.1505  0.1516 -0.5630
 7064TIP3   OH221155   2.911   2.501   4.111 -0.1892 -0.0396  0.2442
 7064TIP3    H121156   2.898   2.417   4.067 -1.2238  0.7230 -0.9843
 7064TIP3    H221157   3.001   2.526   4.088  0.7986 -1.5996  2.1129
 7065TIP3   OH221158   2.035   4.764   0.180  0.2060  0.5679  0.1988
 7065TIP3    H121159   2.089   4.837   0.211  0.2247  0.5080  0.3105
 7065TIP3    H221160   1.945   4.790   0.201  0.1293  0.9711 -0.6125
 7066TIP3   OH221161   4.601   4.043   2.661 -0.1063  0.3990  0.6395
 7066TIP3    H121162   4.608   3.957   2.703  0.9548  0.3672  0.4260
 7066TIP3    H221163   4.541   4.029   2.588  0.5239 -0.3180  0.2415
 7067TIP3   OH221164   5.727   4.980   0.076  0.4497  0.2518 -0.1146
 7067TIP3    H121165   5.669   4.988   0.152  0.9493  1.1992  0.1821
 7067TIP3    H221166   5.691   4.906   0.026  1.9511 -2.5300  2.5959
 7068TIP3   OH221167   2.414   0.654   3.430 -0.2174 -0.4900 -0.3344
 7068TIP3    H121168   2.506   0.651   3.402 -0.2146 -0.0771 -0.3847
 7068TIP3    H221169   2.364   0.632   3.352 -0.1267 -1.8991 -0.0140
 7069TIP3   OH221170   6.205   5.249   0.562 -0.2747 -0.1211 -1.0082
 7069TIP3    H121171   6.117   5.234   0.528 -0.6216  0.4249 -0.3838
 7069TIP3    H221172   6.234   5.331   0.520 -0.2813 -0.0111 -0.7992
 7070TIP3   OH221173   6.598   5.826   1.072  0.2255  0.6997 -0.0284
 7070TIP3    H121174   6.511   5.802   1.041  0.4591 -1.9330  1.1358
 7070TIP3    H221175   6.585   5.853   1.163  0.6768 -0.2775  0.3380
 7071TIP3   OH221176   7.143   6.759   2.343 -0.1325 -0.3586 -0.6302
 7071TIP3    H121177   7.146   6.706   2.263 -0.1140 -1.7433  0.2471
 7071TIP3    H221178   7.231   6.752   2.379 -0.5043 -0.8840  0.1999
 7072TIP3   OH221179   1.313   5.015   2.673  0.7552 -0.0252  0.1189
 7072TIP3    H121180   1.286   4.967   2.594 -0.5854 -1.1239  1.1937
 7072TIP3    H221181   1.312   4.950   2.742  0.2843  1.2553  1.3617
 7073TIP3   OH221182   5.282   4.573   5.608 -0.8218 -0.3358 -0.3025
 7073TIP3    H121183   5.208   4.547   5.663 -0.9801  2.5846  1.0659
 7073TIP3    H221184   5.358   4.563   5.664 -0.6419  0.1165 -0.4599
 7074TIP3   OH221185   5.089   3.636   4.218  0.3332  0.3178 -0.4754
 7074TIP3    H121186   5.093   3.727   4.247 -0.2082  0.2226 -0.1021
 7074TIP3    H221187   5.027   3.594   4.277 -0.7242  0.1031 -1.7032
 7075TIP3   OH221188   6.786   4.077   5.422  0.2193  0.3030  0.3510
 7075TIP3    H121189   6.778   4.109   5.333 -1.3354  0.9014  0.6740
 7075TIP3    H221190   6.835   3.995   5.414 -0.6785 -0.1139 -1.1502
 7076TIP3   OH221191   5.434   4.617   5.043  0.4149  0.1306  0.3736
 7076TIP3    H121192   5.367   4.604   5.111  0.6339 -1.0005  0.4014
 7076TIP3    H221193   5.515   4.586   5.083  0.3512 -1.6267 -0.7455
 7077TIP3   OH221194   3.907   2.913   3.203  0.3555  0.1773 -0.5816
 7077TIP3    H121195   3.819   2.930   3.238 -0.1366 -1.8045 -0.7492
 7077TIP3    H221196   3.963   2.909   3.281 -0.2240 -1.3274 -0.2170
 7078TIP3   OH221197   2.309   2.914   2.535  0.0562  0.5186 -0.1568
 7078TIP3    H121198   2.350   2.883   2.454  0.7471 -0.3558  0.5035
 7078TIP3    H221199   2.381   2.948   2.587 -0.1769 -0.1957  0.6502
 7079TIP3   OH221200   2.229   1.882   5.257  0.6329 -0.0899  0.0541
 7079TIP3    H121201   2.278   1.818   5.308  0.4721  0.5066  0.9851
 7079TIP3    H221202   2.195   1.943   5.322 -0.1129  0.3348 -0.7186
 7080TIP3   OH221203   0.942   1.658   0.360 -0.1856  0.4160 -0.2505
 7080TIP3    H121204   0.897   1.721   0.416  0.0786  0.0123  0.4377
 7080TIP3    H221205   1.015   1.627   0.413  0.6897  0.7937 -1.2181
 7081TIP3   OH221206  -0.017   5.983   4.134 -0.3390  0.2091 -0.3008
 7081TIP3    H121207   0.024   6.069   4.143 -0.2569  0.3566 -1.8968
 7081TIP3    H221208   0.047   5.931   4.087 -1.0400 -0.2547 -0.7540
 7082TIP3   OH221209   4.045   1.315   4.681  0.1850  0.2007  0.1140
 7082TIP3    H121210   3.967   1.363   4.709 -0.8923 -0.7717 -1.0732
 7082TIP3    H221211   4.087   1.373   4.618 -0.1712  0.2907 -0.0430
 7083TIP3   OH221212   4.426   0.807   0.992  0.3960  0.5731  0.3020
 7083TIP3    H121213   4.461   0.853   0.916  0.1868  0.3115  0.0426
 7083TIP3    H221214   4.332   0.800   0.974  0.4714 -0.2142  0.2003
 7084TIP3   OH221215   5.271   4.440   0.504  0.0798  0.6041  0.2830
 7084TIP3    H121216   5.206   4.371   0.513  1.4964 -1.0825 -1.4814
 7084TIP3    H221217   5.345   4.411   0.556 -0.0004  1.7823  1.0926
 7085TIP3   OH221218   4.997   2.253   1.722 -0.3805 -0.1679 -0.4109
 7085TIP3    H121219   5.061   2.309   1.766 -1.1739  1.4342 -1.2153
 7085TIP3    H221220   4.912   2.284   1.753 -0.8237 -1.9642  0.2874
 7086TIP3   OH221221   6.760   6.051   1.715 -0.5900 -0.1553  0.2016
 7086TIP3    H121222   6.681   6.096   1.745  0.5909  0.6754  2.3193
 7086TIP3    H221223   6.796   6.011   1.793  2.7314  2.1735  0.0815
 7087TIP3   OH221224   5.644   2.113   0.582 -0.3002 -0.3553 -0.0284
 7087TIP3    H121225   5.588   2.189   0.568 -1.0765 -1.3000 -2.5538
 7087TIP3    H221226   5.606   2.068   0.658 -0.9791  0.7230  0.2895
 7088TIP3   OH221227   0.777   4.408   5.621  0.2586 -0.1693  0.4052
 7088TIP3    H121228   0.808   4.396   5.711 -0.4093  0.3805  0.7164
 7088TIP3    H221229   0.728   4.490   5.623  0.4217 -0.0374 -0.5168
 7089TIP3   OH221230   3.439   5.971   2.220 -0.2002 -0.2037 -0.5377
 7089TIP3    H121231   3.360   6.024   2.231 -0.0196 -0.2206  0.9872
 7089TIP3    H221232   3.507   6.019   2.268 -0.2754 -2.3110  1.8841
 7090TIP3   OH221233   4.521   0.221   0.606 -0.1021  0.0393 -0.5142
 7090TIP3    H121234   4.542   0.313   0.622 -1.9675  0.3429  0.4946
 7090TIP3    H221235   4.583   0.173   0.661  0.4718  0.7097 -0.5600
 7091TIP3   OH221236   4.293   2.882   0.516  0.3268 -0.1709  0.1946
 7091TIP3    H121237   4.362   2.818   0.494 -0.2683 -0.3793 -1.1687
 7091TIP3    H221238   4.269   2.920   0.432 -0.0403  1.1447  0.8749
 7092TIP3   OH221239   6.093   6.115   4.692  0.2268 -0.1805 -0.4784
 7092TIP3    H121240   6.106   6.168   4.770 -0.7178  0.7952 -0.9565
 7092TIP3    H221241   6.024   6.053   4.717 -1.1178  1.0818 -0.9591
 7093TIP3   OH221242   2.109   6.530   2.710  0.4595  0.6316 -0.2230
 7093TIP3    H121243   2.063   6.469   2.653 -1.4561  0.2327  1.6206
 7093TIP3    H221244   2.196   6.491   2.721 -0.9392 -2.3231  1.5265
 7094TIP3   OH221245   1.867   4.018   3.687  0.2038 -0.6729 -0.1528
 7094TIP3    H121246   1.862   4.068   3.606 -1.2647 -3.0981 -1.6973
 7094TIP3    H221247   1.810   4.065   3.747 -3.7607 -1.9104 -2.5360
 7095TIP3   OH221248   6.150   4.628   0.123 -0.0862 -0.0720 -0.0354
 7095TIP3    H121249   6.133   4.570   0.197 -1.2086  0.2319 -0.0400
 7095TIP3    H221250   6.229   4.677   0.148 -1.8502  1.9006  2.1559
 7096TIP3   OH221251   6.698   6.794   5.568 -0.1677 -0.1533 -0.3384
 7096TIP3    H121252   6.692   6.824   5.477 -0.0226  0.8332 -0.0418
 7096TIP3    H221253   6.790   6.771   5.579 -0.1315 -0.0286 -0.3737
 7097TIP3   OH221254   1.299   5.060   2.012  0.1151  0.1625  0.0209
 7097TIP3    H121255   1.341   4.983   1.973  1.3461  1.5226 -1.4419
 7097TIP3    H221256   1.222   5.076   1.957  0.7779  0.9412 -0.6896
 7098TIP3   OH221257   4.941   5.127   2.023  0.1858  0.2623 -0.0372
 7098TIP3    H121258   5.012   5.192   2.031  0.6223 -0.2161  0.0505
 7098TIP3    H221259   4.920   5.106   2.114  2.5132 -2.3449  0.0268
 7099TIP3   OH221260   1.606   2.608   1.322 -0.0159 -0.2873  0.1683
 7099TIP3    H121261   1.673   2.630   1.256  0.1067  1.0033  0.7091
 7099TIP3    H221262   1.561   2.532   1.284  0.2832  0.1983 -1.2445
 7100TIP3   OH221263   4.447   4.852   2.659 -0.2068 -0.3861 -0.1729
 7100TIP3    H121264   4.540   4.831   2.670  0.1312  1.8025  2.0584
 7100TIP3    H221265   4.401   4.772   2.686  1.0229 -0.5792  1.5154
 7101TIP3   OH221266   2.956   5.926   5.254 -0.5860  0.4533  0.1994
 7101TIP3    H121267   2.982   5.900   5.166 -0.4355  2.9586 -0.5543
 7101TIP3    H221268   2.971   5.847   5.307 -0.2317 -0.9691 -1.8848
 7102TIP3   OH221269   6.382   4.102   1.130  0.4201 -0.1628 -0.4617
 7102TIP3    H121270   6.344   4.015   1.143 -0.4269  0.1110 -1.0481
 7102TIP3    H221271   6.398   4.107   1.036  0.2792  0.3896 -0.4604
 7103TIP3   OH221272   1.429   4.397   4.858 -0.2665 -0.1973  0.6253
 7103TIP3    H121273   1.464   4.313   4.889 -1.0878 -0.8234 -0.1016
 7103TIP3    H221274   1.462   4.406   4.769  0.9900  0.9586  1.1767
 7104TIP3   OH221275   0.957   1.830   4.151  0.4357  0.3321 -1.1204
 7104TIP3    H121276   1.033   1.790   4.192 -0.7195 -0.8102  0.0072
 7104TIP3    H221277   0.981   1.842   4.059  1.0895 -2.3499 -1.3658
 7105TIP3   OH221278   3.164   3.865   4.334 -0.1950  0.1040 -0.1245
 7105TIP3    H121279   3.123   3.795   4.283 -0.0203 -0.7871  0.9225
 7105TIP3    H221280   3.117   3.944   4.308  0.4097 -0.1686 -2.2409
 7106TIP3   OH221281   6.745   5.699   0.144  0.1441  0.3281 -0.0769
 7106TIP3    H121282   6.783   5.623   0.190 -1.1213 -0.4627 -0.2780
 7106TIP3    H221283   6.651   5.689   0.157 -0.0374  1.8858 -0.1254
 7107TIP3   OH221284   4.119   4.224   3.726  0.0657 -0.5522 -0.1219
 7107TIP3    H121285   4.214   4.234   3.733 -0.0676  0.4200  0.3902
 7107TIP3    H221286   4.085   4.252   3.810 -0.6512 -1.4797 -0.0867
 7108TIP3   OH221287   7.057   3.302   4.873 -0.1584 -0.3847  0.1644
 7108TIP3    H121288   6.975   3.331   4.834  0.0616 -0.3526 -0.2904
 7108TIP3    H221289   7.069   3.357   4.950 -0.0743  0.2905 -0.3183
 7109TIP3   OH221290   0.172   2.648   3.517 -0.2132  0.0860 -0.0959
 7109TIP3    H121291   0.078   2.632   3.520 -0.4709  0.6354 -2.7424
 7109TIP3    H221292   0.187   2.690   3.432  2.7303 -2.1507 -0.8691
 7110TIP3   OH221293   6.084   2.640   5.467 -0.3483  0.2941  0.4009
 7110TIP3    H121294   6.067   2.681   5.553  0.8978 -0.1396  0.8677
 7110TIP3    H221295   6.178   2.625   5.466 -0.4179 -0.1246 -0.8783
 7111TIP3   OH221296   0.985   2.580   3.816  0.4780  0.2432 -0.4770
 7111TIP3    H121297   0.932   2.501   3.825 -1.0187  0.9989 -2.0903
 7111TIP3    H221298   0.947   2.642   3.878  1.4902 -0.1661  0.6013
 7112TIP3   OH221299   4.882   2.598   0.781  0.1527  0.0353  0.3752
 7112TIP3    H121300   4.859   2.647   0.702 -0.0159 -0.3658  0.1739
 7112TIP3    H221301   4.834   2.643   0.851 -0.1235  0.0670  0.1713
 7113TIP3   OH221302   3.636   6.134   4.243 -0.2972  0.6730 -0.0373
 7113TIP3    H121303   3.555   6.083   4.242 -0.6856  1.2465  1.0552
 7113TIP3    H221304   3.692   6.089   4.306  0.5050 -0.0824 -1.2364
 7114TIP3   OH221305   5.548   5.002   0.281  0.3926  0.1931 -0.1457
 7114TIP3    H121306   5.499   5.078   0.310  1.1645  1.0193 -0.9306
 7114TIP3    H221307   5.482   4.944   0.242  0.0255  1.3601 -1.3496
 7115TIP3   OH221308   5.958   3.427   2.007 -0.3076  0.4567  0.4268
 7115TIP3    H121309   6.044   3.433   2.050  0.8135  0.6988 -1.7217
 7115TIP3    H221310   5.976   3.445   1.915 -2.5646 -0.2737 -0.2199
 7116TIP3   OH221311   3.696   0.936   1.546  0.2738 -0.7619 -0.3607
 7116TIP3    H121312   3.607   0.901   1.545 -0.0817  0.1239 -0.3968
 7116TIP3    H221313   3.710   0.972   1.459  0.8647 -1.3504 -0.5224
 7117TIP3   OH221314   3.799   3.401   2.683  0.7770 -0.4941 -0.6400
 7117TIP3    H121315   3.889   3.386   2.713  1.1720 -0.0911 -1.5935
 7117TIP3    H221316   3.763   3.462   2.747  0.9647 -1.1466  0.1096
 7118TIP3   OH221317   3.700   5.118   5.774 -0.0494 -0.4456 -0.1932
 7118TIP3    H121318   3.708   5.213   5.771  0.5044 -0.4385  1.0247
 7118TIP3    H221319   3.667   5.094   5.687 -3.4566  1.1065  0.5135
 7119TIP3   OH221320   1.917   1.635   0.934 -0.5244 -0.4513 -0.2403
 7119TIP3    H121321   1.938   1.727   0.916  0.3959 -0.6452 -0.1731
 7119TIP3    H221322   1.928   1.626   1.029 -0.3371 -0.7006 -0.2847
 7120TIP3   OH221323   6.186   1.177   0.903  0.5342  0.1485 -0.3749
 7120TIP3    H121324   6.213   1.189   0.994 -0.7149 -0.1289  0.0512
 7120TIP3    H221325   6.157   1.264   0.875  2.7226  0.6847 -1.1623
 7121TIP3   OH221326   1.040   5.692   1.511  0.9379  0.1547 -0.1984
 7121TIP3    H121327   1.078   5.759   1.568  0.5640 -0.2183  0.5064
 7121TIP3    H221328   1.066   5.718   1.423 -0.0524  1.8049 -0.0558
 7122TIP3   OH221329   2.067   5.582   4.490  0.0207  0.0423 -0.2660
 7122TIP3    H121330   1.998   5.516   4.487  0.3628 -0.2748 -1.2092
 7122TIP3    H221331   2.093   5.595   4.399  2.0060 -0.6946  0.1527
 7123TIP3   OH221332   6.882   2.076   3.521 -0.2746  0.1459  0.0472
 7123TIP3    H121333   6.883   1.998   3.466 -1.7140  1.5147 -2.0785
 7123TIP3    H221334   6.942   2.055   3.593  0.3776 -2.3983 -1.1094
 7124TIP3   OH221335   2.121   3.972   5.816 -0.5734 -0.4156 -0.0793
 7124TIP3    H121336   2.075   4.027   5.752  0.9095 -0.4350 -1.2263
 7124TIP3    H221337   2.092   4.004   5.901 -0.9851  1.0635 -0.7479
 7125TIP3   OH221338   3.207   2.332   0.639 -0.1849  0.7356  0.4155
 7125TIP3    H121339   3.176   2.245   0.664 -1.1296  1.1166  0.6427
 7125TIP3    H221340   3.128   2.377   0.607  0.4175  1.2866 -0.3365
 7126TIP3   OH221341   5.414   5.715   1.864 -0.1016  0.4294  0.3496
 7126TIP3    H121342   5.401   5.620   1.853 -0.6250  0.4627  0.6545
 7126TIP3    H221343   5.504   5.722   1.897 -0.3733 -0.0301  1.2182
 7127TIP3   OH221344   3.276   2.369   0.121  0.1030  0.0571 -0.1853
 7127TIP3    H121345   3.188   2.366   0.159  0.2456 -0.4014  0.1044
 7127TIP3    H221346   3.295   2.279   0.096  0.2242  0.2637 -0.8692
 7128TIP3   OH221347   4.088   0.942   4.422 -0.3852 -0.4662  0.2789
 7128TIP3    H121348   4.184   0.940   4.417 -0.3917  0.4164 -0.7040
 7128TIP3    H221349   4.069   0.981   4.507  0.1875  1.1797 -0.3048
 7129TIP3   OH221350   1.433   3.605   5.046 -0.3622  0.2515 -0.0346
 7129TIP3    H121351   1.378   3.584   4.971 -0.2614  1.5765 -0.5029
 7129TIP3    H221352   1.420   3.533   5.107  1.1395 -1.9857 -2.1697
 7130TIP3   OH221353   2.964   2.285   3.391 -0.4492 -0.2735  1.0779
 7130TIP3    H121354   3.037   2.334   3.353 -1.2007  0.1320  0.1198
 7130TIP3    H221355   3.004   2.206   3.427  0.7211  0.8018  2.2385
 7131TIP3   OH221356   6.121   2.573   1.323  0.5010  0.4919 -0.4762
 7131TIP3    H121357   6.079   2.511   1.263 -0.1687  0.0156  0.4689
 7131TIP3    H221358   6.184   2.520   1.372  0.7516  0.7965 -0.4658
 7132TIP3   OH221359   7.027   4.314   5.345  0.2643  0.1249 -0.0189
 7132TIP3    H121360   6.935   4.312   5.319  0.0054  0.3620  0.8270
 7132TIP3    H221361   7.058   4.400   5.315 -0.0976  0.4986  0.6335
 7133TIP3   OH221362   6.713   6.271   4.807  0.9391  0.0262 -0.2845
 7133TIP3    H121363   6.784   6.223   4.851  0.9543 -1.6014 -1.9291
 7133TIP3    H221364   6.729   6.363   4.828  2.0064 -0.5175  1.5045
 7134TIP3   OH221365   5.320   6.160   4.734 -0.0415  0.6864 -0.3546
 7134TIP3    H121366   5.234   6.120   4.721  0.6545 -0.7773 -0.6643
 7134TIP3    H221367   5.379   6.086   4.747  1.0083  1.7039  0.9425
 7135TIP3   OH221368   2.453   5.700   2.544  0.6134  0.2553 -0.5633
 7135TIP3    H121369   2.462   5.610   2.513 -1.6031  0.3784 -1.7608
 7135TIP3    H221370   2.458   5.693   2.640 -2.2859 -1.6032 -0.4260
 7136TIP3   OH221371   2.033   3.452   5.304  0.3679  0.3488 -0.0992
 7136TIP3    H121372   2.100   3.404   5.256  1.7266 -0.8909  2.8282
 7136TIP3    H221373   2.068   3.541   5.311  1.4403 -0.1217  0.8196
 7137TIP3   OH221374   6.700   2.797   5.440 -0.2281  0.7263 -0.2375
 7137TIP3    H121375   6.653   2.788   5.357  1.7778 -2.1308 -1.2212
 7137TIP3    H221376   6.644   2.755   5.505 -1.2646  1.9312 -0.2935
 7138TIP3   OH221377   3.483   3.275   5.334 -0.3905 -0.1169  0.3615
 7138TIP3    H121378   3.409   3.281   5.274 -0.1502 -1.1500 -0.0668
 7138TIP3    H221379   3.443   3.261   5.420 -0.6994 -1.5057  0.0132
 7139TIP3   OH221380   2.438   2.187   0.730 -0.6613  0.0698 -0.1705
 7139TIP3    H121381   2.399   2.166   0.645 -0.1495 -0.8666 -0.1852
 7139TIP3    H221382   2.453   2.103   0.772  0.3071  0.4495  0.2940
 7140TIP3   OH221383   1.197   1.722   0.128 -0.3495 -0.3093 -0.0645
 7140TIP3    H121384   1.195   1.646   0.186 -1.2590 -0.7176 -0.5944
 7140TIP3    H221385   1.232   1.689   0.046 -0.0869  0.0096 -0.0827
 7141TIP3   OH221386   4.934   4.912   0.241 -0.0489 -0.0299 -0.1683
 7141TIP3    H121387   4.900   4.998   0.267  0.8634  0.3419 -0.1688
 7141TIP3    H221388   4.923   4.857   0.318  1.2482  0.6556  0.5403
 7142TIP3   OH221389   7.027   2.511   5.001  0.1404 -0.3024  0.1146
 7142TIP3    H121390   7.118   2.539   5.002  0.2815 -0.7448  1.3460
 7142TIP3    H221391   7.021   2.444   5.069 -1.0857 -0.3445 -0.0010
 7143TIP3   OH221392   2.162   0.707   5.576 -0.1528  0.1658 -0.3325
 7143TIP3    H121393   2.150   0.802   5.565  1.7130  0.3795 -0.9127
 7143TIP3    H221394   2.164   0.673   5.487 -0.3873 -0.3642 -0.1353
 7144TIP3   OH221395   6.377   3.241   2.046 -0.3090  0.0731  0.5666
 7144TIP3    H121396   6.343   3.244   1.956  0.1245  1.2913  0.4186
 7144TIP3    H221397   6.335   3.316   2.089  0.8512  0.5655  0.8675
 7145TIP3   OH221398   4.887   4.090   1.609  0.6360  0.0317 -0.2511
 7145TIP3    H121399   4.966   4.145   1.603 -0.1363  1.1886 -0.2361
 7145TIP3    H221400   4.827   4.129   1.545  0.9862 -2.4868 -2.3028
 7146TIP3   OH221401   6.076   4.510   1.335 -0.0294 -0.3611  0.5416
 7146TIP3    H121402   5.986   4.526   1.306  0.6805 -1.9814 -3.1029
 7146TIP3    H221403   6.110   4.597   1.355 -2.8210  0.1761  3.9785
 7147TIP3   OH221404   1.170   3.272   4.231  0.1854 -0.2321 -0.6060
 7147TIP3    H121405   1.084   3.255   4.270  0.5822 -1.2179 -0.1321
 7147TIP3    H221406   1.198   3.355   4.270 -0.5652  0.1460 -0.8279
 7148TIP3   OH221407   5.547   2.465   0.239 -0.0778 -0.5235  0.1604
 7148TIP3    H121408   5.518   2.542   0.288  0.0381 -0.6709  0.4689
 7148TIP3    H221409   5.519   2.481   0.149 -1.1462 -0.6791  0.4600
 7149TIP3   OH221410   0.878   6.672   4.633 -0.0706  0.3185  0.1146
 7149TIP3    H121411   0.923   6.615   4.572 -0.1562  0.0830  0.2712
 7149TIP3    H221412   0.912   6.760   4.614  1.2969  0.0158  0.9746
 7150TIP3   OH221413   3.428   5.966   3.999 -0.2221 -0.3845 -0.4629
 7150TIP3    H121414   3.444   6.027   3.927  0.5421 -1.7924 -1.5567
 7150TIP3    H221415   3.367   5.901   3.962  1.2253 -1.8852 -0.3266
 7151TIP3   OH221416   5.462   2.886   0.718  0.6199 -0.1427 -0.8349
 7151TIP3    H121417   5.520   2.927   0.654 -2.0936  1.2805 -2.6144
 7151TIP3    H221418   5.464   2.793   0.697  0.1894  0.2300 -2.7389
 7152TIP3   OH221419   6.829   4.636   1.164  0.1063  0.0699  0.5193
 7152TIP3    H121420   6.848   4.628   1.071 -0.3290  0.7320  0.3632
 7152TIP3    H221421   6.749   4.689   1.167 -0.3124 -0.5881  1.2366
 7153TIP3   OH221422   6.226   4.217   0.114 -0.8858  0.1162  0.3941
 7153TIP3    H121423   6.305   4.249   0.072 -0.9036 -0.8483 -0.4053
 7153TIP3    H221424   6.155   4.263   0.070 -0.9442 -1.3290 -1.1122
 7154TIP3   OH221425   5.820   5.675   1.801  0.1893 -0.2795  0.1978
 7154TIP3    H121426   5.783   5.731   1.734 -0.6291 -1.9581 -0.8268
 7154TIP3    H221427   5.749   5.665   1.866 -0.2957 -1.4177 -0.4680
 7155TIP3   OH221428   3.809   0.816   3.665  0.0068 -0.5290 -0.4073
 7155TIP3    H121429   3.813   0.883   3.733 -3.6330 -0.0103 -0.4831
 7155TIP3    H221430   3.828   0.863   3.583 -3.1741  0.7787 -0.5531
 7156TIP3   OH221431   4.621   0.404   1.322 -0.5976  0.8085 -0.3141
 7156TIP3    H121432   4.562   0.330   1.314  0.0259  0.1948  0.5480
 7156TIP3    H221433   4.564   0.478   1.344 -1.1169  0.3825 -0.2100
 7157TIP3   OH221434   4.257   1.399   4.533  0.1063  0.0271  0.0327
 7157TIP3    H121435   4.234   1.312   4.499 -2.7231 -0.1884  2.1582
 7157TIP3    H221436   4.335   1.385   4.587  0.1369 -1.0289 -0.2732
 7158TIP3   OH221437   0.662   6.125   1.868  0.1041 -0.4748  0.2583
 7158TIP3    H121438   0.575   6.114   1.904  0.0352 -2.0989 -0.3242
 7158TIP3    H221439   0.718   6.142   1.944 -0.4715 -1.0271  0.8165
 7159TIP3   OH221440   0.017   2.678   5.778 -0.7206  0.0880  0.0923
 7159TIP3    H121441  -0.002   2.744   5.845 -0.3339 -0.9324  1.2486
 7159TIP3    H221442   0.058   2.727   5.707 -1.8070  1.3135  0.2759
 7160TIP3   OH221443   6.336   1.617   3.119  0.1588 -0.6265 -0.1339
 7160TIP3    H121444   6.360   1.618   3.212  1.4527 -1.5681 -0.4217
 7160TIP3    H221445   6.347   1.707   3.089  0.7159 -0.5138  0.4020
 7161TIP3   OH221446   4.765   5.095   1.826 -0.3094  0.6364  0.7166
 7161TIP3    H121447   4.827   5.109   1.897  0.7036  0.7017 -0.1650
 7161TIP3    H221448   4.720   5.179   1.816 -0.2634  0.7066  1.0918
 7162TIP3   OH221449   7.140   6.052   0.263  0.4943 -0.2310 -1.0011
 7162TIP3    H121450   7.060   6.008   0.290 -0.0377  1.1739 -0.1926
 7162TIP3    H221451   7.174   5.998   0.191  0.3207 -2.3877  0.4372
 7163TIP3   OH221452   3.554   3.504   4.028 -0.3243  0.1651  0.0661
 7163TIP3    H121453   3.570   3.457   4.110  1.2049 -0.2509 -0.4507
 7163TIP3    H221454   3.554   3.436   3.961  0.0793  0.6899 -0.4724
 7164TIP3   OH221455   1.096   6.552   3.124  0.5269  0.0989  0.4630
 7164TIP3    H121456   1.071   6.477   3.070  1.6818 -0.5778  0.8295
 7164TIP3    H221457   1.074   6.629   3.071 -1.2478 -0.4574  0.3310
 7165TIP3   OH221458   0.235   0.173   2.100 -0.2911  0.1095  0.4237
 7165TIP3    H121459   0.144   0.144   2.093  0.5293 -2.5598 -0.0705
 7165TIP3    H221460   0.228   0.263   2.134 -3.0492 -0.3660  1.3961
 7166TIP3   OH221461   2.546   2.087   4.587 -0.0145 -0.0303 -0.4261
 7166TIP3    H121462   2.555   2.099   4.682 -2.6665  3.1854 -0.4172
 7166TIP3    H221463   2.637   2.079   4.556  0.9842 -0.1442  2.2430
 7167TIP3   OH221464   3.514   5.938   3.457  0.3360  0.5151 -0.2060
 7167TIP3    H121465   3.553   6.024   3.471 -0.1045  0.3709  2.3679
 7167TIP3    H221466   3.421   5.950   3.479 -0.1715 -0.1821 -1.8188
 7168TIP3   OH221467   2.791   3.337   0.228 -0.9405 -0.2926 -0.3936
 7168TIP3    H121468   2.791   3.388   0.309 -0.3734 -0.8106 -0.0575
 7168TIP3    H221469   2.754   3.253   0.253 -2.1601  0.0425 -1.0141
 7169TIP3   OH221470   1.016   3.535   1.517  0.5750  0.0847 -0.2738
 7169TIP3    H121471   1.036   3.628   1.509 -0.5553  0.3637  0.0530
 7169TIP3    H221472   1.085   3.492   1.467 -0.0899  1.1971 -2.2798
 7170TIP3   OH221473   6.249   0.169   5.669  0.1965 -0.4786 -0.5164
 7170TIP3    H121474   6.223   0.232   5.602  1.9775  0.5805 -0.2652
 7170TIP3    H221475   6.319   0.118   5.628 -0.2499 -1.3613 -0.2120
 7171TIP3   OH221476   0.325   2.165   0.368 -0.2805  0.2632 -0.7181
 7171TIP3    H121477   0.311   2.084   0.319  1.9128 -0.5428 -0.1147
 7171TIP3    H221478   0.294   2.144   0.456  0.4567 -0.0013 -0.5157
 7172TIP3   OH221479   0.941   4.520   3.554 -0.2552  0.7140  0.1083
 7172TIP3    H121480   0.946   4.615   3.539 -0.7374  0.4636 -1.9510
 7172TIP3    H221481   0.882   4.488   3.486 -1.3560 -0.9054  1.7169
 7173TIP3   OH221482   3.908   2.332   5.355  0.2321 -0.5490 -0.4470
 7173TIP3    H121483   3.947   2.245   5.358  3.0793  0.6141 -0.5497
 7173TIP3    H221484   3.839   2.330   5.422  1.8620 -2.1558  1.3066
 7174TIP3   OH221485   4.446   3.579   3.044  0.2688  0.2245  0.2232
 7174TIP3    H121486   4.370   3.614   2.999  0.4900 -0.4620 -0.7075
 7174TIP3    H221487   4.412   3.547   3.127 -0.6400 -0.9292 -0.5641
 7175TIP3   OH221488   6.861   5.583   5.104  0.0671 -0.0763  0.1607
 7175TIP3    H121489   6.832   5.498   5.138  0.5677 -0.2616  0.1342
 7175TIP3    H221490   6.875   5.637   5.182  1.9609 -0.7439  0.3155
 7176TIP3   OH221491   2.250   3.869   4.333  0.7341 -0.1682 -0.1476
 7176TIP3    H121492   2.326   3.924   4.354  2.5227 -1.6523 -2.2355
 7176TIP3    H221493   2.221   3.899   4.247  1.2195 -1.8670 -0.9422
 7177TIP3   OH221494   2.784   1.002   1.120 -0.5874 -0.1207  0.2339
 7177TIP3    H121495   2.795   0.981   1.212  1.3884  4.1816  1.2575
 7177TIP3    H221496   2.865   0.973   1.078 -0.5028 -0.0718  0.3635
 7178TIP3   OH221497   2.648   5.905   0.040  0.4383  0.2142 -0.0652
 7178TIP3    H121498   2.676   5.978   0.096  0.3996  0.7516 -0.7405
 7178TIP3    H221499   2.572   5.939  -0.007  0.0454 -0.4709  0.0559
 7179TIP3   OH221500   7.082   2.021   4.501 -0.2403 -0.4011  0.3595
 7179TIP3    H121501   7.077   2.095   4.440  1.1237  0.3776  1.1419
 7179TIP3    H221502   7.052   1.946   4.450  1.2771  0.1313 -1.4294
 7180TIP3   OH221503   3.375   1.306   0.632 -0.4150  0.4434  0.0412
 7180TIP3    H121504   3.458   1.259   0.643  0.4907  2.0795  0.5963
 7180TIP3    H221505   3.340   1.315   0.721 -0.5458  0.8853 -0.0554
 7181TIP3   OH221506   4.112   6.300   1.721  0.9059  0.3638  0.7792
 7181TIP3    H121507   4.032   6.353   1.723  0.3801 -0.2970 -1.1118
 7181TIP3    H221508   4.181   6.360   1.749  0.0373  1.4944  0.5792
 7182TIP3   OH221509   0.931   0.080   5.104 -0.1534 -0.5133 -0.1317
 7182TIP3    H121510   0.843   0.069   5.069  0.9646 -1.6714 -2.9482
 7182TIP3    H221511   0.958   0.167   5.074  0.6983 -1.3881 -2.0852
 7183TIP3   OH221512   1.219   0.771   2.170  0.3685 -0.2386  0.7596
 7183TIP3    H121513   1.154   0.841   2.173 -1.6609 -1.9707 -0.2692
 7183TIP3    H221514   1.232   0.746   2.262 -1.2403 -0.5685  0.9147
 7184TIP3   OH221515   0.338   6.315   0.378 -0.1818 -0.5260 -0.6198
 7184TIP3    H121516   0.285   6.382   0.335 -2.0380 -0.8478  1.0219
 7184TIP3    H221517   0.324   6.329   0.471  0.8873 -2.0357 -0.1979
 7185TIP3   OH221518   1.592   5.590   4.379 -0.2250  0.1867  0.0120
 7185TIP3    H121519   1.552   5.671   4.410  1.2561  1.0807 -0.2777
 7185TIP3    H221520   1.664   5.620   4.323 -0.1770 -1.3488 -0.7881
 7186TIP3   OH221521   2.014   4.967   1.320  0.1998  0.2573  0.4500
 7186TIP3    H121522   2.056   5.008   1.245  0.6365  0.7914  0.9793
 7186TIP3    H221523   1.931   5.015   1.330 -1.0989 -1.4838 -1.2461
 7187TIP3   OH221524   4.374   5.698   1.850 -0.0690 -0.0217  0.5325
 7187TIP3    H121525   4.333   5.775   1.810 -1.6560 -0.6681  0.8326
 7187TIP3    H221526   4.431   5.663   1.782 -1.2616 -0.0077 -0.5171
 7188TIP3   OH221527   6.734   2.103   3.991 -0.3291 -0.5587  0.4101
 7188TIP3    H121528   6.692   2.178   3.948 -2.9797 -1.9240  0.3838
 7188TIP3    H221529   6.711   2.112   4.083  1.9417  0.2199  0.9508
 7189TIP3   OH221530   0.292   0.425   5.420 -0.0632 -0.6148 -0.3854
 7189TIP3    H121531   0.203   0.411   5.453  0.1410  0.9626  0.9723
 7189TIP3    H221532   0.284   0.499   5.359  0.3322 -0.3764 -0.1526
 7190TIP3   OH221533   5.675   0.243   0.974  0.1567 -0.0540  0.0457
 7190TIP3    H121534   5.642   0.332   0.988 -2.1907 -0.8871  0.2568
 7190TIP3    H221535   5.770   0.252   0.974 -0.0241  2.4575 -0.0140
 7191TIP3   OH221536   0.200   0.803   5.544  0.3994  0.1655 -0.3718
 7191TIP3    H121537   0.131   0.777   5.605  0.0728 -0.3491 -0.9518
 7191TIP3    H221538   0.156   0.864   5.484  0.4400 -0.1765 -0.7523
 7192TIP3   OH221539   0.425   2.860   1.505  0.2064 -0.0740  0.1679
 7192TIP3    H121540   0.395   2.792   1.445  0.2292 -1.4480  1.6479
 7192TIP3    H221541   0.519   2.866   1.489  0.1365 -0.0931 -0.2561
 7193TIP3   OH221542   2.423   3.470   1.282  0.4179 -0.3436 -0.1397
 7193TIP3    H121543   2.400   3.412   1.210  1.7076  0.2267 -1.0487
 7193TIP3    H221544   2.462   3.413   1.349  0.6948 -0.6603 -0.5712
 7194TIP3   OH221545   6.294   5.655   1.235  0.2885 -0.5010  0.1206
 7194TIP3    H121546   6.346   5.579   1.260  0.4714  0.5508  3.4115
 7194TIP3    H221547   6.236   5.670   1.309  0.1906  2.4866 -0.4260
 7195TIP3   OH221548   4.607   1.059   1.553  0.7386 -0.3070  0.7084
 7195TIP3    H121549   4.668   1.002   1.600 -0.8064 -0.6227  2.4385
 7195TIP3    H221550   4.636   1.148   1.574  1.7710 -0.4374 -0.1125
 7196TIP3   OH221551   0.582   1.479   4.273  0.1693 -0.6269 -0.7846
 7196TIP3    H121552   0.644   1.551   4.262  0.4865 -0.9253 -0.9576
 7196TIP3    H221553   0.509   1.502   4.215 -0.7220  0.6366  0.7881
 7197TIP3   OH221554   4.630   0.921   0.044 -0.4049 -0.4825 -0.0307
 7197TIP3    H121555   4.553   0.937  -0.010 -1.7393  1.1810  2.1796
 7197TIP3    H221556   4.641   0.826   0.043 -0.9472 -0.5680 -2.3443
 7198TIP3   OH221557   6.151   2.545   2.931 -0.3196 -0.4372 -0.7796
 7198TIP3    H121558   6.096   2.537   2.853  1.4175 -2.8207 -1.8892
 7198TIP3    H221559   6.145   2.460   2.974 -1.6645  0.9807  2.1093
 7199TIP3   OH221560   5.627   2.905   5.847  0.2509  0.3267 -0.1663
 7199TIP3    H121561   5.621   2.825   5.900 -1.2007 -0.1621 -0.9992
 7199TIP3    H221562   5.718   2.932   5.854  0.8645 -1.6134 -0.1719
 7200TIP3   OH221563   6.984   0.830   5.739  0.0999 -0.0920 -0.1739
 7200TIP3    H121564   7.061   0.774   5.727  0.6976  0.7769 -0.5160
 7200TIP3    H221565   7.015   0.918   5.718 -0.7206  0.4321  0.7113
 7201TIP3   OH221566   2.901   4.038   4.394  0.2969  0.1070 -0.0033
 7201TIP3    H121567   2.954   4.116   4.381  0.4589 -0.0223 -0.1332
 7201TIP3    H221568   2.828   4.048   4.334  0.1551  0.3030  0.2025
 7202TIP3   OH221569   0.830   6.279   5.616 -0.1367  0.3419 -0.0130
 7202TIP3    H121570   0.894   6.349   5.607  0.0498  0.0590 -1.0014
 7202TIP3    H221571   0.864   6.225   5.689  1.5917 -0.6464 -1.4596
 7203TIP3   OH221572   4.115   5.704   2.386 -0.9244  0.5540  0.2415
 7203TIP3    H121573   4.032   5.681   2.428 -1.0954  0.0256 -0.3646
 7203TIP3    H221574   4.140   5.624   2.340 -1.2894  1.4253 -1.5543
 7204TIP3   OH221575   2.224   5.048   5.743 -0.3640  0.2196  0.1978
 7204TIP3    H121576   2.158   4.988   5.778 -0.3701 -0.3194 -0.6986
 7204TIP3    H221577   2.306   5.019   5.784 -0.6371  0.7547  1.1470
 7205TIP3   OH221578   5.861   3.604   4.015 -0.1442  0.3385 -0.0020
 7205TIP3    H121579   5.912   3.678   3.982 -1.1956  0.4312 -1.5504
 7205TIP3    H221580   5.785   3.645   4.057 -0.7219  0.1575 -0.8492
 7206TIP3   OH221581   1.726   0.340   3.144 -0.2865  0.3599  0.1316
 7206TIP3    H121582   1.806   0.389   3.126 -0.7749  0.9125 -0.6053
 7206TIP3    H221583   1.740   0.300   3.230  0.9578  0.0738 -0.1889
 7207TIP3   OH221584   5.662   0.351   3.080  0.1404 -0.1614  0.3051
 7207TIP3    H121585   5.709   0.333   3.162  2.3348 -1.0282 -1.0540
 7207TIP3    H221586   5.645   0.265   3.043 -0.7716  0.2300 -0.2106
 7208TIP3   OH221587   1.726   5.347   0.775 -0.3670  0.5429  0.2027
 7208TIP3    H121588   1.675   5.409   0.827 -0.0695 -0.2275  1.4594
 7208TIP3    H221589   1.666   5.275   0.758  0.3789 -0.6160  2.1441
 7209TIP3   OH221590   1.490   2.494   3.502 -0.0607 -0.0632 -0.1709
 7209TIP3    H121591   1.582   2.472   3.512  0.4577  2.6054  1.9784
 7209TIP3    H221592   1.446   2.409   3.495  2.4284 -1.4395 -0.3387
 7210TIP3   OH221593   2.136   4.750   5.622  0.0491 -0.0506 -0.1443
 7210TIP3    H121594   2.053   4.703   5.626  0.8586 -1.6038 -0.7071
 7210TIP3    H221595   2.120   4.821   5.560 -0.4295 -1.2907 -1.4908
 7211TIP3   OH221596   0.433   2.004   3.051  0.0103 -0.2590 -0.3159
 7211TIP3    H121597   0.338   2.003   3.067  0.1760  1.7791  1.1529
 7211TIP3    H221598   0.455   1.912   3.037 -1.5884 -1.3607  3.2253
 7212TIP3   OH221599   2.019   2.644   5.372 -0.2726 -0.4020 -0.5578
 7212TIP3    H121600   2.079   2.572   5.394 -0.6189 -0.2350  1.1139
 7212TIP3    H221601   1.946   2.633   5.433 -1.5168 -0.0494 -1.9357
 7213TIP3   OH221602   2.465   1.335   2.792 -0.0593 -0.0462 -0.3745
 7213TIP3    H121603   2.452   1.241   2.784 -1.3611 -0.0826  1.5871
 7213TIP3    H221604   2.520   1.358   2.717  0.6174 -2.4131 -0.6812
 7214TIP3   OH221605   6.411   0.153   2.405 -0.1531  0.1335  0.2090
 7214TIP3    H121606   6.449   0.240   2.410  0.7215 -0.3097  3.8878
 7214TIP3    H221607   6.483   0.096   2.377  0.5826  0.0215  2.2031
 7215TIP3   OH221608   5.396   0.588   4.017 -0.2427  0.4196 -0.5604
 7215TIP3    H121609   5.424   0.632   4.097  1.4446 -0.3771 -0.6794
 7215TIP3    H221610   5.316   0.542   4.041 -0.6897  1.5718  0.1987
 7216TIP3   OH221611   0.170   6.051   0.413  0.2544  0.2867  0.2708
 7216TIP3    H121612   0.209   6.136   0.393 -0.8072  1.6446  3.3029
 7216TIP3    H221613   0.085   6.053   0.369  0.5893  0.4106 -0.3792
 7217TIP3   OH221614   2.691   2.610   4.539  0.6029  0.6257 -0.1556
 7217TIP3    H121615   2.632   2.555   4.488  0.2251 -1.2202  2.1144
 7217TIP3    H221616   2.710   2.684   4.482 -0.8084 -0.6509 -2.4255
 7218TIP3   OH221617   1.619   2.746   0.468  0.2705 -0.4142  0.1607
 7218TIP3    H121618   1.634   2.706   0.383 -1.1962  0.3898 -0.5125
 7218TIP3    H221619   1.541   2.702   0.502  0.3136 -0.0975  0.6805
 7219TIP3   OH221620   1.979   3.689   1.348  0.2335 -0.0506  0.3190
 7219TIP3    H121621   2.074   3.685   1.359  0.4332 -1.5207 -1.5331
 7219TIP3    H221622   1.966   3.692   1.254 -1.6147 -3.1413  0.3578
 7220TIP3   OH221623   4.570   0.904   0.769  0.0212  0.0683 -0.2430
 7220TIP3    H121624   4.660   0.875   0.754  0.6175  1.2596  0.8526
 7220TIP3    H221625   4.534   0.917   0.681  1.4423  1.0906 -0.7076
 7221TIP3   OH221626   3.428   4.442   4.543 -0.2127 -0.0800  0.3284
 7221TIP3    H121627   3.339   4.437   4.509 -0.1472 -3.1467  0.3451
 7221TIP3    H221628   3.482   4.401   4.476  1.0346  0.6914  0.8247
 7222TIP3   OH221629   2.739   2.252   0.955  0.1858  0.5548  0.2441
 7222TIP3    H121630   2.825   2.275   0.992  0.5835 -0.0028 -0.3237
 7222TIP3    H221631   2.691   2.335   0.953  1.1336  1.1067 -0.5178
 7223TIP3   OH221632   0.598   5.616   0.506  0.5003  0.3127 -0.7068
 7223TIP3    H121633   0.607   5.697   0.456 -1.2084  0.8381 -0.2470
 7223TIP3    H221634   0.525   5.570   0.464  1.5751 -1.1101 -1.0829
 7224TIP3   OH221635   0.720   4.246   2.179 -0.3316  0.1811  0.1103
 7224TIP3    H121636   0.653   4.228   2.245 -0.0343  1.5121  0.8185
 7224TIP3    H221637   0.785   4.300   2.225  0.6747 -0.1749 -0.8527
 7225TIP3   OH221638   6.605   0.358   1.200  0.0693  0.2874 -0.3613
 7225TIP3    H121639   6.647   0.408   1.271 -0.6418  1.7514 -0.9238
 7225TIP3    H221640   6.549   0.295   1.245 -0.1388  0.9888  0.3980
 7226TIP3   OH221641   2.410   6.214   1.771  0.4916 -0.1148 -0.8476
 7226TIP3    H121642   2.462   6.198   1.849  0.5390  0.3984 -0.7714
 7226TIP3    H221643   2.413   6.309   1.759  0.6706 -0.2104 -1.5967
 7227TIP3   OH221644   2.234   1.659   3.502 -0.5104  0.2907  0.3947
 7227TIP3    H121645   2.224   1.580   3.448 -0.8696  1.1681 -0.8622
 7227TIP3    H221646   2.328   1.664   3.518 -0.3738  0.1076 -0.3054
 7228TIP3   OH221647   4.578   2.617   4.660  0.2821  0.1646 -0.6756
 7228TIP3    H121648   4.638   2.551   4.628 -0.8939 -0.8642 -0.8359
 7228TIP3    H221649   4.580   2.607   4.755  0.5285  0.2882 -0.6672
 7229TIP3   OH221650   2.470   0.472   2.225  0.1324 -0.1199 -0.7377
 7229TIP3    H121651   2.458   0.387   2.184 -0.6641 -0.4266  0.0926
 7229TIP3    H221652   2.435   0.461   2.314  0.2269  1.0059 -0.5443
 7230TIP3   OH221653   6.615   2.353   0.737  0.8594 -0.3056 -0.3188
 7230TIP3    H121654   6.636   2.321   0.649 -0.6496 -0.6225 -0.5929
 7230TIP3    H221655   6.605   2.273   0.790 -0.7117 -0.2221 -0.4704
 7231TIP3   OH221656   6.093   4.858   2.612 -0.3691  0.1725 -0.4549
 7231TIP3    H121657   6.189   4.856   2.605 -0.2827  0.0955  0.6128
 7231TIP3    H221658   6.063   4.825   2.527  0.5542  0.0107 -0.7359
 7232TIP3   OH221659   4.299   6.657   4.092  0.4336 -0.1628  0.1511
 7232TIP3    H121660   4.208   6.686   4.099  0.6426  0.6877 -0.5499
 7232TIP3    H221661   4.347   6.714   4.151  0.6544  0.0364 -0.2211
 7233TIP3   OH221662   2.499   1.924   0.803 -0.4204 -0.1923 -0.2375
 7233TIP3    H121663   2.549   1.866   0.861 -1.1656 -0.9164 -0.3080
 7233TIP3    H221664   2.540   1.911   0.717 -1.0687 -1.2158 -0.4085
 7234TIP3   OH221665   4.993   4.314   0.518 -0.0797 -0.5936 -0.7469
 7234TIP3    H121666   4.976   4.240   0.576  1.8009  0.0304  0.7142
 7234TIP3    H221667   4.946   4.387   0.559 -0.2332 -0.5401 -1.0210
 7235TIP3   OH221668   1.253   0.374   2.308 -0.0797  0.0585 -0.0409
 7235TIP3    H121669   1.258   0.286   2.344  0.9376  0.6324  1.3322
 7235TIP3    H221670   1.203   0.423   2.374 -1.8037  0.2420 -1.4147
 7236TIP3   OH221671   0.974   1.022   0.641  0.2857 -0.0823  0.1816
 7236TIP3    H121672   0.938   1.048   0.726  0.1736  1.1369 -0.2311
 7236TIP3    H221673   1.067   1.043   0.647  0.1130  0.8462 -0.3114
 7237TIP3   OH221674   5.009   2.747   2.808 -0.1794  0.0144  0.8599
 7237TIP3    H121675   4.993   2.710   2.895 -1.2091  1.5351  1.3558
 7237TIP3    H221676   4.982   2.839   2.815 -1.9928 -0.2366 -1.5542
 7238TIP3   OH221677   4.142   0.503   2.808  0.1181  0.0810  0.3694
 7238TIP3    H121678   4.233   0.489   2.783  0.1086 -0.9656  0.8667
 7238TIP3    H221679   4.104   0.550   2.734  0.8130 -0.3329 -0.2691
 7239TIP3   OH221680   3.445   4.406   3.400  0.5039  0.2543 -0.3639
 7239TIP3    H121681   3.484   4.481   3.444  0.1630  0.1085  0.1894
 7239TIP3    H221682   3.494   4.331   3.434 -0.4745  0.0319  0.6043
 7240TIP3   OH221683   3.582   4.603   4.049 -0.2541 -0.1224  0.0859
 7240TIP3    H121684   3.503   4.588   4.099 -0.3486 -0.5896 -0.1972
 7240TIP3    H221685   3.584   4.698   4.034 -1.1176 -0.1864 -0.4893
 7241TIP3   OH221686   2.170   4.456   4.265 -0.2900  0.3883  0.2632
 7241TIP3    H121687   2.106   4.504   4.317  1.0655 -0.3931  2.8060
 7241TIP3    H221688   2.223   4.524   4.224 -0.3730  1.0542  1.2234
 7242TIP3   OH221689   0.450   2.628   0.791 -0.1946  0.5307 -0.0899
 7242TIP3    H121690   0.425   2.559   0.730  0.5914  1.5800 -1.6698
 7242TIP3    H221691   0.368   2.655   0.831 -0.5451 -1.1437  0.4028
 7243TIP3   OH221692   2.585   2.106   5.100  0.1960  0.4835  0.0502
 7243TIP3    H121693   2.536   2.142   5.173  0.1188  0.3613  0.0575
 7243TIP3    H221694   2.556   2.015   5.093 -0.7201  0.8269 -0.9193
 7244TIP3   OH221695   4.214   0.583   1.280 -0.8404 -0.3838 -0.4387
 7244TIP3    H121696   4.242   0.559   1.191 -1.5755 -0.7058 -0.5904
 7244TIP3    H221697   4.127   0.544   1.289 -1.9403  1.8530 -0.5638
 7245TIP3   OH221698   3.968   0.216   3.969 -0.4179 -0.5902  0.5430
 7245TIP3    H121699   4.024   0.290   3.947 -0.5089 -0.7402 -0.2466
 7245TIP3    H221700   4.009   0.177   4.046 -0.4409  0.3446  1.0422
 7246TIP3   OH221701   4.725   4.054   3.784  0.3086  0.2900 -0.3149
 7246TIP3    H121702   4.683   4.057   3.697  0.0523 -1.3066 -0.2731
 7246TIP3    H221703   4.665   4.002   3.838  1.7031 -0.9760  0.0902
 7247TIP3   OH221704   4.246   0.581   3.518  0.3778 -0.4260  0.5036
 7247TIP3    H121705   4.238   0.527   3.440 -1.2584 -2.0902  1.7443
 7247TIP3    H221706   4.322   0.546   3.565 -0.1793 -1.1403  0.8927
 7248TIP3   OH221707   4.574   3.967   1.884  0.3382 -0.0694 -0.4763
 7248TIP3    H121708   4.652   4.023   1.878  1.2753 -1.3890 -0.9932
 7248TIP3    H221709   4.515   4.003   1.818  0.5575  0.8458 -0.1953
 7249TIP3   OH221710   0.220   4.992   5.571 -0.5020 -0.1788 -0.2522
 7249TIP3    H121711   0.166   5.044   5.631  0.3509 -0.9831  1.2671
 7249TIP3    H221712   0.294   5.049   5.549 -1.5494  0.6677 -1.7876
 7250TIP3   OH221713   3.844   5.194   4.449  0.1592 -0.0773  0.2463
 7250TIP3    H121714   3.810   5.133   4.383  1.3631 -0.2473 -0.2387
 7250TIP3    H221715   3.874   5.138   4.521  1.0327 -0.0558 -0.0907
 7251TIP3   OH221716   2.231   4.751   1.867  0.4476 -0.2818  0.3601
 7251TIP3    H121717   2.209   4.707   1.785  0.6114  0.0064  0.1604
 7251TIP3    H221718   2.248   4.680   1.929  0.1130 -0.5018  0.2039
 7252TIP3   OH221719   3.415   1.194   2.995 -0.1886 -0.5201 -0.2952
 7252TIP3    H121720   3.465   1.137   3.054 -0.9508 -1.5667 -0.6264
 7252TIP3    H221721   3.332   1.207   3.040  0.1948  0.8494  0.0479
 7253TIP3   OH221722   1.422   2.348   2.648 -0.1139 -0.6314  0.7224
 7253TIP3    H121723   1.371   2.269   2.631 -1.1495  0.0766  0.4364
 7253TIP3    H221724   1.404   2.368   2.740  0.7034 -1.1063  0.9931
 7254TIP3   OH221725   4.342   1.743   4.702 -0.0339 -0.4888  0.3888
 7254TIP3    H121726   4.261   1.701   4.732  0.0804 -1.8499 -1.0850
 7254TIP3    H221727   4.312   1.813   4.643 -0.1469 -0.4590  0.4802
 7255TIP3   OH221728   3.231   1.211   1.810  0.7082 -0.0834 -0.2472
 7255TIP3    H121729   3.307   1.266   1.792  0.4943 -0.2226 -1.7375
 7255TIP3    H221730   3.236   1.192   1.903  1.9702  0.6955 -0.1366
 7256TIP3   OH221731   6.037   2.513   4.243 -0.3473  0.4320  0.2415
 7256TIP3    H121732   6.098   2.587   4.243 -1.7778  1.7086  1.9830
 7256TIP3    H221733   5.950   2.553   4.246 -1.3151 -1.3337 -1.6196
 7257TIP3   OH221734   5.201   3.219   3.548  0.0600 -0.1262 -0.1560
 7257TIP3    H121735   5.295   3.200   3.549  0.4696  1.4456 -2.2278
 7257TIP3    H221736   5.192   3.296   3.605  0.1013 -0.0011 -0.3183
 7258TIP3   OH221737   6.841   2.221   2.474  0.0736  0.2117  0.6204
 7258TIP3    H121738   6.911   2.285   2.471  0.8184 -0.6044 -1.8593
 7258TIP3    H221739   6.832   2.200   2.567  1.6532  1.8746  1.2123
 7259TIP3   OH221740   1.524   4.850   4.701 -0.1230  0.3530  0.5015
 7259TIP3    H121741   1.599   4.861   4.759  1.4863  1.3203 -1.6203
 7259TIP3    H221742   1.504   4.757   4.704  1.7072 -0.0728  0.5033
 7260TIP3   OH221743   7.098   2.872   1.108 -0.2146  0.7544 -0.5037
 7260TIP3    H121744   7.008   2.839   1.117  0.2795 -0.3144  0.8347
 7260TIP3    H221745   7.152   2.794   1.103  0.6862  1.3949 -0.9043
 7261TIP3   OH221746   0.965   4.927   0.126  0.1445  0.0033  0.0975
 7261TIP3    H121747   1.005   5.013   0.143  2.8108 -0.8879 -1.0986
 7261TIP3    H221748   0.973   4.881   0.209 -0.9892  0.7733  0.6517
 7262TIP3   OH221749   4.954   4.286   2.515  0.7056 -0.1317 -0.0824
 7262TIP3    H121750   4.911   4.364   2.550  1.8453 -0.0322  1.1851
 7262TIP3    H221751   4.977   4.235   2.593 -1.8394 -2.7945 -0.8838
 7263TIP3   OH221752   1.190   5.514   0.519 -0.4027 -0.0048 -0.8503
 7263TIP3    H121753   1.141   5.588   0.555  2.6113  2.2402 -0.9455
 7263TIP3    H221754   1.188   5.448   0.588 -0.5302  1.4490  0.5973
 7264TIP3   OH221755   6.605   2.062   0.200  0.0745 -0.1226 -0.8378
 7264TIP3    H121756   6.523   2.103   0.227  0.6663  0.0197  0.8464
 7264TIP3    H221757   6.672   2.127   0.218  0.5147  0.1622 -3.1623
 7265TIP3   OH221758   5.055   0.146   2.759 -0.0709  0.5684 -0.2253
 7265TIP3    H121759   5.094   0.198   2.689 -1.6977 -0.4806 -2.0006
 7265TIP3    H221760   5.111   0.069   2.767  0.7378  1.2079  0.4345
 7266TIP3   OH221761   3.392   4.320   2.204 -0.2010  0.0636 -0.4951
 7266TIP3    H121762   3.351   4.257   2.145 -1.7671  0.9416 -0.4012
 7266TIP3    H221763   3.353   4.302   2.289 -1.8853  2.1151 -0.7528
 7267TIP3   OH221764   6.618   0.050   2.282 -0.2728 -0.3165  0.0640
 7267TIP3    H121765   6.658   0.092   2.206 -1.1457 -1.1155 -0.8640
 7267TIP3    H221766   6.691   0.011   2.329  0.2237 -0.3512 -0.7107
 7268TIP3   OH221767   5.749   6.325   2.478 -0.3629  0.0348  0.1742
 7268TIP3    H121768   5.713   6.264   2.413 -1.3437  0.3889  0.3698
 7268TIP3    H221769   5.797   6.269   2.539 -1.3092 -0.5637  0.3896
 7269TIP3   OH221770   4.483   2.384   4.325  0.0414 -0.1397 -0.4450
 7269TIP3    H121771   4.575   2.403   4.343 -0.2642  0.3120  0.7568
 7269TIP3    H221772   4.457   2.450   4.261 -0.2946  1.9556  1.7012
 7270TIP3   OH221773   3.668   5.969   0.063 -0.4396  0.1097 -0.2630
 7270TIP3    H121774   3.712   5.954   0.146 -1.7081  0.0199  0.4273
 7270TIP3    H221775   3.737   5.967  -0.002  0.4928 -0.4791  0.7174
 7271TIP3   OH221776   0.826   2.266   3.261  0.2541 -0.7773 -0.9194
 7271TIP3    H121777   0.886   2.199   3.292  0.8114 -0.2984 -0.9502
 7271TIP3    H221778   0.881   2.342   3.244 -0.4992  0.0721  0.2203
 7272TIP3   OH221779   5.618   0.025   0.187  0.0321  0.0544  0.4957
 7272TIP3    H121780   5.552  -0.038   0.216  0.5840 -0.5979  0.3763
 7272TIP3    H221781   5.575   0.110   0.194 -0.4858 -0.2658  1.3752
 7273TIP3   OH221782   5.375   4.692   0.462  0.3221  0.0433  0.6993
 7273TIP3    H121783   5.339   4.604   0.468  0.8787 -0.1176  2.3220
 7273TIP3    H221784   5.348   4.734   0.544  1.3599  0.8530  0.6432
 7274TIP3   OH221785   2.694   3.801   2.519  0.1854  0.2777  0.5716
 7274TIP3    H121786   2.742   3.718   2.529  0.3411  0.3966  0.8206
 7274TIP3    H221787   2.602   3.775   2.514  0.3255 -0.0451 -1.0129
 7275TIP3   OH221788   5.098   1.960   2.164 -0.2053 -0.4238  0.0608
 7275TIP3    H121789   5.060   1.980   2.250 -1.7852  0.8273 -0.8859
 7275TIP3    H221790   5.174   2.017   2.158 -1.0811  0.7510 -0.0584
 7276TIP3   OH221791   0.060   0.966   5.372  0.0162 -0.1188  0.2615
 7276TIP3    H121792  -0.008   0.912   5.332  0.7476 -0.4908 -0.4822
 7276TIP3    H221793   0.104   1.009   5.299 -0.1399  1.0051  0.8024
 7277TIP3   OH221794   2.780   5.823   2.148 -0.0878 -1.0483 -0.1158
 7277TIP3    H121795   2.861   5.824   2.199  0.2257 -2.9683 -0.4920
 7277TIP3    H221796   2.726   5.756   2.191 -1.7722  0.6206  0.5152
 7278TIP3   OH221797   3.169   6.174   5.292 -0.0960  0.7160 -0.0857
 7278TIP3    H121798   3.255   6.176   5.249  0.1626  2.3934  0.4229
 7278TIP3    H221799   3.106   6.186   5.222  0.3142  3.3080 -0.0983
 7279TIP3   OH221800   2.852   4.073   2.324 -0.0385 -0.2622  0.2255
 7279TIP3    H121801   2.858   4.156   2.277  0.1169 -0.2661  0.2361
 7279TIP3    H221802   2.793   4.090   2.397 -1.5244 -0.6605 -0.8258
 7280TIP3   OH221803   4.424   4.473   1.529  0.1580 -0.8902  0.1138
 7280TIP3    H121804   4.410   4.477   1.624  0.5855 -1.3896  0.2009
 7280TIP3    H221805   4.402   4.561   1.498  1.0244 -0.4056  0.8182
 7281TIP3   OH221806   1.383   0.183   4.501 -0.1525 -0.6290 -0.2418
 7281TIP3    H121807   1.455   0.136   4.459  1.9027  0.5747  1.7135
 7281TIP3    H221808   1.374   0.140   4.587 -2.7809 -1.6528 -0.9446
 7282TIP3   OH221809   5.390   6.674   2.894  0.1974 -0.1342 -0.1613
 7282TIP3    H121810   5.465   6.687   2.836 -0.0643  1.1098 -0.2387
 7282TIP3    H221811   5.359   6.762   2.915 -0.3168 -0.5856  1.0931
 7283TIP3   OH221812   6.302   2.418   0.538 -0.0542 -0.1830  0.5362
 7283TIP3    H121813   6.335   2.484   0.599  0.7439 -0.3998  0.3460
 7283TIP3    H221814   6.294   2.339   0.591 -0.1372 -0.1664  0.5486
 7284TIP3   OH221815   3.830   1.761   2.703 -0.3894 -0.0872 -0.3362
 7284TIP3    H121816   3.854   1.852   2.719  1.5882 -0.7667  0.9203
 7284TIP3    H221817   3.901   1.726   2.650 -0.0037 -1.4459  1.0170
 7285TIP3   OH221818   1.836   0.431   1.493 -0.0365 -0.5531 -0.4086
 7285TIP3    H121819   1.895   0.498   1.458 -1.3415 -0.1758 -2.0149
 7285TIP3    H221820   1.793   0.395   1.416 -4.1659  1.3342  0.7279
 7286TIP3   OH221821   3.918   1.418   2.981  0.0773  0.7303  0.6143
 7286TIP3    H121822   3.839   1.449   2.936 -0.9877 -1.1108  1.1168
 7286TIP3    H221823   3.890   1.403   3.071  0.8491 -0.4168  0.6841
 7287TIP3   OH221824   4.687   6.804   1.007 -1.2187  0.0783  0.3377
 7287TIP3    H121825   4.748   6.866   1.048 -0.4547  0.4511 -1.2734
 7287TIP3    H221826   4.738   6.723   0.996 -2.0135 -0.6674  1.8406
 7288TIP3   OH221827   4.248   6.262   4.407 -0.1192 -0.4182 -0.5300
 7288TIP3    H121828   4.326   6.223   4.447 -0.7766 -1.5140 -0.2605
 7288TIP3    H221829   4.177   6.203   4.432 -1.0426  0.5617 -0.7665
 7289TIP3   OH221830   0.579   2.905   2.374 -0.0110 -0.5072  0.7505
 7289TIP3    H121831   0.588   2.984   2.321  0.4400 -0.2698  1.1781
 7289TIP3    H221832   0.528   2.933   2.450  2.0944 -0.0377  2.0755
 7290TIP3   OH221833   4.965   1.379   3.322 -0.9274 -0.2034 -0.2523
 7290TIP3    H121834   4.940   1.339   3.406 -0.4701 -2.0817 -0.9540
 7290TIP3    H221835   4.882   1.397   3.278 -1.1676  0.6665  0.5185
 7291TIP3   OH221836   0.595   6.361   0.698  0.0686  0.5436 -0.4062
 7291TIP3    H121837   0.619   6.415   0.622 -1.0517  0.6029 -0.7413
 7291TIP3    H221838   0.605   6.420   0.772 -0.8088  1.1232 -0.7342
 7292TIP3   OH221839   1.066   3.596   1.215 -0.4084  0.4199  0.0857
 7292TIP3    H121840   0.973   3.580   1.200 -0.8981  0.6071  2.5054
 7292TIP3    H221841   1.073   3.690   1.227  0.2021  0.4668 -0.5455
 7293TIP3   OH221842   0.803   3.007   4.601 -0.0065  0.2972  0.0571
 7293TIP3    H121843   0.889   3.003   4.559 -0.2037 -0.2064 -0.2947
 7293TIP3    H221844   0.759   2.926   4.576 -0.8126  0.8122 -0.2492
 7294TIP3   OH221845   3.820   4.819   1.459 -0.2908 -0.4491 -0.3303
 7294TIP3    H121846   3.831   4.855   1.371  1.6417 -0.6754 -0.2315
 7294TIP3    H221847   3.769   4.739   1.445 -0.6742 -0.0801 -1.1331
 7295TIP3   OH221848   0.609   2.192   5.405  0.3399  0.1287 -0.3338
 7295TIP3    H121849   0.642   2.267   5.454  1.4213 -0.0355 -0.7883
 7295TIP3    H221850   0.667   2.185   5.330 -0.1378 -0.7820 -0.6323
 7296TIP3   OH221851   4.115   5.797   3.809  0.0048 -0.0970  0.2036
 7296TIP3    H121852   4.024   5.805   3.781  0.1531 -0.9804 -0.5931
 7296TIP3    H221853   4.142   5.710   3.780  1.3988  0.5200 -0.4838
 7297TIP3   OH221854   3.840   0.460   3.442 -0.5539 -0.5524 -0.0305
 7297TIP3    H121855   3.899   0.535   3.443 -1.0714 -0.1407  0.9655
 7297TIP3    H221856   3.853   0.417   3.526 -3.0109  0.6546  1.0690
 7298TIP3   OH221857   5.345   3.533   1.072  0.1369  0.4891  0.4340
 7298TIP3    H121858   5.389   3.568   1.149  0.8552 -0.8727  0.6758
 7298TIP3    H221859   5.416   3.504   1.015 -0.4165 -0.1048  0.0354
 7299TIP3   OH221860   0.283   0.318   2.663 -0.9360  0.2299 -0.5519
 7299TIP3    H121861   0.295   0.269   2.582 -1.6103  0.4012 -0.7679
 7299TIP3    H221862   0.193   0.351   2.658 -1.5855 -1.1311  0.9998
 7300TIP3   OH221863   5.293   6.441   3.654 -0.1445  0.3353  0.4689
 7300TIP3    H121864   5.200   6.447   3.633  0.0529  1.0838 -0.2380
 7300TIP3    H221865   5.295   6.421   3.748 -1.0471 -2.5421 -0.0190
 7301TIP3   OH221866   6.568   0.371   2.049 -0.2504  0.5211 -0.6922
 7301TIP3    H121867   6.513   0.445   2.072 -0.1996 -0.3610  2.7602
 7301TIP3    H221868   6.507   0.303   2.020 -0.6277  0.7454 -0.4207
 7302TIP3   OH221869   4.979   5.787   3.419  0.5659  0.1161 -0.4645
 7302TIP3    H121870   4.934   5.803   3.336  2.7508 -0.5873 -1.8475
 7302TIP3    H221871   5.015   5.873   3.443  0.8460  0.1021 -0.8235
 7303TIP3   OH221872   3.943   3.730   2.936 -0.0679  0.0082  0.6030
 7303TIP3    H121873   3.927   3.640   2.965  2.2406 -1.1380 -1.2903
 7303TIP3    H221874   3.862   3.757   2.894 -1.0864 -0.8307  1.9454
 7304TIP3   OH221875   7.204   6.655   1.166 -0.2613 -0.2310  0.6369
 7304TIP3    H121876   7.110   6.637   1.160 -0.2670 -0.9390  2.2189
 7304TIP3    H221877   7.245   6.569   1.173  0.8507 -0.1249 -2.9008
 7305TIP3   OH221878   4.538   3.771   3.328 -0.2895  0.0352 -0.1658
 7305TIP3    H121879   4.631   3.763   3.347 -0.6814 -1.7990  1.1723
 7305TIP3    H221880   4.496   3.704   3.381 -2.5042  1.4976  0.0719
 7306TIP3   OH221881   5.007   4.645   3.030 -0.0506  0.4450 -0.1939
 7306TIP3    H121882   4.965   4.700   3.096  1.4824  1.6318 -0.1473
 7306TIP3    H221883   5.049   4.707   2.970  0.0515 -0.6543 -1.2896
 7307TIP3   OH221884   5.487   5.664   3.090 -0.5174 -0.4729  0.0951
 7307TIP3    H121885   5.510   5.746   3.132 -1.4796 -1.5931  3.0524
 7307TIP3    H221886   5.414   5.686   3.033 -0.8428  0.7162  0.9330
 7308TIP3   OH221887   5.364   0.333   4.535  0.8480  0.2330  0.1839
 7308TIP3    H121888   5.440   0.382   4.505  0.3068  0.3292 -1.0825
 7308TIP3    H221889   5.330   0.383   4.610 -0.1093  2.2246 -1.4927
 7309TIP3   OH221890   5.601   5.126   3.364  0.1046 -0.0695 -0.3386
 7309TIP3    H121891   5.654   5.050   3.338  0.8938 -0.2177  1.5558
 7309TIP3    H221892   5.663   5.187   3.403 -0.9273  0.2669  0.8498
 7310TIP3   OH221893   6.923   4.751   4.555 -0.0202 -0.0965  0.1661
 7310TIP3    H121894   6.974   4.709   4.486 -1.2115 -1.2713 -0.0571
 7310TIP3    H221895   6.957   4.714   4.636 -0.5457 -0.9565  0.0123
 7311TIP3   OH221896   1.666   2.519   2.671  0.7698 -0.2486 -0.1973
 7311TIP3    H121897   1.688   2.525   2.764  0.3664  1.0159 -0.1593
 7311TIP3    H221898   1.592   2.459   2.667  0.3560  0.2071  0.3971
 7312TIP3   OH221899   4.126   4.411   0.066  0.6178 -0.0922 -0.3006
 7312TIP3    H121900   4.064   4.345   0.097  0.0449 -0.2693 -1.7527
 7312TIP3    H221901   4.132   4.474   0.138 -1.3328 -0.0133 -0.1551
 7313TIP3   OH221902   2.883   1.300   1.592  0.0538  0.1119 -0.7219
 7313TIP3    H121903   2.849   1.240   1.526 -2.3643  0.0482  0.4973
 7313TIP3    H221904   2.856   1.262   1.675  2.2053  0.6949  0.3207
 7314TIP3   OH221905   3.288   4.845   2.461 -0.0034 -0.0998  0.6110
 7314TIP3    H121906   3.199   4.833   2.430  0.6457 -1.3239 -0.9469
 7314TIP3    H221907   3.306   4.766   2.512  0.5826 -0.4606 -0.1360
 7315TIP3   OH221908   0.755   4.464   1.014 -0.3770  0.2673 -0.2397
 7315TIP3    H121909   0.682   4.457   1.075  0.6820  0.6809  1.1345
 7315TIP3    H221910   0.830   4.488   1.069  0.6691  0.4482 -1.6818
 7316TIP3   OH221911   2.440   4.586   2.524  0.3287  0.1097  0.6943
 7316TIP3    H121912   2.433   4.584   2.620 -0.6763  1.7523  0.6978
 7316TIP3    H221913   2.434   4.679   2.502  1.0272 -0.1983 -0.9523
 7317TIP3   OH221914   4.218   1.478   5.759 -0.9769 -0.3270  0.4499
 7317TIP3    H121915   4.218   1.512   5.670 -0.8172  0.1484  0.6298
 7317TIP3    H221916   4.126   1.457   5.776 -1.4876  2.1047  1.1102
 7318TIP3   OH221917   1.269   3.482   1.046  0.1354 -0.5260  0.0560
 7318TIP3    H121918   1.277   3.535   0.966 -0.1206  0.2554  0.5390
 7318TIP3    H221919   1.182   3.501   1.079  0.5878 -0.0910  1.0452
 7319TIP3   OH221920   7.045   2.323   5.193  0.0852  0.1496  0.5810
 7319TIP3    H121921   6.994   2.280   5.262  0.6179  2.7964  2.7634
 7319TIP3    H221922   7.135   2.320   5.224  0.3349  1.4331  0.0319
 7320TIP3   OH221923   1.763   1.071   2.888  0.1246 -0.1627 -0.8569
 7320TIP3    H121924   1.699   1.083   2.818 -1.3883  0.2689  0.5194
 7320TIP3    H221925   1.771   1.158   2.927 -0.2398 -0.6854  0.4426
 7321TIP3   OH221926   3.034   0.190   2.670  0.6879 -0.2705  0.0459
 7321TIP3    H121927   3.027   0.193   2.575  0.3044 -0.2091  0.0762
 7321TIP3    H221928   2.949   0.158   2.700  0.0643  1.6174  0.4778
 7322TIP3   OH221929   3.015   5.857   3.032  0.4771 -0.1367  0.2422
 7322TIP3    H121930   3.051   5.774   3.063 -2.5176 -0.8543  2.2107
 7322TIP3    H221931   2.980   5.837   2.945  2.1232 -0.1443 -0.4632
 7323TIP3   OH221932   4.987   0.430   2.311 -0.7705 -0.2277  0.7380
 7323TIP3    H121933   4.928   0.453   2.383  0.2539 -0.5300  1.6988
 7323TIP3    H221934   4.931   0.434   2.233 -1.8703  0.2678  1.5117
 7324TIP3   OH221935   0.947   6.258   0.274 -0.6424  0.0324 -0.2020
 7324TIP3    H121936   0.902   6.194   0.219  0.2459 -0.3345 -0.5190
 7324TIP3    H221937   1.006   6.304   0.214 -0.7716  0.6809  0.1564
 7325TIP3   OH221938   2.665   5.786   0.611  0.2376 -0.3882 -0.2943
 7325TIP3    H121939   2.575   5.804   0.582  0.4116  1.4173  0.1188
 7325TIP3    H221940   2.669   5.691   0.622 -1.0676 -0.6980 -2.0864
 7326TIP3   OH221941   2.630   0.774   1.312 -0.2400 -0.4345  0.1610
 7326TIP3    H121942   2.723   0.754   1.305 -0.0525  0.8413 -1.7676
 7326TIP3    H221943   2.587   0.713   1.252 -0.9847 -2.5717  2.6973
 7327TIP3   OH221944   0.038   1.510  -0.020 -0.7693  0.2595 -0.0973
 7327TIP3    H121945   0.129   1.498   0.005 -0.5578  0.9456 -0.5101
 7327TIP3    H221946  -0.013   1.471   0.051 -0.1554 -0.9327 -0.2825
 7328TIP3   OH221947   5.078   3.191   0.618  0.1265 -0.6051 -0.8128
 7328TIP3    H121948   5.128   3.111   0.634  0.6610 -0.6768 -2.5480
 7328TIP3    H221949   5.074   3.197   0.522  0.7463  1.8359 -0.7483
 7329TIP3   OH221950   3.103   4.623   4.072 -0.2327  0.3983 -0.2753
 7329TIP3    H121951   3.062   4.685   4.133 -1.4887 -0.3190 -0.3473
 7329TIP3    H221952   3.044   4.623   3.996 -0.7127 -1.4711  0.0552
 7330TIP3   OH221953   0.844   3.566   2.738 -0.2936 -0.2379  0.7644
 7330TIP3    H121954   0.887   3.544   2.655 -1.5939  2.3661 -0.7504
 7330TIP3    H221955   0.871   3.497   2.798  2.6798 -0.9337 -1.1351
 7331TIP3   OH221956   2.585   5.534   2.201 -0.1931  0.1574 -1.0371
 7331TIP3    H121957   2.499   5.570   2.183 -1.9701 -3.2417 -0.2592
 7331TIP3    H221958   2.631   5.539   2.117 -1.7029  0.7155 -1.8715
 7332TIP3   OH221959   3.244   1.904   0.994 -0.1675 -0.7012  0.1046
 7332TIP3    H121960   3.274   1.925   1.082 -1.2223  1.0281  0.1066
 7332TIP3    H221961   3.192   1.824   1.004 -1.5520  0.2873  1.3781
 7333TIP3   OH221962   7.005   0.223   0.620 -0.7710  0.0588  0.0300
 7333TIP3    H121963   7.069   0.227   0.690 -1.2654 -2.4429  0.7414
 7333TIP3    H221964   7.021   0.301   0.567  3.0912 -0.6022 -0.0538
 7334TIP3   OH221965   2.860   2.660   3.187 -0.1491 -0.8351 -0.0905
 7334TIP3    H121966   2.845   2.578   3.234 -0.1167 -0.2532  0.9633
 7334TIP3    H221967   2.928   2.639   3.123  0.7038 -1.3341  0.9701
 7335TIP3   OH221968   3.974   2.634   2.772 -0.2598 -0.0117  0.0320
 7335TIP3    H121969   3.935   2.681   2.845 -0.8646  1.0427 -0.9349
 7335TIP3    H221970   3.926   2.552   2.768 -0.9888  0.4036  0.1223
 7336TIP3   OH221971   3.682   3.113   3.960 -0.5026  0.0223  0.0568
 7336TIP3    H121972   3.754   3.115   3.898 -2.2349  3.8968 -2.2159
 7336TIP3    H221973   3.724   3.125   4.046  1.6669  2.2256 -1.1736
 7337TIP3   OH221974   4.960   5.312   0.575 -0.3409 -0.0995 -0.0834
 7337TIP3    H121975   4.943   5.256   0.651  1.4717 -0.9267 -0.2232
 7337TIP3    H221976   4.962   5.252   0.501  1.2430  0.1749 -0.2907
 7338TIP3   OH221977   0.893   5.266   0.048  0.1045  0.2932 -0.5216
 7338TIP3    H121978   0.921   5.314   0.126 -0.3352  0.8459 -0.6953
 7338TIP3    H221979   0.800   5.250   0.063  0.4705 -1.4995  0.0425
 7339TIP3   OH221980   1.099   2.356   2.593  0.1291  0.1672  0.2493
 7339TIP3    H121981   1.183   2.385   2.557 -0.2659 -0.4676 -1.2386
 7339TIP3    H221982   1.105   2.261   2.593 -0.2962  0.1389  0.8806
 7340TIP3   OH221983   0.035   6.058   5.761 -0.3588  0.2840  0.3937
 7340TIP3    H121984   0.092   6.134   5.748 -2.0608  2.3042  3.5513
 7340TIP3    H221985   0.044   6.036   5.853  0.4766 -3.8834 -0.4542
 7341TIP3   OH221986   0.866   0.798   3.399  0.0927 -0.3331  0.1156
 7341TIP3    H121987   0.829   0.720   3.439 -0.2568  0.5150  1.5129
 7341TIP3    H221988   0.961   0.786   3.406  0.0391 -0.6135  0.3881
 7342TIP3   OH221989   6.592   6.022   4.994  0.1860 -0.1107  0.0617
 7342TIP3    H121990   6.602   6.092   5.059  0.8896 -0.5073  0.3905
 7342TIP3    H221991   6.557   5.949   5.044 -2.1860  0.4880 -0.5953
 7343TIP3   OH221992   1.041   4.220   0.578 -0.1362 -0.2036 -0.0405
 7343TIP3    H121993   1.101   4.154   0.613 -0.0012 -0.8910 -1.5079
 7343TIP3    H221994   1.088   4.259   0.505 -1.0153  0.0980 -0.4562
 7344TIP3   OH221995   5.238   1.744   0.454 -0.0030  0.4678  0.5245
 7344TIP3    H121996   5.331   1.723   0.455  0.0072  0.3773  2.7899
 7344TIP3    H221997   5.231   1.821   0.398  0.9912 -1.1238 -1.9377
 7345TIP3   OH221998   3.322   1.884   3.288  0.5493  0.2000 -0.2746
 7345TIP3    H121999   3.368   1.877   3.371  0.5759  0.2647 -0.2838
 7345TIP3    H222000   3.318   1.978   3.270  0.7889  0.1717 -0.4832
 7346TIP3   OH222001   2.614   5.081   5.479 -0.1997  0.3898 -1.0467
 7346TIP3    H122002   2.543   5.017   5.472  0.8002 -0.7445 -1.2430
 7346TIP3    H222003   2.610   5.131   5.398 -1.2883  0.8988 -0.6888
 7347TIP3   OH222004   3.333   3.222   5.916 -0.3069 -0.7218  0.1244
 7347TIP3    H122005   3.295   3.270   5.842 -0.4252  0.0648  0.6768
 7347TIP3    H222006   3.427   3.240   5.911 -0.0557 -2.1407 -0.8653
 7348TIP3   OH222007   5.075   5.318   2.481  0.6824 -0.2777 -0.3691
 7348TIP3    H122008   5.119   5.234   2.496  1.1585  0.1011  0.4027
 7348TIP3    H222009   4.983   5.295   2.467  0.9540 -1.0008 -1.1014
 7349TIP3   OH222010   2.821   1.716   2.949  0.0595 -0.3255 -0.3243
 7349TIP3    H122011   2.756   1.658   2.909 -0.3129 -0.7782  0.8769
 7349TIP3    H222012   2.893   1.719   2.887 -0.9116 -0.1844 -1.4764
 7350TIP3   OH222013   0.362   5.423   2.202 -0.1222 -0.4333  0.2829
 7350TIP3    H122014   0.313   5.355   2.155 -1.7993 -0.0275  1.3788
 7350TIP3    H222015   0.312   5.438   2.282 -0.1190  2.4762 -0.1697
 7351TIP3   OH222016   5.122   4.469   1.136  0.5605 -1.2011 -0.1130
 7351TIP3    H122017   5.211   4.443   1.159  1.4092 -0.1101 -1.9486
 7351TIP3    H222018   5.069   4.440   1.210  2.0771 -3.8498  0.0773
 7352TIP3   OH222019   0.999   6.590   4.398  0.1312 -0.3078 -0.0587
 7352TIP3    H122020   1.047   6.666   4.365  1.9766 -1.3762  0.0138
 7352TIP3    H222021   0.997   6.529   4.324 -2.4651  0.2329 -0.5391
 7353TIP3   OH222022   6.719   4.320   3.449  0.4693 -0.1020  0.2180
 7353TIP3    H122023   6.701   4.411   3.471  1.7762  0.0764  0.6439
 7353TIP3    H222024   6.810   4.306   3.476  0.5722 -1.2807 -0.6326
 7354TIP3   OH222025   3.820   5.440   4.537 -0.3309  0.8107 -0.3705
 7354TIP3    H122026   3.798   5.510   4.477 -1.5347  0.4780 -0.3434
 7354TIP3    H222027   3.818   5.361   4.484 -3.3094  0.2510  0.4017
 7355TIP3   OH222028   5.002   6.596   2.828 -0.0048 -0.4175 -0.2032
 7355TIP3    H122029   4.959   6.588   2.742  1.3081  0.4215 -0.9820
 7355TIP3    H222030   5.009   6.690   2.842 -1.8117 -0.5024  1.7131
 7356TIP3   OH222031   0.092   0.250   4.055 -0.1060  0.0988  0.3488
 7356TIP3    H122032   0.147   0.245   4.133  0.7144  0.5013 -0.1929
 7356TIP3    H222033   0.105   0.165   4.011  1.2031  0.6985 -0.4963
 7357TIP3   OH222034   3.213   2.905   3.219 -0.3365 -0.0337  0.5127
 7357TIP3    H122035   3.222   2.979   3.160  1.1188 -0.3301  0.3149
 7357TIP3    H222036   3.127   2.869   3.200 -0.1779  0.2955 -0.9322
 7358TIP3   OH222037   0.060   5.639   5.040  0.8240  0.3033  0.5355
 7358TIP3    H122038   0.082   5.546   5.054  0.5006  0.3892  1.6931
 7358TIP3    H222039   0.145   5.683   5.043  0.7570  0.3791  2.9378
 7359TIP3   OH222040   6.562   6.094   3.836 -0.0450  0.6707 -0.3353
 7359TIP3    H122041   6.513   6.012   3.834 -1.1965  1.3483 -0.8427
 7359TIP3    H222042   6.608   6.092   3.920 -0.4660 -0.2527 -0.1127
 7360TIP3   OH222043   1.575   5.451   4.780 -0.2704 -0.0167 -0.3586
 7360TIP3    H122044   1.505   5.387   4.764  0.1085 -0.2758 -1.0278
 7360TIP3    H222045   1.597   5.439   4.873  0.3391 -1.4365 -0.6580
 7361TIP3   OH222046   6.312   0.197   1.985  0.1828  0.0553 -0.9496
 7361TIP3    H122047   6.346   0.109   1.997 -0.3285 -0.0411 -0.1656
 7361TIP3    H222048   6.285   0.225   2.072  0.1145  0.8965 -1.2296
 7362TIP3   OH222049   4.725   0.269   2.701 -0.0077  0.4670  0.6216
 7362TIP3    H122050   4.767   0.207   2.642  0.3886  1.6070 -0.3486
 7362TIP3    H222051   4.757   0.355   2.672 -0.9313  1.1686  1.5853
 7363TIP3   OH222052   2.618   3.825   3.566  0.0875  0.0265 -0.8801
 7363TIP3    H122053   2.603   3.772   3.644 -0.2730  0.2669 -0.7837
 7363TIP3    H222054   2.701   3.870   3.583 -0.6223  1.0762 -0.0690
 7364TIP3   OH222055   4.688   3.216   4.526 -0.1852  0.0968  0.4199
 7364TIP3    H122056   4.763   3.275   4.527 -0.8966  1.0066  0.4658
 7364TIP3    H222057   4.612   3.273   4.528 -0.8994 -0.8366  2.5717
 7365TIP3   OH222058   5.773   2.694   0.185  0.0210  0.3744  0.0996
 7365TIP3    H122059   5.848   2.703   0.245  1.1031  0.3584 -1.2104
 7365TIP3    H222060   5.726   2.617   0.217 -0.0164  0.9469  1.5298
 7366TIP3   OH222061   6.571   6.437   2.389  0.2977  0.3439  0.3513
 7366TIP3    H122062   6.601   6.421   2.478 -0.6963  1.5473  0.9325
 7366TIP3    H222063   6.640   6.489   2.349  1.1580 -0.9488  0.1099
 7367TIP3   OH222064   2.349   4.741   0.752  0.1767 -0.3464  0.3154
 7367TIP3    H122065   2.255   4.758   0.742  0.1199 -0.0455  1.2713
 7367TIP3    H222066   2.386   4.758   0.665 -0.6644 -0.5863 -0.1037
 7368TIP3   OH222067   0.527   2.000   0.055  0.2328 -0.1924  0.1825
 7368TIP3    H122068   0.559   1.973   0.140 -0.1789 -2.0173 -0.1921
 7368TIP3    H222069   0.603   1.993  -0.003  0.6375  1.5323  0.4659
 7369TIP3   OH222070   6.998   2.129   1.073  0.2647  1.0820 -0.1864
 7369TIP3    H122071   7.028   2.204   1.124  0.1744  1.1533 -0.2375
 7369TIP3    H222072   6.902   2.134   1.077  0.0145 -1.6105  3.7544
 7370TIP3   OH222073   6.009   0.825   0.842 -0.5295 -0.1524  0.0643
 7370TIP3    H122074   6.042   0.773   0.769  0.1801  0.4609 -0.0560
 7370TIP3    H222075   5.914   0.826   0.830 -0.5150 -1.0361 -0.1840
 7371TIP3   OH222076   6.535   1.487   5.849  0.1962  0.1603 -0.0450
 7371TIP3    H122077   6.506   1.442   5.928 -1.0969 -0.6640 -0.9517
 7371TIP3    H222078   6.628   1.466   5.841 -0.3707 -2.4305 -0.4615
 7372TIP3   OH222079   2.544   6.332   0.955  0.3069 -0.0291 -0.1282
 7372TIP3    H122080   2.487   6.255   0.958 -0.5234  0.4184 -2.3280
 7372TIP3    H222081   2.487   6.402   0.924  1.5281  0.9816 -0.1538
 7373TIP3   OH222082   2.043   6.752   5.586  0.4160 -0.5769 -0.2401
 7373TIP3    H122083   2.093   6.765   5.667 -1.9627  2.0185  0.9351
 7373TIP3    H222084   2.108   6.715   5.525  2.5444 -1.7532  2.4777
 7374TIP3   OH222085   6.782   6.414   5.628 -0.1946  0.2456 -1.0379
 7374TIP3    H122086   6.709   6.466   5.595  0.0202  0.4060 -1.2641
 7374TIP3    H222087   6.836   6.396   5.551 -0.2053 -0.2158 -0.9456
 7375TIP3   OH222088   0.421   6.404   5.088  0.0861  0.3836  0.3426
 7375TIP3    H122089   0.492   6.459   5.055 -0.2394  0.7440  0.2341
 7375TIP3    H222090   0.352   6.411   5.022  0.1646 -0.4288  0.1605
 7376TIP3   OH222091   2.013   5.120   1.060  0.0342 -0.0377 -0.2606
 7376TIP3    H122092   1.998   5.167   1.142  0.6333  0.1905 -0.2729
 7376TIP3    H222093   2.107   5.133   1.043  0.0319 -0.5618 -0.6816
 7377TIP3   OH222094   5.630   1.322   2.199 -0.0005  0.0994  0.4653
 7377TIP3    H122095   5.697   1.308   2.265 -0.2665  0.3856  0.8055
 7377TIP3    H222096   5.666   1.286   2.118  0.6834  0.5276  0.5776
 7378TIP3   OH222097   1.603   4.741   4.232 -0.0454  0.6589  0.6146
 7378TIP3    H122098   1.514   4.768   4.256 -0.4295  1.7139 -1.6840
 7378TIP3    H222099   1.591   4.659   4.185  0.0484  1.2310 -0.4496
 7379TIP3   OH222100   0.798   2.384   1.356  0.1789  0.4598 -0.0434
 7379TIP3    H122101   0.706   2.385   1.382  0.5421 -0.3258  1.4039
 7379TIP3    H222102   0.800   2.332   1.276 -0.4576 -0.8423  0.7572
 7380TIP3   OH222103   5.623   6.664   2.335 -0.0900 -0.3701 -0.1664
 7380TIP3    H122104   5.713   6.635   2.347  0.9544  2.3324 -0.6343
 7380TIP3    H222105   5.615   6.743   2.390 -1.5338  0.5525 -1.5775
 7381TIP3   OH222106   1.831   5.829   3.602  0.0256 -0.4768 -0.6168
 7381TIP3    H122107   1.878   5.842   3.684 -0.1256  0.4599 -0.6712
 7381TIP3    H222108   1.885   5.873   3.536 -0.4180 -0.2535 -0.8364
 7382TIP3   OH222109   0.721   6.774   3.417 -0.8314 -0.3968  0.3586
 7382TIP3    H122110   0.662   6.759   3.491 -2.1788 -1.8958 -0.9363
 7382TIP3    H222111   0.671   6.746   3.341  0.7187  0.5594 -1.0883
 7383TIP3   OH222112   0.563   5.618   5.343  0.1616 -0.3652  0.6134
 7383TIP3    H122113   0.630   5.605   5.277  1.0736 -2.9635  1.9060
 7383TIP3    H222114   0.583   5.703   5.382  1.8867 -0.4810  0.0512
 7384TIP3   OH222115   0.012   0.785   0.239  0.2385 -0.6382 -0.8037
 7384TIP3    H122116  -0.064   0.816   0.289  0.8591 -1.1551  0.5201
 7384TIP3    H222117   0.087   0.812   0.292  0.9985 -0.1269 -2.1005
 7385TIP3   OH222118   6.113   0.968   4.794 -0.3658 -0.0493 -0.4274
 7385TIP3    H122119   6.200   0.934   4.816 -0.7512  0.0189  1.3935
 7385TIP3    H222120   6.100   0.944   4.702  1.4960 -0.2036 -0.7004
 7386TIP3   OH222121   6.368   2.169   4.801  0.1388  0.0659  0.0859
 7386TIP3    H122122   6.368   2.140   4.709  1.3573 -1.6259  0.5673
 7386TIP3    H222123   6.306   2.111   4.845 -1.1464  1.4785  0.2013
 7387TIP3   OH222124   5.373   2.951   3.826  0.4501 -0.6475  0.6165
 7387TIP3    H122125   5.393   3.043   3.846 -1.7219 -0.4687  2.3501
 7387TIP3    H222126   5.337   2.916   3.908 -1.7610 -2.1422 -0.8855
 7388TIP3   OH222127   4.974   1.329   1.874 -0.5238  0.2748 -0.4698
 7388TIP3    H122128   4.989   1.359   1.785  1.3244  0.1929 -0.2400
 7388TIP3    H222129   5.021   1.246   1.880  0.1159  0.6887  0.7846
 7389TIP3   OH222130   4.763   3.966   3.037  0.1613  0.4109  0.2733
 7389TIP3    H122131   4.855   3.974   3.061 -0.0891 -0.5227  1.6994
 7389TIP3    H222132   4.750   3.872   3.024 -0.8687  0.3659  1.4157
 7390TIP3   OH222133   1.684   6.082   1.683 -0.9742  0.4095 -0.0783
 7390TIP3    H122134   1.636   6.045   1.757 -1.7955 -1.4361 -1.4490
 7390TIP3    H222135   1.757   6.022   1.670  0.1782  1.7068  0.3066
 7391TIP3   OH222136   7.088   0.090   3.445  0.3746  0.1791 -0.0596
 7391TIP3    H122137   7.123   0.083   3.534  0.0590  1.2265  0.1685
 7391TIP3    H222138   7.157   0.135   3.395  1.1398 -1.6463 -0.7236
 7392TIP3   OH222139   3.567   6.779   0.486 -0.2687  0.0796  0.1111
 7392TIP3    H122140   3.530   6.691   0.474 -0.1533 -0.0371  0.5964
 7392TIP3    H222141   3.653   6.763   0.524 -0.3238  0.4107  0.3759
 7393TIP3   OH222142   1.691   3.109   0.880  0.4742 -0.1153  0.0815
 7393TIP3    H122143   1.694   3.176   0.949  0.8010 -0.6942  0.6487
 7393TIP3    H222144   1.598   3.093   0.866  0.3849 -0.9979  1.4276
 7394TIP3   OH222145   3.791   4.938   3.696 -0.0257  0.4209 -0.3788
 7394TIP3    H122146   3.706   4.980   3.680  0.3290  0.9761 -0.8423
 7394TIP3    H222147   3.797   4.870   3.629 -0.9955 -1.0221  0.9195
 7395TIP3   OH222148   5.463   0.555   3.061 -0.3280 -0.2016  0.3488
 7395TIP3    H122149   5.527   0.485   3.049  0.3040  0.4706 -0.1965
 7395TIP3    H222150   5.495   0.605   3.136 -1.5060 -1.2736  1.6460
 7396TIP3   OH222151   1.995   4.501   2.838  0.1505  0.1929  0.6697
 7396TIP3    H122152   2.061   4.571   2.829 -0.6496  0.8491 -0.2087
 7396TIP3    H222153   1.921   4.531   2.786 -0.7448 -0.6756  1.4137
 7397TIP3   OH222154   2.480   6.097   4.011 -0.3556  0.2082 -0.0652
 7397TIP3    H122155   2.536   6.083   3.934 -0.1205  1.8566 -0.2214
 7397TIP3    H222156   2.431   6.176   3.991  0.8323  1.5764  2.0822
 7398TIP3   OH222157   1.584   3.994   2.893  0.0587  0.0541  0.3734
 7398TIP3    H122158   1.676   3.972   2.877 -0.1065 -0.5960  0.2927
 7398TIP3    H222159   1.588   4.071   2.950  0.6710 -0.8097  1.5540
 7399TIP3   OH222160   0.315   6.536   2.493 -0.1119  0.0963 -0.0922
 7399TIP3    H122161   0.256   6.497   2.557  0.1948  0.7185  0.5867
 7399TIP3    H222162   0.376   6.466   2.471 -0.3824 -0.2001  0.0987
 7400TIP3   OH222163   4.020   6.632   0.156 -0.0682 -0.0090 -0.2615
 7400TIP3    H122164   3.965   6.683   0.098  1.0356  2.4131  0.6786
 7400TIP3    H222165   4.062   6.697   0.213  3.1018 -1.7118 -0.3791
 7401TIP3   OH222166   6.170   1.440   0.810  0.1138  0.0569  0.5916
 7401TIP3    H122167   6.198   1.497   0.738 -2.1915  0.4144 -0.1100
 7401TIP3    H222168   6.123   1.499   0.870 -3.3055 -1.0964 -0.6831
 7402TIP3   OH222169   6.324   1.160   0.411  0.0663  0.3379 -0.1296
 7402TIP3    H122170   6.275   1.121   0.339  0.4472 -0.4530  0.0326
 7402TIP3    H222171   6.302   1.106   0.487  0.1668  0.7792  0.2191
 7403TIP3   OH222172   5.544   3.618   3.524 -0.2651  0.1465 -0.4660
 7403TIP3    H122173   5.537   3.548   3.459  0.5368  1.9701 -2.6578
 7403TIP3    H222174   5.469   3.605   3.581  0.1182 -2.7438 -0.4667
 7404TIP3   OH222175   6.537   5.624   0.543 -0.3938  0.1835 -0.3721
 7404TIP3    H122176   6.452   5.668   0.546  0.3819  1.8013 -0.7745
 7404TIP3    H222177   6.544   5.590   0.454 -0.5215  0.2341 -0.4013
 7405TIP3   OH222178   0.296   2.947   2.242  0.0712 -1.0111 -0.0036
 7405TIP3    H122179   0.256   2.869   2.281  1.6285 -2.4790 -1.2158
 7405TIP3    H222180   0.368   2.913   2.189  0.4416  1.2239 -1.0283
 7406TIP3   OH222181   1.228   4.825   5.341 -0.8795 -0.7425  0.3405
 7406TIP3    H122182   1.283   4.782   5.407 -0.5171  1.1138  1.3131
 7406TIP3    H222183   1.164   4.874   5.393  0.1152  1.6854 -0.6070
 7407TIP3   OH222184   1.233   2.703   5.270  0.4611  0.2195 -0.3393
 7407TIP3    H122185   1.142   2.672   5.276  0.2305  1.0815  1.1733
 7407TIP3    H222186   1.225   2.798   5.257  1.1564  0.2176 -0.8200
 7408TIP3   OH222187   0.064   0.686   4.166  0.1699  0.2411 -0.3209
 7408TIP3    H122188  -0.010   0.698   4.106 -0.6143  0.3055  0.6292
 7408TIP3    H222189   0.044   0.605   4.213  1.9822 -1.1749 -1.8020
 7409TIP3   OH222190   6.465   0.697   4.243  0.0693  0.0173  0.6883
 7409TIP3    H122191   6.508   0.781   4.230  2.6030 -1.2916 -0.0087
 7409TIP3    H222192   6.449   0.692   4.338  1.3458  0.6284  0.9519
 7410TIP3   OH222193   1.403   3.191   2.755 -0.0521 -0.5431 -0.1658
 7410TIP3    H122194   1.416   3.182   2.850 -1.8388 -1.2453  0.0677
 7410TIP3    H222195   1.380   3.283   2.743  1.5753 -0.1032 -0.1498
 7411TIP3   OH222196   5.056   6.106   4.763  0.1242  0.7968 -0.9373
 7411TIP3    H122197   5.016   6.079   4.845  0.8759  1.9813 -0.1537
 7411TIP3    H222198   5.047   6.201   4.762  1.1052  0.8954 -1.6978
 7412TIP3   OH222199   6.158   2.446   4.968 -0.5151 -0.7007 -0.4114
 7412TIP3    H122200   6.207   2.415   5.044  0.2043 -1.7805 -1.2851
 7412TIP3    H222201   6.067   2.425   4.989 -0.3405 -0.8722  0.2022
 7413TIP3   OH222202   6.679   0.909   0.394 -0.1489  0.1153 -0.5507
 7413TIP3    H122203   6.666   0.814   0.394 -0.6535  0.1596 -1.9489
 7413TIP3    H222204   6.675   0.934   0.487  0.0336 -1.2287 -0.1627
 7414TIP3   OH222205   0.625   0.206   2.445 -0.3564  0.1335  0.0151
 7414TIP3    H122206   0.649   0.289   2.403 -0.7337 -0.0176 -0.5130
 7414TIP3    H222207   0.563   0.166   2.384  1.0011 -1.2805 -0.4968
 7415TIP3   OH222208   0.250   6.351   4.889 -0.1873  0.3451 -0.0139
 7415TIP3    H122209   0.197   6.309   4.821  1.7918  0.3015 -1.6080
 7415TIP3    H222210   0.262   6.441   4.859  2.5679 -0.2532 -0.9947
 7416TIP3   OH222211   4.111   0.165   5.827  0.5941  0.0271 -1.0028
 7416TIP3    H122212   4.053   0.241   5.818 -0.8704 -0.9760 -0.5202
 7416TIP3    H222213   4.080   0.121   5.906  0.4032 -1.8855 -2.0942
 7417TIP3   OH222214   0.062   2.616   5.048  0.1927 -0.6967  0.0788
 7417TIP3    H122215   0.081   2.693   5.101 -0.4556 -0.7863  0.4385
 7417TIP3    H222216   0.145   2.569   5.044  1.4172  1.3737 -2.4208
 7418TIP3   OH222217   2.957   5.228   4.257  0.4260  0.1488  0.2473
 7418TIP3    H122218   2.882   5.190   4.303 -0.9843  0.0357 -1.9812
 7418TIP3    H222219   3.034   5.191   4.300 -0.8419 -1.5867  1.1130
 7419TIP3   OH222220   5.220   6.525   5.143 -0.6865 -0.3271  0.3969
 7419TIP3    H122221   5.268   6.474   5.208 -0.0568  1.1277  1.1068
 7419TIP3    H222222   5.150   6.466   5.114 -0.1966 -1.4691  1.4245
 7420TIP3   OH222223   5.114   2.143   5.912  0.2300 -0.2124  0.1663
 7420TIP3    H122224   5.037   2.141   5.856 -0.7383  0.0958  1.4217
 7420TIP3    H222225   5.184   2.179   5.857 -0.7798  0.4807 -0.6975
 7421TIP3   OH222226   6.350   2.876   5.001  0.2616  0.3188  0.1937
 7421TIP3    H122227   6.390   2.892   5.086 -0.1090 -1.0951  0.6604
 7421TIP3    H222228   6.351   2.781   4.992 -0.8906  0.3867 -0.8074
 7422TIP3   OH222229   0.201   3.147   5.411 -0.1403 -0.0214 -0.1569
 7422TIP3    H122230   0.130   3.103   5.458 -0.0160 -0.6987 -0.5794
 7422TIP3    H222231   0.200   3.107   5.324  0.6639  0.0614 -0.2102
 7423TIP3   OH222232   0.513   5.182   0.206  0.1736 -0.3412 -0.5348
 7423TIP3    H122233   0.500   5.137   0.122  0.4571  0.2469 -0.8971
 7423TIP3    H222234   0.424   5.199   0.237  0.0604  0.2661 -1.1703
 7424TIP3   OH222235   1.088   2.363   4.238 -0.0639  0.1131  0.2704
 7424TIP3    H122236   1.084   2.282   4.289  1.4402 -1.0310 -1.3228
 7424TIP3    H222237   1.071   2.336   4.148 -2.0887  1.9869 -0.0060
 7425TIP3   OH222238   1.830   5.134   2.367  0.3637  0.0061 -0.0835
 7425TIP3    H122239   1.759   5.081   2.332 -0.0145  0.5907 -0.2001
 7425TIP3    H222240   1.788   5.195   2.427  0.9918 -0.9860  1.4584
 7426TIP3   OH222241   6.274   5.318   1.513  0.1149 -0.1901  0.3685
 7426TIP3    H122242   6.254   5.343   1.423 -0.1049 -3.6654 -0.7172
 7426TIP3    H222243   6.370   5.314   1.516  0.1293  0.1107  0.3677
 7427TIP3   OH222244   5.178   4.529   2.497 -0.3052 -0.8396  0.5529
 7427TIP3    H122245   5.230   4.450   2.481 -1.6597 -1.6671  0.0826
 7427TIP3    H222246   5.091   4.508   2.463 -0.5464  1.0922 -0.1548
 7428TIP3   OH222247   2.799   0.192   3.597 -0.1425 -0.1217 -0.0896
 7428TIP3    H122248   2.748   0.140   3.659 -1.7350 -0.0393 -1.2710
 7428TIP3    H222249   2.768   0.282   3.609  1.5095  0.3682  0.8674
 7429TIP3   OH222250   5.445   2.017   5.156  0.0751  0.2051  0.1891
 7429TIP3    H122251   5.525   2.010   5.207  0.3532  0.8511 -0.1505
 7429TIP3    H222252   5.375   2.023   5.222  0.2291 -1.0496  0.4854
 7430TIP3   OH222253   0.303   2.527   5.094 -0.3511  0.2691 -0.2466
 7430TIP3    H122254   0.366   2.597   5.114 -0.5724  1.0729 -2.1009
 7430TIP3    H222255   0.353   2.446   5.105  0.3399  0.7817  0.5259
 7431TIP3   OH222256   3.394   5.197   2.671 -0.2572 -0.3997  0.4836
 7431TIP3    H122257   3.397   5.197   2.767 -1.1522 -1.7173  0.5371
 7431TIP3    H222258   3.301   5.204   2.650 -0.0116  0.7428 -0.3228
 7432TIP3   OH222259   0.497   0.442   4.325 -0.7460 -0.2006 -0.3467
 7432TIP3    H122260   0.477   0.365   4.273  0.7105 -2.1235  1.7171
 7432TIP3    H222261   0.412   0.481   4.345 -1.5484 -1.4304 -1.2137
 7433TIP3   OH222262   1.143   6.654   1.551  0.6923 -0.1539 -0.3660
 7433TIP3    H122263   1.059   6.630   1.589  0.3096 -0.4244 -1.3546
 7433TIP3    H222264   1.170   6.577   1.501  0.8315  0.4421 -1.2305
 7434TIP3   OH222265   5.986   0.537   2.296 -0.0249 -0.1266 -0.3837
 7434TIP3    H122266   6.031   0.478   2.356  0.3520  0.4975 -0.0374
 7434TIP3    H222267   5.901   0.495   2.280  0.1124 -0.6005  0.1064
 7435TIP3   OH222268   0.496   5.853   2.030 -0.2072  0.4218  0.4841
 7435TIP3    H122269   0.578   5.828   1.985 -0.9059 -0.6233 -0.2680
 7435TIP3    H222270   0.431   5.854   1.960 -1.0352  0.2307  1.2481
 7436TIP3   OH222271   1.719   3.988   0.567  0.9318  0.2055 -0.1585
 7436TIP3    H122272   1.811   4.004   0.586  0.7905  1.8960 -0.7155
 7436TIP3    H222273   1.698   4.050   0.497 -0.6304 -0.1223 -0.0169
 7437TIP3   OH222274   5.857   5.837   0.571 -0.4230 -0.0375  0.2399
 7437TIP3    H122275   5.850   5.751   0.529 -0.2343 -0.0231  0.1770
 7437TIP3    H222276   5.915   5.822   0.646 -0.9060 -0.1024  0.6018
 7438TIP3   OH222277   7.028   6.626   0.884 -0.4546  0.3442  0.0256
 7438TIP3    H122278   7.102   6.681   0.908  0.7388 -0.0743 -2.3755
 7438TIP3    H222279   7.057   6.579   0.806 -2.6325 -1.1858  0.0403
 7439TIP3   OH222280   1.804   4.523   2.290 -0.2777 -0.1063  0.2053
 7439TIP3    H122281   1.789   4.571   2.209  0.4044 -1.7790 -0.9786
 7439TIP3    H222282   1.756   4.572   2.356 -0.7801  1.3700 -1.1748
 7440TIP3   OH222283   5.618   4.699   5.542  0.2070  0.2137 -0.2377
 7440TIP3    H122284   5.533   4.719   5.503  0.5256  0.8438 -0.6190
 7440TIP3    H222285   5.682   4.735   5.481  0.7807 -0.8535 -0.2961
 7441TIP3   OH222286   6.432   3.296   0.508 -0.4377  0.5532  0.3137
 7441TIP3    H122287   6.456   3.373   0.561 -0.3367  1.2210 -0.6617
 7441TIP3    H222288   6.515   3.250   0.495  0.4087  2.6709 -2.7546
 7442TIP3   OH222289   3.395   4.256   2.572 -0.3633  0.1451 -0.3621
 7442TIP3    H122290   3.345   4.208   2.507  1.1824 -0.6555 -1.0084
 7442TIP3    H222291   3.337   4.262   2.648 -2.3268  1.3846 -1.8698
 7443TIP3   OH222292   6.769   2.570   0.728 -0.0143 -0.0580 -0.2090
 7443TIP3    H122293   6.731   2.484   0.743  2.0511 -1.2014 -0.9968
 7443TIP3    H222294   6.844   2.573   0.787 -0.5010  1.5565  0.3746
 7444TIP3   OH222295   5.248   1.134   5.639  0.1052 -0.3838  0.5454
 7444TIP3    H122296   5.233   1.161   5.730 -0.0377 -0.4541  0.5433
 7444TIP3    H222297   5.342   1.116   5.635  0.2970  0.6016  0.4146
 7445TIP3   OH222298   0.290   5.021   4.056  0.6402  0.3778 -0.2094
 7445TIP3    H122299   0.351   5.037   4.128 -0.0323 -0.7655  0.6397
 7445TIP3    H222300   0.338   4.966   3.995  0.7338  0.1261  0.0870
 7446TIP3   OH222301   4.929   5.113   2.299  0.0504  0.5924  0.8867
 7446TIP3    H122302   4.880   5.173   2.357  0.0027  2.2529 -0.7628
 7446TIP3    H222303   5.000   5.080   2.354 -2.1571 -1.0061  3.0298
 7447TIP3   OH222304   3.178   0.012   2.819 -0.0600  0.2917 -0.2869
 7447TIP3    H122305   3.129   0.074   2.765 -1.2578  0.2458  0.7100
 7447TIP3    H222306   3.163   0.042   2.909  0.0380 -0.9398  0.1557
 7448TIP3   OH222307   4.615   0.888   5.564  0.3638  0.2510 -0.0137
 7448TIP3    H122308   4.642   0.833   5.637 -0.0045  0.7247  0.4911
 7448TIP3    H222309   4.540   0.843   5.526 -1.2556  1.3589  1.6613
 7449TIP3   OH222310   0.542   2.363   2.443 -0.1464  0.4373  0.0071
 7449TIP3    H122311   0.590   2.381   2.524  1.4955  0.2515 -0.8831
 7449TIP3    H222312   0.539   2.447   2.398 -1.9649  0.7714  0.6958
 7450TIP3   OH222313   2.005   1.882   2.335  0.1009  0.3074  0.0549
 7450TIP3    H122314   2.064   1.897   2.409  0.6417 -1.2610 -0.0169
 7450TIP3    H222315   2.041   1.935   2.264  1.8027 -1.0461 -0.1541
 7451TIP3   OH222316   7.053   3.589   0.023  0.5224  0.0366 -0.1346
 7451TIP3    H122317   7.010   3.505   0.039  0.8181 -0.0407  0.2859
 7451TIP3    H222318   6.981   3.652   0.014  0.2418 -0.4916 -1.9206
 7452TIP3   OH222319   3.601   2.095  -0.012 -0.0634 -0.2237 -0.2828
 7452TIP3    H122320   3.517   2.078   0.031  0.1341 -1.7999 -0.4374
 7452TIP3    H222321   3.659   2.027   0.021  0.7505 -0.0376 -1.2607
 7453TIP3   OH222322   5.801   5.323   4.257 -0.2713  0.5099  0.9420
 7453TIP3    H122323   5.897   5.332   4.254 -0.4462  2.4739 -0.4512
 7453TIP3    H222324   5.787   5.247   4.314  2.1504 -0.9667 -0.2313
 7454TIP3   OH222325   1.962   5.996   4.694  0.1627 -0.0684 -0.8004
 7454TIP3    H122326   1.939   6.061   4.760 -1.3883 -0.9951 -0.3906
 7454TIP3    H222327   2.058   5.991   4.697  0.1332 -0.0003  1.2802
 7455TIP3   OH222328   1.014   3.329   5.742 -0.0275 -0.2163  0.5876
 7455TIP3    H122329   0.933   3.329   5.690 -0.6486 -1.0792  1.5022
 7455TIP3    H222330   1.075   3.278   5.689 -1.0377 -2.1685  1.1974
 7456TIP3   OH222331   3.021   1.596   1.418  0.0336  0.1447 -0.0817
 7456TIP3    H122332   3.025   1.651   1.496 -0.7815  0.4922 -0.2736
 7456TIP3    H222333   2.928   1.574   1.408  0.2417 -0.6287 -0.4536
 7457TIP3   OH222334   3.726   2.181   4.084  0.0403  0.3659 -0.2111
 7457TIP3    H122335   3.820   2.177   4.067  0.0868 -2.6359  0.1259
 7457TIP3    H222336   3.714   2.262   4.133  2.7044  0.1587  0.9917
 7458TIP3   OH222337   1.129   4.018   4.165 -0.0757  0.3827  0.5916
 7458TIP3    H122338   1.146   3.960   4.239 -0.2044  1.1182  1.2140
 7458TIP3    H222339   1.187   4.092   4.179  1.0753 -0.1793 -0.9181
 7459TIP3   OH222340   5.570   5.162   4.610 -0.3872 -0.7706  0.4837
 7459TIP3    H122341   5.580   5.248   4.652 -1.2623 -1.1145  1.4285
 7459TIP3    H222342   5.578   5.099   4.682 -0.9993 -1.4235 -0.0028
 7460TIP3   OH222343   5.025   6.252   3.975  0.1769  0.1893  0.4260
 7460TIP3    H122344   5.103   6.289   3.935 -1.2438  4.0264  0.7569
 7460TIP3    H222345   5.051   6.233   4.065  1.1061 -0.0427  0.1165
 7461TIP3   OH222346   4.354   0.802   3.342 -0.7031 -0.5753 -0.0304
 7461TIP3    H122347   4.268   0.807   3.301  0.1058  0.2222 -1.7184
 7461TIP3    H222348   4.342   0.743   3.417 -2.9163  0.2956  0.3640
 7462TIP3   OH222349   3.024   6.475   5.850  0.0855 -0.4071  0.0446
 7462TIP3    H122350   3.036   6.431   5.766  0.2741 -2.3945  1.0778
 7462TIP3    H222351   3.098   6.447   5.903 -0.7866 -0.3046  1.3464
 7463TIP3   OH222352   3.068   1.660   0.810 -0.3874 -0.0050  1.0529
 7463TIP3    H122353   3.143   1.639   0.755 -0.4341 -2.3789  1.7590
 7463TIP3    H222354   2.993   1.663   0.750 -0.1735 -0.8050  0.7300
 7464TIP3   OH222355   7.072   1.284   1.667  0.2103  0.0442 -0.5973
 7464TIP3    H122356   7.067   1.197   1.627  0.6118 -0.2169 -0.0871
 7464TIP3    H222357   7.165   1.307   1.664 -0.1102  1.3165 -2.5169
 7465TIP3   OH222358   4.426   6.416   2.802  0.0858 -0.3432  0.4069
 7465TIP3    H122359   4.385   6.500   2.781 -1.6998 -1.0565  0.8755
 7465TIP3    H222360   4.443   6.420   2.896  0.1956 -0.4147  0.3901
 7466TIP3   OH222361   3.556   2.378   0.053  0.3367 -0.3189  0.4351
 7466TIP3    H122362   3.536   2.286   0.036  1.1004 -0.6853  1.3671
 7466TIP3    H222363   3.478   2.412   0.097 -1.0884  0.2740 -2.3552
 7467TIP3   OH222364   6.829   1.611   1.143 -0.6052 -0.4818 -0.3047
 7467TIP3    H122365   6.831   1.635   1.236  0.7090  1.4945 -0.7840
 7467TIP3    H222366   6.880   1.530   1.138 -2.1546 -1.5860  0.8998
 7468TIP3   OH222367   4.768   2.969   3.821 -0.5527  0.1324  0.0740
 7468TIP3    H122368   4.765   3.004   3.910 -0.2256 -1.9957  0.9944
 7468TIP3    H222369   4.860   2.974   3.796 -0.4907 -0.1083  0.2447
 7469TIP3   OH222370   4.072   6.647   4.811 -0.5034  0.0503 -0.0233
 7469TIP3    H122371   4.097   6.562   4.846  0.9842 -0.2381 -1.6375
 7469TIP3    H222372   4.151   6.680   4.769 -0.0638  3.7305  3.1703
 7470TIP3   OH222373   6.036   3.980   5.450  0.1962 -0.5672 -0.3931
 7470TIP3    H122374   5.989   4.034   5.387 -1.1780 -1.8868 -0.5498
 7470TIP3    H222375   5.983   3.983   5.530 -0.3702 -2.2631 -0.6452
 7471TIP3   OH222376   4.433   4.326   4.799 -0.0678  0.6330 -0.7650
 7471TIP3    H122377   4.406   4.351   4.888  0.5642 -0.5513 -0.2080
 7471TIP3    H222378   4.351   4.316   4.751 -0.4095  1.5625 -0.4111
 7472TIP3   OH222379   7.203   3.807   0.733 -0.0354  0.0047  0.1877
 7472TIP3    H122380   7.115   3.802   0.770 -0.0403 -3.3270  0.0410
 7472TIP3    H222381   7.188   3.820   0.639 -0.2068  2.0105  0.4403
 7473TIP3   OH222382   3.612   3.510   0.954  0.6607  0.6712 -0.0702
 7473TIP3    H122383   3.707   3.520   0.951  0.8026 -0.7624 -2.0473
 7473TIP3    H222384   3.581   3.535   0.867 -0.6160 -0.2310  0.0832
 7474TIP3   OH222385   5.205   1.503   1.523  0.2112  0.6203  0.2382
 7474TIP3    H122386   5.209   1.514   1.428 -1.5374  0.4519  0.1171
 7474TIP3    H222387   5.294   1.521   1.553  1.2542 -1.0900 -1.5943
 7475TIP3   OH222388   3.249   6.688   2.889  0.1285 -0.2538  0.1395
 7475TIP3    H122389   3.187   6.755   2.916 -1.7140 -1.1935 -1.4834
 7475TIP3    H222390   3.241   6.619   2.955 -0.4396 -0.2730  0.0567
 7476TIP3   OH222391   6.382   1.920   2.491 -0.2479  0.4272 -0.1754
 7476TIP3    H122392   6.349   2.002   2.528  0.4423  1.1443 -1.0853
 7476TIP3    H222393   6.366   1.928   2.397  0.2756 -0.2721 -0.3344
 7477TIP3   OH222394   4.706   3.387   1.080 -0.4006 -0.2491 -0.1474
 7477TIP3    H122395   4.659   3.466   1.053 -1.1147 -0.8179 -0.6084
 7477TIP3    H222396   4.794   3.418   1.100 -0.8041  0.7432  0.1686
 7478TIP3   OH222397   5.188   1.868   3.113 -0.0216 -0.0192 -0.4913
 7478TIP3    H122398   5.125   1.797   3.122 -0.2178  0.2916  0.8440
 7478TIP3    H222399   5.269   1.835   3.153 -0.3886  0.8024  1.0213
 7479TIP3   OH222400   0.426   5.379   5.878 -0.1124  0.3725  0.1366
 7479TIP3    H122401   0.400   5.314   5.943  0.6439  1.3358  1.4584
 7479TIP3    H222402   0.495   5.337   5.827  1.8944  0.7706  2.3466
 7480TIP3   OH222403   0.542   2.897   5.604 -0.3293  0.4960  0.2271
 7480TIP3    H122404   0.488   2.976   5.608 -0.5441  0.3508  0.2418
 7480TIP3    H222405   0.630   2.928   5.584 -0.2937  0.7875  0.8119
 7481TIP3   OH222406   6.849   5.250   4.929 -0.2164  0.1197 -0.0647
 7481TIP3    H122407   6.827   5.312   4.859  1.2891  0.7549 -0.0158
 7481TIP3    H222408   6.774   5.253   4.987 -1.3167 -0.0955 -1.4167
 7482TIP3   OH222409   4.569   0.347   0.142 -0.0160  0.3129  0.5585
 7482TIP3    H122410   4.577   0.272   0.202 -0.3055  0.8687  1.2971
 7482TIP3    H222411   4.517   0.313   0.069  0.6144 -0.4639  0.4601
 7483TIP3   OH222412   6.752   6.494   0.445  0.0701 -0.1660 -0.0850
 7483TIP3    H122413   6.789   6.556   0.382  0.6107 -1.2258 -0.8316
 7483TIP3    H222414   6.776   6.530   0.530  1.8453 -0.2009 -0.5224
 7484TIP3   OH222415   6.814   6.023   0.326 -0.3994 -0.4435 -0.3444
 7484TIP3    H122416   6.730   6.000   0.365 -1.8379 -0.0418 -2.9773
 7484TIP3    H222417   6.818   6.119   0.333  1.1768 -0.6075  2.1591
 7485TIP3   OH222418   2.741   4.040   4.135 -0.4497  0.2988 -0.0548
 7485TIP3    H122419   2.678   3.994   4.078 -0.5590  1.4852 -0.9327
 7485TIP3    H222420   2.800   4.085   4.074  0.4675  0.2512  0.7752
 7486TIP3   OH222421   3.940   1.850   0.670 -0.1601  0.3819 -0.5660
 7486TIP3    H122422   3.965   1.782   0.733 -0.8658  1.7799  1.2978
 7486TIP3    H222423   3.884   1.804   0.606  0.1580 -0.9716  0.0947
 7487TIP3   OH222424   2.620   1.695   3.391 -0.4609  0.1766 -0.7947
 7487TIP3    H122425   2.559   1.683   3.318 -1.2576 -0.4364 -0.0544
 7487TIP3    H222426   2.631   1.790   3.398 -2.1704  0.3894 -0.3125
 7488TIP3   OH222427   2.361   5.345   1.634 -0.5169  0.3257 -0.3609
 7488TIP3    H122428   2.326   5.388   1.713  0.5872  1.9669 -0.7092
 7488TIP3    H222429   2.322   5.394   1.562  1.5037  1.4782 -0.7641
 7489TIP3   OH222430   5.373   4.555   3.762 -0.7544 -0.0346 -0.5317
 7489TIP3    H122431   5.344   4.490   3.697 -0.3058 -2.2860  1.3824
 7489TIP3    H222432   5.327   4.530   3.842 -0.2530  1.8329  0.3888
 7490TIP3   OH222433   0.540   1.600   1.163  0.2823  0.0511 -0.0915
 7490TIP3    H122434   0.591   1.667   1.118  1.7323 -1.3969 -0.7236
 7490TIP3    H222435   0.459   1.593   1.112  0.7948  0.2486 -0.9616
 7491TIP3   OH222436   5.097   0.427   0.591  0.3409  0.7757  0.3753
 7491TIP3    H122437   5.145   0.363   0.643 -1.2882 -0.9550 -0.1532
 7491TIP3    H222438   5.022   0.379   0.557  1.0558  1.8977 -3.2015
 7492TIP3   OH222439   7.233   0.973   2.752  0.1666 -0.0234  0.5199
 7492TIP3    H122440   7.203   0.953   2.841  1.1705  1.7182  1.2926
 7492TIP3    H222441   7.213   1.066   2.740  0.7116 -0.0527 -0.8199
 7493TIP3   OH222442   5.009   6.465   3.603  0.0891  0.0332 -0.5090
 7493TIP3    H122443   4.932   6.471   3.660 -2.9896  1.3958 -4.3632
 7493TIP3    H222444   5.034   6.556   3.586  2.4232 -0.3732  0.3109
 7494TIP3   OH222445   6.048   3.030   2.458  0.0694  0.3287  0.7660
 7494TIP3    H122446   6.004   2.952   2.424 -0.0756  0.8361 -0.2560
 7494TIP3    H222447   6.096   3.065   2.382  0.7592  0.7958  1.4087
 7495TIP3   OH222448   6.146   5.494   0.430  0.3677 -0.2245  0.1038
 7495TIP3    H122449   6.065   5.470   0.385 -0.5682  0.3924  1.3907
 7495TIP3    H222450   6.175   5.574   0.387 -1.1700  1.0388  1.2868
 7496TIP3   OH222451   5.942   3.008   1.257 -0.2868 -0.1535 -0.6441
 7496TIP3    H122452   5.942   2.948   1.183  0.9067 -0.8646 -0.0997
 7496TIP3    H222453   5.944   2.951   1.334 -1.3346  0.5768 -0.0541
 7497TIP3   OH222454  -0.005   0.042   4.763 -0.1677  0.5431  0.5845
 7497TIP3    H122455   0.022   0.120   4.811 -0.9064  1.1972 -0.0463
 7497TIP3    H222456  -0.014  -0.026   4.830  1.1400  0.8133  1.0468
 7498TIP3   OH222457   4.422   6.136   0.187  0.2559 -0.1694 -0.7394
 7498TIP3    H122458   4.338   6.155   0.146  0.7531  0.4646 -1.4916
 7498TIP3    H222459   4.442   6.214   0.238 -0.6713 -1.1984  1.3120
 7499TIP3   OH222460   2.284   3.829   1.900 -0.0305  0.4242 -0.1711
 7499TIP3    H122461   2.337   3.850   1.977 -0.5218 -0.6033  0.4660
 7499TIP3    H222462   2.194   3.845   1.928 -0.1522  1.0555 -0.8826
 7500TIP3   OH222463   5.102   1.110   2.694 -0.2612 -0.0165  0.3757
 7500TIP3    H122464   5.177   1.129   2.750 -0.4715  0.9488  0.3468
 7500TIP3    H222465   5.072   1.196   2.664 -0.8909 -0.4435 -0.2495
 7501TIP3   OH222466   3.504   6.375   0.122 -0.2053  0.0379 -0.1739
 7501TIP3    H122467   3.535   6.356   0.211 -1.6984 -3.6471 -0.2379
 7501TIP3    H222468   3.518   6.469   0.111  3.8951 -0.0257  2.3750
 7502TIP3   OH222469   6.053   6.185   2.503  0.4150  0.0724 -0.1346
 7502TIP3    H122470   6.026   6.126   2.574  1.1461  1.8705  1.7390
 7502TIP3    H222471   6.118   6.134   2.454 -1.2186 -1.7779 -0.5352
 7503TIP3   OH222472   1.800   1.326   3.009  0.0169 -0.0739 -0.1886
 7503TIP3    H122473   1.867   1.294   3.068 -1.2436 -1.1417  0.7360
 7503TIP3    H222474   1.845   1.388   2.951  1.5254  0.0714  1.0984
 7504TIP3   OH222475   0.941   5.339   4.256  0.7766  0.2150  0.0378
 7504TIP3    H122476   0.918   5.420   4.302 -3.3515  0.5759 -2.2272
 7504TIP3    H222477   0.889   5.271   4.299  1.5676 -0.6291 -0.2908
 7505TIP3   OH222478   2.540   0.445   4.494 -0.1401  0.0793  0.6287
 7505TIP3    H122479   2.565   0.526   4.538  1.1467  0.5433 -0.8447
 7505TIP3    H222480   2.511   0.473   4.407 -3.9361 -0.6693  1.4902
 7506TIP3   OH222481   0.512   5.756   2.728  0.0600 -0.4858  0.2696
 7506TIP3    H122482   0.546   5.691   2.790 -0.7579 -0.5939  0.6220
 7506TIP3    H222483   0.569   5.832   2.740  2.4840 -1.8313 -1.7451
 7507TIP3   OH222484   4.849   0.503   2.541 -0.5487 -0.4052  0.4857
 7507TIP3    H122485   4.768   0.542   2.510  0.0132 -0.4033 -1.0460
 7507TIP3    H222486   4.874   0.558   2.616 -1.3181  0.3480  0.2082
 7508TIP3   OH222487   2.662   2.970   4.511 -0.0909 -0.4313  0.1578
 7508TIP3    H122488   2.587   2.940   4.563  0.4247 -1.1265  0.5203
 7508TIP3    H222489   2.631   2.966   4.421 -1.0082  0.8227  0.3896
 7509TIP3   OH222490   2.196   2.174   1.887  0.5518 -0.6189  0.0739
 7509TIP3    H122491   2.259   2.105   1.870  0.3709 -0.8153  0.1879
 7509TIP3    H222492   2.199   2.186   1.982 -0.0278 -1.0646  0.1545
 7510TIP3   OH222493   5.560   3.294   0.253 -0.3714 -0.5304  0.2285
 7510TIP3    H122494   5.536   3.313   0.344 -1.2535 -0.6048  0.0269
 7510TIP3    H222495   5.484   3.322   0.202  0.1902 -0.3205 -0.5080
 7511TIP3   OH222496   2.260   6.255   5.398  0.0139 -0.0262 -0.1458
 7511TIP3    H122497   2.281   6.191   5.466 -1.1104 -0.6256 -0.3486
 7511TIP3    H222498   2.239   6.335   5.448 -1.9994 -0.7889  0.3351
 7512TIP3   OH222499   3.581  -0.002   4.328 -0.2541  0.2601 -0.2156
 7512TIP3    H122500   3.628  -0.042   4.256  0.2200  0.9975 -0.3324
 7512TIP3    H222501   3.638   0.069   4.358 -1.2975  1.2269 -0.4022
 7513TIP3   OH222502   0.294   3.812   0.632  0.9434  0.1235 -0.3982
 7513TIP3    H122503   0.221   3.845   0.580  1.1647  3.1934  1.0470
 7513TIP3    H222504   0.361   3.791   0.568 -0.1217  0.1571 -1.5702
 7514TIP3   OH222505   1.160   0.719   0.751  0.5651 -0.2458 -0.1192
 7514TIP3    H122506   1.225   0.674   0.805 -0.1210  1.6358  2.4539
 7514TIP3    H222507   1.076   0.691   0.787  0.0628  0.3961 -0.7749
 7515TIP3   OH222508   5.879   5.320   1.444 -0.3778  0.5407 -0.1790
 7515TIP3    H122509   5.892   5.325   1.349 -0.2285  0.4726 -0.1627
 7515TIP3    H222510   5.896   5.408   1.476  0.9190  0.2694 -0.0528
 7516TIP3   OH222511   4.284   0.080   4.418 -0.4971 -0.1222  1.0200
 7516TIP3    H122512   4.341   0.032   4.478  1.4751  1.8593  0.9004
 7516TIP3    H222513   4.252   0.154   4.469  1.6428  1.9091 -0.3660
 7517TIP3   OH222514   6.183   3.072   3.144 -0.1441 -0.1864 -0.0789
 7517TIP3    H122515   6.266   3.036   3.176 -1.2442 -0.1727  3.1662
 7517TIP3    H222516   6.209   3.133   3.074  2.4961 -0.7253  0.3240
 7518TIP3   OH222517   6.506   6.782   0.016 -0.0368 -0.0179 -0.0073
 7518TIP3    H122518   6.567   6.725  -0.030  1.7202  2.0619 -0.4142
 7518TIP3    H222519   6.517   6.759   0.109  0.4679 -0.4935 -0.1789
 7519TIP3   OH222520   0.888   2.215   1.030  0.1345  0.2884 -0.3359
 7519TIP3    H122521   0.921   2.211   0.940  1.6491 -2.0774  0.2244
 7519TIP3    H222522   0.865   2.307   1.043  1.2538  0.9840 -2.6383
 7520TIP3   OH222523   1.743   2.521   4.605 -0.1208  0.4086 -0.6874
 7520TIP3    H122524   1.693   2.453   4.560  0.5508  0.5394 -1.6709
 7520TIP3    H222525   1.691   2.542   4.683  0.5699 -2.5851  0.7215
 7521TIP3   OH222526   4.114   2.870   4.375 -0.1139 -0.1520 -0.1868
 7521TIP3    H122527   4.160   2.940   4.329 -1.2185  1.0828  0.5110
 7521TIP3    H222528   4.055   2.833   4.310  0.7090 -0.6725 -0.6495
 7522TIP3   OH222529   3.524   3.870   1.354  0.7390  0.4259  0.0716
 7522TIP3    H122530   3.567   3.794   1.317 -1.1419 -0.8773  0.4315
 7522TIP3    H222531   3.430   3.849   1.353  0.3665  1.3197  3.1909
 7523TIP3   OH222532   5.919   4.528   5.554  0.2769  0.3126  0.0163
 7523TIP3    H122533   5.932   4.606   5.609 -0.0159 -0.3016  0.9771
 7523TIP3    H222534   5.877   4.465   5.612 -0.2825 -0.2655 -1.0021
 7524TIP3   OH222535   4.086   1.471   3.636 -0.2499 -0.6246 -0.0179
 7524TIP3    H122536   3.999   1.491   3.601 -0.3187  0.2163  0.6067
 7524TIP3    H222537   4.126   1.416   3.570 -0.0998  1.4789 -1.7708
 7525TIP3   OH222538   3.927   6.375   3.368 -0.1518  0.0054  0.0523
 7525TIP3    H122539   3.864   6.318   3.413 -0.8791 -0.4511 -1.4681
 7525TIP3    H222540   4.009   6.363   3.416 -0.9167 -0.3535  1.3112
 7526TIP3   OH222541   2.466   4.246   5.285  0.1273 -0.0002  0.0188
 7526TIP3    H122542   2.547   4.199   5.306 -0.8039 -1.7260 -0.1212
 7526TIP3    H222543   2.496   4.325   5.239  1.7327 -0.5902 -0.0241
 7527TIP3   OH222544   6.949   4.226   3.573  0.0114  0.2464  0.4997
 7527TIP3    H122545   7.006   4.245   3.648  0.7888 -0.6174  0.1450
 7527TIP3    H222546   6.971   4.137   3.548 -0.2786  0.5040 -0.7407
 7528TIP3   OH222547   1.477   1.320   4.013  0.1020  0.0705  0.0269
 7528TIP3    H122548   1.434   1.299   4.096 -0.4232 -1.3189 -0.5715
 7528TIP3    H222549   1.415   1.378   3.969  1.3569  2.7050  1.4935
 7529TIP3   OH222550   2.264   5.652   1.126  0.5056 -0.6149 -0.5107
 7529TIP3    H122551   2.294   5.643   1.035 -0.1007 -0.7224 -0.7085
 7529TIP3    H222552   2.314   5.724   1.161  0.3225 -0.1802 -1.1198
 7530TIP3   OH222553   3.175   5.376   5.831  0.8518  0.1360  0.2616
 7530TIP3    H122554   3.211   5.313   5.894 -0.7514 -1.7859 -0.6097
 7530TIP3    H222555   3.245   5.439   5.817  2.6390 -1.5585  1.0616
 7531TIP3   OH222556   0.267   6.251   5.833 -0.2227 -0.0553  0.1248
 7531TIP3    H122557   0.321   6.247   5.755 -1.7160 -1.0774 -0.9312
 7531TIP3    H222558   0.208   6.325   5.818  0.1257  0.3609  0.7521
 7532TIP3   OH222559   2.694   0.532   4.096  0.4431 -0.1843 -0.4414
 7532TIP3    H122560   2.693   0.444   4.058 -0.7349 -0.6592  0.5898
 7532TIP3    H222561   2.760   0.579   4.046  0.7761 -1.5196 -1.3273
 7533TIP3   OH222562   3.455   3.369   4.730 -0.2411 -0.4671  0.1368
 7533TIP3    H122563   3.476   3.412   4.813  1.9652 -0.8088 -0.1923
 7533TIP3    H222564   3.363   3.343   4.740 -0.4170  0.6198  1.9520
 7534TIP3   OH222565   0.624   2.671   1.020  0.1693  0.2461  0.7211
 7534TIP3    H122566   0.599   2.761   1.043 -1.2956 -0.0366  0.3021
 7534TIP3    H222567   0.560   2.645   0.954  0.9078 -0.9316  0.4517
 7535TIP3   OH222568   2.777   0.440   2.537  0.5746  1.0999 -0.3359
 7535TIP3    H122569   2.775   0.410   2.628  0.3851  0.0488 -0.6709
 7535TIP3    H222570   2.714   0.512   2.534  0.6649  1.2109  0.3900
 7536TIP3   OH222571   4.518   6.029   1.393 -0.2371 -0.0948  0.3918
 7536TIP3    H122572   4.611   6.011   1.403 -0.4794 -0.6623  2.0231
 7536TIP3    H222573   4.498   6.094   1.461 -1.2335 -0.8928  0.9101
 7537TIP3   OH222574   5.796   4.969   3.589 -0.7078  0.4890  0.0179
 7537TIP3    H122575   5.879   4.958   3.634 -0.5270  0.0087 -0.4165
 7537TIP3    H222576   5.791   5.063   3.569 -0.3791  0.5542  0.2491
 7538TIP3   OH222577   0.171   0.741   1.817 -0.0723 -0.3185 -0.4322
 7538TIP3    H122578   0.125   0.762   1.899  0.9782 -0.7676  0.2882
 7538TIP3    H222579   0.231   0.670   1.841  0.3038 -0.4042 -1.5870
 7539TIP3   OH222580   0.135   0.007   3.098 -0.4877 -0.1862  0.1064
 7539TIP3    H122581   0.190   0.005   3.020  0.8459  0.3544  0.9900
 7539TIP3    H222582   0.068   0.072   3.079 -0.3560 -0.2805 -0.7021
 7540TIP3   OH222583   5.461   1.059   2.301 -0.1490 -0.7629  0.4556
 7540TIP3    H122584   5.507   1.087   2.222  1.5117 -2.0932  0.8887
 7540TIP3    H222585   5.379   1.021   2.270 -0.3808  0.4643 -0.4563
 7541TIP3   OH222586   4.049   4.879   2.350 -0.0222 -0.0669 -0.0171
 7541TIP3    H122587   4.011   4.952   2.399 -0.1527  0.3576 -0.7436
 7541TIP3    H222588   4.024   4.896   2.259 -0.4484 -1.2632 -0.1351
 7542TIP3   OH222589   6.802   4.225   4.923  0.0167 -0.2491 -0.6145
 7542TIP3    H122590   6.730   4.219   4.859 -1.6015 -1.5679  1.2166
 7542TIP3    H222591   6.872   4.172   4.885 -1.3834 -2.1021 -0.7932
 7543TIP3   OH222592   6.819   4.873   0.858  0.0652  0.8227  0.6272
 7543TIP3    H122593   6.844   4.952   0.905 -0.0435 -0.3973  2.9198
 7543TIP3    H222594   6.843   4.801   0.917 -1.2527 -0.7837 -0.6589
 7544TIP3   OH222595   3.504   1.966   0.926  0.1887  0.1059 -0.3207
 7544TIP3    H122596   3.424   1.914   0.935  0.3753 -0.0511  0.4902
 7544TIP3    H222597   3.479   2.053   0.956  0.1945  0.1771 -0.5242
 7545TIP3   OH222598   1.968   4.806   4.926  0.4639  0.4741  0.1115
 7545TIP3    H122599   1.932   4.769   4.845  0.0130  2.2165 -0.5256
 7545TIP3    H222600   1.921   4.760   4.996 -1.9222  1.5380 -0.6817
 7546TIP3   OH222601   1.052   5.721   2.249  0.5302  0.3716  0.0266
 7546TIP3    H122602   0.957   5.732   2.250  0.4456  0.3924 -2.4149
 7546TIP3    H222603   1.065   5.628   2.268 -0.0459  0.2009 -0.3679
 7547TIP3   OH222604   7.151   4.871   0.627 -0.7688  0.1664  0.1079
 7547TIP3    H122605   7.059   4.871   0.601 -0.7886 -1.3030  0.0898
 7547TIP3    H222606   7.198   4.840   0.549 -0.3918 -0.2857  0.5106
 7548TIP3   OH222607   5.912   2.731   1.439 -0.5679  0.1018 -0.6663
 7548TIP3    H122608   5.844   2.673   1.407 -0.2590  0.2602 -1.6191
 7548TIP3    H222609   5.994   2.688   1.416 -0.3382  0.5155 -0.6273
 7549TIP3   OH222610   3.391   4.215   0.569  0.0707  0.1370 -0.1783
 7549TIP3    H122611   3.321   4.280   0.560  2.1669  2.3669 -1.4401
 7549TIP3    H222612   3.425   4.230   0.658 -0.2410 -0.0938 -0.0183
 7550TIP3   OH222613   4.010   3.921   0.135  0.5275 -0.3702  0.0826
 7550TIP3    H122614   3.978   3.848   0.188  1.3895 -1.1790 -0.4913
 7550TIP3    H222615   4.088   3.952   0.182  0.1286  0.2491  0.3612
 7551TIP3   OH222616   0.123   4.061   4.739 -0.3277 -0.4113  0.2041
 7551TIP3    H122617   0.055   4.065   4.806  0.5990  0.7708  1.1213
 7551TIP3    H222618   0.187   4.127   4.765  0.0596  0.1204 -1.8781
 7552TIP3   OH222619   4.140   2.134   1.512 -0.2883 -0.0908 -0.0957
 7552TIP3    H122620   4.160   2.222   1.544  0.0605 -0.5938  1.1180
 7552TIP3    H222621   4.056   2.113   1.553 -0.2709 -0.4016 -0.2191
 7553TIP3   OH222622   0.035   1.183   3.855 -0.6548 -0.3341 -0.6643
 7553TIP3    H122623   0.094   1.158   3.926 -0.6916 -0.8582 -0.8205
 7553TIP3    H222624   0.078   1.153   3.776 -0.0429  1.2768 -0.9956
 7554TIP3   OH222625   3.137   2.633   4.036  0.1029 -0.6284 -0.0056
 7554TIP3    H122626   3.125   2.715   4.084 -1.3142 -0.2659 -0.9138
 7554TIP3    H222627   3.224   2.602   4.063  2.0532  2.6309 -1.7718
 7555TIP3   OH222628   4.215   5.766   4.079  0.1311  0.2831  0.2661
 7555TIP3    H122629   4.139   5.729   4.123 -0.2285  1.5869  0.8072
 7555TIP3    H222630   4.179   5.809   4.001  0.3786  0.4025  0.2149
 7556TIP3   OH222631   4.325   4.378   2.936  0.6917 -0.0073  0.0670
 7556TIP3    H122632   4.322   4.285   2.956 -0.2900 -0.0581 -0.2828
 7556TIP3    H222633   4.250   4.415   2.983 -0.0576  0.2970 -1.3330
 7557TIP3   OH222634   0.523   1.073   4.145  0.7053 -0.5182 -0.1706
 7557TIP3    H122635   0.539   0.979   4.154 -1.3827 -0.8056  1.0385
 7557TIP3    H222636   0.485   1.082   4.058 -1.1394 -1.1542  0.5249
 7558TIP3   OH222637   1.087   2.931   1.628 -0.3488  0.0515  0.0400
 7558TIP3    H122638   1.165   2.986   1.622  1.1327 -1.8060  1.2378
 7558TIP3    H222639   1.061   2.918   1.537  2.2150 -1.2143 -0.6129
 7559TIP3   OH222640   3.616   3.292   5.903 -0.1275 -0.1692  0.3206
 7559TIP3    H122641   3.695   3.342   5.922 -0.4958  0.8928 -0.7708
 7559TIP3    H222642   3.633   3.252   5.818 -0.6545 -0.1369  0.1915
 7560TIP3   OH222643   1.084   1.135   2.518 -0.7501 -0.4213 -0.5449
 7560TIP3    H122644   1.026   1.072   2.474 -1.5233  0.8083 -1.3671
 7560TIP3    H222645   1.035   1.162   2.595 -0.4039 -0.8415 -0.1741
 7561TIP3   OH222646   3.266   5.754   2.204  0.2852  0.1892 -0.0173
 7561TIP3    H122647   3.331   5.822   2.221  0.5105 -0.0060 -0.1052
 7561TIP3    H222648   3.288   5.721   2.117  2.3395 -2.4424  1.3567
 7562TIP3   OH222649   3.166   0.760   2.054  0.0136 -0.0902  0.0519
 7562TIP3    H122650   3.216   0.679   2.052  3.0095  1.6066  0.5585
 7562TIP3    H222651   3.126   0.767   1.968  2.2161 -0.6738 -1.0707
 7563TIP3   OH222652   1.223   0.760   5.287 -0.2231 -0.7510 -0.6544
 7563TIP3    H122653   1.218   0.845   5.330 -0.6566 -0.8210 -0.5649
 7563TIP3    H222654   1.317   0.744   5.276 -0.1029 -0.7683  0.3414
 7564TIP3   OH222655   1.752   2.690   1.983 -0.1787  1.3436  0.2388
 7564TIP3    H122656   1.810   2.653   1.917 -0.2060  3.7283 -1.2406
 7564TIP3    H222657   1.800   2.764   2.019 -0.8557  1.1097  1.6929
 7565TIP3   OH222658   7.204   3.481   1.064  0.4375  0.4383 -0.0414
 7565TIP3    H122659   7.204   3.576   1.054  0.2723  0.4766  0.3209
 7565TIP3    H222660   7.135   3.463   1.128  1.3564  0.1818  0.9073
 7566TIP3   OH222661   3.509   2.295   3.324 -0.7595  0.6471  0.1686
 7566TIP3    H122662   3.591   2.340   3.305 -0.1235 -1.1165 -1.7894
 7566TIP3    H222663   3.457   2.307   3.245 -1.3141 -0.4130  0.3518
 7567TIP3   OH222664   7.196   0.312   0.807  0.1395  0.4944  0.2817
 7567TIP3    H122665   7.262   0.243   0.805  1.2787  1.5016  1.3078
 7567TIP3    H222666   7.188   0.334   0.900  0.9198  2.7397 -0.1159
 7568TIP3   OH222667   3.314   3.158   3.085  0.2316 -0.5725  0.1982
 7568TIP3    H122668   3.336   3.188   2.997 -2.3367 -1.2459 -0.7742
 7568TIP3    H222669   3.289   3.238   3.132 -0.0865 -0.4069 -0.2472
 7569TIP3   OH222670   0.847   1.379   5.781  0.1353 -0.2019  0.1426
 7569TIP3    H122671   0.872   1.426   5.701 -2.6378  0.3634 -0.5318
 7569TIP3    H222672   0.863   1.442   5.852  0.6442  0.0816 -0.2206
 7570TIP3   OH222673   4.382   5.628   5.408 -0.2392  0.0055 -0.4997
 7570TIP3    H122674   4.477   5.623   5.412 -0.2747 -0.1890  0.2232
 7570TIP3    H222675   4.353   5.537   5.396 -0.4020 -0.2000  1.2128
 7571TIP3   OH222676   4.559   6.456   2.548 -0.1517  0.0620  0.5951
 7571TIP3    H122677   4.517   6.419   2.470  0.9122  0.7932 -0.3523
 7571TIP3    H222678   4.504   6.426   2.621  0.9405 -3.8738 -0.0062
 7572TIP3   OH222679   1.218   6.601   0.382 -0.4729  0.7466  0.6781
 7572TIP3    H122680   1.226   6.547   0.303 -1.9265 -0.7623  1.5027
 7572TIP3    H222681   1.239   6.689   0.353  1.4267 -0.1342 -0.8624
 7573TIP3   OH222682   6.672   0.151   5.762 -0.0257 -0.5812 -0.5848
 7573TIP3    H122683   6.590   0.143   5.811 -0.7021 -0.1321 -1.6112
 7573TIP3    H222684   6.719   0.222   5.807 -0.5509 -0.2992 -0.4720
 7574TIP3   OH222685   0.517   3.619   3.186  0.0575 -0.2602  0.0483
 7574TIP3    H122686   0.490   3.601   3.276  3.0691 -1.5214  0.8493
 7574TIP3    H222687   0.550   3.709   3.189 -1.6503  0.4030 -0.3284
 7575TIP3   OH222688   1.653   5.012   1.913 -0.0397 -0.0267  0.2488
 7575TIP3    H122689   1.740   4.980   1.887  0.2661 -0.5449  1.8048
 7575TIP3    H222690   1.632   5.080   1.848  1.1575 -0.4675 -0.6339
 7576TIP3   OH222691   4.613   1.973   3.518 -0.1781 -0.0742 -0.4262
 7576TIP3    H122692   4.629   2.044   3.579  0.1110  0.1203 -0.7248
 7576TIP3    H222693   4.530   1.995   3.476  0.4980  0.7388 -1.4059
 7577TIP3   OH222694   2.958   0.028   2.049  0.5531 -0.0614  0.1597
 7577TIP3    H122695   2.879   0.043   2.101  0.8869 -1.7850  1.2305
 7577TIP3    H222696   3.030   0.059   2.104  0.7696 -0.1853 -0.0481
 7578TIP3   OH222697   3.636   0.964   0.441  0.0063 -0.2730  0.1962
 7578TIP3    H122698   3.698   0.951   0.514  0.4169  0.9994  0.1130
 7578TIP3    H222699   3.691   0.991   0.368 -0.5055 -0.5717 -0.3013
 7579TIP3   OH222700   0.259   5.317   0.149 -0.7469 -0.1279 -0.3746
 7579TIP3    H122701   0.225   5.249   0.090 -0.7049 -0.7355  0.2858
 7579TIP3    H222702   0.292   5.385   0.091 -2.2775  0.0821 -1.0541
 7580TIP3   OH222703   1.442   0.003   0.109  0.0818  0.5406 -0.4668
 7580TIP3    H122704   1.463   0.039   0.194  1.2893 -1.5343  0.1984
 7580TIP3    H222705   1.527  -0.015   0.068 -0.4477 -0.2974 -1.2638
 7581TIP3   OH222706   5.881   0.234   3.262 -0.2075  0.1942 -0.0811
 7581TIP3    H122707   5.868   0.214   3.354 -1.5413 -0.9966 -0.4913
 7581TIP3    H222708   5.961   0.285   3.259  1.1168 -1.6755  1.4923
 7582TIP3   OH222709   2.231   2.809   5.465 -0.2564 -0.0005 -0.1047
 7582TIP3    H122710   2.289   2.738   5.493  1.4303  1.6929  0.9275
 7582TIP3    H222711   2.157   2.764   5.424  0.6324 -2.3517  0.6677
 7583TIP3   OH222712   4.267   3.484   1.752  0.5289  0.0315  0.8891
 7583TIP3    H122713   4.246   3.572   1.723  1.4901 -0.2636 -0.8092
 7583TIP3    H222714   4.348   3.493   1.802 -0.1227  0.2661  1.9582
 7584TIP3   OH222715   6.358   5.869   2.697  0.0684  0.5922 -0.3194
 7584TIP3    H122716   6.343   5.939   2.634  2.5513  1.3314 -0.2086
 7584TIP3    H222717   6.386   5.794   2.644 -1.7872 -0.1012 -0.3711
 7585TIP3   OH222718   2.987   1.516   3.142  0.1902  0.3745  0.8772
 7585TIP3    H122719   2.894   1.495   3.137  0.0226  0.7523  1.9672
 7585TIP3    H222720   3.016   1.519   3.051 -1.4581  2.7792  0.3055
 7586TIP3   OH222721   5.520   5.982   4.440  0.2522 -0.3579 -0.1851
 7586TIP3    H122722   5.470   6.007   4.517  0.5461  0.9347 -0.3812
 7586TIP3    H222723   5.484   6.036   4.369  1.9327  0.6849 -0.3187
 7587TIP3   OH222724   4.214   2.445   3.084 -0.2355 -0.1699  0.0563
 7587TIP3    H122725   4.286   2.436   3.146  1.7971 -1.7812 -2.3109
 7587TIP3    H222726   4.224   2.533   3.048 -0.0585 -0.0322  0.4354
 7588TIP3   OH222727   5.228   3.864   4.528  0.0863 -0.0549  0.3179
 7588TIP3    H122728   5.209   3.827   4.442 -1.7584 -1.8108  1.3558
 7588TIP3    H222729   5.163   3.934   4.539 -0.5687 -0.6996  0.7292
 7589TIP3   OH222730   1.447   0.080   2.936  0.1874  0.0268 -0.3041
 7589TIP3    H122731   1.458   0.062   2.842  0.1576  1.9109 -0.7120
 7589TIP3    H222732   1.389   0.157   2.939 -1.7499 -1.4019  1.3555
 7590TIP3   OH222733   3.678   0.617   2.252  0.2709 -0.4389  0.3294
 7590TIP3    H122734   3.688   0.664   2.170 -1.2487 -1.8936 -0.7599
 7590TIP3    H222735   3.740   0.544   2.247 -0.3077 -0.9302  0.1367
 7591TIP3   OH222736   6.124   3.068   5.179 -0.0687 -0.2989  0.2320
 7591TIP3    H122737   6.060   3.067   5.250 -1.2194 -2.1840 -0.7440
 7591TIP3    H222738   6.201   3.023   5.215 -0.5177 -0.9444  0.3896
 7592TIP3   OH222739   2.367   5.228   3.298  0.0638 -0.5796  0.1331
 7592TIP3    H122740   2.442   5.173   3.320  1.0058  0.3539 -0.6295
 7592TIP3    H222741   2.307   5.170   3.252  1.5066 -0.7899 -1.6024
 7593TIP3   OH222742   1.192   3.501   5.896  0.0715 -0.5751  0.5484
 7593TIP3    H122743   1.119   3.521   5.954  0.1805  0.0994  0.4618
 7593TIP3    H222744   1.152   3.491   5.810  0.0614 -0.3887  0.5326
 7594TIP3   OH222745   1.699   4.100   4.859  0.1940  0.0998  0.2144
 7594TIP3    H122746   1.705   4.103   4.763  1.2721  1.0007  0.2838
 7594TIP3    H222747   1.718   4.009   4.881 -0.9492 -0.3226 -0.4580
 7595TIP3   OH222748   2.482   1.353   3.969 -0.1637 -0.0055 -0.0079
 7595TIP3    H122749   2.438   1.322   3.890 -0.2197  0.0124  0.0163
 7595TIP3    H222750   2.574   1.334   3.954 -0.2343 -0.4950  0.1468
 7596TIP3   OH222751   4.335   3.121   3.659 -0.1650  0.2864 -0.0836
 7596TIP3    H122752   4.401   3.137   3.592  0.6333 -0.3460  0.5368
 7596TIP3    H222753   4.379   3.140   3.742 -0.5670 -0.7022  0.3730
 7597TIP3   OH222754   6.845   1.320   2.752 -0.1091  0.4525  0.3086
 7597TIP3    H122755   6.833   1.346   2.844  0.1494 -0.5289  0.6311
 7597TIP3    H222756   6.803   1.390   2.702 -0.3048  0.9744  1.1734
 7598TIP3   OH222757   4.567   5.454   0.326 -0.3582 -0.3266 -0.2399
 7598TIP3    H122758   4.527   5.513   0.261 -0.2593 -0.2317 -0.2163
 7598TIP3    H222759   4.587   5.375   0.277  0.5611  0.0816 -0.5589
 7599TIP3   OH222760   5.106   1.602   3.090 -0.4345 -0.7452 -0.2380
 7599TIP3    H122761   5.154   1.521   3.105 -0.4467 -0.4231  1.8208
 7599TIP3    H222762   5.020   1.587   3.129 -0.7941 -0.0742 -0.7402
 7600TIP3   OH222763   1.709   0.623   2.751  0.9883  0.1281 -0.2043
 7600TIP3    H122764   1.764   0.554   2.713 -1.7611 -0.4604 -3.6841
 7600TIP3    H222765   1.765   0.699   2.756  3.1058 -1.3757  0.1132
 7601TIP3   OH222766   0.709   5.724   4.049 -1.1515 -0.3276  0.0788
 7601TIP3    H122767   0.668   5.690   4.128 -0.8188  0.9147  0.8198
 7601TIP3    H222768   0.776   5.658   4.027 -0.8084 -0.3949  1.2140
 7602TIP3   OH222769   6.466   3.884   4.674 -0.4069 -0.1088  0.0879
 7602TIP3    H122770   6.405   3.953   4.700  0.5536  0.9712 -0.4411
 7602TIP3    H222771   6.414   3.826   4.618 -1.3611 -0.1199  0.9481
 7603TIP3   OH222772   6.466   2.580   3.264  0.0685  0.4858  0.3820
 7603TIP3    H122773   6.504   2.620   3.186  0.5086 -1.2536 -0.3411
 7603TIP3    H222774   6.377   2.555   3.237 -0.0227  0.5079  0.6568
 7604TIP3   OH222775   3.903   3.085   5.621 -0.1709 -0.2933  0.3121
 7604TIP3    H122776   3.951   3.036   5.689  1.0832 -0.8198 -0.9050
 7604TIP3    H222777   3.915   3.034   5.541 -0.8666  0.7722 -0.5076
 7605TIP3   OH222778   0.971   3.204   5.116 -0.2839  0.2122  0.0725
 7605TIP3    H122779   1.065   3.191   5.122 -0.1299  0.2336 -1.6664
 7605TIP3    H222780   0.943   3.224   5.205  1.2882 -0.1664  0.6769
 7606TIP3   OH222781   1.861   4.775   2.162 -0.1244  0.0600 -0.4702
 7606TIP3    H122782   1.854   4.797   2.255 -0.2112 -0.2059 -0.4126
 7606TIP3    H222783   1.777   4.803   2.125 -0.0251  0.3159 -0.4988
 7607TIP3   OH222784   4.859   0.717   1.507 -0.5159  0.0516  0.4580
 7607TIP3    H122785   4.769   0.737   1.480  0.1361  0.6631 -1.4234
 7607TIP3    H222786   4.910   0.723   1.426  1.2966  0.1618  1.5564
 7608TIP3   OH222787   6.452   6.539   3.430  0.0874 -0.1645  0.6859
 7608TIP3    H122788   6.502   6.579   3.501  1.1841 -0.0600 -0.1282
 7608TIP3    H222789   6.361   6.543   3.460  0.4978  0.1465  1.9455
 7609TIP3   OH222790   7.173   6.218   1.320  0.5502 -0.0534  0.4902
 7609TIP3    H122791   7.150   6.291   1.377  0.3287  1.0399 -0.9381
 7609TIP3    H222792   7.117   6.146   1.350  0.2258  0.5766  1.4448
 7610TIP3   OH222793   5.727   5.692   5.297 -0.4260  0.2337  0.3610
 7610TIP3    H122794   5.633   5.675   5.283 -0.6999  1.9155 -0.1110
 7610TIP3    H222795   5.767   5.605   5.298 -1.9961 -0.5279  0.6250
 7611TIP3   OH222796   6.928   3.710   1.278  0.1084  0.3594 -0.2393
 7611TIP3    H122797   6.954   3.764   1.204 -0.8507 -0.3114 -1.1106
 7611TIP3    H222798   6.879   3.769   1.335 -0.0286  0.6568 -0.6586
 7612TIP3   OH222799   3.547   5.209   5.259 -0.5100  0.5362 -0.1220
 7612TIP3    H122800   3.616   5.251   5.208  1.9873 -0.8988  1.8189
 7612TIP3    H222801   3.501   5.152   5.196  2.1725 -0.8670 -0.9534
 7613TIP3   OH222802   3.011   0.717   2.595  0.7217  0.3914  0.4168
 7613TIP3    H122803   3.075   0.662   2.551  1.8522  0.9136  1.3748
 7613TIP3    H222804   2.980   0.664   2.669  0.5655  0.4076  0.3637
 7614TIP3   OH222805   7.121   6.468   0.167  0.1471  0.5369 -0.0317
 7614TIP3    H122806   7.101   6.535   0.232  0.0859  0.8393 -0.3575
 7614TIP3    H222807   7.145   6.517   0.088  1.2401  0.1771  0.0591
 7615TIP3   OH222808   4.712   4.535   1.572 -0.4997 -0.3086 -0.5622
 7615TIP3    H122809   4.663   4.616   1.561 -0.3229 -0.0427  0.4568
 7615TIP3    H222810   4.707   4.517   1.666  2.1830  0.2735 -0.2125
 7616TIP3   OH222811   4.978   3.774   0.156  0.3227 -0.1658 -0.1315
 7616TIP3    H122812   4.989   3.691   0.110  2.3187 -0.1079  0.1120
 7616TIP3    H222813   5.017   3.758   0.243  0.3586  0.8889  0.0577
 7617TIP3   OH222814   0.628   2.980   0.288  0.1549 -0.0818 -0.0527
 7617TIP3    H122815   0.657   2.943   0.372  0.8865  1.4797  0.4105
 7617TIP3    H222816   0.700   2.961   0.227 -0.4093 -1.2836 -0.3817
 7618TIP3   OH222817   2.296   1.494   3.233  0.6404  0.0895 -0.1012
 7618TIP3    H122818   2.337   1.432   3.174  0.2095 -0.3464  0.0460
 7618TIP3    H222819   2.328   1.580   3.206 -1.4780  0.1977 -2.6427
 7619TIP3   OH222820   3.883   2.011   2.777 -0.6341 -0.1841 -0.2778
 7619TIP3    H122821   3.905   2.086   2.723  0.4085  0.2284  0.6896
 7619TIP3    H222822   3.889   2.043   2.867 -0.2957 -1.3913  0.1523
 7620TIP3   OH222823   3.289   4.925   0.713  0.0442 -0.5987  0.0586
 7620TIP3    H122824   3.284   4.911   0.808 -0.2233 -0.1310  0.1160
 7620TIP3    H222825   3.380   4.904   0.690 -0.3754 -2.7607  0.0811
 7621TIP3   OH222826   1.609   4.672   2.804 -0.0698 -0.0054  0.0238
 7621TIP3    H122827   1.621   4.766   2.801  0.6246 -0.1180 -1.7954
 7621TIP3    H222828   1.652   4.639   2.725 -3.6438 -1.4889 -1.4998
 7622TIP3   OH222829   1.265   0.421   2.040 -0.3794 -0.6913  0.3346
 7622TIP3    H122830   1.257   0.330   2.013  0.9843 -0.9918  0.9021
 7622TIP3    H222831   1.277   0.417   2.135 -0.2861  0.0820  0.3616
 7623TIP3   OH222832   2.356   2.555   5.455 -0.6998 -0.6540 -0.1815
 7623TIP3    H122833   2.435   2.507   5.480  1.0165  1.8406 -0.4996
 7623TIP3    H222834   2.366   2.569   5.360 -0.2257  1.7992  0.1788
 7624TIP3   OH222835   6.149   6.511   1.806  0.1866 -0.4779  0.0135
 7624TIP3    H122836   6.208   6.526   1.880  0.4462  1.7012 -0.5593
 7624TIP3    H222837   6.201   6.536   1.729  0.0892 -3.1338 -1.0181
 7625TIP3   OH222838   5.520   5.783   4.189  0.1768  0.0382 -0.5187
 7625TIP3    H122839   5.528   5.856   4.251 -0.0951  0.9490 -1.5377
 7625TIP3    H222840   5.540   5.705   4.242  0.5247  0.8407  0.5741
 7626TIP3   OH222841   3.259   0.672   2.496 -0.2919 -0.2512 -0.2273
 7626TIP3    H122842   3.299   0.665   2.410  0.2549  0.1957 -0.0131
 7626TIP3    H222843   3.293   0.596   2.544  4.2075  2.4859  1.5070
 7627TIP3   OH222844   5.304   6.018   5.831  0.0665 -0.0522  0.1749
 7627TIP3    H122845   5.303   6.006   5.736  1.2908  1.5855 -0.0856
 7627TIP3    H222846   5.392   5.990   5.858  0.6695  1.9502  0.4245
 7628TIP3   OH222847   5.149   2.683   0.966 -0.2076  0.3115  0.3415
 7628TIP3    H122848   5.060   2.659   0.991 -0.1796  0.3266  0.4539
 7628TIP3    H222849   5.154   2.661   0.873  0.2234 -1.3316  0.7324
 7629TIP3   OH222850   0.596   1.505   3.170 -0.1234 -0.3793  0.1008
 7629TIP3    H122851   0.659   1.439   3.143  0.5332  0.3323 -0.1381
 7629TIP3    H222852   0.578   1.486   3.262  0.7255 -0.3504  0.2741
 7630TIP3   OH222853   6.909   4.540   5.485  0.1241 -0.1558 -0.3430
 7630TIP3    H122854   6.861   4.473   5.436 -1.8708  1.0783 -0.1948
 7630TIP3    H222855   6.890   4.622   5.438 -0.9655  0.9032  1.7939
 7631TIP3   OH222856   4.880   2.357   1.425  0.3968  0.4812  0.0970
 7631TIP3    H122857   4.818   2.427   1.446 -0.6831 -0.4394  0.0804
 7631TIP3    H222858   4.838   2.278   1.458  1.6514 -0.1524  0.2246
 7632TIP3   OH222859   0.254   0.980   1.677 -0.4742 -0.1086  0.4814
 7632TIP3    H122860   0.212   0.922   1.740  2.7375 -1.5687  1.4938
 7632TIP3    H222861   0.261   1.064   1.722 -1.7830  0.0188  0.4699
 7633TIP3   OH222862   2.975   2.904   4.421  0.0675  0.4055 -0.2387
 7633TIP3    H122863   2.930   2.853   4.354  1.0803  1.0653 -1.4596
 7633TIP3    H222864   2.945   2.994   4.408  1.1362  0.7355 -0.6086
 7634TIP3   OH222865   2.317   2.545   2.774  0.3447  0.1251  0.2162
 7634TIP3    H122866   2.386   2.611   2.777  1.4046 -0.7186 -2.5491
 7634TIP3    H222867   2.255   2.578   2.708  0.1325 -0.9225 -0.1287
 7635TIP3   OH222868   6.465   2.146   1.906 -0.5704  0.4678 -0.0503
 7635TIP3    H122869   6.556   2.174   1.913 -0.6552  0.5643  0.6943
 7635TIP3    H222870   6.414   2.219   1.942 -0.8787 -0.0111  0.5032
 7636TIP3   OH222871   2.230   4.237   0.931 -0.2080  0.1234 -0.4278
 7636TIP3    H122872   2.292   4.251   0.859 -0.4652 -0.0286 -0.6818
 7636TIP3    H222873   2.283   4.198   1.001  1.0079  3.9613  1.0569
 7637TIP3   OH222874   2.624   0.601   2.935  0.1737  0.4081 -0.5983
 7637TIP3    H122875   2.678   0.522   2.941 -1.3782 -0.5740  1.6593
 7637TIP3    H222876   2.684   0.673   2.957  1.2305 -0.2877 -1.1084
 7638TIP3   OH222877   4.859   2.654   3.687  0.0165 -0.4705  0.1514
 7638TIP3    H122878   4.896   2.726   3.636 -1.3497 -0.3980 -0.7856
 7638TIP3    H222879   4.926   2.635   3.753 -0.1847  2.7419  1.5090
 7639TIP3   OH222880   2.216   3.179   2.959 -1.4637  0.0664 -0.3135
 7639TIP3    H122881   2.163   3.117   2.909 -3.4328 -1.4238  3.1995
 7639TIP3    H222882   2.278   3.123   3.007 -0.0631  1.3513 -0.5481
 7640TIP3   OH222883   6.433   5.080   2.986 -0.0502  0.2419  0.4120
 7640TIP3    H122884   6.351   5.104   2.945  0.0108  0.0958  0.2055
 7640TIP3    H222885   6.412   5.003   3.039  0.0487 -0.0608  0.0143
 7641TIP3   OH222886   5.171   5.013   0.136 -0.3345  0.2778  0.0328
 7641TIP3    H122887   5.249   4.960   0.150 -1.6061 -1.3095  1.3618
 7641TIP3    H222888   5.098   4.954   0.150 -1.8562  1.3486 -2.5407
 7642TIP3   OH222889   3.867   0.027   5.546  0.2633 -0.1936  0.1969
 7642TIP3    H122890   3.943  -0.028   5.529  0.4527 -0.4847  1.8075
 7642TIP3    H222891   3.840   0.004   5.635 -1.8789 -0.2984 -0.4179
 7643TIP3   OH222892   0.255   2.809   3.916  0.4400 -0.3625  0.0723
 7643TIP3    H122893   0.206   2.868   3.973  0.5152 -0.6977  0.4873
 7643TIP3    H222894   0.241   2.722   3.953 -0.7188 -0.7745 -1.2711
 7644TIP3   OH222895   0.681   2.951   3.942 -0.0567 -0.0391 -0.1218
 7644TIP3    H122896   0.596   2.963   3.984  0.1605  1.7804 -0.1340
 7644TIP3    H222897   0.742   2.939   4.015  0.4136  3.7138  0.2663
 7645TIP3   OH222898   4.992   4.077   3.827  0.3306 -0.0988  0.4430
 7645TIP3    H122899   4.901   4.061   3.801  0.9522 -0.3078 -1.7772
 7645TIP3    H222900   5.023   3.991   3.857  0.8197 -0.9987 -2.3241
 7646TIP3   OH222901   2.658   4.356   4.583  0.0558  0.5327  0.1656
 7646TIP3    H122902   2.752   4.373   4.584 -0.1987  2.0879 -0.1361
 7646TIP3    H222903   2.627   4.397   4.503 -0.8349 -0.3348  0.0416
 7647TIP3   OH222904   6.880   0.829   4.306 -0.2165 -0.3144 -0.5440
 7647TIP3    H122905   6.925   0.755   4.347  0.3601 -0.8503 -2.1040
 7647TIP3    H222906   6.946   0.898   4.302 -0.0207 -0.5454 -1.3306
 7648TIP3   OH222907   3.002   1.427   3.818  0.5016  0.1526  0.0803
 7648TIP3    H122908   3.042   1.455   3.900  0.9014  1.4730 -0.5423
 7648TIP3    H222909   2.987   1.508   3.770 -3.5248 -0.1134  0.5198
 7649TIP3   OH222910   2.614   6.220   5.147  0.0561 -0.0244 -0.5848
 7649TIP3    H122911   2.636   6.236   5.055  0.3339  1.4684 -0.2974
 7649TIP3    H222912   2.587   6.129   5.150  2.8101 -0.9840 -1.6114
 7650TIP3   OH222913   3.321   4.083   5.443  0.0066  0.4002 -0.0997
 7650TIP3    H122914   3.375   4.032   5.504 -0.8572 -0.6844 -0.1903
 7650TIP3    H222915   3.308   4.167   5.487  0.6751  0.1939  0.5121
 7651TIP3   OH222916   5.684   6.497   4.497  0.0866  0.6378  0.3577
 7651TIP3    H122917   5.710   6.488   4.589  1.2324 -0.3182 -0.0264
 7651TIP3    H222918   5.597   6.456   4.492  0.3958 -0.0902  0.8564
 7652TIP3   OH222919   6.182   5.014   5.436 -0.0881  0.0213 -0.1810
 7652TIP3    H122920   6.274   4.991   5.452 -0.0249 -0.3253 -1.0157
 7652TIP3    H222921   6.171   5.005   5.342 -1.5097 -1.9318  0.1123
 7653TIP3   OH222922   2.061   4.175   1.415  0.0546 -0.0126  0.2803
 7653TIP3    H122923   1.990   4.206   1.472  1.0251  1.0363  0.9657
 7653TIP3    H222924   2.118   4.125   1.472 -0.9794 -2.3549 -0.6243
 7654TIP3   OH222925   6.061   3.854   2.327 -0.4852 -0.0293 -0.3467
 7654TIP3    H122926   6.078   3.945   2.351 -0.4558 -0.0966 -0.1076
 7654TIP3    H222927   5.969   3.840   2.348 -0.1588 -0.4426  0.8956
 7655TIP3   OH222928   2.175   0.608   4.350  0.2526  0.3033 -0.1217
 7655TIP3    H122929   2.220   0.659   4.417  0.0845  1.1327 -0.6226
 7655TIP3    H222930   2.082   0.614   4.373  0.3478 -1.3260  0.8563
 7656TIP3   OH222931   1.854   3.038   2.896  0.3749 -0.3863 -0.4037
 7656TIP3    H122932   1.880   3.106   2.958  0.9051 -1.0761  0.1432
 7656TIP3    H222933   1.935   3.011   2.853  0.0803 -0.2498 -1.0710
 7657TIP3   OH222934   5.384   1.467   2.255  0.5628  0.0923 -0.5767
 7657TIP3    H122935   5.369   1.402   2.323  0.6453  1.1345  0.4677
 7657TIP3    H222936   5.452   1.429   2.199 -0.3083 -1.2607 -0.7509
 7658TIP3   OH222937   3.417   0.913   0.992  0.8752  0.0792 -0.3460
 7658TIP3    H122938   3.415   0.955   1.078 -1.2979 -0.0959 -0.2477
 7658TIP3    H222939   3.437   0.822   1.010  1.1935  0.1917 -0.1114
 7659TIP3   OH222940   5.602   1.830   0.140 -0.4986  0.1205  0.5298
 7659TIP3    H122941   5.634   1.915   0.112  3.0265 -1.4773 -0.9387
 7659TIP3    H222942   5.598   1.836   0.235  0.7182  1.6392  0.5340
 7660TIP3   OH222943   6.864   5.117   0.961  0.2804 -0.2409 -0.3456
 7660TIP3    H122944   6.912   5.175   0.902 -1.4860  0.7402 -0.8848
 7660TIP3    H222945   6.773   5.128   0.937 -0.3278 -1.3410  1.2697
 7661TIP3   OH222946   4.795   6.153   1.851  0.6277 -0.2492  0.7296
 7661TIP3    H122947   4.757   6.111   1.928 -0.0200 -1.6754 -0.3183
 7661TIP3    H222948   4.755   6.108   1.777 -0.5210  2.5544 -0.5244
 7662TIP3   OH222949   1.127   6.008   2.191 -0.7120 -0.3520 -0.7916
 7662TIP3    H122950   1.134   5.915   2.212  0.1081  0.0645  0.8854
 7662TIP3    H222951   1.058   6.041   2.249  1.6530  0.8331  1.5425
 7663TIP3   OH222952   1.322   2.492   1.660 -0.1979  0.2971  0.3559
 7663TIP3    H122953   1.269   2.474   1.582  0.2785  1.2698 -0.2043
 7663TIP3    H222954   1.278   2.566   1.702  0.9861  1.4736 -0.4067
 7664TIP3   OH222955   5.400   4.364   2.610 -0.2812  0.0553 -0.0137
 7664TIP3    H122956   5.392   4.299   2.680  0.9314  0.5166  0.5785
 7664TIP3    H222957   5.364   4.320   2.533 -0.8293 -0.7810  0.6986
 7665TIP3   OH222958   5.148   0.719   1.031 -0.2621  0.0993 -0.6498
 7665TIP3    H122959   5.164   0.677   0.947 -1.4016  0.5831 -1.1280
 7665TIP3    H222960   5.067   0.769   1.018 -0.7356 -0.2153  0.8691
 7666TIP3   OH222961   4.336   4.917   4.802 -0.1124  0.0211  0.4971
 7666TIP3    H122962   4.375   4.832   4.819  1.7388  0.8814  0.7695
 7666TIP3    H222963   4.361   4.970   4.878  0.1684  1.2586 -0.4247
 7667TIP3   OH222964   0.685   2.896   2.084  0.1715  0.1866 -0.2758
 7667TIP3    H122965   0.740   2.920   2.160  1.2101 -0.3029 -0.8496
 7667TIP3    H222966   0.662   2.981   2.045 -0.8528  0.4805  0.8793
 7668TIP3   OH222967   0.833   0.005   5.581 -0.2692  0.2536  0.1400
 7668TIP3    H122968   0.795   0.074   5.527  1.0288  1.4861  0.7497
 7668TIP3    H222969   0.760  -0.025   5.636 -1.6359 -1.0858 -2.2589
 7669TIP3   OH222970   5.504   3.886   1.919  0.1369 -0.2227  0.4371
 7669TIP3    H122971   5.499   3.957   1.982 -0.9442 -0.9942  1.2577
 7669TIP3    H222972   5.531   3.810   1.970 -1.0924 -0.9408  0.0557
 7670TIP3   OH222973   5.904   3.923   5.759  0.1187 -0.1824 -0.3041
 7670TIP3    H122974   5.932   3.835   5.735 -2.4464 -0.7524 -1.6229
 7670TIP3    H222975   5.881   3.918   5.852  2.6492 -0.0913  0.3766
 7671TIP3   OH222976   2.348   6.040   4.244  0.1290 -0.0591  0.0497
 7671TIP3    H122977   2.425   6.071   4.196  2.0978 -2.9126  1.1494
 7671TIP3    H222978   2.362   6.070   4.334  0.1375 -0.8326  0.3145
 7672TIP3   OH222979   0.320   5.153   1.630 -0.0056  0.7674 -0.4533
 7672TIP3    H122980   0.313   5.112   1.716  1.6332  0.4207 -0.4551
 7672TIP3    H222981   0.412   5.180   1.623 -0.2548  1.3610 -1.8343
 7673TIP3   OH222982   4.717   6.338   0.380  0.1360 -0.5664 -0.0730
 7673TIP3    H122983   4.765   6.410   0.420  0.0707 -0.1718 -0.6975
 7673TIP3    H222984   4.742   6.261   0.432  0.2960 -0.1221  0.5228
 7674TIP3   OH222985   2.348   1.557   2.064 -0.1850  0.6502  0.2806
 7674TIP3    H122986   2.367   1.513   2.147 -0.7429 -2.5347 -1.1170
 7674TIP3    H222987   2.257   1.587   2.073  0.2454  1.7009  1.3227
 7675TIP3   OH222988   6.780   0.136   1.766 -0.3085  0.1879  0.2998
 7675TIP3    H122989   6.769   0.135   1.671  1.6027  3.3481 -0.1246
 7675TIP3    H222990   6.700   0.177   1.799 -0.0589  1.1513 -0.2357
 7676TIP3   OH222991  -0.002   5.030   5.125 -0.3672  0.5221  0.0615
 7676TIP3    H122992  -0.028   5.066   5.209 -1.7632  0.4696 -0.3262
 7676TIP3    H222993   0.078   4.981   5.144 -0.5578  0.6574  1.3112
 7677TIP3   OH222994   6.530   6.047   1.903  0.5739  0.4818  0.0856
 7677TIP3    H122995   6.547   5.962   1.944  1.4540  1.2034  1.3039
 7677TIP3    H222996   6.450   6.079   1.946 -0.3260 -0.1303 -1.0768
 7678TIP3   OH222997   3.377   3.743   2.766  0.3199  0.4149  0.1055
 7678TIP3    H122998   3.375   3.676   2.834 -2.5881  1.4523  1.1714
 7678TIP3    H222999   3.382   3.826   2.815  3.0789  1.1271 -1.1604
 7679TIP3   OH223000   5.588   5.978   5.866 -0.0470 -0.2609 -0.0821
 7679TIP3    H123001   5.633   5.919   5.926  0.1021 -0.8475 -0.7532
 7679TIP3    H223002   5.586   5.931   5.783 -0.8816  0.2364 -0.3600
 7680TIP3   OH223003   6.192   1.820   2.720  0.2262  0.0006 -0.2999
 7680TIP3    H123004   6.179   1.813   2.625 -0.0859 -0.2477 -0.2409
 7680TIP3    H223005   6.240   1.902   2.732  1.8807 -0.8551 -0.8128
 7681TIP3   OH223006   6.712   5.176   0.470  0.2916 -0.0665 -0.2246
 7681TIP3    H123007   6.803   5.194   0.494  0.3994 -1.0649  0.1243
 7681TIP3    H223008   6.687   5.100   0.522 -0.5787 -0.1244 -0.7057
 7682TIP3   OH223009   1.934   0.287   2.813  0.4881  0.2144  0.2868
 7682TIP3    H123010   1.900   0.344   2.744 -0.3804  1.2709  1.5449
 7682TIP3    H223011   1.857   0.247   2.852  0.9053  0.1907  1.1148
 7683TIP3   OH223012   3.100   5.401   4.114 -0.0318  0.0288 -0.1636
 7683TIP3    H123013   3.119   5.373   4.024 -0.2131  1.2304 -0.6014
 7683TIP3    H223014   3.040   5.334   4.148 -1.6863  0.6462 -1.7009
 7684TIP3   OH223015   0.881   0.307   0.930 -0.1168 -0.0232  0.3402
 7684TIP3    H123016   0.976   0.318   0.917 -0.3493  1.1869 -0.6269
 7684TIP3    H223017   0.864   0.346   1.016  0.5438 -2.2577  1.5522
 7685TIP3   OH223018   1.313   0.404   3.653  0.2850 -0.1946 -0.4375
 7685TIP3    H123019   1.384   0.428   3.713  0.7953 -1.6767 -0.3923
 7685TIP3    H223020   1.233   0.427   3.700  0.7090 -0.0440  0.2261
 7686TIP3   OH223021   0.696   5.862   0.827  0.0608 -0.7530  0.3070
 7686TIP3    H123022   0.617   5.865   0.772  0.5452  0.6565 -0.3559
 7686TIP3    H223023   0.673   5.914   0.904  1.0013  1.5568 -0.8728
 7687TIP3   OH223024   6.008   1.462   3.302 -0.6865 -0.0227 -0.7900
 7687TIP3    H123025   6.059   1.382   3.314  1.1693  1.1373 -0.3664
 7687TIP3    H223026   5.990   1.493   3.391 -0.6303  0.4442 -0.9346
 7688TIP3   OH223027   4.558   0.620   0.112 -0.0101 -0.2092  0.2106
 7688TIP3    H123028   4.646   0.612   0.075 -0.0027  0.2671  0.1255
 7688TIP3    H223029   4.545   0.538   0.160  1.1609  0.4308  1.6950
 7689TIP3   OH223030   0.692   2.084   5.015 -0.7822  0.0546  0.1469
 7689TIP3    H123031   0.758   2.142   5.053 -0.4362 -0.8865  0.9940
 7689TIP3    H223032   0.696   2.102   4.921  0.7177 -0.0465  0.1789
 7690TIP3   OH223033   1.890   1.462   4.771 -0.0912 -0.1773 -0.3704
 7690TIP3    H123034   1.918   1.420   4.852 -0.8621 -0.1282 -0.0657
 7690TIP3    H223035   1.944   1.422   4.703  0.6290 -0.1521  0.1728
 7691TIP3   OH223036   3.372   0.400   3.468 -0.3845  0.4892  0.7822
 7691TIP3    H123037   3.332   0.320   3.501 -0.6759  0.3819  0.1904
 7691TIP3    H223038   3.428   0.370   3.396  1.2485  0.5629  1.9696
 7692TIP3   OH223039   5.476   2.209   3.587  0.0076  0.1267  0.4549
 7692TIP3    H123040   5.487   2.154   3.510 -0.5699  0.9414 -0.2377
 7692TIP3    H223041   5.511   2.294   3.561  2.0972 -0.2168  1.9363
 7693TIP3   OH223042   1.076   5.438   5.037  0.3093 -0.0841 -0.5144
 7693TIP3    H123043   1.170   5.438   5.016  0.0004 -1.2595 -2.0458
 7693TIP3    H223044   1.074   5.431   5.132  1.8268 -2.1339 -0.5398
 7694TIP3   OH223045   0.039   1.092   4.846  0.2557  0.2558 -0.1789
 7694TIP3    H123046  -0.034   1.065   4.790  0.8212 -0.0601 -0.7810
 7694TIP3    H223047   0.109   1.030   4.825  0.8358  0.8158  0.0834
 7695TIP3   OH223048   2.232   3.464   5.740 -0.7371  0.2679  0.6761
 7695TIP3    H123049   2.207   3.461   5.647  0.7738 -1.1723  0.2657
 7695TIP3    H223050   2.179   3.535   5.776 -0.3206  1.8694 -1.6066
 7696TIP3   OH223051   4.169   4.331   0.923  0.3435 -0.1060  0.0120
 7696TIP3    H123052   4.180   4.418   0.883  1.4976 -1.3661 -2.6607
 7696TIP3    H223053   4.256   4.292   0.918 -0.1002 -1.3452  1.4357
 7697TIP3   OH223054   5.285   4.802   2.521 -0.0541 -0.3779 -0.2483
 7697TIP3    H123055   5.377   4.797   2.547  0.4482  0.1323 -1.7769
 7697TIP3    H223056   5.260   4.711   2.504  0.1770 -0.5176  0.1512
 7698TIP3   OH223057   2.707   3.333   4.676 -0.3923  0.2146 -0.0566
 7698TIP3    H123058   2.620   3.318   4.639 -0.7067 -2.2687  1.4278
 7698TIP3    H223059   2.726   3.425   4.657 -2.6208  0.3968 -1.8391
 7699TIP3   OH223060   0.053   0.281   2.450 -0.1595 -0.1164  0.4507
 7699TIP3    H123061  -0.023   0.250   2.499 -0.3865  0.1001  0.2396
 7699TIP3    H223062   0.066   0.371   2.480  0.1804 -0.2448  0.6853
 7700TIP3   OH223063   3.213   4.574   4.410  0.7191  0.2917  0.1489
 7700TIP3    H123064   3.274   4.646   4.421  1.1292  0.1096 -0.8054
 7700TIP3    H223065   3.129   4.607   4.442  1.2213  0.6860  1.0727
 7701TIP3   OH223066   7.032   1.324   3.884 -0.0990 -0.8595 -0.1533
 7701TIP3    H123067   6.995   1.278   3.959 -1.3337 -0.1793 -0.3113
 7701TIP3    H223068   7.119   1.286   3.873  0.6867 -0.0803  2.4448
 7702TIP3   OH223069   0.441   2.970   4.100 -0.2331  0.1843  0.1017
 7702TIP3    H123070   0.385   3.043   4.073 -1.7177 -0.7108  0.6108
 7702TIP3    H223071   0.401   2.893   4.059 -0.9747 -0.8406  2.5501
 7703TIP3   OH223072   0.313   2.003   2.551 -0.0604 -0.2166  0.1430
 7703TIP3    H123073   0.298   2.097   2.541  0.2595 -0.0701  1.0135
 7703TIP3    H223074   0.342   1.974   2.465 -0.9714  0.3247 -0.3634
 7704TIP3   OH223075   6.160   3.726   0.125 -0.1033  0.2201  0.3268
 7704TIP3    H123076   6.118   3.653   0.170  0.7237  0.4359  1.5166
 7704TIP3    H223077   6.131   3.804   0.172 -1.0413  0.6910 -0.9784
 7705TIP3   OH223078   1.990   4.002   0.651 -0.1985  0.4265 -0.5655
 7705TIP3    H123079   2.084   3.987   0.638 -0.1139 -1.2550  1.4618
 7705TIP3    H223080   1.983   4.024   0.744 -2.0203 -1.7565 -0.1176
 7706TIP3   OH223081   4.831   4.128   3.323  0.3332 -0.2702 -0.3622
 7706TIP3    H123082   4.802   4.172   3.243  1.1803  1.8118  0.3849
 7706TIP3    H223083   4.751   4.109   3.371 -0.1355 -0.8523 -1.3460
 7707TIP3   OH223084   2.395   5.056   0.673  0.6036  0.2657 -0.0999
 7707TIP3    H123085   2.378   4.981   0.616  1.0369 -0.7849  1.1150
 7707TIP3    H223086   2.451   5.113   0.621 -1.1680  0.6578 -1.7248
 7708TIP3   OH223087   2.825   5.586   2.670 -0.1758 -0.0063  0.0223
 7708TIP3    H123088   2.799   5.562   2.582 -0.4608 -0.6073  0.2631
 7708TIP3    H223089   2.820   5.504   2.720 -0.8822  0.4891  0.8024
 7709TIP3   OH223090   0.719   1.176   3.938  1.0184  0.3482 -0.7028
 7709TIP3    H123091   0.700   1.120   4.013  1.3192  1.0546 -0.0940
 7709TIP3    H223092   0.733   1.263   3.975  1.8052  0.5785 -1.5070
 7710TIP3   OH223093   4.161   2.639   2.138  0.4008 -0.3205 -0.0231
 7710TIP3    H123094   4.141   2.729   2.113 -0.1155 -0.2216  0.7185
 7710TIP3    H223095   4.206   2.602   2.062  0.0899  0.3810 -0.5533
 7711TIP3   OH223096   5.841   0.136   4.859  0.2784  0.4998  0.0388
 7711TIP3    H123097   5.782   0.185   4.917 -1.0536  0.0946 -0.9332
 7711TIP3    H223098   5.928   0.157   4.892 -0.2584  3.0568  0.0393
 7712TIP3   OH223099   1.924   3.674   4.199  0.7079  0.0175 -0.2669
 7712TIP3    H123100   1.963   3.590   4.224  1.3494  0.1728 -0.7295
 7712TIP3    H223101   1.974   3.739   4.249  0.4848  0.1564 -0.2250
 7713TIP3   OH223102   2.741   4.737   0.961  0.1508 -0.1576 -0.0498
 7713TIP3    H123103   2.782   4.823   0.966  2.1105 -1.0294 -0.3489
 7713TIP3    H223104   2.647   4.756   0.963  0.4992  2.0355 -1.0534
 7714TIP3   OH223105   3.052   4.565   0.380 -0.2815 -0.2072 -0.1134
 7714TIP3    H123106   3.103   4.622   0.438 -2.3629 -0.0631  1.7114
 7714TIP3    H223107   3.011   4.625   0.318 -1.2538  0.1877  0.8599
 7715TIP3   OH223108   6.724   3.895   2.504 -0.3083  0.4347  0.2600
 7715TIP3    H123109   6.720   3.969   2.564  0.9862  0.7499 -0.0063
 7715TIP3    H223110   6.712   3.935   2.417 -0.9155  0.1449  0.2030
 7716TIP3   OH223111   0.786   3.917   2.092  0.4501 -0.0665  0.7579
 7716TIP3    H123112   0.839   3.975   2.146  1.4507 -0.3788  0.1384
 7716TIP3    H223113   0.829   3.832   2.098  1.6408  0.2505 -1.8540
 7717TIP3   OH223114   5.676   0.336   5.401  0.4382  0.3988  0.0288
 7717TIP3    H123115   5.618   0.405   5.433 -1.8904 -1.0012 -0.8867
 7717TIP3    H223116   5.759   0.351   5.447 -0.6339  2.4681  1.4681
 7718TIP3   OH223117   4.063   6.312   0.490  0.0817  0.4619 -0.2446
 7718TIP3    H123118   4.104   6.237   0.533  1.5927  1.0507 -0.5811
 7718TIP3    H223119   4.042   6.372   0.562 -0.2780  0.1113 -0.0571
 7719TIP3   OH223120   3.547   6.023   0.392 -0.5405  0.6621  0.0778
 7719TIP3    H123121   3.477   5.990   0.337  0.6850 -1.9421 -0.0407
 7719TIP3    H223122   3.537   5.977   0.475  0.4056  1.0522  0.4297
 7720TIP3   OH223123   2.195   3.723   4.016 -1.5858 -0.3964 -0.0833
 7720TIP3    H123124   2.181   3.629   4.005 -1.8784 -0.6716  2.0814
 7720TIP3    H223125   2.106   3.760   4.019 -1.4851 -0.1310 -0.4350
 7721TIP3   OH223126   1.556   5.701   2.430  0.3251 -0.0378  0.0077
 7721TIP3    H123127   1.472   5.714   2.386 -0.2049  0.9139  1.2190
 7721TIP3    H223128   1.533   5.684   2.521  1.4374 -0.4014  0.2393
 7722TIP3   OH223129   1.459   5.626   0.518  0.4073 -0.0466  0.1352
 7722TIP3    H123130   1.368   5.597   0.530  0.6706 -0.3518  1.6984
 7722TIP3    H223131   1.485   5.591   0.433  0.3452 -3.5635  1.4066
 7723TIP3   OH223132   0.362   3.823   1.075  0.0057  0.3074 -0.4392
 7723TIP3    H123133   0.453   3.824   1.047 -0.0476  2.0046 -0.6305
 7723TIP3    H223134   0.316   3.779   1.003  0.6582 -0.7013 -0.2706
 7724TIP3   OH223135   6.413   4.482   1.428 -0.6792  0.1703 -0.2201
 7724TIP3    H123136   6.340   4.443   1.476 -1.4233  2.6276  0.7791
 7724TIP3    H223137   6.479   4.501   1.496  0.3618 -0.7806 -0.9232
 7725TIP3   OH223138   0.622   3.409   2.445  0.7383 -0.0799 -0.1545
 7725TIP3    H123139   0.629   3.471   2.518 -1.8286  0.1945 -0.0565
 7725TIP3    H223140   0.640   3.462   2.368  1.3956  0.1014  0.1101
 7726TIP3   OH223141   6.102   0.391   3.245 -0.4597 -0.1390  0.1548
 7726TIP3    H123142   6.110   0.432   3.159 -2.3175 -0.6853 -0.3254
 7726TIP3    H223143   6.166   0.320   3.245 -1.9747 -1.6254 -1.7396
 7727TIP3   OH223144   7.073   2.841   3.327  0.0216  0.0706 -0.0559
 7727TIP3    H123145   7.103   2.777   3.392  0.4693  0.2638 -0.0693
 7727TIP3    H223146   7.151   2.893   3.307 -0.4875  1.0707  0.4711
 7728TIP3   OH223147   1.205   4.143   2.352  0.3040 -0.3727 -0.1270
 7728TIP3    H123148   1.238   4.054   2.344  0.9155 -0.1079 -0.6122
 7728TIP3    H223149   1.255   4.181   2.424 -0.7448 -0.7603  0.8391
 7729TIP3   OH223150   1.582   4.877   2.433  0.0921  0.6479 -0.4726
 7729TIP3    H123151   1.674   4.861   2.452  0.4566 -0.1252 -2.5742
 7729TIP3    H223152   1.581   4.907   2.342 -1.7037  1.0297 -0.3685
 7730TIP3   OH223153   2.941   0.472   0.620  0.6734  0.4178  0.1523
 7730TIP3    H123154   3.008   0.522   0.667 -0.2381  0.4550  1.4495
 7730TIP3    H223155   2.957   0.381   0.644  0.4239  0.3984  0.2416
 7731TIP3   OH223156   3.672   6.334   2.429  0.1937  0.0182 -0.8497
 7731TIP3    H123157   3.588   6.309   2.390 -0.3982  0.5022  0.0666
 7731TIP3    H223158   3.662   6.311   2.522  1.8361 -1.8303 -1.0611
 7732TIP3   OH223159   2.375   0.438   4.271  0.5991 -0.0513  0.3976
 7732TIP3    H123160   2.320   0.506   4.309  3.3620  1.5104  2.0104
 7732TIP3    H223161   2.373   0.454   4.177 -0.5885  0.8001  0.5510
 7733TIP3   OH223162   4.886   4.044   1.895 -0.4951  0.7744 -0.0520
 7733TIP3    H123163   4.972   4.077   1.920  0.8459 -1.2505 -1.6518
 7733TIP3    H223164   4.880   4.063   1.801 -0.4034 -1.8068 -0.6433
 7734TIP3   OH223165   3.321   6.498   1.441 -0.4646 -0.2098  0.1337
 7734TIP3    H123166   3.362   6.429   1.388  2.5789  1.6221 -0.1615
 7734TIP3    H223167   3.234   6.509   1.403  0.1334 -1.6995 -1.8479
 7735TIP3   OH223168   3.372   6.108   3.723 -0.0127  0.1500  0.3877
 7735TIP3    H123169   3.389   6.161   3.645 -0.5888  0.7908  0.6737
 7735TIP3    H223170   3.296   6.055   3.700  0.8213 -0.8704 -0.0410
 7736TIP3   OH223171   1.163   5.753   0.917  0.2644  0.2673 -0.0628
 7736TIP3    H123172   1.255   5.777   0.906  0.2638 -0.2022 -1.2052
 7736TIP3    H223173   1.135   5.724   0.831 -0.5198 -1.1002  0.6205
 7737TIP3   OH223174   2.342   5.773   2.876 -0.2510  0.4611  0.2661
 7737TIP3    H123175   2.368   5.708   2.941  1.1568  0.0997 -0.6203
 7737TIP3    H223176   2.376   5.856   2.910 -0.5225  0.4625  0.5405
 7738TIP3   OH223177   3.953   6.334   2.611 -0.7637  0.0402  0.1947
 7738TIP3    H123178   3.916   6.413   2.572  0.4511  0.0146 -1.1018
 7738TIP3    H223179   3.969   6.276   2.536  1.8715  0.0587  0.6347
 7739TIP3   OH223180   2.138   4.521   0.642 -1.1531  0.8197  0.4050
 7739TIP3    H123181   2.049   4.542   0.616 -0.3525  3.9617 -0.2058
 7739TIP3    H223182   2.184   4.504   0.560 -1.1749 -0.9511  0.7265
 7740TIP3   OH223183   4.302   5.043   4.184  0.8073  0.1204 -0.3962
 7740TIP3    H123184   4.359   5.117   4.163  2.3785 -0.9310 -0.0313
 7740TIP3    H223185   4.261   5.067   4.267  1.9368  0.2499  0.1406
 7741TIP3   OH223186   3.557   1.255   5.044  0.0798 -0.3604  0.1734
 7741TIP3    H123187   3.524   1.283   4.958  0.9091 -0.4650 -0.1889
 7741TIP3    H223188   3.559   1.336   5.095 -0.1281 -0.2409 -0.0039
 7742TIP3   OH223189   6.312   4.580   3.460 -0.3249  0.4992  0.1479
 7742TIP3    H123190   6.228   4.622   3.445 -1.5593 -2.0115 -0.5227
 7742TIP3    H223191   6.290   4.496   3.502  1.8417 -0.1372  0.1324
 7743TIP3   OH223192   1.586   2.262   5.220  0.0663  0.4044  0.4781
 7743TIP3    H123193   1.595   2.172   5.250 -0.7150  0.5042  1.0597
 7743TIP3    H223194   1.507   2.261   5.165 -0.3753  0.8620  1.0809
 7744TIP3   OH223195   5.507   5.420   2.245  0.2041 -0.4800  0.0094
 7744TIP3    H123196   5.577   5.485   2.242 -1.2221  1.0917 -1.3545
 7744TIP3    H223197   5.462   5.437   2.328 -0.0464  0.2007 -0.2544
 7745TIP3   OH223198   2.176   0.682   2.650  0.6683  0.7625 -0.2828
 7745TIP3    H123199   2.231   0.637   2.714 -3.4863 -1.1892  2.3660
 7745TIP3    H223200   2.176   0.624   2.573  0.7456 -0.3083  0.4945
 7746TIP3   OH223201   0.562   1.286   5.373  0.0119 -0.5803 -0.4150
 7746TIP3    H123202   0.605   1.229   5.436  0.5496  1.2717  0.9800
 7746TIP3    H223203   0.485   1.320   5.420  0.1465  0.4525 -0.9240
 7747TIP3   OH223204   2.599   2.005   1.424 -0.1553  0.2301  0.6663
 7747TIP3    H123205   2.530   2.008   1.358  0.0539  1.2583  0.4693
 7747TIP3    H223206   2.666   1.947   1.387 -0.9044 -0.7904  0.8730
 7748TIP3   OH223207   3.331   2.974   1.200 -0.3730 -0.0766  0.0487
 7748TIP3    H123208   3.377   2.999   1.281  0.3095 -2.0278  0.3102
 7748TIP3    H223209   3.402   2.950   1.140 -0.9149  0.6743 -0.9108
 7749TIP3   OH223210   3.264   1.931   1.287 -0.0275  0.3557 -0.4121
 7749TIP3    H123211   3.172   1.939   1.312  0.0695  0.6566 -0.1391
 7749TIP3    H223212   3.297   1.857   1.338  0.1440  0.9025  0.2849
 7750TIP3   OH223213   5.389   5.970   2.022 -0.0625 -0.0108  0.3498
 7750TIP3    H123214   5.477   5.992   1.993  0.5140 -0.6351  1.5431
 7750TIP3    H223215   5.387   5.874   2.025 -0.8955 -0.0140  0.0064
 7751TIP3   OH223216   7.029   2.946   4.778  0.3231 -0.0591  0.4785
 7751TIP3    H123217   6.971   2.877   4.746  1.4980 -1.0119  0.3664
 7751TIP3    H223218   6.970   3.010   4.818 -0.7486 -1.3440  1.0111
 7752TIP3   OH223219   3.814   3.295   1.124 -0.6545  0.0943 -0.7590
 7752TIP3    H123220   3.787   3.308   1.215  1.0492 -1.2973 -0.0098
 7752TIP3    H223221   3.862   3.375   1.101  2.0613 -0.9829  0.8263
 7753TIP3   OH223222   3.452   1.289   3.356  0.1758  0.0788  0.0838
 7753TIP3    H123223   3.424   1.234   3.430  0.9679  0.3981  0.6331
 7753TIP3    H223224   3.517   1.236   3.310 -0.1759 -0.0425 -0.2771
 7754TIP3   OH223225   0.059   2.010   5.416  0.1385 -0.4918  0.4303
 7754TIP3    H123226  -0.011   1.985   5.355  1.0570 -0.0008 -0.8587
 7754TIP3    H223227   0.032   2.096   5.449  0.2664 -0.1775 -0.2764
 7755TIP3   OH223228   4.245   3.820   2.221  0.5820 -0.1654 -0.5974
 7755TIP3    H123229   4.199   3.897   2.186  1.0372  0.6736  0.5844
 7755TIP3    H223230   4.329   3.819   2.175  0.8674  0.4883 -0.1192
 7756TIP3   OH223231   0.209   3.028   5.146 -0.2579  0.6674  0.7835
 7756TIP3    H123232   0.257   3.110   5.133 -0.0903  0.1766 -2.4211
 7756TIP3    H223233   0.126   3.041   5.100 -0.5662 -0.6618  0.9241
 7757TIP3   OH223234   0.791   0.603   1.810  0.0378 -0.1833 -0.1248
 7757TIP3    H123235   0.833   0.564   1.733 -0.7973  1.3854 -1.4394
 7757TIP3    H223236   0.860   0.604   1.877  0.4348 -2.7228 -0.3886
 7758TIP3   OH223237   1.732   6.360   4.988 -0.1475  0.0323  0.0968
 7758TIP3    H123238   1.741   6.409   5.070 -1.7443  0.4964  0.0284
 7758TIP3    H223239   1.708   6.426   4.924 -0.4510 -0.5728 -0.4136
 7759TIP3   OH223240   3.815   0.611   1.980  0.1525  0.0586 -0.0969
 7759TIP3    H123241   3.746   0.666   1.941  1.1000  2.2270  1.1057
 7759TIP3    H223242   3.781   0.522   1.973 -2.6156  0.9969  0.0827
 7760TIP3   OH223243   0.287   3.654   1.406 -0.1895 -0.0144 -0.2911
 7760TIP3    H123244   0.237   3.641   1.486 -0.8314  0.6633 -0.5744
 7760TIP3    H223245   0.221   3.657   1.337  0.4471 -1.9911 -1.0383
 7761TIP3   OH223246   2.416   6.602   3.159  0.1525  0.0800 -0.3825
 7761TIP3    H123247   2.453   6.690   3.162  1.6034 -0.5275  0.8674
 7761TIP3    H223248   2.326   6.612   3.189  0.3375  1.1020 -0.1322
 7762TIP3   OH223249   5.575   5.993   0.587  0.1213  0.0967 -0.2003
 7762TIP3    H123250   5.633   5.957   0.520  0.0103  0.7650 -0.6677
 7762TIP3    H223251   5.522   6.058   0.541  0.4883  1.0399  0.6683
 7763TIP3   OH223252   1.951   0.046   4.781  0.1052  0.7524  0.0138
 7763TIP3    H123253   2.025   0.101   4.809  1.4314 -1.6971  1.7770
 7763TIP3    H223254   1.987  -0.009   4.712 -0.7032  0.9021 -0.5381
 7764TIP3   OH223255   7.156   6.642   5.346  0.3816  0.6310 -0.5825
 7764TIP3    H123256   7.249   6.652   5.324  0.4241  0.6407 -0.4028
 7764TIP3    H223257   7.130   6.560   5.304  1.2039 -0.8934  1.6826
 7765TIP3   OH223258   6.149   5.156   0.247  0.5030 -0.5347  0.1644
 7765TIP3    H123259   6.127   5.094   0.178 -1.0691  0.3260 -0.1612
 7765TIP3    H223260   6.173   5.102   0.322  0.7046 -1.4994 -0.5899
 7766TIP3   OH223261   4.583   3.593   1.715  0.4042 -0.0603 -0.2768
 7766TIP3    H123262   4.546   3.570   1.801  0.0827 -1.2366 -0.7177
 7766TIP3    H223263   4.514   3.571   1.653  1.8233 -2.4361 -1.1459
 7767TIP3   OH223264   0.121   6.047   1.005  0.0349 -0.2796  0.0994
 7767TIP3    H123265   0.187   6.092   1.057  0.6569 -1.2827  0.2117
 7767TIP3    H223266   0.171   5.998   0.940 -0.5488 -1.5637  0.5895
 7768TIP3   OH223267   4.085   4.745   5.614  0.3898  0.2907 -0.4017
 7768TIP3    H123268   4.126   4.828   5.638  0.6096  0.1041 -0.1252
 7768TIP3    H223269   4.027   4.726   5.688  0.4565  0.1198 -0.3940
 7769TIP3   OH223270   3.698   6.219   4.647 -0.4218 -0.3789  0.5895
 7769TIP3    H123271   3.622   6.250   4.695  0.0190 -1.1026  1.8132
 7769TIP3    H223272   3.753   6.296   4.636 -1.4622  0.2307 -0.6352
 7770TIP3   OH223273   3.281   1.761   1.487  0.0681  0.4839 -0.0948
 7770TIP3    H123274   3.355   1.709   1.518 -0.4611  0.1765  0.6537
 7770TIP3    H223275   3.219   1.698   1.451  0.5551  0.8080 -1.6033
 7771TIP3   OH223276   2.496   5.121   2.410  0.3037  0.8062 -0.2021
 7771TIP3    H123277   2.569   5.169   2.370  1.7092 -1.2749 -0.2898
 7771TIP3    H223278   2.453   5.078   2.336  0.6891 -0.1521  0.1193
 7772TIP3   OH223279   6.851   5.310   1.391 -0.3521 -0.4797  0.0626
 7772TIP3    H123280   6.800   5.341   1.316 -0.8471  1.0109  0.9752
 7772TIP3    H223281   6.941   5.307   1.359 -0.6598 -0.6474 -0.8233
 7773TIP3   OH223282   6.597   6.683   3.636  0.4387  0.2993  0.0318
 7773TIP3    H123283   6.660   6.721   3.573 -0.4756  0.7211 -0.6507
 7773TIP3    H223284   6.642   6.688   3.720  1.0265  1.3088 -0.3226
 7774TIP3   OH223285   5.976   0.563   5.063  0.1192  0.5845  0.5671
 7774TIP3    H123286   5.934   0.625   5.003  0.1414  2.2112  2.1306
 7774TIP3    H223287   6.062   0.548   5.026  0.1352  1.5699  0.1767
 7775TIP3   OH223288   4.287   2.225   1.049  0.2353 -0.1146  0.3146
 7775TIP3    H123289   4.237   2.191   0.975  1.4180  0.5647 -0.8524
 7775TIP3    H223290   4.272   2.320   1.046  0.6769 -0.0336  0.6316
 7776TIP3   OH223291   0.327   4.626   4.154  0.9943  0.0394 -0.3057
 7776TIP3    H123292   0.278   4.547   4.178 -0.3072  0.5491 -1.1681
 7776TIP3    H223293   0.338   4.674   4.235  0.1578 -0.1437 -0.0779
 7777TIP3   OH223294   2.287   1.308   4.448 -0.1012 -0.2189 -0.3806
 7777TIP3    H123295   2.315   1.220   4.475 -2.7667 -1.3123 -0.8588
 7777TIP3    H223296   2.206   1.323   4.497 -0.0673  1.7139 -0.8517
 7778TIP3   OH223297   1.058   4.955   1.100  0.5434  0.1240 -0.3114
 7778TIP3    H123298   0.982   4.933   1.154  0.8698 -0.0028  0.1005
 7778TIP3    H223299   1.101   4.871   1.084  0.1658  0.0871 -1.2098
 7779TIP3   OH223300   5.528   5.581   0.836  0.5802  0.2532  0.3091
 7779TIP3    H123301   5.462   5.608   0.774  1.5064 -0.5869 -1.1095
 7779TIP3    H223302   5.592   5.652   0.837  1.7744 -0.6998 -1.5767
 7780TIP3   OH223303   2.896   6.279   5.249  0.4369 -0.1896  0.4316
 7780TIP3    H123304   2.815   6.274   5.198  0.5085 -0.8434  0.3707
 7780TIP3    H223305   2.919   6.188   5.267  0.6651  0.0207  1.2472
 7781TIP3   OH223306   0.508   0.628   1.164  0.1625 -0.4688  0.0885
 7781TIP3    H123307   0.586   0.668   1.204 -0.2096 -0.9635  1.3691
 7781TIP3    H223308   0.528   0.625   1.071  1.9307 -1.1316  0.4461
 7782TIP3   OH223309   3.225   1.302   5.898 -0.1917 -0.1484  0.3780
 7782TIP3    H123310   3.212   1.291   5.803 -2.6191 -1.3877  0.7835
 7782TIP3    H223311   3.206   1.216   5.935  0.2782  0.4358  2.0518
 7783TIP3   OH223312   3.308   2.276   2.782 -0.2077  0.2399 -0.5299
 7783TIP3    H123313   3.327   2.225   2.702 -0.2286  1.3199 -1.2374
 7783TIP3    H223314   3.213   2.270   2.791 -0.0107 -2.0214  0.8967
 7784TIP3   OH223315   4.725   3.261   0.486 -0.5114  0.9098  0.5384
 7784TIP3    H123316   4.633   3.284   0.501 -0.5505  0.7548  0.5359
 7784TIP3    H223317   4.723   3.171   0.453 -0.5137  1.6514 -1.6371
 7785TIP3   OH223318   1.996   6.480   4.785 -0.7604  0.6086 -0.6541
 7785TIP3    H123319   2.075   6.501   4.835  0.4257  2.0766 -2.9579
 7785TIP3    H223320   1.926   6.528   4.830 -0.2447 -0.0982  0.9700
 7786TIP3   OH223321   2.641   1.721   0.920 -0.4040  0.4805  0.2520
 7786TIP3    H123322   2.579   1.744   0.989 -1.3487 -0.0850 -0.3806
 7786TIP3    H223323   2.700   1.658   0.960 -1.3795 -0.3879  0.3534
 7787TIP3   OH223324   0.140   6.722   2.752 -0.1937  0.5713  1.0457
 7787TIP3    H123325   0.065   6.675   2.790 -1.2901  0.2000 -1.4150
 7787TIP3    H223326   0.216   6.675   2.785 -1.2151 -2.2444 -0.2912
 7788TIP3   OH223327   4.394   1.485   4.916 -0.2579  0.1594  0.1843
 7788TIP3    H123328   4.299   1.486   4.903 -0.3374 -1.7186  0.3304
 7788TIP3    H223329   4.429   1.454   4.833  0.2559  0.8819  0.1195
 7789TIP3   OH223330   5.651   5.042   5.080  0.5930  0.4527 -0.0637
 7789TIP3    H123331   5.629   5.016   4.991  1.3182  0.7388 -0.3293
 7789TIP3    H223332   5.676   4.961   5.123  2.2454  0.5898 -0.7153
 7790TIP3   OH223333   3.172   0.588   1.814 -0.1541 -0.5432  0.8363
 7790TIP3    H123334   3.077   0.589   1.800 -0.3931  0.7176  2.3080
 7790TIP3    H223335   3.193   0.496   1.830 -1.0749 -0.8650  0.2913
 7791TIP3   OH223336   2.252   5.187   5.289  0.0780 -0.4012  1.1301
 7791TIP3    H123337   2.238   5.235   5.370  1.9046  1.7050  0.2769
 7791TIP3    H223338   2.256   5.254   5.221 -1.1844 -2.0807 -0.7169
 7792TIP3   OH223339   2.994   6.119   1.152  0.0034  0.0470 -0.1399
 7792TIP3    H123340   3.034   6.191   1.103 -0.2191  0.1529 -0.1654
 7792TIP3    H223341   3.045   6.041   1.127 -0.3655  0.0297 -0.8458
 7793TIP3   OH223342   1.200   2.735   0.772 -0.0170 -0.5684  0.5846
 7793TIP3    H123343   1.113   2.742   0.810 -1.1666 -3.3993 -1.1780
 7793TIP3    H223344   1.250   2.686   0.837 -0.2857 -0.5259  0.8260
 7794TIP3   OH223345   0.987   4.756   5.698 -0.0070 -0.2052  0.1289
 7794TIP3    H123346   1.079   4.737   5.715  0.5470  1.8313 -0.2815
 7794TIP3    H223347   0.944   4.746   5.783  0.7426 -0.3572  0.4991
 7795TIP3   OH223348   5.419   0.617   0.666  0.1992  0.0059  0.3397
 7795TIP3    H123349   5.481   0.665   0.721  1.0202 -2.4553  1.7393
 7795TIP3    H223350   5.429   0.525   0.694 -2.9855 -0.7015 -0.4589
 7796TIP3   OH223351   6.138   5.816   4.985  0.5421  0.5806 -0.0485
 7796TIP3    H123352   6.061   5.843   4.935  1.6320  1.1095 -1.5166
 7796TIP3    H223353   6.124   5.723   5.003  0.0044  0.4338 -1.1365
 7797TIP3   OH223354   2.364   6.077   4.515 -0.2045 -0.6219  0.0510
 7797TIP3    H123355   2.335   6.164   4.542 -2.5282 -0.5820 -2.2650
 7797TIP3    H223356   2.357   6.024   4.595 -1.0591  0.7563  0.9310
 7798TIP3   OH223357   1.643   2.027   5.025  0.4957 -0.1046  0.5109
 7798TIP3    H123358   1.721   2.058   5.071  1.8624 -1.6139 -0.7009
 7798TIP3    H223359   1.668   2.026   4.933 -0.5771 -1.6117  0.1958
 7799TIP3   OH223360   0.778   1.658   2.776  0.4245 -0.4342  0.5631
 7799TIP3    H123361   0.781   1.716   2.851 -1.4279 -0.9429  1.0913
 7799TIP3    H223362   0.817   1.576   2.807 -0.8308 -0.8211  1.1711
 7800TIP3   OH223363   5.638   6.296   1.676  0.0084  0.0236 -0.2930
 7800TIP3    H123364   5.658   6.243   1.599  1.1970 -0.2838  0.2074
 7800TIP3    H223365   5.671   6.246   1.749  0.2248  0.9912  0.2891
 7801TIP3   OH223366   3.002   4.848   4.168  0.5410 -0.2099 -0.0938
 7801TIP3    H123367   3.029   4.866   4.078  0.7455 -1.4739 -0.3107
 7801TIP3    H223368   2.908   4.865   4.169  0.4032 -0.8661 -0.7469
 7802TIP3   OH223369   6.433   5.346   2.357  0.0569 -0.6328 -0.6124
 7802TIP3    H123370   6.435   5.433   2.396 -0.1591 -0.9253  0.0546
 7802TIP3    H223371   6.525   5.321   2.348  0.1559  0.0965 -1.7938
 7803TIP3   OH223372   1.133   4.783   3.746 -0.1473  0.2138 -0.0497
 7803TIP3    H123373   1.196   4.852   3.722  0.4654 -0.9573 -2.1360
 7803TIP3    H223374   1.165   4.705   3.699 -1.5571 -1.1573  1.1653
 7804TIP3   OH223375   0.794   1.504   1.273  0.0376  0.4533 -0.0197
 7804TIP3    H123376   0.840   1.543   1.347 -0.1785  0.4442  0.1188
 7804TIP3    H223377   0.716   1.557   1.262  0.0048  0.3767 -0.1610
 7805TIP3   OH223378   7.211   2.645   1.016  0.0385  0.5374  0.1394
 7805TIP3    H123379   7.271   2.572   1.030 -0.5500  0.1445  0.6952
 7805TIP3    H223380   7.137   2.607   0.968  0.9344  1.3672 -2.0072
 7806TIP3   OH223381   2.820   6.202   1.885  0.7756  0.1799  0.2005
 7806TIP3    H123382   2.869   6.282   1.866 -0.6303  0.9154 -0.4870
 7806TIP3    H223383   2.734   6.232   1.912 -0.3384 -1.0767 -1.6622
 7807TIP3   OH223384   7.100   6.359   3.402  0.7485  0.9353 -0.3606
 7807TIP3    H123385   7.068   6.348   3.313  2.0467  0.4538 -0.7991
 7807TIP3    H223386   7.157   6.437   3.397 -0.0116  1.5455  0.2990
 7808TIP3   OH223387   2.841   4.004   5.752 -0.0718 -0.4483 -0.2768
 7808TIP3    H123388   2.788   4.083   5.768 -2.0015 -1.4534 -1.3621
 7808TIP3    H223389   2.795   3.958   5.682  0.2163 -3.2376  1.2233
 7809TIP3   OH223390   2.432   6.733   5.726 -0.1603 -0.0558 -0.1583
 7809TIP3    H123391   2.409   6.640   5.729 -0.3817 -0.0671 -1.5375
 7809TIP3    H223392   2.425   6.762   5.817 -0.7307 -1.2322  0.2002
 7810TIP3   OH223393   5.235   6.631   1.610  0.3375 -0.0196  0.2635
 7810TIP3    H123394   5.256   6.538   1.618  0.6509  0.0424  0.1869
 7810TIP3    H223395   5.272   6.657   1.526  1.2499  0.4309  0.7851
 7811TIP3   OH223396   6.964   5.140   4.635  0.5119 -0.0640  0.9641
 7811TIP3    H123397   7.016   5.170   4.560 -0.0975 -0.0630  0.5253
 7811TIP3    H223398   6.946   5.220   4.685 -0.3208  0.1783  0.3040
 7812TIP3   OH223399   7.217   2.005   4.770 -0.5530 -0.4448  0.3805
 7812TIP3    H123400   7.183   2.036   4.686 -2.8264  1.4573  1.8615
 7812TIP3    H223401   7.156   1.935   4.795  1.6231 -2.8822 -0.6019
 7813TIP3   OH223402   3.922   4.815   4.159 -0.1675 -0.3877  0.1597
 7813TIP3    H123403   3.937   4.742   4.219  1.4230 -0.4641 -0.2882
 7813TIP3    H223404   3.908   4.774   4.073 -0.7030 -0.2062  0.1531
 7814TIP3   OH223405   0.552   1.823   3.299  0.1074 -0.1552 -0.0252
 7814TIP3    H123406   0.543   1.742   3.248 -1.0517  0.2456 -0.4840
 7814TIP3    H223407   0.630   1.809   3.352  1.0520 -0.8146 -1.5125
 7815TIP3   OH223408   2.765   1.027   3.956  0.3749 -0.9494 -0.3660
 7815TIP3    H123409   2.706   1.018   4.030  0.3250  0.8140 -0.1561
 7815TIP3    H223410   2.744   0.953   3.899 -0.4607 -1.6053  0.7624
 7816TIP3   OH223411   3.575   2.336   5.143  0.1874 -0.1795  0.2302
 7816TIP3    H123412   3.623   2.385   5.211  1.1592 -0.3935 -0.2768
 7816TIP3    H223413   3.610   2.247   5.149  0.1416 -0.2472 -0.4171
 7817TIP3   OH223414   2.189   4.096   4.874  0.0428  0.2389  0.1228
 7817TIP3    H123415   2.132   4.171   4.893 -2.9113 -1.0731 -2.5927
 7817TIP3    H223416   2.253   4.130   4.810 -0.8119  0.6684 -0.5313
 7818TIP3   OH223417   2.967   4.014   1.270  0.5388 -0.1302 -0.1425
 7818TIP3    H123418   3.039   3.983   1.215  1.0488 -0.3161  0.6236
 7818TIP3    H223419   2.964   4.108   1.253  1.2412 -0.0484  0.1297
 7819TIP3   OH223420   5.334   4.934   2.779  0.8651  0.6470  0.1670
 7819TIP3    H123421   5.285   4.994   2.723 -1.3951 -2.7407 -1.8913
 7819TIP3    H223422   5.425   4.958   2.767  0.0783  4.1971  0.3057
 7820TIP3   OH223423   4.117   0.007   0.817 -0.4334  0.1643  0.6749
 7820TIP3    H123424   4.177  -0.065   0.799  0.8578  0.6273  2.7512
 7820TIP3    H223425   4.174   0.084   0.825 -1.6753  1.2669 -0.4984
 7821TIP3   OH223426   0.205   3.076   4.458 -0.1421 -0.0975 -0.1758
 7821TIP3    H123427   0.140   3.139   4.489  1.3510  0.7423  1.3708
 7821TIP3    H223428   0.180   2.994   4.500 -0.8371 -0.0472 -0.4777
 7822TIP3   OH223429   4.013   5.288   1.033  0.0965  0.3322  0.4715
 7822TIP3    H123430   4.011   5.366   0.977  0.0237 -0.9423 -1.3833
 7822TIP3    H223431   4.105   5.264   1.039 -0.0477 -0.6705 -0.8240
 7823TIP3   OH223432   4.209   3.709   0.180  0.0990 -0.6092 -0.0249
 7823TIP3    H123433   4.198   3.728   0.086 -0.5270  1.5830  0.4180
 7823TIP3    H223434   4.119   3.705   0.214  0.3402  0.0262  0.7070
 7824TIP3   OH223435   4.410   6.521   4.313 -0.8136 -0.0226  0.1979
 7824TIP3    H123436   4.465   6.471   4.252 -0.5726 -0.7804  1.0181
 7824TIP3    H223437   4.360   6.454   4.360  0.8286  0.2933  2.6049
 7825TIP3   OH223438   4.320   6.032   3.816 -0.2706 -0.0015 -0.4637
 7825TIP3    H123439   4.358   5.958   3.768 -0.9481 -1.0258  0.5377
 7825TIP3    H223440   4.226   6.019   3.808 -0.3918  0.5874 -0.0108
 7826TIP3   OH223441   5.293   5.182   1.437 -0.2386 -0.2809 -0.1683
 7826TIP3    H123442   5.290   5.252   1.372  0.0912 -0.6075 -0.5457
 7826TIP3    H223443   5.201   5.160   1.453 -0.3257 -0.1634 -0.4890
 7827TIP3   OH223444   3.109  -0.011   5.314  0.5304 -0.6360 -0.4421
 7827TIP3    H123445   3.104   0.030   5.227 -1.8872 -0.7534 -0.4384
 7827TIP3    H223446   3.202  -0.015   5.333  1.1069 -0.0340 -2.7639
 7828TIP3   OH223447   2.657   3.277   5.338  0.1053  0.1188 -0.6994
 7828TIP3    H123448   2.715   3.245   5.408  0.2606  1.7419 -0.0449
 7828TIP3    H223449   2.572   3.239   5.359  0.9856 -3.0476 -2.1734
 7829TIP3   OH223450   2.768   2.607   1.925 -0.1070 -0.3883 -0.2107
 7829TIP3    H123451   2.827   2.579   1.855 -0.1298 -0.0445 -0.3682
 7829TIP3    H223452   2.732   2.525   1.960  1.3140 -0.6707  0.6435
 7830TIP3   OH223453   4.766   3.503   0.032  0.3964 -0.1620  0.5489
 7830TIP3    H123454   4.713   3.427   0.057 -2.5936  1.1182 -1.2674
 7830TIP3    H223455   4.857   3.475   0.046 -0.6198 -3.4431  1.4959
 7831TIP3   OH223456   5.522   4.273   5.036 -1.0514  0.0365  0.3150
 7831TIP3    H123457   5.556   4.185   5.025  0.4683  0.5949  0.2486
 7831TIP3    H223458   5.428   4.262   5.050 -1.1064 -1.4878 -1.0624
 7832TIP3   OH223459   3.238   0.817   4.406 -0.2628 -0.3092 -0.2661
 7832TIP3    H123460   3.223   0.724   4.387 -1.0339 -0.7429  2.1267
 7832TIP3    H223461   3.330   0.821   4.434 -0.2679 -0.3700 -0.2410
 7833TIP3   OH223462   5.041   3.056   3.388 -0.6257 -0.4610  0.3245
 7833TIP3    H123463   4.978   3.117   3.425  0.9367  1.0636  0.5936
 7833TIP3    H223464   5.124   3.077   3.431  0.1535 -2.2395 -0.1867
 7834TIP3   OH223465   4.299   2.376   4.053 -0.1020 -0.1427 -0.0021
 7834TIP3    H123466   4.263   2.406   4.136 -0.9317  0.0982 -0.4301
 7834TIP3    H223467   4.305   2.455   3.999 -0.1103 -0.3767 -0.3560
 7835TIP3   OH223468   6.148   3.376   1.105 -0.4930  0.0708 -0.0685
 7835TIP3    H123469   6.168   3.443   1.170  1.2402 -0.5558  0.1105
 7835TIP3    H223470   6.218   3.385   1.040  0.4480 -2.2081  0.5192
 7836TIP3   OH223471   6.930   5.959   4.052  0.0029 -0.5941  0.2732
 7836TIP3    H123472   6.882   5.900   4.111  0.2604  1.1977  2.4336
 7836TIP3    H223473   7.020   5.957   4.084  0.6746 -1.2905 -1.5583
 7837TIP3   OH223474   3.773   2.652   2.389  0.4342 -0.8466  0.1444
 7837TIP3    H123475   3.744   2.736   2.423 -1.3021 -1.7617  1.0391
 7837TIP3    H223476   3.716   2.588   2.432  0.1647 -2.3021 -2.2404
 7838TIP3   OH223477   2.867   3.159   4.525 -0.1253  0.2357 -0.1245
 7838TIP3    H123478   2.836   3.230   4.581 -2.1267  1.3979 -2.5309
 7838TIP3    H223479   2.798   3.094   4.528  0.1428 -0.0750 -0.6090
 7839TIP3   OH223480   1.488   0.494   3.443 -0.2017 -0.0644 -0.4351
 7839TIP3    H123481   1.412   0.456   3.487 -0.9861 -0.1395 -1.7952
 7839TIP3    H223482   1.563   0.443   3.474 -0.7575 -0.2754  0.5814
 7840TIP3   OH223483   2.780   5.967   3.982  0.1151  0.0741  0.5022
 7840TIP3    H123484   2.875   5.968   3.968  0.2137  0.9485  1.1203
 7840TIP3    H223485   2.743   6.002   3.901  0.3007 -0.5295  0.1556
 7841TIP3   OH223486   1.884   1.083   0.390 -0.6769  0.1479  0.4098
 7841TIP3    H123487   1.976   1.072   0.413 -0.4394 -0.2780 -0.7215
 7841TIP3    H223488   1.855   0.995   0.364 -0.6737  0.7658 -1.8102
 7842TIP3   OH223489   1.781   6.160   5.641 -0.2610  0.2869 -0.0285
 7842TIP3    H123490   1.717   6.095   5.614 -0.6435  0.2072  1.0026
 7842TIP3    H223491   1.855   6.108   5.675 -0.3959  0.3804  0.4154
 7843TIP3   OH223492   1.131   5.321   0.763 -0.1255  0.1599  0.2702
 7843TIP3    H123493   1.050   5.294   0.720  0.3201 -1.4379  0.3448
 7843TIP3    H223494   1.167   5.239   0.800  1.2557  0.9095  0.6715
 7844TIP3   OH223495   1.825   5.932  -0.003 -0.9092 -0.0967 -0.4107
 7844TIP3    H123496   1.821   5.958   0.089  0.1889 -0.5189 -0.2262
 7844TIP3    H223497   1.802   6.011  -0.052  2.3065  1.3407  0.1162
 7845TIP3   OH223498   5.563   0.753   0.453  0.1811  0.2333 -0.3258
 7845TIP3    H123499   5.572   0.660   0.476  0.1199 -0.1252 -1.6553
 7845TIP3    H223500   5.473   0.761   0.422  0.3238  0.6332 -0.6353
 7846TIP3   OH223501   4.075   0.325   2.181 -0.4324  0.4563  0.2877
 7846TIP3    H123502   4.141   0.383   2.219 -1.6208  1.6230  0.6412
 7846TIP3    H223503   4.044   0.372   2.104  0.8010 -1.1623 -1.2640
 7847TIP3   OH223504   5.930   4.961   5.530  0.4053  0.3581  0.0779
 7847TIP3    H123505   5.918   4.911   5.611  1.9241  0.8914  0.6702
 7847TIP3    H223506   5.999   4.914   5.482  0.7028  0.9703 -0.1080
 7848TIP3   OH223507   0.071   1.319   2.476 -0.3423 -0.1384  0.6309
 7848TIP3    H123508   0.115   1.385   2.423  0.0693 -0.8147  0.1043
 7848TIP3    H223509   0.130   1.305   2.550  0.8886 -1.7559 -0.5728
 7849TIP3   OH223510   4.367   4.146   1.582  0.2037 -0.2110  0.0753
 7849TIP3    H123511   4.409   4.229   1.561  0.5152 -0.2104  0.6877
 7849TIP3    H223512   4.278   4.170   1.608  0.1347 -0.1179 -0.2433
 7850TIP3   OH223513   2.109   4.728   1.103  0.4373  0.0039  0.7172
 7850TIP3    H123514   2.034   4.728   1.162 -1.7219  1.3195 -1.7883
 7850TIP3    H223515   2.089   4.658   1.040  2.0681 -0.5736  0.8084
 7851TIP3   OH223516   4.946   4.120   0.684  0.6803 -0.1628 -0.8997
 7851TIP3    H123517   4.952   4.140   0.778  0.9550 -2.3076 -0.3916
 7851TIP3    H223518   5.037   4.107   0.657  0.8788  3.0158 -2.1894
 7852TIP3   OH223519   2.304   0.735   0.364  0.1840  0.2976  0.5970
 7852TIP3    H123520   2.255   0.660   0.329 -1.7234  1.0300  1.5728
 7852TIP3    H223521   2.310   0.796   0.292  1.1886 -0.4882 -0.0177
 7853TIP3   OH223522   3.113   6.371   2.204  0.7820 -0.6595  0.3188
 7853TIP3    H123523   3.189   6.428   2.188  1.5283 -1.9184 -0.8709
 7853TIP3    H223524   3.118   6.350   2.297  2.9978 -2.1311 -0.0389
 7854TIP3   OH223525   6.237   0.790   0.158 -0.3990 -0.0558 -0.8834
 7854TIP3    H123526   6.187   0.792   0.076 -1.1023 -1.7562 -0.5437
 7854TIP3    H223527   6.324   0.822   0.134 -1.0062  0.8620 -1.9691
 7855TIP3   OH223528   1.766   5.008   0.890  0.4238  0.6611 -0.5994
 7855TIP3    H123529   1.829   5.025   0.959  0.6083 -1.4161 -0.1981
 7855TIP3    H223530   1.680   5.019   0.931  0.5218 -1.1559  0.1989
 7856TIP3   OH223531   3.344   4.569   5.603  0.2336  0.0560 -0.3017
 7856TIP3    H123532   3.263   4.523   5.625 -0.0586  1.0525  0.8661
 7856TIP3    H223533   3.335   4.654   5.647  3.0245 -0.7368  2.0604
 7857TIP3   OH223534   5.900   1.283   3.581  0.0807  0.3911  0.4459
 7857TIP3    H123535   5.931   1.216   3.642  1.2183 -1.3129 -1.8847
 7857TIP3    H223536   5.979   1.333   3.559 -0.4155  1.3200  0.7233
 7858TIP3   OH223537   5.067   2.807   0.495 -0.5881  0.2013 -0.0207
 7858TIP3    H123538   5.098   2.835   0.410  0.1835 -1.0588 -0.1700
 7858TIP3    H223539   4.996   2.868   0.516  1.8192  3.1289  0.2905
 7859TIP3   OH223540   5.608   2.470   5.184  0.5288 -0.6107  0.4177
 7859TIP3    H123541   5.617   2.541   5.248  1.7970 -1.7551  1.5573
 7859TIP3    H223542   5.693   2.467   5.139 -0.6740  0.9102 -2.2074
 7860TIP3   OH223543   5.807   2.154   2.208 -0.3593 -0.2110  0.3411
 7860TIP3    H123544   5.769   2.203   2.135  0.2658 -1.3660 -0.8028
 7860TIP3    H223545   5.743   2.085   2.227 -0.4178 -0.0482  0.7541
 7861TIP3   OH223546   4.744   4.291   1.458  0.1440  0.6582  0.5404
 7861TIP3    H123547   4.729   4.377   1.497  0.8988  0.4595  1.2963
 7861TIP3    H223548   4.680   4.285   1.387  0.8544  2.3144 -0.2916
 7862TIP3   OH223549   1.947   5.977   3.100  0.3224 -0.2475  0.0287
 7862TIP3    H123550   2.011   6.042   3.073  0.9562 -0.7078  0.3920
 7862TIP3    H223551   1.890   5.966   3.023 -0.1177  1.0982  0.1370
 7863TIP3   OH223552   2.972   3.368   5.401  0.4049 -0.4307 -0.1235
 7863TIP3    H123553   2.930   3.454   5.401  0.2076 -0.5248 -0.3416
 7863TIP3    H223554   2.918   3.316   5.460  0.0516 -0.6277 -0.6125
 7864TIP3   OH223555   5.599   3.746   3.219  0.2930  0.0776  0.3682
 7864TIP3    H123556   5.689   3.716   3.211  0.5889  1.2154 -0.8581
 7864TIP3    H223557   5.577   3.781   3.133 -2.3894 -2.9636 -0.3872
 7865TIP3   OH223558   3.648   1.564   2.693  0.6963  0.1983  0.2095
 7865TIP3    H123559   3.710   1.633   2.716  0.9098 -0.1801  0.7960
 7865TIP3    H223560   3.625   1.524   2.777  0.7178 -0.5650 -0.1400
 7866TIP3   OH223561   3.308   2.591   1.803  0.3769  0.8970 -0.6432
 7866TIP3    H123562   3.281   2.677   1.769 -0.4861  1.2127  0.7554
 7866TIP3    H223563   3.391   2.608   1.846 -0.5508  1.4122  1.0273
 7867TIP3   OH223564   3.254   2.553   2.099  0.5655  0.3150 -0.4632
 7867TIP3    H123565   3.179   2.612   2.096  0.5295  0.2363 -1.7669
 7867TIP3    H223566   3.322   2.598   2.048  0.7264 -0.4953 -0.9838
 7868TIP3   OH223567   1.560   3.329   2.580  0.1522 -0.0710 -0.5458
 7868TIP3    H123568   1.497   3.269   2.619  1.6856 -0.4805  1.4979
 7868TIP3    H223569   1.606   3.276   2.515  0.9133 -0.9261  0.6379
 7869TIP3   OH223570   5.510   5.735   2.233 -0.1921  0.1330 -0.0956
 7869TIP3    H123571   5.549   5.675   2.296  0.2457 -1.8168 -2.1120
 7869TIP3    H223572   5.526   5.822   2.269  2.5388 -0.7708  1.0917
 7870TIP3   OH223573   2.361   1.792   1.355 -0.5676 -0.3004  0.3974
 7870TIP3    H123574   2.305   1.852   1.404  0.5618  0.1220  1.2141
 7870TIP3    H223575   2.301   1.728   1.317 -1.9366  1.9900 -1.4899
 7871TIP3   OH223576   2.775   2.193   3.066 -0.1084  0.3532  0.0645
 7871TIP3    H123577   2.774   2.101   3.093 -0.6007  0.0147 -1.0195
 7871TIP3    H223578   2.813   2.192   2.978  0.6769  1.2997  0.3801
 7872TIP3   OH223579   3.951   5.516   1.807 -0.4439 -0.7797  0.2790
 7872TIP3    H123580   4.036   5.494   1.846  0.3747 -0.5003 -1.2806
 7872TIP3    H223581   3.891   5.516   1.881  0.5299 -2.8770  1.1837
 7873TIP3   OH223582   6.533   6.703   1.966  0.1044  0.0131 -0.0618
 7873TIP3    H123583   6.532   6.725   1.873 -0.2787 -0.5418 -0.1981
 7873TIP3    H223584   6.504   6.783   2.011  1.1014  0.5456 -0.3519
 7874TIP3   OH223585   6.522   0.976   1.101  0.0686 -0.1614  0.0589
 7874TIP3    H123586   6.548   1.062   1.068  1.3154 -1.1350 -1.6056
 7874TIP3    H223587   6.467   0.939   1.032  0.4438 -1.1480  0.2846
 7875TIP3   OH223588   4.583   2.710   1.569 -0.0915 -0.3020 -0.5734
 7875TIP3    H123589   4.632   2.645   1.620 -0.0350 -2.0234 -2.6426
 7875TIP3    H223590   4.650   2.754   1.515  0.0563  2.5029  1.6875
 7876TIP3   OH223591   4.586   2.778   3.914  1.0787  0.5308 -0.7768
 7876TIP3    H123592   4.551   2.855   3.959 -0.0682  0.7647 -2.0203
 7876TIP3    H223593   4.659   2.812   3.862  2.1826  0.3168  0.5444
 7877TIP3   OH223594   5.846   6.263   4.433  0.7401 -0.5552 -0.2221
 7877TIP3    H123595   5.920   6.258   4.373 -1.1828  0.2243 -2.8801
 7877TIP3    H223596   5.818   6.354   4.430 -0.0370 -0.7221  1.1191
 7878TIP3   OH223597   0.946   2.103   4.296  0.4642  0.0689 -0.0129
 7878TIP3    H123598   1.008   2.068   4.232 -1.1212 -1.3718 -0.8298
 7878TIP3    H223599   0.988   2.086   4.381  0.6122 -2.2018 -0.4653
 7879TIP3   OH223600   7.017   1.383   0.869  0.4300  0.2729  0.1428
 7879TIP3    H123601   6.932   1.425   0.865  0.4619  0.4014  0.7059
 7879TIP3    H223602   7.049   1.402   0.957  1.1320  0.4082 -0.1330
 7880TIP3   OH223603   2.410   6.073   0.919  0.4106 -0.5690  0.8695
 7880TIP3    H123604   2.322   6.088   0.951  0.7599 -0.3126  1.7176
 7880TIP3    H223605   2.400   6.005   0.852 -0.4232 -0.5360  0.9571
 7881TIP3   OH223606   3.339   2.703   3.378  0.0924  0.5670 -0.3269
 7881TIP3    H123607   3.351   2.762   3.452  1.4199 -0.3248  0.2187
 7881TIP3    H223608   3.304   2.758   3.308 -1.1937  1.4266  0.9465
 7882TIP3   OH223609   1.235   3.206   0.117  0.1765  0.4128 -0.6153
 7882TIP3    H123610   1.174   3.236   0.048 -2.2676 -0.9064  0.8236
 7882TIP3    H223611   1.209   3.256   0.195  0.0349 -1.1084  0.3468
 7883TIP3   OH223612   3.251   0.657   4.139  0.5583  0.0548  0.4307
 7883TIP3    H123613   3.342   0.658   4.169  0.5935  0.8903  0.3115
 7883TIP3    H223614   3.227   0.749   4.130  0.0824 -0.1614 -0.7144
 7884TIP3   OH223615   4.848   0.217   5.703  0.6073  0.5161 -0.5900
 7884TIP3    H123616   4.888   0.131   5.699  2.4237  1.2010  1.2059
 7884TIP3    H223617   4.772   0.207   5.761  0.1800 -0.0501 -1.2266
 7885TIP3   OH223618   5.424   4.340   3.537  0.2153 -1.2618 -0.4839
 7885TIP3    H123619   5.445   4.320   3.446  2.7997  1.2271 -0.5813
 7885TIP3    H223620   5.389   4.429   3.534 -0.5370 -1.4866  0.8797
 7886TIP3   OH223621   6.242   1.778   2.230  0.0092 -0.3944 -0.1235
 7886TIP3    H123622   6.291   1.855   2.200  2.6050 -1.3112  1.4437
 7886TIP3    H223623   6.264   1.710   2.166 -0.5664 -0.4020 -0.3196
 7887TIP3   OH223624   1.381   2.215   0.776  0.3962 -0.3701  0.2119
 7887TIP3    H123625   1.423   2.238   0.693  0.1327  0.1641  0.2211
 7887TIP3    H223626   1.405   2.124   0.791  1.3232 -0.1627  0.0718
 7888TIP3   OH223627   1.641   3.968   3.230 -0.3268 -0.2455  0.2283
 7888TIP3    H123628   1.662   4.045   3.178 -0.2449 -0.2823  0.2062
 7888TIP3    H223629   1.720   3.914   3.226  0.3552  0.5856  1.8911
 7889TIP3   OH223630   2.387   1.032   5.228 -0.1329  0.1235  0.1191
 7889TIP3    H123631   2.295   1.043   5.253 -0.7320 -0.5632 -1.6792
 7889TIP3    H223632   2.419   1.121   5.214 -0.1943  0.4392  1.7048
 7890TIP3   OH223633   1.669   2.610   3.754 -0.4137  0.0598 -0.5783
 7890TIP3    H123634   1.634   2.530   3.714  0.0889 -2.5089  3.5656
 7890TIP3    H223635   1.764   2.595   3.757 -0.4407  0.0859  1.5041
 7891TIP3   OH223636   4.635   1.358   1.216 -0.3134 -0.0500 -0.7283
 7891TIP3    H123637   4.585   1.416   1.158 -1.0213 -0.0102 -0.0975
 7891TIP3    H223638   4.571   1.290   1.242 -0.1133  0.1353  0.2862
 7892TIP3   OH223639   5.966   1.882   0.872  0.2448 -0.2591 -0.3353
 7892TIP3    H123640   6.006   1.965   0.845 -0.7782  0.0419 -0.9898
 7892TIP3    H223641   6.040   1.825   0.893  1.0328  0.2605 -1.5737
 7893TIP3   OH223642   2.113   2.094   5.837  0.0587  0.1345 -0.0725
 7893TIP3    H123643   2.034   2.136   5.872 -0.2767  0.2047 -0.8929
 7893TIP3    H223644   2.116   2.009   5.880 -1.9039 -0.9504 -1.8848
 7894TIP3   OH223645   0.566   6.440   5.837 -0.0602 -0.0479  0.0143
 7894TIP3    H123646   0.583   6.502   5.908 -1.9584  0.0542  0.4440
 7894TIP3    H223647   0.531   6.494   5.766  2.5620 -0.0358 -1.3573
 7895TIP3   OH223648   4.891   1.425   0.269 -0.2136  0.3941  0.0830
 7895TIP3    H123649   4.877   1.491   0.336 -1.7400  0.4202 -0.2254
 7895TIP3    H223650   4.829   1.356   0.289  1.1297 -0.8359  0.2105
 7896TIP3   OH223651   0.587   1.629   0.865 -0.2165 -0.8907 -0.0736
 7896TIP3    H123652   0.518   1.688   0.893  0.1733  0.9418 -2.6024
 7896TIP3    H223653   0.546   1.574   0.798  0.3733 -0.8522 -0.4789
 7897TIP3   OH223654   4.894   4.030   5.452 -0.5857 -0.6005 -0.2834
 7897TIP3    H123655   4.842   4.104   5.484 -0.3316 -0.1628 -0.8698
 7897TIP3    H223656   4.896   3.969   5.526  1.0990  0.9422  1.0377
 7898TIP3   OH223657   4.619   3.869   5.785 -0.3128  0.2263 -0.0584
 7898TIP3    H123658   4.687   3.819   5.830 -1.5002 -1.4378 -0.0612
 7898TIP3    H223659   4.649   3.960   5.793  0.8165 -0.2396  1.8219
 7899TIP3   OH223660   0.394   5.302   4.951  0.4482 -0.3581 -0.1100
 7899TIP3    H123661   0.405   5.375   5.011  1.3891 -0.6168  0.0500
 7899TIP3    H223662   0.477   5.255   4.955 -1.0577 -3.1436  2.0241
 7900TIP3   OH223663   3.377   2.614   0.438  0.0882 -0.0047 -0.2078
 7900TIP3    H123664   3.379   2.523   0.411 -0.3416 -0.2939  0.6941
 7900TIP3    H223665   3.457   2.627   0.488 -0.3041 -0.1569  0.4726
 7901TIP3   OH223666   3.585   0.428   3.843 -0.5151 -0.0631 -0.1970
 7901TIP3    H123667   3.557   0.468   3.761  0.3741  1.2355  0.0987
 7901TIP3    H223668   3.505   0.422   3.895 -1.0058 -0.4949 -0.9869
 7902TIP3   OH223669   5.780   4.724   0.246 -0.1132  0.3348 -0.3501
 7902TIP3    H123670   5.778   4.818   0.263  0.0200  0.2559  0.1389
 7902TIP3    H223671   5.743   4.714   0.159  0.2512  0.8778 -0.5719
 7903TIP3   OH223672   5.378   5.598   1.144 -0.0501  0.1029 -0.5011
 7903TIP3    H123673   5.353   5.689   1.162 -0.3503 -0.1555  0.3877
 7903TIP3    H223674   5.465   5.606   1.104 -0.0827  0.7842 -0.4529
 7904TIP3   OH223675   3.789   0.582   0.766 -0.6670 -0.5689 -0.1832
 7904TIP3    H123676   3.782   0.486   0.759  0.5561 -0.7811  0.9915
 7904TIP3    H223677   3.774   0.599   0.859 -1.4237  0.4550 -0.4820
 7905TIP3   OH223678   2.007   2.104   2.599 -0.2242  0.2803 -0.0511
 7905TIP3    H123679   1.956   2.123   2.521 -0.7342  0.7783  0.3969
 7905TIP3    H223680   2.018   2.189   2.642  0.4251  0.0799  0.1938
 7906TIP3   OH223681   5.889   3.255   0.449  0.4745  0.5322 -0.0851
 7906TIP3    H123682   5.964   3.196   0.437  0.2134  0.0757  0.5002
 7906TIP3    H223683   5.920   3.319   0.513  0.5359  0.6544 -0.2348
 7907TIP3   OH223684   0.178   4.505   2.162 -0.7393  0.0835  0.0034
 7907TIP3    H123685   0.114   4.576   2.171 -1.4035 -0.2116 -1.9553
 7907TIP3    H223686   0.133   4.439   2.109  0.5279 -0.9981  0.2323
 7908TIP3   OH223687   1.717   4.161   1.109 -0.3302  0.5670  0.2506
 7908TIP3    H123688   1.705   4.138   1.016  1.9318 -0.2522  0.0862
 7908TIP3    H223689   1.687   4.251   1.115  1.7342  1.5187 -1.9091
 7909TIP3   OH223690   0.576   0.096   0.774  0.4581 -0.3746  0.1771
 7909TIP3    H123691   0.572   0.128   0.864 -3.7505  0.6628 -0.1638
 7909TIP3    H223692   0.531   0.163   0.722 -0.0455 -2.3770 -2.1812
 7910TIP3   OH223693   5.671   5.662   3.977 -0.1287 -0.2101 -0.5791
 7910TIP3    H123694   5.746   5.721   3.966 -0.1033  0.0509  0.8054
 7910TIP3    H223695   5.607   5.714   4.026 -0.0442 -1.3679  0.7987
 7911TIP3   OH223696   6.091   6.618   2.230  0.0747 -0.1610 -0.1664
 7911TIP3    H123697   6.172   6.668   2.227  1.3527 -2.1624 -2.6676
 7911TIP3    H223698   6.092   6.577   2.317  0.6674  1.4062  0.6056
 7912TIP3   OH223699   4.568   5.657   1.319 -0.0574  0.7620  0.3373
 7912TIP3    H123700   4.505   5.601   1.273 -1.0120  1.6817  0.4918
 7912TIP3    H223701   4.558   5.743   1.277  0.3071  1.1848  1.1067
 7913TIP3   OH223702   4.330   0.841   4.326  0.6471 -0.0249 -0.5608
 7913TIP3    H123703   4.342   0.776   4.257  0.5205  0.2291 -0.8220
 7913TIP3    H223704   4.417   0.877   4.342  1.2527 -2.0968  1.4215
 7914TIP3   OH223705   3.738   2.319   3.558  0.5594 -0.3474 -0.3328
 7914TIP3    H123706   3.728   2.413   3.543  2.1246 -0.1294 -0.1806
 7914TIP3    H223707   3.830   2.308   3.582 -0.0862 -1.6417  1.8514
 7915TIP3   OH223708   6.440   4.196   2.638  0.0107 -0.3592  0.4648
 7915TIP3    H123709   6.533   4.211   2.653 -0.3605  0.0505  2.8343
 7915TIP3    H223710   6.397   4.234   2.715 -1.9459 -2.2798  0.4288
 7916TIP3   OH223711   3.280   2.901   2.014 -0.2102  0.1007 -0.3313
 7916TIP3    H123712   3.223   2.876   1.941 -0.3571  2.1493 -1.0053
 7916TIP3    H223713   3.356   2.941   1.971 -0.2672  1.2872  0.6211
 7917TIP3   OH223714   7.194   2.707   4.496  0.5975  0.6927 -0.1912
 7917TIP3    H123715   7.116   2.652   4.504  1.7056 -0.9314 -0.0945
 7917TIP3    H223716   7.199   2.754   4.578 -0.4595  1.0685 -0.3291
 7918TIP3   OH223717   3.427   6.323   4.790 -0.4832 -0.1298  0.5075
 7918TIP3    H123718   3.458   6.410   4.765  0.5680 -0.5232  0.3974
 7918TIP3    H223719   3.335   6.323   4.766  0.2418 -0.2387 -2.8294
 7919TIP3   OH223720   6.638   3.146   1.374 -0.7210 -0.4754 -0.4341
 7919TIP3    H123721   6.672   3.151   1.285 -1.6931 -2.9803 -1.0406
 7919TIP3    H223722   6.573   3.216   1.380 -1.2488 -0.7899 -2.0072
 7920TIP3   OH223723   0.562   3.284   4.149 -0.3654 -0.0068  0.3262
 7920TIP3    H123724   0.553   3.362   4.094  0.9492 -0.6311 -0.8043
 7920TIP3    H223725   0.624   3.228   4.103  0.0605 -0.9769  1.9835
 7921TIP3   OH223726   2.704   1.860   2.281  0.1399 -0.3899 -0.4926
 7921TIP3    H123727   2.647   1.861   2.204 -3.7331  0.0951  2.0648
 7921TIP3    H223728   2.710   1.952   2.307 -2.7197 -0.7934  2.2455
 7922TIP3   OH223729   0.558   2.922   1.091 -0.0691  0.0367  0.5945
 7922TIP3    H123730   0.526   2.983   1.025 -1.7311 -1.3955 -0.0057
 7922TIP3    H223731   0.615   2.974   1.146 -1.4806  2.1596  0.1662
 7923TIP3   OH223732   5.247   3.640   2.346 -0.1819  0.7232  0.3403
 7923TIP3    H123733   5.219   3.567   2.291  0.0382  1.0358 -0.1914
 7923TIP3    H223734   5.304   3.693   2.290 -1.3667  2.0174  0.2969
 7924TIP3   OH223735   7.135   2.646   1.542 -0.3608 -0.0973 -0.0920
 7924TIP3    H123736   7.215   2.637   1.593 -0.3757  0.3309  0.0078
 7924TIP3    H223737   7.120   2.740   1.537  0.3040 -0.0396 -1.9079
 7925TIP3   OH223738   2.097   5.619   3.473 -0.3931 -0.2713  0.3013
 7925TIP3    H123739   2.111   5.692   3.412 -1.5854  2.4857  3.0648
 7925TIP3    H223740   2.183   5.577   3.481  0.6442  1.5867 -0.4985
 7926TIP3   OH223741   3.535   2.669   1.462  0.0483  0.6238  0.2115
 7926TIP3    H123742   3.567   2.680   1.551 -0.0709  2.3708  0.0710
 7926TIP3    H223743   3.519   2.575   1.454 -2.8717  0.7256  3.0499
 7927TIP3   OH223744   3.140   1.039   2.299  0.0911  0.1939 -0.0361
 7927TIP3    H123745   3.053   1.006   2.275  0.2702 -0.2867 -0.0417
 7927TIP3    H223746   3.179   1.066   2.216  0.3969 -0.7020 -0.1945
 7928TIP3   OH223747   5.264   1.686   5.841  0.0787  0.2800  0.0800
 7928TIP3    H123748   5.170   1.696   5.860  0.1465 -1.5568  1.7052
 7928TIP3    H223749   5.267   1.632   5.762 -0.2422 -0.0660  0.3022
 7929TIP3   OH223750   5.138   5.634   3.608  0.0292 -0.3827 -0.1622
 7929TIP3    H123751   5.173   5.646   3.520 -0.1275 -0.5827 -0.2522
 7929TIP3    H223752   5.051   5.675   3.606 -0.4873 -1.4544 -0.4555
 7930TIP3   OH223753   4.744   6.139   3.764  0.3190  0.2271 -0.1465
 7930TIP3    H123754   4.828   6.164   3.725  0.2955  0.2565 -0.1787
 7930TIP3    H223755   4.754   6.045   3.783 -0.1005 -0.0714 -1.3351
 7931TIP3   OH223756   6.684   5.666   4.494  0.4827 -0.3006 -0.1723
 7931TIP3    H123757   6.662   5.603   4.425 -0.4021  0.7092 -0.8350
 7931TIP3    H223758   6.606   5.670   4.549  0.1038  1.0251 -0.7726
 7932TIP3   OH223759   1.762   6.681   1.147  0.6037  0.5547  0.1740
 7932TIP3    H123760   1.675   6.691   1.107  0.4694  0.1793  0.3695
 7932TIP3    H223761   1.780   6.587   1.140  1.3421  0.7406 -0.5940
 7933TIP3   OH223762   4.504   5.897   1.156 -0.8569 -0.1108 -0.3073
 7933TIP3    H123763   4.520   5.964   1.090  2.5246 -1.7486 -1.3836
 7933TIP3    H223764   4.522   5.941   1.239 -0.8778  0.8794 -0.8145
 7934TIP3   OH223765   0.667   2.653   3.907  0.4384  0.7302  0.3840
 7934TIP3    H123766   0.727   2.726   3.925  1.2828  0.3169 -0.6298
 7934TIP3    H223767   0.608   2.687   3.839  0.1127  0.8392  0.7228
 7935TIP3   OH223768   1.135   0.835   3.504 -0.1898 -0.5061 -1.1549
 7935TIP3    H123769   1.210   0.780   3.527 -0.6859 -0.7732 -0.1001
 7935TIP3    H223770   1.083   0.839   3.584 -0.7393  0.5895 -1.5461
 7936TIP3   OH223771   1.775   3.265   4.598 -0.3244  0.2442  0.6151
 7936TIP3    H123772   1.737   3.350   4.622 -1.0523  0.3108 -0.6820
 7936TIP3    H223773   1.700   3.210   4.576  0.2391 -0.0226 -0.7498
 7937TIP3   OH223774   2.363   5.734   5.782  0.3587  0.1234 -0.0275
 7937TIP3    H123775   2.334   5.697   5.865  1.3262  0.6222  0.5471
 7937TIP3    H223776   2.455   5.710   5.776  0.7450  1.5605 -0.1226
 7938TIP3   OH223777   5.365   3.024   2.647  0.7070  0.1827  0.1485
 7938TIP3    H123778   5.286   3.022   2.703  1.8654  2.1956  2.0089
 7938TIP3    H223779   5.372   2.935   2.614 -2.0674 -0.2031  0.2978
 7939TIP3   OH223780   0.939   4.246   3.903  0.4792  0.7635  0.3145
 7939TIP3    H123781   0.998   4.321   3.908  0.9572  0.3874  0.3407
 7939TIP3    H223782   0.925   4.232   3.810  0.4705  0.8205  0.3072
 7940TIP3   OH223783   0.020   2.255   4.387 -0.4963 -0.0426 -0.2491
 7940TIP3    H123784   0.095   2.296   4.429 -0.2634 -0.2837 -0.4255
 7940TIP3    H223785   0.056   2.211   4.310 -0.7171 -0.6755 -0.0002
 7941TIP3   OH223786   3.392   5.018   0.333 -0.4670  0.1430  0.2000
 7941TIP3    H123787   3.390   5.073   0.255 -1.9278 -1.3940 -0.9099
 7941TIP3    H223788   3.303   4.985   0.342 -0.1147 -0.4643  2.0011
 7942TIP3   OH223789   5.105   0.825   4.771  0.2252  0.1877  0.0535
 7942TIP3    H123790   5.110   0.735   4.804  0.6105  0.7713  1.6346
 7942TIP3    H223791   5.086   0.814   4.677  1.4356 -1.5615 -0.0394
 7943TIP3   OH223792   1.890   6.674   0.143 -0.1755  0.5890 -0.1695
 7943TIP3    H123793   1.939   6.747   0.181 -0.1804 -0.0422  1.1006
 7943TIP3    H223794   1.912   6.676   0.049  2.0035  0.5449  0.2988
 7944TIP3   OH223795   6.746   0.112   4.844 -0.0474 -0.0379  0.1604
 7944TIP3    H123796   6.808   0.164   4.792 -2.2342  1.9753 -0.6005
 7944TIP3    H223797   6.777   0.121   4.934  2.0411 -1.0078 -0.4072
 7945TIP3   OH223798   4.360   6.681   2.774 -0.2589 -0.0414  0.0309
 7945TIP3    H123799   4.295   6.749   2.762  0.7054  0.7332 -1.0312
 7945TIP3    H223800   4.444   6.725   2.762  0.4972 -0.9430  1.6955
 7946TIP3   OH223801   0.772   6.432   3.651  0.6806 -0.0174 -0.3018
 7946TIP3    H123802   0.721   6.357   3.680  1.5420 -0.2518  0.6515
 7946TIP3    H223803   0.762   6.497   3.721  0.0438  0.7267 -1.0589
 7947TIP3   OH223804   0.874   4.003   0.519  0.2279 -0.1540  0.1506
 7947TIP3    H123805   0.907   4.093   0.527  2.4843 -0.8574 -0.6026
 7947TIP3    H223806   0.779   4.013   0.516  0.4391  2.2870 -0.7192
 7948TIP3   OH223807   1.263   4.438   5.286 -0.4490  0.1163 -0.4347
 7948TIP3    H123808   1.349   4.465   5.256 -1.2841  0.4485 -2.6834
 7948TIP3    H223809   1.275   4.420   5.380  1.7841  1.1736 -0.4585
 7949TIP3   OH223810   4.712   6.615   1.321  0.1157 -0.2147  0.2405
 7949TIP3    H123811   4.703   6.633   1.415  1.8572  1.0581  0.2228
 7949TIP3    H223812   4.792   6.661   1.296  0.1508 -1.2412 -1.7064
 7950TIP3   OH223813   3.903   3.480   5.146 -0.0416 -0.1913  0.2029
 7950TIP3    H123814   3.840   3.500   5.216  1.0048  0.5805  0.9382
 7950TIP3    H223815   3.848   3.457   5.071 -1.2917  2.3681  0.2315
 7951TIP3   OH223816   1.570   1.979   5.306  0.5885 -0.0856 -0.3880
 7951TIP3    H123817   1.650   1.934   5.278 -1.1171 -2.3074 -2.1234
 7951TIP3    H223818   1.508   1.963   5.235 -1.8875  0.1507  1.5762
 7952TIP3   OH223819   3.006   0.583   2.826 -0.1386 -0.1348  0.5444
 7952TIP3    H123820   3.017   0.524   2.900  0.9749 -1.0191 -0.2834
 7952TIP3    H223821   2.956   0.657   2.860 -1.5130 -1.5192  1.6369
 7953TIP3   OH223822   3.732   0.987   2.925  0.8054 -0.5228  0.3075
 7953TIP3    H123823   3.650   0.988   2.975  0.2622  0.8468 -0.5595
 7953TIP3    H223824   3.791   1.042   2.976  0.4518  0.3590 -0.2277
 7954TIP3   OH223825   3.337   2.067   2.578  0.1003  0.2283  0.5747
 7954TIP3    H123826   3.430   2.053   2.594 -0.2816  0.1990  3.3303
 7954TIP3    H223827   3.304   1.982   2.547  1.0983  0.5023 -1.3760
 7955TIP3   OH223828   3.833   5.059   5.180  0.0827  1.0039  0.0128
 7955TIP3    H123829   3.783   4.986   5.144  0.2175  1.0339 -0.2414
 7955TIP3    H223830   3.775   5.135   5.171  1.1890  1.6343 -2.9886
 7956TIP3   OH223831   6.142   1.686   5.225  0.1208 -0.5679  0.1903
 7956TIP3    H123832   6.152   1.769   5.270  0.4823  0.2392 -1.3098
 7956TIP3    H223833   6.047   1.675   5.216  0.0649 -0.4623  0.6456
 7957TIP3   OH223834   5.663   2.570   2.147  1.1642  0.1692 -0.5460
 7957TIP3    H123835   5.711   2.601   2.223 -0.6091  3.1738 -0.5069
 7957TIP3    H223836   5.720   2.590   2.072  1.3960  0.5727 -0.2649
 7958TIP3   OH223837   5.704   0.565   0.758 -0.4184 -0.4030 -0.4184
 7958TIP3    H123838   5.718   0.524   0.673  0.7327 -0.2521 -0.3196
 7958TIP3    H223839   5.774   0.530   0.813 -0.8006 -0.0548  0.3078
 7959TIP3   OH223840   2.132   2.717   2.034 -0.5389 -0.1994  0.1600
 7959TIP3    H123841   2.195   2.786   2.016  0.2217 -0.5043  1.5175
 7959TIP3    H223842   2.051   2.763   2.058  0.0956  0.2497  1.5207
 7960TIP3   OH223843   0.201   2.596   1.978 -0.1417  0.1152  0.9252
 7960TIP3    H123844   0.218   2.572   2.069 -2.4398 -0.5735  1.2327
 7960TIP3    H223845   0.111   2.628   1.978  0.0323  0.7319 -1.0130
 7961TIP3   OH223846   3.286   3.096   5.175 -0.1735  0.1274 -0.0036
 7961TIP3    H123847   3.226   3.059   5.111  0.9012  0.4041 -1.2055
 7961TIP3    H223848   3.238   3.167   5.216 -1.0334 -0.3517 -0.1594
 7962TIP3   OH223849   4.171   1.246   3.773  0.3059 -0.3220 -0.2035
 7962TIP3    H123850   4.149   1.334   3.743  2.3000 -0.0877 -1.1385
 7962TIP3    H223851   4.266   1.245   3.775  0.3184 -2.4161 -0.0374
 7963TIP3   OH223852   7.163   4.622   0.441 -0.1296 -0.1902 -0.5455
 7963TIP3    H123853   7.150   4.542   0.390  0.0223 -1.4399  1.2798
 7963TIP3    H223854   7.084   4.629   0.495  0.4004  0.2025  0.1906
 7964TIP3   OH223855   4.696   1.395   4.845  0.5491  0.4476  0.2744
 7964TIP3    H123856   4.677   1.489   4.850 -2.1717 -0.1002  2.9463
 7964TIP3    H223857   4.716   1.370   4.935  1.5362 -1.5487 -0.4426
 7965TIP3   OH223858   1.763   5.476   0.091 -0.0104 -0.2317  0.5313
 7965TIP3    H123859   1.805   5.556   0.123  0.0441  0.3722 -0.9601
 7965TIP3    H223860   1.835   5.424   0.056 -0.1375 -0.6124  0.8305
 7966TIP3   OH223861   0.082   0.782   3.821  0.0558  0.5066  0.2022
 7966TIP3    H123862   0.114   0.855   3.768 -0.0145  0.5475  0.2149
 7966TIP3    H223863   0.156   0.722   3.828 -0.3958 -0.2759 -1.2854
 7967TIP3   OH223864   6.453   6.005   2.365  0.2327 -0.2168 -0.7839
 7967TIP3    H123865   6.521   6.041   2.307  0.1466 -0.0988 -0.8109
 7967TIP3    H223866   6.501   5.980   2.445  0.2240  0.3749 -0.5862
 7968TIP3   OH223867   1.382   5.037   1.359 -0.3989 -0.0776  0.5580
 7968TIP3    H123868   1.470   5.075   1.367 -0.0427 -0.6137 -0.5622
 7968TIP3    H223869   1.352   5.062   1.272 -0.5661 -1.4662  0.1819
 7969TIP3   OH223870   5.241   4.532   3.400  0.1265  0.4546 -0.6246
 7969TIP3    H123871   5.185   4.604   3.370  0.1255  0.4355 -0.6693
 7969TIP3    H223872   5.180   4.463   3.426  0.1367  0.1795 -1.3055
 7970TIP3   OH223873   3.610   0.468   3.299 -0.0539 -0.1031  0.0777
 7970TIP3    H123874   3.608   0.372   3.303 -1.8331 -0.0399  2.0208
 7970TIP3    H223875   3.688   0.492   3.350  0.7781 -0.4753 -0.9616
 7971TIP3   OH223876   5.864   5.028   2.321  0.3132 -0.0984  0.8193
 7971TIP3    H123877   5.912   5.077   2.255  0.0437 -0.3633  0.4225
 7971TIP3    H223878   5.877   5.078   2.402  0.3614  0.4086  0.5021
 7972TIP3   OH223879   3.461   0.552   4.770  0.3370  0.1773  0.3866
 7972TIP3    H123880   3.439   0.476   4.823  0.2617 -1.7419 -2.2014
 7972TIP3    H223881   3.400   0.620   4.799 -2.3305 -1.9366  0.1708
 7973TIP3   OH223882   1.964   5.235   0.690  0.2559 -0.2900  0.1881
 7973TIP3    H123883   1.896   5.290   0.728  0.3714 -0.7136  1.0203
 7973TIP3    H223884   1.921   5.151   0.674  0.7265 -0.7524  1.2815
 7974TIP3   OH223885   5.505   6.524   0.869 -0.5758 -0.7043 -0.1064
 7974TIP3    H123886   5.561   6.460   0.824  0.8721  1.0564 -0.9673
 7974TIP3    H223887   5.475   6.582   0.799  1.1070  1.6523  1.0271
 7975TIP3   OH223888   5.295   3.390   4.948 -0.0977 -0.1456  0.3295
 7975TIP3    H123889   5.371   3.355   4.995  0.2296 -1.8793 -1.3796
 7975TIP3    H223890   5.332   3.459   4.892 -0.0922  0.2345  0.7927
 7976TIP3   OH223891   2.142   3.313   0.408  0.0433  0.0985  0.7032
 7976TIP3    H123892   2.103   3.348   0.488 -2.2251 -0.1674 -0.1921
 7976TIP3    H223893   2.118   3.376   0.340 -1.5521 -1.6155 -0.4147
 7977TIP3   OH223894   3.500   4.162   1.769  0.5774  0.2778 -0.3607
 7977TIP3    H123895   3.535   4.196   1.686 -1.4862  0.4347 -1.2342
 7977TIP3    H223896   3.420   4.116   1.743 -0.6870  1.2108  1.6673
 7978TIP3   OH223897   3.631   3.346   4.230 -0.4935 -0.1359 -0.4151
 7978TIP3    H123898   3.680   3.265   4.213 -0.0717 -0.1533  0.7661
 7978TIP3    H223899   3.672   3.382   4.310 -0.8355  1.1099 -0.7819
 7979TIP3   OH223900   6.418   3.049   3.600  0.1064 -0.4985  0.5023
 7979TIP3    H123901   6.438   2.961   3.568  1.7085  0.0197 -0.0312
 7979TIP3    H223902   6.497   3.076   3.646  0.6169  1.5613 -1.4036
 7980TIP3   OH223903   1.735   2.331   4.968  0.2302 -0.4757 -0.6751
 7980TIP3    H123904   1.689   2.291   5.042  0.4912  0.6232  0.1054
 7980TIP3    H223905   1.690   2.414   4.954  1.0152 -0.0819 -0.8959
 7981TIP3   OH223906   3.968   6.318   4.941  0.3544  0.1180  0.2494
 7981TIP3    H123907   4.001   6.254   5.004  0.8226  1.1739  1.0949
 7981TIP3    H223908   3.874   6.298   4.935  0.7204 -1.5431 -0.5822
 7982TIP3   OH223909   0.629   6.119   5.217 -0.3496 -0.1599 -0.0047
 7982TIP3    H123910   0.694   6.128   5.147  0.1568 -2.0560  0.1841
 7982TIP3    H223911   0.640   6.198   5.269  1.4749 -0.2005 -0.2573
 7983TIP3   OH223912   3.730   2.889   4.819  0.1767 -0.2787 -0.0624
 7983TIP3    H123913   3.636   2.900   4.803  0.2045  0.1234  0.0371
 7983TIP3    H223914   3.772   2.925   4.741  0.3054  1.4794  0.7618
 7984TIP3   OH223915   4.531   1.656   3.026  0.1154 -0.1886 -0.4599
 7984TIP3    H123916   4.507   1.732   3.079 -0.5695 -0.8955  0.2730
 7984TIP3    H223917   4.536   1.584   3.089 -2.6676 -1.4775 -1.5601
 7985TIP3   OH223918   1.075   1.179   5.709  0.6047 -0.0637  0.1468
 7985TIP3    H123919   1.051   1.253   5.764 -3.8319 -1.1090 -0.0014
 7985TIP3    H223920   1.163   1.199   5.678 -0.0168  4.7210  0.7800
 7986TIP3   OH223921   6.085   1.917   3.991  0.0255 -0.1281 -0.6179
 7986TIP3    H123922   6.109   2.009   3.990 -0.7292  0.1059 -2.5966
 7986TIP3    H223923   6.166   1.871   4.011 -0.2333  1.0080  4.1550
 7987TIP3   OH223924   4.538   0.499   0.616  0.2515  0.4383 -0.0742
 7987TIP3    H123925   4.463   0.530   0.566 -0.4516 -1.1659 -0.0472
 7987TIP3    H223926   4.535   0.550   0.697 -0.3427  0.9385 -0.4006
 7988TIP3   OH223927   1.824   0.354   0.588 -0.0811  0.2299  0.3173
 7988TIP3    H123928   1.819   0.366   0.493 -4.5873  1.2200  0.4508
 7988TIP3    H223929   1.822   0.259   0.601  0.7107  0.0837 -0.5457
 7989TIP3   OH223930   3.491   1.010   1.800 -0.1127  0.5853  0.3644
 7989TIP3    H123931   3.416   0.954   1.782 -2.3447  2.8016  1.9730
 7989TIP3    H223932   3.501   1.063   1.721 -0.9220  0.9409  0.4904
 7990TIP3   OH223933   1.987   0.201   0.165 -0.1525  0.6566 -0.3001
 7990TIP3    H123934   1.927   0.274   0.148  0.3402  1.5069  1.4407
 7990TIP3    H223935   2.018   0.175   0.078  0.7262  3.4504 -0.9070
 7991TIP3   OH223936   1.620   4.374   4.666  0.1095 -0.2732 -0.4282
 7991TIP3    H123937   1.577   4.361   4.581  0.3533 -1.1816 -0.4205
 7991TIP3    H223938   1.698   4.318   4.662 -0.1666 -0.7556  0.6035
 7992TIP3   OH223939   4.905   3.246   5.114  0.1717 -0.1607  0.4833
 7992TIP3    H123940   4.909   3.341   5.103  2.2041 -0.2279  0.3257
 7992TIP3    H223941   4.966   3.228   5.186 -0.1865 -1.3450  0.5016
 7993TIP3   OH223942   1.840   6.529   1.926  0.2000  0.3431  0.1358
 7993TIP3    H123943   1.788   6.460   1.884  0.2562  0.0348  0.5662
 7993TIP3    H223944   1.914   6.541   1.867 -0.5390  1.0442 -0.6710
 7994TIP3   OH223945   1.379   1.658   2.328 -0.0464 -0.1886 -0.1458
 7994TIP3    H123946   1.416   1.730   2.277  2.7186 -0.5715  1.1150
 7994TIP3    H223947   1.336   1.602   2.263 -0.5302  1.5607 -1.4025
 7995TIP3   OH223948   0.598   5.583   4.951 -1.0917 -0.1269 -0.1933
 7995TIP3    H123949   0.519   5.637   4.948 -1.1407 -0.2504 -1.6244
 7995TIP3    H223950   0.580   5.518   5.019 -0.3736  2.5583  2.8499
 7996TIP3   OH223951   5.959   0.756   1.425  0.2872  0.1271 -0.3457
 7996TIP3    H123952   5.947   0.844   1.462  0.6529  0.7537 -1.6578
 7996TIP3    H223953   5.898   0.701   1.475  0.3990  1.0218  0.8243
 7997TIP3   OH223954   5.028   6.655   4.663  0.3752 -0.1052 -0.1542
 7997TIP3    H123955   4.972   6.720   4.704  1.1327 -1.0116  2.5242
 7997TIP3    H223956   5.114   6.696   4.659  0.8354 -0.8417  1.4587
 7998TIP3   OH223957   2.940   3.772   5.873  0.0621 -0.0454  0.1155
 7998TIP3    H123958   2.887   3.844   5.840  0.2872 -0.3712 -0.9979
 7998TIP3    H223959   2.879   3.699   5.881 -0.0106  0.0541  0.5465
 7999TIP3   OH223960   2.454   2.976   1.383  0.1372 -0.0222  0.1930
 7999TIP3    H123961   2.513   2.998   1.455 -2.1808  2.5603  1.5229
 7999TIP3    H223962   2.397   2.907   1.418  1.0073 -1.0563 -0.3694
 8000TIP3   OH223963   4.166   5.003   1.677  0.2562 -0.4993 -0.1784
 8000TIP3    H123964   4.211   5.040   1.601 -3.0160 -0.2201 -2.1459
 8000TIP3    H223965   4.192   5.061   1.749  2.4812 -0.0148 -1.2666
 8001TIP3   OH223966   0.080   4.596   1.888  0.2459  0.1373 -0.1374
 8001TIP3    H123967  -0.000   4.554   1.919  0.1173  1.2605  1.1546
 8001TIP3    H223968   0.051   4.661   1.825  0.2749 -0.3082 -0.6232
 8002TIP3   OH223969   0.065   4.567   3.684  0.9613  0.6904  0.2432
 8002TIP3    H123970   0.091   4.506   3.754  1.6130  1.6383  0.8378
 8002TIP3    H223971  -0.020   4.601   3.713  1.1914  1.0187  0.5368
 8003TIP3   OH223972   5.949   4.609   3.126  0.0924 -0.4382  0.2866
 8003TIP3    H123973   5.874   4.662   3.099 -0.0896 -0.7320  0.2068
 8003TIP3    H223974   5.926   4.520   3.100  0.9603 -0.3732 -0.7669
 8004TIP3   OH223975   2.088   4.892   0.860  0.0180  0.7691  0.7638
 8004TIP3    H123976   2.021   4.953   0.891 -1.4813 -1.1936  1.5840
 8004TIP3    H223977   2.107   4.837   0.936  1.3369  0.2099  0.0619
 8005TIP3   OH223978   5.971   5.625   2.394  0.1568  0.0527 -0.3884
 8005TIP3    H123979   5.975   5.591   2.484 -1.3734  1.3176  0.2166
 8005TIP3    H223980   6.032   5.571   2.345  0.7048 -0.9681  1.3260
 8006TIP3   OH223981   2.029   5.664   5.300  0.0504  0.6411  0.2206
 8006TIP3    H123982   2.066   5.635   5.216 -0.3127 -0.0783  0.3048
 8006TIP3    H223983   1.973   5.739   5.276 -0.4911  0.0972 -0.2688
 8007TIP3   OH223984   7.221   3.243   4.581  0.1223 -0.5882 -0.0350
 8007TIP3    H123985   7.214   3.204   4.668 -1.8049  0.5604  0.3834
 8007TIP3    H223986   7.144   3.212   4.534 -0.6023  1.3582 -0.2191
 8008TIP3   OH223987   7.042   0.189   3.176  0.0528 -0.1536  0.3502
 8008TIP3    H123988   6.949   0.211   3.170  0.3525  1.1948  0.2175
 8008TIP3    H223989   7.050   0.104   3.134 -1.2377 -0.6409  1.0560
 8009TIP3   OH223990   2.707   2.506   1.651 -0.1238  0.4706 -0.0799
 8009TIP3    H123991   2.724   2.543   1.565 -0.3298  0.0721 -0.2908
 8009TIP3    H223992   2.723   2.412   1.642 -0.6177  0.3556  0.1898
 8010TIP3   OH223993   6.402   6.459   3.157 -0.1717 -0.3887  0.1633
 8010TIP3    H123994   6.449   6.482   3.077 -0.9706  1.8946  0.2818
 8010TIP3    H223995   6.414   6.534   3.215 -0.1197 -1.7331  1.9891
 8011TIP3   OH223996   5.498   5.971   4.770  0.1576  0.4408 -0.1092
 8011TIP3    H123997   5.501   5.879   4.745  0.4199  0.1996  0.7660
 8011TIP3    H223998   5.519   5.971   4.864  0.9236  1.4593 -0.2623
 8012TIP3   OH223999   1.734   1.928   0.919  0.1082 -0.0391  0.1156
 8012TIP3    H124000   1.649   1.884   0.922 -0.4539  0.7933 -1.9041
 8012TIP3    H224001   1.793   1.864   0.879  0.3712 -0.4839  1.1818
 8013TIP3   OH224002   2.189   1.936   0.522  0.6304  0.1740 -0.4683
 8013TIP3    H124003   2.236   1.861   0.559  1.0934  0.5431 -0.3120
 8013TIP3    H224004   2.166   1.990   0.597 -3.3895 -1.7827  0.0190
 8014TIP3   OH224005   6.239   3.542   1.312  0.3052 -0.2803 -0.2766
 8014TIP3    H124006   6.183   3.616   1.288 -1.6466 -1.3150  0.9037
 8014TIP3    H224007   6.225   3.530   1.406  2.8915 -0.3232  0.1871
 8015TIP3   OH224008   4.552   6.553   5.164  0.0811  0.7027  0.1912
 8015TIP3    H124009   4.552   6.462   5.194  0.9708 -0.1387 -2.1531
 8015TIP3    H224010   4.468   6.587   5.194 -0.4459 -0.9953  0.7947
 8016TIP3   OH224011   3.458   0.436   2.663 -0.1825 -0.5509  0.2226
 8016TIP3    H124012   3.428   0.508   2.718  1.0318  0.2629 -0.1535
 8016TIP3    H224013   3.384   0.418   2.605  0.0914  1.6255 -0.9149
 8017TIP3   OH224014   2.562   4.493   5.709  0.2004 -0.1956 -0.2497
 8017TIP3    H124015   2.596   4.554   5.775 -0.7252 -1.0268  1.0528
 8017TIP3    H224016   2.470   4.517   5.700  0.4280  0.2465 -1.6757
 8018TIP3   OH224017   2.813   6.248   4.100  0.0573  0.7760 -0.6978
 8018TIP3    H124018   2.768   6.164   4.100  1.4966 -0.0829  1.1905
 8018TIP3    H224019   2.778   6.295   4.024 -1.5063 -1.1162 -1.2149
 8019TIP3   OH224020   3.589   0.093   0.957  0.0622  0.0975  0.7186
 8019TIP3    H124021   3.685   0.095   0.949  0.0807  1.0455  1.0626
 8019TIP3    H224022   3.567  -0.000   0.959  0.9616 -0.1299  0.4457
 8020TIP3   OH224023   6.199   3.034   4.514  0.0272  0.6517 -0.2027
 8020TIP3    H124024   6.137   2.970   4.479 -0.9282  0.9718  0.8642
 8020TIP3    H224025   6.178   3.115   4.467  0.0030  0.6338 -0.2230
 8021TIP3   OH224026   5.404   3.224   1.171 -0.0318 -0.6374 -0.1199
 8021TIP3    H124027   5.362   3.220   1.085  1.2063 -0.4848 -0.7514
 8021TIP3    H224028   5.379   3.143   1.214 -0.6844 -0.7018 -0.6102
 8022TIP3   OH224029   2.584   5.711   4.742 -0.3350 -0.7910  0.3236
 8022TIP3    H124030   2.602   5.619   4.727  2.0600 -0.2754 -0.2634
 8022TIP3    H224031   2.575   5.749   4.655 -0.3260 -0.2970  0.5302
 8023TIP3   OH224032   1.721   5.894   3.923 -0.0101  0.1443  0.0876
 8023TIP3    H124033   1.670   5.928   3.849  1.7833 -0.3634 -1.4550
 8023TIP3    H224034   1.690   5.803   3.933  0.4518 -0.1163 -0.7442
 8024TIP3   OH224035   6.497   4.804   5.067  0.2078  0.0813  0.3970
 8024TIP3    H124036   6.416   4.789   5.018 -0.6393 -2.0821  2.3000
 8024TIP3    H224037   6.564   4.760   5.014  0.1281  1.4352 -0.9161
 8025TIP3   OH224038   5.817   1.050   4.781  0.0353 -0.2913  0.3095
 8025TIP3    H124039   5.880   1.106   4.735 -1.5466  0.3690 -1.1801
 8025TIP3    H224040   5.747   1.035   4.717 -0.3349 -2.7479  1.1763
 8026TIP3   OH224041   0.093   1.980   3.529  0.2130 -0.3557 -0.0928
 8026TIP3    H124042  -0.002   1.993   3.536  0.1066 -0.6086 -0.9390
 8026TIP3    H224043   0.112   1.908   3.589 -0.1663 -0.4305 -0.0594
 8027TIP3   OH224044   6.377   0.049   1.114 -0.4116 -0.4380  0.2002
 8027TIP3    H124045   6.401  -0.043   1.120  0.9911 -0.0664  0.5458
 8027TIP3    H224046   6.416   0.089   1.192 -0.9390  0.4717  0.0108
 8028TIP3   OH224047   5.764   1.858   1.077  0.6661 -0.7832  0.0845
 8028TIP3    H124048   5.716   1.797   1.021 -0.6565 -0.0197  0.3435
 8028TIP3    H224049   5.842   1.882   1.026  0.4219 -1.5038 -0.6430
 8029TIP3   OH224050   4.796   1.174   0.329 -0.0996  0.2269 -0.0818
 8029TIP3    H124051   4.797   1.164   0.234  0.6850 -1.4968  0.0768
 8029TIP3    H224052   4.719   1.123   0.358 -0.4473  0.9005  0.2015
 8030TIP3   OH224053   1.641   1.655   3.236 -0.1378 -0.1069 -0.1565
 8030TIP3    H124054   1.723   1.622   3.200  0.1612  0.1887  0.2522
 8030TIP3    H224055   1.576   1.635   3.168 -0.2897 -2.9793  0.6921
 8031TIP3   OH224056   0.696   0.443   3.886  0.0426  0.0306 -0.2733
 8031TIP3    H124057   0.616   0.408   3.925  0.5218  1.1136  1.8336
 8031TIP3    H224058   0.676   0.536   3.870  1.0873  0.4963  0.9886
 8032TIP3   OH224059   1.873   2.696   0.731  0.3527  0.5498 -0.3460
 8032TIP3    H124060   1.866   2.792   0.735  1.6534  0.6099  2.1130
 8032TIP3    H224061   1.791   2.665   0.769  0.5397  0.7203  0.2035
 8033TIP3   OH224062   4.799   3.640   4.022 -0.1517  0.3064  0.1501
 8033TIP3    H124063   4.761   3.671   3.940  1.1117 -0.6106 -0.8238
 8033TIP3    H224064   4.879   3.692   4.033 -0.2407  0.3311  0.7394
 8034TIP3   OH224065   6.846   6.110   1.462  0.5649  0.1533  0.3998
 8034TIP3    H124066   6.829   6.089   1.554 -2.0165 -1.8653 -0.4306
 8034TIP3    H224067   6.921   6.055   1.439 -1.1294 -2.3289  0.4073
 8035TIP3   OH224068   6.605   3.023   0.986 -0.2617  0.4049  0.0959
 8035TIP3    H124069   6.517   3.007   1.020 -0.5170 -2.2105 -1.5202
 8035TIP3    H224070   6.592   3.078   0.909 -0.2496  1.6241  0.9438
 8036TIP3   OH224071   3.667   6.714   2.576  0.2925  0.3370  0.1047
 8036TIP3    H124072   3.702   6.694   2.663  0.4790 -0.5243 -0.1619
 8036TIP3    H224073   3.575   6.689   2.581 -0.2255  2.1967  0.6708
 8037TIP3   OH224074   1.004   0.190   1.584  0.2479  0.0224  0.6799
 8037TIP3    H124075   0.929   0.144   1.545  1.5551 -0.3383 -1.5999
 8037TIP3    H224076   1.029   0.135   1.658  0.2769 -1.7310 -0.5466
 8038TIP3   OH224077   3.831   1.227   5.706 -0.4850 -0.0539  0.1729
 8038TIP3    H124078   3.882   1.308   5.700 -0.4617  0.0057  1.0167
 8038TIP3    H224079   3.743   1.255   5.732 -0.5743 -0.2656  0.1027
 8039TIP3   OH224080   5.882   2.533   1.151 -0.3287  0.1121 -0.7475
 8039TIP3    H124081   5.867   2.440   1.165 -1.1403 -0.0950 -2.6301
 8039TIP3    H224082   5.799   2.566   1.116  0.0020  1.5161 -0.2880
 8040TIP3   OH224083   0.520   4.429   4.121  0.5349 -0.3591 -0.1325
 8040TIP3    H124084   0.464   4.503   4.101  0.7147 -0.0877  0.3367
 8040TIP3    H224085   0.476   4.384   4.193  1.1164  0.1033  0.5332
 8041TIP3   OH224086   1.776   1.274   3.387 -0.3040  0.3495  0.7109
 8041TIP3    H124087   1.759   1.231   3.471 -0.4630  0.9336  0.9842
 8041TIP3    H224088   1.870   1.288   3.385 -0.2646  0.0686  0.6622
 8042TIP3   OH224089   2.505   5.663   4.279 -0.0026 -0.9331 -0.2993
 8042TIP3    H124090   2.548   5.741   4.245 -2.5764  0.3006 -0.9695
 8042TIP3    H224091   2.504   5.602   4.205  1.6745 -1.5257  0.1159
 8043TIP3   OH224092   1.508   4.652   0.000 -0.2561  0.2171 -0.2718
 8043TIP3    H124093   1.418   4.618  -0.002 -0.0780 -0.4918  1.7091
 8043TIP3    H224094   1.512   4.703   0.082  1.5913 -1.1519  0.5557
 8044TIP3   OH224095   4.813   1.843   4.993 -0.4557 -0.3123  0.0166
 8044TIP3    H124096   4.777   1.932   4.994  0.4601  0.0881  2.1164
 8044TIP3    H224097   4.757   1.793   5.052 -1.2470 -1.3020 -1.5050
 8045TIP3   OH224098   4.568   0.040   4.895  0.2159 -0.0022  0.3699
 8045TIP3    H124099   4.538   0.054   4.985  0.1145  1.0355  0.1768
 8045TIP3    H224100   4.606   0.123   4.868  0.0811 -0.2438 -0.6125
 8046TIP3   OH224101   0.311   4.392   1.876  0.1070  0.8115  0.2894
 8046TIP3    H124102   0.240   4.342   1.916 -1.3713  3.6200  1.4752
 8046TIP3    H224103   0.298   4.481   1.908  2.2487  2.1102 -2.1228
 8047TIP3   OH224104   4.260   4.756   0.610 -0.1091 -0.0677  0.2894
 8047TIP3    H124105   4.226   4.707   0.685 -1.1804  1.6073  0.9291
 8047TIP3    H224106   4.186   4.806   0.578  0.2389 -1.0061 -2.1559
 8048TIP3   OH224107   5.228   5.880   3.803 -0.2298 -0.5228  0.5349
 8048TIP3    H124108   5.178   5.799   3.798 -1.1137 -0.0767  1.7288
 8048TIP3    H224109   5.251   5.889   3.895 -0.9687  1.0328  0.6133
 8049TIP3   OH224110   3.785   4.204   2.659  0.0265  0.2677 -0.2475
 8049TIP3    H124111   3.848   4.169   2.721  1.0890 -0.7314 -1.8111
 8049TIP3    H224112   3.702   4.162   2.682  0.5835 -0.7231 -0.0261
 8050TIP3   OH224113   3.359   5.058   5.065  0.3476 -0.1853  0.3046
 8050TIP3    H124114   3.328   5.134   5.017  0.4601 -0.2216  0.1740
 8050TIP3    H224115   3.304   5.055   5.144  0.5590  0.2168  0.4688
 8051TIP3   OH224116   1.965   3.038   4.260 -0.2980  0.1330 -0.1420
 8051TIP3    H124117   1.951   3.040   4.165 -0.4142  0.3121 -0.1216
 8051TIP3    H224118   1.886   2.997   4.295 -0.1974 -0.0542 -0.1329
 8052TIP3   OH224119   3.313   1.225   4.176 -0.1331  0.1311  0.5538
 8052TIP3    H124120   3.257   1.149   4.187 -1.7116  1.2511  0.6095
 8052TIP3    H224121   3.318   1.264   4.264  1.8533 -0.6570  0.8451
 8053TIP3   OH224122   7.009   2.540   4.269 -0.6973  0.8621  0.8347
 8053TIP3    H124123   6.950   2.500   4.205  0.4825  0.3838  0.0144
 8053TIP3    H224124   7.076   2.474   4.285 -0.2624  1.4680  1.6052
 8054TIP3   OH224125   4.330   1.646   1.941 -0.1752  0.1582 -0.1009
 8054TIP3    H124126   4.260   1.591   1.905  0.6489 -1.6285  0.8622
 8054TIP3    H224127   4.408   1.591   1.938  0.4814  0.8807  1.8698
 8055TIP3   OH224128   4.648   5.970   1.671  0.0159 -0.1105 -0.1845
 8055TIP3    H124129   4.597   5.895   1.639  1.2527 -0.7637 -0.6726
 8055TIP3    H224130   4.721   5.977   1.610  1.6341 -0.4494  1.6240
 8056TIP3   OH224131   3.861   4.266   4.989 -0.3792 -0.0162 -0.1890
 8056TIP3    H124132   3.775   4.276   5.029 -0.6820 -1.4466 -0.4389
 8056TIP3    H224133   3.922   4.264   5.064 -0.7385 -0.6142  0.0968
 8057TIP3   OH224134   6.806   0.700   5.899  0.5941  0.0974  0.4178
 8057TIP3    H124135   6.720   0.671   5.869  0.2656  1.2775  0.1453
 8057TIP3    H224136   6.845   0.742   5.822  0.6975  1.0832  0.9825
 8058TIP3   OH224137   7.072   2.283   4.850  0.5772 -0.1855  0.0684
 8058TIP3    H124138   7.148   2.265   4.905  0.2263 -2.7259 -0.1476
 8058TIP3    H224139   7.031   2.360   4.889  0.5770 -1.6100  3.1405
 8059TIP3   OH224140   1.490   0.484   2.414  0.3231 -0.3394  0.4134
 8059TIP3    H124141   1.420   0.435   2.370 -0.3758 -0.4488  1.6099
 8059TIP3    H224142   1.525   0.542   2.346 -1.7959  0.6606  0.0982
 8060TIP3   OH224143   6.749   4.731   4.937  0.1192 -0.0725 -1.0164
 8060TIP3    H124144   6.817   4.756   4.875  1.0689 -0.7699 -0.2843
 8060TIP3    H224145   6.793   4.674   5.000 -0.5331  1.5468  1.0058
 8061TIP3   OH224146   2.931   0.302   1.585 -0.1097  0.3743  1.1318
 8061TIP3    H124147   2.940   0.232   1.520  1.9701  0.9883  0.6808
 8061TIP3    H224148   2.855   0.353   1.556  0.2709  0.1505 -0.3451
 8062TIP3   OH224149   2.015   1.502   5.211 -0.0567 -0.1345  0.4068
 8062TIP3    H124150   2.066   1.507   5.292  0.0340  1.9667  0.2709
 8062TIP3    H224151   2.024   1.589   5.172 -0.5883 -0.9217 -1.5763
 8063TIP3   OH224152   1.499   2.833   3.734 -0.5104  0.4393 -0.0913
 8063TIP3    H124153   1.570   2.859   3.793  0.2725  1.2702 -1.3420
 8063TIP3    H224154   1.524   2.747   3.702 -0.4975  0.3586  0.1394
 8064TIP3   OH224155   2.809   2.039   0.789  0.1873  0.4483  0.1402
 8064TIP3    H124156   2.802   2.077   0.702  0.4642  0.2054  0.0072
 8064TIP3    H224157   2.761   2.098   0.846 -0.8915  0.0586 -0.3443
 8065TIP3   OH224158   2.709   5.131   1.777  0.1574  0.1717  0.0403
 8065TIP3    H124159   2.639   5.071   1.800  0.4090  0.3240  1.3209
 8065TIP3    H224160   2.727   5.114   1.685 -1.4458  0.0301 -0.2718
 8066TIP3   OH224161   5.206   6.223   0.758 -0.0422  0.1200  0.2836
 8066TIP3    H124162   5.217   6.214   0.663  0.7321  1.6717  0.1850
 8066TIP3    H224163   5.173   6.312   0.769  1.2044  0.4638  1.5326
 8067TIP3   OH224164   0.096   1.734   1.952  0.3155  0.0915  0.0179
 8067TIP3    H124165   0.050   1.814   1.926  0.7159  0.2682 -0.1550
 8067TIP3    H224166   0.188   1.761   1.959  0.5435 -0.4917 -0.6379
 8068TIP3   OH224167   0.840   0.061   3.914 -0.0578  0.1767 -0.0861
 8068TIP3    H124168   0.854   0.037   4.006  1.5716 -0.6825 -0.5088
 8068TIP3    H224169   0.860  -0.019   3.866  1.6809  1.3002 -1.3382
 8069TIP3   OH224170   5.190   4.307   3.738  0.1725 -0.2618 -0.5192
 8069TIP3    H124171   5.121   4.241   3.738 -1.0840  0.9517 -1.9093
 8069TIP3    H224172   5.239   4.291   3.657  0.7200 -0.3441 -0.1702
 8070TIP3   OH224173   0.170   2.776   5.276  0.2085  0.1570 -0.2518
 8070TIP3    H124174   0.224   2.851   5.249  0.5403  0.1772  0.4416
 8070TIP3    H224175   0.230   2.701   5.274 -0.2229 -0.1660 -1.3261
 8071TIP3   OH224176   0.212   2.261   1.519  0.0957  0.1776 -0.2560
 8071TIP3    H124177   0.179   2.348   1.496  1.8728  1.1580  0.6926
 8071TIP3    H224178   0.170   2.241   1.603  2.4448  1.8717  1.4703
 8072TIP3   OH224179   2.669   5.854   4.209 -0.6162  0.8314  0.3448
 8072TIP3    H124180   2.645   5.942   4.239  0.1014  1.7693 -1.6245
 8072TIP3    H224181   2.716   5.869   4.127 -2.0080 -1.4787 -0.9861
 8073TIP3   OH224182   4.512   2.732   3.360 -0.1605 -0.0766  0.7768
 8073TIP3    H124183   4.563   2.810   3.381  1.5638 -0.7645 -0.5380
 8073TIP3    H224184   4.531   2.671   3.431  0.8417 -0.2982  0.3383
 8074TIP3   OH224185   3.621   6.330   3.226  0.0443  0.6158  0.5758
 8074TIP3    H124186   3.543   6.340   3.171  0.3992  0.0810 -0.0385
 8074TIP3    H224187   3.591   6.354   3.314 -1.5709 -2.1286  0.9177
 8075TIP3   OH224188   4.382   5.706   0.577  0.3464 -0.6352  0.1401
 8075TIP3    H124189   4.294   5.684   0.607  0.2326 -0.8427 -0.3231
 8075TIP3    H224190   4.418   5.762   0.645  0.1630 -1.2298  0.7351
 8076TIP3   OH224191   1.180   4.351   0.348 -0.3027 -0.0843  0.1355
 8076TIP3    H124192   1.245   4.417   0.372 -0.6990  0.2874  0.2093
 8076TIP3    H224193   1.229   4.270   0.339  0.6333  0.6812 -2.5130
 8077TIP3   OH224194  -0.009   0.718   1.618 -0.0692 -0.2058 -0.1540
 8077TIP3    H124195   0.025   0.762   1.539 -0.5566 -1.1164 -0.8932
 8077TIP3    H224196   0.066   0.714   1.677  1.4462 -2.8241 -2.0239
 8078TIP3   OH224197   4.021   6.154   0.762  0.1342 -0.3901  0.0946
 8078TIP3    H124198   4.075   6.085   0.723 -0.4031 -1.4317  1.1351
 8078TIP3    H224199   3.931   6.120   0.757  0.1197 -1.0909  3.1261
 8079TIP3   OH224200   3.664   1.835   5.696  0.8035 -0.1629 -0.0181
 8079TIP3    H124201   3.648   1.827   5.790 -0.6582 -0.9423 -0.3063
 8079TIP3    H224202   3.598   1.897   5.666  1.1456 -0.0563 -0.5667
 8080TIP3   OH224203   1.441   4.996   5.814  0.3149 -0.3041 -0.5763
 8080TIP3    H124204   1.518   5.018   5.866 -1.5514  3.5483  1.0023
 8080TIP3    H224205   1.378   4.961   5.877  0.2475 -2.0453 -1.5707
 8081TIP3   OH224206   2.493   1.276   0.607  0.0174  0.2428  0.3954
 8081TIP3    H124207   2.549   1.209   0.569 -0.5449 -0.8105  1.3652
 8081TIP3    H224208   2.550   1.352   0.619  1.2740 -0.8233  1.4265
 8082TIP3   OH224209   1.132   2.570   0.099 -0.0157  0.3025 -0.2251
 8082TIP3    H124210   1.167   2.553   0.012 -2.3289 -0.2603 -1.1227
 8082TIP3    H224211   1.053   2.621   0.083 -0.4183  0.2977  1.5686
 8083TIP3   OH224212   5.746   5.611   4.302 -0.4015 -0.3936 -0.5169
 8083TIP3    H124213   5.745   5.592   4.396 -1.0739  1.4761 -0.1161
 8083TIP3    H224214   5.744   5.524   4.260 -0.8310 -1.2394  1.1805
 8084TIP3   OH224215   4.274   0.186   2.026  0.0112 -0.3638 -0.4507
 8084TIP3    H124216   4.197   0.243   2.022  0.3433  0.3049  1.5281
 8084TIP3    H224217   4.300   0.188   2.118  0.8375 -2.6904 -0.5765
 8085TIP3   OH224218   6.654   3.606   5.191 -0.2893 -0.2074 -0.0437
 8085TIP3    H124219   6.607   3.541   5.244  3.5946 -1.2536  2.5301
 8085TIP3    H224220   6.628   3.690   5.228 -1.7356 -0.5607 -0.1940
 8086TIP3   OH224221   1.635   0.340   0.807 -0.5597 -0.4416 -0.0299
 8086TIP3    H124222   1.658   0.368   0.718  1.3631 -1.4859  0.0779
 8086TIP3    H224223   1.568   0.402   0.835  0.0739  1.0233 -1.5583
 8087TIP3   OH224224   1.480   5.872   0.655  0.3692  0.2144 -0.3473
 8087TIP3    H124225   1.448   5.863   0.745 -2.0007  0.3895 -1.0934
 8087TIP3    H224226   1.459   5.788   0.614  2.2922 -0.2064 -0.5293
 8088TIP3   OH224227   3.441   3.487   2.179  0.0582 -0.0507  0.0816
 8088TIP3    H124228   3.515   3.490   2.119 -0.4372 -2.2902 -0.7397
 8088TIP3    H224229   3.480   3.476   2.265  0.7190  1.1885 -0.0349
 8089TIP3   OH224230   3.043   5.670   3.939 -0.2279 -0.2406  0.3604
 8089TIP3    H124231   3.093   5.601   3.982 -0.3125 -0.4057  0.1964
 8089TIP3    H224232   2.961   5.628   3.913  0.8403 -0.9151 -2.3119
 8090TIP3   OH224233   4.484   3.431   4.562  0.4024  0.4629  0.1079
 8090TIP3    H124234   4.437   3.355   4.594  2.1816 -0.2676  1.1378
 8090TIP3    H224235   4.514   3.476   4.641  3.0719 -0.1923 -0.4383
 8091TIP3   OH224236   1.342   0.426   4.687 -0.1000  0.0806  0.0880
 8091TIP3    H124237   1.399   0.358   4.723 -1.1678 -0.8523  0.0654
 8091TIP3    H224238   1.284   0.380   4.627 -1.6902  0.7750  1.0156
 8092TIP3   OH224239   6.524   0.086   0.546  0.1783  0.0676 -0.4400
 8092TIP3    H124240   6.483   0.152   0.602 -1.7856 -1.3152 -0.1213
 8092TIP3    H224241   6.598   0.054   0.597  1.0439  1.8306 -0.5232
 8093TIP3   OH224242   2.409   3.337   2.471  0.2369 -0.4481  0.2816
 8093TIP3    H124243   2.484   3.278   2.476  0.7194  0.1496  0.2772
 8093TIP3    H224244   2.349   3.307   2.540  1.1627 -0.0257  1.3068
 8094TIP3   OH224245   2.162   1.422   0.848 -0.6021 -0.4717  0.1703
 8094TIP3    H124246   2.228   1.487   0.871 -0.5114 -0.6276  0.3553
 8094TIP3    H224247   2.198   1.379   0.770 -0.8798  0.0115 -0.2282
 8095TIP3   OH224248   5.297   2.546   0.414 -0.1562 -0.0648  0.6245
 8095TIP3    H124249   5.363   2.613   0.401 -0.3479  0.2194  1.0963
 8095TIP3    H224250   5.246   2.576   0.490  0.2172 -1.0967  1.3161
 8096TIP3   OH224251   3.161   6.229   1.814  0.5002  0.1888 -0.2905
 8096TIP3    H124252   3.172   6.274   1.898 -1.9715 -0.1733  0.3142
 8096TIP3    H224253   3.134   6.140   1.838 -0.5018  0.1580 -1.4471
 8097TIP3   OH224254   3.950   2.326   0.100 -0.5892  0.3642 -0.2178
 8097TIP3    H124255   3.949   2.389   0.027 -0.9615  1.8546  1.0191
 8097TIP3    H224256   3.859   2.317   0.126 -0.4788 -0.3011 -0.0420
 8098TIP3   OH224257   3.468   4.964   4.587 -0.2558  0.0301  0.8027
 8098TIP3    H124258   3.545   4.966   4.644 -0.3030 -2.2871  1.0085
 8098TIP3    H224259   3.489   5.027   4.518  0.7631  1.2296  2.1207
 8099TIP3   OH224260   0.025   6.742   3.585 -0.3178  0.2944 -0.2215
 8099TIP3    H124261  -0.031   6.724   3.660 -1.9786  2.1010 -0.9450
 8099TIP3    H224262   0.114   6.745   3.621 -1.0565  1.0356  1.6510
 8100TIP3   OH224263   4.401   2.325   1.593  0.7198  0.2780 -0.2162
 8100TIP3    H124264   4.352   2.373   1.526 -0.3371 -1.5313 -0.8050
 8100TIP3    H224265   4.335   2.300   1.658  0.6623 -2.5767 -1.2413
 8101TIP3   OH224266   2.574   5.262   2.660 -0.4036 -0.3937  0.3115
 8101TIP3    H124267   2.548   5.353   2.644  0.5923 -0.4020 -1.6697
 8101TIP3    H224268   2.532   5.213   2.590  0.9952 -1.0986 -0.0638
 8102TIP3   OH224269   4.655   5.180   3.395 -0.0581  0.4374  0.4412
 8102TIP3    H124270   4.652   5.267   3.355 -0.6771  0.7496  1.1466
 8102TIP3    H224271   4.627   5.194   3.486  0.6722 -0.3601  0.8098
 8103TIP3   OH224272   5.628   1.398   5.738  0.2000 -0.2443  0.0872
 8103TIP3    H124273   5.700   1.379   5.799 -3.1494  1.1307  5.0474
 8103TIP3    H224274   5.637   1.491   5.719 -0.2590 -0.0454  0.8034
 8104TIP3   OH224275   2.208   0.037   2.013 -0.0956  0.3984 -0.2442
 8104TIP3    H124276   2.270  -0.036   2.023 -1.9005 -1.0754  1.0189
 8104TIP3    H224277   2.169   0.024   1.927 -0.4971 -0.2358  0.0241
 8105TIP3   OH224278   3.884   6.721   3.487 -0.1384  0.4688  0.4288
 8105TIP3    H124279   3.900   6.748   3.397  1.5856  0.1317  0.5962
 8105TIP3    H224280   3.836   6.639   3.479  2.0861 -0.8513 -0.2965
 8106TIP3   OH224281   0.155   1.286   0.508 -0.0489 -0.0786  0.1666
 8106TIP3    H124282   0.084   1.319   0.564 -0.7567  1.1882 -1.4138
 8106TIP3    H224283   0.112   1.225   0.448  0.1264  0.8995 -0.9785
 8107TIP3   OH224284   5.450   1.673   1.575  0.1931 -0.0363  0.1119
 8107TIP3    H124285   5.509   1.602   1.547 -0.1066 -0.7961  1.3416
 8107TIP3    H224286   5.472   1.746   1.517  0.8251 -0.9847 -0.8935
 8108TIP3   OH224287   5.232   3.944   1.408 -0.2238 -0.3834 -0.4236
 8108TIP3    H124288   5.317   3.913   1.440 -1.1492 -2.7999 -0.1040
 8108TIP3    H224289   5.172   3.929   1.481 -1.0915  0.5332 -0.9271
 8109TIP3   OH224290   0.506   4.476   1.170 -0.6531 -0.1917 -0.1273
 8109TIP3    H124291   0.481   4.568   1.174 -1.0001 -0.2273 -1.1130
 8109TIP3    H224292   0.456   4.435   1.241 -0.5055  0.3636  0.3095
 8110TIP3   OH224293   6.154   5.110   4.046 -0.5665  0.0700  0.1476
 8110TIP3    H124294   6.182   5.186   4.096 -1.1702  0.6143 -0.3267
 8110TIP3    H224295   6.070   5.136   4.008 -0.4141 -0.5558 -0.6369
 8111TIP3   OH224296   6.706   0.467   1.476  0.3265 -0.0035 -0.3561
 8111TIP3    H124297   6.738   0.548   1.517 -2.0284  0.5050  0.6415
 8111TIP3    H224298   6.710   0.402   1.546 -2.3958  0.5266  0.4021
 8112TIP3   OH224299   2.615   3.722   4.899 -0.5515 -0.3257  0.4019
 8112TIP3    H124300   2.587   3.707   4.809  1.3359  1.8897 -0.6532
 8112TIP3    H224301   2.544   3.685   4.953 -2.1213 -0.9850 -1.9652
 8113TIP3   OH224302   6.304   3.303   0.872 -0.6709 -0.1945  0.2827
 8113TIP3    H124303   6.338   3.280   0.786 -0.3020  0.7308  0.1608
 8113TIP3    H224304   6.247   3.231   0.896  0.7100 -1.3866  0.1110
 8114TIP3   OH224305   2.942   6.746   3.947 -0.7515  0.2759  0.4776
 8114TIP3    H124306   2.875   6.713   4.006 -0.3649  0.0559  0.7963
 8114TIP3    H224307   3.021   6.749   4.000 -0.1991 -0.7638 -0.2511
 8115TIP3   OH224308   0.313   6.112   5.048 -0.1668  0.4368  0.0420
 8115TIP3    H124309   0.303   6.061   4.968 -0.3251  1.4518 -0.6023
 8115TIP3    H224310   0.336   6.199   5.018  0.9500  0.5453  1.1647
 8116TIP3   OH224311   7.004   1.363   3.396  0.2648 -0.1594  0.4160
 8116TIP3    H124312   6.919   1.319   3.392  0.1903 -0.0800  1.0772
 8116TIP3    H224313   7.058   1.305   3.449 -0.0230  0.8256  1.8689
 8117TIP3   OH224314   3.542   4.069   5.788 -0.2514 -0.0262 -0.0337
 8117TIP3    H124315   3.519   4.154   5.751  0.2027  0.3467  0.5293
 8117TIP3    H224316   3.637   4.066   5.784 -0.2846 -0.6918 -0.4488
 8118TIP3   OH224317   1.453   5.134   5.398 -0.3590 -0.7098  0.3014
 8118TIP3    H124318   1.401   5.117   5.476  0.9736 -1.0255  1.1690
 8118TIP3    H224319   1.532   5.081   5.410  1.0359  1.2034  0.0028
 8119TIP3   OH224320   6.375   1.337   4.244  0.4156  0.2116 -0.4663
 8119TIP3    H124321   6.416   1.362   4.327  1.2133 -1.1300 -0.4199
 8119TIP3    H224322   6.372   1.417   4.193 -1.6704  1.4992  1.4504
 8120TIP3   OH224323   6.987   4.715   1.361 -0.3762  0.1111  0.0831
 8120TIP3    H124324   6.937   4.688   1.283 -0.5877 -0.2067  0.3242
 8120TIP3    H224325   7.015   4.633   1.400  0.2818  0.2914 -0.0100
 8121TIP3   OH224326   2.906   2.932   4.749 -0.0328 -0.2167 -0.0892
 8121TIP3    H124327   2.960   2.861   4.783  1.4864  1.0790  0.3257
 8121TIP3    H224328   2.900   2.915   4.655  0.8509 -0.5555 -0.0937
 8122TIP3   OH224329   4.982   6.071   5.495 -0.2074 -0.6107 -0.4670
 8122TIP3    H124330   4.946   6.039   5.412  1.1029 -0.3106 -1.1731
 8122TIP3    H224331   4.985   6.166   5.485 -1.5165 -0.4226  0.5633
 8123TIP3   OH224332   0.259   4.611   1.514 -0.4062 -0.0327  0.1936
 8123TIP3    H124333   0.338   4.626   1.565 -1.3524 -0.1026  1.7453
 8123TIP3    H224334   0.287   4.621   1.423  0.6957  3.3070  0.7713
 8124TIP3   OH224335   4.425   0.996   0.542  0.1218  0.3816  0.1479
 8124TIP3    H124336   4.420   1.074   0.486  0.1230 -0.1451 -0.5976
 8124TIP3    H224337   4.484   0.937   0.495 -0.1926 -0.2245  0.5077
 8125TIP3   OH224338   0.775   1.437   0.398 -0.4582 -1.1592  0.0495
 8125TIP3    H124339   0.829   1.514   0.380 -1.6126 -0.5183 -0.7158
 8125TIP3    H224340   0.826   1.387   0.463 -0.2232  0.8288  1.4805
 8126TIP3   OH224341   6.399   6.424   4.010  0.4898  0.8890 -0.1149
 8126TIP3    H124342   6.357   6.410   3.925 -0.9493 -1.6447  0.8956
 8126TIP3    H224343   6.434   6.338   4.034  2.0838  1.8599  1.2747
 8127TIP3   OH224344   5.103   6.464   1.385 -0.4891 -0.2906  0.1017
 8127TIP3    H124345   5.154   6.415   1.321 -0.8945  0.5404 -0.8787
 8127TIP3    H224346   5.116   6.556   1.361 -0.9876  0.0128  0.9548
 8128TIP3   OH224347   6.125   0.466   4.196 -0.3481  0.2770  0.5566
 8128TIP3    H124348   6.045   0.516   4.213 -0.2970  0.3353  0.6292
 8128TIP3    H224349   6.165   0.510   4.121 -0.3042  0.3454  0.6193
 8129TIP3   OH224350   5.611   4.404   0.501 -0.2812 -0.0898 -0.4792
 8129TIP3    H124351   5.641   4.394   0.410  2.6001 -1.2196  0.4678
 8129TIP3    H224352   5.635   4.495   0.523 -1.6618  0.4286 -1.0273
 8130TIP3   OH224353   1.600   3.020   1.270 -0.5437 -0.2607  0.2825
 8130TIP3    H124354   1.659   3.094   1.254 -0.2344  0.0484  2.4288
 8130TIP3    H224355   1.654   2.956   1.317 -1.1030 -1.3765 -0.5655
 8131TIP3   OH224356   5.373   2.063   2.087  0.3581  0.3196  0.4164
 8131TIP3    H124357   5.434   2.016   2.030 -0.7848  0.7889 -1.2946
 8131TIP3    H224358   5.395   2.155   2.075 -1.6820  0.6487 -1.6221
 8132TIP3   OH224359   5.051   3.728   3.622 -0.0811  0.4596 -0.0203
 8132TIP3    H124360   5.116   3.756   3.558  0.3074  0.3319  0.3189
 8132TIP3    H224361   5.024   3.641   3.593 -2.4286  1.7265 -1.9724
 8133TIP3   OH224362   4.052   4.316   2.220  0.1310 -0.2719 -0.2631
 8133TIP3    H124363   4.015   4.304   2.307 -2.4280 -0.5666 -1.3009
 8133TIP3    H224364   4.146   4.325   2.235 -0.4347  2.7534  2.8165
 8134TIP3   OH224365   4.480   3.192   2.341  0.3203 -0.3127  0.1023
 8134TIP3    H124366   4.526   3.180   2.423  0.0846  0.8223  0.4243
 8134TIP3    H224367   4.494   3.111   2.293 -0.4202 -1.4275  1.6859
 8135TIP3   OH224368   1.390   4.851   1.547  0.5171 -0.3353  0.3805
 8135TIP3    H124369   1.380   4.914   1.476 -0.5422 -0.0868  0.7248
 8135TIP3    H224370   1.314   4.866   1.603  0.9572 -1.0133  1.1834
 8136TIP3   OH224371   5.454   1.946   1.458 -0.1189  0.2018 -0.0017
 8136TIP3    H124372   5.471   2.001   1.382 -1.9464 -0.1139 -0.6966
 8136TIP3    H224373   5.438   2.008   1.530  3.2906  0.5090  0.6314
 8137TIP3   OH224374   3.196   1.863   0.082  0.0264 -0.6682  0.2170
 8137TIP3    H124375   3.111   1.873   0.039  0.1512 -2.4552 -0.5497
 8137TIP3    H224376   3.181   1.798   0.151  0.5751 -0.3232  0.6686
 8138TIP3   OH224377   3.382   2.569   5.369  0.4589  0.1729 -0.4653
 8138TIP3    H124378   3.336   2.514   5.306  0.0110  1.6494 -1.5019
 8138TIP3    H224379   3.319   2.584   5.439  0.5257 -0.4848 -0.2630
 8139TIP3   OH224380   0.816   1.462   4.975 -0.3537  0.1937 -0.4004
 8139TIP3    H124381   0.776   1.522   4.912 -3.1333 -0.1163  0.9163
 8139TIP3    H224382   0.748   1.449   5.042  0.9441 -2.7057  0.5052
 8140TIP3   OH224383   0.934   4.255   3.626  0.4960 -0.3674  0.5480
 8140TIP3    H124384   0.895   4.210   3.552 -2.2142  0.9150  1.0977
 8140TIP3    H224385   0.947   4.345   3.596 -0.7703  0.2030  1.6297
 8141TIP3   OH224386   6.440   4.460   3.885 -0.4089  0.2432  0.0697
 8141TIP3    H124387   6.433   4.551   3.856 -4.8470  0.7233  1.9893
 8141TIP3    H224388   6.379   4.412   3.829  1.3458 -1.5327 -0.4448
 8142TIP3   OH224389   2.817   2.354   4.871 -0.1749 -0.3283  0.1196
 8142TIP3    H124390   2.799   2.442   4.903 -1.4546  0.2327 -1.9522
 8142TIP3    H224391   2.891   2.324   4.923  0.3974  2.0197  0.7688
 8143TIP3   OH224392   2.920   5.700   1.551  0.4167  0.6801 -0.0966
 8143TIP3    H124393   2.872   5.621   1.576 -1.6756  2.0286  0.4339
 8143TIP3    H224394   2.889   5.719   1.462  2.3877 -0.1159 -1.0107
 8144TIP3   OH224395   5.158   5.485   3.034 -0.2591  0.1202  0.3186
 8144TIP3    H124396   5.073   5.522   3.009 -0.1339  1.1089  1.2808
 8144TIP3    H224397   5.150   5.469   3.128  0.5167 -0.0658  0.3578
 8145TIP3   OH224398   0.266   4.767   2.015 -0.5242  0.2538 -0.2833
 8145TIP3    H124399   0.358   4.742   2.012 -0.2259  1.3158 -0.3175
 8145TIP3    H224400   0.220   4.695   1.972  0.2469 -0.4571  0.0583
 8146TIP3   OH224401   6.140   0.173   2.294  0.5383  0.0842 -0.1789
 8146TIP3    H124402   6.073   0.185   2.361  1.6230  2.0217  0.6212
 8146TIP3    H224403   6.223   0.179   2.341  1.3091  0.1767 -1.4983
 8147TIP3   OH224404   1.438   0.827   1.311  0.1267  0.3110  0.2337
 8147TIP3    H124405   1.397   0.806   1.227  0.8641 -0.6971  0.1020
 8147TIP3    H224406   1.530   0.841   1.289 -0.1953  3.2677  0.3989
 8148TIP3   OH224407   3.791   4.396   3.380  0.8384 -0.6057  0.6781
 8148TIP3    H124408   3.884   4.379   3.394  1.0833  0.4560  0.4198
 8148TIP3    H224409   3.752   4.391   3.468  1.2937 -0.1667  0.9074
 8149TIP3   OH224410   7.096   6.194   0.933  0.0640  0.1006  0.0297
 8149TIP3    H124411   7.022   6.154   0.979  0.2637  0.4784  0.6921
 8149TIP3    H224412   7.172   6.145   0.963  0.1366 -0.0109 -0.3297
 8150TIP3   OH224413   2.363   1.026   3.119 -0.2940 -0.4745  0.2060
 8150TIP3    H124414   2.387   1.119   3.119 -0.4097 -0.4436  0.6015
 8150TIP3    H224415   2.410   0.989   3.193  1.0548 -1.0845 -0.9146
 8151TIP3   OH224416   6.792   1.894   5.090  0.0245 -0.2354  0.4510
 8151TIP3    H124417   6.789   1.827   5.159  0.4809 -0.2998  0.4082
 8151TIP3    H224418   6.884   1.919   5.085 -0.1907  0.6723  0.7324
 8152TIP3   OH224419   5.852   1.255   0.963  0.2273 -0.0207  0.0582
 8152TIP3    H124420   5.852   1.259   0.867  0.2173 -0.6610  0.0257
 8152TIP3    H224421   5.866   1.162   0.983 -1.0214 -0.0946  0.6752
 8153TIP3   OH224422   4.195   6.090   5.302  0.8217  0.2364 -0.8712
 8153TIP3    H124423   4.185   6.120   5.392 -1.0376 -0.1248 -0.9063
 8153TIP3    H224424   4.209   5.996   5.309 -0.9169 -0.0738 -0.9474
 8154TIP3   OH224425   0.584   0.692   3.650  0.3027  0.2750  0.0637
 8154TIP3    H124426   0.655   0.646   3.606  1.3168  1.4013  0.4623
 8154TIP3    H224427   0.512   0.692   3.587  0.4021 -1.4821 -0.0851
 8155TIP3   OH224428   5.521   3.764   2.455  0.1383 -0.1735  0.2859
 8155TIP3    H124429   5.540   3.673   2.430 -1.6727 -0.5964  0.3090
 8155TIP3    H224430   5.473   3.800   2.380 -1.9007 -0.2430  1.4708
 8156TIP3   OH224431   1.218   0.828   3.228 -0.1684  0.2649  0.2985
 8156TIP3    H124432   1.180   0.821   3.316 -0.4512  0.1862  0.1702
 8156TIP3    H224433   1.302   0.783   3.235 -2.5077 -5.0510 -0.8748
 8157TIP3   OH224434   4.626   3.141   5.338 -0.0734 -0.2724 -0.1690
 8157TIP3    H124435   4.560   3.165   5.273  0.7562 -0.7771 -1.2297
 8157TIP3    H224436   4.673   3.223   5.357  0.1153 -0.2463 -0.7256
 8158TIP3   OH224437   2.026   4.071   4.546 -0.2626  0.2555 -0.2590
 8158TIP3    H124438   2.047   4.104   4.458 -3.3973 -0.3129 -1.3595
 8158TIP3    H224439   2.069   3.986   4.550  0.0399  0.3494 -1.1967
 8159TIP3   OH224440   2.392   6.350   3.950 -0.1224 -0.3100  0.4478
 8159TIP3    H124441   2.377   6.355   3.856  1.9803 -3.9074 -0.2497
 8159TIP3    H224442   2.348   6.428   3.985  0.2761  2.0376 -3.5980
 8160TIP3   OH224443   1.555   6.060   5.451  0.2739  0.7123  0.0134
 8160TIP3    H124444   1.529   5.986   5.396 -0.0259  0.9878 -0.2193
 8160TIP3    H224445   1.598   6.121   5.392 -2.3191  2.1989 -0.4993
 8161TIP3   OH224446   0.196   4.549   0.880 -0.0967  0.1140  0.2179
 8161TIP3    H124447   0.169   4.461   0.908  0.8901 -0.1296  0.4458
 8161TIP3    H224448   0.115   4.599   0.877 -0.7651 -0.9542 -0.4726
 8162TIP3   OH224449   4.217   3.266   2.273 -0.3053  0.4517 -0.0918
 8162TIP3    H124450   4.309   3.249   2.291 -0.1455 -1.0139 -2.0153
 8162TIP3    H224451   4.215   3.356   2.242  0.3270  0.7730  0.7521
 8163TIP3   OH224452   2.120   0.685   4.073  0.7585 -0.7497 -0.1742
 8163TIP3    H124453   2.165   0.756   4.028  0.0630 -0.1672  0.0289
 8163TIP3    H224454   2.138   0.700   4.166  0.4491 -0.7255 -0.1177
 8164TIP3   OH224455   5.583   3.532   2.994 -0.5709  0.3494  0.0362
 8164TIP3    H124456   5.593   3.563   2.904  0.3778  0.7957  0.2736
 8164TIP3    H224457   5.503   3.574   3.026  0.0026  1.5763 -0.0648
 8165TIP3   OH224458   5.037   6.729   3.559  0.3434  0.1666 -0.0286
 8165TIP3    H124459   5.119   6.768   3.590 -0.4282  2.1556 -0.3092
 8165TIP3    H224460   4.986   6.804   3.527 -1.5598 -1.0150  0.0869
 8166TIP3   OH224461   3.400   5.891   0.612  0.2025  0.0872 -0.2128
 8166TIP3    H124462   3.416   5.930   0.698  1.6307 -0.7368 -0.0810
 8166TIP3    H224463   3.304   5.886   0.606  0.0634 -0.7442  1.7424
 8167TIP3   OH224464   0.816   2.379   0.147  0.2805 -0.2168  0.2968
 8167TIP3    H124465   0.777   2.308   0.197  2.6364 -0.3080  2.2185
 8167TIP3    H224466   0.903   2.347   0.123  0.9225  1.5170  0.1132
 8168TIP3   OH224467   2.816   1.352   5.185  0.2019  0.2386  0.0105
 8168TIP3    H124468   2.783   1.352   5.274  0.3386 -1.0402  0.0860
 8168TIP3    H224469   2.849   1.441   5.171 -0.9165  0.7917  0.8025
 8169TIP3   OH224470   0.510   5.710   2.463 -0.6861 -0.8890 -0.3615
 8169TIP3    H124471   0.502   5.616   2.449 -2.6053 -1.1937  1.9780
 8169TIP3    H224472   0.533   5.719   2.555  1.7180  0.9617 -1.0347
 8170TIP3   OH224473   4.455   6.452   1.341 -0.2889 -0.3929  0.3777
 8170TIP3    H124474   4.495   6.525   1.388 -1.0576 -0.3236  0.9359
 8170TIP3    H224475   4.361   6.463   1.355 -0.5471 -0.3559 -1.1872
 8171TIP3   OH224476   0.866   3.482   3.283  0.5726  0.2412  0.1991
 8171TIP3    H124477   0.792   3.422   3.283  0.2293  0.6195  1.7828
 8171TIP3    H224478   0.938   3.430   3.320  1.1487 -0.1569 -1.4239
 8172TIP3   OH224479   1.986   5.578   5.878 -0.0248  0.0877  0.6979
 8172TIP3    H124480   1.948   5.626   5.804  1.0627  1.1652  0.8053
 8172TIP3    H224481   1.958   5.488   5.865 -1.3831  0.5782 -0.0131
 8173TIP3   OH224482   3.945   1.059   3.143  0.0153 -0.0920 -0.3224
 8173TIP3    H124483   3.899   1.128   3.191  0.3846 -1.0565  1.4973
 8173TIP3    H224484   4.004   1.106   3.085  0.2394  1.1518  0.8527
 8174TIP3   OH224485   2.020   4.421   2.078  0.0635  0.0971  0.2602
 8174TIP3    H124486   2.062   4.335   2.077  0.9868  0.5401 -0.4643
 8174TIP3    H224487   1.961   4.419   2.154 -0.2972 -1.3379 -0.0375
 8175TIP3   OH224488   2.001   1.440   3.990  0.1310 -0.2608 -0.5345
 8175TIP3    H124489   1.974   1.430   4.081  0.4813  0.2332 -0.3752
 8175TIP3    H224490   2.078   1.497   3.993 -1.3121  1.8704 -1.3190
 8176TIP3   OH224491   2.320   3.305   2.738  0.0041  0.0107  0.0354
 8176TIP3    H124492   2.280   3.258   2.812 -0.0688  0.8473  0.5415
 8176TIP3    H224493   2.289   3.395   2.748  2.2844  0.7830  0.6453
 8177TIP3   OH224494   1.008   1.334   4.237 -0.2465 -0.1126  0.0014
 8177TIP3    H124495   0.919   1.312   4.265  0.2304 -0.8873  0.9698
 8177TIP3    H224496   1.011   1.430   4.239 -1.4053 -0.0190 -1.2077
 8178TIP3   OH224497   2.648   2.817   2.099  0.6952 -0.4886  0.0263
 8178TIP3    H124498   2.619   2.859   2.017 -0.4770 -2.5595 -0.6903
 8178TIP3    H224499   2.711   2.751   2.071 -0.7345 -2.1470  0.6113
 8179TIP3   OH224500   6.764   5.354   3.352  0.8429  0.1701  0.1494
 8179TIP3    H124501   6.848   5.315   3.327  1.1802  0.7494  0.3439
 8179TIP3    H224502   6.770   5.364   3.447  0.8065  0.7742  0.0949
 8180TIP3   OH224503   2.333   3.620   3.340 -0.6420 -0.4118  0.3025
 8180TIP3    H124504   2.261   3.559   3.327 -0.5188 -0.3514 -0.7140
 8180TIP3    H224505   2.337   3.670   3.259  1.3137 -1.2327 -0.1568
 8181TIP3   OH224506   3.204   3.390   2.281 -0.1648 -0.6088 -0.4260
 8181TIP3    H124507   3.198   3.297   2.261 -1.1384 -0.4825 -0.7926
 8181TIP3    H224508   3.290   3.417   2.249  0.3781 -1.5069  0.2516
 8182TIP3   OH224509   3.989   4.801   5.128  0.6471 -0.6990 -0.0179
 8182TIP3    H124510   3.924   4.732   5.131  0.9882 -1.0851 -1.2233
 8182TIP3    H224511   4.073   4.755   5.123  0.9717 -0.1996  0.5775
 8183TIP3   OH224512   2.172   5.992   3.668  0.6272 -0.4548  0.0695
 8183TIP3    H124513   2.137   6.071   3.710  2.3632 -0.7286  2.2367
 8183TIP3    H224514   2.116   5.921   3.700 -0.8981 -0.1998 -1.8343
 8184TIP3   OH224515   1.552   1.717   2.720  0.3362 -0.2172  0.6590
 8184TIP3    H124516   1.568   1.787   2.784 -1.2282  0.5710  0.2475
 8184TIP3    H224517   1.472   1.744   2.675 -0.6390 -2.5533  0.8500
 8185TIP3   OH224518   5.563   4.187   0.112 -0.8727  0.4504 -0.6889
 8185TIP3    H124519   5.596   4.186   0.022 -1.0481 -1.1183 -0.7519
 8185TIP3    H224520   5.622   4.247   0.158 -0.0822  0.3872 -1.5858
 8186TIP3   OH224521   1.741   4.943   3.431 -0.6266  0.2582 -0.5843
 8186TIP3    H124522   1.690   5.007   3.382  0.7971  1.0548 -1.0747
 8186TIP3    H224523   1.832   4.975   3.426 -0.1069 -0.9533  0.4975
 8187TIP3   OH224524   1.723   6.482   5.319 -0.0753  0.0949  0.1435
 8187TIP3    H124525   1.669   6.556   5.345 -1.1504 -0.4982 -0.3459
 8187TIP3    H224526   1.781   6.467   5.394  1.3910  2.5041 -0.4184
 8188TIP3   OH224527   2.913   0.204   3.263  0.1547  0.3827  0.0363
 8188TIP3    H124528   2.851   0.267   3.300  0.5105 -0.9333  3.1607
 8188TIP3    H224529   2.884   0.119   3.296  0.9079 -0.8989 -2.3594
 8189TIP3   OH224530   5.731   4.726   0.867 -0.2489  0.1568  0.1851
 8189TIP3    H124531   5.806   4.737   0.925  0.8286 -0.1915 -1.0830
 8189TIP3    H224532   5.769   4.727   0.779 -2.0133  2.3230 -0.6223
 8190TIP3   OH224533   5.064   3.618   1.894 -0.2298 -0.0613 -0.1922
 8190TIP3    H124534   5.078   3.536   1.846 -0.5475 -0.1541 -0.1308
 8190TIP3    H224535   4.974   3.644   1.871 -0.5196 -0.2926  0.6250
 8191TIP3   OH224536   6.780   0.932   5.312  0.4281  0.3682 -0.2123
 8191TIP3    H124537   6.741   0.876   5.379  1.4619 -1.4049 -1.0210
 8191TIP3    H224538   6.720   0.925   5.238  0.6849  0.0940 -0.3995
 8192TIP3   OH224539   6.028   3.151   4.067  0.5843  0.4870 -0.0438
 8192TIP3    H124540   5.995   3.067   4.098 -0.0584  1.0229  0.7725
 8192TIP3    H224541   6.087   3.129   3.995 -1.1502 -0.5437 -1.2122
 8193TIP3   OH224542   4.631   4.061   4.092  0.9673  0.4315  0.3621
 8193TIP3    H124543   4.559   4.006   4.121  0.0044  1.5500  0.1395
 8193TIP3    H224544   4.709   4.007   4.106  0.1695 -0.5191  1.2829
 8194TIP3   OH224545   3.762   5.300   5.414  0.4774  0.2719 -0.4300
 8194TIP3    H124546   3.776   5.363   5.343 -1.9218 -0.6018 -1.7876
 8194TIP3    H224547   3.707   5.232   5.375  1.4936 -1.7705  1.4943
 8195TIP3   OH224548   5.144   3.933   0.007  0.1043 -0.3735 -0.4594
 8195TIP3    H124549   5.095   4.003  -0.035  0.2550 -0.1410 -0.2466
 8195TIP3    H224550   5.078   3.885   0.058  0.3976  1.1180  1.4256
 8196TIP3   OH224551   3.406   6.426   1.723 -0.2214  0.1749 -0.1597
 8196TIP3    H124552   3.410   6.449   1.630  0.7582 -0.2352 -0.2254
 8196TIP3    H224553   3.331   6.476   1.756 -1.5670 -0.8541 -1.4959
 8197TIP3   OH224554   4.782   2.279   0.018  0.2831 -0.0305 -0.4814
 8197TIP3    H124555   4.849   2.224  -0.023 -0.4872 -1.0118 -0.4551
 8197TIP3    H224556   4.746   2.224   0.088 -0.7627  0.3677 -0.6955
 8198TIP3   OH224557   0.983   0.745   4.315 -0.1056  0.1350  0.0195
 8198TIP3    H124558   1.041   0.813   4.349  0.5320 -0.6571  0.5483
 8198TIP3    H224559   1.011   0.732   4.224  2.1515 -1.8371  0.8844
 8199TIP3   OH224560   5.796   0.102   2.725  0.2550  0.2751 -0.4828
 8199TIP3    H124561   5.713   0.146   2.706  0.1823  0.5709  0.4442
 8199TIP3    H224562   5.785   0.071   2.815  0.7990 -0.5093 -0.6849
 8200TIP3   OH224563   5.158   0.993   3.733  0.4340  0.2977  0.4402
 8200TIP3    H124564   5.252   1.011   3.723  1.0787 -1.9700  1.6960
 8200TIP3    H224565   5.125   0.987   3.644  2.2389 -2.1282 -0.1805
 8201TIP3   OH224566   3.896   5.798   0.593  0.3010 -0.4582  0.4717
 8201TIP3    H124567   3.814   5.843   0.609 -0.0247 -1.1425  0.7423
 8201TIP3    H224568   3.910   5.743   0.670  0.2975 -1.4104 -0.1848
 8202TIP3   OH224569   0.452   3.095   4.967  0.1410  0.0138  0.0634
 8202TIP3    H124570   0.493   3.095   5.054 -0.0312  0.3966  0.1452
 8202TIP3    H224571   0.524   3.112   4.907  0.1483  0.4454  0.1887
 8203TIP3   OH224572   3.757   5.942   4.860  0.5828  0.0383 -0.3908
 8203TIP3    H124573   3.692   5.879   4.827  0.9514 -1.1198  1.0067
 8203TIP3    H224574   3.830   5.935   4.799  1.3641 -2.2600  0.6710
 8204TIP3   OH224575   6.982   0.796   1.037 -0.0166 -0.0952  0.1581
 8204TIP3    H124576   6.948   0.740   1.107  1.0676 -1.2915 -0.2252
 8204TIP3    H224577   6.978   0.741   0.959 -1.8214  1.4346 -0.9081
 8205TIP3   OH224578   2.105   3.361   2.408  0.0492 -0.2513 -0.3401
 8205TIP3    H124579   2.101   3.272   2.442 -1.2961 -0.7118 -1.6072
 8205TIP3    H224580   2.014   3.388   2.400  0.4403  1.3860  0.3223
 8206TIP3   OH224581   0.248   5.840   2.665 -0.2220 -0.2216  0.2240
 8206TIP3    H124582   0.209   5.927   2.654 -0.6676 -0.2310  1.5365
 8206TIP3    H224583   0.341   5.857   2.678 -0.1384 -0.0297 -0.5461
 8207TIP3   OH224584   4.670   2.819   2.432 -0.1977 -0.1265  0.1246
 8207TIP3    H124585   4.658   2.738   2.382  0.1616  0.4882 -0.9938
 8207TIP3    H224586   4.582   2.849   2.452 -0.3641 -0.1563 -0.5359
 8208TIP3   OH224587   6.591   2.284   2.199 -0.1991 -0.4151 -0.3558
 8208TIP3    H124588   6.636   2.209   2.160  0.3871  0.2434 -0.9785
 8208TIP3    H224589   6.507   2.249   2.229  0.4376 -1.5070  0.1786
 8209TIP3   OH224590   1.541   2.070   2.439 -0.0379 -0.0730  0.2986
 8209TIP3    H124591   1.586   2.083   2.355 -0.5767  0.9617  0.1450
 8209TIP3    H224592   1.555   1.978   2.460  0.2855 -0.2996 -0.8247
 8210TIP3   OH224593   5.699   1.183   0.387 -0.7750  0.8086  0.2838
 8210TIP3    H124594   5.739   1.269   0.396 -1.8096  1.0879  3.5322
 8210TIP3    H224595   5.619   1.199   0.336 -0.5509  1.6018  0.1687
 8211TIP3   OH224596   6.565   0.148   4.118 -0.0010  0.2583  0.1524
 8211TIP3    H124597   6.603   0.082   4.175 -1.6924 -0.2174  0.8115
 8211TIP3    H224598   6.529   0.213   4.179  0.8840  1.3640 -0.4704
 8212TIP3   OH224599   2.886   6.188   4.867 -0.6537 -0.0805 -0.4962
 8212TIP3    H124600   2.882   6.264   4.926 -1.1520  0.2035 -0.8899
 8212TIP3    H224601   2.884   6.226   4.779  0.0762 -0.5043 -0.7011
 8213TIP3   OH224602   3.695   5.284   3.488 -0.5402 -0.2686 -0.7812
 8213TIP3    H124603   3.651   5.203   3.462 -0.1295 -1.3415  1.6226
 8213TIP3    H224604   3.626   5.350   3.488 -1.3962 -1.1480 -0.4815
 8214TIP3   OH224605   1.033   3.363   3.487  0.6418 -0.9164  0.3167
 8214TIP3    H124606   1.104   3.414   3.524  1.5494 -3.4220  2.3057
 8214TIP3    H224607   0.961   3.373   3.548  0.3663 -0.9361  0.0002
 8215TIP3   OH224608   3.590   5.024   3.346  0.1185  0.0001 -0.3177
 8215TIP3    H124609   3.621   4.945   3.301 -1.0087 -0.2201 -0.7619
 8215TIP3    H224610   3.510   4.996   3.391  0.6457  0.4846  0.9577
 8216TIP3   OH224611   5.803   6.209   5.189 -0.4094 -0.2096 -0.2221
 8216TIP3    H124612   5.848   6.125   5.196 -0.4124 -0.3367 -1.5492
 8216TIP3    H224613   5.729   6.192   5.131 -0.5566  0.6462 -0.2913
 8217TIP3   OH224614   6.673   4.775   2.569 -0.1678 -0.4146 -0.0900
 8217TIP3    H124615   6.611   4.769   2.642 -0.9034 -0.4269 -0.7075
 8217TIP3    H224616   6.656   4.860   2.530  2.2446  0.9212  1.5071
 8218TIP3   OH224617   6.668   2.844   2.393  0.4802  0.1676 -0.1536
 8218TIP3    H124618   6.662   2.865   2.486 -0.6298  0.0287 -0.1815
 8218TIP3    H224619   6.635   2.754   2.387  1.1776 -0.0640 -0.5998
 8219TIP3   OH224620   4.682   4.180   5.515  0.1221 -0.2422 -0.3712
 8219TIP3    H124621   4.612   4.244   5.503  0.3278 -0.3452 -2.4523
 8219TIP3    H224622   4.706   4.188   5.607  0.4001  2.9345 -0.6108
 8220TIP3   OH224623   5.496   4.261   3.264 -0.8680  0.4268 -0.1778
 8220TIP3    H124624   5.585   4.252   3.300 -1.2612  1.6854  1.2446
 8220TIP3    H224625   5.494   4.350   3.227 -0.9856 -0.2743 -1.9267
 8221TIP3   OH224626   6.549   0.232   5.201  0.0118  0.4342  0.3227
 8221TIP3    H124627   6.538   0.153   5.148 -4.7032  0.5760  0.6425
 8221TIP3    H224628   6.623   0.278   5.160  0.4827 -2.2829 -2.2670
 8222TIP3   OH224629   4.001   4.739   3.252  0.0198 -0.4473  0.7166
 8222TIP3    H124630   3.919   4.715   3.209 -1.5971  1.5782  2.4691
 8222TIP3    H224631   4.007   4.834   3.241  2.0478 -0.5137  0.8436
 8223TIP3   OH224632   4.153   2.665   3.316 -0.0921 -0.5509 -0.3412
 8223TIP3    H124633   4.158   2.675   3.221  0.5090  0.2682 -0.2358
 8223TIP3    H224634   4.244   2.669   3.345 -0.0982 -2.6992  0.1152
 8224TIP3   OH224635   1.444   6.440   1.816  0.1362 -0.1749  0.2080
 8224TIP3    H124636   1.499   6.462   1.740  0.3298  0.5136  0.5426
 8224TIP3    H224637   1.379   6.380   1.781  1.3802 -1.4039 -0.1092
 8225TIP3   OH224638   1.173   4.708   3.416 -0.4524 -0.3926  0.5967
 8225TIP3    H124639   1.209   4.765   3.348 -1.0358  0.0542  0.6481
 8225TIP3    H224640   1.084   4.742   3.430 -0.9637 -1.5804  0.3216
 8226TIP3   OH224641   5.591   4.932   4.799 -0.1276 -0.5145 -0.0939
 8226TIP3    H124642   5.498   4.907   4.803  0.1424 -1.7094 -0.7913
 8226TIP3    H224643   5.636   4.862   4.846  0.4256  0.1313  0.3569
 8227TIP3   OH224644   3.082   1.939   0.567  0.4068  0.1013 -0.3826
 8227TIP3    H124645   3.168   1.932   0.526  1.0943  2.1045  0.5952
 8227TIP3    H224646   3.083   1.873   0.636  0.8949 -0.3310 -0.7924
 8228TIP3   OH224647   1.270   6.293   1.706  0.0274  0.0659  0.2962
 8228TIP3    H124648   1.280   6.245   1.624  1.7025  1.6394 -0.5076
 8228TIP3    H224649   1.227   6.232   1.765 -2.2773 -0.7591 -2.0550
 8229TIP3   OH224650   3.303   6.621   3.277 -0.1690  0.0662 -0.5732
 8229TIP3    H124651   3.360   6.669   3.217 -0.8687 -1.4403 -2.5265
 8229TIP3    H224652   3.295   6.679   3.353  2.8130  0.9236 -0.7820
 8230TIP3   OH224653   4.562   1.481   2.631 -0.1286 -0.3986 -0.1138
 8230TIP3    H124654   4.546   1.566   2.589 -0.7562 -1.3142 -1.8555
 8230TIP3    H224655   4.602   1.428   2.562  1.4565 -1.1546  1.3206
 8231TIP3   OH224656   6.624   1.994   5.428 -0.4611 -0.0894  0.5269
 8231TIP3    H124657   6.580   1.918   5.466 -1.7552  0.0391 -0.6173
 8231TIP3    H224658   6.590   2.068   5.478  0.4253 -0.2050  1.3186
 8232TIP3   OH224659   6.854   0.254   3.501  0.2614  0.3271  0.3928
 8232TIP3    H124660   6.923   0.194   3.474 -0.3378  0.8140 -2.5863
 8232TIP3    H224661   6.888   0.296   3.579  1.0215 -3.2551  2.2092
 8233TIP3   OH224662   4.528   1.531   1.519  0.0029 -0.3934 -0.2277
 8233TIP3    H124663   4.434   1.520   1.512 -0.1315 -0.6708  1.5047
 8233TIP3    H224664   4.540   1.619   1.556  0.3438 -0.8323  0.7430
 8234TIP3   OH224665   3.775   4.573   1.099  0.2980 -0.2922 -0.0550
 8234TIP3    H124666   3.803   4.634   1.030 -2.2839  1.2053  0.1045
 8234TIP3    H224667   3.712   4.515   1.056 -3.1764  2.1152  1.2903
 8235TIP3   OH224668   6.592   3.550   2.403 -0.2314  0.1606 -0.1824
 8235TIP3    H124669   6.611   3.474   2.458  0.5147 -0.1764 -0.8926
 8235TIP3    H224670   6.509   3.584   2.437 -0.8859 -1.3161 -0.2188
 8236TIP3   OH224671   1.200   5.062   0.797 -0.2021  0.8094  0.8015
 8236TIP3    H124672   1.278   5.078   0.743  0.2717 -0.6202  1.0079
 8236TIP3    H224673   1.211   4.972   0.828 -2.6222  0.0442 -0.3135
 8237TIP3   OH224674   0.703   5.799   1.630 -0.5107 -0.1465  0.1732
 8237TIP3    H124675   0.718   5.712   1.593 -0.1181  0.7638 -1.9312
 8237TIP3    H224676   0.695   5.783   1.724  1.0448 -2.2629  0.0259
 8238TIP3   OH224677   0.113   2.172   2.348 -0.5666 -0.2960 -0.0529
 8238TIP3    H124678   0.033   2.222   2.332 -0.4072  0.0180  0.1177
 8238TIP3    H224679   0.171   2.234   2.391  0.7415  0.2822 -2.4644
 8239TIP3   OH224680   4.281   4.303   1.291  0.6202  0.2485 -0.3250
 8239TIP3    H124681   4.244   4.377   1.242 -1.3265 -0.4937 -0.0811
 8239TIP3    H224682   4.272   4.329   1.383 -0.3705 -0.3952 -0.2266
 8240TIP3   OH224683   6.003   6.482   0.522  0.4546  0.5055 -0.0863
 8240TIP3    H124684   6.041   6.485   0.434 -0.3223  0.7987 -0.4230
 8240TIP3    H224685   5.927   6.540   0.517 -0.8081 -1.0494  0.1800
 8241TIP3   OH224686   1.460   4.132   4.960 -0.7456 -0.1090  0.2345
 8241TIP3    H124687   1.542   4.136   4.911 -0.7056  0.1401  0.3241
 8241TIP3    H224688   1.454   4.041   4.990 -0.4739 -0.1112  0.2778
 8242TIP3   OH224689   3.573   0.342   5.665 -0.1383 -0.6288 -0.6377
 8242TIP3    H124690   3.527   0.258   5.674 -2.0348  0.4070  0.0045
 8242TIP3    H224691   3.521   0.390   5.601  1.8627 -0.5024 -2.2542
 8243TIP3   OH224692   3.775   1.689   5.271  0.7210 -0.0845  0.0016
 8243TIP3    H124693   3.814   1.770   5.306  0.2100  0.4678 -0.6801
 8243TIP3    H224694   3.732   1.648   5.346  1.1405  0.1815  0.3924
 8244TIP3   OH224695   4.784   3.582   0.349 -0.0107 -0.0617  0.5077
 8244TIP3    H124696   4.748   3.670   0.364 -0.2290  0.0947 -0.8143
 8244TIP3    H224697   4.769   3.566   0.256 -0.1682 -1.6011  0.7744
 8245TIP3   OH224698   2.670   3.083   1.576 -0.0814 -0.6045  0.1549
 8245TIP3    H124699   2.757   3.043   1.567 -0.3152 -0.9014 -1.0112
 8245TIP3    H224700   2.665   3.111   1.667  0.1767 -3.0420  0.9832
 8246TIP3   OH224701   4.425   5.660   0.936  0.0094  0.2475 -0.0086
 8246TIP3    H124702   4.494   5.723   0.915 -0.6632  1.0040 -0.0072
 8246TIP3    H224703   4.415   5.665   1.031 -0.2521  0.3653 -0.0413
 8247TIP3   OH224704   4.588   0.912   4.382 -0.2576 -0.1551  0.4273
 8247TIP3    H124705   4.595   0.887   4.475  0.8558  0.6047  0.5655
 8247TIP3    H224706   4.645   0.987   4.374 -0.9070  0.2279 -0.7408
 8248TIP3   OH224707   4.712   3.882   2.244 -0.6160 -0.7108 -0.1262
 8248TIP3    H124708   4.720   3.978   2.237  0.3428 -0.8461 -1.4799
 8248TIP3    H224709   4.788   3.849   2.195 -0.6669 -2.1657  0.7362
 8249TIP3   OH224710   1.691   4.292   3.880 -0.8187 -0.2186  0.5497
 8249TIP3    H124711   1.760   4.238   3.919  0.0229  1.3961  1.3899
 8249TIP3    H224712   1.612   4.238   3.885 -0.1122 -1.1811  1.8402
 8250TIP3   OH224713   2.915   1.347   0.028 -0.1332 -0.6568 -0.2335
 8250TIP3    H124714   2.894   1.389   0.111  0.1978 -0.1175 -0.4167
 8250TIP3    H224715   2.838   1.295   0.007 -0.7881  0.3211 -0.2890
 8251TIP3   OH224716   2.559   0.855   0.731 -0.0559 -0.0744 -0.1608
 8251TIP3    H124717   2.593   0.917   0.795 -0.9536  0.0139  0.2457
 8251TIP3    H224718   2.486   0.812   0.775 -2.0720  1.4821 -1.8090
 8252TIP3   OH224719   3.595   5.868   2.837 -0.2197  0.4081  0.1141
 8252TIP3    H124720   3.675   5.919   2.829  0.6526 -0.9781 -0.3796
 8252TIP3    H224721   3.625   5.777   2.843 -1.7359 -0.1038  0.3928
 8253TIP3   OH224722   3.049   5.924   4.114  0.3568 -0.6272 -0.2474
 8253TIP3    H124723   3.057   5.855   4.048  1.6571 -0.5684 -0.1859
 8253TIP3    H224724   3.056   5.878   4.198  2.2683 -0.3738 -0.2087
 8254TIP3   OH224725   0.261   4.784   3.234 -0.2880 -0.0158 -0.1923
 8254TIP3    H124726   0.241   4.715   3.171  1.3134  0.0215 -0.7892
 8254TIP3    H224727   0.181   4.838   3.236 -1.2493 -1.3782 -0.3462
 8255TIP3   OH224728   3.316   0.804   5.468  0.2719  0.1259 -0.0910
 8255TIP3    H124729   3.400   0.838   5.440  0.0812  1.0818  0.4438
 8255TIP3    H224730   3.333   0.764   5.553 -0.1635  2.2239  1.0638
 8256TIP3   OH224731   3.317   3.039   0.798  0.0720 -0.5085 -0.1162
 8256TIP3    H124732   3.410   3.060   0.809  0.1929 -0.6642 -0.8329
 8256TIP3    H224733   3.308   3.011   0.707 -0.8091  0.1996 -0.2679
 8257TIP3   OH224734   3.018   2.313   2.881  0.1523 -0.0462 -0.3597
 8257TIP3    H124735   2.973   2.386   2.838 -0.1384 -0.4042 -0.6671
 8257TIP3    H224736   2.976   2.235   2.846  0.1842 -0.3548  0.2879
 8258TIP3   OH224737   4.557   2.575   4.937  0.4776  0.4360 -0.3502
 8258TIP3    H124738   4.509   2.641   4.987  1.9252  0.5274  1.0292
 8258TIP3    H224739   4.610   2.531   5.003  0.4844 -1.2623 -1.4524
 8259TIP3   OH224740   4.524   4.355   4.336  0.0845 -0.2629  0.4363
 8259TIP3    H124741   4.503   4.433   4.388 -1.2409  0.3564 -0.9466
 8259TIP3    H224742   4.523   4.283   4.400  0.0716  0.6677  1.5241
 8260TIP3   OH224743   5.882   4.159   5.285 -0.1966  0.4735  0.4790
 8260TIP3    H124744   5.849   4.244   5.314 -0.1671  0.3665  0.8325
 8260TIP3    H224745   5.837   4.143   5.201 -1.1499  0.2669  1.0144
 8261TIP3   OH224746   0.343   5.767   1.577 -0.0949  0.0139 -0.4272
 8261TIP3    H124747   0.402   5.823   1.627 -0.4761  0.4533 -0.4644
 8261TIP3    H224748   0.369   5.678   1.601 -0.1967  0.2180  0.4621
 8262TIP3   OH224749   3.242   1.815   2.527  0.4969  0.1660 -0.5726
 8262TIP3    H124750   3.246   1.792   2.434  3.3375  1.0433 -0.7683
 8262TIP3    H224751   3.287   1.743   2.571  0.4116  0.4382 -0.0328
 8263TIP3   OH224752   6.245   4.998   4.696  0.0661  0.4579  0.5433
 8263TIP3    H124753   6.275   5.053   4.624 -0.4557 -0.9707 -0.8160
 8263TIP3    H224754   6.311   4.929   4.702 -0.3287  0.1108  0.9068
 8264TIP3   OH224755   0.446   0.170   4.668  0.3565 -0.1762 -0.1131
 8264TIP3    H124756   0.463   0.093   4.614  1.4938 -0.0240  0.0050
 8264TIP3    H224757   0.508   0.236   4.638 -0.2560  0.5348  0.1314
 8265TIP3   OH224758   5.527   1.421   2.846 -0.1025 -0.2053 -0.1261
 8265TIP3    H124759   5.500   1.403   2.755  0.2654 -0.0542 -0.2666
 8265TIP3    H224760   5.600   1.360   2.861 -0.0948 -0.1554  0.0345
 8266TIP3   OH224761   3.772   2.147   1.816 -0.0207 -0.4305  0.6940
 8266TIP3    H124762   3.782   2.082   1.885 -0.1160  0.9261  2.0344
 8266TIP3    H224763   3.686   2.186   1.831 -0.4259 -0.7160 -0.7385
 8267TIP3   OH224764   0.033   0.376   2.170 -0.0446  0.2873 -0.0459
 8267TIP3    H124765   0.007   0.337   2.253  0.8342  0.0718  0.1397
 8267TIP3    H224766  -0.024   0.453   2.160  1.8146  2.1163  2.2760
 8268TIP3   OH224767   5.568   3.611   0.315  0.1685 -0.6440 -0.1042
 8268TIP3    H124768   5.645   3.665   0.295  0.9856 -1.7178  0.0441
 8268TIP3    H224769   5.602   3.540   0.369 -0.9978 -0.9590  0.2416
 8269TIP3   OH224770   5.684   5.520   4.554  0.4722  0.0485 -0.5365
 8269TIP3    H124771   5.593   5.512   4.525 -0.0795  0.8103  0.8866
 8269TIP3    H224772   5.694   5.450   4.620 -0.0236  1.7733  1.4668
 8270TIP3   OH224773   0.046   5.367   4.719 -0.2537  0.7124  0.2116
 8270TIP3    H124774  -0.006   5.417   4.656 -0.9244  0.2643  0.3926
 8270TIP3    H224775   0.001   5.380   4.803  0.9240  1.7301  0.7190
 8271TIP3   OH224776   1.983   2.053   3.535  0.5801  0.1860 -0.0723
 8271TIP3    H124777   1.904   2.000   3.531  1.5180 -1.2126 -0.6124
 8271TIP3    H224778   2.021   2.034   3.621  0.5260  0.5865  0.0450
 8272TIP3   OH224779   0.558   1.798   1.701 -0.2729 -0.3818 -0.0119
 8272TIP3    H124780   0.621   1.841   1.644 -1.0623  0.3697 -0.3486
 8272TIP3    H224781   0.497   1.756   1.641  0.1775 -1.5234  0.3146
 8273TIP3   OH224782   1.722   0.350   2.210 -0.1622  0.1039  0.8648
 8273TIP3    H124783   1.731   0.308   2.296 -0.0714  0.3938  1.0011
 8273TIP3    H224784   1.791   0.417   2.209  0.0934 -0.1623  0.4043
 8274TIP3   OH224785   3.756   5.920   5.131 -0.5786  0.0220 -0.5191
 8274TIP3    H124786   3.739   6.013   5.145 -1.2760 -0.2390  0.4169
 8274TIP3    H224787   3.777   5.914   5.038 -0.6137  1.0963 -0.6128
 8275TIP3   OH224788   1.093   4.723   1.998 -0.2702 -0.1110  0.3284
 8275TIP3    H124789   1.040   4.643   2.000  0.6767 -0.7692 -0.1459
 8275TIP3    H224790   1.029   4.794   1.991 -1.1040 -0.8650  0.1213
 8276TIP3   OH224791   0.686   1.071   1.717 -0.3688  0.1646 -0.2905
 8276TIP3    H124792   0.645   1.156   1.701  1.0355  1.1513  1.0170
 8276TIP3    H224793   0.780   1.091   1.723 -0.0801 -1.3467  0.8359
 8277TIP3   OH224794   0.303   0.569   3.807  0.1403 -0.0369  0.2533
 8277TIP3    H124795   0.245   0.495   3.822  1.0891 -1.9412 -4.1243
 8277TIP3    H224796   0.383   0.547   3.856  0.2087 -1.7189 -0.5466
 8278TIP3   OH224797   3.275   1.206   2.098 -0.6973 -0.1353 -0.5307
 8278TIP3    H124798   3.343   1.144   2.073 -0.8529 -0.4488 -0.2051
 8278TIP3    H224799   3.321   1.277   2.142 -0.5984 -0.4548 -0.1116
 8279TIP3   OH224800   0.198   1.524   3.048  0.6476 -0.3627  0.1940
 8279TIP3    H124801   0.156   1.607   3.068  0.0670 -0.3949 -0.8580
 8279TIP3    H224802   0.213   1.484   3.134  0.6605  0.6790  0.6915
 8280TIP3   OH224803   3.452   5.899   1.942 -0.6586  0.8607  0.4631
 8280TIP3    H124804   3.422   5.810   1.922 -2.7291  1.4609  0.6949
 8280TIP3    H224805   3.380   5.956   1.914  0.9310  2.5543 -0.4089
 8281TIP3   OH224806   4.137   2.070   3.091 -0.1706  0.2409  0.6147
 8281TIP3    H124807   4.072   2.002   3.073  0.0356  0.8484 -3.1014
 8281TIP3    H224808   4.086   2.146   3.119 -0.8887  0.0398 -0.1195
 8282TIP3   OH224809   1.512   3.741   2.014  0.0929  0.7420  0.2443
 8282TIP3    H124810   1.506   3.833   1.990 -0.8216  0.6091 -0.0769
 8282TIP3    H224811   1.496   3.693   1.933 -1.5503  0.3045  0.7929
 8283TIP3   OH224812   3.921   2.361   0.748 -0.3963  0.2706 -0.1208
 8283TIP3    H124813   3.876   2.382   0.830 -0.7650  0.6150 -0.4063
 8283TIP3    H224814   3.872   2.288   0.712 -0.9769  0.9010 -0.6269
 8284TIP3   OH224815   5.545   6.685   0.242  0.1828 -0.8173 -0.2364
 8284TIP3    H124816   5.612   6.652   0.182 -0.2476 -3.5330  0.6602
 8284TIP3    H224817   5.463   6.676   0.195  0.1419 -0.0065 -0.3427
 8285TIP3   OH224818   6.425   3.108   0.303  0.6571 -0.0811 -0.9049
 8285TIP3    H124819   6.404   3.164   0.377 -2.9340 -0.8082 -1.2173
 8285TIP3    H224820   6.481   3.040   0.340  0.1714  0.3973  0.7907
 8286TIP3   OH224821   6.385   4.889   2.550 -0.4166 -0.3842 -0.1329
 8286TIP3    H124822   6.408   4.959   2.489  0.6980 -0.3349  0.3155
 8286TIP3    H224823   6.417   4.918   2.635 -2.9744  0.0659  0.7730
 8287TIP3   OH224824   5.763   3.275   2.225  0.6283  0.0603 -0.4500
 8287TIP3    H124825   5.752   3.180   2.216 -0.1446  0.1444 -0.4534
 8287TIP3    H224826   5.787   3.305   2.138  0.6249 -0.1002 -0.5065
 8288TIP3   OH224827   0.724   6.262   4.182 -0.1454  0.0678  0.7794
 8288TIP3    H124828   0.691   6.174   4.168 -0.8107  0.3635  0.4803
 8288TIP3    H224829   0.707   6.279   4.275  1.1282 -0.5818  1.1553
 8289TIP3   OH224830   1.304   1.654   1.811  0.7126 -0.2097 -0.1471
 8289TIP3    H124831   1.277   1.613   1.729 -0.4316 -1.8238  0.9833
 8289TIP3    H224832   1.305   1.748   1.792  0.8348 -0.5704 -2.0898
 8290TIP3   OH224833   6.565   3.825   2.150  0.3218  0.2003  0.6895
 8290TIP3    H124834   6.471   3.827   2.130 -0.0957  0.8868  2.5033
 8290TIP3    H224835   6.583   3.734   2.170 -0.2167  0.2255  1.3368
 8291TIP3   OH224836   5.541   2.385   3.034 -0.0595 -0.2778  0.4932
 8291TIP3    H124837   5.466   2.440   3.013  0.1950 -0.3078 -0.5502
 8291TIP3    H224838   5.617   2.441   3.017  0.2006 -0.9142 -0.5356
 8292TIP3   OH224839   1.264   0.959   3.988 -0.2027 -0.0869 -0.2657
 8292TIP3    H124840   1.206   0.956   3.911 -1.0116  0.2004  0.3253
 8292TIP3    H224841   1.213   1.004   4.055  1.4125  1.8940 -0.3008
 8293TIP3   OH224842   2.699   0.836   2.052  0.1013  0.1904  0.5471
 8293TIP3    H124843   2.644   0.911   2.072  1.9192  2.1995 -1.4091
 8293TIP3    H224844   2.782   0.854   2.096  1.2409  0.4338 -1.5757
 8294TIP3   OH224845   7.001   6.295   3.115  0.5294 -0.4189 -0.2497
 8294TIP3    H124846   6.994   6.201   3.128 -1.3079 -0.2299  0.3355
 8294TIP3    H224847   6.911   6.327   3.116  1.1771  1.6366  1.8188
 8295TIP3   OH224848   4.249   4.979   5.299 -0.1169  0.3625  0.1462
 8295TIP3    H124849   4.263   5.069   5.270  0.0337  0.3964  0.3221
 8295TIP3    H224850   4.336   4.945   5.319 -0.0410 -0.2499 -1.1393
 8296TIP3   OH224851   3.684   1.481   3.824  0.3783 -0.2786  0.0246
 8296TIP3    H124852   3.724   1.536   3.892 -0.4778  1.8241 -1.0827
 8296TIP3    H224853   3.644   1.409   3.872  0.9728  0.3993  1.6233
 8297TIP3   OH224854   6.152   3.274   4.801  0.1495 -0.1951  0.0851
 8297TIP3    H124855   6.213   3.319   4.742 -0.2222  0.2486  0.0397
 8297TIP3    H224856   6.089   3.232   4.743  1.4070 -2.1569  0.0396
 8298TIP3   OH224857   2.883   4.723   5.730 -0.2162 -0.1871 -0.6204
 8298TIP3    H124858   2.964   4.773   5.736  0.1301 -0.9124  2.3480
 8298TIP3    H224859   2.813   4.789   5.734  0.1545  0.4050 -2.7623
 8299TIP3   OH224860   4.623   4.628   4.653 -0.0839 -0.5884  0.4226
 8299TIP3    H124861   4.649   4.549   4.699 -0.7487 -1.0857 -0.0323
 8299TIP3    H224862   4.538   4.651   4.690  0.7887  0.8312  1.6658
 8300TIP3   OH224863   4.498   5.849   3.410 -0.2329  0.1651  1.2339
 8300TIP3    H124864   4.434   5.911   3.376 -2.5584 -1.5209  2.2948
 8300TIP3    H224865   4.528   5.801   3.333 -0.1028  1.0603  0.7086
 8301TIP3   OH224866   4.102   6.812   3.031 -0.3536  0.0248 -0.6309
 8301TIP3    H124867   4.169   6.748   3.057  1.7931  2.1900 -0.5183
 8301TIP3    H224868   4.100   6.806   2.935  0.0212 -0.0656 -0.6378
 8302TIP3   OH224869   3.072   2.206   4.717 -0.5042  0.2391 -0.1878
 8302TIP3    H124870   3.107   2.206   4.806 -0.0903 -1.0808 -0.3370
 8302TIP3    H224871   2.986   2.247   4.726  0.3576  2.0519  0.4437
 8303TIP3   OH224872   0.311   4.082   4.047 -0.1991  0.8270  0.1972
 8303TIP3    H124873   0.330   4.091   3.953  0.3569  1.2166  0.3389
 8303TIP3    H224874   0.216   4.069   4.051 -0.3430  1.5804 -0.3783
 8304TIP3   OH224875   2.084   0.276   5.029 -0.3395 -0.0119  0.1033
 8304TIP3    H124876   2.157   0.219   5.007 -1.3545 -1.0576 -0.6893
 8304TIP3    H224877   2.115   0.327   5.104  1.7447  0.7136 -1.1831
 8305TIP3   OH224878   4.574   3.627   1.065  0.3376  0.1239 -0.3865
 8305TIP3    H124879   4.530   3.666   1.140  3.2479 -0.1734  1.6051
 8305TIP3    H224880   4.638   3.692   1.037  1.6549 -1.1140 -0.3591
 8306TIP3   OH224881   5.398   5.429   1.780 -0.2627 -0.5034  0.5503
 8306TIP3    H124882   5.416   5.374   1.857 -1.0781 -0.7575  0.5704
 8306TIP3    H224883   5.308   5.407   1.755  0.0468 -0.5349 -0.5802
 8307TIP3   OH224884   6.149   1.980   1.963 -0.4446  0.1742 -0.1937
 8307TIP3    H124885   6.157   1.886   1.949 -0.8946  0.1290 -0.1655
 8307TIP3    H224886   6.109   1.988   2.050  0.7757  0.4171  0.3730
 8308TIP3   OH224887   4.376   1.622   3.333 -0.2761 -0.3456 -0.3636
 8308TIP3    H124888   4.405   1.633   3.424  0.3258  1.7574 -0.7583
 8308TIP3    H224889   4.284   1.649   3.333  0.2371  1.5253 -0.6823
 8309TIP3   OH224890   1.560   5.874   4.428 -0.1130 -0.2206  0.1916
 8309TIP3    H124891   1.542   5.968   4.437 -1.3238 -0.4853  0.7635
 8309TIP3    H224892   1.649   5.870   4.393 -0.1785  1.1472 -0.2011
 8310TIP3   OH224893   1.777   1.754   0.423  0.2981 -0.0918  0.0334
 8310TIP3    H124894   1.861   1.795   0.403  0.0470  0.9275  0.9484
 8310TIP3    H224895   1.713   1.808   0.376  0.1142 -0.5171 -0.2020
 8311TIP3   OH224896   5.535   3.999   4.341 -0.4166  0.6031  0.1656
 8311TIP3    H124897   5.620   3.966   4.313 -0.6287  1.2898 -1.4543
 8311TIP3    H224898   5.477   3.980   4.267 -2.3308 -2.0692  2.1292
 8312TIP3   OH224899   0.995   2.961   3.738  0.8309 -0.5448 -1.1110
 8312TIP3    H124900   1.042   2.894   3.787 -1.5658 -0.8552  1.0153
 8312TIP3    H224901   1.046   3.041   3.751  0.4794 -0.6839  1.7924
 8313TIP3   OH224902   2.336   1.692   5.429 -0.4476  0.6567  0.2389
 8313TIP3    H124903   2.415   1.658   5.389 -0.6803 -0.7819  0.9553
 8313TIP3    H224904   2.276   1.618   5.432 -0.6201  0.8214  2.7546
 8314TIP3   OH224905   6.582   0.845   3.484 -0.0855 -0.9491  0.1064
 8314TIP3    H124906   6.535   0.927   3.498  2.2526  0.6696 -0.8848
 8314TIP3    H224907   6.579   0.801   3.569 -0.2313  0.8141  1.0706
 8315TIP3   OH224908   7.088   5.869   2.404  0.0503  0.3040 -0.1793
 8315TIP3    H124909   7.060   5.806   2.470  1.2467 -0.7217 -0.6143
 8315TIP3    H224910   7.183   5.864   2.404  0.3525  3.4754  1.0759
 8316TIP3   OH224911   2.334   2.888   1.991 -0.1982  0.7225 -0.2090
 8316TIP3    H124912   2.411   2.842   1.958  0.3509  1.6187 -0.2236
 8316TIP3    H224913   2.357   2.981   1.984 -0.5825  0.9721  1.4606
 8317TIP3   OH224914   3.445   4.037   3.865  0.1088  0.5691 -0.0742
 8317TIP3    H124915   3.452   4.118   3.916  1.7575  2.4636 -2.9796
 8317TIP3    H224916   3.381   4.058   3.796 -0.0996 -0.9551 -0.3834
 8318TIP3   OH224917   6.178   1.140   0.144 -0.3328 -0.4128  0.0474
 8318TIP3    H124918   6.120   1.199   0.192  0.0411  0.3474 -0.4274
 8318TIP3    H224919   6.125   1.062   0.129 -1.0119  0.0115  0.2067
 8319TIP3   OH224920   3.827   6.481   4.635 -0.2066  0.3505  0.4568
 8319TIP3    H124921   3.892   6.459   4.570 -0.7034  0.0747  0.0459
 8319TIP3    H224922   3.785   6.560   4.601 -0.5334  0.1504  0.3863
 8320TIP3   OH224923   1.931   4.393   5.761 -0.0244 -0.3948 -0.5033
 8320TIP3    H124924   1.989   4.375   5.687 -0.1672 -0.1170 -0.6838
 8320TIP3    H224925   1.978   4.358   5.837  0.8977  0.8217 -0.4826
 8321TIP3   OH224926   2.672   2.714   0.557  0.4099 -1.0540 -0.5650
 8321TIP3    H124927   2.591   2.664   0.548 -0.5237  0.3123 -0.0188
 8321TIP3    H224928   2.733   2.652   0.598 -0.5629 -1.9077 -0.3611
 8322TIP3   OH224929   3.714   5.619   0.202 -0.0567 -0.0355  0.4578
 8322TIP3    H124930   3.722   5.709   0.231 -0.5346  0.1828 -0.0604
 8322TIP3    H224931   3.628   5.591   0.234  0.1051 -0.3188  0.6468
 8323TIP3   OH224932   2.711   1.430   3.024 -0.5421 -0.1028  0.2472
 8323TIP3    H124933   2.643   1.480   2.980  1.2116  1.7178 -0.5458
 8323TIP3    H224934   2.759   1.387   2.952  0.3991  0.3273  0.6035
 8324TIP3   OH224935   5.429   5.293   3.583 -0.3329 -0.2319  0.8817
 8324TIP3    H124936   5.468   5.262   3.665  0.6177  0.0448  0.5480
 8324TIP3    H224937   5.467   5.380   3.570 -0.2146 -0.4188 -0.0308
 8325TIP3   OH224938   5.037   5.056   1.385 -0.0142  0.1321  0.1898
 8325TIP3    H124939   4.952   5.019   1.410 -0.3576 -0.3532 -1.5255
 8325TIP3    H224940   5.094   4.980   1.375 -0.0205  0.2604 -0.8910
 8326TIP3   OH224941   1.381   0.913   1.552  0.2447  0.1361  0.5742
 8326TIP3    H124942   1.383   0.861   1.471  1.6989  1.3782 -0.2225
 8326TIP3    H224943   1.338   0.855   1.615  0.0443 -1.2892 -0.7840
 8327TIP3   OH224944   2.880   2.526   3.821 -0.1676  0.1253 -0.5071
 8327TIP3    H124945   2.862   2.445   3.869 -1.5366 -0.0518 -1.2455
 8327TIP3    H224946   2.807   2.584   3.843 -0.0931  0.5316 -1.2868
 8328TIP3   OH224947   3.777   1.929   0.114 -0.2567  0.1420  0.2918
 8328TIP3    H124948   3.867   1.961   0.121 -0.5046  1.2278 -1.2103
 8328TIP3    H224949   3.774   1.853   0.172  1.2975  0.7951  1.2746
 8329TIP3   OH224950   4.675   2.346   1.628  0.2878 -0.0738 -0.4888
 8329TIP3    H124951   4.581   2.325   1.633  0.6521 -2.5896 -2.2121
 8329TIP3    H224952   4.706   2.339   1.718 -0.9817 -0.4092 -0.0556
 8330TIP3   OH224953   3.088   1.608   5.299 -0.5130  0.0632  0.1579
 8330TIP3    H124954   3.119   1.688   5.258  1.0528 -1.3517 -1.5902
 8330TIP3    H224955   2.994   1.607   5.280 -0.3553  0.9477 -0.7568
 8331TIP3   OH224956   3.117   3.702   2.267  0.2758  0.0194 -0.3122
 8331TIP3    H124957   3.027   3.678   2.244 -0.3228  3.3924 -2.0411
 8331TIP3    H224958   3.169   3.666   2.195  0.4601 -2.2620  0.8772
 8332TIP3   OH224959   3.616   1.535  -0.000 -0.2619  0.0554  0.0166
 8332TIP3    H124960   3.588   1.612  -0.050 -0.6348 -0.4251 -0.5207
 8332TIP3    H224961   3.575   1.546   0.086 -0.2083  0.5218 -0.0157
 8333TIP3   OH224962   6.092   4.368   4.505 -0.1432 -0.4660  0.5993
 8333TIP3    H124963   6.019   4.306   4.504  0.7050 -1.4878  0.4888
 8333TIP3    H224964   6.083   4.418   4.423 -1.8014  0.7562  1.4684
 8334TIP3   OH224965   5.626   0.745   1.097 -0.2029  0.2274 -0.6412
 8334TIP3    H124966   5.653   0.836   1.112 -0.4084  0.4064 -1.2969
 8334TIP3    H224967   5.547   0.734   1.150  0.4723  0.0706  0.3443
 8335TIP3   OH224968   4.821   0.566   4.244 -0.3256 -0.0669 -0.0333
 8335TIP3    H124969   4.821   0.614   4.161  0.1322 -1.0081 -0.6084
 8335TIP3    H224970   4.729   0.551   4.264 -0.4399 -1.2104 -1.2360
 8336TIP3   OH224971   6.100   1.492   1.179 -0.0042 -0.3578 -0.5959
 8336TIP3    H124972   6.030   1.531   1.127 -0.3860 -0.0002  0.1709
 8336TIP3    H224973   6.149   1.567   1.214 -2.1518 -0.3154  2.8508
 8337TIP3   OH224974   5.104   3.533   5.140  0.0045 -0.2536 -0.0927
 8337TIP3    H124975   5.199   3.537   5.152  0.1173 -0.2938 -0.9019
 8337TIP3    H224976   5.093   3.483   5.059 -0.6755  0.5066 -0.4719
 8338TIP3   OH224977   3.429   1.658   5.712 -0.4220 -0.1998 -0.6121
 8338TIP3    H124978   3.391   1.576   5.681  0.0282 -0.5480 -0.2360
 8338TIP3    H224979   3.411   1.659   5.806 -0.3176  0.0799 -0.5931
 8339TIP3   OH224980   0.516   4.905   3.450 -0.2375 -0.2366  0.1396
 8339TIP3    H124981   0.554   4.826   3.413  1.4657  0.4720  0.2622
 8339TIP3    H224982   0.583   4.938   3.510 -1.7734  0.1679  1.7085
 8340TIP3   OH224983   6.723   0.400   0.632 -0.2885 -0.4669  0.0077
 8340TIP3    H124984   6.636   0.385   0.670 -1.1250 -0.6704 -1.8716
 8340TIP3    H224985   6.769   0.317   0.645 -0.0993 -0.1378  1.6238
 8341TIP3   OH224986   3.789   4.966   0.750 -0.3042 -0.4951  0.0364
 8341TIP3    H124987   3.759   5.006   0.669 -1.3646 -0.4804  0.4090
 8341TIP3    H224988   3.856   5.025   0.783  0.5087 -0.7751 -1.0815
 8342TIP3   OH224989   1.500   5.304   5.185 -0.2665 -0.2369  0.2250
 8342TIP3    H124990   1.456   5.241   5.128  0.7681 -0.7821 -0.0021
 8342TIP3    H224991   1.505   5.260   5.271  0.9016 -0.7044 -0.0581
 8343TIP3   OH224992   3.260   0.611   0.216 -0.3973  0.1957 -0.2814
 8343TIP3    H124993   3.184   0.556   0.198 -0.2899  0.1730 -0.6746
 8343TIP3    H224994   3.336   0.554   0.201 -0.3042 -0.2793  1.7189
 8344TIP3   OH224995   0.139   4.424   3.434 -0.4152  0.3898  0.1315
 8344TIP3    H124996   0.085   4.494   3.398  0.1044  1.8185  1.9656
 8344TIP3    H224997   0.137   4.439   3.529  0.4897 -1.5333  0.4987
 8345TIP3   OH224998   6.973   1.713   1.699  0.4010  0.5091 -0.0543
 8345TIP3    H124999   6.971   1.807   1.717  1.2827  0.7315 -1.0473
 8345TIP3    H225000   6.883   1.684   1.715  0.2896  1.3700  0.9830
 8346TIP3   OH225001   5.328   4.858   5.356 -0.1205  0.2332  0.3135
 8346TIP3    H125002   5.320   4.895   5.444 -0.3633  0.1026  0.3468
 8346TIP3    H225003   5.363   4.929   5.303 -1.4429  0.8049  0.1714
 8347TIP3   OH225004   4.916   2.986   2.462 -0.2226  0.0955  0.0509
 8347TIP3    H125005   4.833   2.948   2.434 -0.2291  0.2843 -0.1805
 8347TIP3    H225006   4.963   2.913   2.502 -0.3682 -0.0837 -0.1059
 8348TIP3   OH225007   0.651   0.764   1.339 -0.0950  0.8721  0.1315
 8348TIP3    H125008   0.573   0.747   1.392  0.8576 -1.8970  0.8400
 8348TIP3    H225009   0.724   0.736   1.394  1.4747  3.5150 -0.4595
 8349TIP3   OH225010   3.113   3.727   4.736  0.1688 -0.3030 -0.1766
 8349TIP3    H125011   3.034   3.778   4.755  0.0247 -0.5520 -0.1004
 8349TIP3    H225012   3.171   3.745   4.810 -0.4433 -1.3792  0.6154
 8350TIP3   OH225013   6.497   5.497   5.746  0.0529  0.4054 -0.0236
 8350TIP3    H125014   6.499   5.513   5.652 -0.1013  0.9359  0.0589
 8350TIP3    H225015   6.587   5.515   5.775  0.2223 -0.2189 -0.1338
 8351TIP3   OH225016   5.533   1.420   2.525 -0.0632  0.0999 -0.2049
 8351TIP3    H125017   5.624   1.392   2.527  0.1226  0.5987 -1.0338
 8351TIP3    H225018   5.482   1.339   2.525  0.4272 -0.2180 -1.4543
 8352TIP3   OH225019   2.849   2.504   2.751 -0.0075  0.1848  0.0448
 8352TIP3    H125020   2.797   2.506   2.670  0.3372 -0.0002 -0.1870
 8352TIP3    H225021   2.824   2.584   2.798  0.3587  0.6906 -0.6083
 8353TIP3   OH225022   3.357   4.583   5.201  0.1507 -0.2765  0.0631
 8353TIP3    H125023   3.398   4.634   5.131 -0.8472  1.1361  0.4738
 8353TIP3    H225024   3.264   4.579   5.177  0.2878 -2.5861 -0.3379
 8354TIP3   OH225025   6.404   5.773   5.060 -0.0574 -0.0925 -0.0898
 8354TIP3    H125026   6.403   5.758   5.155 -0.6986 -1.9963 -0.3542
 8354TIP3    H225027   6.312   5.792   5.039  0.0569  0.1616 -0.3538
 8355TIP3   OH225028   5.005   0.936   1.426 -0.3186 -0.0096 -0.3166
 8355TIP3    H125029   5.024   1.010   1.369 -3.7701  0.2025 -1.3884
 8355TIP3    H225030   4.910   0.930   1.427 -0.2948 -2.1700  2.7329
 8356TIP3   OH225031   6.751   3.143   2.444  0.0151 -0.1262 -0.5743
 8356TIP3    H125032   6.738   3.197   2.522  1.0903 -0.2842 -0.2687
 8356TIP3    H225033   6.703   3.062   2.463  0.7817 -0.4204  0.2148
 8357TIP3   OH225034   4.240   3.387   0.394 -0.1646  0.0365  0.2104
 8357TIP3    H125035   4.221   3.402   0.301  2.1854  0.9044 -0.2104
 8357TIP3    H225036   4.169   3.331   0.424 -0.6480 -0.8291 -2.2861
 8358TIP3   OH225037   3.216   1.013   5.337  0.6551  0.2404 -0.3929
 8358TIP3    H125038   3.238   0.936   5.390 -0.0384 -0.2464 -0.7932
 8358TIP3    H225039   3.122   1.025   5.351  0.8058  1.1859 -0.1245
 8359TIP3   OH225040   2.017   2.656   0.483 -0.3025 -0.0242 -0.2249
 8359TIP3    H125041   1.948   2.630   0.543  0.2200 -1.8275 -0.3452
 8359TIP3    H225042   2.069   2.720   0.532 -0.7354 -0.3681  0.7037
 8360TIP3   OH225043   3.739   3.120   2.125  0.3149 -0.4384  0.2009
 8360TIP3    H125044   3.743   3.158   2.213  1.7393 -0.8308  0.3284
 8360TIP3    H225045   3.799   3.045   2.129  0.6760 -0.2465 -1.2132
 8361TIP3   OH225046   5.537   5.208   1.042  0.6060  0.0173  0.1643
 8361TIP3    H125047   5.548   5.130   0.988  1.9926  0.9199 -0.9230
 8361TIP3    H225048   5.603   5.269   1.011 -0.7336  1.8313  0.6617
 8362TIP3   OH225049   1.331   1.139   3.242 -0.1594  0.4246  0.1491
 8362TIP3    H125050   1.405   1.081   3.260 -1.0087 -0.4573  0.9503
 8362TIP3    H225051   1.297   1.110   3.158 -1.3719 -1.1586  1.1345
 8363TIP3   OH225052   1.340   2.318   5.111  0.2592  0.2577  0.0446
 8363TIP3    H125053   1.280   2.295   5.040  0.2063 -0.4700  0.3089
 8363TIP3    H225054   1.287   2.313   5.190  0.5140  0.2247  0.2165
 8364TIP3   OH225055   2.758   1.012   2.951  0.2065 -0.8252 -0.2669
 8364TIP3    H125056   2.709   1.028   2.870 -0.4000  0.7496  0.3623
 8364TIP3    H225057   2.835   1.068   2.944 -0.8106  0.8655  1.0171
 8365TIP3   OH225058   1.428   4.352   2.449  0.5051 -0.0438  0.0422
 8365TIP3    H125059   1.465   4.316   2.530 -0.7658  0.4042  0.8464
 8365TIP3    H225060   1.431   4.447   2.461  1.9362  0.1186 -1.2091
 8366TIP3   OH225061   5.758   6.047   4.566  0.5580  0.0615 -0.0646
 8366TIP3    H125062   5.688   6.011   4.513  1.5908 -2.0260 -0.1171
 8366TIP3    H225063   5.777   6.133   4.527 -2.0484  0.7849  0.0999
 8367TIP3   OH225064   0.048   6.220   5.157 -0.6791  0.2991 -0.5164
 8367TIP3    H125065   0.005   6.137   5.135  1.1523 -0.3631 -1.8905
 8367TIP3    H225066   0.141   6.198   5.162 -0.1081  2.3356 -1.2343
 8368TIP3   OH225067   6.557   5.055   1.071 -0.0981  0.0300  0.8529
 8368TIP3    H125068   6.568   5.097   1.157 -0.6140  1.5180  0.2309
 8368TIP3    H225069   6.614   5.105   1.013  1.2771 -1.7934  0.5280
 8369TIP3   OH225070   3.126   2.936   0.978  0.3843 -0.2098 -0.2318
 8369TIP3    H125071   3.071   2.892   0.913  0.0192 -0.0742 -0.0188
 8369TIP3    H225072   3.187   2.988   0.926  0.0505 -0.0513 -0.4704
 8370TIP3   OH225073   3.444   6.247   2.344  0.0417  0.4667  0.1153
 8370TIP3    H125074   3.382   6.236   2.272 -0.1835  1.6879  0.0933
 8370TIP3    H225075   3.398   6.216   2.422 -0.4701  1.0138  0.0374
 8371TIP3   OH225076   6.407   1.901   3.052 -0.8847 -0.4478 -0.0763
 8371TIP3    H125077   6.483   1.952   3.080 -0.2247 -1.8860  0.9312
 8371TIP3    H225078   6.426   1.878   2.961 -0.5885  0.0326 -0.1379
 8372TIP3   OH225079   6.840   0.593   1.190 -0.0294  0.0458 -0.3117
 8372TIP3    H125080   6.760   0.637   1.218  0.5910  0.8365  0.2787
 8372TIP3    H225081   6.810   0.514   1.145 -1.2091  1.3679 -1.9630
 8373TIP3   OH225082   3.166   1.050   0.288  0.2924 -0.1249  0.3202
 8373TIP3    H125083   3.225   1.007   0.349  1.5846 -0.7041 -1.2579
 8373TIP3    H225084   3.172   1.143   0.309 -0.8577 -0.4669  2.3496
 8374TIP3   OH225085   6.758   2.819   3.749  0.2129 -0.1819  0.2507
 8374TIP3    H125086   6.686   2.758   3.730  0.4125 -0.2318 -0.3705
 8374TIP3    H225087   6.776   2.861   3.665 -0.9910  1.9294  0.9549
 8375TIP3   OH225088   1.580   0.003   5.769 -0.2189 -0.4565  0.4963
 8375TIP3    H125089   1.532   0.057   5.832 -0.2131 -2.0871  1.9755
 8375TIP3    H225090   1.515  -0.058   5.736 -0.3278  0.6681 -1.4919
 8376TIP3   OH225091   6.638   4.028   0.320  0.4289 -0.2714  0.1490
 8376TIP3    H125092   6.705   4.096   0.309 -0.3538  0.6270  0.7815
 8376TIP3    H225093   6.630   4.016   0.414  1.3297 -2.0684  0.0459
 8377TIP3   OH225094   2.734   2.995   1.863 -0.2488 -0.3567  0.1306
 8377TIP3    H125095   2.748   3.083   1.897 -2.9592  0.1414  0.1762
 8377TIP3    H225096   2.817   2.949   1.878  1.1304  2.0743  0.3570
 8378TIP3   OH225097   2.716   0.333   3.890  0.1033 -0.6478  0.4769
 8378TIP3    H125098   2.746   0.419   3.861 -1.3848 -0.3466 -0.2740
 8378TIP3    H225099   2.623   0.330   3.866 -0.5120 -1.5088  2.6971
 8379TIP3   OH225100   7.004   0.015   2.733 -0.4934 -0.1759 -0.6575
 8379TIP3    H125101   7.015   0.093   2.679 -0.3502 -1.3698 -2.4753
 8379TIP3    H225102   7.075  -0.043   2.705 -0.2439 -0.7575  1.0642
 8380TIP3   OH225103   3.032   4.957   1.556  0.0681  0.4148 -0.5074
 8380TIP3    H125104   2.969   4.896   1.517 -0.6374 -0.6325  2.0357
 8380TIP3    H225105   3.102   4.901   1.589  0.5775  1.2185 -0.2045
 8381TIP3   OH225106   2.628   2.978   0.920 -0.7686  0.2949  0.1682
 8381TIP3    H125107   2.655   2.915   0.987 -0.3635  0.7059  0.3876
 8381TIP3    H225108   2.708   3.025   0.897  0.2489 -2.7098 -3.7614
 8382TIP3   OH225109   1.389   2.960   3.523 -0.2232  0.5743 -0.0771
 8382TIP3    H125110   1.445   2.942   3.599 -1.3270  0.2063  0.6632
 8382TIP3    H225111   1.336   3.035   3.549  1.3754  2.3229 -1.5762
 8383TIP3   OH225112   4.481   2.004   5.421  0.2566  0.6885  0.1558
 8383TIP3    H125113   4.464   2.025   5.513 -0.0168  0.4626  0.1550
 8383TIP3    H225114   4.510   1.913   5.422 -0.4128  0.4683 -0.0554
 8384TIP3   OH225115   4.705   4.670   2.567 -0.6637  0.4498  0.0136
 8384TIP3    H125116   4.744   4.719   2.495 -0.3838 -2.2194 -1.8336
 8384TIP3    H225117   4.740   4.710   2.646  1.2908  1.7519 -1.4195
 8385TIP3   OH225118   1.724   0.737   4.203  0.2910  0.3705 -0.3164
 8385TIP3    H125119   1.742   0.765   4.113  0.9652  1.1423  0.0459
 8385TIP3    H225120   1.629   0.739   4.210  0.2889  2.1355 -0.4651
 8386TIP3   OH225121   4.775   4.108   4.483 -0.1951 -0.3237  0.3825
 8386TIP3    H125122   4.681   4.096   4.497  0.1718 -1.6552  2.0433
 8386TIP3    H225123   4.803   4.027   4.440  0.0008  0.6064 -1.2922
 8387TIP3   OH225124   2.526   3.660   4.654 -0.3793  0.0514 -0.3858
 8387TIP3    H125125   2.585   3.614   4.593  0.5161 -1.9127  1.7920
 8387TIP3    H225126   2.476   3.590   4.696 -0.8091  1.2897  1.2739
 8388TIP3   OH225127   3.106   0.114   0.387 -0.6066  0.1234  0.0120
 8388TIP3    H125128   3.171   0.058   0.430  2.1262  2.7694 -0.2789
 8388TIP3    H225129   3.070   0.060   0.317  3.0999 -0.9694 -1.3250
 8389TIP3   OH225130   2.515   3.765   5.544  0.9090 -0.3122  0.2547
 8389TIP3    H125131   2.598   3.811   5.557 -0.2942  2.2358 -0.5571
 8389TIP3    H225132   2.449   3.824   5.581 -0.7875 -1.0739 -1.4309
 8390TIP3   OH225133   6.599   5.431   0.714 -0.3714 -0.1402 -0.0719
 8390TIP3    H125134   6.661   5.481   0.767 -1.3274  0.1180  0.8290
 8390TIP3    H225135   6.577   5.489   0.642  1.8298 -0.9270 -1.4739
 8391TIP3   OH225136   3.148   1.685   0.266  0.2584  0.8819  0.3589
 8391TIP3    H125137   3.057   1.699   0.238  0.7694 -0.5260 -2.3928
 8391TIP3    H225138   3.141   1.655   0.356 -2.1402 -0.0712 -0.0508
 8392TIP3   OH225139   5.636   1.272   3.619  0.0333 -0.1950  0.3274
 8392TIP3    H125140   5.730   1.288   3.610 -0.0695 -0.4483 -1.6898
 8392TIP3    H225141   5.617   1.204   3.554 -1.0804 -2.2012  2.6233
 8393TIP3   OH225142   6.722   6.056   3.617 -0.6207 -0.4229  0.2535
 8393TIP3    H125143   6.671   6.075   3.695 -2.0368 -0.1182 -0.7123
 8393TIP3    H225144   6.787   6.127   3.613 -0.0988 -0.8137  1.4938
 8394TIP3   OH225145   0.375   2.492   4.286 -0.1560  0.6638 -0.1577
 8394TIP3    H125146   0.460   2.530   4.265  0.1088 -0.3842 -1.0552
 8394TIP3    H225147   0.314   2.536   4.226 -0.0330  0.4742 -0.4215
 8395TIP3   OH225148   4.149   5.079   0.727  0.6266  0.1022 -0.4927
 8395TIP3    H125149   4.238   5.047   0.732  0.3306 -0.5896  0.7214
 8395TIP3    H225150   4.107   5.025   0.661  0.8207 -0.2811 -0.3020
 8396TIP3   OH225151   0.065   0.797   3.331 -0.2428  0.4098 -0.1284
 8396TIP3    H125152   0.071   0.730   3.398 -0.5566 -1.0305 -1.4933
 8396TIP3    H225153  -0.029   0.818   3.326 -0.1614  0.8862  0.2046
 8397TIP3   OH225154   1.223   3.728   0.257 -0.7272  0.4994  0.0785
 8397TIP3    H125155   1.182   3.656   0.305  1.1406  0.3703  1.6099
 8397TIP3    H225156   1.237   3.693   0.169 -0.6139 -0.7259  0.5611
 8398TIP3   OH225157   6.204   3.427   5.088 -0.2153  0.5890 -0.2088
 8398TIP3    H125158   6.230   3.514   5.057  0.9355  0.2214 -0.3179
 8398TIP3    H225159   6.201   3.373   5.009  0.2623  0.2506 -0.0059
 8399TIP3   OH225160   0.111   3.164   3.551 -0.0328 -0.3539 -0.6920
 8399TIP3    H125161   0.064   3.242   3.582  1.2404  0.3434 -0.4258
 8399TIP3    H225162   0.078   3.093   3.607  0.5563  0.4635  0.7622
 8400TIP3   OH225163   6.969   5.675   0.778 -0.1975  0.3106 -0.5205
 8400TIP3    H125164   6.956   5.658   0.684  0.3332 -0.7762 -0.4170
 8400TIP3    H225165   6.922   5.756   0.795 -1.8831 -0.4539 -1.3455
 8401TIP3   OH225166   6.031   4.746   4.788 -0.0447 -0.3299 -0.2163
 8401TIP3    H125167   6.077   4.772   4.868  1.0575 -0.4804 -0.7828
 8401TIP3    H225168   6.051   4.816   4.725 -1.1665 -0.0431 -0.2959
 8402TIP3   OH225169   2.173   3.445   4.889  0.5201 -0.3443 -0.0818
 8402TIP3    H125170   2.099   3.500   4.912  0.3736 -0.3125 -0.6346
 8402TIP3    H225171   2.135   3.370   4.843  1.0741  1.2980 -3.4618
 8403TIP3   OH225172   3.619   4.401   2.522  1.1525  0.4020  0.5975
 8403TIP3    H125173   3.536   4.358   2.542  1.3283  0.1010  0.6836
 8403TIP3    H225174   3.685   4.348   2.567  1.4986  0.0316 -0.3340
 8404TIP3   OH225175   1.826   2.128   3.147  0.3092  0.5196 -0.0332
 8404TIP3    H125176   1.808   2.036   3.164 -2.5534  0.9945 -0.0826
 8404TIP3    H225177   1.804   2.172   3.229  2.8656  1.1211  0.4335
 8405TIP3   OH225178   4.157   2.648   2.531 -0.6530  0.3936 -0.6575
 8405TIP3    H125179   4.085   2.628   2.591 -0.6440  2.0924 -0.0076
 8405TIP3    H225180   4.129   2.613   2.447 -1.0618 -1.2736  0.1263
 8406TIP3   OH225181   0.297   2.323   4.825 -0.3818  0.0314  0.9730
 8406TIP3    H125182   0.284   2.418   4.827 -1.0996 -0.0108 -0.4194
 8406TIP3    H225183   0.352   2.309   4.748 -0.5489 -0.7060  0.9837
 8407TIP3   OH225184   2.364   3.169   2.258  0.2621  0.2764  0.0125
 8407TIP3    H125185   2.414   3.104   2.308 -1.7366 -2.1484 -0.9264
 8407TIP3    H225186   2.358   3.244   2.317  3.7879  0.2607  0.6502
 8408TIP3   OH225187   2.444   0.069   1.738  0.2973 -0.0330 -0.0884
 8408TIP3    H125188   2.537   0.044   1.734  0.5311  0.6957  0.5238
 8408TIP3    H225189   2.397  -0.013   1.734  1.0516 -0.6732  2.4796
 8409TIP3   OH225190   0.246   1.936   0.073  0.0956  0.5059  0.1017
 8409TIP3    H125191   0.336   1.946   0.041  0.6618 -2.6093  0.4207
 8409TIP3    H225192   0.202   1.884   0.006 -1.5466  1.9696 -0.0484
 8410TIP3   OH225193   4.090   6.523   5.556 -0.7784 -0.6633 -0.2705
 8410TIP3    H125194   4.102   6.618   5.548 -1.6586 -0.5878 -0.8944
 8410TIP3    H225195   4.178   6.489   5.570 -0.4249  0.2304 -0.2253
 8411TIP3   OH225196   0.361   5.242   4.234  0.2386  0.5006  0.1551
 8411TIP3    H125197   0.303   5.292   4.291  1.3587  0.2135  1.6168
 8411TIP3    H225198   0.405   5.309   4.181  1.2981  1.0862  1.6859
 8412TIP3   OH225199   3.718   1.049   2.656  0.0409 -0.4397 -0.4031
 8412TIP3    H125200   3.636   1.019   2.617  1.1938 -4.6614 -0.1164
 8412TIP3    H225201   3.714   1.018   2.746  1.6706 -0.0696 -0.1763
 8413TIP3   OH225202   4.035   0.128   0.592  0.2757 -0.2847 -0.4132
 8413TIP3    H125203   4.063   0.069   0.662  1.0950 -2.1359 -2.2167
 8413TIP3    H225204   4.097   0.201   0.596 -0.1261  0.0085  1.1972
 8414TIP3   OH225205   1.047   3.164   3.140 -0.3458 -0.4462 -0.0740
 8414TIP3    H125206   1.059   3.142   3.232 -0.8360  1.7291  0.5628
 8414TIP3    H225207   0.953   3.158   3.125 -0.1417 -2.3186 -0.9031
 8415TIP3   OH225208   7.055   1.000   4.654  0.3253  0.0180 -0.1151
 8415TIP3    H125209   6.964   1.029   4.660  0.9636  1.8925  1.2921
 8415TIP3    H225210   7.064   0.971   4.563 -1.5797  0.0692 -0.3707
 8416TIP3   OH225211   3.041   1.024   1.699 -0.4479 -0.1953  0.1590
 8416TIP3    H125212   3.079   1.089   1.757 -2.4127 -1.2562  2.7897
 8416TIP3    H225213   2.949   1.048   1.690 -0.7339 -1.4157 -0.5654
 8417TIP3   OH225214   5.908   1.520   0.933 -0.5691  0.4380  0.8173
 8417TIP3    H125215   5.889   1.428   0.951  2.9066 -1.1049 -2.1595
 8417TIP3    H225216   5.870   1.535   0.846  1.5813  0.7423 -0.1224
 8418TIP3   OH225217   7.072   6.641   0.377  0.3687 -0.4087  0.6690
 8418TIP3    H125218   6.998   6.700   0.395 -0.5916 -0.6585 -2.0406
 8418TIP3    H225219   7.149   6.697   0.387 -0.3185  0.4750  1.2819
 8419TIP3   OH225220   1.828   1.628   0.663  0.0275 -0.1310 -0.2592
 8419TIP3    H125221   1.864   1.710   0.697 -1.2061  0.0351  0.7152
 8419TIP3    H225222   1.779   1.655   0.585 -0.1536  0.0174 -0.0949
 8420TIP3   OH225223   5.118   1.109   0.982  0.4491  0.3039  0.3082
 8420TIP3    H125224   5.147   1.032   0.934  1.9169  0.8450  0.2537
 8420TIP3    H225225   5.024   1.114   0.967  0.1729 -1.9317  1.0106
 8421TIP3   OH225226   1.912   6.402   0.197  0.3670 -0.4507 -0.8130
 8421TIP3    H125227   1.873   6.374   0.115  0.1645  1.4238 -1.4138
 8421TIP3    H225228   1.892   6.496   0.203  0.9093 -0.3982  1.0714
 8422TIP3   OH225229   6.687   1.999   3.736 -0.2840  0.6938 -0.4518
 8422TIP3    H125230   6.723   2.004   3.824 -1.5838  0.0686  0.1542
 8422TIP3    H225231   6.643   2.083   3.723 -1.9440  0.0209  0.3984
 8423TIP3   OH225232   0.250   3.717   2.942  0.1484 -0.6078  0.2104
 8423TIP3    H125233   0.338   3.751   2.926  0.7305 -1.8913  0.5497
 8423TIP3    H225234   0.259   3.622   2.931 -1.5360 -0.6445 -1.2483
 8424TIP3   OH225235   5.262   2.574   5.509  0.3903 -0.1960  0.2597
 8424TIP3    H125236   5.301   2.492   5.479 -0.9126 -1.4434  1.7683
 8424TIP3    H225237   5.201   2.600   5.440  0.1852 -0.9794  0.1402
 8425TIP3   OH225238   5.890   4.005   3.298  0.8302  0.2479 -0.3088
 8425TIP3    H125239   5.814   4.045   3.339  0.7258 -0.9568  0.7255
 8425TIP3    H225240   5.919   4.069   3.233  1.9820  3.0005  2.6618
 8426TIP3   OH225241   2.735   0.010   1.715 -0.0982 -0.2150  0.3871
 8426TIP3    H125242   2.793   0.026   1.789  0.2971  0.2332 -0.0103
 8426TIP3    H225243   2.792   0.017   1.638 -0.3670 -1.3292  0.0675
 8427TIP3   OH225244   6.467   0.913   5.575 -0.0642  0.0495  0.9859
 8427TIP3    H125245   6.536   0.884   5.634 -1.1593 -0.3349  2.1202
 8427TIP3    H225246   6.483   0.864   5.494  0.2322 -1.0568  1.6851
 8428TIP3   OH225247   5.795   0.312   5.058 -0.1561  0.3145  0.5293
 8428TIP3    H125248   5.827   0.401   5.071 -0.4774  0.6933 -1.1206
 8428TIP3    H225249   5.702   0.321   5.042 -0.4608 -0.4673  1.6716
 8429TIP3   OH225250   1.538   6.182   2.320  0.1460 -0.4569 -0.1703
 8429TIP3    H125251   1.548   6.180   2.225 -1.0971 -0.0183 -0.3275
 8429TIP3    H225252   1.458   6.132   2.337  0.8235 -1.2701  0.7284
 8430TIP3   OH225253   7.122   6.629   1.695 -0.1696 -0.4331  0.1237
 8430TIP3    H125254   7.151   6.567   1.762 -1.0046 -1.4566 -0.4311
 8430TIP3    H225255   7.033   6.653   1.722 -0.4032 -0.6337 -0.4548
 8431TIP3   OH225256   6.357   3.913   2.762  0.4124  0.1866  0.0434
 8431TIP3    H125257   6.375   3.872   2.678 -2.0805 -0.6313 -0.1670
 8431TIP3    H225258   6.387   4.004   2.751  0.2878  0.0514 -1.6555
 8432TIP3   OH225259   1.190   3.007   0.717  0.2326  0.0611  0.1943
 8432TIP3    H125260   1.218   2.916   0.729  1.3025  0.2559 -0.6620
 8432TIP3    H225261   1.166   3.013   0.624 -2.0449  0.1006  0.7218
 8433TIP3   OH225262   6.731   1.032   2.822  0.0634  0.3916 -0.6205
 8433TIP3    H125263   6.797   1.101   2.825  0.1545  0.2749  1.3872
 8433TIP3    H225264   6.759   0.975   2.750  1.7097  0.7586 -0.3154
 8434TIP3   OH225265   1.723   5.993   4.839  0.3582  0.0227 -0.1462
 8434TIP3    H125266   1.700   5.960   4.926 -0.7194 -0.1033 -0.4642
 8434TIP3    H225267   1.773   5.923   4.798  1.7869  0.4836  0.7367
 8435TIP3   OH225268   0.868  -0.003   4.188  0.0296  0.6985 -0.0307
 8435TIP3    H125269   0.950  -0.005   4.238 -0.5106  0.2516  0.8377
 8435TIP3    H225270   0.800   0.014   4.252 -0.7911 -0.8550 -0.4253
 8436TIP3   OH225271   0.840   4.519   4.155 -0.4765 -0.4846  0.1238
 8436TIP3    H125272   0.905   4.485   4.216 -0.3883 -1.1581 -0.3336
 8436TIP3    H225273   0.785   4.577   4.208  0.2928 -0.1639  0.5786
 8437TIP3   OH225274   0.797   1.287   3.046 -0.2592 -0.1142  0.1619
 8437TIP3    H125275   0.873   1.280   3.104 -0.1954  1.0179  0.2291
 8437TIP3    H225276   0.831   1.322   2.964 -0.7163  0.4977  0.2240
 8438TIP3   OH225277   5.297   4.350   3.985  0.1069 -0.1644  0.6837
 8438TIP3    H125278   5.225   4.391   4.033 -0.3799 -0.6151  0.3533
 8438TIP3    H225279   5.257   4.321   3.903  0.5897 -0.7012  0.6325
 8439TIP3   OH225280   0.796   1.822   2.995  0.5720  0.7027 -0.4626
 8439TIP3    H125281   0.789   1.909   3.035 -0.0700  0.1903  0.5842
 8439TIP3    H225282   0.848   1.771   3.057  2.1272  0.6878 -1.7202
 8440TIP3   OH225283   1.634   2.470   1.789  0.6981 -0.5171 -0.1145
 8440TIP3    H125284   1.712   2.471   1.733  0.0187 -0.5668 -1.0925
 8440TIP3    H225285   1.583   2.395   1.758 -0.7648  0.7751 -0.9953
 8441TIP3   OH225286   4.153   0.273   4.556 -0.1025 -0.3026  0.5266
 8441TIP3    H125287   4.149   0.242   4.646 -1.4498  1.3442  1.0704
 8441TIP3    H225288   4.186   0.363   4.562 -3.9540  1.3498 -0.1209
 8442TIP3   OH225289   7.023   1.899   3.725 -0.4131  0.1085  0.5171
 8442TIP3    H125290   7.044   1.806   3.720  0.3688  0.2163  1.5130
 8442TIP3    H225291   6.978   1.910   3.809 -1.2852  0.4962  0.0165
 8443TIP3   OH225292   0.096   4.687   4.628 -0.2212  0.1161  0.1128
 8443TIP3    H125293   0.033   4.756   4.607 -0.3643  0.3789  1.3471
 8443TIP3    H225294   0.144   4.721   4.704 -0.4709 -1.2393  0.8997
 8444TIP3   OH225295   5.827   4.888   3.056 -0.5050 -0.4548  0.0725
 8444TIP3    H125296   5.735   4.864   3.068 -0.4847 -0.0031  1.1735
 8444TIP3    H225297   5.855   4.921   3.141  0.4721  0.1254 -0.4606
 8445TIP3   OH225298   3.431   2.228   2.389 -0.0088  0.0873  0.2541
 8445TIP3    H125299   3.409   2.190   2.474 -0.8278  0.0481  0.0355
 8445TIP3    H225300   3.347   2.261   2.356  0.4639  0.9228 -0.1324
 8446TIP3   OH225301   6.787   6.170   2.304  0.7048  0.3933  0.3225
 8446TIP3    H125302   6.835   6.227   2.363  0.3919  0.0791  0.8933
 8446TIP3    H225303   6.753   6.228   2.236  0.2691  0.9087  0.9711
 8447TIP3   OH225304   5.279   2.918   2.354 -0.6918 -0.3600 -0.2024
 8447TIP3    H125305   5.231   2.869   2.421 -2.0389  0.4104 -0.5723
 8447TIP3    H225306   5.371   2.907   2.379 -0.9345 -2.8653 -0.1572
 8448TIP3   OH225307   2.072   1.335   4.578  0.5727  0.0644 -0.3799
 8448TIP3    H125308   2.034   1.260   4.625  0.3252  0.5547  0.2117
 8448TIP3    H225309   2.010   1.351   4.506  1.1080 -0.8758 -1.0693
 8449TIP3   OH225310   0.866   1.530   1.842 -0.8554 -0.6306  0.1959
 8449TIP3    H125311   0.809   1.489   1.907 -0.2805  0.0717  1.1943
 8449TIP3    H225312   0.863   1.623   1.864  2.4772 -0.7718  1.8679
 8450TIP3   OH225313   4.295   3.538   1.029 -0.0465 -0.2449 -0.1761
 8450TIP3    H125314   4.390   3.543   1.018 -0.0995 -0.3181 -0.6822
 8450TIP3    H225315   4.273   3.616   1.081  0.4859 -1.0789  1.3814
 8451TIP3   OH225316   4.733   6.032   2.101 -0.0819 -0.0009  0.3795
 8451TIP3    H125317   4.660   6.054   2.159  0.3148 -0.3544  1.0281
 8451TIP3    H225318   4.732   5.937   2.094 -0.5745  0.0783 -0.8078
 8452TIP3   OH225319   1.481   4.312   3.315 -0.2248 -0.2499 -0.8147
 8452TIP3    H125320   1.575   4.304   3.332 -0.0183 -4.0806 -2.6852
 8452TIP3    H225321   1.443   4.332   3.401  2.0578 -1.9467  0.7115
 8453TIP3   OH225322   6.980   5.866   5.689  0.5154 -0.7374 -0.1834
 8453TIP3    H125323   7.000   5.829   5.775 -0.4783 -0.4964  0.1588
 8453TIP3    H225324   7.034   5.815   5.628  0.0181 -2.0116  0.4060
 8454TIP3   OH225325   4.103   6.028   3.430 -0.1512  0.3140 -0.0047
 8454TIP3    H125326   4.094   6.114   3.471 -0.1286  0.9537 -1.3037
 8454TIP3    H225327   4.196   6.022   3.408  0.2563 -0.8818  1.7987
 8455TIP3   OH225328   2.789   2.043   3.824 -0.1253  0.2861  0.1408
 8455TIP3    H125329   2.708   2.002   3.855  0.5563 -0.4967  0.9709
 8455TIP3    H225330   2.815   1.992   3.747  0.9919 -1.2801  1.4645
 8456TIP3   OH225331   2.278   3.168   1.774 -0.2156 -0.3796  0.0711
 8456TIP3    H125332   2.332   3.170   1.854  1.1623 -0.0620 -0.8222
 8456TIP3    H225333   2.266   3.260   1.751 -1.4661 -0.4330  0.4363
 8457TIP3   OH225334   6.258   2.868   4.738  0.2418 -0.4375 -0.0630
 8457TIP3    H125335   6.289   2.892   4.825 -0.5593  2.0226 -0.3977
 8457TIP3    H225336   6.262   2.948   4.687 -2.2546 -1.0528 -1.4128
 8458TIP3   OH225337   5.208   2.347   3.326  0.2937 -0.0508  0.1398
 8458TIP3    H125338   5.153   2.360   3.249  0.2399 -0.2488  0.1428
 8458TIP3    H225339   5.196   2.426   3.378  2.1663  1.2007 -1.1685
 8459TIP3   OH225340   1.142   0.197   1.172  0.3281  0.6333  0.1133
 8459TIP3    H125341   1.080   0.139   1.128 -0.1240  0.4091  1.0276
 8459TIP3    H225342   1.170   0.258   1.104 -0.2142  0.1844 -0.5266
 8460TIP3   OH225343   5.383   4.104   2.078  0.0637 -0.2937 -0.0968
 8460TIP3    H125344   5.461   4.134   2.124 -0.1042 -0.9056  0.6190
 8460TIP3    H225345   5.334   4.184   2.059  0.3688  0.0087  0.3680
 8461TIP3   OH225346   0.326   3.440   2.502  0.3232  0.2625  0.7019
 8461TIP3    H125347   0.415   3.438   2.537 -0.0149 -0.0367  1.5694
 8461TIP3    H225348   0.325   3.370   2.436  0.7959  0.4286  0.5164
 8462TIP3   OH225349   5.481   4.450   0.020  0.0318 -0.0049 -0.2008
 8462TIP3    H125350   5.490   4.401  -0.061  0.4178 -0.9106  0.3728
 8462TIP3    H225351   5.390   4.435   0.047  0.1107 -0.2946 -0.0965
 8463TIP3   OH225352   4.019   1.975   5.101  0.3109  0.2149 -0.4978
 8463TIP3    H125353   4.042   2.056   5.146  0.8689 -0.0388 -0.3086
 8463TIP3    H225354   4.090   1.914   5.124 -0.5027 -0.5676  0.0021
 8464TIP3   OH225355   1.168   2.399   3.481 -0.6391 -0.0739  0.1885
 8464TIP3    H125356   1.079   2.377   3.507 -0.9670 -0.7375 -1.3713
 8464TIP3    H225357   1.175   2.494   3.495 -1.8011  0.0919 -0.2586
 8465TIP3   OH225358   3.862   3.829   3.189  1.2136 -0.5057  0.0464
 8465TIP3    H125359   3.899   3.916   3.177  0.5527 -0.3728 -1.2392
 8465TIP3    H225360   3.866   3.789   3.102 -1.1418 -0.6589 -0.0576
 8466TIP3   OH225361   5.453   1.623   4.124  0.5809  0.1503 -0.7554
 8466TIP3    H125362   5.450   1.709   4.082  0.1425  0.4337 -0.1697
 8466TIP3    H225363   5.504   1.638   4.204  0.4760 -0.1278 -0.6367
 8467TIP3   OH225364   0.393   4.014   1.646  0.5179 -0.1224  0.7330
 8467TIP3    H125365   0.308   4.043   1.613  0.1720 -1.1822  0.6411
 8467TIP3    H225366   0.436   3.975   1.569  0.7828 -0.2669  0.9530
 8468TIP3   OH225367   4.341   1.310   2.754  0.0742  0.4501  0.1501
 8468TIP3    H125368   4.293   1.357   2.821 -2.9455 -1.0269 -0.8111
 8468TIP3    H225369   4.378   1.378   2.698 -3.0098  1.7907 -0.4449
 8469TIP3   OH225370   2.588   1.291   0.266 -0.0384 -0.2092  0.1211
 8469TIP3    H125371   2.573   1.203   0.231  1.8244  0.6999 -3.3837
 8469TIP3    H225372   2.625   1.276   0.353 -2.3389 -2.7194  0.8124
 8470TIP3   OH225373   1.356   6.119   3.319 -0.4431  0.0810 -0.5728
 8470TIP3    H125374   1.443   6.124   3.359 -0.1808 -0.2052 -1.0962
 8470TIP3    H225375   1.300   6.080   3.386 -0.2723  0.6772 -0.0715
 8471TIP3   OH225376   5.582   1.830   3.549 -0.3252 -0.1813 -0.1914
 8471TIP3    H125377   5.552   1.916   3.519  0.3581 -0.4160 -1.6260
 8471TIP3    H225378   5.623   1.791   3.472  0.7056 -1.1877  0.8339
 8472TIP3   OH225379   0.464   1.118   2.578  0.4471 -0.3574 -0.0346
 8472TIP3    H125380   0.500   1.206   2.576  0.2314 -0.2659  0.0337
 8472TIP3    H225381   0.538   1.061   2.557  0.8597 -0.2464  1.0444
 8473TIP3   OH225382   3.202   3.039   2.256  0.1021 -0.3299 -0.5891
 8473TIP3    H125383   3.219   3.048   2.163 -0.5242  1.3548 -0.5792
 8473TIP3    H225384   3.111   3.066   2.267  0.1639 -0.4916  0.5200
 8474TIP3   OH225385   1.684   3.508   4.727  0.2279  0.2040  0.3674
 8474TIP3    H125386   1.762   3.561   4.742  1.4368 -0.4757 -2.7019
 8474TIP3    H225387   1.680   3.449   4.802  2.5525  0.4352  0.7438
 8475TIP3   OH225388   2.139   4.334   5.217  0.1628 -0.7183 -0.6211
 8475TIP3    H125389   2.195   4.264   5.250 -0.5649 -1.3162 -0.6084
 8475TIP3    H225390   2.053   4.315   5.254  0.2314  0.9790  0.4976
 8476TIP3   OH225391   5.575   6.556   3.386 -0.1360 -0.4288 -0.8786
 8476TIP3    H125392   5.496   6.607   3.406  0.0799 -0.9532  1.5673
 8476TIP3    H225393   5.569   6.480   3.443  1.1167 -1.5600 -2.1967
 8477TIP3   OH225394   7.103   2.420   2.960  0.2999  0.1177  0.2052
 8477TIP3    H125395   7.156   2.375   2.895 -1.9359 -3.7025  0.6854
 8477TIP3    H225396   7.126   2.378   3.043 -0.1764  1.6466  1.1554
 8478TIP3   OH225397   5.227   2.917   1.043 -0.5022 -0.8864  0.2989
 8478TIP3    H125398   5.261   2.921   1.132 -0.4474 -0.6770  0.2701
 8478TIP3    H225399   5.197   2.827   1.032  1.8184 -1.6411 -0.3314
 8479TIP3   OH225400   6.183   0.798   3.802 -0.1878 -0.1884 -0.2480
 8479TIP3    H125401   6.115   0.762   3.859 -1.1761  2.0864  0.1010
 8479TIP3    H225402   6.143   0.801   3.715 -1.0316  2.1508  0.1459
 8480TIP3   OH225403   1.676   2.088   2.200 -0.5473 -0.2256  0.7116
 8480TIP3    H125404   1.699   2.009   2.151  0.5959 -0.6792  1.9153
 8480TIP3    H225405   1.613   2.133   2.144  1.1490 -0.3747 -1.4886
 8481TIP3   OH225406   0.435   5.483   5.138  0.1631  0.0861 -0.2509
 8481TIP3    H125407   0.411   5.569   5.103 -0.4532  0.0368  0.0410
 8481TIP3    H225408   0.460   5.500   5.228  3.0445  0.4219 -1.0046
 8482TIP3   OH225409   4.354   3.868   4.540  0.1857  0.0196 -0.2385
 8482TIP3    H125410   4.321   3.860   4.629  0.7255 -2.0848 -0.1635
 8482TIP3    H225411   4.296   3.812   4.488  1.0611 -0.3722 -0.8253
 8483TIP3   OH225412   6.227   5.473   5.068 -0.4085 -0.5088 -0.0580
 8483TIP3    H125413   6.292   5.452   5.001 -0.0333  1.0774 -0.2412
 8483TIP3    H225414   6.145   5.484   5.019 -0.3467 -0.3452 -0.1261
 8484TIP3   OH225415   1.701   1.241   5.209 -0.4015  0.1029  0.2013
 8484TIP3    H125416   1.698   1.335   5.228 -0.3032  0.1844 -0.1674
 8484TIP3    H225417   1.733   1.201   5.290  0.8247  0.5212 -0.0543
 8485TIP3   OH225418   4.698   6.319   2.108 -0.1686 -0.2999  0.1612
 8485TIP3    H125419   4.621   6.314   2.052 -0.1824 -1.3675  0.2424
 8485TIP3    H225420   4.760   6.258   2.068  0.4418  0.1722  0.3796
 8486TIP3   OH225421   6.630   3.792   1.151  0.0485  0.0802 -0.1145
 8486TIP3    H125422   6.631   3.823   1.061  3.5452  2.0316  0.3766
 8486TIP3    H225423   6.711   3.742   1.160  1.2010  2.1349  2.4464
 8487TIP3   OH225424   4.670   4.494   3.293  0.6518  0.0387 -0.2968
 8487TIP3    H125425   4.678   4.449   3.377 -1.9110  0.2398  0.1337
 8487TIP3    H225426   4.713   4.436   3.230  0.6851 -1.2012  0.8236
 8488TIP3   OH225427   2.640   1.011   5.467  0.3314 -0.6747 -0.1968
 8488TIP3    H125428   2.618   1.067   5.392 -1.1798 -1.0280 -0.0651
 8488TIP3    H225429   2.609   0.924   5.440  0.7201 -1.0132  0.4383
 8489TIP3   OH225430   1.200   5.848   2.782  0.1436 -0.4155  0.0553
 8489TIP3    H125431   1.279   5.869   2.732  0.9049 -0.4247  1.2208
 8489TIP3    H225432   1.231   5.831   2.871 -0.9013 -2.6183  0.0606
 8490TIP3   OH225433   6.163   2.269   2.972 -0.5550 -0.5284 -0.3585
 8490TIP3    H125434   6.162   2.223   3.056 -0.1116 -0.3170 -0.2346
 8490TIP3    H225435   6.255   2.271   2.946 -0.7041 -0.7122 -0.9215
 8491TIP3   OH225436   5.706  -0.015   5.372  0.2527  0.1213  0.6870
 8491TIP3    H125437   5.651  -0.001   5.449  0.9930  0.2605  1.1904
 8491TIP3    H225438   5.756   0.065   5.362  2.5623 -1.0528  2.0252
 8492TIP3   OH225439   5.967   6.526   3.927 -0.3118  0.2328 -0.6561
 8492TIP3    H125440   6.056   6.539   3.895 -0.6300  2.1667 -0.8703
 8492TIP3    H225441   5.977   6.510   4.021  0.3016 -0.5078 -0.8370
 8493TIP3   OH225442   1.214   2.822   3.864  0.0068 -0.2855 -0.7264
 8493TIP3    H125443   1.286   2.857   3.811  0.9220  0.4283  0.9195
 8493TIP3    H225444   1.239   2.731   3.880  0.9789  0.1648  0.4802
 8494TIP3   OH225445   0.694   3.082   2.648  0.6140 -0.2286 -0.5592
 8494TIP3    H125446   0.748   3.154   2.613  0.5431 -0.8742 -2.0771
 8494TIP3    H225447   0.611   3.090   2.600 -0.2965  0.1318  1.0231
 8495TIP3   OH225448   6.374   4.848   0.728 -0.5492  0.3615  0.5103
 8495TIP3    H125449   6.420   4.764   0.735  1.1480  1.2397  0.4440
 8495TIP3    H225450   6.319   4.852   0.806 -0.1101 -0.4889  0.8794
 8496TIP3   OH225451   4.820   0.333   1.830 -0.1862  0.4157 -0.1019
 8496TIP3    H125452   4.823   0.361   1.739 -1.1685  1.0623  0.0457
 8496TIP3    H225453   4.761   0.257   1.829 -0.9105  0.9663  0.1141
 8497TIP3   OH225454   5.555   4.224   2.291 -0.3446 -0.1191  0.3704
 8497TIP3    H125455   5.613   4.287   2.334  0.2974 -0.2643 -0.2559
 8497TIP3    H225456   5.468   4.243   2.327  0.0475  0.2675  1.1420
 8498TIP3   OH225457   4.004   4.187   2.486  0.4368  0.2793 -0.6787
 8498TIP3    H125458   4.040   4.100   2.508  3.2506  1.1318 -1.5342
 8498TIP3    H225459   3.924   4.193   2.539 -0.8597 -3.4899 -1.8909
 8499TIP3   OH225460   0.790   1.465   3.981 -0.4187  0.0076 -0.3562
 8499TIP3    H125461   0.856   1.483   3.915 -0.0645 -0.7390 -0.2124
 8499TIP3    H225462   0.837   1.471   4.065 -0.7834  0.5969 -0.1913
 8500TIP3   OH225463   1.555   6.017   0.431  0.2372  0.0535 -0.1411
 8500TIP3    H125464   1.501   5.953   0.384 -0.1729  0.3386 -0.0583
 8500TIP3    H225465   1.573   5.975   0.515 -0.1321  0.0943 -0.0394
 8501TIP3   OH225466   4.538   6.100   4.751  0.3743  0.2954 -0.0050
 8501TIP3    H125467   4.497   6.119   4.835  2.7154  1.5930  0.9279
 8501TIP3    H225468   4.599   6.172   4.737  0.4751 -0.2000 -2.5592
 8502TIP3   OH225469   3.381   5.164   3.489  0.0226 -0.0148 -0.5274
 8502TIP3    H125470   3.398   5.234   3.425  0.5291 -0.5699 -1.0142
 8502TIP3    H225471   3.381   5.208   3.573 -0.1373  0.6500 -0.8646
 8503TIP3   OH225472   7.032   2.801   2.279 -0.4461  0.3288  0.0072
 8503TIP3    H125473   7.089   2.875   2.257 -1.2284  0.7576 -0.6176
 8503TIP3    H225474   6.949   2.822   2.237 -0.4841 -1.2322 -0.7489
 8504TIP3   OH225475   0.680   6.562   0.483  0.2604  0.2022  0.4306
 8504TIP3    H125476   0.642   6.588   0.400 -0.7105  0.3485  0.9131
 8504TIP3    H225477   0.770   6.537   0.461  0.3292  1.1895 -0.4918
 8505TIP3   OH225478   7.112   3.161   5.293 -0.3123  0.0250 -0.4026
 8505TIP3    H125479   7.118   3.113   5.210  0.5379 -0.6151  0.0147
 8505TIP3    H225480   7.129   3.094   5.360  3.2830  1.2549  0.1348
 8506TIP3   OH225481   0.116   3.929   5.368 -0.2715  0.0270  0.5987
 8506TIP3    H125482   0.087   3.876   5.442 -2.0316 -1.1467 -0.8564
 8506TIP3    H225483   0.157   3.867   5.308  0.4072  0.8348  0.1997
 8507TIP3   OH225484   1.985   0.675   5.824  0.1658  0.3414  0.3960
 8507TIP3    H125485   1.944   0.661   5.910 -0.4636  1.0941  0.2268
 8507TIP3    H225486   2.018   0.765   5.828  0.0688  0.4038 -0.1768
 8508TIP3   OH225487   5.344   3.249   0.440  0.2114 -0.0140  0.0880
 8508TIP3    H125488   5.311   3.299   0.514  0.6544 -0.3480  0.5194
 8508TIP3    H225489   5.272   3.249   0.377 -0.9513 -1.4104  1.3347
 8509TIP3   OH225490   0.687   4.431   3.762  0.5917 -0.3747  0.5635
 8509TIP3    H125491   0.760   4.491   3.750  0.6500 -0.8594 -1.9972
 8509TIP3    H225492   0.691   4.373   3.687 -1.1874 -1.7746  1.4728
 8510TIP3   OH225493   2.070   4.068   0.362  0.1626 -0.6381 -0.3006
 8510TIP3    H125494   2.141   4.031   0.413  0.2832 -0.9996 -0.7242
 8510TIP3    H225495   2.013   3.994   0.342 -0.9902 -0.1546  1.0641
 8511TIP3   OH225496   4.035   2.311   1.720 -0.1025  0.1821  0.5697
 8511TIP3    H125497   3.975   2.368   1.768  0.9705  1.0936  0.8639
 8511TIP3    H225498   4.011   2.323   1.628 -1.4530 -0.7479  0.7712
 8512TIP3   OH225499   0.786   6.177   1.338 -0.4060 -0.1710  0.1675
 8512TIP3    H125500   0.860   6.123   1.367 -0.3600 -0.4707 -0.4796
 8512TIP3    H225501   0.807   6.199   1.248  0.3468  2.2901  0.8753
 8513TIP3   OH225502   6.456   0.866   0.632 -0.2016  0.5324 -0.0600
 8513TIP3    H125503   6.417   0.817   0.560 -2.1982  2.2438 -0.2130
 8513TIP3    H225504   6.514   0.803   0.675  0.3459 -0.7968 -2.5773
 8514TIP3   OH225505   3.202   3.349   3.256  0.0260 -0.4280  0.0234
 8514TIP3    H125506   3.139   3.418   3.278  0.6962 -0.4994  2.5243
 8514TIP3    H225507   3.287   3.392   3.260  0.3624 -1.1046  0.3899
 8515TIP3   OH225508   0.829   4.860   3.763 -0.0140  0.4088  0.0935
 8515TIP3    H125509   0.919   4.829   3.758 -0.0099  0.0340  1.9109
 8515TIP3    H225510   0.776   4.783   3.741  0.0763  0.1929  0.6323
 8516TIP3   OH225511   5.856   4.160   4.506 -0.3536 -0.0882  0.1785
 8516TIP3    H125512   5.832   4.112   4.426 -1.3687  1.4666 -0.4893
 8516TIP3    H225513   5.773   4.191   4.541  0.3322  2.3465 -0.1738
 8517TIP3   OH225514   3.328   4.092   5.158 -0.7882  0.0909  0.1726
 8517TIP3    H125515   3.289   4.012   5.121  0.3341 -1.7652  2.6811
 8517TIP3    H225516   3.300   4.091   5.250 -0.9555  2.7943  0.2101
 8518TIP3   OH225517   4.755   6.140   5.823 -0.1416  0.4732 -0.1360
 8518TIP3    H125518   4.713   6.155   5.738 -0.4101 -0.1036 -0.1170
 8518TIP3    H225519   4.843   6.109   5.802 -0.1446  0.5127 -0.2044
 8519TIP3   OH225520   3.040   1.850   3.532  0.4445  0.1092  0.8717
 8519TIP3    H125521   3.072   1.940   3.524 -0.4517  0.3093 -1.0588
 8519TIP3    H225522   3.051   1.813   3.445 -3.6708 -0.0470  0.2395
 8520TIP3   OH225523   0.047   5.037   2.789  0.0003 -0.2393 -0.8362
 8520TIP3    H125524   0.014   5.089   2.861  0.1128 -1.1856 -0.0788
 8520TIP3    H225525  -0.011   4.961   2.785  1.6691 -1.6276  0.1363
 8521TIP3   OH225526   1.296   6.342   1.128 -0.6486  0.3882 -0.4701
 8521TIP3    H125527   1.281   6.260   1.082 -0.2321  1.3253 -2.3799
 8521TIP3    H225528   1.366   6.385   1.079 -0.8303  1.8749  0.4961
 8522TIP3   OH225529   5.190   5.281   5.571 -0.0043 -0.7388 -0.2173
 8522TIP3    H125530   5.166   5.373   5.573  1.6060 -0.2842 -0.3994
 8522TIP3    H225531   5.272   5.278   5.522 -1.7612 -2.7158 -3.3481
 8523TIP3   OH225532   1.145   3.049   1.202 -0.1696  0.5939  1.1029
 8523TIP3    H125533   1.216   3.073   1.262  0.3527 -1.6318  1.4377
 8523TIP3    H225534   1.182   3.065   1.115  0.1564  0.9270  1.2961
 8524TIP3   OH225535   4.088   0.570   2.026 -0.1860  0.5476 -0.0543
 8524TIP3    H125536   3.993   0.556   2.025 -0.3824  1.5097  1.3677
 8524TIP3    H225537   4.101   0.650   1.975 -0.3145  1.1744  0.8710
 8525TIP3   OH225538   6.646   1.641   3.073 -0.4835  0.0356 -0.5400
 8525TIP3    H125539   6.647   1.694   2.993  0.3441 -0.3180 -0.7687
 8525TIP3    H225540   6.685   1.697   3.140  1.5323 -0.6795 -1.0561
 8526TIP3   OH225541   7.188   4.694   0.842  0.2942  0.4176 -0.1836
 8526TIP3    H125542   7.167   4.762   0.779  0.7934  1.0826  0.3460
 8526TIP3    H225543   7.107   4.678   0.889  0.3738  1.2673  0.2617
 8527TIP3   OH225544   3.892   3.650   2.349 -0.2665  0.1229  0.3702
 8527TIP3    H125545   3.964   3.633   2.410  0.2721  0.3001 -0.1981
 8527TIP3    H225546   3.844   3.567   2.345 -0.0118 -0.0424  0.6562
 8528TIP3   OH225547   3.181   6.174   4.182  0.3372  0.1915 -0.3260
 8528TIP3    H125548   3.119   6.119   4.134 -0.2699  0.1654  0.4758
 8528TIP3    H225549   3.252   6.114   4.206  0.0999 -0.0467 -0.2120
 8529TIP3   OH225550   4.902   5.342   4.183 -0.0527  0.7436  0.0462
 8529TIP3    H125551   4.976   5.322   4.240 -0.5584  1.5078  1.0104
 8529TIP3    H225552   4.932   5.319   4.095  1.2741  0.8953  0.4341
 8530TIP3   OH225553   0.769   1.016   2.931  0.1330 -0.5582 -0.4988
 8530TIP3    H125554   0.809   1.103   2.926  2.0334 -1.3415  0.1558
 8530TIP3    H225555   0.700   1.026   2.996 -0.5651  0.7509 -1.3867
 8531TIP3   OH225556   2.710   0.373   3.309  0.1101 -0.3203 -0.7518
 8531TIP3    H125557   2.691   0.461   3.276  0.8190 -0.1850 -0.8006
 8531TIP3    H225558   2.688   0.377   3.402 -0.0484 -0.1528 -0.7950
 8532TIP3   OH225559   4.373   3.933   5.398  0.2425  0.0132  0.0264
 8532TIP3    H125560   4.444   3.877   5.430  2.0031  1.7093 -0.7573
 8532TIP3    H225561   4.322   3.955   5.476  1.3735 -0.1530  0.8242
 8533TIP3   OH225562   5.127   5.483   2.672  0.3119  0.3363 -0.8548
 8533TIP3    H125563   5.061   5.546   2.644 -0.2477 -0.3797 -1.1784
 8533TIP3    H225564   5.120   5.411   2.610  1.1932  0.1086 -0.7092
 8534TIP3   OH225565   4.118   2.929   5.399 -0.1301  0.4264 -0.6998
 8534TIP3    H125566   4.026   2.941   5.421  0.0282 -0.2441  0.4115
 8534TIP3    H225567   4.143   3.009   5.353 -1.4574  0.2913 -1.7200
 8535TIP3   OH225568   2.074   1.410   1.808  0.7226 -0.3689 -0.1508
 8535TIP3    H125569   2.164   1.399   1.779  0.9188 -1.0287  0.6477
 8535TIP3    H225570   2.033   1.325   1.794  1.0093 -0.9248  2.0090
 8536TIP3   OH225571   4.261   2.059   4.167 -0.2656 -0.2130  0.5301
 8536TIP3    H125572   4.214   2.127   4.217 -0.6657 -0.2624  0.2285
 8536TIP3    H225573   4.353   2.072   4.189 -0.3509  0.3609  0.5596
 8537TIP3   OH225574   4.083   2.060   2.108 -0.2601 -0.3699  0.0375
 8537TIP3    H125575   4.097   2.153   2.091 -0.6798 -0.5420 -1.3368
 8537TIP3    H225576   3.989   2.053   2.125 -0.1207 -0.4585  0.8141
 8538TIP3   OH225577   1.509   4.743   0.728  0.2385 -0.1424 -0.3751
 8538TIP3    H125578   1.479   4.798   0.800  1.6564  1.6227 -1.0518
 8538TIP3    H225579   1.586   4.698   0.763  0.4785  0.1306 -0.5517
 8539TIP3   OH225580   2.907   0.207   1.306  0.0285 -0.7314 -0.1539
 8539TIP3    H125581   2.933   0.162   1.226  0.7816 -0.4395 -0.0860
 8539TIP3    H225582   2.834   0.156   1.341  0.0041 -1.1263 -0.7770
 8540TIP3   OH225583   5.399   3.934   4.102 -0.3553 -0.1466 -0.5613
 8540TIP3    H125584   5.440   3.855   4.065 -1.3418 -0.8217 -0.2749
 8540TIP3    H225585   5.373   3.985   4.025 -0.9930 -0.7979 -0.7975
 8541TIP3   OH225586   0.491   1.382   4.510 -0.3512 -0.2944  0.8198
 8541TIP3    H125587   0.566   1.420   4.464 -0.8298 -1.8283 -1.3944
 8541TIP3    H225588   0.415   1.421   4.468 -0.8036 -1.2050  0.7745
 8542TIP3   OH225589   3.517   2.388   1.405 -0.5180  0.1600 -0.0562
 8542TIP3    H125590   3.541   2.299   1.379 -0.8847 -0.4025  1.4308
 8542TIP3    H225591   3.450   2.415   1.342  0.2003 -0.2831 -1.0234
 8543TIP3   OH225592   0.632   5.028   0.422  0.6956  0.1387 -0.1820
 8543TIP3    H125593   0.625   4.954   0.482 -0.0651 -0.3308 -0.8378
 8543TIP3    H225594   0.678   4.993   0.346  0.3274  0.3379 -0.4976
 8544TIP3   OH225595   4.572   6.155   1.059  0.7259 -0.5562  0.1440
 8544TIP3    H125596   4.618   6.228   1.098 -0.6179  0.8255 -0.7433
 8544TIP3    H225597   4.616   6.140   0.975 -0.4535  0.8822 -0.7878
 8545TIP3   OH225598   4.764   6.226   4.026 -0.9503 -0.4007 -0.4287
 8545TIP3    H125599   4.718   6.205   3.944 -1.0332  0.7760 -0.7020
 8545TIP3    H225600   4.856   6.236   3.999 -0.9528 -0.1762 -0.3586
 8546TIP3   OH225601   1.247   4.458   1.232  0.2137  0.4614 -0.1768
 8546TIP3    H125602   1.337   4.489   1.226  0.7557 -0.7495  1.0687
 8546TIP3    H225603   1.240   4.393   1.161  0.2917  0.6402 -0.3485
 8547TIP3   OH225604   4.852   3.304   0.249 -0.2738  0.4798 -0.1847
 8547TIP3    H125605   4.822   3.216   0.225  1.5134 -0.0620 -0.5341
 8547TIP3    H225606   4.810   3.321   0.334 -0.4584 -0.7939 -0.0049
 8548TIP3   OH225607   2.228   5.038   1.855  0.2034  0.4301  0.1570
 8548TIP3    H125608   2.132   5.045   1.855  0.1818  0.4887  1.7161
 8548TIP3    H225609   2.245   4.945   1.841 -0.1530  0.1176  1.6542
 8549TIP3   OH225610   1.176   3.131   1.916 -0.2531  0.1029  0.1091
 8549TIP3    H125611   1.107   3.197   1.922  0.5444  0.9470  0.1862
 8549TIP3    H225612   1.210   3.141   1.827 -0.0771 -0.1479  0.1494
 8550TIP3   OH225613   1.942   5.213   2.018 -0.6771  0.0789  0.2070
 8550TIP3    H125614   1.849   5.189   2.013 -1.8988  3.3726  3.0811
 8550TIP3    H225615   1.951   5.286   1.956 -0.1881  0.2616  0.4869
 8551TIP3   OH225616   5.810   4.387   4.782 -0.1493 -0.2918  0.5467
 8551TIP3    H125617   5.718   4.412   4.784 -0.0085  0.2861  0.2580
 8551TIP3    H225618   5.851   4.451   4.723  0.3496 -0.8341  0.2863
 8552TIP3   OH225619   4.781   6.515   3.767  0.3307  0.1651 -0.0865
 8552TIP3    H125620   4.708   6.497   3.708  0.7864 -1.2516 -0.2392
 8552TIP3    H225621   4.738   6.533   3.851 -0.3271  2.3854 -0.8244
 8553TIP3   OH225622   6.429   2.639   1.654 -0.3980  0.0943 -0.0110
 8553TIP3    H125623   6.417   2.719   1.705  0.0088  0.1015  0.0763
 8553TIP3    H225624   6.408   2.568   1.715  0.1206  0.1012  0.1775
 8554TIP3   OH225625   4.004   1.722   5.727  0.0709  0.3233  0.0634
 8554TIP3    H125626   4.061   1.720   5.804 -1.4688 -2.5426  1.2666
 8554TIP3    H225627   3.936   1.786   5.749 -0.6541 -0.8596  1.3716
 8555TIP3   OH225628   4.871   3.594   4.408 -0.4121  0.3325  0.1483
 8555TIP3    H125629   4.789   3.558   4.374  0.3435  1.5300 -3.2839
 8555TIP3    H225630   4.851   3.687   4.424  0.1392  0.5405 -0.3354
 8556TIP3   OH225631   2.140   4.353   5.589  0.3597 -0.0996 -0.0346
 8556TIP3    H125632   2.227   4.313   5.586 -0.7610 -2.6030 -1.3431
 8556TIP3    H225633   2.100   4.331   5.505 -0.1618  4.5380 -1.2714
 8557TIP3   OH225634   2.357   2.712   4.866  0.1878  0.2017 -0.6208
 8557TIP3    H125635   2.357   2.806   4.882 -1.0739  0.4291 -1.7667
 8557TIP3    H225636   2.450   2.689   4.856  0.6074  1.0342  1.0651
 8558TIP3   OH225637   1.070   0.885   1.546 -0.1869 -0.1336 -0.1934
 8558TIP3    H125638   0.995   0.831   1.522 -1.0790  0.9211  0.1376
 8558TIP3    H225639   1.081   0.871   1.640 -0.1517 -0.0581 -0.1863
 8559TIP3   OH225640   2.080   6.149   0.063  0.2280 -0.2665 -0.1426
 8559TIP3    H125641   2.105   6.093  -0.011 -0.5878 -1.2158  0.2811
 8559TIP3    H225642   2.004   6.197   0.031  0.8415  0.5132 -0.4566
 8560TIP3   OH225643   2.201   4.332   3.763  0.3386  0.5794 -0.1524
 8560TIP3    H125644   2.285   4.367   3.793  0.3337  1.3758 -0.9966
 8560TIP3    H225645   2.141   4.348   3.836  0.7312  0.7764  0.1334
 8561TIP3   OH225646   3.807   1.986   2.152 -0.3314  0.4135 -0.2633
 8561TIP3    H125647   3.723   2.026   2.176 -0.8736 -1.1602  0.5500
 8561TIP3    H225648   3.827   1.926   2.224  1.3520  0.5213 -0.5961
 8562TIP3   OH225649   4.331   4.692   1.332 -0.1337  0.7607 -0.1286
 8562TIP3    H125650   4.370   4.777   1.314 -0.2207  1.0600  1.0260
 8562TIP3    H225651   4.239   4.702   1.306  0.0345  0.7592 -0.7416
 8563TIP3   OH225652   5.129   4.165   4.217 -0.1256  0.2747  0.8535
 8563TIP3    H125653   5.076   4.215   4.155  1.9581 -0.5838 -1.7899
 8563TIP3    H225654   5.209   4.216   4.227  0.8904 -1.1512  0.2835
 8564TIP3   OH225655   5.367   0.625   1.263 -0.9370 -0.1286  0.3151
 8564TIP3    H125656   5.299   0.642   1.198 -0.7641 -0.5513  0.0194
 8564TIP3    H225657   5.319   0.617   1.346 -1.3092 -0.9171  0.0365
 8565TIP3   OH225658   1.863   1.908   4.487  0.2518  0.2650 -0.2028
 8565TIP3    H125659   1.838   1.989   4.531  1.6141  0.7462 -0.2737
 8565TIP3    H225660   1.862   1.842   4.556  2.5520  1.0477  0.6743
 8566TIP3   OH225661   1.300   4.198   1.099 -0.4225  0.2536 -0.0583
 8566TIP3    H125662   1.305   4.166   1.009 -0.3425 -0.5842  0.2371
 8566TIP3    H225663   1.371   4.154   1.144  0.4658  1.7664  0.1042
 8567TIP3   OH225664   1.937   2.546   3.716  0.5062  0.0373  0.1956
 8567TIP3    H125665   2.026   2.561   3.685  0.7579  1.3906  1.4858
 8567TIP3    H225666   1.944   2.475   3.779  0.6868  0.2506  0.4128
 8568TIP3   OH225667   4.789   4.374   5.748 -0.2950 -0.0461  0.2355
 8568TIP3    H125668   4.708   4.421   5.732 -0.9329 -1.2900 -0.2934
 8568TIP3    H225669   4.831   4.370   5.662 -0.2648 -0.4818  0.2718
 8569TIP3   OH225670   3.758   1.289   2.483  0.3737 -0.2551 -0.6239
 8569TIP3    H125671   3.722   1.355   2.542  1.1894 -1.3609  1.1994
 8569TIP3    H225672   3.731   1.205   2.520  1.2361 -1.0045 -1.6177
 8570TIP3   OH225673   2.174   2.005   2.814  0.2462  0.2098  0.2413
 8570TIP3    H125674   2.138   2.053   2.740 -1.0348  0.6554  1.1139
 8570TIP3    H225675   2.156   2.061   2.890  1.8851 -0.0432  0.8675
 8571TIP3   OH225676   0.657   3.707   3.667  0.3529  0.2186 -0.5305
 8571TIP3    H125677   0.590   3.775   3.673  0.5087  0.2965  0.4454
 8571TIP3    H225678   0.687   3.711   3.576  0.0902  1.1982 -0.5848
 8572TIP3   OH225679   4.003   2.081   5.358  0.3228 -0.1110  0.5932
 8572TIP3    H125680   3.948   2.009   5.387 -1.9924  2.2085  2.4981
 8572TIP3    H225681   4.088   2.065   5.399 -0.4612 -1.1850  1.8744
 8573TIP3   OH225682   1.038   5.953   0.401 -0.2980  0.0814  0.6294
 8573TIP3    H125683   0.952   5.978   0.436 -0.5292  1.6940 -0.9427
 8573TIP3    H225684   1.100   5.986   0.466 -0.8003  1.0151  0.6599
 8574TIP3   OH225685   6.914   5.434   0.952 -0.5889  0.0038 -0.3917
 8574TIP3    H125686   6.955   5.380   0.885 -0.8094  1.2885 -1.6101
 8574TIP3    H225687   6.931   5.524   0.924 -2.0563  0.5684  0.4200
 8575TIP3   OH225688   7.136   3.183   2.015 -0.0768 -0.1785 -0.2555
 8575TIP3    H125689   7.065   3.163   1.954  0.7367 -0.3999 -1.1648
 8575TIP3    H225690   7.093   3.195   2.100 -1.0907 -1.2429 -0.5971
 8576TIP3   OH225691   4.866   0.223   2.466 -0.0929 -0.3457 -0.0092
 8576TIP3    H125692   4.872   0.313   2.498 -2.3796 -0.5438  1.1798
 8576TIP3    H225693   4.957   0.198   2.446  0.7965  1.6380  1.2697
 8577TIP3   OH225694   2.008   5.300   5.841  0.0022  0.2372  0.8226
 8577TIP3    H125695   1.916   5.278   5.853 -1.1218  3.2113 -1.2868
 8577TIP3    H225696   2.051   5.216   5.824 -2.3372 -1.1808  1.4609
 8578TIP3   OH225697   7.178   6.385   2.330  0.1502  0.1025 -0.1164
 8578TIP3    H125698   7.138   6.399   2.415 -0.6301 -0.2548 -0.4169
 8578TIP3    H225699   7.158   6.294   2.308  0.4502  0.1536 -0.6267
 8579TIP3   OH225700   0.198   5.849   0.851  0.4108  0.3709  0.1432
 8579TIP3    H125701   0.285   5.817   0.874  0.2088  0.1525  0.6075
 8579TIP3    H225702   0.202   5.863   0.756  1.2748  1.3598  0.2993
 8580TIP3   OH225703   6.283   5.384   1.791  0.0845 -0.4836 -0.1921
 8580TIP3    H125704   6.238   5.355   1.712 -2.0253  0.8034  0.4780
 8580TIP3    H225705   6.248   5.471   1.809  2.2914  0.2695  0.8474
 8581TIP3   OH225706   0.455   2.095   4.119 -0.1457  0.1433 -0.6168
 8581TIP3    H125707   0.545   2.067   4.136  0.0937  0.1242 -1.8514
 8581TIP3    H225708   0.408   2.013   4.103 -0.7151  0.0258  1.3177
 8582TIP3   OH225709   6.790   5.054   2.750  0.1577 -0.2586  0.1080
 8582TIP3    H125710   6.836   5.130   2.714 -0.1398 -0.2864 -0.3431
 8582TIP3    H225711   6.697   5.072   2.733  0.0926 -0.7682 -0.0984
 8583TIP3   OH225712   4.479   4.304   2.684  0.1719 -0.0986 -0.5984
 8583TIP3    H125713   4.520   4.219   2.697  1.3976  0.5217 -0.1987
 8583TIP3    H225714   4.400   4.302   2.739  0.9791 -0.4538  0.5861
 8584TIP3   OH225715   7.004   2.409   1.808 -0.0461  0.6016 -0.3390
 8584TIP3    H125716   6.992   2.498   1.773 -1.2883  0.1413 -1.1628
 8584TIP3    H225717   6.962   2.412   1.894  0.5603  0.9992 -0.0497
 8585TIP3   OH225718   3.597   2.019   1.586 -0.4358 -0.3240  0.0556
 8585TIP3    H125719   3.639   2.007   1.501 -1.5086  0.4383 -0.6152
 8585TIP3    H225720   3.643   1.959   1.645 -0.0068 -1.2394 -1.1721
 8586TIP3   OH225721   1.015   6.486   4.794 -0.8366 -0.6205 -0.0500
 8586TIP3    H125722   1.029   6.529   4.878  0.9560 -0.2961 -0.4799
 8586TIP3    H225723   0.954   6.543   4.747 -0.0262  0.4298  0.1466
 8587TIP3   OH225724   2.902   1.943   4.948 -0.6629 -0.2722 -0.0950
 8587TIP3    H125725   2.832   1.883   4.923 -0.4105 -0.9184  0.7184
 8587TIP3    H225726   2.893   1.953   5.043  1.2813 -1.6025  0.2802
 8588TIP3   OH225727   4.978   2.321   0.787 -0.3532  0.0604  0.3562
 8588TIP3    H125728   4.949   2.406   0.753 -1.3930 -0.3366  0.2233
 8588TIP3    H225729   4.898   2.275   0.811  0.2322 -0.6308  1.0675
 8589TIP3   OH225730   6.379   3.293   3.986  0.2123  0.0944  0.4593
 8589TIP3    H125731   6.325   3.215   3.975  0.0078 -0.0556  2.1865
 8589TIP3    H225732   6.451   3.264   4.043  0.4926  0.9969  0.5789
 8590TIP3   OH225733   5.600   2.476   1.659  0.5648  0.5534 -0.5005
 8590TIP3    H125734   5.521   2.529   1.653  0.8112  0.9162 -0.6228
 8590TIP3    H225735   5.577   2.405   1.719  0.0451  0.4627 -0.8030
 8591TIP3   OH225736   5.118   6.527   1.040 -0.0453  0.4897  0.0444
 8591TIP3    H125737   5.107   6.512   0.946  1.1777 -1.8215  0.1968
 8591TIP3    H225738   5.188   6.593   1.046  0.2246  0.2749 -0.6646
 8592TIP3   OH225739   6.672   1.939   4.852  0.1733 -0.8552 -0.0386
 8592TIP3    H125740   6.726   1.916   4.927 -0.3297 -0.8282  0.3382
 8592TIP3    H225741   6.582   1.936   4.886 -0.0665 -0.9905 -0.6729
 8593TIP3   OH225742   5.387   5.195   0.370  0.9278 -0.4106 -0.3019
 8593TIP3    H125743   5.426   5.229   0.451  1.4863 -1.7784  0.0359
 8593TIP3    H225744   5.293   5.198   0.386  1.0404 -2.3197  1.1793
 8594TIP3   OH225745   3.880   4.593   0.671  0.2569  0.2425 -0.2918
 8594TIP3    H125746   3.857   4.646   0.746  1.0319 -1.3517  1.1394
 8594TIP3    H225747   3.809   4.528   0.665 -0.3516  0.9817 -1.6230
 8595TIP3   OH225748   0.253   5.169   1.256  0.5585  0.4977  0.0394
 8595TIP3    H125749   0.207   5.246   1.288 -1.4324 -0.0816 -1.2625
 8595TIP3    H225750   0.249   5.106   1.328  0.9904  1.1031  0.6014
 8596TIP3   OH225751   0.119   5.033   1.479  0.0091  0.0904  0.2300
 8596TIP3    H125752   0.052   4.996   1.535 -0.3522  0.4659  0.0515
 8596TIP3    H225753   0.163   5.098   1.534  0.5100 -0.4535  0.4798
 8597TIP3   OH225754   4.191   3.210   5.729 -0.2517 -0.0675 -0.2234
 8597TIP3    H125755   4.138   3.131   5.738  0.0512 -0.2501  0.0095
 8597TIP3    H225756   4.275   3.178   5.695  0.0127  0.0945  0.2580
 8598TIP3   OH225757   2.503   1.045   1.953 -0.2164  0.2856 -0.4546
 8598TIP3    H125758   2.479   0.955   1.929  1.1045 -0.4543  0.8705
 8598TIP3    H225759   2.419   1.090   1.961 -1.0456 -1.3601  0.8472
 8599TIP3   OH225760   6.144   0.143   4.383 -0.2516 -0.3267 -0.5032
 8599TIP3    H125761   6.236   0.118   4.385 -0.1081  0.2023 -0.3580
 8599TIP3    H225762   6.123   0.149   4.290 -0.2880 -0.9623 -0.5428
 8600TIP3   OH225763   0.505   3.553   5.437  0.9512  0.0650 -0.1165
 8600TIP3    H125764   0.576   3.512   5.388 -0.6381 -0.8553 -1.7847
 8600TIP3    H225765   0.501   3.642   5.404  1.2776  0.0908 -0.0822
 8601TIP3   OH225766   7.066   0.267   1.751  0.3025 -0.6036 -0.1951
 8601TIP3    H125767   7.089   0.189   1.700  2.7567 -0.8835  1.1752
 8601TIP3    H225768   7.020   0.233   1.827 -0.4045 -0.4988 -0.5678
 8602TIP3   OH225769   1.281   3.882   2.448  0.1212 -0.0634  0.2866
 8602TIP3    H125770   1.375   3.885   2.431  0.1791  0.2813  0.6625
 8602TIP3    H225771   1.272   3.903   2.541 -0.5250  3.1546 -0.3823
 8603TIP3   OH225772   6.621   3.211   1.751  0.1433  0.4713 -0.7665
 8603TIP3    H125773   6.683   3.273   1.712  0.3475  0.2228 -0.8376
 8603TIP3    H225774   6.649   3.204   1.842 -1.3568  2.3750 -0.0665
 8604TIP3   OH225775   1.184   3.239   1.634  0.1325 -0.3165 -0.4344
 8604TIP3    H125776   1.167   3.261   1.542  0.2483 -1.4925 -0.7482
 8604TIP3    H225777   1.279   3.225   1.638 -0.0860 -2.0247 -0.5498
 8605TIP3   OH225778   3.831   0.209   3.286  0.2450  0.2610  0.1065
 8605TIP3    H125779   3.839   0.301   3.310 -1.2446  0.4912 -0.1978
 8605TIP3    H225780   3.739   0.198   3.263  0.6901 -0.9765 -1.2504
 8606TIP3   OH225781   6.992   5.458   4.661  0.0862 -0.1776  0.2340
 8606TIP3    H125782   7.040   5.536   4.687  0.4868 -0.4595  0.3469
 8606TIP3    H225783   7.001   5.454   4.566  0.1583 -0.1490  0.2397
 8607TIP3   OH225784   4.005   0.910   2.672 -0.3073  0.2394  0.5309
 8607TIP3    H125785   3.948   0.834   2.655 -0.3753  0.7321 -1.6433
 8607TIP3    H225786   3.945   0.984   2.678 -0.0469  0.4696  0.2738
 8608TIP3   OH225787   5.233   3.965   1.869 -0.3748 -0.3717  0.1083
 8608TIP3    H125788   5.199   4.054   1.878 -1.9037 -1.0918  2.2203
 8608TIP3    H225789   5.306   3.961   1.930  0.3366 -0.3058 -0.7188
 8609TIP3   OH225790   0.591   2.405   5.165  0.3652 -0.6108  0.1819
 8609TIP3    H125791   0.557   2.316   5.159  0.4893 -0.6229 -0.4182
 8609TIP3    H225792   0.599   2.434   5.074  0.0167  0.1341  0.3753
 8610TIP3   OH225793   4.851   6.186   0.199 -0.0647  0.6383 -0.0725
 8610TIP3    H125794   4.814   6.258   0.250 -2.2988 -1.2420  1.1587
 8610TIP3    H225795   4.776   6.147   0.154  0.9631 -1.3063 -0.1999
 8611TIP3   OH225796   0.822   0.543   3.537  0.3183 -0.0980  1.0788
 8611TIP3    H125797   0.757   0.492   3.488  1.9844 -0.8920 -0.3772
 8611TIP3    H225798   0.896   0.484   3.548  1.4714  1.3205  1.2325
 8612TIP3   OH225799   4.611   6.192   2.939  0.2311 -0.6929 -0.0068
 8612TIP3    H125800   4.575   6.237   2.862 -0.3638  1.4002  1.3840
 8612TIP3    H225801   4.534   6.153   2.981  0.1863  0.0977  0.6789
 8613TIP3   OH225802   0.131   2.327   2.058 -0.3933 -0.5263 -0.0137
 8613TIP3    H125803   0.216   2.336   2.102 -0.9828  1.7895  0.8313
 8613TIP3    H225804   0.067   2.322   2.129 -1.0656 -1.2071 -0.6401
 8614TIP3   OH225805   0.876   3.027   2.234  0.0061  0.2808  0.3784
 8614TIP3    H125806   0.858   3.121   2.229  0.7414  0.4284  0.4817
 8614TIP3    H225807   0.924   3.017   2.316  2.7507  0.2956 -1.1041
 8615TIP3   OH225808   2.286   1.233   1.986 -0.4759  0.1266  0.2860
 8615TIP3    H125809   2.212   1.174   1.968  0.1105  0.0596 -2.2845
 8615TIP3    H225810   2.250   1.321   1.973 -0.2926  0.1233 -0.2714
 8616TIP3   OH225811   2.526   4.208   1.384 -0.4504 -0.1240 -1.1244
 8616TIP3    H125812   2.492   4.170   1.465  2.3790  2.7810  1.7203
 8616TIP3    H225813   2.454   4.262   1.350 -1.3081 -0.4190  0.1712
 8617TIP3   OH225814   1.537   4.305   0.022  0.2991 -0.0617 -0.0371
 8617TIP3    H125815   1.547   4.373   0.089  0.5867  0.7825 -0.9287
 8617TIP3    H225816   1.455   4.261   0.046 -0.0037  0.7351  0.4336
 8618TIP3   OH225817   0.380   6.192   3.129  0.4746 -0.6364  0.4412
 8618TIP3    H125818   0.285   6.195   3.116  0.1446 -0.4876  2.5628
 8618TIP3    H225819   0.405   6.106   3.095 -0.7908 -1.5750  1.7457
 8619TIP3   OH225820   5.328   5.867   2.949  0.5811  0.6269 -0.4395
 8619TIP3    H125821   5.251   5.899   2.997 -0.5280  0.7302 -2.1851
 8619TIP3    H225822   5.294   5.846   2.862  2.4056 -0.0623 -1.0215
 8620TIP3   OH225823   1.087   2.085   0.527  0.1318  0.5083  0.6052
 8620TIP3    H125824   1.156   2.043   0.579  0.7008  0.5260 -0.1280
 8620TIP3    H225825   1.093   2.177   0.550  1.9721  0.9188 -1.2087
 8621TIP3   OH225826   3.486   0.325   1.786 -0.0501 -0.5378 -0.0174
 8621TIP3    H125827   3.431   0.271   1.730  1.6075 -1.4992 -0.8182
 8621TIP3    H225828   3.474   0.414   1.753 -0.0866 -0.9234 -1.0948
 8622TIP3   OH225829   1.083   1.925   1.866  0.0946  0.1356  0.2482
 8622TIP3    H125830   1.029   1.999   1.893 -2.3172 -1.2244 -0.5419
 8622TIP3    H225831   1.047   1.899   1.781  1.0965 -1.7251  0.3377
 8623TIP3   OH225832   1.975   3.316   2.962 -0.3826 -0.4000  0.6341
 8623TIP3    H125833   2.071   3.312   2.972 -0.1589  2.1832  0.1845
 8623TIP3    H225834   1.961   3.323   2.868 -0.8604  0.9750  0.7824
 8624TIP3   OH225835   3.075   1.719   1.080 -0.0806 -0.0387  0.2095
 8624TIP3    H125836   3.044   1.683   0.997 -2.4890  2.7146 -0.2575
 8624TIP3    H225837   3.038   1.661   1.147  0.0889 -1.0680 -0.5699
 8625TIP3   OH225838   4.417   1.102   5.314 -0.0174  0.4689 -0.1844
 8625TIP3    H125839   4.344   1.164   5.319 -2.1623 -1.7563 -1.6208
 8625TIP3    H225840   4.473   1.125   5.388 -2.3004  2.1275  1.1637
 8626TIP3   OH225841   1.281   4.437   3.478  0.4665 -0.1198  0.0262
 8626TIP3    H125842   1.297   4.393   3.561 -2.3397 -1.7963 -0.1852
 8626TIP3    H225843   1.219   4.508   3.499  0.1657 -0.2046 -0.5404
 8627TIP3   OH225844   6.431   0.944   3.818  0.0661 -0.5858  0.0240
 8627TIP3    H125845   6.435   1.028   3.864  0.5518  0.0587 -1.1689
 8627TIP3    H225846   6.342   0.912   3.835 -0.0107 -0.0151  0.7755
 8628TIP3   OH225847   4.812   3.954   1.346  0.1004  0.3048 -0.0418
 8628TIP3    H125848   4.852   3.871   1.371  0.6233  0.6235  0.2206
 8628TIP3    H225849   4.721   3.948   1.375 -0.0896 -0.5006 -0.7896
 8629TIP3   OH225850   4.363   2.212   4.693 -0.0354 -0.2001  0.0251
 8629TIP3    H125851   4.312   2.218   4.774 -0.2332 -0.2293 -0.0965
 8629TIP3    H225852   4.357   2.299   4.654 -0.6937 -0.4299 -0.4082
 8630TIP3   OH225853   1.234   1.521   2.553  0.7111 -0.4805 -0.2987
 8630TIP3    H125854   1.293   1.467   2.501  1.5335  0.7210 -0.6670
 8630TIP3    H225855   1.267   1.611   2.541  1.0268 -0.1522  2.3914
 8631TIP3   OH225856   0.830   6.294   4.452 -0.1168 -0.1893  0.4907
 8631TIP3    H125857   0.805   6.386   4.447 -1.3785 -0.3551  2.4571
 8631TIP3    H225858   0.834   6.276   4.546  1.3400 -1.8352  0.1584
 8632TIP3   OH225859   6.351   4.346   1.807 -0.6263 -1.3195  0.5752
 8632TIP3    H125860   6.412   4.273   1.815  1.9015  0.2415 -2.2898
 8632TIP3    H225861   6.401   4.414   1.763 -4.3255  0.3224 -1.5441
 8633TIP3   OH225862   4.041   0.736   4.753  0.1591  0.7575 -0.3347
 8633TIP3    H125863   4.027   0.655   4.704  1.7764 -1.9654  3.1504
 8633TIP3    H225864   4.124   0.770   4.719  2.0907 -1.9420  1.2556
 8634TIP3   OH225865   4.634   2.848   0.191  0.7229  0.4553 -0.5954
 8634TIP3    H125866   4.572   2.787   0.150 -1.6501 -0.0048  3.2018
 8634TIP3    H225867   4.695   2.792   0.239  0.1655  0.9559  0.7471
 8635TIP3   OH225868   4.134   6.301   3.523 -0.0090  0.3190 -0.4100
 8635TIP3    H125869   4.060   6.294   3.584 -1.5282  1.2917 -2.0761
 8635TIP3    H225870   4.211   6.303   3.580 -1.2834  0.0163  1.4156
 8636TIP3   OH225871   3.018   2.962   1.927  0.1005  0.7981 -0.7064
 8636TIP3    H125872   3.015   3.047   1.971  1.7627  1.3831 -1.6420
 8636TIP3    H225873   3.073   2.976   1.850  1.3589 -1.3904 -0.2996
 8637TIP3   OH225874   6.369   6.592   4.467 -0.0037 -0.3069  0.8055
 8637TIP3    H125875   6.314   6.610   4.391  0.4234 -0.5790  0.4253
 8637TIP3    H225876   6.310   6.553   4.532  0.0388 -2.1525 -0.2006
 8638TIP3   OH225877   6.248   3.691   5.029 -0.2025 -0.6376 -0.1119
 8638TIP3    H125878   6.284   3.693   5.118 -0.2404  0.3984 -0.1056
 8638TIP3    H225879   6.205   3.776   5.019  1.1577 -0.0781 -1.6693
 8639TIP3   OH225880   7.129   1.780   0.702  0.4695  0.6829  0.9822
 8639TIP3    H125881   7.034   1.791   0.707  0.0412  0.6709 -3.4144
 8639TIP3    H225882   7.143   1.685   0.708  0.0029  0.5463  0.0071
 8640TIP3   OH225883   7.099   2.436   5.861 -0.3903 -0.0533 -0.4285
 8640TIP3    H125884   7.010   2.427   5.828 -0.2343  0.5956 -1.0474
 8640TIP3    H225885   7.133   2.514   5.818  0.1029  0.3615  0.6673
 8641TIP3   OH225886   5.441   6.149   2.847 -0.1289  0.0689 -0.2437
 8641TIP3    H125887   5.477   6.148   2.758  2.7420 -0.0671  0.8424
 8641TIP3    H225888   5.476   6.229   2.886 -0.5545 -0.3674  1.0814
 8642TIP3   OH225889   5.967   6.237   3.746 -0.4046  0.1814  0.5342
 8642TIP3    H125890   5.891   6.216   3.692 -0.6618  0.1458  0.9090
 8642TIP3    H225891   6.042   6.212   3.692 -0.6071  1.4959 -0.3906
 8643TIP3   OH225892   2.105   2.330   2.711  0.0288  0.6056 -0.1963
 8643TIP3    H125893   2.123   2.395   2.644  1.5705  0.6823  0.2553
 8643TIP3    H225894   2.134   2.371   2.793 -1.1406  0.2320  0.4281
 8644TIP3   OH225895   1.144   1.244   4.747  0.4723  0.5172  0.0802
 8644TIP3    H125896   1.111   1.312   4.805  2.1651  1.9198 -0.4968
 8644TIP3    H225897   1.220   1.207   4.792 -0.1453 -0.6932  0.1751
 8645TIP3   OH225898   6.614   3.756   0.618  0.4896 -0.5204  0.6218
 8645TIP3    H125899   6.670   3.696   0.568 -0.2233 -0.8242  0.1805
 8645TIP3    H225900   6.657   3.841   0.607  1.9286 -1.0392  1.8730
 8646TIP3   OH225901   1.911   0.627   2.133 -0.3645 -0.2024 -0.4201
 8646TIP3    H125902   1.906   0.685   2.057 -0.2840  2.4331  1.4751
 8646TIP3    H225903   2.001   0.595   2.133  0.3170  1.6305 -0.1749
 8647TIP3   OH225904   6.561   4.816   1.936  0.2816  0.4734  0.0721
 8647TIP3    H125905   6.493   4.818   2.004 -1.1265  1.5094 -1.2734
 8647TIP3    H225906   6.628   4.757   1.970 -0.7930  0.2550  1.9431
 8648TIP3   OH225907   4.712   0.689   3.453  0.3249 -0.0669 -0.0799
 8648TIP3    H125908   4.757   0.772   3.467 -0.3450  0.3291 -0.2484
 8648TIP3    H225909   4.781   0.623   3.458  0.9300  0.5369 -0.3653
 8649TIP3   OH225910   5.065   2.412   3.693  0.8898 -0.3394  0.3725
 8649TIP3    H125911   5.111   2.340   3.650  1.3684  0.3642 -0.3338
 8649TIP3    H225912   5.006   2.446   3.626  0.1846 -0.4913  0.9100
 8650TIP3   OH225913   4.011   6.205   4.036  0.4246 -1.0363  0.2707
 8650TIP3    H125914   4.065   6.152   4.095 -1.1651 -1.2475  1.5833
 8650TIP3    H225915   3.947   6.144   4.001  0.6857 -0.6748 -0.8682
 8651TIP3   OH225916   4.503   6.659   3.334 -0.0870 -0.0567  0.3145
 8651TIP3    H125917   4.444   6.720   3.289  0.0706 -0.0214  0.1567
 8651TIP3    H225918   4.576   6.714   3.363  0.0170 -0.1600  0.2412
 8652TIP3   OH225919   0.497   6.561   3.347 -0.3405 -0.1900  0.3599
 8652TIP3    H125920   0.470   6.603   3.429  0.3812 -1.6174  1.3759
 8652TIP3    H225921   0.451   6.477   3.346 -0.0257 -0.3652 -0.5005
 8653TIP3   OH225922   4.846   1.212   1.067 -0.4640  0.6607  0.3305
 8653TIP3    H125923   4.800   1.290   1.097  1.1173  2.0109 -0.5571
 8653TIP3    H225924   4.838   1.215   0.972 -2.0167 -1.3661  0.3379
 8654TIP3   OH225925   2.561   5.641   5.207  0.2299 -0.4625  0.2137
 8654TIP3    H125926   2.480   5.679   5.171  0.2693 -2.1803 -1.9302
 8654TIP3    H225927   2.621   5.640   5.132  1.9331 -0.1186  1.5299
 8655TIP3   OH225928   3.758   2.634   4.727  0.5558 -0.5118  0.0278
 8655TIP3    H125929   3.782   2.592   4.810 -3.1329  0.6290  1.8827
 8655TIP3    H225930   3.743   2.726   4.750  0.5289  0.1037 -2.2097
 8656TIP3   OH225931   2.444   1.821   1.069 -0.2165 -0.1580 -0.3595
 8656TIP3    H125932   2.488   1.904   1.082  2.4017 -1.6612  1.3805
 8656TIP3    H225933   2.420   1.792   1.157  1.9034 -2.6304 -0.4653
 8657TIP3   OH225934   6.881   2.315   4.440  0.0722  0.1768  0.0258
 8657TIP3    H125935   6.910   2.243   4.496 -1.3254 -1.4159 -1.1946
 8657TIP3    H225936   6.936   2.309   4.362 -2.2265 -1.8333 -1.5821
 8658TIP3   OH225937   6.546   0.621   2.959 -0.3079  0.2442  0.2133
 8658TIP3    H125938   6.579   0.571   3.034 -0.4381  1.5472  1.1734
 8658TIP3    H225939   6.617   0.620   2.896 -0.3413 -1.2204  0.1474
 8659TIP3   OH225940   4.140   1.360   3.323 -0.2745 -0.2854 -0.4841
 8659TIP3    H125941   4.190   1.279   3.314 -0.9961 -0.6387 -1.4975
 8659TIP3    H225942   4.152   1.405   3.239 -1.3491 -0.2106 -0.6102
 8660TIP3   OH225943   6.523   4.546   1.739 -0.2980 -0.1277  0.7259
 8660TIP3    H125944   6.511   4.627   1.788  0.8729 -0.4325  1.5450
 8660TIP3    H225945   6.590   4.567   1.674 -0.8309 -0.1276  0.1625
 8661TIP3   OH225946   6.511   6.656   0.620 -0.1479  0.0392 -0.2938
 8661TIP3    H125947   6.560   6.577   0.644 -1.5657 -1.0736 -0.8701
 8661TIP3    H225948   6.422   6.638   0.651 -0.9651  0.5377 -2.2411
 8662TIP3   OH225949   1.898   4.506   0.994 -0.3218  0.2994 -0.4243
 8662TIP3    H125950   1.970   4.542   0.944 -0.0297 -1.6966 -1.5630
 8662TIP3    H225951   1.939   4.466   1.070 -0.1229 -1.1503 -1.2526
 8663TIP3   OH225952   6.010   5.546  -0.021  0.3566  0.5651  0.5628
 8663TIP3    H125953   6.013   5.629   0.026 -0.3898  0.0589  1.5494
 8663TIP3    H225954   6.077   5.492   0.023  0.6005  0.5320  0.1521
 8664TIP3   OH225955   5.201   1.244   5.402 -0.3318  0.0689 -0.2304
 8664TIP3    H125956   5.273   1.237   5.339 -1.9977  0.7749 -2.3199
 8664TIP3    H225957   5.232   1.195   5.478  1.2432 -2.0549 -2.0851
 8665TIP3   OH225958   3.425   2.662   4.362  0.5461  0.0083 -0.1377
 8665TIP3    H125959   3.494   2.618   4.410 -0.0514 -0.8140 -0.0297
 8665TIP3    H225960   3.352   2.667   4.423  0.1231 -0.1542 -0.6252
 8666TIP3   OH225961   0.438   4.452   2.258 -0.5548 -0.3940 -0.1520
 8666TIP3    H125962   0.448   4.544   2.233 -0.9942 -0.1341  0.5739
 8666TIP3    H225963   0.349   4.430   2.232 -0.9519 -0.1733  0.9765
 8667TIP3   OH225964   1.853   4.857   1.789  0.5415  0.5882 -0.4332
 8667TIP3    H125965   1.812   4.854   1.703  1.5567  1.5406 -0.9716
 8667TIP3    H225966   1.900   4.774   1.796  0.5453  0.5529 -0.8391
 8668TIP3   OH225967   6.582   0.726   3.726  0.7380  0.1595 -0.3725
 8668TIP3    H125968   6.548   0.799   3.779  0.5292  0.3582 -0.7796
 8668TIP3    H225969   6.577   0.650   3.784 -0.0361  0.2625 -0.2952
 8669TIP3   OH225970   2.966   2.363   0.516  0.2478 -0.6774 -0.3116
 8669TIP3    H125971   2.956   2.454   0.487  1.1130 -0.4722 -0.0019
 8669TIP3    H225972   2.876   2.332   0.527 -0.0641  0.0214 -0.7856
 8670TIP3   OH225973   6.274   2.430   1.835 -0.5210 -0.1661 -0.4308
 8670TIP3    H125974   6.196   2.441   1.780 -0.6095  0.2104 -0.2399
 8670TIP3    H225975   6.240   2.405   1.920 -0.6705  2.4852  0.4006
 8671TIP3   OH225976   5.183   1.350   2.459  0.0128 -0.0227  0.0728
 8671TIP3    H125977   5.237   1.279   2.494  0.1559  0.0080 -0.0866
 8671TIP3    H225978   5.178   1.414   2.530  0.9212  0.3846 -0.2175
 8672TIP3   OH225979   1.728   2.492   5.326 -0.0217  0.3200  0.0418
 8672TIP3    H125980   1.683   2.555   5.382 -1.5258 -1.9471  1.5451
 8672TIP3    H225981   1.665   2.420   5.315  1.5005 -0.8421 -1.8108
 8673TIP3   OH225982   5.496   2.445   3.435 -0.7890 -0.7494 -0.0322
 8673TIP3    H125983   5.442   2.411   3.363 -0.2443 -1.7723  0.0198
 8673TIP3    H225984   5.570   2.488   3.391 -0.6258 -1.0881 -0.0955
 8674TIP3   OH225985   3.151   0.623   5.336  0.1319  0.3009 -0.3808
 8674TIP3    H125986   3.065   0.606   5.373 -0.9012  2.5233 -1.5607
 8674TIP3    H225987   3.204   0.654   5.409 -0.0091 -1.0994  0.3515
 8675TIP3   OH225988   1.483   4.309   4.429 -0.1141  0.3155  0.1308
 8675TIP3    H125989   1.544   4.259   4.373  0.5901 -0.1627  1.2842
 8675TIP3    H225990   1.397   4.278   4.403  0.1886  0.1926 -0.7749
 8676TIP3   OH225991   0.640   4.833   4.302  0.2167 -0.2711 -0.2204
 8676TIP3    H125992   0.679   4.813   4.217  0.9879  0.3847 -0.0319
 8676TIP3    H225993   0.666   4.761   4.359  1.1130  0.1332 -0.1120
 8677TIP3   OH225994   5.997   3.108   4.947  0.7201 -0.0061  0.4777
 8677TIP3    H125995   6.068   3.159   4.909  1.5290 -1.8552 -0.6026
 8677TIP3    H225996   6.023   3.096   5.039 -0.0571  2.4216  1.0841
 8678TIP3   OH225997   3.555   2.137   4.312 -0.4749  0.3764 -0.3608
 8678TIP3    H125998   3.547   2.043   4.299  2.1411  0.2745 -2.0333
 8678TIP3    H225999   3.523   2.152   4.401 -1.2153 -2.0293 -0.1604
 8679TIP3   OH226000   2.529   1.050   1.318  0.4151  0.4503  0.0286
 8679TIP3    H126001   2.565   0.962   1.332  0.9873  1.0847  3.3839
 8679TIP3    H226002   2.441   1.046   1.356  0.5615  1.3988  0.4835
 8680TIP3   OH226003   1.594   0.068   3.687 -0.1422 -0.2009  0.1958
 8680TIP3    H126004   1.556   0.077   3.774 -0.3991  1.0192 -0.0339
 8680TIP3    H226005   1.674   0.016   3.701 -1.0571 -1.4703  0.8902
 8681TIP3   OH226006   1.221   5.589   5.299  0.1871  0.0049 -0.8303
 8681TIP3    H126007   1.297   5.575   5.242 -0.3823 -1.0192 -1.3729
 8681TIP3    H226008   1.232   5.525   5.369  0.6874  1.0055  0.0425
 8682TIP3   OH226009   6.447   1.964   0.634 -0.1648  0.0645 -0.5415
 8682TIP3    H126010   6.535   1.987   0.603 -0.0429  1.5407  0.7834
 8682TIP3    H226011   6.461   1.931   0.722 -0.9827  0.9247 -0.0703
 8683TIP3   OH226012   6.035   1.153   4.984 -0.3194 -0.6129  0.2161
 8683TIP3    H126013   6.075   1.118   5.064  1.5454 -0.4133 -0.5592
 8683TIP3    H226014   6.078   1.104   4.913 -0.3425  0.6897 -0.7305
 8684TIP3   OH226015   0.332   1.061   0.564  0.5207 -0.4258  0.2200
 8684TIP3    H126016   0.258   1.119   0.583  0.2289 -0.8481  0.3941
 8684TIP3    H226017   0.409   1.117   0.570  0.3398 -0.2820  1.4866
 8685TIP3   OH226018   4.555   3.235   1.916  0.6721 -0.1629 -0.1738
 8685TIP3    H126019   4.528   3.144   1.931 -2.4085  0.4661 -1.3025
 8685TIP3    H226020   4.561   3.272   2.004  0.9180 -1.1815  0.2549
 8686TIP3   OH226021   2.589   5.246   4.162 -0.0817 -0.6052  0.6839
 8686TIP3    H126022   2.587   5.191   4.084 -0.7559  0.0705  0.2133
 8686TIP3    H226023   2.574   5.185   4.235 -0.7723 -1.0459  0.1789
 8687TIP3   OH226024   1.057   1.839   2.742  0.0482  0.2573  0.0920
 8687TIP3    H126025   1.092   1.809   2.825  3.6040 -0.6773 -1.5233
 8687TIP3    H226026   0.987   1.778   2.721  0.8906 -1.1499  1.2002
 8688TIP3   OH226027   3.665   5.575   0.623 -0.7525  0.0327  0.2105
 8688TIP3    H126028   3.609   5.621   0.560  0.6610  1.8351  0.1788
 8688TIP3    H226029   3.689   5.494   0.580 -0.5403  0.8271 -1.2267
 8689TIP3   OH226030   2.522   1.599   2.933  0.0112  0.3477 -0.0520
 8689TIP3    H126031   2.427   1.608   2.934  0.0685  1.2816 -0.8855
 8689TIP3    H226032   2.547   1.618   2.842  0.8419 -1.8235 -0.3299
 8690TIP3   OH226033   0.261   3.458   5.285  0.1990  0.0720 -0.1820
 8690TIP3    H126034   0.224   3.420   5.365  0.6899  0.9339  0.4755
 8690TIP3    H226035   0.354   3.470   5.305  1.0070 -2.3823 -1.9125
 8691TIP3   OH226036   5.682   2.010   5.308 -0.3938 -0.7890 -0.6645
 8691TIP3    H126037   5.765   1.970   5.333  0.7315  1.1255 -1.1067
 8691TIP3    H226038   5.656   2.062   5.384 -0.0904  0.2326 -1.2307
 8692TIP3   OH226039   4.147   1.904   0.516  0.0755  0.0230 -0.2816
 8692TIP3    H126040   4.083   1.897   0.587  0.7558 -0.2695  0.3166
 8692TIP3    H226041   4.131   1.990   0.477 -0.0269  0.3640  0.5010
 8693TIP3   OH226042   5.501   0.588   3.773  0.5636  0.3423  0.8033
 8693TIP3    H126043   5.486   0.596   3.867 -1.6286  1.5436  0.4190
 8693TIP3    H226044   5.550   0.507   3.763 -2.2372 -1.7807  2.7327
 8694TIP3   OH226045   6.746   3.556   4.127 -1.1498 -0.4550  0.3074
 8694TIP3    H126046   6.780   3.626   4.070 -0.3930 -1.2499 -0.2527
 8694TIP3    H226047   6.783   3.575   4.213 -1.1151 -0.0483  0.2056
 8695TIP3   OH226048   4.854   5.165   0.274  0.3698 -0.2397  0.1367
 8695TIP3    H126049   4.938   5.206   0.254 -0.0148  0.7762  0.5105
 8695TIP3    H226050   4.796   5.193   0.203  0.3985 -1.1462 -0.2576
 8696TIP3   OH226051   1.592   5.489   0.994  0.0670  0.3337 -0.3489
 8696TIP3    H126052   1.516   5.525   1.038  1.2210  1.6360  0.6562
 8696TIP3    H226053   1.663   5.498   1.057  1.2269 -0.1412 -1.5403
 8697TIP3   OH226054   2.973   4.415   4.296 -0.0003  0.6354 -0.1566
 8697TIP3    H126055   3.044   4.478   4.284  1.1888  0.2304  3.3682
 8697TIP3    H226056   2.894   4.469   4.307  0.9146  1.6419  2.2880
 8698TIP3   OH226057   0.395   3.413   5.647  0.4282  0.0175 -0.2810
 8698TIP3    H126058   0.436   3.464   5.577 -0.8827 -0.1299 -1.2107
 8698TIP3    H226059   0.361   3.478   5.708 -0.0229  0.2305 -0.7462
 8699TIP3   OH226060   2.706   1.773   4.880  0.7158  0.8853 -0.2541
 8699TIP3    H126061   2.650   1.820   4.818  0.2865  0.8227  0.0730
 8699TIP3    H226062   2.702   1.682   4.851  0.9138  0.9311 -0.4252
 8700TIP3   OH226063   2.722   6.708   5.294  0.0564 -1.0379  0.5833
 8700TIP3    H126064   2.713   6.675   5.384  0.7342 -0.6533  0.8011
 8700TIP3    H226065   2.636   6.744   5.273  0.3886  0.6279  1.8093
 8701TIP3   OH226066   4.485   3.356   1.275 -0.2575  0.1664  0.1012
 8701TIP3    H126067   4.463   3.267   1.301  1.2706 -0.0019  0.9395
 8701TIP3    H226068   4.538   3.346   1.196 -2.8741  0.5607 -1.8460
 8702TIP3   OH226069   4.298   3.462   1.438 -0.0325 -0.0729  0.3131
 8702TIP3    H126070   4.373   3.431   1.387  0.1264 -1.5091  1.3631
 8702TIP3    H226071   4.309   3.558   1.440  2.4121 -0.2731  1.3289
 8703TIP3   OH226072   4.921   4.478   1.973  0.4264  0.5919  0.0761
 8703TIP3    H126073   4.963   4.524   2.045  0.6932  1.1356 -0.4244
 8703TIP3    H226074   4.979   4.403   1.956 -0.8071 -0.9011  1.9356
 8704TIP3   OH226075   6.589   2.723   5.163 -0.3358 -0.6561 -0.5567
 8704TIP3    H126076   6.503   2.702   5.127 -0.3593 -1.2917 -0.1414
 8704TIP3    H226077   6.650   2.671   5.110  0.0123  1.1559 -2.0819
 8705TIP3   OH226078   5.871   1.328   1.240 -0.2855 -0.2678 -0.2847
 8705TIP3    H126079   5.864   1.327   1.145  2.7107  0.9295 -0.6138
 8705TIP3    H226080   5.919   1.408   1.260 -0.1636 -0.8685  2.1837
 8706TIP3   OH226081   3.624   4.895   3.952 -0.0113  0.2773 -0.2823
 8706TIP3    H126082   3.704   4.854   3.921 -0.6077 -0.5979 -0.6794
 8706TIP3    H226083   3.641   4.989   3.943  1.2587  0.1340  0.3834
 8707TIP3   OH226084   4.404   1.855   0.021  0.0862  0.0911  0.0263
 8707TIP3    H126085   4.314   1.831   0.043  0.0912 -1.1824 -1.2252
 8707TIP3    H226086   4.401   1.950   0.011 -1.1410  0.0529 -0.1160
 8708TIP3   OH226087   3.705   2.381   4.270  0.8498 -0.0707 -0.0347
 8708TIP3    H126088   3.650   2.303   4.280  1.5657 -1.2854 -3.8297
 8708TIP3    H226089   3.647   2.445   4.228  1.4673 -0.3174 -1.3169
 8709TIP3   OH226090   4.719   1.343   1.831  0.2835  0.3310  0.7007
 8709TIP3    H126091   4.808   1.361   1.861  0.4862  1.1855 -0.3542
 8709TIP3    H226092   4.724   1.345   1.736 -1.1751  2.2718  0.5819
 8710TIP3   OH226093   3.460   4.416   0.857  0.0048 -0.0775 -0.2320
 8710TIP3    H126094   3.454   4.343   0.918 -0.7718  1.0728  1.1168
 8710TIP3    H226095   3.369   4.440   0.840  0.2367  0.1620 -1.2052
 8711TIP3   OH226096   4.447   2.322   1.975 -0.3154 -0.0581  0.3020
 8711TIP3    H126097   4.530   2.290   1.941  0.0457  0.8873  0.2465
 8711TIP3    H226098   4.434   2.274   2.057 -1.6584 -3.0474 -1.5021
 8712TIP3   OH226099   3.607   4.476   3.798  0.0601  0.2247 -0.0868
 8712TIP3    H126100   3.619   4.514   3.885 -1.0393  1.2203 -0.3426
 8712TIP3    H226101   3.531   4.419   3.807 -0.3903  0.7472 -0.5116
 8713TIP3   OH226102   2.712   6.758   2.320  0.0548 -0.2192  0.0251
 8713TIP3    H126103   2.617   6.769   2.317  0.2026  1.0134 -0.5204
 8713TIP3    H226104   2.742   6.822   2.384  0.4905 -0.8156  0.4225
 8714TIP3   OH226105   2.032   2.893   1.357 -0.1220  0.3879  0.6373
 8714TIP3    H126106   1.968   2.856   1.296  0.7265 -1.8897  1.0411
 8714TIP3    H226107   1.989   2.890   1.442 -0.6543  1.9579  0.4645
 8715TIP3   OH226108   2.357   0.528   3.188  0.7948  0.0841 -0.0230
 8715TIP3    H126109   2.356   0.450   3.133  0.7279 -2.1064  2.8584
 8715TIP3    H226110   2.273   0.570   3.173 -0.0595 -1.5938 -0.1254
 8716TIP3   OH226111   5.025   1.813   1.243  0.7412  0.2166 -0.1772
 8716TIP3    H126112   4.930   1.806   1.227  0.7751 -0.7532 -0.0608
 8716TIP3    H226113   5.034   1.803   1.338  0.9941 -0.2169 -0.2451
 8717TIP3   OH226114   4.365   5.342   4.135  0.6309 -0.4755 -0.2345
 8717TIP3    H126115   4.351   5.402   4.208 -2.7947  1.7948 -2.4101
 8717TIP3    H226116   4.449   5.368   4.098  0.6096  0.9557  0.6660
 8718TIP3   OH226117   0.924   2.159   2.885  0.2428  0.0383 -0.0131
 8718TIP3    H126118   0.835   2.141   2.914  0.0145  0.5611 -0.3754
 8718TIP3    H226119   0.930   2.254   2.880  0.8427  0.0126  0.0755
 8719TIP3   OH226120   1.890   3.022   3.488 -0.0574  0.2479 -0.2264
 8719TIP3    H126121   1.947   3.040   3.414  1.1135  1.2362  0.8701
 8719TIP3    H226122   1.815   3.080   3.476 -0.1269  0.0210 -0.9027
 8720TIP3   OH226123   2.662   6.154   0.420 -0.1312 -0.4416  0.2387
 8720TIP3    H126124   2.649   6.228   0.479  1.1793 -1.1560  1.4850
 8720TIP3    H226125   2.579   6.145   0.374 -0.3701  1.6769  0.1867
 8721TIP3   OH226126   5.262   2.787   0.138  0.1028  0.0461 -0.3981
 8721TIP3    H126127   5.291   2.867   0.183 -1.4636 -0.0656  0.8988
 8721TIP3    H226128   5.195   2.818   0.078 -1.6049 -0.4131  1.1872
 8722TIP3   OH226129   0.684   2.399   2.184  0.2566  0.2841  0.3447
 8722TIP3    H126130   0.628   2.361   2.117 -0.0203 -1.1271  1.3338
 8722TIP3    H226131   0.628   2.462   2.229  0.2143  0.6696 -0.2356
 8723TIP3   OH226132   7.179   2.586   3.913 -0.1446 -0.0938 -0.1978
 8723TIP3    H126133   7.126   2.665   3.901  0.2024  0.0433 -0.8741
 8723TIP3    H226134   7.123   2.515   3.884 -0.3685 -0.0736  0.1777
 8724TIP3   OH226135   5.406   2.307   5.073  0.1226 -0.1913 -0.0354
 8724TIP3    H126136   5.396   2.252   5.150 -0.3402  0.7016  0.5624
 8724TIP3    H226137   5.488   2.354   5.088 -0.1096  0.1903  0.0498
 8725TIP3   OH226138   1.794   3.555   0.715 -0.2211  0.1094  0.1737
 8725TIP3    H126139   1.853   3.609   0.768 -2.1947  1.4540  1.1393
 8725TIP3    H226140   1.744   3.504   0.779 -1.8208  0.8580 -0.4391
 8726TIP3   OH226141   4.847   4.818   3.203  0.4157  0.8552 -0.8004
 8726TIP3    H126142   4.775   4.819   3.266 -0.0548 -0.7582 -1.2748
 8726TIP3    H226143   4.822   4.881   3.136 -0.2606  0.7572 -0.6440
 8727TIP3   OH226144   4.170   0.936   2.931  0.4579  0.2294  0.0637
 8727TIP3    H126145   4.134   0.989   2.859 -0.3707 -0.4892 -0.0669
 8727TIP3    H226146   4.095   0.921   2.989  1.0419  0.5037  0.9072
 8728TIP3   OH226147   4.145   3.355   1.180  0.1667  0.4305  0.3583
 8728TIP3    H126148   4.211   3.411   1.139 -0.4880  0.8690 -0.1082
 8728TIP3    H226149   4.134   3.282   1.119 -0.0061  0.5147  0.2894
 8729TIP3   OH226150   2.798   6.240   1.541 -0.2029 -0.0498  0.6142
 8729TIP3    H126151   2.728   6.195   1.494  2.7491 -1.4705 -2.8224
 8729TIP3    H226152   2.845   6.171   1.587 -0.7539  0.8628  2.7112
 8730TIP3   OH226153   0.162   4.143   1.533 -0.3204  0.1045 -0.3272
 8730TIP3    H126154   0.118   4.227   1.523 -0.3258 -0.0410 -1.8362
 8730TIP3    H226155   0.112   4.097   1.600 -1.3925  0.6279 -0.7462
 8731TIP3   OH226156   0.869   0.687   1.458  0.0138  0.5457  0.1886
 8731TIP3    H126157   0.926   0.670   1.383 -2.0622  1.2178 -1.6294
 8731TIP3    H226158   0.888   0.615   1.519  1.3596 -0.3447 -1.2027
 8732TIP3   OH226159   0.468   6.164   3.833  0.0230  0.4209 -0.6591
 8732TIP3    H126160   0.495   6.187   3.744  1.7649  0.9174 -0.0532
 8732TIP3    H226161   0.543   6.117   3.870  0.2103  2.0315  1.2104
 8733TIP3   OH226162   2.430   4.622   3.062  0.1498 -0.6372 -0.1044
 8733TIP3    H126163   2.436   4.528   3.047 -0.3803 -0.3080 -2.7012
 8733TIP3    H226164   2.512   4.657   3.027  0.3605 -0.1120  0.8772
 8734TIP3   OH226165   3.575   3.135   0.867  0.5197 -0.6286 -0.6170
 8734TIP3    H126166   3.659   3.169   0.837 -0.0538  0.4723 -1.0545
 8734TIP3    H226167   3.558   3.180   0.950  0.2650 -0.6741 -0.6419
 8735TIP3   OH226168   2.990   3.870   0.814 -0.4049  0.3731 -0.0381
 8735TIP3    H126169   3.015   3.888   0.723  1.6189 -0.0522  0.3843
 8735TIP3    H226170   3.067   3.894   0.865  0.4206 -3.8755  1.1142
 8736TIP3   OH226171   1.819   1.528   2.333 -0.0936 -0.1699 -0.4657
 8736TIP3    H126172   1.757   1.575   2.388  0.5978 -0.6136  0.7148
 8736TIP3    H226173   1.783   1.440   2.325  1.3363 -1.0661  1.9434
 8737TIP3   OH226174   4.471   3.890   3.585 -0.0127  0.6190 -0.1484
 8737TIP3    H126175   4.458   3.822   3.519 -0.6218  0.8661 -0.2975
 8737TIP3    H226176   4.383   3.923   3.602  0.1726  0.7570  0.5818
 8738TIP3   OH226177   7.196   4.148   3.995 -0.2804 -0.6126 -0.1935
 8738TIP3    H126178   7.223   4.093   4.069  1.7397  0.0013 -0.4010
 8738TIP3    H226179   7.109   4.180   4.019  0.3811 -0.2755  2.0321
 8739TIP3   OH226180   3.675   1.623   0.861  0.2485 -0.5279  0.0046
 8739TIP3    H126181   3.657   1.668   0.779 -1.8494 -0.1031  0.6191
 8739TIP3    H226182   3.728   1.547   0.836  1.9942  1.0434 -1.3279
 8740TIP3   OH226183   5.045   5.966   1.384  0.4507 -0.1668  0.2123
 8740TIP3    H126184   5.059   5.872   1.373  0.4960 -0.1490  0.1218
 8740TIP3    H226185   5.132   6.001   1.405 -0.1000 -0.6831  4.0748
 8741TIP3   OH226186   2.820   6.385   3.845 -0.0131 -0.4945  0.0193
 8741TIP3    H126187   2.751   6.434   3.799  0.7802  1.7967  1.1155
 8741TIP3    H226188   2.887   6.371   3.778  0.1838  0.8713 -0.1010
 8742TIP3   OH226189   4.664   2.234   0.259  0.2494  0.0315  0.0852
 8742TIP3    H126190   4.588   2.192   0.298 -0.2006  1.2366  0.5481
 8742TIP3    H226191   4.733   2.226   0.325  0.1435  0.0926  0.2016
 8743TIP3   OH226192   1.206   3.937   5.309 -0.5098  0.1519  0.4688
 8743TIP3    H126193   1.140   3.985   5.258 -0.7727 -0.4037  0.2727
 8743TIP3    H226194   1.198   3.972   5.398 -1.0291  0.1363  0.4331
 8744TIP3   OH226195   5.679   1.917   4.108 -0.6312 -0.1925 -0.1634
 8744TIP3    H126196   5.592   1.915   4.069 -1.6786 -0.0132  2.0172
 8744TIP3    H226197   5.668   1.965   4.190  2.1235  2.5362 -1.1573
 8745TIP3   OH226198   6.756   3.913   0.088 -0.1785 -0.2817  0.6400
 8745TIP3    H126199   6.847   3.937   0.105 -0.2500  0.4044  0.1061
 8745TIP3    H226200   6.705   3.962   0.153 -0.3621  1.4641 -0.7351
 8746TIP3   OH226201   5.135   4.626   1.727 -0.4685 -0.2713 -0.0031
 8746TIP3    H126202   5.162   4.553   1.783 -0.2822  0.3602  0.7542
 8746TIP3    H226203   5.217   4.665   1.698 -0.5648 -0.7606 -0.9560
 8747TIP3   OH226204   2.289   2.068   5.069 -0.3806  0.2929  0.1650
 8747TIP3    H126205   2.261   2.003   5.134  0.1596 -0.4555 -0.3321
 8747TIP3    H226206   2.271   2.152   5.111  0.9917 -0.1506  1.7602
 8748TIP3   OH226207   1.891   2.197   4.590 -0.5133  0.2337 -0.2326
 8748TIP3    H126208   1.938   2.209   4.507 -0.0765  0.5192  0.0474
 8748TIP3    H226209   1.953   2.228   4.656 -0.9894  0.3247  0.1718
 8749TIP3   OH226210   1.633   2.857   0.079  0.7338 -1.1552 -0.4808
 8749TIP3    H126211   1.621   2.776   0.028  1.3670 -1.3407 -0.3372
 8749TIP3    H226212   1.694   2.833   0.149  1.6240 -0.3330 -0.9539
 8750TIP3   OH226213   5.954   2.630   4.831  0.0801 -0.1032 -0.2362
 8750TIP3    H126214   5.990   2.684   4.902 -0.4359  1.5502 -1.1813
 8750TIP3    H226215   6.001   2.547   4.838  2.7820  1.3070 -0.2655
 8751TIP3   OH226216   0.730   5.293   0.338  0.0106  0.2799  0.2033
 8751TIP3    H126217   0.645   5.264   0.306 -0.7392  1.4029  1.0827
 8751TIP3    H226218   0.759   5.223   0.397  0.4074 -0.7849 -1.2170
 8752TIP3   OH226219   4.766   2.117   4.955  0.2471 -0.3349  0.4453
 8752TIP3    H126220   4.783   2.186   4.891  1.3036 -1.7925 -0.9385
 8752TIP3    H226221   4.819   2.141   5.032 -0.7962  1.2761  0.6896
 8753TIP3   OH226222   0.391   5.048   3.226  0.2750 -0.6801  0.1671
 8753TIP3    H126223   0.453   5.072   3.295 -0.2260 -0.9012  0.7049
 8753TIP3    H226224   0.366   4.958   3.246  1.9657 -1.6544 -1.7009
 8754TIP3   OH226225   6.356   6.369   2.210 -0.6194  0.3938 -0.6283
 8754TIP3    H126226   6.425   6.409   2.263 -0.7171 -0.9654  0.6090
 8754TIP3    H226227   6.278   6.373   2.266 -0.5472 -1.7710 -0.2887
 8755TIP3   OH226228   2.562   5.957   2.003 -0.1064  0.1622  0.3182
 8755TIP3    H126229   2.570   6.052   2.005  0.0205  0.1636 -0.1290
 8755TIP3    H226230   2.648   5.925   2.033  1.2372  0.1877 -3.0334
 8756TIP3   OH226231   4.444   0.885   4.017  0.3708  0.0389  0.0086
 8756TIP3    H126232   4.366   0.940   4.013  1.1488  1.2575  0.9147
 8756TIP3    H226233   4.470   0.872   3.926 -1.5668 -1.4431 -0.3913
 8757TIP3   OH226234   2.396   2.231   1.013 -0.3155 -0.1154 -0.3002
 8757TIP3    H126235   2.419   2.237   0.920 -1.2443  0.3318 -0.5114
 8757TIP3    H226236   2.365   2.140   1.024 -0.0121 -0.2275 -0.3845
 8758TIP3   OH226237   5.071   2.611   3.875  0.2751  0.2342 -0.5564
 8758TIP3    H126238   5.153   2.661   3.877  0.3970  0.0516 -0.8870
 8758TIP3    H226239   5.093   2.532   3.827  0.0412 -0.0680 -0.1722
 8759TIP3   OH226240   1.824   2.343   1.565  0.7268 -0.2111  0.7090
 8759TIP3    H126241   1.798   2.255   1.538 -1.4887  0.0816  1.6079
 8759TIP3    H226242   1.814   2.396   1.486  1.6261 -0.6726  0.2780
 8760TIP3   OH226243   6.963   1.930   1.430 -0.0821  0.2819 -0.4792
 8760TIP3    H126244   6.912   1.849   1.435  1.1405 -0.4988 -0.2196
 8760TIP3    H226245   7.010   1.923   1.346 -0.2064  0.8673 -0.6011
 8761TIP3   OH226246   3.901   0.617   5.004 -0.1743 -0.5548  0.1009
 8761TIP3    H126247   3.912   0.688   4.942  0.4008 -0.9996 -0.3085
 8761TIP3    H226248   3.835   0.649   5.066 -0.4784  0.0272 -0.5231
 8762TIP3   OH226249   0.817   1.242   1.224  0.7153 -0.6818  0.1155
 8762TIP3    H126250   0.764   1.235   1.304  0.3766 -3.4008 -0.2672
 8762TIP3    H226251   0.837   1.336   1.217 -1.0636 -0.0634  2.1936
 8763TIP3   OH226252   3.981   3.102   1.623 -0.0803  0.6856  0.4198
 8763TIP3    H126253   4.002   3.149   1.543  0.4523  1.6614  1.1037
 8763TIP3    H226254   3.949   3.170   1.683  1.0273  0.2476  1.5559
 8764TIP3   OH226255   5.759   4.420   2.419  0.0286  0.0350 -0.3305
 8764TIP3    H126256   5.684   4.452   2.470 -0.8569 -1.6997 -0.4878
 8764TIP3    H226257   5.767   4.482   2.347 -1.5010  0.0478 -0.5190
 8765TIP3   OH226258   3.415   4.188   4.776  0.1222  0.2533  0.3952
 8765TIP3    H126259   3.443   4.269   4.735 -4.8437  0.9761 -2.4760
 8765TIP3    H226260   3.350   4.215   4.841 -1.5874 -1.2809 -0.5662
 8766TIP3   OH226261   1.754   4.133   1.447 -0.4729  0.1815  0.4802
 8766TIP3    H126262   1.662   4.140   1.473 -0.1938  0.3149  1.4905
 8766TIP3    H226263   1.761   4.045   1.410 -0.7502 -0.3205  1.5661
 8767TIP3   OH226264   1.393   5.530   0.768 -0.3937  0.1979  0.5745
 8767TIP3    H126265   1.443   5.540   0.849  2.1597 -2.9061 -0.3720
 8767TIP3    H226266   1.431   5.595   0.709  1.1806 -0.7227  0.5140
 8768TIP3   OH226267   6.829   6.712   0.243 -0.7126  0.1342 -0.0155
 8768TIP3    H126268   6.868   6.689   0.159 -1.3303  2.2438 -0.9588
 8768TIP3    H226269   6.792   6.799   0.229 -3.4920 -0.6638  1.5631
 8769TIP3   OH226270   2.268   0.365   5.256 -0.1577  0.1525  0.2587
 8769TIP3    H126271   2.249   0.446   5.302 -0.0309 -1.1536  2.7579
 8769TIP3    H226272   2.363   0.365   5.244 -0.1748  0.4341  0.1239
 8770TIP3   OH226273   0.201   3.054   1.950 -0.9183 -0.6577 -0.3116
 8770TIP3    H126274   0.270   3.117   1.932 -0.1198 -1.2721  0.5461
 8770TIP3    H226275   0.233   2.971   1.915 -1.3941 -0.8671 -0.2687
 8771TIP3   OH226276   5.828   4.299   1.747 -0.3064  0.5374 -0.1700
 8771TIP3    H126277   5.923   4.290   1.755 -0.2780  0.9119 -0.0408
 8771TIP3    H226278   5.793   4.235   1.809 -0.1563 -0.2702 -0.9047
 8772TIP3   OH226279   2.685   0.997   2.672 -0.0323  0.1022 -0.1691
 8772TIP3    H126280   2.605   1.035   2.709 -0.1202  0.1475 -0.4032
 8772TIP3    H226281   2.657   0.961   2.588  0.3068  0.5662 -0.4799
 8773TIP3   OH226282   3.876   4.243   1.864 -0.3594  0.1375 -0.4873
 8773TIP3    H126283   3.811   4.227   1.933  0.2464  0.9881  0.3151
 8773TIP3    H226284   3.882   4.338   1.858 -0.6714  0.0841 -2.0052
 8774TIP3   OH226285   1.153   2.018   5.489  0.1847 -0.1810 -0.2716
 8774TIP3    H126286   1.199   2.023   5.572 -1.2991 -1.3192  0.6846
 8774TIP3    H226287   1.160   1.925   5.464  0.2387  0.0634 -1.1975
 8775TIP3   OH226288   0.904   3.075   4.088 -0.0437 -0.1575  0.1879
 8775TIP3    H126289   0.982   3.021   4.073 -0.5623 -0.7117 -0.5976
 8775TIP3    H226290   0.864   3.039   4.167 -0.3851 -0.9404 -0.3307
 8776TIP3   OH226291   4.642   0.128   1.900  0.0225  0.0841 -0.7322
 8776TIP3    H126292   4.558   0.082   1.897  0.3340 -0.5511  0.1331
 8776TIP3    H226293   4.688   0.100   1.821 -0.3200 -0.0526 -0.8832
 8777TIP3   OH226294   5.191   3.259   5.319  0.2973  0.3461 -0.0147
 8777TIP3    H126295   5.153   3.199   5.383 -0.0184 -0.2260 -0.7335
 8777TIP3    H226296   5.227   3.330   5.372 -0.3510  0.1029  0.7747
 8778TIP3   OH226297   3.686   3.493   5.360 -0.8059 -0.0303  0.3688
 8778TIP3    H126298   3.638   3.410   5.357  0.8820 -1.0648  0.8534
 8778TIP3    H226299   3.618   3.559   5.372 -2.0475 -1.5120  2.0346
 8779TIP3   OH226300   3.092   1.138   3.406  0.0975  0.2385 -0.1643
 8779TIP3    H126301   3.131   1.200   3.345  0.6640 -0.3856 -0.4461
 8779TIP3    H226302   3.166   1.087   3.439 -0.2486  0.3142  0.7592
 8780TIP3   OH226303   5.828   1.936   1.970 -0.1834 -0.4952  0.7506
 8780TIP3    H126304   5.867   2.004   1.915 -2.6984  1.6467  1.4289
 8780TIP3    H226305   5.784   1.878   1.908  0.1987 -0.3079  0.2955
 8781TIP3   OH226306   4.923   3.383   4.564 -0.0225  0.0696  0.2539
 8781TIP3    H126307   4.918   3.458   4.504 -0.5865 -0.7925 -0.8054
 8781TIP3    H226308   4.950   3.422   4.647 -0.4581  1.4776 -0.2241
 8782TIP3   OH226309   1.167   1.321   1.610  0.6109 -0.1299 -0.0045
 8782TIP3    H126310   1.232   1.264   1.650  0.1091 -0.2594  0.6377
 8782TIP3    H226311   1.134   1.272   1.535  1.2375 -0.0706 -0.3205
 8783TIP3   OH226312   2.465   4.152   2.546  0.0544 -0.5340  0.2926
 8783TIP3    H126313   2.560   4.143   2.546  0.0272 -0.9471  1.0204
 8783TIP3    H226314   2.432   4.068   2.515 -0.0513  0.6528 -3.1501
 8784TIP3   OH226315   3.573   2.528   4.557  0.6035  0.1717 -0.3185
 8784TIP3    H126316   3.584   2.433   4.563  0.7673  0.2597  1.2256
 8784TIP3    H226317   3.631   2.563   4.626 -0.0536  1.3392 -0.3355
 8785TIP3   OH226318   5.645   4.831   1.946 -0.0150 -0.1442 -0.2413
 8785TIP3    H126319   5.551   4.842   1.954 -0.4544 -2.2970 -1.4997
 8785TIP3    H226320   5.664   4.750   1.993  0.9550 -0.4878 -1.1670
 8786TIP3   OH226321   5.404   4.060   3.612  0.1702  0.7006 -0.1262
 8786TIP3    H126322   5.496   4.035   3.596  0.2320  0.4815  0.5614
 8786TIP3    H226323   5.397   4.149   3.577  0.4962  0.5170 -0.6880
 8787TIP3   OH226324   4.663   4.105   1.021 -0.0699 -0.1471 -0.3713
 8787TIP3    H126325   4.618   4.068   0.944  0.3215  1.1523 -1.2606
 8787TIP3    H226326   4.703   4.185   0.988  0.6914  0.0750  1.0497
 8788TIP3   OH226327   5.388   2.186   0.067  0.4399  0.3800 -0.6161
 8788TIP3    H126328   5.332   2.263   0.078 -0.2324  0.5548 -4.2235
 8788TIP3    H226329   5.328   2.115   0.046  1.1752 -0.8941  1.2952
 8789TIP3   OH226330   2.769   4.425   3.002  0.0612  0.5396  0.1092
 8789TIP3    H126331   2.803   4.506   3.040 -0.6971  0.9825 -0.1346
 8789TIP3    H226332   2.736   4.375   3.077 -0.1086  0.7624  0.1806
 8790TIP3   OH226333   7.228   4.023   1.718  0.4684 -0.2611  0.0214
 8790TIP3    H126334   7.252   4.016   1.810  0.5859  1.0377  0.1091
 8790TIP3    H226335   7.168   3.950   1.703  0.0075 -0.1588  1.2755
 8791TIP3   OH226336   3.353   2.281   3.632 -0.1590  0.1278  0.6943
 8791TIP3    H126337   3.405   2.232   3.569 -1.2172  0.5768 -0.5596
 8791TIP3    H226338   3.415   2.342   3.673  0.6231 -0.4799  0.4139
 8792TIP3   OH226339   2.363   5.837   0.238  0.4325  0.0870  0.3511
 8792TIP3    H126340   2.297   5.779   0.200 -0.3108  0.4977  0.9693
 8792TIP3    H226341   2.426   5.851   0.168 -1.6572  2.0011 -1.3035
 8793TIP3   OH226342   2.621   1.107   4.681 -0.3746  0.0730  0.1463
 8793TIP3    H126343   2.527   1.108   4.661 -0.3077  1.0927 -0.1754
 8793TIP3    H226344   2.658   1.174   4.623  0.8831 -1.7611 -1.2642
 8794TIP3   OH226345   4.702   1.833   3.845 -0.2756 -0.6333  0.2316
 8794TIP3    H126346   4.733   1.863   3.759 -2.5969 -0.2075 -0.5097
 8794TIP3    H226347   4.743   1.747   3.856 -0.0770 -0.7824 -1.3923
 8795TIP3   OH226348   3.038   6.584   4.769 -0.5483 -0.7409  0.0619
 8795TIP3    H126349   3.127   6.619   4.769 -0.9934  0.8689 -3.3182
 8795TIP3    H226350   3.001   6.611   4.853  1.3091  0.9646  0.4201
 8796TIP3   OH226351   1.204   1.937   2.363 -0.1639 -0.1984  0.0785
 8796TIP3    H126352   1.109   1.954   2.366 -0.4968 -1.8415 -0.1569
 8796TIP3    H226353   1.218   1.897   2.277  0.6761 -0.3694  0.2885
 8797TIP3   OH226354   3.686   1.407   0.348  0.2620 -0.2603 -0.0988
 8797TIP3    H126355   3.603   1.406   0.396 -1.0286 -0.8818 -2.1969
 8797TIP3    H226356   3.739   1.473   0.392 -1.2223 -0.0691  1.4959
 8798TIP3   OH226357   3.454   4.084   3.272  0.3276 -0.0028 -0.5681
 8798TIP3    H126358   3.383   4.065   3.334 -0.2444 -0.0442 -1.2240
 8798TIP3    H226359   3.485   3.998   3.244  0.6443  0.0157 -0.2696
 8799TIP3   OH226360   3.509   2.918   3.192  0.0906 -0.5169  0.3647
 8799TIP3    H126361   3.552   2.980   3.250 -0.5149 -1.3026  1.6849
 8799TIP3    H226362   3.416   2.940   3.198 -0.2102 -1.9517  1.3745
 8800TIP3   OH226363   4.210   5.036   2.602 -0.2176 -0.3716 -0.1796
 8800TIP3    H126364   4.175   5.075   2.522 -2.1262 -1.5666  0.0259
 8800TIP3    H226365   4.293   4.997   2.575  0.6538  1.7693 -0.8712
 8801TIP3   OH226366   4.765   0.925   2.510  0.1883 -0.2482  0.5496
 8801TIP3    H126367   4.752   0.885   2.596 -1.3116  0.2029  0.5629
 8801TIP3    H226368   4.682   0.913   2.465  0.8026 -0.0647 -0.6807
 8802TIP3   OH226369   2.276   3.396   5.177 -0.4317 -0.0848  0.5065
 8802TIP3    H126370   2.264   3.454   5.102 -0.6811  0.5109  1.0021
 8802TIP3    H226371   2.371   3.392   5.188 -0.3502 -0.8001 -0.3123
 8803TIP3   OH226372   6.204   0.825   1.321 -0.0026  0.2977 -0.3246
 8803TIP3    H126373   6.117   0.805   1.356 -0.3614  0.3461 -1.1771
 8803TIP3    H226374   6.194   0.821   1.226  0.8134  0.7887 -0.4440
 8804TIP3   OH226375   2.759   4.605   4.341  0.5186  0.3095  0.3293
 8804TIP3    H126376   2.732   4.685   4.297 -1.8754 -1.3112 -1.4025
 8804TIP3    H226377   2.684   4.582   4.397  0.1773 -1.8159 -0.8915
 8805TIP3   OH226378   6.198   6.012   5.212 -0.1647  0.6762  0.0049
 8805TIP3    H126379   6.251   6.026   5.291  0.7083  0.3844 -0.5122
 8805TIP3    H226380   6.200   5.917   5.199  1.9690  0.8985 -1.8579
 8806TIP3   OH226381   2.803   0.762   2.394 -0.1772  0.0814  0.0522
 8806TIP3    H126382   2.866   0.749   2.466  1.5878  0.4484 -1.3408
 8806TIP3    H226383   2.731   0.811   2.433  0.1487 -0.7720  1.8354
 8807TIP3   OH226384   3.451   5.140   4.387  0.5156 -0.1941  0.7734
 8807TIP3    H126385   3.467   5.234   4.377  1.8304 -0.3554  1.0816
 8807TIP3    H226386   3.449   5.106   4.298 -0.5218  0.1927  0.6355
 8808TIP3   OH226387   5.035   4.675   4.731  0.0840  0.4419 -0.4710
 8808TIP3    H126388   4.957   4.719   4.698 -0.3496 -0.2447 -0.3807
 8808TIP3    H226389   5.045   4.708   4.821 -0.5652 -0.0555 -0.2104
 8809TIP3   OH226390   1.173   1.003   5.009  0.2971 -0.1971 -0.0797
 8809TIP3    H126391   1.110   0.974   4.943 -0.8529  0.6993  0.5849
 8809TIP3    H226392   1.235   1.057   4.961 -0.4717  0.3640 -0.4657
 8810TIP3   OH226393   4.807   5.274   3.755  0.1238  0.0179 -0.3462
 8810TIP3    H126394   4.783   5.196   3.805 -1.2034  0.7577  0.2419
 8810TIP3    H226395   4.728   5.295   3.705  0.8303  0.3642 -1.3344
 8811TIP3   OH226396   6.666   2.087   4.254 -0.1230  0.1971 -0.1528
 8811TIP3    H126397   6.615   2.028   4.309 -1.8169  0.9151 -0.8801
 8811TIP3    H226398   6.613   2.167   4.249  2.0033  1.7539  0.6625
 8812TIP3   OH226399   5.875   5.011   0.802 -0.2660 -0.1268  0.2904
 8812TIP3    H126400   5.862   4.936   0.744  0.0332  0.0736 -0.0360
 8812TIP3    H226401   5.905   4.972   0.884 -0.3502 -0.3832  0.2008
 8813TIP3   OH226402   3.317   4.460   1.699  0.4251 -0.0787 -0.2834
 8813TIP3    H126403   3.355   4.479   1.613  0.7220 -0.3915 -0.2245
 8813TIP3    H226404   3.385   4.408   1.744 -0.4483 -1.4809 -0.5266
 8814TIP3   OH226405   0.285   4.787   0.735  0.0974  0.1715  0.2143
 8814TIP3    H126406   0.282   4.715   0.797 -2.3658  0.5462  0.6563
 8814TIP3    H226407   0.257   4.749   0.652 -1.3176  0.5708  0.4734
 8815TIP3   OH226408   4.560   2.621   2.641  0.2810  0.0130 -0.8833
 8815TIP3    H126409   4.511   2.697   2.670  1.8864 -0.2953  3.2474
 8815TIP3    H226410   4.651   2.651   2.637  0.9170 -1.5632  0.5996
 8816TIP3   OH226411   0.766   2.783   2.671  0.0957  0.0805  0.5877
 8816TIP3    H126412   0.769   2.771   2.766  0.3554 -0.5161  0.5090
 8816TIP3    H226413   0.731   2.871   2.659  0.3499  0.2758  1.2426
 8817TIP3   OH226414   0.032   3.625   3.979  0.3453 -0.5706  0.5200
 8817TIP3    H126415   0.029   3.682   3.902  1.8571 -2.7912 -1.3035
 8817TIP3    H226416   0.113   3.651   4.024 -0.4603  0.6215  1.3575
 8818TIP3   OH226417   4.078   3.010   2.991 -0.4561 -0.4334  0.3846
 8818TIP3    H126418   4.020   2.983   3.061 -0.9812 -1.1859 -0.3175
 8818TIP3    H226419   4.023   3.060   2.931  0.0592  0.4831  0.6630
 8819TIP3   OH226420   3.797   6.148   3.528  0.0405  0.2226 -0.3075
 8819TIP3    H126421   3.856   6.101   3.588 -0.0548  0.1040 -0.3071
 8819TIP3    H226422   3.787   6.234   3.569  1.0431  0.6115 -0.8411
 8820TIP3   OH226423   3.717   3.812   0.803  0.0439 -0.1017  0.0539
 8820TIP3    H126424   3.781   3.741   0.802 -0.0772 -0.2246  0.9019
 8820TIP3    H226425   3.657   3.791   0.731  1.8293  0.8498 -1.8283
 8821TIP3   OH226426   2.654   2.548   5.178  0.5573  0.2494  0.0813
 8821TIP3    H126427   2.596   2.484   5.137  0.4217  1.5843 -1.9624
 8821TIP3    H226428   2.715   2.496   5.230 -1.8042 -1.2726  1.5246
 8822TIP3   OH226429   2.031   3.138   0.201  0.9299  0.1558 -0.3632
 8822TIP3    H126430   2.093   3.152   0.272  1.0091  0.4340 -0.4872
 8822TIP3    H226431   2.021   3.224   0.160  0.2477  0.1715 -0.1695
 8823TIP3   OH226432   3.774   2.122   0.727 -0.6441 -0.6692  0.5574
 8823TIP3    H126433   3.802   2.046   0.675 -0.5955 -0.0019 -0.4077
 8823TIP3    H226434   3.815   2.109   0.812  1.6292 -0.3425 -0.4229
 8824TIP3   OH226435   6.923   0.577   3.067 -0.2568  0.4872  0.0599
 8824TIP3    H126436   6.957   0.594   3.155  1.5058  0.1319 -0.5166
 8824TIP3    H226437   6.913   0.663   3.028 -0.8775  0.6384  0.5301
 8825TIP3   OH226438   4.819   2.438   2.054 -0.4317 -0.8865  0.0148
 8825TIP3    H126439   4.880   2.365   2.045 -1.3277 -1.4442 -2.4048
 8825TIP3    H226440   4.821   2.481   1.968 -0.3982  1.5919  1.1965
 8826TIP3   OH226441   6.769   3.379   5.766  0.1913  0.2233  0.1126
 8826TIP3    H126442   6.825   3.311   5.728  0.5092  0.1395  0.7168
 8826TIP3    H226443   6.689   3.376   5.714 -0.6462 -2.0460  1.3935
 8827TIP3   OH226444   4.159   4.799   1.012  0.0364  0.4816 -0.4296
 8827TIP3    H126445   4.245   4.841   1.016  0.6837 -0.9059  1.4281
 8827TIP3    H226446   4.097   4.873   1.009  1.2091  1.5518  0.3981
 8828TIP3   OH226447   5.380   1.470   0.195 -0.4404  0.9940  0.2970
 8828TIP3    H126448   5.443   1.492   0.264 -0.4205  0.5923  0.4138
 8828TIP3    H226449   5.300   1.447   0.242 -0.2030 -0.0207  0.2386
 8829TIP3   OH226450   0.469   4.422   1.648  0.3411 -0.3221 -0.5610
 8829TIP3    H126451   0.476   4.516   1.662  1.6103 -0.5246  0.2645
 8829TIP3    H226452   0.420   4.390   1.724  0.8508 -0.4735 -0.2993
 8830TIP3   OH226453   6.741   1.608   4.872  0.0891  0.2964  0.3538
 8830TIP3    H126454   6.683   1.612   4.948 -1.1015 -0.4856 -0.4802
 8830TIP3    H226455   6.776   1.519   4.873 -2.4087 -0.8235 -1.7144
 8831TIP3   OH226456   4.002   0.295   1.882  0.2633 -0.6348  0.0178
 8831TIP3    H126457   3.975   0.257   1.798  2.4430  0.9263 -1.4987
 8831TIP3    H226458   3.943   0.369   1.895 -1.2880 -1.9327  0.9055
 8832TIP3   OH226459   2.562   6.171   2.529  0.0827 -0.1736  0.3849
 8832TIP3    H126460   2.508   6.096   2.508 -1.0199  0.0887  2.0786
 8832TIP3    H226461   2.603   6.149   2.613  2.1022 -0.0737 -0.4991
 8833TIP3   OH226462   6.360   3.364   3.230  0.4111  0.0397  0.0789
 8833TIP3    H126463   6.394   3.276   3.247  0.3994  0.1022  0.4286
 8833TIP3    H226464   6.438   3.419   3.230  0.6429 -0.2093 -1.8784
 8834TIP3   OH226465   3.288   5.182   2.323 -0.5837  0.3241 -0.3165
 8834TIP3    H126466   3.215   5.127   2.296 -0.9586  1.5264 -1.9453
 8834TIP3    H226467   3.343   5.125   2.377 -1.9250 -1.0424 -0.3313
 8835TIP3   OH226468   5.834   4.326   3.834  0.5100  0.5628 -0.0827
 8835TIP3    H126469   5.776   4.252   3.853  0.9500 -0.4190 -2.2821
 8835TIP3    H226470   5.777   4.392   3.796  0.5393  0.2810 -0.6247
 8836TIP3   OH226471   4.385   3.611   3.494 -0.2838 -0.1252 -0.0677
 8836TIP3    H126472   4.300   3.568   3.489  0.0808 -0.8485 -0.2417
 8836TIP3    H226473   4.440   3.549   3.543  0.7565 -0.7098 -1.8793
 8837TIP3   OH226474   5.639   2.889   4.696  0.3606  0.2853  0.0700
 8837TIP3    H126475   5.734   2.874   4.691  0.2051 -0.2848 -2.6069
 8837TIP3    H226476   5.616   2.864   4.786  2.3672 -2.1474  0.0406
 8838TIP3   OH226477   2.892   4.216   1.925 -0.1901  0.0072 -0.8475
 8838TIP3    H126478   2.972   4.221   1.873 -0.5236 -1.1849 -1.5101
 8838TIP3    H226479   2.845   4.140   1.890 -0.3484 -0.9511  1.2934
 8839TIP3   OH226480   1.071   3.629   0.566  0.3143  0.1436  0.2769
 8839TIP3    H126481   1.013   3.665   0.499 -0.4052  1.3585  1.5150
 8839TIP3    H226482   1.021   3.557   0.604 -0.1260  0.7543  0.8771
 8840TIP3   OH226483   2.213   3.712   5.280 -0.5673 -0.5611 -0.2857
 8840TIP3    H126484   2.157   3.700   5.357  0.2152 -0.8409  0.2505
 8840TIP3    H226485   2.219   3.807   5.270 -1.5816 -0.5283 -0.6879
 8841TIP3   OH226486   3.049   2.250   4.982  0.0575 -0.2815  0.0394
 8841TIP3    H126487   3.133   2.227   5.020 -0.3503 -1.4093  0.2954
 8841TIP3    H226488   2.990   2.261   5.057 -0.1428  0.0267 -0.1574
 8842TIP3   OH226489   3.281   1.151   5.044 -0.4151 -0.7387  0.0953
 8842TIP3    H126490   3.372   1.182   5.044 -0.7516  0.2929 -0.4288
 8842TIP3    H226491   3.232   1.223   5.086 -0.8772 -1.6589  1.1918
 8843TIP3   OH226492   1.669   2.480   4.289  0.1461  0.0675 -0.3858
 8843TIP3    H126493   1.723   2.559   4.295  0.0406  0.3417 -2.3149
 8843TIP3    H226494   1.587   2.509   4.250  0.9094 -1.2465 -3.2468
 8844TIP3   OH226495   4.930   1.431   1.394 -0.3834 -0.1488  0.7621
 8844TIP3    H126496   4.998   1.477   1.345 -0.2986  1.3093  2.1759
 8844TIP3    H226497   4.943   1.338   1.372  1.4366  0.1874  0.2619
 8845TIP3   OH226498   1.632   1.918   0.242 -0.5212 -0.0361 -0.3205
 8845TIP3    H126499   1.683   1.977   0.186 -0.9992 -1.1475 -2.0285
 8845TIP3    H226500   1.589   1.859   0.180 -0.5644 -1.7659  1.2781
 8846TIP3   OH226501   3.052   3.432   5.747  0.1948  0.1969  0.3172
 8846TIP3    H126502   3.109   3.509   5.749 -0.1413  0.4482  2.2121
 8846TIP3    H226503   3.003   3.441   5.665  1.7008  0.8246 -0.5581
 8847TIP3   OH226504   3.030   6.424   4.062  0.0101 -0.1742 -0.0646
 8847TIP3    H126505   2.997   6.479   3.991 -0.5310  1.1893  1.1914
 8847TIP3    H226506   2.977   6.344   4.058 -1.0690  0.5393 -0.2502
 8848TIP3   OH226507   2.451   6.001   3.013  0.1933 -0.5509  0.2286
 8848TIP3    H126508   2.408   6.085   3.028 -2.1820 -1.7718  0.7950
 8848TIP3    H226509   2.476   5.971   3.101  1.2936 -0.3296  0.0008
 8849TIP3   OH226510   3.790   3.509   0.036 -0.8057 -0.6385  0.1883
 8849TIP3    H126511   3.786   3.602   0.015 -0.2585 -0.3819  1.1591
 8849TIP3    H226512   3.714   3.471  -0.008 -1.8839  0.5114  1.0077
 8850TIP3   OH226513   4.847   1.269   4.630 -0.1597  0.0825 -0.7567
 8850TIP3    H126514   4.808   1.302   4.711  0.9557  2.0883 -0.9602
 8850TIP3    H226515   4.897   1.343   4.596  1.3853 -1.4480 -2.0185
 8851TIP3   OH226516   3.206   1.996   5.850 -0.1366 -0.4130 -0.0692
 8851TIP3    H126517   3.298   1.989   5.878  0.1640  0.5754 -0.7491
 8851TIP3    H226518   3.161   2.034   5.925 -0.1065 -1.3729  0.4551
 8852TIP3   OH226519   1.371   3.082   1.397 -0.4687 -0.0201  0.5328
 8852TIP3    H126520   1.444   3.071   1.335 -2.2338  1.2387 -1.9810
 8852TIP3    H226521   1.394   3.029   1.472  1.9759 -1.4680 -1.1152
 8853TIP3   OH226522   0.617   5.599   0.865 -0.7522  0.7640  0.0350
 8853TIP3    H126523   0.547   5.640   0.917 -0.1648  0.6321  0.9555
 8853TIP3    H226524   0.633   5.660   0.793 -1.1192  1.2845  0.3880
 8854TIP3   OH226525   2.217   2.277   5.336 -0.0882 -0.3589  0.2540
 8854TIP3    H126526   2.310   2.280   5.356 -0.3336  2.1806  1.4258
 8854TIP3    H226527   2.174   2.262   5.420 -0.8043  1.2348  0.2158
 8855TIP3   OH226528   2.012   5.074   3.322  0.5497  0.7289 -0.0551
 8855TIP3    H126529   2.064   5.065   3.242  0.7446 -1.4342  0.2666
 8855TIP3    H226530   2.077   5.091   3.391  0.4496  1.7706 -0.1907
 8856TIP3   OH226531   5.407   5.560   4.422  0.1178 -0.4679  0.0203
 8856TIP3    H126532   5.435   5.518   4.341 -0.7355  1.4925 -1.3705
 8856TIP3    H226533   5.326   5.606   4.399  1.4807  2.7871  1.0438
 8857TIP3   OH226534   1.178   2.606   2.894  0.3795 -0.8296  0.4607
 8857TIP3    H126535   1.175   2.679   2.956  0.0275 -1.0175  0.6655
 8857TIP3    H226536   1.269   2.603   2.865 -0.0790  1.3182 -1.5011
 8858TIP3   OH226537   1.469   6.072   4.212  0.2125 -0.0655 -0.0023
 8858TIP3    H126538   1.539   6.099   4.272  0.2188  1.0336 -0.4720
 8858TIP3    H226539   1.400   6.137   4.225  0.3728  0.4292 -1.4460
 8859TIP3   OH226540   2.983   4.639   0.848 -0.1100  0.2284 -0.4115
 8859TIP3    H126541   2.906   4.681   0.886  0.7888  0.3868  1.3450
 8859TIP3    H226542   2.948   4.587   0.776 -1.5182  2.2992 -1.3314
 8860TIP3   OH226543   1.666   3.497   3.517 -0.5195 -0.4523 -0.5708
 8860TIP3    H126544   1.586   3.462   3.477 -0.5365 -0.5910 -0.4170
 8860TIP3    H226545   1.644   3.507   3.610 -0.2119 -0.9346 -0.4412
 8861TIP3   OH226546   2.219   2.601   3.751  0.3848 -0.7798  0.6527
 8861TIP3    H126547   2.184   2.690   3.745  1.3105 -0.4811 -0.7494
 8861TIP3    H226548   2.232   2.574   3.660  1.4413 -1.8165  1.0924
 8862TIP3   OH226549   4.377   3.568   0.700 -0.9146 -0.0957 -0.4782
 8862TIP3    H126550   4.347   3.600   0.614 -0.9886  0.2598 -0.3221
 8862TIP3    H226551   4.472   3.560   0.691 -1.0152 -0.9121 -0.8737
 8863TIP3   OH226552   2.962   5.567   2.193  0.5172  0.1741 -0.3595
 8863TIP3    H126553   3.031   5.511   2.158  0.4748 -1.3791  1.8633
 8863TIP3    H226554   3.007   5.626   2.254  0.0117 -0.4874  0.6932
 8864TIP3   OH226555   1.342   5.211   0.487 -0.1506  0.4595  0.4178
 8864TIP3    H126556   1.394   5.287   0.462 -2.0573  2.5919  2.3724
 8864TIP3    H226557   1.260   5.222   0.439  0.0319 -1.2001 -0.3491
 8865TIP3   OH226558   7.213   6.144   3.853  0.1748  0.9302 -0.0161
 8865TIP3    H126559   7.166   6.221   3.820  0.9944  0.9418 -1.2192
 8865TIP3    H226560   7.153   6.071   3.838  0.4897  0.9488 -1.5173
 8866TIP3   OH226561   2.113   0.970   5.615 -0.7651 -0.3099  0.2362
 8866TIP3    H126562   2.166   1.026   5.671 -1.7965  1.1385 -0.1664
 8866TIP3    H226563   2.039   0.944   5.671 -1.3806  0.4838 -0.1922
 8867TIP3   OH226564   1.634   1.794   4.316  0.2955  0.5452 -0.4205
 8867TIP3    H126565   1.650   1.758   4.229  0.9367  0.9849 -0.4967
 8867TIP3    H226566   1.721   1.822   4.346  0.4266 -1.2611  1.1168
 8868TIP3   OH226567   3.866   4.196   4.241 -0.0796  0.4909  0.2606
 8868TIP3    H126568   3.795   4.132   4.244 -0.0521  0.4925  1.7613
 8868TIP3    H226569   3.822   4.281   4.254  0.0042  0.6908 -0.6773
 8869TIP3   OH226570   6.877   2.715   4.436 -0.0695 -0.2288  0.0364
 8869TIP3    H126571   6.789   2.731   4.401 -0.7527 -1.7621  0.9415
 8869TIP3    H226572   6.920   2.662   4.369  0.4231  1.0398 -0.6905
 8870TIP3   OH226573   4.701   1.718   2.443  0.4977  0.1878  0.1382
 8870TIP3    H126574   4.738   1.766   2.369  0.7210 -0.9023 -0.4707
 8870TIP3    H226575   4.610   1.701   2.418  0.4363  0.2443  0.3228
 8871TIP3   OH226576   4.766   3.312   5.668  0.4590 -0.0308  0.2784
 8871TIP3    H126577   4.682   3.278   5.697 -1.0924  2.6078 -0.8126
 8871TIP3    H226578   4.754   3.329   5.575  1.9696  1.0681  0.2507
 8872TIP3   OH226579   6.580   1.809   3.565  0.2297 -0.0851  0.0648
 8872TIP3    H126580   6.642   1.869   3.605  0.4025 -0.5560  0.5165
 8872TIP3    H226581   6.543   1.858   3.492  1.1589  0.1932 -0.2349
 8873TIP3   OH226582   4.447   3.207   1.663  0.0599  0.0093  0.1051
 8873TIP3    H126583   4.455   3.114   1.680  1.0929 -0.0296 -0.4966
 8873TIP3    H226584   4.476   3.249   1.744 -2.0798 -0.1621  1.0219
 8874TIP3   OH226585   5.348   3.055   5.182  0.0116 -0.3469  0.4723
 8874TIP3    H126586   5.321   3.072   5.273 -1.0927  1.2499 -0.1100
 8874TIP3    H226587   5.266   3.050   5.133  0.6200  0.2021 -0.6513
 8875TIP3   OH226588   7.153   6.398   0.724  0.0146 -0.3073  0.1656
 8875TIP3    H126589   7.119   6.319   0.766  1.3691 -0.9481  0.1211
 8875TIP3    H226590   7.157   6.376   0.631  0.3658 -0.1811  0.1502
 8876TIP3   OH226591   0.249   3.292   4.038 -0.1070 -0.1926  0.3838
 8876TIP3    H126592   0.316   3.354   4.012  0.8010 -1.5325 -0.5815
 8876TIP3    H226593   0.210   3.262   3.956  0.3604 -1.8427  0.7349
 8877TIP3   OH226594   3.921   4.251   0.135  0.1489 -0.3147 -0.3069
 8877TIP3    H126595   3.843   4.304   0.119  0.4407  0.4289  0.6562
 8877TIP3    H226596   3.894   4.186   0.199  0.1523 -0.4526 -0.4462
 8878TIP3   OH226597   2.884   5.957   0.557 -0.7371  0.1934  0.0413
 8878TIP3    H126598   2.889   5.933   0.464 -0.2333 -1.5629  0.4895
 8878TIP3    H226599   2.795   5.933   0.583 -0.5038 -0.4412  0.2819
 8879TIP3   OH226600   5.324   2.905   1.291 -0.6899  0.5525 -0.4471
 8879TIP3    H126601   5.264   2.911   1.366 -0.9419  1.9037 -0.7258
 8879TIP3    H226602   5.367   2.821   1.302 -2.5665 -0.4326 -0.1793
 8880TIP3   OH226603   0.873   1.152   2.679  0.0810  0.0448  0.1853
 8880TIP3    H126604   0.850   1.142   2.587 -0.8272 -1.2767  0.5134
 8880TIP3    H226605   0.794   1.188   2.720 -0.4073 -1.6155  0.8087
 8881TIP3   OH226606   3.294   3.233   0.139 -0.4682  0.2921 -0.4325
 8881TIP3    H126607   3.246   3.205   0.217 -1.6038  3.0072 -0.0467
 8881TIP3    H226608   3.261   3.176   0.069 -0.0533 -1.6238  0.8544
 8882TIP3   OH226609   0.624   5.332   0.964  0.4417 -0.2876  0.5946
 8882TIP3    H126610   0.605   5.291   0.880 -0.1541 -0.4310  0.7938
 8882TIP3    H226611   0.612   5.426   0.948 -1.8585 -0.4516  1.0436
 8883TIP3   OH226612   2.380   1.224   3.717 -0.7545  0.0203 -0.3074
 8883TIP3    H126613   2.386   1.255   3.627 -2.8310  0.2371 -0.4164
 8883TIP3    H226614   2.287   1.233   3.740 -0.6311 -1.8330  1.2086
 8884TIP3   OH226615   4.015   5.774   4.801  0.5231  0.5191 -0.4282
 8884TIP3    H126616   4.016   5.681   4.778 -0.2479  0.2591  0.5520
 8884TIP3    H226617   4.085   5.812   4.747  0.1383 -0.4208 -1.6460
 8885TIP3   OH226618   3.409   5.793   0.016 -0.3135  0.5933 -0.3825
 8885TIP3    H126619   3.338   5.825   0.071  1.5891  2.1081  1.3768
 8885TIP3    H226620   3.482   5.852   0.035  0.9621  0.1464 -3.3503
 8886TIP3   OH226621   2.015   5.708   4.749 -0.0032  0.7468  0.4545
 8886TIP3    H126622   2.040   5.679   4.662 -0.4288  1.7703 -0.0327
 8886TIP3    H226623   1.980   5.796   4.736 -0.0317  0.9412  1.6667
 8887TIP3   OH226624   2.635   5.952   5.164  0.2032  0.0656  0.2159
 8887TIP3    H126625   2.719   5.977   5.202  0.2857 -0.0202  0.0903
 8887TIP3    H226626   2.657   5.891   5.094 -0.0570 -1.2750  1.2513
 8888TIP3   OH226627   0.002   0.556   5.306 -0.4368 -0.3943  0.1627
 8888TIP3    H126628   0.091   0.585   5.286 -0.8543  0.7083 -0.1117
 8888TIP3    H226629   0.013   0.499   5.383  0.5579 -0.7002 -0.1819
 8889TIP3   OH226630   0.264   6.789   3.110 -0.1983  0.0113 -0.0301
 8889TIP3    H126631   0.321   6.755   3.179 -1.2082 -3.9066 -0.8630
 8889TIP3    H226632   0.212   6.857   3.153  0.9847 -0.4631  2.3392
 8890TIP3   OH226633   5.853   0.420   2.757 -1.1207  0.0231 -0.2215
 8890TIP3    H126634   5.911   0.350   2.725  1.9298  2.5086 -0.7021
 8890TIP3    H226635   5.843   0.478   2.681  2.7868  3.8830  1.7542
 8891TIP3   OH226636   6.179   0.042   2.934 -0.6656 -0.2953 -0.6922
 8891TIP3    H126637   6.197  -0.025   2.867  0.3052  0.5947 -1.3596
 8891TIP3    H226638   6.207   0.002   3.016 -2.7335 -1.7644 -0.6343
 8892TIP3   OH226639   1.645   2.837   1.481  0.3472  0.3003 -0.0725
 8892TIP3    H126640   1.623   2.771   1.416 -0.3228  1.2864 -0.8779
 8892TIP3    H226641   1.720   2.801   1.527 -1.1459 -1.8992  0.8281
 8893TIP3   OH226642   5.343   5.016   5.608 -0.4830 -0.0381  0.4475
 8893TIP3    H126643   5.415   4.986   5.664  0.9169  0.9820 -0.7023
 8893TIP3    H226644   5.353   5.112   5.606 -0.4628 -0.0297 -1.5085
 8894TIP3   OH226645   0.616   3.919   4.454 -0.3450 -0.4037  0.1870
 8894TIP3    H126646   0.588   3.989   4.513  0.0008  0.0239 -0.1532
 8894TIP3    H226647   0.576   3.941   4.370 -1.1613 -1.2213  0.3403
 8895TIP3   OH226648   5.321   1.581   4.411  0.1372 -0.0380  0.1445
 8895TIP3    H126649   5.279   1.662   4.439  0.4324  0.0652  0.2957
 8895TIP3    H226650   5.411   1.607   4.390  0.1568 -0.2745 -0.0677
 8896TIP3   OH226651   5.343   3.815   4.961 -0.8026  0.1081  0.3655
 8896TIP3    H126652   5.360   3.762   5.039 -0.3366 -0.6464 -0.2393
 8896TIP3    H226653   5.409   3.885   4.964 -0.2177 -0.4332  0.1814
 8897TIP3   OH226654   0.716   0.579   5.803  0.1192 -0.2984  0.3303
 8897TIP3    H126655   0.784   0.565   5.868  0.9924  2.1268  0.0338
 8897TIP3    H226656   0.753   0.543   5.722  1.1246  1.0091  0.1668
 8898TIP3   OH226657   4.186   3.876   4.826  0.5258  0.4028  0.7135
 8898TIP3    H126658   4.155   3.797   4.870  0.0748  1.6979  2.8903
 8898TIP3    H226659   4.113   3.904   4.772  0.5954 -0.4934  0.1320
 8899TIP3   OH226660   5.374   3.736   0.496 -0.1477 -0.2852 -0.4335
 8899TIP3    H126661   5.438   3.693   0.439  2.1905 -0.6909  2.2893
 8899TIP3    H226662   5.377   3.828   0.469  0.5804 -0.5295 -1.2501
 8900TIP3   OH226663   1.975   0.089   2.195  0.1032  0.6187  0.4062
 8900TIP3    H126664   2.054   0.126   2.154 -0.8182  0.5823 -1.5275
 8900TIP3    H226665   1.908   0.095   2.127 -1.2088 -0.6513  1.5209
 8901TIP3   OH226666   0.644   0.594   5.519  0.0278  0.1733  0.3455
 8901TIP3    H126667   0.716   0.653   5.540  0.0720 -0.5191  2.3979
 8901TIP3    H226668   0.579   0.610   5.587 -1.4564  0.2238 -1.0151
 8902TIP3   OH226669   1.523   4.160   2.292  0.0266 -0.0892 -0.5564
 8902TIP3    H126670   1.619   4.167   2.291  0.0526  0.0127  0.8844
 8902TIP3    H226671   1.496   4.217   2.364 -1.1742  0.3253 -1.3114
 8903TIP3   OH226672   5.873   5.796   1.394 -0.4869 -0.5816  0.2157
 8903TIP3    H126673   5.904   5.887   1.390 -2.4220  0.0856 -0.5494
 8903TIP3    H226674   5.790   5.796   1.347 -0.8627 -2.6361  0.7547
 8904TIP3   OH226675   5.609   5.327   1.375  0.2916 -0.2754  0.0050
 8904TIP3    H126676   5.624   5.363   1.288 -0.1038  0.6136  0.2883
 8904TIP3    H226677   5.696   5.314   1.412  0.5004 -1.6043 -0.8734
 8905TIP3   OH226678   5.067   3.381   1.759  0.1366 -0.1031  0.0329
 8905TIP3    H126679   5.100   3.341   1.679  0.9037 -0.0461  0.3092
 8905TIP3    H226680   5.041   3.307   1.814 -0.9596 -0.1214 -0.5002
 8906TIP3   OH226681   2.025   2.529   3.999  0.3266  0.3153 -0.0806
 8906TIP3    H126682   1.979   2.601   3.956  1.2414  0.5836 -0.6340
 8906TIP3    H226683   2.117   2.542   3.976  0.3648 -1.8318 -1.3689
 8907TIP3   OH226684   0.924   2.605   5.530 -0.2170  0.1577 -0.2488
 8907TIP3    H126685   0.844   2.553   5.542 -0.3601  0.3671 -0.2841
 8907TIP3    H226686   0.932   2.614   5.435  1.2296 -1.9863 -0.3816
 8908TIP3   OH226687   5.124   0.950   1.719  0.3424  0.0662  0.2283
 8908TIP3    H126688   5.108   0.978   1.809  0.9267  1.1354  0.0216
 8908TIP3    H226689   5.140   1.032   1.671 -0.2583 -0.4492 -0.9118
 8909TIP3   OH226690   6.122   2.330   0.792 -0.1357  0.6378 -0.2641
 8909TIP3    H126691   6.169   2.258   0.749 -0.3130 -0.7609  1.7651
 8909TIP3    H226692   6.030   2.304   0.788 -0.2870  1.1533 -0.2071
 8910TIP3   OH226693   6.401   3.589   4.280  0.3801 -0.0975 -0.0006
 8910TIP3    H126694   6.333   3.534   4.242  0.3018  0.6078 -0.9025
 8910TIP3    H226695   6.409   3.663   4.221  1.0727  0.4534  0.7482
 8911TIP3   OH226696   3.727   2.622   1.255 -0.1272  0.4244 -0.1415
 8911TIP3    H126697   3.669   2.599   1.328  0.0821  1.6340  0.4313
 8911TIP3    H226698   3.713   2.716   1.242  0.5212  0.4046 -1.0562
 8912TIP3   OH226699   6.332   6.529   2.007 -0.0507  0.8173  0.1430
 8912TIP3    H126700   6.416   6.575   2.002 -0.1504  0.9370 -0.5032
 8912TIP3    H226701   6.340   6.472   2.083  0.8985  0.2533 -0.3748
 8913TIP3   OH226702   3.822   1.498   2.248 -0.4083  0.3479 -0.4570
 8913TIP3    H126703   3.804   1.435   2.318  1.4582  0.4800  0.1950
 8913TIP3    H226704   3.741   1.548   2.239 -0.9821 -0.2782  0.9574
 8914TIP3   OH226705   5.936   1.599   2.081 -0.4450  0.3447 -0.4775
 8914TIP3    H126706   5.926   1.550   2.163  1.0260  2.1165  0.8564
 8914TIP3    H226707   5.847   1.629   2.061 -0.8713 -0.3146  0.3281
 8915TIP3   OH226708   2.834   1.772   0.721 -0.0133 -0.2620  0.3544
 8915TIP3    H126709   2.841   1.868   0.727  1.1383 -0.3549  0.8490
 8915TIP3    H226710   2.775   1.748   0.792 -0.1187  0.0658  0.3824
 8916TIP3   OH226711   7.027   1.844   0.167  0.0063 -0.0649 -0.9238
 8916TIP3    H126712   6.982   1.774   0.212  0.6833 -0.7193 -1.2388
 8916TIP3    H226713   6.967   1.871   0.098  0.0433 -0.8490 -1.2696
 8917TIP3   OH226714   7.241   5.356   2.214 -0.2282  0.2964 -0.0780
 8917TIP3    H126715   7.157   5.314   2.194 -0.8379  0.9067  1.1028
 8917TIP3    H226716   7.217   5.436   2.260  0.9550  1.4155 -1.3312
 8918TIP3   OH226717   4.224   4.103   0.691  0.1393 -0.3242 -0.0233
 8918TIP3    H126718   4.271   4.059   0.620  0.6761 -0.4814  0.4201
 8918TIP3    H226719   4.293   4.128   0.753 -0.2235  0.6020  0.0212
 8919TIP3   OH226720   2.120   3.949   2.413  0.4655 -0.2466  0.9283
 8919TIP3    H126721   2.071   3.879   2.370 -0.2318 -0.1489  1.5579
 8919TIP3    H226722   2.207   3.911   2.427  0.7649 -0.2336 -0.6809
 8920TIP3   OH226723   6.396   2.330  -0.023  0.6326 -0.3537 -0.5010
 8920TIP3    H126724   6.368   2.363   0.063 -0.0091 -0.8099 -0.5285
 8920TIP3    H226725   6.491   2.331  -0.019  0.6818  2.4969 -0.8846
 8921TIP3   OH226726   0.869   6.241   0.757 -0.4908 -0.2796  0.1525
 8921TIP3    H126727   0.779   6.266   0.736 -0.2641 -0.5960 -1.3342
 8921TIP3    H226728   0.922   6.281   0.688  0.6003  0.3868  1.3272
 8922TIP3   OH226729   5.167   3.420   2.890  0.1050 -0.5424  0.1636
 8922TIP3    H126730   5.079   3.454   2.906  0.2433 -0.3289  0.4901
 8922TIP3    H226731   5.166   3.391   2.799  0.4553  1.8621 -0.6687
 8923TIP3   OH226732   0.784   2.616   2.010 -0.4112  0.7377 -0.1281
 8923TIP3    H126733   0.786   2.705   2.045  1.2666  0.2057  1.2445
 8923TIP3    H226734   0.752   2.562   2.082  3.0311 -0.3633  0.7915
 8924TIP3   OH226735   3.192   2.485   3.022 -0.1730 -0.0657  0.1413
 8924TIP3    H126736   3.124   2.431   2.980  0.8858 -0.1678 -1.5486
 8924TIP3    H226737   3.154   2.573   3.026 -0.3762 -0.0938 -0.9150
 8925TIP3   OH226738   4.352   6.284   3.728 -0.0989 -0.5050 -0.3194
 8925TIP3    H126739   4.344   6.199   3.772  0.6814  0.0236  0.9037
 8925TIP3    H226740   4.372   6.345   3.799  2.1510  0.2370 -1.4956
 8926TIP3   OH226741   5.469   2.755   0.382 -0.6858  0.2101  0.2704
 8926TIP3    H126742   5.417   2.832   0.361 -0.0326  0.5818 -0.0334
 8926TIP3    H226743   5.549   2.791   0.422 -0.1063 -0.2609 -0.4323
 8927TIP3   OH226744   5.974   5.796   2.866  0.8439  0.0119 -0.0989
 8927TIP3    H126745   5.903   5.814   2.928  1.8344  0.8665  0.8357
 8927TIP3    H226746   6.047   5.766   2.921  0.5167 -3.2754 -1.2277
 8928TIP3   OH226747   6.046   0.614   5.726  0.1689  0.3438  0.0825
 8928TIP3    H126748   6.109   0.545   5.704 -1.1330 -0.3506 -1.6466
 8928TIP3    H226749   6.098   0.695   5.722  1.4656 -0.4021  1.0515
 8929TIP3   OH226750   3.337   2.481   4.156 -0.0746 -0.3321 -0.5680
 8929TIP3    H126751   3.282   2.402   4.151 -0.3749 -0.1270 -0.5211
 8929TIP3    H226752   3.336   2.504   4.249  0.0974 -0.3309 -0.5662
 8930TIP3   OH226753   4.768   0.708   2.222 -0.1362  0.1473  0.1972
 8930TIP3    H126754   4.689   0.700   2.167  1.0158 -0.3812 -1.4684
 8930TIP3    H226755   4.739   0.681   2.309 -2.1107  1.2718 -0.0389
 8931TIP3   OH226756   6.695   4.950   0.619  0.3013 -0.3740  0.3334
 8931TIP3    H126757   6.611   4.960   0.663 -0.2424 -1.8109 -0.3111
 8931TIP3    H226758   6.742   4.885   0.672  0.1359 -1.1793 -0.4854
 8932TIP3   OH226759   4.534   4.030   3.186  1.2062  0.1652 -0.0574
 8932TIP3    H126760   4.532   3.953   3.244  0.4449 -1.7189 -2.4414
 8932TIP3    H226761   4.616   4.021   3.138  1.1603  0.9347 -0.2837
 8933TIP3   OH226762   6.394   4.595   0.444  0.1667 -0.6670 -0.0904
 8933TIP3    H126763   6.429   4.585   0.355  0.4884 -3.0252  0.2249
 8933TIP3    H226764   6.442   4.529   0.495 -1.9806 -1.2929  1.2162
 8934TIP3   OH226765   5.351   3.287   2.180  0.2826  0.1246 -0.1139
 8934TIP3    H126766   5.396   3.211   2.142 -2.4396 -1.1041 -1.2327
 8934TIP3    H226767   5.321   3.337   2.104  0.1632  1.1448  0.5853
 8935TIP3   OH226768   2.943   6.146   0.080 -0.7349 -0.0012  0.3232
 8935TIP3    H126769   3.025   6.161   0.034  0.8913 -1.9611  2.3558
 8935TIP3    H226770   2.931   6.223   0.136 -1.4998  1.2946 -1.5334
 8936TIP3   OH226771   0.310   1.731   1.554 -0.6634  0.2593 -0.2151
 8936TIP3    H126772   0.292   1.749   1.461 -1.2782 -0.0117 -0.1570
 8936TIP3    H226773   0.254   1.793   1.601 -1.2672 -0.4128 -0.0249
 8937TIP3   OH226774   1.147   6.560   2.128 -0.3431  0.0604 -0.1073
 8937TIP3    H126775   1.187   6.548   2.214 -2.5983  0.1891  1.0581
 8937TIP3    H226776   1.214   6.603   2.075  0.8430  0.7138  1.8311
 8938TIP3   OH226777   1.539   6.428   4.702 -0.8127  0.3603  0.5288
 8938TIP3    H126778   1.628   6.459   4.682 -0.2092 -0.1483  2.1992
 8938TIP3    H226779   1.547   6.332   4.700 -1.1939  0.3119  1.2111
 8939TIP3   OH226780   4.672   3.601   0.677 -0.0372 -0.0516  0.1691
 8939TIP3    H126781   4.722   3.683   0.678  0.2019 -0.1062  3.3270
 8939TIP3    H226782   4.729   3.538   0.633 -0.0896  1.3307 -2.0152
 8940TIP3   OH226783   4.758   5.157   4.353 -0.0311 -0.0886  0.3039
 8940TIP3    H126784   4.827   5.196   4.300  0.7308  1.1090  2.0705
 8940TIP3    H226785   4.703   5.110   4.291 -0.1508  2.5967 -1.7843
 8941TIP3   OH226786   0.537   5.259   1.224  0.0813 -0.3863  0.6687
 8941TIP3    H126787   0.551   5.285   1.132  1.8864 -0.1795  0.9610
 8941TIP3    H226788   0.454   5.211   1.223 -0.2986  0.2322 -0.9451
 8942TIP3   OH226789   0.583   0.823   1.779  0.2390 -0.4270  0.4466
 8942TIP3    H126790   0.613   0.908   1.748  0.5702 -0.7620 -0.1680
 8942TIP3    H226791   0.663   0.771   1.788  0.1170 -0.4606  1.5157
 8943TIP3   OH226792   1.226   1.605   1.557  0.1394  0.4916  0.4074
 8943TIP3    H126793   1.262   1.603   1.469  1.2517  0.0728  0.8613
 8943TIP3    H226794   1.195   1.516   1.572  0.2014  0.4944  0.5500
 8944TIP3   OH226795   2.958   5.670   0.283 -0.1371 -0.4035 -0.2514
 8944TIP3    H126796   2.886   5.733   0.272  0.9472  1.0881  0.8093
 8944TIP3    H226797   2.987   5.650   0.194  0.8362  2.2472 -0.6095
 8945TIP3   OH226798   5.741   0.873   1.899 -0.0416  0.3452 -0.2713
 8945TIP3    H126799   5.726   0.783   1.925 -0.2381  0.8507  1.5024
 8945TIP3    H226800   5.837   0.881   1.891 -0.0752 -0.2666 -1.5117
 8946TIP3   OH226801   5.161   1.646   5.181  0.3301  0.3429 -0.2806
 8946TIP3    H126802   5.133   1.612   5.096 -1.3709 -1.6803  1.0007
 8946TIP3    H226803   5.087   1.631   5.239  1.0204  2.6852  1.3607
 8947TIP3   OH226804   7.053   3.091   0.533 -0.1606 -0.2638 -0.2994
 8947TIP3    H126805   7.112   3.096   0.608 -0.3228 -0.9131 -0.1281
 8947TIP3    H226806   6.982   3.033   0.561  0.6011 -1.8471 -1.5071
 8948TIP3   OH226807   1.434   3.247   0.589  0.0181 -0.4323 -0.4203
 8948TIP3    H126808   1.439   3.153   0.573 -0.8725 -0.4530 -0.6884
 8948TIP3    H226809   1.470   3.287   0.510  1.5199 -0.5326  0.1839
 8949TIP3   OH226810   0.840   0.635   0.827 -0.4091 -0.4522  0.1154
 8949TIP3    H126811   0.854   0.622   0.921  0.4635  2.8249  0.5649
 8949TIP3    H226812   0.745   0.638   0.817 -0.5063 -0.5041  0.9677
 8950TIP3   OH226813   1.286   1.453   2.180  0.7846 -1.2324  0.2375
 8950TIP3    H126814   1.205   1.476   2.134  2.1624 -0.1892 -1.7974
 8950TIP3    H226815   1.278   1.358   2.195 -0.4345 -1.2969 -0.6727
 8951TIP3   OH226816   1.045   0.304   5.030 -0.6229  0.0908  0.2363
 8951TIP3    H126817   0.991   0.379   5.055  0.2389  1.2788 -1.2960
 8951TIP3    H226818   1.133   0.327   5.059 -0.7162 -1.4782  1.9922
 8952TIP3   OH226819   6.832   1.183   5.375 -0.3796  0.2339  0.3788
 8952TIP3    H126820   6.817   1.105   5.322 -2.0830 -0.8788  2.3811
 8952TIP3    H226821   6.748   1.202   5.415  0.6776  1.4369  2.1722
 8953TIP3   OH226822   1.807   3.327   2.119  0.0168 -0.1205 -0.6321
 8953TIP3    H126823   1.893   3.291   2.098  0.1558 -1.9065  2.4121
 8953TIP3    H226824   1.746   3.257   2.097 -0.5479  0.6369 -1.5393
 8954TIP3   OH226825   0.604   3.335   0.003  0.3198 -0.2458 -0.0301
 8954TIP3    H126826   0.621   3.328   0.097 -1.5282 -0.9607  0.2868
 8954TIP3    H226827   0.619   3.246  -0.030  0.1012 -0.1980 -0.2546
 8955TIP3   OH226828   5.742   4.380   0.261 -0.1643  0.1625  0.0142
 8955TIP3    H126829   5.775   4.452   0.207 -0.6709  2.5948  2.6892
 8955TIP3    H226830   5.814   4.359   0.320 -1.0009  0.6542  1.2609
 8956TIP3   OH226831   6.518   4.839   2.828 -0.2372  0.0421  0.2276
 8956TIP3    H126832   6.517   4.933   2.844  0.4941 -0.0372  0.8241
 8956TIP3    H226833   6.558   4.802   2.907 -1.2999 -0.8465  0.3706
 8957TIP3   OH226834   0.575   2.400   1.629  0.6575 -0.0811 -0.4500
 8957TIP3    H126835   0.615   2.484   1.654  1.6108 -0.6250 -0.0874
 8957TIP3    H226836   0.488   2.402   1.668  0.7967  0.5962 -0.1549
 8958TIP3   OH226837   1.299   2.129   2.560 -0.6907  0.0721  0.2900
 8958TIP3    H126838   1.381   2.104   2.518 -0.2001 -0.4332  1.5101
 8958TIP3    H226839   1.232   2.084   2.509 -0.1809  0.0984 -0.4226
 8959TIP3   OH226840   1.498   0.012   2.270  0.3787 -0.1538 -0.5690
 8959TIP3    H126841   1.512   0.076   2.200 -0.0017  0.8173  0.2104
 8959TIP3    H226842   1.582   0.008   2.316 -0.1344  1.3811  0.6281
 8960TIP3   OH226843   0.887   4.787   3.473  0.1552 -0.0011  0.4079
 8960TIP3    H126844   0.858   4.846   3.543 -1.5508 -1.1369  0.7293
 8960TIP3    H226845   0.821   4.797   3.404  0.6912 -0.4020 -0.1790
 8961TIP3   OH226846   3.195   5.490   1.546  0.3381 -0.2094  0.0575
 8961TIP3    H126847   3.277   5.523   1.509  0.2842  0.9421  0.8852
 8961TIP3    H226848   3.127   5.539   1.500  0.2232  0.3403  0.7876
 8962TIP3   OH226849   0.973   1.970   3.384 -0.3281 -0.2916 -0.6235
 8962TIP3    H126850   0.984   1.888   3.335 -1.9004 -0.2212 -1.1378
 8962TIP3    H226851   1.037   2.030   3.344  1.2685 -1.3955  0.1513
 8963TIP3   OH226852   3.835   3.387   5.646 -0.0588  0.0850  0.3039
 8963TIP3    H126853   3.902   3.319   5.645  1.1621  1.2016 -1.3712
 8963TIP3    H226854   3.781   3.367   5.569  0.7530  1.3328 -0.6436
 8964TIP3   OH226855   6.463   1.700   5.308  0.0320 -0.9044 -0.7236
 8964TIP3    H126856   6.482   1.676   5.399  1.0171  3.2237  0.3755
 8964TIP3    H226857   6.368   1.717   5.307 -0.1208 -1.7191 -0.7101
 8965TIP3   OH226858   0.202   4.763   3.498  0.1351  0.0049  0.0487
 8965TIP3    H126859   0.147   4.685   3.510  0.0515  0.0896  0.2270
 8965TIP3    H226860   0.226   4.761   3.405 -1.4136  0.7704 -0.4202
 8966TIP3   OH226861   5.370   4.064   5.845  0.1252  0.2028  0.1978
 8966TIP3    H126862   5.306   4.067   5.773  0.8111 -2.6619 -0.6450
 8966TIP3    H226863   5.372   4.154   5.878 -1.3434  1.3032 -2.3644
 8967TIP3   OH226864   0.593   1.896   5.501 -0.4057  0.0691  0.0372
 8967TIP3    H126865   0.512   1.865   5.541 -0.7527  0.5501 -0.2812
 8967TIP3    H226866   0.570   1.979   5.459  0.6798  1.1734  1.5086
 8968TIP3   OH226867   4.504   1.984   1.772  0.1972 -0.1937 -0.1439
 8968TIP3    H126868   4.424   2.035   1.786 -0.6234 -1.2355 -0.8932
 8968TIP3    H226869   4.565   2.046   1.731  0.5964  1.2306  2.3874
 8969TIP3   OH226870   1.429   3.016   5.003  0.1313  0.6911 -0.0446
 8969TIP3    H126871   1.429   3.081   4.933  0.7108  2.8618  1.8762
 8969TIP3    H226872   1.521   3.001   5.023 -0.0209  1.4205  1.3606
 8970TIP3   OH226873   6.757   0.813   3.181  0.0970  0.0380 -0.0807
 8970TIP3    H126874   6.739   0.868   3.257  2.2794  0.5432  0.1361
 8970TIP3    H226875   6.739   0.724   3.210 -2.0889  0.4601  0.0109
 8971TIP3   OH226876   5.312   4.741   4.588 -0.4925 -0.3256  0.1928
 8971TIP3    H126877   5.338   4.771   4.675 -2.8052  0.3257  0.7151
 8971TIP3    H226878   5.217   4.746   4.588 -0.5802 -0.8531 -2.1985
 8972TIP3   OH226879   6.798   0.394   4.958  0.4706 -0.2664  0.2197
 8972TIP3    H126880   6.821   0.305   4.985  1.4520 -0.2596 -0.5378
 8972TIP3    H226881   6.864   0.450   5.000  0.8821 -0.0742 -0.6597
 8973TIP3   OH226882   4.717   5.614   3.445 -0.8602  0.5094  0.4389
 8973TIP3    H126883   4.639   5.569   3.413 -0.4917  0.0694  0.1411
 8973TIP3    H226884   4.703   5.706   3.423 -0.8845  0.2999 -0.4636
 8974TIP3   OH226885   0.438   6.770   4.235 -0.1888  0.5860  0.1991
 8974TIP3    H126886   0.405   6.841   4.180 -2.3528  0.1766  0.8581
 8974TIP3    H226887   0.426   6.801   4.325 -0.1255 -0.1749  0.4794
 8975TIP3   OH226888   2.393   4.730   3.690  0.1899  0.2569  0.3061
 8975TIP3    H126889   2.304   4.694   3.689  0.4476 -0.3975 -1.6082
 8975TIP3    H226890   2.413   4.749   3.599  1.6568  1.3612  0.8099
 8976TIP3   OH226891   4.305   4.362   5.336  0.9169 -0.5612 -0.1409
 8976TIP3    H126892   4.251   4.429   5.379  0.1430 -0.8656 -0.6195
 8976TIP3    H226893   4.379   4.350   5.395  0.9664  0.5678  0.0562
 8977TIP3   OH226894   4.018   3.900   2.584  0.0268 -0.3026  0.0736
 8977TIP3    H126895   3.930   3.864   2.594 -0.2542 -0.2731 -1.8677
 8977TIP3    H226896   4.067   3.830   2.541  0.4318  0.3670 -0.5775
 8978TIP3   OH226897   0.685   3.997   5.311  0.5121 -0.6838  0.0085
 8978TIP3    H126898   0.757   3.977   5.252 -0.8455  0.2514 -2.0826
 8978TIP3    H226899   0.716   4.072   5.363  1.6928 -1.4727  0.4858
 8979TIP3   OH226900   1.869   0.171   1.911  0.4677 -0.8472 -0.2025
 8979TIP3    H126901   1.783   0.213   1.921  0.8886 -0.3621  2.0006
 8979TIP3    H226902   1.904   0.207   1.830  0.9157  3.4561  1.6309
 8980TIP3   OH226903   5.199   3.380   3.818 -0.4137  0.7567 -0.1745
 8980TIP3    H126904   5.273   3.355   3.873 -0.3293 -1.1777 -1.0740
 8980TIP3    H226905   5.128   3.397   3.879  0.2628  0.8178  0.6209
 8981TIP3   OH226906   1.733   2.084   4.228  0.3347 -0.2442 -0.2635
 8981TIP3    H126907   1.747   2.157   4.167  0.2566 -1.1529 -1.4122
 8981TIP3    H226908   1.816   2.076   4.275  1.2149 -0.9426 -1.8515
 8982TIP3   OH226909   0.106   1.810   0.935 -0.7061 -0.3160  0.4681
 8982TIP3    H126910   0.030   1.794   0.879  0.1879  0.2768 -0.9685
 8982TIP3    H226911   0.073   1.867   1.004 -1.5367  0.0854 -0.2385
 8983TIP3   OH226912   6.494   4.484   3.126  0.5448 -0.2259  0.2327
 8983TIP3    H126913   6.473   4.399   3.163 -1.6485  0.4591  0.7277
 8983TIP3    H226914   6.409   4.523   3.106  1.4841  1.8124 -0.0554
 8984TIP3   OH226915   0.725   2.084   4.758  0.4153 -0.1333  0.7004
 8984TIP3    H126916   0.671   2.140   4.703  0.9980 -0.2580 -0.0069
 8984TIP3    H226917   0.699   1.995   4.736  1.1561 -0.2099  0.0698
 8985TIP3   OH226918   6.240   2.769   3.090 -0.1644 -0.2749 -0.3203
 8985TIP3    H126919   6.231   2.685   3.045 -0.1645  0.7790 -2.4234
 8985TIP3    H226920   6.153   2.809   3.085 -0.3014 -0.3338  1.1301
 8986TIP3   OH226921   1.967   5.852   1.325 -0.1168 -0.1146  0.0678
 8986TIP3    H126922   2.038   5.792   1.348 -0.5044 -0.2786  0.9005
 8986TIP3    H226923   1.905   5.799   1.275 -0.1346 -0.2362  0.2187
 8987TIP3   OH226924   6.140   1.453   4.520  0.7327 -0.4063 -0.0536
 8987TIP3    H126925   6.212   1.496   4.475  0.2676 -0.4902 -0.9057
 8987TIP3    H226926   6.126   1.506   4.599  0.1145  1.1137 -1.1119
 8988TIP3   OH226927   2.694   5.936   5.637 -0.4832  0.0129 -0.2455
 8988TIP3    H126928   2.632   5.878   5.593 -1.2327 -0.1649  0.9881
 8988TIP3    H226929   2.677   5.923   5.730  0.0914  1.3863  0.0818
 8989TIP3   OH226930   4.845   2.457   2.917 -0.2377  0.1972  0.5620
 8989TIP3    H126931   4.767   2.408   2.890  0.5650 -1.8536  1.7334
 8989TIP3    H226932   4.911   2.390   2.933  1.9136  1.8897 -0.6950
 8990TIP3   OH226933   3.211   6.630   1.822  0.0217 -0.2268 -0.3343
 8990TIP3    H126934   3.262   6.703   1.857  1.4389 -1.1196 -0.4904
 8990TIP3    H226935   3.141   6.672   1.772  0.8557  1.0270 -0.4832
 8991TIP3   OH226936   0.395   4.546   3.560 -0.2483  0.0729 -0.2322
 8991TIP3    H126937   0.445   4.514   3.484 -1.2816 -0.8272 -0.5535
 8991TIP3    H226938   0.380   4.639   3.541  0.2317  0.0543 -0.7217
 8992TIP3   OH226939   6.717   1.358   2.992 -0.7700 -0.0753  0.5299
 8992TIP3    H126940   6.710   1.399   3.078 -3.1615 -0.6221  0.6508
 8992TIP3    H226941   6.638   1.305   2.984  0.5472 -1.9411 -1.0390
 8993TIP3   OH226942   1.470   0.591   5.813  0.3604  0.2677 -0.1649
 8993TIP3    H126943   1.402   0.526   5.833  1.4141 -1.0512 -0.7256
 8993TIP3    H226944   1.526   0.592   5.891  0.3388  0.5351 -0.1499
 8994TIP3   OH226945   4.050   3.197   4.348  0.1545 -0.8395  0.2219
 8994TIP3    H126946   4.058   3.185   4.443  0.7116 -1.8335  0.0625
 8994TIP3    H226947   4.132   3.240   4.323 -1.0348  1.7874  0.5163
 8995TIP3   OH226948   5.506   5.392   4.203 -0.4974 -0.4025  0.6535
 8995TIP3    H126949   5.602   5.385   4.206 -0.2810  1.7690  0.3188
 8995TIP3    H226950   5.478   5.314   4.155  1.3472  0.2824 -1.7552
 8996TIP3   OH226951   0.994   2.473   0.890  0.1716 -0.0427 -0.3802
 8996TIP3    H126952   1.006   2.555   0.939 -0.8908  0.9112 -1.6497
 8996TIP3    H226953   1.082   2.453   0.857  0.8038 -0.4308  1.4372
 8997TIP3   OH226954   5.105   1.529   0.895 -0.2423 -0.1709  0.2203
 8997TIP3    H126955   5.084   1.458   0.834 -0.0882 -0.4236  0.4599
 8997TIP3    H226956   5.160   1.488   0.962 -0.4879  0.0828  0.5816
 8998TIP3   OH226957   6.842   5.315   1.660  0.6203  0.4201  0.3351
 8998TIP3    H126958   6.854   5.317   1.565  2.4910  0.7779  0.5397
 8998TIP3    H226959   6.930   5.300   1.695  0.0306  0.7032  2.0362
 8999TIP3   OH226960   2.753   0.124   2.751 -0.6428  0.2693 -0.0828
 8999TIP3    H126961   2.716   0.041   2.781  0.2591 -0.0198  0.2615
 8999TIP3    H226962   2.687   0.189   2.772 -1.9661 -0.5138 -1.6026
 9000TIP3   OH226963   2.811   4.279   0.400 -0.4144 -0.4914 -0.2004
 9000TIP3    H126964   2.801   4.207   0.463  0.0144 -1.5198 -1.2758
 9000TIP3    H226965   2.736   4.336   0.417 -1.8303 -2.1594 -0.5287
 9001TIP3   OH226966   6.828   5.916   1.955 -0.6511  0.1755 -0.3209
 9001TIP3    H126967   6.821   5.907   2.050 -1.7650 -0.3034 -0.4340
 9001TIP3    H226968   6.906   5.865   1.933 -0.7594 -0.2688  0.2672
 9002TIP3   OH226969   7.166   4.105   1.097  0.0582  0.6371 -0.4659
 9002TIP3    H126970   7.074   4.090   1.121  0.4630  0.3041  0.9974
 9002TIP3    H226971   7.215   4.077   1.174  1.4835 -0.3608 -1.6819
 9003TIP3   OH226972   1.339   1.205   5.603 -0.0404  0.2184 -0.1705
 9003TIP3    H126973   1.394   1.243   5.534 -0.4440 -0.5472 -0.9376
 9003TIP3    H226974   1.400   1.177   5.670  0.7476 -2.1494 -1.7348
 9004TIP3   OH226975   1.460   2.785   1.910 -0.2092 -0.3996 -0.1905
 9004TIP3    H126976   1.478   2.812   1.819 -1.7036 -0.5186 -0.5469
 9004TIP3    H226977   1.378   2.829   1.932 -1.7521 -3.0695 -0.1389
 9005TIP3   OH226978   0.221   3.964   2.537  0.0447  0.0488  0.2086
 9005TIP3    H126979   0.192   3.885   2.584  2.5843 -0.6893  0.6539
 9005TIP3    H226980   0.316   3.956   2.532  0.3868  3.0140  0.0744
 9006TIP3   OH226981   1.080   2.870   0.289 -0.0948 -0.4234  0.2220
 9006TIP3    H126982   1.071   2.775   0.294  0.9730 -0.5675 -0.4499
 9006TIP3    H226983   1.123   2.886   0.205 -0.5099  0.6761  0.2024
 9007TIP3   OH226984   3.926   6.723   5.353 -0.0482 -0.6967 -0.0672
 9007TIP3    H126985   3.890   6.668   5.284  1.8826 -2.0500 -0.0519
 9007TIP3    H226986   4.018   6.699   5.358  0.4804  1.3374  1.1287
 9008TIP3   OH226987   3.660   5.569   5.014  0.1789  0.4811  0.4572
 9008TIP3    H126988   3.653   5.475   5.000 -1.8799  0.7182 -0.6344
 9008TIP3    H226989   3.581   5.591   5.064  0.5352  1.6622  0.5290
 9009TIP3   OH226990   4.998   1.012   1.969 -0.0333 -0.0662 -0.4734
 9009TIP3    H126991   4.917   1.062   1.971  0.6026  0.9694  1.0703
 9009TIP3    H226992   5.002   0.969   2.055 -0.6459 -3.0177 -1.7749
 9010TIP3   OH226993   7.007   2.502   4.611  0.2852  0.3247 -0.0942
 9010TIP3    H126994   6.982   2.439   4.543 -1.4773  1.0867 -0.1946
 9010TIP3    H226995   7.046   2.448   4.680 -3.3086 -1.3298  0.9168
 9011TIP3   OH226996   3.063   1.108   3.817  0.3106 -0.1043 -0.2528
 9011TIP3    H126997   3.008   1.057   3.758 -0.4811 -0.3260  0.6565
 9011TIP3    H226998   3.009   1.122   3.895  1.9763 -1.5211  1.2604
 9012TIP3   OH226999   4.708   1.834   2.701  0.6326  0.2466 -0.4533
 9012TIP3    H127000   4.625   1.826   2.748  0.3871  2.7373 -0.3323
 9012TIP3    H227001   4.686   1.812   2.611  0.5729 -2.1513  0.0859
 9013TIP3   OH227002   2.781   1.892   3.598 -0.1141  0.4601 -0.0935
 9013TIP3    H127003   2.860   1.863   3.553 -0.0487  1.9017 -0.9851
 9013TIP3    H227004   2.734   1.944   3.533 -1.2756  0.5081  0.7510
 9014TIP3   OH227005   1.566   6.468   2.414 -0.2996 -0.0720 -0.0248
 9014TIP3    H127006   1.552   6.378   2.442  1.2212  0.3424  2.3952
 9014TIP3    H227007   1.616   6.461   2.332  0.7237 -1.4636  0.6828
 9015TIP3   OH227008   4.795   1.183   2.065  0.3039 -0.4913 -0.1117
 9015TIP3    H127009   4.798   1.265   2.016 -2.3416  0.4215  1.0552
 9015TIP3    H227010   4.797   1.210   2.157  2.2170 -1.9762  0.3481
 9016TIP3   OH227011   0.824   0.708   3.994 -0.0721 -0.1323  0.0133
 9016TIP3    H127012   0.919   0.711   4.001  0.0531 -1.1204 -0.9523
 9016TIP3    H227013   0.797   0.653   4.067  0.0646  0.4105  0.4778
 9017TIP3   OH227014   2.783   6.713   5.668  0.6306 -0.3233  0.6569
 9017TIP3    H127015   2.872   6.697   5.639  0.6905  0.9032  0.1428
 9017TIP3    H227016   2.780   6.806   5.688 -0.8900 -0.0472 -0.6367
 9018TIP3   OH227017   4.065   4.575   3.727 -0.2432  0.5393  0.0285
 9018TIP3    H127018   4.142   4.519   3.717 -1.1574 -0.5862 -0.9740
 9018TIP3    H227019   4.087   4.654   3.678  0.7601  0.7717  0.8207
 9019TIP3   OH227020   4.385   4.819   4.534  0.5076 -0.2395  0.5110
 9019TIP3    H127021   4.296   4.790   4.515  0.4238  0.7882 -0.8205
 9019TIP3    H227022   4.377   4.874   4.612 -0.0420 -0.0924  0.3539
 9020TIP3   OH227023   6.215   3.355   0.354  0.1584 -0.4237  0.3741
 9020TIP3    H127024   6.285   3.332   0.416  0.8553 -1.2812 -0.6834
 9020TIP3    H227025   6.166   3.273   0.343 -0.8211  0.0839  0.8399
 9021TIP3   OH227026   4.783   6.626   2.613 -0.7284  0.2941  0.1680
 9021TIP3    H127027   4.713   6.563   2.597 -0.5966  0.3361 -0.5771
 9021TIP3    H227028   4.827   6.636   2.529  1.8438 -1.6799  1.1549
 9022TIP3   OH227029   1.862   2.811   0.267  0.4457  0.3637 -0.6538
 9022TIP3    H127030   1.846   2.718   0.257 -0.8463  0.3972  0.7211
 9022TIP3    H227031   1.927   2.832   0.200  2.1579 -1.8670  0.2012
 9023TIP3   OH227032   5.427   6.766   0.495 -0.2266 -0.3860 -0.7878
 9023TIP3    H127033   5.396   6.684   0.532  1.4020 -1.0161 -0.7652
 9023TIP3    H227034   5.471   6.741   0.413 -1.6886  0.7251 -1.9860
 9024TIP3   OH227035   5.909   0.559   3.907 -0.6222 -0.1424 -0.5045
 9024TIP3    H127036   5.922   0.647   3.943 -1.4958 -0.7116  1.3336
 9024TIP3    H227037   5.863   0.512   3.976  0.5972 -2.3134 -1.0871
 9025TIP3   OH227038   5.516   5.957   3.150 -0.3742  0.1758  0.5700
 9025TIP3    H127039   5.490   5.989   3.237 -0.0564  0.8927  0.4041
 9025TIP3    H227040   5.439   5.973   3.095  0.4002  2.4087  0.0521
 9026TIP3   OH227041   0.731   4.515   2.613 -0.3516 -0.5737  0.1852
 9026TIP3    H127042   0.776   4.588   2.571  1.1083 -1.0934  0.7680
 9026TIP3    H227043   0.639   4.529   2.594 -0.1461  1.6031  0.5590
 9027TIP3   OH227044   6.521   0.717   2.294 -0.1221 -0.1435  0.1378
 9027TIP3    H127045   6.603   0.738   2.250  0.4869 -1.0274  0.8105
 9027TIP3    H227046   6.455   0.722   2.226  0.5905 -0.0624 -0.5618
 9028TIP3   OH227047   2.392   0.379   1.943 -0.1491  0.8032  0.0134
 9028TIP3    H127048   2.375   0.298   1.992 -0.9874  1.8249  1.4892
 9028TIP3    H227049   2.372   0.357   1.852 -2.1866 -0.1431  0.6332
 9029TIP3   OH227050   4.005   2.117   4.063  0.1032  0.6275 -0.2635
 9029TIP3    H127051   4.007   2.167   3.982 -1.2336 -0.9110 -1.3191
 9029TIP3    H227052   4.095   2.117   4.094  0.9472  0.0752 -2.5264
 9030TIP3   OH227053   2.976   0.924   0.027 -0.1094 -0.3111  0.4034
 9030TIP3    H127054   2.968   1.008  -0.018  0.1849 -0.9196 -0.8455
 9030TIP3    H227055   3.060   0.928   0.071  0.0636 -0.0749  0.0563
 9031TIP3   OH227056   2.878   3.613   2.206 -0.2902 -0.2251  0.2492
 9031TIP3    H127057   2.865   3.553   2.279 -2.2778  0.3055  0.4107
 9031TIP3    H227058   2.792   3.654   2.194  0.3231  0.6236 -1.5722
 9032TIP3   OH227059   7.015   1.854   5.799  0.0598  0.1114  0.0047
 9032TIP3    H127060   7.064   1.922   5.845  0.3115  0.3433 -0.5928
 9032TIP3    H227061   7.081   1.791   5.770 -0.2146 -0.6129  0.9099
 9033TIP3   OH227062   6.971   2.473   0.955  0.1088  0.0166  0.2805
 9033TIP3    H127063   6.972   2.415   0.879  1.5748  1.3110 -0.7453
 9033TIP3    H227064   7.011   2.422   1.026  2.0406 -0.0365 -0.7913
 9034TIP3   OH227065   1.615   3.951   0.252 -0.6371 -0.2531  0.7166
 9034TIP3    H127066   1.647   4.039   0.271 -0.2402 -0.0385 -0.8271
 9034TIP3    H227067   1.539   3.965   0.195  0.2043 -0.9380 -0.5953
 9035TIP3   OH227068   1.927   1.124   4.723  0.0032  0.5703 -0.5789
 9035TIP3    H127069   1.935   1.064   4.797 -0.0806  0.5034 -0.6236
 9035TIP3    H227070   1.841   1.104   4.685 -0.5446  1.5300  0.1155
 9036TIP3   OH227071   4.008   2.531   2.331 -0.0378 -0.2466 -0.0563
 9036TIP3    H127072   3.933   2.590   2.324 -0.8652 -1.4051 -1.6325
 9036TIP3    H227073   4.069   2.562   2.264  0.8213  0.5473  1.0635
 9037TIP3   OH227074   4.257   5.110   1.934  0.1183 -0.3997  0.3410
 9037TIP3    H127075   4.309   5.189   1.919 -2.3182  1.0513 -1.0270
 9037TIP3    H227076   4.205   5.130   2.012  0.4655 -1.2442  0.8083
 9038TIP3   OH227077   6.382   4.610   2.450 -0.2224  0.4784 -0.0385
 9038TIP3    H127078   6.323   4.585   2.522 -0.2848  0.7261 -0.0037
 9038TIP3    H227079   6.391   4.705   2.458 -0.5723  0.5649 -0.6256
 9039TIP3   OH227080   5.519   1.538   0.424 -0.1729 -0.7822  0.0859
 9039TIP3    H127081   5.512   1.449   0.457  1.5785 -1.7476 -1.9130
 9039TIP3    H227082   5.577   1.583   0.485 -1.9516 -0.5989  1.7378
 9040TIP3   OH227083   2.844   6.322   1.249 -0.1383  0.4772 -0.4313
 9040TIP3    H127084   2.801   6.285   1.326 -1.6815  1.4271 -0.7748
 9040TIP3    H227085   2.890   6.249   1.208 -2.4222 -0.9034 -0.6720
 9041TIP3   OH227086   1.379   0.883   0.836 -0.1658 -0.3099  0.6335
 9041TIP3    H127087   1.286   0.871   0.855  0.0293 -0.1155  1.7974
 9041TIP3    H227088   1.409   0.797   0.807 -1.0873  0.0531 -1.6001
 9042TIP3   OH227089   3.022   1.457   1.120  0.0808  0.1892 -0.4573
 9042TIP3    H127090   3.091   1.431   1.180  0.5821  0.9125 -0.7048
 9042TIP3    H227091   2.945   1.408   1.149  0.2060  0.8263  1.0273
 9043TIP3   OH227092   6.351   4.810   0.227  0.0472  0.2896  0.6638
 9043TIP3    H127093   6.335   4.857   0.309 -2.6983 -1.4923  1.3134
 9043TIP3    H227094   6.415   4.743   0.250  1.4305  1.5250  0.5710
 9044TIP3   OH227095   5.328   6.344   1.271 -0.4913  0.2516  0.0035
 9044TIP3    H127096   5.416   6.382   1.282  0.1129 -1.2334  0.5540
 9044TIP3    H227097   5.335   6.290   1.192 -0.6480 -0.5734  0.5476
 9045TIP3   OH227098   3.303   3.603   1.381  0.0692  0.4549 -0.0722
 9045TIP3    H127099   3.380   3.559   1.417 -1.3585 -1.6861  0.5716
 9045TIP3    H227100   3.230   3.544   1.403 -1.6036  1.8657 -1.6013
 9046TIP3   OH227101   0.891   4.257   1.649  0.3738  0.1115  0.3605
 9046TIP3    H127102   0.863   4.213   1.729 -1.7854 -0.0935 -0.4305
 9046TIP3    H227103   0.823   4.235   1.585  1.5917  0.9602 -1.2979
 9047TIP3   OH227104   3.215   2.300   1.057 -0.6278  0.1423 -0.0639
 9047TIP3    H127105   3.309   2.283   1.049 -0.3786  1.2501  0.3822
 9047TIP3    H227106   3.176   2.256   0.981  0.4204  0.9580 -1.1096
 9048TIP3   OH227107   1.909   5.393   1.837  0.1886  0.0089 -0.3688
 9048TIP3    H127108   1.983   5.365   1.783  0.3505  0.7564 -0.5528
 9048TIP3    H227109   1.890   5.483   1.807  0.0296  0.2920  0.5448
 9049TIP3   OH227110   6.858   5.901   2.264  0.6335  0.4381 -0.0827
 9049TIP3    H127111   6.820   5.988   2.276  1.4164  0.6706  0.7775
 9049TIP3    H227112   6.937   5.901   2.318  1.0944 -0.5267 -0.7284
 9050TIP3   OH227113   5.367   4.075   3.876 -0.1760  0.3937  0.4018
 9050TIP3    H127114   5.342   4.167   3.882 -0.3653  0.4101 -0.4700
 9050TIP3    H227115   5.369   4.057   3.782 -0.1268 -0.4894  0.5633
 9051TIP3   OH227116   6.313   3.734   1.815  0.2224 -0.6106 -0.4986
 9051TIP3    H127117   6.348   3.664   1.760 -0.3640 -0.6186 -0.8701
 9051TIP3    H227118   6.350   3.814   1.779  1.0675 -0.7408  0.0620
 9052TIP3   OH227119   5.679   2.316   2.693  0.1818  0.0056  0.1728
 9052TIP3    H127120   5.717   2.322   2.781  1.0212  0.6928 -0.2205
 9052TIP3    H227121   5.633   2.232   2.692 -1.9899  1.0544  2.0845
 9053TIP3   OH227122   0.522   1.700   1.961  0.4023 -0.1425  0.5983
 9053TIP3    H127123   0.444   1.647   1.946 -0.2741  1.0248 -0.2956
 9053TIP3    H227124   0.540   1.741   1.875  0.7936  1.1616  1.2670
 9054TIP3   OH227125   6.286   1.172   5.121  0.6265  0.4512 -0.1055
 9054TIP3    H127126   6.243   1.250   5.156  0.5451  0.0833  0.6167
 9054TIP3    H227127   6.300   1.116   5.197  2.4950  0.6066 -0.3071
 9055TIP3   OH227128   5.624   6.407   1.300 -0.7382 -0.5081  0.5427
 9055TIP3    H127129   5.658   6.490   1.334  0.1582  0.1442 -1.7037
 9055TIP3    H227130   5.664   6.340   1.355  1.9990  0.3994 -0.1740
 9056TIP3   OH227131   5.937   1.114   2.510 -0.6231  0.0037  0.0108
 9056TIP3    H127132   5.912   1.124   2.419  0.1501 -1.0042 -0.3287
 9056TIP3    H227133   6.027   1.080   2.507 -0.9087 -0.9296  1.1280
 9057TIP3   OH227134   3.173   4.424   5.849 -0.2516  0.7524  0.3082
 9057TIP3    H127135   3.200   4.345   5.895  0.0892  1.3702  1.2069
 9057TIP3    H227136   3.115   4.469   5.911 -1.3318  0.6789 -0.6204
 9058TIP3   OH227137   4.213   5.892   1.771  0.1813 -0.0580  0.0348
 9058TIP3    H127138   4.244   5.976   1.738 -0.3431 -0.6953 -2.2217
 9058TIP3    H227139   4.125   5.910   1.803  0.5285  0.4823  0.7181
 9059TIP3   OH227140   0.110   3.282   1.628 -0.2273 -0.0734 -0.1331
 9059TIP3    H127141   0.095   3.338   1.551  1.9498  0.7410 -0.0118
 9059TIP3    H227142   0.175   3.219   1.599  2.7681  1.9318  1.7116
 9060TIP3   OH227143   1.458   3.838   4.528  0.2499  0.4330 -0.1117
 9060TIP3    H127144   1.467   3.743   4.514  2.9355  0.5363  0.2590
 9060TIP3    H227145   1.511   3.877   4.459 -0.8194  1.6820 -0.2505
 9061TIP3   OH227146   4.554   2.216   3.154 -0.2735 -0.6986 -0.0671
 9061TIP3    H127147   4.564   2.225   3.059 -0.3557 -1.1159 -0.1177
 9061TIP3    H227148   4.493   2.143   3.164 -0.7457 -0.2607  0.2933
 9062TIP3   OH227149   6.968   4.758   2.586 -0.3624 -0.3464 -0.2091
 9062TIP3    H127150   6.889   4.789   2.632  0.8997  1.6719  0.7500
 9062TIP3    H227151   6.943   4.756   2.494 -1.0834  1.9587 -0.1236
 9063TIP3   OH227152   1.474   1.533   5.580 -0.3106 -0.0353  0.1865
 9063TIP3    H127153   1.395   1.540   5.527 -0.3706 -0.7194  0.1746
 9063TIP3    H227154   1.523   1.461   5.540  0.9125  1.1725 -0.5571
 9064TIP3   OH227155   3.299   6.790   2.486 -0.4407  0.0486  0.0157
 9064TIP3    H127156   3.254   6.707   2.501 -1.1731  0.4718  0.2503
 9064TIP3    H227157   3.352   6.803   2.564  0.2908 -0.5707 -0.3678
 9065TIP3   OH227158   2.318   2.940   0.102 -0.0933  0.6164  0.6513
 9065TIP3    H127159   2.226   2.948   0.074  0.1523 -0.3038 -0.4799
 9065TIP3    H227160   2.351   2.863   0.055  1.4663  1.3504  0.4740
 9066TIP3   OH227161   2.724   4.933   2.502 -0.3306  0.2603 -0.6392
 9066TIP3    H127162   2.737   4.847   2.462  1.1705  0.1053  0.1267
 9066TIP3    H227163   2.810   4.975   2.499 -0.8227  1.3665 -0.1318
 9067TIP3   OH227164   0.036   3.272   2.963 -0.0575  0.6459 -0.7439
 9067TIP3    H127165  -0.001   3.187   2.937  0.6839 -0.8573  2.5938
 9067TIP3    H227166  -0.032   3.335   2.941 -1.4295 -1.0333 -1.6350
 9068TIP3   OH227167   6.640   5.237   0.020 -0.1512  0.1329 -0.0149
 9068TIP3    H127168   6.692   5.279   0.089  0.8795 -1.0490 -0.0322
 9068TIP3    H227169   6.592   5.168   0.066  0.0159 -0.2222 -0.3747
 9069TIP3   OH227170   0.926   6.302   1.639 -0.5263 -0.0978 -0.0045
 9069TIP3    H127171   0.969   6.343   1.714 -1.8185 -1.2215  1.4146
 9069TIP3    H227172   0.943   6.208   1.650 -2.1467 -0.4314 -0.1697
 9070TIP3   OH227173   1.491   6.237   1.554 -0.0150 -0.5020 -0.4495
 9070TIP3    H127174   1.417   6.180   1.535  2.0682 -2.8852 -2.0094
 9070TIP3    H227175   1.551   6.182   1.604  1.7218  0.5618 -1.2855
 9071TIP3   OH227176   7.141   1.116   2.035 -0.0160  1.0893  0.0929
 9071TIP3    H127177   7.199   1.134   2.109 -0.7185  0.5422  0.8072
 9071TIP3    H227178   7.086   1.194   2.028 -1.4554  0.2906  1.6396
 9072TIP3   OH227179   2.415   4.585   4.602 -1.0020  0.0847  0.2398
 9072TIP3    H127180   2.437   4.531   4.526  2.4630  1.8868 -0.2471
 9072TIP3    H227181   2.326   4.616   4.584 -1.1692 -1.3911 -1.9249
 9073TIP3   OH227182   0.815   2.958   5.551  0.0363  0.5293 -0.3730
 9073TIP3    H127183   0.893   2.967   5.496 -0.0258 -2.3724 -1.0930
 9073TIP3    H227184   0.845   2.977   5.639  1.7814 -1.1929 -0.5457
 9074TIP3   OH227185   5.700   3.065   2.935 -0.0143  0.3106  0.0632
 9074TIP3    H127186   5.767   2.997   2.920 -0.7268 -0.5050  0.4967
 9074TIP3    H227187   5.725   3.136   2.876 -0.3690 -1.1210 -1.9190
 9075TIP3   OH227188   4.876   2.919   2.200 -0.1464 -0.5855 -0.0372
 9075TIP3    H127189   4.921   2.940   2.282 -1.6623 -0.7081  0.8544
 9075TIP3    H227190   4.860   2.825   2.205  1.6460 -1.0264 -1.4841
 9076TIP3   OH227191   2.868   3.861   4.844  0.0320 -0.0592  0.1395
 9076TIP3    H127192   2.853   3.939   4.790  1.1085  0.7264  0.9441
 9076TIP3    H227193   2.784   3.844   4.886 -0.0197  1.1371  0.5493
 9077TIP3   OH227194   4.499   3.732   4.048 -0.2989 -1.1101 -1.2303
 9077TIP3    H127195   4.516   3.734   3.954 -0.1415  0.4758 -1.1918
 9077TIP3    H227196   4.583   3.710   4.088  0.3503  0.9740 -1.3439
 9078TIP3   OH227197   1.141   2.631   5.000 -0.5291 -0.1552 -0.0560
 9078TIP3    H127198   1.212   2.665   4.946 -0.5389 -1.9290 -1.2840
 9078TIP3    H227199   1.181   2.617   5.086  0.0590  0.7162 -0.1723
 9079TIP3   OH227200   4.053   6.569   1.050  0.1101 -0.1286 -0.0632
 9079TIP3    H127201   4.116   6.597   1.117 -0.3856  0.6196  0.1051
 9079TIP3    H227202   4.080   6.480   1.027 -0.3382 -0.8432  1.9140
 9080TIP3   OH227203   5.328   2.519   3.965  0.1256  0.0475 -0.5302
 9080TIP3    H127204   5.366   2.502   3.879 -0.6327  1.5541 -1.1955
 9080TIP3    H227205   5.262   2.450   3.976  0.6337 -0.5043 -0.8895
 9081TIP3   OH227206   4.370   6.637   2.101  0.7743 -0.1323  0.4329
 9081TIP3    H127207   4.380   6.544   2.079  1.1647  0.0876 -0.3656
 9081TIP3    H227208   4.286   6.662   2.062  1.3195  0.1794 -0.5911
 9082TIP3   OH227209   4.331   0.352   4.830  0.3255  0.3335  0.0031
 9082TIP3    H127210   4.366   0.349   4.919  0.5053 -0.0144 -0.0797
 9082TIP3    H227211   4.405   0.332   4.774 -0.4631 -2.9002 -0.0574
 9083TIP3   OH227212   0.288   6.014   4.205 -0.1827 -0.2431  0.0748
 9083TIP3    H127213   0.377   6.005   4.238 -0.6261 -0.8012  1.1711
 9083TIP3    H227214   0.279   5.945   4.139  0.5437  0.5507 -0.8907
 9084TIP3   OH227215   6.906   1.476   1.522 -0.6242 -0.1176  0.1017
 9084TIP3    H127216   6.975   1.471   1.456 -0.7725  0.6309 -0.1157
 9084TIP3    H227217   6.953   1.482   1.605 -0.4377 -0.3700  0.0173
 9085TIP3   OH227218   2.986   5.970   3.733  0.1395  0.4186 -0.2869
 9085TIP3    H127219   3.022   6.045   3.780 -0.3579  1.2929 -1.2467
 9085TIP3    H227220   2.981   5.999   3.642 -0.3205 -0.6876 -0.6318
 9086TIP3   OH227221   1.507   2.307   0.183 -0.6787 -0.5920 -0.2745
 9086TIP3    H127222   1.456   2.355   0.118 -1.9789  2.3248  2.6284
 9086TIP3    H227223   1.443   2.251   0.226 -0.7000  0.3232  0.9316
 9087TIP3   OH227224   5.621   3.412   2.637  0.2330 -0.5012  0.2349
 9087TIP3    H127225   5.545   3.357   2.621 -0.4499  0.3040  0.6137
 9087TIP3    H227226   5.661   3.423   2.551 -0.2275 -0.7234 -0.0139
 9088TIP3   OH227227   1.453   5.883   2.991  0.1532 -0.1753 -0.2056
 9088TIP3    H127228   1.534   5.842   2.959  1.0615  1.2087  0.2476
 9088TIP3    H227229   1.480   5.970   3.020 -1.4542  0.1949  0.2604
 9089TIP3   OH227230   4.491   0.885   5.853 -0.2253  0.1645 -0.2175
 9089TIP3    H127231   4.441   0.936   5.790  0.7118  3.2934  1.3906
 9089TIP3    H227232   4.428   0.863   5.922 -0.6557 -1.0954 -0.9655
 9090TIP3   OH227233   6.626   5.956   4.461  0.6599  0.2867  0.3266
 9090TIP3    H127234   6.667   5.874   4.490  3.0757  1.3296  0.0492
 9090TIP3    H227235   6.596   5.997   4.542  2.2752  0.5506  0.8229
 9091TIP3   OH227236   5.759   6.738   2.053 -0.3224  0.3258 -0.0132
 9091TIP3    H127237   5.741   6.739   2.147  0.0760  0.2775  0.0631
 9091TIP3    H227238   5.817   6.664   2.040  1.0409  1.3563 -0.0246
 9092TIP3   OH227239   1.186   2.083   2.938  0.4781 -0.2622  0.1721
 9092TIP3    H127240   1.206   2.029   2.861 -0.1516  0.3986 -0.4786
 9092TIP3    H227241   1.095   2.111   2.925  0.3592 -0.1463  1.1674
 9093TIP3   OH227242   4.983   5.444   2.205  0.9125 -0.0752 -0.1540
 9093TIP3    H127243   5.022   5.357   2.217  0.7995  0.0016  0.8003
 9093TIP3    H227244   5.046   5.505   2.243  0.1212  0.0911  0.9352
 9094TIP3   OH227245   5.036   3.815   3.910  0.0296  0.1088 -0.0040
 9094TIP3    H127246   5.056   3.790   3.820 -0.4853  0.0444 -0.1018
 9094TIP3    H227247   5.117   3.796   3.959  0.2133 -0.1236 -0.3947
 9095TIP3   OH227248   6.549   1.838   0.033  0.5221  0.1205 -0.5929
 9095TIP3    H127249   6.583   1.842   0.122 -1.5997  0.6380  0.2684
 9095TIP3    H227250   6.485   1.909   0.029 -1.7360 -1.8108 -1.4495
 9096TIP3   OH227251   5.952   3.621   0.687 -0.0303 -0.1129  0.0025
 9096TIP3    H127252   5.990   3.652   0.605 -0.5899  2.4492  0.6286
 9096TIP3    H227253   5.867   3.664   0.692 -0.0365 -0.2570  1.8954
 9097TIP3   OH227254   6.912   2.973   5.499 -0.7283  0.1232  0.1446
 9097TIP3    H127255   6.835   2.916   5.487 -0.2439 -0.7567  1.1378
 9097TIP3    H227256   6.982   2.928   5.451 -1.2982  2.1161 -2.8585
 9098TIP3   OH227257   1.359   4.785   1.160 -0.9099  0.0762 -0.0268
 9098TIP3    H127258   1.311   4.812   1.239 -0.8517  0.8469 -0.2444
 9098TIP3    H227259   1.409   4.709   1.187 -0.8237  0.3882  0.7145
 9099TIP3   OH227260   5.629   6.705   2.737 -0.1519  0.2082  0.0619
 9099TIP3    H127261   5.690   6.734   2.806  1.3186  0.3405 -1.2482
 9099TIP3    H227262   5.655   6.755   2.660 -2.5153  0.9032 -0.3481
 9100TIP3   OH227263   5.702   2.705   0.983 -0.5229  0.1817  0.3670
 9100TIP3    H127264   5.684   2.774   1.047 -0.1615  2.2787 -1.6414
 9100TIP3    H227265   5.742   2.751   0.909 -1.8999 -1.8788 -1.8226
 9101TIP3   OH227266   4.359   4.598   2.771 -0.5746  0.8551  0.1815
 9101TIP3    H127267   4.368   4.502   2.772  0.0167  0.9076  0.6673
 9101TIP3    H227268   4.267   4.613   2.754 -0.5549  0.2041 -0.5773
 9102TIP3   OH227269   1.527   2.793   5.654  0.3220 -0.3570  0.0775
 9102TIP3    H127270   1.476   2.790   5.573 -0.3798 -0.1193  0.5107
 9102TIP3    H227271   1.471   2.838   5.717  0.7861 -0.7068  0.7549
 9103TIP3   OH227272   2.816   5.314   3.104  0.2455  0.0609 -0.0926
 9103TIP3    H127273   2.854   5.400   3.121  0.2706  0.2196 -0.9268
 9103TIP3    H227274   2.852   5.258   3.173  0.1800  0.7232  0.4962
 9104TIP3   OH227275   6.104   0.300   0.578 -0.1305 -0.1218  0.4003
 9104TIP3    H127276   6.127   0.229   0.638  0.3823 -0.5449 -0.2816
 9104TIP3    H227277   6.163   0.288   0.503 -0.5554  0.5760 -0.0556
 9105TIP3   OH227278   6.180   0.412   5.542 -0.1625 -0.2651 -0.5423
 9105TIP3    H127279   6.202   0.342   5.481 -0.2251 -1.5815  0.8865
 9105TIP3    H227280   6.105   0.456   5.501  0.3028 -0.5890 -1.7866
 9106TIP3   OH227281   3.170   5.332   1.153 -0.1827  0.2063  0.2757
 9106TIP3    H127282   3.128   5.265   1.098 -1.0718  0.9666  0.0090
 9106TIP3    H227283   3.134   5.316   1.241 -0.3206  0.2821  0.2323
 9107TIP3   OH227284   3.901   0.275   3.686  0.1064 -0.1236  0.3789
 9107TIP3    H127285   3.994   0.257   3.700  0.3478  1.5568  1.1831
 9107TIP3    H227286   3.864   0.279   3.774 -0.6953 -0.5761  0.0688
 9108TIP3   OH227287   3.846   6.380   0.322 -0.0198 -0.1867  0.3166
 9108TIP3    H127288   3.928   6.348   0.359  0.0296  0.4505  0.7784
 9108TIP3    H227289   3.872   6.420   0.239  0.2781  0.7467  0.8374
 9109TIP3   OH227290   3.018   1.071   2.948  0.0811 -0.3692  0.4344
 9109TIP3    H127291   3.108   1.052   2.973  0.3225 -1.3917 -1.0610
 9109TIP3    H227292   3.019   1.070   2.852 -1.5317 -0.4234  0.3893
 9110TIP3   OH227293   4.075   6.023   4.458  0.2526  0.7870 -0.6086
 9110TIP3    H127294   3.995   5.998   4.505 -0.5310  1.0070 -1.7810
 9110TIP3    H227295   4.131   5.946   4.462 -1.1389 -0.3756 -2.0861
 9111TIP3   OH227296   7.006   5.962   3.784  0.3278  0.1638 -0.4048
 9111TIP3    H127297   6.975   5.945   3.874  0.3959  0.1527 -0.3838
 9111TIP3    H227298   6.927   5.956   3.731  0.1227  1.0673 -0.2329
 9112TIP3   OH227299   5.240   0.751   2.967 -0.1738  0.4773 -0.3227
 9112TIP3    H127300   5.311   0.711   3.017 -1.2594 -3.9169 -1.8163
 9112TIP3    H227301   5.196   0.809   3.029  1.0481 -1.4327  2.5337
 9113TIP3   OH227302   7.050   6.169   1.910  0.1069 -0.1217 -0.3511
 9113TIP3    H127303   7.015   6.081   1.901  0.3834 -0.4758  1.6054
 9113TIP3    H227304   7.089   6.188   1.824 -2.3067 -0.8005 -1.6958
 9114TIP3   OH227305   1.439   3.182   3.015  0.1009 -0.6675  0.3691
 9114TIP3    H127306   1.439   3.125   3.091  0.4130 -2.7474 -1.1185
 9114TIP3    H227307   1.511   3.244   3.031 -0.9254  0.0761  2.4888
 9115TIP3   OH227308   5.354   3.622   0.144 -0.1534  0.5023  0.9287
 9115TIP3    H127309   5.421   3.632   0.212 -0.4231 -1.1595  1.4850
 9115TIP3    H227310   5.345   3.528   0.134 -0.5372  0.7131 -1.0417
 9116TIP3   OH227311   1.583   6.153   4.453  0.0977  0.1042  0.1887
 9116TIP3    H127312   1.621   6.241   4.442  0.5607 -0.0903  0.1969
 9116TIP3    H227313   1.560   6.149   4.546  4.2939 -1.3894  1.3884
 9117TIP3   OH227314   2.639   6.197   0.068 -0.6530 -0.0786  0.7820
 9117TIP3    H127315   2.731   6.173   0.052 -0.5254 -1.5196  3.2462
 9117TIP3    H227316   2.617   6.255  -0.005  1.2242 -2.2044 -1.7070
 9118TIP3   OH227317   1.815   2.960   0.513 -0.0109  0.2674  0.0645
 9118TIP3    H127318   1.839   2.920   0.429 -2.0167  0.9597 -0.9114
 9118TIP3    H227319   1.747   2.904   0.548 -0.2826  0.8344  0.4563
 9119TIP3   OH227320   4.741   0.338   5.302 -0.2893  0.1139 -0.5975
 9119TIP3    H127321   4.661   0.331   5.354 -0.0010 -1.5414 -0.3297
 9119TIP3    H227322   4.711   0.371   5.217 -1.0903  0.5785 -0.1532
 9120TIP3   OH227323   3.189   3.290   4.754  0.2170  0.0960 -0.0564
 9120TIP3    H127324   3.152   3.311   4.840 -0.8206  0.0643 -0.4763
 9120TIP3    H227325   3.139   3.345   4.693  1.0949  0.2879 -0.6267
 9121TIP3   OH227326   3.339   0.703   5.714 -0.0495 -0.5137  0.0509
 9121TIP3    H127327   3.408   0.664   5.768 -0.9201 -0.1839  1.4565
 9121TIP3    H227328   3.271   0.636   5.710  0.0896 -0.6144 -0.8389
 9122TIP3   OH227329   6.075   2.070   2.240  0.5310  0.1572  0.2130
 9122TIP3    H127330   6.083   1.979   2.267 -0.7684 -0.3802 -1.0916
 9122TIP3    H227331   5.990   2.098   2.276  0.9464  0.8850  0.6566
 9123TIP3   OH227332   1.541   4.968   5.178 -0.0512  0.8017 -0.0979
 9123TIP3    H127333   1.480   5.026   5.222 -1.9256  0.1877 -1.7643
 9123TIP3    H227334   1.487   4.912   5.123  1.8933 -0.8281 -0.5029
 9124TIP3   OH227335   4.334   1.194   0.998  0.1564  0.0374 -0.3056
 9124TIP3    H127336   4.277   1.152   0.934 -1.2048  0.1117  0.8046
 9124TIP3    H227337   4.340   1.131   1.070 -0.3207  0.9055  0.5265
 9125TIP3   OH227338   6.352   3.168   1.762  0.3364  0.4801  0.4307
 9125TIP3    H127339   6.339   3.126   1.677  0.6606  1.2917 -0.0320
 9125TIP3    H227340   6.440   3.205   1.758  0.4491  0.3318  1.2130
 9126TIP3   OH227341   5.320   2.892   4.894  0.4178  1.2359 -0.3649
 9126TIP3    H127342   5.414   2.880   4.905  0.2521  1.6865  2.1203
 9126TIP3    H227343   5.309   2.985   4.877  0.3520  1.4362  0.7207
 9127TIP3   OH227344   4.430   0.831   0.250 -0.9752  0.0388  0.1325
 9127TIP3    H127345   4.480   0.776   0.190 -1.7692  0.2667 -0.7476
 9127TIP3    H227346   4.389   0.897   0.195  0.4981  1.9802  1.2308
 9128TIP3   OH227347   1.564   4.543   0.311 -0.4529 -0.1575  0.0456
 9128TIP3    H127348   1.651   4.539   0.271 -0.3423 -0.4842  0.3186
 9128TIP3    H227349   1.538   4.635   0.302 -0.4129 -0.2164 -0.7323
 9129TIP3   OH227350   0.842   0.994   4.140  0.1405 -0.2756 -0.4350
 9129TIP3    H127351   0.931   1.029   4.134  0.3495 -0.5385  0.7820
 9129TIP3    H227352   0.851   0.901   4.124  0.0536 -0.2616 -0.5617
 9130TIP3   OH227353   2.649   0.350   5.474 -0.4162  0.3878 -0.5658
 9130TIP3    H127354   2.673   0.258   5.468 -2.3631 -0.2788  0.7443
 9130TIP3    H227355   2.703   0.384   5.546 -0.3770  0.0084 -0.4123
 9131TIP3   OH227356   7.121   5.270   4.965 -0.1562 -0.4056 -0.3398
 9131TIP3    H127357   7.030   5.265   4.934 -0.0148 -1.3504 -0.6601
 9131TIP3    H227358   7.144   5.179   4.987  0.4954 -0.0788  0.3827
 9132TIP3   OH227359   4.330   3.522   3.911  0.3022 -0.4850  0.5584
 9132TIP3    H127360   4.417   3.541   3.876 -0.2696  0.3512 -0.4914
 9132TIP3    H227361   4.286   3.475   3.840 -0.3008 -0.3515  0.8396
 9133TIP3   OH227362   0.867   1.652   4.518 -0.2815 -0.2525 -0.2138
 9133TIP3    H127363   0.828   1.646   4.430  1.8678  0.4938 -1.2843
 9133TIP3    H227364   0.891   1.562   4.539 -1.9685 -0.6413  0.2260
 9134TIP3   OH227365   5.508   4.246   4.518  0.0467  0.1001  0.6181
 9134TIP3    H127366   5.519   4.189   4.442 -2.3760 -0.3841  0.5554
 9134TIP3    H227367   5.477   4.188   4.588  1.1487  0.7356  1.6847
 9135TIP3   OH227368   3.514   5.703   0.426 -0.2128 -0.1499  0.0870
 9135TIP3    H127369   3.449   5.668   0.365  0.4715  0.1117 -0.8297
 9135TIP3    H227370   3.465   5.761   0.483 -0.3847  2.9515 -2.8535
 9136TIP3   OH227371   4.726   2.547   4.321 -0.5489 -0.7637  0.0876
 9136TIP3    H127372   4.677   2.621   4.357  0.0320 -0.8491  1.0690
 9136TIP3    H227373   4.729   2.565   4.227  0.7962  1.2189  0.4418
 9137TIP3   OH227374   6.831   6.306   1.219  0.6426 -0.2689 -0.0855
 9137TIP3    H127375   6.901   6.346   1.168  0.4847  2.3095  1.5496
 9137TIP3    H227376   6.874   6.273   1.298  0.3076 -0.6215 -0.0447
 9138TIP3   OH227377   2.001   4.094   0.910 -0.4873  0.3701 -0.2721
 9138TIP3    H127378   2.090   4.130   0.920 -0.3418 -0.3473  1.4272
 9138TIP3    H227379   1.978   4.065   0.998 -1.3963 -1.8426 -1.1719
 9139TIP3   OH227380   2.318   1.951   4.816 -0.2498 -0.7212  0.4898
 9139TIP3    H127381   2.328   2.015   4.887 -0.3555 -0.4465  0.2618
 9139TIP3    H227382   2.311   1.867   4.861  0.7215 -0.6686  0.7520
 9140TIP3   OH227383   1.685   3.195   3.438  0.1516  0.0210 -0.3800
 9140TIP3    H127384   1.616   3.251   3.471 -1.1757 -1.6842 -0.1034
 9140TIP3    H227385   1.664   3.180   3.346  0.2441 -0.3534 -0.3456
 9141TIP3   OH227386   0.485   2.477   3.685  0.7410  0.0965  0.1033
 9141TIP3    H127387   0.504   2.449   3.596 -1.1090 -0.2597 -0.2282
 9141TIP3    H227388   0.467   2.571   3.678  1.3616  0.2251  0.2348
 9142TIP3   OH227389   6.658   3.517   4.605  0.1713  0.1712  0.2663
 9142TIP3    H127390   6.594   3.526   4.676 -0.4488  0.4068 -0.3084
 9142TIP3    H227391   6.673   3.606   4.574  1.5962  0.2407  1.0770
 9143TIP3   OH227392   1.332   6.308   3.588  0.1694 -0.3667 -0.0469
 9143TIP3    H127393   1.303   6.366   3.518 -0.7853 -0.4838  0.2272
 9143TIP3    H227394   1.422   6.335   3.607 -1.0981  2.9874  2.0511
 9144TIP3   OH227395   5.579   6.784   1.509  0.4432 -0.3256 -0.2494
 9144TIP3    H127396   5.603   6.723   1.580 -0.1868 -0.9678 -0.5796
 9144TIP3    H227397   5.643   6.766   1.440  0.0353 -0.8811 -0.4894
 9145TIP3   OH227398   5.411   6.551   5.387 -0.1777 -0.6188 -0.4937
 9145TIP3    H127399   5.421   6.467   5.430  1.1209  0.1015  0.6826
 9145TIP3    H227400   5.492   6.562   5.337  0.7533  0.9246  1.2315
 9146TIP3   OH227401   6.339   2.929   2.549  0.1981  0.2486  0.0732
 9146TIP3    H127402   6.428   2.936   2.585  1.1830 -1.6630 -1.7993
 9146TIP3    H227403   6.341   2.981   2.469 -0.5725  0.6785  0.3241
 9147TIP3   OH227404   1.904   0.148   0.958 -0.2820 -0.1452  0.5630
 9147TIP3    H127405   1.903   0.241   0.934  1.1595 -0.2315  0.0798
 9147TIP3    H227406   1.884   0.102   0.876  0.2228 -0.2989  0.5255
 9148TIP3   OH227407   2.368   6.349   2.593  0.2492  0.2286 -0.0325
 9148TIP3    H127408   2.447   6.333   2.541  0.5471  1.8849 -0.1270
 9148TIP3    H227409   2.392   6.420   2.652 -0.5042 -0.7139  1.4934
 9149TIP3   OH227410   6.860   0.668   1.587  0.0063  0.2272 -0.2792
 9149TIP3    H127411   6.917   0.636   1.656  0.4361 -0.0046 -0.7322
 9149TIP3    H227412   6.918   0.711   1.525 -0.4885  1.3115 -0.0210
 9150TIP3   OH227413   4.417   4.652   4.830  0.2505 -0.1016  0.0104
 9150TIP3    H127414   4.427   4.679   4.921  1.9426 -0.7052  0.0413
 9150TIP3    H227415   4.353   4.581   4.832  0.4134 -0.2328  0.7511
 9151TIP3   OH227416   0.745   1.236   4.319  0.1772  0.3441 -1.0753
 9151TIP3    H127417   0.742   1.152   4.274 -0.8796  0.2477 -0.8447
 9151TIP3    H227418   0.666   1.282   4.290  0.3472  0.9472 -0.6047
 9152TIP3   OH227419   6.321   2.933   5.312  0.1184 -0.0696 -0.1877
 9152TIP3    H127420   6.377   2.979   5.374  1.2496 -0.5875 -0.7903
 9152TIP3    H227421   6.341   2.840   5.325 -1.9496 -0.4221  0.8437
 9153TIP3   OH227422   7.011   6.571   4.240 -0.2130  0.2742  0.6573
 9153TIP3    H127423   6.916   6.561   4.233 -0.3765 -0.2118  3.0188
 9153TIP3    H227424   7.031   6.561   4.333  2.2584 -0.4392  0.1436
 9154TIP3   OH227425   1.750   4.763   0.208 -0.2004  0.1509 -0.1131
 9154TIP3    H127426   1.778   4.709   0.282  0.9162  0.9087  0.0346
 9154TIP3    H227427   1.696   4.831   0.247  0.7000  0.7742  0.0727
 9155TIP3   OH227428   2.193   0.534   0.978 -0.3478  0.0350  0.5088
 9155TIP3    H127429   2.121   0.538   1.041 -1.3086  1.0729 -0.5932
 9155TIP3    H227430   2.163   0.587   0.905  2.4722  2.4276  0.9225
 9156TIP3   OH227431   4.381   0.296   1.233 -0.5003  0.3865 -0.1333
 9156TIP3    H127432   4.335   0.353   1.295 -0.3830 -0.6126  0.9119
 9156TIP3    H227433   4.381   0.210   1.276  1.0481  0.0397 -0.7718
 9157TIP3   OH227434   0.297   3.095   1.550  0.4969  0.2661 -0.5878
 9157TIP3    H127435   0.345   3.143   1.618  0.8143 -0.4170 -0.3217
 9157TIP3    H227436   0.340   3.010   1.546 -1.4509 -0.8395  0.5484
 9158TIP3   OH227437   6.650   1.546   3.605  0.4160 -0.1037  0.1112
 9158TIP3    H127438   6.742   1.545   3.631 -0.0612  1.2438  2.0484
 9158TIP3    H227439   6.632   1.638   3.584 -0.7052 -0.1909  0.6176
 9159TIP3   OH227440   2.836   6.211   0.687 -0.0935  0.4830  0.0470
 9159TIP3    H127441   2.869   6.129   0.650  2.9618  1.8770 -0.5811
 9159TIP3    H227442   2.817   6.190   0.779 -0.3691 -1.1432 -0.3467
 9160TIP3   OH227443   6.770   6.620   2.292  0.3784  0.3488 -0.6453
 9160TIP3    H127444   6.807   6.681   2.227  0.3834  0.8035 -0.2211
 9160TIP3    H227445   6.846   6.588   2.340  0.2987  0.6412 -0.3240
 9161TIP3   OH227446   6.827   3.098   4.898  0.1026  0.4507  0.1470
 9161TIP3    H127447   6.747   3.071   4.851  0.1675 -0.9725  0.8157
 9161TIP3    H227448   6.822   3.194   4.899 -1.1782  0.4223 -0.5397
 9162TIP3   OH227449   0.747   2.751   1.395  0.1316  0.1340  0.5607
 9162TIP3    H127450   0.756   2.758   1.490 -1.6555  0.4430  0.7507
 9162TIP3    H227451   0.798   2.824   1.361  2.4317 -1.1212  1.1247
 9163TIP3   OH227452   1.352   4.039   4.718  0.9917 -0.4434 -0.1595
 9163TIP3    H127453   1.357   4.075   4.807  0.8654 -2.5282  0.7386
 9163TIP3    H227454   1.439   4.003   4.701  0.8132 -0.6843 -0.5978
 9164TIP3   OH227455   5.672   1.644   1.962 -0.3370  0.2630  0.3883
 9164TIP3    H127456   5.624   1.562   1.951 -1.5814  0.7535  1.8886
 9164TIP3    H227457   5.606   1.707   1.991  0.2795  2.2233 -2.1348
 9165TIP3   OH227458   0.852   5.363   4.603 -0.6088  0.1733 -0.0852
 9165TIP3    H127459   0.880   5.293   4.544 -1.3872  1.7900 -2.5313
 9165TIP3    H227460   0.933   5.405   4.631 -0.2282 -0.6295  0.0426
 9166TIP3   OH227461   5.438   6.314   5.516  0.5601 -0.1514  0.0090
 9166TIP3    H127462   5.379   6.317   5.591  1.3280  2.7387  0.6097
 9166TIP3    H227463   5.392   6.262   5.451 -0.8934 -1.2639  1.8272
 9167TIP3   OH227464   0.054   0.557   4.939  0.1350  0.4711  0.1385
 9167TIP3    H127465   0.146   0.580   4.943  0.5276 -0.6998 -1.3707
 9167TIP3    H227466   0.009   0.637   4.911  0.9368  0.5451 -0.9894
 9168TIP3   OH227467   6.222   4.844   0.993 -0.7000  0.0665  0.2111
 9168TIP3    H127468   6.265   4.910   1.047  0.6354 -0.4169 -0.1994
 9168TIP3    H227469   6.217   4.766   1.049  0.7717 -0.4642 -0.3317
 9169TIP3   OH227470   0.697   4.539   5.168  0.2050  0.2044  0.7743
 9169TIP3    H127471   0.648   4.615   5.198  0.0637  0.1245  0.7464
 9169TIP3    H227472   0.750   4.513   5.244  0.9319  0.8731  0.5104
 9170TIP3   OH227473   2.682   0.120   0.301 -0.4019  0.4824  0.5050
 9170TIP3    H127474   2.670   0.211   0.329 -0.3467  0.3881  0.8417
 9170TIP3    H227475   2.691   0.125   0.206  1.6754  1.0648  0.6833
 9171TIP3   OH227476   4.022   3.656   0.585 -0.3097  0.0970  0.1982
 9171TIP3    H127477   4.032   3.614   0.670 -0.8115 -1.7063 -0.5750
 9171TIP3    H227478   4.111   3.679   0.558 -0.2182  1.4901  1.5466
 9172TIP3   OH227479   5.567   3.119   0.570 -0.3912  0.3084  0.2894
 9172TIP3    H127480   5.640   3.126   0.508 -1.3326  0.5383 -0.8204
 9172TIP3    H227481   5.490   3.146   0.520 -1.2506  0.0622  1.4366
 9173TIP3   OH227482   3.376   4.795   4.993 -0.1503 -0.2476  0.1849
 9173TIP3    H127483   3.341   4.883   5.010  0.2018 -0.1821  0.5766
 9173TIP3    H227484   3.338   4.771   4.908  0.5441  0.7094 -0.4298
 9174TIP3   OH227485   2.916   1.381   4.687  0.3691  0.0741 -0.3349
 9174TIP3    H127486   2.915   1.313   4.753  0.1860 -0.5071 -0.9276
 9174TIP3    H227487   2.999   1.428   4.702  1.4278 -1.4554 -1.0797
 9175TIP3   OH227488   7.150   3.841   4.885 -0.0703 -0.4586 -0.1452
 9175TIP3    H127489   7.075   3.845   4.945 -0.7026 -0.1195 -0.9429
 9175TIP3    H227490   7.190   3.756   4.901 -0.0713 -0.2771  0.9370
 9176TIP3   OH227491   5.831   0.771   4.454  0.3668 -0.4422  0.0501
 9176TIP3    H127492   5.762   0.796   4.516  0.8154  0.8236  0.0658
 9176TIP3    H227493   5.911   0.810   4.490  1.2240 -2.3568  0.3230
 9177TIP3   OH227494   5.239   0.776   4.313 -0.4816  0.4907 -0.4440
 9177TIP3    H127495   5.230   0.864   4.277  0.3331  0.9498  0.4468
 9177TIP3    H227496   5.323   0.745   4.278 -0.7509  0.0634 -0.7320
 9178TIP3   OH227497   1.067   4.648   1.047 -0.5155 -0.1670 -0.6657
 9178TIP3    H127498   1.000   4.674   0.984 -1.2836 -2.1039 -0.7078
 9178TIP3    H227499   1.019   4.631   1.128 -0.0243 -1.1422 -0.5645
 9179TIP3   OH227500   2.920   2.741   5.538 -0.3828 -0.6644  0.1614
 9179TIP3    H127501   3.015   2.731   5.539 -0.2676  0.4005  0.6790
 9179TIP3    H227502   2.898   2.775   5.624 -1.0387  0.7411 -0.5306
 9180TIP3   OH227503   0.015   0.561   1.283  0.4166  0.1329  0.0581
 9180TIP3    H127504   0.111   0.564   1.293  0.3922 -1.4846  1.2712
 9180TIP3    H227505  -0.011   0.484   1.334 -1.6826  1.3385  0.9081
 9181TIP3   OH227506   2.941   4.669   3.858 -0.0605 -0.3967 -0.3379
 9181TIP3    H127507   2.953   4.658   3.764 -0.0656  1.0662 -0.5308
 9181TIP3    H227508   2.853   4.636   3.875  0.1123 -1.0991 -0.7577
 9182TIP3   OH227509   1.345   5.754   2.273 -0.3859  0.2272  0.1532
 9182TIP3    H127510   1.259   5.712   2.269 -0.2645 -0.0433  0.3336
 9182TIP3    H227511   1.375   5.756   2.182 -1.0548  1.3254 -0.0637
 9183TIP3   OH227512   1.916   3.266   1.489  0.2285  0.3047 -0.7337
 9183TIP3    H127513   1.880   3.243   1.404 -0.8585 -1.1831  0.0789
 9183TIP3    H227514   2.010   3.254   1.479 -0.0449 -1.8633 -1.1908
 9184TIP3   OH227515   3.451   0.517   2.377  0.4371  0.5865  0.0603
 9184TIP3    H127516   3.395   0.442   2.357 -0.6689  1.6057 -0.8988
 9184TIP3    H227517   3.502   0.530   2.297  1.8874 -0.1696  0.8383
 9185TIP3   OH227518   5.979   2.909   4.450  0.2008 -0.1496  0.8220
 9185TIP3    H127519   5.914   2.968   4.489  0.3575  0.6736 -0.1324
 9185TIP3    H227520   5.926   2.845   4.402  0.0684  0.9694 -0.5963
 9186TIP3   OH227521   4.800   1.592   3.501  0.3909 -0.4011 -0.0553
 9186TIP3    H127522   4.811   1.566   3.409 -0.3924 -0.8737 -0.0294
 9186TIP3    H227523   4.707   1.611   3.509  0.5775  0.2996  0.4804
 9187TIP3   OH227524   1.229   4.275   2.658 -0.5693  0.0936 -0.6122
 9187TIP3    H127525   1.288   4.200   2.649  0.7914  0.7476  1.7761
 9187TIP3    H227526   1.272   4.345   2.610  0.9883  0.6831  1.4588
 9188TIP3   OH227527   6.423   0.158   5.892 -0.4260  0.3818 -0.3542
 9188TIP3    H127528   6.404   0.065   5.906 -0.0324  0.3092 -0.2867
 9188TIP3    H227529   6.360   0.186   5.825 -0.7315  0.1383 -0.1726
 9189TIP3   OH227530   3.621   3.303   4.516  0.3181  0.4920  0.2274
 9189TIP3    H127531   3.609   3.219   4.470  1.5108 -0.2099  1.1451
 9189TIP3    H227532   3.543   3.311   4.570  0.6429 -0.5590  0.8950
 9190TIP3   OH227533   2.449   3.482   4.836  0.1796  0.2896  0.1464
 9190TIP3    H127534   2.357   3.473   4.861  0.4789 -1.8923  0.6180
 9190TIP3    H227535   2.497   3.470   4.917  0.9023  1.7529 -0.0397
 9191TIP3   OH227536   4.717   3.786   0.006  0.0515  0.1053 -0.0754
 9191TIP3    H127537   4.763   3.805   0.087  1.9676  2.8830 -1.6702
 9191TIP3    H227538   4.742   3.696  -0.016 -0.2469 -0.5708  2.1780
 9192TIP3   OH227539   5.453   2.636   4.181  0.0373  0.1268 -0.0160
 9192TIP3    H127540   5.405   2.593   4.110 -1.4448 -1.3552  1.7981
 9192TIP3    H227541   5.445   2.577   4.255  0.2958  2.2712  1.8442
 9193TIP3   OH227542   6.186   2.884   2.747  0.3026 -0.2207 -0.1163
 9193TIP3    H127543   6.270   2.908   2.787 -0.8631  4.3123  0.2321
 9193TIP3    H227544   6.202   2.887   2.653  1.0011 -1.6809 -0.0570
 9194TIP3   OH227545   0.886   4.638   4.704 -0.0105 -0.4278 -0.3613
 9194TIP3    H127546   0.877   4.627   4.610  0.2289 -1.0906 -0.3072
 9194TIP3    H227547   0.857   4.728   4.720 -0.5237 -0.4768 -0.9965
 9195TIP3   OH227548   6.429   3.965   1.757  0.9374 -0.1785  0.2269
 9195TIP3    H127549   6.476   4.022   1.819  0.3193 -0.2198  0.7343
 9195TIP3    H227550   6.415   4.021   1.680  1.5181 -0.0650  0.1916
 9196TIP3   OH227551   3.285   0.341   4.950  0.2285  0.4774  0.3681
 9196TIP3    H127552   3.295   0.364   5.042 -1.8390  0.5538  0.6262
 9196TIP3    H227553   3.204   0.385   4.923 -0.7394 -1.7946 -0.6934
 9197TIP3   OH227554   0.306   1.954   5.626 -0.0172  0.1751  0.1193
 9197TIP3    H127555   0.231   1.983   5.573  0.1458  0.6434  0.1361
 9197TIP3    H227556   0.332   2.032   5.675 -1.1558 -0.6374  2.1304
 9198TIP3   OH227557   2.194   3.478   2.087  0.5011  0.1148  0.2242
 9198TIP3    H127558   2.278   3.522   2.094 -0.3247  1.7952 -0.0104
 9198TIP3    H227559   2.175   3.447   2.175  0.4821  1.4193  0.6889
 9199TIP3   OH227560   1.429   3.901   0.028  0.2015  0.2650 -0.0029
 9199TIP3    H127561   1.358   3.966   0.035 -0.0184 -0.1276  2.9643
 9199TIP3    H227562   1.384   3.818   0.017  0.1595  0.0654  1.4608
 9200TIP3   OH227563   7.048   4.728   5.814 -0.3369 -0.1281 -0.1927
 9200TIP3    H127564   7.037   4.723   5.719 -1.9554 -1.3696  0.0183
 9200TIP3    H227565   7.126   4.674   5.832 -0.5725 -0.6625 -0.7353
 9201TIP3   OH227566   6.868   6.082   1.072 -0.3573 -0.2802  0.0426
 9201TIP3    H127567   6.895   6.002   1.118 -0.6883 -0.4824 -0.1112
 9201TIP3    H227568   6.822   6.133   1.139  1.6458  0.7329  0.7111
 9202TIP3   OH227569   4.491   6.470   3.090  0.1348 -0.2138  0.3302
 9202TIP3    H127570   4.570   6.521   3.106 -0.4045  0.3338  1.3138
 9202TIP3    H227571   4.456   6.450   3.176 -0.4533 -1.0168 -0.0764
 9203TIP3   OH227572   0.759   5.111   5.777  0.2301  0.3386  0.1852
 9203TIP3    H127573   0.787   5.126   5.867  1.2114  2.1916 -0.3818
 9203TIP3    H227574   0.692   5.177   5.762  0.1819  0.1370 -0.5133
 9204TIP3   OH227575   1.299   3.535   3.029  0.4891  0.1714  0.5143
 9204TIP3    H127576   1.210   3.564   3.046  0.7169  1.1650  0.0730
 9204TIP3    H227577   1.312   3.551   2.935  0.5215 -1.6807  0.1477
 9205TIP3   OH227578   6.947   4.118   2.489 -0.0719  0.2291  0.1175
 9205TIP3    H127579   6.960   4.027   2.518  0.1680  0.7635  1.7695
 9205TIP3    H227580   6.921   4.110   2.397  2.1410 -1.3844 -0.4308
 9206TIP3   OH227581   3.708   2.496   5.816 -0.3523 -0.1979  0.2125
 9206TIP3    H127582   3.725   2.421   5.873 -0.5740  0.5254  1.2606
 9206TIP3    H227583   3.620   2.526   5.840  0.6137  1.8388  1.5467
 9207TIP3   OH227584   2.487   4.471   4.356  0.0183 -0.3984  0.4034
 9207TIP3    H127585   2.430   4.508   4.289  1.5348 -1.2130 -1.4541
 9207TIP3    H227586   2.493   4.378   4.333  4.1649  0.0632 -1.2954
 9208TIP3   OH227587   4.710   5.867   4.977  0.2417 -0.5532 -0.1402
 9208TIP3    H127588   4.627   5.861   5.024  0.6091  0.8061  0.7459
 9208TIP3    H227589   4.742   5.777   4.974 -0.9502 -1.0055  0.0724
 9209TIP3   OH227590   2.750   4.732   1.760 -0.5882  0.5702  0.2120
 9209TIP3    H127591   2.672   4.737   1.816  1.4025  1.3489  3.1344
 9209TIP3    H227592   2.805   4.805   1.788  2.2194 -1.2824 -0.0202
 9210TIP3   OH227593   1.044   3.989   0.254  0.3745  0.0702 -0.1771
 9210TIP3    H127594   0.994   3.951   0.326 -0.2387 -0.7588 -1.0180
 9210TIP3    H227595   1.096   3.916   0.220  0.4452  0.3798 -0.7432
 9211TIP3   OH227596   2.760   3.712   0.564  0.0959 -0.1676  0.4413
 9211TIP3    H127597   2.844   3.683   0.601  0.4778  0.1497 -0.1541
 9211TIP3    H227598   2.713   3.749   0.639  0.3671 -0.6125  0.8371
 9212TIP3   OH227599   2.596   1.551   5.293 -0.0023  0.5472 -0.3757
 9212TIP3    H127600   2.623   1.500   5.369  1.4880  0.5536 -0.8689
 9212TIP3    H227601   2.675   1.557   5.238 -1.0388  0.4826 -1.9601
 9213TIP3   OH227602   1.985   1.857   0.795 -0.1270 -0.0041 -0.4524
 9213TIP3    H127603   1.945   1.941   0.774 -0.5161 -0.2216 -0.6033
 9213TIP3    H227604   2.077   1.876   0.807 -0.2307  0.4607 -0.3867
 9214TIP3   OH227605   0.972   0.370   3.266  0.0325 -0.3053 -0.0514
 9214TIP3    H127606   1.019   0.289   3.244  2.1358  0.8101  0.1611
 9214TIP3    H227607   0.973   0.373   3.361  0.7143  0.3940 -0.0786
 9215TIP3   OH227608   5.306   1.695   2.400  0.4641  0.1921 -0.5507
 9215TIP3    H127609   5.219   1.709   2.363 -0.2519  0.8853  1.2997
 9215TIP3    H227610   5.335   1.612   2.362 -0.6392  0.3483 -1.8207
 9216TIP3   OH227611   4.973   3.078   4.581 -0.9325  0.3613 -0.1028
 9216TIP3    H127612   4.914   3.146   4.546  1.9363  2.4198 -1.3336
 9216TIP3    H227613   4.982   3.100   4.674 -0.2622  1.5783 -0.4277
 9217TIP3   OH227614   4.232   5.819   5.290  0.3837  0.0041  0.1284
 9217TIP3    H127615   4.232   5.775   5.205 -0.9530  1.5513 -0.7260
 9217TIP3    H227616   4.291   5.766   5.344 -0.5618 -2.4030 -1.0205
 9218TIP3   OH227617   3.479   5.502   4.333  0.1269 -0.4409  0.1581
 9218TIP3    H127618   3.408   5.545   4.286  0.2874 -0.5934 -0.2243
 9218TIP3    H227619   3.444   5.487   4.421 -0.4162 -0.7911 -0.1172
 9219TIP3   OH227620   2.177   5.273   5.557  0.2722 -0.4476  0.0071
 9219TIP3    H127621   2.195   5.206   5.623 -0.6033 -1.9181 -1.1669
 9219TIP3    H227622   2.258   5.324   5.553  0.9216 -1.3359  1.0627
 9220TIP3   OH227623   3.243   2.182   5.301 -0.3379  0.0794  0.1677
 9220TIP3    H127624   3.311   2.195   5.366  0.5132 -0.9722 -0.4781
 9220TIP3    H227625   3.163   2.166   5.352 -0.2499  1.8811  0.9220
 9221TIP3   OH227626   0.266   1.042   3.008  0.3200  0.6068 -0.0032
 9221TIP3    H127627   0.355   1.072   2.990  0.6326  1.0105  1.9149
 9221TIP3    H227628   0.273   1.000   3.094 -1.2874  0.4194  0.0573
 9222TIP3   OH227629   6.205   3.505   1.619 -0.1688  0.3179 -0.0091
 9222TIP3    H127630   6.171   3.427   1.663  0.2904 -0.6220 -1.2629
 9222TIP3    H227631   6.296   3.511   1.648 -0.7570  1.6420  1.7294
 9223TIP3   OH227632   2.350   4.785   3.436 -0.2944  0.0638  0.9013
 9223TIP3    H127633   2.261   4.759   3.412 -0.6482  0.9434  1.1905
 9223TIP3    H227634   2.368   4.861   3.380  0.5141 -0.4613  0.4235
 9224TIP3   OH227635   7.135   5.193   1.311  0.5986 -0.4347  0.0143
 9224TIP3    H127636   7.087   5.124   1.356  0.0672  0.2478  0.5177
 9224TIP3    H227637   7.210   5.211   1.368 -0.0138  0.3517  0.5957
 9225TIP3   OH227638   6.251   0.252   0.256  0.0751 -0.0047 -0.6143
 9225TIP3    H127639   6.165   0.215   0.271 -0.5714  0.7510 -2.1484
 9225TIP3    H227640   6.237   0.347   0.256  0.5497  0.1189 -2.4418
 9226TIP3   OH227641   6.962   1.921   2.030 -0.3922  0.3917 -0.5185
 9226TIP3    H127642   6.938   1.838   2.070  1.8662 -0.0890 -0.0417
 9226TIP3    H227643   6.923   1.917   1.942 -0.0004 -1.3316 -0.6397
 9227TIP3   OH227644   1.817   3.047   5.791  0.0181  0.4710 -0.6294
 9227TIP3    H127645   1.853   3.103   5.722 -0.7349  0.7927 -0.7737
 9227TIP3    H227646   1.813   3.104   5.868 -0.8767  0.6754 -0.8111
 9228TIP3   OH227647   1.940   5.081   4.939  0.8099 -0.2663  0.3557
 9228TIP3    H127648   1.898   5.078   5.025 -1.4041  0.9679 -0.6085
 9228TIP3    H227649   1.976   4.993   4.927  0.8108 -0.5784  2.3439
 9229TIP3   OH227650   6.751   6.429   4.201  0.3013  0.1904  0.5653
 9229TIP3    H127651   6.738   6.353   4.258 -0.0292 -0.3092 -0.1697
 9229TIP3    H227652   6.667   6.475   4.203  0.2873  0.1675  0.4620
 9230TIP3   OH227653   1.530   3.410   1.568 -0.4185 -0.8436 -0.2077
 9230TIP3    H127654   1.574   3.468   1.506 -0.1308 -1.2147 -0.3534
 9230TIP3    H227655   1.484   3.347   1.513 -1.4997 -0.2067 -0.0703
 9231TIP3   OH227656   6.314   1.361   3.020 -0.2343  0.1252  0.5909
 9231TIP3    H127657   6.340   1.328   3.107 -1.0636  0.3127  0.9147
 9231TIP3    H227658   6.322   1.456   3.028  1.1116  0.0853 -0.0090
 9232TIP3   OH227659   4.888   6.524   4.055 -0.0820  0.7033 -0.7517
 9232TIP3    H127660   4.793   6.518   4.055 -0.0266 -1.1588  1.1936
 9232TIP3    H227661   4.917   6.451   4.001  0.2259 -1.1720  1.7852
 9233TIP3   OH227662   0.789   4.517   1.777  0.4297 -0.3807 -0.0036
 9233TIP3    H127663   0.719   4.496   1.838 -0.2777  0.4888 -0.4790
 9233TIP3    H227664   0.806   4.435   1.731 -2.1838 -0.0678 -1.7552
 9234TIP3   OH227665   3.469   5.909   4.544  0.3658  0.0126 -0.7100
 9234TIP3    H127666   3.557   5.896   4.578  0.4023 -0.8241 -1.1095
 9234TIP3    H227667   3.425   5.961   4.612  0.8626 -0.4224 -0.0388
 9235TIP3   OH227668   6.689   0.999   0.672 -0.1689 -0.5734  0.3877
 9235TIP3    H127669   6.705   0.970   0.762 -1.8583  0.4384  1.0556
 9235TIP3    H227670   6.600   0.968   0.652  0.2405 -0.9471 -1.0292
 9236TIP3   OH227671   0.935   6.695   1.967 -0.1118  0.0760  0.0274
 9236TIP3    H127672   0.970   6.781   1.944 -0.7504  0.7597  1.4595
 9236TIP3    H227673   1.012   6.646   1.996  0.0133  0.8202  1.0201
 9237TIP3   OH227674   4.088   6.563   4.475 -0.0245 -0.1947 -0.4322
 9237TIP3    H127675   4.149   6.636   4.486  0.5068 -0.7336  0.3338
 9237TIP3    H227676   4.116   6.498   4.540 -1.8053 -0.1967  0.4038
 9238TIP3   OH227677   6.219   2.200   3.373 -0.0632  0.0121  0.4352
 9238TIP3    H127678   6.192   2.197   3.464 -0.5466 -1.3562  0.2712
 9238TIP3    H227679   6.218   2.109   3.345 -2.4757  0.5734 -1.6741
 9239TIP3   OH227680   1.834   0.251   4.644 -0.2581  0.1213  0.6401
 9239TIP3    H127681   1.836   0.215   4.732 -1.3834 -0.7483  0.3292
 9239TIP3    H227682   1.791   0.184   4.591 -0.5081  1.0515 -0.3788
 9240TIP3   OH227683   4.879   2.282   3.511  0.2286  0.1500  0.4141
 9240TIP3    H127684   4.945   2.227   3.554 -0.2823  1.3861  2.9760
 9240TIP3    H227685   4.838   2.225   3.446  1.0198 -1.9037  1.6388
 9241TIP3   OH227686   5.703   1.811   3.303  0.5367 -0.3777  0.0642
 9241TIP3    H127687   5.710   1.739   3.239  1.8833 -0.0741 -0.1691
 9241TIP3    H227688   5.778   1.867   3.284  1.4217 -0.6638  2.3929
 9242TIP3   OH227689   1.790   3.331   5.232  0.8821 -0.1353 -0.2338
 9242TIP3    H127690   1.871   3.371   5.264  0.4104 -0.7827  1.9053
 9242TIP3    H227691   1.799   3.238   5.253 -0.0379 -0.3711 -0.8296
 9243TIP3   OH227692   6.658   4.334   4.460 -0.4663 -0.5351  0.5031
 9243TIP3    H127693   6.567   4.309   4.441 -0.2177 -0.6083 -0.6353
 9243TIP3    H227694   6.711   4.278   4.404  0.1153  2.7862 -2.6080
 9244TIP3   OH227695   3.292   6.141   3.239 -0.2209  0.1640 -0.0222
 9244TIP3    H127696   3.206   6.109   3.211 -0.4370 -0.8870  1.7183
 9244TIP3    H227697   3.353   6.100   3.177 -0.9625  1.4297 -1.6786
 9245TIP3   OH227698   2.735   6.742   0.643 -0.1300  0.5952  0.6066
 9245TIP3    H127699   2.688   6.659   0.632  0.0858  0.7216 -1.6701
 9245TIP3    H227700   2.763   6.741   0.734  0.7145 -2.3003  0.4079
 9246TIP3   OH227701   3.635   4.115   5.488 -0.3268  0.2416  0.3954
 9246TIP3    H127702   3.728   4.094   5.481 -0.5206 -0.7985  0.7128
 9246TIP3    H227703   3.601   4.106   5.399 -0.6637 -2.2446  0.6959
 9247TIP3   OH227704   7.087   1.211   5.254 -0.2449  0.1631 -0.0658
 9247TIP3    H127705   7.149   1.192   5.324 -0.0010  1.6599  0.1704
 9247TIP3    H227706   7.001   1.201   5.295 -0.1237 -0.3115  0.0698
 9248TIP3   OH227707   6.401   0.326   4.284  0.4837  0.3998 -0.0734
 9248TIP3    H127708   6.310   0.353   4.274  0.1016 -0.4177  1.0083
 9248TIP3    H227709   6.437   0.385   4.350  0.6370  0.4908 -0.2373
 9249TIP3   OH227710   6.002   5.454   1.983  0.1306  0.0953 -0.0438
 9249TIP3    H127711   5.962   5.420   1.904 -3.0663  2.0690  0.5708
 9249TIP3    H227712   6.071   5.513   1.952  0.1219 -0.4920 -1.2443
 9250TIP3   OH227713   3.016   1.768   1.615 -0.0556 -0.0634  0.2296
 9250TIP3    H127714   3.096   1.819   1.622 -0.8756  1.0708  2.0488
 9250TIP3    H227715   2.978   1.770   1.703 -1.7359 -1.1544 -0.4090
 9251TIP3   OH227716   4.856   2.614   3.271  0.3916  0.2126  0.4408
 9251TIP3    H127717   4.826   2.523   3.265  1.7263 -0.3568  1.5918
 9251TIP3    H227718   4.934   2.609   3.326  1.2360  1.8932 -0.5146
 9252TIP3   OH227719   4.533   0.598   1.740  0.5665 -0.2438 -0.4573
 9252TIP3    H127720   4.481   0.555   1.809 -1.8285  0.8932 -1.4537
 9252TIP3    H227721   4.585   0.527   1.703 -0.7650 -1.6257  0.1592
 9253TIP3   OH227722   4.230   4.655   5.122 -0.7661  0.3798  0.2361
 9253TIP3    H127723   4.223   4.570   5.079 -2.1099 -0.8982  2.8067
 9253TIP3    H227724   4.317   4.655   5.162  0.5047  1.5882 -2.2946
 9254TIP3   OH227725   6.679   1.511   4.103 -0.0676  1.0451 -0.2244
 9254TIP3    H127726   6.608   1.454   4.132  0.4530  0.6623  0.3138
 9254TIP3    H227727   6.675   1.587   4.162  0.1567  0.8846 -0.0022
 9255TIP3   OH227728   3.911   2.514   4.516 -0.3767 -0.5582  0.1803
 9255TIP3    H127729   3.868   2.556   4.590  1.4616  1.1537  0.3662
 9255TIP3    H227730   3.869   2.553   4.439 -0.6159 -0.5122  0.3336
 9256TIP3   OH227731   4.760   2.237   4.139  0.2189 -0.7587 -0.2602
 9256TIP3    H127732   4.720   2.169   4.085 -1.1116 -0.8201  0.7638
 9256TIP3    H227733   4.747   2.318   4.089 -0.3189 -0.9170 -0.3810
 9257TIP3   OH227734   2.939   0.831   5.329 -0.1226  0.1666 -0.9052
 9257TIP3    H127735   2.909   0.774   5.258 -1.8847 -0.2878  0.1557
 9257TIP3    H227736   2.902   0.793   5.408  1.3130  1.0072  0.2138
 9258TIP3   OH227737   3.945   1.215   3.976  1.0989  0.2699 -0.0122
 9258TIP3    H127738   3.916   1.125   3.982 -0.7242  0.7657 -0.7122
 9258TIP3    H227739   3.974   1.225   3.885 -1.8353  1.1871 -0.9559
 9259TIP3   OH227740   1.153   1.656   4.248 -0.4018 -0.6062 -0.3212
 9259TIP3    H127741   1.231   1.686   4.202  0.5155 -2.3129  0.0615
 9259TIP3    H227742   1.179   1.649   4.340 -0.7390 -1.9368 -0.3018
 9260TIP3   OH227743   4.124   3.145   1.017 -0.2213  0.1253 -0.8283
 9260TIP3    H127744   4.034   3.126   1.044  0.0945  0.8017  0.8647
 9260TIP3    H227745   4.176   3.075   1.056  0.3275  1.4916  1.0869
 9261TIP3   OH227746   5.830   2.166   0.382  0.5485  0.3064  0.4389
 9261TIP3    H127747   5.753   2.134   0.430  0.3532 -4.5759 -2.4029
 9261TIP3    H227748   5.794   2.202   0.301  1.1582  0.5720  0.2830
 9262TIP3   OH227749   1.308   0.662   4.357 -0.0240  0.4172  0.1590
 9262TIP3    H127750   1.246   0.592   4.335 -1.6945  1.4894  1.2141
 9262TIP3    H227751   1.279   0.694   4.443  1.7170  1.2878  0.4624
 9263TIP3   OH227752   6.383   2.392   4.559  0.2059 -0.1723 -0.7698
 9263TIP3    H127753   6.374   2.355   4.471 -0.1987  1.1652 -1.3217
 9263TIP3    H227754   6.469   2.436   4.558  0.4827 -0.6908 -0.2776
 9264TIP3   OH227755   5.311   5.163   3.147  0.0405 -0.2263 -0.5339
 9264TIP3    H127756   5.312   5.069   3.131  0.4483 -0.0471 -1.6782
 9264TIP3    H227757   5.329   5.202   3.062  0.8232  0.8682  0.1001
 9265TIP3   OH227758   4.728   6.459   1.646  0.7933  0.0304 -0.4313
 9265TIP3    H127759   4.818   6.490   1.659  1.1598 -1.0579 -0.3260
 9265TIP3    H227760   4.679   6.498   1.718  1.3560 -0.0792  0.0178
 9266TIP3   OH227761   7.163   0.132   1.395  0.4726  0.0894 -0.1574
 9266TIP3    H127762   7.208   0.156   1.476  2.0346 -0.6797 -0.7505
 9266TIP3    H227763   7.115   0.211   1.370  0.1946  0.4325  1.3413
 9267TIP3   OH227764   3.444   5.797   4.893  0.2035 -0.1739 -0.0889
 9267TIP3    H127765   3.432   5.871   4.833  0.1383 -1.2783 -1.4857
 9267TIP3    H227766   3.415   5.830   4.978 -0.1949  1.2787 -0.7594
 9268TIP3   OH227767   4.728   3.850   0.323  0.7101  0.3482 -0.7607
 9268TIP3    H127768   4.812   3.896   0.330  1.2345 -0.7793  0.9138
 9268TIP3    H227769   4.681   3.873   0.403 -0.3378  0.4515 -1.3849
 9269TIP3   OH227770   0.228   0.469   3.252  0.5714  0.0263 -0.1832
 9269TIP3    H127771   0.143   0.475   3.296  0.2094 -0.9822 -0.7238
 9269TIP3    H227772   0.265   0.386   3.282  1.1537  0.2290 -0.3317
 9270TIP3   OH227773   5.812   1.218   1.994 -0.1724 -0.2958 -0.0415
 9270TIP3    H127774   5.832   1.143   1.938 -4.6865 -0.9788 -1.0910
 9270TIP3    H227775   5.876   1.284   1.968  1.9927 -2.6535 -1.2933
 9271TIP3   OH227776   7.171   6.258   1.697 -0.2639 -0.1270  0.0142
 9271TIP3    H127777   7.230   6.254   1.622 -0.9182  1.9545 -0.6808
 9271TIP3    H227778   7.211   6.324   1.755 -0.9982  0.0269  0.3584
 9272TIP3   OH227779   4.542   3.724   2.389  0.0634 -0.1347  0.0008
 9272TIP3    H127780   4.575   3.795   2.334 -0.4051  2.6042  2.9296
 9272TIP3    H227781   4.587   3.646   2.357  0.8208  1.4452 -3.2630
 9273TIP3   OH227782   0.922   6.163   3.341  0.3150 -0.0385  0.8292
 9273TIP3    H127783   0.888   6.129   3.258 -1.1444  1.7337  0.6256
 9273TIP3    H227784   0.932   6.086   3.396 -1.9048 -0.9386  0.0888
 9274TIP3   OH227785   2.457   0.887   4.415 -0.2515 -0.0527 -0.0586
 9274TIP3    H127786   2.513   0.842   4.352 -0.8366  0.8121 -1.2422
 9274TIP3    H227787   2.464   0.835   4.495  1.7415 -0.3016 -0.3478
 9275TIP3   OH227788   0.786   3.143   3.420  0.6798  0.2132 -0.0493
 9275TIP3    H127789   0.785   3.099   3.505  2.4528 -0.2487 -0.2509
 9275TIP3    H227790   0.728   3.219   3.432 -1.0329 -1.1744  0.8135
 9276TIP3   OH227791   0.880   5.370   1.720 -0.3665 -0.2454  0.9852
 9276TIP3    H127792   0.857   5.284   1.683  1.5335 -1.0378  1.5219
 9276TIP3    H227793   0.948   5.351   1.784  1.6922  1.8689 -0.3923
 9277TIP3   OH227794   5.252   1.337   1.029  0.0022  0.2876  0.0758
 9277TIP3    H127795   5.192   1.263   1.016  0.5200 -0.3867  1.2507
 9277TIP3    H227796   5.319   1.326   0.962 -0.9466  0.8109 -0.9819
 9278TIP3   OH227797   6.452   3.742   0.293 -0.3810  0.2306 -0.0353
 9278TIP3    H127798   6.539   3.712   0.269  0.4658  0.0190  2.8998
 9278TIP3    H227799   6.452   3.836   0.273  0.3028  0.1318 -0.5262
 9279TIP3   OH227800   3.747   2.299   0.371 -0.3225 -0.2993  0.7189
 9279TIP3    H127801   3.727   2.209   0.400 -0.5356 -0.2589  0.7042
 9279TIP3    H227802   3.662   2.344   0.376 -0.1522 -0.0110  1.0476
 9280TIP3   OH227803   0.587   2.432   3.415  0.3184 -0.2305  0.4521
 9280TIP3    H127804   0.644   2.491   3.365  0.4345 -0.6289  0.0990
 9280TIP3    H227805   0.636   2.350   3.419  0.6113  0.0033  1.8389
 9281TIP3   OH227806   3.542   4.100   2.334 -0.5586  0.3028 -0.0787
 9281TIP3    H127807   3.578   4.174   2.285  1.8354 -0.5158  0.3135
 9281TIP3    H227808   3.581   4.022   2.293 -1.3931 -0.6176  0.8002
 9282TIP3   OH227809   3.105   1.198   1.470 -0.1213 -0.5296 -0.2497
 9282TIP3    H127810   3.128   1.113   1.506  0.2225  0.7651  2.8494
 9282TIP3    H227811   3.030   1.227   1.522  0.0740  1.2713 -0.9116
 9283TIP3   OH227812   7.175   4.380   0.204  0.4076  0.7010 -0.2460
 9283TIP3    H127813   7.152   4.319   0.134  1.6383 -0.4168  0.2880
 9283TIP3    H227814   7.257   4.420   0.175  0.7421  0.4866  0.3881
 9284TIP3   OH227815   2.476   2.257   1.989  0.2692 -0.2405 -0.1567
 9284TIP3    H127816   2.447   2.191   1.925 -0.2839  0.7975 -1.0167
 9284TIP3    H227817   2.473   2.339   1.941  1.1725  0.3936  0.8326
 9285TIP3   OH227818   4.581   2.184   2.832 -0.2048 -0.3267  0.0042
 9285TIP3    H127819   4.537   2.152   2.753  2.4169  0.3642 -1.8599
 9285TIP3    H227820   4.581   2.279   2.822 -1.3359 -0.0902  1.7672
 9286TIP3   OH227821   4.150   1.461   2.525  0.0332  0.3742 -0.2815
 9286TIP3    H127822   4.149   1.443   2.431  1.1502 -2.6960  0.1761
 9286TIP3    H227823   4.091   1.396   2.562  0.7467  0.5541  1.2499
 9287TIP3   OH227824   4.156   5.462   2.239  0.2899 -0.2726  0.4140
 9287TIP3    H127825   4.126   5.450   2.149  0.7743  1.6458 -0.0489
 9287TIP3    H227826   4.251   5.473   2.231  0.5015 -1.2776  1.3069
 9288TIP3   OH227827   6.080   3.688   4.617 -0.0692 -0.2089  0.5845
 9288TIP3    H127828   6.170   3.719   4.607 -0.4581  0.6436 -0.5991
 9288TIP3    H227829   6.077   3.606   4.567 -0.4030  0.7900 -1.1515
 9289TIP3   OH227830   2.158   2.204   5.597 -0.0869  0.3639  0.2174
 9289TIP3    H127831   2.114   2.173   5.676 -2.8345  1.5790 -0.7082
 9289TIP3    H227832   2.209   2.280   5.625 -0.5467  0.4217  0.9169
 9290TIP3   OH227833   5.920   5.594   4.703  0.2193  0.2421  0.5193
 9290TIP3    H127834   5.983   5.625   4.638  0.1080  0.8285  0.6801
 9290TIP3    H227835   5.848   5.558   4.651 -0.5347  2.0296  0.2536
 9291TIP3   OH227836   2.742   1.321   3.898  1.3078 -0.1324 -0.1910
 9291TIP3    H127837   2.836   1.334   3.889  1.4383 -0.3318  0.7768
 9291TIP3    H227838   2.733   1.236   3.940  0.7050  0.0036 -0.0276
 9292TIP3   OH227839   0.602   3.882   3.264 -0.1235 -0.1416 -0.4401
 9292TIP3    H127840   0.682   3.909   3.308 -0.1523 -0.3333 -0.2704
 9292TIP3    H227841   0.585   3.951   3.200 -1.0083  1.0290  1.0067
 9293TIP3   OH227842   1.915   6.343   5.471  0.4202  0.1832  0.2732
 9293TIP3    H127843   1.935   6.277   5.405 -0.7647 -0.2176  0.2912
 9293TIP3    H227844   1.871   6.294   5.541  1.8625  0.5490  1.4998
 9294TIP3   OH227845   3.562   3.049   2.353 -0.0819  0.1842  0.0717
 9294TIP3    H127846   3.532   2.977   2.297 -1.4579 -1.5722  2.8342
 9294TIP3    H227847   3.483   3.099   2.373  0.3813  0.8015  0.4009
 9295TIP3   OH227848   4.980   4.512   1.382  0.5547 -0.0288  0.2808
 9295TIP3    H127849   4.896   4.523   1.427 -0.6086  0.7459 -1.9175
 9295TIP3    H227850   5.016   4.600   1.375 -0.9693  0.5043 -3.1501
 9296TIP3   OH227851   1.274   2.262   1.780 -0.2946  0.0416  0.0472
 9296TIP3    H127852   1.184   2.249   1.752 -0.9493 -0.9883  2.3849
 9296TIP3    H227853   1.303   2.340   1.733 -2.8119  1.1458  0.1841
 9297TIP3   OH227854   4.458   5.842   5.088 -0.6038  0.4258 -0.4921
 9297TIP3    H127855   4.365   5.846   5.067 -0.3382  1.2565 -1.6194
 9297TIP3    H227856   4.465   5.882   5.175 -1.2329  0.8827 -0.6450
 9298TIP3   OH227857   3.502   2.942   5.915  0.1838 -0.6708 -0.2702
 9298TIP3    H127858   3.528   3.030   5.889 -0.1002 -0.4243  0.2545
 9298TIP3    H227859   3.507   2.890   5.835  0.6868 -0.2586 -0.5091
 9299TIP3   OH227860   3.602   3.783   3.306  0.2460 -0.2239 -0.1757
 9299TIP3    H127861   3.616   3.823   3.391 -0.2655 -1.8395  0.7082
 9299TIP3    H227862   3.687   3.790   3.262  0.2737  1.4195  0.0740
 9300TIP3   OH227863   5.517   6.061   0.834 -0.3816 -0.0334 -0.0454
 9300TIP3    H127864   5.529   6.033   0.743  0.2143 -0.2653  0.0984
 9300TIP3    H227865   5.543   6.153   0.834 -0.3759 -0.0346 -0.1094
 9301TIP3   OH227866   5.987   0.993   1.066  0.4245 -0.1224 -0.2858
 9301TIP3    H127867   5.988   0.937   0.988  0.4804  1.3442 -1.4059
 9301TIP3    H227868   6.046   1.065   1.043 -0.5765  1.0103  0.5836
 9302TIP3   OH227869   2.214   2.746   3.399 -0.1931  0.3406 -0.0896
 9302TIP3    H127870   2.223   2.757   3.494  1.5748  1.2028 -0.3102
 9302TIP3    H227871   2.304   2.747   3.366 -0.7729  0.0517 -1.7804
 9303TIP3   OH227872   0.331   4.811   2.509 -0.1767 -0.2666 -0.5608
 9303TIP3    H127873   0.371   4.891   2.544 -1.2252  0.3503 -0.7527
 9303TIP3    H227874   0.390   4.785   2.438  0.5700 -0.0864 -0.0203
 9304TIP3   OH227875   1.348   0.032   5.032  0.0284 -0.5208 -0.0563
 9304TIP3    H127876   1.327   0.033   5.125  1.4883 -1.7649  0.3190
 9304TIP3    H227877   1.435   0.071   5.026 -0.5969  0.7959 -1.0853
 9305TIP3   OH227878   5.177   4.613   2.751  0.1604 -0.2075  0.2655
 9305TIP3    H127879   5.231   4.691   2.741 -0.6715  0.3861  0.2923
 9305TIP3    H227880   5.179   4.570   2.666 -1.0525  0.9652 -0.3880
 9306TIP3   OH227881   2.533   0.167   3.277  0.1549  0.7529  0.3623
 9306TIP3    H127882   2.584   0.247   3.291  0.0312  0.9240 -0.1485
 9306TIP3    H227883   2.443   0.197   3.266  0.2923  0.6864 -1.2297
 9307TIP3   OH227884   6.762   5.795   4.190 -0.7660 -0.0796  0.7232
 9307TIP3    H127885   6.681   5.760   4.153 -0.8838 -0.6451  1.4975
 9307TIP3    H227886   6.738   5.825   4.278  0.3386 -2.4560  1.9193
 9308TIP3   OH227887   2.030   2.706   5.769 -0.0891  0.0318  0.5841
 9308TIP3    H127888   2.046   2.797   5.743 -2.8619  0.5856  0.5106
 9308TIP3    H227889   2.040   2.706   5.864  1.2934  0.0629  0.4548
 9309TIP3   OH227890   1.998   2.192   4.901 -0.1262 -0.4105  0.1750
 9309TIP3    H127891   2.069   2.246   4.934 -0.9802  1.3488 -0.6949
 9309TIP3    H227892   1.952   2.162   4.979  0.5516 -0.1334  0.6895
 9310TIP3   OH227893   2.413   6.489   1.736 -0.1953 -0.0031 -0.2591
 9310TIP3    H127894   2.494   6.540   1.747  1.4532 -2.2757 -0.9916
 9310TIP3    H227895   2.346   6.554   1.715  0.7408  2.3091  3.0404
 9311TIP3   OH227896   0.245   0.060   2.846  0.3387 -0.2243 -0.3272
 9311TIP3    H127897   0.335   0.071   2.816  0.4007  0.6410  0.1492
 9311TIP3    H227898   0.200   0.140   2.818 -0.1093 -0.3394  0.0487
 9312TIP3   OH227899   6.833   0.329   1.058 -0.1368 -0.1486  0.0677
 9312TIP3    H127900   6.817   0.276   0.980 -2.1078  0.0092  0.3162
 9312TIP3    H227901   6.748   0.334   1.101  0.1976  2.3775  0.5726
 9313TIP3   OH227902   6.815   3.227   4.551 -0.0745  0.1902 -0.0860
 9313TIP3    H127903   6.800   3.320   4.535 -1.8534 -0.0838 -0.1288
 9313TIP3    H227904   6.728   3.190   4.562  0.6073 -1.4946 -0.1279
 9314TIP3   OH227905   3.487   2.843   2.192 -0.2074  0.5429 -0.5292
 9314TIP3    H127906   3.404   2.855   2.145  0.1212  1.5407 -0.8778
 9314TIP3    H227907   3.473   2.765   2.247 -0.8464 -0.2059 -1.7229
 9315TIP3   OH227908   5.928   3.607   0.975  0.1381  0.1434  0.0603
 9315TIP3    H127909   5.927   3.581   0.883  1.9786 -1.1839  0.3431
 9315TIP3    H227910   6.013   3.650   0.986  0.4893 -0.8187  1.3773
 9316TIP3   OH227911   4.969   6.721   5.299 -0.0064 -0.4075 -0.0131
 9316TIP3    H127912   4.894   6.682   5.345 -0.1785  1.6582  1.6124
 9316TIP3    H227913   5.045   6.691   5.348 -0.1382  1.1404  1.2314
 9317TIP3   OH227914   3.316   0.450   1.150  0.2488 -0.6728 -0.1998
 9317TIP3    H127915   3.285   0.451   1.240  1.3728  0.4881  0.2184
 9317TIP3    H227916   3.249   0.497   1.101  0.5956  0.5446  0.4333
 9318TIP3   OH227917   3.056   3.629   0.597 -0.1969 -0.1470 -0.4246
 9318TIP3    H127918   3.009   3.582   0.666 -0.4931 -1.8419 -1.7067
 9318TIP3    H227919   3.117   3.685   0.644 -1.0449 -0.5297  1.2266
 9319TIP3   OH227920   3.225   4.473   4.733  0.8821 -0.5057 -0.0505
 9319TIP3    H127921   3.227   4.546   4.795 -2.3753  0.2207 -0.6040
 9319TIP3    H227922   3.307   4.480   4.684  0.7689  2.6914  0.0265
 9320TIP3   OH227923   0.197   5.184   2.585 -0.4877 -0.5598  0.2161
 9320TIP3    H127924   0.129   5.247   2.561 -0.6585 -0.9712 -0.4140
 9320TIP3    H227925   0.157   5.132   2.655 -0.2407  0.2025  0.9401
 9321TIP3   OH227926   4.950   0.870   0.468 -0.3178  0.1928  0.2927
 9321TIP3    H127927   4.895   0.840   0.540 -0.3427  0.7841  0.5252
 9321TIP3    H227928   4.951   0.965   0.476 -2.6126  0.5490 -2.1488
 9322TIP3   OH227929   1.374   1.042   5.175 -0.4497  0.8351 -0.2929
 9322TIP3    H127930   1.365   1.120   5.230  0.7772  0.8030 -0.0154
 9322TIP3    H227931   1.288   1.030   5.136 -0.8490  1.9150  0.2186
 9323TIP3   OH227932   6.539   6.218   5.195 -0.3521 -0.1466 -0.4523
 9323TIP3    H127933   6.501   6.151   5.252 -0.9183 -0.7098 -1.4751
 9323TIP3    H227934   6.469   6.282   5.183 -0.3137 -0.1540 -0.7147
 9324TIP3   OH227935   1.724   3.988   1.756  0.8598 -0.1596  0.4033
 9324TIP3    H127936   1.705   3.894   1.764 -0.6077  0.1611  0.9343
 9324TIP3    H227937   1.682   4.015   1.675 -1.8977  0.7274  2.0030
 9325TIP3   OH227938   3.814   2.856   3.843  0.2392  0.6401  0.2754
 9325TIP3    H127939   3.834   2.922   3.777  0.5755 -1.3916 -1.8042
 9325TIP3    H227940   3.727   2.824   3.820 -0.0111  0.4954  1.3635
 9326TIP3   OH227941   1.964   1.053   2.637 -0.0894 -0.0492 -0.1240
 9326TIP3    H127942   1.873   1.080   2.651 -0.6358 -1.8689  0.1467
 9326TIP3    H227943   2.016   1.121   2.679 -1.4550 -0.8529  3.1689
 9327TIP3   OH227944   4.410   1.905   0.634  0.0710 -0.0643 -0.3944
 9327TIP3    H127945   4.458   1.853   0.569  0.0288  0.4552 -0.8552
 9327TIP3    H227946   4.321   1.909   0.600  0.8114  3.4328 -2.4305
 9328TIP3   OH227947   3.301   0.167   1.090 -0.7623  0.1905  0.1966
 9328TIP3    H127948   3.331   0.249   1.128  0.0771  0.4412 -0.9829
 9328TIP3    H227949   3.371   0.140   1.032 -1.3854 -0.9532 -0.0485
 9329TIP3   OH227950   1.807   1.447   5.629 -0.0499  0.3697  0.0898
 9329TIP3    H127951   1.830   1.357   5.653 -0.4730 -0.0993 -1.1471
 9329TIP3    H227952   1.777   1.440   5.538  0.9457  1.9329 -0.3945
 9330TIP3   OH227953   4.358   4.273   4.105 -0.0540 -0.2949 -0.1023
 9330TIP3    H127954   4.416   4.316   4.168  0.5732 -0.1459 -0.7793
 9330TIP3    H227955   4.289   4.337   4.088 -0.2015 -0.3171  0.3858
 9331TIP3   OH227956   1.987   5.434   5.462  0.4290 -0.4093 -0.1254
 9331TIP3    H127957   2.040   5.372   5.513 -0.6305 -0.5949  0.7831
 9331TIP3    H227958   2.042   5.511   5.454  2.0095 -1.6120 -1.7442
 9332TIP3   OH227959   1.171   4.836   4.036  0.2829  0.4523  0.6588
 9332TIP3    H127960   1.108   4.795   3.976 -1.1356  1.3353  1.4987
 9332TIP3    H227961   1.170   4.929   4.012  1.4221  0.4566  0.5738
 9333TIP3   OH227962   5.975   1.602   4.350  0.0212 -0.3299 -0.0073
 9333TIP3    H127963   6.011   1.674   4.402  0.7046  0.4524 -1.4876
 9333TIP3    H227964   6.038   1.531   4.362  0.3272 -0.0602  0.0114
 9334TIP3   OH227965   6.115   0.205   4.106  0.3998 -0.0096 -0.7145
 9334TIP3    H127966   6.060   0.282   4.088  0.3221 -0.0399 -0.6054
 9334TIP3    H227967   6.204   0.238   4.099  0.3668  0.0694 -0.7637
 9335TIP3   OH227968   6.911   5.096   3.262  0.7350  0.0794 -0.1609
 9335TIP3    H127969   6.947   5.008   3.259  0.6103  0.0044  0.3836
 9335TIP3    H227970   6.860   5.104   3.182  1.6820  0.0720 -0.7839
 9336TIP3   OH227971   1.861   0.947   4.914 -0.1632  0.0827  0.6172
 9336TIP3    H127972   1.778   0.968   4.958 -0.6556  0.8227 -0.6100
 9336TIP3    H227973   1.840   0.871   4.860  0.0315  0.0763  0.5517
 9337TIP3   OH227974   0.586   1.976   2.133 -0.5151 -0.2021  0.0792
 9337TIP3    H127975   0.644   1.916   2.179 -1.1420 -1.4402 -0.7030
 9337TIP3    H227976   0.623   1.982   2.044 -0.7265  0.2055  0.0135
 9338TIP3   OH227977   0.105   0.765   2.608 -0.1838 -0.2979 -0.1027
 9338TIP3    H127978   0.087   0.844   2.658 -0.6494 -0.1801 -0.4490
 9338TIP3    H227979   0.200   0.754   2.613 -0.2158 -0.2246  0.6947
 9339TIP3   OH227980   0.179   6.381   0.849 -0.2547  0.4929  0.3073
 9339TIP3    H127981   0.169   6.404   0.941  2.4322  3.2176  0.0560
 9339TIP3    H227982   0.089   6.382   0.815 -1.1150  2.0731  2.3681
 9340TIP3   OH227983   4.366   5.427   3.053 -0.1426  0.3486 -0.0171
 9340TIP3    H127984   4.279   5.464   3.043  0.4816  2.2681  1.0543
 9340TIP3    H227985   4.422   5.480   2.997  0.6010  0.2477  0.6103
 9341TIP3   OH227986   4.855   5.465   1.913 -0.3460  0.4265 -0.3002
 9341TIP3    H127987   4.843   5.431   2.002  0.7807 -1.0307 -0.6694
 9341TIP3    H227988   4.899   5.550   1.927  1.0474 -0.3826  0.5327
 9342TIP3   OH227989   3.472   5.575   4.731  0.5933 -0.0089  0.2605
 9342TIP3    H127990   3.395   5.563   4.674  2.4888  1.2040 -2.7997
 9342TIP3    H227991   3.447   5.646   4.790 -0.2825  1.2325 -1.5005
 9343TIP3   OH227992   5.558   1.564   1.161 -0.4546  0.0059  0.0837
 9343TIP3    H127993   5.515   1.478   1.162  0.6072 -0.5354  0.6517
 9343TIP3    H227994   5.486   1.627   1.151 -1.1714 -0.9866 -1.4124
 9344TIP3   OH227995   4.665   0.770   2.922  0.1322  0.4090 -0.5188
 9344TIP3    H127996   4.685   0.855   2.881  1.9955  0.0449 -0.4464
 9344TIP3    H227997   4.676   0.785   3.016  2.6377 -0.3582 -0.6057
 9345TIP3   OH227998   2.534   5.030   1.981  0.0905  0.2998  0.0877
 9345TIP3    H127999   2.539   5.124   1.967 -0.4136  0.3642  0.3226
 9345TIP3    H228000   2.467   5.019   2.048 -1.3228 -0.3690 -1.3912
 9346TIP3   OH228001   5.276   0.786   3.429  0.1052 -0.1494  0.4146
 9346TIP3    H128002   5.249   0.734   3.353 -1.6471  1.7550 -0.3573
 9346TIP3    H228003   5.197   0.793   3.483 -0.0162  2.3665  0.0420
 9347TIP3   OH228004   4.718   3.465   1.393 -0.1167  0.4567 -0.4026
 9347TIP3    H128005   4.635   3.502   1.363 -0.0518 -0.3760 -1.7183
 9347TIP3    H228006   4.783   3.500   1.332  0.4918  0.9745  0.5215
 9348TIP3   OH228007   0.844   5.475   4.045  0.0171  0.1824 -0.2426
 9348TIP3    H128008   0.834   5.419   4.122  1.4491  0.0647 -0.1108
 9348TIP3    H228009   0.886   5.419   3.980 -3.0009 -0.3678 -1.9248
 9349TIP3   OH228010   3.714   3.996   1.855  0.1413  0.0151 -0.1116
 9349TIP3    H128011   3.651   4.059   1.821  1.5073  2.2238  1.1416
 9349TIP3    H228012   3.787   3.998   1.792 -0.5293 -1.7211 -0.9997
 9350TIP3   OH228013   0.856   4.923   1.290  0.6623  0.3914  0.4458
 9350TIP3    H128014   0.766   4.955   1.280  0.0578 -1.1360  0.6623
 9350TIP3    H228015   0.865   4.905   1.384  0.3231 -1.7280  0.1297
 9351TIP3   OH228016   5.592   4.806   1.277 -0.4671  0.0558 -0.3147
 9351TIP3    H128017   5.592   4.902   1.271 -0.4721  0.0174 -0.9779
 9351TIP3    H228018   5.520   4.779   1.221 -1.7758 -0.2665  1.4266
 9352TIP3   OH228019   0.557   0.403   5.341 -1.1156 -0.3956 -0.3322
 9352TIP3    H128020   0.472   0.410   5.383 -0.9663  0.3385 -0.1217
 9352TIP3    H228021   0.603   0.483   5.367 -1.4818  0.7582 -2.8955
 9353TIP3   OH228022   2.194   5.721   5.505  0.0396  0.2881 -0.1440
 9353TIP3    H128023   2.285   5.742   5.485 -0.3823  0.6794 -1.8436
 9353TIP3    H228024   2.152   5.715   5.420 -1.2649 -1.1795  0.5517
 9354TIP3   OH228025   6.848   2.168   1.348  0.2518 -0.2343  0.2116
 9354TIP3    H128026   6.860   2.075   1.366  1.0453 -0.6294 -2.0183
 9354TIP3    H228027   6.906   2.212   1.409  1.1097 -1.3147  0.2102
 9355TIP3   OH228028   1.197   3.404   1.355  0.1431  0.1002  0.1617
 9355TIP3    H128029   1.160   3.329   1.309 -0.9246  0.8469 -0.2400
 9355TIP3    H228030   1.174   3.479   1.300 -0.1776  0.8903  1.3486
 9356TIP3   OH228031   6.447   3.399   3.749  0.2067  0.3314  0.5667
 9356TIP3    H128032   6.424   3.332   3.814  0.3399  0.6601  0.9536
 9356TIP3    H228033   6.363   3.429   3.714  0.1631 -0.6678 -0.2674
 9357TIP3   OH228034   6.543   3.136   4.612  0.3796  0.1564  0.3236
 9357TIP3    H128035   6.561   3.106   4.701  0.4965 -0.3502  0.1342
 9357TIP3    H228036   6.576   3.065   4.556 -0.0975  0.2698 -0.1068
 9358TIP3   OH228037   3.884   3.563   0.944  0.2935  0.0506 -0.1842
 9358TIP3    H128038   3.947   3.632   0.961 -0.1251  0.7113 -1.2364
 9358TIP3    H228039   3.933   3.496   0.896  0.3288  0.3367 -0.5536
 9359TIP3   OH228040   2.843   6.779   3.466  0.3822 -0.1045 -0.3615
 9359TIP3    H128041   2.861   6.705   3.408  0.5807 -1.3505  1.2212
 9359TIP3    H228042   2.859   6.856   3.412 -1.1205 -1.1827 -2.4498
 9360TIP3   OH228043   0.335   2.222   5.724  0.2599 -0.2350  0.1105
 9360TIP3    H128044   0.415   2.275   5.727 -0.6625  1.2016  2.4785
 9360TIP3    H228045   0.269   2.280   5.687  0.3644 -1.6715 -2.5896
 9361TIP3   OH228046   3.171   2.326   2.241 -0.2783  0.0054 -0.0682
 9361TIP3    H128047   3.189   2.400   2.184  1.1498  0.2838  0.7017
 9361TIP3    H228048   3.111   2.360   2.308 -0.2580  0.2453 -0.1723
 9362TIP3   OH228049   4.560   6.015   0.492 -0.4042 -0.5983 -0.3959
 9362TIP3    H128050   4.503   6.034   0.567  1.0364 -1.5289  0.9997
 9362TIP3    H228051   4.502   6.021   0.416 -2.0823 -0.3086  0.8464
 9363TIP3   OH228052   3.867   6.716   5.889  0.0164  1.0492 -0.6859
 9363TIP3    H128053   3.878   6.634   5.840  2.2577  1.2217 -0.5709
 9363TIP3    H228054   3.793   6.699   5.948  0.6418 -1.0288 -0.4091
 9364TIP3   OH228055   4.241   4.749   2.057  0.2956  0.0434 -0.0545
 9364TIP3    H128056   4.281   4.785   2.136  2.0459 -1.0905 -0.3482
 9364TIP3    H228057   4.176   4.814   2.031  0.6129  1.0705  1.5682
 9365TIP3   OH228058   0.542   1.329   1.752 -0.1868  0.1726 -0.0463
 9365TIP3    H128059   0.552   1.382   1.831  0.5161  0.8986 -0.5972
 9365TIP3    H228060   0.563   1.390   1.680 -0.1649 -0.6480 -0.7484
 9366TIP3   OH228061   2.239   2.411   2.467 -0.8249 -0.1346 -0.1653
 9366TIP3    H128062   2.230   2.429   2.374 -1.2887  0.6617  0.0150
 9366TIP3    H228063   2.220   2.495   2.509 -1.0566 -0.5843  0.6597
 9367TIP3   OH228064   5.520   0.390   1.913  0.6224  0.4803 -0.0444
 9367TIP3    H128065   5.462   0.377   1.989 -1.0595  0.8521 -1.2140
 9367TIP3    H228066   5.571   0.310   1.908 -0.6257 -0.3659  0.3317
 9368TIP3   OH228067   3.898   3.014   3.467 -0.3097  0.0027  0.7014
 9368TIP3    H128068   3.887   3.076   3.540 -0.2144  1.6822 -0.6486
 9368TIP3    H228069   3.990   2.987   3.473  0.3351  1.8735 -0.0622
 9369TIP3   OH228070   3.682   3.964   2.120  0.5386  0.0633  0.6782
 9369TIP3    H128071   3.730   4.042   2.148  0.3013 -0.5065  2.8785
 9369TIP3    H228072   3.646   3.986   2.034  2.5253  1.4557  0.1417
 9370TIP3   OH228073   4.812   5.854   2.463  0.2346  0.8803 -0.5569
 9370TIP3    H128074   4.725   5.880   2.434 -0.8533 -1.0548  0.7471
 9370TIP3    H228075   4.832   5.913   2.535 -1.3775 -0.5463  1.1415
 9371TIP3   OH228076   1.257   1.635   4.519 -0.6824 -0.3547 -0.3845
 9371TIP3    H128077   1.207   1.553   4.525 -0.7827 -0.3077 -0.5848
 9371TIP3    H228078   1.347   1.607   4.508 -0.1672 -0.5143  3.0160
 9372TIP3   OH228079   1.499   5.218   1.725  0.2048  0.2216 -0.1015
 9372TIP3    H128080   1.535   5.294   1.680  0.8959  1.0968  1.7849
 9372TIP3    H228081   1.409   5.243   1.747 -0.1985 -0.2826 -1.1154
 9373TIP3   OH228082   1.777   5.721   0.922 -0.2380  0.5955 -0.0039
 9373TIP3    H128083   1.747   5.791   0.981  1.0291  1.1051  0.0622
 9373TIP3    H228084   1.718   5.648   0.941 -2.2721  1.9223 -0.7881
 9374TIP3   OH228085   1.684   5.975   5.102 -0.3279  0.3040 -0.0482
 9374TIP3    H128086   1.771   5.944   5.126 -0.3735 -0.0883 -0.3756
 9374TIP3    H228087   1.625   5.931   5.164 -0.1074  2.4069  1.7551
 9375TIP3   OH228088   2.071   4.770   3.397 -0.4035  0.0303  0.2799
 9375TIP3    H128089   2.058   4.860   3.368  2.2411  0.3005 -0.3135
 9375TIP3    H228090   2.054   4.717   3.319 -1.8830 -0.0286  0.6095
 9376TIP3   OH228091   2.393   3.260   3.585 -0.1023 -0.2859 -0.0278
 9376TIP3    H128092   2.400   3.261   3.490 -0.5425  0.5294 -0.0636
 9376TIP3    H228093   2.474   3.218   3.615  0.2077 -0.2093 -0.7447
 9377TIP3   OH228094   5.264   1.240   4.818  0.1240 -0.5068  0.3252
 9377TIP3    H128095   5.256   1.283   4.733 -0.6172 -1.1421  0.0622
 9377TIP3    H228096   5.183   1.263   4.863  1.3749  1.5477  1.6876
 9378TIP3   OH228097   6.985   1.290   4.423  0.2509 -0.0895  0.2288
 9378TIP3    H128098   7.057   1.330   4.470 -0.6180  1.3049  0.4295
 9378TIP3    H228099   6.963   1.212   4.474  1.1813 -0.1753  0.5135
 9379TIP3   OH228100   3.284   0.408   5.237  0.2227  0.1235 -0.0777
 9379TIP3    H128101   3.291   0.367   5.323  0.1764 -0.4613 -0.3523
 9379TIP3    H228102   3.228   0.484   5.251  1.6447  1.0717  0.7773
 9380TIP3   OH228103   5.362   0.518   0.111  0.2026  0.2801 -0.0191
 9380TIP3    H128104   5.442   0.540   0.062  0.0886  0.3687 -0.1635
 9380TIP3    H228105   5.313   0.461   0.053 -1.9678  3.6773 -1.8512
 9381TIP3   OH228106   1.196   5.878   3.091 -0.6391  0.2386  0.1544
 9381TIP3    H128107   1.182   5.892   3.185  0.9120  0.8940  0.3122
 9381TIP3    H228108   1.291   5.879   3.080 -0.7900  0.0878 -1.4249
 9382TIP3   OH228109   6.359   3.782  -0.033  0.4263  0.3319  0.3471
 9382TIP3    H128110   6.281   3.758   0.017  1.4558  0.6093  2.1653
 9382TIP3    H228111   6.404   3.846   0.022  1.7269  0.4869 -0.8517
 9383TIP3   OH228112   2.824   0.405   5.659 -0.1794 -0.4500  0.0319
 9383TIP3    H128113   2.908   0.450   5.647  0.7171 -2.0203  0.1560
 9383TIP3    H228114   2.793   0.434   5.744 -0.1999  0.7934 -0.3730
 9384TIP3   OH228115   6.801   0.609   4.702 -0.7753  0.3654  0.5621
 9384TIP3    H128116   6.866   0.647   4.761  0.8423 -1.1285 -0.1714
 9384TIP3    H228117   6.788   0.676   4.635 -0.1024  0.7569  0.8087
 9385TIP3   OH228118   5.299   3.169   4.771  0.2377 -0.9821  0.4353
 9385TIP3    H128119   5.354   3.216   4.709  0.5405 -0.4720  1.0674
 9385TIP3    H228120   5.251   3.238   4.818 -1.2773 -1.4318 -0.3815
 9386TIP3   OH228121   4.235   3.778   3.982 -0.2257  0.0936  0.2748
 9386TIP3    H128122   4.204   3.689   3.962 -0.4100  0.8093 -3.2170
 9386TIP3    H228123   4.323   3.765   4.017  0.6280 -1.4519 -2.2111
 9387TIP3   OH228124   5.141   3.464   2.124 -0.4532 -0.0543  0.1561
 9387TIP3    H128125   5.107   3.511   2.047  0.2056 -1.0371 -0.7737
 9387TIP3    H228126   5.085   3.387   2.132 -1.5056  0.8303  1.6455
 9388TIP3   OH228127   6.737   4.045   2.258  0.2755  0.1313  0.5861
 9388TIP3    H128128   6.719   4.128   2.213  1.8572 -0.4170 -1.2127
 9388TIP3    H228129   6.681   3.981   2.214 -0.5975  0.1266  1.6593
 9389TIP3   OH228130   0.662   3.382   3.617 -0.8216  0.5201 -0.7723
 9389TIP3    H128131   0.739   3.406   3.669 -0.3117  0.8082 -1.6386
 9389TIP3    H228132   0.628   3.465   3.585 -1.9450  0.4554  0.2103
 9390TIP3   OH228133   1.824   5.208   2.762 -0.6146 -0.0605  0.6233
 9390TIP3    H128134   1.827   5.146   2.835 -0.5038  0.3662  0.9834
 9390TIP3    H228135   1.887   5.276   2.786  0.6308 -0.7149 -0.5962
 9391TIP3   OH228136   2.937   3.201   0.008  0.3241 -0.1927 -0.5354
 9391TIP3    H128137   2.911   3.267   0.072  0.0526  0.4048 -1.2450
 9391TIP3    H228138   2.953   3.250  -0.073  1.8441 -0.7772 -0.6246
 9392TIP3   OH228139   3.303   3.251   2.031  0.1433 -0.2931 -0.7888
 9392TIP3    H128140   3.340   3.338   2.014  1.3294 -0.0669  2.3256
 9392TIP3    H228141   3.375   3.190   2.012  0.1794 -0.3535 -0.4679
 9393TIP3   OH228142   2.092   6.263   3.768 -0.3500  0.1558 -0.1711
 9393TIP3    H128143   2.033   6.202   3.813 -0.8019  1.3363  0.9015
 9393TIP3    H228144   2.036   6.335   3.740  0.5524  1.4070  1.0598
 9394TIP3   OH228145   6.097   0.313   4.589  0.1406  0.5348  0.8530
 9394TIP3    H128146   6.107   0.267   4.505 -2.1866 -0.0487  0.8268
 9394TIP3    H228147   6.159   0.269   4.647  0.2336 -0.5211 -0.0013
 9395TIP3   OH228148   4.981   1.551   4.913 -0.9732  0.5540  0.6837
 9395TIP3    H128149   5.011   1.638   4.883  0.1294 -0.3876 -1.1317
 9395TIP3    H228150   4.941   1.512   4.836 -1.8786 -0.3998  1.6117
 9396TIP3   OH228151   6.034   5.393   3.888  0.0314  0.4708 -0.0984
 9396TIP3    H128152   6.038   5.462   3.955  0.9098  0.3880 -0.0459
 9396TIP3    H228153   5.942   5.388   3.863 -0.8468 -1.2659  2.9607
 9397TIP3   OH228154   0.742   4.601   4.399  0.2973 -0.4670 -0.5017
 9397TIP3    H128155   0.828   4.579   4.436  0.5422 -1.3509 -1.5316
 9397TIP3    H228156   0.710   4.518   4.363 -0.6882  0.0056 -0.7466
 9398TIP3   OH228157   5.123   4.222   1.838 -0.1901  0.0433 -0.0823
 9398TIP3    H128158   5.197   4.260   1.885 -1.0439 -0.7190  1.9972
 9398TIP3    H228159   5.136   4.248   1.747  2.0500  0.8041  0.4023
 9399TIP3   OH228160   0.730   2.398   3.817  0.0681 -0.1321 -0.3215
 9399TIP3    H128161   0.695   2.483   3.845  2.0468  0.8585 -0.6253
 9399TIP3    H228162   0.688   2.334   3.873 -0.7589  1.1670  0.5814
 9400TIP3   OH228163   3.038   4.190   4.707  0.5686 -0.2935  0.0480
 9400TIP3    H128164   3.099   4.117   4.696  1.2999  0.5723 -2.0445
 9400TIP3    H228165   3.086   4.251   4.763  0.5100 -0.7788  0.6463
 9401TIP3   OH228166   3.478   6.285   5.446 -0.9683  0.5344 -0.3466
 9401TIP3    H128167   3.390   6.316   5.465 -0.7308  1.3457 -0.5453
 9401TIP3    H228168   3.534   6.327   5.511 -0.7404 -0.1042 -0.1174
 9402TIP3   OH228169   3.595   4.297   5.016  0.0424 -0.0472  0.7833
 9402TIP3    H128170   3.554   4.211   5.012 -2.5363  1.0668  1.3337
 9402TIP3    H228171   3.573   4.338   4.932  1.0101  0.1969  0.6380
 9403TIP3   OH228172   1.413   2.555   4.134 -0.4255 -0.1186 -0.7171
 9403TIP3    H128173   1.352   2.571   4.062  1.5708 -2.1571 -3.0516
 9403TIP3    H228174   1.419   2.459   4.140  0.2771 -0.0052  1.4978
 9404TIP3   OH228175   0.419   6.520   4.612  0.2465 -0.4022  0.0753
 9404TIP3    H128176   0.427   6.600   4.561 -0.1364 -1.2186 -1.3307
 9404TIP3    H228177   0.360   6.542   4.684  0.5412  0.6931 -0.0133
 9405TIP3   OH228178   1.127   0.953   4.416 -0.5083 -0.8010 -0.0988
 9405TIP3    H128179   1.079   1.008   4.478 -0.6089  0.4535 -1.2320
 9405TIP3    H228180   1.195   0.911   4.469 -0.6666  0.1313  0.8806
 9406TIP3   OH228181   6.688   5.724   3.804  0.1612 -0.2101 -0.7182
 9406TIP3    H128182   6.600   5.698   3.832 -0.2358  2.2641  0.6253
 9406TIP3    H228183   6.672   5.787   3.733  0.6198  2.2722  1.2489
 9407TIP3   OH228184   3.145   2.560   2.481  0.0601 -0.2881 -0.3140
 9407TIP3    H128185   3.104   2.636   2.439 -0.5438  0.3867  1.4093
 9407TIP3    H228186   3.187   2.513   2.409 -2.1792 -0.0193 -1.8979
 9408TIP3   OH228187   4.556   5.731   1.589  0.3143  0.5782 -0.1524
 9408TIP3    H128188   4.607   5.672   1.644 -0.2811  0.6350  0.4737
 9408TIP3    H228189   4.580   5.708   1.500  1.9265  1.0502  0.1306
 9409TIP3   OH228190   3.656   0.101   2.083 -0.3936  0.3474  0.3826
 9409TIP3    H128191   3.692   0.022   2.041  0.7364  1.7045 -1.3464
 9409TIP3    H228192   3.703   0.108   2.166  0.7936  0.1394 -0.2454
 9410TIP3   OH228193   5.762   4.435   2.956  0.3147  0.0501 -0.9872
 9410TIP3    H128194   5.739   4.342   2.965  1.2049 -0.2388 -1.6337
 9410TIP3    H228195   5.677   4.480   2.960 -0.0899 -0.7430 -0.2063
 9411TIP3   OH228196   2.905   0.594   1.776  0.3346 -0.4190  0.2677
 9411TIP3    H128197   2.882   0.546   1.697  1.6212 -0.5183 -0.0690
 9411TIP3    H228198   2.821   0.616   1.816 -0.3299 -2.8440  0.3737
 9412TIP3   OH228199   2.806   6.173   2.283  0.0863 -0.1487 -0.2015
 9412TIP3    H128200   2.719   6.155   2.249  1.0068 -2.2236 -1.6905
 9412TIP3    H228201   2.866   6.141   2.215  2.0262  1.5493  0.5974
 9413TIP3   OH228202   3.920   3.678   1.699 -0.5536  0.1022  0.3856
 9413TIP3    H128203   3.906   3.761   1.654 -2.4909  0.1966  1.0989
 9413TIP3    H228204   3.975   3.700   1.774  0.5043  0.3934 -0.4550
 9414TIP3   OH228205   2.197   6.679   0.683 -0.0925 -0.2147  0.2788
 9414TIP3    H128206   2.176   6.772   0.692 -0.3228 -0.3253  0.9408
 9414TIP3    H228207   2.276   6.667   0.735  0.9911 -0.0379 -1.2608
 9415TIP3   OH228208   0.710   1.959   0.274 -0.3930  0.0103 -0.2078
 9415TIP3    H128209   0.779   1.986   0.213  0.5176 -0.1648  0.7224
 9415TIP3    H228210   0.697   2.034   0.331 -0.6952 -0.1040 -0.1202
 9416TIP3   OH228211   5.046   5.830   3.079 -0.0758  0.1222 -0.1428
 9416TIP3    H128212   5.034   5.755   3.021 -1.7058  0.8463 -0.8246
 9416TIP3    H228213   4.957   5.852   3.107  0.4518  1.3127  0.6620
 9417TIP3   OH228214   6.262   2.666   5.838 -0.0353  0.5901  0.0321
 9417TIP3    H128215   6.249   2.679   5.932 -0.9101  0.2765 -0.0351
 9417TIP3    H228216   6.175   2.680   5.800  0.3946  1.0977 -0.7762
 9418TIP3   OH228217   2.941   0.901   2.172 -0.5145 -0.1654 -0.3772
 9418TIP3    H128218   3.019   0.855   2.142  0.2456 -0.2017  1.5385
 9418TIP3    H228219   2.920   0.860   2.256 -1.2658  1.3609  0.2103
 9419TIP3   OH228220   2.095   0.970   4.575  0.4331 -0.7234 -0.6931
 9419TIP3    H128221   2.039   1.037   4.614 -0.8266 -1.7351 -0.7010
 9419TIP3    H228222   2.103   0.903   4.643 -0.5607 -1.8065 -1.6033
 9420TIP3   OH228223   1.550   0.579   1.342  0.1002  0.2441  0.6516
 9420TIP3    H128224   1.525   0.491   1.314 -0.0463  0.5621 -0.2241
 9420TIP3    H228225   1.468   0.623   1.362  0.0446  0.7667 -0.6739
 9421TIP3   OH228226   0.221   0.125   1.335 -0.2321  0.1414  0.3397
 9421TIP3    H128227   0.129   0.121   1.361 -0.0818 -1.1787  0.7422
 9421TIP3    H228228   0.265   0.160   1.412 -0.3663  0.5519  0.2309
 9422TIP3   OH228229   5.859   1.634   3.516 -0.8616  0.3001  0.0208
 9422TIP3    H128230   5.867   1.729   3.526 -1.2338  0.1160  3.3390
 9422TIP3    H228231   5.942   1.599   3.549 -0.8413 -0.5417 -0.8862
 9423TIP3   OH228232   1.829   5.010   0.631  0.6894  0.3948  0.3288
 9423TIP3    H128233   1.764   4.953   0.589  0.1328  1.7294 -0.6999
 9423TIP3    H228234   1.817   4.994   0.725  0.5507 -1.1626  0.0596
 9424TIP3   OH228235   2.061   3.742   4.529  0.1758 -0.2662  0.2548
 9424TIP3    H128236   2.113   3.753   4.450  0.8731 -3.2346  0.1732
 9424TIP3    H228237   1.974   3.715   4.498  0.5134 -1.6513  0.4399
 9425TIP3   OH228238   6.624   1.859   0.845 -0.1775 -0.3598  0.2785
 9425TIP3    H128239   6.626   1.828   0.935 -1.0128 -0.5764  0.2311
 9425TIP3    H228240   6.713   1.843   0.812 -0.2774 -1.6983  0.5931
 9426TIP3   OH228241   0.933   4.716   2.866 -0.5871 -0.1078  0.3405
 9426TIP3    H128242   0.928   4.622   2.848  1.2103 -0.4209  1.2597
 9426TIP3    H228243   0.954   4.756   2.781  2.4826 -0.9974  0.5553
 9427TIP3   OH228244   0.283   2.601   4.743 -0.2397 -0.0846  0.1452
 9427TIP3    H128245   0.344   2.661   4.785  0.3005 -0.5738  0.0744
 9427TIP3    H228246   0.211   2.657   4.713  1.3245  0.9358 -2.0462
 9428TIP3   OH228247   0.994   2.418   2.861  0.3247 -0.6541  0.1431
 9428TIP3    H128248   1.002   2.398   2.768  2.6540 -2.3580  0.6156
 9428TIP3    H228249   1.074   2.465   2.882  0.7460 -1.9348  1.6209
 9429TIP3   OH228250   1.344   0.282   0.039 -0.6847 -0.2062 -0.3632
 9429TIP3    H128251   1.376   0.192   0.048 -0.6948 -0.1702  0.0519
 9429TIP3    H228252   1.375   0.310  -0.047 -0.5332 -0.5466 -0.4212
 9430TIP3   OH228253   0.319   6.169   0.155 -0.3791  0.8339 -0.6804
 9430TIP3    H128254   0.318   6.217   0.237 -2.0853 -0.0640 -0.1108
 9430TIP3    H228255   0.229   6.177   0.122 -1.4074 -3.4035  0.4186
 9431TIP3   OH228256   1.885   4.387   5.426  0.3659 -0.3951  0.0798
 9431TIP3    H128257   1.801   4.394   5.381  0.4984  0.8434 -0.0304
 9431TIP3    H228258   1.899   4.474   5.464  1.1432 -0.8717  0.9212
 9432TIP3   OH228259   6.856   5.951   3.386  0.3549 -0.2184  0.8736
 9432TIP3    H128260   6.778   5.956   3.442  0.3360 -0.7166  0.8982
 9432TIP3    H228261   6.877   5.857   3.382 -0.9705 -0.5209 -1.7394
 9433TIP3   OH228262   4.212   1.142   2.432  0.3630 -0.6944  0.1486
 9433TIP3    H128263   4.233   1.114   2.343 -0.7877 -0.6007 -0.1566
 9433TIP3    H228264   4.291   1.189   2.461 -0.1629  1.5700 -1.7764
 9434TIP3   OH228265   2.399   0.696   0.923 -0.1287  0.3962 -0.6589
 9434TIP3    H128266   2.468   0.705   0.988 -1.0954  1.1138  0.3011
 9434TIP3    H228267   2.337   0.634   0.961 -0.8781  1.0933 -0.7008
 9435TIP3   OH228268   0.871   5.408   2.383 -0.3829 -0.4139  0.2982
 9435TIP3    H128269   0.966   5.404   2.386 -0.2922 -0.3362 -1.4753
 9435TIP3    H228270   0.848   5.484   2.437  0.4304 -1.2254  1.8546
 9436TIP3   OH228271   4.885   5.575   1.061 -0.4370 -0.4370  0.5474
 9436TIP3    H128272   4.870   5.588   1.155  3.0782 -0.8860  1.3219
 9436TIP3    H228273   4.912   5.483   1.054  1.8569  0.2472 -0.4399
 9437TIP3   OH228274   5.463   4.310   5.571  0.8794  0.1830  0.7790
 9437TIP3    H128275   5.549   4.269   5.563  1.4591  1.3572  0.7587
 9437TIP3    H228276   5.480   4.393   5.616 -0.0875  0.8922 -0.1185
 9438TIP3   OH228277   2.923   5.717   5.469  0.6789 -0.0816 -0.7114
 9438TIP3    H128278   2.928   5.769   5.550 -1.7964 -0.0991 -0.4648
 9438TIP3    H228279   2.994   5.653   5.478  2.0777  1.5029  0.2307
 9439TIP3   OH228280   0.604   0.814   5.858  0.2777 -0.2115 -0.5294
 9439TIP3    H128281   0.616   0.851   5.945 -1.4796  1.3061 -0.8748
 9439TIP3    H228282   0.645   0.727   5.863  0.9587  0.1824  1.5270
 9440TIP3   OH228283   3.854   2.630   0.184  0.0116  0.4024 -0.1006
 9440TIP3    H128284   3.797   2.634   0.108 -0.1282 -1.7577 -0.1735
 9440TIP3    H228285   3.799   2.663   0.256 -0.5291  0.5492 -0.5681
 9441TIP3   OH228286   6.357   3.350   4.613 -0.1681  0.3325 -0.4535
 9441TIP3    H128287   6.413   3.272   4.611 -0.3313  0.1438  1.1846
 9441TIP3    H228288   6.287   3.330   4.550  0.6522 -0.1617 -1.2244
 9442TIP3   OH228289   0.287   3.604   5.811  0.3078  0.4724  0.2798
 9442TIP3    H128290   0.240   3.601   5.895  0.6527  0.0820  0.4626
 9442TIP3    H228291   0.347   3.677   5.821  0.3615  0.4153  0.3824
 9443TIP3   OH228292   2.143   3.062   3.312 -0.2179 -0.1511 -0.0819
 9443TIP3    H128293   2.118   3.009   3.236  1.1133  0.0360 -0.6823
 9443TIP3    H228294   2.221   3.019   3.346  0.0370  0.6042  0.2967
 9444TIP3   OH228295   6.767   2.528   5.061 -0.4326  0.2992  0.2989
 9444TIP3    H128296   6.861   2.543   5.065 -0.1135 -1.5578  1.4283
 9444TIP3    H228297   6.749   2.510   4.969  0.6197 -0.7915  0.2742
 9445TIP3   OH228298   1.514   1.839   2.171 -0.1987 -0.1480  0.0282
 9445TIP3    H128299   1.472   1.876   2.093  0.9627  0.2777 -0.4202
 9445TIP3    H228300   1.608   1.841   2.151  0.0580 -0.8919  1.0733
 9446TIP3   OH228301   1.207   6.082   0.623  0.3194 -0.0290  0.0840
 9446TIP3    H128302   1.197   6.093   0.718  0.0303 -4.2758  0.7529
 9446TIP3    H228303   1.301   6.073   0.609  0.3928  0.9880 -0.1204
 9447TIP3   OH228304   3.196   4.711   1.624  0.1210 -0.3066  0.2345
 9447TIP3    H128305   3.289   4.734   1.620  0.2319 -0.7166  0.4939
 9447TIP3    H228306   3.195   4.618   1.643 -0.3429 -0.3953 -0.2163
 9448TIP3   OH228307   6.708   0.851   1.270  0.1536  0.7445  0.1774
 9448TIP3    H128308   6.632   0.794   1.282  0.7130 -0.5905 -2.1062
 9448TIP3    H228309   6.673   0.928   1.224 -0.1592  1.1592  1.0757
 9449TIP3   OH228310   3.517   2.005   2.052 -0.2439 -0.7473 -0.3585
 9449TIP3    H128311   3.505   1.941   1.982 -1.1725 -0.0803 -0.8203
 9449TIP3    H228312   3.446   2.068   2.040  0.7499  0.4697 -0.0202
 9450TIP3   OH228313   6.716   6.232   2.043 -0.5057 -0.1807  0.3418
 9450TIP3    H128314   6.636   6.223   1.991 -0.2684  0.6871 -0.1791
 9450TIP3    H228315   6.784   6.189   1.991 -0.2308  0.8458 -0.1791
 9451TIP3   OH228316   4.517   0.822   1.945  0.2134 -0.1367 -0.7139
 9451TIP3    H128317   4.508   0.773   1.863 -1.0902  0.9438 -1.2595
 9451TIP3    H228318   4.508   0.755   2.014 -0.2090 -0.8543 -1.4458
 9452TIP3   OH228319   2.523   3.223   4.422 -0.0286 -0.3047  0.2999
 9452TIP3    H128320   2.524   3.198   4.514 -0.5826  0.1670  0.4406
 9452TIP3    H228321   2.465   3.159   4.380  0.2244 -0.5199  0.2732
 9453TIP3   OH228322   6.658   4.110   4.131  0.0159 -0.2135  0.4504
 9453TIP3    H128323   6.587   4.067   4.179 -0.9317  0.7517 -0.0524
 9453TIP3    H228324   6.624   4.196   4.109  0.5525 -0.4512 -1.5950
 9454TIP3   OH228325   2.944   4.892   1.207  0.1258  0.1627 -0.2112
 9454TIP3    H128326   2.994   4.823   1.163  0.6414  0.3963  0.0058
 9454TIP3    H228327   2.910   4.849   1.286 -1.5782 -0.5241 -1.2633
 9455TIP3   OH228328   1.411   4.431   2.192 -0.7250 -0.2870 -0.1138
 9455TIP3    H128329   1.399   4.405   2.283 -1.0126  1.8392  0.5078
 9455TIP3    H228330   1.397   4.525   2.192  1.5966  0.1530 -1.9430
 9456TIP3   OH228331   3.230   0.140   1.355  0.5829 -0.1775  0.5304
 9456TIP3    H128332   3.275   0.224   1.367 -0.4727  0.5404 -0.2884
 9456TIP3    H228333   3.263   0.108   1.271 -0.2578  0.2695  0.0096
 9457TIP3   OH228334   5.664   1.276   1.713 -0.2697  0.2425 -0.8480
 9457TIP3    H128335   5.668   1.191   1.668  0.0249 -0.3728  0.2934
 9457TIP3    H228336   5.752   1.289   1.747 -1.4426 -1.7796  3.8223
 9458TIP3   OH228337   0.593   5.860   5.529  0.0387  0.5354  0.2252
 9458TIP3    H128338   0.559   5.938   5.573 -2.2277  0.3496 -1.0745
 9458TIP3    H228339   0.645   5.816   5.596 -0.7018  1.8618  1.7391
 9459TIP3   OH228340   0.612   0.423   3.433  0.0398 -0.1984  0.2815
 9459TIP3    H128341   0.577   0.440   3.346  0.4878  0.2895  0.1924
 9459TIP3    H228342   0.535   0.403   3.486 -0.2666 -0.1919 -0.1538
 9460TIP3   OH228343   6.836   3.656   2.628 -0.4632 -0.1800 -0.1358
 9460TIP3    H128344   6.819   3.737   2.581  1.0958 -0.1098 -0.6255
 9460TIP3    H228345   6.920   3.671   2.673 -0.3036 -1.4035  0.0147
 9461TIP3   OH228346   2.881   5.682   1.919 -0.1564  0.0714  0.3499
 9461TIP3    H128347   2.861   5.715   2.006  0.5608 -0.7847  0.8537
 9461TIP3    H228348   2.795   5.669   1.878 -0.4716  1.6077  0.4734
 9462TIP3   OH228349   0.400   3.860   5.768  0.2272  0.0483 -0.6079
 9462TIP3    H128350   0.463   3.862   5.696  2.3276 -0.4861  1.1150
 9462TIP3    H228351   0.388   3.952   5.791 -2.2239  0.4640 -2.9448
 9463TIP3   OH228352   3.219   6.501   0.234  0.0732  0.1642 -0.1153
 9463TIP3    H128353   3.244   6.411   0.256 -1.3493 -0.5229 -1.1846
 9463TIP3    H228354   3.297   6.538   0.191  0.0511 -1.1952 -1.3916
 9464TIP3   OH228355   5.246   5.404   0.580  0.3018 -0.2998 -0.2249
 9464TIP3    H128356   5.153   5.408   0.603  0.2147 -1.0167 -0.4140
 9464TIP3    H228357   5.291   5.383   0.662  0.1216 -1.5604 -0.4188
 9465TIP3   OH228358   1.204   6.254   4.513  0.1472  0.1229  0.2068
 9465TIP3    H128359   1.123   6.226   4.557  0.6208 -1.5459  0.0468
 9465TIP3    H228360   1.267   6.264   4.584  0.1953  0.0336  0.1755
 9466TIP3   OH228361   3.184   0.591   0.652 -0.0021  0.2489  0.1639
 9466TIP3    H128362   3.220   0.679   0.639 -0.5072  0.4488  0.1057
 9466TIP3    H228363   3.257   0.541   0.688  0.3020  0.6806  0.1613
 9467TIP3   OH228364   5.304   5.914   4.076  0.2647 -0.0012 -0.4125
 9467TIP3    H128365   5.228   5.896   4.132  1.3630 -1.2565  0.7649
 9467TIP3    H228366   5.373   5.861   4.114  1.7128  1.0326 -1.5241
 9468TIP3   OH228367   4.805   6.059   1.422  0.3285  0.2232 -0.4746
 9468TIP3    H128368   4.849   6.141   1.401  1.9915 -0.5590 -0.2141
 9468TIP3    H228369   4.874   5.993   1.419 -0.7747 -1.0216  0.2924
 9469TIP3   OH228370   3.923   3.241   0.243  0.0834  0.1460  0.1188
 9469TIP3    H128371   3.882   3.183   0.178  2.0242 -1.7391  0.4372
 9469TIP3    H228372   4.012   3.256   0.210  0.4699  0.7815  1.3594
 9470TIP3   OH228373   2.117   2.333   1.653  0.7134  0.1046 -0.7509
 9470TIP3    H128374   2.025   2.360   1.659  1.0248  1.1442 -0.5069
 9470TIP3    H228375   2.135   2.291   1.737  0.4743 -0.0630 -0.7814
 9471TIP3   OH228376   2.978   4.801   4.946  0.0874 -0.6126  0.3092
 9471TIP3    H128377   3.013   4.860   4.880  0.1509 -0.0817  0.8039
 9471TIP3    H228378   2.887   4.788   4.922  0.4244 -1.4190 -0.5763
 9472TIP3   OH228379   3.121   3.660   5.505  0.0396 -0.3708 -0.0228
 9472TIP3    H128380   3.105   3.752   5.526  0.9336 -0.3386  0.5535
 9472TIP3    H228381   3.209   3.642   5.538  1.1051 -0.6459 -2.7051
 9473TIP3   OH228382   2.133   3.421   3.238 -0.0790 -0.3369 -0.3830
 9473TIP3    H128383   2.052   3.403   3.285  0.0646 -0.5080 -0.1985
 9473TIP3    H228384   2.196   3.358   3.273  0.0156 -0.5063 -0.8477
 9474TIP3   OH228385   3.961   5.358   4.253 -0.4241 -0.0813  0.6100
 9474TIP3    H128386   4.028   5.358   4.322 -0.6822 -1.0104  0.8750
 9474TIP3    H228387   3.886   5.312   4.292 -0.6178 -0.5217 -0.2471
 9475TIP3   OH228388   2.043   3.886   3.402  0.0104  0.2869  0.5364
 9475TIP3    H128389   1.994   3.842   3.331  1.7245 -0.9505  0.0569
 9475TIP3    H228390   2.112   3.935   3.357  0.1513  0.7826  1.2795
 9476TIP3   OH228391   2.003   1.380   3.213 -0.4963 -0.1217  0.6744
 9476TIP3    H128392   2.062   1.337   3.152 -1.0615 -0.8520  0.6361
 9476TIP3    H228393   2.051   1.383   3.295 -0.2056 -0.2415  0.5072
 9477TIP3   OH228394   6.680   0.267   2.744 -0.0744  0.3086  0.1943
 9477TIP3    H128395   6.773   0.286   2.757  0.0472 -0.6518  0.8128
 9477TIP3    H228396   6.647   0.341   2.693  0.9994  0.7186  0.0798
 9478TIP3   OH228397   1.934   3.649   2.065  0.3704 -0.4042 -0.2192
 9478TIP3    H128398   1.997   3.584   2.035 -0.5571 -1.7808  0.7412
 9478TIP3    H228399   1.857   3.599   2.092 -0.7796  1.1546 -0.4209
 9479TIP3   OH228400   5.218  -0.011   0.922 -0.1016 -0.0265  1.0448
 9479TIP3    H128401   5.205   0.058   0.987  0.3423 -0.3009  1.4308
 9479TIP3    H228402   5.309  -0.037   0.933  0.0194  0.0187  0.2123
 9480TIP3   OH228403   1.458   6.780   4.241  0.1206 -0.8718 -0.5269
 9480TIP3    H128404   1.545   6.816   4.222 -0.0964  0.1259  0.2790
 9480TIP3    H228405   1.414   6.774   4.157  0.8017 -0.9462 -0.8820
 9481TIP3   OH228406   3.357   6.453   4.132 -0.5568  0.1678 -0.1561
 9481TIP3    H128407   3.352   6.481   4.040 -0.6227  1.8675  0.3343
 9481TIP3    H228408   3.447   6.423   4.143  0.1122  2.0186 -0.2539
 9482TIP3   OH228409   2.007   3.236   4.444 -0.1773  0.0779 -0.4196
 9482TIP3    H128410   1.938   3.242   4.510  2.0815 -0.9604  2.2243
 9482TIP3    H228411   1.994   3.150   4.404 -0.2771 -0.2253  0.2559
 9483TIP3   OH228412   2.276   5.505   4.677 -0.2224 -0.5619 -0.0593
 9483TIP3    H128413   2.215   5.532   4.608  0.6512 -0.6662 -0.8936
 9483TIP3    H228414   2.363   5.512   4.636  0.1467 -3.7758 -0.0835
 9484TIP3   OH228415   2.529   1.118   3.443  0.1053 -0.0720  1.0112
 9484TIP3    H128416   2.549   1.173   3.367  0.7935  0.2113  1.3866
 9484TIP3    H228417   2.602   1.133   3.503 -0.3543 -0.4107  1.6650
 9485TIP3   OH228418   4.953   2.095   5.209  0.0537  0.3701 -0.0984
 9485TIP3    H128419   4.960   2.109   5.304  1.4918 -0.9885  0.0335
 9485TIP3    H228420   4.995   2.172   5.171 -0.7769  1.0570  0.3597
 9486TIP3   OH228421   5.748   6.254   0.824  0.0608 -0.3192 -0.0936
 9486TIP3    H128422   5.797   6.172   0.817  2.1044  0.9022 -0.9801
 9486TIP3    H228423   5.812   6.317   0.860 -1.2915  1.0118  0.0720
 9487TIP3   OH228424   0.026   2.988   2.166  0.1080  0.4635  0.4484
 9487TIP3    H128425   0.001   3.061   2.109 -0.7093  0.4781  0.8167
 9487TIP3    H228426   0.121   2.997   2.176  0.4891 -0.2858 -1.9489
 9488TIP3   OH228427   0.903   3.425   0.610 -0.2070  0.1281 -0.1414
 9488TIP3    H128428   0.933   3.363   0.544 -0.5054 -2.6496  2.1023
 9488TIP3    H228429   0.815   3.449   0.581 -0.6028 -1.5594 -0.4905
 9489TIP3   OH228430   3.111   4.449   2.271 -0.7170 -0.1572 -0.4220
 9489TIP3    H128431   3.137   4.499   2.348 -0.7839  0.0913 -0.5618
 9489TIP3    H228432   3.153   4.494   2.197  1.0665 -1.5747 -0.3434
 9490TIP3   OH228433   0.235   6.660   1.923 -0.4594 -0.6083 -0.0307
 9490TIP3    H128434   0.237   6.738   1.868  0.3791  0.0840  0.9484
 9490TIP3    H228435   0.215   6.692   2.011 -1.0420 -1.6081  0.2228
 9491TIP3   OH228436   3.888   6.463   1.250  0.4581 -0.7478 -0.0551
 9491TIP3    H128437   3.951   6.498   1.187 -0.4812 -0.1962 -0.7077
 9491TIP3    H228438   3.937   6.397   1.298  1.5475 -0.3048 -0.5232
 9492TIP3   OH228439   2.576   2.393   0.190 -0.4001  0.5810  0.0199
 9492TIP3    H128440   2.488   2.378   0.157 -0.4799 -0.1632  0.5442
 9492TIP3    H228441   2.600   2.311   0.233  0.1390  1.1241  0.7877
 9493TIP3   OH228442   3.050   1.909   2.713  0.2175 -0.0656  0.1726
 9493TIP3    H128443   3.138   1.906   2.674  0.4009 -2.6162  0.6195
 9493TIP3    H228444   3.066   1.905   2.807 -0.3817 -1.5214  0.2264
 9494TIP3   OH228445   1.422   2.840   1.655  0.4685 -0.3349  0.4262
 9494TIP3    H128446   1.375   2.768   1.612 -1.4398  0.7212  0.6548
 9494TIP3    H228447   1.504   2.846   1.607 -0.5860 -0.7404 -1.5575
 9495TIP3   OH228448   6.544   5.393   1.583  0.3539  0.2527 -0.3959
 9495TIP3    H128449   6.498   5.406   1.666  0.4045  1.3123 -0.5175
 9495TIP3    H228450   6.637   5.394   1.606  0.3485 -1.1898 -0.2449
 9496TIP3   OH228451   5.372   1.184   2.525 -0.5424 -0.4104 -0.1570
 9496TIP3    H128452   5.423   1.140   2.457  2.4873  0.9942  1.0200
 9496TIP3    H228453   5.405   1.146   2.607  1.1638  2.8608  0.8195
 9497TIP3   OH228454   0.648   3.896   1.069  0.2539  0.0358 -0.4583
 9497TIP3    H128455   0.679   3.934   1.151  0.9949 -0.6579 -0.4166
 9497TIP3    H228456   0.610   3.971   1.021  0.4732  0.5743  0.1950
 9498TIP3   OH228457   5.941   1.122   2.211  0.4623 -0.2313 -0.3474
 9498TIP3    H128458   5.889   1.154   2.138  1.7989 -1.0235 -1.7016
 9498TIP3    H228459   5.906   1.035   2.230  0.3758 -0.1892 -0.3154
 9499TIP3   OH228460   4.988   5.701   1.903 -0.9748  0.1872  0.1498
 9499TIP3    H128461   5.069   5.713   1.854 -2.0276  0.4626 -1.5906
 9499TIP3    H228462   4.981   5.780   1.956  0.1805 -0.1139  0.7884
 9500TIP3   OH228463   1.302   2.956   2.915 -0.5966 -0.0486  0.3539
 9500TIP3    H128464   1.318   2.924   2.826  0.7347 -1.2036  0.9749
 9500TIP3    H228465   1.330   3.048   2.912 -1.8879  0.3525 -0.7440
 9501TIP3   OH228466   6.784   2.899   2.150 -0.7340 -0.3591  0.4513
 9501TIP3    H128467   6.765   2.870   2.239 -2.4726 -0.9178 -0.0568
 9501TIP3    H228468   6.760   2.824   2.095  4.1070 -1.6823 -0.3722
 9502TIP3   OH228469   1.733   1.686   5.743 -0.7526  0.3038 -0.3044
 9502TIP3    H128470   1.712   1.751   5.675  0.9798  0.8786 -0.3348
 9502TIP3    H228471   1.760   1.609   5.693  0.9030  0.8533 -0.3318
 9503TIP3   OH228472   0.909   6.559   2.380 -0.5462 -0.5880 -0.2318
 9503TIP3    H128473   0.951   6.522   2.458 -1.7860 -0.6790  0.4178
 9503TIP3    H228474   0.931   6.652   2.383 -0.2621 -0.6614  0.0222
 9504TIP3   OH228475   5.735   6.621   3.771  0.1405  0.9306 -0.4124
 9504TIP3    H128476   5.738   6.580   3.685  1.7276  1.3628 -0.6053
 9504TIP3    H228477   5.804   6.576   3.821  0.0332  1.4863  0.2498
 9505TIP3   OH228478   2.087   5.948   0.835  0.9274  0.2650 -0.3857
 9505TIP3    H128479   2.041   5.981   0.758  0.0375 -0.1302 -0.0477
 9505TIP3    H228480   2.072   5.853   0.832 -1.1854  0.4609  1.5214
 9506TIP3   OH228481   1.478   1.261   4.388 -1.1919  0.5113  0.1751
 9506TIP3    H128482   1.510   1.348   4.411 -1.0826  0.3630  0.6001
 9506TIP3    H228483   1.393   1.277   4.348 -1.1203  0.8229  0.1424
 9507TIP3   OH228484   3.700   5.401   1.968  0.0541  0.0317  0.3423
 9507TIP3    H128485   3.787   5.361   1.968 -0.0558 -0.2301 -0.2294
 9507TIP3    H228486   3.687   5.433   2.057  0.3988 -0.6600  0.6456
 9508TIP3   OH228487   0.444   1.551   4.048  0.3426 -0.1976  0.1602
 9508TIP3    H128488   0.351   1.566   4.031  0.4318  1.0525  0.6775
 9508TIP3    H228489   0.489   1.615   3.992  0.8909 -0.6921  0.0237
 9509TIP3   OH228490   2.539   2.664   1.182  0.4852 -0.0555 -0.0609
 9509TIP3    H128491   2.468   2.728   1.172 -0.0170 -0.5130  0.4727
 9509TIP3    H228492   2.524   2.625   1.268  0.2958 -1.4922 -0.7185
 9510TIP3   OH228493   2.327   0.552   3.689 -0.2996 -0.4466  0.6561
 9510TIP3    H128494   2.385   0.597   3.751  0.2995  0.6050 -0.6232
 9510TIP3    H228495   2.362   0.575   3.603 -1.8649 -0.8432 -0.1128
 9511TIP3   OH228496   1.370   5.479   0.038 -0.2613  0.2921 -0.2821
 9511TIP3    H128497   1.412   5.473   0.125  0.7600  0.9835 -0.7117
 9511TIP3    H228498   1.352   5.572   0.027 -0.2675  0.2197 -0.8682
 9512TIP3   OH228499   4.526   5.693   5.805  0.4290  0.6693  0.1746
 9512TIP3    H128500   4.489   5.710   5.891 -2.7958 -1.6793 -0.5534
 9512TIP3    H228501   4.616   5.663   5.822 -0.7370 -1.7011  2.9657
 9513TIP3   OH228502   0.755   0.145   3.140 -0.0991 -0.5095  0.2212
 9513TIP3    H128503   0.753   0.207   3.214  1.3329  0.3489 -0.4156
 9513TIP3    H228504   0.757   0.200   3.062  0.8222 -1.3462 -0.3795
 9514TIP3   OH228505   4.154   2.340   5.517 -0.1025 -0.4229  0.6505
 9514TIP3    H128506   4.109   2.334   5.601 -0.1393 -1.9020  0.5576
 9514TIP3    H228507   4.101   2.400   5.465 -1.3475 -1.2493  0.9319
 9515TIP3   OH228508   3.446   1.055   5.674  0.0456 -0.2638  0.4521
 9515TIP3    H128509   3.361   1.016   5.654 -0.2703 -0.1146  1.4618
 9515TIP3    H228510   3.446   1.138   5.627  0.5998 -1.2767 -1.4673
 9516TIP3   OH228511   3.823   5.061   4.216  0.0196  0.2996 -0.3496
 9516TIP3    H128512   3.876   4.984   4.196  0.4243  0.2932  0.6920
 9516TIP3    H228513   3.791   5.091   4.131 -0.4381 -1.2125 -0.7479
 9517TIP3   OH228514   5.251   4.192   1.243 -0.3204  0.1109  0.0224
 9517TIP3    H128515   5.162   4.207   1.211 -0.3248 -0.0667 -0.0473
 9517TIP3    H228516   5.250   4.104   1.279  0.4798 -0.9525 -2.3338
 9518TIP3   OH228517   1.776   6.555   2.587  0.2450 -0.2975 -0.6641
 9518TIP3    H128518   1.824   6.477   2.561  0.8527  0.1506 -0.9257
 9518TIP3    H228519   1.694   6.551   2.537  0.1747 -0.8760 -0.5042
 9519TIP3   OH228520   2.424   1.816   2.717  0.0701  0.4199 -0.7681
 9519TIP3    H128521   2.385   1.756   2.653 -1.6046 -1.3731  1.7028
 9519TIP3    H228522   2.349   1.846   2.770  1.5319  0.2154  1.5601
 9520TIP3   OH228523   6.976   6.750   5.572 -0.0266  0.0881  0.3969
 9520TIP3    H128524   7.019   6.718   5.493  1.6650  0.8509  0.9736
 9520TIP3    H228525   6.988   6.679   5.636 -0.7654 -0.2220  0.2123
 9521TIP3   OH228526   4.080   1.645   5.238 -0.0691 -0.0228  0.4428
 9521TIP3    H128527   4.134   1.628   5.315 -0.0535  2.2791  1.0000
 9521TIP3    H228528   3.990   1.642   5.271 -0.2365 -1.8003 -0.0687
 9522TIP3   OH228529   6.741   3.405   0.956 -0.5254 -0.7161 -0.3207
 9522TIP3    H128530   6.656   3.438   0.982 -0.1363  0.2621 -0.2484
 9522TIP3    H228531   6.793   3.405   1.036  0.3346  1.2480 -0.8008
 9523TIP3   OH228532   3.431   4.721   2.900  0.0955  0.6930 -0.5528
 9523TIP3    H128533   3.405   4.762   2.982  0.1239 -0.5341  0.0972
 9523TIP3    H228534   3.505   4.773   2.869  0.8955  0.4497  0.8610
 9524TIP3   OH228535   2.476   6.661   0.858 -0.1033  0.4337 -0.4522
 9524TIP3    H128536   2.502   6.752   0.874 -0.0547  0.2489  0.5889
 9524TIP3    H228537   2.423   6.637   0.933  1.0823 -0.8517  0.0243
 9525TIP3   OH228538   2.833   5.443   2.424  0.1125  0.2615 -0.4395
 9525TIP3    H128539   2.869   5.460   2.337 -0.8062  0.5958 -0.7775
 9525TIP3    H228540   2.750   5.398   2.407  1.2516 -2.2872  0.3701
 9526TIP3   OH228541   1.026   2.242   1.626  0.5830  0.8569 -0.1016
 9526TIP3    H128542   0.984   2.308   1.682  0.4848  1.1144 -0.4756
 9526TIP3    H228543   0.954   2.203   1.578  0.7778  1.3883 -0.8392
 9527TIP3   OH228544   3.518   0.582   1.439 -0.1781 -0.0003 -0.1756
 9527TIP3    H128545   3.506   0.498   1.395 -0.6989  0.7059 -1.4431
 9527TIP3    H228546   3.569   0.635   1.377 -2.3278  1.5844 -0.7070
 9528TIP3   OH228547   3.345   3.558   2.989  0.5018  0.0221 -0.7234
 9528TIP3    H128548   3.351   3.464   3.003  1.2906  0.2352  0.5038
 9528TIP3    H228549   3.320   3.594   3.074 -2.5487  0.7292 -1.7791
 9529TIP3   OH228550   5.972   0.998   5.700  0.0670  0.4072 -0.0877
 9529TIP3    H128551   5.985   1.043   5.784 -0.4076  0.8144 -0.2253
 9529TIP3    H228552   6.059   0.967   5.675  0.4806  1.6202 -0.1952
 9530TIP3   OH228553   6.516   4.170   2.970  0.1905 -0.3678  0.1260
 9530TIP3    H128554   6.538   4.162   3.063 -0.2083 -1.8341  0.1247
 9530TIP3    H228555   6.599   4.192   2.928  1.0027 -2.3458  0.5457
 9531TIP3   OH228556   7.013   0.762   0.427  0.0973 -0.1533 -0.0629
 9531TIP3    H128557   7.022   0.680   0.475  0.3976 -0.0457  0.0724
 9531TIP3    H228558   6.934   0.802   0.463 -0.4372 -0.6985 -0.6151
 9532TIP3   OH228559   3.541   4.034   4.568 -0.4286  0.3402  0.3323
 9532TIP3    H128560   3.464   3.976   4.571 -1.1946  1.3515  0.8808
 9532TIP3    H228561   3.518   4.106   4.626  0.2461  1.5193 -0.8289
 9533TIP3   OH228562   5.740   2.232   3.918  0.6060  0.3450  0.2459
 9533TIP3    H128563   5.669   2.172   3.893  1.5946  0.6247 -4.1315
 9533TIP3    H228564   5.696   2.301   3.968 -2.0362 -0.1913 -1.1190
 9534TIP3   OH228565   5.255   1.059   0.495 -0.3598  0.2235  0.4699
 9534TIP3    H128566   5.167   1.094   0.500  0.3514  2.4434 -1.0086
 9534TIP3    H228567   5.273   1.051   0.401  1.0145 -0.1675  0.7327
 9535TIP3   OH228568   5.143   4.934   4.974  0.1325  0.6823 -0.1598
 9535TIP3    H128569   5.118   4.936   5.067  0.1801  0.5436 -0.1446
 9535TIP3    H228570   5.062   4.912   4.928  0.4920 -1.1068 -0.0134
 9536TIP3   OH228571   0.306   0.548   1.330  0.3204  0.0225  0.3464
 9536TIP3    H128572   0.328   0.529   1.422  0.2836 -1.6478  0.0368
 9536TIP3    H228573   0.384   0.593   1.296  1.8039 -2.4200  0.2997
 9537TIP3   OH228574   4.554   2.536   2.385  0.4772  0.4410 -0.0913
 9537TIP3    H128575   4.550   2.558   2.478  2.2242 -0.3740  0.2102
 9537TIP3    H228576   4.628   2.476   2.377 -0.9244 -1.2195 -1.6735
 9538TIP3   OH228577   5.705   6.191   1.426 -0.0274 -0.1447 -0.7770
 9538TIP3    H128578   5.786   6.157   1.464 -0.1145 -0.7988 -1.1645
 9538TIP3    H228579   5.647   6.115   1.422 -0.8082  0.3940 -0.1395
 9539TIP3   OH228580   0.965   0.352   2.752 -0.3231  0.2468 -0.3185
 9539TIP3    H128581   1.019   0.431   2.742 -0.9968  0.7807  0.1277
 9539TIP3    H228582   0.921   0.364   2.836  0.6283 -1.2893  0.4307
 9540TIP3   OH228583   4.447   0.146   3.890  0.3134 -0.3035 -0.3397
 9540TIP3    H128584   4.414   0.184   3.972  3.2236 -0.1250  0.8600
 9540TIP3    H228585   4.382   0.079   3.867 -0.6402 -0.3270  2.1019
 9541TIP3   OH228586   6.047   2.542   0.312 -0.0943 -0.4630  0.1495
 9541TIP3    H128587   6.046   2.498   0.226 -0.0492  0.8176 -0.5249
 9541TIP3    H228588   6.096   2.623   0.297 -0.7498  0.1505  1.2079
 9542TIP3   OH228589   0.541   1.810   4.351 -0.1002  0.0029  0.1487
 9542TIP3    H128590   0.454   1.829   4.314 -0.7050  0.2189  1.6106
 9542TIP3    H228591   0.525   1.802   4.445  1.3448 -0.7700  0.3446
 9543TIP3   OH228592   2.714   6.731   1.554  0.0632 -0.1392 -0.1743
 9543TIP3    H128593   2.696   6.741   1.461  0.1539 -1.0941 -0.3046
 9543TIP3    H228594   2.677   6.810   1.594 -0.7032 -0.1018 -0.9169
 9544TIP3   OH228595   5.002   0.227   3.420  0.0536 -0.1086 -0.1358
 9544TIP3    H128596   4.990   0.185   3.505 -0.2574 -0.4219 -0.3324
 9544TIP3    H228597   4.996   0.156   3.357  0.1137  0.1466 -0.4328
 9545TIP3   OH228598   2.940   1.137   4.192  0.6182  0.2034 -0.4189
 9545TIP3    H128599   2.851   1.121   4.161  0.9607  1.0111 -1.9208
 9545TIP3    H228600   2.943   1.232   4.208  0.4470 -0.1603  2.2596
 9546TIP3   OH228601   6.553   1.392   4.515  0.0771 -0.1562 -0.6313
 9546TIP3    H128602   6.546   1.322   4.580 -0.9497  0.8834  0.4394
 9546TIP3    H228603   6.640   1.430   4.531  0.6395 -1.1576 -1.2221
 9547TIP3   OH228604   5.631   0.964   4.577  0.1490 -0.0980 -0.0508
 9547TIP3    H128605   5.620   1.046   4.528 -0.3906 -1.1062 -1.6965
 9547TIP3    H228606   5.543   0.938   4.602  0.2791 -0.3707  0.1310
 9548TIP3   OH228607   3.881   4.570   2.170 -0.1249  0.2438  0.5940
 9548TIP3    H128608   3.863   4.604   2.083 -1.8330  0.6708  1.0912
 9548TIP3    H228609   3.807   4.513   2.190  1.7841 -2.5129  0.5000
 9549TIP3   OH228610   2.394   4.939   5.425  0.1236  0.1412  0.0440
 9549TIP3    H128611   2.333   4.995   5.377 -0.3200  0.5990  1.1129
 9549TIP3    H228612   2.355   4.851   5.420 -0.8044  0.4821  0.9745
 9550TIP3   OH228613   2.389   0.199   2.151 -0.0426 -0.0520  0.0899
 9550TIP3    H128614   2.468   0.146   2.142 -0.5955 -1.2599  1.8563
 9550TIP3    H228615   2.319   0.146   2.114 -0.0663  1.0869 -1.6324
 9551TIP3   OH228616   5.610   1.251   3.986 -0.1774  0.3305  0.6608
 9551TIP3    H128617   5.555   1.319   3.948 -0.9507 -0.6599 -0.0528
 9551TIP3    H228618   5.637   1.286   4.071 -0.6384  1.4649  0.3565
 9552TIP3   OH228619   3.096   4.304   5.340  0.0720 -0.0746  0.1921
 9552TIP3    H128620   3.116   4.387   5.382  0.9121 -0.8902  1.4824
 9552TIP3    H228621   3.066   4.248   5.411  1.7320 -1.5624 -0.2119
 9553TIP3   OH228622   1.858   1.453   3.632 -0.0132  0.2913 -0.1752
 9553TIP3    H128623   1.837   1.359   3.633  0.7556  0.0885 -1.6077
 9553TIP3    H228624   1.775   1.495   3.610 -0.0644 -0.1453 -0.8371
 9554TIP3   OH228625   0.359   2.794   5.027 -0.1241 -0.3154 -0.0840
 9554TIP3    H128626   0.443   2.793   4.982  1.3835 -1.3592  2.5527
 9554TIP3    H228627   0.347   2.885   5.055  1.4360 -0.6016  1.6845
 9555TIP3   OH228628   0.670   5.164   4.693  0.4535 -0.4935  0.4869
 9555TIP3    H128629   0.588   5.178   4.646  0.3097  0.8231  1.0960
 9555TIP3    H228630   0.730   5.231   4.659  0.3876  0.4001  2.0361
 9556TIP3   OH228631   4.878   1.237   3.551  0.7764 -0.1371 -0.5014
 9556TIP3    H128632   4.814   1.184   3.597 -0.7882  1.2505 -0.9925
 9556TIP3    H228633   4.948   1.251   3.615 -0.5875  0.3923  0.9361
 9557TIP3   OH228634   1.330   1.138   1.711  0.2401 -0.2715 -0.5414
 9557TIP3    H128635   1.305   1.095   1.793  0.7781  0.2040 -0.1189
 9557TIP3    H228636   1.335   1.067   1.647  0.9984 -0.8360  0.1196
 9558TIP3   OH228637   4.918   5.657   2.612 -0.3373  0.1058  0.4849
 9558TIP3    H128638   4.824   5.641   2.623 -0.1006 -0.2009  2.5039
 9558TIP3    H228639   4.923   5.743   2.570 -1.5299  0.2143  0.5387
 9559TIP3   OH228640   5.221   2.002   0.352  0.3532 -0.2937  0.0816
 9559TIP3    H128641   5.308   2.039   0.341 -0.1036  0.8152  0.0726
 9559TIP3    H228642   5.161   2.074   0.331 -0.5647 -1.1016 -0.1410
 9560TIP3   OH228643   0.044   5.139   0.473 -0.0688  0.0802  0.1260
 9560TIP3    H128644   0.086   5.221   0.446 -0.8592  0.0666 -1.2398
 9560TIP3    H228645   0.114   5.074   0.473  0.5216  0.6961  1.0107
 9561TIP3   OH228646   0.039   1.713   2.281 -0.4890 -0.4137 -0.1412
 9561TIP3    H128647   0.022   1.686   2.191  0.4350  0.3212 -0.5502
 9561TIP3    H228648   0.103   1.784   2.274 -2.0273  1.1802  0.9516
 9562TIP3   OH228649   4.410   6.426   3.995 -0.2818  0.1528 -0.0225
 9562TIP3    H128650   4.459   6.405   4.075  0.3511  1.7829  0.0609
 9562TIP3    H228651   4.352   6.497   4.021 -1.0163 -0.1789 -0.7108
 9563TIP3   OH228652   4.277   0.037   1.330  0.3591  0.6968  0.2798
 9563TIP3    H128653   4.218  -0.009   1.271  1.3793  1.2132 -1.2252
 9563TIP3    H228654   4.235   0.032   1.416 -2.3472  1.8583 -0.8547
 9564TIP3   OH228655   4.564   2.149   0.618  0.4651 -0.5476 -0.2190
 9564TIP3    H128656   4.610   2.092   0.556 -1.1350 -1.7273 -0.3759
 9564TIP3    H228657   4.505   2.091   0.665 -1.3163  0.9898 -0.4484
 9565TIP3   OH228658   3.878   2.678   3.082  0.2590  0.4264  0.3964
 9565TIP3    H128659   3.864   2.620   3.158 -1.1835 -0.5367 -0.5515
 9565TIP3    H228660   3.869   2.766   3.118 -2.5242 -0.0124  1.0574
 9566TIP3   OH228661   5.094   2.989   2.050  0.4765  0.4838 -0.3029
 9566TIP3    H128662   5.169   2.955   2.099  1.1331 -0.3630 -1.8388
 9566TIP3    H228663   5.018   2.959   2.099  1.1095  0.0790  0.4652
 9567TIP3   OH228664   2.650   3.395   1.526  0.1802 -0.5376  0.2990
 9567TIP3    H128665   2.738   3.433   1.532  0.8562 -2.2899  4.0497
 9567TIP3    H228666   2.665   3.301   1.522 -1.4861 -0.9375  2.3242
 9568TIP3   OH228667   1.969   0.319   1.706  0.1302  0.2683 -0.1625
 9568TIP3    H128668   1.919   0.381   1.652 -3.1213 -0.6358  1.5609
 9568TIP3    H228669   2.011   0.261   1.643  0.0450  1.8355 -1.7430
 9569TIP3   OH228670   5.614   1.174   4.405  0.1066  0.2644  0.2902
 9569TIP3    H128671   5.665   1.147   4.329 -3.4786 -0.4955 -2.1169
 9569TIP3    H228672   5.659   1.252   4.438  2.2146  0.2241 -2.1737
 9570TIP3   OH228673   4.883   5.029   0.799  0.0057 -0.7692 -0.0795
 9570TIP3    H128674   4.947   4.966   0.829 -0.5438 -0.5933  1.5211
 9570TIP3    H228675   4.813   4.976   0.760  0.8235 -0.9811 -1.3335
 9571TIP3   OH228676   2.035   2.686   2.885 -0.4303  0.0383  0.1578
 9571TIP3    H128677   2.083   2.603   2.886  0.8392  0.6167 -2.6999
 9571TIP3    H228678   1.947   2.663   2.856 -1.0463 -0.6192  2.3537
 9572TIP3   OH228679   5.425   6.335   2.351  0.6126  0.0729  0.0624
 9572TIP3    H128680   5.398   6.427   2.344  0.5720  0.2868  2.2065
 9572TIP3    H228681   5.449   6.324   2.443 -3.3937 -3.0915  1.0356
 9573TIP3   OH228682   1.002   5.603   1.230  0.1009  0.1472 -0.6601
 9573TIP3    H128683   0.996   5.545   1.154 -0.2710 -0.3830 -0.2316
 9573TIP3    H228684   0.913   5.635   1.244 -0.0611 -0.6604  0.2396
 9574TIP3   OH228685   3.744   4.613   3.205  0.1020 -0.0486 -0.6782
 9574TIP3    H128686   3.771   4.545   3.267  0.6507  1.0570  0.3355
 9574TIP3    H228687   3.731   4.566   3.123 -0.3405 -1.5129  0.1787
 9575TIP3   OH228688   0.993   4.444   0.172 -0.3386  0.7396 -0.9538
 9575TIP3    H128689   1.046   4.418   0.247 -0.8352  1.2209 -0.4230
 9575TIP3    H228690   0.932   4.371   0.160 -0.6196  0.8958 -0.5305
 9576TIP3   OH228691   1.613   2.269   4.512 -0.2830  0.2874  0.1422
 9576TIP3    H128692   1.707   2.270   4.531 -0.2823 -2.4089  0.7218
 9576TIP3    H228693   1.607   2.278   4.417  0.4690  1.3975  0.1761
 9577TIP3   OH228694   0.438   0.345   0.373  0.4786 -0.2215 -0.0089
 9577TIP3    H128695   0.357   0.302   0.346 -0.3764  0.1977  1.7564
 9577TIP3    H228696   0.429   0.435   0.341  0.1786 -0.1448  0.2796
 9578TIP3   OH228697   3.989   3.371   2.905 -0.0517 -0.3702  0.3438
 9578TIP3    H128698   4.082   3.349   2.906 -0.3940 -2.3807 -2.2624
 9578TIP3    H228699   3.944   3.286   2.903 -2.0983  0.4887  2.8608
 9579TIP3   OH228700   6.910   0.686   2.446 -1.0702 -0.2119  0.0614
 9579TIP3    H128701   6.819   0.701   2.470 -1.1278 -0.8613  0.2534
 9579TIP3    H228702   6.924   0.743   2.370 -1.7011 -0.2869 -0.1157
 9580TIP3   OH228703   1.741   0.445   0.065  0.5880  0.3771 -0.2448
 9580TIP3    H128704   1.786   0.418  -0.015  1.7019  0.3407  0.3634
 9580TIP3    H228705   1.677   0.510   0.036 -0.8696 -1.4793 -1.5009
 9581TIP3   OH228706   2.605   4.091   3.423 -0.0333 -0.1622 -0.0509
 9581TIP3    H128707   2.554   4.135   3.491  2.1323  0.8242  1.0447
 9581TIP3    H228708   2.566   4.004   3.416 -0.8757  0.0175  1.8451
 9582TIP3   OH228709   4.822   3.855   0.713  0.3442  0.1803 -0.4688
 9582TIP3    H128710   4.888   3.921   0.693 -1.3519  1.6248 -1.5513
 9582TIP3    H228711   4.814   3.857   0.809  0.2959  1.5935 -0.4801
 9583TIP3   OH228712   5.394   1.052   3.968  0.6086  0.5410  0.0938
 9583TIP3    H128713   5.413   1.046   3.875  0.6368 -0.1951  0.1380
 9583TIP3    H228714   5.473   1.091   4.006  0.3558  1.4153 -0.2626
 9584TIP3   OH228715   5.547   0.268   1.272  0.3830 -0.7048 -0.1867
 9584TIP3    H128716   5.598   0.201   1.227  1.0349  0.2769 -0.9508
 9584TIP3    H228717   5.609   0.312   1.329  0.3684  0.3825 -0.9903
 9585TIP3   OH228718   4.361   6.159   4.964 -0.3463  0.0793 -0.5377
 9585TIP3    H128719   4.374   6.089   5.027  1.2398 -0.9679 -1.9536
 9585TIP3    H228720   4.335   6.235   5.017  0.4349 -0.8873  1.3014
 9586TIP3   OH228721   4.421   4.792   4.141 -0.2965  1.0249  0.4566
 9586TIP3    H128722   4.369   4.872   4.148  0.2195  1.2515  2.2062
 9586TIP3    H228723   4.452   4.776   4.230  0.6602 -0.4273 -0.1034
 9587TIP3   OH228724   2.603   5.124   1.000 -0.8052  0.6616  0.4945
 9587TIP3    H128725   2.539   5.053   0.987  1.4987 -1.1148 -2.4243
 9587TIP3    H228726   2.651   5.097   1.078 -1.5003  0.3002  0.8146
 9588TIP3   OH228727   1.276   1.176   2.228 -0.3395 -0.2619 -0.0458
 9588TIP3    H128728   1.283   1.183   2.324  0.2974 -0.2024 -0.0944
 9588TIP3    H228729   1.185   1.150   2.213 -1.1121  1.9383  0.4575
 9589TIP3   OH228730   0.917   6.795   0.505  0.1621  0.5482 -0.5578
 9589TIP3    H128731   0.996   6.749   0.480 -0.0743 -0.1652 -0.0159
 9589TIP3    H228732   0.910   6.782   0.600 -1.0086 -0.0469 -0.7104
 9590TIP3   OH228733   2.195   0.473   0.284  0.1159 -0.2590  0.6293
 9590TIP3    H128734   2.153   0.482   0.199 -0.6443 -0.8406  0.9355
 9590TIP3    H228735   2.124   0.448   0.344  0.9999 -1.9940  1.0171
 9591TIP3   OH228736   3.943   0.566   4.552  0.3209 -0.2656 -0.5199
 9591TIP3    H128737   3.889   0.614   4.488 -0.1549  1.0535  0.8087
 9591TIP3    H228738   3.881   0.542   4.621  1.0729 -0.4913  0.0769
 9592TIP3   OH228739   5.764   6.185   4.901  0.0094  0.1320  0.2844
 9592TIP3    H128740   5.768   6.110   4.841 -0.0401  1.4244 -1.4262
 9592TIP3    H228741   5.855   6.214   4.909  0.0125 -0.0179  0.8406
 9593TIP3   OH228742   4.623   5.311   4.060 -0.3473  0.4359 -0.3144
 9593TIP3    H128743   4.701   5.354   4.096 -0.8922  0.5669  0.7364
 9593TIP3    H228744   4.632   5.220   4.087  0.1422  0.1406 -1.4142
 9594TIP3   OH228745   4.325   3.654   0.456 -0.0778  0.0514  0.3033
 9594TIP3    H128746   4.299   3.571   0.416  2.4310 -1.6182  1.9219
 9594TIP3    H228747   4.381   3.695   0.390  0.3112 -0.5298  0.2593
 9595TIP3   OH228748   6.424   2.979   0.756 -0.0143 -0.3749  0.0479
 9595TIP3    H128749   6.492   2.924   0.718 -2.4595 -2.7310 -1.2035
 9595TIP3    H228750   6.411   2.943   0.844 -0.2013 -0.4425 -0.0078
 9596TIP3   OH228751   0.542   4.576   0.231 -0.1839  0.5998  0.1994
 9596TIP3    H128752   0.634   4.589   0.211 -0.2555  1.3295  0.3253
 9596TIP3    H228753   0.495   4.620   0.160 -0.4331  1.0688  0.6486
 9597TIP3   OH228754   3.487  -0.001   2.473 -0.0610 -0.1775 -0.4856
 9597TIP3    H128755   3.542  -0.025   2.398 -0.7743  1.6025 -1.6486
 9597TIP3    H228756   3.520   0.085   2.499 -1.3270  0.2448 -0.2429
 9598TIP3   OH228757   1.472   6.543   4.388  0.5294 -0.3117  0.0554
 9598TIP3    H128758   1.462   6.630   4.348 -2.0417 -0.9242 -0.8407
 9598TIP3    H228759   1.473   6.560   4.482 -3.5190  0.6233  0.1376
 9599TIP3   OH228760   6.868   0.158   5.083  0.3426 -0.2288  0.3728
 9599TIP3    H128761   6.943   0.101   5.069  2.6254  2.1084  2.0647
 9599TIP3    H228762   6.857   0.159   5.178 -1.9402 -0.5365  0.1659
 9600TIP3   OH228763   2.159   1.912   3.411  0.4528 -0.3705 -0.2607
 9600TIP3    H128764   2.203   1.837   3.450  0.8159 -0.6383 -1.1555
 9600TIP3    H228765   2.089   1.933   3.472 -0.0510 -1.8404 -0.2876
 9601TIP3   OH228766   5.263   1.368   4.565 -0.3928 -0.8980  0.2832
 9601TIP3    H128767   5.224   1.309   4.501  1.7800 -2.4069  0.2320
 9601TIP3    H228768   5.302   1.438   4.513 -0.8598 -0.7272  0.1608
 9602TIP3   OH228769   0.435   2.744   2.108 -0.0524  0.1022  0.3900
 9602TIP3    H128770   0.522   2.780   2.093  0.0045 -0.7343 -1.6944
 9602TIP3    H228771   0.389   2.757   2.025 -0.6821 -2.6821  0.1820
 9603TIP3   OH228772   5.761   0.889   3.569  0.1676 -0.4234 -0.8483
 9603TIP3    H128773   5.692   0.829   3.598 -0.6308  0.5412 -0.6899
 9603TIP3    H228774   5.720   0.939   3.499 -0.1755  1.8871  0.8891
 9604TIP3   OH228775   1.341   6.678   1.956  0.1650 -0.1705  0.4036
 9604TIP3    H128776   1.430   6.713   1.957 -0.7401  2.3956  1.7315
 9604TIP3    H228777   1.332   6.639   1.869  2.7541 -1.1273  0.4649
 9605TIP3   OH228778   0.796   1.953   1.644 -0.2460  0.5935  0.2442
 9605TIP3    H128779   0.871   1.895   1.630  0.1531  1.0632  0.3870
 9605TIP3    H228780   0.823   2.036   1.606 -0.0390  1.2303  1.6947
 9606TIP3   OH228781   1.205   6.288   5.705 -0.0855 -0.2061  0.3701
 9606TIP3    H128782   1.166   6.375   5.693  1.0331  0.2361 -0.1887
 9606TIP3    H228783   1.144   6.229   5.659  0.5465  0.6425 -1.6914
 9607TIP3   OH228784   2.035   6.788   4.628 -0.2718 -0.7820  0.8226
 9607TIP3    H128785   2.088   6.721   4.585  1.1532  0.0981  1.1569
 9607TIP3    H228786   2.054   6.776   4.721  2.2951  1.8630  0.7616
 9608TIP3   OH228787   7.170   1.157   3.492  0.0474  0.4109 -0.1295
 9608TIP3    H128788   7.243   1.156   3.554 -0.0204  1.1406 -0.0317
 9608TIP3    H228789   7.206   1.197   3.413  0.1711 -0.6351 -0.6184
 9609TIP3   OH228790   3.079   5.432   2.589  0.0406 -0.4505  0.5146
 9609TIP3    H128791   3.093   5.515   2.542 -0.9848 -0.2263  0.5960
 9609TIP3    H228792   2.986   5.432   2.611  0.2838 -1.0502  1.6136
 9610TIP3   OH228793   4.483   5.944   2.643  0.0150  0.7732  0.0394
 9610TIP3    H128794   4.475   6.034   2.676  0.2753  1.0902 -0.7402
 9610TIP3    H228795   4.527   5.954   2.558  2.3593 -0.2767  1.0441
 9611TIP3   OH228796   6.844   0.151   4.472 -0.2966 -0.2681 -0.4877
 9611TIP3    H128797   6.930   0.111   4.458  0.2841  0.8913 -0.3130
 9611TIP3    H228798   6.856   0.209   4.547 -1.6655 -1.3169  0.6200
 9612TIP3   OH228799   6.829   2.600   0.168  0.3471 -0.0719  0.2409
 9612TIP3    H128800   6.904   2.620   0.112 -0.5155 -0.3395 -1.0572
 9612TIP3    H228801   6.788   2.685   0.186  0.7656  0.0399  0.6801
 9613TIP3   OH228802   3.922   3.832   2.124  0.2476 -0.5238 -0.0958
 9613TIP3    H128803   3.907   3.775   2.199  0.2119  1.2896  1.3547
 9613TIP3    H228804   3.838   3.876   2.110  0.6135  0.1223 -0.3225
 9614TIP3   OH228805   2.960   5.531   4.675  0.0942 -0.0206 -0.2104
 9614TIP3    H128806   2.986   5.565   4.589  0.9806  0.3149  0.1783
 9614TIP3    H228807   2.876   5.487   4.659  1.1840 -1.7323 -1.6725
 9615TIP3   OH228808   5.349   2.483   2.670  0.1769  0.2694  0.2252
 9615TIP3    H128809   5.379   2.393   2.685  1.1191  0.3706 -0.8682
 9615TIP3    H228810   5.428   2.531   2.647 -0.4981  1.0872 -0.4725
 9616TIP3   OH228811   0.361   4.516   2.868 -0.0310  0.5328 -0.5028
 9616TIP3    H128812   0.311   4.497   2.788  0.2264 -2.5033 -0.0604
 9616TIP3    H228813   0.304   4.489   2.939  0.3742  1.6956  0.2898
 9617TIP3   OH228814   4.812   2.575   0.158  0.6594  0.1945  0.5420
 9617TIP3    H128815   4.789   2.486   0.131  1.2257  0.4919 -1.0598
 9617TIP3    H228816   4.859   2.564   0.241  0.2627 -0.9473  0.6297
 9618TIP3   OH228817   0.493   4.638   1.979 -0.2649 -0.2504 -0.5449
 9618TIP3    H128818   0.563   4.665   2.038  0.0490  1.0193 -1.4695
 9618TIP3    H228819   0.513   4.546   1.958  0.1035 -0.4455  0.6013
 9619TIP3   OH228820   5.502   6.061   1.623 -0.2403  0.3295 -0.1653
 9619TIP3    H128821   5.576   6.006   1.649 -0.8782 -0.6251 -0.2915
 9619TIP3    H228822   5.466   6.093   1.706 -1.9509 -2.2829  0.2482
 9620TIP3   OH228823   2.800   4.963   3.463 -0.6159 -0.4975  0.4300
 9620TIP3    H128824   2.874   4.962   3.403 -0.7161  2.7281  0.0539
 9620TIP3    H228825   2.839   4.954   3.550 -0.0803 -1.4475  0.1007
 9621TIP3   OH228826   0.538   1.429   3.469 -0.6663 -0.2229  0.2761
 9621TIP3    H128827   0.569   1.339   3.483 -2.5842 -0.7343  1.6409
 9621TIP3    H228828   0.583   1.481   3.535 -0.7327 -0.4700  0.5169
 9622TIP3   OH228829   6.930   0.332   3.749  0.0581  0.5731 -0.4012
 9622TIP3    H128830   6.839   0.345   3.776 -0.4332 -0.1527 -1.6100
 9622TIP3    H228831   6.963   0.264   3.807 -1.4274 -2.0347 -2.3889
 9623TIP3   OH228832   5.428   0.385   0.803 -0.2792 -0.0405 -0.1209
 9623TIP3    H128833   5.418   0.397   0.897  0.1502 -0.1432 -0.0583
 9623TIP3    H228834   5.359   0.324   0.779 -0.1330 -0.3410  0.2019
 9624TIP3   OH228835   3.851   5.506   5.258 -0.0778  0.6100 -0.0491
 9624TIP3    H128836   3.887   5.555   5.331  0.4786  0.9449 -0.5439
 9624TIP3    H228837   3.867   5.561   5.181  3.3269 -1.5932 -1.1160
 9625TIP3   OH228838   4.744   3.617   3.459 -0.1426 -0.3319 -0.3995
 9625TIP3    H128839   4.683   3.566   3.512  1.3430 -0.0330  1.7459
 9625TIP3    H228840   4.831   3.583   3.483  0.7432  1.6700 -0.5620
 9626TIP3   OH228841   1.610   0.586   3.016  0.4837  0.3915  0.1240
 9626TIP3    H128842   1.625   0.503   3.060  0.6743  1.0600  1.3550
 9626TIP3    H228843   1.657   0.578   2.933  1.9003 -0.1138  0.9402
 9627TIP3   OH228844   2.490   4.097   0.952  0.4034  0.0620  0.0454
 9627TIP3    H128845   2.567   4.048   0.980  0.3896 -1.6167 -2.4868
 9627TIP3    H228846   2.514   4.132   0.866 -0.6275  2.1406  0.5461
 9628TIP3   OH228847   5.720   4.153   2.987 -0.3944  0.1140  0.1778
 9628TIP3    H128848   5.813   4.145   3.008 -0.3245  0.1061 -0.1350
 9628TIP3    H228849   5.687   4.063   2.993 -0.1758 -0.0331 -0.6614
 9629TIP3   OH228850   0.348   2.971   0.357  0.0619 -0.0301 -0.0868
 9629TIP3    H128851   0.312   2.899   0.305 -0.0544  1.5456 -2.3373
 9629TIP3    H228852   0.412   3.012   0.299  1.2100  0.8187  1.6926
 9630TIP3   OH228853   0.157   3.655   4.927 -0.1866  0.2111  0.5500
 9630TIP3    H128854   0.105   3.596   4.982 -1.1706  0.6121  0.0829
 9630TIP3    H228855   0.150   3.617   4.839 -1.1827  1.2285  0.1680
 9631TIP3   OH228856   0.382   3.148   1.292 -0.2051  0.1648  0.0285
 9631TIP3    H128857   0.404   3.122   1.381  2.7806 -0.0441 -0.6644
 9631TIP3    H228858   0.421   3.235   1.282  0.8265 -0.4223 -1.4744
 9632TIP3   OH228859   3.950   1.467   5.823 -0.7378  0.2605  0.5093
 9632TIP3    H128860   3.916   1.454   5.912  0.8598  0.3736  1.1601
 9632TIP3    H228861   3.931   1.559   5.804 -0.5323  0.4074  0.9869
 9633TIP3   OH228862   1.896   5.001   4.476  0.1245  0.0355  0.1447
 9633TIP3    H128863   1.852   4.918   4.491  2.4459 -1.1938  0.4476
 9633TIP3    H228864   1.869   5.026   4.387 -0.0703 -1.3808 -0.2205
 9634TIP3   OH228865   2.877   4.723   1.487  0.2390 -0.1808 -0.1586
 9634TIP3    H128866   2.838   4.711   1.574  1.2393 -0.3666  0.2751
 9634TIP3    H228867   2.923   4.641   1.469  0.6333  0.1206 -0.5545
 9635TIP3   OH228868   0.764   3.160   1.699 -0.0015 -0.4293 -0.6005
 9635TIP3    H128869   0.849   3.203   1.709  0.7304 -2.0764  0.7969
 9635TIP3    H228870   0.723   3.165   1.785 -1.3377  0.2980 -1.2458
 9636TIP3   OH228871   2.159   4.199   1.945 -0.0942  0.2349  0.3628
 9636TIP3    H128872   2.092   4.159   1.890  1.5474 -0.7773 -0.9837
 9636TIP3    H228873   2.158   4.148   2.026  0.3911 -1.1272 -0.4444
 9637TIP3   OH228874   5.658   1.506   3.404  0.2275 -0.5998  0.0902
 9637TIP3    H128875   5.734   1.553   3.439 -0.4573 -0.6375  1.7276
 9637TIP3    H228876   5.690   1.417   3.389  0.5108 -0.6215  0.7898
 9638TIP3   OH228877   7.153   2.377   1.180  0.4228  0.0158  0.2178
 9638TIP3    H128878   7.188   2.377   1.269  1.2787 -0.8831 -0.0979
 9638TIP3    H228879   7.229   2.365   1.124 -0.2345 -0.5478 -0.5820
 9639TIP3   OH228880   5.795   0.089   0.662 -0.0771  0.1021  0.1549
 9639TIP3    H128881   5.850   0.051   0.594 -1.1597 -0.1609 -0.6015
 9639TIP3    H228882   5.834   0.175   0.678  2.1848 -1.1028  1.6439
 9640TIP3   OH228883   3.736   3.351   1.611 -0.0829 -0.8004  0.1694
 9640TIP3    H128884   3.810   3.408   1.589 -1.8089  0.4640 -2.9278
 9640TIP3    H228885   3.766   3.303   1.688  2.8063  1.7551  0.8542
 9641TIP3   OH228886   0.500   5.116   2.165  0.4531  0.2248  0.1456
 9641TIP3    H128887   0.548   5.169   2.228  0.6037 -1.3665  1.4211
 9641TIP3    H228888   0.407   5.133   2.185  0.4930  0.6115  0.0100
 9642TIP3   OH228889   1.419   2.122   3.081  0.6176 -0.2204  0.3645
 9642TIP3    H128890   1.487   2.176   3.040  1.9307 -1.1164  1.2815
 9642TIP3    H228891   1.337   2.160   3.050  1.5189  0.4158 -1.4004
 9643TIP3   OH228892   2.794   6.570   4.591  0.0963  0.0506  0.2598
 9643TIP3    H128893   2.734   6.636   4.627 -0.3966 -0.4482  0.3683
 9643TIP3    H228894   2.877   6.587   4.636  0.2882  1.3078 -0.5360
 9644TIP3   OH228895   6.145   5.176   2.588 -0.1004 -0.5820 -0.2893
 9644TIP3    H128896   6.197   5.097   2.574  0.8087 -0.3253  1.3900
 9644TIP3    H228897   6.054   5.146   2.580  0.2219 -1.8536  0.5272
 9645TIP3   OH228898   4.686   1.169   4.403 -0.2988 -0.1975 -0.5130
 9645TIP3    H128899   4.690   1.256   4.364 -1.0172  0.3300  0.5560
 9645TIP3    H228900   4.729   1.179   4.488  0.0804 -1.0175 -0.5993
 9646TIP3   OH228901   4.326   4.777   3.002  0.3095  0.0079  0.2241
 9646TIP3    H128902   4.403   4.731   3.035 -0.0667 -0.9558 -0.1951
 9646TIP3    H228903   4.308   4.736   2.917 -0.9757 -0.1731  0.5577
 9647TIP3   OH228904   1.214   1.835   2.097  0.4792 -0.0803  0.0722
 9647TIP3    H128905   1.186   1.880   2.018  0.0502 -0.1827  0.1620
 9647TIP3    H228906   1.165   1.752   2.096  1.1967 -0.5073 -0.0512
 9648TIP3   OH228907   0.637   1.422   1.999  0.1440  0.4746 -0.0481
 9648TIP3    H128908   0.658   1.332   2.023 -1.4864 -0.3233 -1.4344
 9648TIP3    H228909   0.634   1.469   2.082  1.0712 -0.7132  0.6907
 9649TIP3   OH228910   0.824   2.979   0.101  0.5525  0.3739 -0.2035
 9649TIP3    H128911   0.896   3.031   0.137  0.7105 -0.4789  0.7488
 9649TIP3    H228912   0.867   2.903   0.063  0.4298  1.4270 -2.6125
 9650TIP3   OH228913   3.889   2.217   2.579 -0.7549 -0.3060  0.1598
 9650TIP3    H128914   3.824   2.242   2.513  0.0169 -1.5129 -1.1003
 9650TIP3    H228915   3.956   2.170   2.531  1.0720  0.8666  1.4382
 9651TIP3   OH228916   4.052   3.730   4.597  0.1872  0.0356 -0.0854
 9651TIP3    H128917   4.072   3.654   4.652  0.1839 -0.0669 -0.2243
 9651TIP3    H228918   4.095   3.711   4.514 -0.8875 -0.3999 -0.5483
 9652TIP3   OH228919   5.187   0.935   5.201  0.7353 -0.4316 -0.4610
 9652TIP3    H128920   5.231   0.948   5.117  0.7633  0.2045 -0.3546
 9652TIP3    H228921   5.255   0.905   5.260  0.8174 -0.4097 -0.5449
 9653TIP3   OH228922   5.855   4.761   1.771 -0.0741  0.6246  0.2545
 9653TIP3    H128923   5.782   4.770   1.833 -1.3670 -1.9346 -0.7814
 9653TIP3    H228924   5.814   4.767   1.685  0.7218 -1.8299 -0.3564
 9654TIP3   OH228925   2.162   1.077   0.104 -0.7922 -0.2253  0.2660
 9654TIP3    H128926   2.067   1.084   0.092 -0.5344  0.0729 -2.3552
 9654TIP3    H228927   2.198   1.143   0.044  1.0793 -0.9287  0.5444
 9655TIP3   OH228928   2.906   5.406   1.812  0.8335 -0.1829 -0.4505
 9655TIP3    H128929   2.901   5.484   1.867 -0.8436 -1.1186  0.7885
 9655TIP3    H228930   2.867   5.433   1.729 -0.8836 -0.0233  0.3824
 9656TIP3   OH228931   4.810   4.978   2.995  0.0126 -0.0085 -0.0079
 9656TIP3    H128932   4.735   4.990   2.936  0.4952  1.2153 -0.4006
 9656TIP3    H228933   4.872   5.047   2.969  0.6621 -0.0886  1.2759
 9657TIP3   OH228934   0.056   2.843   2.443  0.1622  0.3317  0.2485
 9657TIP3    H128935   0.142   2.814   2.472 -0.4411 -0.7955  0.9886
 9657TIP3    H228936   0.039   2.792   2.364 -0.1997 -0.1447  0.6229
 9658TIP3   OH228937   6.532   5.152   2.664  0.2579 -0.1413 -0.1121
 9658TIP3    H128938   6.595   5.223   2.654  0.8133 -0.4673  0.8971
 9658TIP3    H228939   6.450   5.195   2.687  0.3039  0.2355 -0.6266
 9659TIP3   OH228940   1.289   6.140   0.223 -0.3789  0.5093  0.4121
 9659TIP3    H128941   1.353   6.193   0.270 -0.1339  0.3210  0.2931
 9659TIP3    H228942   1.277   6.184   0.139  1.3245 -0.6912 -0.5029
 9660TIP3   OH228943   5.250   3.709   2.820 -0.9294 -0.0032 -0.4264
 9660TIP3    H128944   5.228   3.620   2.847  0.8579 -0.8242 -1.4877
 9660TIP3    H228945   5.295   3.746   2.896 -0.2894 -0.5783 -0.5103
 9661TIP3   OH228946   6.921   1.837   3.332 -0.1320 -0.3578 -0.8067
 9661TIP3    H128947   6.843   1.786   3.310 -0.1646 -0.9447  0.5558
 9661TIP3    H228948   6.994   1.785   3.299 -0.2934  0.3309 -2.3435
 9662TIP3   OH228949   3.895   6.453   1.991  0.5453 -0.3131 -0.1420
 9662TIP3    H128950   3.881   6.542   1.958 -0.1302  0.1301  1.2341
 9662TIP3    H228951   3.814   6.406   1.972  1.3584 -1.0447 -1.9946
 9663TIP3   OH228952   6.276   5.392   3.731  0.1912 -0.1468  0.0391
 9663TIP3    H128953   6.279   5.345   3.648 -0.9565  0.8339 -0.5954
 9663TIP3    H228954   6.201   5.354   3.777  0.8151 -0.6758  0.6249
 9664TIP3   OH228955   3.148   4.122   4.017  0.3208  0.0334  0.0834
 9664TIP3    H128956   3.186   4.183   3.954 -0.3748  0.2912 -0.0952
 9664TIP3    H228957   3.183   4.037   3.993 -1.3886 -0.1900 -1.8704
 9665TIP3   OH228958   3.835   0.790   2.437 -0.3747  0.4168  0.3115
 9665TIP3    H128959   3.762   0.780   2.376  1.4109 -0.8941 -1.7568
 9665TIP3    H228960   3.882   0.867   2.405  0.5683 -0.2631  0.0427
 9666TIP3   OH228961   2.060   2.430   2.968  0.1203  0.3847  0.1838
 9666TIP3    H128962   2.068   2.469   3.055 -0.5423  1.1735 -0.0894
 9666TIP3    H228963   2.056   2.336   2.983  1.5235  0.4206  0.8864
 9667TIP3   OH228964   1.854   6.526   3.463  0.5979  0.0334 -0.3739
 9667TIP3    H128965   1.766   6.513   3.427  1.3059 -1.2751 -1.7393
 9667TIP3    H228966   1.853   6.477   3.546  0.0948 -0.1632 -0.4907
 9668TIP3   OH228967   0.816   5.677   3.127  0.3159 -0.4848 -0.1926
 9668TIP3    H128968   0.874   5.669   3.203 -0.1554  1.9902  0.5126
 9668TIP3    H228969   0.769   5.759   3.141 -0.0709 -0.1221 -2.9994
 9669TIP3   OH228970   4.376   0.437   4.420  0.2108  0.1897  0.1863
 9669TIP3    H128971   4.463   0.461   4.390  0.1469  1.3707  0.8718
 9669TIP3    H228972   4.322   0.438   4.341  0.6209  0.4031 -0.0958
 9670TIP3   OH228973   3.700   6.353   5.728 -0.0370 -0.0524 -0.2541
 9670TIP3    H128974   3.689   6.365   5.823  1.7827 -0.7486  0.0915
 9670TIP3    H228975   3.760   6.422   5.702  1.1318 -1.1162 -0.4723
 9671TIP3   OH228976   3.210   6.111   0.886  0.6878 -0.2324 -0.1583
 9671TIP3    H128977   3.193   6.032   0.939 -3.0843 -0.4167 -1.3520
 9671TIP3    H228978   3.157   6.179   0.928 -1.4623 -0.0940 -2.8354
 9672TIP3   OH228979   4.018   1.009   1.366  0.1062  0.0704 -0.2023
 9672TIP3    H128980   4.095   1.028   1.313 -0.3226 -1.7788 -1.6176
 9672TIP3    H228981   4.049   1.016   1.456  1.6167  0.5251 -0.7189
 9673TIP3   OH228982   6.545   2.396   1.057 -0.1544 -0.3056 -0.3470
 9673TIP3    H128983   6.551   2.490   1.038  1.2373 -0.5014 -1.0479
 9673TIP3    H228984   6.594   2.385   1.139 -0.7031 -0.3630 -0.0237
 9674TIP3   OH228985   4.451   3.140   2.830  0.4884 -0.2389 -0.3597
 9674TIP3    H128986   4.514   3.111   2.763  0.9650  0.8296 -0.3940
 9674TIP3    H228987   4.499   3.204   2.881 -0.4402  0.2604 -0.0965
 9675TIP3   OH228988   7.194   1.493   0.697  0.0840  0.0494 -0.2399
 9675TIP3    H128989   7.133   1.438   0.745 -1.0158  0.9646 -0.5440
 9675TIP3    H228990   7.273   1.494   0.751  1.0111 -3.5794 -1.2807
 9676TIP3   OH228991   1.077   6.737   2.922 -0.0398  0.1212  0.3718
 9676TIP3    H128992   1.072   6.832   2.914 -1.1918  0.2581  2.0819
 9676TIP3    H228993   1.024   6.703   2.850  2.6304  0.6079 -1.9908
 9677TIP3   OH228994   4.686   5.791   2.811 -0.1279 -0.2900 -0.0140
 9677TIP3    H128995   4.756   5.856   2.804 -0.1472 -0.1885  0.6346
 9677TIP3    H228996   4.610   5.834   2.773  0.0209 -0.1760 -0.1822
 9678TIP3   OH228997   6.525   6.182   5.626 -0.6648  0.0839  0.2429
 9678TIP3    H128998   6.558   6.252   5.569 -2.6955  2.4069  1.7311
 9678TIP3    H228999   6.524   6.221   5.713 -0.1261 -2.4948  1.5111
 9679TIP3   OH229000   3.002   3.364   1.023 -0.5976  0.3290  0.2387
 9679TIP3    H129001   3.066   3.318   1.078 -0.7846  0.8154  0.8803
 9679TIP3    H229002   2.941   3.404   1.085 -2.3204 -1.1966 -0.3656
 9680TIP3   OH229003   6.285   4.976   0.459 -0.1855  0.0429  0.3014
 9680TIP3    H129004   6.324   5.054   0.499  1.6901 -0.8576  0.3231
 9680TIP3    H229005   6.274   4.915   0.531  0.0448 -0.3703 -0.0118
 9681TIP3   OH229006   0.323   2.122   3.483  0.7813  0.2392 -0.0583
 9681TIP3    H129007   0.246   2.070   3.508  1.2250 -0.6251 -0.4604
 9681TIP3    H229008   0.290   2.212   3.476 -0.0287 -0.0018  0.5036
 9682TIP3   OH229009   5.325   4.832   3.743 -0.2593  0.0512 -0.0764
 9682TIP3    H129010   5.383   4.862   3.673  2.5410  0.3005  2.1920
 9682TIP3    H229011   5.328   4.737   3.738 -1.4324  0.0364 -1.2482
 9683TIP3   OH229012   2.605   0.468   0.613  0.2192  0.3412  0.7423
 9683TIP3    H129013   2.534   0.450   0.552 -1.3756  3.4706  1.4640
 9683TIP3    H229014   2.658   0.535   0.569  1.9166 -0.8402  0.8640
 9684TIP3   OH229015   4.973   6.342   5.502 -0.3899  0.2601  0.9942
 9684TIP3    H129016   4.898   6.391   5.469 -0.2950  0.8351  1.6007
 9684TIP3    H229017   5.025   6.407   5.550  0.3412 -0.1916  0.8327
 9685TIP3   OH229018   2.742   2.840   1.137 -0.4066 -0.4568  0.3235
 9685TIP3    H129019   2.816   2.791   1.103 -0.0442  1.3059 -1.6562
 9685TIP3    H229020   2.676   2.774   1.157  0.4503 -1.8208 -1.1721
 9686TIP3   OH229021   0.664   1.053   3.657  0.0957 -0.2180  0.1540
 9686TIP3    H129022   0.744   1.001   3.658  0.3345  0.1447  1.3928
 9686TIP3    H229023   0.641   1.064   3.749  0.5941  2.7022  0.0206
 9687TIP3   OH229024   4.752   4.348   3.825 -0.1109 -0.2061 -0.1157
 9687TIP3    H129025   4.794   4.262   3.825  1.5494  0.5304  1.7621
 9687TIP3    H229026   4.706   4.353   3.908 -1.8987 -0.0091 -1.0746
 9688TIP3   OH229027   5.047   2.428   5.718 -0.0739 -1.0399  0.1847
 9688TIP3    H129028   4.979   2.360   5.718 -2.1281  0.9055  1.1559
 9688TIP3    H229029   5.029   2.480   5.640  0.3927 -0.5932  0.3736
 9689TIP3   OH229030   5.880   6.082   1.752 -0.0141 -0.1180  0.0363
 9689TIP3    H129031   5.895   6.031   1.832  0.5886 -0.1551 -0.0962
 9689TIP3    H229032   5.922   6.167   1.770  0.5408 -0.2908 -0.4203
 9690TIP3   OH229033   2.257   6.253   4.936  0.8053  0.1823 -0.3312
 9690TIP3    H129034   2.238   6.347   4.935 -2.0507 -0.3193 -0.8848
 9690TIP3    H229035   2.263   6.230   5.029 -1.4049  0.4492 -0.0787
 9691TIP3   OH229036   6.983   1.854   4.811  0.1156  0.3183  0.1231
 9691TIP3    H129037   7.012   1.881   4.898  2.5062  2.5125 -1.2296
 9691TIP3    H229038   6.891   1.882   4.807  0.1148  0.6593  1.7449
 9692TIP3   OH229039   5.686   3.254   5.583  0.0619  0.0877 -0.0702
 9692TIP3    H129040   5.616   3.220   5.528 -0.9846  0.4763  0.9656
 9692TIP3    H229041   5.731   3.176   5.616  0.9337 -0.1417 -1.7072
 9693TIP3   OH229042  -0.011   2.288   2.733 -0.0215 -0.3197 -0.2070
 9693TIP3    H129043  -0.047   2.199   2.741  1.0111 -0.7637 -0.2409
 9693TIP3    H229044   0.065   2.287   2.791 -0.6168  0.9066  0.6332
 9694TIP3   OH229045   3.225   1.526   5.031 -0.0700  0.0943 -0.4775
 9694TIP3    H129046   3.307   1.550   4.987 -0.6937  0.7080 -1.3351
 9694TIP3    H229047   3.200   1.605   5.080 -0.4446  0.1062 -0.6861
 9695TIP3   OH229048   0.030   4.985   3.067 -0.2436 -0.2547  0.3387
 9695TIP3    H129049   0.052   4.893   3.053  3.7128  0.6727 -1.2058
 9695TIP3    H229050   0.011   4.992   3.160 -0.1168 -2.5421  0.5913
 9696TIP3   OH229051   3.571   5.559   3.601 -0.0277 -0.0983 -0.0994
 9696TIP3    H129052   3.526   5.480   3.631  2.1688 -1.1939  0.4740
 9696TIP3    H229053   3.561   5.621   3.673 -2.1213  0.3509 -0.7188
 9697TIP3   OH229054   6.652   3.281   0.180  0.0789  0.5124 -0.2075
 9697TIP3    H129055   6.681   3.259   0.269  2.8094 -2.7103 -1.7016
 9697TIP3    H229056   6.570   3.234   0.169 -0.2461  0.8783  0.5256
 9698TIP3   OH229057   0.502   2.722   4.514  0.1415  0.1226 -0.2103
 9698TIP3    H129058   0.411   2.753   4.505  0.4540  0.8581 -1.0096
 9698TIP3    H229059   0.550   2.771   4.448  0.9799 -0.8831 -0.3574
 9699TIP3   OH229060   4.517   4.672   3.469 -0.1745  0.1279 -0.4552
 9699TIP3    H129061   4.558   4.590   3.442  0.2984 -0.0438  0.7352
 9699TIP3    H229062   4.554   4.738   3.410  1.0597 -0.1854 -0.0553
 9700TIP3   OH229063   3.184   0.400   2.587  0.1553  0.4392  0.4363
 9700TIP3    H129064   3.122   0.423   2.518 -0.2593  0.6409  0.8673
 9700TIP3    H229065   3.133   0.352   2.651  0.3636  0.9047  0.9612
 9701TIP3   OH229066   5.116   6.718   2.025 -0.7850  0.0615  0.4023
 9701TIP3    H129067   5.061   6.666   2.083 -0.2214 -1.2158 -0.1731
 9701TIP3    H229068   5.099   6.809   2.051 -2.0810 -0.3711  1.1722
 9702TIP3   OH229069   2.894   2.817   5.259  0.3151 -0.1842  0.6778
 9702TIP3    H129070   2.901   2.900   5.307 -2.4417 -0.0261  0.9811
 9702TIP3    H229071   2.866   2.754   5.326  0.8665 -1.0158  0.1358
 9703TIP3   OH229072   4.126   0.625   4.355 -0.0432  0.2266  0.3294
 9703TIP3    H129073   4.123   0.719   4.369  2.0774  0.1790  1.4526
 9703TIP3    H229074   4.073   0.588   4.426  0.5283  0.5097  0.9091
 9704TIP3   OH229075   6.111   4.058   0.875  0.2586  0.3792  0.0452
 9704TIP3    H129076   6.207   4.059   0.868  0.2309 -0.5952 -0.7040
 9704TIP3    H229077   6.085   4.150   0.874  1.0902  0.6202 -1.2203
 9705TIP3   OH229078   1.271   2.232   5.703 -0.4737  0.1139  0.1097
 9705TIP3    H129079   1.279   2.198   5.793 -1.1660 -0.0648  0.1031
 9705TIP3    H229080   1.251   2.325   5.715 -0.0188  0.2142  0.1315
 9706TIP3   OH229081   0.758   0.208   3.704  0.2184  0.3954  0.5363
 9706TIP3    H129082   0.715   0.286   3.737  1.3079  0.8739  0.8792
 9706TIP3    H229083   0.770   0.152   3.781 -0.2313  0.0384  0.3548
 9707TIP3   OH229084   3.666   1.609   5.530  0.6850 -0.5635  0.1831
 9707TIP3    H129085   3.664   1.682   5.592 -0.2848  0.7913 -1.3516
 9707TIP3    H229086   3.576   1.603   5.498  1.2129 -1.0320 -1.2918
 9708TIP3   OH229087   3.235   3.585   1.109 -0.0960  0.4015 -0.5041
 9708TIP3    H129088   3.291   3.605   1.184 -1.6410  1.7754  0.3446
 9708TIP3    H229089   3.201   3.498   1.126  0.8915  0.0113 -0.4780
 9709TIP3   OH229090   6.230   5.727   0.099  0.1594  0.6034  0.3176
 9709TIP3    H129091   6.191   5.743   0.185 -0.4887 -0.7288  0.2865
 9709TIP3    H229092   6.300   5.664   0.116 -0.7086 -0.5461 -0.2752
 9710TIP3   OH229093   4.911   3.256   2.405  0.1243 -0.1563 -0.3351
 9710TIP3    H129094   5.002   3.275   2.381  0.6606  0.8843  2.2114
 9710TIP3    H229095   4.909   3.161   2.418  0.8842 -0.1710 -0.2743
 9711TIP3   OH229096   5.974   3.582   5.332 -0.1706 -0.0030  0.3299
 9711TIP3    H129097   6.061   3.602   5.365  1.5866 -2.2366 -2.4969
 9711TIP3    H229098   5.926   3.550   5.409  1.0745  2.1827  2.1428
 9712TIP3   OH229099   4.548   6.249   3.532 -0.0468  0.3524 -0.1858
 9712TIP3    H129100   4.493   6.308   3.583 -1.7787 -0.6989 -0.7439
 9712TIP3    H229101   4.603   6.205   3.597 -0.0261  1.2429  0.4149
 9713TIP3   OH229102   1.247   2.003   3.588  0.4169 -0.1516 -0.1305
 9713TIP3    H129103   1.165   1.954   3.587  0.2541  0.0931  0.5711
 9713TIP3    H229104   1.286   1.986   3.502  0.8775 -2.3585  0.4563
 9714TIP3   OH229105   5.765   6.787   3.338 -0.2830  0.6989  0.3941
 9714TIP3    H129106   5.735   6.697   3.323  0.4272  0.3183  1.2255
 9714TIP3    H229107   5.690   6.841   3.312 -0.0245 -0.0018 -2.1253
 9715TIP3   OH229108   3.157   5.559   5.528 -0.4487 -0.5661 -0.0972
 9715TIP3    H129109   3.187   5.538   5.616 -3.0884 -0.2066  0.9946
 9715TIP3    H229110   3.228   5.611   5.489  0.1869  0.5274  2.3627
 9716TIP3   OH229111   3.820   4.731   4.586 -1.1794  0.3503  0.4285
 9716TIP3    H129112   3.755   4.724   4.515 -0.7774  0.8258  0.0111
 9716TIP3    H229113   3.794   4.662   4.648 -0.0630 -1.8082 -1.3559
 9717TIP3   OH229114   6.824   4.696   3.446  0.6765 -0.1135 -0.2195
 9717TIP3    H129115   6.792   4.774   3.491  0.9349  0.0687 -0.3525
 9717TIP3    H229116   6.744   4.648   3.422  0.5077 -1.3573  2.3854
 9718TIP3   OH229117   1.100   0.341   0.144  0.4521 -0.7557 -0.5149
 9718TIP3    H129118   1.189   0.324   0.113  0.6833  0.1058 -0.3532
 9718TIP3    H229119   1.044   0.299   0.078  0.9700 -1.8263 -0.3015
 9719TIP3   OH229120   1.772   6.654   4.874 -0.1198  0.0375 -0.0801
 9719TIP3    H129121   1.785   6.687   4.963 -1.2900  1.1516 -0.2932
 9719TIP3    H229122   1.698   6.704   4.840 -0.1922 -0.9097 -1.4190
 9720TIP3   OH229123   5.906   5.898   1.962 -0.1078 -0.0885 -0.2969
 9720TIP3    H129124   5.934   5.892   2.054 -1.2849 -0.3900  0.0728
 9720TIP3    H229125   5.878   5.809   1.940  1.3666 -0.3183 -1.3864
 9721TIP3   OH229126   6.828   4.510   4.004 -0.4765 -0.0865 -0.2432
 9721TIP3    H129127   6.747   4.562   3.999 -0.3847  0.1773  0.9242
 9721TIP3    H229128   6.812   4.448   4.075  0.5864  0.3776  0.4058
 9722TIP3   OH229129   1.516   4.959   1.005 -0.4176  0.1829  0.1878
 9722TIP3    H129130   1.454   5.031   1.017  0.8909  1.3728 -0.0148
 9722TIP3    H229131   1.494   4.897   1.075 -1.6024  0.7435  0.3293
 9723TIP3   OH229132   2.381   4.189   1.756  0.3080  0.0170  0.1083
 9723TIP3    H129133   2.375   4.095   1.735  0.2677 -0.0332  0.3387
 9723TIP3    H229134   2.303   4.206   1.809 -0.5982  0.5647 -1.3490
 9724TIP3   OH229135   4.611   2.790   5.375  0.2615 -0.2865  0.8154
 9724TIP3    H129136   4.546   2.834   5.429  0.1231 -0.2344  0.6048
 9724TIP3    H229137   4.636   2.713   5.427  0.2487 -0.1501  1.0258
 9725TIP3   OH229138   0.907   0.344   2.489 -0.0806 -0.0718  0.3180
 9725TIP3    H129139   0.820   0.384   2.487 -0.6261 -0.9945  2.6436
 9725TIP3    H229140   0.933   0.345   2.581  2.0102 -0.6004 -0.2084
 9726TIP3   OH229141   1.679   2.558   3.194 -0.1969  0.1310  0.6517
 9726TIP3    H129142   1.754   2.617   3.207  0.0066  0.1193 -0.4231
 9726TIP3    H229143   1.605   2.617   3.181 -0.4670  0.1462  2.0816
 9727TIP3   OH229144   3.504   2.197   0.673 -0.0674 -0.2025 -0.6261
 9727TIP3    H129145   3.579   2.147   0.705 -1.3667 -1.4707  0.6052
 9727TIP3    H229146   3.430   2.137   0.682 -1.7770  2.0092  1.1775
 9728TIP3   OH229147   0.791   3.420   5.598  0.0916 -0.2760 -0.0353
 9728TIP3    H129148   0.789   3.515   5.601 -0.3695 -0.2351 -1.0631
 9728TIP3    H229149   0.732   3.393   5.668 -1.1584  0.2396 -0.8588
 9729TIP3   OH229150   1.143   5.895   1.706  0.4776  0.4273  0.3260
 9729TIP3    H129151   1.073   5.961   1.707  0.7006  0.6608  1.3383
 9729TIP3    H229152   1.211   5.932   1.763  1.0510 -0.2021  0.0515
 9730TIP3   OH229153   5.521   3.322   4.663  0.7012  0.4649 -0.3746
 9730TIP3    H129154   5.552   3.299   4.575  0.8441  1.0635 -0.4868
 9730TIP3    H229155   5.577   3.271   4.722  0.0244 -0.6175 -0.6397
 9731TIP3   OH229156   3.109   4.803   5.887  0.1125 -0.2108 -0.1114
 9731TIP3    H129157   3.127   4.890   5.853 -0.0609 -0.5443 -1.0797
 9731TIP3    H229158   3.194   4.759   5.890 -0.1359 -0.9363 -2.2931
 9732TIP3   OH229159   5.609   5.163   2.544  0.2222 -0.1516 -0.2436
 9732TIP3    H129160   5.609   5.071   2.517  1.1852  0.0325 -0.9300
 9732TIP3    H229161   5.563   5.209   2.473  0.8475  0.0513 -0.5249
 9733TIP3   OH229162   2.428   3.656   5.878  0.0863  0.5136  0.2301
 9733TIP3    H129163   2.436   3.744   5.840  1.4199  0.2581 -0.1067
 9733TIP3    H229164   2.351   3.619   5.835 -0.7554  1.6681  0.6991
 9734TIP3   OH229165   3.520   4.929   1.862  0.5632  1.0919 -0.1489
 9734TIP3    H129166   3.563   4.987   1.799  1.5235  0.1719 -0.3726
 9734TIP3    H229167   3.466   4.987   1.915  1.3457  2.1601 -0.4928
 9735TIP3   OH229168   3.169   5.744   0.451  0.6069  0.3128 -0.2366
 9735TIP3    H129169   3.188   5.694   0.530 -1.3726  1.8789  1.3339
 9735TIP3    H229170   3.100   5.695   0.407  0.9153  0.0255 -0.4034
 9736TIP3   OH229171   1.487   1.374   3.391  0.3213  0.1643  0.5411
 9736TIP3    H129172   1.566   1.327   3.366  0.3484  0.9121 -0.8739
 9736TIP3    H229173   1.423   1.352   3.323 -1.0027 -1.1057  2.0983
 9737TIP3   OH229174   5.708   3.505   4.288  0.2118  0.2187 -0.4186
 9737TIP3    H129175   5.711   3.516   4.383  0.4109  2.3055 -0.6141
 9737TIP3    H229176   5.797   3.479   4.264  0.5157  0.9564 -0.1342
 9738TIP3   OH229177   0.572   1.607   4.878  0.6529 -0.3123 -0.3928
 9738TIP3    H129178   0.538   1.628   4.791  1.6109 -0.0694 -0.7206
 9738TIP3    H229179   0.502   1.632   4.938  0.2890  0.2491 -1.0426
 9739TIP3   OH229180   3.229   1.446   3.483  0.2864  0.0996 -0.2269
 9739TIP3    H129181   3.265   1.496   3.411  0.0641  2.3332  1.1144
 9739TIP3    H229182   3.170   1.507   3.528 -0.9495 -1.7444  0.8223
 9740TIP3   OH229183   2.480   4.800   4.760 -0.0955 -0.4716 -1.0222
 9740TIP3    H129184   2.402   4.802   4.816 -0.1729 -0.9758 -1.1123
 9740TIP3    H229185   2.469   4.722   4.706  0.9734 -1.1251 -0.3141
 9741TIP3   OH229186   3.688   5.769   2.028 -0.2738 -0.7521 -0.3968
 9741TIP3    H129187   3.616   5.821   2.064 -0.6022 -1.4825  0.0349
 9741TIP3    H229188   3.664   5.756   1.936  0.8316  1.5776 -1.0947
 9742TIP3   OH229189   4.508   4.538   1.167 -0.0286  0.0355 -0.4127
 9742TIP3    H129190   4.598   4.531   1.198 -0.2266 -0.4930  0.0620
 9742TIP3    H229191   4.456   4.549   1.246 -0.3797  0.3441 -0.6860
 9743TIP3   OH229192   0.590   2.198   5.915 -0.2042 -0.2397 -0.1690
 9743TIP3    H129193   0.676   2.179   5.877 -0.0610  0.9254 -0.4797
 9743TIP3    H229194   0.563   2.281   5.873 -1.7007 -0.8337 -0.4540
 9744TIP3   OH229195   4.287   6.568   3.646  0.0571  0.3093  0.0247
 9744TIP3    H129196   4.259   6.537   3.560 -0.4464  0.3036  0.1882
 9744TIP3    H229197   4.206   6.574   3.697  0.1194  1.9219 -0.0128
 9745TIP3   OH229198   4.005   3.564   1.270  0.2052 -0.1895 -0.2022
 9745TIP3    H129199   4.008   3.624   1.194 -0.2026 -0.2396 -0.2623
 9745TIP3    H229200   4.044   3.483   1.238  0.6844  0.0198 -0.1466
 9746TIP3   OH229201   7.055   6.360   3.752 -0.1211 -0.2054 -0.0174
 9746TIP3    H129202   7.011   6.411   3.820 -1.8754 -0.5084 -0.8641
 9746TIP3    H229203   6.984   6.331   3.694  1.1641 -1.1176 -1.2032
 9747TIP3   OH229204   2.036   1.457   1.480  0.6520 -0.3371  0.5466
 9747TIP3    H129205   1.971   1.388   1.492 -0.0563  0.2808  0.3188
 9747TIP3    H229206   1.988   1.539   1.494  1.3954  0.1278  0.4548
 9748TIP3   OH229207   6.933   5.032   4.045  0.3344 -0.0832  0.2791
 9748TIP3    H129208   6.941   4.952   3.993 -0.1240 -0.4516  0.7500
 9748TIP3    H229209   6.891   5.094   3.986  0.4134 -0.2863  0.0028
 9749TIP3   OH229210   6.211   3.113   5.679  0.4164  0.2049  0.0317
 9749TIP3    H129211   6.127   3.073   5.655  1.5757 -0.4928 -3.5613
 9749TIP3    H229212   6.203   3.204   5.653  0.2344  0.5830  1.3433
   7.21661   6.80390   5.89234   0.00000   0.00000  -2.40555   0.00000  -2.40555  -3.40194
