Title
  159
    1GLY      N    1   5.112   6.518   5.277 -0.2445  0.1380 -0.7061
    1GLY    HT1    2   5.124   6.566   5.185 -0.1292 -1.4280 -1.5493
    1GLY    HT2    3   5.165   6.580   5.342  0.5325 -1.9890  0.7810
    1GLY    HT3    4   5.014   6.527   5.310 -0.1578 -0.2484 -0.3461
    1GLY     CA    5   5.169   6.380   5.261  0.0923 -0.4212  0.4427
    1GLY    HA1    6   5.136   6.319   5.345  0.2430 -1.5744 -0.3193
    1GLY    HA2    7   5.277   6.384   5.261  0.1208 -1.1733  0.3231
    1GLY      C    8   5.128   6.315   5.132 -0.5938 -0.2592  0.2559
    1GLY      O    9   5.039   6.372   5.068 -0.5974 -0.1639 -0.3951
    2PRO      N   10   5.193   6.215   5.076  0.2393 -0.8786  0.2204
    2PRO     CD   11   5.317   6.162   5.121 -0.8150  0.5664  0.2519
    2PRO    HD1   12   5.304   6.100   5.212 -1.6183 -2.5248 -1.7989
    2PRO    HD2   13   5.402   6.234   5.123  0.4093 -0.6400 -2.2881
    2PRO     CA   14   5.137   6.134   4.969  0.3407  0.4831  0.0474
    2PRO     HA   15   5.150   6.195   4.881  1.2928  1.3919  0.7807
    2PRO     CB   16   5.218   6.010   4.978 -0.1435  0.3521 -0.0797
    2PRO    HB1   17   5.231   5.955   4.882 -2.0319  0.8729 -0.6822
    2PRO    HB2   18   5.194   5.938   5.059  1.3098  0.9270  0.9126
    2PRO     CG   19   5.356   6.069   5.010 -0.3311  1.3486  0.5630
    2PRO    HG1   20   5.433   5.990   5.026 -0.9116 -0.6101 -4.5352
    2PRO    HG2   21   5.377   6.118   4.913  1.7941 -0.1527  0.1886
    2PRO      C   22   4.994   6.092   4.975 -0.2759 -0.5833 -0.0916
    2PRO      O   23   4.948   6.053   5.084 -0.3250  0.1686 -0.8410
    3GLY      N   24   4.922   6.098   4.861  0.1747  0.2369  0.3190
    3GLY     HN   25   4.959   6.143   4.780 -1.2345  3.1281  1.1292
    3GLY     CA   26   4.785   6.042   4.850  0.7296  0.6071 -0.3389
    3GLY    HA1   27   4.747   6.065   4.751  0.2958  0.2725 -0.2524
    3GLY    HA2   28   4.724   6.080   4.930  1.5546 -1.8345  1.5940
    3GLY      C   29   4.773   5.882   4.874  0.3577 -0.3267 -0.0607
    3GLY      O   30   4.869   5.813   4.830 -0.7708  0.5388 -0.5150
    4ALA      N   31   4.668   5.833   4.943  0.0691 -0.3007 -0.5213
    4ALA     HN   32   4.593   5.894   4.964  1.2303  1.1671 -0.4958
    4ALA     CA   33   4.665   5.691   4.980 -0.3444 -0.5559  0.0851
    4ALA     HA   34   4.755   5.667   5.035 -0.6180 -2.4676 -0.2017
    4ALA     CB   35   4.544   5.665   5.071  0.0393 -0.2321  0.2077
    4ALA    HB1   36   4.544   5.568   5.124  0.6627 -0.9885 -1.1204
    4ALA    HB2   37   4.455   5.675   5.006  1.7104  2.1267 -1.9254
    4ALA    HB3   38   4.527   5.747   5.144 -1.9548  1.8388 -2.3554
    4ALA      C   39   4.656   5.595   4.857  0.0475  0.0533 -0.0832
    4ALA      O   40   4.636   5.639   4.744  0.3457 -0.1830 -0.5594
    5PRO      N   41   4.667   5.468   4.872 -0.2340  0.1700  0.2595
    5PRO     CD   42   4.762   5.406   4.959 -0.1574  0.3951 -1.2543
    5PRO    HD1   43   4.717   5.415   5.060  0.3460  1.9695 -1.1445
    5PRO    HD2   44   4.863   5.452   4.962 -0.3800  0.8941 -1.3325
    5PRO     CA   45   4.603   5.374   4.781 -1.0128  0.4133  0.2806
    5PRO     HA   46   4.663   5.390   4.693  2.2601 -2.5580  1.7418
    5PRO     CB   47   4.634   5.236   4.844  0.3731 -0.5170  0.5216
    5PRO    HB1   48   4.633   5.159   4.764 -2.3091  0.3062 -0.3551
    5PRO    HB2   49   4.555   5.210   4.918 -0.7560  0.4235 -0.3072
    5PRO     CG   50   4.771   5.259   4.919  0.4934  0.4866  0.2639
    5PRO    HG1   51   4.796   5.196   5.007  1.1997 -0.5122 -0.6278
    5PRO    HG2   52   4.857   5.247   4.850 -0.3371  0.2481 -0.7417
    5PRO      C   53   4.461   5.393   4.739 -0.2577  0.6123  0.6618
    5PRO      O   54   4.382   5.454   4.809 -0.2701 -0.1972  0.1600
    6GLY      N   55   4.435   5.341   4.623 -0.1643  0.4320 -0.1987
    6GLY     HN   56   4.509   5.296   4.573  0.9267  0.7959  1.0318
    6GLY     CA   57   4.304   5.339   4.551  0.2649 -0.4922 -0.2676
    6GLY    HA1   58   4.327   5.320   4.448  0.7411  2.7975 -0.8820
    6GLY    HA2   59   4.260   5.435   4.576  2.6524 -0.0688  2.8681
    6GLY      C   60   4.217   5.224   4.597 -0.7283  0.0320 -0.1481
    6GLY      O   61   4.247   5.158   4.700 -0.2587 -0.2696 -1.2070
    7PRO      N   62   4.109   5.193   4.537  0.5375 -0.4897 -0.1216
    7PRO     CD   63   4.071   5.261   4.410 -1.1618 -0.0739 -0.3417
    7PRO    HD1   64   4.134   5.225   4.326 -0.0243  1.6415 -0.2851
    7PRO    HD2   65   4.082   5.371   4.420 -0.2115 -0.3636  2.4990
    7PRO     CA   66   4.005   5.099   4.578  0.5427 -0.3780  0.1492
    7PRO     HA   67   3.968   5.144   4.669  1.2868  0.3702  0.0896
    7PRO     CB   68   3.899   5.102   4.463 -0.1647 -0.1179  0.7856
    7PRO    HB1   69   3.798   5.085   4.505 -0.3505  0.5197  0.6155
    7PRO    HB2   70   3.923   5.023   4.389 -0.3523 -0.8833  1.5260
    7PRO     CG   71   3.925   5.239   4.394  0.1237  0.2933 -0.2644
    7PRO    HG1   72   3.897   5.242   4.286  0.2763  0.1059 -0.3091
    7PRO    HG2   73   3.870   5.319   4.449 -2.5128 -0.1294 -2.0645
    7PRO      C   74   4.046   4.963   4.609  1.0444  0.1317 -0.2739
    7PRO      O   75   4.122   4.900   4.540 -0.3829 -0.3303 -0.3820
    8GLY      N   76   3.986   4.909   4.721  0.4662  0.0954 -0.1948
    8GLY     HN   77   3.933   4.972   4.777  1.9684  0.4284  0.8808
    8GLY     CA   78   3.995   4.767   4.752  0.2880 -0.2674 -0.2858
    8GLY    HA1   79   3.932   4.749   4.838 -0.1051  1.7211 -0.1047
    8GLY    HA2   80   4.099   4.746   4.774 -0.1117 -0.6338  1.4295
    8GLY      C   81   3.941   4.670   4.654 -0.2602 -0.5319 -0.9030
    8GLY      O   82   3.839   4.694   4.583 -0.0581 -0.0676 -0.1324
    9ALA      N   83   4.010   4.554   4.637 -0.1073  0.0823 -1.1503
    9ALA     HN   84   4.085   4.536   4.700 -0.3379  0.2672 -0.8163
    9ALA     CA   85   3.984   4.450   4.542  0.4110  0.5664  0.1753
    9ALA     HA   86   3.977   4.491   4.443  0.6506 -0.4380 -0.2725
    9ALA     CB   87   4.097   4.345   4.544  0.7569  0.4561  0.4116
    9ALA    HB1   88   4.089   4.283   4.636 -3.9827 -0.4825 -0.3826
    9ALA    HB2   89   4.196   4.397   4.538  2.0153 -1.7313  1.2170
    9ALA    HB3   90   4.083   4.270   4.463 -0.8254  0.9792  0.1661
    9ALA      C   91   3.852   4.375   4.568  0.7089  0.3320  0.9559
    9ALA      O   92   3.813   4.366   4.688  0.5054  0.0008  0.3410
   10PRO      N   93   3.772   4.328   4.475 -0.4926  0.0529  0.7543
   10PRO     CD   94   3.785   4.362   4.335  0.0278  0.2110  0.1893
   10PRO    HD1   95   3.851   4.294   4.277 -2.0126 -2.6872  1.0216
   10PRO    HD2   96   3.812   4.469   4.323 -0.6758  0.3928  0.1916
   10PRO     CA   97   3.670   4.228   4.506  0.6560  0.6295 -0.4577
   10PRO     HA   98   3.591   4.266   4.570 -2.3994 -4.2953 -0.7867
   10PRO     CB   99   3.604   4.214   4.370  0.2834  0.1962  0.2204
   10PRO    HB1  100   3.494   4.215   4.385 -0.1438 -1.6105 -2.1787
   10PRO    HB2  101   3.638   4.122   4.319  2.3601 -0.0238  1.8637
   10PRO     CG  102   3.641   4.341   4.295  0.2161 -0.0920  0.7416
   10PRO    HG1  103   3.629   4.337   4.185 -0.6457 -0.8401  0.8481
   10PRO    HG2  104   3.581   4.420   4.345 -0.7458 -0.1137 -0.3516
   10PRO      C  105   3.717   4.093   4.578 -0.2967 -0.2391  0.1674
   10PRO      O  106   3.830   4.055   4.573 -0.4353  0.2287 -0.1265
   11GLY      N  107   3.624   4.038   4.654  0.6160  0.1241  0.0059
   11GLY     HN  108   3.547   4.098   4.676  0.4479 -0.6721  1.6827
   11GLY     CA  109   3.624   3.903   4.708 -0.6078 -0.0545 -0.0174
   11GLY    HA1  110   3.557   3.901   4.793 -1.6000  2.8376 -0.6084
   11GLY    HA2  111   3.722   3.891   4.751 -1.4119  0.2567  2.0160
   11GLY      C  112   3.595   3.788   4.615 -0.3739 -0.0030 -0.1061
   11GLY      O  113   3.621   3.808   4.495  0.1973  0.0443 -0.2229
   12PRO      N  114   3.551   3.667   4.660  0.1747 -0.0811 -0.2479
   12PRO     CD  115   3.578   3.623   4.796 -0.4167  0.9327  0.5528
   12PRO    HD1  116   3.539   3.699   4.866 -0.7298  2.0307 -0.7689
   12PRO    HD2  117   3.689   3.621   4.806 -0.2372  1.3749 -1.1128
   12PRO     CA  118   3.512   3.552   4.570 -0.0828 -0.0102 -0.0599
   12PRO     HA  119   3.601   3.521   4.517 -0.4928 -1.2708 -0.0464
   12PRO     CB  120   3.470   3.445   4.671  0.0264  0.5552  0.4432
   12PRO    HB1  121   3.499   3.349   4.624  1.1219  1.2583 -0.3652
   12PRO    HB2  122   3.360   3.440   4.681  0.0797 -3.2679  0.6372
   12PRO     CG  123   3.540   3.472   4.802  0.1866 -0.3628  0.1549
   12PRO    HG1  124   3.471   3.444   4.885 -1.0628 -1.7140 -1.2785
   12PRO    HG2  125   3.637   3.419   4.809  0.8687  0.7247 -0.7752
   12PRO      C  126   3.408   3.589   4.461 -0.7052 -0.1496 -0.3341
   12PRO      O  127   3.330   3.683   4.470  0.0643  0.1507 -0.5555
   13GLY      N  128   3.391   3.509   4.353 -0.3942  0.6552 -0.1058
   13GLY     HN  129   3.450   3.429   4.338  1.3470  1.9473 -0.5071
   13GLY     CA  130   3.307   3.529   4.237  0.2780  0.7479 -0.2158
   13GLY    HA1  131   3.203   3.532   4.267  0.2526 -0.9882 -0.0300
   13GLY    HA2  132   3.338   3.451   4.170  0.1687 -1.3005  1.9907
   13GLY      C  133   3.339   3.657   4.152  0.2466  0.6031 -1.2638
   13GLY      O  134   3.432   3.739   4.177  0.8177  0.2531 -0.0188
   14ALA      N  135   3.262   3.681   4.043  0.2731  0.7314 -0.0037
   14ALA     HN  136   3.196   3.609   4.021  0.9613  0.1225 -0.1464
   14ALA     CA  137   3.272   3.787   3.941 -0.2634  0.1538 -0.2330
   14ALA     HA  138   3.372   3.775   3.901 -0.8303 -1.9838 -1.2026
   14ALA     CB  139   3.174   3.768   3.825  0.4090 -0.2748  0.9091
   14ALA    HB1  140   3.066   3.773   3.850  0.3548 -3.7804  1.9073
   14ALA    HB2  141   3.190   3.664   3.789  0.5036  0.0500 -0.0196
   14ALA    HB3  142   3.183   3.845   3.745 -1.1567 -0.7506  0.2380
   14ALA      C  143   3.256   3.926   4.006 -0.1536 -0.2890  0.0955
   14ALA      O  144   3.171   3.938   4.093  0.5117 -0.0790 -0.4453
   15PRO      N  145   3.333   4.033   3.974 -0.1332  0.9701  0.2133
   15PRO     CD  146   3.456   4.018   3.897 -0.2690 -0.1977  0.2172
   15PRO    HD1  147   3.440   4.022   3.787  0.9774 -0.0311  0.0294
   15PRO    HD2  148   3.501   3.919   3.921 -0.3648 -0.5871 -1.1501
   15PRO     CA  149   3.321   4.162   4.032  0.1760 -0.8307 -0.0068
   15PRO     HA  150   3.318   4.144   4.139 -2.9148  1.4344  0.4342
   15PRO     CB  151   3.435   4.240   3.967 -0.0199  0.1265  0.3883
   15PRO    HB1  152   3.473   4.320   4.034  2.0472  0.5153 -1.1463
   15PRO    HB2  153   3.399   4.288   3.874 -1.7604  0.2970  1.1082
   15PRO     CG  154   3.543   4.132   3.945 -1.0341 -0.2206  0.0889
   15PRO    HG1  155   3.625   4.142   3.870  0.1648 -0.0400  1.3826
   15PRO    HG2  156   3.583   4.104   4.045 -0.4884 -0.5013 -0.2049
   15PRO      C  157   3.196   4.248   4.001 -0.0519  0.2457 -0.2000
   15PRO    OT1  158   3.129   4.222   3.894 -0.1732  0.2238 -0.2034
   15PRO    OT2  159   3.159   4.328   4.085  0.1338 -0.2093 -0.4624
   8.40059   7.92015   6.85905   0.00000   0.00000  -2.80020   0.00000  -2.80020  -3.96008
