Title t= 472.00000 step= 236000
44463
    1GLY      N    1   2.168   2.818   3.860
    1GLY    HT1    2   2.076   2.864   3.852
    1GLY    HT2    3   2.220   2.814   3.769
    1GLY    HT3    4   2.223   2.891   3.908
    1GLY     CA    5   2.183   2.689   3.924
    1GLY    HA1    6   2.192   2.619   3.842
    1GLY    HA2    7   2.096   2.668   3.984
    1GLY      C    8   2.302   2.686   4.019
    1GLY      O    9   2.376   2.782   4.045
    2PRO      N   10   2.327   2.569   4.075
    2PRO     CD   11   2.253   2.448   4.045
    2PRO    HD1   12   2.239   2.420   3.939
    2PRO    HD2   13   2.155   2.457   4.095
    2PRO     CA   14   2.419   2.550   4.189
    2PRO     HA   15   2.393   2.611   4.274
    2PRO     CB   16   2.409   2.398   4.222
    2PRO    HB1   17   2.342   2.384   4.309
    2PRO    HB2   18   2.504   2.345   4.246
    2PRO     CG   19   2.352   2.338   4.096
    2PRO    HG1   20   2.422   2.318   4.012
    2PRO    HG2   21   2.290   2.245   4.097
    2PRO      C   22   2.559   2.594   4.159
    2PRO      O   23   2.606   2.564   4.051
    3GLY      N   24   2.617   2.667   4.252
    3GLY     HN   25   2.571   2.684   4.338
    3GLY     CA   26   2.761   2.695   4.261
    3GLY    HA1   27   2.782   2.741   4.356
    3GLY    HA2   28   2.786   2.763   4.181
    3GLY      C   29   2.867   2.583   4.267
    3GLY      O   30   2.839   2.473   4.217
    4ASP      N   31   2.987   2.619   4.320
    4ASP     HN   32   3.002   2.707   4.364
    4ASP     CA   33   3.113   2.540   4.299
    4ASP     HA   34   3.125   2.533   4.192
    4ASP     CB   35   3.240   2.611   4.360
    4ASP    HB1   36   3.328   2.543   4.355
    4ASP    HB2   37   3.204   2.636   4.462
    4ASP     CG   38   3.272   2.740   4.298
    4ASP    OD1   39   3.239   2.761   4.183
    4ASP    OD2   40   3.344   2.815   4.366
    4ASP      C   41   3.102   2.395   4.354
    4ASP      O   42   3.038   2.385   4.460
    5PRO      N   43   3.151   2.291   4.280
    5PRO     CD   44   3.197   2.299   4.142
    5PRO    HD1   45   3.293   2.356   4.135
    5PRO    HD2   46   3.113   2.327   4.075
    5PRO     CA   47   3.137   2.151   4.325
    5PRO     HA   48   3.033   2.132   4.307
    5PRO     CB   49   3.223   2.070   4.234
    5PRO    HB1   50   3.179   1.969   4.221
    5PRO    HB2   51   3.328   2.070   4.272
    5PRO     CG   52   3.219   2.153   4.106
    5PRO    HG1   53   3.311   2.152   4.044
    5PRO    HG2   54   3.133   2.114   4.048
    5PRO      C   55   3.168   2.117   4.473
    5PRO      O   56   3.266   2.151   4.527
    6GLY      N   57   3.078   2.045   4.537
    6GLY     HN   58   2.997   2.018   4.485
    6GLY     CA   59   3.101   1.992   4.666
    6GLY    HA1   60   3.006   1.959   4.706
    6GLY    HA2   61   3.138   2.077   4.722
    6GLY      C   62   3.191   1.877   4.672
    6GLY      O   63   3.218   1.814   4.570
    7PRO      N   64   3.234   1.825   4.787
    7PRO     CD   65   3.236   1.900   4.913
    7PRO    HD1   66   3.137   1.877   4.958
    7PRO    HD2   67   3.252   2.010   4.911
    7PRO     CA   68   3.311   1.703   4.799
    7PRO     HA   69   3.404   1.722   4.746
    7PRO     CB   70   3.322   1.687   4.952
    7PRO    HB1   71   3.412   1.628   4.978
    7PRO    HB2   72   3.233   1.636   4.993
    7PRO     CG   73   3.335   1.824   4.994
    7PRO    HG1   74   3.315   1.841   5.102
    7PRO    HG2   75   3.435   1.861   4.962
    7PRO      C   76   3.250   1.579   4.729
    7PRO      O   77   3.128   1.575   4.722
    8GLY      N   78   3.330   1.484   4.681
    8GLY     HN   79   3.429   1.496   4.678
    8GLY     CA   80   3.291   1.344   4.638
    8GLY    HA1   81   3.208   1.303   4.694
    8GLY    HA2   82   3.376   1.279   4.656
    8GLY      C   83   3.249   1.347   4.498
    8GLY      O   84   3.300   1.425   4.417
    9ASP      N   85   3.160   1.255   4.454
    9ASP     HN   86   3.148   1.181   4.519
    9ASP     CA   87   3.099   1.246   4.325
    9ASP     HA   88   3.179   1.267   4.255
    9ASP     CB   89   3.026   1.104   4.304
    9ASP    HB1   90   2.997   1.092   4.197
    9ASP    HB2   91   2.936   1.105   4.370
    9ASP     CG   92   3.131   0.998   4.342
    9ASP    OD1   93   3.106   0.896   4.407
    9ASP    OD2   94   3.244   1.013   4.289
    9ASP      C   95   2.999   1.362   4.293
    9ASP      O   96   2.933   1.413   4.385
   10PRO      N   97   2.977   1.420   4.168
   10PRO     CD   98   3.063   1.398   4.050
   10PRO    HD1   99   3.070   1.291   4.021
   10PRO    HD2  100   3.161   1.449   4.069
   10PRO     CA  101   2.880   1.527   4.149
   10PRO     HA  102   2.896   1.595   4.232
   10PRO     CB  103   2.930   1.589   4.014
   10PRO    HB1  104   3.011   1.661   4.037
   10PRO    HB2  105   2.858   1.650   3.954
   10PRO     CG  106   2.993   1.474   3.941
   10PRO    HG1  107   2.919   1.404   3.896
   10PRO    HG2  108   3.071   1.507   3.870
   10PRO      C  109   2.736   1.487   4.153
   10PRO      O  110   2.708   1.368   4.140
   11GLY      N  111   2.645   1.582   4.171
   11GLY     HN  112   2.666   1.679   4.167
   11GLY     CA  113   2.507   1.548   4.179
   11GLY    HA1  114   2.494   1.480   4.095
   11GLY    HA2  115   2.449   1.639   4.176
   11GLY      C  116   2.462   1.478   4.309
   11GLY      O  117   2.546   1.469   4.403
   12PRO      N  118   2.333   1.433   4.318
   12PRO     CD  119   2.227   1.471   4.230
   12PRO    HD1  120   2.235   1.412   4.136
   12PRO    HD2  121   2.232   1.578   4.198
   12PRO     CA  122   2.281   1.350   4.429
   12PRO     HA  123   2.285   1.408   4.520
   12PRO     CB  124   2.133   1.328   4.401
   12PRO    HB1  125   2.066   1.325   4.489
   12PRO    HB2  126   2.117   1.233   4.345
   12PRO     CG  127   2.098   1.447   4.304
   12PRO    HG1  128   2.018   1.447   4.227
   12PRO    HG2  129   2.087   1.533   4.374
   12PRO      C  130   2.363   1.226   4.443
   12PRO      O  131   2.423   1.170   4.354
   13GLY      N  132   2.381   1.181   4.569
   13GLY     HN  133   2.340   1.231   4.644
   13GLY     CA  134   2.434   1.050   4.605
   13GLY    HA1  135   2.437   1.051   4.712
   13GLY    HA2  136   2.535   1.038   4.567
   13GLY      C  137   2.363   0.924   4.558
   13GLY      O  138   2.239   0.923   4.531
   14ASP      N  139   2.439   0.816   4.558
   14ASP     HN  140   2.538   0.824   4.547
   14ASP     CA  141   2.390   0.678   4.554
   14ASP     HA  142   2.333   0.671   4.463
   14ASP     CB  143   2.501   0.565   4.556
   14ASP    HB1  144   2.445   0.471   4.576
   14ASP    HB2  145   2.584   0.574   4.630
   14ASP     CG  146   2.566   0.565   4.417
   14ASP    OD1  147   2.534   0.632   4.317
   14ASP    OD2  148   2.667   0.487   4.404
   14ASP      C  149   2.295   0.652   4.671
   14ASP      O  150   2.331   0.692   4.781
   15PRO      N  151   2.172   0.592   4.659
   15PRO     CD  152   2.099   0.593   4.530
   15PRO    HD1  153   2.127   0.494   4.488
   15PRO    HD2  154   2.123   0.673   4.458
   15PRO     CA  155   2.087   0.582   4.771
   15PRO     HA  156   2.075   0.679   4.815
   15PRO     CB  157   1.950   0.539   4.707
   15PRO    HB1  158   1.860   0.566   4.766
   15PRO    HB2  159   1.948   0.429   4.693
   15PRO     CG  160   1.954   0.609   4.574
   15PRO    HG1  161   1.893   0.557   4.497
   15PRO    HG2  162   1.925   0.713   4.598
   15PRO      C  163   2.134   0.488   4.878
   15PRO    OT1  164   2.165   0.371   4.851
   15PRO    OT2  165   2.138   0.514   5.003
   16LIT    LIT  166   2.249   0.361   5.023
   17LIT    LIT  167   2.095   2.009   4.979
   18LIT    LIT  168   3.022   6.709   0.798
   19LIT    LIT  169   6.455   5.455   3.694
   20LIT    LIT  170   1.974   5.449   2.335
   21LIT    LIT  171   1.582   2.284   3.430
   22LIT    LIT  172   1.282   1.539   4.807
   23LIT    LIT  173   2.298   3.019   1.876
   24LIT    LIT  174   2.284   4.973   0.009
   25LIT    LIT  175   4.496   0.951   3.156
   26LIT    LIT  176   6.646   2.606   4.774
   27LIT    LIT  177   4.293   7.630   0.262
   28LIT    LIT  178   5.561   2.593   5.126
   29LIT    LIT  179   3.457   5.368   1.564
   30LIT    LIT  180   7.370   6.906   6.731
   31LIT    LIT  181   6.980   6.264   6.298
   32LIT    LIT  182   4.753   4.199   0.099
   33LIT    LIT  183   7.311   2.207   2.300
   34LIT    LIT  184   4.706   6.122   2.926
   35LIT    LIT  185   4.108   7.423   5.447
   36LIT    LIT  186   1.296   7.050   4.325
   37LIT    LIT  187   1.092   5.689   1.305
   38LIT    LIT  188   3.922   7.148   4.294
   39LIT    LIT  189   2.635   1.232   3.189
   40LIT    LIT  190   2.059   1.477   3.534
   41LIT    LIT  191   5.150   0.453   3.633
   42LIT    LIT  192   3.619   5.710   6.671
   43LIT    LIT  193   3.557   3.518   0.892
   44LIT    LIT  194   4.452   7.584   6.070
   45LIT    LIT  195   5.878   7.198   3.053
   46LIT    LIT  196   5.402   1.224   5.845
   47LIT    LIT  197   1.125   5.469   2.692
   48LIT    LIT  198   7.385   1.460   4.517
   49LIT    LIT  199   1.595   0.308   6.223
   50LIT    LIT  200   8.189   1.032   4.121
   51LIT    LIT  201   1.766   1.380   2.058
   52LIT    LIT  202   3.578   2.662   6.501
   53LIT    LIT  203   0.282   3.530   0.099
   54LIT    LIT  204   7.974   2.869   2.791
   55LIT    LIT  205   4.825   7.515   3.267
   56LIT    LIT  206   7.069   1.600   2.864
   57LIT    LIT  207   7.177   6.367   1.100
   58LIT    LIT  208   2.695   0.578   4.242
   59LIT    LIT  209   0.649   5.185   4.125
   60LIT    LIT  210   2.575   4.036   4.575
   61CLA    CLA  211   0.302   5.802   3.005
   62CLA    CLA  212   1.783   6.335   4.766
   63CLA    CLA  213   0.217   1.515   5.025
   64CLA    CLA  214   6.677   3.357   0.447
   65CLA    CLA  215   0.805   0.953   1.154
   66CLA    CLA  216   1.124   1.806   5.161
   67CLA    CLA  217   7.579   6.830   5.585
   68CLA    CLA  218   6.663   0.316   3.125
   69CLA    CLA  219   3.372   3.232   5.128
   70CLA    CLA  220   6.397   5.289   5.937
   71CLA    CLA  221   7.973   5.682   5.095
   72CLA    CLA  222   2.637   5.095   1.106
   73CLA    CLA  223   0.296   2.959   2.803
   74CLA    CLA  224   0.293   4.319   3.336
   75CLA    CLA  225   3.051   7.339   5.346
   76CLA    CLA  226   2.987   0.526   1.524
   77CLA    CLA  227   2.531   6.306   4.083
   78CLA    CLA  228   5.375   5.862   2.376
   79CLA    CLA  229   5.126   2.538   5.573
   80CLA    CLA  230   0.699   6.217   1.788
   81CLA    CLA  231   4.184   6.110   5.697
   82CLA    CLA  232   0.241   0.657   6.368
   83CLA    CLA  233   3.459   4.679   0.277
   84CLA    CLA  234   7.204   1.790   0.396
   85CLA    CLA  235   2.956   6.368   4.958
   86CLA    CLA  236   7.868   4.153   2.407
   87CLA    CLA  237   3.508   6.620   2.051
   88CLA    CLA  238   4.585   3.366   0.574
   89CLA    CLA  239   6.572   2.736   6.540
   90CLA    CLA  240   5.907   2.522   0.333
   91CLA    CLA  241   4.709   3.848   4.337
   92CLA    CLA  242   5.804   7.057   5.702
   93CLA    CLA  243   5.005   1.901   4.986
   94CLA    CLA  244   1.758   2.496   6.120
   95CLA    CLA  245   2.672   5.848   2.370
   96CLA    CLA  246   7.974   1.655   3.035
   97CLA    CLA  247   0.463   1.591   4.028
   98CLA    CLA  248   1.843   7.405   6.362
   99CLA    CLA  249   7.132   2.120   2.185
  100CLA    CLA  250   2.291   3.161   4.537
  101CLA    CLA  251   1.362   2.323   3.376
  102CLA    CLA  252   1.037   0.171   4.392
  103TIP3   OH2  253   3.974   5.623   2.188
  103TIP3    H1  254   4.004   5.704   2.148
  103TIP3    H2  255   4.054   5.583   2.224
  104TIP3   OH2  256   0.210   2.222   1.609
  104TIP3    H1  257   0.267   2.219   1.686
  104TIP3    H2  258   0.135   2.275   1.636
  105TIP3   OH2  259   7.445   0.640   3.699
  105TIP3    H1  260   7.444   0.610   3.790
  105TIP3    H2  261   7.529   0.611   3.665
  106TIP3   OH2  262   6.338   6.050   0.603
  106TIP3    H1  263   6.408   6.102   0.561
  106TIP3    H2  264   6.269   6.046   0.537
  107TIP3   OH2  265   1.836   2.143   1.203
  107TIP3    H1  266   1.755   2.140   1.152
  107TIP3    H2  267   1.837   2.060   1.252
  108TIP3   OH2  268   3.147   7.752   5.212
  108TIP3    H1  269   3.212   7.696   5.255
  108TIP3    H2  270   3.108   7.695   5.145
  109TIP3   OH2  271   2.243   1.169   3.305
  109TIP3    H1  272   2.192   1.109   3.251
  109TIP3    H2  273   2.218   1.149   3.395
  110TIP3   OH2  274   3.849   4.976   4.914
  110TIP3    H1  275   3.881   5.032   4.985
  110TIP3    H2  276   3.878   5.020   4.834
  111TIP3   OH2  277   7.394   6.042   5.599
  111TIP3    H1  278   7.332   5.971   5.587
  111TIP3    H2  279   7.480   6.000   5.594
  112TIP3   OH2  280   6.618   7.640   0.804
  112TIP3    H1  281   6.569   7.605   0.878
  112TIP3    H2  282   6.701   7.592   0.805
  113TIP3   OH2  283   1.058   7.382   2.174
  113TIP3    H1  284   1.000   7.390   2.098
  113TIP3    H2  285   1.079   7.472   2.198
  114TIP3   OH2  286   6.798   7.195   0.204
  114TIP3    H1  287   6.773   7.280   0.241
  114TIP3    H2  288   6.788   7.134   0.277
  115TIP3   OH2  289   3.447   7.175   4.216
  115TIP3    H1  290   3.408   7.091   4.241
  115TIP3    H2  291   3.391   7.208   4.146
  116TIP3   OH2  292   1.766   2.550   4.882
  116TIP3    H1  293   1.789   2.643   4.882
  116TIP3    H2  294   1.714   2.538   4.802
  117TIP3   OH2  295   7.572   2.287   3.235
  117TIP3    H1  296   7.617   2.365   3.204
  117TIP3    H2  297   7.479   2.309   3.230
  118TIP3   OH2  298   8.208   2.908   0.763
  118TIP3    H1  299   8.183   2.918   0.855
  118TIP3    H2  300   8.284   2.965   0.753
  119TIP3   OH2  301   4.971   0.344   4.502
  119TIP3    H1  302   5.067   0.354   4.505
  119TIP3    H2  303   4.941   0.387   4.582
  120TIP3   OH2  304   2.820   1.557   5.413
  120TIP3    H1  305   2.802   1.596   5.328
  120TIP3    H2  306   2.870   1.478   5.393
  121TIP3   OH2  307   2.752   4.569   2.224
  121TIP3    H1  308   2.782   4.630   2.157
  121TIP3    H2  309   2.785   4.606   2.306
  122TIP3   OH2  310   5.703   5.860   5.120
  122TIP3    H1  311   5.753   5.814   5.188
  122TIP3    H2  312   5.761   5.858   5.044
  123TIP3   OH2  313   4.946   4.074   0.451
  123TIP3    H1  314   4.947   4.170   0.449
  123TIP3    H2  315   4.979   4.048   0.365
  124TIP3   OH2  316   1.085   5.652   3.391
  124TIP3    H1  317   1.037   5.648   3.309
  124TIP3    H2  318   1.024   5.691   3.453
  125TIP3   OH2  319   7.657   7.211   4.549
  125TIP3    H1  320   7.645   7.182   4.640
  125TIP3    H2  321   7.708   7.142   4.508
  126TIP3   OH2  322   8.212   2.614   0.852
  126TIP3    H1  323   8.123   2.620   0.887
  126TIP3    H2  324   8.210   2.665   0.771
  127TIP3   OH2  325   7.010   1.687   0.781
  127TIP3    H1  326   7.096   1.706   0.818
  127TIP3    H2  327   6.995   1.757   0.718
  128TIP3   OH2  328   3.370   2.247   1.750
  128TIP3    H1  329   3.336   2.244   1.839
  128TIP3    H2  330   3.452   2.199   1.754
  129TIP3   OH2  331   0.864   1.098   0.646
  129TIP3    H1  332   0.793   1.159   0.664
  129TIP3    H2  333   0.826   1.035   0.585
  130TIP3   OH2  334   6.866   2.693   0.998
  130TIP3    H1  335   6.867   2.733   0.911
  130TIP3    H2  336   6.919   2.613   0.988
  131TIP3   OH2  337   5.588   5.922   5.510
  131TIP3    H1  338   5.522   5.921   5.441
  131TIP3    H2  339   5.663   5.876   5.472
  132TIP3   OH2  340   5.481   3.707   2.770
  132TIP3    H1  341   5.440   3.637   2.821
  132TIP3    H2  342   5.408   3.745   2.719
  133TIP3   OH2  343   3.195   5.451   6.498
  133TIP3    H1  344   3.171   5.476   6.587
  133TIP3    H2  345   3.204   5.534   6.452
  134TIP3   OH2  346   8.097   7.299   3.546
  134TIP3    H1  347   8.059   7.380   3.580
  134TIP3    H2  348   8.086   7.236   3.617
  135TIP3   OH2  349   5.330   4.222   5.425
  135TIP3    H1  350   5.349   4.310   5.391
  135TIP3    H2  351   5.270   4.237   5.498
  136TIP3   OH2  352   0.568   2.265   2.445
  136TIP3    H1  353   0.635   2.200   2.467
  136TIP3    H2  354   0.615   2.348   2.444
  137TIP3   OH2  355   2.511   4.313   1.673
  137TIP3    H1  356   2.604   4.292   1.661
  137TIP3    H2  357   2.465   4.252   1.615
  138TIP3   OH2  358   4.778   5.710   4.082
  138TIP3    H1  359   4.742   5.773   4.019
  138TIP3    H2  360   4.873   5.711   4.064
  139TIP3   OH2  361   6.633   1.629   5.267
  139TIP3    H1  362   6.656   1.695   5.332
  139TIP3    H2  363   6.643   1.546   5.313
  140TIP3   OH2  364   3.264   0.675   1.619
  140TIP3    H1  365   3.277   0.767   1.595
  140TIP3    H2  366   3.176   0.654   1.588
  141TIP3   OH2  367   3.784   6.055   2.615
  141TIP3    H1  368   3.695   6.046   2.649
  141TIP3    H2  369   3.794   6.149   2.601
  142TIP3   OH2  370   4.302   7.575   3.790
  142TIP3    H1  371   4.331   7.622   3.868
  142TIP3    H2  372   4.353   7.494   3.790
  143TIP3   OH2  373   0.066   6.516   0.645
  143TIP3    H1  374   0.123   6.443   0.621
  143TIP3    H2  375   0.095   6.541   0.733
  144TIP3   OH2  376   7.835   5.161   3.446
  144TIP3    H1  377   7.837   5.232   3.382
  144TIP3    H2  378   7.828   5.205   3.531
  145TIP3   OH2  379   6.070   3.928   6.447
  145TIP3    H1  380   5.981   3.906   6.421
  145TIP3    H2  381   6.063   4.015   6.485
  146TIP3   OH2  382   7.196   0.429   3.153
  146TIP3    H1  383   7.221   0.337   3.148
  146TIP3    H2  384   7.271   0.472   3.194
  147TIP3   OH2  385   0.565   4.793   4.256
  147TIP3    H1  386   0.485   4.832   4.290
  147TIP3    H2  387   0.635   4.826   4.312
  148TIP3   OH2  388   7.905   5.746   0.401
  148TIP3    H1  389   7.975   5.772   0.461
  148TIP3    H2  390   7.931   5.783   0.316
  149TIP3   OH2  391   4.000   4.685   0.488
  149TIP3    H1  392   4.041   4.771   0.504
  149TIP3    H2  393   3.910   4.706   0.465
  150TIP3   OH2  394   6.257   5.118   4.403
  150TIP3    H1  395   6.226   5.080   4.321
  150TIP3    H2  396   6.222   5.207   4.403
  151TIP3   OH2  397   2.506   4.783   4.321
  151TIP3    H1  398   2.485   4.836   4.244
  151TIP3    H2  399   2.508   4.693   4.288
  152TIP3   OH2  400   4.496   4.092   6.343
  152TIP3    H1  401   4.560   4.087   6.272
  152TIP3    H2  402   4.479   4.001   6.367
  153TIP3   OH2  403   7.942   5.571   1.610
  153TIP3    H1  404   7.978   5.516   1.679
  153TIP3    H2  405   7.947   5.660   1.644
  154TIP3   OH2  406   5.656   7.198   3.481
  154TIP3    H1  407   5.611   7.129   3.432
  154TIP3    H2  408   5.632   7.182   3.572
  155TIP3   OH2  409   5.344   1.991   1.626
  155TIP3    H1  410   5.305   1.904   1.634
  155TIP3    H2  411   5.432   1.981   1.664
  156TIP3   OH2  412   8.029   3.877   6.447
  156TIP3    H1  413   8.082   3.806   6.411
  156TIP3    H2  414   8.089   3.928   6.500
  157TIP3   OH2  415   8.090   2.855   2.942
  157TIP3    H1  416   8.078   2.818   3.030
  157TIP3    H2  417   8.185   2.862   2.932
  158TIP3   OH2  418   1.853   3.225   1.615
  158TIP3    H1  419   1.928   3.272   1.650
  158TIP3    H2  420   1.777   3.271   1.650
  159TIP3   OH2  421   0.694   0.798   1.645
  159TIP3    H1  422   0.749   0.778   1.569
  159TIP3    H2  423   0.612   0.831   1.608
  160TIP3   OH2  424   3.097   4.679   1.425
  160TIP3    H1  425   3.089   4.774   1.417
  160TIP3    H2  426   3.113   4.650   1.335
  161TIP3   OH2  427   1.465   0.970   5.510
  161TIP3    H1  428   1.443   1.014   5.592
  161TIP3    H2  429   1.405   0.895   5.507
  162TIP3   OH2  430   6.994   2.635   0.630
  162TIP3    H1  431   7.048   2.618   0.553
  162TIP3    H2  432   6.923   2.691   0.597
  163TIP3   OH2  433   6.169   2.702   3.916
  163TIP3    H1  434   6.101   2.684   3.981
  163TIP3    H2  435   6.249   2.715   3.967
  164TIP3   OH2  436   6.110   2.684   5.786
  164TIP3    H1  437   6.126   2.776   5.806
  164TIP3    H2  438   6.167   2.636   5.846
  165TIP3   OH2  439   3.781   3.533   4.885
  165TIP3    H1  440   3.874   3.516   4.870
  165TIP3    H2  441   3.737   3.491   4.812
  166TIP3   OH2  442   1.123   5.900   6.658
  166TIP3    H1  443   1.051   5.946   6.703
  166TIP3    H2  444   1.199   5.957   6.670
  167TIP3   OH2  445   7.940   1.606   5.934
  167TIP3    H1  446   7.928   1.698   5.911
  167TIP3    H2  447   7.948   1.606   6.029
  168TIP3   OH2  448   2.847   7.043   1.907
  168TIP3    H1  449   2.784   7.092   1.854
  168TIP3    H2  450   2.834   6.952   1.882
  169TIP3   OH2  451   6.535   1.623   6.469
  169TIP3    H1  452   6.490   1.706   6.453
  169TIP3    H2  453   6.628   1.644   6.460
  170TIP3   OH2  454   2.707   2.182   1.295
  170TIP3    H1  455   2.648   2.115   1.260
  170TIP3    H2  456   2.719   2.158   1.387
  171TIP3   OH2  457   5.810   3.636   5.685
  171TIP3    H1  458   5.769   3.708   5.638
  171TIP3    H2  459   5.835   3.673   5.770
  172TIP3   OH2  460   3.538   0.543   1.856
  172TIP3    H1  461   3.486   0.464   1.844
  172TIP3    H2  462   3.559   0.544   1.949
  173TIP3   OH2  463  -0.026   1.101   0.690
  173TIP3    H1  464   0.030   1.067   0.761
  173TIP3    H2  465   0.006   1.190   0.676
  174TIP3   OH2  466   7.674   4.326   3.949
  174TIP3    H1  467   7.766   4.326   3.922
  174TIP3    H2  468   7.636   4.402   3.905
  175TIP3   OH2  469   3.653   7.109   1.512
  175TIP3    H1  470   3.590   7.140   1.448
  175TIP3    H2  471   3.694   7.032   1.471
  176TIP3   OH2  472   7.000   3.642   6.065
  176TIP3    H1  473   7.088   3.626   6.100
  176TIP3    H2  474   6.975   3.727   6.100
  177TIP3   OH2  475   0.778   6.430   4.834
  177TIP3    H1  476   0.711   6.496   4.854
  177TIP3    H2  477   0.744   6.349   4.872
  178TIP3   OH2  478   5.050   5.410   1.978
  178TIP3    H1  479   5.115   5.452   2.035
  178TIP3    H2  480   5.088   5.416   1.891
  179TIP3   OH2  481   0.011   3.457   3.184
  179TIP3    H1  482   0.003   3.505   3.267
  179TIP3    H2  483  -0.005   3.522   3.117
  180TIP3   OH2  484   3.009   1.314   5.085
  180TIP3    H1  485   2.967   1.254   5.024
  180TIP3    H2  486   3.098   1.325   5.051
  181TIP3   OH2  487   2.484   3.541   0.646
  181TIP3    H1  488   2.414   3.495   0.600
  181TIP3    H2  489   2.446   3.626   0.669
  182TIP3   OH2  490   3.130   6.322   2.044
  182TIP3    H1  491   3.169   6.371   1.972
  182TIP3    H2  492   3.200   6.315   2.109
  183TIP3   OH2  493   1.832   5.948   6.531
  183TIP3    H1  494   1.909   5.931   6.478
  183TIP3    H2  495   1.771   5.993   6.472
  184TIP3   OH2  496   0.317   7.691   3.745
  184TIP3    H1  497   0.328   7.695   3.650
  184TIP3    H2  498   0.272   7.773   3.768
  185TIP3   OH2  499   5.015   2.155   2.481
  185TIP3    H1  500   4.988   2.149   2.572
  185TIP3    H2  501   4.984   2.242   2.452
  186TIP3   OH2  502   6.825   0.755   4.662
  186TIP3    H1  503   6.887   0.824   4.685
  186TIP3    H2  504   6.820   0.700   4.741
  187TIP3   OH2  505   4.301   7.028   0.492
  187TIP3    H1  506   4.345   7.081   0.425
  187TIP3    H2  507   4.373   6.999   0.549
  188TIP3   OH2  508   3.533   2.569   5.613
  188TIP3    H1  509   3.590   2.548   5.539
  188TIP3    H2  510   3.456   2.515   5.599
  189TIP3   OH2  511   6.142   0.354   0.198
  189TIP3    H1  512   6.195   0.299   0.256
  189TIP3    H2  513   6.059   0.307   0.188
  190TIP3   OH2  514   6.096   5.822   0.155
  190TIP3    H1  515   6.181   5.853   0.185
  190TIP3    H2  516   6.108   5.808   0.061
  191TIP3   OH2  517   3.940   3.990   5.414
  191TIP3    H1  518   4.013   4.025   5.364
  191TIP3    H2  519   3.948   3.895   5.406
  192TIP3   OH2  520   6.866   4.168   6.035
  192TIP3    H1  521   6.891   4.258   6.014
  192TIP3    H2  522   6.942   4.116   6.010
  193TIP3   OH2  523   0.141   0.412   1.581
  193TIP3    H1  524   0.065   0.460   1.549
  193TIP3    H2  525   0.109   0.364   1.657
  194TIP3   OH2  526   8.150   3.362   3.747
  194TIP3    H1  527   8.195   3.354   3.662
  194TIP3    H2  528   8.061   3.388   3.725
  195TIP3   OH2  529   7.164   2.989   0.257
  195TIP3    H1  530   7.156   3.052   0.329
  195TIP3    H2  531   7.081   2.996   0.210
  196TIP3   OH2  532   6.789   2.404   3.895
  196TIP3    H1  533   6.711   2.460   3.897
  196TIP3    H2  534   6.755   2.315   3.887
  197TIP3   OH2  535   6.411   1.267   1.429
  197TIP3    H1  536   6.335   1.301   1.381
  197TIP3    H2  537   6.454   1.209   1.366
  198TIP3   OH2  538   4.301   5.563   2.112
  198TIP3    H1  539   4.252   5.502   2.167
  198TIP3    H2  540   4.316   5.639   2.168
  199TIP3   OH2  541   6.757   4.267   5.632
  199TIP3    H1  542   6.704   4.346   5.631
  199TIP3    H2  543   6.828   4.285   5.571
  200TIP3   OH2  544   0.699   3.145   3.731
  200TIP3    H1  545   0.651   3.099   3.662
  200TIP3    H2  546   0.636   3.154   3.802
  201TIP3   OH2  547   6.867   5.477   5.158
  201TIP3    H1  548   6.887   5.535   5.084
  201TIP3    H2  549   6.870   5.535   5.235
  202TIP3   OH2  550   3.233   2.036   0.363
  202TIP3    H1  551   3.147   2.032   0.405
  202TIP3    H2  552   3.272   1.950   0.382
  203TIP3   OH2  553   5.698   4.185   4.830
  203TIP3    H1  554   5.662   4.273   4.831
  203TIP3    H2  555   5.793   4.197   4.826
  204TIP3   OH2  556   4.456   2.598   2.790
  204TIP3    H1  557   4.424   2.563   2.873
  204TIP3    H2  558   4.405   2.551   2.723
  205TIP3   OH2  559   0.931   5.597   3.165
  205TIP3    H1  560   0.914   5.510   3.128
  205TIP3    H2  561   0.846   5.628   3.195
  206TIP3   OH2  562   3.632   4.990   5.684
  206TIP3    H1  563   3.601   4.973   5.773
  206TIP3    H2  564   3.563   5.043   5.644
  207TIP3   OH2  565   4.610   7.412   4.152
  207TIP3    H1  566   4.647   7.467   4.221
  207TIP3    H2  567   4.516   7.424   4.160
  208TIP3   OH2  568   7.235   0.593   2.086
  208TIP3    H1  569   7.157   0.581   2.140
  208TIP3    H2  570   7.251   0.506   2.048
  209TIP3   OH2  571   5.211   3.507   1.266
  209TIP3    H1  572   5.239   3.417   1.282
  209TIP3    H2  573   5.116   3.504   1.270
  210TIP3   OH2  574   7.073   1.082   6.163
  210TIP3    H1  575   7.018   1.159   6.150
  210TIP3    H2  576   7.153   1.101   6.113
  211TIP3   OH2  577   4.992   0.997   5.118
  211TIP3    H1  578   4.911   0.950   5.098
  211TIP3    H2  579   4.991   1.072   5.058
  212TIP3   OH2  580   0.176   5.537   0.151
  212TIP3    H1  581   0.235   5.612   0.158
  212TIP3    H2  582   0.224   5.473   0.099
  213TIP3   OH2  583   6.201   0.581   0.292
  213TIP3    H1  584   6.128   0.595   0.353
  213TIP3    H2  585   6.182   0.497   0.251
  214TIP3   OH2  586   7.540   6.486   1.342
  214TIP3    H1  587   7.627   6.457   1.316
  214TIP3    H2  588   7.546   6.582   1.342
  215TIP3   OH2  589   7.176   2.963   2.691
  215TIP3    H1  590   7.196   3.044   2.645
  215TIP3    H2  591   7.118   2.988   2.762
  216TIP3   OH2  592   1.776   3.737   5.244
  216TIP3    H1  593   1.730   3.820   5.232
  216TIP3    H2  594   1.775   3.697   5.157
  217TIP3   OH2  595   3.053   6.444   5.504
  217TIP3    H1  596   2.970   6.475   5.540
  217TIP3    H2  597   3.120   6.484   5.560
  218TIP3   OH2  598   6.875   6.357   3.416
  218TIP3    H1  599   6.826   6.365   3.498
  218TIP3    H2  600   6.946   6.422   3.425
  219TIP3   OH2  601   7.252   1.025   1.840
  219TIP3    H1  602   7.232   1.113   1.872
  219TIP3    H2  603   7.235   0.968   1.915
  220TIP3   OH2  604   3.432   2.535   1.110
  220TIP3    H1  605   3.454   2.623   1.082
  220TIP3    H2  606   3.345   2.543   1.149
  221TIP3   OH2  607   4.129   1.459   3.217
  221TIP3    H1  608   4.087   1.494   3.296
  221TIP3    H2  609   4.161   1.372   3.244
  222TIP3   OH2  610   7.674   4.130   2.915
  222TIP3    H1  611   7.581   4.144   2.896
  222TIP3    H2  612   7.713   4.106   2.831
  223TIP3   OH2  613   0.951   3.122   5.837
  223TIP3    H1  614   1.020   3.059   5.814
  223TIP3    H2  615   0.944   3.116   5.932
  224TIP3   OH2  616   3.758   4.849   5.317
  224TIP3    H1  617   3.693   4.919   5.312
  224TIP3    H2  618   3.711   4.776   5.358
  225TIP3   OH2  619   5.045   5.849   2.232
  225TIP3    H1  620   4.955   5.835   2.262
  225TIP3    H2  621   5.087   5.896   2.304
  226TIP3   OH2  622   1.273   5.051   4.087
  226TIP3    H1  623   1.215   5.120   4.121
  226TIP3    H2  624   1.360   5.089   4.091
  227TIP3   OH2  625   2.063   4.876   0.402
  227TIP3    H1  626   2.112   4.796   0.382
  227TIP3    H2  627   2.048   4.871   0.496
  228TIP3   OH2  628   7.767   7.060   2.354
  228TIP3    H1  629   7.780   7.052   2.449
  228TIP3    H2  630   7.698   6.998   2.334
  229TIP3   OH2  631   0.538   2.303   5.305
  229TIP3    H1  632   0.447   2.274   5.303
  229TIP3    H2  633   0.535   2.388   5.349
  230TIP3   OH2  634   6.147   3.010   3.046
  230TIP3    H1  635   6.115   2.945   2.983
  230TIP3    H2  636   6.072   3.027   3.102
  231TIP3   OH2  637   4.535   5.077   1.411
  231TIP3    H1  638   4.574   5.023   1.480
  231TIP3    H2  639   4.596   5.070   1.338
  232TIP3   OH2  640   2.695   3.566   5.748
  232TIP3    H1  641   2.675   3.654   5.718
  232TIP3    H2  642   2.644   3.508   5.691
  233TIP3   OH2  643   3.739   7.685   0.168
  233TIP3    H1  644   3.816   7.714   0.216
  233TIP3    H2  645   3.722   7.753   0.104
  234TIP3   OH2  646   1.113   7.032   6.154
  234TIP3    H1  647   1.158   7.110   6.186
  234TIP3    H2  648   1.124   6.968   6.224
  235TIP3   OH2  649   1.496   3.544   0.575
  235TIP3    H1  650   1.516   3.507   0.489
  235TIP3    H2  651   1.458   3.630   0.557
  236TIP3   OH2  652   4.962   2.996   4.167
  236TIP3    H1  653   5.020   2.961   4.235
  236TIP3    H2  654   4.910   2.921   4.139
  237TIP3   OH2  655   4.119   6.070   5.331
  237TIP3    H1  656   4.142   6.162   5.347
  237TIP3    H2  657   4.103   6.065   5.237
  238TIP3   OH2  658   3.229   5.599   1.377
  238TIP3    H1  659   3.215   5.598   1.472
  238TIP3    H2  660   3.211   5.509   1.350
  239TIP3   OH2  661   4.534   4.384   4.766
  239TIP3    H1  662   4.527   4.381   4.671
  239TIP3    H2  663   4.446   4.361   4.797
  240TIP3   OH2  664   2.459   2.064   5.886
  240TIP3    H1  665   2.486   2.139   5.939
  240TIP3    H2  666   2.379   2.033   5.928
  241TIP3   OH2  667   6.563   0.682   4.873
  241TIP3    H1  668   6.544   0.756   4.815
  241TIP3    H2  669   6.507   0.696   4.949
  242TIP3   OH2  670   4.067   3.865   4.768
  242TIP3    H1  671   4.015   3.893   4.843
  242TIP3    H2  672   4.074   3.942   4.713
  243TIP3   OH2  673   4.990   7.556   1.660
  243TIP3    H1  674   4.901   7.553   1.695
  243TIP3    H2  675   4.978   7.561   1.565
  244TIP3   OH2  676   3.033   3.736   2.961
  244TIP3    H1  677   2.952   3.709   2.919
  244TIP3    H2  678   3.080   3.654   2.978
  245TIP3   OH2  679   5.689   1.815   0.314
  245TIP3    H1  680   5.621   1.800   0.249
  245TIP3    H2  681   5.660   1.894   0.360
  246TIP3   OH2  682   6.366   5.045   4.845
  246TIP3    H1  683   6.369   4.990   4.923
  246TIP3    H2  684   6.313   5.121   4.871
  247TIP3   OH2  685   1.510   6.958   6.397
  247TIP3    H1  686   1.517   7.015   6.321
  247TIP3    H2  687   1.543   7.011   6.470
  248TIP3   OH2  688   5.507   2.217   2.842
  248TIP3    H1  689   5.589   2.241   2.800
  248TIP3    H2  690   5.441   2.274   2.803
  249TIP3   OH2  691   3.283   1.586   6.739
  249TIP3    H1  692   3.310   1.518   6.677
  249TIP3    H2  693   3.224   1.642   6.688
  250TIP3   OH2  694   4.806   1.311   6.528
  250TIP3    H1  695   4.764   1.282   6.609
  250TIP3    H2  696   4.771   1.399   6.513
  251TIP3   OH2  697   3.819   6.830   4.431
  251TIP3    H1  698   3.775   6.882   4.498
  251TIP3    H2  699   3.912   6.852   4.441
  252TIP3   OH2  700   2.673   3.061   3.998
  252TIP3    H1  701   2.673   2.972   3.961
  252TIP3    H2  702   2.683   3.118   3.922
  253TIP3   OH2  703   1.727   2.868   0.747
  253TIP3    H1  704   1.658   2.803   0.762
  253TIP3    H2  705   1.804   2.832   0.790
  254TIP3   OH2  706   3.741   0.367   5.223
  254TIP3    H1  707   3.699   0.284   5.197
  254TIP3    H2  708   3.774   0.404   5.141
  255TIP3   OH2  709   6.167   3.715   2.411
  255TIP3    H1  710   6.153   3.771   2.334
  255TIP3    H2  711   6.080   3.703   2.447
  256TIP3   OH2  712   6.326   2.059   1.715
  256TIP3    H1  713   6.414   2.089   1.693
  256TIP3    H2  714   6.295   2.016   1.635
  257TIP3   OH2  715   7.985   4.037   1.211
  257TIP3    H1  716   7.890   4.046   1.210
  257TIP3    H2  717   8.012   4.060   1.122
  258TIP3   OH2  718   3.420   4.021   1.473
  258TIP3    H1  719   3.335   4.024   1.516
  258TIP3    H2  720   3.471   4.089   1.516
  259TIP3   OH2  721   0.620   2.999   4.534
  259TIP3    H1  722   0.543   3.030   4.582
  259TIP3    H2  723   0.601   2.908   4.513
  260TIP3   OH2  724   2.782   0.550   6.526
  260TIP3    H1  725   2.835   0.470   6.528
  260TIP3    H2  726   2.800   0.593   6.610
  261TIP3   OH2  727   0.139   7.280   1.444
  261TIP3    H1  728   0.227   7.319   1.445
  261TIP3    H2  729   0.151   7.197   1.398
  262TIP3   OH2  730   4.130   2.650   6.690
  262TIP3    H1  731   4.176   2.571   6.661
  262TIP3    H2  732   4.081   2.623   6.768
  263TIP3   OH2  733   4.774   7.202   2.399
  263TIP3    H1  734   4.730   7.246   2.326
  263TIP3    H2  735   4.809   7.274   2.452
  264TIP3   OH2  736   6.285   4.384   3.448
  264TIP3    H1  737   6.282   4.448   3.519
  264TIP3    H2  738   6.335   4.427   3.378
  265TIP3   OH2  739   7.446   5.643   2.105
  265TIP3    H1  740   7.386   5.707   2.144
  265TIP3    H2  741   7.531   5.688   2.103
  266TIP3   OH2  742   6.691   6.054   3.307
  266TIP3    H1  743   6.685   6.082   3.398
  266TIP3    H2  744   6.642   6.119   3.258
  267TIP3   OH2  745   5.333   7.466   4.203
  267TIP3    H1  746   5.411   7.498   4.157
  267TIP3    H2  747   5.365   7.438   4.288
  268TIP3   OH2  748   5.260   3.913   5.823
  268TIP3    H1  749   5.313   3.939   5.898
  268TIP3    H2  750   5.312   3.844   5.780
  269TIP3   OH2  751   3.496   7.344   0.572
  269TIP3    H1  752   3.504   7.427   0.525
  269TIP3    H2  753   3.401   7.332   0.582
  270TIP3   OH2  754   5.327   7.632   5.852
  270TIP3    H1  755   5.355   7.649   5.762
  270TIP3    H2  756   5.382   7.689   5.906
  271TIP3   OH2  757   4.417   2.831   3.692
  271TIP3    H1  758   4.430   2.747   3.736
  271TIP3    H2  759   4.395   2.807   3.602
  272TIP3   OH2  760   3.070   0.249   6.184
  272TIP3    H1  761   3.090   0.337   6.217
  272TIP3    H2  762   2.992   0.262   6.130
  273TIP3   OH2  763   3.842   6.872   2.333
  273TIP3    H1  764   3.937   6.871   2.328
  273TIP3    H2  765   3.821   6.814   2.406
  274TIP3   OH2  766   1.809   0.631   5.945
  274TIP3    H1  767   1.746   0.703   5.943
  274TIP3    H2  768   1.884   0.663   5.894
  275TIP3   OH2  769   5.184   5.756   3.423
  275TIP3    H1  770   5.158   5.668   3.451
  275TIP3    H2  771   5.231   5.792   3.498
  276TIP3   OH2  772   0.064   0.137   3.154
  276TIP3    H1  773   0.010   0.212   3.179
  276TIP3    H2  774   0.036   0.066   3.213
  277TIP3   OH2  775   5.561   0.776   4.418
  277TIP3    H1  776   5.654   0.787   4.435
  277TIP3    H2  777   5.536   0.701   4.473
  278TIP3   OH2  778   3.871   0.351   2.796
  278TIP3    H1  779   3.876   0.443   2.772
  278TIP3    H2  780   3.894   0.349   2.889
  279TIP3   OH2  781   0.102   6.155   5.293
  279TIP3    H1  782   0.009   6.134   5.300
  279TIP3    H2  783   0.111   6.237   5.343
  280TIP3   OH2  784   3.123   5.961   4.906
  280TIP3    H1  785   3.173   5.899   4.959
  280TIP3    H2  786   3.040   5.971   4.951
  281TIP3   OH2  787   5.075   2.376   1.880
  281TIP3    H1  788   5.119   2.456   1.907
  281TIP3    H2  789   5.100   2.364   1.789
  282TIP3   OH2  790   2.585   2.197   2.297
  282TIP3    H1  791   2.544   2.254   2.232
  282TIP3    H2  792   2.512   2.150   2.338
  283TIP3   OH2  793   6.423   4.252   5.543
  283TIP3    H1  794   6.416   4.341   5.579
  283TIP3    H2  795   6.514   4.246   5.513
  284TIP3   OH2  796   5.911   5.519   2.459
  284TIP3    H1  797   5.847   5.478   2.517
  284TIP3    H2  798   5.976   5.451   2.443
  285TIP3   OH2  799   5.982   1.614   2.323
  285TIP3    H1  800   6.014   1.688   2.270
  285TIP3    H2  801   6.062   1.572   2.356
  286TIP3   OH2  802   2.909   1.901   4.252
  286TIP3    H1  803   2.817   1.873   4.249
  286TIP3    H2  804   2.955   1.828   4.295
  287TIP3   OH2  805   8.235   6.053   3.641
  287TIP3    H1  806   8.221   6.077   3.733
  287TIP3    H2  807   8.330   6.053   3.631
  288TIP3   OH2  808   4.926   4.002   0.960
  288TIP3    H1  809   4.931   3.980   0.867
  288TIP3    H2  810   4.865   3.938   0.996
  289TIP3   OH2  811   2.215   6.848   4.992
  289TIP3    H1  812   2.171   6.905   4.928
  289TIP3    H2  813   2.304   6.883   4.997
  290TIP3   OH2  814   6.965   4.862   3.041
  290TIP3    H1  815   6.913   4.927   2.993
  290TIP3    H2  816   7.043   4.910   3.070
  291TIP3   OH2  817   0.707   1.459   0.140
  291TIP3    H1  818   0.667   1.433   0.057
  291TIP3    H2  819   0.633   1.484   0.195
  292TIP3   OH2  820   7.058   0.283   0.518
  292TIP3    H1  821   7.151   0.272   0.499
  292TIP3    H2  822   7.052   0.369   0.559
  293TIP3   OH2  823   4.461   5.787   0.248
  293TIP3    H1  824   4.440   5.698   0.220
  293TIP3    H2  825   4.540   5.809   0.198
  294TIP3   OH2  826   5.514   0.369   3.817
  294TIP3    H1  827   5.595   0.376   3.867
  294TIP3    H2  828   5.450   0.420   3.867
  295TIP3   OH2  829   4.263   3.976   2.501
  295TIP3    H1  830   4.188   3.918   2.509
  295TIP3    H2  831   4.331   3.923   2.459
  296TIP3   OH2  832   4.329   0.742   2.108
  296TIP3    H1  833   4.419   0.710   2.110
  296TIP3    H2  834   4.327   0.804   2.034
  297TIP3   OH2  835   2.946   0.906   2.155
  297TIP3    H1  836   2.915   0.844   2.088
  297TIP3    H2  837   2.937   0.991   2.113
  298TIP3   OH2  838   7.188   2.495   1.756
  298TIP3    H1  839   7.157   2.446   1.832
  298TIP3    H2  840   7.223   2.576   1.792
  299TIP3   OH2  841   6.046   5.041   6.507
  299TIP3    H1  842   6.006   5.072   6.589
  299TIP3    H2  843   6.008   5.098   6.440
  300TIP3   OH2  844   0.279   7.070   5.720
  300TIP3    H1  845   0.316   6.995   5.674
  300TIP3    H2  846   0.319   7.146   5.677
  301TIP3   OH2  847   4.775   6.160   1.960
  301TIP3    H1  848   4.824   6.079   1.976
  301TIP3    H2  849   4.684   6.138   1.982
  302TIP3   OH2  850   0.122   4.573   2.713
  302TIP3    H1  851   0.045   4.608   2.759
  302TIP3    H2  852   0.186   4.644   2.716
  303TIP3   OH2  853   5.481   3.393   2.593
  303TIP3    H1  854   5.397   3.348   2.602
  303TIP3    H2  855   5.459   3.480   2.560
  304TIP3   OH2  856   7.890   0.081   4.056
  304TIP3    H1  857   7.833   0.046   3.987
  304TIP3    H2  858   7.887   0.014   4.125
  305TIP3   OH2  859   0.199   2.859   5.505
  305TIP3    H1  860   0.251   2.842   5.583
  305TIP3    H2  861   0.200   2.954   5.496
  306TIP3   OH2  862   6.935   7.154   0.761
  306TIP3    H1  863   6.928   7.205   0.680
  306TIP3    H2  864   7.020   7.110   0.754
  307TIP3   OH2  865   0.145   1.030   3.237
  307TIP3    H1  866   0.118   1.090   3.168
  307TIP3    H2  867   0.064   1.005   3.281
  308TIP3   OH2  868   2.572   1.023   6.542
  308TIP3    H1  869   2.584   1.077   6.620
  308TIP3    H2  870   2.640   1.053   6.481
  309TIP3   OH2  871   1.945   3.500   6.155
  309TIP3    H1  872   2.028   3.547   6.167
  309TIP3    H2  873   1.926   3.508   6.062
  310TIP3   OH2  874   8.016   6.603   1.168
  310TIP3    H1  875   8.075   6.623   1.095
  310TIP3    H2  876   7.998   6.509   1.159
  311TIP3   OH2  877   0.620   2.893   3.570
  311TIP3    H1  878   0.627   2.803   3.604
  311TIP3    H2  879   0.629   2.883   3.475
  312TIP3   OH2  880   7.376   3.260   2.350
  312TIP3    H1  881   7.291   3.301   2.367
  312TIP3    H2  882   7.360   3.201   2.276
  313TIP3   OH2  883   1.069   7.240   5.721
  313TIP3    H1  884   1.115   7.243   5.637
  313TIP3    H2  885   1.122   7.183   5.776
  314TIP3   OH2  886   1.076   4.712   1.255
  314TIP3    H1  887   1.084   4.686   1.164
  314TIP3    H2  888   1.161   4.690   1.294
  315TIP3   OH2  889   7.061   6.149   5.981
  315TIP3    H1  890   7.042   6.062   5.947
  315TIP3    H2  891   7.147   6.170   5.946
  316TIP3   OH2  892   5.798   4.006   5.397
  316TIP3    H1  893   5.859   4.075   5.370
  316TIP3    H2  894   5.729   4.008   5.330
  317TIP3   OH2  895   0.214   3.781   5.105
  317TIP3    H1  896   0.229   3.810   5.015
  317TIP3    H2  897   0.174   3.694   5.095
  318TIP3   OH2  898   3.239   4.022   5.741
  318TIP3    H1  899   3.319   3.973   5.760
  318TIP3    H2  900   3.244   4.041   5.647
  319TIP3   OH2  901   5.246   1.164   3.609
  319TIP3    H1  902   5.241   1.260   3.617
  319TIP3    H2  903   5.329   1.148   3.564
  320TIP3   OH2  904   1.328   7.052   1.052
  320TIP3    H1  905   1.328   6.958   1.035
  320TIP3    H2  906   1.296   7.091   0.970
  321TIP3   OH2  907   2.185   0.384   1.861
  321TIP3    H1  908   2.271   0.424   1.852
  321TIP3    H2  909   2.164   0.392   1.954
  322TIP3   OH2  910   5.907   1.589   3.583
  322TIP3    H1  911   5.864   1.596   3.497
  322TIP3    H2  912   5.849   1.635   3.643
  323TIP3   OH2  913   3.325   4.778   2.743
  323TIP3    H1  914   3.370   4.760   2.826
  323TIP3    H2  915   3.337   4.872   2.729
  324TIP3   OH2  916   0.207   5.255   5.543
  324TIP3    H1  917   0.162   5.297   5.469
  324TIP3    H2  918   0.291   5.227   5.507
  325TIP3   OH2  919   8.018   3.880   0.208
  325TIP3    H1  920   8.061   3.821   0.146
  325TIP3    H2  921   7.940   3.911   0.162
  326TIP3   OH2  922   5.693   1.296   2.744
  326TIP3    H1  923   5.601   1.271   2.750
  326TIP3    H2  924   5.691   1.389   2.721
  327TIP3   OH2  925   5.037   6.832   1.346
  327TIP3    H1  926   5.018   6.843   1.253
  327TIP3    H2  927   5.107   6.895   1.364
  328TIP3   OH2  928   2.136   1.569   1.399
  328TIP3    H1  929   2.090   1.639   1.445
  328TIP3    H2  930   2.077   1.544   1.328
  329TIP3   OH2  931   0.708   1.132   3.511
  329TIP3    H1  932   0.736   1.059   3.566
  329TIP3    H2  933   0.670   1.195   3.572
  330TIP3   OH2  934   1.833   2.719   1.676
  330TIP3    H1  935   1.762   2.672   1.631
  330TIP3    H2  936   1.828   2.808   1.640
  331TIP3   OH2  937   1.304   4.690   3.747
  331TIP3    H1  938   1.213   4.680   3.774
  331TIP3    H2  939   1.300   4.703   3.652
  332TIP3   OH2  940   4.120   2.282   0.973
  332TIP3    H1  941   4.215   2.268   0.969
  332TIP3    H2  942   4.084   2.215   0.916
  333TIP3   OH2  943   0.635   7.609   4.461
  333TIP3    H1  944   0.699   7.657   4.513
  333TIP3    H2  945   0.550   7.639   4.494
  334TIP3   OH2  946   5.113   4.583   0.033
  334TIP3    H1  947   5.029   4.623   0.014
  334TIP3    H2  948   5.102   4.491   0.006
  335TIP3   OH2  949   4.799   7.760   0.060
  335TIP3    H1  950   4.890   7.737   0.076
  335TIP3    H2  951   4.802   7.848   0.022
  336TIP3   OH2  952   1.909   5.982   1.889
  336TIP3    H1  953   1.880   5.966   1.799
  336TIP3    H2  954   1.999   5.949   1.891
  337TIP3   OH2  955   0.983   4.405   4.311
  337TIP3    H1  956   1.040   4.475   4.342
  337TIP3    H2  957   0.899   4.447   4.293
  338TIP3   OH2  958   7.883   5.783   4.762
  338TIP3    H1  959   7.963   5.797   4.812
  338TIP3    H2  960   7.849   5.699   4.793
  339TIP3   OH2  961   7.753   2.789   5.342
  339TIP3    H1  962   7.707   2.869   5.319
  339TIP3    H2  963   7.733   2.728   5.272
  340TIP3   OH2  964   4.815   2.729   4.107
  340TIP3    H1  965   4.782   2.653   4.155
  340TIP3    H2  966   4.824   2.698   4.017
  341TIP3   OH2  967   5.472   5.355   2.958
  341TIP3    H1  968   5.484   5.449   2.941
  341TIP3    H2  969   5.528   5.337   3.033
  342TIP3   OH2  970   2.472   5.076   6.396
  342TIP3    H1  971   2.423   5.135   6.453
  342TIP3    H2  972   2.453   5.107   6.307
  343TIP3   OH2  973   0.937   7.424   0.434
  343TIP3    H1  974   0.998   7.496   0.448
  343TIP3    H2  975   0.937   7.411   0.339
  344TIP3   OH2  976   7.668   4.180   1.784
  344TIP3    H1  977   7.744   4.236   1.770
  344TIP3    H2  978   7.603   4.209   1.719
  345TIP3   OH2  979   5.376   0.768   0.091
  345TIP3    H1  980   5.332   0.843   0.051
  345TIP3    H2  981   5.413   0.803   0.172
  346TIP3   OH2  982   6.310   5.468   4.669
  346TIP3    H1  983   6.227   5.482   4.622
  346TIP3    H2  984   6.332   5.554   4.705
  347TIP3   OH2  985   3.262   4.031   4.731
  347TIP3    H1  986   3.323   4.052   4.802
  347TIP3    H2  987   3.188   4.090   4.744
  348TIP3   OH2  988   3.976   7.162   4.484
  348TIP3    H1  989   4.052   7.195   4.532
  348TIP3    H2  990   3.900   7.191   4.535
  349TIP3   OH2  991   5.647   0.978   3.955
  349TIP3    H1  992   5.569   0.990   3.901
  349TIP3    H2  993   5.616   0.930   4.032
  350TIP3   OH2  994   7.430   0.845   3.041
  350TIP3    H1  995   7.419   0.793   3.120
  350TIP3    H2  996   7.520   0.878   3.045
  351TIP3   OH2  997   3.961   7.392   2.664
  351TIP3    H1  998   4.003   7.467   2.705
  351TIP3    H2  999   4.022   7.366   2.594
  352TIP3   OH2 1000   8.282   3.088   2.460
  352TIP3    H1 1001   8.195   3.098   2.421
  352TIP3    H2 1002   8.268   3.106   2.553
  353TIP3   OH2 1003   0.432   3.372   6.621
  353TIP3    H1 1004   0.385   3.377   6.704
  353TIP3    H2 1005   0.514   3.328   6.642
  354TIP3   OH2 1006   1.362   0.596   4.545
  354TIP3    H1 1007   1.443   0.633   4.511
  354TIP3    H2 1008   1.378   0.502   4.550
  355TIP3   OH2 1009   2.644   1.363   1.998
  355TIP3    H1 1010   2.590   1.284   1.988
  355TIP3    H2 1011   2.653   1.397   1.909
  356TIP3   OH2 1012   7.850   1.363   1.512
  356TIP3    H1 1013   7.815   1.383   1.599
  356TIP3    H2 1014   7.777   1.379   1.453
  357TIP3   OH2 1015   0.097   2.340   6.096
  357TIP3    H1 1016   0.024   2.338   6.157
  357TIP3    H2 1017   0.175   2.337   6.152
  358TIP3   OH2 1018   0.645   5.756   5.932
  358TIP3    H1 1019   0.615   5.758   6.022
  358TIP3    H2 1020   0.718   5.818   5.930
  359TIP3   OH2 1021   6.188   2.058   0.107
  359TIP3    H1 1022   6.182   2.066   0.012
  359TIP3    H2 1023   6.156   2.142   0.140
  360TIP3   OH2 1024   2.925   0.145   3.493
  360TIP3    H1 1025   2.843   0.098   3.504
  360TIP3    H2 1026   2.901   0.221   3.439
  361TIP3   OH2 1027   4.004   3.362   4.113
  361TIP3    H1 1028   3.977   3.418   4.040
  361TIP3    H2 1029   3.982   3.413   4.191
  362TIP3   OH2 1030   5.633   1.198   6.694
  362TIP3    H1 1031   5.677   1.116   6.716
  362TIP3    H2 1032   5.570   1.211   6.765
  363TIP3   OH2 1033   7.476   6.476   2.721
  363TIP3    H1 1034   7.545   6.493   2.785
  363TIP3    H2 1035   7.450   6.385   2.737
  364TIP3   OH2 1036   3.895   4.089   4.302
  364TIP3    H1 1037   3.910   4.000   4.271
  364TIP3    H2 1038   3.969   4.140   4.268
  365TIP3   OH2 1039   7.830   4.735   4.648
  365TIP3    H1 1040   7.742   4.699   4.640
  365TIP3    H2 1041   7.888   4.663   4.627
  366TIP3   OH2 1042   1.157   7.396   3.218
  366TIP3    H1 1043   1.193   7.309   3.201
  366TIP3    H2 1044   1.062   7.386   3.206
  367TIP3   OH2 1045   6.597   4.135   4.968
  367TIP3    H1 1046   6.655   4.210   4.956
  367TIP3    H2 1047   6.656   4.059   4.962
  368TIP3   OH2 1048   4.020   0.063   4.367
  368TIP3    H1 1049   4.008   0.006   4.291
  368TIP3    H2 1050   4.114   0.078   4.371
  369TIP3   OH2 1051   4.531   3.789   5.215
  369TIP3    H1 1052   4.548   3.816   5.125
  369TIP3    H2 1053   4.537   3.694   5.213
  370TIP3   OH2 1054   0.815   5.074   2.990
  370TIP3    H1 1055   0.723   5.082   3.016
  370TIP3    H2 1056   0.812   5.044   2.899
  371TIP3   OH2 1057   4.291   2.441   6.053
  371TIP3    H1 1058   4.339   2.411   5.976
  371TIP3    H2 1059   4.204   2.462   6.020
  372TIP3   OH2 1060   2.357   4.174   1.481
  372TIP3    H1 1061   2.272   4.214   1.499
  372TIP3    H2 1062   2.338   4.102   1.421
  373TIP3   OH2 1063   5.465   2.039   4.788
  373TIP3    H1 1064   5.390   2.042   4.729
  373TIP3    H2 1065   5.526   2.103   4.752
  374TIP3   OH2 1066   4.801   4.705   4.829
  374TIP3    H1 1067   4.837   4.774   4.884
  374TIP3    H2 1068   4.846   4.716   4.744
  375TIP3   OH2 1069   7.766   0.791   0.203
  375TIP3    H1 1070   7.849   0.783   0.251
  375TIP3    H2 1071   7.781   0.861   0.140
  376TIP3   OH2 1072   6.961   3.517   2.956
  376TIP3    H1 1073   7.020   3.579   2.999
  376TIP3    H2 1074   6.931   3.564   2.878
  377TIP3   OH2 1075   4.958   0.203   1.914
  377TIP3    H1 1076   4.869   0.208   1.881
  377TIP3    H2 1077   4.956   0.130   1.977
  378TIP3   OH2 1078   5.010   2.449   6.376
  378TIP3    H1 1079   5.085   2.458   6.317
  378TIP3    H2 1080   4.993   2.538   6.407
  379TIP3   OH2 1081   7.082   5.123   1.310
  379TIP3    H1 1082   7.089   5.178   1.232
  379TIP3    H2 1083   7.129   5.172   1.378
  380TIP3   OH2 1084   4.961   0.117   4.180
  380TIP3    H1 1085   5.009   0.034   4.191
  380TIP3    H2 1086   5.029   0.184   4.179
  381TIP3   OH2 1087   1.635   5.565   4.030
  381TIP3    H1 1088   1.573   5.569   4.103
  381TIP3    H2 1089   1.687   5.487   4.047
  382TIP3   OH2 1090   6.484   3.678   4.822
  382TIP3    H1 1091   6.405   3.713   4.864
  382TIP3    H2 1092   6.456   3.654   4.734
  383TIP3   OH2 1093   1.386   0.251   5.838
  383TIP3    H1 1094   1.446   0.258   5.912
  383TIP3    H2 1095   1.346   0.164   5.846
  384TIP3   OH2 1096   6.673   3.944   6.047
  384TIP3    H1 1097   6.726   4.023   6.038
  384TIP3    H2 1098   6.676   3.903   5.961
  385TIP3   OH2 1099   1.364   7.645   2.311
  385TIP3    H1 1100   1.389   7.689   2.229
  385TIP3    H2 1101   1.389   7.707   2.380
  386TIP3   OH2 1102   5.133   5.100   1.238
  386TIP3    H1 1103   5.221   5.109   1.203
  386TIP3    H2 1104   5.122   5.174   1.297
  387TIP3   OH2 1105   6.492   1.563   2.080
  387TIP3    H1 1106   6.521   1.477   2.112
  387TIP3    H2 1107   6.563   1.592   2.023
  388TIP3   OH2 1108   4.550   2.347   4.576
  388TIP3    H1 1109   4.568   2.255   4.596
  388TIP3    H2 1110   4.628   2.394   4.606
  389TIP3   OH2 1111   5.992   7.269   1.553
  389TIP3    H1 1112   5.993   7.207   1.625
  389TIP3    H2 1113   6.069   7.247   1.501
  390TIP3   OH2 1114   3.788   0.283   2.065
  390TIP3    H1 1115   3.735   0.210   2.098
  390TIP3    H2 1116   3.851   0.243   2.007
  391TIP3   OH2 1117   0.389   2.014   0.673
  391TIP3    H1 1118   0.336   2.083   0.633
  391TIP3    H2 1119   0.453   1.991   0.606
  392TIP3   OH2 1120   1.315   3.160   0.254
  392TIP3    H1 1121   1.233   3.209   0.249
  392TIP3    H2 1122   1.314   3.120   0.341
  393TIP3   OH2 1123   1.991   1.916   4.590
  393TIP3    H1 1124   1.999   1.821   4.582
  393TIP3    H2 1125   1.896   1.932   4.588
  394TIP3   OH2 1126   8.198   3.545   5.676
  394TIP3    H1 1127   8.149   3.559   5.595
  394TIP3    H2 1128   8.188   3.628   5.724
  395TIP3   OH2 1129   3.512   3.444   4.380
  395TIP3    H1 1130   3.588   3.478   4.332
  395TIP3    H2 1131   3.495   3.510   4.447
  396TIP3   OH2 1132   1.493   0.543   4.170
  396TIP3    H1 1133   1.416   0.489   4.153
  396TIP3    H2 1134   1.460   0.633   4.167
  397TIP3   OH2 1135   2.887   6.112   4.132
  397TIP3    H1 1136   2.820   6.144   4.193
  397TIP3    H2 1137   2.950   6.066   4.188
  398TIP3   OH2 1138   4.456   1.823   4.113
  398TIP3    H1 1139   4.413   1.809   4.197
  398TIP3    H2 1140   4.530   1.880   4.133
  399TIP3   OH2 1141   2.923   7.013   3.615
  399TIP3    H1 1142   2.982   6.973   3.551
  399TIP3    H2 1143   2.858   7.060   3.562
  400TIP3   OH2 1144   2.318   0.279   5.767
  400TIP3    H1 1145   2.282   0.244   5.849
  400TIP3    H2 1146   2.413   0.269   5.777
  401TIP3   OH2 1147   6.593   4.173   4.674
  401TIP3    H1 1148   6.551   4.259   4.675
  401TIP3    H2 1149   6.603   4.151   4.766
  402TIP3   OH2 1150   4.169   2.680   3.899
  402TIP3    H1 1151   4.156   2.628   3.820
  402TIP3    H2 1152   4.087   2.670   3.948
  403TIP3   OH2 1153   7.211   6.048   3.778
  403TIP3    H1 1154   7.268   6.075   3.705
  403TIP3    H2 1155   7.156   6.124   3.794
  404TIP3   OH2 1156   5.692   2.921   0.456
  404TIP3    H1 1157   5.607   2.964   0.444
  404TIP3    H2 1158   5.724   2.955   0.540
  405TIP3   OH2 1159   3.046   5.542   1.134
  405TIP3    H1 1160   3.135   5.514   1.115
  405TIP3    H2 1161   2.991   5.483   1.082
  406TIP3   OH2 1162   7.468   4.489   2.235
  406TIP3    H1 1163   7.555   4.456   2.259
  406TIP3    H2 1164   7.467   4.489   2.140
  407TIP3   OH2 1165   6.277   4.771   3.380
  407TIP3    H1 1166   6.367   4.745   3.400
  407TIP3    H2 1167   6.251   4.827   3.453
  408TIP3   OH2 1168   5.532   1.844   2.542
  408TIP3    H1 1169   5.497   1.927   2.575
  408TIP3    H2 1170   5.604   1.823   2.601
  409TIP3   OH2 1171   4.795   6.153   4.280
  409TIP3    H1 1172   4.824   6.064   4.260
  409TIP3    H2 1173   4.837   6.174   4.363
  410TIP3   OH2 1174   3.147   1.472   2.423
  410TIP3    H1 1175   3.225   1.496   2.373
  410TIP3    H2 1176   3.090   1.427   2.360
  411TIP3   OH2 1177   7.289   3.076   3.073
  411TIP3    H1 1178   7.324   3.099   2.987
  411TIP3    H2 1179   7.355   3.017   3.110
  412TIP3   OH2 1180   6.554   2.960   1.808
  412TIP3    H1 1181   6.578   2.910   1.730
  412TIP3    H2 1182   6.491   2.905   1.854
  413TIP3   OH2 1183   8.270   6.332   2.708
  413TIP3    H1 1184   8.220   6.252   2.722
  413TIP3    H2 1185   8.231   6.371   2.629
  414TIP3   OH2 1186   3.633   5.290   1.880
  414TIP3    H1 1187   3.703   5.318   1.938
  414TIP3    H2 1188   3.559   5.273   1.939
  415TIP3   OH2 1189   6.174   5.292   0.602
  415TIP3    H1 1190   6.118   5.362   0.568
  415TIP3    H2 1191   6.131   5.211   0.573
  416TIP3   OH2 1192   1.562   1.322   2.058
  416TIP3    H1 1193   1.483   1.311   2.006
  416TIP3    H2 1194   1.554   1.256   2.128
  417TIP3   OH2 1195   4.287   4.793   2.463
  417TIP3    H1 1196   4.302   4.836   2.547
  417TIP3    H2 1197   4.200   4.754   2.471
  418TIP3   OH2 1198   1.907   0.278   0.044
  418TIP3    H1 1199   1.985   0.318   0.082
  418TIP3    H2 1200   1.886   0.205   0.103
  419TIP3   OH2 1201   2.830   2.599   2.569
  419TIP3    H1 1202   2.789   2.524   2.527
  419TIP3    H2 1203   2.812   2.672   2.511
  420TIP3   OH2 1204   7.207   3.296   2.733
  420TIP3    H1 1205   7.280   3.277   2.675
  420TIP3    H2 1206   7.246   3.302   2.820
  421TIP3   OH2 1207   1.861   7.517   5.587
  421TIP3    H1 1208   1.803   7.593   5.577
  421TIP3    H2 1209   1.916   7.539   5.662
  422TIP3   OH2 1210   1.120  -0.002   1.496
  422TIP3    H1 1211   1.177   0.071   1.472
  422TIP3    H2 1212   1.094  -0.041   1.413
  423TIP3   OH2 1213   6.224   0.281   5.503
  423TIP3    H1 1214   6.137   0.319   5.514
  423TIP3    H2 1215   6.215   0.223   5.428
  424TIP3   OH2 1216   5.469   5.816   4.174
  424TIP3    H1 1217   5.471   5.726   4.143
  424TIP3    H2 1218   5.387   5.824   4.223
  425TIP3   OH2 1219   2.060   3.492   6.673
  425TIP3    H1 1220   2.057   3.579   6.633
  425TIP3    H2 1221   2.120   3.442   6.617
  426TIP3   OH2 1222   5.419   4.354   3.549
  426TIP3    H1 1223   5.386   4.265   3.538
  426TIP3    H2 1224   5.342   4.410   3.534
  427TIP3   OH2 1225   6.668   5.182   6.464
  427TIP3    H1 1226   6.762   5.165   6.458
  427TIP3    H2 1227   6.641   5.198   6.374
  428TIP3   OH2 1228   5.867   1.622   1.389
  428TIP3    H1 1229   5.914   1.700   1.420
  428TIP3    H2 1230   5.775   1.643   1.401
  429TIP3   OH2 1231   5.187   6.794   2.281
  429TIP3    H1 1232   5.198   6.702   2.258
  429TIP3    H2 1233   5.092   6.806   2.287
  430TIP3   OH2 1234   3.042   5.264   5.763
  430TIP3    H1 1235   2.984   5.187   5.765
  430TIP3    H2 1236   3.107   5.246   5.832
  431TIP3   OH2 1237   1.883   1.186   0.523
  431TIP3    H1 1238   1.956   1.167   0.464
  431TIP3    H2 1239   1.863   1.278   0.508
  432TIP3   OH2 1240   0.936   1.337   1.392
  432TIP3    H1 1241   0.852   1.304   1.423
  432TIP3    H2 1242   0.916   1.390   1.316
  433TIP3   OH2 1243   0.921   4.392   6.180
  433TIP3    H1 1244   0.968   4.381   6.263
  433TIP3    H2 1245   0.889   4.304   6.159
  434TIP3   OH2 1246   3.417   1.988   5.978
  434TIP3    H1 1247   3.327   1.971   5.950
  434TIP3    H2 1248   3.420   2.083   5.992
  435TIP3   OH2 1249   7.071   6.680   5.798
  435TIP3    H1 1250   7.013   6.630   5.855
  435TIP3    H2 1251   7.141   6.710   5.856
  436TIP3   OH2 1252   4.505   6.683   2.052
  436TIP3    H1 1253   4.561   6.717   1.983
  436TIP3    H2 1254   4.556   6.612   2.093
  437TIP3   OH2 1255   4.147   1.337   0.291
  437TIP3    H1 1256   4.187   1.338   0.204
  437TIP3    H2 1257   4.195   1.269   0.338
  438TIP3   OH2 1258   5.589   4.156   1.368
  438TIP3    H1 1259   5.604   4.249   1.384
  438TIP3    H2 1260   5.493   4.147   1.370
  439TIP3   OH2 1261   6.005   0.915   5.157
  439TIP3    H1 1262   6.064   0.926   5.081
  439TIP3    H2 1263   5.978   1.004   5.178
  440TIP3   OH2 1264   6.392   3.463   6.035
  440TIP3    H1 1265   6.473   3.463   5.984
  440TIP3    H2 1266   6.382   3.553   6.065
  441TIP3   OH2 1267   3.493   2.686   4.595
  441TIP3    H1 1268   3.479   2.746   4.522
  441TIP3    H2 1269   3.410   2.687   4.643
  442TIP3   OH2 1270   0.580   6.227   0.605
  442TIP3    H1 1271   0.541   6.182   0.529
  442TIP3    H2 1272   0.668   6.251   0.576
  443TIP3   OH2 1273   0.156   7.467   4.658
  443TIP3    H1 1274   0.134   7.480   4.565
  443TIP3    H2 1275   0.176   7.554   4.690
  444TIP3   OH2 1276   6.646   7.292   1.456
  444TIP3    H1 1277   6.726   7.330   1.421
  444TIP3    H2 1278   6.652   7.199   1.434
  445TIP3   OH2 1279   4.381   7.462   0.301
  445TIP3    H1 1280   4.380   7.409   0.222
  445TIP3    H2 1281   4.464   7.440   0.344
  446TIP3   OH2 1282   0.576   4.453   0.835
  446TIP3    H1 1283   0.665   4.486   0.845
  446TIP3    H2 1284   0.533   4.516   0.779
  447TIP3   OH2 1285   5.202   0.068   0.335
  447TIP3    H1 1286   5.262   0.029   0.271
  447TIP3    H2 1287   5.232   0.159   0.342
  448TIP3   OH2 1288   2.207   3.062   1.519
  448TIP3    H1 1289   2.148   3.129   1.485
  448TIP3    H2 1290   2.293   3.083   1.482
  449TIP3   OH2 1291   7.736   1.789   3.206
  449TIP3    H1 1292   7.819   1.747   3.185
  449TIP3    H2 1293   7.739   1.802   3.301
  450TIP3   OH2 1294   5.113   6.357   3.342
  450TIP3    H1 1295   5.098   6.442   3.302
  450TIP3    H2 1296   5.206   6.356   3.363
  451TIP3   OH2 1297   6.314   0.879   1.700
  451TIP3    H1 1298   6.361   0.934   1.637
  451TIP3    H2 1299   6.315   0.791   1.661
  452TIP3   OH2 1300   5.001   0.285   6.229
  452TIP3    H1 1301   4.966   0.197   6.214
  452TIP3    H2 1302   4.939   0.325   6.289
  453TIP3   OH2 1303   4.884   0.588   1.606
  453TIP3    H1 1304   4.931   0.512   1.638
  453TIP3    H2 1305   4.797   0.555   1.581
  454TIP3   OH2 1306   0.805   5.936   1.335
  454TIP3    H1 1307   0.740   6.005   1.351
  454TIP3    H2 1308   0.784   5.869   1.399
  455TIP3   OH2 1309   3.225   4.932   3.281
  455TIP3    H1 1310   3.297   4.986   3.248
  455TIP3    H2 1311   3.147   4.968   3.238
  456TIP3   OH2 1312   7.548   7.720   4.993
  456TIP3    H1 1313   7.483   7.711   5.063
  456TIP3    H2 1314   7.522   7.799   4.946
  457TIP3   OH2 1315   3.181   0.572   5.184
  457TIP3    H1 1316   3.206   0.616   5.265
  457TIP3    H2 1317   3.125   0.500   5.212
  458TIP3   OH2 1318   5.808   0.631   5.648
  458TIP3    H1 1319   5.736   0.691   5.632
  458TIP3    H2 1320   5.796   0.561   5.584
  459TIP3   OH2 1321   6.198   4.601   2.525
  459TIP3    H1 1322   6.215   4.645   2.442
  459TIP3    H2 1323   6.102   4.598   2.531
  460TIP3   OH2 1324   0.998   6.461   1.514
  460TIP3    H1 1325   1.036   6.470   1.427
  460TIP3    H2 1326   1.054   6.515   1.570
  461TIP3   OH2 1327   2.141   1.954   5.161
  461TIP3    H1 1328   2.205   1.899   5.208
  461TIP3    H2 1329   2.060   1.944   5.211
  462TIP3   OH2 1330   2.270   2.725   0.990
  462TIP3    H1 1331   2.219   2.644   0.990
  462TIP3    H2 1332   2.334   2.714   1.060
  463TIP3   OH2 1333   7.590   0.998   5.027
  463TIP3    H1 1334   7.563   0.907   5.039
  463TIP3    H2 1335   7.675   1.004   5.070
  464TIP3   OH2 1336   1.652   5.221   5.252
  464TIP3    H1 1337   1.576   5.201   5.305
  464TIP3    H2 1338   1.674   5.312   5.274
  465TIP3   OH2 1339   5.146   6.435   0.157
  465TIP3    H1 1340   5.148   6.400   0.247
  465TIP3    H2 1341   5.171   6.361   0.102
  466TIP3   OH2 1342   0.005   7.307   6.775
  466TIP3    H1 1343   0.023   7.220   6.741
  466TIP3    H2 1344  -0.024   7.357   6.699
  467TIP3   OH2 1345   1.462   4.707   2.450
  467TIP3    H1 1346   1.440   4.675   2.362
  467TIP3    H2 1347   1.508   4.633   2.491
  468TIP3   OH2 1348   7.929   3.817   5.743
  468TIP3    H1 1349   7.869   3.855   5.807
  468TIP3    H2 1350   8.003   3.878   5.741
  469TIP3   OH2 1351   3.721   7.773   0.651
  469TIP3    H1 1352   3.771   7.807   0.577
  469TIP3    H2 1353   3.669   7.847   0.682
  470TIP3   OH2 1354   2.668   3.705   1.388
  470TIP3    H1 1355   2.654   3.638   1.456
  470TIP3    H2 1356   2.758   3.691   1.358
  471TIP3   OH2 1357   3.680   2.370   0.011
  471TIP3    H1 1358   3.740   2.300   0.037
  471TIP3    H2 1359   3.596   2.327   0.000
  472TIP3   OH2 1360   0.226   5.220   6.686
  472TIP3    H1 1361   0.269   5.221   6.601
  472TIP3    H2 1362   0.298   5.231   6.749
  473TIP3   OH2 1363   4.150   7.285   4.732
  473TIP3    H1 1364   4.108   7.320   4.811
  473TIP3    H2 1365   4.244   7.294   4.750
  474TIP3   OH2 1366   4.235   3.027   5.832
  474TIP3    H1 1367   4.315   3.028   5.780
  474TIP3    H2 1368   4.259   3.067   5.915
  475TIP3   OH2 1369   5.503   5.399   5.850
  475TIP3    H1 1370   5.537   5.388   5.761
  475TIP3    H2 1371   5.466   5.314   5.873
  476TIP3   OH2 1372   5.302   0.414   2.852
  476TIP3    H1 1373   5.247   0.459   2.917
  476TIP3    H2 1374   5.282   0.321   2.865
  477TIP3   OH2 1375   5.017   6.072   0.591
  477TIP3    H1 1376   4.940   6.072   0.535
  477TIP3    H2 1377   5.081   6.019   0.544
  478TIP3   OH2 1378   2.424   2.544   4.742
  478TIP3    H1 1379   2.472   2.463   4.761
  478TIP3    H2 1380   2.396   2.576   4.828
  479TIP3   OH2 1381   5.591   1.881   3.911
  479TIP3    H1 1382   5.548   1.815   3.966
  479TIP3    H2 1383   5.519   1.926   3.867
  480TIP3   OH2 1384   6.498   1.235   0.177
  480TIP3    H1 1385   6.580   1.187   0.189
  480TIP3    H2 1386   6.506   1.276   0.091
  481TIP3   OH2 1387   5.008   5.010   6.584
  481TIP3    H1 1388   4.967   4.976   6.505
  481TIP3    H2 1389   4.945   5.073   6.619
  482TIP3   OH2 1390   5.040   6.088   5.851
  482TIP3    H1 1391   5.130   6.091   5.821
  482TIP3    H2 1392   5.025   5.995   5.872
  483TIP3   OH2 1393   1.572   4.578   1.356
  483TIP3    H1 1394   1.538   4.489   1.352
  483TIP3    H2 1395   1.649   4.572   1.413
  484TIP3   OH2 1396   7.304   4.848   2.650
  484TIP3    H1 1397   7.339   4.854   2.739
  484TIP3    H2 1398   7.349   4.772   2.612
  485TIP3   OH2 1399   7.410   0.138   0.767
  485TIP3    H1 1400   7.325   0.107   0.797
  485TIP3    H2 1401   7.392   0.181   0.683
  486TIP3   OH2 1402   5.155   5.426   5.140
  486TIP3    H1 1403   5.176   5.391   5.226
  486TIP3    H2 1404   5.239   5.442   5.098
  487TIP3   OH2 1405   2.336   1.711   1.216
  487TIP3    H1 1406   2.282   1.787   1.239
  487TIP3    H2 1407   2.279   1.636   1.234
  488TIP3   OH2 1408   0.311   6.342   3.254
  488TIP3    H1 1409   0.355   6.409   3.202
  488TIP3    H2 1410   0.381   6.283   3.281
  489TIP3   OH2 1411   4.567   0.470   3.717
  489TIP3    H1 1412   4.521   0.399   3.763
  489TIP3    H2 1413   4.657   0.465   3.750
  490TIP3   OH2 1414   1.430   7.173   5.367
  490TIP3    H1 1415   1.504   7.155   5.425
  490TIP3    H2 1416   1.426   7.269   5.364
  491TIP3   OH2 1417   1.092   1.963   6.304
  491TIP3    H1 1418   1.048   1.893   6.257
  491TIP3    H2 1419   1.057   2.044   6.265
  492TIP3   OH2 1420   1.069   3.786   6.113
  492TIP3    H1 1421   1.145   3.771   6.168
  492TIP3    H2 1422   0.994   3.779   6.172
  493TIP3   OH2 1423   5.097   4.193   6.674
  493TIP3    H1 1424   5.053   4.245   6.741
  493TIP3    H2 1425   5.033   4.189   6.602
  494TIP3   OH2 1426   5.587   1.708   1.447
  494TIP3    H1 1427   5.566   1.627   1.494
  494TIP3    H2 1428   5.568   1.777   1.510
  495TIP3   OH2 1429   1.349   4.884   4.543
  495TIP3    H1 1430   1.262   4.923   4.550
  495TIP3    H2 1431   1.392   4.935   4.475
  496TIP3   OH2 1432   2.189   3.092   6.706
  496TIP3    H1 1433   2.108   3.140   6.693
  496TIP3    H2 1434   2.161   3.008   6.742
  497TIP3   OH2 1435   1.104   3.047   1.560
  497TIP3    H1 1436   1.184   3.041   1.612
  497TIP3    H2 1437   1.034   3.024   1.622
  498TIP3   OH2 1438   4.216   5.571   1.157
  498TIP3    H1 1439   4.147   5.637   1.152
  498TIP3    H2 1440   4.250   5.579   1.247
  499TIP3   OH2 1441   4.174   0.350   2.105
  499TIP3    H1 1442   4.148   0.442   2.102
  499TIP3    H2 1443   4.173   0.321   2.014
  500TIP3   OH2 1444   3.148   3.649   4.164
  500TIP3    H1 1445   3.187   3.670   4.248
  500TIP3    H2 1446   3.062   3.613   4.186
  501TIP3   OH2 1447   7.854   6.318   2.404
  501TIP3    H1 1448   7.827   6.289   2.317
  501TIP3    H2 1449   7.802   6.265   2.464
  502TIP3   OH2 1450   7.036   3.836   5.005
  502TIP3    H1 1451   6.990   3.767   5.053
  502TIP3    H2 1452   7.126   3.832   5.039
  503TIP3   OH2 1453   2.786   3.413   5.945
  503TIP3    H1 1454   2.780   3.325   5.908
  503TIP3    H2 1455   2.748   3.470   5.878
  504TIP3   OH2 1456   1.178   4.765   0.341
  504TIP3    H1 1457   1.097   4.805   0.375
  504TIP3    H2 1458   1.216   4.720   0.417
  505TIP3   OH2 1459   5.459   0.006   2.591
  505TIP3    H1 1460   5.435  -0.034   2.507
  505TIP3    H2 1461   5.472   0.098   2.570
  506TIP3   OH2 1462   2.065   7.344   5.182
  506TIP3    H1 1463   2.094   7.384   5.264
  506TIP3    H2 1464   2.145   7.307   5.144
  507TIP3   OH2 1465   3.745   5.665   4.387
  507TIP3    H1 1466   3.790   5.662   4.471
  507TIP3    H2 1467   3.763   5.581   4.346
  508TIP3   OH2 1468   7.434   4.890   0.624
  508TIP3    H1 1469   7.363   4.953   0.612
  508TIP3    H2 1470   7.509   4.942   0.651
  509TIP3   OH2 1471   6.906   7.354   5.887
  509TIP3    H1 1472   6.978   7.312   5.840
  509TIP3    H2 1473   6.830   7.343   5.830
  510TIP3   OH2 1474   5.170   0.738   1.798
  510TIP3    H1 1475   5.247   0.730   1.854
  510TIP3    H2 1476   5.100   0.697   1.848
  511TIP3   OH2 1477   0.069   6.485   4.330
  511TIP3    H1 1478  -0.024   6.468   4.349
  511TIP3    H2 1479   0.115   6.456   4.409
  512TIP3   OH2 1480   2.749   7.541   4.400
  512TIP3    H1 1481   2.797   7.622   4.382
  512TIP3    H2 1482   2.771   7.483   4.328
  513TIP3   OH2 1483   7.834   4.636   3.101
  513TIP3    H1 1484   7.773   4.567   3.075
  513TIP3    H2 1485   7.780   4.714   3.108
  514TIP3   OH2 1486   5.515   7.761   2.208
  514TIP3    H1 1487   5.487   7.824   2.141
  514TIP3    H2 1488   5.438   7.708   2.224
  515TIP3   OH2 1489   1.147   0.267   3.094
  515TIP3    H1 1490   1.231   0.263   3.141
  515TIP3    H2 1491   1.125   0.360   3.095
  516TIP3   OH2 1492   8.299   0.127   4.416
  516TIP3    H1 1493   8.312   0.169   4.501
  516TIP3    H2 1494   8.268   0.197   4.359
  517TIP3   OH2 1495   5.628   4.682   0.515
  517TIP3    H1 1496   5.668   4.609   0.469
  517TIP3    H2 1497   5.682   4.693   0.594
  518TIP3   OH2 1498   5.648   5.318   4.716
  518TIP3    H1 1499   5.554   5.329   4.704
  518TIP3    H2 1500   5.670   5.375   4.789
  519TIP3   OH2 1501   6.009   4.775   0.385
  519TIP3    H1 1502   5.946   4.731   0.328
  519TIP3    H2 1503   5.992   4.739   0.472
  520TIP3   OH2 1504   2.043   6.211   3.018
  520TIP3    H1 1505   2.138   6.198   3.025
  520TIP3    H2 1506   2.014   6.140   2.960
  521TIP3   OH2 1507   2.658   5.761   5.559
  521TIP3    H1 1508   2.655   5.677   5.607
  521TIP3    H2 1509   2.751   5.775   5.542
  522TIP3   OH2 1510   5.584   0.816   0.295
  522TIP3    H1 1511   5.669   0.822   0.339
  522TIP3    H2 1512   5.520   0.838   0.363
  523TIP3   OH2 1513   1.558   4.514   4.167
  523TIP3    H1 1514   1.589   4.496   4.256
  523TIP3    H2 1515   1.546   4.427   4.129
  524TIP3   OH2 1516   7.119   5.610   5.660
  524TIP3    H1 1517   7.148   5.525   5.628
  524TIP3    H2 1518   7.033   5.593   5.699
  525TIP3   OH2 1519   5.448   4.471   5.333
  525TIP3    H1 1520   5.532   4.429   5.316
  525TIP3    H2 1521   5.463   4.522   5.413
  526TIP3   OH2 1522   1.533   2.846   1.140
  526TIP3    H1 1523   1.503   2.788   1.070
  526TIP3    H2 1524   1.580   2.916   1.094
  527TIP3   OH2 1525   6.525   0.867  -0.007
  527TIP3    H1 1526   6.512   0.959  -0.032
  527TIP3    H2 1527   6.475   0.858   0.074
  528TIP3   OH2 1528   1.494   4.604   6.460
  528TIP3    H1 1529   1.432   4.531   6.458
  528TIP3    H2 1530   1.472   4.656   6.382
  529TIP3   OH2 1531   8.040   2.084   0.507
  529TIP3    H1 1532   8.011   2.174   0.493
  529TIP3    H2 1533   8.084   2.086   0.592
  530TIP3   OH2 1534   3.937   6.068   3.315
  530TIP3    H1 1535   3.936   5.989   3.369
  530TIP3    H2 1536   3.867   6.122   3.350
  531TIP3   OH2 1537   2.232   3.013   5.722
  531TIP3    H1 1538   2.264   3.103   5.712
  531TIP3    H2 1539   2.302   2.969   5.771
  532TIP3   OH2 1540   5.884   3.912   6.149
  532TIP3    H1 1541   5.863   3.859   6.226
  532TIP3    H2 1542   5.909   3.998   6.184
  533TIP3   OH2 1543   5.907   4.565   2.509
  533TIP3    H1 1544   5.838   4.575   2.575
  533TIP3    H2 1545   5.863   4.527   2.434
  534TIP3   OH2 1546   7.092   6.426   2.089
  534TIP3    H1 1547   7.112   6.404   1.998
  534TIP3    H2 1548   7.074   6.520   2.088
  535TIP3   OH2 1549   7.392   2.704   5.419
  535TIP3    H1 1550   7.375   2.627   5.473
  535TIP3    H2 1551   7.478   2.687   5.381
  536TIP3   OH2 1552   2.360   2.652   3.467
  536TIP3    H1 1553   2.419   2.713   3.422
  536TIP3    H2 1554   2.346   2.581   3.404
  537TIP3   OH2 1555   2.819   7.314   6.293
  537TIP3    H1 1556   2.756   7.377   6.259
  537TIP3    H2 1557   2.786   7.229   6.265
  538TIP3   OH2 1558   7.427   0.542   3.143
  538TIP3    H1 1559   7.437   0.467   3.084
  538TIP3    H2 1560   7.515   0.558   3.177
  539TIP3   OH2 1561   3.714   6.143   3.506
  539TIP3    H1 1562   3.767   6.126   3.584
  539TIP3    H2 1563   3.628   6.168   3.540
  540TIP3   OH2 1564   0.197   5.646   5.656
  540TIP3    H1 1565   0.132   5.604   5.600
  540TIP3    H2 1566   0.265   5.677   5.596
  541TIP3   OH2 1567   7.996   6.113   2.583
  541TIP3    H1 1568   7.917   6.127   2.636
  541TIP3    H2 1569   7.981   6.165   2.504
  542TIP3   OH2 1570   5.878   5.265   3.114
  542TIP3    H1 1571   5.892   5.177   3.149
  542TIP3    H2 1572   5.874   5.252   3.019
  543TIP3   OH2 1573   8.243   1.737   2.867
  543TIP3    H1 1574   8.278   1.764   2.951
  543TIP3    H2 1575   8.153   1.709   2.885
  544TIP3   OH2 1576   1.856   3.067   5.435
  544TIP3    H1 1577   1.863   3.141   5.496
  544TIP3    H2 1578   1.820   2.996   5.488
  545TIP3   OH2 1579   7.284   0.836   4.473
  545TIP3    H1 1580   7.223   0.909   4.466
  545TIP3    H2 1581   7.342   0.861   4.546
  546TIP3   OH2 1582   5.080   5.945   4.526
  546TIP3    H1 1583   5.031   5.915   4.450
  546TIP3    H2 1584   5.036   5.904   4.600
  547TIP3   OH2 1585   3.870   6.933   1.052
  547TIP3    H1 1586   3.930   6.910   0.981
  547TIP3    H2 1587   3.803   6.988   1.011
  548TIP3   OH2 1588   5.669   0.979   6.091
  548TIP3    H1 1589   5.711   0.977   6.177
  548TIP3    H2 1590   5.719   1.043   6.041
  549TIP3   OH2 1591   2.966   7.533   5.772
  549TIP3    H1 1592   2.978   7.445   5.736
  549TIP3    H2 1593   2.964   7.521   5.867
  550TIP3   OH2 1594   7.986   6.271   0.315
  550TIP3    H1 1595   7.985   6.354   0.267
  550TIP3    H2 1596   8.048   6.216   0.267
  551TIP3   OH2 1597   6.483   1.670   4.601
  551TIP3    H1 1598   6.544   1.723   4.550
  551TIP3    H2 1599   6.433   1.733   4.654
  552TIP3   OH2 1600   3.000   7.827   6.335
  552TIP3    H1 1601   3.072   7.780   6.293
  552TIP3    H2 1602   2.947   7.758   6.375
  553TIP3   OH2 1603   3.973   3.380   1.008
  553TIP3    H1 1604   4.014   3.325   0.941
  553TIP3    H2 1605   4.031   3.456   1.015
  554TIP3   OH2 1606   4.664   6.639   2.577
  554TIP3    H1 1607   4.675   6.666   2.486
  554TIP3    H2 1608   4.600   6.701   2.612
  555TIP3   OH2 1609   1.662   1.665   5.130
  555TIP3    H1 1610   1.686   1.669   5.037
  555TIP3    H2 1611   1.625   1.578   5.142
  556TIP3   OH2 1612   0.433   1.178   3.918
  556TIP3    H1 1613   0.356   1.209   3.870
  556TIP3    H2 1614   0.401   1.168   4.008
  557TIP3   OH2 1615   5.483   2.794   2.806
  557TIP3    H1 1616   5.529   2.878   2.817
  557TIP3    H2 1617   5.399   2.807   2.851
  558TIP3   OH2 1618   3.749   0.039   4.764
  558TIP3    H1 1619   3.677   0.033   4.702
  558TIP3    H2 1620   3.820   0.080   4.714
  559TIP3   OH2 1621   3.583   4.336   4.452
  559TIP3    H1 1622   3.625   4.339   4.537
  559TIP3    H2 1623   3.524   4.412   4.451
  560TIP3   OH2 1624   3.082   7.022   3.286
  560TIP3    H1 1625   3.146   7.001   3.218
  560TIP3    H2 1626   3.002   7.045   3.238
  561TIP3   OH2 1627   0.507   7.762   4.201
  561TIP3    H1 1628   0.418   7.786   4.228
  561TIP3    H2 1629   0.564   7.807   4.264
  562TIP3   OH2 1630   4.431   3.434   5.780
  562TIP3    H1 1631   4.426   3.511   5.837
  562TIP3    H2 1632   4.340   3.408   5.767
  563TIP3   OH2 1633   3.872   2.166   0.086
  563TIP3    H1 1634   3.902   2.174   0.177
  563TIP3    H2 1635   3.880   2.072   0.067
  564TIP3   OH2 1636   5.253   0.941   0.938
  564TIP3    H1 1637   5.279   0.916   1.026
  564TIP3    H2 1638   5.158   0.926   0.935
  565TIP3   OH2 1639   4.484   7.455   5.701
  565TIP3    H1 1640   4.515   7.386   5.760
  565TIP3    H2 1641   4.558   7.515   5.693
  566TIP3   OH2 1642   1.112   0.444   1.205
  566TIP3    H1 1643   1.046   0.378   1.225
  566TIP3    H2 1644   1.063   0.519   1.171
  567TIP3   OH2 1645   4.487   4.847   3.551
  567TIP3    H1 1646   4.556   4.791   3.516
  567TIP3    H2 1647   4.505   4.851   3.645
  568TIP3   OH2 1648   4.655   6.040   4.795
  568TIP3    H1 1649   4.713   6.116   4.787
  568TIP3    H2 1650   4.637   6.014   4.705
  569TIP3   OH2 1651   6.189   3.520   0.858
  569TIP3    H1 1652   6.113   3.578   0.855
  569TIP3    H2 1653   6.157   3.439   0.817
  570TIP3   OH2 1654   1.755   1.507   0.155
  570TIP3    H1 1655   1.708   1.574   0.106
  570TIP3    H2 1656   1.686   1.456   0.198
  571TIP3   OH2 1657   5.671   3.913   2.358
  571TIP3    H1 1658   5.634   3.873   2.279
  571TIP3    H2 1659   5.733   3.848   2.391
  572TIP3   OH2 1660   4.732   7.458   4.556
  572TIP3    H1 1661   4.780   7.541   4.550
  572TIP3    H2 1662   4.769   7.415   4.633
  573TIP3   OH2 1663   8.136   7.618   1.874
  573TIP3    H1 1664   8.082   7.694   1.850
  573TIP3    H2 1665   8.125   7.610   1.969
  574TIP3   OH2 1666   6.464   4.360   2.505
  574TIP3    H1 1667   6.511   4.289   2.462
  574TIP3    H2 1668   6.433   4.416   2.433
  575TIP3   OH2 1669   5.783   6.615   1.489
  575TIP3    H1 1670   5.866   6.613   1.441
  575TIP3    H2 1671   5.805   6.658   1.572
  576TIP3   OH2 1672   3.636   2.312   5.931
  576TIP3    H1 1673   3.679   2.382   5.979
  576TIP3    H2 1674   3.701   2.282   5.868
  577TIP3   OH2 1675   3.471   0.543   1.103
  577TIP3    H1 1676   3.413   0.565   1.177
  577TIP3    H2 1677   3.419   0.484   1.049
  578TIP3   OH2 1678   0.765   0.762   2.278
  578TIP3    H1 1679   0.850   0.732   2.309
  578TIP3    H2 1680   0.707   0.688   2.290
  579TIP3   OH2 1681   7.508   6.497   0.797
  579TIP3    H1 1682   7.427   6.460   0.762
  579TIP3    H2 1683   7.545   6.428   0.852
  580TIP3   OH2 1684   4.827   4.638   4.485
  580TIP3    H1 1685   4.905   4.586   4.467
  580TIP3    H2 1686   4.860   4.716   4.529
  581TIP3   OH2 1687   8.228   1.674   6.709
  581TIP3    H1 1688   8.281   1.610   6.662
  581TIP3    H2 1689   8.176   1.622   6.770
  582TIP3   OH2 1690   8.145   0.291   0.496
  582TIP3    H1 1691   8.084   0.364   0.505
  582TIP3    H2 1692   8.228   0.332   0.471
  583TIP3   OH2 1693   1.149   0.269   3.941
  583TIP3    H1 1694   1.147   0.184   3.984
  583TIP3    H2 1695   1.216   0.260   3.873
  584TIP3   OH2 1696   7.714   2.220   6.164
  584TIP3    H1 1697   7.625   2.232   6.130
  584TIP3    H2 1698   7.701   2.180   6.250
  585TIP3   OH2 1699   2.155   2.718   4.846
  585TIP3    H1 1700   2.205   2.667   4.909
  585TIP3    H2 1701   2.208   2.796   4.831
  586TIP3   OH2 1702   1.982   0.163   4.901
  586TIP3    H1 1703   2.051   0.229   4.904
  586TIP3    H2 1704   1.900   0.212   4.898
  587TIP3   OH2 1705   0.236   1.551   6.255
  587TIP3    H1 1706   0.318   1.506   6.236
  587TIP3    H2 1707   0.185   1.488   6.306
  588TIP3   OH2 1708   1.708   5.441   1.929
  588TIP3    H1 1709   1.655   5.487   1.993
  588TIP3    H2 1710   1.753   5.373   1.980
  589TIP3   OH2 1711   8.167   2.904   6.154
  589TIP3    H1 1712   8.143   2.877   6.065
  589TIP3    H2 1713   8.143   2.996   6.158
  590TIP3   OH2 1714   6.530   3.899   0.946
  590TIP3    H1 1715   6.601   3.835   0.949
  590TIP3    H2 1716   6.459   3.853   0.901
  591TIP3   OH2 1717   1.521   2.772   2.205
  591TIP3    H1 1718   1.481   2.735   2.284
  591TIP3    H2 1719   1.542   2.862   2.228
  592TIP3   OH2 1720   2.912   7.367   1.386
  592TIP3    H1 1721   2.831   7.374   1.335
  592TIP3    H2 1722   2.893   7.412   1.468
  593TIP3   OH2 1723   5.347   3.796   5.264
  593TIP3    H1 1724   5.384   3.801   5.352
  593TIP3    H2 1725   5.351   3.886   5.231
  594TIP3   OH2 1726   0.474   6.825   2.069
  594TIP3    H1 1727   0.510   6.871   2.145
  594TIP3    H2 1728   0.544   6.829   2.004
  595TIP3   OH2 1729   6.015   2.622   6.421
  595TIP3    H1 1730   6.060   2.699   6.385
  595TIP3    H2 1731   5.923   2.649   6.428
  596TIP3   OH2 1732   4.452   1.661   4.447
  596TIP3    H1 1733   4.357   1.663   4.461
  596TIP3    H2 1734   4.470   1.571   4.419
  597TIP3   OH2 1735   5.281   3.189   1.859
  597TIP3    H1 1736   5.357   3.172   1.915
  597TIP3    H2 1737   5.315   3.180   1.770
  598TIP3   OH2 1738   2.447   6.536   0.269
  598TIP3    H1 1739   2.469   6.628   0.284
  598TIP3    H2 1740   2.361   6.539   0.228
  599TIP3   OH2 1741   3.645   2.099   0.497
  599TIP3    H1 1742   3.708   2.037   0.535
  599TIP3    H2 1743   3.571   2.098   0.558
  600TIP3   OH2 1744   7.459   0.177   3.844
  600TIP3    H1 1745   7.374   0.174   3.800
  600TIP3    H2 1746   7.522   0.155   3.776
  601TIP3   OH2 1747   3.799   7.806   5.409
  601TIP3    H1 1748   3.734   7.741   5.383
  601TIP3    H2 1749   3.781   7.882   5.354
  602TIP3   OH2 1750   0.296   1.253   2.796
  602TIP3    H1 1751   0.341   1.336   2.778
  602TIP3    H2 1752   0.208   1.266   2.761
  603TIP3   OH2 1753   7.355   6.302   4.935
  603TIP3    H1 1754   7.301   6.226   4.916
  603TIP3    H2 1755   7.350   6.313   5.030
  604TIP3   OH2 1756   4.058   0.476   3.574
  604TIP3    H1 1757   4.064   0.456   3.668
  604TIP3    H2 1758   4.094   0.399   3.531
  605TIP3   OH2 1759   1.287   0.799   0.251
  605TIP3    H1 1760   1.320   0.738   0.317
  605TIP3    H2 1761   1.319   0.764   0.168
  606TIP3   OH2 1762   5.256   5.274   0.589
  606TIP3    H1 1763   5.302   5.285   0.673
  606TIP3    H2 1764   5.265   5.181   0.569
  607TIP3   OH2 1765   7.461   7.738   6.103
  607TIP3    H1 1766   7.457   7.691   6.187
  607TIP3    H2 1767   7.370   7.741   6.074
  608TIP3   OH2 1768  -0.019   4.133   3.718
  608TIP3    H1 1769  -0.033   4.065   3.652
  608TIP3    H2 1770   0.075   4.148   3.718
  609TIP3   OH2 1771   4.576   6.184   4.506
  609TIP3    H1 1772   4.551   6.234   4.584
  609TIP3    H2 1773   4.671   6.175   4.514
  610TIP3   OH2 1774   0.829   1.985   4.985
  610TIP3    H1 1775   0.909   1.955   5.030
  610TIP3    H2 1776   0.861   2.046   4.919
  611TIP3   OH2 1777   3.026   7.000   6.725
  611TIP3    H1 1778   3.078   6.973   6.800
  611TIP3    H2 1779   3.075   7.072   6.685
  612TIP3   OH2 1780   2.984   1.191   4.860
  612TIP3    H1 1781   3.039   1.144   4.797
  612TIP3    H2 1782   2.895   1.160   4.842
  613TIP3   OH2 1783   7.979   6.868   2.559
  613TIP3    H1 1784   7.959   6.816   2.482
  613TIP3    H2 1785   7.903   6.858   2.616
  614TIP3   OH2 1786   0.601   6.073   1.479
  614TIP3    H1 1787   0.550   5.993   1.474
  614TIP3    H2 1788   0.585   6.107   1.567
  615TIP3   OH2 1789   3.898   0.199   3.555
  615TIP3    H1 1790   3.982   0.229   3.520
  615TIP3    H2 1791   3.921   0.149   3.634
  616TIP3   OH2 1792   3.326   2.522   5.361
  616TIP3    H1 1793   3.287   2.581   5.426
  616TIP3    H2 1794   3.344   2.578   5.285
  617TIP3   OH2 1795   7.217   3.674   3.944
  617TIP3    H1 1796   7.260   3.732   4.006
  617TIP3    H2 1797   7.222   3.587   3.985
  618TIP3   OH2 1798   6.983   7.753   5.021
  618TIP3    H1 1799   7.071   7.789   5.013
  618TIP3    H2 1800   6.954   7.780   5.108
  619TIP3   OH2 1801   3.932   6.315   2.152
  619TIP3    H1 1802   3.861   6.322   2.088
  619TIP3    H2 1803   3.909   6.238   2.204
  620TIP3   OH2 1804   5.743   6.303   3.819
  620TIP3    H1 1805   5.752   6.351   3.736
  620TIP3    H2 1806   5.824   6.323   3.867
  621TIP3   OH2 1807   3.843   6.057   3.748
  621TIP3    H1 1808   3.830   6.003   3.826
  621TIP3    H2 1809   3.931   6.034   3.718
  622TIP3   OH2 1810   0.978   5.813   1.982
  622TIP3    H1 1811   0.955   5.791   2.072
  622TIP3    H2 1812   1.059   5.863   1.989
  623TIP3   OH2 1813   1.408   1.368   6.438
  623TIP3    H1 1814   1.314   1.350   6.435
  623TIP3    H2 1815   1.427   1.410   6.354
  624TIP3   OH2 1816   3.579   3.015   0.835
  624TIP3    H1 1817   3.663   3.018   0.880
  624TIP3    H2 1818   3.594   3.061   0.752
  625TIP3   OH2 1819   4.493   7.566   2.226
  625TIP3    H1 1820   4.412   7.517   2.210
  625TIP3    H2 1821   4.518   7.599   2.140
  626TIP3   OH2 1822   4.095   5.913   1.465
  626TIP3    H1 1823   4.100   5.906   1.369
  626TIP3    H2 1824   4.084   5.823   1.495
  627TIP3   OH2 1825   4.719   7.121   4.208
  627TIP3    H1 1826   4.639   7.068   4.216
  627TIP3    H2 1827   4.688   7.206   4.177
  628TIP3   OH2 1828   1.410   3.290   6.173
  628TIP3    H1 1829   1.451   3.205   6.155
  628TIP3    H2 1830   1.402   3.330   6.087
  629TIP3   OH2 1831   6.855   0.311   0.775
  629TIP3    H1 1832   6.921   0.301   0.706
  629TIP3    H2 1833   6.771   0.305   0.729
  630TIP3   OH2 1834   1.391   7.203   4.235
  630TIP3    H1 1835   1.326   7.269   4.211
  630TIP3    H2 1836   1.471   7.232   4.191
  631TIP3   OH2 1837   7.662   1.760   1.577
  631TIP3    H1 1838   7.720   1.836   1.585
  631TIP3    H2 1839   7.638   1.758   1.484
  632TIP3   OH2 1840   0.055   0.028   6.758
  632TIP3    H1 1841   0.065   0.115   6.796
  632TIP3    H2 1842   0.079   0.039   6.666
  633TIP3   OH2 1843   5.671   1.885   1.218
  633TIP3    H1 1844   5.728   1.948   1.263
  633TIP3    H2 1845   5.653   1.818   1.284
  634TIP3   OH2 1846   3.773   0.286   1.014
  634TIP3    H1 1847   3.707   0.304   0.947
  634TIP3    H2 1848   3.725   0.239   1.083
  635TIP3   OH2 1849   0.305   1.598   5.798
  635TIP3    H1 1850   0.242   1.599   5.870
  635TIP3    H2 1851   0.323   1.691   5.780
  636TIP3   OH2 1852   5.330   4.339   2.135
  636TIP3    H1 1853   5.279   4.370   2.060
  636TIP3    H2 1854   5.264   4.318   2.201
  637TIP3   OH2 1855   5.378   7.729   0.861
  637TIP3    H1 1856   5.421   7.779   0.931
  637TIP3    H2 1857   5.391   7.783   0.783
  638TIP3   OH2 1858   5.916   3.626   6.109
  638TIP3    H1 1859   5.911   3.720   6.089
  638TIP3    H2 1860   5.981   3.592   6.048
  639TIP3   OH2 1861   3.762   7.128   0.878
  639TIP3    H1 1862   3.676   7.164   0.898
  639TIP3    H2 1863   3.748   7.076   0.799
  640TIP3   OH2 1864   5.009   2.443   3.446
  640TIP3    H1 1865   5.037   2.463   3.357
  640TIP3    H2 1866   5.074   2.380   3.478
  641TIP3   OH2 1867   6.464   1.064   4.557
  641TIP3    H1 1868   6.482   0.978   4.594
  641TIP3    H2 1869   6.516   1.125   4.611
  642TIP3   OH2 1870   5.670   2.749   5.139
  642TIP3    H1 1871   5.687   2.806   5.214
  642TIP3    H2 1872   5.635   2.808   5.072
  643TIP3   OH2 1873   0.085   4.423   5.148
  643TIP3    H1 1874   0.084   4.328   5.137
  643TIP3    H2 1875   0.051   4.457   5.065
  644TIP3   OH2 1876   4.582   7.593  -0.004
  644TIP3    H1 1877   4.648   7.649   0.036
  644TIP3    H2 1878   4.627   7.509  -0.015
  645TIP3   OH2 1879   4.991   6.564   4.115
  645TIP3    H1 1880   4.993   6.579   4.210
  645TIP3    H2 1881   5.010   6.471   4.105
  646TIP3   OH2 1882   7.904   1.944   1.084
  646TIP3    H1 1883   7.949   1.924   1.166
  646TIP3    H2 1884   7.921   2.037   1.069
  647TIP3   OH2 1885   0.105   2.729   3.081
  647TIP3    H1 1886   0.188   2.732   3.130
  647TIP3    H2 1887   0.057   2.806   3.111
  648TIP3   OH2 1888   7.421   4.841   3.401
  648TIP3    H1 1889   7.475   4.762   3.403
  648TIP3    H2 1890   7.430   4.875   3.312
  649TIP3   OH2 1891   1.585   7.426   3.848
  649TIP3    H1 1892   1.529   7.410   3.772
  649TIP3    H2 1893   1.655   7.481   3.815
  650TIP3   OH2 1894   6.000   0.708   1.655
  650TIP3    H1 1895   6.015   0.779   1.593
  650TIP3    H2 1896   5.997   0.629   1.601
  651TIP3   OH2 1897   6.018   2.325   4.323
  651TIP3    H1 1898   6.006   2.312   4.229
  651TIP3    H2 1899   5.962   2.399   4.344
  652TIP3   OH2 1900   5.521   4.628   4.546
  652TIP3    H1 1901   5.499   4.570   4.619
  652TIP3    H2 1902   5.462   4.602   4.475
  653TIP3   OH2 1903   3.535   5.289   0.010
  653TIP3    H1 1904   3.516   5.373  -0.033
  653TIP3    H2 1905   3.480   5.290   0.088
  654TIP3   OH2 1906   3.729   4.211   0.739
  654TIP3    H1 1907   3.774   4.282   0.784
  654TIP3    H2 1908   3.793   4.178   0.676
  655TIP3   OH2 1909   7.102   6.727   2.045
  655TIP3    H1 1910   7.147   6.734   2.129
  655TIP3    H2 1911   7.087   6.817   2.018
  656TIP3   OH2 1912   1.622   7.526   5.336
  656TIP3    H1 1913   1.536   7.495   5.310
  656TIP3    H2 1914   1.672   7.531   5.254
  657TIP3   OH2 1915   6.089   2.630   1.505
  657TIP3    H1 1916   6.026   2.644   1.576
  657TIP3    H2 1917   6.096   2.715   1.462
  658TIP3   OH2 1918   6.376   0.771   0.208
  658TIP3    H1 1919   6.337   0.691   0.241
  658TIP3    H2 1920   6.339   0.841   0.262
  659TIP3   OH2 1921   1.075   6.556   1.817
  659TIP3    H1 1922   1.035   6.509   1.891
  659TIP3    H2 1923   1.167   6.566   1.842
  660TIP3   OH2 1924   3.047   0.345   4.729
  660TIP3    H1 1925   3.137   0.333   4.702
  660TIP3    H2 1926   3.008   0.399   4.660
  661TIP3   OH2 1927   8.097   5.101   6.290
  661TIP3    H1 1928   8.135   5.172   6.343
  661TIP3    H2 1929   8.119   5.022   6.338
  662TIP3   OH2 1930   1.561   1.736   3.773
  662TIP3    H1 1931   1.515   1.652   3.783
  662TIP3    H2 1932   1.500   1.791   3.724
  663TIP3   OH2 1933   1.705   2.896   5.574
  663TIP3    H1 1934   1.767   2.823   5.575
  663TIP3    H2 1935   1.630   2.864   5.624
  664TIP3   OH2 1936   4.508   6.300   1.960
  664TIP3    H1 1937   4.462   6.216   1.953
  664TIP3    H2 1938   4.456   6.361   1.909
  665TIP3   OH2 1939   4.328   1.183   0.422
  665TIP3    H1 1940   4.304   1.139   0.503
  665TIP3    H2 1941   4.394   1.125   0.383
  666TIP3   OH2 1942   4.751   7.703   3.299
  666TIP3    H1 1943   4.786   7.782   3.257
  666TIP3    H2 1944   4.663   7.728   3.327
  667TIP3   OH2 1945   7.530   5.298   0.910
  667TIP3    H1 1946   7.449   5.346   0.925
  667TIP3    H2 1947   7.550   5.256   0.994
  668TIP3   OH2 1948   4.527   6.665   0.891
  668TIP3    H1 1949   4.559   6.625   0.972
  668TIP3    H2 1950   4.601   6.660   0.830
  669TIP3   OH2 1951   5.450   3.957   3.958
  669TIP3    H1 1952   5.543   3.948   3.978
  669TIP3    H2 1953   5.409   3.881   3.999
  670TIP3   OH2 1954   3.039   1.692   4.407
  670TIP3    H1 1955   3.037   1.602   4.442
  670TIP3    H2 1956   3.109   1.735   4.456
  671TIP3   OH2 1957   4.608   5.560   6.112
  671TIP3    H1 1958   4.604   5.543   6.018
  671TIP3    H2 1959   4.557   5.639   6.125
  672TIP3   OH2 1960   4.569   1.845   2.945
  672TIP3    H1 1961   4.586   1.764   2.993
  672TIP3    H2 1962   4.474   1.857   2.950
  673TIP3   OH2 1963   7.376   3.594   2.556
  673TIP3    H1 1964   7.413   3.619   2.471
  673TIP3    H2 1965   7.353   3.677   2.598
  674TIP3   OH2 1966   5.172   2.683   1.887
  674TIP3    H1 1967   5.091   2.689   1.836
  674TIP3    H2 1968   5.173   2.763   1.940
  675TIP3   OH2 1969   8.121   7.242   1.131
  675TIP3    H1 1970   8.204   7.209   1.097
  675TIP3    H2 1971   8.097   7.181   1.201
  676TIP3   OH2 1972   7.560   6.868   5.944
  676TIP3    H1 1973   7.620   6.890   6.016
  676TIP3    H2 1974   7.618   6.846   5.871
  677TIP3   OH2 1975   7.178   4.547   4.634
  677TIP3    H1 1976   7.268   4.517   4.645
  677TIP3    H2 1977   7.146   4.501   4.557
  678TIP3   OH2 1978   6.741   3.072   6.238
  678TIP3    H1 1979   6.695   3.134   6.181
  678TIP3    H2 1980   6.821   3.050   6.190
  679TIP3   OH2 1981   4.732   3.736   2.630
  679TIP3    H1 1982   4.676   3.670   2.670
  679TIP3    H2 1983   4.722   3.813   2.687
  680TIP3   OH2 1984   7.183   5.498   3.161
  680TIP3    H1 1985   7.108   5.440   3.149
  680TIP3    H2 1986   7.155   5.581   3.121
  681TIP3   OH2 1987   2.860   5.146   2.271
  681TIP3    H1 1988   2.852   5.051   2.277
  681TIP3    H2 1989   2.775   5.179   2.302
  682TIP3   OH2 1990  -0.005   5.016   6.658
  682TIP3    H1 1991   0.087   5.020   6.686
  682TIP3    H2 1992  -0.022   5.102   6.621
  683TIP3   OH2 1993   2.096   5.498   3.312
  683TIP3    H1 1994   2.144   5.418   3.289
  683TIP3    H2 1995   2.058   5.479   3.398
  684TIP3   OH2 1996   4.042   1.810   3.006
  684TIP3    H1 1997   3.980   1.740   3.026
  684TIP3    H2 1998   3.990   1.878   2.964
  685TIP3   OH2 1999   5.161   2.448   3.182
  685TIP3    H1 2000   5.245   2.415   3.152
  685TIP3    H2 2001   5.098   2.418   3.116
  686TIP3   OH2 2002   2.850   5.511   0.311
  686TIP3    H1 2003   2.831   5.452   0.238
  686TIP3    H2 2004   2.765   5.543   0.339
  687TIP3   OH2 2005   5.889   5.092   6.058
  687TIP3    H1 2006   5.942   5.017   6.084
  687TIP3    H2 2007   5.907   5.159   6.124
  688TIP3   OH2 2008   4.186   6.136   2.921
  688TIP3    H1 2009   4.187   6.072   2.850
  688TIP3    H2 2010   4.161   6.218   2.879
  689TIP3   OH2 2011   4.717   3.969   0.542
  689TIP3    H1 2012   4.806   3.993   0.514
  689TIP3    H2 2013   4.662   4.039   0.507
  690TIP3   OH2 2014   6.920   4.492   5.498
  690TIP3    H1 2015   6.908   4.574   5.545
  690TIP3    H2 2016   6.887   4.509   5.410
  691TIP3   OH2 2017   7.044   2.948   4.136
  691TIP3    H1 2018   7.014   2.956   4.226
  691TIP3    H2 2019   7.057   3.038   4.106
  692TIP3   OH2 2020   5.643   5.400   1.410
  692TIP3    H1 2021   5.556   5.429   1.437
  692TIP3    H2 2022   5.699   5.477   1.423
  693TIP3   OH2 2023   4.894   4.939   5.914
  693TIP3    H1 2024   4.841   4.886   5.973
  693TIP3    H2 2025   4.886   4.896   5.829
  694TIP3   OH2 2026   8.315   4.085   6.774
  694TIP3    H1 2027   8.288   4.077   6.682
  694TIP3    H2 2028   8.246   4.137   6.814
  695TIP3   OH2 2029   3.562   3.799   5.347
  695TIP3    H1 2030   3.492   3.776   5.287
  695TIP3    H2 2031   3.594   3.715   5.380
  696TIP3   OH2 2032   2.255   7.098   4.133
  696TIP3    H1 2033   2.292   7.020   4.092
  696TIP3    H2 2034   2.199   7.137   4.066
  697TIP3   OH2 2035   1.422   3.854   2.438
  697TIP3    H1 2036   1.503   3.904   2.426
  697TIP3    H2 2037   1.399   3.867   2.530
  698TIP3   OH2 2038   6.975   7.538   3.647
  698TIP3    H1 2039   6.881   7.549   3.634
  698TIP3    H2 2040   7.008   7.627   3.661
  699TIP3   OH2 2041   3.262   4.880   5.564
  699TIP3    H1 2042   3.301   4.803   5.606
  699TIP3    H2 2043   3.322   4.901   5.493
  700TIP3   OH2 2044   1.038   4.834   2.517
  700TIP3    H1 2045   1.050   4.794   2.431
  700TIP3    H2 2046   1.104   4.792   2.572
  701TIP3   OH2 2047   2.005   0.355   5.351
  701TIP3    H1 2048   2.062   0.432   5.358
  701TIP3    H2 2049   2.047   0.289   5.406
  702TIP3   OH2 2050   6.869   5.692   5.341
  702TIP3    H1 2051   6.852   5.747   5.417
  702TIP3    H2 2052   6.865   5.752   5.267
  703TIP3   OH2 2053   0.445   3.563   5.098
  703TIP3    H1 2054   0.532   3.599   5.111
  703TIP3    H2 2055   0.392   3.603   5.167
  704TIP3   OH2 2056   1.662   6.640   5.521
  704TIP3    H1 2057   1.712   6.653   5.440
  704TIP3    H2 2058   1.713   6.686   5.588
  705TIP3   OH2 2059   0.634   7.625   1.557
  705TIP3    H1 2060   0.647   7.532   1.573
  705TIP3    H2 2061   0.576   7.629   1.481
  706TIP3   OH2 2062   7.702   5.747   2.124
  706TIP3    H1 2063   7.712   5.822   2.065
  706TIP3    H2 2064   7.745   5.774   2.205
  707TIP3   OH2 2065   4.511   1.207   5.677
  707TIP3    H1 2066   4.531   1.271   5.745
  707TIP3    H2 2067   4.440   1.246   5.626
  708TIP3   OH2 2068   7.810   2.456   6.380
  708TIP3    H1 2069   7.770   2.429   6.298
  708TIP3    H2 2070   7.896   2.490   6.355
  709TIP3   OH2 2071   7.092   3.673   0.417
  709TIP3    H1 2072   7.129   3.690   0.330
  709TIP3    H2 2073   7.169   3.665   0.474
  710TIP3   OH2 2074   0.579   2.881   2.861
  710TIP3    H1 2075   0.556   2.794   2.896
  710TIP3    H2 2076   0.495   2.920   2.838
  711TIP3   OH2 2077   6.079   5.933   5.987
  711TIP3    H1 2078   6.144   5.893   5.929
  711TIP3    H2 2079   6.096   6.027   5.981
  712TIP3   OH2 2080   2.899   2.402   2.763
  712TIP3    H1 2081   2.855   2.463   2.704
  712TIP3    H2 2082   2.987   2.393   2.726
  713TIP3   OH2 2083   6.281   3.560   2.054
  713TIP3    H1 2084   6.196   3.605   2.052
  713TIP3    H2 2085   6.330   3.606   2.122
  714TIP3   OH2 2086   1.583   6.745   2.281
  714TIP3    H1 2087   1.661   6.786   2.245
  714TIP3    H2 2088   1.566   6.793   2.362
  715TIP3   OH2 2089   2.179   6.200   6.484
  715TIP3    H1 2090   2.247   6.253   6.441
  715TIP3    H2 2091   2.219   6.172   6.566
  716TIP3   OH2 2092   1.133   3.938   1.192
  716TIP3    H1 2093   1.038   3.946   1.180
  716TIP3    H2 2094   1.157   3.857   1.146
  717TIP3   OH2 2095   2.165   5.895   2.763
  717TIP3    H1 2096   2.197   5.985   2.761
  717TIP3    H2 2097   2.244   5.841   2.758
  718TIP3   OH2 2098   1.346   7.203   1.705
  718TIP3    H1 2099   1.434   7.182   1.736
  718TIP3    H2 2100   1.338   7.297   1.719
  719TIP3   OH2 2101   6.301   2.613   3.434
  719TIP3    H1 2102   6.367   2.673   3.400
  719TIP3    H2 2103   6.317   2.610   3.528
  720TIP3   OH2 2104   1.389   3.936   4.474
  720TIP3    H1 2105   1.318   3.999   4.462
  720TIP3    H2 2106   1.401   3.897   4.387
  721TIP3   OH2 2107   6.532   0.819   4.629
  721TIP3    H1 2108   6.628   0.819   4.628
  721TIP3    H2 2109   6.507   0.738   4.585
  722TIP3   OH2 2110   7.147   4.236   4.717
  722TIP3    H1 2111   7.063   4.242   4.672
  722TIP3    H2 2112   7.200   4.180   4.660
  723TIP3   OH2 2113   5.314   5.774   1.383
  723TIP3    H1 2114   5.346   5.683   1.382
  723TIP3    H2 2115   5.390   5.826   1.359
  724TIP3   OH2 2116   7.204   3.214   3.332
  724TIP3    H1 2117   7.272   3.170   3.280
  724TIP3    H2 2118   7.165   3.144   3.384
  725TIP3   OH2 2119   6.153   2.518   6.646
  725TIP3    H1 2120   6.091   2.515   6.573
  725TIP3    H2 2121   6.146   2.607   6.680
  726TIP3   OH2 2122   6.205   0.110   5.278
  726TIP3    H1 2123   6.168   0.104   5.190
  726TIP3    H2 2124   6.290   0.152   5.265
  727TIP3   OH2 2125   7.106   3.883   1.949
  727TIP3    H1 2126   7.084   3.806   2.001
  727TIP3    H2 2127   7.102   3.852   1.858
  728TIP3   OH2 2128   4.284   3.507   1.885
  728TIP3    H1 2129   4.338   3.428   1.890
  728TIP3    H2 2130   4.195   3.475   1.870
  729TIP3   OH2 2131   3.470   4.296   5.396
  729TIP3    H1 2132   3.543   4.268   5.342
  729TIP3    H2 2133   3.429   4.367   5.346
  730TIP3   OH2 2134   7.004   1.619   1.050
  730TIP3    H1 2135   6.992   1.633   0.956
  730TIP3    H2 2136   6.940   1.677   1.092
  731TIP3   OH2 2137   2.787   0.664   3.847
  731TIP3    H1 2138   2.795   0.759   3.853
  731TIP3    H2 2139   2.854   0.638   3.784
  732TIP3   OH2 2140   2.865   6.608   0.733
  732TIP3    H1 2141   2.858   6.544   0.662
  732TIP3    H2 2142   2.775   6.621   0.763
  733TIP3   OH2 2143   3.118   2.612   0.940
  733TIP3    H1 2144   3.187   2.668   0.905
  733TIP3    H2 2145   3.137   2.606   1.034
  734TIP3   OH2 2146   7.930   6.352   3.052
  734TIP3    H1 2147   7.977   6.282   3.007
  734TIP3    H2 2148   7.874   6.306   3.115
  735TIP3   OH2 2149   4.449   6.885   0.687
  735TIP3    H1 2150   4.521   6.834   0.722
  735TIP3    H2 2151   4.376   6.868   0.746
  736TIP3   OH2 2152   7.146   2.638   6.393
  736TIP3    H1 2153   7.118   2.550   6.367
  736TIP3    H2 2154   7.065   2.688   6.397
  737TIP3   OH2 2155   0.888   4.809   0.831
  737TIP3    H1 2156   0.880   4.898   0.798
  737TIP3    H2 2157   0.881   4.754   0.752
  738TIP3   OH2 2158   8.158   4.809   6.507
  738TIP3    H1 2159   8.166   4.889   6.559
  738TIP3    H2 2160   8.219   4.747   6.548
  739TIP3   OH2 2161   1.494   5.203   0.964
  739TIP3    H1 2162   1.589   5.197   0.973
  739TIP3    H2 2163   1.478   5.193   0.870
  740TIP3   OH2 2164   4.829   2.869   0.811
  740TIP3    H1 2165   4.913   2.893   0.772
  740TIP3    H2 2166   4.797   2.798   0.757
  741TIP3   OH2 2167   7.725   1.115   4.153
  741TIP3    H1 2168   7.683   1.104   4.068
  741TIP3    H2 2169   7.652   1.132   4.213
  742TIP3   OH2 2170   2.206   3.626   3.354
  742TIP3    H1 2171   2.142   3.583   3.298
  742TIP3    H2 2172   2.280   3.566   3.357
  743TIP3   OH2 2173   6.720   7.490   6.668
  743TIP3    H1 2174   6.718   7.439   6.748
  743TIP3    H2 2175   6.662   7.444   6.608
  744TIP3   OH2 2176   0.401   1.076   4.573
  744TIP3    H1 2177   0.374   0.990   4.605
  744TIP3    H2 2178   0.495   1.066   4.555
  745TIP3   OH2 2179   5.555   0.934   6.490
  745TIP3    H1 2180   5.611   0.874   6.540
  745TIP3    H2 2181   5.551   0.894   6.403
  746TIP3   OH2 2182   4.120   3.785   3.796
  746TIP3    H1 2183   4.200   3.751   3.838
  746TIP3    H2 2184   4.143   3.794   3.704
  747TIP3   OH2 2185   2.320   3.430   6.518
  747TIP3    H1 2186   2.375   3.464   6.589
  747TIP3    H2 2187   2.372   3.444   6.439
  748TIP3   OH2 2188   1.969   0.097   1.232
  748TIP3    H1 2189   1.935   0.186   1.225
  748TIP3    H2 2190   1.917   0.057   1.302
  749TIP3   OH2 2191   0.318   4.291   1.207
  749TIP3    H1 2192   0.249   4.274   1.143
  749TIP3    H2 2193   0.387   4.229   1.186
  750TIP3   OH2 2194   8.182   1.854   0.046
  750TIP3    H1 2195   8.237   1.821   0.117
  750TIP3    H2 2196   8.103   1.800   0.051
  751TIP3   OH2 2197   1.894   6.527   2.002
  751TIP3    H1 2198   1.831   6.589   1.966
  751TIP3    H2 2199   1.844   6.446   2.014
  752TIP3   OH2 2200   7.209   3.974   6.424
  752TIP3    H1 2201   7.172   4.041   6.482
  752TIP3    H2 2202   7.247   3.909   6.484
  753TIP3   OH2 2203   7.453   0.936   1.158
  753TIP3    H1 2204   7.370   0.981   1.143
  753TIP3    H2 2205   7.427   0.846   1.180
  754TIP3   OH2 2206   6.245   3.391   1.842
  754TIP3    H1 2207   6.293   3.309   1.859
  754TIP3    H2 2208   6.254   3.440   1.924
  755TIP3   OH2 2209   8.212   2.094   3.730
  755TIP3    H1 2210   8.151   2.136   3.790
  755TIP3    H2 2211   8.295   2.093   3.778
  756TIP3   OH2 2212   5.542   3.626   0.987
  756TIP3    H1 2213   5.527   3.622   0.892
  756TIP3    H2 2214   5.536   3.720   1.008
  757TIP3   OH2 2215   8.081   4.074   2.197
  757TIP3    H1 2216   8.020   4.079   2.271
  757TIP3    H2 2217   8.038   4.016   2.134
  758TIP3   OH2 2218   5.158   6.695   0.071
  758TIP3    H1 2219   5.157   6.605   0.106
  758TIP3    H2 2220   5.206   6.688  -0.012
  759TIP3   OH2 2221   7.019   3.832   4.725
  759TIP3    H1 2222   7.052   3.750   4.761
  759TIP3    H2 2223   6.989   3.881   4.802
  760TIP3   OH2 2224   4.285   7.572   6.183
  760TIP3    H1 2225   4.293   7.565   6.278
  760TIP3    H2 2226   4.191   7.581   6.167
  761TIP3   OH2 2227  -0.012   5.864   3.044
  761TIP3    H1 2228   0.075   5.832   3.068
  761TIP3    H2 2229  -0.030   5.825   2.959
  762TIP3   OH2 2230   8.116   3.357   4.766
  762TIP3    H1 2231   8.037   3.362   4.819
  762TIP3    H2 2232   8.096   3.406   4.687
  763TIP3   OH2 2233   7.090   1.359   6.730
  763TIP3    H1 2234   7.015   1.372   6.672
  763TIP3    H2 2235   7.052   1.323   6.810
  764TIP3   OH2 2236   1.385   6.075   2.786
  764TIP3    H1 2237   1.469   6.049   2.824
  764TIP3    H2 2238   1.378   6.169   2.803
  765TIP3   OH2 2239   2.871   1.114   0.158
  765TIP3    H1 2240   2.873   1.197   0.109
  765TIP3    H2 2241   2.907   1.050   0.097
  766TIP3   OH2 2242   1.168   7.618   0.478
  766TIP3    H1 2243   1.210   7.599   0.394
  766TIP3    H2 2244   1.192   7.709   0.496
  767TIP3   OH2 2245   3.062   1.052   5.273
  767TIP3    H1 2246   2.969   1.055   5.251
  767TIP3    H2 2247   3.099   0.986   5.214
  768TIP3   OH2 2248   3.644   4.492   5.233
  768TIP3    H1 2249   3.653   4.497   5.328
  768TIP3    H2 2250   3.567   4.546   5.213
  769TIP3   OH2 2251   5.440   5.292   0.852
  769TIP3    H1 2252   5.527   5.332   0.851
  769TIP3    H2 2253   5.399   5.327   0.932
  770TIP3   OH2 2254   3.096   1.503   3.634
  770TIP3    H1 2255   3.184   1.472   3.654
  770TIP3    H2 2256   3.094   1.593   3.667
  771TIP3   OH2 2257   6.313   2.546   5.892
  771TIP3    H1 2258   6.245   2.492   5.931
  771TIP3    H2 2259   6.389   2.487   5.886
  772TIP3   OH2 2260   2.348   1.486   5.327
  772TIP3    H1 2261   2.370   1.501   5.419
  772TIP3    H2 2262   2.256   1.511   5.319
  773TIP3   OH2 2263   0.500   4.285   2.600
  773TIP3    H1 2264   0.458   4.368   2.622
  773TIP3    H2 2265   0.580   4.309   2.554
  774TIP3   OH2 2266   6.821   5.296   3.382
  774TIP3    H1 2267   6.740   5.341   3.360
  774TIP3    H2 2268   6.839   5.322   3.472
  775TIP3   OH2 2269   5.358   4.960   4.778
  775TIP3    H1 2270   5.438   5.004   4.807
  775TIP3    H2 2271   5.332   5.007   4.699
  776TIP3   OH2 2272   0.764   4.145   6.070
  776TIP3    H1 2273   0.816   4.086   6.016
  776TIP3    H2 2274   0.735   4.213   6.009
  777TIP3   OH2 2275   2.931   6.822   1.608
  777TIP3    H1 2276   3.019   6.785   1.601
  777TIP3    H2 2277   2.936   6.904   1.560
  778TIP3   OH2 2278   6.526   7.325   6.534
  778TIP3    H1 2279   6.546   7.252   6.592
  778TIP3    H2 2280   6.585   7.314   6.460
  779TIP3   OH2 2281   0.384   7.510   1.687
  779TIP3    H1 2282   0.362   7.603   1.696
  779TIP3    H2 2283   0.388   7.495   1.593
  780TIP3   OH2 2284   1.773   6.907   2.677
  780TIP3    H1 2285   1.712   6.959   2.623
  780TIP3    H2 2286   1.756   6.936   2.766
  781TIP3   OH2 2287   2.283   1.498   0.132
  781TIP3    H1 2288   2.208   1.487   0.191
  781TIP3    H2 2289   2.360   1.486   0.188
  782TIP3   OH2 2290   7.225   7.501   1.579
  782TIP3    H1 2291   7.130   7.510   1.576
  782TIP3    H2 2292   7.254   7.571   1.638
  783TIP3   OH2 2293   4.218   4.464   5.835
  783TIP3    H1 2294   4.173   4.395   5.787
  783TIP3    H2 2295   4.287   4.493   5.776
  784TIP3   OH2 2296   1.862   2.906   6.570
  784TIP3    H1 2297   1.927   2.902   6.640
  784TIP3    H2 2298   1.834   2.815   6.558
  785TIP3   OH2 2299   2.758   1.808   0.889
  785TIP3    H1 2300   2.777   1.783   0.798
  785TIP3    H2 2301   2.679   1.759   0.911
  786TIP3   OH2 2302   7.537   3.250   4.420
  786TIP3    H1 2303   7.566   3.160   4.408
  786TIP3    H2 2304   7.541   3.289   4.333
  787TIP3   OH2 2305   7.807   5.462   2.159
  787TIP3    H1 2306   7.797   5.451   2.254
  787TIP3    H2 2307   7.745   5.530   2.136
  788TIP3   OH2 2308   6.368   3.729   0.794
  788TIP3    H1 2309   6.304   3.774   0.740
  788TIP3    H2 2310   6.332   3.641   0.806
  789TIP3   OH2 2311   6.720   1.145   2.629
  789TIP3    H1 2312   6.721   1.175   2.720
  789TIP3    H2 2313   6.809   1.112   2.613
  790TIP3   OH2 2314   6.035   7.541   2.413
  790TIP3    H1 2315   6.013   7.516   2.503
  790TIP3    H2 2316   6.064   7.632   2.420
  791TIP3   OH2 2317   2.091   1.877   4.826
  791TIP3    H1 2318   2.046   1.905   4.746
  791TIP3    H2 2319   2.164   1.823   4.794
  792TIP3   OH2 2320   1.894   2.187   6.060
  792TIP3    H1 2321   1.954   2.259   6.042
  792TIP3    H2 2322   1.810   2.229   6.079
  793TIP3   OH2 2323   2.880   0.761   2.980
  793TIP3    H1 2324   2.916   0.705   2.911
  793TIP3    H2 2325   2.921   0.846   2.965
  794TIP3   OH2 2326   0.389   1.808   1.197
  794TIP3    H1 2327   0.464   1.804   1.138
  794TIP3    H2 2328   0.372   1.717   1.220
  795TIP3   OH2 2329   7.882   3.923   2.086
  795TIP3    H1 2330   7.910   3.910   1.996
  795TIP3    H2 2331   7.809   3.985   2.080
  796TIP3   OH2 2332   0.232   3.074   4.835
  796TIP3    H1 2333   0.322   3.095   4.858
  796TIP3    H2 2334   0.238   3.032   4.748
  797TIP3   OH2 2335   2.536   4.110   0.577
  797TIP3    H1 2336   2.533   4.085   0.485
  797TIP3    H2 2337   2.588   4.041   0.619
  798TIP3   OH2 2338   8.088   1.346   6.688
  798TIP3    H1 2339   8.055   1.386   6.768
  798TIP3    H2 2340   8.046   1.396   6.617
  799TIP3   OH2 2341   6.027   7.465   4.996
  799TIP3    H1 2342   6.064   7.379   4.978
  799TIP3    H2 2343   6.047   7.481   5.088
  800TIP3   OH2 2344   2.381   0.178   1.569
  800TIP3    H1 2345   2.453   0.131   1.527
  800TIP3    H2 2346   2.302   0.134   1.540
  801TIP3   OH2 2347   4.444   3.355   5.393
  801TIP3    H1 2348   4.498   3.400   5.327
  801TIP3    H2 2349   4.419   3.425   5.454
  802TIP3   OH2 2350   3.570   5.055   6.713
  802TIP3    H1 2351   3.526   5.023   6.634
  802TIP3    H2 2352   3.631   4.986   6.736
  803TIP3   OH2 2353   4.883   6.228   5.649
  803TIP3    H1 2354   4.802   6.203   5.693
  803TIP3    H2 2355   4.952   6.179   5.694
  804TIP3   OH2 2356   5.583   4.083   0.190
  804TIP3    H1 2357   5.581   4.175   0.165
  804TIP3    H2 2358   5.595   4.084   0.285
  805TIP3   OH2 2359   1.363   0.609   6.470
  805TIP3    H1 2360   1.429   0.600   6.539
  805TIP3    H2 2361   1.315   0.526   6.472
  806TIP3   OH2 2362   0.266   6.955   1.010
  806TIP3    H1 2363   0.326   6.895   1.054
  806TIP3    H2 2364   0.274   6.932   0.917
  807TIP3   OH2 2365   5.329   6.642   2.931
  807TIP3    H1 2366   5.359   6.720   2.884
  807TIP3    H2 2367   5.293   6.675   3.013
  808TIP3   OH2 2368   3.968   0.961   0.560
  808TIP3    H1 2369   3.993   0.990   0.472
  808TIP3    H2 2370   3.878   0.992   0.571
  809TIP3   OH2 2371   4.401   6.078   3.098
  809TIP3    H1 2372   4.374   6.129   3.174
  809TIP3    H2 2373   4.355   6.118   3.024
  810TIP3   OH2 2374   7.154   5.252   2.813
  810TIP3    H1 2375   7.110   5.337   2.823
  810TIP3    H2 2376   7.087   5.196   2.774
  811TIP3   OH2 2377   0.491   1.843   6.019
  811TIP3    H1 2378   0.432   1.832   5.945
  811TIP3    H2 2379   0.579   1.846   5.979
  812TIP3   OH2 2380   5.783   2.519   2.093
  812TIP3    H1 2381   5.864   2.477   2.125
  812TIP3    H2 2382   5.713   2.472   2.139
  813TIP3   OH2 2383   0.959   5.105   1.848
  813TIP3    H1 2384   0.889   5.099   1.913
  813TIP3    H2 2385   0.926   5.056   1.772
  814TIP3   OH2 2386   4.937   1.837   5.931
  814TIP3    H1 2387   5.016   1.886   5.952
  814TIP3    H2 2388   4.949   1.752   5.974
  815TIP3   OH2 2389   7.545   6.770   3.843
  815TIP3    H1 2390   7.586   6.843   3.888
  815TIP3    H2 2391   7.610   6.700   3.846
  816TIP3   OH2 2392   5.343   7.376   0.257
  816TIP3    H1 2393   5.428   7.415   0.237
  816TIP3    H2 2394   5.343   7.294   0.208
  817TIP3   OH2 2395   1.861   6.965   5.459
  817TIP3    H1 2396   1.870   7.059   5.443
  817TIP3    H2 2397   1.825   6.930   5.378
  818TIP3   OH2 2398   5.340   2.577   1.712
  818TIP3    H1 2399   5.345   2.623   1.628
  818TIP3    H2 2400   5.283   2.631   1.766
  819TIP3   OH2 2401   1.412   7.838   5.960
  819TIP3    H1 2402   1.474   7.843   6.033
  819TIP3    H2 2403   1.352   7.768   5.985
  820TIP3   OH2 2404   7.455   4.870   4.397
  820TIP3    H1 2405   7.455   4.825   4.481
  820TIP3    H2 2406   7.539   4.849   4.357
  821TIP3   OH2 2407   0.551   6.915   0.228
  821TIP3    H1 2408   0.577   6.945   0.315
  821TIP3    H2 2409   0.569   6.821   0.228
  822TIP3   OH2 2410   5.290   6.302   2.658
  822TIP3    H1 2411   5.211   6.280   2.707
  822TIP3    H2 2412   5.279   6.258   2.574
  823TIP3   OH2 2413   1.360   1.170   2.637
  823TIP3    H1 2414   1.315   1.089   2.611
  823TIP3    H2 2415   1.404   1.148   2.719
  824TIP3   OH2 2416   4.360   2.291   5.826
  824TIP3    H1 2417   4.385   2.234   5.753
  824TIP3    H2 2418   4.443   2.320   5.863
  825TIP3   OH2 2419   4.059   1.906   3.271
  825TIP3    H1 2420   4.077   1.861   3.188
  825TIP3    H2 2421   4.066   1.999   3.250
  826TIP3   OH2 2422   8.022   1.803   1.311
  826TIP3    H1 2423   7.939   1.754   1.304
  826TIP3    H2 2424   8.068   1.763   1.384
  827TIP3   OH2 2425   3.446   5.092   3.287
  827TIP3    H1 2426   3.391   5.157   3.331
  827TIP3    H2 2427   3.481   5.138   3.211
  828TIP3   OH2 2428   6.319   0.184   0.698
  828TIP3    H1 2429   6.299   0.255   0.759
  828TIP3    H2 2430   6.239   0.172   0.648
  829TIP3   OH2 2431   2.512   2.816   5.475
  829TIP3    H1 2432   2.452   2.786   5.543
  829TIP3    H2 2433   2.540   2.735   5.431
  830TIP3   OH2 2434   0.257   1.970   1.519
  830TIP3    H1 2435   0.235   2.059   1.546
  830TIP3    H2 2436   0.193   1.949   1.452
  831TIP3   OH2 2437   7.298   7.718   5.770
  831TIP3    H1 2438   7.377   7.763   5.801
  831TIP3    H2 2439   7.331   7.652   5.709
  832TIP3   OH2 2440   1.106   2.242   2.866
  832TIP3    H1 2441   1.076   2.329   2.838
  832TIP3    H2 2442   1.192   2.257   2.904
  833TIP3   OH2 2443   1.959   2.423   5.157
  833TIP3    H1 2444   1.866   2.405   5.171
  833TIP3    H2 2445   2.000   2.336   5.160
  834TIP3   OH2 2446   6.450   6.957   1.889
  834TIP3    H1 2447   6.544   6.973   1.885
  834TIP3    H2 2448   6.442   6.875   1.938
  835TIP3   OH2 2449   3.360   0.332   4.975
  835TIP3    H1 2450   3.363   0.239   4.954
  835TIP3    H2 2451   3.281   0.342   5.028
  836TIP3   OH2 2452   4.539   0.269   1.451
  836TIP3    H1 2453   4.631   0.282   1.428
  836TIP3    H2 2454   4.493   0.335   1.400
  837TIP3   OH2 2455   3.898   3.783   3.961
  837TIP3    H1 2456   3.939   3.793   4.047
  837TIP3    H2 2457   3.972   3.776   3.900
  838TIP3   OH2 2458   3.698   1.594   1.749
  838TIP3    H1 2459   3.771   1.542   1.715
  838TIP3    H2 2460   3.635   1.530   1.780
  839TIP3   OH2 2461   2.813   3.418   0.647
  839TIP3    H1 2462   2.856   3.369   0.717
  839TIP3    H2 2463   2.741   3.361   0.619
  840TIP3   OH2 2464   0.928   6.911   3.264
  840TIP3    H1 2465   0.985   6.840   3.294
  840TIP3    H2 2466   0.975   6.991   3.286
  841TIP3   OH2 2467   1.888   0.389   5.083
  841TIP3    H1 2468   1.899   0.405   5.177
  841TIP3    H2 2469   1.957   0.442   5.042
  842TIP3   OH2 2470   4.030   0.336   5.916
  842TIP3    H1 2471   4.081   0.405   5.874
  842TIP3    H2 2472   4.072   0.323   6.001
  843TIP3   OH2 2473   0.941   4.951   1.267
  843TIP3    H1 2474   0.970   4.861   1.251
  843TIP3    H2 2475   0.847   4.949   1.252
  844TIP3   OH2 2476   2.856   3.880   5.174
  844TIP3    H1 2477   2.780   3.880   5.116
  844TIP3    H2 2478   2.823   3.844   5.256
  845TIP3   OH2 2479   0.481   6.522   2.960
  845TIP3    H1 2480   0.508   6.601   2.913
  845TIP3    H2 2481   0.539   6.519   3.036
  846TIP3   OH2 2482   2.210   7.628   2.521
  846TIP3    H1 2483   2.182   7.675   2.600
  846TIP3    H2 2484   2.136   7.637   2.461
  847TIP3   OH2 2485  -0.008   4.068   2.686
  847TIP3    H1 2486  -0.062   4.012   2.742
  847TIP3    H2 2487   0.082   4.037   2.700
  848TIP3   OH2 2488   6.333   1.038   3.578
  848TIP3    H1 2489   6.292   1.125   3.578
  848TIP3    H2 2490   6.259   0.977   3.585
  849TIP3   OH2 2491   7.631   2.081   6.410
  849TIP3    H1 2492   7.547   2.041   6.390
  849TIP3    H2 2493   7.690   2.007   6.427
  850TIP3   OH2 2494   6.180   6.829   0.183
  850TIP3    H1 2495   6.249   6.794   0.238
  850TIP3    H2 2496   6.204   6.921   0.169
  851TIP3   OH2 2497   6.922   4.265   0.228
  851TIP3    H1 2498   6.926   4.183   0.178
  851TIP3    H2 2499   6.889   4.238   0.314
  852TIP3   OH2 2500   5.337   5.808   3.680
  852TIP3    H1 2501   5.397   5.738   3.704
  852TIP3    H2 2502   5.393   5.877   3.646
  853TIP3   OH2 2503   6.836   7.199   2.065
  853TIP3    H1 2504   6.843   7.207   1.970
  853TIP3    H2 2505   6.792   7.115   2.079
  854TIP3   OH2 2506   2.442   0.658   2.763
  854TIP3    H1 2507   2.422   0.629   2.674
  854TIP3    H2 2508   2.517   0.605   2.789
  855TIP3   OH2 2509   5.723   5.001   3.378
  855TIP3    H1 2510   5.780   4.979   3.304
  855TIP3    H2 2511   5.729   5.096   3.385
  856TIP3   OH2 2512   5.177   2.526   5.243
  856TIP3    H1 2513   5.106   2.586   5.218
  856TIP3    H2 2514   5.161   2.507   5.335
  857TIP3   OH2 2515   0.015   1.101   3.983
  857TIP3    H1 2516   0.101   1.061   3.976
  857TIP3    H2 2517  -0.004   1.134   3.895
  858TIP3   OH2 2518   7.035   5.242   5.310
  858TIP3    H1 2519   6.979   5.192   5.250
  858TIP3    H2 2520   7.056   5.322   5.261
  859TIP3   OH2 2521   6.570   1.142   3.192
  859TIP3    H1 2522   6.497   1.159   3.132
  859TIP3    H2 2523   6.535   1.078   3.254
  860TIP3   OH2 2524   4.265   4.892   3.980
  860TIP3    H1 2525   4.341   4.846   3.946
  860TIP3    H2 2526   4.295   4.932   4.061
  861TIP3   OH2 2527   3.493   4.476   6.069
  861TIP3    H1 2528   3.513   4.384   6.089
  861TIP3    H2 2529   3.430   4.471   5.997
  862TIP3   OH2 2530   8.271   7.020   4.515
  862TIP3    H1 2531   8.343   7.080   4.495
  862TIP3    H2 2532   8.196   7.055   4.467
  863TIP3   OH2 2533   4.857   2.582   1.381
  863TIP3    H1 2534   4.925   2.514   1.382
  863TIP3    H2 2535   4.793   2.552   1.446
  864TIP3   OH2 2536   0.287   3.998   5.681
  864TIP3    H1 2537   0.268   4.080   5.636
  864TIP3    H2 2538   0.379   3.980   5.660
  865TIP3   OH2 2539   8.257   7.559   6.070
  865TIP3    H1 2540   8.206   7.556   6.151
  865TIP3    H2 2541   8.192   7.548   6.001
  866TIP3   OH2 2542   6.104   0.558   1.930
  866TIP3    H1 2543   6.154   0.614   1.989
  866TIP3    H2 2544   6.117   0.598   1.844
  867TIP3   OH2 2545   0.314   2.891   2.377
  867TIP3    H1 2546   0.313   2.860   2.467
  867TIP3    H2 2547   0.378   2.835   2.333
  868TIP3   OH2 2548   4.265   7.334   5.028
  868TIP3    H1 2549   4.305   7.341   4.941
  868TIP3    H2 2550   4.298   7.251   5.062
  869TIP3   OH2 2551   7.337   4.918   5.879
  869TIP3    H1 2552   7.265   4.878   5.830
  869TIP3    H2 2553   7.416   4.876   5.845
  870TIP3   OH2 2554   4.077   5.332   2.922
  870TIP3    H1 2555   4.070   5.402   2.986
  870TIP3    H2 2556   3.997   5.337   2.871
  871TIP3   OH2 2557   2.512   1.212   1.705
  871TIP3    H1 2558   2.493   1.168   1.788
  871TIP3    H2 2559   2.524   1.304   1.729
  872TIP3   OH2 2560   2.967   3.914   4.291
  872TIP3    H1 2561   2.988   3.997   4.334
  872TIP3    H2 2562   3.019   3.916   4.210
  873TIP3   OH2 2563   3.851   1.675   1.372
  873TIP3    H1 2564   3.874   1.582   1.364
  873TIP3    H2 2565   3.819   1.699   1.285
  874TIP3   OH2 2566   1.124   6.869   6.382
  874TIP3    H1 2567   1.031   6.866   6.402
  874TIP3    H2 2568   1.162   6.923   6.451
  875TIP3   OH2 2569   4.478   7.339   3.803
  875TIP3    H1 2570   4.486   7.351   3.709
  875TIP3    H2 2571   4.569   7.333   3.834
  876TIP3   OH2 2572   2.351   4.220   3.416
  876TIP3    H1 2573   2.405   4.297   3.400
  876TIP3    H2 2574   2.298   4.210   3.336
  877TIP3   OH2 2575   4.567   6.351   4.730
  877TIP3    H1 2576   4.637   6.375   4.791
  877TIP3    H2 2577   4.491   6.333   4.786
  878TIP3   OH2 2578   4.067   4.075   3.006
  878TIP3    H1 2579   3.991   4.020   3.027
  878TIP3    H2 2580   4.105   4.035   2.928
  879TIP3   OH2 2581   6.359   2.076   3.075
  879TIP3    H1 2582   6.348   2.039   2.988
  879TIP3    H2 2583   6.418   2.015   3.120
  880TIP3   OH2 2584   4.656   6.128   1.186
  880TIP3    H1 2585   4.683   6.079   1.109
  880TIP3    H2 2586   4.664   6.220   1.160
  881TIP3   OH2 2587   2.115   7.148   3.880
  881TIP3    H1 2588   2.124   7.242   3.892
  881TIP3    H2 2589   2.101   7.138   3.785
  882TIP3   OH2 2590   4.480   4.782   3.824
  882TIP3    H1 2591   4.507   4.761   3.913
  882TIP3    H2 2592   4.435   4.704   3.793
  883TIP3   OH2 2593   3.648   5.503   5.673
  883TIP3    H1 2594   3.715   5.461   5.728
  883TIP3    H2 2595   3.696   5.538   5.598
  884TIP3   OH2 2596   5.435   3.802   3.467
  884TIP3    H1 2597   5.518   3.761   3.443
  884TIP3    H2 2598   5.446   3.826   3.559
  885TIP3   OH2 2599   0.305   6.858   6.681
  885TIP3    H1 2600   0.346   6.772   6.670
  885TIP3    H2 2601   0.333   6.887   6.768
  886TIP3   OH2 2602   8.134   0.679   4.407
  886TIP3    H1 2603   8.066   0.700   4.471
  886TIP3    H2 2604   8.107   0.725   4.327
  887TIP3   OH2 2605   6.328   0.173   1.125
  887TIP3    H1 2606   6.363   0.146   1.209
  887TIP3    H2 2607   6.365   0.110   1.062
  888TIP3   OH2 2608   3.660   2.000   3.977
  888TIP3    H1 2609   3.683   1.934   4.043
  888TIP3    H2 2610   3.740   2.010   3.925
  889TIP3   OH2 2611   3.696   2.448   2.547
  889TIP3    H1 2612   3.624   2.391   2.576
  889TIP3    H2 2613   3.670   2.535   2.575
  890TIP3   OH2 2614   3.639   7.084   0.599
  890TIP3    H1 2615   3.588   7.165   0.601
  890TIP3    H2 2616   3.608   7.038   0.522
  891TIP3   OH2 2617   3.728   0.782   5.012
  891TIP3    H1 2618   3.720   0.838   5.089
  891TIP3    H2 2619   3.820   0.788   4.986
  892TIP3   OH2 2620   6.144   3.014   1.617
  892TIP3    H1 2621   6.106   2.967   1.691
  892TIP3    H2 2622   6.131   2.956   1.542
  893TIP3   OH2 2623   5.729   1.096   4.448
  893TIP3    H1 2624   5.784   1.142   4.512
  893TIP3    H2 2625   5.765   1.008   4.444
  894TIP3   OH2 2626   3.191   5.224   1.897
  894TIP3    H1 2627   3.261   5.274   1.938
  894TIP3    H2 2628   3.116   5.284   1.897
  895TIP3   OH2 2629   1.392   6.494   0.335
  895TIP3    H1 2630   1.405   6.405   0.368
  895TIP3    H2 2631   1.374   6.546   0.413
  896TIP3   OH2 2632   1.005   7.390   3.670
  896TIP3    H1 2633   0.909   7.395   3.669
  896TIP3    H2 2634   1.033   7.481   3.684
  897TIP3   OH2 2635   4.968   0.564   2.325
  897TIP3    H1 2636   4.959   0.470   2.341
  897TIP3    H2 2637   4.883   0.601   2.349
  898TIP3   OH2 2638   4.713   3.807   3.485
  898TIP3    H1 2639   4.685   3.882   3.434
  898TIP3    H2 2640   4.808   3.818   3.494
  899TIP3   OH2 2641   6.865   4.009   0.136
  899TIP3    H1 2642   6.804   3.964   0.077
  899TIP3    H2 2643   6.951   3.992   0.099
  900TIP3   OH2 2644   6.984   2.087   3.127
  900TIP3    H1 2645   7.037   2.153   3.172
  900TIP3    H2 2646   6.899   2.129   3.113
  901TIP3   OH2 2647   1.658   7.379   1.672
  901TIP3    H1 2648   1.655   7.303   1.731
  901TIP3    H2 2649   1.746   7.377   1.635
  902TIP3   OH2 2650   2.882   3.892   4.811
  902TIP3    H1 2651   2.941   3.821   4.835
  902TIP3    H2 2652   2.796   3.851   4.806
  903TIP3   OH2 2653   0.869   6.254   2.128
  903TIP3    H1 2654   0.913   6.184   2.176
  903TIP3    H2 2655   0.779   6.253   2.160
  904TIP3   OH2 2656   7.828   3.750   6.154
  904TIP3    H1 2657   7.910   3.782   6.117
  904TIP3    H2 2658   7.760   3.783   6.095
  905TIP3   OH2 2659   1.794   1.746   2.957
  905TIP3    H1 2660   1.729   1.691   2.913
  905TIP3    H2 2661   1.871   1.741   2.901
  906TIP3   OH2 2662   5.115   0.301   0.526
  906TIP3    H1 2663   5.185   0.259   0.577
  906TIP3    H2 2664   5.161   0.365   0.471
  907TIP3   OH2 2665   7.040   5.009   6.129
  907TIP3    H1 2666   7.029   5.009   6.034
  907TIP3    H2 2667   7.028   4.918   6.155
  908TIP3   OH2 2668   3.850   3.768   6.139
  908TIP3    H1 2669   3.837   3.816   6.057
  908TIP3    H2 2670   3.830   3.832   6.207
  909TIP3   OH2 2671   4.107   3.337   2.252
  909TIP3    H1 2672   4.046   3.297   2.190
  909TIP3    H2 2673   4.177   3.272   2.263
  910TIP3   OH2 2674   3.729   0.655   1.107
  910TIP3    H1 2675   3.639   0.620   1.103
  910TIP3    H2 2676   3.750   0.655   1.200
  911TIP3   OH2 2677   3.395   5.976   0.571
  911TIP3    H1 2678   3.313   6.006   0.532
  911TIP3    H2 2679   3.431   5.916   0.507
  912TIP3   OH2 2680   6.547   3.628   5.309
  912TIP3    H1 2681   6.525   3.703   5.253
  912TIP3    H2 2682   6.468   3.612   5.359
  913TIP3   OH2 2683   6.360   0.708   2.317
  913TIP3    H1 2684   6.412   0.785   2.337
  913TIP3    H2 2685   6.280   0.719   2.368
  914TIP3   OH2 2686   5.428   7.191   2.425
  914TIP3    H1 2687   5.495   7.239   2.473
  914TIP3    H2 2688   5.424   7.235   2.340
  915TIP3   OH2 2689   4.478   6.578   6.563
  915TIP3    H1 2690   4.542   6.597   6.493
  915TIP3    H2 2691   4.512   6.625   6.639
  916TIP3   OH2 2692   1.679   1.090   0.159
  916TIP3    H1 2693   1.768   1.126   0.162
  916TIP3    H2 2694   1.689   0.998   0.183
  917TIP3   OH2 2695   0.514   0.643   5.236
  917TIP3    H1 2696   0.453   0.682   5.299
  917TIP3    H2 2697   0.568   0.717   5.207
  918TIP3   OH2 2698   1.425   1.763   4.829
  918TIP3    H1 2699   1.447   1.852   4.856
  918TIP3    H2 2700   1.507   1.714   4.840
  919TIP3   OH2 2701   6.297   4.097   2.770
  919TIP3    H1 2702   6.258   4.058   2.692
  919TIP3    H2 2703   6.319   4.186   2.744
  920TIP3   OH2 2704   0.596   6.918   0.575
  920TIP3    H1 2705   0.586   6.993   0.634
  920TIP3    H2 2706   0.672   6.871   0.607
  921TIP3   OH2 2707   6.308   0.307   4.935
  921TIP3    H1 2708   6.328   0.348   4.851
  921TIP3    H2 2709   6.371   0.345   4.996
  922TIP3   OH2 2710   1.549   3.123   5.629
  922TIP3    H1 2711   1.586   3.043   5.591
  922TIP3    H2 2712   1.591   3.131   5.714
  923TIP3   OH2 2713   5.174   3.436   5.148
  923TIP3    H1 2714   5.113   3.450   5.221
  923TIP3    H2 2715   5.117   3.425   5.072
  924TIP3   OH2 2716   7.045   2.935   3.174
  924TIP3    H1 2717   7.114   2.985   3.130
  924TIP3    H2 2718   7.072   2.934   3.266
  925TIP3   OH2 2719   6.489   3.461   0.670
  925TIP3    H1 2720   6.521   3.406   0.599
  925TIP3    H2 2721   6.516   3.550   0.646
  926TIP3   OH2 2722   2.406   6.065   1.549
  926TIP3    H1 2723   2.342   6.126   1.513
  926TIP3    H2 2724   2.424   6.099   1.637
  927TIP3   OH2 2725   6.086   6.166   3.211
  927TIP3    H1 2726   6.039   6.086   3.190
  927TIP3    H2 2727   6.133   6.189   3.131
  928TIP3   OH2 2728   5.319   0.817   2.254
  928TIP3    H1 2729   5.273   0.740   2.288
  928TIP3    H2 2730   5.412   0.792   2.256
  929TIP3   OH2 2731   5.817   6.760   2.671
  929TIP3    H1 2732   5.781   6.806   2.747
  929TIP3    H2 2733   5.744   6.753   2.610
  930TIP3   OH2 2734   2.470   3.602   2.806
  930TIP3    H1 2735   2.501   3.631   2.892
  930TIP3    H2 2736   2.481   3.507   2.807
  931TIP3   OH2 2737   6.203   1.175   0.130
  931TIP3    H1 2738   6.297   1.161   0.115
  931TIP3    H2 2739   6.168   1.087   0.147
  932TIP3   OH2 2740   5.627   1.700   6.263
  932TIP3    H1 2741   5.681   1.624   6.283
  932TIP3    H2 2742   5.615   1.697   6.168
  933TIP3   OH2 2743   2.950   3.417   5.472
  933TIP3    H1 2744   3.044   3.414   5.456
  933TIP3    H2 2745   2.929   3.330   5.507
  934TIP3   OH2 2746   0.383   0.622   1.958
  934TIP3    H1 2747   0.312   0.670   1.915
  934TIP3    H2 2748   0.447   0.607   1.888
  935TIP3   OH2 2749   3.315   3.734   6.657
  935TIP3    H1 2750   3.266   3.814   6.675
  935TIP3    H2 2751   3.407   3.761   6.663
  936TIP3   OH2 2752   2.524   3.236   0.408
  936TIP3    H1 2753   2.616   3.262   0.413
  936TIP3    H2 2754   2.499   3.221   0.499
  937TIP3   OH2 2755   7.516   3.874   0.032
  937TIP3    H1 2756   7.459   3.869   0.109
  937TIP3    H2 2757   7.484   3.805  -0.026
  938TIP3   OH2 2758   2.316   2.254   1.337
  938TIP3    H1 2759   2.366   2.234   1.258
  938TIP3    H2 2760   2.227   2.270   1.306
  939TIP3   OH2 2761   7.932   2.355   4.308
  939TIP3    H1 2762   7.979   2.272   4.321
  939TIP3    H2 2763   7.987   2.420   4.352
  940TIP3   OH2 2764   4.103   2.728   1.838
  940TIP3    H1 2765   4.021   2.769   1.865
  940TIP3    H2 2766   4.117   2.760   1.749
  941TIP3   OH2 2767   4.334   1.266   5.281
  941TIP3    H1 2768   4.364   1.318   5.356
  941TIP3    H2 2769   4.402   1.200   5.269
  942TIP3   OH2 2770   2.451   7.490   1.481
  942TIP3    H1 2771   2.384   7.559   1.477
  942TIP3    H2 2772   2.415   7.426   1.542
  943TIP3   OH2 2773   6.759   1.874   5.793
  943TIP3    H1 2774   6.782   1.896   5.703
  943TIP3    H2 2775   6.691   1.938   5.817
  944TIP3   OH2 2776   5.315   0.758   0.486
  944TIP3    H1 2777   5.392   0.790   0.531
  944TIP3    H2 2778   5.306   0.815   0.410
  945TIP3   OH2 2779   5.796   2.253   2.772
  945TIP3    H1 2780   5.877   2.226   2.730
  945TIP3    H2 2781   5.815   2.251   2.866
  946TIP3   OH2 2782   5.653   7.331   5.727
  946TIP3    H1 2783   5.608   7.331   5.811
  946TIP3    H2 2784   5.712   7.255   5.733
  947TIP3   OH2 2785   5.816   5.286   2.310
  947TIP3    H1 2786   5.871   5.220   2.268
  947TIP3    H2 2787   5.870   5.365   2.312
  948TIP3   OH2 2788   6.540   5.561   2.316
  948TIP3    H1 2789   6.545   5.584   2.223
  948TIP3    H2 2790   6.590   5.630   2.360
  949TIP3   OH2 2791   8.119   2.980   4.143
  949TIP3    H1 2792   8.030   2.985   4.178
  949TIP3    H2 2793   8.108   3.000   4.050
  950TIP3   OH2 2794   5.096   7.462   4.540
  950TIP3    H1 2795   5.177   7.499   4.574
  950TIP3    H2 2796   5.108   7.368   4.546
  951TIP3   OH2 2797   4.801   4.682   1.718
  951TIP3    H1 2798   4.843   4.652   1.637
  951TIP3    H2 2799   4.828   4.619   1.784
  952TIP3   OH2 2800   5.361   4.722   3.658
  952TIP3    H1 2801   5.424   4.746   3.590
  952TIP3    H2 2802   5.339   4.630   3.640
  953TIP3   OH2 2803   0.955   0.128   6.263
  953TIP3    H1 2804   0.963   0.181   6.184
  953TIP3    H2 2805   0.884   0.168   6.312
  954TIP3   OH2 2806   1.363   7.440   5.282
  954TIP3    H1 2807   1.346   7.396   5.199
  954TIP3    H2 2808   1.308   7.519   5.279
  955TIP3   OH2 2809   2.475   5.643   3.868
  955TIP3    H1 2810   2.526   5.624   3.947
  955TIP3    H2 2811   2.540   5.655   3.799
  956TIP3   OH2 2812   3.184   4.541   5.612
  956TIP3    H1 2813   3.179   4.446   5.606
  956TIP3    H2 2814   3.219   4.558   5.700
  957TIP3   OH2 2815   2.703   2.980   6.369
  957TIP3    H1 2816   2.711   3.046   6.439
  957TIP3    H2 2817   2.787   2.935   6.369
  958TIP3   OH2 2818   8.229   3.103   5.650
  958TIP3    H1 2819   8.325   3.102   5.650
  958TIP3    H2 2820   8.206   3.181   5.599
  959TIP3   OH2 2821   0.974   4.601   6.030
  959TIP3    H1 2822   0.913   4.670   6.058
  959TIP3    H2 2823   0.954   4.526   6.086
  960TIP3   OH2 2824   0.489   5.599   0.974
  960TIP3    H1 2825   0.525   5.538   0.910
  960TIP3    H2 2826   0.398   5.572   0.985
  961TIP3   OH2 2827   4.781   4.876   4.203
  961TIP3    H1 2828   4.838   4.953   4.203
  961TIP3    H2 2829   4.722   4.889   4.277
  962TIP3   OH2 2830   7.730   3.795   6.413
  962TIP3    H1 2831   7.783   3.853   6.468
  962TIP3    H2 2832   7.768   3.804   6.325
  963TIP3   OH2 2833   1.382   0.971   5.807
  963TIP3    H1 2834   1.328   0.898   5.777
  963TIP3    H2 2835   1.338   1.004   5.885
  964TIP3   OH2 2836   0.805   6.289   1.296
  964TIP3    H1 2837   0.894   6.280   1.331
  964TIP3    H2 2838   0.749   6.265   1.370
  965TIP3   OH2 2839   7.980   6.819   2.071
  965TIP3    H1 2840   7.955   6.907   2.100
  965TIP3    H2 2841   7.910   6.762   2.104
  966TIP3   OH2 2842   5.116   2.088   1.460
  966TIP3    H1 2843   5.097   2.022   1.527
  966TIP3    H2 2844   5.210   2.106   1.470
  967TIP3   OH2 2845   6.652   5.003   2.681
  967TIP3    H1 2846   6.566   4.970   2.709
  967TIP3    H2 2847   6.644   5.098   2.685
  968TIP3   OH2 2848   4.260   4.518   2.694
  968TIP3    H1 2849   4.231   4.432   2.726
  968TIP3    H2 2850   4.354   4.507   2.679
  969TIP3   OH2 2851   7.642   4.530   5.766
  969TIP3    H1 2852   7.681   4.544   5.852
  969TIP3    H2 2853   7.686   4.452   5.732
  970TIP3   OH2 2854   0.393   4.267   0.891
  970TIP3    H1 2855   0.313   4.306   0.857
  970TIP3    H2 2856   0.455   4.340   0.898
  971TIP3   OH2 2857   4.164   4.182   2.311
  971TIP3    H1 2858   4.240   4.238   2.325
  971TIP3    H2 2859   4.179   4.106   2.367
  972TIP3   OH2 2860   6.061   7.380   0.620
  972TIP3    H1 2861   6.023   7.296   0.649
  972TIP3    H2 2862   5.989   7.423   0.573
  973TIP3   OH2 2863   7.084   0.127   1.675
  973TIP3    H1 2864   7.105   0.219   1.656
  973TIP3    H2 2865   7.018   0.103   1.610
  974TIP3   OH2 2866   0.779   2.498   2.632
  974TIP3    H1 2867   0.774   2.499   2.536
  974TIP3    H2 2868   0.771   2.406   2.655
  975TIP3   OH2 2869   2.463   5.830   1.413
  975TIP3    H1 2870   2.433   5.910   1.457
  975TIP3    H2 2871   2.536   5.799   1.467
  976TIP3   OH2 2872   8.015   0.278   4.588
  976TIP3    H1 2873   7.964   0.339   4.640
  976TIP3    H2 2874   8.079   0.242   4.649
  977TIP3   OH2 2875   1.560   2.565   2.029
  977TIP3    H1 2876   1.523   2.500   2.088
  977TIP3    H2 2877   1.531   2.649   2.065
  978TIP3   OH2 2878   0.295   6.779   4.952
  978TIP3    H1 2879   0.301   6.683   4.950
  978TIP3    H2 2880   0.270   6.803   4.863
  979TIP3   OH2 2881   5.440   6.506   0.351
  979TIP3    H1 2882   5.397   6.447   0.289
  979TIP3    H2 2883   5.501   6.450   0.399
  980TIP3   OH2 2884   3.113   5.111   0.919
  980TIP3    H1 2885   3.202   5.081   0.902
  980TIP3    H2 2886   3.057   5.040   0.887
  981TIP3   OH2 2887   0.359   1.207   4.920
  981TIP3    H1 2888   0.345   1.301   4.910
  981TIP3    H2 2889   0.299   1.167   4.857
  982TIP3   OH2 2890   4.489   3.947   1.223
  982TIP3    H1 2891   4.520   3.936   1.313
  982TIP3    H2 2892   4.397   3.922   1.226
  983TIP3   OH2 2893   0.637   1.298   0.678
  983TIP3    H1 2894   0.549   1.304   0.716
  983TIP3    H2 2895   0.625   1.315   0.585
  984TIP3   OH2 2896   7.815   4.723   6.162
  984TIP3    H1 2897   7.751   4.793   6.149
  984TIP3    H2 2898   7.868   4.753   6.235
  985TIP3   OH2 2899   7.371   4.131   5.262
  985TIP3    H1 2900   7.460   4.114   5.293
  985TIP3    H2 2901   7.359   4.070   5.189
  986TIP3   OH2 2902   6.809   2.188   3.540
  986TIP3    H1 2903   6.819   2.139   3.622
  986TIP3    H2 2904   6.733   2.244   3.554
  987TIP3   OH2 2905   3.022   1.311   0.707
  987TIP3    H1 2906   2.983   1.279   0.626
  987TIP3    H2 2907   3.112   1.335   0.684
  988TIP3   OH2 2908   6.829   4.156   6.679
  988TIP3    H1 2909   6.812   4.249   6.664
  988TIP3    H2 2910   6.750   4.125   6.723
  989TIP3   OH2 2911   7.027   5.733   6.045
  989TIP3    H1 2912   6.947   5.687   6.069
  989TIP3    H2 2913   7.003   5.787   5.971
  990TIP3   OH2 2914   1.175   6.656   6.241
  990TIP3    H1 2915   1.140   6.726   6.297
  990TIP3    H2 2916   1.269   6.671   6.239
  991TIP3   OH2 2917   5.425   5.714   6.675
  991TIP3    H1 2918   5.362   5.706   6.603
  991TIP3    H2 2919   5.509   5.689   6.636
  992TIP3   OH2 2920   3.440   0.816   2.851
  992TIP3    H1 2921   3.502   0.872   2.899
  992TIP3    H2 2922   3.439   0.853   2.763
  993TIP3   OH2 2923   1.211   7.386   4.189
  993TIP3    H1 2924   1.123   7.358   4.162
  993TIP3    H2 2925   1.198   7.429   4.273
  994TIP3   OH2 2926   5.692   2.786   4.274
  994TIP3    H1 2927   5.673   2.785   4.368
  994TIP3    H2 2928   5.720   2.697   4.254
  995TIP3   OH2 2929   0.836   4.571   3.352
  995TIP3    H1 2930   0.757   4.554   3.300
  995TIP3    H2 2931   0.907   4.535   3.299
  996TIP3   OH2 2932   5.011   7.710   1.191
  996TIP3    H1 2933   5.036   7.777   1.128
  996TIP3    H2 2934   4.980   7.760   1.267
  997TIP3   OH2 2935   1.104   0.444   0.522
  997TIP3    H1 2936   1.139   0.484   0.443
  997TIP3    H2 2937   1.068   0.518   0.572
  998TIP3   OH2 2938   3.315   1.676   4.285
  998TIP3    H1 2939   3.268   1.692   4.367
  998TIP3    H2 2940   3.317   1.580   4.278
  999TIP3   OH2 2941   3.698   6.645   3.956
  999TIP3    H1 2942   3.695   6.695   4.038
  999TIP3    H2 2943   3.676   6.555   3.982
 1000TIP3   OH2 2944   7.994   6.511   0.121
 1000TIP3    H1 2945   8.075   6.555   0.144
 1000TIP3    H2 2946   8.010   6.476   0.033
 1001TIP3   OH2 2947   7.676   5.757   4.439
 1001TIP3    H1 2948   7.674   5.826   4.505
 1001TIP3    H2 2949   7.769   5.741   4.423
 1002TIP3   OH2 2950   6.483   3.192   5.704
 1002TIP3    H1 2951   6.530   3.153   5.778
 1002TIP3    H2 2952   6.400   3.223   5.742
 1003TIP3   OH2 2953   2.374   2.588   5.005
 1003TIP3    H1 2954   2.319   2.514   5.028
 1003TIP3    H2 2955   2.439   2.592   5.074
 1004TIP3   OH2 2956   4.404   1.378   5.862
 1004TIP3    H1 2957   4.330   1.374   5.803
 1004TIP3    H2 2958   4.446   1.462   5.842
 1005TIP3   OH2 2959   3.960   3.414   5.951
 1005TIP3    H1 2960   3.932   3.497   5.989
 1005TIP3    H2 2961   3.883   3.358   5.955
 1006TIP3   OH2 2962   3.922   4.937   1.581
 1006TIP3    H1 2963   3.886   5.013   1.535
 1006TIP3    H2 2964   3.896   4.862   1.527
 1007TIP3   OH2 2965   4.511   5.819   6.157
 1007TIP3    H1 2966   4.463   5.837   6.076
 1007TIP3    H2 2967   4.453   5.849   6.226
 1008TIP3   OH2 2968   7.245   5.565   3.997
 1008TIP3    H1 2969   7.224   5.618   4.074
 1008TIP3    H2 2970   7.215   5.618   3.923
 1009TIP3   OH2 2971   6.881   4.358   1.811
 1009TIP3    H1 2972   6.861   4.389   1.723
 1009TIP3    H2 2973   6.904   4.265   1.799
 1010TIP3   OH2 2974   2.396   0.417   2.303
 1010TIP3    H1 2975   2.439   0.331   2.309
 1010TIP3    H2 2976   2.463   0.473   2.263
 1011TIP3   OH2 2977   3.199   4.096   1.942
 1011TIP3    H1 2978   3.109   4.126   1.958
 1011TIP3    H2 2979   3.188   4.013   1.897
 1012TIP3   OH2 2980   1.709   7.740   5.488
 1012TIP3    H1 2981   1.698   7.820   5.436
 1012TIP3    H2 2982   1.690   7.669   5.427
 1013TIP3   OH2 2983   3.145   4.871   2.127
 1013TIP3    H1 2984   3.100   4.931   2.068
 1013TIP3    H2 2985   3.208   4.826   2.071
 1014TIP3   OH2 2986   6.661   7.626   1.257
 1014TIP3    H1 2987   6.726   7.558   1.241
 1014TIP3    H2 2988   6.606   7.590   1.327
 1015TIP3   OH2 2989   3.344   1.880   6.641
 1015TIP3    H1 2990   3.276   1.816   6.621
 1015TIP3    H2 2991   3.424   1.844   6.603
 1016TIP3   OH2 2992   4.014   0.470   4.317
 1016TIP3    H1 2993   4.082   0.531   4.346
 1016TIP3    H2 2994   3.945   0.478   4.383
 1017TIP3   OH2 2995   1.650   1.173   3.469
 1017TIP3    H1 2996   1.673   1.255   3.513
 1017TIP3    H2 2997   1.614   1.118   3.539
 1018TIP3   OH2 2998   5.123   3.706   0.253
 1018TIP3    H1 2999   5.080   3.658   0.323
 1018TIP3    H2 3000   5.052   3.751   0.207
 1019TIP3   OH2 3001   2.315   3.000   6.089
 1019TIP3    H1 3002   2.233   2.993   6.138
 1019TIP3    H2 3003   2.343   3.091   6.101
 1020TIP3   OH2 3004   2.817   5.272   2.661
 1020TIP3    H1 3005   2.778   5.350   2.699
 1020TIP3    H2 3006   2.911   5.283   2.673
 1021TIP3   OH2 3007   1.657   5.296   1.521
 1021TIP3    H1 3008   1.629   5.219   1.570
 1021TIP3    H2 3009   1.752   5.299   1.534
 1022TIP3   OH2 3010   0.423   3.389   4.509
 1022TIP3    H1 3011   0.337   3.357   4.484
 1022TIP3    H2 3012   0.483   3.349   4.446
 1023TIP3   OH2 3013   1.173   5.266   6.546
 1023TIP3    H1 3014   1.181   5.340   6.605
 1023TIP3    H2 3015   1.260   5.226   6.545
 1024TIP3   OH2 3016   3.964   3.184   4.679
 1024TIP3    H1 3017   3.875   3.214   4.666
 1024TIP3    H2 3018   3.959   3.125   4.754
 1025TIP3   OH2 3019   3.648   3.492   0.715
 1025TIP3    H1 3020   3.701   3.420   0.680
 1025TIP3    H2 3021   3.600   3.526   0.640
 1026TIP3   OH2 3022   5.019   5.460   1.703
 1026TIP3    H1 3023   4.991   5.369   1.698
 1026TIP3    H2 3024   5.060   5.477   1.618
 1027TIP3   OH2 3025   5.487   2.544   0.032
 1027TIP3    H1 3026   5.416   2.573   0.089
 1027TIP3    H2 3027   5.566   2.579   0.073
 1028TIP3   OH2 3028   7.679   6.767   6.388
 1028TIP3    H1 3029   7.766   6.728   6.385
 1028TIP3    H2 3030   7.693   6.859   6.364
 1029TIP3   OH2 3031   4.361   6.479   1.834
 1029TIP3    H1 3032   4.323   6.564   1.856
 1029TIP3    H2 3033   4.385   6.487   1.741
 1030TIP3   OH2 3034   6.450   1.630   5.556
 1030TIP3    H1 3035   6.537   1.592   5.569
 1030TIP3    H2 3036   6.421   1.595   5.472
 1031TIP3   OH2 3037   3.958   4.184   0.940
 1031TIP3    H1 3038   4.040   4.213   0.981
 1031TIP3    H2 3039   3.982   4.103   0.895
 1032TIP3   OH2 3040   3.677   2.065   4.411
 1032TIP3    H1 3041   3.632   1.983   4.393
 1032TIP3    H2 3042   3.759   2.058   4.363
 1033TIP3   OH2 3043   5.270   1.457   0.618
 1033TIP3    H1 3044   5.186   1.430   0.582
 1033TIP3    H2 3045   5.330   1.454   0.544
 1034TIP3   OH2 3046   5.696   3.259   3.795
 1034TIP3    H1 3047   5.766   3.324   3.806
 1034TIP3    H2 3048   5.733   3.178   3.829
 1035TIP3   OH2 3049   1.455   2.749   0.734
 1035TIP3    H1 3050   1.467   2.778   0.643
 1035TIP3    H2 3051   1.404   2.818   0.775
 1036TIP3   OH2 3052   5.017   1.804   0.864
 1036TIP3    H1 3053   4.955   1.744   0.907
 1036TIP3    H2 3054   4.989   1.891   0.892
 1037TIP3   OH2 3055   7.536   5.338   2.795
 1037TIP3    H1 3056   7.623   5.306   2.773
 1037TIP3    H2 3057   7.497   5.365   2.712
 1038TIP3   OH2 3058   2.625   3.794   1.885
 1038TIP3    H1 3059   2.720   3.801   1.882
 1038TIP3    H2 3060   2.599   3.850   1.959
 1039TIP3   OH2 3061   3.071   4.658   4.845
 1039TIP3    H1 3062   3.149   4.657   4.789
 1039TIP3    H2 3063   3.044   4.566   4.849
 1040TIP3   OH2 3064   6.889   5.693   2.355
 1040TIP3    H1 3065   6.869   5.600   2.350
 1040TIP3    H2 3066   6.893   5.721   2.263
 1041TIP3   OH2 3067   7.802   4.697   0.835
 1041TIP3    H1 3068   7.766   4.612   0.860
 1041TIP3    H2 3069   7.831   4.736   0.918
 1042TIP3   OH2 3070   1.739   5.443   0.614
 1042TIP3    H1 3071   1.735   5.436   0.710
 1042TIP3    H2 3072   1.807   5.509   0.598
 1043TIP3   OH2 3073   4.770   3.606   4.829
 1043TIP3    H1 3074   4.809   3.605   4.742
 1043TIP3    H2 3075   4.684   3.564   4.817
 1044TIP3   OH2 3076   1.408   1.982   1.245
 1044TIP3    H1 3077   1.451   1.967   1.161
 1044TIP3    H2 3078   1.357   2.062   1.231
 1045TIP3   OH2 3079   3.178   2.967   2.341
 1045TIP3    H1 3080   3.263   2.988   2.302
 1045TIP3    H2 3081   3.125   3.046   2.328
 1046TIP3   OH2 3082   7.205   1.615   3.430
 1046TIP3    H1 3083   7.125   1.592   3.476
 1046TIP3    H2 3084   7.274   1.565   3.474
 1047TIP3   OH2 3085   5.549   3.346   4.751
 1047TIP3    H1 3086   5.596   3.430   4.754
 1047TIP3    H2 3087   5.494   3.352   4.673
 1048TIP3   OH2 3088   4.937   5.771   5.933
 1048TIP3    H1 3089   5.008   5.772   5.869
 1048TIP3    H2 3090   4.857   5.758   5.881
 1049TIP3   OH2 3091   0.958   7.357   2.934
 1049TIP3    H1 3092   0.982   7.287   2.874
 1049TIP3    H2 3093   0.911   7.313   3.005
 1050TIP3   OH2 3094   7.065   2.305   4.461
 1050TIP3    H1 3095   7.007   2.235   4.491
 1050TIP3    H2 3096   7.007   2.379   4.443
 1051TIP3   OH2 3097   0.509   1.504   1.104
 1051TIP3    H1 3098   0.498   1.432   1.042
 1051TIP3    H2 3099   0.603   1.523   1.101
 1052TIP3   OH2 3100   7.341   2.981   4.386
 1052TIP3    H1 3101   7.388   3.024   4.315
 1052TIP3    H2 3102   7.319   2.894   4.351
 1053TIP3   OH2 3103   3.603   1.256   3.049
 1053TIP3    H1 3104   3.523   1.306   3.033
 1053TIP3    H2 3105   3.664   1.287   2.983
 1054TIP3   OH2 3106   4.589   6.566   0.109
 1054TIP3    H1 3107   4.645   6.576   0.186
 1054TIP3    H2 3108   4.650   6.561   0.036
 1055TIP3   OH2 3109   3.631   3.601   6.237
 1055TIP3    H1 3110   3.707   3.657   6.224
 1055TIP3    H2 3111   3.620   3.556   6.153
 1056TIP3   OH2 3112   5.593   5.714   3.454
 1056TIP3    H1 3113   5.663   5.777   3.439
 1056TIP3    H2 3114   5.533   5.758   3.514
 1057TIP3   OH2 3115   5.885   4.039   2.787
 1057TIP3    H1 3116   5.832   3.961   2.803
 1057TIP3    H2 3117   5.844   4.080   2.711
 1058TIP3   OH2 3118   3.938   2.518   4.597
 1058TIP3    H1 3119   3.853   2.487   4.565
 1058TIP3    H2 3120   3.946   2.606   4.560
 1059TIP3   OH2 3121   1.355   4.218   6.199
 1059TIP3    H1 3122   1.305   4.233   6.119
 1059TIP3    H2 3123   1.351   4.123   6.212
 1060TIP3   OH2 3124   5.187   2.231   2.991
 1060TIP3    H1 3125   5.271   2.266   3.020
 1060TIP3    H2 3126   5.207   2.184   2.910
 1061TIP3   OH2 3127   0.156   0.043   1.816
 1061TIP3    H1 3128   0.131  -0.011   1.741
 1061TIP3    H2 3129   0.248   0.023   1.830
 1062TIP3   OH2 3130   5.396   6.021   2.795
 1062TIP3    H1 3131   5.464   6.036   2.729
 1062TIP3    H2 3132   5.320   5.991   2.745
 1063TIP3   OH2 3133   7.806   7.075   6.333
 1063TIP3    H1 3134   7.837   7.150   6.383
 1063TIP3    H2 3135   7.735   7.110   6.278
 1064TIP3   OH2 3136   2.401   2.294   6.459
 1064TIP3    H1 3137   2.489   2.272   6.491
 1064TIP3    H2 3138   2.376   2.371   6.509
 1065TIP3   OH2 3139   5.727   2.724   4.820
 1065TIP3    H1 3140   5.807   2.677   4.843
 1065TIP3    H2 3141   5.657   2.677   4.865
 1066TIP3   OH2 3142   6.276   2.902   0.445
 1066TIP3    H1 3143   6.185   2.880   0.464
 1066TIP3    H2 3144   6.318   2.818   0.427
 1067TIP3   OH2 3145   1.975   5.885   2.958
 1067TIP3    H1 3146   2.030   5.860   3.033
 1067TIP3    H2 3147   2.038   5.904   2.888
 1068TIP3   OH2 3148   7.744   6.158   2.200
 1068TIP3    H1 3149   7.660   6.203   2.192
 1068TIP3    H2 3150   7.745   6.096   2.127
 1069TIP3   OH2 3151   0.496   2.163   5.757
 1069TIP3    H1 3152   0.428   2.231   5.752
 1069TIP3    H2 3153   0.554   2.191   5.827
 1070TIP3   OH2 3154   0.692   6.720   0.996
 1070TIP3    H1 3155   0.698   6.693   1.088
 1070TIP3    H2 3156   0.735   6.649   0.948
 1071TIP3   OH2 3157   5.127   2.837   4.331
 1071TIP3    H1 3158   5.187   2.897   4.377
 1071TIP3    H2 3159   5.072   2.801   4.401
 1072TIP3   OH2 3160   5.747   6.708   5.379
 1072TIP3    H1 3161   5.706   6.641   5.434
 1072TIP3    H2 3162   5.675   6.767   5.356
 1073TIP3   OH2 3163   7.897   0.940   2.607
 1073TIP3    H1 3164   7.952   0.878   2.654
 1073TIP3    H2 3165   7.834   0.971   2.672
 1074TIP3   OH2 3166   8.096   1.647   2.235
 1074TIP3    H1 3167   8.120   1.586   2.165
 1074TIP3    H2 3168   8.060   1.723   2.190
 1075TIP3   OH2 3169   5.847   2.977   1.330
 1075TIP3    H1 3170   5.916   2.911   1.342
 1075TIP3    H2 3171   5.775   2.946   1.385
 1076TIP3   OH2 3172   0.077   5.999   5.040
 1076TIP3    H1 3173   0.078   6.007   5.136
 1076TIP3    H2 3174   0.001   5.944   5.022
 1077TIP3   OH2 3175   0.043   0.302   1.815
 1077TIP3    H1 3176   0.082   0.343   1.892
 1077TIP3    H2 3177   0.075   0.211   1.818
 1078TIP3   OH2 3178   5.878   5.552   1.518
 1078TIP3    H1 3179   5.923   5.469   1.499
 1078TIP3    H2 3180   5.899   5.569   1.610
 1079TIP3   OH2 3181   5.255   7.021   2.592
 1079TIP3    H1 3182   5.293   7.044   2.677
 1079TIP3    H2 3183   5.302   7.075   2.529
 1080TIP3   OH2 3184   1.266   3.688   6.270
 1080TIP3    H1 3185   1.294   3.628   6.339
 1080TIP3    H2 3186   1.324   3.668   6.196
 1081TIP3   OH2 3187   3.092   4.036   0.930
 1081TIP3    H1 3188   3.060   4.025   1.020
 1081TIP3    H2 3189   3.016   4.069   0.882
 1082TIP3   OH2 3190   2.977   1.027   6.054
 1082TIP3    H1 3191   2.975   1.025   5.958
 1082TIP3    H2 3192   2.963   0.936   6.080
 1083TIP3   OH2 3193   8.058   1.933   4.061
 1083TIP3    H1 3194   7.976   1.915   4.106
 1083TIP3    H2 3195   8.037   1.925   3.968
 1084TIP3   OH2 3196   8.084   4.219   5.112
 1084TIP3    H1 3197   8.134   4.222   5.194
 1084TIP3    H2 3198   8.139   4.167   5.053
 1085TIP3   OH2 3199   7.566   3.529   3.572
 1085TIP3    H1 3200   7.661   3.537   3.563
 1085TIP3    H2 3201   7.539   3.607   3.619
 1086TIP3   OH2 3202   6.808   5.364   0.976
 1086TIP3    H1 3203   6.829   5.272   0.989
 1086TIP3    H2 3204   6.719   5.364   0.943
 1087TIP3   OH2 3205   4.465   7.787   2.380
 1087TIP3    H1 3206   4.490   7.847   2.310
 1087TIP3    H2 3207   4.478   7.700   2.341
 1088TIP3   OH2 3208   0.499   2.876   6.385
 1088TIP3    H1 3209   0.571   2.901   6.443
 1088TIP3    H2 3210   0.426   2.931   6.413
 1089TIP3   OH2 3211   6.900   0.161   5.939
 1089TIP3    H1 3212   6.827   0.113   5.979
 1089TIP3    H2 3213   6.929   0.222   6.007
 1090TIP3   OH2 3214   4.220   4.251   2.758
 1090TIP3    H1 3215   4.242   4.226   2.847
 1090TIP3    H2 3216   4.217   4.169   2.709
 1091TIP3   OH2 3217   5.294   6.049   4.031
 1091TIP3    H1 3218   5.332   6.128   3.995
 1091TIP3    H2 3219   5.367   5.988   4.039
 1092TIP3   OH2 3220   2.766   7.672   6.596
 1092TIP3    H1 3221   2.697   7.728   6.560
 1092TIP3    H2 3222   2.785   7.610   6.525
 1093TIP3   OH2 3223   7.744   5.567   3.899
 1093TIP3    H1 3224   7.756   5.495   3.961
 1093TIP3    H2 3225   7.690   5.529   3.829
 1094TIP3   OH2 3226   6.196   1.347   3.125
 1094TIP3    H1 3227   6.254   1.271   3.117
 1094TIP3    H2 3228   6.109   1.313   3.104
 1095TIP3   OH2 3229   7.868   7.660   4.647
 1095TIP3    H1 3230   7.836   7.578   4.610
 1095TIP3    H2 3231   7.833   7.661   4.736
 1096TIP3   OH2 3232   4.298   6.791   0.341
 1096TIP3    H1 3233   4.279   6.841   0.421
 1096TIP3    H2 3234   4.232   6.721   0.341
 1097TIP3   OH2 3235   4.424   4.306   1.694
 1097TIP3    H1 3236   4.457   4.268   1.613
 1097TIP3    H2 3237   4.428   4.235   1.758
 1098TIP3   OH2 3238   6.617   4.932   4.679
 1098TIP3    H1 3239   6.671   4.885   4.616
 1098TIP3    H2 3240   6.583   5.007   4.630
 1099TIP3   OH2 3241   2.265   5.220   4.695
 1099TIP3    H1 3242   2.344   5.256   4.654
 1099TIP3    H2 3243   2.297   5.174   4.772
 1100TIP3   OH2 3244   1.831   2.391   6.447
 1100TIP3    H1 3245   1.781   2.460   6.404
 1100TIP3    H2 3246   1.914   2.388   6.399
 1101TIP3   OH2 3247   6.881   2.001   2.427
 1101TIP3    H1 3248   6.862   1.910   2.451
 1101TIP3    H2 3249   6.954   1.994   2.366
 1102TIP3   OH2 3250   3.507   0.904   6.408
 1102TIP3    H1 3251   3.588   0.954   6.420
 1102TIP3    H2 3252   3.440   0.971   6.398
 1103TIP3   OH2 3253   3.205   1.650   6.033
 1103TIP3    H1 3254   3.210   1.678   6.125
 1103TIP3    H2 3255   3.136   1.583   6.033
 1104TIP3   OH2 3256   5.860   4.619   1.625
 1104TIP3    H1 3257   5.792   4.650   1.685
 1104TIP3    H2 3258   5.928   4.583   1.683
 1105TIP3   OH2 3259   2.525   5.581   1.204
 1105TIP3    H1 3260   2.552   5.587   1.113
 1105TIP3    H2 3261   2.533   5.670   1.237
 1106TIP3   OH2 3262   7.930   5.185   5.675
 1106TIP3    H1 3263   7.930   5.277   5.700
 1106TIP3    H2 3264   7.838   5.159   5.680
 1107TIP3   OH2 3265   7.300   5.214   6.693
 1107TIP3    H1 3266   7.382   5.185   6.733
 1107TIP3    H2 3267   7.280   5.146   6.628
 1108TIP3   OH2 3268   4.427   0.496   3.003
 1108TIP3    H1 3269   4.384   0.493   3.089
 1108TIP3    H2 3270   4.371   0.442   2.947
 1109TIP3   OH2 3271   2.091   3.855   0.134
 1109TIP3    H1 3272   2.097   3.828   0.043
 1109TIP3    H2 3273   2.137   3.787   0.183
 1110TIP3   OH2 3274   2.042   2.293   1.516
 1110TIP3    H1 3275   2.067   2.328   1.602
 1110TIP3    H2 3276   2.059   2.364   1.455
 1111TIP3   OH2 3277   5.017   0.811   5.905
 1111TIP3    H1 3278   4.984   0.725   5.879
 1111TIP3    H2 3279   4.992   0.869   5.833
 1112TIP3   OH2 3280   1.449   0.686   5.030
 1112TIP3    H1 3281   1.508   0.615   5.006
 1112TIP3    H2 3282   1.372   0.643   5.066
 1113TIP3   OH2 3283   7.769   4.966   0.746
 1113TIP3    H1 3284   7.746   4.884   0.790
 1113TIP3    H2 3285   7.864   4.965   0.739
 1114TIP3   OH2 3286   2.019   4.195   2.754
 1114TIP3    H1 3287   2.042   4.116   2.802
 1114TIP3    H2 3288   2.048   4.267   2.810
 1115TIP3   OH2 3289   7.329   1.505   0.263
 1115TIP3    H1 3290   7.414   1.544   0.240
 1115TIP3    H2 3291   7.276   1.580   0.291
 1116TIP3   OH2 3292   3.020   4.833   3.478
 1116TIP3    H1 3293   3.020   4.920   3.517
 1116TIP3    H2 3294   2.952   4.836   3.412
 1117TIP3   OH2 3295   3.954   0.691   6.494
 1117TIP3    H1 3296   3.967   0.786   6.489
 1117TIP3    H2 3297   3.939   0.665   6.403
 1118TIP3   OH2 3298   3.057   6.132   6.066
 1118TIP3    H1 3299   3.138   6.094   6.032
 1118TIP3    H2 3300   3.036   6.202   6.004
 1119TIP3   OH2 3301   1.599   4.354   2.976
 1119TIP3    H1 3302   1.538   4.418   3.013
 1119TIP3    H2 3303   1.661   4.337   3.047
 1120TIP3   OH2 3304   6.917   1.299   6.087
 1120TIP3    H1 3305   6.859   1.289   6.011
 1120TIP3    H2 3306   6.945   1.391   6.083
 1121TIP3   OH2 3307   3.800   4.127   2.054
 1121TIP3    H1 3308   3.844   4.193   2.108
 1121TIP3    H2 3309   3.728   4.096   2.109
 1122TIP3   OH2 3310   0.436   6.169   4.314
 1122TIP3    H1 3311   0.412   6.088   4.359
 1122TIP3    H2 3312   0.385   6.167   4.233
 1123TIP3   OH2 3313   7.136   4.300   3.095
 1123TIP3    H1 3314   7.187   4.290   3.176
 1123TIP3    H2 3315   7.199   4.335   3.032
 1124TIP3   OH2 3316   3.860   3.304   4.382
 1124TIP3    H1 3317   3.834   3.362   4.454
 1124TIP3    H2 3318   3.945   3.268   4.410
 1125TIP3   OH2 3319   5.862   3.877   3.369
 1125TIP3    H1 3320   5.923   3.813   3.406
 1125TIP3    H2 3321   5.897   3.962   3.397
 1126TIP3   OH2 3322   3.019   4.942   3.772
 1126TIP3    H1 3323   3.096   4.941   3.715
 1126TIP3    H2 3324   2.985   5.031   3.766
 1127TIP3   OH2 3325   4.340   4.986   4.225
 1127TIP3    H1 3326   4.313   4.929   4.297
 1127TIP3    H2 3327   4.393   5.054   4.267
 1128TIP3   OH2 3328   5.383   7.010   1.307
 1128TIP3    H1 3329   5.349   6.959   1.381
 1128TIP3    H2 3330   5.359   7.100   1.328
 1129TIP3   OH2 3331   2.544   2.147   0.738
 1129TIP3    H1 3332   2.568   2.132   0.830
 1129TIP3    H2 3333   2.469   2.090   0.724
 1130TIP3   OH2 3334   0.924   1.317   3.056
 1130TIP3    H1 3335   0.843   1.344   3.012
 1130TIP3    H2 3336   0.972   1.269   2.989
 1131TIP3   OH2 3337   7.154   6.464   4.842
 1131TIP3    H1 3338   7.144   6.466   4.747
 1131TIP3    H2 3339   7.245   6.435   4.856
 1132TIP3   OH2 3340   7.848   4.447   6.334
 1132TIP3    H1 3341   7.913   4.426   6.402
 1132TIP3    H2 3342   7.881   4.528   6.294
 1133TIP3   OH2 3343   8.215   1.520   2.000
 1133TIP3    H1 3344   8.163   1.520   1.920
 1133TIP3    H2 3345   8.304   1.539   1.971
 1134TIP3   OH2 3346   7.385   0.226   0.495
 1134TIP3    H1 3347   7.360   0.295   0.434
 1134TIP3    H2 3348   7.427   0.160   0.440
 1135TIP3   OH2 3349   5.847   1.773   0.761
 1135TIP3    H1 3350   5.780   1.767   0.828
 1135TIP3    H2 3351   5.915   1.829   0.799
 1136TIP3   OH2 3352   5.795   1.407   6.636
 1136TIP3    H1 3353   5.726   1.343   6.653
 1136TIP3    H2 3354   5.858   1.394   6.707
 1137TIP3   OH2 3355   3.177   7.644   2.995
 1137TIP3    H1 3356   3.199   7.558   3.032
 1137TIP3    H2 3357   3.188   7.633   2.901
 1138TIP3   OH2 3358   5.873   6.527   0.073
 1138TIP3    H1 3359   5.879   6.459   0.139
 1138TIP3    H2 3360   5.821   6.488   0.003
 1139TIP3   OH2 3361   5.106   0.093   2.463
 1139TIP3    H1 3362   5.068   0.017   2.418
 1139TIP3    H2 3363   5.131   0.060   2.549
 1140TIP3   OH2 3364   3.978   6.294   4.039
 1140TIP3    H1 3365   3.934   6.342   4.109
 1140TIP3    H2 3366   4.032   6.229   4.085
 1141TIP3   OH2 3367   0.665   3.930   5.243
 1141TIP3    H1 3368   0.750   3.961   5.276
 1141TIP3    H2 3369   0.603   3.998   5.270
 1142TIP3   OH2 3370   2.012   5.276   5.219
 1142TIP3    H1 3371   2.033   5.271   5.312
 1142TIP3    H2 3372   2.064   5.349   5.186
 1143TIP3   OH2 3373   0.182   6.519   6.213
 1143TIP3    H1 3374   0.199   6.563   6.296
 1143TIP3    H2 3375   0.164   6.428   6.237
 1144TIP3   OH2 3376   4.617   4.275   4.152
 1144TIP3    H1 3377   4.574   4.209   4.096
 1144TIP3    H2 3378   4.546   4.331   4.182
 1145TIP3   OH2 3379   4.842   3.680   6.053
 1145TIP3    H1 3380   4.863   3.708   5.964
 1145TIP3    H2 3381   4.913   3.619   6.076
 1146TIP3   OH2 3382   1.392   4.876   5.866
 1146TIP3    H1 3383   1.479   4.843   5.890
 1146TIP3    H2 3384   1.339   4.797   5.855
 1147TIP3   OH2 3385   1.114   7.626   0.902
 1147TIP3    H1 3386   1.127   7.552   0.842
 1147TIP3    H2 3387   1.040   7.674   0.863
 1148TIP3   OH2 3388   2.980   5.937   3.948
 1148TIP3    H1 3389   2.950   5.989   4.022
 1148TIP3    H2 3390   2.982   6.000   3.875
 1149TIP3   OH2 3391   1.690   1.919   5.551
 1149TIP3    H1 3392   1.679   1.968   5.632
 1149TIP3    H2 3393   1.644   1.836   5.566
 1150TIP3   OH2 3394   1.409   4.069   5.100
 1150TIP3    H1 3395   1.451   4.141   5.147
 1150TIP3    H2 3396   1.331   4.108   5.061
 1151TIP3   OH2 3397   0.657   5.907   0.188
 1151TIP3    H1 3398   0.678   5.917   0.095
 1151TIP3    H2 3399   0.733   5.862   0.225
 1152TIP3   OH2 3400   4.543   2.389   2.417
 1152TIP3    H1 3401   4.608   2.320   2.435
 1152TIP3    H2 3402   4.596   2.467   2.399
 1153TIP3   OH2 3403   6.069   6.439   3.253
 1153TIP3    H1 3404   6.067   6.348   3.223
 1153TIP3    H2 3405   5.997   6.481   3.206
 1154TIP3   OH2 3406   7.430   2.515   5.652
 1154TIP3    H1 3407   7.523   2.536   5.657
 1154TIP3    H2 3408   7.426   2.422   5.630
 1155TIP3   OH2 3409   8.186   6.738   6.214
 1155TIP3    H1 3410   8.240   6.723   6.292
 1155TIP3    H2 3411   8.184   6.653   6.170
 1156TIP3   OH2 3412   0.647   2.369   1.716
 1156TIP3    H1 3413   0.663   2.287   1.669
 1156TIP3    H2 3414   0.573   2.409   1.669
 1157TIP3   OH2 3415   4.424   4.299   1.217
 1157TIP3    H1 3416   4.505   4.285   1.167
 1157TIP3    H2 3417   4.441   4.380   1.266
 1158TIP3   OH2 3418   3.880   1.388   5.017
 1158TIP3    H1 3419   3.905   1.351   5.102
 1158TIP3    H2 3420   3.856   1.312   4.964
 1159TIP3   OH2 3421   8.013   0.216   3.847
 1159TIP3    H1 3422   7.970   0.212   3.932
 1159TIP3    H2 3423   8.029   0.124   3.825
 1160TIP3   OH2 3424   2.823   6.763   1.858
 1160TIP3    H1 3425   2.897   6.722   1.902
 1160TIP3    H2 3426   2.840   6.751   1.765
 1161TIP3   OH2 3427   7.365   1.574   2.266
 1161TIP3    H1 3428   7.344   1.660   2.303
 1161TIP3    H2 3429   7.404   1.593   2.181
 1162TIP3   OH2 3430   5.461   0.772   0.839
 1162TIP3    H1 3431   5.385   0.804   0.888
 1162TIP3    H2 3432   5.466   0.828   0.762
 1163TIP3   OH2 3433   5.427   6.274   5.758
 1163TIP3    H1 3434   5.375   6.349   5.731
 1163TIP3    H2 3435   5.493   6.264   5.689
 1164TIP3   OH2 3436   4.833   7.525   0.343
 1164TIP3    H1 3437   4.788   7.481   0.271
 1164TIP3    H2 3438   4.922   7.490   0.340
 1165TIP3   OH2 3439   1.786   3.040   4.570
 1165TIP3    H1 3440   1.761   3.086   4.490
 1165TIP3    H2 3441   1.821   3.108   4.627
 1166TIP3   OH2 3442   4.411   2.549   3.095
 1166TIP3    H1 3443   4.458   2.470   3.066
 1166TIP3    H2 3444   4.339   2.515   3.149
 1167TIP3   OH2 3445   0.121   0.947   2.782
 1167TIP3    H1 3446   0.215   0.963   2.787
 1167TIP3    H2 3447   0.090   0.958   2.872
 1168TIP3   OH2 3448   0.043   7.859   2.757
 1168TIP3    H1 3449   0.032   7.800   2.831
 1168TIP3    H2 3450   0.053   7.801   2.681
 1169TIP3   OH2 3451   6.703   5.444   1.900
 1169TIP3    H1 3452   6.702   5.366   1.955
 1169TIP3    H2 3453   6.792   5.478   1.908
 1170TIP3   OH2 3454   4.260   2.083   6.015
 1170TIP3    H1 3455   4.294   2.138   5.944
 1170TIP3    H2 3456   4.203   2.142   6.065
 1171TIP3   OH2 3457   5.725   5.270   3.737
 1171TIP3    H1 3458   5.636   5.245   3.764
 1171TIP3    H2 3459   5.724   5.262   3.642
 1172TIP3   OH2 3460   4.857   0.953   3.362
 1172TIP3    H1 3461   4.848   0.897   3.439
 1172TIP3    H2 3462   4.875   1.040   3.399
 1173TIP3   OH2 3463   7.768   1.564   6.643
 1173TIP3    H1 3464   7.847   1.552   6.696
 1173TIP3    H2 3465   7.713   1.488   6.665
 1174TIP3   OH2 3466   0.310   4.433   2.865
 1174TIP3    H1 3467   0.231   4.429   2.812
 1174TIP3    H2 3468   0.378   4.463   2.804
 1175TIP3   OH2 3469   3.834   7.319   1.399
 1175TIP3    H1 3470   3.825   7.236   1.351
 1175TIP3    H2 3471   3.747   7.358   1.395
 1176TIP3   OH2 3472   7.170   6.134   0.474
 1176TIP3    H1 3473   7.137   6.071   0.410
 1176TIP3    H2 3474   7.245   6.091   0.514
 1177TIP3   OH2 3475   0.028   6.966   5.416
 1177TIP3    H1 3476   0.065   6.899   5.358
 1177TIP3    H2 3477   0.086   7.041   5.406
 1178TIP3   OH2 3478   3.547   3.113   3.948
 1178TIP3    H1 3479   3.500   3.065   4.016
 1178TIP3    H2 3480   3.628   3.141   3.991
 1179TIP3   OH2 3481   0.794   5.268   0.460
 1179TIP3    H1 3482   0.852   5.212   0.409
 1179TIP3    H2 3483   0.843   5.349   0.473
 1180TIP3   OH2 3484   7.726   5.738   1.774
 1180TIP3    H1 3485   7.755   5.817   1.727
 1180TIP3    H2 3486   7.631   5.750   1.782
 1181TIP3   OH2 3487   7.302   5.169   6.253
 1181TIP3    H1 3488   7.283   5.137   6.165
 1181TIP3    H2 3489   7.383   5.218   6.243
 1182TIP3   OH2 3490   5.429   5.096   1.857
 1182TIP3    H1 3491   5.431   5.009   1.818
 1182TIP3    H2 3492   5.407   5.155   1.785
 1183TIP3   OH2 3493   7.133   5.821   0.210
 1183TIP3    H1 3494   7.047   5.781   0.198
 1183TIP3    H2 3495   7.187   5.750   0.246
 1184TIP3   OH2 3496   2.159   6.574   2.792
 1184TIP3    H1 3497   2.069   6.544   2.778
 1184TIP3    H2 3498   2.206   6.546   2.714
 1185TIP3   OH2 3499   4.872   1.586   6.311
 1185TIP3    H1 3500   4.779   1.566   6.300
 1185TIP3    H2 3501   4.873   1.658   6.374
 1186TIP3   OH2 3502   5.322   0.648   5.437
 1186TIP3    H1 3503   5.238   0.626   5.397
 1186TIP3    H2 3504   5.306   0.729   5.485
 1187TIP3   OH2 3505   4.246   4.329   4.329
 1187TIP3    H1 3506   4.268   4.391   4.398
 1187TIP3    H2 3507   4.299   4.251   4.349
 1188TIP3   OH2 3508   3.173   2.689   2.645
 1188TIP3    H1 3509   3.228   2.655   2.575
 1188TIP3    H2 3510   3.192   2.783   2.647
 1189TIP3   OH2 3511   4.131   1.994   5.125
 1189TIP3    H1 3512   4.138   1.922   5.187
 1189TIP3    H2 3513   4.184   2.064   5.163
 1190TIP3   OH2 3514   7.174   5.138   2.293
 1190TIP3    H1 3515   7.262   5.173   2.303
 1190TIP3    H2 3516   7.157   5.090   2.374
 1191TIP3   OH2 3517   6.769   0.577   0.872
 1191TIP3    H1 3518   6.828   0.507   0.843
 1191TIP3    H2 3519   6.724   0.605   0.792
 1192TIP3   OH2 3520   4.329   4.352   5.547
 1192TIP3    H1 3521   4.325   4.361   5.452
 1192TIP3    H2 3522   4.421   4.333   5.565
 1193TIP3   OH2 3523   2.590   4.558   2.848
 1193TIP3    H1 3524   2.515   4.604   2.812
 1193TIP3    H2 3525   2.655   4.560   2.778
 1194TIP3   OH2 3526   1.460   7.003   3.858
 1194TIP3    H1 3527   1.539   7.041   3.820
 1194TIP3    H2 3528   1.486   6.978   3.947
 1195TIP3   OH2 3529   3.055   6.737   2.716
 1195TIP3    H1 3530   3.109   6.695   2.649
 1195TIP3    H2 3531   2.967   6.703   2.700
 1196TIP3   OH2 3532   2.229   0.454   3.177
 1196TIP3    H1 3533   2.241   0.396   3.252
 1196TIP3    H2 3534   2.135   0.456   3.163
 1197TIP3   OH2 3535   1.189   4.274   5.936
 1197TIP3    H1 3536   1.202   4.210   5.866
 1197TIP3    H2 3537   1.230   4.354   5.903
 1198TIP3   OH2 3538   2.044   3.963   1.777
 1198TIP3    H1 3539   2.075   3.873   1.789
 1198TIP3    H2 3540   1.950   3.959   1.792
 1199TIP3   OH2 3541   1.412   3.283   1.846
 1199TIP3    H1 3542   1.480   3.233   1.891
 1199TIP3    H2 3543   1.339   3.222   1.837
 1200TIP3   OH2 3544   0.233   0.195   3.764
 1200TIP3    H1 3545   0.187   0.194   3.681
 1200TIP3    H2 3546   0.290   0.117   3.762
 1201TIP3   OH2 3547   7.963   7.079   0.014
 1201TIP3    H1 3548   8.032   7.100  -0.048
 1201TIP3    H2 3549   7.937   7.164   0.050
 1202TIP3   OH2 3550   4.269   0.790   5.936
 1202TIP3    H1 3551   4.329   0.864   5.935
 1202TIP3    H2 3552   4.182   0.830   5.934
 1203TIP3   OH2 3553   1.720   4.512   1.590
 1203TIP3    H1 3554   1.812   4.496   1.609
 1203TIP3    H2 3555   1.693   4.577   1.654
 1204TIP3   OH2 3556   3.053   5.547   5.113
 1204TIP3    H1 3557   3.049   5.640   5.137
 1204TIP3    H2 3558   3.131   5.540   5.058
 1205TIP3   OH2 3559   1.599   6.398   4.051
 1205TIP3    H1 3560   1.689   6.405   4.021
 1205TIP3    H2 3561   1.606   6.360   4.139
 1206TIP3   OH2 3562   3.393   7.609   3.183
 1206TIP3    H1 3563   3.355   7.525   3.158
 1206TIP3    H2 3564   3.417   7.650   3.099
 1207TIP3   OH2 3565   7.010   1.103   6.478
 1207TIP3    H1 3566   6.968   1.085   6.562
 1207TIP3    H2 3567   6.938   1.109   6.416
 1208TIP3   OH2 3568   6.407   2.678   5.474
 1208TIP3    H1 3569   6.385   2.761   5.517
 1208TIP3    H2 3570   6.493   2.654   5.509
 1209TIP3   OH2 3571   0.655   1.852   0.502
 1209TIP3    H1 3572   0.593   1.881   0.435
 1209TIP3    H2 3573   0.659   1.756   0.492
 1210TIP3   OH2 3574   7.739   3.455   1.019
 1210TIP3    H1 3575   7.745   3.538   1.066
 1210TIP3    H2 3576   7.646   3.433   1.021
 1211TIP3   OH2 3577   3.889   4.233   1.600
 1211TIP3    H1 3578   3.843   4.252   1.519
 1211TIP3    H2 3579   3.854   4.297   1.663
 1212TIP3   OH2 3580   1.292   2.107   0.233
 1212TIP3    H1 3581   1.229   2.139   0.168
 1212TIP3    H2 3582   1.278   2.163   0.309
 1213TIP3   OH2 3583   4.404   0.882   0.902
 1213TIP3    H1 3584   4.366   0.835   0.827
 1213TIP3    H2 3585   4.346   0.862   0.975
 1214TIP3   OH2 3586   5.015   1.187   3.418
 1214TIP3    H1 3587   5.083   1.189   3.486
 1214TIP3    H2 3588   5.048   1.246   3.350
 1215TIP3   OH2 3589   6.619   4.125   1.725
 1215TIP3    H1 3590   6.659   4.094   1.807
 1215TIP3    H2 3591   6.618   4.221   1.734
 1216TIP3   OH2 3592   0.456   7.489   4.145
 1216TIP3    H1 3593   0.439   7.463   4.054
 1216TIP3    H2 3594   0.478   7.582   4.140
 1217TIP3   OH2 3595   7.838   2.119   3.691
 1217TIP3    H1 3596   7.800   2.112   3.604
 1217TIP3    H2 3597   7.906   2.186   3.683
 1218TIP3   OH2 3598   6.787   0.281   6.716
 1218TIP3    H1 3599   6.717   0.220   6.740
 1218TIP3    H2 3600   6.826   0.306   6.800
 1219TIP3   OH2 3601   1.666   5.986   2.823
 1219TIP3    H1 3602   1.614   5.915   2.787
 1219TIP3    H2 3603   1.732   5.943   2.877
 1220TIP3   OH2 3604   7.760   5.122   4.233
 1220TIP3    H1 3605   7.684   5.143   4.287
 1220TIP3    H2 3606   7.733   5.045   4.182
 1221TIP3   OH2 3607   1.462   5.755   1.967
 1221TIP3    H1 3608   1.513   5.732   1.890
 1221TIP3    H2 3609   1.476   5.682   2.028
 1222TIP3   OH2 3610   5.315   2.743   6.569
 1222TIP3    H1 3611   5.369   2.763   6.492
 1222TIP3    H2 3612   5.339   2.654   6.593
 1223TIP3   OH2 3613   3.694   5.123   2.832
 1223TIP3    H1 3614   3.666   5.180   2.761
 1223TIP3    H2 3615   3.659   5.037   2.809
 1224TIP3   OH2 3616   1.648   4.487   5.956
 1224TIP3    H1 3617   1.622   4.447   6.039
 1224TIP3    H2 3618   1.682   4.414   5.904
 1225TIP3   OH2 3619   2.222   2.299   1.979
 1225TIP3    H1 3620   2.132   2.308   1.948
 1225TIP3    H2 3621   2.263   2.239   1.916
 1226TIP3   OH2 3622   1.383   2.179   5.357
 1226TIP3    H1 3623   1.330   2.244   5.311
 1226TIP3    H2 3624   1.399   2.111   5.292
 1227TIP3   OH2 3625   3.858   5.422   2.762
 1227TIP3    H1 3626   3.858   5.350   2.699
 1227TIP3    H2 3627   3.885   5.499   2.711
 1228TIP3   OH2 3628   7.933   0.576   2.424
 1228TIP3    H1 3629   7.928   0.486   2.391
 1228TIP3    H2 3630   8.023   0.604   2.406
 1229TIP3   OH2 3631   2.768   6.836   2.870
 1229TIP3    H1 3632   2.687   6.877   2.902
 1229TIP3    H2 3633   2.811   6.803   2.949
 1230TIP3   OH2 3634   0.826   4.604   0.558
 1230TIP3    H1 3635   0.771   4.574   0.486
 1230TIP3    H2 3636   0.848   4.525   0.607
 1231TIP3   OH2 3637   1.832   7.416   2.015
 1231TIP3    H1 3638   1.889   7.461   1.952
 1231TIP3    H2 3639   1.803   7.485   2.074
 1232TIP3   OH2 3640   3.550   4.228   1.576
 1232TIP3    H1 3641   3.620   4.238   1.512
 1232TIP3    H2 3642   3.589   4.256   1.659
 1233TIP3   OH2 3643   4.303   5.974   2.717
 1233TIP3    H1 3644   4.297   6.057   2.669
 1233TIP3    H2 3645   4.220   5.930   2.697
 1234TIP3   OH2 3646   1.444   1.616   3.041
 1234TIP3    H1 3647   1.500   1.540   3.053
 1234TIP3    H2 3648   1.355   1.582   3.050
 1235TIP3   OH2 3649   3.175   2.904   6.571
 1235TIP3    H1 3650   3.156   2.914   6.664
 1235TIP3    H2 3651   3.247   2.965   6.555
 1236TIP3   OH2 3652   2.791   4.623   1.107
 1236TIP3    H1 3653   2.699   4.644   1.094
 1236TIP3    H2 3654   2.815   4.668   1.188
 1237TIP3   OH2 3655   2.941   1.366   2.935
 1237TIP3    H1 3656   3.018   1.312   2.951
 1237TIP3    H2 3657   2.908   1.337   2.850
 1238TIP3   OH2 3658   3.945   4.831   5.905
 1238TIP3    H1 3659   3.908   4.862   5.987
 1238TIP3    H2 3660   4.015   4.771   5.932
 1239TIP3   OH2 3661   7.026   2.501   3.947
 1239TIP3    H1 3662   6.937   2.472   3.925
 1239TIP3    H2 3663   7.082   2.459   3.882
 1240TIP3   OH2 3664   1.611   5.769   1.734
 1240TIP3    H1 3665   1.616   5.855   1.693
 1240TIP3    H2 3666   1.631   5.708   1.663
 1241TIP3   OH2 3667   6.256   6.298   3.471
 1241TIP3    H1 3668   6.271   6.211   3.435
 1241TIP3    H2 3669   6.262   6.357   3.396
 1242TIP3   OH2 3670   7.024   4.895   5.235
 1242TIP3    H1 3671   7.114   4.898   5.270
 1242TIP3    H2 3672   7.036   4.903   5.140
 1243TIP3   OH2 3673   4.428   7.650   1.898
 1243TIP3    H1 3674   4.363   7.717   1.916
 1243TIP3    H2 3675   4.507   7.682   1.941
 1244TIP3   OH2 3676   4.909   7.115   6.338
 1244TIP3    H1 3677   4.951   7.173   6.401
 1244TIP3    H2 3678   4.982   7.073   6.292
 1245TIP3   OH2 3679   2.905   6.227   5.579
 1245TIP3    H1 3680   2.963   6.293   5.542
 1245TIP3    H2 3681   2.819   6.245   5.540
 1246TIP3   OH2 3682   3.690   2.439   1.444
 1246TIP3    H1 3683   3.656   2.354   1.417
 1246TIP3    H2 3684   3.745   2.421   1.519
 1247TIP3   OH2 3685   7.517   0.997   5.439
 1247TIP3    H1 3686   7.531   1.039   5.524
 1247TIP3    H2 3687   7.432   0.953   5.449
 1248TIP3   OH2 3688   4.539   4.091   0.389
 1248TIP3    H1 3689   4.506   4.070   0.301
 1248TIP3    H2 3690   4.504   4.178   0.407
 1249TIP3   OH2 3691   7.275   6.578   4.178
 1249TIP3    H1 3692   7.183   6.602   4.165
 1249TIP3    H2 3693   7.299   6.623   4.259
 1250TIP3   OH2 3694   4.299   0.985   4.095
 1250TIP3    H1 3695   4.253   0.946   4.170
 1250TIP3    H2 3696   4.229   1.014   4.037
 1251TIP3   OH2 3697   1.880   1.280   1.107
 1251TIP3    H1 3698   1.815   1.211   1.115
 1251TIP3    H2 3699   1.829   1.360   1.094
 1252TIP3   OH2 3700   4.614   6.618   4.937
 1252TIP3    H1 3701   4.523   6.629   4.909
 1252TIP3    H2 3702   4.607   6.594   5.029
 1253TIP3   OH2 3703   5.691   5.914   6.311
 1253TIP3    H1 3704   5.693   5.998   6.265
 1253TIP3    H2 3705   5.745   5.927   6.388
 1254TIP3   OH2 3706   4.117   2.747   4.632
 1254TIP3    H1 3707   4.165   2.700   4.564
 1254TIP3    H2 3708   4.183   2.768   4.698
 1255TIP3   OH2 3709   8.137   6.497   0.929
 1255TIP3    H1 3710   8.213   6.473   0.983
 1255TIP3    H2 3711   8.123   6.420   0.873
 1256TIP3   OH2 3712   7.555   7.422   0.561
 1256TIP3    H1 3713   7.499   7.389   0.491
 1256TIP3    H2 3714   7.494   7.445   0.632
 1257TIP3   OH2 3715   7.507   2.221   5.701
 1257TIP3    H1 3716   7.590   2.219   5.749
 1257TIP3    H2 3717   7.453   2.154   5.743
 1258TIP3   OH2 3718   5.518   6.191   6.015
 1258TIP3    H1 3719   5.514   6.207   5.921
 1258TIP3    H2 3720   5.426   6.185   6.043
 1259TIP3   OH2 3721   2.267   1.085   1.384
 1259TIP3    H1 3722   2.226   1.024   1.445
 1259TIP3    H2 3723   2.352   1.105   1.423
 1260TIP3   OH2 3724   8.266   1.349   6.089
 1260TIP3    H1 3725   8.269   1.277   6.026
 1260TIP3    H2 3726   8.350   1.344   6.135
 1261TIP3   OH2 3727   2.313   2.616   2.706
 1261TIP3    H1 3728   2.310   2.539   2.648
 1261TIP3    H2 3729   2.282   2.688   2.651
 1262TIP3   OH2 3730   6.231   7.653   6.700
 1262TIP3    H1 3731   6.243   7.727   6.641
 1262TIP3    H2 3732   6.187   7.587   6.648
 1263TIP3   OH2 3733   5.333   4.963   3.360
 1263TIP3    H1 3734   5.355   4.906   3.434
 1263TIP3    H2 3735   5.276   4.909   3.304
 1264TIP3   OH2 3736   3.427   4.210   0.315
 1264TIP3    H1 3737   3.384   4.125   0.329
 1264TIP3    H2 3738   3.361   4.262   0.269
 1265TIP3   OH2 3739   8.072   7.552   0.595
 1265TIP3    H1 3740   8.104   7.489   0.530
 1265TIP3    H2 3741   8.031   7.499   0.663
 1266TIP3   OH2 3742   0.762   4.950   4.417
 1266TIP3    H1 3743   0.742   5.032   4.463
 1266TIP3    H2 3744   0.808   4.897   4.482
 1267TIP3   OH2 3745   4.298   2.779   0.758
 1267TIP3    H1 3746   4.333   2.690   0.763
 1267TIP3    H2 3747   4.360   2.832   0.807
 1268TIP3   OH2 3748   4.539   3.848   1.994
 1268TIP3    H1 3749   4.559   3.910   2.064
 1268TIP3    H2 3750   4.523   3.766   2.039
 1269TIP3   OH2 3751   4.094   7.474   3.956
 1269TIP3    H1 3752   4.131   7.509   3.874
 1269TIP3    H2 3753   4.000   7.486   3.946
 1270TIP3   OH2 3754   3.089   4.289   3.714
 1270TIP3    H1 3755   3.100   4.356   3.647
 1270TIP3    H2 3756   2.997   4.261   3.706
 1271TIP3   OH2 3757   4.297   2.446   6.322
 1271TIP3    H1 3758   4.283   2.418   6.231
 1271TIP3    H2 3759   4.346   2.374   6.362
 1272TIP3   OH2 3760   2.778   3.348   0.368
 1272TIP3    H1 3761   2.808   3.394   0.290
 1272TIP3    H2 3762   2.822   3.392   0.441
 1273TIP3   OH2 3763   0.053   6.143   2.340
 1273TIP3    H1 3764  -0.007   6.218   2.347
 1273TIP3    H2 3765   0.121   6.172   2.279
 1274TIP3   OH2 3766   5.331   5.138   6.560
 1274TIP3    H1 3767   5.309   5.052   6.524
 1274TIP3    H2 3768   5.363   5.188   6.484
 1275TIP3   OH2 3769   2.542   4.431   3.081
 1275TIP3    H1 3770   2.554   4.483   3.001
 1275TIP3    H2 3771   2.625   4.384   3.091
 1276TIP3   OH2 3772   5.104   1.094   3.849
 1276TIP3    H1 3773   5.107   1.190   3.854
 1276TIP3    H2 3774   5.169   1.065   3.912
 1277TIP3   OH2 3775   4.520   0.645   2.798
 1277TIP3    H1 3776   4.579   0.576   2.767
 1277TIP3    H2 3777   4.480   0.609   2.876
 1278TIP3   OH2 3778   6.586   4.385   0.998
 1278TIP3    H1 3779   6.548   4.377   1.085
 1278TIP3    H2 3780   6.650   4.313   0.994
 1279TIP3   OH2 3781   7.073   4.680   2.704
 1279TIP3    H1 3782   7.141   4.747   2.709
 1279TIP3    H2 3783   6.998   4.719   2.750
 1280TIP3   OH2 3784   5.261   5.528   6.187
 1280TIP3    H1 3785   5.287   5.447   6.230
 1280TIP3    H2 3786   5.167   5.517   6.171
 1281TIP3   OH2 3787   1.351   0.938   1.717
 1281TIP3    H1 3788   1.440   0.959   1.690
 1281TIP3    H2 3789   1.297   0.962   1.641
 1282TIP3   OH2 3790   0.476   5.525   4.016
 1282TIP3    H1 3791   0.436   5.450   3.972
 1282TIP3    H2 3792   0.436   5.526   4.103
 1283TIP3   OH2 3793   8.060   7.501   1.098
 1283TIP3    H1 3794   8.048   7.494   1.003
 1283TIP3    H2 3795   8.082   7.412   1.126
 1284TIP3   OH2 3796   7.012   7.691   4.047
 1284TIP3    H1 3797   6.991   7.651   4.132
 1284TIP3    H2 3798   7.086   7.749   4.066
 1285TIP3   OH2 3799   5.278   2.902   2.057
 1285TIP3    H1 3800   5.362   2.945   2.045
 1285TIP3    H2 3801   5.213   2.971   2.046
 1286TIP3   OH2 3802   5.561   6.927   5.393
 1286TIP3    H1 3803   5.553   6.997   5.457
 1286TIP3    H2 3804   5.476   6.923   5.350
 1287TIP3   OH2 3805   5.985   4.168   4.859
 1287TIP3    H1 3806   6.040   4.120   4.798
 1287TIP3    H2 3807   6.002   4.127   4.944
 1288TIP3   OH2 3808   1.944   5.052   1.784
 1288TIP3    H1 3809   2.004   5.041   1.711
 1288TIP3    H2 3810   1.951   4.971   1.834
 1289TIP3   OH2 3811   7.706   3.971   0.640
 1289TIP3    H1 3812   7.616   3.939   0.631
 1289TIP3    H2 3813   7.732   3.993   0.551
 1290TIP3   OH2 3814   8.059   4.686   1.472
 1290TIP3    H1 3815   8.092   4.776   1.472
 1290TIP3    H2 3816   8.091   4.649   1.554
 1291TIP3   OH2 3817   6.865   0.284   4.123
 1291TIP3    H1 3818   6.900   0.362   4.166
 1291TIP3    H2 3819   6.941   0.243   4.082
 1292TIP3   OH2 3820   3.767   6.194   0.656
 1292TIP3    H1 3821   3.683   6.190   0.701
 1292TIP3    H2 3822   3.833   6.186   0.725
 1293TIP3   OH2 3823   5.355   2.482   3.427
 1293TIP3    H1 3824   5.315   2.402   3.394
 1293TIP3    H2 3825   5.417   2.507   3.359
 1294TIP3   OH2 3826   0.088   2.786   4.763
 1294TIP3    H1 3827   0.137   2.857   4.721
 1294TIP3    H2 3828   0.056   2.824   4.844
 1295TIP3   OH2 3829   7.948   0.367   4.880
 1295TIP3    H1 3830   8.016   0.345   4.943
 1295TIP3    H2 3831   7.870   0.321   4.911
 1296TIP3   OH2 3832   3.324   6.355   6.364
 1296TIP3    H1 3833   3.282   6.355   6.451
 1296TIP3    H2 3834   3.260   6.396   6.306
 1297TIP3   OH2 3835   8.187   2.746   1.637
 1297TIP3    H1 3836   8.131   2.683   1.590
 1297TIP3    H2 3837   8.270   2.700   1.649
 1298TIP3   OH2 3838   6.608   5.481   1.423
 1298TIP3    H1 3839   6.675   5.480   1.491
 1298TIP3    H2 3840   6.565   5.566   1.434
 1299TIP3   OH2 3841   6.726   2.136   4.877
 1299TIP3    H1 3842   6.802   2.193   4.888
 1299TIP3    H2 3843   6.761   2.047   4.885
 1300TIP3   OH2 3844   3.065   7.529   0.102
 1300TIP3    H1 3845   3.017   7.509   0.022
 1300TIP3    H2 3846   3.087   7.443   0.139
 1301TIP3   OH2 3847   1.034   0.329   1.540
 1301TIP3    H1 3848   1.021   0.355   1.448
 1301TIP3    H2 3849   0.954   0.281   1.562
 1302TIP3   OH2 3850   4.049   5.844   4.306
 1302TIP3    H1 3851   4.045   5.755   4.272
 1302TIP3    H2 3852   4.035   5.834   4.401
 1303TIP3   OH2 3853   0.450   0.915   1.604
 1303TIP3    H1 3854   0.437   1.009   1.618
 1303TIP3    H2 3855   0.406   0.873   1.678
 1304TIP3   OH2 3856   5.289   7.020   3.407
 1304TIP3    H1 3857   5.230   7.095   3.416
 1304TIP3    H2 3858   5.238   6.946   3.440
 1305TIP3   OH2 3859   7.335   3.741   3.181
 1305TIP3    H1 3860   7.326   3.646   3.165
 1305TIP3    H2 3861   7.257   3.765   3.229
 1306TIP3   OH2 3862   5.676   4.251   6.381
 1306TIP3    H1 3863   5.630   4.331   6.407
 1306TIP3    H2 3864   5.618   4.210   6.316
 1307TIP3   OH2 3865   8.081   3.953   4.138
 1307TIP3    H1 3866   8.158   3.992   4.095
 1307TIP3    H2 3867   8.118   3.900   4.209
 1308TIP3   OH2 3868   3.457   3.895   4.162
 1308TIP3    H1 3869   3.485   3.867   4.074
 1308TIP3    H2 3870   3.525   3.957   4.189
 1309TIP3   OH2 3871   3.184   7.513   6.286
 1309TIP3    H1 3872   3.183   7.482   6.195
 1309TIP3    H2 3873   3.273   7.543   6.300
 1310TIP3   OH2 3874   1.471   2.623   0.977
 1310TIP3    H1 3875   1.455   2.659   0.890
 1310TIP3    H2 3876   1.485   2.530   0.963
 1311TIP3   OH2 3877   3.261   0.108   1.031
 1311TIP3    H1 3878   3.195   0.084   0.966
 1311TIP3    H2 3879   3.274   0.029   1.083
 1312TIP3   OH2 3880   8.108   5.429   1.173
 1312TIP3    H1 3881   8.072   5.489   1.239
 1312TIP3    H2 3882   8.126   5.348   1.221
 1313TIP3   OH2 3883   3.332   3.728   0.168
 1313TIP3    H1 3884   3.367   3.721   0.080
 1313TIP3    H2 3885   3.240   3.749   0.156
 1314TIP3   OH2 3886   8.278   7.482   0.808
 1314TIP3    H1 3887   8.224   7.404   0.798
 1314TIP3    H2 3888   8.260   7.534   0.730
 1315TIP3   OH2 3889   1.785   6.750   1.874
 1315TIP3    H1 3890   1.713   6.790   1.923
 1315TIP3    H2 3891   1.856   6.814   1.877
 1316TIP3   OH2 3892   7.263   0.239   5.169
 1316TIP3    H1 3893   7.229   0.179   5.103
 1316TIP3    H2 3894   7.355   0.215   5.178
 1317TIP3   OH2 3895   6.211   4.144   5.368
 1317TIP3    H1 3896   6.199   4.049   5.370
 1317TIP3    H2 3897   6.298   4.158   5.406
 1318TIP3   OH2 3898   2.814   4.791   3.302
 1318TIP3    H1 3899   2.842   4.720   3.244
 1318TIP3    H2 3900   2.727   4.814   3.271
 1319TIP3   OH2 3901   5.078   5.291   4.440
 1319TIP3    H1 3902   5.148   5.319   4.380
 1319TIP3    H2 3903   5.025   5.369   4.454
 1320TIP3   OH2 3904   5.991   0.252   6.574
 1320TIP3    H1 3905   6.044   0.199   6.514
 1320TIP3    H2 3906   5.931   0.299   6.518
 1321TIP3   OH2 3907   7.852   0.384   5.845
 1321TIP3    H1 3908   7.879   0.308   5.897
 1321TIP3    H2 3909   7.767   0.409   5.882
 1322TIP3   OH2 3910   3.457   7.797   2.244
 1322TIP3    H1 3911   3.366   7.775   2.219
 1322TIP3    H2 3912   3.510   7.730   2.200
 1323TIP3   OH2 3913   0.128   4.140   6.306
 1323TIP3    H1 3914   0.138   4.063   6.249
 1323TIP3    H2 3915   0.176   4.209   6.262
 1324TIP3   OH2 3916   6.118   5.286   0.997
 1324TIP3    H1 3917   6.204   5.273   0.958
 1324TIP3    H2 3918   6.100   5.203   1.042
 1325TIP3   OH2 3919   1.908   4.149   4.862
 1325TIP3    H1 3920   1.952   4.088   4.921
 1325TIP3    H2 3921   1.815   4.128   4.871
 1326TIP3   OH2 3922   7.226   3.049   2.256
 1326TIP3    H1 3923   7.260   2.968   2.295
 1326TIP3    H2 3924   7.206   3.025   2.166
 1327TIP3   OH2 3925   6.490   4.328   6.632
 1327TIP3    H1 3926   6.480   4.238   6.664
 1327TIP3    H2 3927   6.412   4.343   6.579
 1328TIP3   OH2 3928   0.933   1.709   3.641
 1328TIP3    H1 3929   1.018   1.695   3.683
 1328TIP3    H2 3930   0.897   1.786   3.685
 1329TIP3   OH2 3931   3.107   7.611   4.146
 1329TIP3    H1 3932   3.042   7.614   4.076
 1329TIP3    H2 3933   3.188   7.641   4.105
 1330TIP3   OH2 3934   0.589   7.592   3.024
 1330TIP3    H1 3935   0.656   7.658   3.009
 1330TIP3    H2 3936   0.565   7.602   3.116
 1331TIP3   OH2 3937   7.398   1.062   3.396
 1331TIP3    H1 3938   7.388   1.124   3.468
 1331TIP3    H2 3939   7.314   1.065   3.349
 1332TIP3   OH2 3940   3.028   3.616   6.244
 1332TIP3    H1 3941   3.069   3.571   6.170
 1332TIP3    H2 3942   3.088   3.601   6.317
 1333TIP3   OH2 3943   5.638   3.601   4.746
 1333TIP3    H1 3944   5.659   3.680   4.795
 1333TIP3    H2 3945   5.601   3.632   4.663
 1334TIP3   OH2 3946   6.357   2.078   5.646
 1334TIP3    H1 3947   6.431   2.124   5.605
 1334TIP3    H2 3948   6.285   2.142   5.643
 1335TIP3   OH2 3949   2.063   4.530   2.589
 1335TIP3    H1 3950   2.004   4.481   2.532
 1335TIP3    H2 3951   2.098   4.465   2.650
 1336TIP3   OH2 3952   4.219   7.095   2.965
 1336TIP3    H1 3953   4.153   7.091   3.035
 1336TIP3    H2 3954   4.172   7.066   2.887
 1337TIP3   OH2 3955   8.112   4.536   5.905
 1337TIP3    H1 3956   8.184   4.576   5.954
 1337TIP3    H2 3957   8.113   4.581   5.820
 1338TIP3   OH2 3958   1.221   5.409   6.254
 1338TIP3    H1 3959   1.231   5.445   6.342
 1338TIP3    H2 3960   1.218   5.486   6.197
 1339TIP3   OH2 3961   5.017   1.365   0.025
 1339TIP3    H1 3962   5.044   1.389   0.113
 1339TIP3    H2 3963   5.098   1.362  -0.026
 1340TIP3   OH2 3964   7.650   2.808   0.677
 1340TIP3    H1 3965   7.649   2.714   0.662
 1340TIP3    H2 3966   7.691   2.819   0.762
 1341TIP3   OH2 3967   5.508   5.220   5.011
 1341TIP3    H1 3968   5.421   5.234   4.975
 1341TIP3    H2 3969   5.548   5.155   4.952
 1342TIP3   OH2 3970   7.059   2.435   6.045
 1342TIP3    H1 3971   7.083   2.360   6.099
 1342TIP3    H2 3972   7.055   2.508   6.106
 1343TIP3   OH2 3973   7.449   5.483   1.663
 1343TIP3    H1 3974   7.396   5.405   1.682
 1343TIP3    H2 3975   7.540   5.451   1.664
 1344TIP3   OH2 3976   3.417   4.105   1.172
 1344TIP3    H1 3977   3.512   4.095   1.176
 1344TIP3    H2 3978   3.389   4.106   1.264
 1345TIP3   OH2 3979   3.659   2.588   5.992
 1345TIP3    H1 3980   3.586   2.580   5.929
 1345TIP3    H2 3981   3.713   2.659   5.956
 1346TIP3   OH2 3982   7.407   3.927   4.305
 1346TIP3    H1 3983   7.384   3.890   4.220
 1346TIP3    H2 3984   7.370   3.865   4.369
 1347TIP3   OH2 3985   6.626   4.806   6.777
 1347TIP3    H1 3986   6.586   4.815   6.691
 1347TIP3    H2 3987   6.614   4.891   6.818
 1348TIP3   OH2 3988   1.059   0.048   1.179
 1348TIP3    H1 3989   1.078  -0.043   1.202
 1348TIP3    H2 3990   1.138   0.079   1.135
 1349TIP3   OH2 3991   5.376   0.733   3.767
 1349TIP3    H1 3992   5.359   0.826   3.783
 1349TIP3    H2 3993   5.402   0.699   3.853
 1350TIP3   OH2 3994   1.363   2.751   6.185
 1350TIP3    H1 3995   1.385   2.729   6.276
 1350TIP3    H2 3996   1.279   2.795   6.191
 1351TIP3   OH2 3997   6.936   2.933   1.381
 1351TIP3    H1 3998   6.986   3.006   1.418
 1351TIP3    H2 3999   6.852   2.970   1.358
 1352TIP3   OH2 4000   0.078   4.127   1.519
 1352TIP3    H1 4001   0.027   4.199   1.555
 1352TIP3    H2 4002   0.071   4.058   1.584
 1353TIP3   OH2 4003   7.207   4.077   0.412
 1353TIP3    H1 4004   7.133   4.063   0.470
 1353TIP3    H2 4005   7.257   4.148   0.452
 1354TIP3   OH2 4006   6.744   7.101   3.113
 1354TIP3    H1 4007   6.701   7.183   3.138
 1354TIP3    H2 4008   6.749   7.106   3.017
 1355TIP3   OH2 4009   7.273   7.703   1.773
 1355TIP3    H1 4010   7.319   7.777   1.814
 1355TIP3    H2 4011   7.194   7.742   1.735
 1356TIP3   OH2 4012   3.081   3.711   3.895
 1356TIP3    H1 4013   3.091   3.693   3.988
 1356TIP3    H2 4014   3.082   3.625   3.853
 1357TIP3   OH2 4015   4.788   0.979   5.928
 1357TIP3    H1 4016   4.734   0.979   6.007
 1357TIP3    H2 4017   4.870   0.937   5.956
 1358TIP3   OH2 4018   0.140   1.561   2.792
 1358TIP3    H1 4019   0.059   1.605   2.819
 1358TIP3    H2 4020   0.111   1.494   2.731
 1359TIP3   OH2 4021   4.599   4.262   5.540
 1359TIP3    H1 4022   4.639   4.187   5.582
 1359TIP3    H2 4023   4.584   4.234   5.450
 1360TIP3   OH2 4024   1.547   4.092   6.505
 1360TIP3    H1 4025   1.501   4.046   6.435
 1360TIP3    H2 4026   1.534   4.038   6.582
 1361TIP3   OH2 4027   6.532   3.231   4.571
 1361TIP3    H1 4028   6.502   3.142   4.551
 1361TIP3    H2 4029   6.497   3.249   4.658
 1362TIP3   OH2 4030   5.398   3.557   5.097
 1362TIP3    H1 4031   5.335   3.503   5.145
 1362TIP3    H2 4032   5.385   3.645   5.132
 1363TIP3   OH2 4033   0.634   6.164   3.076
 1363TIP3    H1 4034   0.604   6.221   3.006
 1363TIP3    H2 4035   0.627   6.076   3.039
 1364TIP3   OH2 4036   1.364   4.095   2.254
 1364TIP3    H1 4037   1.275   4.071   2.230
 1364TIP3    H2 4038   1.358   4.121   2.346
 1365TIP3   OH2 4039   5.198   3.619   3.705
 1365TIP3    H1 4040   5.178   3.693   3.762
 1365TIP3    H2 4041   5.239   3.555   3.764
 1366TIP3   OH2 4042   7.603   5.444   3.714
 1366TIP3    H1 4043   7.583   5.351   3.719
 1366TIP3    H2 4044   7.635   5.457   3.625
 1367TIP3   OH2 4045   0.453   0.369   1.689
 1367TIP3    H1 4046   0.369   0.383   1.644
 1367TIP3    H2 4047   0.513   0.340   1.620
 1368TIP3   OH2 4048   5.008   6.088   2.506
 1368TIP3    H1 4049   4.932   6.107   2.451
 1368TIP3    H2 4050   5.012   6.161   2.567
 1369TIP3   OH2 4051   3.783   3.931   5.927
 1369TIP3    H1 4052   3.811   3.917   5.837
 1369TIP3    H2 4053   3.769   4.025   5.935
 1370TIP3   OH2 4054   1.326   5.455   1.502
 1370TIP3    H1 4055   1.380   5.388   1.462
 1370TIP3    H2 4056   1.237   5.434   1.475
 1371TIP3   OH2 4057   5.140   6.474   6.440
 1371TIP3    H1 4058   5.184   6.461   6.524
 1371TIP3    H2 4059   5.185   6.549   6.401
 1372TIP3   OH2 4060   6.677   3.590   2.244
 1372TIP3    H1 4061   6.770   3.609   2.233
 1372TIP3    H2 4062   6.670   3.558   2.334
 1373TIP3   OH2 4063   6.004   2.690   4.828
 1373TIP3    H1 4064   6.058   2.625   4.872
 1373TIP3    H2 4065   6.010   2.668   4.735
 1374TIP3   OH2 4066   0.006   0.241   0.078
 1374TIP3    H1 4067  -0.006   0.150   0.051
 1374TIP3    H2 4068   0.096   0.262   0.055
 1375TIP3   OH2 4069   1.124   6.037   0.743
 1375TIP3    H1 4070   1.197   6.026   0.805
 1375TIP3    H2 4071   1.167   6.048   0.658
 1376TIP3   OH2 4072   0.667   0.163   3.430
 1376TIP3    H1 4073   0.721   0.129   3.359
 1376TIP3    H2 4074   0.722   0.228   3.472
 1377TIP3   OH2 4075   7.871   3.266   1.172
 1377TIP3    H1 4076   7.959   3.295   1.196
 1377TIP3    H2 4077   7.835   3.339   1.122
 1378TIP3   OH2 4078   0.291   2.781   0.744
 1378TIP3    H1 4079   0.237   2.710   0.781
 1378TIP3    H2 4080   0.361   2.794   0.808
 1379TIP3   OH2 4081   5.074   6.091   3.727
 1379TIP3    H1 4082   5.081   6.002   3.691
 1379TIP3    H2 4083   5.142   6.140   3.682
 1380TIP3   OH2 4084   2.963   4.703   5.168
 1380TIP3    H1 4085   2.968   4.608   5.156
 1380TIP3    H2 4086   2.880   4.727   5.128
 1381TIP3   OH2 4087   5.228   5.317   5.410
 1381TIP3    H1 4088   5.323   5.333   5.408
 1381TIP3    H2 4089   5.203   5.331   5.501
 1382TIP3   OH2 4090   3.189   7.628   4.513
 1382TIP3    H1 4091   3.175   7.534   4.517
 1382TIP3    H2 4092   3.268   7.643   4.565
 1383TIP3   OH2 4093   3.001   7.403   0.810
 1383TIP3    H1 4094   2.993   7.312   0.779
 1383TIP3    H2 4095   2.991   7.456   0.731
 1384TIP3   OH2 4096   4.086   5.103   1.266
 1384TIP3    H1 4097   4.160   5.043   1.257
 1384TIP3    H2 4098   4.107   5.156   1.343
 1385TIP3   OH2 4099   1.543   3.882   6.677
 1385TIP3    H1 4100   1.472   3.820   6.661
 1385TIP3    H2 4101   1.567   3.868   6.768
 1386TIP3   OH2 4102   7.933   3.331   3.538
 1386TIP3    H1 4103   7.901   3.420   3.523
 1386TIP3    H2 4104   7.865   3.290   3.592
 1387TIP3   OH2 4105   5.043   6.968   2.016
 1387TIP3    H1 4106   5.043   6.937   1.926
 1387TIP3    H2 4107   5.122   7.021   2.024
 1388TIP3   OH2 4108   6.996   3.901   0.829
 1388TIP3    H1 4109   7.043   3.881   0.910
 1388TIP3    H2 4110   6.970   3.816   0.795
 1389TIP3   OH2 4111   0.214   4.703   0.452
 1389TIP3    H1 4112   0.128   4.662   0.453
 1389TIP3    H2 4113   0.197   4.795   0.473
 1390TIP3   OH2 4114   0.323   3.566   0.303
 1390TIP3    H1 4115   0.354   3.654   0.283
 1390TIP3    H2 4116   0.324   3.561   0.399
 1391TIP3   OH2 4117   4.280   6.847   1.514
 1391TIP3    H1 4118   4.263   6.796   1.435
 1391TIP3    H2 4119   4.281   6.782   1.585
 1392TIP3   OH2 4120   0.896   4.417   0.753
 1392TIP3    H1 4121   0.949   4.377   0.822
 1392TIP3    H2 4122   0.960   4.452   0.691
 1393TIP3   OH2 4123   3.747   7.598   5.851
 1393TIP3    H1 4124   3.669   7.553   5.884
 1393TIP3    H2 4125   3.712   7.668   5.795
 1394TIP3   OH2 4126   0.703   3.968   4.798
 1394TIP3    H1 4127   0.610   3.991   4.792
 1394TIP3    H2 4128   0.726   3.942   4.708
 1395TIP3   OH2 4129   1.668   3.400   5.057
 1395TIP3    H1 4130   1.580   3.394   5.094
 1395TIP3    H2 4131   1.709   3.316   5.078
 1396TIP3   OH2 4132   1.998   3.170   1.101
 1396TIP3    H1 4133   2.078   3.139   1.058
 1396TIP3    H2 4134   1.977   3.251   1.054
 1397TIP3   OH2 4135   1.610   7.124   5.565
 1397TIP3    H1 4136   1.577   7.211   5.587
 1397TIP3    H2 4137   1.704   7.128   5.583
 1398TIP3   OH2 4138   4.075   6.885   4.516
 1398TIP3    H1 4139   4.053   6.964   4.566
 1398TIP3    H2 4140   4.103   6.821   4.582
 1399TIP3   OH2 4141   6.089   6.177   5.147
 1399TIP3    H1 4142   6.134   6.238   5.204
 1399TIP3    H2 4143   6.003   6.164   5.188
 1400TIP3   OH2 4144   0.887   7.032   0.088
 1400TIP3    H1 4145   0.865   7.115   0.044
 1400TIP3    H2 4146   0.843   6.965   0.035
 1401TIP3   OH2 4147   5.793   0.866   3.144
 1401TIP3    H1 4148   5.840   0.933   3.194
 1401TIP3    H2 4149   5.832   0.871   3.057
 1402TIP3   OH2 4150   7.718   6.522   2.879
 1402TIP3    H1 4151   7.808   6.519   2.848
 1402TIP3    H2 4152   7.696   6.615   2.883
 1403TIP3   OH2 4153   4.355   5.958   6.614
 1403TIP3    H1 4154   4.370   6.031   6.675
 1403TIP3    H2 4155   4.443   5.926   6.594
 1404TIP3   OH2 4156   1.414   7.644   1.413
 1404TIP3    H1 4157   1.361   7.572   1.447
 1404TIP3    H2 4158   1.504   7.611   1.417
 1405TIP3   OH2 4159   6.252   5.414   2.556
 1405TIP3    H1 4160   6.181   5.366   2.515
 1405TIP3    H2 4161   6.266   5.489   2.499
 1406TIP3   OH2 4162   1.416   5.786   2.605
 1406TIP3    H1 4163   1.416   5.874   2.644
 1406TIP3    H2 4164   1.471   5.734   2.663
 1407TIP3   OH2 4165   0.103   1.835   4.687
 1407TIP3    H1 4166   0.057   1.773   4.744
 1407TIP3    H2 4167   0.054   1.834   4.605
 1408TIP3   OH2 4168   0.851   0.199   5.238
 1408TIP3    H1 4169   0.768   0.177   5.280
 1408TIP3    H2 4170   0.847   0.294   5.226
 1409TIP3   OH2 4171   2.674   2.597   2.917
 1409TIP3    H1 4172   2.758   2.551   2.911
 1409TIP3    H2 4173   2.620   2.542   2.974
 1410TIP3   OH2 4174   4.486   4.687   4.454
 1410TIP3    H1 4175   4.401   4.729   4.439
 1410TIP3    H2 4176   4.549   4.759   4.455
 1411TIP3   OH2 4177   6.250   1.519   4.574
 1411TIP3    H1 4178   6.332   1.558   4.605
 1411TIP3    H2 4179   6.249   1.536   4.480
 1412TIP3   OH2 4180   4.589   6.664   3.653
 1412TIP3    H1 4181   4.503   6.643   3.688
 1412TIP3    H2 4182   4.593   6.618   3.570
 1413TIP3   OH2 4183   5.074   7.133   2.313
 1413TIP3    H1 4184   4.993   7.176   2.287
 1413TIP3    H2 4185   5.055   7.040   2.309
 1414TIP3   OH2 4186   4.438   4.948   1.787
 1414TIP3    H1 4187   4.474   4.948   1.875
 1414TIP3    H2 4188   4.364   5.009   1.791
 1415TIP3   OH2 4189   8.229   1.141   6.520
 1415TIP3    H1 4190   8.190   1.201   6.584
 1415TIP3    H2 4191   8.167   1.142   6.446
 1416TIP3   OH2 4192   2.955   1.267   6.724
 1416TIP3    H1 4193   2.979   1.242   6.813
 1416TIP3    H2 4194   2.860   1.277   6.726
 1417TIP3   OH2 4195   5.192   3.467   1.782
 1417TIP3    H1 4196   5.214   3.509   1.698
 1417TIP3    H2 4197   5.248   3.389   1.785
 1418TIP3   OH2 4198   4.631   3.784   3.130
 1418TIP3    H1 4199   4.694   3.855   3.119
 1418TIP3    H2 4200   4.683   3.704   3.127
 1419TIP3   OH2 4201   7.331   6.173   5.839
 1419TIP3    H1 4202   7.320   6.153   5.746
 1419TIP3    H2 4203   7.390   6.105   5.872
 1420TIP3   OH2 4204   5.978   4.176   6.549
 1420TIP3    H1 4205   5.898   4.227   6.541
 1420TIP3    H2 4206   5.994   4.171   6.643
 1421TIP3   OH2 4207   6.313   1.569   3.006
 1421TIP3    H1 4208   6.260   1.530   3.075
 1421TIP3    H2 4209   6.360   1.496   2.968
 1422TIP3   OH2 4210   5.677   7.161   2.192
 1422TIP3    H1 4211   5.677   7.155   2.287
 1422TIP3    H2 4212   5.697   7.253   2.174
 1423TIP3   OH2 4213   2.209   4.626   3.034
 1423TIP3    H1 4214   2.178   4.712   3.008
 1423TIP3    H2 4215   2.242   4.638   3.123
 1424TIP3   OH2 4216   5.432   2.151   5.769
 1424TIP3    H1 4217   5.407   2.243   5.779
 1424TIP3    H2 4218   5.527   2.150   5.783
 1425TIP3   OH2 4219   5.739   3.068   0.711
 1425TIP3    H1 4220   5.819   3.047   0.760
 1425TIP3    H2 4221   5.735   3.164   0.711
 1426TIP3   OH2 4222   4.203   6.569   6.368
 1426TIP3    H1 4223   4.183   6.652   6.410
 1426TIP3    H2 4224   4.237   6.514   6.439
 1427TIP3   OH2 4225   2.809   3.926   3.143
 1427TIP3    H1 4226   2.771   3.839   3.139
 1427TIP3    H2 4227   2.739   3.981   3.178
 1428TIP3   OH2 4228   3.842   7.185   0.377
 1428TIP3    H1 4229   3.769   7.128   0.352
 1428TIP3    H2 4230   3.818   7.219   0.463
 1429TIP3   OH2 4231   2.797   2.727   1.992
 1429TIP3    H1 4232   2.872   2.724   2.051
 1429TIP3    H2 4233   2.734   2.664   2.028
 1430TIP3   OH2 4234   4.383   2.457   2.183
 1430TIP3    H1 4235   4.445   2.454   2.256
 1430TIP3    H2 4236   4.432   2.422   2.109
 1431TIP3   OH2 4237   1.703   4.812   0.474
 1431TIP3    H1 4238   1.698   4.748   0.545
 1431TIP3    H2 4239   1.773   4.779   0.417
 1432TIP3   OH2 4240   5.010   2.464   0.066
 1432TIP3    H1 4241   5.080   2.490   0.007
 1432TIP3    H2 4242   5.049   2.398   0.123
 1433TIP3   OH2 4243   7.132   6.991   5.744
 1433TIP3    H1 4244   7.182   6.928   5.796
 1433TIP3    H2 4245   7.123   7.068   5.800
 1434TIP3   OH2 4246   6.777   7.390   0.588
 1434TIP3    H1 4247   6.743   7.479   0.576
 1434TIP3    H2 4248   6.745   7.363   0.674
 1435TIP3   OH2 4249   6.662   7.612   4.300
 1435TIP3    H1 4250   6.596   7.579   4.362
 1435TIP3    H2 4251   6.612   7.657   4.233
 1436TIP3   OH2 4252   7.785   3.588   4.595
 1436TIP3    H1 4253   7.724   3.616   4.527
 1436TIP3    H2 4254   7.851   3.537   4.549
 1437TIP3   OH2 4255   6.223   3.570   3.848
 1437TIP3    H1 4256   6.189   3.517   3.776
 1437TIP3    H2 4257   6.316   3.578   3.829
 1438TIP3   OH2 4258   5.859   1.884   6.542
 1438TIP3    H1 4259   5.935   1.827   6.555
 1438TIP3    H2 4260   5.790   1.844   6.595
 1439TIP3   OH2 4261   7.167   1.508   2.722
 1439TIP3    H1 4262   7.232   1.532   2.656
 1439TIP3    H2 4263   7.136   1.422   2.694
 1440TIP3   OH2 4264   2.257   3.072   5.428
 1440TIP3    H1 4265   2.199   3.061   5.503
 1440TIP3    H2 4266   2.296   2.986   5.415
 1441TIP3   OH2 4267   4.287   2.301   1.240
 1441TIP3    H1 4268   4.204   2.256   1.255
 1441TIP3    H2 4269   4.326   2.255   1.166
 1442TIP3   OH2 4270   2.726   5.771   6.530
 1442TIP3    H1 4271   2.782   5.747   6.604
 1442TIP3    H2 4272   2.640   5.736   6.552
 1443TIP3   OH2 4273   0.283   2.974   0.260
 1443TIP3    H1 4274   0.277   2.879   0.269
 1443TIP3    H2 4275   0.348   3.001   0.325
 1444TIP3   OH2 4276   6.380   1.616   1.777
 1444TIP3    H1 4277   6.362   1.650   1.690
 1444TIP3    H2 4278   6.434   1.538   1.761
 1445TIP3   OH2 4279   3.844   3.841   2.066
 1445TIP3    H1 4280   3.843   3.931   2.098
 1445TIP3    H2 4281   3.778   3.839   1.997
 1446TIP3   OH2 4282   8.241   1.258   5.419
 1446TIP3    H1 4283   8.246   1.353   5.409
 1446TIP3    H2 4284   8.181   1.230   5.350
 1447TIP3   OH2 4285   2.083   5.179   4.943
 1447TIP3    H1 4286   2.030   5.135   5.009
 1447TIP3    H2 4287   2.163   5.127   4.938
 1448TIP3   OH2 4288   7.751   2.056   3.090
 1448TIP3    H1 4289   7.819   1.990   3.077
 1448TIP3    H2 4290   7.678   2.008   3.129
 1449TIP3   OH2 4291   8.247   7.304   0.452
 1449TIP3    H1 4292   8.224   7.234   0.391
 1449TIP3    H2 4293   8.331   7.338   0.420
 1450TIP3   OH2 4294   4.997   2.195   4.282
 1450TIP3    H1 4295   5.090   2.182   4.297
 1450TIP3    H2 4296   4.954   2.150   4.354
 1451TIP3   OH2 4297   4.698   0.439   2.720
 1451TIP3    H1 4298   4.673   0.381   2.648
 1451TIP3    H2 4299   4.691   0.384   2.798
 1452TIP3   OH2 4300   0.970   4.502   6.755
 1452TIP3    H1 4301   1.016   4.486   6.673
 1452TIP3    H2 4302   0.964   4.597   6.761
 1453TIP3   OH2 4303   3.564   1.189   6.001
 1453TIP3    H1 4304   3.480   1.143   5.989
 1453TIP3    H2 4305   3.570   1.248   5.927
 1454TIP3   OH2 4306   5.023   7.665   4.899
 1454TIP3    H1 4307   5.109   7.634   4.927
 1454TIP3    H2 4308   4.962   7.623   4.959
 1455TIP3   OH2 4309   0.353   2.841   1.585
 1455TIP3    H1 4310   0.269   2.889   1.584
 1455TIP3    H2 4311   0.371   2.823   1.493
 1456TIP3   OH2 4312   3.828   3.021   3.182
 1456TIP3    H1 4313   3.800   3.088   3.245
 1456TIP3    H2 4314   3.909   3.056   3.145
 1457TIP3   OH2 4315   8.236   3.124   3.554
 1457TIP3    H1 4316   8.276   3.197   3.602
 1457TIP3    H2 4317   8.269   3.046   3.597
 1458TIP3   OH2 4318   2.521   7.602   2.867
 1458TIP3    H1 4319   2.520   7.591   2.962
 1458TIP3    H2 4320   2.524   7.513   2.832
 1459TIP3   OH2 4321   0.744   0.448   6.207
 1459TIP3    H1 4322   0.821   0.496   6.238
 1459TIP3    H2 4323   0.714   0.399   6.283
 1460TIP3   OH2 4324   3.333   2.219   2.866
 1460TIP3    H1 4325   3.287   2.226   2.950
 1460TIP3    H2 4326   3.298   2.292   2.814
 1461TIP3   OH2 4327   0.502   2.725   1.890
 1461TIP3    H1 4328   0.440   2.655   1.866
 1461TIP3    H2 4329   0.553   2.687   1.962
 1462TIP3   OH2 4330   1.168   3.278   6.362
 1462TIP3    H1 4331   1.218   3.206   6.400
 1462TIP3    H2 4332   1.233   3.331   6.316
 1463TIP3   OH2 4333   1.365   7.500   4.797
 1463TIP3    H1 4334   1.436   7.552   4.761
 1463TIP3    H2 4335   1.395   7.475   4.885
 1464TIP3   OH2 4336   3.792   4.520   0.623
 1464TIP3    H1 4337   3.861   4.526   0.556
 1464TIP3    H2 4338   3.718   4.479   0.577
 1465TIP3   OH2 4339   4.471   4.421   0.088
 1465TIP3    H1 4340   4.482   4.466   0.172
 1465TIP3    H2 4341   4.462   4.492   0.024
 1466TIP3   OH2 4342   2.874   2.897   0.234
 1466TIP3    H1 4343   2.928   2.957   0.183
 1466TIP3    H2 4344   2.789   2.941   0.241
 1467TIP3   OH2 4345   0.441   0.622   0.185
 1467TIP3    H1 4346   0.428   0.568   0.262
 1467TIP3    H2 4347   0.408   0.708   0.210
 1468TIP3   OH2 4348   0.332   3.586   6.437
 1468TIP3    H1 4349   0.396   3.524   6.470
 1468TIP3    H2 4350   0.375   3.671   6.444
 1469TIP3   OH2 4351   3.167   6.279   4.283
 1469TIP3    H1 4352   3.085   6.230   4.285
 1469TIP3    H2 4353   3.140   6.369   4.264
 1470TIP3   OH2 4354   4.327   5.673   4.481
 1470TIP3    H1 4355   4.306   5.763   4.452
 1470TIP3    H2 4356   4.419   5.677   4.505
 1471TIP3   OH2 4357   7.920   2.196   1.001
 1471TIP3    H1 4358   7.865   2.248   0.942
 1471TIP3    H2 4359   8.002   2.185   0.953
 1472TIP3   OH2 4360   4.810   1.504   2.922
 1472TIP3    H1 4361   4.866   1.581   2.922
 1472TIP3    H2 4362   4.807   1.478   2.830
 1473TIP3   OH2 4363   3.601   2.905   3.261
 1473TIP3    H1 4364   3.604   2.890   3.356
 1473TIP3    H2 4365   3.692   2.916   3.235
 1474TIP3   OH2 4366   2.324   1.271   0.301
 1474TIP3    H1 4367   2.343   1.233   0.215
 1474TIP3    H2 4368   2.229   1.280   0.304
 1475TIP3   OH2 4369   0.083   1.381   3.059
 1475TIP3    H1 4370   0.044   1.304   3.018
 1475TIP3    H2 4371   0.148   1.411   2.995
 1476TIP3   OH2 4372   6.144   2.854   6.328
 1476TIP3    H1 4373   6.136   2.872   6.234
 1476TIP3    H2 4374   6.124   2.938   6.370
 1477TIP3   OH2 4375   1.479   3.357   0.314
 1477TIP3    H1 4376   1.453   3.265   0.311
 1477TIP3    H2 4377   1.396   3.406   0.307
 1478TIP3   OH2 4378   4.593   6.161   0.371
 1478TIP3    H1 4379   4.540   6.203   0.303
 1478TIP3    H2 4380   4.607   6.229   0.437
 1479TIP3   OH2 4381   1.052   1.319   1.873
 1479TIP3    H1 4382   1.087   1.293   1.788
 1479TIP3    H2 4383   1.124   1.365   1.916
 1480TIP3   OH2 4384   6.181   3.437   3.570
 1480TIP3    H1 4385   6.231   3.383   3.509
 1480TIP3    H2 4386   6.094   3.397   3.571
 1481TIP3   OH2 4387   4.614   4.303   6.515
 1481TIP3    H1 4388   4.558   4.235   6.478
 1481TIP3    H2 4389   4.561   4.382   6.512
 1482TIP3   OH2 4390   3.708   7.091   2.276
 1482TIP3    H1 4391   3.742   7.010   2.316
 1482TIP3    H2 4392   3.726   7.080   2.182
 1483TIP3   OH2 4393   4.707   7.103   3.858
 1483TIP3    H1 4394   4.656   7.053   3.923
 1483TIP3    H2 4395   4.701   7.194   3.889
 1484TIP3   OH2 4396   0.183   4.535   4.257
 1484TIP3    H1 4397   0.268   4.556   4.220
 1484TIP3    H2 4398   0.203   4.503   4.345
 1485TIP3   OH2 4399   6.082   5.786   3.019
 1485TIP3    H1 4400   6.158   5.798   2.961
 1485TIP3    H2 4401   6.055   5.696   3.005
 1486TIP3   OH2 4402   1.377   2.740   4.837
 1486TIP3    H1 4403   1.398   2.780   4.922
 1486TIP3    H2 4404   1.452   2.762   4.781
 1487TIP3   OH2 4405   4.072   0.445   0.144
 1487TIP3    H1 4406   4.035   0.531   0.163
 1487TIP3    H2 4407   4.152   0.463   0.095
 1488TIP3   OH2 4408   6.493   2.486   5.123
 1488TIP3    H1 4409   6.403   2.478   5.090
 1488TIP3    H2 4410   6.491   2.441   5.207
 1489TIP3   OH2 4411   6.173   4.840   0.858
 1489TIP3    H1 4412   6.201   4.780   0.927
 1489TIP3    H2 4413   6.251   4.891   0.838
 1490TIP3   OH2 4414   5.921   1.933   5.341
 1490TIP3    H1 4415   5.875   2.011   5.311
 1490TIP3    H2 4416   5.950   1.955   5.430
 1491TIP3   OH2 4417   5.730   1.298   5.470
 1491TIP3    H1 4418   5.774   1.306   5.385
 1491TIP3    H2 4419   5.794   1.333   5.533
 1492TIP3   OH2 4420   0.092   4.660   0.779
 1492TIP3    H1 4421   0.133   4.712   0.848
 1492TIP3    H2 4422   0.026   4.719   0.741
 1493TIP3   OH2 4423   3.458   0.372   3.377
 1493TIP3    H1 4424   3.552   0.385   3.368
 1493TIP3    H2 4425   3.431   0.335   3.293
 1494TIP3   OH2 4426   6.431   0.613   1.246
 1494TIP3    H1 4427   6.492   0.568   1.304
 1494TIP3    H2 4428   6.483   0.639   1.170
 1495TIP3   OH2 4429   0.310   1.956   6.184
 1495TIP3    H1 4430   0.392   1.944   6.136
 1495TIP3    H2 4431   0.317   1.898   6.260
 1496TIP3   OH2 4432   7.455   2.396   3.617
 1496TIP3    H1 4433   7.444   2.445   3.535
 1496TIP3    H2 4434   7.437   2.305   3.593
 1497TIP3   OH2 4435   0.396   1.113   3.277
 1497TIP3    H1 4436   0.436   1.033   3.310
 1497TIP3    H2 4437   0.302   1.095   3.276
 1498TIP3   OH2 4438   5.002   4.540   1.070
 1498TIP3    H1 4439   4.976   4.500   1.153
 1498TIP3    H2 4440   4.974   4.477   1.003
 1499TIP3   OH2 4441   2.459   3.081   3.056
 1499TIP3    H1 4442   2.406   3.139   3.002
 1499TIP3    H2 4443   2.538   3.132   3.075
 1500TIP3   OH2 4444   2.779   3.729   0.276
 1500TIP3    H1 4445   2.809   3.819   0.288
 1500TIP3    H2 4446   2.692   3.727   0.317
 1501TIP3   OH2 4447   7.263   2.850   5.618
 1501TIP3    H1 4448   7.309   2.834   5.535
 1501TIP3    H2 4449   7.194   2.784   5.620
 1502TIP3   OH2 4450   8.026   1.781   4.425
 1502TIP3    H1 4451   8.004   1.735   4.506
 1502TIP3    H2 4452   7.999   1.721   4.356
 1503TIP3   OH2 4453   1.312   3.762   0.530
 1503TIP3    H1 4454   1.258   3.814   0.589
 1503TIP3    H2 4455   1.277   3.779   0.443
 1504TIP3   OH2 4456   1.736   5.554   4.985
 1504TIP3    H1 4457   1.778   5.471   4.960
 1504TIP3    H2 4458   1.769   5.617   4.920
 1505TIP3   OH2 4459   0.394   1.362   5.231
 1505TIP3    H1 4460   0.331   1.367   5.303
 1505TIP3    H2 4461   0.348   1.400   5.156
 1506TIP3   OH2 4462   2.781   4.656   0.050
 1506TIP3    H1 4463   2.698   4.648   0.098
 1506TIP3    H2 4464   2.768   4.603  -0.028
 1507TIP3   OH2 4465   1.063   0.454   6.043
 1507TIP3    H1 4466   1.028   0.365   6.033
 1507TIP3    H2 4467   1.087   0.480   5.954
 1508TIP3   OH2 4468   7.977   5.159   1.198
 1508TIP3    H1 4469   7.901   5.170   1.141
 1508TIP3    H2 4470   8.011   5.073   1.177
 1509TIP3   OH2 4471   0.941   6.088   6.740
 1509TIP3    H1 4472   0.857   6.108   6.780
 1509TIP3    H2 4473   1.001   6.151   6.780
 1510TIP3   OH2 4474   0.364   3.338   2.174
 1510TIP3    H1 4475   0.406   3.330   2.089
 1510TIP3    H2 4476   0.294   3.273   2.172
 1511TIP3   OH2 4477   2.812   0.109   1.878
 1511TIP3    H1 4478   2.776   0.104   1.790
 1511TIP3    H2 4479   2.823   0.018   1.905
 1512TIP3   OH2 4480   3.631   3.591   0.096
 1512TIP3    H1 4481   3.562   3.554   0.151
 1512TIP3    H2 4482   3.584   3.638   0.027
 1513TIP3   OH2 4483   6.648   2.256   1.392
 1513TIP3    H1 4484   6.649   2.229   1.484
 1513TIP3    H2 4485   6.560   2.238   1.362
 1514TIP3   OH2 4486   7.796   7.330   0.635
 1514TIP3    H1 4487   7.706   7.343   0.606
 1514TIP3    H2 4488   7.813   7.237   0.623
 1515TIP3   OH2 4489   0.116   4.502   2.229
 1515TIP3    H1 4490   0.050   4.477   2.294
 1515TIP3    H2 4491   0.154   4.418   2.202
 1516TIP3   OH2 4492   1.077   2.409   5.709
 1516TIP3    H1 4493   1.019   2.374   5.776
 1516TIP3    H2 4494   1.076   2.343   5.640
 1517TIP3   OH2 4495   6.780   0.511   3.884
 1517TIP3    H1 4496   6.839   0.480   3.953
 1517TIP3    H2 4497   6.740   0.431   3.849
 1518TIP3   OH2 4498   1.606   7.615   4.662
 1518TIP3    H1 4499   1.634   7.543   4.605
 1518TIP3    H2 4500   1.661   7.689   4.637
 1519TIP3   OH2 4501   2.488   3.084   1.448
 1519TIP3    H1 4502   2.545   3.088   1.371
 1519TIP3    H2 4503   2.548   3.090   1.522
 1520TIP3   OH2 4504   2.158   3.473   4.069
 1520TIP3    H1 4505   2.196   3.470   4.156
 1520TIP3    H2 4506   2.142   3.381   4.046
 1521TIP3   OH2 4507   0.786   1.697   5.549
 1521TIP3    H1 4508   0.790   1.787   5.517
 1521TIP3    H2 4509   0.783   1.644   5.470
 1522TIP3   OH2 4510   0.313   6.883   0.737
 1522TIP3    H1 4511   0.360   6.800   0.739
 1522TIP3    H2 4512   0.380   6.949   0.756
 1523TIP3   OH2 4513   4.476   6.815   4.498
 1523TIP3    H1 4514   4.524   6.872   4.559
 1523TIP3    H2 4515   4.463   6.733   4.545
 1524TIP3   OH2 4516   5.450   2.860   5.988
 1524TIP3    H1 4517   5.440   2.802   5.912
 1524TIP3    H2 4518   5.509   2.928   5.958
 1525TIP3   OH2 4519   5.514   2.603   3.251
 1525TIP3    H1 4520   5.583   2.601   3.318
 1525TIP3    H2 4521   5.455   2.672   3.281
 1526TIP3   OH2 4522   6.147   5.490   6.533
 1526TIP3    H1 4523   6.172   5.524   6.447
 1526TIP3    H2 4524   6.150   5.566   6.590
 1527TIP3   OH2 4525   1.461   4.952   4.936
 1527TIP3    H1 4526   1.412   4.873   4.915
 1527TIP3    H2 4527   1.520   4.964   4.861
 1528TIP3   OH2 4528   1.334   2.331   5.785
 1528TIP3    H1 4529   1.386   2.393   5.836
 1528TIP3    H2 4530   1.261   2.384   5.753
 1529TIP3   OH2 4531   5.171   0.883   5.499
 1529TIP3    H1 4532   5.127   0.848   5.577
 1529TIP3    H2 4533   5.160   0.978   5.507
 1530TIP3   OH2 4534   1.864   2.993   0.181
 1530TIP3    H1 4535   1.875   2.986   0.276
 1530TIP3    H2 4536   1.852   3.087   0.166
 1531TIP3   OH2 4537   6.000   1.716   2.689
 1531TIP3    H1 4538   5.978   1.623   2.692
 1531TIP3    H2 4539   6.092   1.719   2.716
 1532TIP3   OH2 4540   4.466   0.258   0.451
 1532TIP3    H1 4541   4.464   0.268   0.356
 1532TIP3    H2 4542   4.520   0.331   0.482
 1533TIP3   OH2 4543   4.301   2.721   5.657
 1533TIP3    H1 4544   4.238   2.784   5.623
 1533TIP3    H2 4545   4.250   2.641   5.671
 1534TIP3   OH2 4546   4.489   7.069   5.343
 1534TIP3    H1 4547   4.452   7.067   5.432
 1534TIP3    H2 4548   4.561   7.132   5.348
 1535TIP3   OH2 4549   2.930   1.702   2.180
 1535TIP3    H1 4550   2.889   1.637   2.237
 1535TIP3    H2 4551   2.858   1.738   2.129
 1536TIP3   OH2 4552   2.294   4.784   4.840
 1536TIP3    H1 4553   2.220   4.749   4.790
 1536TIP3    H2 4554   2.371   4.752   4.794
 1537TIP3   OH2 4555   4.171   5.508   2.346
 1537TIP3    H1 4556   4.227   5.563   2.401
 1537TIP3    H2 4557   4.170   5.423   2.390
 1538TIP3   OH2 4558   3.315   6.476   3.983
 1538TIP3    H1 4559   3.263   6.433   3.915
 1538TIP3    H2 4560   3.404   6.441   3.971
 1539TIP3   OH2 4561   3.431   5.664   6.232
 1539TIP3    H1 4562   3.363   5.606   6.198
 1539TIP3    H2 4563   3.453   5.720   6.158
 1540TIP3   OH2 4564   6.681   1.483   5.535
 1540TIP3    H1 4565   6.753   1.460   5.594
 1540TIP3    H2 4566   6.613   1.418   5.553
 1541TIP3   OH2 4567   0.182   3.859   1.957
 1541TIP3    H1 4568   0.090   3.871   1.980
 1541TIP3    H2 4569   0.205   3.773   1.991
 1542TIP3   OH2 4570   6.327   6.800   2.754
 1542TIP3    H1 4571   6.420   6.789   2.775
 1542TIP3    H2 4572   6.294   6.859   2.822
 1543TIP3   OH2 4573   4.394   6.036   1.219
 1543TIP3    H1 4574   4.366   6.062   1.132
 1543TIP3    H2 4575   4.484   6.068   1.226
 1544TIP3   OH2 4576   1.593   6.534   0.139
 1544TIP3    H1 4577   1.550   6.522   0.224
 1544TIP3    H2 4578   1.550   6.470   0.082
 1545TIP3   OH2 4579   1.266   4.978   1.731
 1545TIP3    H1 4580   1.287   4.899   1.782
 1545TIP3    H2 4581   1.250   4.946   1.642
 1546TIP3   OH2 4582   5.206   0.548   0.015
 1546TIP3    H1 4583   5.139   0.541   0.084
 1546TIP3    H2 4584   5.282   0.584   0.060
 1547TIP3   OH2 4585   6.940   5.389   1.229
 1547TIP3    H1 4586   6.891   5.365   1.150
 1547TIP3    H2 4587   6.897   5.468   1.261
 1548TIP3   OH2 4588   0.767   1.226   5.816
 1548TIP3    H1 4589   0.738   1.316   5.825
 1548TIP3    H2 4590   0.861   1.233   5.798
 1549TIP3   OH2 4591   7.617   6.377   1.791
 1549TIP3    H1 4592   7.598   6.471   1.797
 1549TIP3    H2 4593   7.710   6.372   1.770
 1550TIP3   OH2 4594   2.891   7.770   0.121
 1550TIP3    H1 4595   2.984   7.759   0.103
 1550TIP3    H2 4596   2.872   7.859   0.092
 1551TIP3   OH2 4597   1.540   6.279   3.105
 1551TIP3    H1 4598   1.511   6.314   3.189
 1551TIP3    H2 4599   1.616   6.333   3.081
 1552TIP3   OH2 4600  -0.007   3.232   5.222
 1552TIP3    H1 4601   0.085   3.259   5.217
 1552TIP3    H2 4602  -0.049   3.279   5.150
 1553TIP3   OH2 4603   0.388   1.909   1.864
 1553TIP3    H1 4604   0.428   1.878   1.945
 1553TIP3    H2 4605   0.295   1.918   1.885
 1554TIP3   OH2 4606   4.921   2.766   5.283
 1554TIP3    H1 4607   4.830   2.782   5.311
 1554TIP3    H2 4608   4.912   2.714   5.203
 1555TIP3   OH2 4609   1.647   0.340   3.765
 1555TIP3    H1 4610   1.737   0.313   3.747
 1555TIP3    H2 4611   1.636   0.324   3.859
 1556TIP3   OH2 4612   7.318   3.511   1.306
 1556TIP3    H1 4613   7.297   3.439   1.247
 1556TIP3    H2 4614   7.233   3.536   1.344
 1557TIP3   OH2 4615   6.966   4.041   3.897
 1557TIP3    H1 4616   6.984   3.963   3.844
 1557TIP3    H2 4617   6.955   4.111   3.832
 1558TIP3   OH2 4618   5.429   6.875   2.364
 1558TIP3    H1 4619   5.337   6.858   2.346
 1558TIP3    H2 4620   5.464   6.908   2.281
 1559TIP3   OH2 4621   0.360   4.566   3.508
 1559TIP3    H1 4622   0.330   4.500   3.446
 1559TIP3    H2 4623   0.318   4.541   3.591
 1560TIP3   OH2 4624   6.125   7.140   4.181
 1560TIP3    H1 4625   6.173   7.074   4.132
 1560TIP3    H2 4626   6.092   7.200   4.114
 1561TIP3   OH2 4627   0.803   0.591   2.571
 1561TIP3    H1 4628   0.775   0.669   2.619
 1561TIP3    H2 4629   0.738   0.581   2.502
 1562TIP3   OH2 4630   7.682   1.217   3.040
 1562TIP3    H1 4631   7.727   1.274   3.103
 1562TIP3    H2 4632   7.595   1.256   3.031
 1563TIP3   OH2 4633   2.891   5.623   1.321
 1563TIP3    H1 4634   2.964   5.600   1.263
 1563TIP3    H2 4635   2.849   5.540   1.341
 1564TIP3   OH2 4636   3.279   5.085   2.706
 1564TIP3    H1 4637   3.321   5.121   2.628
 1564TIP3    H2 4638   3.185   5.095   2.690
 1565TIP3   OH2 4639   7.925   1.378   6.449
 1565TIP3    H1 4640   7.978   1.344   6.376
 1565TIP3    H2 4641   7.844   1.327   6.446
 1566TIP3   OH2 4642   0.105   0.579   3.943
 1566TIP3    H1 4643   0.096   0.487   3.920
 1566TIP3    H2 4644   0.192   0.585   3.984
 1567TIP3   OH2 4645   4.800   6.016   5.339
 1567TIP3    H1 4646   4.895   6.003   5.341
 1567TIP3    H2 4647   4.770   5.981   5.423
 1568TIP3   OH2 4648   7.986   7.082   2.189
 1568TIP3    H1 4649   7.979   7.175   2.165
 1568TIP3    H2 4650   7.928   7.073   2.265
 1569TIP3   OH2 4651   6.901   1.084   4.331
 1569TIP3    H1 4652   6.927   1.111   4.419
 1569TIP3    H2 4653   6.856   1.161   4.295
 1570TIP3   OH2 4654   6.386   7.082   5.869
 1570TIP3    H1 4655   6.413   7.156   5.814
 1570TIP3    H2 4656   6.307   7.049   5.826
 1571TIP3   OH2 4657   0.529   2.009   1.442
 1571TIP3    H1 4658   0.535   2.030   1.349
 1571TIP3    H2 4659   0.439   1.978   1.454
 1572TIP3   OH2 4660   2.677   1.729   2.778
 1572TIP3    H1 4661   2.725   1.807   2.804
 1572TIP3    H2 4662   2.645   1.692   2.860
 1573TIP3   OH2 4663   4.338   0.271   2.780
 1573TIP3    H1 4664   4.260   0.215   2.769
 1573TIP3    H2 4665   4.344   0.320   2.698
 1574TIP3   OH2 4666   4.032   6.825   2.998
 1574TIP3    H1 4667   3.940   6.844   3.016
 1574TIP3    H2 4668   4.053   6.878   2.922
 1575TIP3   OH2 4669   2.907   4.740   0.875
 1575TIP3    H1 4670   2.970   4.687   0.827
 1575TIP3    H2 4671   2.868   4.679   0.938
 1576TIP3   OH2 4672   8.071   7.618   1.574
 1576TIP3    H1 4673   8.124   7.549   1.534
 1576TIP3    H2 4674   8.040   7.670   1.500
 1577TIP3   OH2 4675   0.098   2.852   5.246
 1577TIP3    H1 4676   0.129   2.859   5.336
 1577TIP3    H2 4677   0.010   2.813   5.254
 1578TIP3   OH2 4678   2.506   1.893   2.612
 1578TIP3    H1 4679   2.596   1.863   2.606
 1578TIP3    H2 4680   2.485   1.887   2.706
 1579TIP3   OH2 4681   6.922   1.034   6.736
 1579TIP3    H1 4682   6.918   0.958   6.795
 1579TIP3    H2 4683   6.944   1.107   6.793
 1580TIP3   OH2 4684   1.131   4.166   2.867
 1580TIP3    H1 4685   1.128   4.106   2.942
 1580TIP3    H2 4686   1.196   4.231   2.891
 1581TIP3   OH2 4687   0.707   7.419   4.262
 1581TIP3    H1 4688   0.689   7.494   4.319
 1581TIP3    H2 4689   0.632   7.415   4.203
 1582TIP3   OH2 4690   1.696   1.910   1.495
 1582TIP3    H1 4691   1.600   1.915   1.497
 1582TIP3    H2 4692   1.723   1.936   1.583
 1583TIP3   OH2 4693   6.060   4.544   4.026
 1583TIP3    H1 4694   6.109   4.465   4.007
 1583TIP3    H2 4695   5.978   4.533   3.978
 1584TIP3   OH2 4696   6.495   2.471   4.738
 1584TIP3    H1 4697   6.404   2.478   4.768
 1584TIP3    H2 4698   6.517   2.379   4.751
 1585TIP3   OH2 4699   4.147   6.543   5.320
 1585TIP3    H1 4700   4.153   6.527   5.414
 1585TIP3    H2 4701   4.053   6.548   5.303
 1586TIP3   OH2 4702   3.124   0.660   0.834
 1586TIP3    H1 4703   3.215   0.689   0.832
 1586TIP3    H2 4704   3.123   0.587   0.896
 1587TIP3   OH2 4705   7.950   6.694   0.382
 1587TIP3    H1 4706   7.908   6.709   0.298
 1587TIP3    H2 4707   7.996   6.610   0.371
 1588TIP3   OH2 4708  -0.010   1.671   0.590
 1588TIP3    H1 4709   0.041   1.590   0.597
 1588TIP3    H2 4710   0.045   1.737   0.632
 1589TIP3   OH2 4711   6.692   1.499   4.500
 1589TIP3    H1 4712   6.625   1.549   4.547
 1589TIP3    H2 4713   6.768   1.500   4.558
 1590TIP3   OH2 4714   6.449   4.634   2.804
 1590TIP3    H1 4715   6.426   4.551   2.762
 1590TIP3    H2 4716   6.535   4.619   2.843
 1591TIP3   OH2 4717   2.878   7.441   3.374
 1591TIP3    H1 4718   2.967   7.406   3.371
 1591TIP3    H2 4719   2.888   7.529   3.412
 1592TIP3   OH2 4720   2.618   3.030   0.279
 1592TIP3    H1 4721   2.589   3.108   0.326
 1592TIP3    H2 4722   2.601   2.958   0.340
 1593TIP3   OH2 4723   7.444   6.244   5.369
 1593TIP3    H1 4724   7.416   6.212   5.455
 1593TIP3    H2 4725   7.538   6.225   5.366
 1594TIP3   OH2 4726   5.908   1.120   3.901
 1594TIP3    H1 4727   5.833   1.067   3.928
 1594TIP3    H2 4728   5.870   1.201   3.867
 1595TIP3   OH2 4729   7.398   3.453   1.677
 1595TIP3    H1 4730   7.415   3.545   1.655
 1595TIP3    H2 4731   7.303   3.445   1.675
 1596TIP3   OH2 4732   3.192   2.095   6.578
 1596TIP3    H1 4733   3.243   2.016   6.601
 1596TIP3    H2 4734   3.151   2.073   6.495
 1597TIP3   OH2 4735   3.678   5.413   3.254
 1597TIP3    H1 4736   3.596   5.374   3.282
 1597TIP3    H2 4737   3.743   5.343   3.263
 1598TIP3   OH2 4738   5.881   6.929   2.333
 1598TIP3    H1 4739   5.930   6.848   2.322
 1598TIP3    H2 4740   5.801   6.915   2.282
 1599TIP3   OH2 4741   1.174   5.268   4.255
 1599TIP3    H1 4742   1.237   5.317   4.308
 1599TIP3    H2 4743   1.118   5.225   4.320
 1600TIP3   OH2 4744   7.167   1.004   0.905
 1600TIP3    H1 4745   7.177   1.086   0.857
 1600TIP3    H2 4746   7.109   0.951   0.850
 1601TIP3   OH2 4747   2.996   5.566   6.777
 1601TIP3    H1 4748   2.992   5.660   6.765
 1601TIP3    H2 4749   2.945   5.530   6.704
 1602TIP3   OH2 4750   7.057   1.530   3.929
 1602TIP3    H1 4751   7.104   1.591   3.986
 1602TIP3    H2 4752   7.001   1.481   3.988
 1603TIP3   OH2 4753   0.816   1.880   4.234
 1603TIP3    H1 4754   0.858   1.830   4.304
 1603TIP3    H2 4755   0.723   1.881   4.257
 1604TIP3   OH2 4756   7.351   5.156   1.538
 1604TIP3    H1 4757   7.334   5.235   1.486
 1604TIP3    H2 4758   7.357   5.187   1.628
 1605TIP3   OH2 4759   3.488   1.438   1.805
 1605TIP3    H1 4760   3.449   1.361   1.849
 1605TIP3    H2 4761   3.432   1.453   1.729
 1606TIP3   OH2 4762   8.012   0.409   6.701
 1606TIP3    H1 4763   7.939   0.412   6.639
 1606TIP3    H2 4764   7.989   0.339   6.762
 1607TIP3   OH2 4765   7.791   7.754   3.172
 1607TIP3    H1 4766   7.699   7.734   3.190
 1607TIP3    H2 4767   7.833   7.752   3.258
 1608TIP3   OH2 4768   4.720   2.557   2.824
 1608TIP3    H1 4769   4.634   2.523   2.802
 1608TIP3    H2 4770   4.704   2.623   2.892
 1609TIP3   OH2 4771   3.394   1.531   5.461
 1609TIP3    H1 4772   3.434   1.445   5.450
 1609TIP3    H2 4773   3.467   1.592   5.452
 1610TIP3   OH2 4774   0.236   1.671   2.182
 1610TIP3    H1 4775   0.169   1.730   2.147
 1610TIP3    H2 4776   0.227   1.591   2.131
 1611TIP3   OH2 4777   2.060   5.028   1.518
 1611TIP3    H1 4778   2.085   5.028   1.426
 1611TIP3    H2 4779   2.110   4.955   1.556
 1612TIP3   OH2 4780   6.679   0.639   2.638
 1612TIP3    H1 4781   6.612   0.704   2.621
 1612TIP3    H2 4782   6.712   0.660   2.726
 1613TIP3   OH2 4783   6.417   7.156   2.198
 1613TIP3    H1 4784   6.372   7.224   2.247
 1613TIP3    H2 4785   6.428   7.192   2.110
 1614TIP3   OH2 4786   3.218   5.946   2.216
 1614TIP3    H1 4787   3.140   5.903   2.251
 1614TIP3    H2 4788   3.188   6.033   2.191
 1615TIP3   OH2 4789   6.583   0.099   6.707
 1615TIP3    H1 4790   6.554   0.033   6.770
 1615TIP3    H2 4791   6.578   0.056   6.622
 1616TIP3   OH2 4792   4.548   5.600   5.155
 1616TIP3    H1 4793   4.606   5.524   5.162
 1616TIP3    H2 4794   4.605   5.671   5.125
 1617TIP3   OH2 4795   8.082   6.154   2.134
 1617TIP3    H1 4796   8.113   6.209   2.205
 1617TIP3    H2 4797   8.144   6.081   2.130
 1618TIP3   OH2 4798   4.480   0.273   3.888
 1618TIP3    H1 4799   4.559   0.222   3.872
 1618TIP3    H2 4800   4.468   0.270   3.983
 1619TIP3   OH2 4801   5.756   4.395   1.962
 1619TIP3    H1 4802   5.744   4.382   2.056
 1619TIP3    H2 4803   5.700   4.328   1.922
 1620TIP3   OH2 4804   3.543   1.904   0.845
 1620TIP3    H1 4805   3.572   1.817   0.817
 1620TIP3    H2 4806   3.556   1.904   0.940
 1621TIP3   OH2 4807   6.850   4.525   2.549
 1621TIP3    H1 4808   6.804   4.587   2.605
 1621TIP3    H2 4809   6.941   4.556   2.548
 1622TIP3   OH2 4810   1.791   5.157   0.921
 1622TIP3    H1 4811   1.795   5.119   0.833
 1622TIP3    H2 4812   1.866   5.119   0.967
 1623TIP3   OH2 4813   6.698   6.681   1.348
 1623TIP3    H1 4814   6.679   6.593   1.315
 1623TIP3    H2 4815   6.773   6.710   1.295
 1624TIP3   OH2 4816   7.280   2.363   3.286
 1624TIP3    H1 4817   7.274   2.455   3.261
 1624TIP3    H2 4818   7.208   2.351   3.348
 1625TIP3   OH2 4819   0.260   4.267   3.921
 1625TIP3    H1 4820   0.255   4.246   3.828
 1625TIP3    H2 4821   0.224   4.355   3.928
 1626TIP3   OH2 4822   5.012   3.026   6.331
 1626TIP3    H1 4823   5.065   2.999   6.406
 1626TIP3    H2 4824   4.977   3.111   6.355
 1627TIP3   OH2 4825   7.239   2.951   1.712
 1627TIP3    H1 4826   7.195   2.947   1.797
 1627TIP3    H2 4827   7.331   2.934   1.731
 1628TIP3   OH2 4828   5.470   0.926   3.541
 1628TIP3    H1 4829   5.453   0.834   3.557
 1628TIP3    H2 4830   5.419   0.947   3.462
 1629TIP3   OH2 4831   3.189   2.589   1.221
 1629TIP3    H1 4832   3.239   2.615   1.299
 1629TIP3    H2 4833   3.111   2.546   1.257
 1630TIP3   OH2 4834   4.543   1.657   4.761
 1630TIP3    H1 4835   4.465   1.659   4.706
 1630TIP3    H2 4836   4.576   1.747   4.759
 1631TIP3   OH2 4837   2.049   6.865   2.599
 1631TIP3    H1 4838   2.056   6.789   2.656
 1631TIP3    H2 4839   1.958   6.895   2.610
 1632TIP3   OH2 4840   4.500   1.597   0.188
 1632TIP3    H1 4841   4.575   1.646   0.155
 1632TIP3    H2 4842   4.528   1.506   0.187
 1633TIP3   OH2 4843   0.696   4.329   1.718
 1633TIP3    H1 4844   0.615   4.312   1.767
 1633TIP3    H2 4845   0.748   4.249   1.729
 1634TIP3   OH2 4846   1.921   2.455   1.009
 1634TIP3    H1 4847   1.858   2.412   0.952
 1634TIP3    H2 4848   1.870   2.486   1.084
 1635TIP3   OH2 4849   8.069   6.811   5.960
 1635TIP3    H1 4850   8.087   6.796   6.053
 1635TIP3    H2 4851   7.997   6.874   5.960
 1636TIP3   OH2 4852   8.284   0.163   2.424
 1636TIP3    H1 4853   8.252   0.190   2.338
 1636TIP3    H2 4854   8.281   0.067   2.422
 1637TIP3   OH2 4855   1.709   7.317   0.259
 1637TIP3    H1 4856   1.688   7.370   0.182
 1637TIP3    H2 4857   1.624   7.284   0.289
 1638TIP3   OH2 4858   5.789   4.745   2.206
 1638TIP3    H1 4859   5.797   4.820   2.265
 1638TIP3    H2 4860   5.715   4.695   2.240
 1639TIP3   OH2 4861   1.328   5.103   3.520
 1639TIP3    H1 4862   1.345   5.180   3.573
 1639TIP3    H2 4863   1.233   5.102   3.509
 1640TIP3   OH2 4864   4.255   7.605   4.455
 1640TIP3    H1 4865   4.230   7.666   4.525
 1640TIP3    H2 4866   4.296   7.531   4.501
 1641TIP3   OH2 4867   5.418   1.468   0.350
 1641TIP3    H1 4868   5.489   1.453   0.286
 1641TIP3    H2 4869   5.459   1.519   0.420
 1642TIP3   OH2 4870   6.116   2.284   1.402
 1642TIP3    H1 4871   6.033   2.243   1.378
 1642TIP3    H2 4872   6.129   2.260   1.494
 1643TIP3   OH2 4873   1.879   0.540   6.205
 1643TIP3    H1 4874   1.843   0.568   6.120
 1643TIP3    H2 4875   1.826   0.585   6.270
 1644TIP3   OH2 4876   4.123   6.383   5.565
 1644TIP3    H1 4877   4.156   6.296   5.587
 1644TIP3    H2 4878   4.140   6.436   5.642
 1645TIP3   OH2 4879   2.749   6.245   0.786
 1645TIP3    H1 4880   2.724   6.154   0.797
 1645TIP3    H2 4881   2.824   6.243   0.728
 1646TIP3   OH2 4882   0.601   1.960   4.425
 1646TIP3    H1 4883   0.537   1.921   4.485
 1646TIP3    H2 4884   0.626   2.042   4.467
 1647TIP3   OH2 4885   3.327   0.783   4.753
 1647TIP3    H1 4886   3.393   0.830   4.804
 1647TIP3    H2 4887   3.340   0.815   4.663
 1648TIP3   OH2 4888   5.063   4.702   5.091
 1648TIP3    H1 4889   5.107   4.702   5.006
 1648TIP3    H2 4890   5.007   4.780   5.088
 1649TIP3   OH2 4891   7.064   4.206   5.553
 1649TIP3    H1 4892   7.070   4.274   5.486
 1649TIP3    H2 4893   7.137   4.147   5.533
 1650TIP3   OH2 4894   0.473   6.292   6.135
 1650TIP3    H1 4895   0.483   6.214   6.080
 1650TIP3    H2 4896   0.383   6.289   6.165
 1651TIP3   OH2 4897   4.838   2.357   2.686
 1651TIP3    H1 4898   4.804   2.437   2.727
 1651TIP3    H2 4899   4.895   2.318   2.752
 1652TIP3   OH2 4900   2.163   7.052   5.271
 1652TIP3    H1 4901   2.199   7.105   5.200
 1652TIP3    H2 4902   2.107   6.989   5.227
 1653TIP3   OH2 4903   7.314   1.153   0.676
 1653TIP3    H1 4904   7.273   1.117   0.597
 1653TIP3    H2 4905   7.291   1.246   0.674
 1654TIP3   OH2 4906   2.731   6.921   5.097
 1654TIP3    H1 4907   2.759   6.833   5.124
 1654TIP3    H2 4908   2.778   6.980   5.156
 1655TIP3   OH2 4909   5.043   0.838   4.175
 1655TIP3    H1 4910   5.049   0.915   4.231
 1655TIP3    H2 4911   5.013   0.768   4.233
 1656TIP3   OH2 4912   0.191   1.264   0.993
 1656TIP3    H1 4913   0.123   1.261   1.060
 1656TIP3    H2 4914   0.197   1.174   0.961
 1657TIP3   OH2 4915   3.242   5.925   0.270
 1657TIP3    H1 4916   3.159   5.969   0.292
 1657TIP3    H2 4917   3.250   5.856   0.336
 1658TIP3   OH2 4918   5.966   7.051   2.684
 1658TIP3    H1 4919   5.970   7.101   2.603
 1658TIP3    H2 4920   5.968   6.960   2.656
 1659TIP3   OH2 4921   0.549   1.611   5.179
 1659TIP3    H1 4922   0.491   1.681   5.149
 1659TIP3    H2 4923   0.505   1.530   5.152
 1660TIP3   OH2 4924   7.281   5.512   6.263
 1660TIP3    H1 4925   7.352   5.453   6.287
 1660TIP3    H2 4926   7.201   5.466   6.289
 1661TIP3   OH2 4927   8.118   0.671   3.278
 1661TIP3    H1 4928   8.204   0.645   3.311
 1661TIP3    H2 4929   8.119   0.646   3.186
 1662TIP3   OH2 4930   0.179   3.562   5.836
 1662TIP3    H1 4931   0.178   3.655   5.812
 1662TIP3    H2 4932   0.109   3.523   5.783
 1663TIP3   OH2 4933   5.136   6.390   2.046
 1663TIP3    H1 4934   5.125   6.399   2.140
 1663TIP3    H2 4935   5.211   6.446   2.025
 1664TIP3   OH2 4936   0.398   5.540   6.219
 1664TIP3    H1 4937   0.427   5.478   6.151
 1664TIP3    H2 4938   0.479   5.573   6.256
 1665TIP3   OH2 4939   2.114   7.528   4.511
 1665TIP3    H1 4940   2.124   7.549   4.418
 1665TIP3    H2 4941   2.033   7.477   4.515
 1666TIP3   OH2 4942   6.738   1.719   6.096
 1666TIP3    H1 4943   6.689   1.801   6.082
 1666TIP3    H2 4944   6.670   1.654   6.115
 1667TIP3   OH2 4945   0.602   6.624   0.283
 1667TIP3    H1 4946   0.539   6.639   0.354
 1667TIP3    H2 4947   0.686   6.647   0.322
 1668TIP3   OH2 4948   5.672   7.091   4.976
 1668TIP3    H1 4949   5.618   7.079   4.898
 1668TIP3    H2 4950   5.685   7.003   5.011
 1669TIP3   OH2 4951   0.251   5.292   5.114
 1669TIP3    H1 4952   0.276   5.384   5.127
 1669TIP3    H2 4953   0.188   5.274   5.184
 1670TIP3   OH2 4954   4.317   4.443   4.575
 1670TIP3    H1 4955   4.239   4.500   4.577
 1670TIP3    H2 4956   4.384   4.496   4.532
 1671TIP3   OH2 4957   0.073   2.829   2.521
 1671TIP3    H1 4958   0.063   2.915   2.479
 1671TIP3    H2 4959   0.071   2.847   2.615
 1672TIP3   OH2 4960   2.602   5.567   2.480
 1672TIP3    H1 4961   2.586   5.661   2.467
 1672TIP3    H2 4962   2.647   5.539   2.401
 1673TIP3   OH2 4963   0.772   2.937   3.928
 1673TIP3    H1 4964   0.788   3.020   3.973
 1673TIP3    H2 4965   0.716   2.960   3.854
 1674TIP3   OH2 4966   7.608   4.453   3.123
 1674TIP3    H1 4967   7.648   4.374   3.161
 1674TIP3    H2 4968   7.524   4.423   3.089
 1675TIP3   OH2 4969   1.202   6.402   4.042
 1675TIP3    H1 4970   1.166   6.313   4.038
 1675TIP3    H2 4971   1.272   6.397   4.107
 1676TIP3   OH2 4972   1.588   5.942   4.715
 1676TIP3    H1 4973   1.581   6.001   4.790
 1676TIP3    H2 4974   1.498   5.929   4.686
 1677TIP3   OH2 4975   3.974   3.591   3.449
 1677TIP3    H1 4976   4.043   3.599   3.515
 1677TIP3    H2 4977   4.019   3.559   3.371
 1678TIP3   OH2 4978   7.927   1.206   3.283
 1678TIP3    H1 4979   8.001   1.257   3.250
 1678TIP3    H2 4980   7.912   1.240   3.371
 1679TIP3   OH2 4981   5.092   1.867   0.505
 1679TIP3    H1 4982   5.134   1.853   0.419
 1679TIP3    H2 4983   5.164   1.862   0.567
 1680TIP3   OH2 4984   6.903   6.661   2.425
 1680TIP3    H1 4985   6.904   6.566   2.433
 1680TIP3    H2 4986   6.975   6.692   2.480
 1681TIP3   OH2 4987   5.759   5.352   4.445
 1681TIP3    H1 4988   5.740   5.294   4.518
 1681TIP3    H2 4989   5.674   5.375   4.409
 1682TIP3   OH2 4990   3.526   6.101   0.770
 1682TIP3    H1 4991   3.483   6.080   0.853
 1682TIP3    H2 4992   3.467   6.067   0.703
 1683TIP3   OH2 4993   7.448   4.445   4.665
 1683TIP3    H1 4994   7.527   4.434   4.613
 1683TIP3    H2 4995   7.426   4.357   4.696
 1684TIP3   OH2 4996   4.764   3.019   2.796
 1684TIP3    H1 4997   4.726   3.004   2.710
 1684TIP3    H2 4998   4.728   3.103   2.825
 1685TIP3   OH2 4999   1.741   5.758   6.713
 1685TIP3    H1 5000   1.761   5.821   6.645
 1685TIP3    H2 5001   1.729   5.811   6.792
 1686TIP3   OH2 5002   7.035   6.452   4.567
 1686TIP3    H1 5003   7.003   6.538   4.540
 1686TIP3    H2 5004   6.957   6.397   4.570
 1687TIP3   OH2 5005   4.225   6.855   5.902
 1687TIP3    H1 5006   4.315   6.868   5.873
 1687TIP3    H2 5007   4.174   6.920   5.854
 1688TIP3   OH2 5008   4.549   3.317   1.625
 1688TIP3    H1 5009   4.460   3.329   1.590
 1688TIP3    H2 5010   4.588   3.404   1.619
 1689TIP3   OH2 5011   4.110   1.299   6.653
 1689TIP3    H1 5012   4.038   1.307   6.591
 1689TIP3    H2 5013   4.090   1.220   6.704
 1690TIP3   OH2 5014   7.675   0.608   3.244
 1690TIP3    H1 5015   7.694   0.535   3.303
 1690TIP3    H2 5016   7.727   0.681   3.279
 1691TIP3   OH2 5017   1.959   6.162   5.473
 1691TIP3    H1 5018   1.954   6.123   5.560
 1691TIP3    H2 5019   2.038   6.217   5.476
 1692TIP3   OH2 5020   7.013   6.957   1.960
 1692TIP3    H1 5021   6.979   6.903   1.888
 1692TIP3    H2 5022   7.056   7.030   1.916
 1693TIP3   OH2 5023   7.491   1.272   2.119
 1693TIP3    H1 5024   7.463   1.182   2.134
 1693TIP3    H2 5025   7.536   1.297   2.199
 1694TIP3   OH2 5026   4.694   1.752   1.305
 1694TIP3    H1 5027   4.624   1.779   1.365
 1694TIP3    H2 5028   4.652   1.746   1.219
 1695TIP3   OH2 5029  -0.005   7.464   2.344
 1695TIP3    H1 5030   0.080   7.490   2.308
 1695TIP3    H2 5031  -0.004   7.369   2.343
 1696TIP3   OH2 5032   4.789   1.270   2.286
 1696TIP3    H1 5033   4.696   1.286   2.304
 1696TIP3    H2 5034   4.822   1.229   2.366
 1697TIP3   OH2 5035   1.314   3.399   1.026
 1697TIP3    H1 5036   1.302   3.439   0.939
 1697TIP3    H2 5037   1.242   3.337   1.034
 1698TIP3   OH2 5038   7.663   1.834   4.518
 1698TIP3    H1 5039   7.737   1.876   4.562
 1698TIP3    H2 5040   7.636   1.897   4.450
 1699TIP3   OH2 5041   5.246   0.102   5.589
 1699TIP3    H1 5042   5.257   0.031   5.526
 1699TIP3    H2 5043   5.214   0.176   5.538
 1700TIP3   OH2 5044   5.884   7.259   0.113
 1700TIP3    H1 5045   5.943   7.334   0.106
 1700TIP3    H2 5046   5.880   7.241   0.207
 1701TIP3   OH2 5047   1.065   2.308   3.459
 1701TIP3    H1 5048   1.071   2.382   3.518
 1701TIP3    H2 5049   1.151   2.302   3.418
 1702TIP3   OH2 5050   2.935   5.775   5.569
 1702TIP3    H1 5051   3.001   5.839   5.542
 1702TIP3    H2 5052   2.980   5.691   5.569
 1703TIP3   OH2 5053   4.347   4.952   1.266
 1703TIP3    H1 5054   4.407   5.004   1.319
 1703TIP3    H2 5055   4.398   4.876   1.238
 1704TIP3   OH2 5056   7.259   7.052   4.361
 1704TIP3    H1 5057   7.177   7.088   4.327
 1704TIP3    H2 5058   7.306   7.022   4.283
 1705TIP3   OH2 5059   5.650   3.861   5.594
 1705TIP3    H1 5060   5.702   3.917   5.536
 1705TIP3    H2 5061   5.559   3.887   5.577
 1706TIP3   OH2 5062   3.699   7.049   1.999
 1706TIP3    H1 5063   3.740   7.072   1.915
 1706TIP3    H2 5064   3.621   7.000   1.974
 1707TIP3   OH2 5065   5.384   2.844   1.246
 1707TIP3    H1 5066   5.407   2.922   1.196
 1707TIP3    H2 5067   5.422   2.772   1.196
 1708TIP3   OH2 5068   2.797   6.059   2.177
 1708TIP3    H1 5069   2.755   6.000   2.240
 1708TIP3    H2 5070   2.725   6.112   2.143
 1709TIP3   OH2 5071   2.658   5.004   2.091
 1709TIP3    H1 5072   2.621   4.933   2.144
 1709TIP3    H2 5073   2.752   4.989   2.092
 1710TIP3   OH2 5074   4.388   0.210   5.618
 1710TIP3    H1 5075   4.298   0.197   5.650
 1710TIP3    H2 5076   4.386   0.174   5.529
 1711TIP3   OH2 5077   7.308   2.933   3.803
 1711TIP3    H1 5078   7.331   2.878   3.878
 1711TIP3    H2 5079   7.218   2.960   3.819
 1712TIP3   OH2 5080   2.915   3.303   4.718
 1712TIP3    H1 5081   2.942   3.222   4.762
 1712TIP3    H2 5082   2.997   3.344   4.690
 1713TIP3   OH2 5083   3.317   0.524   2.502
 1713TIP3    H1 5084   3.383   0.542   2.569
 1713TIP3    H2 5085   3.252   0.593   2.514
 1714TIP3   OH2 5086   7.942   0.706   4.180
 1714TIP3    H1 5087   7.868   0.664   4.137
 1714TIP3    H2 5088   8.010   0.709   4.113
 1715TIP3   OH2 5089   1.505   2.736   0.426
 1715TIP3    H1 5090   1.576   2.678   0.453
 1715TIP3    H2 5091   1.437   2.677   0.392
 1716TIP3   OH2 5092   7.070   2.058   2.630
 1716TIP3    H1 5093   7.031   2.065   2.717
 1716TIP3    H2 5094   6.996   2.061   2.570
 1717TIP3   OH2 5095   3.749   6.606   3.014
 1717TIP3    H1 5096   3.672   6.625   3.067
 1717TIP3    H2 5097   3.740   6.660   2.936
 1718TIP3   OH2 5098   2.061   6.343   2.589
 1718TIP3    H1 5099   2.005   6.277   2.548
 1718TIP3    H2 5100   2.072   6.410   2.521
 1719TIP3   OH2 5101   4.398   5.537   6.385
 1719TIP3    H1 5102   4.475   5.594   6.394
 1719TIP3    H2 5103   4.344   5.581   6.319
 1720TIP3   OH2 5104   0.493   2.451   4.803
 1720TIP3    H1 5105   0.450   2.393   4.740
 1720TIP3    H2 5106   0.511   2.394   4.878
 1721TIP3   OH2 5107   4.075   4.983   3.275
 1721TIP3    H1 5108   4.132   4.954   3.346
 1721TIP3    H2 5109   4.097   4.925   3.202
 1722TIP3   OH2 5110   2.323   6.203   6.041
 1722TIP3    H1 5111   2.275   6.120   6.049
 1722TIP3    H2 5112   2.278   6.249   5.970
 1723TIP3   OH2 5113   2.134   3.210   4.010
 1723TIP3    H1 5114   2.180   3.182   4.089
 1723TIP3    H2 5115   2.187   3.178   3.938
 1724TIP3   OH2 5116   5.124   6.436   3.730
 1724TIP3    H1 5117   5.073   6.417   3.651
 1724TIP3    H2 5118   5.212   6.405   3.709
 1725TIP3   OH2 5119   8.009   2.818   3.208
 1725TIP3    H1 5120   8.061   2.806   3.288
 1725TIP3    H2 5121   7.969   2.905   3.219
 1726TIP3   OH2 5122   0.370   5.790   5.488
 1726TIP3    H1 5123   0.422   5.712   5.508
 1726TIP3    H2 5124   0.432   5.849   5.445
 1727TIP3   OH2 5125   4.103   2.716   2.711
 1727TIP3    H1 5126   4.064   2.629   2.724
 1727TIP3    H2 5127   4.159   2.705   2.634
 1728TIP3   OH2 5128   5.156   3.338   5.942
 1728TIP3    H1 5129   5.117   3.418   5.976
 1728TIP3    H2 5130   5.091   3.303   5.881
 1729TIP3   OH2 5131   5.657   5.463   0.822
 1729TIP3    H1 5132   5.654   5.558   0.812
 1729TIP3    H2 5133   5.749   5.444   0.843
 1730TIP3   OH2 5134   5.945   0.218   0.071
 1730TIP3    H1 5135   5.966   0.132   0.035
 1730TIP3    H2 5136   5.957   0.278  -0.002
 1731TIP3   OH2 5137   7.201   2.631   3.260
 1731TIP3    H1 5138   7.111   2.661   3.247
 1731TIP3    H2 5139   7.223   2.659   3.349
 1732TIP3   OH2 5140   7.690   0.791   5.701
 1732TIP3    H1 5141   7.760   0.849   5.732
 1732TIP3    H2 5142   7.735   0.725   5.649
 1733TIP3   OH2 5143   3.023   5.248   2.994
 1733TIP3    H1 5144   3.057   5.168   3.033
 1733TIP3    H2 5145   3.084   5.269   2.924
 1734TIP3   OH2 5146   1.895   1.166   5.680
 1734TIP3    H1 5147   1.855   1.079   5.678
 1734TIP3    H2 5148   1.878   1.202   5.593
 1735TIP3   OH2 5149   0.487   1.871   3.873
 1735TIP3    H1 5150   0.492   1.787   3.918
 1735TIP3    H2 5151   0.405   1.911   3.903
 1736TIP3   OH2 5152   3.018   3.570   5.696
 1736TIP3    H1 5153   3.003   3.649   5.643
 1736TIP3    H2 5154   2.981   3.499   5.644
 1737TIP3   OH2 5155   6.146   4.078   2.396
 1737TIP3    H1 5156   6.113   4.025   2.468
 1737TIP3    H2 5157   6.157   4.165   2.433
 1738TIP3   OH2 5158   4.487   0.369   0.844
 1738TIP3    H1 5159   4.422   0.300   0.830
 1738TIP3    H2 5160   4.525   0.384   0.757
 1739TIP3   OH2 5161   5.547   6.800   3.630
 1739TIP3    H1 5162   5.626   6.853   3.618
 1739TIP3    H2 5163   5.548   6.776   3.723
 1740TIP3   OH2 5164   6.449   0.734   6.403
 1740TIP3    H1 5165   6.531   0.778   6.386
 1740TIP3    H2 5166   6.473   0.658   6.457
 1741TIP3   OH2 5167   7.451   4.477   1.157
 1741TIP3    H1 5168   7.381   4.542   1.153
 1741TIP3    H2 5169   7.405   4.393   1.163
 1742TIP3   OH2 5170   0.715   3.667   1.470
 1742TIP3    H1 5171   0.810   3.673   1.483
 1742TIP3    H2 5172   0.680   3.738   1.525
 1743TIP3   OH2 5173   5.794   5.011   1.910
 1743TIP3    H1 5174   5.769   4.919   1.915
 1743TIP3    H2 5175   5.712   5.057   1.889
 1744TIP3   OH2 5176   0.167   6.734   1.390
 1744TIP3    H1 5177   0.225   6.748   1.465
 1744TIP3    H2 5178   0.187   6.646   1.359
 1745TIP3   OH2 5179   6.095   7.561   4.753
 1745TIP3    H1 5180   6.042   7.581   4.830
 1745TIP3    H2 5181   6.100   7.466   4.750
 1746TIP3   OH2 5182   2.067   1.677   5.339
 1746TIP3    H1 5183   2.036   1.766   5.352
 1746TIP3    H2 5184   1.991   1.622   5.358
 1747TIP3   OH2 5185   4.996   2.734   4.542
 1747TIP3    H1 5186   5.005   2.640   4.557
 1747TIP3    H2 5187   5.009   2.774   4.628
 1748TIP3   OH2 5188   4.485   6.565   2.923
 1748TIP3    H1 5189   4.516   6.637   2.867
 1748TIP3    H2 5190   4.415   6.604   2.975
 1749TIP3   OH2 5191   6.570   1.031   3.733
 1749TIP3    H1 5192   6.498   1.017   3.672
 1749TIP3    H2 5193   6.536   1.002   3.817
 1750TIP3   OH2 5194   8.236   6.835   5.759
 1750TIP3    H1 5195   8.179   6.843   5.836
 1750TIP3    H2 5196   8.175   6.828   5.686
 1751TIP3   OH2 5197   5.151   6.074   1.688
 1751TIP3    H1 5198   5.206   6.140   1.647
 1751TIP3    H2 5199   5.111   6.118   1.763
 1752TIP3   OH2 5200   0.006   4.419   1.333
 1752TIP3    H1 5201   0.079   4.358   1.340
 1752TIP3    H2 5202  -0.071   4.367   1.356
 1753TIP3   OH2 5203   5.386   7.560   1.224
 1753TIP3    H1 5204   5.479   7.545   1.208
 1753TIP3    H2 5205   5.345   7.476   1.207
 1754TIP3   OH2 5206   3.055   1.968   3.326
 1754TIP3    H1 5207   3.094   1.968   3.413
 1754TIP3    H2 5208   2.977   1.913   3.335
 1755TIP3   OH2 5209   1.088   4.912   4.825
 1755TIP3    H1 5210   1.029   4.910   4.901
 1755TIP3    H2 5211   1.118   5.003   4.822
 1756TIP3   OH2 5212   4.528   3.734   0.856
 1756TIP3    H1 5213   4.457   3.798   0.862
 1756TIP3    H2 5214   4.484   3.649   0.860
 1757TIP3   OH2 5215   0.983   1.677   6.222
 1757TIP3    H1 5216   0.925   1.679   6.298
 1757TIP3    H2 5217   0.942   1.735   6.158
 1758TIP3   OH2 5218   3.424   7.794   5.516
 1758TIP3    H1 5219   3.419   7.858   5.445
 1758TIP3    H2 5220   3.496   7.737   5.491
 1759TIP3   OH2 5221   4.813   2.954   5.697
 1759TIP3    H1 5222   4.780   2.975   5.784
 1759TIP3    H2 5223   4.823   2.859   5.697
 1760TIP3   OH2 5224   5.420   0.662   3.364
 1760TIP3    H1 5225   5.487   0.610   3.319
 1760TIP3    H2 5226   5.340   0.611   3.353
 1761TIP3   OH2 5227   2.617   2.857   0.915
 1761TIP3    H1 5228   2.542   2.833   0.861
 1761TIP3    H2 5229   2.691   2.856   0.855
 1762TIP3   OH2 5230   0.748   7.241   3.688
 1762TIP3    H1 5231   0.791   7.178   3.630
 1762TIP3    H2 5232   0.660   7.251   3.650
 1763TIP3   OH2 5233   3.740   7.225   4.585
 1763TIP3    H1 5234   3.670   7.269   4.538
 1763TIP3    H2 5235   3.719   7.237   4.677
 1764TIP3   OH2 5236   1.608   7.425   3.478
 1764TIP3    H1 5237   1.533   7.463   3.523
 1764TIP3    H2 5238   1.610   7.334   3.506
 1765TIP3   OH2 5239   1.970   3.488   5.431
 1765TIP3    H1 5240   1.908   3.562   5.434
 1765TIP3    H2 5241   1.950   3.438   5.510
 1766TIP3   OH2 5242   5.624   2.168   3.690
 1766TIP3    H1 5243   5.581   2.245   3.729
 1766TIP3    H2 5244   5.705   2.158   3.740
 1767TIP3   OH2 5245   5.714   5.346   2.658
 1767TIP3    H1 5246   5.669   5.430   2.661
 1767TIP3    H2 5247   5.659   5.291   2.603
 1768TIP3   OH2 5248   3.808   0.058   3.230
 1768TIP3    H1 5249   3.849  -0.028   3.238
 1768TIP3    H2 5250   3.740   0.059   3.298
 1769TIP3   OH2 5251   7.741   7.705   6.639
 1769TIP3    H1 5252   7.715   7.708   6.731
 1769TIP3    H2 5253   7.809   7.639   6.635
 1770TIP3   OH2 5254   0.364   6.577   5.726
 1770TIP3    H1 5255   0.432   6.603   5.665
 1770TIP3    H2 5256   0.282   6.600   5.683
 1771TIP3   OH2 5257   6.534   4.676   0.960
 1771TIP3    H1 5258   6.461   4.682   1.022
 1771TIP3    H2 5259   6.559   4.584   0.960
 1772TIP3   OH2 5260   0.273   6.950   1.877
 1772TIP3    H1 5261   0.340   6.929   1.942
 1772TIP3    H2 5262   0.292   7.040   1.850
 1773TIP3   OH2 5263   1.247   5.123   6.311
 1773TIP3    H1 5264   1.175   5.065   6.290
 1773TIP3    H2 5265   1.206   5.208   6.328
 1774TIP3   OH2 5266   1.386   7.759   1.656
 1774TIP3    H1 5267   1.403   7.669   1.686
 1774TIP3    H2 5268   1.367   7.749   1.563
 1775TIP3   OH2 5269   0.727   0.152   3.732
 1775TIP3    H1 5270   0.652   0.097   3.755
 1775TIP3    H2 5271   0.688   0.234   3.701
 1776TIP3   OH2 5272   3.099   0.539   2.749
 1776TIP3    H1 5273   3.112   0.609   2.684
 1776TIP3    H2 5274   3.050   0.472   2.701
 1777TIP3   OH2 5275   2.142   6.063   4.455
 1777TIP3    H1 5276   2.123   6.071   4.548
 1777TIP3    H2 5277   2.237   6.077   4.448
 1778TIP3   OH2 5278   7.700   3.383   1.688
 1778TIP3    H1 5279   7.629   3.364   1.626
 1778TIP3    H2 5280   7.691   3.476   1.707
 1779TIP3   OH2 5281   6.487   5.295   5.375
 1779TIP3    H1 5282   6.439   5.270   5.454
 1779TIP3    H2 5283   6.575   5.259   5.390
 1780TIP3   OH2 5284   0.641   4.683   3.077
 1780TIP3    H1 5285   0.615   4.602   3.119
 1780TIP3    H2 5286   0.685   4.656   2.997
 1781TIP3   OH2 5287   3.467   6.034   2.322
 1781TIP3    H1 5288   3.382   6.017   2.281
 1781TIP3    H2 5289   3.454   6.011   2.414
 1782TIP3   OH2 5290   0.369   1.131   6.419
 1782TIP3    H1 5291   0.289   1.168   6.383
 1782TIP3    H2 5292   0.380   1.048   6.374
 1783TIP3   OH2 5293   1.332   0.153   0.167
 1783TIP3    H1 5294   1.427   0.143   0.167
 1783TIP3    H2 5295   1.307   0.146   0.259
 1784TIP3   OH2 5296   6.403   3.089   1.236
 1784TIP3    H1 5297   6.371   3.017   1.182
 1784TIP3    H2 5298   6.498   3.083   1.232
 1785TIP3   OH2 5299   2.114   0.741   1.086
 1785TIP3    H1 5300   2.119   0.649   1.110
 1785TIP3    H2 5301   2.190   0.755   1.029
 1786TIP3   OH2 5302   6.892   3.135   1.049
 1786TIP3    H1 5303   6.928   3.220   1.023
 1786TIP3    H2 5304   6.968   3.083   1.076
 1787TIP3   OH2 5305   6.616   3.119   5.206
 1787TIP3    H1 5306   6.678   3.184   5.173
 1787TIP3    H2 5307   6.556   3.169   5.261
 1788TIP3   OH2 5308   0.744   4.536   4.252
 1788TIP3    H1 5309   0.708   4.623   4.238
 1788TIP3    H2 5310   0.668   4.481   4.272
 1789TIP3   OH2 5311   7.425   3.295   1.961
 1789TIP3    H1 5312   7.457   3.371   2.009
 1789TIP3    H2 5313   7.431   3.320   1.869
 1790TIP3   OH2 5314   3.393   2.797   6.082
 1790TIP3    H1 5315   3.471   2.845   6.053
 1790TIP3    H2 5316   3.343   2.862   6.132
 1791TIP3   OH2 5317   3.345   7.001   0.723
 1791TIP3    H1 5318   3.402   7.048   0.783
 1791TIP3    H2 5319   3.320   6.922   0.769
 1792TIP3   OH2 5320   1.678   1.318   5.851
 1792TIP3    H1 5321   1.632   1.401   5.863
 1792TIP3    H2 5322   1.771   1.343   5.852
 1793TIP3   OH2 5323   4.483   1.804   1.450
 1793TIP3    H1 5324   4.447   1.885   1.486
 1793TIP3    H2 5325   4.406   1.750   1.431
 1794TIP3   OH2 5326   0.825   4.285   2.984
 1794TIP3    H1 5327   0.876   4.291   3.064
 1794TIP3    H2 5328   0.863   4.211   2.936
 1795TIP3   OH2 5329   6.188   2.304   6.008
 1795TIP3    H1 5330   6.164   2.327   6.097
 1795TIP3    H2 5331   6.255   2.236   6.017
 1796TIP3   OH2 5332   2.889   3.942   1.870
 1796TIP3    H1 5333   2.886   4.037   1.860
 1796TIP3    H2 5334   2.980   3.919   1.850
 1797TIP3   OH2 5335   7.333   7.687   2.203
 1797TIP3    H1 5336   7.321   7.603   2.245
 1797TIP3    H2 5337   7.403   7.730   2.253
 1798TIP3   OH2 5338   1.460   1.541   3.434
 1798TIP3    H1 5339   1.437   1.480   3.504
 1798TIP3    H2 5340   1.384   1.600   3.428
 1799TIP3   OH2 5341   2.445   7.696   4.704
 1799TIP3    H1 5342   2.418   7.606   4.722
 1799TIP3    H2 5343   2.541   7.693   4.704
 1800TIP3   OH2 5344   7.921  -0.007   1.584
 1800TIP3    H1 5345   7.833   0.000   1.546
 1800TIP3    H2 5346   7.954   0.083   1.584
 1801TIP3   OH2 5347   1.677   3.350   1.787
 1801TIP3    H1 5348   1.585   3.347   1.761
 1801TIP3    H2 5349   1.680   3.415   1.857
 1802TIP3   OH2 5350   6.250   1.181   2.357
 1802TIP3    H1 5351   6.314   1.248   2.336
 1802TIP3    H2 5352   6.271   1.108   2.298
 1803TIP3   OH2 5353   4.863   2.356   0.420
 1803TIP3    H1 5354   4.900   2.269   0.411
 1803TIP3    H2 5355   4.821   2.373   0.335
 1804TIP3   OH2 5356   5.491   3.447   0.272
 1804TIP3    H1 5357   5.489   3.452   0.177
 1804TIP3    H2 5358   5.585   3.443   0.294
 1805TIP3   OH2 5359   1.242   4.702   2.648
 1805TIP3    H1 5360   1.277   4.750   2.724
 1805TIP3    H2 5361   1.313   4.704   2.584
 1806TIP3   OH2 5362   0.828   4.261   1.125
 1806TIP3    H1 5363   0.921   4.270   1.146
 1806TIP3    H2 5364   0.799   4.351   1.107
 1807TIP3   OH2 5365   0.899   5.981   1.716
 1807TIP3    H1 5366   0.858   6.067   1.711
 1807TIP3    H2 5367   0.880   5.951   1.805
 1808TIP3   OH2 5368   0.003   7.034   0.179
 1808TIP3    H1 5369   0.084   6.987   0.196
 1808TIP3    H2 5370  -0.031   6.994   0.098
 1809TIP3   OH2 5371  -0.007   1.352   0.762
 1809TIP3    H1 5372   0.008   1.343   0.856
 1809TIP3    H2 5373   0.063   1.410   0.732
 1810TIP3   OH2 5374   3.334   7.317   5.641
 1810TIP3    H1 5375   3.268   7.254   5.671
 1810TIP3    H2 5376   3.309   7.337   5.551
 1811TIP3   OH2 5377   4.556   5.024   2.973
 1811TIP3    H1 5378   4.505   4.943   2.976
 1811TIP3    H2 5379   4.498   5.091   3.010
 1812TIP3   OH2 5380   1.993   1.728   3.855
 1812TIP3    H1 5381   1.950   1.812   3.837
 1812TIP3    H2 5382   1.987   1.718   3.950
 1813TIP3   OH2 5383   1.361   3.782   5.209
 1813TIP3    H1 5384   1.354   3.866   5.163
 1813TIP3    H2 5385   1.298   3.725   5.166
 1814TIP3   OH2 5386   6.072   5.763   5.479
 1814TIP3    H1 5387   6.084   5.728   5.391
 1814TIP3    H2 5388   6.160   5.785   5.509
 1815TIP3   OH2 5389   4.795   6.715   3.993
 1815TIP3    H1 5390   4.874   6.661   3.995
 1815TIP3    H2 5391   4.807   6.778   4.065
 1816TIP3   OH2 5392   5.403   0.149   1.785
 1816TIP3    H1 5393   5.423   0.209   1.713
 1816TIP3    H2 5394   5.385   0.065   1.743
 1817TIP3   OH2 5395   0.559   5.493   2.393
 1817TIP3    H1 5396   0.470   5.480   2.425
 1817TIP3    H2 5397   0.578   5.585   2.412
 1818TIP3   OH2 5398   5.894   0.717   0.134
 1818TIP3    H1 5399   5.941   0.689   0.213
 1818TIP3    H2 5400   5.826   0.651   0.122
 1819TIP3   OH2 5401   7.634   5.852   3.476
 1819TIP3    H1 5402   7.542   5.866   3.452
 1819TIP3    H2 5403   7.679   5.842   3.392
 1820TIP3   OH2 5404   2.925   3.991   5.484
 1820TIP3    H1 5405   2.980   3.938   5.542
 1820TIP3    H2 5406   2.849   3.936   5.466
 1821TIP3   OH2 5407   7.318   5.448   1.000
 1821TIP3    H1 5408   7.232   5.488   0.997
 1821TIP3    H2 5409   7.379   5.522   1.004
 1822TIP3   OH2 5410   3.339   3.706   0.547
 1822TIP3    H1 5411   3.344   3.637   0.481
 1822TIP3    H2 5412   3.266   3.761   0.519
 1823TIP3   OH2 5413   4.145   0.976   4.739
 1823TIP3    H1 5414   4.143   1.033   4.663
 1823TIP3    H2 5415   4.200   0.902   4.711
 1824TIP3   OH2 5416   5.632   7.563   1.443
 1824TIP3    H1 5417   5.657   7.540   1.354
 1824TIP3    H2 5418   5.658   7.488   1.496
 1825TIP3   OH2 5419   2.609   6.427   4.738
 1825TIP3    H1 5420   2.661   6.347   4.743
 1825TIP3    H2 5421   2.652   6.479   4.670
 1826TIP3   OH2 5422   2.030   3.431   1.047
 1826TIP3    H1 5423   2.036   3.459   0.956
 1826TIP3    H2 5424   1.946   3.465   1.077
 1827TIP3   OH2 5425   2.061   2.301   1.212
 1827TIP3    H1 5426   1.981   2.248   1.205
 1827TIP3    H2 5427   2.054   2.363   1.140
 1828TIP3   OH2 5428   6.940   2.721   5.272
 1828TIP3    H1 5429   6.938   2.699   5.179
 1828TIP3    H2 5430   6.874   2.790   5.282
 1829TIP3   OH2 5431   7.744   3.595   3.105
 1829TIP3    H1 5432   7.727   3.610   3.012
 1829TIP3    H2 5433   7.832   3.557   3.106
 1830TIP3   OH2 5434   2.183   0.783   6.295
 1830TIP3    H1 5435   2.256   0.795   6.355
 1830TIP3    H2 5436   2.222   0.789   6.208
 1831TIP3   OH2 5437   2.457   5.291   0.955
 1831TIP3    H1 5438   2.524   5.241   1.001
 1831TIP3    H2 5439   2.377   5.241   0.969
 1832TIP3   OH2 5440   1.668   4.037   2.473
 1832TIP3    H1 5441   1.716   3.992   2.404
 1832TIP3    H2 5442   1.666   4.128   2.444
 1833TIP3   OH2 5443   1.204   4.410   3.556
 1833TIP3    H1 5444   1.137   4.342   3.555
 1833TIP3    H2 5445   1.230   4.417   3.648
 1834TIP3   OH2 5446   1.398   2.907   1.643
 1834TIP3    H1 5447   1.382   2.852   1.720
 1834TIP3    H2 5448   1.345   2.868   1.574
 1835TIP3   OH2 5449   3.917   5.478   6.616
 1835TIP3    H1 5450   3.905   5.436   6.701
 1835TIP3    H2 5451   3.834   5.464   6.570
 1836TIP3   OH2 5452   6.739   5.881   4.145
 1836TIP3    H1 5453   6.799   5.810   4.126
 1836TIP3    H2 5454   6.748   5.897   4.239
 1837TIP3   OH2 5455   0.875   6.569   5.635
 1837TIP3    H1 5456   0.903   6.500   5.695
 1837TIP3    H2 5457   0.844   6.639   5.691
 1838TIP3   OH2 5458   4.838   7.579   1.404
 1838TIP3    H1 5459   4.744   7.563   1.410
 1838TIP3    H2 5460   4.846   7.655   1.346
 1839TIP3   OH2 5461   1.052   0.205   2.524
 1839TIP3    H1 5462   1.002   0.167   2.597
 1839TIP3    H2 5463   1.144   0.198   2.551
 1840TIP3   OH2 5464   5.279   7.641   2.219
 1840TIP3    H1 5465   5.225   7.599   2.152
 1840TIP3    H2 5466   5.268   7.586   2.297
 1841TIP3   OH2 5467   2.064   3.737   2.545
 1841TIP3    H1 5468   2.067   3.673   2.474
 1841TIP3    H2 5469   2.086   3.685   2.623
 1842TIP3   OH2 5470   3.477   6.213   3.654
 1842TIP3    H1 5471   3.427   6.250   3.581
 1842TIP3    H2 5472   3.411   6.178   3.714
 1843TIP3   OH2 5473   6.092   2.332   0.210
 1843TIP3    H1 5474   6.038   2.403   0.243
 1843TIP3    H2 5475   6.170   2.332   0.266
 1844TIP3   OH2 5476   7.116   3.489   1.725
 1844TIP3    H1 5477   7.031   3.526   1.703
 1844TIP3    H2 5478   7.096   3.402   1.759
 1845TIP3   OH2 5479   0.811   0.635   1.951
 1845TIP3    H1 5480   0.745   0.567   1.940
 1845TIP3    H2 5481   0.760   0.715   1.967
 1846TIP3   OH2 5482   6.349   4.125   4.007
 1846TIP3    H1 5483   6.433   4.116   4.050
 1846TIP3    H2 5484   6.336   4.219   3.997
 1847TIP3   OH2 5485   3.576   4.619   2.207
 1847TIP3    H1 5486   3.606   4.682   2.271
 1847TIP3    H2 5487   3.486   4.599   2.233
 1848TIP3   OH2 5488   6.239   3.590   4.431
 1848TIP3    H1 5489   6.187   3.590   4.512
 1848TIP3    H2 5490   6.175   3.582   4.361
 1849TIP3   OH2 5491   5.521   1.325   3.721
 1849TIP3    H1 5492   5.520   1.419   3.701
 1849TIP3    H2 5493   5.529   1.283   3.635
 1850TIP3   OH2 5494   6.774   6.428   5.661
 1850TIP3    H1 5495   6.689   6.402   5.698
 1850TIP3    H2 5496   6.811   6.347   5.627
 1851TIP3   OH2 5497   0.793   3.802   3.606
 1851TIP3    H1 5498   0.768   3.711   3.622
 1851TIP3    H2 5499   0.884   3.808   3.632
 1852TIP3   OH2 5500   4.717   3.859   1.091
 1852TIP3    H1 5501   4.639   3.871   1.146
 1852TIP3    H2 5502   4.742   3.768   1.105
 1853TIP3   OH2 5503   7.799   5.712   2.835
 1853TIP3    H1 5504   7.837   5.626   2.817
 1853TIP3    H2 5505   7.839   5.739   2.917
 1854TIP3   OH2 5506   7.696   4.706   1.653
 1854TIP3    H1 5507   7.781   4.745   1.675
 1854TIP3    H2 5508   7.651   4.775   1.604
 1855TIP3   OH2 5509   5.150   5.507   3.523
 1855TIP3    H1 5510   5.175   5.418   3.548
 1855TIP3    H2 5511   5.066   5.497   3.478
 1856TIP3   OH2 5512   0.681   3.564   0.745
 1856TIP3    H1 5513   0.670   3.498   0.814
 1856TIP3    H2 5514   0.672   3.648   0.790
 1857TIP3   OH2 5515   1.100   0.739   1.404
 1857TIP3    H1 5516   1.086   0.775   1.492
 1857TIP3    H2 5517   1.195   0.727   1.398
 1858TIP3   OH2 5518   3.659   2.342   5.091
 1858TIP3    H1 5519   3.635   2.434   5.106
 1858TIP3    H2 5520   3.706   2.343   5.008
 1859TIP3   OH2 5521   7.636   4.255   0.478
 1859TIP3    H1 5522   7.656   4.209   0.396
 1859TIP3    H2 5523   7.541   4.255   0.483
 1860TIP3   OH2 5524   3.349   6.884   4.809
 1860TIP3    H1 5525   3.369   6.945   4.738
 1860TIP3    H2 5526   3.366   6.798   4.772
 1861TIP3   OH2 5527   3.225   1.340   5.984
 1861TIP3    H1 5528   3.137   1.372   5.966
 1861TIP3    H2 5529   3.270   1.344   5.899
 1862TIP3   OH2 5530   0.395   1.810   0.868
 1862TIP3    H1 5531   0.400   1.886   0.811
 1862TIP3    H2 5532   0.474   1.813   0.921
 1863TIP3   OH2 5533   2.524   1.728   6.487
 1863TIP3    H1 5534   2.582   1.787   6.438
 1863TIP3    H2 5535   2.460   1.698   6.422
 1864TIP3   OH2 5536   7.471   6.491   5.172
 1864TIP3    H1 5537   7.507   6.438   5.242
 1864TIP3    H2 5538   7.473   6.580   5.205
 1865TIP3   OH2 5539   2.183   7.419   0.180
 1865TIP3    H1 5540   2.242   7.345   0.195
 1865TIP3    H2 5541   2.177   7.426   0.085
 1866TIP3   OH2 5542   3.043   6.158   1.371
 1866TIP3    H1 5543   3.074   6.069   1.353
 1866TIP3    H2 5544   2.948   6.154   1.354
 1867TIP3   OH2 5545   6.189   0.720   2.855
 1867TIP3    H1 5546   6.193   0.629   2.887
 1867TIP3    H2 5547   6.234   0.770   2.923
 1868TIP3   OH2 5548   0.334   2.057   3.149
 1868TIP3    H1 5549   0.266   2.003   3.110
 1868TIP3    H2 5550   0.379   1.997   3.209
 1869TIP3   OH2 5551   2.723   0.656   1.079
 1869TIP3    H1 5552   2.745   0.723   1.015
 1869TIP3    H2 5553   2.795   0.659   1.142
 1870TIP3   OH2 5554   6.230   2.382   0.640
 1870TIP3    H1 5555   6.225   2.287   0.643
 1870TIP3    H2 5556   6.323   2.401   0.631
 1871TIP3   OH2 5557   3.901   6.889   0.333
 1871TIP3    H1 5558   3.959   6.911   0.405
 1871TIP3    H2 5559   3.829   6.951   0.341
 1872TIP3   OH2 5560   0.799   6.680   2.193
 1872TIP3    H1 5561   0.808   6.602   2.247
 1872TIP3    H2 5562   0.808   6.753   2.255
 1873TIP3   OH2 5563   7.423   3.166   1.618
 1873TIP3    H1 5564   7.391   3.140   1.705
 1873TIP3    H2 5565   7.427   3.262   1.621
 1874TIP3   OH2 5566   0.899   3.439   6.686
 1874TIP3    H1 5567   0.883   3.434   6.591
 1874TIP3    H2 5568   0.986   3.401   6.697
 1875TIP3   OH2 5569   7.920   6.909   3.079
 1875TIP3    H1 5570   7.909   6.832   3.023
 1875TIP3    H2 5571   7.920   6.873   3.168
 1876TIP3   OH2 5572   5.249   1.022   6.265
 1876TIP3    H1 5573   5.255   0.928   6.283
 1876TIP3    H2 5574   5.160   1.045   6.290
 1877TIP3   OH2 5575   6.151   3.041   0.231
 1877TIP3    H1 5576   6.195   3.008   0.153
 1877TIP3    H2 5577   6.203   3.008   0.304
 1878TIP3   OH2 5578   7.501   2.046   3.188
 1878TIP3    H1 5579   7.439   2.078   3.123
 1878TIP3    H2 5580   7.549   2.124   3.215
 1879TIP3   OH2 5581   5.958   6.188   6.462
 1879TIP3    H1 5582   5.955   6.096   6.487
 1879TIP3    H2 5583   5.867   6.216   6.464
 1880TIP3   OH2 5584   0.095   1.953   2.163
 1880TIP3    H1 5585   0.060   1.922   2.079
 1880TIP3    H2 5586   0.028   2.013   2.196
 1881TIP3   OH2 5587   6.659   2.295   4.306
 1881TIP3    H1 5588   6.633   2.228   4.370
 1881TIP3    H2 5589   6.581   2.307   4.251
 1882TIP3   OH2 5590   4.691   2.962   5.975
 1882TIP3    H1 5591   4.767   2.942   6.029
 1882TIP3    H2 5592   4.624   2.989   6.038
 1883TIP3   OH2 5593   1.959   6.506   0.754
 1883TIP3    H1 5594   1.914   6.586   0.781
 1883TIP3    H2 5595   1.987   6.524   0.664
 1884TIP3   OH2 5596   6.785   1.196   2.933
 1884TIP3    H1 5597   6.760   1.194   3.026
 1884TIP3    H2 5598   6.764   1.108   2.901
 1885TIP3   OH2 5599   4.451   0.698   1.633
 1885TIP3    H1 5600   4.468   0.791   1.616
 1885TIP3    H2 5601   4.364   0.696   1.671
 1886TIP3   OH2 5602   5.273   3.117   3.766
 1886TIP3    H1 5603   5.302   3.175   3.836
 1886TIP3    H2 5604   5.183   3.144   3.747
 1887TIP3   OH2 5605   4.058   2.464   1.932
 1887TIP3    H1 5606   4.102   2.411   1.865
 1887TIP3    H2 5607   4.097   2.551   1.923
 1888TIP3   OH2 5608   6.906   3.518   4.164
 1888TIP3    H1 5609   6.833   3.558   4.211
 1888TIP3    H2 5610   6.912   3.429   4.198
 1889TIP3   OH2 5611   0.744   1.445   0.876
 1889TIP3    H1 5612   0.699   1.392   0.810
 1889TIP3    H2 5613   0.737   1.535   0.843
 1890TIP3   OH2 5614   2.467   1.581   0.624
 1890TIP3    H1 5615   2.430   1.667   0.605
 1890TIP3    H2 5616   2.426   1.555   0.706
 1891TIP3   OH2 5617   4.894   5.310   3.070
 1891TIP3    H1 5618   4.986   5.297   3.093
 1891TIP3    H2 5619   4.857   5.222   3.069
 1892TIP3   OH2 5620   5.882   6.166   1.165
 1892TIP3    H1 5621   5.887   6.070   1.158
 1892TIP3    H2 5622   5.800   6.188   1.121
 1893TIP3   OH2 5623   3.363   3.920   0.917
 1893TIP3    H1 5624   3.334   3.983   0.983
 1893TIP3    H2 5625   3.399   3.975   0.847
 1894TIP3   OH2 5626   7.149   3.629   3.574
 1894TIP3    H1 5627   7.230   3.672   3.603
 1894TIP3    H2 5628   7.169   3.594   3.487
 1895TIP3   OH2 5629   0.402   4.252   5.084
 1895TIP3    H1 5630   0.496   4.242   5.096
 1895TIP3    H2 5631   0.394   4.321   5.018
 1896TIP3   OH2 5632   4.703   3.770   3.901
 1896TIP3    H1 5633   4.685   3.709   3.972
 1896TIP3    H2 5634   4.666   3.728   3.824
 1897TIP3   OH2 5635   0.529   5.195   6.211
 1897TIP3    H1 5636   0.576   5.272   6.242
 1897TIP3    H2 5637   0.592   5.148   6.157
 1898TIP3   OH2 5638   3.319   3.919   4.477
 1898TIP3    H1 5639   3.301   3.953   4.564
 1898TIP3    H2 5640   3.291   3.988   4.418
 1899TIP3   OH2 5641   7.944   4.043   4.935
 1899TIP3    H1 5642   7.882   4.074   4.868
 1899TIP3    H2 5643   7.937   4.107   5.005
 1900TIP3   OH2 5644   0.348   2.222   2.618
 1900TIP3    H1 5645   0.317   2.194   2.532
 1900TIP3    H2 5646   0.392   2.306   2.602
 1901TIP3   OH2 5647   2.500   4.317   4.135
 1901TIP3    H1 5648   2.544   4.233   4.153
 1901TIP3    H2 5649   2.414   4.307   4.176
 1902TIP3   OH2 5650   7.564   3.212   6.765
 1902TIP3    H1 5651   7.547   3.147   6.696
 1902TIP3    H2 5652   7.588   3.159   6.841
 1903TIP3   OH2 5653   7.065   0.638   6.078
 1903TIP3    H1 5654   7.042   0.722   6.037
 1903TIP3    H2 5655   7.116   0.663   6.155
 1904TIP3   OH2 5656   2.505   6.468   1.517
 1904TIP3    H1 5657   2.459   6.549   1.497
 1904TIP3    H2 5658   2.597   6.495   1.523
 1905TIP3   OH2 5659   4.901   0.771   6.621
 1905TIP3    H1 5660   4.842   0.762   6.546
 1905TIP3    H2 5661   4.957   0.693   6.616
 1906TIP3   OH2 5662   5.750   0.307   1.680
 1906TIP3    H1 5663   5.710   0.383   1.721
 1906TIP3    H2 5664   5.745   0.325   1.586
 1907TIP3   OH2 5665   4.251   4.789   2.023
 1907TIP3    H1 5666   4.249   4.787   1.928
 1907TIP3    H2 5667   4.338   4.825   2.044
 1908TIP3   OH2 5668   2.789   1.731   5.706
 1908TIP3    H1 5669   2.745   1.736   5.790
 1908TIP3    H2 5670   2.772   1.643   5.674
 1909TIP3   OH2 5671   7.315   0.975   4.876
 1909TIP3    H1 5672   7.364   0.893   4.886
 1909TIP3    H2 5673   7.348   1.032   4.944
 1910TIP3   OH2 5674   6.695   4.426   6.351
 1910TIP3    H1 5675   6.741   4.470   6.279
 1910TIP3    H2 5676   6.686   4.493   6.418
 1911TIP3   OH2 5677   1.959   2.096   1.890
 1911TIP3    H1 5678   1.956   2.151   1.968
 1911TIP3    H2 5679   1.997   2.013   1.920
 1912TIP3   OH2 5680   3.761   2.067   3.321
 1912TIP3    H1 5681   3.700   2.139   3.306
 1912TIP3    H2 5682   3.737   2.000   3.258
 1913TIP3   OH2 5683   5.331   2.728   1.499
 1913TIP3    H1 5684   5.267   2.785   1.543
 1913TIP3    H2 5685   5.345   2.771   1.414
 1914TIP3   OH2 5686   3.254   0.092   5.675
 1914TIP3    H1 5687   3.233   0.140   5.756
 1914TIP3    H2 5688   3.343   0.122   5.653
 1915TIP3   OH2 5689   5.726   6.520   2.817
 1915TIP3    H1 5690   5.641   6.546   2.781
 1915TIP3    H2 5691   5.773   6.482   2.742
 1916TIP3   OH2 5692   6.628   7.791   2.399
 1916TIP3    H1 5693   6.721   7.793   2.377
 1916TIP3    H2 5694   6.606   7.883   2.416
 1917TIP3   OH2 5695   1.343   3.108   6.456
 1917TIP3    H1 5696   1.356   3.077   6.366
 1917TIP3    H2 5697   1.409   3.176   6.467
 1918TIP3   OH2 5698   5.466   3.540   6.368
 1918TIP3    H1 5699   5.439   3.627   6.338
 1918TIP3    H2 5700   5.542   3.556   6.423
 1919TIP3   OH2 5701   2.993   6.501   4.518
 1919TIP3    H1 5702   3.060   6.551   4.473
 1919TIP3    H2 5703   2.936   6.567   4.558
 1920TIP3   OH2 5704   5.790   1.955   0.031
 1920TIP3    H1 5705   5.716   2.014   0.044
 1920TIP3    H2 5706   5.770   1.908  -0.050
 1921TIP3   OH2 5707   0.183   7.680   0.206
 1921TIP3    H1 5708   0.263   7.726   0.232
 1921TIP3    H2 5709   0.203   7.645   0.119
 1922TIP3   OH2 5710   3.535   3.844   0.340
 1922TIP3    H1 5711   3.473   3.799   0.281
 1922TIP3    H2 5712   3.482   3.869   0.415
 1923TIP3   OH2 5713   5.054   4.283   3.988
 1923TIP3    H1 5714   5.098   4.218   4.043
 1923TIP3    H2 5715   5.004   4.336   4.049
 1924TIP3   OH2 5716   3.372   6.906   5.616
 1924TIP3    H1 5717   3.370   6.979   5.678
 1924TIP3    H2 5718   3.344   6.944   5.533
 1925TIP3   OH2 5719   5.801   5.764   5.396
 1925TIP3    H1 5720   5.797   5.668   5.394
 1925TIP3    H2 5721   5.878   5.784   5.449
 1926TIP3   OH2 5722   0.373   3.552   5.391
 1926TIP3    H1 5723   0.397   3.526   5.479
 1926TIP3    H2 5724   0.318   3.481   5.358
 1927TIP3   OH2 5725   1.821   0.308   1.312
 1927TIP3    H1 5726   1.867   0.291   1.394
 1927TIP3    H2 5727   1.837   0.400   1.294
 1928TIP3   OH2 5728   4.468   5.793   3.148
 1928TIP3    H1 5729   4.443   5.749   3.067
 1928TIP3    H2 5730   4.452   5.886   3.131
 1929TIP3   OH2 5731   6.423   6.668   6.401
 1929TIP3    H1 5732   6.476   6.706   6.471
 1929TIP3    H2 5733   6.380   6.593   6.441
 1930TIP3   OH2 5734   5.862   6.005   5.786
 1930TIP3    H1 5735   5.843   5.938   5.851
 1930TIP3    H2 5736   5.955   6.026   5.800
 1931TIP3   OH2 5737   0.325   0.331   2.979
 1931TIP3    H1 5738   0.376   0.333   2.898
 1931TIP3    H2 5739   0.341   0.243   3.015
 1932TIP3   OH2 5740   2.778   3.595   2.430
 1932TIP3    H1 5741   2.690   3.582   2.467
 1932TIP3    H2 5742   2.837   3.580   2.503
 1933TIP3   OH2 5743   2.478   3.812   5.235
 1933TIP3    H1 5744   2.514   3.737   5.188
 1933TIP3    H2 5745   2.438   3.774   5.314
 1934TIP3   OH2 5746   4.005   4.946   0.291
 1934TIP3    H1 5747   3.950   4.930   0.215
 1934TIP3    H2 5748   4.008   5.042   0.298
 1935TIP3   OH2 5749   5.929   3.471   6.362
 1935TIP3    H1 5750   5.941   3.508   6.275
 1935TIP3    H2 5751   5.842   3.431   6.360
 1936TIP3   OH2 5752   7.949   1.916   1.593
 1936TIP3    H1 5753   8.042   1.935   1.605
 1936TIP3    H2 5754   7.925   1.966   1.515
 1937TIP3   OH2 5755   0.239   3.995   2.771
 1937TIP3    H1 5756   0.244   4.044   2.853
 1937TIP3    H2 5757   0.309   4.030   2.717
 1938TIP3   OH2 5758   7.133   4.476   1.800
 1938TIP3    H1 5759   7.132   4.538   1.873
 1938TIP3    H2 5760   7.058   4.418   1.817
 1939TIP3   OH2 5761   2.647   7.428   6.133
 1939TIP3    H1 5762   2.562   7.385   6.145
 1939TIP3    H2 5763   2.626   7.512   6.092
 1940TIP3   OH2 5764   6.160   2.855   5.387
 1940TIP3    H1 5765   6.232   2.847   5.450
 1940TIP3    H2 5766   6.106   2.926   5.421
 1941TIP3   OH2 5767   7.055   6.837   0.169
 1941TIP3    H1 5768   7.111   6.796   0.102
 1941TIP3    H2 5769   7.084   6.929   0.171
 1942TIP3   OH2 5770   6.245   1.435   2.163
 1942TIP3    H1 5771   6.298   1.495   2.110
 1942TIP3    H2 5772   6.186   1.394   2.101
 1943TIP3   OH2 5773   1.603   1.923   6.316
 1943TIP3    H1 5774   1.612   1.837   6.358
 1943TIP3    H2 5775   1.680   1.930   6.260
 1944TIP3   OH2 5776   3.574   2.280   2.755
 1944TIP3    H1 5777   3.587   2.222   2.681
 1944TIP3    H2 5778   3.484   2.264   2.783
 1945TIP3   OH2 5779   2.978   3.247   3.213
 1945TIP3    H1 5780   3.038   3.243   3.139
 1945TIP3    H2 5781   3.034   3.241   3.290
 1946TIP3   OH2 5782   4.451   6.789   2.687
 1946TIP3    H1 5783   4.435   6.808   2.780
 1946TIP3    H2 5784   4.424   6.869   2.642
 1947TIP3   OH2 5785   7.624   3.975   6.745
 1947TIP3    H1 5786   7.690   4.001   6.681
 1947TIP3    H2 5787   7.673   3.935   6.816
 1948TIP3   OH2 5788   5.180   5.747   0.205
 1948TIP3    H1 5789   5.109   5.686   0.188
 1948TIP3    H2 5790   5.224   5.756   0.120
 1949TIP3   OH2 5791   0.433   6.995   3.210
 1949TIP3    H1 5792   0.433   6.899   3.211
 1949TIP3    H2 5793   0.431   7.018   3.117
 1950TIP3   OH2 5794   0.556   2.331   3.581
 1950TIP3    H1 5795   0.647   2.344   3.606
 1950TIP3    H2 5796   0.543   2.236   3.587
 1951TIP3   OH2 5797   3.897   5.393   4.482
 1951TIP3    H1 5798   3.892   5.354   4.395
 1951TIP3    H2 5799   3.811   5.375   4.521
 1952TIP3   OH2 5800   6.522   2.696   2.136
 1952TIP3    H1 5801   6.550   2.670   2.048
 1952TIP3    H2 5802   6.580   2.769   2.159
 1953TIP3   OH2 5803   5.273   6.184   6.132
 1953TIP3    H1 5804   5.196   6.203   6.079
 1953TIP3    H2 5805   5.240   6.177   6.222
 1954TIP3   OH2 5806   4.069   7.543   5.627
 1954TIP3    H1 5807   4.019   7.624   5.619
 1954TIP3    H2 5808   4.078   7.530   5.721
 1955TIP3   OH2 5809   4.693   3.008   4.325
 1955TIP3    H1 5810   4.773   3.022   4.274
 1955TIP3    H2 5811   4.724   2.985   4.412
 1956TIP3   OH2 5812   8.153   3.439   0.443
 1956TIP3    H1 5813   8.213   3.504   0.479
 1956TIP3    H2 5814   8.165   3.362   0.498
 1957TIP3   OH2 5815   5.210   3.331   6.230
 1957TIP3    H1 5816   5.231   3.358   6.141
 1957TIP3    H2 5817   5.120   3.299   6.225
 1958TIP3   OH2 5818   7.394   1.918   3.414
 1958TIP3    H1 5819   7.316   1.870   3.386
 1958TIP3    H2 5820   7.434   1.950   3.333
 1959TIP3   OH2 5821   3.999   3.811   2.537
 1959TIP3    H1 5822   3.965   3.803   2.448
 1959TIP3    H2 5823   4.008   3.721   2.568
 1960TIP3   OH2 5824   4.250   0.730   6.205
 1960TIP3    H1 5825   4.272   0.749   6.114
 1960TIP3    H2 5826   4.294   0.647   6.224
 1961TIP3   OH2 5827   5.863   2.644   2.611
 1961TIP3    H1 5828   5.949   2.624   2.574
 1961TIP3    H2 5829   5.805   2.654   2.535
 1962TIP3   OH2 5830   3.823   1.189   5.481
 1962TIP3    H1 5831   3.904   1.145   5.455
 1962TIP3    H2 5832   3.802   1.247   5.407
 1963TIP3   OH2 5833   2.637   5.850   5.866
 1963TIP3    H1 5834   2.670   5.762   5.885
 1963TIP3    H2 5835   2.710   5.894   5.823
 1964TIP3   OH2 5836   5.332   7.466   0.908
 1964TIP3    H1 5837   5.260   7.484   0.968
 1964TIP3    H2 5838   5.348   7.550   0.864
 1965TIP3   OH2 5839   0.925   1.641   2.325
 1965TIP3    H1 5840   0.874   1.601   2.395
 1965TIP3    H2 5841   0.863   1.652   2.253
 1966TIP3   OH2 5842   5.096   2.187   6.092
 1966TIP3    H1 5843   5.180   2.180   6.137
 1966TIP3    H2 5844   5.103   2.267   6.040
 1967TIP3   OH2 5845   1.919   1.008   4.353
 1967TIP3    H1 5846   1.908   0.920   4.316
 1967TIP3    H2 5847   1.872   1.066   4.293
 1968TIP3   OH2 5848   2.438   7.213   2.128
 1968TIP3    H1 5849   2.490   7.289   2.155
 1968TIP3    H2 5850   2.466   7.194   2.039
 1969TIP3   OH2 5851   7.945   4.651   2.261
 1969TIP3    H1 5852   7.966   4.569   2.306
 1969TIP3    H2 5853   7.967   4.634   2.169
 1970TIP3   OH2 5854   5.668   1.587   2.705
 1970TIP3    H1 5855   5.581   1.548   2.714
 1970TIP3    H2 5856   5.658   1.675   2.742
 1971TIP3   OH2 5857   3.973   1.688   5.281
 1971TIP3    H1 5858   4.005   1.646   5.201
 1971TIP3    H2 5859   3.883   1.715   5.259
 1972TIP3   OH2 5860   4.101   3.951   0.680
 1972TIP3    H1 5861   4.184   3.911   0.655
 1972TIP3    H2 5862   4.036   3.912   0.620
 1973TIP3   OH2 5863   6.457   5.860   3.716
 1973TIP3    H1 5864   6.412   5.829   3.638
 1973TIP3    H2 5865   6.446   5.790   3.780
 1974TIP3   OH2 5866   4.239   2.403   6.635
 1974TIP3    H1 5867   4.205   2.339   6.573
 1974TIP3    H2 5868   4.305   2.355   6.685
 1975TIP3   OH2 5869   0.296   3.811   5.347
 1975TIP3    H1 5870   0.331   3.723   5.361
 1975TIP3    H2 5871   0.272   3.814   5.255
 1976TIP3   OH2 5872   1.677   3.668   4.955
 1976TIP3    H1 5873   1.659   3.582   4.992
 1976TIP3    H2 5874   1.591   3.702   4.930
 1977TIP3   OH2 5875   2.369   3.087   4.982
 1977TIP3    H1 5876   2.331   3.163   4.938
 1977TIP3    H2 5877   2.381   3.022   4.913
 1978TIP3   OH2 5878   0.345   2.723   3.180
 1978TIP3    H1 5879   0.343   2.628   3.185
 1978TIP3    H2 5880   0.426   2.743   3.132
 1979TIP3   OH2 5881   3.845   5.360   0.329
 1979TIP3    H1 5882   3.889   5.275   0.315
 1979TIP3    H2 5883   3.767   5.338   0.379
 1980TIP3   OH2 5884   1.639   4.201   3.708
 1980TIP3    H1 5885   1.731   4.184   3.688
 1980TIP3    H2 5886   1.630   4.179   3.801
 1981TIP3   OH2 5887   0.161   7.400   5.414
 1981TIP3    H1 5888   0.072   7.418   5.445
 1981TIP3    H2 5889   0.185   7.479   5.364
 1982TIP3   OH2 5890   4.951   7.356   1.303
 1982TIP3    H1 5891   4.910   7.427   1.353
 1982TIP3    H2 5892   4.907   7.358   1.218
 1983TIP3   OH2 5893   1.191   4.086   0.415
 1983TIP3    H1 5894   1.202   3.996   0.383
 1983TIP3    H2 5895   1.116   4.120   0.365
 1984TIP3   OH2 5896   4.962   1.705   3.874
 1984TIP3    H1 5897   4.908   1.705   3.795
 1984TIP3    H2 5898   4.909   1.751   3.939
 1985TIP3   OH2 5899   3.447   6.904   2.176
 1985TIP3    H1 5900   3.474   6.877   2.264
 1985TIP3    H2 5901   3.463   6.826   2.122
 1986TIP3   OH2 5902   1.644   0.286   5.141
 1986TIP3    H1 5903   1.655   0.210   5.084
 1986TIP3    H2 5904   1.732   0.318   5.157
 1987TIP3   OH2 5905   5.097   0.445   3.819
 1987TIP3    H1 5906   5.054   0.376   3.869
 1987TIP3    H2 5907   5.115   0.513   3.884
 1988TIP3   OH2 5908   2.842   5.560   4.503
 1988TIP3    H1 5909   2.780   5.617   4.548
 1988TIP3    H2 5910   2.838   5.477   4.551
 1989TIP3   OH2 5911   1.007   1.099   4.743
 1989TIP3    H1 5912   0.986   1.169   4.682
 1989TIP3    H2 5913   1.006   1.020   4.690
 1990TIP3   OH2 5914   3.105   2.956   5.615
 1990TIP3    H1 5915   3.038   3.016   5.582
 1990TIP3    H2 5916   3.096   2.962   5.710
 1991TIP3   OH2 5917   1.392   6.302   5.333
 1991TIP3    H1 5918   1.461   6.316   5.397
 1991TIP3    H2 5919   1.339   6.231   5.369
 1992TIP3   OH2 5920   6.180   0.449   2.845
 1992TIP3    H1 5921   6.264   0.425   2.885
 1992TIP3    H2 5922   6.124   0.374   2.862
 1993TIP3   OH2 5923   8.193   3.258   0.810
 1993TIP3    H1 5924   8.131   3.320   0.849
 1993TIP3    H2 5925   8.157   3.239   0.724
 1994TIP3   OH2 5926   8.179   2.399   5.879
 1994TIP3    H1 5927   8.244   2.414   5.948
 1994TIP3    H2 5928   8.209   2.321   5.834
 1995TIP3   OH2 5929   5.431   4.367   1.212
 1995TIP3    H1 5930   5.359   4.320   1.168
 1995TIP3    H2 5931   5.405   4.459   1.207
 1996TIP3   OH2 5932   4.988   5.142   2.074
 1996TIP3    H1 5933   4.967   5.110   1.986
 1996TIP3    H2 5934   5.016   5.232   2.061
 1997TIP3   OH2 5935   4.411   7.011   6.293
 1997TIP3    H1 5936   4.476   6.989   6.359
 1997TIP3    H2 5937   4.381   6.927   6.259
 1998TIP3   OH2 5938   4.297   5.584   5.698
 1998TIP3    H1 5939   4.208   5.618   5.690
 1998TIP3    H2 5940   4.292   5.494   5.664
 1999TIP3   OH2 5941   6.144   4.311   2.539
 1999TIP3    H1 5942   6.216   4.375   2.542
 1999TIP3    H2 5943   6.073   4.357   2.495
 2000TIP3   OH2 5944   7.056   6.724   2.630
 2000TIP3    H1 5945   6.966   6.712   2.660
 2000TIP3    H2 5946   7.109   6.704   2.707
 2001TIP3   OH2 5947   7.228   0.442   3.743
 2001TIP3    H1 5948   7.183   0.520   3.712
 2001TIP3    H2 5949   7.315   0.447   3.703
 2002TIP3   OH2 5950   1.694   3.039   1.032
 2002TIP3    H1 5951   1.777   3.010   1.069
 2002TIP3    H2 5952   1.719   3.105   0.967
 2003TIP3   OH2 5953   4.588   6.431   4.343
 2003TIP3    H1 5954   4.595   6.446   4.249
 2003TIP3    H2 5955   4.612   6.339   4.355
 2004TIP3   OH2 5956   6.670   4.895   1.083
 2004TIP3    H1 5957   6.584   4.916   1.118
 2004TIP3    H2 5958   6.653   4.834   1.011
 2005TIP3   OH2 5959   6.387   6.207   5.854
 2005TIP3    H1 5960   6.432   6.150   5.792
 2005TIP3    H2 5961   6.341   6.270   5.799
 2006TIP3   OH2 5962   3.110   3.156   0.822
 2006TIP3    H1 5963   3.046   3.227   0.828
 2006TIP3    H2 5964   3.195   3.200   0.817
 2007TIP3   OH2 5965   0.274   4.236   5.492
 2007TIP3    H1 5966   0.275   4.153   5.445
 2007TIP3    H2 5967   0.289   4.303   5.425
 2008TIP3   OH2 5968   4.892   0.210   0.418
 2008TIP3    H1 5969   4.972   0.246   0.456
 2008TIP3    H2 5970   4.852   0.159   0.488
 2009TIP3   OH2 5971   7.018   5.836   6.361
 2009TIP3    H1 5972   6.979   5.754   6.331
 2009TIP3    H2 5973   7.111   5.827   6.339
 2010TIP3   OH2 5974   7.512   5.339   0.375
 2010TIP3    H1 5975   7.452   5.377   0.439
 2010TIP3    H2 5976   7.496   5.245   0.380
 2011TIP3   OH2 5977   1.871   5.238   4.592
 2011TIP3    H1 5978   1.943   5.294   4.621
 2011TIP3    H2 5979   1.888   5.154   4.634
 2012TIP3   OH2 5980   6.424   3.276   4.825
 2012TIP3    H1 5981   6.359   3.213   4.855
 2012TIP3    H2 5982   6.462   3.312   4.905
 2013TIP3   OH2 5983   2.054   1.233   0.325
 2013TIP3    H1 5984   2.035   1.327   0.327
 2013TIP3    H2 5985   2.009   1.201   0.247
 2014TIP3   OH2 5986   4.281   2.425   4.562
 2014TIP3    H1 5987   4.299   2.511   4.524
 2014TIP3    H2 5988   4.366   2.393   4.591
 2015TIP3   OH2 5989   6.204   0.170   4.235
 2015TIP3    H1 5990   6.123   0.203   4.273
 2015TIP3    H2 5991   6.247   0.122   4.306
 2016TIP3   OH2 5992   1.894   5.907   1.291
 2016TIP3    H1 5993   1.847   5.991   1.286
 2016TIP3    H2 5994   1.987   5.932   1.294
 2017TIP3   OH2 5995   5.575   6.936   2.572
 2017TIP3    H1 5996   5.520   6.996   2.621
 2017TIP3    H2 5997   5.520   6.905   2.500
 2018TIP3   OH2 5998   6.137   6.623   1.139
 2018TIP3    H1 5999   6.211   6.609   1.079
 2018TIP3    H2 6000   6.066   6.652   1.083
 2019TIP3   OH2 6001   2.637   6.337   2.754
 2019TIP3    H1 6002   2.721   6.362   2.794
 2019TIP3    H2 6003   2.619   6.250   2.791
 2020TIP3   OH2 6004   0.087   6.405   2.942
 2020TIP3    H1 6005   0.109   6.315   2.968
 2020TIP3    H2 6006   0.004   6.397   2.895
 2021TIP3   OH2 6007   4.313   1.190   4.308
 2021TIP3    H1 6008   4.377   1.258   4.290
 2021TIP3    H2 6009   4.241   1.208   4.247
 2022TIP3   OH2 6010   6.329   5.436   4.385
 2022TIP3    H1 6011   6.381   5.464   4.460
 2022TIP3    H2 6012   6.246   5.406   4.423
 2023TIP3   OH2 6013   2.144   0.768   0.741
 2023TIP3    H1 6014   2.068   0.825   0.727
 2023TIP3    H2 6015   2.107   0.680   0.745
 2024TIP3   OH2 6016   3.926   1.130   3.140
 2024TIP3    H1 6017   3.872   1.065   3.096
 2024TIP3    H2 6018   4.016   1.109   3.115
 2025TIP3   OH2 6019   7.782   3.042   0.536
 2025TIP3    H1 6020   7.747   2.967   0.583
 2025TIP3    H2 6021   7.791   3.012   0.445
 2026TIP3   OH2 6022   2.593   2.579   5.189
 2026TIP3    H1 6023   2.602   2.575   5.284
 2026TIP3    H2 6024   2.632   2.664   5.165
 2027TIP3   OH2 6025   8.000   0.247   5.344
 2027TIP3    H1 6026   8.033   0.284   5.426
 2027TIP3    H2 6027   7.975   0.158   5.367
 2028TIP3   OH2 6028   4.235   3.408   6.611
 2028TIP3    H1 6029   4.176   3.472   6.651
 2028TIP3    H2 6030   4.314   3.458   6.590
 2029TIP3   OH2 6031   0.553   7.045  -0.011
 2029TIP3    H1 6032   0.506   7.127   0.001
 2029TIP3    H2 6033   0.571   7.015   0.078
 2030TIP3   OH2 6034   6.484   2.367   2.241
 2030TIP3    H1 6035   6.508   2.435   2.305
 2030TIP3    H2 6036   6.506   2.406   2.156
 2031TIP3   OH2 6037   2.793   5.762   4.298
 2031TIP3    H1 6038   2.873   5.808   4.273
 2031TIP3    H2 6039   2.820   5.705   4.370
 2032TIP3   OH2 6040   6.745   0.437   5.198
 2032TIP3    H1 6041   6.819   0.398   5.152
 2032TIP3    H2 6042   6.758   0.412   5.290
 2033TIP3   OH2 6043   2.640   2.291   5.045
 2033TIP3    H1 6044   2.629   2.238   5.124
 2033TIP3    H2 6045   2.596   2.373   5.065
 2034TIP3   OH2 6046   0.265   5.778   3.616
 2034TIP3    H1 6047   0.269   5.724   3.538
 2034TIP3    H2 6048   0.262   5.868   3.583
 2035TIP3   OH2 6049   7.610   4.643   3.376
 2035TIP3    H1 6050   7.610   4.594   3.293
 2035TIP3    H2 6051   7.691   4.694   3.373
 2036TIP3   OH2 6052   4.940   3.597   6.412
 2036TIP3    H1 6053   4.977   3.658   6.348
 2036TIP3    H2 6054   4.912   3.653   6.484
 2037TIP3   OH2 6055   2.714   7.488   0.090
 2037TIP3    H1 6056   2.797   7.531   0.109
 2037TIP3    H2 6057   2.739   7.399   0.065
 2038TIP3   OH2 6058   2.849   3.697   0.598
 2038TIP3    H1 6059   2.916   3.719   0.663
 2038TIP3    H2 6060   2.831   3.604   0.614
 2039TIP3   OH2 6061   4.761   1.293   3.553
 2039TIP3    H1 6062   4.849   1.276   3.521
 2039TIP3    H2 6063   4.725   1.358   3.492
 2040TIP3   OH2 6064   5.972   4.675   4.511
 2040TIP3    H1 6065   5.960   4.761   4.471
 2040TIP3    H2 6066   5.918   4.678   4.590
 2041TIP3   OH2 6067   6.715   3.708   1.006
 2041TIP3    H1 6068   6.761   3.665   0.934
 2041TIP3    H2 6069   6.723   3.647   1.079
 2042TIP3   OH2 6070   4.208   2.169   1.550
 2042TIP3    H1 6071   4.168   2.165   1.637
 2042TIP3    H2 6072   4.134   2.186   1.491
 2043TIP3   OH2 6073   7.631   6.445   0.116
 2043TIP3    H1 6074   7.643   6.394   0.195
 2043TIP3    H2 6075   7.643   6.382   0.044
 2044TIP3   OH2 6076   5.341   3.121   2.878
 2044TIP3    H1 6077   5.284   3.045   2.871
 2044TIP3    H2 6078   5.428   3.084   2.897
 2045TIP3   OH2 6079   7.569   3.243   0.559
 2045TIP3    H1 6080   7.638   3.177   0.549
 2045TIP3    H2 6081   7.496   3.195   0.599
 2046TIP3   OH2 6082   5.867   0.634   1.059
 2046TIP3    H1 6083   5.859   0.729   1.055
 2046TIP3    H2 6084   5.945   0.619   1.113
 2047TIP3   OH2 6085   8.085   3.538   4.227
 2047TIP3    H1 6086   8.127   3.500   4.150
 2047TIP3    H2 6087   8.154   3.590   4.268
 2048TIP3   OH2 6088   3.819  -0.010   6.341
 2048TIP3    H1 6089   3.737   0.035   6.360
 2048TIP3    H2 6090   3.875   0.057   6.301
 2049TIP3   OH2 6091   1.133   0.128   0.403
 2049TIP3    H1 6092   1.094   0.049   0.439
 2049TIP3    H2 6093   1.069   0.197   0.421
 2050TIP3   OH2 6094   3.586   6.717   6.729
 2050TIP3    H1 6095   3.515   6.657   6.707
 2050TIP3    H2 6096   3.626   6.739   6.645
 2051TIP3   OH2 6097   2.565   7.804   5.056
 2051TIP3    H1 6098   2.656   7.778   5.044
 2051TIP3    H2 6099   2.523   7.728   5.097
 2052TIP3   OH2 6100   7.041   5.910   5.817
 2052TIP3    H1 6101   7.135   5.908   5.797
 2052TIP3    H2 6102   6.999   5.886   5.734
 2053TIP3   OH2 6103   0.266   6.175   5.882
 2053TIP3    H1 6104   0.186   6.227   5.892
 2053TIP3    H2 6105   0.297   6.162   5.972
 2054TIP3   OH2 6106   6.028   1.799   4.989
 2054TIP3    H1 6107   6.101   1.741   4.966
 2054TIP3    H2 6108   5.952   1.740   4.995
 2055TIP3   OH2 6109   4.796   2.968   1.091
 2055TIP3    H1 6110   4.816   2.959   0.998
 2055TIP3    H2 6111   4.875   2.939   1.135
 2056TIP3   OH2 6112   6.632   7.352   3.190
 2056TIP3    H1 6113   6.559   7.409   3.166
 2056TIP3    H2 6114   6.667   7.390   3.270
 2057TIP3   OH2 6115   2.986   6.155   3.089
 2057TIP3    H1 6116   2.928   6.138   3.015
 2057TIP3    H2 6117   2.928   6.193   3.156
 2058TIP3   OH2 6118   6.901   5.171   2.399
 2058TIP3    H1 6119   6.982   5.149   2.353
 2058TIP3    H2 6120   6.858   5.087   2.412
 2059TIP3   OH2 6121   0.789   4.850   5.734
 2059TIP3    H1 6122   0.792   4.783   5.666
 2059TIP3    H2 6123   0.746   4.924   5.693
 2060TIP3   OH2 6124   5.319   6.207   3.625
 2060TIP3    H1 6125   5.341   6.299   3.605
 2060TIP3    H2 6126   5.332   6.162   3.542
 2061TIP3   OH2 6127   7.443   0.653   5.174
 2061TIP3    H1 6128   7.523   0.704   5.182
 2061TIP3    H2 6129   7.462   0.572   5.221
 2062TIP3   OH2 6130   8.175   2.288   3.216
 2062TIP3    H1 6131   8.197   2.379   3.236
 2062TIP3    H2 6132   8.234   2.264   3.145
 2063TIP3   OH2 6133   1.630   2.240   3.626
 2063TIP3    H1 6134   1.586   2.198   3.700
 2063TIP3    H2 6135   1.723   2.225   3.643
 2064TIP3   OH2 6136   1.278   3.085   0.512
 2064TIP3    H1 6137   1.310   3.101   0.601
 2064TIP3    H2 6138   1.201   3.029   0.524
 2065TIP3   OH2 6139   1.969   2.218   0.372
 2065TIP3    H1 6140   1.956   2.161   0.295
 2065TIP3    H2 6141   2.008   2.298   0.336
 2066TIP3   OH2 6142   3.262   3.158   6.726
 2066TIP3    H1 6143   3.316   3.229   6.692
 2066TIP3    H2 6144   3.228   3.192   6.809
 2067TIP3   OH2 6145   5.143   4.050   6.348
 2067TIP3    H1 6146   5.078   4.085   6.287
 2067TIP3    H2 6147   5.094   4.034   6.429
 2068TIP3   OH2 6148   3.550   5.766   0.123
 2068TIP3    H1 6149   3.552   5.844   0.068
 2068TIP3    H2 6150   3.540   5.693   0.061
 2069TIP3   OH2 6151   4.603   7.380   0.432
 2069TIP3    H1 6152   4.652   7.462   0.426
 2069TIP3    H2 6153   4.663   7.320   0.476
 2070TIP3   OH2 6154   2.679   1.050   5.870
 2070TIP3    H1 6155   2.759   1.095   5.842
 2070TIP3    H2 6156   2.636   1.025   5.788
 2071TIP3   OH2 6157   0.168   5.363   4.116
 2071TIP3    H1 6158   0.206   5.450   4.126
 2071TIP3    H2 6159   0.216   5.323   4.044
 2072TIP3   OH2 6160   6.090   5.758   6.399
 2072TIP3    H1 6161   6.054   5.760   6.310
 2072TIP3    H2 6162   6.176   5.719   6.389
 2073TIP3   OH2 6163   5.533   4.797   3.455
 2073TIP3    H1 6164   5.505   4.777   3.366
 2073TIP3    H2 6165   5.584   4.877   3.447
 2074TIP3   OH2 6166   4.698   4.515   2.490
 2074TIP3    H1 6167   4.699   4.608   2.514
 2074TIP3    H2 6168   4.716   4.515   2.396
 2075TIP3   OH2 6169   5.472   2.860   0.676
 2075TIP3    H1 6170   5.401   2.924   0.677
 2075TIP3    H2 6171   5.539   2.897   0.734
 2076TIP3   OH2 6172   2.181   4.815   1.670
 2076TIP3    H1 6173   2.261   4.764   1.657
 2076TIP3    H2 6174   2.162   4.806   1.764
 2077TIP3   OH2 6175   5.998   0.517   3.687
 2077TIP3    H1 6176   5.911   0.545   3.658
 2077TIP3    H2 6177   6.032   0.593   3.735
 2078TIP3   OH2 6178   2.373   7.303   6.119
 2078TIP3    H1 6179   2.414   7.217   6.127
 2078TIP3    H2 6180   2.286   7.286   6.082
 2079TIP3   OH2 6181   7.635   3.897   1.743
 2079TIP3    H1 6182   7.687   3.948   1.680
 2079TIP3    H2 6183   7.628   3.953   1.820
 2080TIP3   OH2 6184   1.058   4.465   6.498
 2080TIP3    H1 6185   1.050   4.555   6.467
 2080TIP3    H2 6186   1.147   4.440   6.476
 2081TIP3   OH2 6187   6.501   1.749   5.061
 2081TIP3    H1 6188   6.454   1.819   5.105
 2081TIP3    H2 6189   6.529   1.691   5.132
 2082TIP3   OH2 6190   7.729   3.502   2.139
 2082TIP3    H1 6191   7.769   3.564   2.199
 2082TIP3    H2 6192   7.635   3.511   2.154
 2083TIP3   OH2 6193   1.639   0.133   4.893
 2083TIP3    H1 6194   1.562   0.180   4.862
 2083TIP3    H2 6195   1.673   0.089   4.815
 2084TIP3   OH2 6196   5.973   5.542   0.238
 2084TIP3    H1 6197   6.022   5.619   0.268
 2084TIP3    H2 6198   5.985   5.542   0.143
 2085TIP3   OH2 6199   1.161   4.649   3.358
 2085TIP3    H1 6200   1.103   4.615   3.289
 2085TIP3    H2 6201   1.239   4.594   3.354
 2086TIP3   OH2 6202   4.338   5.146   3.109
 2086TIP3    H1 6203   4.262   5.157   3.166
 2086TIP3    H2 6204   4.413   5.170   3.163
 2087TIP3   OH2 6205   3.843   0.594   6.256
 2087TIP3    H1 6206   3.768   0.640   6.218
 2087TIP3    H2 6207   3.840   0.507   6.217
 2088TIP3   OH2 6208   5.361   5.982   6.757
 2088TIP3    H1 6209   5.374   5.887   6.754
 2088TIP3    H2 6210   5.414   6.016   6.685
 2089TIP3   OH2 6211   1.325   4.686   1.329
 2089TIP3    H1 6212   1.417   4.661   1.323
 2089TIP3    H2 6213   1.327   4.779   1.355
 2090TIP3   OH2 6214   3.046   4.282   5.587
 2090TIP3    H1 6215   3.096   4.201   5.599
 2090TIP3    H2 6216   2.981   4.260   5.521
 2091TIP3   OH2 6217   5.223   7.065   4.284
 2091TIP3    H1 6218   5.202   6.973   4.303
 2091TIP3    H2 6219   5.180   7.083   4.201
 2092TIP3   OH2 6220   4.756   4.806   3.258
 2092TIP3    H1 6221   4.788   4.755   3.184
 2092TIP3    H2 6222   4.832   4.817   3.314
 2093TIP3   OH2 6223   1.384   0.131   4.710
 2093TIP3    H1 6224   1.299   0.175   4.713
 2093TIP3    H2 6225   1.378   0.064   4.779
 2094TIP3   OH2 6226   2.758   4.879   5.063
 2094TIP3    H1 6227   2.765   4.973   5.080
 2094TIP3    H2 6228   2.686   4.850   5.118
 2095TIP3   OH2 6229   0.952   1.357   2.179
 2095TIP3    H1 6230   0.911   1.290   2.124
 2095TIP3    H2 6231   0.996   1.416   2.117
 2096TIP3   OH2 6232   0.183   6.043   3.805
 2096TIP3    H1 6233   0.272   6.025   3.774
 2096TIP3    H2 6234   0.184   6.137   3.825
 2097TIP3   OH2 6235   5.306   6.034   5.826
 2097TIP3    H1 6236   5.342   6.122   5.834
 2097TIP3    H2 6237   5.382   5.976   5.826
 2098TIP3   OH2 6238   1.995   4.850   5.725
 2098TIP3    H1 6239   1.996   4.935   5.769
 2098TIP3    H2 6240   1.998   4.786   5.796
 2099TIP3   OH2 6241   1.887   5.611   4.287
 2099TIP3    H1 6242   1.865   5.518   4.286
 2099TIP3    H2 6243   1.951   5.620   4.359
 2100TIP3   OH2 6244   7.836   4.520   5.995
 2100TIP3    H1 6245   7.914   4.534   5.941
 2100TIP3    H2 6246   7.834   4.595   6.054
 2101TIP3   OH2 6247   4.998   0.436   5.912
 2101TIP3    H1 6248   4.960   0.357   5.951
 2101TIP3    H2 6249   5.057   0.403   5.844
 2102TIP3   OH2 6250   5.953   5.369   4.872
 2102TIP3    H1 6251   5.906   5.327   4.944
 2102TIP3    H2 6252   5.920   5.459   4.871
 2103TIP3   OH2 6253   5.672   1.827   2.834
 2103TIP3    H1 6254   5.711   1.909   2.805
 2103TIP3    H2 6255   5.735   1.791   2.896
 2104TIP3   OH2 6256   1.146   7.439   6.554
 2104TIP3    H1 6257   1.134   7.502   6.625
 2104TIP3    H2 6258   1.077   7.374   6.568
 2105TIP3   OH2 6259   3.975   4.312   1.865
 2105TIP3    H1 6260   4.039   4.289   1.798
 2105TIP3    H2 6261   4.027   4.343   1.939
 2106TIP3   OH2 6262   4.186   5.414   4.592
 2106TIP3    H1 6263   4.094   5.406   4.565
 2106TIP3    H2 6264   4.212   5.501   4.563
 2107TIP3   OH2 6265   6.115   2.482   3.080
 2107TIP3    H1 6266   6.059   2.487   3.003
 2107TIP3    H2 6267   6.089   2.557   3.133
 2108TIP3   OH2 6268   0.678   7.001   0.989
 2108TIP3    H1 6269   0.660   6.908   1.001
 2108TIP3    H2 6270   0.644   7.042   1.068
 2109TIP3   OH2 6271   5.163   3.498   2.421
 2109TIP3    H1 6272   5.131   3.581   2.386
 2109TIP3    H2 6273   5.120   3.489   2.506
 2110TIP3   OH2 6274   2.204   4.480   5.967
 2110TIP3    H1 6275   2.281   4.517   6.011
 2110TIP3    H2 6276   2.141   4.552   5.964
 2111TIP3   OH2 6277   5.503   1.737   6.027
 2111TIP3    H1 6278   5.521   1.702   5.941
 2111TIP3    H2 6279   5.408   1.752   6.028
 2112TIP3   OH2 6280   3.334   3.566   4.768
 2112TIP3    H1 6281   3.364   3.508   4.837
 2112TIP3    H2 6282   3.403   3.632   4.759
 2113TIP3   OH2 6283   7.138   3.003   5.841
 2113TIP3    H1 6284   7.188   2.964   5.770
 2113TIP3    H2 6285   7.116   2.930   5.898
 2114TIP3   OH2 6286   8.100   7.168   6.191
 2114TIP3    H1 6287   8.124   7.123   6.110
 2114TIP3    H2 6288   8.184   7.195   6.229
 2115TIP3   OH2 6289   0.925   3.952   5.955
 2115TIP3    H1 6290   0.983   3.943   5.880
 2115TIP3    H2 6291   0.955   3.885   6.016
 2116TIP3   OH2 6292   6.750   5.840   3.773
 2116TIP3    H1 6293   6.773   5.933   3.779
 2116TIP3    H2 6294   6.655   5.839   3.765
 2117TIP3   OH2 6295   3.484   4.201   2.343
 2117TIP3    H1 6296   3.401   4.209   2.390
 2117TIP3    H2 6297   3.547   4.248   2.397
 2118TIP3   OH2 6298   7.738   0.416   3.920
 2118TIP3    H1 6299   7.675   0.483   3.946
 2118TIP3    H2 6300   7.774   0.447   3.837
 2119TIP3   OH2 6301   4.434   5.920   0.776
 2119TIP3    H1 6302   4.462   5.952   0.690
 2119TIP3    H2 6303   4.409   5.829   0.760
 2120TIP3   OH2 6304   7.107   4.960   2.472
 2120TIP3    H1 6305   7.025   4.911   2.480
 2120TIP3    H2 6306   7.170   4.910   2.524
 2121TIP3   OH2 6307   5.580   5.136   4.164
 2121TIP3    H1 6308   5.511   5.073   4.148
 2121TIP3    H2 6309   5.644   5.121   4.094
 2122TIP3   OH2 6310   1.735   6.110   0.611
 2122TIP3    H1 6311   1.813   6.088   0.662
 2122TIP3    H2 6312   1.712   6.199   0.639
 2123TIP3   OH2 6313   4.768   5.439   5.188
 2123TIP3    H1 6314   4.819   5.432   5.108
 2123TIP3    H2 6315   4.821   5.396   5.255
 2124TIP3   OH2 6316   6.006   4.711   6.596
 2124TIP3    H1 6317   5.912   4.726   6.590
 2124TIP3    H2 6318   6.024   4.710   6.690
 2125TIP3   OH2 6319   7.362   0.015   1.625
 2125TIP3    H1 6320   7.268   0.024   1.636
 2125TIP3    H2 6321   7.385   0.079   1.558
 2126TIP3   OH2 6322   5.682   6.938   4.192
 2126TIP3    H1 6323   5.702   6.936   4.098
 2126TIP3    H2 6324   5.768   6.931   4.234
 2127TIP3   OH2 6325   3.402   0.712   0.839
 2127TIP3    H1 6326   3.462   0.667   0.899
 2127TIP3    H2 6327   3.450   0.792   0.814
 2128TIP3   OH2 6328   3.918   2.084   5.404
 2128TIP3    H1 6329   3.911   2.003   5.455
 2128TIP3    H2 6330   3.834   2.129   5.418
 2129TIP3   OH2 6331   6.504   1.858   1.349
 2129TIP3    H1 6332   6.560   1.887   1.420
 2129TIP3    H2 6333   6.558   1.796   1.300
 2130TIP3   OH2 6334   7.821   0.684   1.346
 2130TIP3    H1 6335   7.790   0.602   1.307
 2130TIP3    H2 6336   7.858   0.658   1.430
 2131TIP3   OH2 6337   5.616   3.330   1.776
 2131TIP3    H1 6338   5.601   3.237   1.763
 2131TIP3    H2 6339   5.660   3.359   1.696
 2132TIP3   OH2 6340   6.251   4.907   3.655
 2132TIP3    H1 6341   6.161   4.917   3.623
 2132TIP3    H2 6342   6.244   4.845   3.727
 2133TIP3   OH2 6343   5.948   1.293   0.102
 2133TIP3    H1 6344   6.041   1.294   0.079
 2133TIP3    H2 6345   5.936   1.369   0.159
 2134TIP3   OH2 6346   5.115   4.040   1.241
 2134TIP3    H1 6347   5.134   4.095   1.165
 2134TIP3    H2 6348   5.035   3.993   1.216
 2135TIP3   OH2 6349   6.532   3.380   4.050
 2135TIP3    H1 6350   6.437   3.395   4.049
 2135TIP3    H2 6351   6.541   3.284   4.052
 2136TIP3   OH2 6352   2.131   4.801   0.962
 2136TIP3    H1 6353   2.206   4.762   0.916
 2136TIP3    H2 6354   2.100   4.731   1.020
 2137TIP3   OH2 6355   6.052   2.141   2.650
 2137TIP3    H1 6356   6.079   2.160   2.560
 2137TIP3    H2 6357   5.978   2.081   2.641
 2138TIP3   OH2 6358   1.616   3.060   4.023
 2138TIP3    H1 6359   1.605   3.012   4.105
 2138TIP3    H2 6360   1.707   3.090   4.025
 2139TIP3   OH2 6361   7.556   1.000   0.615
 2139TIP3    H1 6362   7.603   1.015   0.697
 2139TIP3    H2 6363   7.476   1.051   0.623
 2140TIP3   OH2 6364   4.463   5.815   1.032
 2140TIP3    H1 6365   4.447   5.840   0.942
 2140TIP3    H2 6366   4.384   5.841   1.079
 2141TIP3   OH2 6367   2.716   1.801   0.151
 2141TIP3    H1 6368   2.776   1.727   0.150
 2141TIP3    H2 6369   2.695   1.815   0.058
 2142TIP3   OH2 6370   6.844   5.186   1.661
 2142TIP3    H1 6371   6.836   5.156   1.571
 2142TIP3    H2 6372   6.938   5.182   1.679
 2143TIP3   OH2 6373   2.028   2.417   5.980
 2143TIP3    H1 6374   1.941   2.427   6.020
 2143TIP3    H2 6375   2.014   2.438   5.888
 2144TIP3   OH2 6376   0.661   4.035   6.306
 2144TIP3    H1 6377   0.704   4.052   6.222
 2144TIP3    H2 6378   0.595   4.105   6.314
 2145TIP3   OH2 6379   2.662   5.014   4.660
 2145TIP3    H1 6380   2.593   4.948   4.650
 2145TIP3    H2 6381   2.725   4.993   4.591
 2146TIP3   OH2 6382   5.070   6.292   4.150
 2146TIP3    H1 6383   5.005   6.224   4.165
 2146TIP3    H2 6384   5.150   6.259   4.192
 2147TIP3   OH2 6385   4.580   0.691   6.123
 2147TIP3    H1 6386   4.572   0.787   6.122
 2147TIP3    H2 6387   4.662   0.673   6.077
 2148TIP3   OH2 6388   3.484   6.568   2.365
 2148TIP3    H1 6389   3.491   6.473   2.376
 2148TIP3    H2 6390   3.500   6.583   2.272
 2149TIP3   OH2 6391   2.125   2.715   3.599
 2149TIP3    H1 6392   2.212   2.707   3.559
 2149TIP3    H2 6393   2.095   2.625   3.610
 2150TIP3   OH2 6394   0.376   1.491   1.602
 2150TIP3    H1 6395   0.355   1.584   1.599
 2150TIP3    H2 6396   0.295   1.450   1.633
 2151TIP3   OH2 6397   5.725   6.686   4.345
 2151TIP3    H1 6398   5.818   6.707   4.338
 2151TIP3    H2 6399   5.698   6.667   4.255
 2152TIP3   OH2 6400   4.923   5.925   1.931
 2152TIP3    H1 6401   4.974   5.945   2.010
 2152TIP3    H2 6402   4.968   5.851   1.892
 2153TIP3   OH2 6403   1.908   5.154   5.883
 2153TIP3    H1 6404   1.911   5.215   5.957
 2153TIP3    H2 6405   1.831   5.099   5.901
 2154TIP3   OH2 6406   5.062   1.243   0.693
 2154TIP3    H1 6407   5.010   1.323   0.686
 2154TIP3    H2 6408   5.034   1.190   0.619
 2155TIP3   OH2 6409   5.962   7.365   6.558
 2155TIP3    H1 6410   5.935   7.456   6.568
 2155TIP3    H2 6411   6.051   7.369   6.523
 2156TIP3   OH2 6412   1.533   5.255   6.683
 2156TIP3    H1 6413   1.526   5.348   6.702
 2156TIP3    H2 6414   1.580   5.219   6.758
 2157TIP3   OH2 6415   4.163   0.533   4.697
 2157TIP3    H1 6416   4.238   0.544   4.638
 2157TIP3    H2 6417   4.103   0.602   4.673
 2158TIP3   OH2 6418   4.871   4.500   5.828
 2158TIP3    H1 6419   4.813   4.499   5.752
 2158TIP3    H2 6420   4.907   4.588   5.829
 2159TIP3   OH2 6421   6.151   0.008   3.828
 2159TIP3    H1 6422   6.085   0.073   3.805
 2159TIP3    H2 6423   6.234   0.055   3.820
 2160TIP3   OH2 6424   4.421   3.130   0.716
 2160TIP3    H1 6425   4.477   3.206   0.703
 2160TIP3    H2 6426   4.477   3.066   0.760
 2161TIP3   OH2 6427   4.855   4.135   2.917
 2161TIP3    H1 6428   4.872   4.074   2.988
 2161TIP3    H2 6429   4.939   4.141   2.871
 2162TIP3   OH2 6430   6.764   2.031   3.332
 2162TIP3    H1 6431   6.774   2.099   3.399
 2162TIP3    H2 6432   6.747   2.080   3.251
 2163TIP3   OH2 6433   4.744   3.363   5.918
 2163TIP3    H1 6434   4.709   3.298   5.858
 2163TIP3    H2 6435   4.726   3.447   5.877
 2164TIP3   OH2 6436   3.041   1.630   3.015
 2164TIP3    H1 6437   2.998   1.570   2.954
 2164TIP3    H2 6438   3.104   1.575   3.062
 2165TIP3   OH2 6439   6.359   3.300   0.083
 2165TIP3    H1 6440   6.355   3.370   0.019
 2165TIP3    H2 6441   6.320   3.224   0.039
 2166TIP3   OH2 6442   3.949   4.815   2.166
 2166TIP3    H1 6443   4.034   4.853   2.186
 2166TIP3    H2 6444   3.897   4.887   2.131
 2167TIP3   OH2 6445   5.389   6.122   3.331
 2167TIP3    H1 6446   5.379   6.211   3.299
 2167TIP3    H2 6447   5.354   6.066   3.261
 2168TIP3   OH2 6448   3.759   2.870   3.493
 2168TIP3    H1 6449   3.843   2.915   3.497
 2168TIP3    H2 6450   3.757   2.813   3.570
 2169TIP3   OH2 6451   3.586   7.104   4.846
 2169TIP3    H1 6452   3.521   7.062   4.902
 2169TIP3    H2 6453   3.618   7.178   4.897
 2170TIP3   OH2 6454   7.754   0.459   2.143
 2170TIP3    H1 6455   7.753   0.373   2.185
 2170TIP3    H2 6456   7.730   0.519   2.213
 2171TIP3   OH2 6457   4.538   1.244   6.052
 2171TIP3    H1 6458   4.461   1.294   6.024
 2171TIP3    H2 6459   4.612   1.302   6.034
 2172TIP3   OH2 6460   6.944   4.912   4.727
 2172TIP3    H1 6461   6.907   4.859   4.656
 2172TIP3    H2 6462   6.922   5.002   4.704
 2173TIP3   OH2 6463   2.031   5.045   1.031
 2173TIP3    H1 6464   2.066   4.960   1.003
 2173TIP3    H2 6465   2.040   5.045   1.126
 2174TIP3   OH2 6466   6.594   6.438   6.585
 2174TIP3    H1 6467   6.513   6.406   6.545
 2174TIP3    H2 6468   6.577   6.432   6.679
 2175TIP3   OH2 6469   4.576   5.587   2.877
 2175TIP3    H1 6470   4.492   5.605   2.920
 2175TIP3    H2 6471   4.629   5.547   2.946
 2176TIP3   OH2 6472   2.882   0.119   4.709
 2176TIP3    H1 6473   2.929   0.199   4.734
 2176TIP3    H2 6474   2.802   0.150   4.668
 2177TIP3   OH2 6475   3.033   4.567   3.546
 2177TIP3    H1 6476   3.045   4.658   3.518
 2177TIP3    H2 6477   2.943   4.563   3.577
 2178TIP3   OH2 6478   2.476   6.452   2.985
 2178TIP3    H1 6479   2.462   6.546   2.986
 2178TIP3    H2 6480   2.502   6.431   2.896
 2179TIP3   OH2 6481   2.767   6.191   4.758
 2179TIP3    H1 6482   2.735   6.103   4.779
 2179TIP3    H2 6483   2.821   6.216   4.833
 2180TIP3   OH2 6484   1.820   0.029   3.391
 2180TIP3    H1 6485   1.735   0.000   3.357
 2180TIP3    H2 6486   1.825   0.121   3.368
 2181TIP3   OH2 6487   1.919   2.920   3.840
 2181TIP3    H1 6488   1.861   2.855   3.801
 2181TIP3    H2 6489   1.863   2.971   3.897
 2182TIP3   OH2 6490   0.572   5.810   2.187
 2182TIP3    H1 6491   0.484   5.779   2.207
 2182TIP3    H2 6492   0.559   5.877   2.119
 2183TIP3   OH2 6493   1.972   0.205   2.663
 2183TIP3    H1 6494   2.041   0.238   2.721
 2183TIP3    H2 6495   2.019   0.151   2.599
 2184TIP3   OH2 6496   0.889   7.324   3.209
 2184TIP3    H1 6497   0.822   7.266   3.173
 2184TIP3    H2 6498   0.846   7.368   3.283
 2185TIP3   OH2 6499   1.978   6.421   6.123
 2185TIP3    H1 6500   1.939   6.416   6.035
 2185TIP3    H2 6501   2.000   6.331   6.145
 2186TIP3   OH2 6502   7.079   1.340   4.244
 2186TIP3    H1 6503   7.091   1.290   4.325
 2186TIP3    H2 6504   7.074   1.274   4.175
 2187TIP3   OH2 6505   1.546   1.716   4.104
 2187TIP3    H1 6506   1.469   1.772   4.113
 2187TIP3    H2 6507   1.557   1.706   4.009
 2188TIP3   OH2 6508   0.302   7.177   2.375
 2188TIP3    H1 6509   0.313   7.213   2.463
 2188TIP3    H2 6510   0.207   7.172   2.362
 2189TIP3   OH2 6511   3.161   6.962   2.823
 2189TIP3    H1 6512   3.247   6.958   2.780
 2189TIP3    H2 6513   3.113   6.887   2.788
 2190TIP3   OH2 6514   7.334   4.264   6.663
 2190TIP3    H1 6515   7.339   4.177   6.623
 2190TIP3    H2 6516   7.359   4.324   6.592
 2191TIP3   OH2 6517   4.477   1.111   3.565
 2191TIP3    H1 6518   4.555   1.143   3.610
 2191TIP3    H2 6519   4.475   1.160   3.483
 2192TIP3   OH2 6520   3.609   7.632   3.981
 2192TIP3    H1 6521   3.613   7.711   3.926
 2192TIP3    H2 6522   3.522   7.636   4.022
 2193TIP3   OH2 6523   4.433   5.796   5.871
 2193TIP3    H1 6524   4.398   5.883   5.849
 2193TIP3    H2 6525   4.363   5.735   5.846
 2194TIP3   OH2 6526   3.056   5.715   4.219
 2194TIP3    H1 6527   3.072   5.786   4.158
 2194TIP3    H2 6528   3.120   5.728   4.289
 2195TIP3   OH2 6529   1.064   1.211   5.775
 2195TIP3    H1 6530   1.097   1.266   5.845
 2195TIP3    H2 6531   1.097   1.251   5.695
 2196TIP3   OH2 6532   3.252   1.389   3.395
 2196TIP3    H1 6533   3.268   1.371   3.488
 2196TIP3    H2 6534   3.339   1.392   3.356
 2197TIP3   OH2 6535   2.825   5.304   2.038
 2197TIP3    H1 6536   2.844   5.239   2.106
 2197TIP3    H2 6537   2.804   5.252   1.961
 2198TIP3   OH2 6538   6.734   6.064   5.128
 2198TIP3    H1 6539   6.770   6.151   5.143
 2198TIP3    H2 6540   6.809   6.005   5.132
 2199TIP3   OH2 6541   8.075   7.288   5.476
 2199TIP3    H1 6542   8.103   7.244   5.396
 2199TIP3    H2 6543   8.123   7.370   5.477
 2200TIP3   OH2 6544   2.252   4.481   5.058
 2200TIP3    H1 6545   2.265   4.509   5.149
 2200TIP3    H2 6546   2.232   4.388   5.065
 2201TIP3   OH2 6547   5.716   0.423   2.109
 2201TIP3    H1 6548   5.668   0.342   2.128
 2201TIP3    H2 6549   5.761   0.444   2.191
 2202TIP3   OH2 6550   6.856   2.275   6.537
 2202TIP3    H1 6551   6.802   2.340   6.491
 2202TIP3    H2 6552   6.805   2.194   6.534
 2203TIP3   OH2 6553   4.285   6.820   1.987
 2203TIP3    H1 6554   4.313   6.906   2.020
 2203TIP3    H2 6555   4.358   6.762   2.008
 2204TIP3   OH2 6556   5.524   6.526   0.820
 2204TIP3    H1 6557   5.610   6.483   0.813
 2204TIP3    H2 6558   5.545   6.612   0.857
 2205TIP3   OH2 6559   5.506   7.301   0.814
 2205TIP3    H1 6560   5.510   7.335   0.725
 2205TIP3    H2 6561   5.450   7.364   0.861
 2206TIP3   OH2 6562   1.862   6.901   4.668
 2206TIP3    H1 6563   1.854   6.810   4.698
 2206TIP3    H2 6564   1.793   6.948   4.715
 2207TIP3   OH2 6565   2.686   7.376   6.631
 2207TIP3    H1 6566   2.637   7.294   6.643
 2207TIP3    H2 6567   2.645   7.417   6.555
 2208TIP3   OH2 6568   3.408   5.916   6.341
 2208TIP3    H1 6569   3.405   5.821   6.343
 2208TIP3    H2 6570   3.354   5.943   6.415
 2209TIP3   OH2 6571  -0.034   5.520   2.348
 2209TIP3    H1 6572   0.006   5.459   2.286
 2209TIP3    H2 6573   0.040   5.561   2.393
 2210TIP3   OH2 6574   3.713   1.885   1.903
 2210TIP3    H1 6575   3.701   1.795   1.934
 2210TIP3    H2 6576   3.640   1.934   1.942
 2211TIP3   OH2 6577   7.780   7.293   3.136
 2211TIP3    H1 6578   7.715   7.341   3.188
 2211TIP3    H2 6579   7.850   7.273   3.198
 2212TIP3   OH2 6580   8.088   6.741   2.329
 2212TIP3    H1 6581   8.174   6.783   2.341
 2212TIP3    H2 6582   8.066   6.758   2.238
 2213TIP3   OH2 6583   2.527   5.001   2.472
 2213TIP3    H1 6584   2.442   5.041   2.456
 2213TIP3    H2 6585   2.586   5.042   2.408
 2214TIP3   OH2 6586   0.533   5.056   3.741
 2214TIP3    H1 6587   0.601   5.004   3.698
 2214TIP3    H2 6588   0.564   5.146   3.735
 2215TIP3   OH2 6589   3.185   6.104   2.489
 2215TIP3    H1 6590   3.231   6.022   2.473
 2215TIP3    H2 6591   3.128   6.115   2.413
 2216TIP3   OH2 6592   6.151   4.301   3.884
 2216TIP3    H1 6593   6.128   4.208   3.876
 2216TIP3    H2 6594   6.154   4.333   3.794
 2217TIP3   OH2 6595   3.542   7.807   3.052
 2217TIP3    H1 6596   3.527   7.726   3.004
 2217TIP3    H2 6597   3.607   7.854   3.001
 2218TIP3   OH2 6598   0.642   0.543   4.953
 2218TIP3    H1 6599   0.598   0.591   5.024
 2218TIP3    H2 6600   0.661   0.611   4.888
 2219TIP3   OH2 6601   3.918   7.270   1.083
 2219TIP3    H1 6602   3.983   7.201   1.072
 2219TIP3    H2 6603   3.850   7.249   1.019
 2220TIP3   OH2 6604   6.614   5.785   3.325
 2220TIP3    H1 6605   6.683   5.735   3.369
 2220TIP3    H2 6606   6.649   5.874   3.319
 2221TIP3   OH2 6607   6.530   6.437   1.714
 2221TIP3    H1 6608   6.462   6.411   1.651
 2221TIP3    H2 6609   6.555   6.525   1.687
 2222TIP3   OH2 6610   2.016   4.572   0.736
 2222TIP3    H1 6611   2.080   4.539   0.798
 2222TIP3    H2 6612   2.047   4.659   0.712
 2223TIP3   OH2 6613   6.194   0.835   6.427
 2223TIP3    H1 6614   6.126   0.769   6.414
 2223TIP3    H2 6615   6.276   0.789   6.407
 2224TIP3   OH2 6616   3.846   4.891   0.090
 2224TIP3    H1 6617   3.779   4.921   0.029
 2224TIP3    H2 6618   3.917   4.859   0.035
 2225TIP3   OH2 6619   0.766   4.006   6.543
 2225TIP3    H1 6620   0.728   4.078   6.593
 2225TIP3    H2 6621   0.723   4.011   6.458
 2226TIP3   OH2 6622   4.727   6.813   2.893
 2226TIP3    H1 6623   4.714   6.897   2.849
 2226TIP3    H2 6624   4.822   6.798   2.890
 2227TIP3   OH2 6625   6.661   5.778   2.472
 2227TIP3    H1 6626   6.741   5.749   2.427
 2227TIP3    H2 6627   6.649   5.868   2.444
 2228TIP3   OH2 6628   3.141   6.445   1.534
 2228TIP3    H1 6629   3.078   6.451   1.461
 2228TIP3    H2 6630   3.207   6.383   1.503
 2229TIP3   OH2 6631   6.993   4.766   0.042
 2229TIP3    H1 6632   7.057   4.810   0.098
 2229TIP3    H2 6633   7.042   4.742  -0.036
 2230TIP3   OH2 6634   5.200   1.065   1.794
 2230TIP3    H1 6635   5.294   1.078   1.787
 2230TIP3    H2 6636   5.184   0.979   1.754
 2231TIP3   OH2 6637   1.462   3.518   6.382
 2231TIP3    H1 6638   1.465   3.427   6.353
 2231TIP3    H2 6639   1.549   3.534   6.418
 2232TIP3   OH2 6640   6.706   6.038   4.620
 2232TIP3    H1 6641   6.670   6.050   4.708
 2232TIP3    H2 6642   6.657   5.964   4.584
 2233TIP3   OH2 6643   3.990   5.613   0.382
 2233TIP3    H1 6644   4.001   5.631   0.475
 2233TIP3    H2 6645   3.971   5.519   0.378
 2234TIP3   OH2 6646   7.845   1.583   1.985
 2234TIP3    H1 6647   7.899   1.639   1.929
 2234TIP3    H2 6648   7.775   1.640   2.016
 2235TIP3   OH2 6649   2.499   4.057   4.388
 2235TIP3    H1 6650   2.404   4.053   4.382
 2235TIP3    H2 6651   2.530   4.021   4.305
 2236TIP3   OH2 6652   7.422   2.687   4.959
 2236TIP3    H1 6653   7.459   2.599   4.953
 2236TIP3    H2 6654   7.396   2.708   4.869
 2237TIP3   OH2 6655   6.993   5.221   2.051
 2237TIP3    H1 6656   7.018   5.304   2.091
 2237TIP3    H2 6657   7.030   5.155   2.110
 2238TIP3   OH2 6658   1.973   0.962   5.159
 2238TIP3    H1 6659   2.031   0.903   5.207
 2238TIP3    H2 6660   1.954   0.916   5.078
 2239TIP3   OH2 6661   2.435   1.481   3.776
 2239TIP3    H1 6662   2.506   1.416   3.776
 2239TIP3    H2 6663   2.440   1.521   3.689
 2240TIP3   OH2 6664   0.815   0.917   3.639
 2240TIP3    H1 6665   0.899   0.877   3.662
 2240TIP3    H2 6666   0.775   0.941   3.722
 2241TIP3   OH2 6667   6.470   5.808   1.156
 2241TIP3    H1 6668   6.433   5.754   1.086
 2241TIP3    H2 6669   6.398   5.864   1.185
 2242TIP3   OH2 6670   0.808   3.211   3.248
 2242TIP3    H1 6671   0.791   3.212   3.154
 2242TIP3    H2 6672   0.901   3.231   3.256
 2243TIP3   OH2 6673   7.150   2.418   3.529
 2243TIP3    H1 6674   7.174   2.382   3.615
 2243TIP3    H2 6675   7.063   2.456   3.542
 2244TIP3   OH2 6676   4.516   0.223   4.494
 2244TIP3    H1 6677   4.437   0.175   4.470
 2244TIP3    H2 6678   4.587   0.175   4.451
 2245TIP3   OH2 6679   6.671   3.111   3.975
 2245TIP3    H1 6680   6.700   3.132   3.886
 2245TIP3    H2 6681   6.702   3.022   3.989
 2246TIP3   OH2 6682   1.818   6.629   4.776
 2246TIP3    H1 6683   1.899   6.646   4.824
 2246TIP3    H2 6684   1.819   6.534   4.761
 2247TIP3   OH2 6685   1.100   5.411   2.888
 2247TIP3    H1 6686   1.111   5.471   2.962
 2247TIP3    H2 6687   1.095   5.324   2.929
 2248TIP3   OH2 6688   6.932   2.666   3.088
 2248TIP3    H1 6689   6.989   2.741   3.102
 2248TIP3    H2 6690   6.874   2.693   3.016
 2249TIP3   OH2 6691   2.288   3.952   5.588
 2249TIP3    H1 6692   2.306   3.992   5.503
 2249TIP3    H2 6693   2.346   3.876   5.591
 2250TIP3   OH2 6694   2.956   2.375   0.928
 2250TIP3    H1 6695   3.015   2.450   0.931
 2250TIP3    H2 6696   2.949   2.345   1.019
 2251TIP3   OH2 6697   2.175   5.302   5.684
 2251TIP3    H1 6698   2.080   5.291   5.689
 2251TIP3    H2 6699   2.187   5.382   5.632
 2252TIP3   OH2 6700   1.865   7.772   6.047
 2252TIP3    H1 6701   1.800   7.737   6.108
 2252TIP3    H2 6702   1.813   7.810   5.976
 2253TIP3   OH2 6703   7.987   6.911   1.833
 2253TIP3    H1 6704   8.012   6.866   1.914
 2253TIP3    H2 6705   7.972   7.002   1.859
 2254TIP3   OH2 6706   0.959   1.693   1.955
 2254TIP3    H1 6707   0.886   1.653   2.002
 2254TIP3    H2 6708   0.919   1.734   1.878
 2255TIP3   OH2 6709   7.152   2.714   0.322
 2255TIP3    H1 6710   7.230   2.674   0.361
 2255TIP3    H2 6711   7.177   2.805   0.308
 2256TIP3   OH2 6712   5.012   3.908   4.219
 2256TIP3    H1 6713   5.055   3.826   4.242
 2256TIP3    H2 6714   4.924   3.901   4.257
 2257TIP3   OH2 6715   7.579   1.038   1.375
 2257TIP3    H1 6716   7.669   1.007   1.377
 2257TIP3    H2 6717   7.543   1.001   1.294
 2258TIP3   OH2 6718   3.092   0.859   3.962
 2258TIP3    H1 6719   3.102   0.765   3.976
 2258TIP3    H2 6720   2.997   0.874   3.964
 2259TIP3   OH2 6721   1.988   1.300   3.481
 2259TIP3    H1 6722   2.000   1.222   3.536
 2259TIP3    H2 6723   1.942   1.268   3.404
 2260TIP3   OH2 6724   5.046   5.741   0.868
 2260TIP3    H1 6725   5.036   5.689   0.948
 2260TIP3    H2 6726   5.133   5.781   0.877
 2261TIP3   OH2 6727   0.725   3.602   5.851
 2261TIP3    H1 6728   0.701   3.635   5.938
 2261TIP3    H2 6729   0.790   3.534   5.868
 2262TIP3   OH2 6730   6.008   4.253   1.225
 2262TIP3    H1 6731   5.985   4.160   1.217
 2262TIP3    H2 6732   5.933   4.300   1.191
 2263TIP3   OH2 6733   1.512   6.664   3.932
 2263TIP3    H1 6734   1.521   6.572   3.957
 2263TIP3    H2 6735   1.600   6.692   3.908
 2264TIP3   OH2 6736   3.681   3.208   2.588
 2264TIP3    H1 6737   3.730   3.279   2.549
 2264TIP3    H2 6738   3.747   3.155   2.634
 2265TIP3   OH2 6739   0.806   3.595   4.596
 2265TIP3    H1 6740   0.794   3.562   4.685
 2265TIP3    H2 6741   0.882   3.653   4.602
 2266TIP3   OH2 6742   5.646   6.793   0.986
 2266TIP3    H1 6743   5.733   6.820   1.013
 2266TIP3    H2 6744   5.596   6.787   1.067
 2267TIP3   OH2 6745   6.460   0.467   3.363
 2267TIP3    H1 6746   6.373   0.443   3.331
 2267TIP3    H2 6747   6.518   0.401   3.325
 2268TIP3   OH2 6748   5.347   2.810   3.347
 2268TIP3    H1 6749   5.379   2.890   3.305
 2268TIP3    H2 6750   5.304   2.840   3.427
 2269TIP3   OH2 6751   3.333   0.693   6.520
 2269TIP3    H1 6752   3.391   0.767   6.499
 2269TIP3    H2 6753   3.247   0.722   6.490
 2270TIP3   OH2 6754   0.902   6.511   3.068
 2270TIP3    H1 6755   0.902   6.520   2.972
 2270TIP3    H2 6756   0.982   6.554   3.096
 2271TIP3   OH2 6757   6.991   3.321   5.287
 2271TIP3    H1 6758   7.011   3.235   5.325
 2271TIP3    H2 6759   6.913   3.350   5.334
 2272TIP3   OH2 6760   7.037   4.867   1.409
 2272TIP3    H1 6761   7.077   4.876   1.496
 2272TIP3    H2 6762   7.064   4.946   1.362
 2273TIP3   OH2 6763   1.238   6.409   2.297
 2273TIP3    H1 6764   1.153   6.441   2.329
 2273TIP3    H2 6765   1.302   6.449   2.356
 2274TIP3   OH2 6766   6.123   0.403   6.111
 2274TIP3    H1 6767   6.137   0.325   6.057
 2274TIP3    H2 6768   6.110   0.474   6.049
 2275TIP3   OH2 6769   5.396   3.116   0.635
 2275TIP3    H1 6770   5.335   3.141   0.566
 2275TIP3    H2 6771   5.479   3.157   0.610
 2276TIP3   OH2 6772   8.273   6.025   5.981
 2276TIP3    H1 6773   8.330   6.099   6.002
 2276TIP3    H2 6774   8.200   6.064   5.932
 2277TIP3   OH2 6775   1.802   7.159   2.184
 2277TIP3    H1 6776   1.754   7.230   2.142
 2277TIP3    H2 6777   1.867   7.203   2.239
 2278TIP3   OH2 6778   5.231   5.752   4.342
 2278TIP3    H1 6779   5.191   5.739   4.428
 2278TIP3    H2 6780   5.225   5.665   4.300
 2279TIP3   OH2 6781   6.083   5.041   1.094
 2279TIP3    H1 6782   6.069   4.967   1.034
 2279TIP3    H2 6783   6.118   5.001   1.174
 2280TIP3   OH2 6784   7.962   6.107   4.802
 2280TIP3    H1 6785   8.012   6.188   4.789
 2280TIP3    H2 6786   7.870   6.135   4.796
 2281TIP3   OH2 6787   5.102   7.059   1.163
 2281TIP3    H1 6788   5.072   7.098   1.245
 2281TIP3    H2 6789   5.178   7.111   1.137
 2282TIP3   OH2 6790   4.513   5.342   3.724
 2282TIP3    H1 6791   4.555   5.282   3.786
 2282TIP3    H2 6792   4.529   5.429   3.761
 2283TIP3   OH2 6793   6.138   6.447   0.294
 2283TIP3    H1 6794   6.155   6.488   0.210
 2283TIP3    H2 6795   6.216   6.393   0.311
 2284TIP3   OH2 6796   6.500   6.862   1.280
 2284TIP3    H1 6797   6.549   6.782   1.296
 2284TIP3    H2 6798   6.532   6.893   1.195
 2285TIP3   OH2 6799   2.376   6.417   3.423
 2285TIP3    H1 6800   2.464   6.380   3.432
 2285TIP3    H2 6801   2.388   6.496   3.370
 2286TIP3   OH2 6802   6.364   0.672   5.080
 2286TIP3    H1 6803   6.272   0.649   5.091
 2286TIP3    H2 6804   6.371   0.760   5.117
 2287TIP3   OH2 6805   5.998   1.937   1.817
 2287TIP3    H1 6806   5.937   1.896   1.878
 2287TIP3    H2 6807   6.080   1.943   1.866
 2288TIP3   OH2 6808   4.914   4.559   5.407
 2288TIP3    H1 6809   4.975   4.622   5.369
 2288TIP3    H2 6810   4.929   4.478   5.358
 2289TIP3   OH2 6811   3.353   6.104   5.459
 2289TIP3    H1 6812   3.364   6.151   5.541
 2289TIP3    H2 6813   3.378   6.167   5.391
 2290TIP3   OH2 6814   5.546   2.351   4.334
 2290TIP3    H1 6815   5.582   2.268   4.365
 2290TIP3    H2 6816   5.481   2.375   4.401
 2291TIP3   OH2 6817   0.251   7.562   2.692
 2291TIP3    H1 6818   0.246   7.560   2.787
 2291TIP3    H2 6819   0.162   7.584   2.663
 2292TIP3   OH2 6820   4.774   2.113   4.512
 2292TIP3    H1 6821   4.836   2.092   4.582
 2292TIP3    H2 6822   4.715   2.037   4.508
 2293TIP3   OH2 6823   1.398   4.821   2.181
 2293TIP3    H1 6824   1.328   4.853   2.124
 2293TIP3    H2 6825   1.472   4.809   2.122
 2294TIP3   OH2 6826   4.731   2.111   2.573
 2294TIP3    H1 6827   4.784   2.177   2.618
 2294TIP3    H2 6828   4.758   2.118   2.481
 2295TIP3   OH2 6829   5.386   3.915   0.112
 2295TIP3    H1 6830   5.451   3.985   0.108
 2295TIP3    H2 6831   5.411   3.864   0.189
 2296TIP3   OH2 6832   2.240   2.339   2.438
 2296TIP3    H1 6833   2.318   2.355   2.491
 2296TIP3    H2 6834   2.184   2.285   2.494
 2297TIP3   OH2 6835   0.874   1.734   4.687
 2297TIP3    H1 6836   0.804   1.737   4.752
 2297TIP3    H2 6837   0.946   1.784   4.727
 2298TIP3   OH2 6838   2.311   0.308   0.959
 2298TIP3    H1 6839   2.272   0.382   1.005
 2298TIP3    H2 6840   2.259   0.232   0.988
 2299TIP3   OH2 6841   4.024   4.588   0.865
 2299TIP3    H1 6842   4.043   4.670   0.819
 2299TIP3    H2 6843   4.079   4.592   0.944
 2300TIP3   OH2 6844   7.216   7.076   0.118
 2300TIP3    H1 6845   7.210   7.107   0.027
 2300TIP3    H2 6846   7.309   7.080   0.138
 2301TIP3   OH2 6847   1.478   1.315   5.361
 2301TIP3    H1 6848   1.463   1.236   5.413
 2301TIP3    H2 6849   1.570   1.335   5.374
 2302TIP3   OH2 6850   4.238   7.487   5.860
 2302TIP3    H1 6851   4.319   7.499   5.812
 2302TIP3    H2 6852   4.207   7.575   5.879
 2303TIP3   OH2 6853   0.500   1.639   2.262
 2303TIP3    H1 6854   0.406   1.646   2.249
 2303TIP3    H2 6855   0.524   1.717   2.311
 2304TIP3   OH2 6856   2.432   0.810   4.178
 2304TIP3    H1 6857   2.485   0.884   4.208
 2304TIP3    H2 6858   2.467   0.734   4.225
 2305TIP3   OH2 6859   2.123   7.256   5.484
 2305TIP3    H1 6860   2.149   7.190   5.420
 2305TIP3    H2 6861   2.204   7.305   5.501
 2306TIP3   OH2 6862   7.878   4.848   5.830
 2306TIP3    H1 6863   7.849   4.824   5.742
 2306TIP3    H2 6864   7.974   4.854   5.823
 2307TIP3   OH2 6865   5.598   7.216   6.458
 2307TIP3    H1 6866   5.664   7.153   6.489
 2307TIP3    H2 6867   5.623   7.298   6.501
 2308TIP3   OH2 6868   3.617   7.337   2.324
 2308TIP3    H1 6869   3.643   7.245   2.316
 2308TIP3    H2 6870   3.653   7.364   2.408
 2309TIP3   OH2 6871   5.345   4.398   4.142
 2309TIP3    H1 6872   5.265   4.358   4.109
 2309TIP3    H2 6873   5.402   4.404   4.065
 2310TIP3   OH2 6874   8.249   4.356   4.244
 2310TIP3    H1 6875   8.165   4.383   4.207
 2310TIP3    H2 6876   8.302   4.435   4.244
 2311TIP3   OH2 6877   0.488   5.277   3.430
 2311TIP3    H1 6878   0.438   5.280   3.511
 2311TIP3    H2 6879   0.441   5.213   3.376
 2312TIP3   OH2 6880   2.796   4.169   2.916
 2312TIP3    H1 6881   2.831   4.218   2.842
 2312TIP3    H2 6882   2.870   4.159   2.975
 2313TIP3   OH2 6883   7.270   0.537   1.386
 2313TIP3    H1 6884   7.271   0.483   1.307
 2313TIP3    H2 6885   7.213   0.611   1.363
 2314TIP3   OH2 6886   5.774   2.501   4.378
 2314TIP3    H1 6887   5.759   2.463   4.464
 2314TIP3    H2 6888   5.701   2.468   4.325
 2315TIP3   OH2 6889   0.069   0.014   1.112
 2315TIP3    H1 6890   0.051   0.069   1.036
 2315TIP3    H2 6891   0.128   0.066   1.166
 2316TIP3   OH2 6892   3.628   1.871   3.152
 2316TIP3    H1 6893   3.605   1.799   3.210
 2316TIP3    H2 6894   3.658   1.828   3.071
 2317TIP3   OH2 6895   3.885   4.339   6.711
 2317TIP3    H1 6896   3.825   4.265   6.696
 2317TIP3    H2 6897   3.830   4.417   6.702
 2318TIP3   OH2 6898   2.531   7.730   0.521
 2318TIP3    H1 6899   2.487   7.774   0.448
 2318TIP3    H2 6900   2.560   7.800   0.578
 2319TIP3   OH2 6901   2.499   5.070   0.576
 2319TIP3    H1 6902   2.449   5.058   0.496
 2319TIP3    H2 6903   2.496   5.165   0.592
 2320TIP3   OH2 6904   2.047   5.440   4.046
 2320TIP3    H1 6905   1.983   5.411   4.111
 2320TIP3    H2 6906   2.103   5.363   4.032
 2321TIP3   OH2 6907   5.280   6.916   0.878
 2321TIP3    H1 6908   5.335   6.853   0.924
 2321TIP3    H2 6909   5.191   6.891   0.902
 2322TIP3   OH2 6910   0.491   5.222   0.476
 2322TIP3    H1 6911   0.472   5.315   0.482
 2322TIP3    H2 6912   0.584   5.215   0.501
 2323TIP3   OH2 6913   7.801   6.690   0.143
 2323TIP3    H1 6914   7.720   6.642   0.130
 2323TIP3    H2 6915   7.868   6.636   0.101
 2324TIP3   OH2 6916   3.534   1.298   0.814
 2324TIP3    H1 6917   3.498   1.220   0.773
 2324TIP3    H2 6918   3.481   1.370   0.780
 2325TIP3   OH2 6919   0.432   7.574   0.435
 2325TIP3    H1 6920   0.436   7.627   0.355
 2325TIP3    H2 6921   0.523   7.569   0.465
 2326TIP3   OH2 6922   2.434   2.726   3.748
 2326TIP3    H1 6923   2.466   2.748   3.660
 2326TIP3    H2 6924   2.509   2.742   3.805
 2327TIP3   OH2 6925   7.589   3.993   4.577
 2327TIP3    H1 6926   7.642   4.021   4.503
 2327TIP3    H2 6927   7.499   4.012   4.550
 2328TIP3   OH2 6928   1.581   2.737   6.726
 2328TIP3    H1 6929   1.658   2.743   6.782
 2328TIP3    H2 6930   1.592   2.655   6.679
 2329TIP3   OH2 6931   2.067   6.187   4.042
 2329TIP3    H1 6932   1.982   6.154   4.012
 2329TIP3    H2 6933   2.082   6.143   4.126
 2330TIP3   OH2 6934   7.000   1.894   0.617
 2330TIP3    H1 6935   7.054   1.875   0.540
 2330TIP3    H2 6936   7.049   1.962   0.665
 2331TIP3   OH2 6937   4.612   7.766   6.557
 2331TIP3    H1 6938   4.668   7.771   6.479
 2331TIP3    H2 6939   4.664   7.714   6.620
 2332TIP3   OH2 6940   1.802   7.521   1.155
 2332TIP3    H1 6941   1.883   7.489   1.114
 2332TIP3    H2 6942   1.775   7.594   1.100
 2333TIP3   OH2 6943   3.970   7.011   3.532
 2333TIP3    H1 6944   3.967   6.940   3.596
 2333TIP3    H2 6945   3.968   6.967   3.447
 2334TIP3   OH2 6946   0.362   1.740   2.849
 2334TIP3    H1 6947   0.293   1.677   2.827
 2334TIP3    H2 6948   0.314   1.820   2.871
 2335TIP3   OH2 6949   3.030   5.271   5.085
 2335TIP3    H1 6950   3.052   5.363   5.103
 2335TIP3    H2 6951   3.084   5.221   5.146
 2336TIP3   OH2 6952   2.038   0.923   1.320
 2336TIP3    H1 6953   2.028   0.892   1.230
 2336TIP3    H2 6954   2.132   0.930   1.333
 2337TIP3   OH2 6955   1.594   6.395   5.779
 2337TIP3    H1 6956   1.589   6.398   5.684
 2337TIP3    H2 6957   1.654   6.465   5.803
 2338TIP3   OH2 6958   1.371   5.471   0.223
 2338TIP3    H1 6959   1.289   5.499   0.184
 2338TIP3    H2 6960   1.431   5.545   0.210
 2339TIP3   OH2 6961   1.601   0.633   2.230
 2339TIP3    H1 6962   1.513   0.642   2.193
 2339TIP3    H2 6963   1.606   0.542   2.259
 2340TIP3   OH2 6964   5.675   4.421   0.353
 2340TIP3    H1 6965   5.740   4.397   0.288
 2340TIP3    H2 6966   5.717   4.402   0.437
 2341TIP3   OH2 6967   5.184   4.123   4.170
 2341TIP3    H1 6968   5.270   4.117   4.212
 2341TIP3    H2 6969   5.133   4.052   4.208
 2342TIP3   OH2 6970   6.983   7.202   6.144
 2342TIP3    H1 6971   6.903   7.246   6.114
 2342TIP3    H2 6972   6.992   7.127   6.085
 2343TIP3   OH2 6973   4.383   1.001   5.412
 2343TIP3    H1 6974   4.445   1.039   5.350
 2343TIP3    H2 6975   4.352   0.921   5.370
 2344TIP3   OH2 6976   0.774   1.890   3.884
 2344TIP3    H1 6977   0.794   1.830   3.956
 2344TIP3    H2 6978   0.683   1.869   3.861
 2345TIP3   OH2 6979   1.753   5.993   5.312
 2345TIP3    H1 6980   1.804   6.047   5.251
 2345TIP3    H2 6981   1.760   5.905   5.276
 2346TIP3   OH2 6982   8.299   1.971   4.454
 2346TIP3    H1 6983   8.286   1.928   4.370
 2346TIP3    H2 6984   8.212   2.005   4.478
 2347TIP3   OH2 6985   7.977   1.622   6.201
 2347TIP3    H1 6986   8.068   1.648   6.213
 2347TIP3    H2 6987   7.932   1.659   6.277
 2348TIP3   OH2 6988   3.205   3.110   3.386
 2348TIP3    H1 6989   3.261   3.116   3.309
 2348TIP3    H2 6990   3.238   3.179   3.445
 2349TIP3   OH2 6991   6.890   2.198   2.767
 2349TIP3    H1 6992   6.813   2.255   2.773
 2349TIP3    H2 6993   6.962   2.251   2.803
 2350TIP3   OH2 6994   2.732   7.752   0.895
 2350TIP3    H1 6995   2.775   7.791   0.818
 2350TIP3    H2 6996   2.665   7.815   0.919
 2351TIP3   OH2 6997   3.319   4.062   6.119
 2351TIP3    H1 6998   3.353   3.974   6.132
 2351TIP3    H2 6999   3.393   4.110   6.081
 2352TIP3   OH2 7000   1.315   3.389   5.860
 2352TIP3    H1 7001   1.387   3.437   5.819
 2352TIP3    H2 7002   1.249   3.456   5.878
 2353TIP3   OH2 7003   6.792   5.791   0.977
 2353TIP3    H1 7004   6.740   5.863   0.943
 2353TIP3    H2 7005   6.754   5.713   0.937
 2354TIP3   OH2 7006   1.904   0.995   4.009
 2354TIP3    H1 7007   1.891   0.950   3.926
 2354TIP3    H2 7008   1.851   1.075   4.001
 2355TIP3   OH2 7009   5.865   3.294   6.154
 2355TIP3    H1 7010   5.959   3.298   6.174
 2355TIP3    H2 7011   5.825   3.253   6.231
 2356TIP3   OH2 7012   1.237   7.621   5.508
 2356TIP3    H1 7013   1.198   7.708   5.506
 2356TIP3    H2 7014   1.307   7.626   5.573
 2357TIP3   OH2 7015   5.327   2.347   2.682
 2357TIP3    H1 7016   5.401   2.408   2.672
 2357TIP3    H2 7017   5.266   2.372   2.613
 2358TIP3   OH2 7018   1.589   5.712   2.793
 2358TIP3    H1 7019   1.522   5.650   2.819
 2358TIP3    H2 7020   1.653   5.711   2.865
 2359TIP3   OH2 7021   1.710   4.961   5.336
 2359TIP3    H1 7022   1.640   5.025   5.343
 2359TIP3    H2 7023   1.786   5.004   5.376
 2360TIP3   OH2 7024   1.748   6.340   1.016
 2360TIP3    H1 7025   1.827   6.289   1.033
 2360TIP3    H2 7026   1.677   6.290   1.057
 2361TIP3   OH2 7027   2.429   0.942   2.766
 2361TIP3    H1 7028   2.521   0.969   2.768
 2361TIP3    H2 7029   2.431   0.849   2.791
 2362TIP3   OH2 7030   6.243   5.635   1.540
 2362TIP3    H1 7031   6.190   5.705   1.579
 2362TIP3    H2 7032   6.184   5.594   1.476
 2363TIP3   OH2 7033   0.248   3.979   0.320
 2363TIP3    H1 7034   0.153   3.972   0.318
 2363TIP3    H2 7035   0.270   4.035   0.246
 2364TIP3   OH2 7036   3.693   4.616   1.151
 2364TIP3    H1 7037   3.739   4.576   1.077
 2364TIP3    H2 7038   3.628   4.550   1.177
 2365TIP3   OH2 7039   7.125   0.792   1.319
 2365TIP3    H1 7040   7.162   0.828   1.399
 2365TIP3    H2 7041   7.032   0.781   1.339
 2366TIP3   OH2 7042   2.145   0.073   6.047
 2366TIP3    H1 7043   2.225   0.023   6.064
 2366TIP3    H2 7044   2.074   0.011   6.067
 2367TIP3   OH2 7045   1.749   6.974   5.889
 2367TIP3    H1 7046   1.664   7.018   5.881
 2367TIP3    H2 7047   1.770   6.979   5.982
 2368TIP3   OH2 7048   0.230   5.077   1.434
 2368TIP3    H1 7049   0.196   5.093   1.522
 2368TIP3    H2 7050   0.256   5.163   1.402
 2369TIP3   OH2 7051   4.093   1.038   3.943
 2369TIP3    H1 7052   4.126   1.089   3.869
 2369TIP3    H2 7053   4.042   0.968   3.903
 2370TIP3   OH2 7054   7.784   5.311   1.354
 2370TIP3    H1 7055   7.818   5.233   1.398
 2370TIP3    H2 7056   7.859   5.346   1.307
 2371TIP3   OH2 7057   6.421   0.657   0.691
 2371TIP3    H1 7058   6.344   0.645   0.635
 2371TIP3    H2 7059   6.451   0.746   0.671
 2372TIP3   OH2 7060   0.961   6.398   5.831
 2372TIP3    H1 7061   0.975   6.304   5.847
 2372TIP3    H2 7062   1.020   6.442   5.892
 2373TIP3   OH2 7063   6.733   4.140   0.497
 2373TIP3    H1 7064   6.689   4.085   0.562
 2373TIP3    H2 7065   6.665   4.162   0.434
 2374TIP3   OH2 7066   0.402   1.849   5.135
 2374TIP3    H1 7067   0.362   1.926   5.175
 2374TIP3    H2 7068   0.366   1.847   5.046
 2375TIP3   OH2 7069   4.260   1.637   4.711
 2375TIP3    H1 7070   4.269   1.565   4.649
 2375TIP3    H2 7071   4.204   1.602   4.781
 2376TIP3   OH2 7072   4.985   3.882   3.483
 2376TIP3    H1 7073   5.040   3.949   3.443
 2376TIP3    H2 7074   4.956   3.922   3.565
 2377TIP3   OH2 7075   1.049   0.418   2.350
 2377TIP3    H1 7076   1.047   0.372   2.434
 2377TIP3    H2 7077   1.138   0.404   2.317
 2378TIP3   OH2 7078   2.756   6.868   3.920
 2378TIP3    H1 7079   2.824   6.824   3.971
 2378TIP3    H2 7080   2.745   6.813   3.843
 2379TIP3   OH2 7081   4.120   2.115   4.691
 2379TIP3    H1 7082   4.133   2.208   4.675
 2379TIP3    H2 7083   4.025   2.104   4.697
 2380TIP3   OH2 7084   3.890   1.144   4.914
 2380TIP3    H1 7085   3.808   1.148   4.865
 2380TIP3    H2 7086   3.908   1.050   4.924
 2381TIP3   OH2 7087   7.933   3.274   2.749
 2381TIP3    H1 7088   7.954   3.307   2.837
 2381TIP3    H2 7089   7.839   3.286   2.741
 2382TIP3   OH2 7090   5.077   2.611   0.951
 2382TIP3    H1 7091   5.119   2.610   1.036
 2382TIP3    H2 7092   4.984   2.626   0.970
 2383TIP3   OH2 7093   5.815   3.823   6.389
 2383TIP3    H1 7094   5.826   3.733   6.421
 2383TIP3    H2 7095   5.743   3.859   6.441
 2384TIP3   OH2 7096   2.301   4.459   1.761
 2384TIP3    H1 7097   2.361   4.390   1.733
 2384TIP3    H2 7098   2.352   4.540   1.754
 2385TIP3   OH2 7099   6.826   3.781   6.775
 2385TIP3    H1 7100   6.815   3.686   6.787
 2385TIP3    H2 7101   6.759   3.805   6.712
 2386TIP3   OH2 7102   4.435   4.345   0.438
 2386TIP3    H1 7103   4.341   4.358   0.427
 2386TIP3    H2 7104   4.451   4.365   0.530
 2387TIP3   OH2 7105   4.537   0.063   3.618
 2387TIP3    H1 7106   4.592   0.078   3.695
 2387TIP3    H2 7107   4.540   0.146   3.571
 2388TIP3   OH2 7108   1.511   6.832   6.008
 2388TIP3    H1 7109   1.502   6.784   5.925
 2388TIP3    H2 7110   1.502   6.924   5.984
 2389TIP3   OH2 7111   7.072   3.293   6.214
 2389TIP3    H1 7112   7.137   3.362   6.198
 2389TIP3    H2 7113   7.013   3.330   6.280
 2390TIP3   OH2 7114   2.614   1.343   5.522
 2390TIP3    H1 7115   2.674   1.370   5.452
 2390TIP3    H2 7116   2.554   1.281   5.480
 2391TIP3   OH2 7117   5.707   7.506   1.758
 2391TIP3    H1 7118   5.687   7.502   1.852
 2391TIP3    H2 7119   5.640   7.563   1.721
 2392TIP3   OH2 7120   6.935   2.650   6.165
 2392TIP3    H1 7121   6.906   2.711   6.232
 2392TIP3    H2 7122   6.855   2.625   6.119
 2393TIP3   OH2 7123   8.082   4.746   4.980
 2393TIP3    H1 7124   7.995   4.750   5.020
 2393TIP3    H2 7125   8.092   4.830   4.936
 2394TIP3   OH2 7126   3.327   3.001   5.847
 2394TIP3    H1 7127   3.418   2.975   5.863
 2394TIP3    H2 7128   3.280   2.972   5.925
 2395TIP3   OH2 7129   6.292   4.564   1.605
 2395TIP3    H1 7130   6.224   4.631   1.609
 2395TIP3    H2 7131   6.263   4.504   1.536
 2396TIP3   OH2 7132   1.334   5.584   2.919
 2396TIP3    H1 7133   1.253   5.635   2.926
 2396TIP3    H2 7134   1.353   5.557   3.009
 2397TIP3   OH2 7135   5.373   3.637   6.039
 2397TIP3    H1 7136   5.444   3.607   6.097
 2397TIP3    H2 7137   5.419   3.674   5.963
 2398TIP3   OH2 7138   7.726   1.574   4.414
 2398TIP3    H1 7139   7.741   1.663   4.445
 2398TIP3    H2 7140   7.729   1.581   4.319
 2399TIP3   OH2 7141   7.060   1.706   3.718
 2399TIP3    H1 7142   7.013   1.650   3.779
 2399TIP3    H2 7143   7.002   1.713   3.642
 2400TIP3   OH2 7144   7.370   5.398   4.771
 2400TIP3    H1 7145   7.406   5.309   4.779
 2400TIP3    H2 7146   7.446   5.454   4.762
 2401TIP3   OH2 7147   5.085   1.118   4.310
 2401TIP3    H1 7148   5.025   1.193   4.308
 2401TIP3    H2 7149   5.163   1.149   4.264
 2402TIP3   OH2 7150   5.345   7.614   2.567
 2402TIP3    H1 7151   5.298   7.694   2.590
 2402TIP3    H2 7152   5.284   7.565   2.512
 2403TIP3   OH2 7153   3.099   7.219   0.108
 2403TIP3    H1 7154   3.042   7.143   0.116
 2403TIP3    H2 7155   3.183   7.189   0.142
 2404TIP3   OH2 7156   7.537   4.703   4.722
 2404TIP3    H1 7157   7.497   4.624   4.686
 2404TIP3    H2 7158   7.533   4.691   4.817
 2405TIP3   OH2 7159   4.256   1.607   2.503
 2405TIP3    H1 7160   4.340   1.599   2.457
 2405TIP3    H2 7161   4.191   1.583   2.438
 2406TIP3   OH2 7162   2.620   2.340   5.770
 2406TIP3    H1 7163   2.687   2.356   5.704
 2406TIP3    H2 7164   2.665   2.350   5.854
 2407TIP3   OH2 7165   5.532   2.525   2.648
 2407TIP3    H1 7166   5.508   2.598   2.703
 2407TIP3    H2 7167   5.559   2.565   2.565
 2408TIP3   OH2 7168   0.300   1.171   0.431
 2408TIP3    H1 7169   0.255   1.091   0.455
 2408TIP3    H2 7170   0.322   1.160   0.338
 2409TIP3   OH2 7171   5.897   0.868   0.830
 2409TIP3    H1 7172   5.918   0.895   0.919
 2409TIP3    H2 7173   5.977   0.888   0.780
 2410TIP3   OH2 7174   3.934   2.430   6.656
 2410TIP3    H1 7175   3.972   2.348   6.690
 2410TIP3    H2 7176   3.992   2.454   6.583
 2411TIP3   OH2 7177   2.005   1.543   1.162
 2411TIP3    H1 7178   2.077   1.497   1.119
 2411TIP3    H2 7179   1.950   1.573   1.091
 2412TIP3   OH2 7180   5.300   6.691   6.376
 2412TIP3    H1 7181   5.294   6.764   6.438
 2412TIP3    H2 7182   5.362   6.721   6.309
 2413TIP3   OH2 7183   8.050   4.427   6.524
 2413TIP3    H1 7184   8.033   4.443   6.617
 2413TIP3    H2 7185   8.140   4.456   6.510
 2414TIP3   OH2 7186   0.953   2.233   3.920
 2414TIP3    H1 7187   0.900   2.208   3.996
 2414TIP3    H2 7188   1.028   2.279   3.958
 2415TIP3   OH2 7189   7.613   1.254   1.687
 2415TIP3    H1 7190   7.531   1.221   1.650
 2415TIP3    H2 7191   7.601   1.349   1.691
 2416TIP3   OH2 7192   3.705   5.581   6.267
 2416TIP3    H1 7193   3.747   5.569   6.182
 2416TIP3    H2 7194   3.624   5.629   6.247
 2417TIP3   OH2 7195   4.719   6.461   1.960
 2417TIP3    H1 7196   4.766   6.378   1.952
 2417TIP3    H2 7197   4.634   6.437   1.999
 2418TIP3   OH2 7198   2.956   0.777   0.199
 2418TIP3    H1 7199   2.867   0.757   0.230
 2418TIP3    H2 7200   2.976   0.706   0.138
 2419TIP3   OH2 7201   7.187   1.383   2.207
 2419TIP3    H1 7202   7.122   1.448   2.181
 2419TIP3    H2 7203   7.262   1.434   2.235
 2420TIP3   OH2 7204   4.342   0.747   0.524
 2420TIP3    H1 7205   4.344   0.658   0.559
 2420TIP3    H2 7206   4.420   0.753   0.469
 2421TIP3   OH2 7207   5.034   3.035   5.275
 2421TIP3    H1 7208   5.055   2.942   5.267
 2421TIP3    H2 7209   5.085   3.076   5.205
 2422TIP3   OH2 7210   1.609   6.465   1.554
 2422TIP3    H1 7211   1.571   6.469   1.466
 2422TIP3    H2 7212   1.640   6.554   1.571
 2423TIP3   OH2 7213   4.421   1.403   5.507
 2423TIP3    H1 7214   4.377   1.488   5.507
 2423TIP3    H2 7215   4.496   1.416   5.449
 2424TIP3   OH2 7216   1.749   6.343   0.731
 2424TIP3    H1 7217   1.825   6.396   0.709
 2424TIP3    H2 7218   1.735   6.359   0.824
 2425TIP3   OH2 7219   4.593   0.906   5.037
 2425TIP3    H1 7220   4.617   0.817   5.013
 2425TIP3    H2 7221   4.514   0.924   4.986
 2426TIP3   OH2 7222   1.575   0.598   3.839
 2426TIP3    H1 7223   1.587   0.519   3.787
 2426TIP3    H2 7224   1.542   0.566   3.923
 2427TIP3   OH2 7225   4.907   5.221   3.930
 2427TIP3    H1 7226   4.914   5.280   3.855
 2427TIP3    H2 7227   4.992   5.179   3.935
 2428TIP3   OH2 7228   7.685   1.727   2.171
 2428TIP3    H1 7229   7.614   1.779   2.133
 2428TIP3    H2 7230   7.705   1.771   2.253
 2429TIP3   OH2 7231   7.339   6.348   0.150
 2429TIP3    H1 7232   7.404   6.295   0.197
 2429TIP3    H2 7233   7.284   6.284   0.105
 2430TIP3   OH2 7234   2.951   3.262   5.121
 2430TIP3    H1 7235   2.880   3.320   5.092
 2430TIP3    H2 7236   2.949   3.189   5.060
 2431TIP3   OH2 7237   1.251   2.047   3.288
 2431TIP3    H1 7238   1.194   2.015   3.358
 2431TIP3    H2 7239   1.278   2.134   3.316
 2432TIP3   OH2 7240   4.605   5.766   4.569
 2432TIP3    H1 7241   4.651   5.743   4.489
 2432TIP3    H2 7242   4.655   5.724   4.639
 2433TIP3   OH2 7243   0.059   6.746   5.247
 2433TIP3    H1 7244   0.137   6.693   5.261
 2433TIP3    H2 7245  -0.014   6.689   5.273
 2434TIP3   OH2 7246   1.581   0.404   4.399
 2434TIP3    H1 7247   1.498   0.355   4.404
 2434TIP3    H2 7248   1.568   0.464   4.325
 2435TIP3   OH2 7249   6.668  -0.030   5.658
 2435TIP3    H1 7250   6.632  -0.009   5.571
 2435TIP3    H2 7251   6.660   0.052   5.707
 2436TIP3   OH2 7252   6.641   3.305   6.116
 2436TIP3    H1 7253   6.607   3.343   6.197
 2436TIP3    H2 7254   6.639   3.377   6.053
 2437TIP3   OH2 7255   1.296   5.619   3.745
 2437TIP3    H1 7256   1.310   5.701   3.792
 2437TIP3    H2 7257   1.344   5.629   3.663
 2438TIP3   OH2 7258   5.635   4.051   3.278
 2438TIP3    H1 7259   5.716   4.001   3.288
 2438TIP3    H2 7260   5.628   4.101   3.359
 2439TIP3   OH2 7261   6.490   3.301   2.957
 2439TIP3    H1 7262   6.414   3.307   2.899
 2439TIP3    H2 7263   6.455   3.319   3.044
 2440TIP3   OH2 7264   2.487   7.602   5.929
 2440TIP3    H1 7265   2.464   7.537   5.864
 2440TIP3    H2 7266   2.533   7.670   5.880
 2441TIP3   OH2 7267   2.261   1.697   1.836
 2441TIP3    H1 7268   2.240   1.734   1.922
 2441TIP3    H2 7269   2.352   1.720   1.821
 2442TIP3   OH2 7270   7.924   2.388   3.747
 2442TIP3    H1 7271   7.942   2.469   3.700
 2442TIP3    H2 7272   7.834   2.397   3.778
 2443TIP3   OH2 7273   2.001   3.193   4.754
 2443TIP3    H1 7274   2.077   3.157   4.709
 2443TIP3    H2 7275   2.021   3.182   4.847
 2444TIP3   OH2 7276   8.081   5.601   3.239
 2444TIP3    H1 7277   8.045   5.686   3.264
 2444TIP3    H2 7278   8.014   5.538   3.267
 2445TIP3   OH2 7279   3.989   4.780   4.304
 2445TIP3    H1 7280   3.932   4.715   4.262
 2445TIP3    H2 7281   3.932   4.855   4.319
 2446TIP3   OH2 7282   2.987   2.942   1.206
 2446TIP3    H1 7283   3.036   2.932   1.124
 2446TIP3    H2 7284   2.995   2.856   1.248
 2447TIP3   OH2 7285   6.991   0.958   0.102
 2447TIP3    H1 7286   6.977   0.870   0.068
 2447TIP3    H2 7287   7.071   0.989   0.059
 2448TIP3   OH2 7288   0.220   7.472   6.160
 2448TIP3    H1 7289   0.139   7.512   6.128
 2448TIP3    H2 7290   0.224   7.498   6.252
 2449TIP3   OH2 7291   0.404   5.583   5.096
 2449TIP3    H1 7292   0.363   5.665   5.124
 2449TIP3    H2 7293   0.420   5.535   5.177
 2450TIP3   OH2 7294   5.416   6.614   5.294
 2450TIP3    H1 7295   5.464   6.604   5.212
 2450TIP3    H2 7296   5.327   6.584   5.274
 2451TIP3   OH2 7297   2.881   0.711   1.304
 2451TIP3    H1 7298   2.923   0.664   1.376
 2451TIP3    H2 7299   2.798   0.742   1.340
 2452TIP3   OH2 7300   0.875   6.165   3.208
 2452TIP3    H1 7301   0.805   6.117   3.163
 2452TIP3    H2 7302   0.894   6.240   3.151
 2453TIP3   OH2 7303   2.583   0.460   6.316
 2453TIP3    H1 7304   2.538   0.537   6.281
 2453TIP3    H2 7305   2.661   0.495   6.359
 2454TIP3   OH2 7306   2.315   1.155   5.434
 2454TIP3    H1 7307   2.249   1.223   5.426
 2454TIP3    H2 7308   2.267   1.079   5.468
 2455TIP3   OH2 7309   2.666   7.821   2.032
 2455TIP3    H1 7310   2.672   7.880   1.957
 2455TIP3    H2 7311   2.624   7.742   1.997
 2456TIP3   OH2 7312   5.858   4.049   5.771
 2456TIP3    H1 7313   5.926   4.112   5.794
 2456TIP3    H2 7314   5.887   4.011   5.689
 2457TIP3   OH2 7315   5.630   3.006   2.875
 2457TIP3    H1 7316   5.698   3.038   2.815
 2457TIP3    H2 7317   5.679   2.973   2.950
 2458TIP3   OH2 7318   4.024   5.562   4.239
 2458TIP3    H1 7319   4.069   5.481   4.262
 2458TIP3    H2 7320   3.953   5.535   4.181
 2459TIP3   OH2 7321   8.009   7.203   1.487
 2459TIP3    H1 7322   7.916   7.211   1.507
 2459TIP3    H2 7323   8.012   7.148   1.409
 2460TIP3   OH2 7324   0.454   4.905   1.462
 2460TIP3    H1 7325   0.384   4.967   1.481
 2460TIP3    H2 7326   0.448   4.839   1.531
 2461TIP3   OH2 7327   2.554   3.852   3.896
 2461TIP3    H1 7328   2.490   3.845   3.825
 2461TIP3    H2 7329   2.552   3.766   3.939
 2462TIP3   OH2 7330   2.680   4.011   3.703
 2462TIP3    H1 7331   2.671   3.968   3.788
 2462TIP3    H2 7332   2.603   4.067   3.696
 2463TIP3   OH2 7333   3.138   3.485   3.377
 2463TIP3    H1 7334   3.198   3.437   3.434
 2463TIP3    H2 7335   3.169   3.575   3.379
 2464TIP3   OH2 7336   7.009   6.250   5.290
 2464TIP3    H1 7337   6.925   6.278   5.254
 2464TIP3    H2 7338   7.074   6.285   5.229
 2465TIP3   OH2 7339   4.208   6.418   1.499
 2465TIP3    H1 7340   4.294   6.426   1.540
 2465TIP3    H2 7341   4.213   6.335   1.452
 2466TIP3   OH2 7342   0.712   7.805   2.347
 2466TIP3    H1 7343   0.641   7.799   2.411
 2466TIP3    H2 7344   0.792   7.809   2.400
 2467TIP3   OH2 7345   0.669   2.357   6.504
 2467TIP3    H1 7346   0.603   2.290   6.487
 2467TIP3    H2 7347   0.753   2.310   6.497
 2468TIP3   OH2 7348   3.437   0.785   2.490
 2468TIP3    H1 7349   3.418   0.739   2.408
 2468TIP3    H2 7350   3.406   0.874   2.475
 2469TIP3   OH2 7351   5.973   7.628   6.158
 2469TIP3    H1 7352   5.969   7.720   6.182
 2469TIP3    H2 7353   5.918   7.620   6.080
 2470TIP3   OH2 7354   3.840   6.624   0.774
 2470TIP3    H1 7355   3.820   6.717   0.776
 2470TIP3    H2 7356   3.867   6.607   0.684
 2471TIP3   OH2 7357   6.909   5.109   1.021
 2471TIP3    H1 7358   6.832   5.052   1.035
 2471TIP3    H2 7359   6.984   5.052   1.038
 2472TIP3   OH2 7360   4.187   1.344   5.706
 2472TIP3    H1 7361   4.172   1.369   5.615
 2472TIP3    H2 7362   4.120   1.278   5.724
 2473TIP3   OH2 7363   6.804   7.362   2.312
 2473TIP3    H1 7364   6.777   7.305   2.240
 2473TIP3    H2 7365   6.784   7.451   2.280
 2474TIP3   OH2 7366   5.483   0.441   4.888
 2474TIP3    H1 7367   5.518   0.361   4.850
 2474TIP3    H2 7368   5.426   0.477   4.820
 2475TIP3   OH2 7369   0.198   3.643   1.324
 2475TIP3    H1 7370   0.294   3.640   1.331
 2475TIP3    H2 7371   0.182   3.686   1.240
 2476TIP3   OH2 7372   4.237   4.763   3.601
 2476TIP3    H1 7373   4.212   4.736   3.513
 2476TIP3    H2 7374   4.329   4.788   3.594
 2477TIP3   OH2 7375   1.948   5.845   4.984
 2477TIP3    H1 7376   1.920   5.936   4.995
 2477TIP3    H2 7377   1.945   5.808   5.072
 2478TIP3   OH2 7378   1.973   4.411   0.082
 2478TIP3    H1 7379   1.890   4.404   0.036
 2478TIP3    H2 7380   1.996   4.321   0.106
 2479TIP3   OH2 7381   6.102   3.954   2.635
 2479TIP3    H1 7382   6.054   3.987   2.711
 2479TIP3    H2 7383   6.050   3.880   2.604
 2480TIP3   OH2 7384   1.359   7.295   0.435
 2480TIP3    H1 7385   1.405   7.230   0.382
 2480TIP3    H2 7386   1.300   7.243   0.491
 2481TIP3   OH2 7387   1.902   2.062   4.985
 2481TIP3    H1 7388   1.816   2.021   4.982
 2481TIP3    H2 7389   1.884   2.154   5.004
 2482TIP3   OH2 7390   6.615   0.546   6.632
 2482TIP3    H1 7391   6.706   0.521   6.615
 2482TIP3    H2 7392   6.564   0.483   6.582
 2483TIP3   OH2 7393   7.177   4.378   1.501
 2483TIP3    H1 7394   7.128   4.457   1.522
 2483TIP3    H2 7395   7.227   4.359   1.580
 2484TIP3   OH2 7396   6.117   1.178   5.110
 2484TIP3    H1 7397   6.173   1.220   5.175
 2484TIP3    H2 7398   6.179   1.136   5.050
 2485TIP3   OH2 7399   4.282   1.752   0.215
 2485TIP3    H1 7400   4.347   1.685   0.232
 2485TIP3    H2 7401   4.332   1.834   0.211
 2486TIP3   OH2 7402   6.808   0.175   0.533
 2486TIP3    H1 7403   6.835   0.108   0.595
 2486TIP3    H2 7404   6.890   0.207   0.496
 2487TIP3   OH2 7405   5.960   2.905   4.994
 2487TIP3    H1 7406   6.003   2.833   4.949
 2487TIP3    H2 7407   5.868   2.898   4.969
 2488TIP3   OH2 7408   7.994   6.589   5.044
 2488TIP3    H1 7409   7.933   6.516   5.046
 2488TIP3    H2 7410   8.032   6.592   5.132
 2489TIP3   OH2 7411   2.097   3.033   6.237
 2489TIP3    H1 7412   2.084   2.953   6.287
 2489TIP3    H2 7413   2.120   3.099   6.303
 2490TIP3   OH2 7414   6.347   1.108   3.034
 2490TIP3    H1 7415   6.350   1.144   2.946
 2490TIP3    H2 7416   6.350   1.013   3.022
 2491TIP3   OH2 7417   4.041   2.166   1.252
 2491TIP3    H1 7418   3.965   2.176   1.309
 2491TIP3    H2 7419   4.007   2.178   1.163
 2492TIP3   OH2 7420   0.065   3.154   0.272
 2492TIP3    H1 7421   0.050   3.155   0.177
 2492TIP3    H2 7422   0.135   3.090   0.285
 2493TIP3   OH2 7423   8.029   1.025   3.985
 2493TIP3    H1 7424   8.033   1.028   3.890
 2493TIP3    H2 7425   7.943   0.985   4.004
 2494TIP3   OH2 7426   6.339   6.640   1.497
 2494TIP3    H1 7427   6.407   6.672   1.556
 2494TIP3    H2 7428   6.370   6.554   1.469
 2495TIP3   OH2 7429   0.124   5.622   2.523
 2495TIP3    H1 7430   0.197   5.564   2.548
 2495TIP3    H2 7431   0.137   5.700   2.577
 2496TIP3   OH2 7432   4.870   2.995   3.182
 2496TIP3    H1 7433   4.962   2.983   3.206
 2496TIP3    H2 7434   4.853   2.927   3.117
 2497TIP3   OH2 7435   2.075   0.162   2.152
 2497TIP3    H1 7436   2.089   0.091   2.215
 2497TIP3    H2 7437   2.047   0.118   2.072
 2498TIP3   OH2 7438   1.846   6.955   0.776
 2498TIP3    H1 7439   1.878   6.922   0.692
 2498TIP3    H2 7440   1.894   7.036   0.790
 2499TIP3   OH2 7441   5.905   7.172   5.401
 2499TIP3    H1 7442   5.905   7.078   5.383
 2499TIP3    H2 7443   5.880   7.179   5.493
 2500TIP3   OH2 7444   0.869   0.136   2.716
 2500TIP3    H1 7445   0.912   0.107   2.796
 2500TIP3    H2 7446   0.841   0.225   2.734
 2501TIP3   OH2 7447   3.065   0.598   4.062
 2501TIP3    H1 7448   3.076   0.547   3.981
 2501TIP3    H2 7449   2.977   0.576   4.092
 2502TIP3   OH2 7450   3.662   4.193   6.612
 2502TIP3    H1 7451   3.658   4.276   6.564
 2502TIP3    H2 7452   3.621   4.130   6.553
 2503TIP3   OH2 7453   7.361   5.323   2.058
 2503TIP3    H1 7454   7.396   5.275   2.133
 2503TIP3    H2 7455   7.411   5.405   2.057
 2504TIP3   OH2 7456   1.795   5.057   4.795
 2504TIP3    H1 7457   1.799   5.054   4.891
 2504TIP3    H2 7458   1.744   4.980   4.771
 2505TIP3   OH2 7459   1.418   3.472   3.848
 2505TIP3    H1 7460   1.481   3.440   3.913
 2505TIP3    H2 7461   1.357   3.399   3.835
 2506TIP3   OH2 7462   5.205   7.391   2.402
 2506TIP3    H1 7463   5.275   7.326   2.390
 2506TIP3    H2 7464   5.126   7.338   2.417
 2507TIP3   OH2 7465   2.848   1.077   1.535
 2507TIP3    H1 7466   2.837   0.983   1.525
 2507TIP3    H2 7467   2.897   1.104   1.457
 2508TIP3   OH2 7468   2.003   6.748   1.566
 2508TIP3    H1 7469   1.966   6.807   1.500
 2508TIP3    H2 7470   2.061   6.803   1.618
 2509TIP3   OH2 7471   3.232   3.308   6.397
 2509TIP3    H1 7472   3.208   3.384   6.450
 2509TIP3    H2 7473   3.294   3.342   6.333
 2510TIP3   OH2 7474   0.436   6.178   5.399
 2510TIP3    H1 7475   0.471   6.094   5.371
 2510TIP3    H2 7476   0.356   6.156   5.448
 2511TIP3   OH2 7477   8.237   7.526   5.504
 2511TIP3    H1 7478   8.273   7.558   5.587
 2511TIP3    H2 7479   8.180   7.597   5.473
 2512TIP3   OH2 7480   3.659   6.134   2.986
 2512TIP3    H1 7481   3.725   6.082   3.032
 2512TIP3    H2 7482   3.709   6.204   2.944
 2513TIP3   OH2 7483   2.606   5.762   1.632
 2513TIP3    H1 7484   2.688   5.808   1.649
 2513TIP3    H2 7485   2.572   5.742   1.719
 2514TIP3   OH2 7486   6.033   4.132   0.454
 2514TIP3    H1 7487   6.038   4.107   0.362
 2514TIP3    H2 7488   5.989   4.059   0.496
 2515TIP3   OH2 7489   7.579   5.004   3.556
 2515TIP3    H1 7490   7.543   5.083   3.516
 2515TIP3    H2 7491   7.534   4.932   3.512
 2516TIP3   OH2 7492   6.381   3.917   5.631
 2516TIP3    H1 7493   6.372   3.891   5.723
 2516TIP3    H2 7494   6.405   4.010   5.635
 2517TIP3   OH2 7495   0.441   6.056   3.598
 2517TIP3    H1 7496   0.360   6.037   3.551
 2517TIP3    H2 7497   0.447   6.152   3.597
 2518TIP3   OH2 7498   1.549   5.601   0.959
 2518TIP3    H1 7499   1.493   5.532   0.922
 2518TIP3    H2 7500   1.602   5.555   1.024
 2519TIP3   OH2 7501   6.365   4.834   6.123
 2519TIP3    H1 7502   6.381   4.928   6.136
 2519TIP3    H2 7503   6.395   4.793   6.205
 2520TIP3   OH2 7504   6.413   4.890   2.730
 2520TIP3    H1 7505   6.325   4.920   2.751
 2520TIP3    H2 7506   6.423   4.807   2.777
 2521TIP3   OH2 7507   8.221   7.125   6.504
 2521TIP3    H1 7508   8.157   7.056   6.486
 2521TIP3    H2 7509   8.281   7.086   6.569
 2522TIP3   OH2 7510   6.891   2.020   4.299
 2522TIP3    H1 7511   6.902   2.047   4.390
 2522TIP3    H2 7512   6.904   2.100   4.248
 2523TIP3   OH2 7513   7.546   2.106   4.373
 2523TIP3    H1 7514   7.456   2.091   4.402
 2523TIP3    H2 7515   7.537   2.130   4.280
 2524TIP3   OH2 7516   2.482   0.746   5.465
 2524TIP3    H1 7517   2.567   0.703   5.473
 2524TIP3    H2 7518   2.499   0.821   5.408
 2525TIP3   OH2 7519   4.431   7.519   3.071
 2525TIP3    H1 7520   4.405   7.462   3.144
 2525TIP3    H2 7521   4.350   7.558   3.040
 2526TIP3   OH2 7522   0.532   6.400   0.794
 2526TIP3    H1 7523   0.593   6.371   0.862
 2526TIP3    H2 7524   0.537   6.331   0.727
 2527TIP3   OH2 7525   0.554   2.157   6.184
 2527TIP3    H1 7526   0.575   2.064   6.185
 2527TIP3    H2 7527   0.640   2.201   6.183
 2528TIP3   OH2 7528   0.811   1.625   4.103
 2528TIP3    H1 7529   0.716   1.630   4.097
 2528TIP3    H2 7530   0.836   1.701   4.157
 2529TIP3   OH2 7531   8.109   4.044   5.732
 2529TIP3    H1 7532   8.106   4.101   5.655
 2529TIP3    H2 7533   8.093   4.101   5.806
 2530TIP3   OH2 7534   2.860   6.409   2.070
 2530TIP3    H1 7535   2.931   6.359   2.030
 2530TIP3    H2 7536   2.903   6.479   2.118
 2531TIP3   OH2 7537   2.942   6.996   0.226
 2531TIP3    H1 7538   2.853   7.019   0.251
 2531TIP3    H2 7539   2.945   6.900   0.235
 2532TIP3   OH2 7540   3.519   1.523   6.019
 2532TIP3    H1 7541   3.537   1.594   5.958
 2532TIP3    H2 7542   3.424   1.509   6.013
 2533TIP3   OH2 7543   3.176   6.137   0.795
 2533TIP3    H1 7544   3.122   6.062   0.771
 2533TIP3    H2 7545   3.212   6.116   0.881
 2534TIP3   OH2 7546   8.082   5.618   6.621
 2534TIP3    H1 7547   8.173   5.648   6.610
 2534TIP3    H2 7548   8.060   5.642   6.711
 2535TIP3   OH2 7549   1.027   4.091   1.511
 2535TIP3    H1 7550   1.073   4.007   1.504
 2535TIP3    H2 7551   0.960   4.077   1.577
 2536TIP3   OH2 7552   8.232   2.333   3.565
 2536TIP3    H1 7553   8.226   2.251   3.614
 2536TIP3    H2 7554   8.326   2.353   3.562
 2537TIP3   OH2 7555   1.560   4.199   0.109
 2537TIP3    H1 7556   1.615   4.185   0.186
 2537TIP3    H2 7557   1.475   4.226   0.146
 2538TIP3   OH2 7558   1.565   3.151   3.028
 2538TIP3    H1 7559   1.501   3.160   2.957
 2538TIP3    H2 7560   1.512   3.143   3.107
 2539TIP3   OH2 7561   2.387   4.939   1.441
 2539TIP3    H1 7562   2.441   5.018   1.437
 2539TIP3    H2 7563   2.450   4.868   1.455
 2540TIP3   OH2 7564   3.696   6.893   0.060
 2540TIP3    H1 7565   3.723   6.893  -0.032
 2540TIP3    H2 7566   3.659   6.806   0.075
 2541TIP3   OH2 7567   0.543   6.071   0.853
 2541TIP3    H1 7568   0.560   6.066   0.759
 2541TIP3    H2 7569   0.604   6.138   0.885
 2542TIP3   OH2 7570   1.815   4.895   1.525
 2542TIP3    H1 7571   1.868   4.974   1.511
 2542TIP3    H2 7572   1.851   4.832   1.462
 2543TIP3   OH2 7573   1.208   7.323   2.724
 2543TIP3    H1 7574   1.172   7.394   2.672
 2543TIP3    H2 7575   1.133   7.267   2.745
 2544TIP3   OH2 7576   7.747   3.002   1.915
 2544TIP3    H1 7577   7.681   3.025   1.980
 2544TIP3    H2 7578   7.762   3.083   1.866
 2545TIP3   OH2 7579   3.023   6.961   2.416
 2545TIP3    H1 7580   3.008   7.031   2.353
 2545TIP3    H2 7581   2.953   6.970   2.480
 2546TIP3   OH2 7582   7.683   3.722   1.117
 2546TIP3    H1 7583   7.589   3.736   1.130
 2546TIP3    H2 7584   7.717   3.701   1.204
 2547TIP3   OH2 7585   6.424   2.100   1.048
 2547TIP3    H1 7586   6.461   2.079   0.962
 2547TIP3    H2 7587   6.387   2.188   1.037
 2548TIP3   OH2 7588   5.683   5.622   6.629
 2548TIP3    H1 7589   5.712   5.659   6.712
 2548TIP3    H2 7590   5.734   5.541   6.620
 2549TIP3   OH2 7591   2.270   5.580   3.025
 2549TIP3    H1 7592   2.352   5.586   2.976
 2549TIP3    H2 7593   2.277   5.650   3.091
 2550TIP3   OH2 7594   0.434   4.852   1.040
 2550TIP3    H1 7595   0.441   4.866   0.946
 2550TIP3    H2 7596   0.390   4.767   1.049
 2551TIP3   OH2 7597   3.885   4.835   3.421
 2551TIP3    H1 7598   3.799   4.877   3.420
 2551TIP3    H2 7599   3.941   4.895   3.371
 2552TIP3   OH2 7600   6.992   2.434   1.013
 2552TIP3    H1 7601   7.073   2.454   1.061
 2552TIP3    H2 7602   7.015   2.361   0.955
 2553TIP3   OH2 7603   6.350   0.160   6.107
 2553TIP3    H1 7604   6.297   0.144   6.029
 2553TIP3    H2 7605   6.339   0.253   6.126
 2554TIP3   OH2 7606   3.479   0.568   4.140
 2554TIP3    H1 7607   3.408   0.629   4.160
 2554TIP3    H2 7608   3.439   0.481   4.150
 2555TIP3   OH2 7609   8.004   0.420   6.311
 2555TIP3    H1 7610   8.086   0.436   6.358
 2555TIP3    H2 7611   7.935   0.443   6.373
 2556TIP3   OH2 7612   2.636   4.538   0.629
 2556TIP3    H1 7613   2.600   4.534   0.541
 2556TIP3    H2 7614   2.626   4.629   0.655
 2557TIP3   OH2 7615   7.055   0.272   2.573
 2557TIP3    H1 7616   6.992   0.331   2.615
 2557TIP3    H2 7617   7.141   0.306   2.599
 2558TIP3   OH2 7618   2.288   3.482   0.050
 2558TIP3    H1 7619   2.199   3.457   0.074
 2558TIP3    H2 7620   2.344   3.416   0.092
 2559TIP3   OH2 7621   7.271   1.175   5.099
 2559TIP3    H1 7622   7.267   1.263   5.135
 2559TIP3    H2 7623   7.181   1.158   5.068
 2560TIP3   OH2 7624   0.859   3.688   1.123
 2560TIP3    H1 7625   0.925   3.668   1.189
 2560TIP3    H2 7626   0.812   3.606   1.110
 2561TIP3   OH2 7627   4.710   4.450   3.246
 2561TIP3    H1 7628   4.710   4.454   3.150
 2561TIP3    H2 7629   4.618   4.436   3.269
 2562TIP3   OH2 7630   4.093   6.218   4.908
 2562TIP3    H1 7631   4.063   6.152   4.845
 2562TIP3    H2 7632   4.016   6.272   4.924
 2563TIP3   OH2 7633   1.718   4.672   6.167
 2563TIP3    H1 7634   1.714   4.594   6.111
 2563TIP3    H2 7635   1.762   4.641   6.246
 2564TIP3   OH2 7636   2.394   4.021   5.954
 2564TIP3    H1 7637   2.473   4.068   5.979
 2564TIP3    H2 7638   2.322   4.076   5.985
 2565TIP3   OH2 7639   2.834   6.569   2.775
 2565TIP3    H1 7640   2.866   6.642   2.828
 2565TIP3    H2 7641   2.741   6.587   2.764
 2566TIP3   OH2 7642   2.927   2.305   1.229
 2566TIP3    H1 7643   2.958   2.316   1.319
 2566TIP3    H2 7644   2.843   2.261   1.238
 2567TIP3   OH2 7645   7.292   6.706   4.447
 2567TIP3    H1 7646   7.365   6.765   4.466
 2567TIP3    H2 7647   7.321   6.621   4.479
 2568TIP3   OH2 7648   7.229   3.644   6.551
 2568TIP3    H1 7649   7.234   3.550   6.532
 2568TIP3    H2 7650   7.166   3.678   6.488
 2569TIP3   OH2 7651   0.872   6.596   6.384
 2569TIP3    H1 7652   0.874   6.684   6.421
 2569TIP3    H2 7653   0.867   6.611   6.289
 2570TIP3   OH2 7654   5.449   0.215   6.120
 2570TIP3    H1 7655   5.382   0.282   6.103
 2570TIP3    H2 7656   5.522   0.239   6.063
 2571TIP3   OH2 7657   0.384   4.477   6.031
 2571TIP3    H1 7658   0.405   4.561   6.072
 2571TIP3    H2 7659   0.461   4.456   5.979
 2572TIP3   OH2 7660   5.425   5.124   5.864
 2572TIP3    H1 7661   5.362   5.058   5.835
 2572TIP3    H2 7662   5.491   5.074   5.911
 2573TIP3   OH2 7663   3.291   5.787   1.194
 2573TIP3    H1 7664   3.231   5.860   1.208
 2573TIP3    H2 7665   3.259   5.718   1.252
 2574TIP3   OH2 7666   4.085   5.774   1.946
 2574TIP3    H1 7667   3.999   5.735   1.926
 2574TIP3    H2 7668   4.076   5.866   1.923
 2575TIP3   OH2 7669   7.109   2.112   0.758
 2575TIP3    H1 7670   7.100   2.207   0.744
 2575TIP3    H2 7671   7.189   2.089   0.710
 2576TIP3   OH2 7672   0.287   2.119   5.965
 2576TIP3    H1 7673   0.375   2.151   5.985
 2576TIP3    H2 7674   0.256   2.081   6.047
 2577TIP3   OH2 7675   0.923   1.611   2.778
 2577TIP3    H1 7676   0.979   1.572   2.845
 2577TIP3    H2 7677   0.983   1.635   2.708
 2578TIP3   OH2 7678   6.216   3.661   6.456
 2578TIP3    H1 7679   6.197   3.744   6.413
 2578TIP3    H2 7680   6.132   3.631   6.489
 2579TIP3   OH2 7681   2.059   5.975   6.392
 2579TIP3    H1 7682   2.128   5.917   6.360
 2579TIP3    H2 7683   2.104   6.054   6.421
 2580TIP3   OH2 7684   4.652   6.518   3.428
 2580TIP3    H1 7685   4.704   6.504   3.348
 2580TIP3    H2 7686   4.572   6.561   3.398
 2581TIP3   OH2 7687   4.258   6.027   2.176
 2581TIP3    H1 7688   4.299   6.005   2.093
 2581TIP3    H2 7689   4.216   6.111   2.161
 2582TIP3   OH2 7690   1.128   5.810   1.715
 2582TIP3    H1 7691   1.069   5.865   1.766
 2582TIP3    H2 7692   1.162   5.746   1.777
 2583TIP3   OH2 7693   5.089   3.771   0.968
 2583TIP3    H1 7694   5.040   3.711   0.911
 2583TIP3    H2 7695   5.034   3.783   1.045
 2584TIP3   OH2 7696   4.276   4.233   5.051
 2584TIP3    H1 7697   4.269   4.261   4.960
 2584TIP3    H2 7698   4.229   4.150   5.054
 2585TIP3   OH2 7699   3.561   0.841   3.569
 2585TIP3    H1 7700   3.573   0.748   3.589
 2585TIP3    H2 7701   3.634   0.862   3.511
 2586TIP3   OH2 7702   3.880   3.345   2.815
 2586TIP3    H1 7703   3.973   3.344   2.839
 2586TIP3    H2 7704   3.835   3.320   2.896
 2587TIP3   OH2 7705   5.523   2.847   6.416
 2587TIP3    H1 7706   5.505   2.914   6.351
 2587TIP3    H2 7707   5.577   2.782   6.370
 2588TIP3   OH2 7708   4.265   6.498   1.236
 2588TIP3    H1 7709   4.202   6.477   1.305
 2588TIP3    H2 7710   4.226   6.463   1.156
 2589TIP3   OH2 7711   7.542   6.188   6.272
 2589TIP3    H1 7712   7.458   6.161   6.237
 2589TIP3    H2 7713   7.605   6.170   6.202
 2590TIP3   OH2 7714   0.910   5.158   3.771
 2590TIP3    H1 7715   0.866   5.169   3.855
 2590TIP3    H2 7716   0.914   5.064   3.757
 2591TIP3   OH2 7717   3.579   3.312   2.304
 2591TIP3    H1 7718   3.556   3.405   2.311
 2591TIP3    H2 7719   3.506   3.266   2.345
 2592TIP3   OH2 7720   5.641   4.908   3.808
 2592TIP3    H1 7721   5.562   4.959   3.792
 2592TIP3    H2 7722   5.686   4.955   3.878
 2593TIP3   OH2 7723   4.471   4.356   3.824
 2593TIP3    H1 7724   4.384   4.363   3.862
 2593TIP3    H2 7725   4.456   4.356   3.729
 2594TIP3   OH2 7726   1.751   1.950   1.767
 2594TIP3    H1 7727   1.674   1.973   1.819
 2594TIP3    H2 7728   1.824   1.995   1.809
 2595TIP3   OH2 7729   4.693   0.088   3.843
 2595TIP3    H1 7730   4.785   0.069   3.861
 2595TIP3    H2 7731   4.645   0.024   3.896
 2596TIP3   OH2 7732   5.305   4.012   6.119
 2596TIP3    H1 7733   5.241   4.015   6.190
 2596TIP3    H2 7734   5.324   3.919   6.107
 2597TIP3   OH2 7735   0.774   0.607   1.122
 2597TIP3    H1 7736   0.716   0.650   1.184
 2597TIP3    H2 7737   0.771   0.662   1.043
 2598TIP3   OH2 7738   0.779   4.018   3.415
 2598TIP3    H1 7739   0.686   3.996   3.404
 2598TIP3    H2 7740   0.812   3.952   3.476
 2599TIP3   OH2 7741   4.084   0.284   4.931
 2599TIP3    H1 7742   4.084   0.302   4.838
 2599TIP3    H2 7743   4.078   0.370   4.973
 2600TIP3   OH2 7744   8.255   5.494   5.092
 2600TIP3    H1 7745   8.172   5.536   5.111
 2600TIP3    H2 7746   8.282   5.455   5.175
 2601TIP3   OH2 7747   4.609   1.875   4.480
 2601TIP3    H1 7748   4.545   1.943   4.499
 2601TIP3    H2 7749   4.559   1.793   4.482
 2602TIP3   OH2 7750   7.599   2.274   5.457
 2602TIP3    H1 7751   7.557   2.233   5.533
 2602TIP3    H2 7752   7.648   2.347   5.494
 2603TIP3   OH2 7753   3.539   7.145   3.178
 2603TIP3    H1 7754   3.620   7.102   3.205
 2603TIP3    H2 7755   3.510   7.192   3.256
 2604TIP3   OH2 7756   0.503   7.540   5.144
 2604TIP3    H1 7757   0.488   7.586   5.061
 2604TIP3    H2 7758   0.463   7.454   5.130
 2605TIP3   OH2 7759   6.146   7.026   6.108
 2605TIP3    H1 7760   6.212   7.091   6.134
 2605TIP3    H2 7761   6.071   7.045   6.164
 2606TIP3   OH2 7762   3.064   3.314   4.263
 2606TIP3    H1 7763   3.008   3.342   4.335
 2606TIP3    H2 7764   3.153   3.316   4.299
 2607TIP3   OH2 7765   0.663   2.588   2.070
 2607TIP3    H1 7766   0.734   2.552   2.016
 2607TIP3    H2 7767   0.619   2.512   2.106
 2608TIP3   OH2 7768   6.203   2.509   5.555
 2608TIP3    H1 7769   6.166   2.564   5.624
 2608TIP3    H2 7770   6.271   2.563   5.515
 2609TIP3   OH2 7771   5.315   1.281   1.015
 2609TIP3    H1 7772   5.252   1.309   1.082
 2609TIP3    H2 7773   5.278   1.201   0.978
 2610TIP3   OH2 7774   4.454   6.022   0.063
 2610TIP3    H1 7775   4.548   6.001   0.070
 2610TIP3    H2 7776   4.426   5.974  -0.015
 2611TIP3   OH2 7777   8.135   3.373   6.450
 2611TIP3    H1 7778   8.080   3.449   6.431
 2611TIP3    H2 7779   8.222   3.409   6.468
 2612TIP3   OH2 7780   8.164   6.251   1.261
 2612TIP3    H1 7781   8.253   6.255   1.226
 2612TIP3    H2 7782   8.163   6.316   1.331
 2613TIP3   OH2 7783   1.823   4.321   2.615
 2613TIP3    H1 7784   1.772   4.340   2.695
 2613TIP3    H2 7785   1.893   4.263   2.645
 2614TIP3   OH2 7786   7.506   0.543   6.091
 2614TIP3    H1 7787   7.477   0.629   6.059
 2614TIP3    H2 7788   7.550   0.503   6.016
 2615TIP3   OH2 7789   1.432   5.449   5.332
 2615TIP3    H1 7790   1.429   5.401   5.414
 2615TIP3    H2 7791   1.365   5.407   5.277
 2616TIP3   OH2 7792   3.865   6.575   4.213
 2616TIP3    H1 7793   3.876   6.665   4.184
 2616TIP3    H2 7794   3.780   6.549   4.178
 2617TIP3   OH2 7795   2.954   6.021   0.974
 2617TIP3    H1 7796   2.911   5.962   1.036
 2617TIP3    H2 7797   2.997   5.962   0.912
 2618TIP3   OH2 7798   0.663   1.684   0.737
 2618TIP3    H1 7799   0.689   1.774   0.715
 2618TIP3    H2 7800   0.704   1.630   0.668
 2619TIP3   OH2 7801   0.466   5.821   1.453
 2619TIP3    H1 7802   0.393   5.832   1.393
 2619TIP3    H2 7803   0.428   5.832   1.540
 2620TIP3   OH2 7804   3.413   7.814   4.696
 2620TIP3    H1 7805   3.434   7.844   4.785
 2620TIP3    H2 7806   3.481   7.750   4.676
 2621TIP3   OH2 7807   6.363   6.522   4.575
 2621TIP3    H1 7808   6.394   6.496   4.661
 2621TIP3    H2 7809   6.354   6.618   4.580
 2622TIP3   OH2 7810   7.397   4.628   0.532
 2622TIP3    H1 7811   7.364   4.706   0.577
 2622TIP3    H2 7812   7.323   4.567   0.533
 2623TIP3   OH2 7813   6.956   0.702   0.290
 2623TIP3    H1 7814   6.879   0.743   0.250
 2623TIP3    H2 7815   6.987   0.640   0.223
 2624TIP3   OH2 7816   6.186   1.596   0.045
 2624TIP3    H1 7817   6.117   1.658   0.070
 2624TIP3    H2 7818   6.202   1.545   0.124
 2625TIP3   OH2 7819   8.263   5.162   2.945
 2625TIP3    H1 7820   8.196   5.146   3.012
 2625TIP3    H2 7821   8.339   5.192   2.995
 2626TIP3   OH2 7822   0.525   4.706   5.548
 2626TIP3    H1 7823   0.438   4.705   5.587
 2626TIP3    H2 7824   0.509   4.709   5.453
 2627TIP3   OH2 7825   3.370   5.277   2.538
 2627TIP3    H1 7826   3.370   5.355   2.595
 2627TIP3    H2 7827   3.400   5.310   2.453
 2628TIP3   OH2 7828   5.840   4.216   3.915
 2628TIP3    H1 7829   5.875   4.159   3.983
 2628TIP3    H2 7830   5.899   4.291   3.913
 2629TIP3   OH2 7831   3.151   0.822   6.195
 2629TIP3    H1 7832   3.098   0.772   6.258
 2629TIP3    H2 7833   3.195   0.888   6.247
 2630TIP3   OH2 7834   1.085   6.282   2.953
 2630TIP3    H1 7835   1.080   6.360   3.009
 2630TIP3    H2 7836   1.096   6.317   2.865
 2631TIP3   OH2 7837   7.714   4.247   2.664
 2631TIP3    H1 7838   7.756   4.216   2.584
 2631TIP3    H2 7839   7.622   4.259   2.640
 2632TIP3   OH2 7840   7.156   2.850   5.351
 2632TIP3    H1 7841   7.079   2.808   5.312
 2632TIP3    H2 7842   7.212   2.776   5.377
 2633TIP3   OH2 7843   6.167   7.320   5.380
 2633TIP3    H1 7844   6.078   7.291   5.399
 2633TIP3    H2 7845   6.221   7.280   5.449
 2634TIP3   OH2 7846   3.343   1.070   0.719
 2634TIP3    H1 7847   3.327   1.153   0.676
 2634TIP3    H2 7848   3.304   1.005   0.661
 2635TIP3   OH2 7849   3.178   7.180   2.498
 2635TIP3    H1 7850   3.166   7.086   2.486
 2635TIP3    H2 7851   3.189   7.215   2.409
 2636TIP3   OH2 7852   8.211   1.930   5.142
 2636TIP3    H1 7853   8.253   1.849   5.171
 2636TIP3    H2 7854   8.284   1.991   5.130
 2637TIP3   OH2 7855   1.685   1.184   2.549
 2637TIP3    H1 7856   1.764   1.178   2.495
 2637TIP3    H2 7857   1.618   1.140   2.497
 2638TIP3   OH2 7858   3.369   0.554   4.488
 2638TIP3    H1 7859   3.339   0.536   4.577
 2638TIP3    H2 7860   3.293   0.536   4.433
 2639TIP3   OH2 7861   6.717   0.977   0.578
 2639TIP3    H1 7862   6.787   0.952   0.518
 2639TIP3    H2 7863   6.739   0.931   0.659
 2640TIP3   OH2 7864   0.859   6.613   6.108
 2640TIP3    H1 7865   0.816   6.654   6.033
 2640TIP3    H2 7866   0.935   6.568   6.070
 2641TIP3   OH2 7867   1.786   0.092   0.992
 2641TIP3    H1 7868   1.811   0.005   0.960
 2641TIP3    H2 7869   1.836   0.103   1.073
 2642TIP3   OH2 7870   5.135   4.562   0.449
 2642TIP3    H1 7871   5.170   4.568   0.538
 2642TIP3    H2 7872   5.208   4.526   0.397
 2643TIP3   OH2 7873   1.678   6.220   1.682
 2643TIP3    H1 7874   1.631   6.295   1.648
 2643TIP3    H2 7875   1.689   6.238   1.775
 2644TIP3   OH2 7876   3.446   7.414   4.618
 2644TIP3    H1 7877   3.392   7.339   4.644
 2644TIP3    H2 7878   3.465   7.398   4.526
 2645TIP3   OH2 7879   6.229   1.862   5.522
 2645TIP3    H1 7880   6.271   1.948   5.522
 2645TIP3    H2 7881   6.298   1.802   5.551
 2646TIP3   OH2 7882   4.791   3.991   1.358
 2646TIP3    H1 7883   4.838   3.935   1.419
 2646TIP3    H2 7884   4.759   3.932   1.290
 2647TIP3   OH2 7885   7.474   6.399   3.915
 2647TIP3    H1 7886   7.566   6.373   3.923
 2647TIP3    H2 7887   7.439   6.389   4.004
 2648TIP3   OH2 7888   6.923   2.938   0.642
 2648TIP3    H1 7889   6.888   2.986   0.717
 2648TIP3    H2 7890   6.857   2.950   0.573
 2649TIP3   OH2 7891   6.488   2.805   0.009
 2649TIP3    H1 7892   6.547   2.861   0.059
 2649TIP3    H2 7893   6.415   2.863  -0.016
 2650TIP3   OH2 7894   1.852   6.523   6.615
 2650TIP3    H1 7895   1.864   6.573   6.696
 2650TIP3    H2 7896   1.845   6.432   6.644
 2651TIP3   OH2 7897   2.313   2.317   2.841
 2651TIP3    H1 7898   2.368   2.239   2.835
 2651TIP3    H2 7899   2.368   2.387   2.806
 2652TIP3   OH2 7900   4.783   0.624   5.913
 2652TIP3    H1 7901   4.704   0.615   5.860
 2652TIP3    H2 7902   4.821   0.535   5.915
 2653TIP3   OH2 7903   0.972   4.699   5.312
 2653TIP3    H1 7904   1.019   4.688   5.395
 2653TIP3    H2 7905   0.888   4.737   5.337
 2654TIP3   OH2 7906   3.675   4.724   4.921
 2654TIP3    H1 7907   3.695   4.766   4.838
 2654TIP3    H2 7908   3.709   4.785   4.987
 2655TIP3   OH2 7909   2.316   7.233   5.090
 2655TIP3    H1 7910   2.358   7.233   5.004
 2655TIP3    H2 7911   2.386   7.209   5.151
 2656TIP3   OH2 7912   1.286   6.488   3.332
 2656TIP3    H1 7913   1.239   6.414   3.370
 2656TIP3    H2 7914   1.378   6.471   3.352
 2657TIP3   OH2 7915   4.345   0.382   1.085
 2657TIP3    H1 7916   4.387   0.389   0.999
 2657TIP3    H2 7917   4.392   0.310   1.128
 2658TIP3   OH2 7918   1.556   5.943   4.373
 2658TIP3    H1 7919   1.576   6.033   4.399
 2658TIP3    H2 7920   1.630   5.916   4.319
 2659TIP3   OH2 7921   6.426   5.786   2.662
 2659TIP3    H1 7922   6.505   5.804   2.610
 2659TIP3    H2 7923   6.458   5.736   2.737
 2660TIP3   OH2 7924   2.293   5.356   1.752
 2660TIP3    H1 7925   2.363   5.414   1.779
 2660TIP3    H2 7926   2.223   5.414   1.723
 2661TIP3   OH2 7927   5.731   5.941   3.376
 2661TIP3    H1 7928   5.697   6.015   3.324
 2661TIP3    H2 7929   5.807   5.911   3.326
 2662TIP3   OH2 7930   2.179   0.494   1.123
 2662TIP3    H1 7931   2.107   0.454   1.074
 2662TIP3    H2 7932   2.152   0.489   1.214
 2663TIP3   OH2 7933   2.314   3.128   0.760
 2663TIP3    H1 7934   2.318   3.148   0.854
 2663TIP3    H2 7935   2.395   3.166   0.725
 2664TIP3   OH2 7936   6.831   5.529   5.747
 2664TIP3    H1 7937   6.831   5.492   5.659
 2664TIP3    H2 7938   6.848   5.454   5.804
 2665TIP3   OH2 7939   4.572   1.085   4.038
 2665TIP3    H1 7940   4.480   1.072   4.063
 2665TIP3    H2 7941   4.611   1.131   4.113
 2666TIP3   OH2 7942   5.890   2.388   2.341
 2666TIP3    H1 7943   5.808   2.354   2.378
 2666TIP3    H2 7944   5.931   2.311   2.300
 2667TIP3   OH2 7945   6.699   4.429   0.222
 2667TIP3    H1 7946   6.782   4.381   0.223
 2667TIP3    H2 7947   6.710   4.495   0.154
 2668TIP3   OH2 7948   4.322   1.389   5.031
 2668TIP3    H1 7949   4.296   1.366   5.120
 2668TIP3    H2 7950   4.406   1.344   5.018
 2669TIP3   OH2 7951   5.844   4.161   3.473
 2669TIP3    H1 7952   5.928   4.191   3.438
 2669TIP3    H2 7953   5.783   4.231   3.448
 2670TIP3   OH2 7954   5.677   0.722   2.764
 2670TIP3    H1 7955   5.601   0.759   2.719
 2670TIP3    H2 7956   5.640   0.663   2.829
 2671TIP3   OH2 7957   7.221   7.423   1.917
 2671TIP3    H1 7958   7.229   7.503   1.866
 2671TIP3    H2 7959   7.282   7.436   1.990
 2672TIP3   OH2 7960   5.436   7.653   5.604
 2672TIP3    H1 7961   5.521   7.698   5.605
 2672TIP3    H2 7962   5.454   7.568   5.564
 2673TIP3   OH2 7963   1.363   7.120   0.762
 2673TIP3    H1 7964   1.350   7.209   0.794
 2673TIP3    H2 7965   1.310   7.115   0.683
 2674TIP3   OH2 7966   7.304   4.188   2.253
 2674TIP3    H1 7967   7.259   4.272   2.258
 2674TIP3    H2 7968   7.367   4.200   2.181
 2675TIP3   OH2 7969   4.052   2.110   5.747
 2675TIP3    H1 7970   4.071   2.019   5.768
 2675TIP3    H2 7971   3.981   2.134   5.807
 2676TIP3   OH2 7972   5.791   0.898   1.913
 2676TIP3    H1 7973   5.819   0.808   1.931
 2676TIP3    H2 7974   5.806   0.945   1.995
 2677TIP3   OH2 7975   4.521   7.749   3.509
 2677TIP3    H1 7976   4.474   7.795   3.440
 2677TIP3    H2 7977   4.518   7.808   3.584
 2678TIP3   OH2 7978   3.423   3.628   0.797
 2678TIP3    H1 7979   3.332   3.637   0.827
 2678TIP3    H2 7980   3.422   3.665   0.709
 2679TIP3   OH2 7981   1.639   0.805   0.214
 2679TIP3    H1 7982   1.589   0.779   0.137
 2679TIP3    H2 7983   1.729   0.777   0.194
 2680TIP3   OH2 7984   4.463   7.639   4.265
 2680TIP3    H1 7985   4.534   7.667   4.323
 2680TIP3    H2 7986   4.388   7.625   4.323
 2681TIP3   OH2 7987   2.106   1.397   6.467
 2681TIP3    H1 7988   2.024   1.399   6.419
 2681TIP3    H2 7989   2.136   1.306   6.462
 2682TIP3   OH2 7990   3.038   7.696   0.598
 2682TIP3    H1 7991   3.074   7.615   0.561
 2682TIP3    H2 7992   2.959   7.712   0.546
 2683TIP3   OH2 7993   1.311   7.836   0.868
 2683TIP3    H1 7994   1.255   7.758   0.862
 2683TIP3    H2 7995   1.391   7.804   0.912
 2684TIP3   OH2 7996   3.291   0.222   0.021
 2684TIP3    H1 7997   3.352   0.252   0.088
 2684TIP3    H2 7998   3.207   0.217   0.066
 2685TIP3   OH2 7999   6.454   5.614   2.880
 2685TIP3    H1 8000   6.436   5.524   2.905
 2685TIP3    H2 8001   6.397   5.666   2.936
 2686TIP3   OH2 8002   2.677   5.628   0.551
 2686TIP3    H1 8003   2.630   5.711   0.545
 2686TIP3    H2 8004   2.768   5.653   0.566
 2687TIP3   OH2 8005   2.846   3.416   4.458
 2687TIP3    H1 8006   2.842   3.511   4.448
 2687TIP3    H2 8007   2.846   3.402   4.553
 2688TIP3   OH2 8008   4.977   0.344   2.539
 2688TIP3    H1 8009   5.008   0.421   2.587
 2688TIP3    H2 8010   5.039   0.275   2.563
 2689TIP3   OH2 8011   2.447   6.662   4.487
 2689TIP3    H1 8012   2.495   6.590   4.445
 2689TIP3    H2 8013   2.355   6.636   4.483
 2690TIP3   OH2 8014   5.148   0.642   0.633
 2690TIP3    H1 8015   5.098   0.582   0.578
 2690TIP3    H2 8016   5.184   0.707   0.572
 2691TIP3   OH2 8017   5.407   1.760   3.360
 2691TIP3    H1 8018   5.380   1.669   3.345
 2691TIP3    H2 8019   5.371   1.809   3.287
 2692TIP3   OH2 8020   1.613   5.309   3.638
 2692TIP3    H1 8021   1.607   5.404   3.650
 2692TIP3    H2 8022   1.539   5.274   3.687
 2693TIP3   OH2 8023   8.095   5.961   5.650
 2693TIP3    H1 8024   8.084   5.935   5.741
 2693TIP3    H2 8025   8.185   5.937   5.628
 2694TIP3   OH2 8026   3.651   1.930   6.121
 2694TIP3    H1 8027   3.582   1.944   6.056
 2694TIP3    H2 8028   3.721   1.886   6.072
 2695TIP3   OH2 8029   2.818   7.714   5.083
 2695TIP3    H1 8030   2.889   7.650   5.080
 2695TIP3    H2 8031   2.862   7.799   5.078
 2696TIP3   OH2 8032   7.180   2.392   5.181
 2696TIP3    H1 8033   7.175   2.486   5.164
 2696TIP3    H2 8034   7.184   2.352   5.095
 2697TIP3   OH2 8035   5.895   6.392   0.655
 2697TIP3    H1 8036   5.850   6.414   0.736
 2697TIP3    H2 8037   5.976   6.349   0.682
 2698TIP3   OH2 8038   1.932   5.875   5.991
 2698TIP3    H1 8039   1.922   5.787   6.027
 2698TIP3    H2 8040   2.021   5.877   5.956
 2699TIP3   OH2 8041   1.135   6.511   6.008
 2699TIP3    H1 8042   1.227   6.484   6.012
 2699TIP3    H2 8043   1.126   6.575   6.078
 2700TIP3   OH2 8044   8.019   2.751   0.645
 2700TIP3    H1 8045   8.073   2.820   0.683
 2700TIP3    H2 8046   7.975   2.711   0.720
 2701TIP3   OH2 8047   2.572   2.476   6.257
 2701TIP3    H1 8048   2.526   2.405   6.301
 2701TIP3    H2 8049   2.511   2.550   6.259
 2702TIP3   OH2 8050   4.358   4.714   5.507
 2702TIP3    H1 8051   4.300   4.652   5.463
 2702TIP3    H2 8052   4.302   4.787   5.532
 2703TIP3   OH2 8053   4.117   4.126   1.685
 2703TIP3    H1 8054   4.025   4.147   1.670
 2703TIP3    H2 8055   4.158   4.132   1.599
 2704TIP3   OH2 8056   2.362   1.072   3.574
 2704TIP3    H1 8057   2.379   1.025   3.656
 2704TIP3    H2 8058   2.414   1.152   3.580
 2705TIP3   OH2 8059   3.315   0.567   1.319
 2705TIP3    H1 8060   3.361   0.534   1.395
 2705TIP3    H2 8061   3.228   0.591   1.352
 2706TIP3   OH2 8062   1.076   3.878   5.766
 2706TIP3    H1 8063   1.090   3.830   5.685
 2706TIP3    H2 8064   1.159   3.924   5.781
 2707TIP3   OH2 8065   2.166   5.786   0.508
 2707TIP3    H1 8066   2.093   5.829   0.463
 2707TIP3    H2 8067   2.243   5.838   0.485
 2708TIP3   OH2 8068   6.261   3.198   3.429
 2708TIP3    H1 8069   6.308   3.117   3.411
 2708TIP3    H2 8070   6.174   3.185   3.391
 2709TIP3   OH2 8071   5.928   6.899   5.437
 2709TIP3    H1 8072   5.882   6.817   5.418
 2709TIP3    H2 8073   5.890   6.930   5.520
 2710TIP3   OH2 8074   1.049   3.187   4.006
 2710TIP3    H1 8075   0.994   3.265   3.997
 2710TIP3    H2 8076   1.063   3.179   4.100
 2711TIP3   OH2 8077   1.749   1.977   2.305
 2711TIP3    H1 8078   1.693   2.054   2.313
 2711TIP3    H2 8079   1.786   1.964   2.392
 2712TIP3   OH2 8080   3.996   3.044   4.446
 2712TIP3    H1 8081   4.009   3.110   4.514
 2712TIP3    H2 8082   3.983   2.962   4.494
 2713TIP3   OH2 8083   4.971   2.457   4.521
 2713TIP3    H1 8084   4.999   2.386   4.578
 2713TIP3    H2 8085   5.037   2.460   4.452
 2714TIP3   OH2 8086   1.865   2.679   5.557
 2714TIP3    H1 8087   1.826   2.596   5.531
 2714TIP3    H2 8088   1.935   2.654   5.618
 2715TIP3   OH2 8089   3.506   3.874   6.008
 2715TIP3    H1 8090   3.457   3.843   5.932
 2715TIP3    H2 8091   3.592   3.896   5.973
 2716TIP3   OH2 8092   1.253   1.883   0.392
 2716TIP3    H1 8093   1.262   1.969   0.351
 2716TIP3    H2 8094   1.217   1.827   0.323
 2717TIP3   OH2 8095   4.463   7.211   2.853
 2717TIP3    H1 8096   4.423   7.285   2.807
 2717TIP3    H2 8097   4.390   7.163   2.891
 2718TIP3   OH2 8098   2.175   4.679   6.373
 2718TIP3    H1 8099   2.232   4.696   6.448
 2718TIP3    H2 8100   2.224   4.711   6.297
 2719TIP3   OH2 8101   3.055   3.996   3.604
 2719TIP3    H1 8102   3.143   4.032   3.595
 2719TIP3    H2 8103   3.039   3.996   3.698
 2720TIP3   OH2 8104   7.675   4.576   3.836
 2720TIP3    H1 8105   7.716   4.653   3.797
 2720TIP3    H2 8106   7.667   4.514   3.764
 2721TIP3   OH2 8107   0.237   3.148   5.457
 2721TIP3    H1 8108   0.310   3.174   5.401
 2721TIP3    H2 8109   0.199   3.231   5.486
 2722TIP3   OH2 8110   0.030   4.142   0.795
 2722TIP3    H1 8111   0.011   4.073   0.858
 2722TIP3    H2 8112   0.070   4.212   0.847
 2723TIP3   OH2 8113   2.784   7.037   4.848
 2723TIP3    H1 8114   2.747   6.989   4.922
 2723TIP3    H2 8115   2.714   7.039   4.783
 2724TIP3   OH2 8116   3.547   5.196   3.068
 2724TIP3    H1 8117   3.488   5.254   3.020
 2724TIP3    H2 8118   3.613   5.171   3.004
 2725TIP3   OH2 8119   4.725   2.365   4.035
 2725TIP3    H1 8120   4.820   2.374   4.038
 2725TIP3    H2 8121   4.699   2.344   4.124
 2726TIP3   OH2 8122   4.847   5.800   1.450
 2726TIP3    H1 8123   4.805   5.886   1.457
 2726TIP3    H2 8124   4.916   5.801   1.516
 2727TIP3   OH2 8125   4.539   5.196   5.258
 2727TIP3    H1 8126   4.459   5.249   5.261
 2727TIP3    H2 8127   4.589   5.225   5.334
 2728TIP3   OH2 8128   2.008   3.486   2.288
 2728TIP3    H1 8129   1.998   3.403   2.242
 2728TIP3    H2 8130   2.027   3.549   2.219
 2729TIP3   OH2 8131   5.257   2.714   3.894
 2729TIP3    H1 8132   5.168   2.679   3.897
 2729TIP3    H2 8133   5.287   2.695   3.804
 2730TIP3   OH2 8134   0.647   7.205   3.150
 2730TIP3    H1 8135   0.635   7.172   3.239
 2730TIP3    H2 8136   0.562   7.241   3.126
 2731TIP3   OH2 8137   4.462   7.453   6.586
 2731TIP3    H1 8138   4.541   7.480   6.540
 2731TIP3    H2 8139   4.434   7.373   6.542
 2732TIP3   OH2 8140   1.910   4.697   4.247
 2732TIP3    H1 8141   1.958   4.763   4.296
 2732TIP3    H2 8142   1.833   4.679   4.301
 2733TIP3   OH2 8143   3.749   2.202   2.379
 2733TIP3    H1 8144   3.767   2.173   2.290
 2733TIP3    H2 8145   3.814   2.270   2.396
 2734TIP3   OH2 8146   6.798   1.230   0.495
 2734TIP3    H1 8147   6.751   1.152   0.523
 2734TIP3    H2 8148   6.730   1.297   0.485
 2735TIP3   OH2 8149   4.882   0.037   3.035
 2735TIP3    H1 8150   4.923   0.029   3.122
 2735TIP3    H2 8151   4.809  -0.026   3.037
 2736TIP3   OH2 8152   3.871   6.399   4.916
 2736TIP3    H1 8153   3.896   6.407   4.824
 2736TIP3    H2 8154   3.777   6.416   4.916
 2737TIP3   OH2 8155   6.202   3.942   6.177
 2737TIP3    H1 8156   6.294   3.942   6.203
 2737TIP3    H2 8157   6.154   3.968   6.256
 2738TIP3   OH2 8158   1.909   1.090   1.772
 2738TIP3    H1 8159   1.932   1.030   1.701
 2738TIP3    H2 8160   1.859   1.160   1.730
 2739TIP3   OH2 8161   7.377   1.440   5.128
 2739TIP3    H1 8162   7.390   1.389   5.048
 2739TIP3    H2 8163   7.370   1.531   5.098
 2740TIP3   OH2 8164   5.134   1.326   3.221
 2740TIP3    H1 8165   5.198   1.340   3.152
 2740TIP3    H2 8166   5.052   1.360   3.185
 2741TIP3   OH2 8167   3.306   0.405   5.884
 2741TIP3    H1 8168   3.391   0.415   5.841
 2741TIP3    H2 8169   3.300   0.479   5.944
 2742TIP3   OH2 8170   6.440   3.738   2.226
 2742TIP3    H1 8171   6.430   3.783   2.310
 2742TIP3    H2 8172   6.513   3.677   2.241
 2743TIP3   OH2 8173   4.542   7.183   2.224
 2743TIP3    H1 8174   4.476   7.206   2.290
 2743TIP3    H2 8175   4.511   7.225   2.143
 2744TIP3   OH2 8176   2.094   2.150   3.920
 2744TIP3    H1 8177   2.151   2.078   3.892
 2744TIP3    H2 8178   2.103   2.153   4.015
 2745TIP3   OH2 8179   7.015   6.939   2.361
 2745TIP3    H1 8180   7.088   6.927   2.422
 2745TIP3    H2 8181   7.010   6.857   2.312
 2746TIP3   OH2 8182   6.941   6.924   5.146
 2746TIP3    H1 8183   6.965   6.871   5.071
 2746TIP3    H2 8184   6.940   6.863   5.220
 2747TIP3   OH2 8185   7.401   1.992   0.941
 2747TIP3    H1 8186   7.377   1.969   1.031
 2747TIP3    H2 8187   7.493   1.966   0.934
 2748TIP3   OH2 8188   1.531   1.685   0.881
 2748TIP3    H1 8189   1.452   1.635   0.861
 2748TIP3    H2 8190   1.585   1.676   0.803
 2749TIP3   OH2 8191   6.138   6.925   6.446
 2749TIP3    H1 8192   6.098   6.995   6.497
 2749TIP3    H2 8193   6.221   6.962   6.416
 2750TIP3   OH2 8194   4.899   7.187   1.912
 2750TIP3    H1 8195   4.934   7.111   1.959
 2750TIP3    H2 8196   4.804   7.183   1.928
 2751TIP3   OH2 8197   0.828   0.758   1.388
 2751TIP3    H1 8198   0.923   0.766   1.394
 2751TIP3    H2 8199   0.805   0.802   1.306
 2752TIP3   OH2 8200   6.034   1.158   1.320
 2752TIP3    H1 8201   6.098   1.214   1.277
 2752TIP3    H2 8202   5.951   1.205   1.311
 2753TIP3   OH2 8203   8.254   2.978   2.091
 2753TIP3    H1 8204   8.304   3.031   2.153
 2753TIP3    H2 8205   8.171   3.025   2.081
 2754TIP3   OH2 8206   6.880   7.819   5.927
 2754TIP3    H1 8207   6.811   7.828   5.993
 2754TIP3    H2 8208   6.933   7.746   5.958
 2755TIP3   OH2 8209   2.815   6.926   4.311
 2755TIP3    H1 8210   2.753   6.948   4.242
 2755TIP3    H2 8211   2.859   7.008   4.332
 2756TIP3   OH2 8212   2.229   2.716   6.164
 2756TIP3    H1 8213   2.304   2.770   6.189
 2756TIP3    H2 8214   2.166   2.728   6.234
 2757TIP3   OH2 8215   3.964   0.751   1.928
 2757TIP3    H1 8216   3.873   0.757   1.957
 2757TIP3    H2 8217   3.976   0.827   1.871
 2758TIP3   OH2 8218   8.050   5.654   1.964
 2758TIP3    H1 8219   7.958   5.629   1.969
 2758TIP3    H2 8220   8.072   5.683   2.053
 2759TIP3   OH2 8221   5.838   6.104   2.464
 2759TIP3    H1 8222   5.773   6.157   2.420
 2759TIP3    H2 8223   5.911   6.163   2.480
 2760TIP3   OH2 8224   5.253   3.348   0.889
 2760TIP3    H1 8225   5.283   3.397   0.965
 2760TIP3    H2 8226   5.294   3.262   0.898
 2761TIP3   OH2 8227   2.105   7.482   1.511
 2761TIP3    H1 8228   2.109   7.397   1.466
 2761TIP3    H2 8229   2.015   7.512   1.497
 2762TIP3   OH2 8230   2.555   3.690   6.428
 2762TIP3    H1 8231   2.543   3.595   6.424
 2762TIP3    H2 8232   2.619   3.709   6.359
 2763TIP3   OH2 8233   2.875   3.848   1.107
 2763TIP3    H1 8234   2.892   3.780   1.173
 2763TIP3    H2 8235   2.919   3.926   1.142
 2764TIP3   OH2 8236   1.198   3.379   2.206
 2764TIP3    H1 8237   1.179   3.473   2.204
 2764TIP3    H2 8238   1.276   3.372   2.261
 2765TIP3   OH2 8239   7.757   6.708   0.621
 2765TIP3    H1 8240   7.819   6.718   0.549
 2765TIP3    H2 8241   7.709   6.791   0.624
 2766TIP3   OH2 8242   3.787   3.599   1.275
 2766TIP3    H1 8243   3.738   3.664   1.326
 2766TIP3    H2 8244   3.845   3.650   1.219
 2767TIP3   OH2 8245   4.967   1.437   4.873
 2767TIP3    H1 8246   5.015   1.513   4.839
 2767TIP3    H2 8247   4.927   1.397   4.796
 2768TIP3   OH2 8248   7.319   7.324   4.163
 2768TIP3    H1 8249   7.355   7.262   4.226
 2768TIP3    H2 8250   7.343   7.410   4.198
 2769TIP3   OH2 8251   2.782   3.152   5.846
 2769TIP3    H1 8252   2.730   3.120   5.772
 2769TIP3    H2 8253   2.741   3.113   5.923
 2770TIP3   OH2 8254   3.426   5.347   0.730
 2770TIP3    H1 8255   3.332   5.351   0.744
 2770TIP3    H2 8256   3.453   5.265   0.772
 2771TIP3   OH2 8257   0.002   2.608   2.362
 2771TIP3    H1 8258   0.036   2.679   2.417
 2771TIP3    H2 8259  -0.024   2.540   2.425
 2772TIP3   OH2 8260   1.663   6.466   2.293
 2772TIP3    H1 8261   1.675   6.416   2.212
 2772TIP3    H2 8262   1.596   6.531   2.271
 2773TIP3   OH2 8263   5.539   4.199   6.687
 2773TIP3    H1 8264   5.509   4.288   6.670
 2773TIP3    H2 8265   5.460   4.145   6.683
 2774TIP3   OH2 8266   1.428   3.770   4.242
 2774TIP3    H1 8267   1.401   3.678   4.247
 2774TIP3    H2 8268   1.367   3.809   4.179
 2775TIP3   OH2 8269   6.374   5.241   1.797
 2775TIP3    H1 8270   6.455   5.277   1.760
 2775TIP3    H2 8271   6.339   5.185   1.728
 2776TIP3   OH2 8272   0.283   6.266   5.100
 2776TIP3    H1 8273   0.242   6.218   5.172
 2776TIP3    H2 8274   0.369   6.225   5.089
 2777TIP3   OH2 8275   4.976   5.555   4.359
 2777TIP3    H1 8276   5.068   5.567   4.335
 2777TIP3    H2 8277   4.944   5.487   4.300
 2778TIP3   OH2 8278   1.361   5.211   3.236
 2778TIP3    H1 8279   1.334   5.156   3.163
 2778TIP3    H2 8280   1.356   5.153   3.313
 2779TIP3   OH2 8281   0.843   4.843   3.177
 2779TIP3    H1 8282   0.752   4.818   3.161
 2779TIP3    H2 8283   0.847   4.935   3.151
 2780TIP3   OH2 8284   6.757   1.451   0.253
 2780TIP3    H1 8285   6.701   1.446   0.331
 2780TIP3    H2 8286   6.766   1.545   0.236
 2781TIP3   OH2 8287   4.310   4.267   6.209
 2781TIP3    H1 8288   4.273   4.197   6.156
 2781TIP3    H2 8289   4.357   4.222   6.279
 2782TIP3   OH2 8290   0.827   7.752   5.442
 2782TIP3    H1 8291   0.867   7.667   5.461
 2782TIP3    H2 8292   0.812   7.750   5.347
 2783TIP3   OH2 8293   3.843   5.679   1.795
 2783TIP3    H1 8294   3.863   5.595   1.836
 2783TIP3    H2 8295   3.765   5.710   1.842
 2784TIP3   OH2 8296   3.608   0.494   2.125
 2784TIP3    H1 8297   3.559   0.480   2.206
 2784TIP3    H2 8298   3.644   0.408   2.103
 2785TIP3   OH2 8299   1.863   6.485   2.765
 2785TIP3    H1 8300   1.849   6.396   2.734
 2785TIP3    H2 8301   1.845   6.540   2.688
 2786TIP3   OH2 8302   3.592   0.311   4.534
 2786TIP3    H1 8303   3.665   0.286   4.591
 2786TIP3    H2 8304   3.632   0.362   4.464
 2787TIP3   OH2 8305   5.578   4.357   0.723
 2787TIP3    H1 8306   5.663   4.346   0.680
 2787TIP3    H2 8307   5.591   4.323   0.811
 2788TIP3   OH2 8308   5.476   3.215   6.347
 2788TIP3    H1 8309   5.444   3.298   6.312
 2788TIP3    H2 8310   5.418   3.149   6.309
 2789TIP3   OH2 8311   4.140   4.596   5.416
 2789TIP3    H1 8312   4.067   4.559   5.466
 2789TIP3    H2 8313   4.098   4.652   5.350
 2790TIP3   OH2 8314   3.297   0.882   3.356
 2790TIP3    H1 8315   3.381   0.842   3.379
 2790TIP3    H2 8316   3.319   0.970   3.327
 2791TIP3   OH2 8317   4.626   1.670   5.601
 2791TIP3    H1 8318   4.682   1.629   5.535
 2791TIP3    H2 8319   4.604   1.599   5.660
 2792TIP3   OH2 8320   1.971   1.392   1.979
 2792TIP3    H1 8321   1.944   1.398   1.887
 2792TIP3    H2 8322   2.042   1.326   1.978
 2793TIP3   OH2 8323   3.826   3.981   4.538
 2793TIP3    H1 8324   3.764   4.036   4.586
 2793TIP3    H2 8325   3.860   4.039   4.470
 2794TIP3   OH2 8326   7.049   0.731   6.698
 2794TIP3    H1 8327   7.074   0.644   6.731
 2794TIP3    H2 8328   6.989   0.765   6.764
 2795TIP3   OH2 8329   4.137   4.675   4.115
 2795TIP3    H1 8330   4.103   4.734   4.182
 2795TIP3    H2 8331   4.154   4.731   4.040
 2796TIP3   OH2 8332   3.627   6.252   0.128
 2796TIP3    H1 8333   3.705   6.289   0.086
 2796TIP3    H2 8334   3.657   6.228   0.216
 2797TIP3   OH2 8335   0.576   4.698   5.018
 2797TIP3    H1 8336   0.523   4.708   5.097
 2797TIP3    H2 8337   0.588   4.787   4.985
 2798TIP3   OH2 8338   4.882   2.051   0.780
 2798TIP3    H1 8339   4.941   2.067   0.706
 2798TIP3    H2 8340   4.878   2.135   0.826
 2799TIP3   OH2 8341   0.376   2.986   1.896
 2799TIP3    H1 8342   0.399   2.930   1.970
 2799TIP3    H2 8343   0.359   2.926   1.824
 2800TIP3   OH2 8344   5.967   1.901   2.974
 2800TIP3    H1 8345   5.946   1.808   2.987
 2800TIP3    H2 8346   5.890   1.948   3.006
 2801TIP3   OH2 8347   3.564   2.053   1.686
 2801TIP3    H1 8348   3.650   2.025   1.655
 2801TIP3    H2 8349   3.557   2.018   1.775
 2802TIP3   OH2 8350   2.282   2.240   3.301
 2802TIP3    H1 8351   2.203   2.188   3.314
 2802TIP3    H2 8352   2.340   2.184   3.249
 2803TIP3   OH2 8353   2.719   3.225   3.800
 2803TIP3    H1 8354   2.696   3.305   3.752
 2803TIP3    H2 8355   2.811   3.210   3.779
 2804TIP3   OH2 8356   1.125   3.025   5.563
 2804TIP3    H1 8357   1.037   3.007   5.531
 2804TIP3    H2 8358   1.116   3.106   5.614
 2805TIP3   OH2 8359   1.967   0.361   1.045
 2805TIP3    H1 8360   1.990   0.309   0.968
 2805TIP3    H2 8361   1.872   0.369   1.042
 2806TIP3   OH2 8362   6.677   1.619   5.812
 2806TIP3    H1 8363   6.728   1.699   5.830
 2806TIP3    H2 8364   6.587   1.643   5.834
 2807TIP3   OH2 8365   2.863   5.170   4.861
 2807TIP3    H1 8366   2.862   5.077   4.842
 2807TIP3    H2 8367   2.904   5.176   4.947
 2808TIP3   OH2 8368   0.349   2.384   5.675
 2808TIP3    H1 8369   0.261   2.395   5.640
 2808TIP3    H2 8370   0.407   2.412   5.604
 2809TIP3   OH2 8371   7.949   3.461   4.940
 2809TIP3    H1 8372   7.955   3.544   4.893
 2809TIP3    H2 8373   7.857   3.453   4.964
 2810TIP3   OH2 8374   6.409   2.302   5.322
 2810TIP3    H1 8375   6.317   2.280   5.338
 2810TIP3    H2 8376   6.450   2.297   5.408
 2811TIP3   OH2 8377   2.190   1.876   4.282
 2811TIP3    H1 8378   2.267   1.907   4.234
 2811TIP3    H2 8379   2.219   1.872   4.373
 2812TIP3   OH2 8380   7.324   4.274   3.318
 2812TIP3    H1 8381   7.385   4.227   3.260
 2812TIP3    H2 8382   7.301   4.209   3.384
 2813TIP3   OH2 8383   2.739   6.306   1.438
 2813TIP3    H1 8384   2.650   6.340   1.427
 2813TIP3    H2 8385   2.794   6.371   1.395
 2814TIP3   OH2 8386   8.136   7.626   6.318
 2814TIP3    H1 8387   8.076   7.698   6.340
 2814TIP3    H2 8388   8.082   7.547   6.325
 2815TIP3   OH2 8389   6.239   0.848   5.278
 2815TIP3    H1 8390   6.151   0.878   5.254
 2815TIP3    H2 8391   6.275   0.919   5.331
 2816TIP3   OH2 8392   7.715   5.404   5.551
 2816TIP3    H1 8393   7.653   5.381   5.482
 2816TIP3    H2 8394   7.662   5.411   5.630
 2817TIP3   OH2 8395   2.527   5.624   2.898
 2817TIP3    H1 8396   2.604   5.635   2.955
 2817TIP3    H2 8397   2.513   5.711   2.860
 2818TIP3   OH2 8398   2.082   3.690   6.487
 2818TIP3    H1 8399   2.036   3.772   6.469
 2818TIP3    H2 8400   2.166   3.718   6.523
 2819TIP3   OH2 8401   0.835   4.135   2.063
 2819TIP3    H1 8402   0.751   4.182   2.060
 2819TIP3    H2 8403   0.899   4.196   2.028
 2820TIP3   OH2 8404   3.945   4.112   1.248
 2820TIP3    H1 8405   4.038   4.119   1.228
 2820TIP3    H2 8406   3.904   4.095   1.163
 2821TIP3   OH2 8407   7.054   4.678   2.177
 2821TIP3    H1 8408   7.073   4.763   2.138
 2821TIP3    H2 8409   6.990   4.638   2.118
 2822TIP3   OH2 8410   1.856   4.910   6.421
 2822TIP3    H1 8411   1.932   4.910   6.480
 2822TIP3    H2 8412   1.883   4.964   6.347
 2823TIP3   OH2 8413   5.443   1.384   4.656
 2823TIP3    H1 8414   5.428   1.413   4.566
 2823TIP3    H2 8415   5.358   1.394   4.699
 2824TIP3   OH2 8416   7.865   7.372   6.696
 2824TIP3    H1 8417   7.901   7.284   6.703
 2824TIP3    H2 8418   7.936   7.430   6.722
 2825TIP3   OH2 8419   6.971   7.577   6.029
 2825TIP3    H1 8420   6.904   7.572   6.096
 2825TIP3    H2 8421   6.960   7.497   5.977
 2826TIP3   OH2 8422   1.687   3.215   5.853
 2826TIP3    H1 8423   1.713   3.181   5.939
 2826TIP3    H2 8424   1.746   3.289   5.838
 2827TIP3   OH2 8425   8.056   4.377   4.771
 2827TIP3    H1 8426   8.053   4.294   4.725
 2827TIP3    H2 8427   8.042   4.443   4.703
 2828TIP3   OH2 8428   0.552   0.895   3.416
 2828TIP3    H1 8429   0.633   0.945   3.426
 2828TIP3    H2 8430   0.575   0.827   3.352
 2829TIP3   OH2 8431   2.859   4.675   3.792
 2829TIP3    H1 8432   2.781   4.688   3.847
 2829TIP3    H2 8433   2.903   4.760   3.792
 2830TIP3   OH2 8434   2.755   3.305   2.532
 2830TIP3    H1 8435   2.813   3.380   2.542
 2830TIP3    H2 8436   2.709   3.322   2.450
 2831TIP3   OH2 8437   0.640   5.964   6.615
 2831TIP3    H1 8438   0.713   5.948   6.554
 2831TIP3    H2 8439   0.566   5.918   6.576
 2832TIP3   OH2 8440   2.763   4.230   4.924
 2832TIP3    H1 8441   2.701   4.180   4.870
 2832TIP3    H2 8442   2.708   4.281   4.984
 2833TIP3   OH2 8443   2.487   3.323   2.805
 2833TIP3    H1 8444   2.405   3.302   2.849
 2833TIP3    H2 8445   2.537   3.242   2.807
 2834TIP3   OH2 8446   5.098   4.035   2.114
 2834TIP3    H1 8447   5.114   3.943   2.096
 2834TIP3    H2 8448   5.102   4.042   2.209
 2835TIP3   OH2 8449   6.187   1.029   2.082
 2835TIP3    H1 8450   6.269   1.070   2.054
 2835TIP3    H2 8451   6.154   0.985   2.004
 2836TIP3   OH2 8452   2.782   0.925   4.573
 2836TIP3    H1 8453   2.744   0.944   4.659
 2836TIP3    H2 8454   2.863   0.976   4.571
 2837TIP3   OH2 8455   1.880   1.346   6.341
 2837TIP3    H1 8456   1.807   1.340   6.402
 2837TIP3    H2 8457   1.840   1.339   6.254
 2838TIP3   OH2 8458   6.333   5.696   0.922
 2838TIP3    H1 8459   6.271   5.640   0.874
 2838TIP3    H2 8460   6.373   5.751   0.855
 2839TIP3   OH2 8461   3.732   5.285   6.722
 2839TIP3    H1 8462   3.726   5.222   6.793
 2839TIP3    H2 8463   3.679   5.247   6.652
 2840TIP3   OH2 8464   6.447   6.885   4.325
 2840TIP3    H1 8465   6.487   6.848   4.403
 2840TIP3    H2 8466   6.365   6.924   4.355
 2841TIP3   OH2 8467   3.796   1.897   6.375
 2841TIP3    H1 8468   3.773   1.902   6.282
 2841TIP3    H2 8469   3.885   1.931   6.380
 2842TIP3   OH2 8470   7.637   4.073   5.292
 2842TIP3    H1 8471   7.610   3.986   5.321
 2842TIP3    H2 8472   7.662   4.061   5.200
 2843TIP3   OH2 8473   7.350   6.476   1.136
 2843TIP3    H1 8474   7.411   6.456   1.207
 2843TIP3    H2 8475   7.354   6.571   1.126
 2844TIP3   OH2 8476   0.920   5.816   0.230
 2844TIP3    H1 8477   0.935   5.808   0.136
 2844TIP3    H2 8478   0.970   5.893   0.256
 2845TIP3   OH2 8479   0.116   2.899   6.246
 2845TIP3    H1 8480   0.123   2.808   6.274
 2845TIP3    H2 8481   0.027   2.907   6.212
 2846TIP3   OH2 8482   4.367   6.006   4.528
 2846TIP3    H1 8483   4.291   6.065   4.530
 2846TIP3    H2 8484   4.442   6.063   4.512
 2847TIP3   OH2 8485   6.659   5.088   4.923
 2847TIP3    H1 8486   6.670   5.002   4.884
 2847TIP3    H2 8487   6.564   5.104   4.921
 2848TIP3   OH2 8488   2.824   2.553   1.790
 2848TIP3    H1 8489   2.812   2.483   1.854
 2848TIP3    H2 8490   2.819   2.634   1.841
 2849TIP3   OH2 8491   1.868   2.476   4.274
 2849TIP3    H1 8492   1.955   2.476   4.314
 2849TIP3    H2 8493   1.858   2.565   4.240
 2850TIP3   OH2 8494   0.500   5.531   1.437
 2850TIP3    H1 8495   0.567   5.514   1.504
 2850TIP3    H2 8496   0.493   5.626   1.434
 2851TIP3   OH2 8497   5.186   4.959   2.823
 2851TIP3    H1 8498   5.192   5.041   2.773
 2851TIP3    H2 8499   5.113   4.912   2.784
 2852TIP3   OH2 8500   7.681   1.035   4.746
 2852TIP3    H1 8501   7.733   1.111   4.774
 2852TIP3    H2 8502   7.660   0.989   4.827
 2853TIP3   OH2 8503   2.001   1.748   4.130
 2853TIP3    H1 8504   1.929   1.724   4.189
 2853TIP3    H2 8505   2.064   1.793   4.187
 2854TIP3   OH2 8506   7.227   2.240   4.973
 2854TIP3    H1 8507   7.241   2.236   4.879
 2854TIP3    H2 8508   7.306   2.201   5.011
 2855TIP3   OH2 8509   2.350   1.703   1.511
 2855TIP3    H1 8510   2.310   1.781   1.473
 2855TIP3    H2 8511   2.297   1.630   1.478
 2856TIP3   OH2 8512   7.920   7.805   3.411
 2856TIP3    H1 8513   8.015   7.799   3.423
 2856TIP3    H2 8514   7.887   7.838   3.495
 2857TIP3   OH2 8515   3.477   6.215   2.652
 2857TIP3    H1 8516   3.389   6.197   2.619
 2857TIP3    H2 8517   3.504   6.134   2.695
 2858TIP3   OH2 8518   1.869   7.699   4.987
 2858TIP3    H1 8519   1.881   7.665   4.899
 2858TIP3    H2 8520   1.832   7.786   4.974
 2859TIP3   OH2 8521   2.697   4.557   6.217
 2859TIP3    H1 8522   2.787   4.531   6.236
 2859TIP3    H2 8523   2.644   4.490   6.260
 2860TIP3   OH2 8524   0.899   3.388   6.424
 2860TIP3    H1 8525   0.870   3.393   6.333
 2860TIP3    H2 8526   0.969   3.323   6.423
 2861TIP3   OH2 8527   2.706   2.207   2.809
 2861TIP3    H1 8528   2.726   2.226   2.901
 2861TIP3    H2 8529   2.766   2.263   2.760
 2862TIP3   OH2 8530   2.827   4.905   3.971
 2862TIP3    H1 8531   2.763   4.975   3.958
 2862TIP3    H2 8532   2.890   4.918   3.900
 2863TIP3   OH2 8533   0.968   7.177   4.595
 2863TIP3    H1 8534   0.938   7.215   4.513
 2863TIP3    H2 8535   0.912   7.101   4.609
 2864TIP3   OH2 8536   5.744   5.318   3.472
 2864TIP3    H1 8537   5.677   5.351   3.413
 2864TIP3    H2 8538   5.799   5.394   3.491
 2865TIP3   OH2 8539   8.089   4.253   1.379
 2865TIP3    H1 8540   8.018   4.318   1.378
 2865TIP3    H2 8541   8.060   4.185   1.318
 2866TIP3   OH2 8542   4.366   5.520   0.520
 2866TIP3    H1 8543   4.299   5.456   0.543
 2866TIP3    H2 8544   4.364   5.523   0.424
 2867TIP3   OH2 8545   7.135   4.774   3.541
 2867TIP3    H1 8546   7.075   4.778   3.467
 2867TIP3    H2 8547   7.203   4.838   3.521
 2868TIP3   OH2 8548   7.647   7.648   4.174
 2868TIP3    H1 8549   7.588   7.683   4.240
 2868TIP3    H2 8550   7.658   7.556   4.197
 2869TIP3   OH2 8551   4.941   4.054   2.383
 2869TIP3    H1 8552   4.875   4.001   2.338
 2869TIP3    H2 8553   4.889   4.115   2.436
 2870TIP3   OH2 8554   3.891   2.865   1.923
 2870TIP3    H1 8555   3.899   2.868   2.018
 2870TIP3    H2 8556   3.851   2.949   1.899
 2871TIP3   OH2 8557   1.761   4.651   0.958
 2871TIP3    H1 8558   1.850   4.617   0.967
 2871TIP3    H2 8559   1.711   4.605   1.026
 2872TIP3   OH2 8560   7.582   1.755   1.291
 2872TIP3    H1 8561   7.585   1.839   1.245
 2872TIP3    H2 8562   7.489   1.731   1.289
 2873TIP3   OH2 8563   1.392   0.684   0.013
 2873TIP3    H1 8564   1.438   0.603   0.035
 2873TIP3    H2 8565   1.319   0.656  -0.042
 2874TIP3   OH2 8566   3.044   6.557   3.253
 2874TIP3    H1 8567   3.058   6.587   3.164
 2874TIP3    H2 8568   3.106   6.486   3.265
 2875TIP3   OH2 8569   6.116   6.172   1.982
 2875TIP3    H1 8570   6.025   6.184   1.953
 2875TIP3    H2 8571   6.121   6.081   2.011
 2876TIP3   OH2 8572   7.204   7.403   4.485
 2876TIP3    H1 8573   7.281   7.348   4.502
 2876TIP3    H2 8574   7.203   7.466   4.557
 2877TIP3   OH2 8575   6.608   3.441   5.860
 2877TIP3    H1 8576   6.581   3.501   5.790
 2877TIP3    H2 8577   6.701   3.462   5.874
 2878TIP3   OH2 8578   5.823   7.041   6.525
 2878TIP3    H1 8579   5.866   7.083   6.600
 2878TIP3    H2 8580   5.893   6.990   6.483
 2879TIP3   OH2 8581   3.499   3.732   2.144
 2879TIP3    H1 8582   3.527   3.788   2.072
 2879TIP3    H2 8583   3.422   3.686   2.111
 2880TIP3   OH2 8584   0.516   0.432   0.905
 2880TIP3    H1 8585   0.473   0.347   0.912
 2880TIP3    H2 8586   0.609   0.413   0.916
 2881TIP3   OH2 8587   5.090   4.525   3.249
 2881TIP3    H1 8588   5.025   4.512   3.318
 2881TIP3    H2 8589   5.058   4.475   3.175
 2882TIP3   OH2 8590   8.248   4.766   3.536
 2882TIP3    H1 8591   8.329   4.758   3.486
 2882TIP3    H2 8592   8.184   4.800   3.474
 2883TIP3   OH2 8593   5.137   7.298   4.870
 2883TIP3    H1 8594   5.211   7.353   4.895
 2883TIP3    H2 8595   5.128   7.236   4.941
 2884TIP3   OH2 8596   5.749   4.932   2.452
 2884TIP3    H1 8597   5.677   4.972   2.404
 2884TIP3    H2 8598   5.709   4.901   2.534
 2885TIP3   OH2 8599   2.328   3.793   2.018
 2885TIP3    H1 8600   2.377   3.719   2.056
 2885TIP3    H2 8601   2.346   3.866   2.076
 2886TIP3   OH2 8602   4.101   3.558   2.620
 2886TIP3    H1 8603   4.038   3.502   2.575
 2886TIP3    H2 8604   4.114   3.516   2.705
 2887TIP3   OH2 8605   6.472   5.921   5.712
 2887TIP3    H1 8606   6.554   5.946   5.754
 2887TIP3    H2 8607   6.492   5.838   5.667
 2888TIP3   OH2 8608   2.526   1.326   2.252
 2888TIP3    H1 8609   2.533   1.411   2.295
 2888TIP3    H2 8610   2.558   1.341   2.163
 2889TIP3   OH2 8611   4.180   5.101   6.318
 2889TIP3    H1 8612   4.221   5.079   6.401
 2889TIP3    H2 8613   4.191   5.022   6.264
 2890TIP3   OH2 8614   4.644   1.985   4.206
 2890TIP3    H1 8615   4.632   2.079   4.220
 2890TIP3    H2 8616   4.668   1.951   4.293
 2891TIP3   OH2 8617   4.557   3.346   6.177
 2891TIP3    H1 8618   4.595   3.298   6.251
 2891TIP3    H2 8619   4.575   3.291   6.101
 2892TIP3   OH2 8620   3.008   1.483   1.775
 2892TIP3    H1 8621   2.949   1.408   1.784
 2892TIP3    H2 8622   3.079   1.451   1.720
 2893TIP3   OH2 8623   3.410   3.141   4.218
 2893TIP3    H1 8624   3.320   3.108   4.206
 2893TIP3    H2 8625   3.438   3.104   4.301
 2894TIP3   OH2 8626   5.933   3.865   0.493
 2894TIP3    H1 8627   5.850   3.864   0.540
 2894TIP3    H2 8628   5.917   3.814   0.414
 2895TIP3   OH2 8629   2.169   2.128   6.265
 2895TIP3    H1 8630   2.210   2.081   6.337
 2895TIP3    H2 8631   2.086   2.161   6.302
 2896TIP3   OH2 8632   0.109   5.553   4.874
 2896TIP3    H1 8633   0.052   5.539   4.949
 2896TIP3    H2 8634   0.049   5.574   4.802
 2897TIP3   OH2 8635   8.063   6.941   6.378
 2897TIP3    H1 8636   8.132   6.924   6.313
 2897TIP3    H2 8637   8.001   6.999   6.333
 2898TIP3   OH2 8638   7.099   1.398   1.214
 2898TIP3    H1 8639   7.149   1.357   1.144
 2898TIP3    H2 8640   7.047   1.465   1.171
 2899TIP3   OH2 8641   1.768   0.417   2.599
 2899TIP3    H1 8642   1.794   0.325   2.603
 2899TIP3    H2 8643   1.708   0.422   2.525
 2900TIP3   OH2 8644   2.243   6.688   5.965
 2900TIP3    H1 8645   2.274   6.610   6.010
 2900TIP3    H2 8646   2.154   6.701   5.998
 2901TIP3   OH2 8647   4.644   0.959   1.046
 2901TIP3    H1 8648   4.624   0.931   1.135
 2901TIP3    H2 8649   4.566   0.937   0.995
 2902TIP3   OH2 8650   7.190   1.764   4.408
 2902TIP3    H1 8651   7.102   1.775   4.372
 2902TIP3    H2 8652   7.244   1.827   4.360
 2903TIP3   OH2 8653   5.143   4.950   6.033
 2903TIP3    H1 8654   5.153   5.021   6.097
 2903TIP3    H2 8655   5.053   4.959   6.001
 2904TIP3   OH2 8656   1.813   6.573   2.507
 2904TIP3    H1 8657   1.895   6.614   2.482
 2904TIP3    H2 8658   1.767   6.559   2.424
 2905TIP3   OH2 8659   0.505   1.550   3.714
 2905TIP3    H1 8660   0.418   1.569   3.679
 2905TIP3    H2 8661   0.492   1.545   3.809
 2906TIP3   OH2 8662   5.285   5.727   2.112
 2906TIP3    H1 8663   5.194   5.726   2.142
 2906TIP3    H2 8664   5.331   5.781   2.176
 2907TIP3   OH2 8665   3.386   6.117   6.701
 2907TIP3    H1 8666   3.477   6.129   6.674
 2907TIP3    H2 8667   3.383   6.151   6.790
 2908TIP3   OH2 8668   2.411   3.393   1.265
 2908TIP3    H1 8669   2.481   3.333   1.239
 2908TIP3    H2 8670   2.391   3.370   1.355
 2909TIP3   OH2 8671   2.792   1.046   5.212
 2909TIP3    H1 8672   2.801   0.974   5.150
 2909TIP3    H2 8673   2.709   1.088   5.189
 2910TIP3   OH2 8674   4.500   6.030   3.860
 2910TIP3    H1 8675   4.460   6.111   3.891
 2910TIP3    H2 8676   4.523   6.048   3.769
 2911TIP3   OH2 8677   4.272   2.947   5.479
 2911TIP3    H1 8678   4.367   2.940   5.473
 2911TIP3    H2 8679   4.257   3.036   5.511
 2912TIP3   OH2 8680   7.967   5.719   4.265
 2912TIP3    H1 8681   7.971   5.780   4.339
 2912TIP3    H2 8682   8.059   5.698   4.246
 2913TIP3   OH2 8683   3.084   0.073   2.423
 2913TIP3    H1 8684   3.084   0.156   2.375
 2913TIP3    H2 8685   2.992   0.046   2.424
 2914TIP3   OH2 8686   6.735   2.862   2.147
 2914TIP3    H1 8687   6.816   2.878   2.196
 2914TIP3    H2 8688   6.760   2.871   2.055
 2915TIP3   OH2 8689   1.052   5.204   1.240
 2915TIP3    H1 8690   1.145   5.185   1.232
 2915TIP3    H2 8691   1.011   5.118   1.252
 2916TIP3   OH2 8692   0.264   5.209   2.041
 2916TIP3    H1 8693   0.319   5.247   1.973
 2916TIP3    H2 8694   0.175   5.236   2.018
 2917TIP3   OH2 8695   2.636   4.175   5.539
 2917TIP3    H1 8696   2.674   4.121   5.608
 2917TIP3    H2 8697   2.544   4.187   5.565
 2918TIP3   OH2 8698   4.098   6.122   4.275
 2918TIP3    H1 8699   4.041   6.138   4.350
 2918TIP3    H2 8700   4.093   6.027   4.262
 2919TIP3   OH2 8701   3.224   0.629   6.017
 2919TIP3    H1 8702   3.236   0.708   6.069
 2919TIP3    H2 8703   3.161   0.654   5.949
 2920TIP3   OH2 8704   0.150   5.782   0.334
 2920TIP3    H1 8705   0.062   5.748   0.350
 2920TIP3    H2 8706   0.200   5.755   0.411
 2921TIP3   OH2 8707   5.023   3.037   4.627
 2921TIP3    H1 8708   5.117   3.021   4.635
 2921TIP3    H2 8709   5.013   3.080   4.542
 2922TIP3   OH2 8710   1.951   2.989   5.769
 2922TIP3    H1 8711   2.040   2.957   5.756
 2922TIP3    H2 8712   1.920   2.945   5.848
 2923TIP3   OH2 8713   2.840   7.068   6.147
 2923TIP3    H1 8714   2.787   7.015   6.087
 2923TIP3    H2 8715   2.839   7.019   6.229
 2924TIP3   OH2 8716   3.270   6.658   0.331
 2924TIP3    H1 8717   3.201   6.599   0.363
 2924TIP3    H2 8718   3.332   6.600   0.287
 2925TIP3   OH2 8719   0.608   5.572   6.417
 2925TIP3    H1 8720   0.599   5.504   6.484
 2925TIP3    H2 8721   0.660   5.531   6.348
 2926TIP3   OH2 8722   2.478   1.345   3.240
 2926TIP3    H1 8723   2.470   1.439   3.224
 2926TIP3    H2 8724   2.389   1.315   3.255
 2927TIP3   OH2 8725   6.022   1.251   2.056
 2927TIP3    H1 8726   6.051   1.241   1.965
 2927TIP3    H2 8727   6.077   1.190   2.106
 2928TIP3   OH2 8728   2.197   5.806   5.531
 2928TIP3    H1 8729   2.182   5.878   5.471
 2928TIP3    H2 8730   2.266   5.837   5.590
 2929TIP3   OH2 8731   8.281   2.354   2.212
 2929TIP3    H1 8732   8.296   2.303   2.292
 2929TIP3    H2 8733   8.277   2.445   2.242
 2930TIP3   OH2 8734   5.833   5.391   5.816
 2930TIP3    H1 8735   5.912   5.337   5.823
 2930TIP3    H2 8736   5.865   5.480   5.804
 2931TIP3   OH2 8737   5.617   7.227   6.145
 2931TIP3    H1 8738   5.642   7.283   6.219
 2931TIP3    H2 8739   5.577   7.287   6.082
 2932TIP3   OH2 8740   7.321   2.053   0.527
 2932TIP3    H1 8741   7.297   1.977   0.474
 2932TIP3    H2 8742   7.414   2.040   0.546
 2933TIP3   OH2 8743   4.219   0.912   6.384
 2933TIP3    H1 8744   4.296   0.882   6.432
 2933TIP3    H2 8745   4.220   0.861   6.303
 2934TIP3   OH2 8746   0.646   3.966   3.075
 2934TIP3    H1 8747   0.576   3.916   3.117
 2934TIP3    H2 8748   0.625   4.057   3.094
 2935TIP3   OH2 8749   1.362   6.690   4.193
 2935TIP3    H1 8750   1.366   6.606   4.238
 2935TIP3    H2 8751   1.451   6.705   4.162
 2936TIP3   OH2 8752   3.118   6.435   6.218
 2936TIP3    H1 8753   3.071   6.376   6.158
 2936TIP3    H2 8754   3.072   6.519   6.210
 2937TIP3   OH2 8755   7.844   2.307   0.203
 2937TIP3    H1 8756   7.887   2.316   0.288
 2937TIP3    H2 8757   7.786   2.383   0.198
 2938TIP3   OH2 8758   1.081   0.050   4.088
 2938TIP3    H1 8759   1.070   0.082   4.178
 2938TIP3    H2 8760   0.994   0.057   4.050
 2939TIP3   OH2 8761   8.304   4.886   5.138
 2939TIP3    H1 8762   8.241   4.815   5.125
 2939TIP3    H2 8763   8.254   4.966   5.122
 2940TIP3   OH2 8764   6.732   7.546   6.213
 2940TIP3    H1 8765   6.656   7.585   6.171
 2940TIP3    H2 8766   6.730   7.581   6.302
 2941TIP3   OH2 8767   2.606   6.242   2.114
 2941TIP3    H1 8768   2.576   6.293   2.189
 2941TIP3    H2 8769   2.672   6.298   2.072
 2942TIP3   OH2 8770   2.035   3.839   1.313
 2942TIP3    H1 8771   2.082   3.837   1.396
 2942TIP3    H2 8772   2.032   3.748   1.284
 2943TIP3   OH2 8773   6.516   5.157   2.389
 2943TIP3    H1 8774   6.437   5.191   2.347
 2943TIP3    H2 8775   6.538   5.223   2.455
 2944TIP3   OH2 8776   3.485   6.269   1.832
 2944TIP3    H1 8777   3.428   6.342   1.855
 2944TIP3    H2 8778   3.524   6.295   1.748
 2945TIP3   OH2 8779   5.554   2.622   2.385
 2945TIP3    H1 8780   5.505   2.587   2.311
 2945TIP3    H2 8781   5.496   2.690   2.421
 2946TIP3   OH2 8782   1.449   3.252   5.158
 2946TIP3    H1 8783   1.382   3.274   5.092
 2946TIP3    H2 8784   1.447   3.157   5.163
 2947TIP3   OH2 8785   2.776   3.691   3.317
 2947TIP3    H1 8786   2.864   3.730   3.314
 2947TIP3    H2 8787   2.787   3.606   3.274
 2948TIP3   OH2 8788   3.461   1.494   1.519
 2948TIP3    H1 8789   3.504   1.444   1.450
 2948TIP3    H2 8790   3.516   1.571   1.530
 2949TIP3   OH2 8791   4.931   5.474   4.617
 2949TIP3    H1 8792   4.937   5.543   4.551
 2949TIP3    H2 8793   4.863   5.415   4.583
 2950TIP3   OH2 8794   3.469   4.710   4.510
 2950TIP3    H1 8795   3.414   4.677   4.439
 2950TIP3    H2 8796   3.412   4.770   4.558
 2951TIP3   OH2 8797   6.005   5.226   1.321
 2951TIP3    H1 8798   6.047   5.165   1.260
 2951TIP3    H2 8799   6.021   5.188   1.407
 2952TIP3   OH2 8800   2.048   6.902   6.227
 2952TIP3    H1 8801   2.016   6.985   6.263
 2952TIP3    H2 8802   2.115   6.874   6.289
 2953TIP3   OH2 8803   2.413   6.840   0.120
 2953TIP3    H1 8804   2.428   6.831   0.215
 2953TIP3    H2 8805   2.493   6.881   0.088
 2954TIP3   OH2 8806   2.840   1.945   2.841
 2954TIP3    H1 8807   2.915   1.939   2.900
 2954TIP3    H2 8808   2.807   2.034   2.854
 2955TIP3   OH2 8809   4.231   0.890   2.329
 2955TIP3    H1 8810   4.265   0.861   2.244
 2955TIP3    H2 8811   4.145   0.848   2.336
 2956TIP3   OH2 8812   6.871   1.637   1.436
 2956TIP3    H1 8813   6.789   1.588   1.430
 2956TIP3    H2 8814   6.863   1.705   1.369
 2957TIP3   OH2 8815   7.862   3.601   0.100
 2957TIP3    H1 8816   7.955   3.595   0.077
 2957TIP3    H2 8817   7.861   3.607   0.195
 2958TIP3   OH2 8818   7.707   3.130   1.382
 2958TIP3    H1 8819   7.626   3.126   1.331
 2958TIP3    H2 8820   7.775   3.154   1.318
 2959TIP3   OH2 8821   3.928   1.143   4.186
 2959TIP3    H1 8822   3.993   1.125   4.119
 2959TIP3    H2 8823   3.849   1.099   4.156
 2960TIP3   OH2 8824   3.459   3.665   1.266
 2960TIP3    H1 8825   3.504   3.687   1.185
 2960TIP3    H2 8826   3.475   3.571   1.277
 2961TIP3   OH2 8827   2.627   5.356   3.188
 2961TIP3    H1 8828   2.537   5.323   3.180
 2961TIP3    H2 8829   2.675   5.309   3.120
 2962TIP3   OH2 8830   6.952   1.939   4.010
 2962TIP3    H1 8831   6.888   1.943   4.081
 2962TIP3    H2 8832   7.036   1.958   4.051
 2963TIP3   OH2 8833   4.947   7.243   4.129
 2963TIP3    H1 8834   4.874   7.200   4.172
 2963TIP3    H2 8835   4.961   7.324   4.178
 2964TIP3   OH2 8836   7.415   6.719   5.346
 2964TIP3    H1 8837   7.352   6.675   5.403
 2964TIP3    H2 8838   7.477   6.761   5.406
 2965TIP3   OH2 8839   5.558   5.482   0.521
 2965TIP3    H1 8840   5.592   5.567   0.550
 2965TIP3    H2 8841   5.513   5.501   0.439
 2966TIP3   OH2 8842   7.459   0.281   5.455
 2966TIP3    H1 8843   7.499   0.321   5.377
 2966TIP3    H2 8844   7.461   0.187   5.436
 2967TIP3   OH2 8845   7.987   6.887   3.770
 2967TIP3    H1 8846   7.956   6.843   3.690
 2967TIP3    H2 8847   8.057   6.830   3.802
 2968TIP3   OH2 8848   1.472   4.985   1.331
 2968TIP3    H1 8849   1.495   5.018   1.418
 2968TIP3    H2 8850   1.535   4.915   1.314
 2969TIP3   OH2 8851   6.116   0.575   5.830
 2969TIP3    H1 8852   6.209   0.562   5.851
 2969TIP3    H2 8853   6.117   0.633   5.754
 2970TIP3   OH2 8854   2.696   7.510   4.925
 2970TIP3    H1 8855   2.727   7.585   4.976
 2970TIP3    H2 8856   2.710   7.435   4.982
 2971TIP3   OH2 8857   2.856   0.744   0.855
 2971TIP3    H1 8858   2.906   0.825   0.857
 2971TIP3    H2 8859   2.922   0.675   0.863
 2972TIP3   OH2 8860   7.705   2.086   2.190
 2972TIP3    H1 8861   7.689   2.047   2.104
 2972TIP3    H2 8862   7.749   2.017   2.240
 2973TIP3   OH2 8863   5.865   7.195   0.371
 2973TIP3    H1 8864   5.777   7.161   0.387
 2973TIP3    H2 8865   5.923   7.124   0.400
 2974TIP3   OH2 8866   1.605   3.673   3.813
 2974TIP3    H1 8867   1.519   3.634   3.805
 2974TIP3    H2 8868   1.661   3.621   3.754
 2975TIP3   OH2 8869   3.056   1.122   1.969
 2975TIP3    H1 8870   3.089   1.109   1.880
 2975TIP3    H2 8871   2.966   1.092   1.966
 2976TIP3   OH2 8872   4.715   5.721   5.780
 2976TIP3    H1 8873   4.630   5.719   5.825
 2976TIP3    H2 8874   4.696   5.759   5.694
 2977TIP3   OH2 8875   6.605   6.873   3.003
 2977TIP3    H1 8876   6.673   6.928   3.043
 2977TIP3    H2 8877   6.523   6.917   3.024
 2978TIP3   OH2 8878   7.700   0.195   3.696
 2978TIP3    H1 8879   7.738   0.276   3.731
 2978TIP3    H2 8880   7.712   0.202   3.601
 2979TIP3   OH2 8881   6.506   6.367   3.764
 2979TIP3    H1 8882   6.498   6.378   3.859
 2979TIP3    H2 8883   6.442   6.299   3.742
 2980TIP3   OH2 8884   6.130   1.458   4.342
 2980TIP3    H1 8885   6.192   1.440   4.271
 2980TIP3    H2 8886   6.061   1.511   4.301
 2981TIP3   OH2 8887   1.308   0.738   5.685
 2981TIP3    H1 8888   1.214   0.753   5.682
 2981TIP3    H2 8889   1.319   0.649   5.650
 2982TIP3   OH2 8890   5.295   2.906   4.125
 2982TIP3    H1 8891   5.301   2.849   4.048
 2982TIP3    H2 8892   5.205   2.898   4.154
 2983TIP3   OH2 8893   5.873   2.836   3.091
 2983TIP3    H1 8894   5.858   2.768   3.025
 2983TIP3    H2 8895   5.929   2.794   3.156
 2984TIP3   OH2 8896   7.731   4.393   2.246
 2984TIP3    H1 8897   7.783   4.344   2.309
 2984TIP3    H2 8898   7.773   4.377   2.162
 2985TIP3   OH2 8899   0.895   3.748   4.948
 2985TIP3    H1 8900   0.857   3.832   4.922
 2985TIP3    H2 8901   0.959   3.729   4.880
 2986TIP3   OH2 8902   8.246   5.240   4.936
 2986TIP3    H1 8903   8.178   5.293   4.895
 2986TIP3    H2 8904   8.274   5.292   5.012
 2987TIP3   OH2 8905   2.185   2.775   6.584
 2987TIP3    H1 8906   2.210   2.685   6.565
 2987TIP3    H2 8907   2.154   2.773   6.674
 2988TIP3   OH2 8908   6.843   4.841   0.453
 2988TIP3    H1 8909   6.904   4.769   0.437
 2988TIP3    H2 8910   6.897   4.911   0.490
 2989TIP3   OH2 8911   4.802   6.187   2.328
 2989TIP3    H1 8912   4.706   6.190   2.335
 2989TIP3    H2 8913   4.818   6.157   2.238
 2990TIP3   OH2 8914   5.122   3.122   2.116
 2990TIP3    H1 8915   5.139   3.188   2.049
 2990TIP3    H2 8916   5.153   3.162   2.198
 2991TIP3   OH2 8917   6.399   7.403   2.085
 2991TIP3    H1 8918   6.386   7.482   2.137
 2991TIP3    H2 8919   6.346   7.417   2.006
 2992TIP3   OH2 8920   3.516   3.259   1.617
 2992TIP3    H1 8921   3.487   3.174   1.582
 2992TIP3    H2 8922   3.567   3.298   1.546
 2993TIP3   OH2 8923   3.948   1.837   0.285
 2993TIP3    H1 8924   3.981   1.748   0.290
 2993TIP3    H2 8925   3.942   1.855   0.191
 2994TIP3   OH2 8926   2.148   0.986   0.090
 2994TIP3    H1 8927   2.111   0.970   0.177
 2994TIP3    H2 8928   2.078   0.964   0.029
 2995TIP3   OH2 8929   3.886   7.689   2.447
 2995TIP3    H1 8930   3.904   7.729   2.532
 2995TIP3    H2 8931   3.857   7.762   2.392
 2996TIP3   OH2 8932   4.587   6.644   5.801
 2996TIP3    H1 8933   4.538   6.571   5.765
 2996TIP3    H2 8934   4.627   6.686   5.726
 2997TIP3   OH2 8935   1.071   6.976   5.609
 2997TIP3    H1 8936   1.117   7.036   5.551
 2997TIP3    H2 8937   1.120   6.978   5.691
 2998TIP3   OH2 8938   2.417   1.409   1.481
 2998TIP3    H1 8939   2.505   1.377   1.462
 2998TIP3    H2 8940   2.417   1.499   1.450
 2999TIP3   OH2 8941   8.149   5.211   4.421
 2999TIP3    H1 8942   8.179   5.169   4.502
 2999TIP3    H2 8943   8.096   5.285   4.451
 3000TIP3   OH2 8944   6.682   6.710   5.934
 3000TIP3    H1 8945   6.597   6.690   5.895
 3000TIP3    H2 8946   6.673   6.800   5.964
 3001TIP3   OH2 8947   0.350   2.173   4.940
 3001TIP3    H1 8948   0.396   2.251   4.972
 3001TIP3    H2 8949   0.412   2.102   4.954
 3002TIP3   OH2 8950   2.921   4.426   1.794
 3002TIP3    H1 8951   3.000   4.458   1.750
 3002TIP3    H2 8952   2.865   4.503   1.802
 3003TIP3   OH2 8953   1.914   6.275   2.350
 3003TIP3    H1 8954   1.882   6.248   2.436
 3003TIP3    H2 8955   1.863   6.353   2.329
 3004TIP3   OH2 8956   5.194   4.575   5.521
 3004TIP3    H1 8957   5.176   4.646   5.460
 3004TIP3    H2 8958   5.108   4.545   5.549
 3005TIP3   OH2 8959   3.568   6.495   6.310
 3005TIP3    H1 8960   3.498   6.444   6.351
 3005TIP3    H2 8961   3.625   6.430   6.270
 3006TIP3   OH2 8962   5.805   6.542   3.647
 3006TIP3    H1 8963   5.892   6.546   3.608
 3006TIP3    H2 8964   5.818   6.571   3.738
 3007TIP3   OH2 8965   8.221   1.881   1.084
 3007TIP3    H1 8966   8.167   1.882   1.163
 3007TIP3    H2 8967   8.160   1.903   1.014
 3008TIP3   OH2 8968   2.014   5.270   2.696
 3008TIP3    H1 8969   2.054   5.303   2.776
 3008TIP3    H2 8970   2.068   5.195   2.670
 3009TIP3   OH2 8971   7.487   2.221   0.842
 3009TIP3    H1 8972   7.419   2.156   0.856
 3009TIP3    H2 8973   7.535   2.222   0.925
 3010TIP3   OH2 8974   7.972   3.469   6.719
 3010TIP3    H1 8975   7.955   3.443   6.628
 3010TIP3    H2 8976   7.970   3.565   6.717
 3011TIP3   OH2 8977   0.508   0.737   4.560
 3011TIP3    H1 8978   0.477   0.657   4.517
 3011TIP3    H2 8979   0.430   0.772   4.603
 3012TIP3   OH2 8980   4.342   5.894   6.342
 3012TIP3    H1 8981   4.300   5.980   6.340
 3012TIP3    H2 8982   4.334   5.866   6.434
 3013TIP3   OH2 8983   8.049   5.047   1.916
 3013TIP3    H1 8984   8.082   5.037   2.006
 3013TIP3    H2 8985   8.124   5.022   1.861
 3014TIP3   OH2 8986   0.297   0.617   3.184
 3014TIP3    H1 8987   0.356   0.637   3.257
 3014TIP3    H2 8988   0.323   0.530   3.155
 3015TIP3   OH2 8989   4.974   1.704   3.005
 3015TIP3    H1 8990   5.015   1.706   3.092
 3015TIP3    H2 8991   5.047   1.710   2.944
 3016TIP3   OH2 8992   5.159   1.542   5.398
 3016TIP3    H1 8993   5.132   1.633   5.406
 3016TIP3    H2 8994   5.102   1.494   5.457
 3017TIP3   OH2 8995   1.476   5.012   4.339
 3017TIP3    H1 8996   1.493   4.966   4.257
 3017TIP3    H2 8997   1.561   5.047   4.365
 3018TIP3   OH2 8998   5.753   4.301   2.915
 3018TIP3    H1 8999   5.815   4.313   2.843
 3018TIP3    H2 9000   5.703   4.224   2.890
 3019TIP3   OH2 9001   1.978   0.899   5.836
 3019TIP3    H1 9002   1.890   0.935   5.823
 3019TIP3    H2 9003   2.012   0.947   5.912
 3020TIP3   OH2 9004   6.889   6.955   6.706
 3020TIP3    H1 9005   6.917   6.902   6.780
 3020TIP3    H2 9006   6.878   6.892   6.634
 3021TIP3   OH2 9007   5.975   6.853   4.995
 3021TIP3    H1 9008   5.998   6.894   5.079
 3021TIP3    H2 9009   6.058   6.848   4.947
 3022TIP3   OH2 9010   5.843   7.119   3.226
 3022TIP3    H1 9011   5.773   7.141   3.287
 3022TIP3    H2 9012   5.907   7.072   3.278
 3023TIP3   OH2 9013   5.008   2.690   6.521
 3023TIP3    H1 9014   5.093   2.727   6.544
 3023TIP3    H2 9015   4.944   2.741   6.571
 3024TIP3   OH2 9016   7.730   1.277   3.767
 3024TIP3    H1 9017   7.726   1.288   3.672
 3024TIP3    H2 9018   7.823   1.290   3.788
 3025TIP3   OH2 9019   2.078   4.546   3.687
 3025TIP3    H1 9020   2.123   4.598   3.620
 3025TIP3    H2 9021   2.029   4.611   3.738
 3026TIP3   OH2 9022   7.863   4.808   1.267
 3026TIP3    H1 9023   7.941   4.768   1.307
 3026TIP3    H2 9024   7.790   4.753   1.296
 3027TIP3   OH2 9025   7.317   3.159   0.667
 3027TIP3    H1 9026   7.317   3.099   0.742
 3027TIP3    H2 9027   7.232   3.145   0.625
 3028TIP3   OH2 9028   0.203   0.010   0.253
 3028TIP3    H1 9029   0.285  -0.035   0.236
 3028TIP3    H2 9030   0.222   0.069   0.326
 3029TIP3   OH2 9031   0.376   4.828   0.777
 3029TIP3    H1 9032   0.399   4.751   0.725
 3029TIP3    H2 9033   0.342   4.891   0.713
 3030TIP3   OH2 9034   6.852   3.593   1.929
 3030TIP3    H1 9035   6.881   3.637   2.009
 3030TIP3    H2 9036   6.874   3.501   1.943
 3031TIP3   OH2 9037   4.991   4.312   3.130
 3031TIP3    H1 9038   5.003   4.362   3.049
 3031TIP3    H2 9039   4.904   4.274   3.122
 3032TIP3   OH2 9040   7.654   3.711   4.379
 3032TIP3    H1 9041   7.635   3.799   4.412
 3032TIP3    H2 9042   7.569   3.677   4.350
 3033TIP3   OH2 9043   7.878   3.414   5.713
 3033TIP3    H1 9044   7.785   3.432   5.696
 3033TIP3    H2 9045   7.924   3.464   5.646
 3034TIP3   OH2 9046   0.772   1.909   0.028
 3034TIP3    H1 9047   0.833   1.949   0.089
 3034TIP3    H2 9048   0.694   1.891   0.081
 3035TIP3   OH2 9049   3.986   3.507   5.518
 3035TIP3    H1 9050   3.984   3.429   5.462
 3035TIP3    H2 9051   3.994   3.580   5.458
 3036TIP3   OH2 9052   0.624   2.151   3.880
 3036TIP3    H1 9053   0.689   2.082   3.891
 3036TIP3    H2 9054   0.581   2.132   3.797
 3037TIP3   OH2 9055   0.737   1.334   0.373
 3037TIP3    H1 9056   0.822   1.298   0.398
 3037TIP3    H2 9057   0.750   1.365   0.283
 3038TIP3   OH2 9058   2.910   1.722   0.404
 3038TIP3    H1 9059   2.826   1.700   0.364
 3038TIP3    H2 9060   2.901   1.696   0.496
 3039TIP3   OH2 9061   5.963   7.512   2.152
 3039TIP3    H1 9062   5.975   7.532   2.245
 3039TIP3    H2 9063   6.025   7.441   2.134
 3040TIP3   OH2 9064   5.230   5.812   5.365
 3040TIP3    H1 9065   5.165   5.743   5.350
 3040TIP3    H2 9066   5.314   5.768   5.355
 3041TIP3   OH2 9067   6.655   7.141   6.704
 3041TIP3    H1 9068   6.612   7.102   6.780
 3041TIP3    H2 9069   6.737   7.093   6.695
 3042TIP3   OH2 9070   4.538   7.432   5.372
 3042TIP3    H1 9071   4.528   7.527   5.364
 3042TIP3    H2 9072   4.563   7.402   5.285
 3043TIP3   OH2 9073   5.537   2.167   6.595
 3043TIP3    H1 9074   5.501   2.112   6.525
 3043TIP3    H2 9075   5.631   2.154   6.591
 3044TIP3   OH2 9076   3.125   4.848   4.212
 3044TIP3    H1 9077   3.150   4.834   4.303
 3044TIP3    H2 9078   3.046   4.902   4.216
 3045TIP3   OH2 9079   5.633   1.808   6.695
 3045TIP3    H1 9080   5.567   1.835   6.631
 3045TIP3    H2 9081   5.586   1.750   6.755
 3046TIP3   OH2 9082   1.027   3.224   1.324
 3046TIP3    H1 9083   1.033   3.158   1.394
 3046TIP3    H2 9084   0.942   3.266   1.337
 3047TIP3   OH2 9085   7.089   2.582   5.790
 3047TIP3    H1 9086   7.125   2.643   5.854
 3047TIP3    H2 9087   7.069   2.503   5.840
 3048TIP3   OH2 9088   2.234   3.857   1.511
 3048TIP3    H1 9089   2.304   3.911   1.548
 3048TIP3    H2 9090   2.249   3.769   1.546
 3049TIP3   OH2 9091   2.787   0.752   4.258
 3049TIP3    H1 9092   2.872   0.775   4.296
 3049TIP3    H2 9093   2.736   0.833   4.264
 3050TIP3   OH2 9094   1.442   4.956   5.483
 3050TIP3    H1 9095   1.390   4.882   5.454
 3050TIP3    H2 9096   1.511   4.917   5.537
 3051TIP3   OH2 9097   4.103   4.156   3.625
 3051TIP3    H1 9098   4.056   4.077   3.597
 3051TIP3    H2 9099   4.169   4.124   3.685
 3052TIP3   OH2 9100   1.575   3.991   3.299
 3052TIP3    H1 9101   1.617   3.948   3.373
 3052TIP3    H2 9102   1.541   4.073   3.335
 3053TIP3   OH2 9103   6.744   0.744   3.758
 3053TIP3    H1 9104   6.745   0.812   3.825
 3053TIP3    H2 9105   6.746   0.661   3.806
 3054TIP3   OH2 9106   7.011   6.120   3.397
 3054TIP3    H1 9107   6.944   6.187   3.381
 3054TIP3    H2 9108   7.093   6.169   3.403
 3055TIP3   OH2 9109   4.757   4.382   3.861
 3055TIP3    H1 9110   4.761   4.347   3.950
 3055TIP3    H2 9111   4.665   4.405   3.848
 3056TIP3   OH2 9112   7.911   5.963   5.250
 3056TIP3    H1 9113   7.900   5.943   5.343
 3056TIP3    H2 9114   7.895   5.880   5.205
 3057TIP3   OH2 9115   6.025   3.334   2.567
 3057TIP3    H1 9116   6.046   3.246   2.537
 3057TIP3    H2 9117   5.974   3.372   2.496
 3058TIP3   OH2 9118   1.010   6.498   2.075
 3058TIP3    H1 9119   0.981   6.587   2.094
 3058TIP3    H2 9120   0.939   6.442   2.107
 3059TIP3   OH2 9121   5.753   4.714   4.684
 3059TIP3    H1 9122   5.772   4.803   4.653
 3059TIP3    H2 9123   5.665   4.696   4.654
 3060TIP3   OH2 9124   3.372   3.835   3.804
 3060TIP3    H1 9125   3.331   3.914   3.769
 3060TIP3    H2 9126   3.321   3.814   3.882
 3061TIP3   OH2 9127   1.849   7.310   0.513
 3061TIP3    H1 9128   1.857   7.324   0.419
 3061TIP3    H2 9129   1.803   7.227   0.522
 3062TIP3   OH2 9130   6.940   0.600   4.869
 3062TIP3    H1 9131   7.036   0.592   4.866
 3062TIP3    H2 9132   6.908   0.511   4.851
 3063TIP3   OH2 9133   0.874   3.060   4.472
 3063TIP3    H1 9134   0.905   3.092   4.556
 3063TIP3    H2 9135   0.781   3.045   4.485
 3064TIP3   OH2 9136   7.023   7.834   1.759
 3064TIP3    H1 9137   7.061   7.829   1.847
 3064TIP3    H2 9138   6.946   7.776   1.764
 3065TIP3   OH2 9139   3.050   2.040   6.368
 3065TIP3    H1 9140   2.999   2.111   6.330
 3065TIP3    H2 9141   3.069   1.982   6.294
 3066TIP3   OH2 9142   7.832   3.128   5.578
 3066TIP3    H1 9143   7.846   3.215   5.615
 3066TIP3    H2 9144   7.919   3.090   5.570
 3067TIP3   OH2 9145   4.893   6.153   6.529
 3067TIP3    H1 9146   4.802   6.124   6.526
 3067TIP3    H2 9147   4.896   6.227   6.468
 3068TIP3   OH2 9148   3.540   5.860   4.703
 3068TIP3    H1 9149   3.456   5.904   4.688
 3068TIP3    H2 9150   3.563   5.883   4.794
 3069TIP3   OH2 9151   5.406   1.476   0.854
 3069TIP3    H1 9152   5.349   1.456   0.779
 3069TIP3    H2 9153   5.375   1.420   0.925
 3070TIP3   OH2 9154   4.763   0.408   3.042
 3070TIP3    H1 9155   4.669   0.394   3.040
 3070TIP3    H2 9156   4.800   0.320   3.034
 3071TIP3   OH2 9157   1.024   0.483   1.919
 3071TIP3    H1 9158   0.962   0.555   1.917
 3071TIP3    H2 9159   1.058   0.478   1.830
 3072TIP3   OH2 9160   3.439   4.554   1.804
 3072TIP3    H1 9161   3.422   4.468   1.843
 3072TIP3    H2 9162   3.531   4.571   1.825
 3073TIP3   OH2 9163   0.608   5.826   6.192
 3073TIP3    H1 9164   0.554   5.848   6.268
 3073TIP3    H2 9165   0.692   5.800   6.228
 3074TIP3   OH2 9166   6.695   2.466   6.390
 3074TIP3    H1 9167   6.676   2.476   6.297
 3074TIP3    H2 9168   6.703   2.556   6.423
 3075TIP3   OH2 9169   5.457   4.521   5.943
 3075TIP3    H1 9170   5.435   4.614   5.947
 3075TIP3    H2 9171   5.375   4.478   5.921
 3076TIP3   OH2 9172   3.975   0.459   1.931
 3076TIP3    H1 9173   4.020   0.543   1.939
 3076TIP3    H2 9174   3.906   0.463   1.997
 3077TIP3   OH2 9175   7.151   3.041   1.037
 3077TIP3    H1 9176   7.179   3.003   0.953
 3077TIP3    H2 9177   7.186   2.982   1.103
 3078TIP3   OH2 9178   2.606   1.858   4.229
 3078TIP3    H1 9179   2.550   1.893   4.159
 3078TIP3    H2 9180   2.569   1.894   4.309
 3079TIP3   OH2 9181   3.154   0.994   3.690
 3079TIP3    H1 9182   3.143   0.937   3.766
 3079TIP3    H2 9183   3.069   0.990   3.645
 3080TIP3   OH2 9184   2.779   1.916   6.491
 3080TIP3    H1 9185   2.802   1.833   6.448
 3080TIP3    H2 9186   2.769   1.978   6.419
 3081TIP3   OH2 9187   6.089   4.080   5.106
 3081TIP3    H1 9188   6.054   3.993   5.124
 3081TIP3    H2 9189   6.177   4.064   5.073
 3082TIP3   OH2 9190   0.367   7.450   3.857
 3082TIP3    H1 9191   0.458   7.461   3.830
 3082TIP3    H2 9192   0.325   7.533   3.832
 3083TIP3   OH2 9193   6.892   1.829   3.034
 3083TIP3    H1 9194   6.934   1.911   3.061
 3083TIP3    H2 9195   6.895   1.774   3.112
 3084TIP3   OH2 9196   0.184   7.697   1.907
 3084TIP3    H1 9197   0.137   7.637   1.850
 3084TIP3    H2 9198   0.254   7.733   1.852
 3085TIP3   OH2 9199   3.875   1.067   3.508
 3085TIP3    H1 9200   3.863   1.071   3.603
 3085TIP3    H2 9201   3.943   1.000   3.496
 3086TIP3   OH2 9202   1.741   1.723   6.429
 3086TIP3    H1 9203   1.811   1.781   6.460
 3086TIP3    H2 9204   1.767   1.636   6.460
 3087TIP3   OH2 9205   2.577   0.834   3.024
 3087TIP3    H1 9206   2.647   0.773   2.999
 3087TIP3    H2 9207   2.595   0.914   2.974
 3088TIP3   OH2 9208   8.320   5.110   0.922
 3088TIP3    H1 9209   8.266   5.095   0.844
 3088TIP3    H2 9210   8.286   5.190   0.960
 3089TIP3   OH2 9211   0.880   4.173   2.410
 3089TIP3    H1 9212   0.933   4.204   2.483
 3089TIP3    H2 9213   0.823   4.106   2.448
 3090TIP3   OH2 9214   1.676   3.657   6.208
 3090TIP3    H1 9215   1.663   3.709   6.287
 3090TIP3    H2 9216   1.729   3.583   6.235
 3091TIP3   OH2 9217   1.681   5.995   5.773
 3091TIP3    H1 9218   1.643   5.917   5.813
 3091TIP3    H2 9219   1.662   6.066   5.835
 3092TIP3   OH2 9220   4.518   2.305   1.974
 3092TIP3    H1 9221   4.610   2.321   1.954
 3092TIP3    H2 9222   4.472   2.316   1.891
 3093TIP3   OH2 9223   3.632   1.837   2.289
 3093TIP3    H1 9224   3.703   1.841   2.354
 3093TIP3    H2 9225   3.660   1.770   2.227
 3094TIP3   OH2 9226   6.302   2.047   4.224
 3094TIP3    H1 9227   6.230   2.021   4.167
 3094TIP3    H2 9228   6.283   2.004   4.307
 3095TIP3   OH2 9229   2.873   3.446   1.417
 3095TIP3    H1 9230   2.855   3.369   1.363
 3095TIP3    H2 9231   2.912   3.410   1.497
 3096TIP3   OH2 9232   0.729   0.524   1.526
 3096TIP3    H1 9233   0.781   0.546   1.448
 3096TIP3    H2 9234   0.704   0.433   1.513
 3097TIP3   OH2 9235   6.633   3.010   4.933
 3097TIP3    H1 9236   6.644   3.060   5.014
 3097TIP3    H2 9237   6.640   3.075   4.863
 3098TIP3   OH2 9238   2.828   7.610   1.117
 3098TIP3    H1 9239   2.807   7.624   1.025
 3098TIP3    H2 9240   2.750   7.638   1.164
 3099TIP3   OH2 9241   2.209   4.395   0.901
 3099TIP3    H1 9242   2.254   4.472   0.867
 3099TIP3    H2 9243   2.245   4.322   0.851
 3100TIP3   OH2 9244   2.581   0.555   3.326
 3100TIP3    H1 9245   2.573   0.551   3.231
 3100TIP3    H2 9246   2.525   0.484   3.358
 3101TIP3   OH2 9247   3.991   0.387   0.855
 3101TIP3    H1 9248   4.004   0.480   0.870
 3101TIP3    H2 9249   3.924   0.361   0.919
 3102TIP3   OH2 9250   5.200   7.505   2.996
 3102TIP3    H1 9251   5.174   7.464   2.914
 3102TIP3    H2 9252   5.248   7.584   2.970
 3103TIP3   OH2 9253   0.936   2.264   6.511
 3103TIP3    H1 9254   0.960   2.283   6.420
 3103TIP3    H2 9255   1.011   2.293   6.563
 3104TIP3   OH2 9256   6.579   2.640   4.075
 3104TIP3    H1 9257   6.505   2.699   4.090
 3104TIP3    H2 9258   6.621   2.633   4.161
 3105TIP3   OH2 9259   5.279   1.852   0.260
 3105TIP3    H1 9260   5.294   1.917   0.330
 3105TIP3    H2 9261   5.344   1.873   0.194
 3106TIP3   OH2 9262   7.280   1.314   1.039
 3106TIP3    H1 9263   7.256   1.228   1.073
 3106TIP3    H2 9264   7.366   1.301   0.999
 3107TIP3   OH2 9265   6.231   1.194   0.491
 3107TIP3    H1 9266   6.205   1.139   0.565
 3107TIP3    H2 9267   6.252   1.279   0.530
 3108TIP3   OH2 9268   7.129   0.904   1.630
 3108TIP3    H1 9269   7.195   0.953   1.679
 3108TIP3    H2 9270   7.143   0.813   1.656
 3109TIP3   OH2 9271   5.312   4.397   6.707
 3109TIP3    H1 9272   5.255   4.325   6.681
 3109TIP3    H2 9273   5.256   4.475   6.701
 3110TIP3   OH2 9274   4.968   4.371   2.136
 3110TIP3    H1 9275   5.018   4.333   2.208
 3110TIP3    H2 9276   4.943   4.458   2.167
 3111TIP3   OH2 9277   2.491   1.569   3.528
 3111TIP3    H1 9278   2.484   1.648   3.474
 3111TIP3    H2 9279   2.571   1.526   3.499
 3112TIP3   OH2 9280   6.355   2.205   1.282
 3112TIP3    H1 9281   6.279   2.204   1.340
 3112TIP3    H2 9282   6.361   2.115   1.249
 3113TIP3   OH2 9283   6.186   1.037   4.645
 3113TIP3    H1 9284   6.271   1.057   4.605
 3113TIP3    H2 9285   6.129   1.109   4.618
 3114TIP3   OH2 9286   4.106   1.558   4.952
 3114TIP3    H1 9287   4.165   1.517   5.015
 3114TIP3    H2 9288   4.031   1.499   4.948
 3115TIP3   OH2 9289   6.098   7.506   1.106
 3115TIP3    H1 9290   6.145   7.553   1.037
 3115TIP3    H2 9291   6.167   7.461   1.155
 3116TIP3   OH2 9292   1.136   4.161   4.971
 3116TIP3    H1 9293   1.046   4.146   4.941
 3116TIP3    H2 9294   1.178   4.206   4.898
 3117TIP3   OH2 9295   0.682   2.616   6.618
 3117TIP3    H1 9296   0.590   2.636   6.638
 3117TIP3    H2 9297   0.679   2.533   6.572
 3118TIP3   OH2 9298   5.973   5.227   6.294
 3118TIP3    H1 9299   6.068   5.220   6.292
 3118TIP3    H2 9300   5.955   5.320   6.282
 3119TIP3   OH2 9301   8.254   5.729   4.177
 3119TIP3    H1 9302   8.295   5.813   4.197
 3119TIP3    H2 9303   8.231   5.735   4.084
 3120TIP3   OH2 9304   5.993   3.451   1.760
 3120TIP3    H1 9305   5.991   3.489   1.672
 3120TIP3    H2 9306   6.085   3.448   1.783
 3121TIP3   OH2 9307   6.481   4.709   1.916
 3121TIP3    H1 9308   6.501   4.674   1.829
 3121TIP3    H2 9309   6.454   4.633   1.967
 3122TIP3   OH2 9310   7.759   5.773   1.379
 3122TIP3    H1 9311   7.759   5.757   1.474
 3122TIP3    H2 9312   7.669   5.799   1.360
 3123TIP3   OH2 9313   1.469   0.955   1.328
 3123TIP3    H1 9314   1.437   1.019   1.264
 3123TIP3    H2 9315   1.432   0.983   1.411
 3124TIP3   OH2 9316   1.123   0.813   5.273
 3124TIP3    H1 9317   1.178   0.858   5.209
 3124TIP3    H2 9318   1.046   0.785   5.224
 3125TIP3   OH2 9319   2.295   4.198   2.485
 3125TIP3    H1 9320   2.336   4.247   2.556
 3125TIP3    H2 9321   2.204   4.188   2.513
 3126TIP3   OH2 9322   5.391   1.837   5.333
 3126TIP3    H1 9323   5.386   1.908   5.398
 3126TIP3    H2 9324   5.339   1.767   5.370
 3127TIP3   OH2 9325   3.994   7.850   3.466
 3127TIP3    H1 9326   3.930   7.785   3.496
 3127TIP3    H2 9327   4.079   7.812   3.487
 3128TIP3   OH2 9328   7.975   1.966   5.331
 3128TIP3    H1 9329   7.979   2.023   5.408
 3128TIP3    H2 9330   8.011   2.019   5.261
 3129TIP3   OH2 9331   7.983   5.861   4.513
 3129TIP3    H1 9332   7.996   5.954   4.493
 3129TIP3    H2 9333   7.942   5.861   4.600
 3130TIP3   OH2 9334   7.512   2.436   4.873
 3130TIP3    H1 9335   7.520   2.382   4.794
 3130TIP3    H2 9336   7.532   2.378   4.945
 3131TIP3   OH2 9337   0.754   1.526   5.337
 3131TIP3    H1 9338   0.701   1.567   5.268
 3131TIP3    H2 9339   0.837   1.504   5.294
 3132TIP3   OH2 9340   0.281   6.366   0.543
 3132TIP3    H1 9341   0.275   6.370   0.448
 3132TIP3    H2 9342   0.359   6.417   0.565
 3133TIP3   OH2 9343   0.450   4.026   2.592
 3133TIP3    H1 9344   0.377   4.021   2.530
 3133TIP3    H2 9345   0.482   4.116   2.584
 3134TIP3   OH2 9346   3.340   6.884   3.858
 3134TIP3    H1 9347   3.346   6.829   3.936
 3134TIP3    H2 9348   3.246   6.887   3.839
 3135TIP3   OH2 9349   6.370   5.004   1.216
 3135TIP3    H1 9350   6.397   5.083   1.262
 3135TIP3    H2 9351   6.305   4.963   1.273
 3136TIP3   OH2 9352   2.810   7.630   2.781
 3136TIP3    H1 9353   2.744   7.634   2.712
 3136TIP3    H2 9354   2.763   7.654   2.860
 3137TIP3   OH2 9355   3.347   2.334   5.637
 3137TIP3    H1 9356   3.347   2.319   5.542
 3137TIP3    H2 9357   3.393   2.259   5.673
 3138TIP3   OH2 9358   2.650   0.807   0.689
 3138TIP3    H1 9359   2.716   0.786   0.756
 3138TIP3    H2 9360   2.618   0.893   0.714
 3139TIP3   OH2 9361   5.569   0.490   1.463
 3139TIP3    H1 9362   5.563   0.552   1.390
 3139TIP3    H2 9363   5.632   0.424   1.434
 3140TIP3   OH2 9364   5.511   4.160   6.192
 3140TIP3    H1 9365   5.559   4.149   6.110
 3140TIP3    H2 9366   5.420   4.141   6.168
 3141TIP3   OH2 9367   1.935   0.407   3.592
 3141TIP3    H1 9368   1.941   0.503   3.588
 3141TIP3    H2 9369   2.006   0.382   3.651
 3142TIP3   OH2 9370   3.576   5.735   3.162
 3142TIP3    H1 9371   3.526   5.810   3.131
 3142TIP3    H2 9372   3.608   5.760   3.249
 3143TIP3   OH2 9373   0.307   5.514   6.651
 3143TIP3    H1 9374   0.340   5.489   6.737
 3143TIP3    H2 9375   0.337   5.444   6.592
 3144TIP3   OH2 9376   2.492   7.338   2.479
 3144TIP3    H1 9377   2.520   7.249   2.458
 3144TIP3    H2 9378   2.490   7.340   2.575
 3145TIP3   OH2 9379   5.456   5.550   3.964
 3145TIP3    H1 9380   5.513   5.567   3.889
 3145TIP3    H2 9381   5.368   5.555   3.929
 3146TIP3   OH2 9382   6.316   1.817   0.892
 3146TIP3    H1 9383   6.227   1.853   0.894
 3146TIP3    H2 9384   6.305   1.730   0.853
 3147TIP3   OH2 9385   4.799   7.083   3.495
 3147TIP3    H1 9386   4.768   7.032   3.420
 3147TIP3    H2 9387   4.728   7.143   3.515
 3148TIP3   OH2 9388   6.818   7.396   5.563
 3148TIP3    H1 9389   6.786   7.484   5.585
 3148TIP3    H2 9390   6.889   7.412   5.500
 3149TIP3   OH2 9391   1.190   5.872   3.999
 3149TIP3    H1 9392   1.106   5.859   4.043
 3149TIP3    H2 9393   1.219   5.958   4.029
 3150TIP3   OH2 9394   6.533   5.835   4.599
 3150TIP3    H1 9395   6.448   5.836   4.644
 3150TIP3    H2 9396   6.513   5.809   4.509
 3151TIP3   OH2 9397   7.452   0.767   0.840
 3151TIP3    H1 9398   7.500   0.834   0.791
 3151TIP3    H2 9399   7.422   0.812   0.919
 3152TIP3   OH2 9400   2.430   4.891   4.600
 3152TIP3    H1 9401   2.421   4.830   4.527
 3152TIP3    H2 9402   2.404   4.976   4.564
 3153TIP3   OH2 9403   6.388   6.602   5.526
 3153TIP3    H1 9404   6.300   6.633   5.547
 3153TIP3    H2 9405   6.380   6.507   5.525
 3154TIP3   OH2 9406   3.100   3.873   6.413
 3154TIP3    H1 9407   3.122   3.918   6.494
 3154TIP3    H2 9408   3.153   3.793   6.415
 3155TIP3   OH2 9409   6.663   3.652   0.548
 3155TIP3    H1 9410   6.676   3.702   0.468
 3155TIP3    H2 9411   6.675   3.561   0.521
 3156TIP3   OH2 9412   6.496   6.207   6.132
 3156TIP3    H1 9413   6.490   6.301   6.147
 3156TIP3    H2 9414   6.445   6.192   6.053
 3157TIP3   OH2 9415   7.695   4.878   3.113
 3157TIP3    H1 9416   7.620   4.929   3.144
 3157TIP3    H2 9417   7.766   4.941   3.107
 3158TIP3   OH2 9418   1.459   1.207   2.892
 3158TIP3    H1 9419   1.524   1.144   2.923
 3158TIP3    H2 9420   1.496   1.293   2.913
 3159TIP3   OH2 9421   3.136   7.174   2.229
 3159TIP3    H1 9422   3.114   7.118   2.154
 3159TIP3    H2 9423   3.230   7.189   2.220
 3160TIP3   OH2 9424   3.372   5.848   2.496
 3160TIP3    H1 9425   3.385   5.793   2.418
 3160TIP3    H2 9426   3.320   5.794   2.555
 3161TIP3   OH2 9427   7.352   4.248   0.583
 3161TIP3    H1 9428   7.304   4.330   0.568
 3161TIP3    H2 9429   7.307   4.207   0.656
 3162TIP3   OH2 9430   7.361   3.883   4.008
 3162TIP3    H1 9431   7.365   3.951   3.941
 3162TIP3    H2 9432   7.441   3.833   3.996
 3163TIP3   OH2 9433   6.105   6.640   2.721
 3163TIP3    H1 9434   6.180   6.699   2.715
 3163TIP3    H2 9435   6.029   6.699   2.725
 3164TIP3   OH2 9436   6.260   6.429   2.604
 3164TIP3    H1 9437   6.292   6.503   2.553
 3164TIP3    H2 9438   6.185   6.464   2.652
 3165TIP3   OH2 9439   2.372   2.942   6.442
 3165TIP3    H1 9440   2.330   3.025   6.419
 3165TIP3    H2 9441   2.321   2.908   6.515
 3166TIP3   OH2 9442   7.399   5.174   2.962
 3166TIP3    H1 9443   7.313   5.178   2.919
 3166TIP3    H2 9444   7.457   5.225   2.905
 3167TIP3   OH2 9445   6.323   4.817   0.407
 3167TIP3    H1 9446   6.248   4.805   0.466
 3167TIP3    H2 9447   6.320   4.740   0.350
 3168TIP3   OH2 9448   7.762   6.634   1.778
 3168TIP3    H1 9449   7.763   6.631   1.874
 3168TIP3    H2 9450   7.736   6.724   1.757
 3169TIP3   OH2 9451   2.606   2.312   0.382
 3169TIP3    H1 9452   2.680   2.253   0.391
 3169TIP3    H2 9453   2.571   2.320   0.471
 3170TIP3   OH2 9454   6.574   1.209   2.384
 3170TIP3    H1 9455   6.558   1.299   2.414
 3170TIP3    H2 9456   6.627   1.170   2.453
 3171TIP3   OH2 9457   7.761   4.417   2.875
 3171TIP3    H1 9458   7.760   4.362   2.954
 3171TIP3    H2 9459   7.746   4.356   2.803
 3172TIP3   OH2 9460   2.299   6.651   0.763
 3172TIP3    H1 9461   2.253   6.728   0.795
 3172TIP3    H2 9462   2.357   6.626   0.835
 3173TIP3   OH2 9463   7.701   1.040   2.015
 3173TIP3    H1 9464   7.692   1.135   2.028
 3173TIP3    H2 9465   7.721   1.030   1.922
 3174TIP3   OH2 9466   4.165   6.417   6.153
 3174TIP3    H1 9467   4.243   6.364   6.166
 3174TIP3    H2 9468   4.161   6.474   6.229
 3175TIP3   OH2 9469   1.258   7.410   1.413
 3175TIP3    H1 9470   1.254   7.380   1.503
 3175TIP3    H2 9471   1.320   7.351   1.370
 3176TIP3   OH2 9472   1.484   0.679   1.069
 3176TIP3    H1 9473   1.483   0.676   1.165
 3176TIP3    H2 9474   1.490   0.772   1.048
 3177TIP3   OH2 9475   3.541   2.853   6.548
 3177TIP3    H1 9476   3.597   2.910   6.600
 3177TIP3    H2 9477   3.482   2.912   6.501
 3178TIP3   OH2 9478   3.509   7.224   1.299
 3178TIP3    H1 9479   3.478   7.312   1.279
 3178TIP3    H2 9480   3.478   7.170   1.227
 3179TIP3   OH2 9481   4.732   6.353   4.075
 3179TIP3    H1 9482   4.748   6.275   4.127
 3179TIP3    H2 9483   4.802   6.353   4.009
 3180TIP3   OH2 9484   6.021   3.175   3.310
 3180TIP3    H1 9485   5.962   3.170   3.235
 3180TIP3    H2 9486   5.962   3.175   3.386
 3181TIP3   OH2 9487   3.335   7.491   2.377
 3181TIP3    H1 9488   3.255   7.507   2.326
 3181TIP3    H2 9489   3.405   7.486   2.311
 3182TIP3   OH2 9490   7.826   5.009   6.570
 3182TIP3    H1 9491   7.789   5.095   6.549
 3182TIP3    H2 9492   7.803   4.954   6.495
 3183TIP3   OH2 9493   6.796   6.624   3.809
 3183TIP3    H1 9494   6.799   6.555   3.874
 3183TIP3    H2 9495   6.860   6.689   3.840
 3184TIP3   OH2 9496   7.751   2.506   1.977
 3184TIP3    H1 9497   7.747   2.426   1.924
 3184TIP3    H2 9498   7.751   2.577   1.913
 3185TIP3   OH2 9499   6.485   2.976   2.992
 3185TIP3    H1 9500   6.562   2.999   2.940
 3185TIP3    H2 9501   6.419   3.041   2.966
 3186TIP3   OH2 9502   7.557   0.774   6.311
 3186TIP3    H1 9503   7.463   0.764   6.327
 3186TIP3    H2 9504   7.581   0.697   6.260
 3187TIP3   OH2 9505   7.821   5.936   1.624
 3187TIP3    H1 9506   7.907   5.944   1.582
 3187TIP3    H2 9507   7.771   6.010   1.590
 3188TIP3   OH2 9508   6.963   0.358   1.536
 3188TIP3    H1 9509   6.879   0.329   1.572
 3188TIP3    H2 9510   6.962   0.453   1.547
 3189TIP3   OH2 9511   4.719   2.920   2.322
 3189TIP3    H1 9512   4.679   3.001   2.292
 3189TIP3    H2 9513   4.747   2.939   2.412
 3190TIP3   OH2 9514   2.661   1.036   3.246
 3190TIP3    H1 9515   2.598   0.992   3.188
 3190TIP3    H2 9516   2.733   0.974   3.254
 3191TIP3   OH2 9517   4.943   3.993   5.067
 3191TIP3    H1 9518   4.910   3.938   4.996
 3191TIP3    H2 9519   5.030   4.019   5.039
 3192TIP3   OH2 9520   0.424   1.357   0.892
 3192TIP3    H1 9521   0.344   1.327   0.935
 3192TIP3    H2 9522   0.396   1.430   0.838
 3193TIP3   OH2 9523   4.662   3.761   0.350
 3193TIP3    H1 9524   4.688   3.826   0.415
 3193TIP3    H2 9525   4.567   3.756   0.358
 3194TIP3   OH2 9526   5.766   1.314   5.202
 3194TIP3    H1 9527   5.687   1.352   5.163
 3194TIP3    H2 9528   5.740   1.225   5.226
 3195TIP3   OH2 9529   2.651   5.515   5.702
 3195TIP3    H1 9530   2.568   5.472   5.722
 3195TIP3    H2 9531   2.676   5.557   5.785
 3196TIP3   OH2 9532   7.609   5.699   0.639
 3196TIP3    H1 9533   7.634   5.786   0.670
 3196TIP3    H2 9534   7.525   5.712   0.596
 3197TIP3   OH2 9535   6.638   1.996   0.349
 3197TIP3    H1 9536   6.649   1.958   0.436
 3197TIP3    H2 9537   6.583   2.073   0.362
 3198TIP3   OH2 9538   6.747   6.446   0.949
 3198TIP3    H1 9539   6.677   6.421   0.889
 3198TIP3    H2 9540   6.822   6.393   0.922
 3199TIP3   OH2 9541   2.776   4.182   1.721
 3199TIP3    H1 9542   2.828   4.261   1.729
 3199TIP3    H2 9543   2.704   4.194   1.783
 3200TIP3   OH2 9544   0.673   4.620   6.719
 3200TIP3    H1 9545   0.705   4.685   6.656
 3200TIP3    H2 9546   0.752   4.590   6.764
 3201TIP3   OH2 9547   4.692   3.934   2.802
 3201TIP3    H1 9548   4.726   3.999   2.863
 3201TIP3    H2 9549   4.598   3.934   2.817
 3202TIP3   OH2 9550   0.714   3.794   4.432
 3202TIP3    H1 9551   0.786   3.799   4.370
 3202TIP3    H2 9552   0.735   3.719   4.487
 3203TIP3   OH2 9553   7.758   1.027   3.567
 3203TIP3    H1 9554   7.669   1.014   3.598
 3203TIP3    H2 9555   7.755   1.108   3.517
 3204TIP3   OH2 9556   0.340   3.053   5.166
 3204TIP3    H1 9557   0.270   2.993   5.191
 3204TIP3    H2 9558   0.399   3.001   5.112
 3205TIP3   OH2 9559   4.439   7.164   6.052
 3205TIP3    H1 9560   4.427   7.124   6.138
 3205TIP3    H2 9561   4.523   7.131   6.021
 3206TIP3   OH2 9562   3.315   6.368   0.691
 3206TIP3    H1 9563   3.278   6.293   0.737
 3206TIP3    H2 9564   3.410   6.353   0.692
 3207TIP3   OH2 9565   5.821   1.448   2.018
 3207TIP3    H1 9566   5.814   1.360   1.982
 3207TIP3    H2 9567   5.898   1.445   2.074
 3208TIP3   OH2 9568   1.108   2.001   1.708
 3208TIP3    H1 9569   1.112   2.058   1.632
 3208TIP3    H2 9570   1.098   1.913   1.671
 3209TIP3   OH2 9571   1.095   3.583   5.876
 3209TIP3    H1 9572   1.016   3.531   5.893
 3209TIP3    H2 9573   1.083   3.663   5.928
 3210TIP3   OH2 9574   6.480   0.443   3.915
 3210TIP3    H1 9575   6.477   0.471   3.823
 3210TIP3    H2 9576   6.547   0.375   3.917
 3211TIP3   OH2 9577   5.338   2.094   1.994
 3211TIP3    H1 9578   5.292   2.047   1.925
 3211TIP3    H2 9579   5.412   2.037   2.016
 3212TIP3   OH2 9580   5.828   0.033   2.435
 3212TIP3    H1 9581   5.802  -0.053   2.467
 3212TIP3    H2 9582   5.871   0.074   2.510
 3213TIP3   OH2 9583   0.756   3.397   1.401
 3213TIP3    H1 9584   0.767   3.347   1.482
 3213TIP3    H2 9585   0.739   3.486   1.430
 3214TIP3   OH2 9586   0.895   5.643   1.342
 3214TIP3    H1 9587   0.810   5.648   1.299
 3214TIP3    H2 9588   0.879   5.672   1.432
 3215TIP3   OH2 9589   7.586   6.872   2.372
 3215TIP3    H1 9590   7.545   6.862   2.286
 3215TIP3    H2 9591   7.628   6.787   2.388
 3216TIP3   OH2 9592   4.038   6.884   0.837
 3216TIP3    H1 9593   4.112   6.825   0.851
 3216TIP3    H2 9594   4.030   6.891   0.742
 3217TIP3   OH2 9595   0.022   5.913   0.751
 3217TIP3    H1 9596   0.106   5.958   0.742
 3217TIP3    H2 9597   0.007   5.873   0.666
 3218TIP3   OH2 9598   7.019   4.754   0.762
 3218TIP3    H1 9599   6.928   4.731   0.742
 3218TIP3    H2 9600   7.035   4.835   0.713
 3219TIP3   OH2 9601   3.403   0.565   2.998
 3219TIP3    H1 9602   3.308   0.557   3.009
 3219TIP3    H2 9603   3.414   0.643   2.944
 3220TIP3   OH2 9604   5.423   2.374   3.122
 3220TIP3    H1 9605   5.488   2.439   3.147
 3220TIP3    H2 9606   5.468   2.319   3.057
 3221TIP3   OH2 9607   6.342   4.484   2.281
 3221TIP3    H1 9608   6.247   4.489   2.277
 3221TIP3    H2 9609   6.367   4.432   2.204
 3222TIP3   OH2 9610   7.809   6.205   4.574
 3222TIP3    H1 9611   7.784   6.285   4.618
 3222TIP3    H2 9612   7.760   6.136   4.618
 3223TIP3   OH2 9613   0.999   0.519   4.964
 3223TIP3    H1 9614   1.001   0.583   4.892
 3223TIP3    H2 9615   0.936   0.453   4.936
 3224TIP3   OH2 9616   5.996   3.707   0.796
 3224TIP3    H1 9617   5.997   3.749   0.882
 3224TIP3    H2 9618   6.052   3.762   0.741
 3225TIP3   OH2 9619   3.042   3.142   3.812
 3225TIP3    H1 9620   3.061   3.090   3.734
 3225TIP3    H2 9621   3.126   3.178   3.839
 3226TIP3   OH2 9622   4.331   6.489   3.723
 3226TIP3    H1 9623   4.241   6.470   3.749
 3226TIP3    H2 9624   4.363   6.407   3.686
 3227TIP3   OH2 9625   6.026   2.238   4.807
 3227TIP3    H1 9626   6.105   2.188   4.788
 3227TIP3    H2 9627   5.962   2.173   4.837
 3228TIP3   OH2 9628   0.604   3.376   2.683
 3228TIP3    H1 9629   0.541   3.365   2.754
 3228TIP3    H2 9630   0.560   3.434   2.621
 3229TIP3   OH2 9631   3.543   6.340   1.084
 3229TIP3    H1 9632   3.636   6.321   1.069
 3229TIP3    H2 9633   3.500   6.255   1.072
 3230TIP3   OH2 9634   4.274   0.927   3.219
 3230TIP3    H1 9635   4.220   0.922   3.140
 3230TIP3    H2 9636   4.214   0.905   3.290
 3231TIP3   OH2 9637   1.516   6.806   4.878
 3231TIP3    H1 9638   1.557   6.768   4.956
 3231TIP3    H2 9639   1.477   6.731   4.833
 3232TIP3   OH2 9640   4.074   5.501   3.924
 3232TIP3    H1 9641   4.045   5.426   3.872
 3232TIP3    H2 9642   3.992   5.548   3.945
 3233TIP3   OH2 9643   7.590   6.770   4.205
 3233TIP3    H1 9644   7.621   6.762   4.295
 3233TIP3    H2 9645   7.661   6.731   4.153
 3234TIP3   OH2 9646   5.187   4.225   0.704
 3234TIP3    H1 9647   5.251   4.226   0.634
 3234TIP3    H2 9648   5.156   4.135   0.708
 3235TIP3   OH2 9649   1.951   3.729   4.983
 3235TIP3    H1 9650   1.856   3.726   4.974
 3235TIP3    H2 9651   1.975   3.639   5.006
 3236TIP3   OH2 9652   0.870   2.512   4.961
 3236TIP3    H1 9653   0.794   2.547   5.007
 3236TIP3    H2 9654   0.945   2.542   5.012
 3237TIP3   OH2 9655   3.162   0.547   0.136
 3237TIP3    H1 9656   3.103   0.496   0.080
 3237TIP3    H2 9657   3.231   0.578   0.077
 3238TIP3   OH2 9658   2.245   0.609   0.087
 3238TIP3    H1 9659   2.272   0.579   0.174
 3238TIP3    H2 9660   2.254   0.704   0.091
 3239TIP3   OH2 9661   7.338   1.619   1.092
 3239TIP3    H1 9662   7.281   1.543   1.103
 3239TIP3    H2 9663   7.294   1.689   1.142
 3240TIP3   OH2 9664   3.343   5.400   5.392
 3240TIP3    H1 9665   3.333   5.452   5.472
 3240TIP3    H2 9666   3.314   5.312   5.417
 3241TIP3   OH2 9667   2.652   5.249   2.430
 3241TIP3    H1 9668   2.695   5.271   2.513
 3241TIP3    H2 9669   2.650   5.332   2.382
 3242TIP3   OH2 9670   2.077   2.051   1.646
 3242TIP3    H1 9671   2.029   2.084   1.721
 3242TIP3    H2 9672   2.055   2.112   1.575
 3243TIP3   OH2 9673   2.866   4.846   5.541
 3243TIP3    H1 9674   2.899   4.800   5.618
 3243TIP3    H2 9675   2.778   4.811   5.527
 3244TIP3   OH2 9676   0.850   0.756   4.036
 3244TIP3    H1 9677   0.811   0.686   3.985
 3244TIP3    H2 9678   0.814   0.836   3.998
 3245TIP3   OH2 9679   5.899   0.144   4.022
 3245TIP3    H1 9680   5.933   0.196   3.949
 3245TIP3    H2 9681   5.952   0.171   4.097
 3246TIP3   OH2 9682   1.286   2.371   3.787
 3246TIP3    H1 9683   1.328   2.428   3.722
 3246TIP3    H2 9684   1.242   2.431   3.847
 3247TIP3   OH2 9685   7.492   3.190   3.905
 3247TIP3    H1 9686   7.490   3.270   3.853
 3247TIP3    H2 9687   7.472   3.120   3.843
 3248TIP3   OH2 9688   2.183   5.329   2.948
 3248TIP3    H1 9689   2.262   5.329   2.893
 3248TIP3    H2 9690   2.176   5.419   2.979
 3249TIP3   OH2 9691   4.884   6.972   4.912
 3249TIP3    H1 9692   4.911   6.887   4.879
 3249TIP3    H2 9693   4.861   6.957   5.003
 3250TIP3   OH2 9694   0.725   1.626   2.126
 3250TIP3    H1 9695   0.707   1.599   2.036
 3250TIP3    H2 9696   0.639   1.626   2.168
 3251TIP3   OH2 9697   0.187   7.075   3.579
 3251TIP3    H1 9698   0.205   7.114   3.494
 3251TIP3    H2 9699   0.218   6.985   3.571
 3252TIP3   OH2 9700   2.432   3.221   0.137
 3252TIP3    H1 9701   2.520   3.224   0.101
 3252TIP3    H2 9702   2.444   3.206   0.231
 3253TIP3   OH2 9703   5.383   2.353   0.423
 3253TIP3    H1 9704   5.368   2.301   0.503
 3253TIP3    H2 9705   5.456   2.410   0.445
 3254TIP3   OH2 9706   4.868   3.231   0.628
 3254TIP3    H1 9707   4.887   3.230   0.721
 3254TIP3    H2 9708   4.786   3.281   0.621
 3255TIP3   OH2 9709   6.256   5.930   5.086
 3255TIP3    H1 9710   6.227   6.019   5.103
 3255TIP3    H2 9711   6.181   5.889   5.041
 3256TIP3   OH2 9712   4.860   7.767   0.722
 3256TIP3    H1 9713   4.856   7.688   0.776
 3256TIP3    H2 9714   4.775   7.810   0.736
 3257TIP3   OH2 9715   7.848   4.778   3.416
 3257TIP3    H1 9716   7.889   4.804   3.333
 3257TIP3    H2 9717   7.917   4.793   3.482
 3258TIP3   OH2 9718   5.320   3.017   6.204
 3258TIP3    H1 9719   5.366   2.967   6.137
 3258TIP3    H2 9720   5.230   2.987   6.200
 3259TIP3   OH2 9721   1.923   7.336   4.563
 3259TIP3    H1 9722   1.941   7.281   4.487
 3259TIP3    H2 9723   1.842   7.381   4.541
 3260TIP3   OH2 9724   1.552   5.399   2.702
 3260TIP3    H1 9725   1.562   5.357   2.616
 3260TIP3    H2 9726   1.610   5.350   2.760
 3261TIP3   OH2 9727   6.135   4.338   0.113
 3261TIP3    H1 9728   6.180   4.254   0.108
 3261TIP3    H2 9729   6.049   4.317   0.149
 3262TIP3   OH2 9730   7.704   6.265   0.822
 3262TIP3    H1 9731   7.756   6.345   0.813
 3262TIP3    H2 9732   7.748   6.215   0.891
 3263TIP3   OH2 9733   0.529   2.745   2.295
 3263TIP3    H1 9734   0.586   2.747   2.372
 3263TIP3    H2 9735   0.589   2.745   2.220
 3264TIP3   OH2 9736   3.739   5.844   5.424
 3264TIP3    H1 9737   3.778   5.913   5.478
 3264TIP3    H2 9738   3.646   5.847   5.445
 3265TIP3   OH2 9739   5.181   5.628   4.600
 3265TIP3    H1 9740   5.135   5.554   4.639
 3265TIP3    H2 9741   5.158   5.702   4.656
 3266TIP3   OH2 9742   7.142   5.340   5.573
 3266TIP3    H1 9743   7.136   5.276   5.502
 3266TIP3    H2 9744   7.182   5.291   5.645
 3267TIP3   OH2 9745   4.925   2.699   5.726
 3267TIP3    H1 9746   4.987   2.660   5.664
 3267TIP3    H2 9747   4.981   2.734   5.796
 3268TIP3   OH2 9748   5.272   2.167   4.271
 3268TIP3    H1 9749   5.289   2.232   4.203
 3268TIP3    H2 9750   5.277   2.216   4.353
 3269TIP3   OH2 9751   7.038   7.140   3.787
 3269TIP3    H1 9752   7.102   7.071   3.804
 3269TIP3    H2 9753   7.065   7.213   3.843
 3270TIP3   OH2 9754   2.633   4.048   5.247
 3270TIP3    H1 9755   2.723   4.022   5.231
 3270TIP3    H2 9756   2.583   3.967   5.237
 3271TIP3   OH2 9757   0.039   6.702   3.554
 3271TIP3    H1 9758  -0.007   6.730   3.475
 3271TIP3    H2 9759   0.130   6.726   3.538
 3272TIP3   OH2 9760   0.832   2.688   5.286
 3272TIP3    H1 9761   0.821   2.605   5.333
 3272TIP3    H2 9762   0.923   2.713   5.303
 3273TIP3   OH2 9763   6.502   4.216   6.015
 3273TIP3    H1 9764   6.589   4.246   6.041
 3273TIP3    H2 9765   6.518   4.151   5.947
 3274TIP3   OH2 9766   0.901   5.437   0.101
 3274TIP3    H1 9767   0.984   5.422   0.057
 3274TIP3    H2 9768   0.923   5.490   0.177
 3275TIP3   OH2 9769   1.168   4.553   1.573
 3275TIP3    H1 9770   1.110   4.494   1.525
 3275TIP3    H2 9771   1.195   4.502   1.650
 3276TIP3   OH2 9772   2.972   2.642   5.720
 3276TIP3    H1 9773   2.942   2.554   5.695
 3276TIP3    H2 9774   3.067   2.639   5.704
 3277TIP3   OH2 9775   3.846   1.114   4.570
 3277TIP3    H1 9776   3.806   1.036   4.607
 3277TIP3    H2 9777   3.934   1.087   4.545
 3278TIP3   OH2 9778   3.226   7.662   1.862
 3278TIP3    H1 9779   3.290   7.626   1.923
 3278TIP3    H2 9780   3.185   7.734   1.909
 3279TIP3   OH2 9781   5.256   3.719   4.307
 3279TIP3    H1 9782   5.218   3.671   4.381
 3279TIP3    H2 9783   5.312   3.786   4.348
 3280TIP3   OH2 9784   7.042   0.679   1.029
 3280TIP3    H1 9785   7.028   0.772   1.010
 3280TIP3    H2 9786   6.957   0.648   1.061
 3281TIP3   OH2 9787   4.205   3.216   4.909
 3281TIP3    H1 9788   4.242   3.268   4.838
 3281TIP3    H2 9789   4.272   3.217   4.978
 3282TIP3   OH2 9790   6.407   5.745   0.034
 3282TIP3    H1 9791   6.385   5.744  -0.059
 3282TIP3    H2 9792   6.381   5.659   0.066
 3283TIP3   OH2 9793   3.845   5.152   3.251
 3283TIP3    H1 9794   3.832   5.144   3.156
 3283TIP3    H2 9795   3.919   5.095   3.270
 3284TIP3   OH2 9796   1.051   0.939   3.188
 3284TIP3    H1 9797   1.131   0.985   3.162
 3284TIP3    H2 9798   0.991   1.009   3.215
 3285TIP3   OH2 9799   6.213   3.999   1.231
 3285TIP3    H1 9800   6.190   3.909   1.255
 3285TIP3    H2 9801   6.141   4.051   1.267
 3286TIP3   OH2 9802   3.701   4.336   4.993
 3286TIP3    H1 9803   3.682   4.393   5.068
 3286TIP3    H2 9804   3.795   4.347   4.978
 3287TIP3   OH2 9805   3.906   5.977  -0.026
 3287TIP3    H1 9806   3.951   5.916   0.032
 3287TIP3    H2 9807   3.816   5.981   0.007
 3288TIP3   OH2 9808   4.090   7.376   6.365
 3288TIP3    H1 9809   4.152   7.439   6.402
 3288TIP3    H2 9810   4.051   7.422   6.290
 3289TIP3   OH2 9811   7.796   0.123   4.864
 3289TIP3    H1 9812   7.798   0.030   4.887
 3289TIP3    H2 9813   7.792   0.124   4.769
 3290TIP3   OH2 9814   1.229   5.628   1.890
 3290TIP3    H1 9815   1.277   5.691   1.944
 3290TIP3    H2 9816   1.295   5.564   1.865
 3291TIP3   OH2 9817   1.541   2.014   4.429
 3291TIP3    H1 9818   1.616   2.033   4.374
 3291TIP3    H2 9819   1.486   2.093   4.424
 3292TIP3   OH2 9820   5.805   4.130   2.265
 3292TIP3    H1 9821   5.850   4.087   2.192
 3292TIP3    H2 9822   5.739   4.067   2.293
 3293TIP3   OH2 9823   5.794   5.576   4.663
 3293TIP3    H1 9824   5.779   5.496   4.613
 3293TIP3    H2 9825   5.811   5.643   4.597
 3294TIP3   OH2 9826   0.642   4.034   5.777
 3294TIP3    H1 9827   0.677   3.960   5.726
 3294TIP3    H2 9828   0.711   4.099   5.775
 3295TIP3   OH2 9829   7.242   5.917   2.505
 3295TIP3    H1 9830   7.147   5.930   2.512
 3295TIP3    H2 9831   7.264   5.862   2.580
 3296TIP3   OH2 9832   3.762   6.562   4.511
 3296TIP3    H1 9833   3.772   6.648   4.471
 3296TIP3    H2 9834   3.815   6.504   4.455
 3297TIP3   OH2 9835   7.402   6.030   0.811
 3297TIP3    H1 9836   7.411   6.018   0.716
 3297TIP3    H2 9837   7.310   6.014   0.829
 3298TIP3   OH2 9838   1.764   7.052   6.148
 3298TIP3    H1 9839   1.738   7.143   6.137
 3298TIP3    H2 9840   1.802   7.048   6.235
 3299TIP3   OH2 9841   4.050   4.379   2.163
 3299TIP3    H1 9842   3.960   4.354   2.182
 3299TIP3    H2 9843   4.103   4.306   2.196
 3300TIP3   OH2 9844   3.994   7.773   3.148
 3300TIP3    H1 9845   3.971   7.818   3.230
 3300TIP3    H2 9846   3.928   7.801   3.086
 3301TIP3   OH2 9847   3.614   2.618   4.023
 3301TIP3    H1 9848   3.634   2.654   4.110
 3301TIP3    H2 9849   3.693   2.572   3.997
 3302TIP3   OH2 9850   1.905   4.636   6.390
 3302TIP3    H1 9851   1.997   4.661   6.396
 3302TIP3    H2 9852   1.857   4.710   6.427
 3303TIP3   OH2 9853   1.858   7.660   6.594
 3303TIP3    H1 9854   1.768   7.632   6.611
 3303TIP3    H2 9855   1.902   7.583   6.558
 3304TIP3   OH2 9856   3.517   7.247   0.873
 3304TIP3    H1 9857   3.469   7.267   0.953
 3304TIP3    H2 9858   3.564   7.328   0.853
 3305TIP3   OH2 9859   7.030   5.473   0.404
 3305TIP3    H1 9860   6.971   5.418   0.352
 3305TIP3    H2 9861   6.972   5.529   0.456
 3306TIP3   OH2 9862   4.672   2.628   2.337
 3306TIP3    H1 9863   4.742   2.662   2.393
 3306TIP3    H2 9864   4.667   2.691   2.264
 3307TIP3   OH2 9865   4.792   4.880   3.805
 3307TIP3    H1 9866   4.771   4.837   3.888
 3307TIP3    H2 9867   4.776   4.813   3.739
 3308TIP3   OH2 9868   5.557   6.727   3.899
 3308TIP3    H1 9869   5.614   6.666   3.946
 3308TIP3    H2 9870   5.491   6.752   3.964
 3309TIP3   OH2 9871   6.508   3.000   3.584
 3309TIP3    H1 9872   6.454   2.923   3.567
 3309TIP3    H2 9873   6.543   3.024   3.498
 3310TIP3   OH2 9874   4.493   4.734   3.127
 3310TIP3    H1 9875   4.461   4.665   3.185
 3310TIP3    H2 9876   4.584   4.748   3.155
 3311TIP3   OH2 9877   6.676   6.434   1.226
 3311TIP3    H1 9878   6.699   6.450   1.135
 3311TIP3    H2 9879   6.704   6.344   1.244
 3312TIP3   OH2 9880   2.030   4.952   4.385
 3312TIP3    H1 9881   2.042   4.980   4.475
 3312TIP3    H2 9882   2.114   4.968   4.343
 3313TIP3   OH2 9883   6.833   5.580   0.600
 3313TIP3    H1 9884   6.801   5.515   0.537
 3313TIP3    H2 9885   6.756   5.603   0.652
 3314TIP3   OH2 9886   4.134   4.448   6.516
 3314TIP3    H1 9887   4.064   4.401   6.562
 3314TIP3    H2 9888   4.090   4.521   6.473
 3315TIP3   OH2 9889   6.873   7.323   1.261
 3315TIP3    H1 9890   6.950   7.375   1.285
 3315TIP3    H2 9891   6.896   7.283   1.178
 3316TIP3   OH2 9892   1.309   2.280   4.558
 3316TIP3    H1 9893   1.377   2.314   4.615
 3316TIP3    H2 9894   1.231   2.276   4.613
 3317TIP3   OH2 9895   6.405   4.354   2.059
 3317TIP3    H1 9896   6.496   4.372   2.037
 3317TIP3    H2 9897   6.361   4.348   1.974
 3318TIP3   OH2 9898   0.556   0.903   5.663
 3318TIP3    H1 9899   0.596   0.826   5.704
 3318TIP3    H2 9900   0.628   0.964   5.650
 3319TIP3   OH2 9901   4.331   1.474   3.453
 3319TIP3    H1 9902   4.277   1.541   3.411
 3319TIP3    H2 9903   4.333   1.500   3.545
 3320TIP3   OH2 9904   1.555   1.250   5.634
 3320TIP3    H1 9905   1.592   1.240   5.721
 3320TIP3    H2 9906   1.627   1.281   5.580
 3321TIP3   OH2 9907   6.392   7.760   4.345
 3321TIP3    H1 9908   6.375   7.717   4.429
 3321TIP3    H2 9909   6.449   7.834   4.366
 3322TIP3   OH2 9910   6.909   0.883   2.845
 3322TIP3    H1 9911   6.976   0.871   2.912
 3322TIP3    H2 9912   6.835   0.832   2.875
 3323TIP3   OH2 9913   5.930   3.243   3.598
 3323TIP3    H1 9914   5.914   3.224   3.690
 3323TIP3    H2 9915   5.864   3.308   3.575
 3324TIP3   OH2 9916   1.823   3.997   1.327
 3324TIP3    H1 9917   1.807   3.979   1.420
 3324TIP3    H2 9918   1.911   3.965   1.311
 3325TIP3   OH2 9919   3.628   2.832   0.118
 3325TIP3    H1 9920   3.571   2.879   0.058
 3325TIP3    H2 9921   3.568   2.784   0.176
 3326TIP3   OH2 9922   5.060   3.532   2.721
 3326TIP3    H1 9923   5.132   3.469   2.725
 3326TIP3    H2 9924   5.083   3.599   2.785
 3327TIP3   OH2 9925   8.165   6.348   2.330
 3327TIP3    H1 9926   8.089   6.388   2.372
 3327TIP3    H2 9927   8.170   6.392   2.245
 3328TIP3   OH2 9928   0.140   0.255   0.454
 3328TIP3    H1 9929   0.131   0.299   0.538
 3328TIP3    H2 9930   0.231   0.226   0.452
 3329TIP3   OH2 9931   4.150   0.808   5.480
 3329TIP3    H1 9932   4.061   0.775   5.499
 3329TIP3    H2 9933   4.207   0.734   5.500
 3330TIP3   OH2 9934   7.334   3.445   3.040
 3330TIP3    H1 9935   7.367   3.470   2.954
 3330TIP3    H2 9936   7.410   3.409   3.086
 3331TIP3   OH2 9937   1.009   4.628   3.128
 3331TIP3    H1 9938   0.952   4.703   3.146
 3331TIP3    H2 9939   1.026   4.634   3.034
 3332TIP3   OH2 9940   1.824   1.711   5.795
 3332TIP3    H1 9941   1.872   1.673   5.868
 3332TIP3    H2 9942   1.837   1.805   5.804
 3333TIP3   OH2 9943   5.384   2.488   6.607
 3333TIP3    H1 9944   5.395   2.403   6.564
 3333TIP3    H2 9945   5.454   2.491   6.673
 3334TIP3   OH2 9946   4.424   4.734   2.856
 3334TIP3    H1 9947   4.397   4.644   2.843
 3334TIP3    H2 9948   4.424   4.746   2.951
 3335TIP3   OH2 9949   0.299   6.007   0.730
 3335TIP3    H1 9950   0.366   6.052   0.782
 3335TIP3    H2 9951   0.331   5.917   0.724
 3336TIP3   OH2 9952   3.171   6.867   1.161
 3336TIP3    H1 9953   3.241   6.838   1.103
 3336TIP3    H2 9954   3.136   6.946   1.120
 3337TIP3   OH2 9955   3.993   0.868   4.926
 3337TIP3    H1 9956   4.053   0.902   4.859
 3337TIP3    H2 9957   4.044   0.867   5.006
 3338TIP3   OH2 9958   5.070   3.072   3.425
 3338TIP3    H1 9959   5.058   3.138   3.492
 3338TIP3    H2 9960   5.087   3.122   3.345
 3339TIP3   OH2 9961   5.509   0.817   5.336
 3339TIP3    H1 9962   5.431   0.849   5.289
 3339TIP3    H2 9963   5.485   0.729   5.365
 3340TIP3   OH2 9964   2.836   6.242   3.295
 3340TIP3    H1 9965   2.796   6.328   3.288
 3340TIP3    H2 9966   2.791   6.200   3.369
 3341TIP3   OH2 9967   4.130   2.788   5.921
 3341TIP3    H1 9968   4.160   2.876   5.898
 3341TIP3    H2 9969   4.092   2.797   6.008
 3342TIP3   OH2 9970   2.355   5.083   1.759
 3342TIP3    H1 9971   2.352   5.177   1.779
 3342TIP3    H2 9972   2.313   5.076   1.673
 3343TIP3   OH2 9973   5.792   5.620   6.378
 3343TIP3    H1 9974   5.761   5.648   6.464
 3343TIP3    H2 9975   5.768   5.692   6.320
 3344TIP3   OH2 9976   2.915   7.407   2.956
 3344TIP3    H1 9977   2.996   7.375   2.916
 3344TIP3    H2 9978   2.875   7.462   2.889
 3345TIP3   OH2 9979   1.572   7.804   6.674
 3345TIP3    H1 9980   1.558   7.712   6.698
 3345TIP3    H2 9981   1.624   7.839   6.746
 3346TIP3   OH2 9982   4.347   5.877   5.013
 3346TIP3    H1 9983   4.380   5.859   4.926
 3346TIP3    H2 9984   4.423   5.913   5.060
 3347TIP3   OH2 9985   4.117   6.965   1.706
 3347TIP3    H1 9986   4.026   6.942   1.723
 3347TIP3    H2 9987   4.140   6.918   1.626
 3348TIP3   OH2 9988   4.530   3.423   4.261
 3348TIP3    H1 9989   4.528   3.332   4.232
 3348TIP3    H2 9990   4.559   3.418   4.352
 3349TIP3   OH2 9991   3.695   5.617   1.335
 3349TIP3    H1 9992   3.701   5.685   1.402
 3349TIP3    H2 9993   3.660   5.662   1.259
 3350TIP3   OH2 9994   7.252   6.810   3.010
 3350TIP3    H1 9995   7.329   6.759   3.035
 3350TIP3    H2 9996   7.210   6.758   2.942
 3351TIP3   OH2 9997   8.032   7.666   5.389
 3351TIP3    H1 9998   7.942   7.666   5.422
 3351TIP3    H2 9999   8.030   7.609   5.312
 3352TIP3   OH210000   6.731   2.876   4.088
 3352TIP3    H110001   6.800   2.814   4.064
 3352TIP3    H210002   6.680   2.830   4.155
 3353TIP3   OH210003   5.827   4.431   4.641
 3353TIP3    H110004   5.855   4.416   4.731
 3353TIP3    H210005   5.804   4.524   4.638
 3354TIP3   OH210006   6.278   7.116   0.162
 3354TIP3    H110007   6.284   7.190   0.222
 3354TIP3    H210008   6.208   7.141   0.101
 3355TIP3   OH210009   4.146   4.069   6.578
 3355TIP3    H110010   4.099   4.060   6.661
 3355TIP3    H210011   4.198   4.149   6.589
 3356TIP3   OH210012   4.717   5.930   0.126
 3356TIP3    H110013   4.752   5.949   0.213
 3356TIP3    H210014   4.757   5.847   0.101
 3357TIP3   OH210015   7.079   1.776   2.464
 3357TIP3    H110016   7.080   1.683   2.483
 3357TIP3    H210017   7.103   1.818   2.546
 3358TIP3   OH210018   7.355   5.676   1.831
 3358TIP3    H110019   7.396   5.658   1.915
 3358TIP3    H210020   7.400   5.617   1.770
 3359TIP3   OH210021   2.663   6.289   5.499
 3359TIP3    H110022   2.677   6.314   5.407
 3359TIP3    H210023   2.576   6.322   5.520
 3360TIP3   OH210024   6.523   5.283   3.744
 3360TIP3    H110025   6.521   5.199   3.698
 3360TIP3    H210026   6.573   5.266   3.824
 3361TIP3   OH210027   2.645   1.448   1.731
 3361TIP3    H110028   2.624   1.531   1.774
 3361TIP3    H210029   2.679   1.473   1.645
 3362TIP3   OH210030   0.021   2.991   3.167
 3362TIP3    H110031  -0.036   3.058   3.204
 3362TIP3    H210032   0.077   3.039   3.105
 3363TIP3   OH210033   4.645   3.517   2.803
 3363TIP3    H110034   4.714   3.513   2.870
 3363TIP3    H210035   4.629   3.426   2.780
 3364TIP3   OH210036   7.586   4.678   5.518
 3364TIP3    H110037   7.575   4.625   5.597
 3364TIP3    H210038   7.511   4.655   5.463
 3365TIP3   OH210039   0.610   7.329   5.844
 3365TIP3    H110040   0.517   7.350   5.844
 3365TIP3    H210041   0.653   7.407   5.880
 3366TIP3   OH210042   4.918   7.299   6.544
 3366TIP3    H110043   4.875   7.220   6.579
 3366TIP3    H210044   4.970   7.332   6.618
 3367TIP3   OH210045   1.860   5.556   2.223
 3367TIP3    H110046   1.779   5.600   2.251
 3367TIP3    H210047   1.857   5.559   2.127
 3368TIP3   OH210048   5.732   0.596   3.677
 3368TIP3    H110049   5.723   0.598   3.772
 3368TIP3    H210050   5.706   0.684   3.648
 3369TIP3   OH210051   7.003   5.715   4.218
 3369TIP3    H110052   7.010   5.756   4.133
 3369TIP3    H210053   7.041   5.778   4.279
 3370TIP3   OH210054   2.138   6.616   4.561
 3370TIP3    H110055   2.073   6.686   4.555
 3370TIP3    H210056   2.096   6.540   4.522
 3371TIP3   OH210057   4.117   4.516   2.463
 3371TIP3    H110058   4.180   4.507   2.535
 3371TIP3    H210059   4.169   4.553   2.391
 3372TIP3   OH210060   3.655   6.555   5.379
 3372TIP3    H110061   3.749   6.537   5.392
 3372TIP3    H210062   3.641   6.640   5.420
 3373TIP3   OH210063   5.799   3.695   1.099
 3373TIP3    H110064   5.752   3.615   1.072
 3373TIP3    H210065   5.749   3.766   1.058
 3374TIP3   OH210066   7.925   5.432   5.764
 3374TIP3    H110067   7.993   5.495   5.739
 3374TIP3    H210068   7.937   5.421   5.858
 3375TIP3   OH210069   6.901   3.409   4.880
 3375TIP3    H110070   6.861   3.465   4.813
 3375TIP3    H210071   6.987   3.447   4.895
 3376TIP3   OH210072   6.531   2.427   3.266
 3376TIP3    H110073   6.456   2.404   3.211
 3376TIP3    H210074   6.509   2.513   3.302
 3377TIP3   OH210075   2.465   0.698   3.801
 3377TIP3    H110076   2.456   0.790   3.827
 3377TIP3    H210077   2.478   0.702   3.706
 3378TIP3   OH210078   6.369   7.319   1.612
 3378TIP3    H110079   6.391   7.246   1.553
 3378TIP3    H210080   6.383   7.397   1.558
 3379TIP3   OH210081   1.576   1.043   6.647
 3379TIP3    H110082   1.516   1.055   6.720
 3379TIP3    H210083   1.606   0.953   6.655
 3380TIP3   OH210084   3.969   4.594   2.018
 3380TIP3    H110085   3.987   4.515   2.069
 3380TIP3    H210086   3.971   4.665   2.083
 3381TIP3   OH210087   2.590   5.664   2.149
 3381TIP3    H110088   2.537   5.717   2.090
 3381TIP3    H210089   2.619   5.725   2.217
 3382TIP3   OH210090   2.915   1.297   3.628
 3382TIP3    H110091   2.971   1.363   3.667
 3382TIP3    H210092   2.976   1.229   3.597
 3383TIP3   OH210093   1.192   3.820   0.295
 3383TIP3    H110094   1.111   3.825   0.245
 3383TIP3    H210095   1.262   3.831   0.230
 3384TIP3   OH210096   4.052   1.896   3.651
 3384TIP3    H110097   4.086   1.908   3.740
 3384TIP3    H210098   4.068   1.980   3.608
 3385TIP3   OH210099   3.222   7.163   3.696
 3385TIP3    H110100   3.274   7.222   3.751
 3385TIP3    H210101   3.139   7.155   3.742
 3386TIP3   OH210102   5.265   2.636   0.121
 3386TIP3    H110103   5.185   2.666   0.163
 3386TIP3    H210104   5.242   2.624   0.029
 3387TIP3   OH210105   2.150   0.181   0.089
 3387TIP3    H110106   2.213   0.195   0.160
 3387TIP3    H210107   2.080   0.129   0.129
 3388TIP3   OH210108   0.865   4.258   4.554
 3388TIP3    H110109   0.869   4.263   4.458
 3388TIP3    H210110   0.775   4.232   4.573
 3389TIP3   OH210111   2.922   5.164   3.881
 3389TIP3    H110112   2.901   5.257   3.872
 3389TIP3    H210113   2.981   5.160   3.957
 3390TIP3   OH210114   2.171   6.881   0.852
 3390TIP3    H110115   2.204   6.966   0.883
 3390TIP3    H210116   2.146   6.896   0.761
 3391TIP3   OH210117   0.662   4.730   6.307
 3391TIP3    H110118   0.594   4.696   6.366
 3391TIP3    H210119   0.738   4.743   6.364
 3392TIP3   OH210120   0.615   1.039   5.319
 3392TIP3    H110121   0.651   1.112   5.270
 3392TIP3    H210122   0.679   1.023   5.389
 3393TIP3   OH210123   4.855   6.132   0.337
 3393TIP3    H110124   4.900   6.214   0.316
 3393TIP3    H210125   4.762   6.153   0.328
 3394TIP3   OH210126   0.001   4.774   2.116
 3394TIP3    H110127   0.067   4.841   2.130
 3394TIP3    H210128   0.039   4.694   2.153
 3395TIP3   OH210129   3.188   5.717   2.026
 3395TIP3    H110130   3.163   5.791   2.080
 3395TIP3    H210131   3.138   5.643   2.061
 3396TIP3   OH210132   1.794   0.767   3.866
 3396TIP3    H110133   1.717   0.714   3.885
 3396TIP3    H210134   1.863   0.704   3.849
 3397TIP3   OH210135   0.461   6.441   1.492
 3397TIP3    H110136   0.422   6.462   1.407
 3397TIP3    H210137   0.553   6.464   1.482
 3398TIP3   OH210138   4.060   2.994   4.160
 3398TIP3    H110139   4.116   3.070   4.172
 3398TIP3    H210140   4.030   2.971   4.248
 3399TIP3   OH210141   1.616   5.975   1.579
 3399TIP3    H110142   1.603   6.062   1.617
 3399TIP3    H210143   1.550   5.970   1.510
 3400TIP3   OH210144   5.859   4.523   3.844
 3400TIP3    H110145   5.779   4.470   3.845
 3400TIP3    H210146   5.854   4.571   3.761
 3401TIP3   OH210147   3.205   1.236   1.070
 3401TIP3    H110148   3.120   1.275   1.047
 3401TIP3    H210149   3.182   1.151   1.107
 3402TIP3   OH210150   3.739   0.013   4.368
 3402TIP3    H110151   3.720   0.065   4.290
 3402TIP3    H210152   3.820   0.050   4.403
 3403TIP3   OH210153   3.329   1.388   6.543
 3403TIP3    H110154   3.424   1.398   6.552
 3403TIP3    H210155   3.317   1.351   6.456
 3404TIP3   OH210156   8.034   2.221   2.951
 3404TIP3    H110157   7.988   2.162   2.892
 3404TIP3    H210158   8.120   2.180   2.965
 3405TIP3   OH210159   7.917   4.529   2.662
 3405TIP3    H110160   7.856   4.532   2.735
 3405TIP3    H210161   7.936   4.435   2.650
 3406TIP3   OH210162   1.896   2.717   0.889
 3406TIP3    H110163   1.820   2.671   0.924
 3406TIP3    H210164   1.949   2.738   0.965
 3407TIP3   OH210165   7.929   1.358   0.884
 3407TIP3    H110166   7.977   1.280   0.910
 3407TIP3    H210167   7.961   1.377   0.795
 3408TIP3   OH210168   2.112   3.767   1.016
 3408TIP3    H110169   2.178   3.805   0.959
 3408TIP3    H210170   2.140   3.676   1.029
 3409TIP3   OH210171   5.489   1.376   5.924
 3409TIP3    H110172   5.530   1.462   5.926
 3409TIP3    H210173   5.481   1.351   6.016
 3410TIP3   OH210174   2.867   1.280   5.335
 3410TIP3    H110175   2.930   1.286   5.264
 3410TIP3    H210176   2.822   1.196   5.320
 3411TIP3   OH210177   6.336   6.012   2.785
 3411TIP3    H110178   6.352   6.068   2.710
 3411TIP3    H210179   6.367   5.925   2.757
 3412TIP3   OH210180   7.058   3.455   0.660
 3412TIP3    H110181   6.992   3.391   0.686
 3412TIP3    H210182   7.047   3.463   0.565
 3413TIP3   OH210183   4.690   6.144   5.817
 3413TIP3    H110184   4.612   6.193   5.842
 3413TIP3    H210185   4.709   6.088   5.893
 3414TIP3   OH210186   6.055   5.170   1.588
 3414TIP3    H110187   6.053   5.115   1.667
 3414TIP3    H210188   6.148   5.187   1.573
 3415TIP3   OH210189   7.999   4.814   1.009
 3415TIP3    H110190   8.064   4.743   1.004
 3415TIP3    H210191   7.962   4.807   1.097
 3416TIP3   OH210192   8.235   1.725   3.311
 3416TIP3    H110193   8.161   1.782   3.332
 3416TIP3    H210194   8.209   1.680   3.231
 3417TIP3   OH210195   3.564   5.048   4.876
 3417TIP3    H110196   3.657   5.060   4.894
 3417TIP3    H210197   3.561   5.011   4.788
 3418TIP3   OH210198   7.807   2.929   2.891
 3418TIP3    H110199   7.786   2.840   2.920
 3418TIP3    H210200   7.780   2.985   2.963
 3419TIP3   OH210201   4.951   6.856   5.618
 3419TIP3    H110202   5.027   6.853   5.561
 3419TIP3    H210203   4.951   6.945   5.655
 3420TIP3   OH210204   7.574   0.755   0.479
 3420TIP3    H110205   7.570   0.751   0.384
 3420TIP3    H210206   7.570   0.849   0.499
 3421TIP3   OH210207   5.103   7.486   1.098
 3421TIP3    H110208   5.083   7.428   1.171
 3421TIP3    H210209   5.082   7.574   1.131
 3422TIP3   OH210210   6.404   0.066   3.898
 3422TIP3    H110211   6.493   0.053   3.863
 3422TIP3    H210212   6.416   0.068   3.993
 3423TIP3   OH210213   5.052   6.580   0.663
 3423TIP3    H110214   5.128   6.520   0.663
 3423TIP3    H210215   5.091   6.667   0.655
 3424TIP3   OH210216   2.041   5.783   0.106
 3424TIP3    H110217   2.042   5.851   0.173
 3424TIP3    H210218   1.976   5.720   0.137
 3425TIP3   OH210219   2.293   3.582   1.545
 3425TIP3    H110220   2.371   3.592   1.491
 3425TIP3    H210221   2.323   3.535   1.623
 3426TIP3   OH210222   6.310   2.914   1.034
 3426TIP3    H110223   6.329   2.821   1.041
 3426TIP3    H210224   6.228   2.918   0.984
 3427TIP3   OH210225   5.882   1.184   2.560
 3427TIP3    H110226   5.815   1.136   2.511
 3427TIP3    H210227   5.834   1.228   2.630
 3428TIP3   OH210228   5.502   0.553   1.943
 3428TIP3    H110229   5.564   0.511   2.004
 3428TIP3    H210230   5.551   0.561   1.861
 3429TIP3   OH210231   0.816   6.943   4.547
 3429TIP3    H110232   0.831   6.850   4.531
 3429TIP3    H210233   0.730   6.960   4.510
 3430TIP3   OH210234   1.992   2.591   4.662
 3430TIP3    H110235   1.982   2.657   4.594
 3430TIP3    H210236   2.037   2.636   4.734
 3431TIP3   OH210237   3.450   6.965   1.747
 3431TIP3    H110238   3.482   6.961   1.657
 3431TIP3    H210239   3.412   6.878   1.762
 3432TIP3   OH210240   1.066   3.682   4.725
 3432TIP3    H110241   1.073   3.664   4.631
 3432TIP3    H210242   1.104   3.770   4.736
 3433TIP3   OH210243   1.990   7.527   6.085
 3433TIP3    H110244   1.955   7.514   6.173
 3433TIP3    H210245   1.965   7.617   6.062
 3434TIP3   OH210246   0.528   4.988   5.296
 3434TIP3    H110247   0.462   4.920   5.282
 3434TIP3    H210248   0.575   4.993   5.212
 3435TIP3   OH210249   4.181   3.654   4.617
 3435TIP3    H110250   4.268   3.696   4.621
 3435TIP3    H210251   4.129   3.703   4.681
 3436TIP3   OH210252   3.549   3.117   0.510
 3436TIP3    H110253   3.635   3.116   0.467
 3436TIP3    H210254   3.492   3.068   0.450
 3437TIP3   OH210255   5.998   5.122   4.705
 3437TIP3    H110256   6.042   5.066   4.769
 3437TIP3    H210257   5.965   5.196   4.757
 3438TIP3   OH210258   8.193   0.752   5.782
 3438TIP3    H110259   8.124   0.688   5.770
 3438TIP3    H210260   8.213   0.783   5.693
 3439TIP3   OH210261   4.320   7.798   6.621
 3439TIP3    H110262   4.282   7.876   6.580
 3439TIP3    H210263   4.404   7.786   6.578
 3440TIP3   OH210264   7.676   4.951   6.077
 3440TIP3    H110265   7.679   4.974   5.984
 3440TIP3    H210266   7.727   5.020   6.119
 3441TIP3   OH210267   6.305   5.502   0.061
 3441TIP3    H110268   6.319   5.429   0.122
 3441TIP3    H210269   6.210   5.508   0.051
 3442TIP3   OH210270   1.036   7.517   1.282
 3442TIP3    H110271   0.999   7.482   1.363
 3442TIP3    H210272   1.121   7.552   1.308
 3443TIP3   OH210273   2.699   0.803   0.354
 3443TIP3    H110274   2.637   0.744   0.398
 3443TIP3    H210275   2.644   0.868   0.311
 3444TIP3   OH210276   6.269   6.709   0.743
 3444TIP3    H110277   6.229   6.772   0.803
 3444TIP3    H210278   6.198   6.687   0.682
 3445TIP3   OH210279   1.555   6.137   5.156
 3445TIP3    H110280   1.532   6.201   5.224
 3445TIP3    H210281   1.625   6.085   5.195
 3446TIP3   OH210282   7.353   4.319   1.730
 3446TIP3    H110283   7.317   4.238   1.767
 3446TIP3    H210284   7.297   4.388   1.765
 3447TIP3   OH210285   7.779   6.123   4.270
 3447TIP3    H110286   7.719   6.064   4.223
 3447TIP3    H210287   7.739   6.133   4.356
 3448TIP3   OH210288   6.145   3.037   5.164
 3448TIP3    H110289   6.070   3.007   5.113
 3448TIP3    H210290   6.160   2.967   5.228
 3449TIP3   OH210291   3.694   6.380   1.990
 3449TIP3    H110292   3.640   6.308   1.957
 3449TIP3    H210293   3.632   6.451   2.007
 3450TIP3   OH210294   6.436   4.448   0.084
 3450TIP3    H110295   6.510   4.399   0.119
 3450TIP3    H210296   6.361   4.390   0.097
 3451TIP3   OH210297   2.631   1.191   2.511
 3451TIP3    H110298   2.587   1.225   2.433
 3451TIP3    H210299   2.640   1.097   2.494
 3452TIP3   OH210300   5.131   2.652   2.745
 3452TIP3    H110301   5.098   2.703   2.819
 3452TIP3    H210302   5.105   2.703   2.668
 3453TIP3   OH210303   2.433   3.746   0.081
 3453TIP3    H110304   2.379   3.674   0.048
 3453TIP3    H210305   2.395   3.767   0.166
 3454TIP3   OH210306   6.480   7.366   5.939
 3454TIP3    H110307   6.458   7.456   5.917
 3454TIP3    H210308   6.557   7.346   5.886
 3455TIP3   OH210309   6.949   6.150   0.711
 3455TIP3    H110310   6.913   6.237   0.694
 3455TIP3    H210311   6.922   6.130   0.801
 3456TIP3   OH210312   1.640   4.520   5.275
 3456TIP3    H110313   1.685   4.602   5.260
 3456TIP3    H210314   1.675   4.489   5.359
 3457TIP3   OH210315   0.950   5.597   5.241
 3457TIP3    H110316   1.031   5.549   5.226
 3457TIP3    H210317   0.881   5.532   5.224
 3458TIP3   OH210318   4.944   4.270   1.045
 3458TIP3    H110319   4.880   4.280   1.116
 3458TIP3    H210320   4.932   4.181   1.014
 3459TIP3   OH210321   6.699   6.876   0.777
 3459TIP3    H110322   6.750   6.948   0.815
 3459TIP3    H210323   6.609   6.908   0.776
 3460TIP3   OH210324   2.950   7.285   5.637
 3460TIP3    H110325   2.974   7.195   5.660
 3460TIP3    H210326   2.995   7.302   5.555
 3461TIP3   OH210327   7.522   4.851   0.986
 3461TIP3    H110328   7.447   4.902   1.018
 3461TIP3    H210329   7.488   4.806   0.909
 3462TIP3   OH210330   6.286   7.306   4.912
 3462TIP3    H110331   6.327   7.376   4.961
 3462TIP3    H210332   6.354   7.239   4.905
 3463TIP3   OH210333   7.672   0.165   6.641
 3463TIP3    H110334   7.585   0.169   6.603
 3463TIP3    H210335   7.660   0.193   6.732
 3464TIP3   OH210336   3.351   1.814   3.616
 3464TIP3    H110337   3.344   1.882   3.549
 3464TIP3    H210338   3.429   1.763   3.589
 3465TIP3   OH210339   3.227   2.060   3.111
 3465TIP3    H110340   3.172   2.026   3.182
 3465TIP3    H210341   3.203   2.008   3.034
 3466TIP3   OH210342   2.470   5.451   1.434
 3466TIP3    H110343   2.476   5.494   1.349
 3466TIP3    H210344   2.526   5.502   1.492
 3467TIP3   OH210345   7.299   2.041   1.910
 3467TIP3    H110346   7.302   1.946   1.917
 3467TIP3    H210347   7.261   2.070   1.994
 3468TIP3   OH210348   0.889   5.422   5.671
 3468TIP3    H110349   0.958   5.387   5.614
 3468TIP3    H210350   0.912   5.514   5.681
 3469TIP3   OH210351   0.384   1.941   2.144
 3469TIP3    H110352   0.358   1.889   2.220
 3469TIP3    H210353   0.334   2.022   2.152
 3470TIP3   OH210354   6.776   6.637   5.078
 3470TIP3    H110355   6.694   6.588   5.088
 3470TIP3    H210356   6.817   6.633   5.164
 3471TIP3   OH210357   5.686   6.010   4.354
 3471TIP3    H110358   5.610   6.012   4.295
 3471TIP3    H210359   5.653   6.048   4.435
 3472TIP3   OH210360   6.696   0.766   0.289
 3472TIP3    H110361   6.602   0.750   0.281
 3472TIP3    H210362   6.703   0.862   0.296
 3473TIP3   OH210363   7.466   4.245   6.089
 3473TIP3    H110364   7.550   4.246   6.042
 3473TIP3    H210365   7.403   4.277   6.025
 3474TIP3   OH210366   3.448   7.319   3.385
 3474TIP3    H110367   3.516   7.386   3.374
 3474TIP3    H210368   3.470   7.274   3.466
 3475TIP3   OH210369   2.860   7.228   2.495
 3475TIP3    H110370   2.950   7.200   2.480
 3475TIP3    H210371   2.865   7.324   2.495
 3476TIP3   OH210372   7.414   3.866   5.172
 3476TIP3    H110373   7.465   3.845   5.094
 3476TIP3    H210374   7.379   3.782   5.202
 3477TIP3   OH210375   7.644   7.785   0.804
 3477TIP3    H110376   7.738   7.791   0.821
 3477TIP3    H210377   7.636   7.806   0.711
 3478TIP3   OH210378   8.182   2.065   1.579
 3478TIP3    H110379   8.227   1.982   1.592
 3478TIP3    H210380   8.143   2.085   1.664
 3479TIP3   OH210381   2.939   5.418   1.787
 3479TIP3    H110382   2.889   5.442   1.710
 3479TIP3    H210383   2.886   5.448   1.861
 3480TIP3   OH210384   1.649   2.146   3.314
 3480TIP3    H110385   1.655   2.064   3.363
 3480TIP3    H210386   1.660   2.120   3.222
 3481TIP3   OH210387   1.229   1.560   1.869
 3481TIP3    H110388   1.175   1.604   1.935
 3481TIP3    H210389   1.314   1.602   1.876
 3482TIP3   OH210390   6.486   0.437   5.110
 3482TIP3    H110391   6.447   0.524   5.116
 3482TIP3    H210392   6.580   0.454   5.100
 3483TIP3   OH210393   0.835   4.076   1.739
 3483TIP3    H110394   0.833   4.025   1.820
 3483TIP3    H210395   0.776   4.029   1.680
 3484TIP3   OH210396   3.224   5.932   2.777
 3484TIP3    H110397   3.169   5.936   2.699
 3484TIP3    H210398   3.192   5.856   2.825
 3485TIP3   OH210399   5.987   1.048   6.470
 3485TIP3    H110400   6.043   1.001   6.408
 3485TIP3    H210401   5.979   0.990   6.545
 3486TIP3   OH210402   5.836   6.657   5.730
 3486TIP3    H110403   5.812   6.745   5.759
 3486TIP3    H210404   5.755   6.621   5.694
 3487TIP3   OH210405   2.983   2.258   3.288
 3487TIP3    H110406   3.015   2.169   3.274
 3487TIP3    H210407   3.048   2.298   3.345
 3488TIP3   OH210408   1.420   7.744   6.264
 3488TIP3    H110409   1.371   7.791   6.331
 3488TIP3    H210410   1.460   7.813   6.211
 3489TIP3   OH210411   3.637   0.097   5.013
 3489TIP3    H110412   3.690   0.050   5.078
 3489TIP3    H210413   3.670   0.065   4.928
 3490TIP3   OH210414   4.361   1.196   6.676
 3490TIP3    H110415   4.334   1.185   6.767
 3490TIP3    H210416   4.286   1.238   6.634
 3491TIP3   OH210417   6.960   4.823   3.304
 3491TIP3    H110418   6.957   4.812   3.209
 3491TIP3    H210419   6.901   4.896   3.322
 3492TIP3   OH210420   0.369   6.535   3.788
 3492TIP3    H110421   0.396   6.444   3.771
 3492TIP3    H210422   0.300   6.527   3.854
 3493TIP3   OH210423   1.820   4.833   2.962
 3493TIP3    H110424   1.771   4.873   3.035
 3493TIP3    H210425   1.909   4.867   2.971
 3494TIP3   OH210426   1.293   7.486   2.946
 3494TIP3    H110427   1.215   7.521   2.989
 3494TIP3    H210428   1.259   7.421   2.884
 3495TIP3   OH210429   7.160   5.746   3.800
 3495TIP3    H110430   7.071   5.763   3.831
 3495TIP3    H210431   7.189   5.829   3.763
 3496TIP3   OH210432   8.153   1.396   2.502
 3496TIP3    H110433   8.097   1.323   2.473
 3496TIP3    H210434   8.096   1.448   2.558
 3497TIP3   OH210435   5.856   0.637   2.028
 3497TIP3    H110436   5.945   0.609   2.004
 3497TIP3    H210437   5.811   0.556   2.052
 3498TIP3   OH210438   4.189   5.277   2.475
 3498TIP3    H110439   4.127   5.211   2.508
 3498TIP3    H210440   4.275   5.237   2.486
 3499TIP3   OH210441   2.275   2.868   0.291
 3499TIP3    H110442   2.269   2.838   0.382
 3499TIP3    H210443   2.335   2.806   0.249
 3500TIP3   OH210444   0.130   6.158   1.404
 3500TIP3    H110445   0.143   6.227   1.470
 3500TIP3    H210446   0.093   6.085   1.454
 3501TIP3   OH210447   5.950   2.955   2.136
 3501TIP3    H110448   6.015   2.903   2.088
 3501TIP3    H210449   5.894   2.891   2.178
 3502TIP3   OH210450   7.766   2.034   0.612
 3502TIP3    H110451   7.859   2.014   0.599
 3502TIP3    H210452   7.756   2.037   0.707
 3503TIP3   OH210453   3.374   7.488   1.076
 3503TIP3    H110454   3.450   7.507   1.022
 3503TIP3    H210455   3.308   7.552   1.048
 3504TIP3   OH210456   3.892   6.251   1.640
 3504TIP3    H110457   3.972   6.209   1.673
 3504TIP3    H210458   3.920   6.303   1.565
 3505TIP3   OH210459   5.697   6.765   2.933
 3505TIP3    H110460   5.653   6.766   3.019
 3505TIP3    H210461   5.728   6.675   2.923
 3506TIP3   OH210462   7.933   3.060   0.857
 3506TIP3    H110463   7.986   3.053   0.778
 3506TIP3    H210464   7.995   3.051   0.929
 3507TIP3   OH210465   6.799   7.350   4.220
 3507TIP3    H110466   6.837   7.411   4.283
 3507TIP3    H210467   6.704   7.357   4.234
 3508TIP3   OH210468   3.162   6.613   1.264
 3508TIP3    H110469   3.254   6.588   1.255
 3508TIP3    H210470   3.162   6.709   1.254
 3509TIP3   OH210471   0.991   6.830   2.989
 3509TIP3    H110472   0.977   6.823   3.084
 3509TIP3    H210473   0.955   6.917   2.967
 3510TIP3   OH210474   3.227   4.607   3.221
 3510TIP3    H110475   3.153   4.546   3.223
 3510TIP3    H210476   3.197   4.679   3.165
 3511TIP3   OH210477   7.855   7.280   0.134
 3511TIP3    H110478   7.875   7.348   0.070
 3511TIP3    H210479   7.792   7.321   0.193
 3512TIP3   OH210480   8.030   5.038   4.225
 3512TIP3    H110481   8.062   5.018   4.313
 3512TIP3    H210482   7.941   5.070   4.239
 3513TIP3   OH210483   8.154   6.703   3.852
 3513TIP3    H110484   8.208   6.681   3.929
 3513TIP3    H210485   8.117   6.619   3.825
 3514TIP3   OH210486   0.146   3.089   3.820
 3514TIP3    H110487   0.200   3.094   3.741
 3514TIP3    H210488   0.146   3.179   3.854
 3515TIP3   OH210489   5.794   2.668   5.728
 3515TIP3    H110490   5.889   2.656   5.717
 3515TIP3    H210491   5.763   2.584   5.763
 3516TIP3   OH210492   3.996   6.111   0.351
 3516TIP3    H110493   4.036   6.063   0.278
 3516TIP3    H210494   4.064   6.112   0.419
 3517TIP3   OH210495   4.892   5.042   1.092
 3517TIP3    H110496   4.934   5.071   1.011
 3517TIP3    H210497   4.963   5.038   1.156
 3518TIP3   OH210498   5.736   1.207   5.948
 3518TIP3    H110499   5.712   1.296   5.924
 3518TIP3    H210500   5.826   1.196   5.918
 3519TIP3   OH210501   1.471   0.174   6.284
 3519TIP3    H110502   1.382   0.153   6.313
 3519TIP3    H210503   1.522   0.095   6.302
 3520TIP3   OH210504   1.936   7.649   3.004
 3520TIP3    H110505   1.876   7.605   2.943
 3520TIP3    H210506   2.005   7.584   3.020
 3521TIP3   OH210507   3.835   7.410   2.167
 3521TIP3    H110508   3.753   7.398   2.215
 3521TIP3    H210509   3.835   7.503   2.144
 3522TIP3   OH210510   1.153   0.892   3.985
 3522TIP3    H110511   1.082   0.851   4.035
 3522TIP3    H210512   1.118   0.902   3.897
 3523TIP3   OH210513   3.205   7.140   5.820
 3523TIP3    H110514   3.125   7.089   5.807
 3523TIP3    H210515   3.262   7.081   5.870
 3524TIP3   OH210516   3.590   5.445   5.289
 3524TIP3    H110517   3.500   5.429   5.318
 3524TIP3    H210518   3.621   5.359   5.260
 3525TIP3   OH210519   1.052   1.798   0.547
 3525TIP3    H110520   1.136   1.840   0.525
 3525TIP3    H210521   0.989   1.870   0.547
 3526TIP3   OH210522   3.047   0.748   3.415
 3526TIP3    H110523   3.105   0.824   3.418
 3526TIP3    H210524   3.107   0.673   3.409
 3527TIP3   OH210525   5.777   1.208   3.372
 3527TIP3    H110526   5.816   1.198   3.285
 3527TIP3    H210527   5.827   1.147   3.427
 3528TIP3   OH210528   1.767   2.860   1.950
 3528TIP3    H110529   1.764   2.803   1.873
 3528TIP3    H210530   1.806   2.806   2.018
 3529TIP3   OH210531   0.044   7.664   5.114
 3529TIP3    H110532   0.125   7.624   5.145
 3529TIP3    H210533  -0.007   7.591   5.078
 3530TIP3   OH210534   3.207   3.775   4.933
 3530TIP3    H110535   3.234   3.734   4.851
 3530TIP3    H210536   3.117   3.746   4.946
 3531TIP3   OH210537   5.787   0.334   1.414
 3531TIP3    H110538   5.750   0.247   1.429
 3531TIP3    H210539   5.881   0.318   1.402
 3532TIP3   OH210540   5.513   5.747   2.649
 3532TIP3    H110541   5.451   5.774   2.581
 3532TIP3    H210542   5.599   5.773   2.614
 3533TIP3   OH210543   6.099   6.207   2.447
 3533TIP3    H110544   6.091   6.301   2.464
 3533TIP3    H210545   6.144   6.201   2.363
 3534TIP3   OH210546   1.070   2.811   0.075
 3534TIP3    H110547   1.140   2.859   0.032
 3534TIP3    H210548   0.990   2.843   0.033
 3535TIP3   OH210549   1.234   1.520   0.787
 3535TIP3    H110550   1.230   1.428   0.814
 3535TIP3    H210551   1.207   1.519   0.695
 3536TIP3   OH210552   0.496   0.092   6.564
 3536TIP3    H110553   0.431   0.156   6.591
 3536TIP3    H210554   0.570   0.106   6.624
 3537TIP3   OH210555   0.016   3.099   2.747
 3537TIP3    H110556   0.110   3.087   2.762
 3537TIP3    H210557  -0.011   3.161   2.815
 3538TIP3   OH210558   6.456   7.071   3.637
 3538TIP3    H110559   6.528   7.039   3.691
 3538TIP3    H210560   6.491   7.072   3.548
 3539TIP3   OH210561   5.603   5.668   2.284
 3539TIP3    H110562   5.533   5.732   2.295
 3539TIP3    H210563   5.565   5.585   2.314
 3540TIP3   OH210564   3.326   4.834   1.374
 3540TIP3    H110565   3.265   4.846   1.300
 3540TIP3    H210566   3.330   4.740   1.387
 3541TIP3   OH210567   5.407   0.761   4.758
 3541TIP3    H110568   5.423   0.696   4.690
 3541TIP3    H210569   5.491   0.807   4.768
 3542TIP3   OH210570   7.809   2.246   1.594
 3542TIP3    H110571   7.803   2.162   1.549
 3542TIP3    H210572   7.885   2.289   1.554
 3543TIP3   OH210573   2.894   0.442   1.819
 3543TIP3    H110574   2.929   0.481   1.739
 3543TIP3    H210575   2.961   0.379   1.846
 3544TIP3   OH210576   6.454   4.654   3.960
 3544TIP3    H110577   6.521   4.715   3.929
 3544TIP3    H210578   6.399   4.706   4.018
 3545TIP3   OH210579   0.152   3.530   6.660
 3545TIP3    H110580   0.110   3.445   6.650
 3545TIP3    H210581   0.218   3.532   6.590
 3546TIP3   OH210582   3.544   4.951   1.686
 3546TIP3    H110583   3.601   4.876   1.670
 3546TIP3    H210584   3.458   4.923   1.653
 3547TIP3   OH210585   6.317   5.483   3.826
 3547TIP3    H110586   6.232   5.441   3.815
 3547TIP3    H210587   6.300   5.557   3.884
 3548TIP3   OH210588   7.959   1.612   3.910
 3548TIP3    H110589   7.958   1.703   3.880
 3548TIP3    H210590   8.042   1.603   3.958
 3549TIP3   OH210591   6.231   6.536   2.951
 3549TIP3    H110592   6.203   6.569   2.865
 3549TIP3    H210593   6.324   6.557   2.955
 3550TIP3   OH210594   0.719   0.702   0.109
 3550TIP3    H110595   0.798   0.662   0.147
 3550TIP3    H210596   0.669   0.732   0.185
 3551TIP3   OH210597   6.123   0.712   6.077
 3551TIP3    H110598   6.045   0.731   6.128
 3551TIP3    H210599   6.090   0.685   5.992
 3552TIP3   OH210600   4.676   1.028   1.822
 3552TIP3    H110601   4.741   1.036   1.891
 3552TIP3    H210602   4.680   0.937   1.794
 3553TIP3   OH210603   7.482   5.557   1.352
 3553TIP3    H110604   7.388   5.539   1.343
 3553TIP3    H210605   7.495   5.570   1.446
 3554TIP3   OH210606   5.495   6.189   4.205
 3554TIP3    H110607   5.540   6.257   4.255
 3554TIP3    H210608   5.414   6.174   4.253
 3555TIP3   OH210609   1.964   0.119   0.343
 3555TIP3    H110610   1.921   0.162   0.416
 3555TIP3    H210611   2.046   0.085   0.380
 3556TIP3   OH210612   7.615   0.912   3.340
 3556TIP3    H110613   7.668   0.914   3.419
 3556TIP3    H210614   7.531   0.951   3.366
 3557TIP3   OH210615   3.184   4.594   0.399
 3557TIP3    H110616   3.259   4.632   0.352
 3557TIP3    H210617   3.208   4.600   0.492
 3558TIP3   OH210618   1.360   7.052   4.834
 3558TIP3    H110619   1.389   6.963   4.857
 3558TIP3    H210620   1.439   7.094   4.801
 3559TIP3   OH210621   5.970   6.006   5.507
 3559TIP3    H110622   5.934   5.996   5.595
 3559TIP3    H210623   6.013   5.922   5.490
 3560TIP3   OH210624   1.158   0.039   4.886
 3560TIP3    H110625   1.120   0.086   4.812
 3560TIP3    H210626   1.167  -0.052   4.856
 3561TIP3   OH210627   7.755   1.238   4.529
 3561TIP3    H110628   7.827   1.298   4.509
 3561TIP3    H210629   7.789   1.184   4.601
 3562TIP3   OH210630   8.246   3.313   6.734
 3562TIP3    H110631   8.172   3.279   6.684
 3562TIP3    H210632   8.246   3.263   6.815
 3563TIP3   OH210633   0.452   6.153   2.375
 3563TIP3    H110634   0.383   6.178   2.436
 3563TIP3    H210635   0.491   6.074   2.412
 3564TIP3   OH210636   4.687   4.243   1.856
 3564TIP3    H110637   4.655   4.210   1.772
 3564TIP3    H210638   4.745   4.175   1.888
 3565TIP3   OH210639   2.755   5.380   3.935
 3565TIP3    H110640   2.666   5.357   3.962
 3565TIP3    H210641   2.791   5.428   4.009
 3566TIP3   OH210642   6.654   4.948   4.365
 3566TIP3    H110643   6.634   4.855   4.370
 3566TIP3    H210644   6.749   4.952   4.358
 3567TIP3   OH210645   6.982   7.075   6.418
 3567TIP3    H110646   6.904   7.025   6.395
 3567TIP3    H210647   7.034   7.078   6.338
 3568TIP3   OH210648   0.603   0.536   2.376
 3568TIP3    H110649   0.552   0.526   2.296
 3568TIP3    H210650   0.541   0.568   2.441
 3569TIP3   OH210651   3.935   6.172   4.481
 3569TIP3    H110652   3.935   6.153   4.575
 3569TIP3    H210653   3.842   6.176   4.458
 3570TIP3   OH210654   7.277   2.798   4.052
 3570TIP3    H110655   7.209   2.831   4.109
 3570TIP3    H210656   7.286   2.706   4.077
 3571TIP3   OH210657   0.400   0.923   4.283
 3571TIP3    H110658   0.321   0.876   4.308
 3571TIP3    H210659   0.371   1.013   4.268
 3572TIP3   OH210660   2.328   5.944   0.979
 3572TIP3    H110661   2.343   5.886   1.053
 3572TIP3    H210662   2.261   5.900   0.926
 3573TIP3   OH210663   0.941   6.969   5.060
 3573TIP3    H110664   1.012   6.997   5.117
 3573TIP3    H210665   0.863   6.972   5.115
 3574TIP3   OH210666   3.866   3.731   5.062
 3574TIP3    H110667   3.833   3.645   5.036
 3574TIP3    H210668   3.825   3.792   5.001
 3575TIP3   OH210669   3.963   1.290   6.427
 3575TIP3    H110670   4.010   1.233   6.367
 3575TIP3    H210671   3.871   1.272   6.409
 3576TIP3   OH210672   5.703   0.153   5.040
 3576TIP3    H110673   5.750   0.167   5.122
 3576TIP3    H210674   5.760   0.096   4.989
 3577TIP3   OH210675   6.976   4.310   5.800
 3577TIP3    H110676   7.045   4.270   5.748
 3577TIP3    H210677   6.894   4.276   5.763
 3578TIP3   OH210678   2.679   7.755   2.319
 3578TIP3    H110679   2.679   7.774   2.225
 3578TIP3    H210680   2.608   7.693   2.331
 3579TIP3   OH210681   6.687   7.310   4.681
 3579TIP3    H110682   6.686   7.215   4.691
 3579TIP3    H210683   6.645   7.343   4.760
 3580TIP3   OH210684   6.658   1.693   0.158
 3580TIP3    H110685   6.636   1.750   0.231
 3580TIP3    H210686   6.592   1.711   0.091
 3581TIP3   OH210687   6.768   2.389   5.556
 3581TIP3    H110688   6.761   2.350   5.469
 3581TIP3    H210689   6.827   2.464   5.544
 3582TIP3   OH210690   0.131   2.713   2.152
 3582TIP3    H110691   0.164   2.802   2.158
 3582TIP3    H210692   0.092   2.696   2.239
 3583TIP3   OH210693   7.591   0.103   3.178
 3583TIP3    H110694   7.677   0.104   3.137
 3583TIP3    H210695   7.534   0.146   3.115
 3584TIP3   OH210696   4.243   6.243   3.637
 3584TIP3    H110697   4.198   6.160   3.619
 3584TIP3    H210698   4.173   6.308   3.640
 3585TIP3   OH210699   6.433   2.634   4.491
 3585TIP3    H110700   6.367   2.703   4.504
 3585TIP3    H210701   6.386   2.552   4.505
 3586TIP3   OH210702   3.298   5.204   3.758
 3586TIP3    H110703   3.391   5.184   3.773
 3586TIP3    H210704   3.267   5.133   3.702
 3587TIP3   OH210705   1.911   3.829   3.792
 3587TIP3    H110706   1.977   3.807   3.858
 3587TIP3    H210707   1.841   3.873   3.842
 3588TIP3   OH210708   3.127   4.853   5.979
 3588TIP3    H110709   3.153   4.789   6.045
 3588TIP3    H210710   3.097   4.929   6.029
 3589TIP3   OH210711   6.181   7.022   3.603
 3589TIP3    H110712   6.276   7.024   3.611
 3589TIP3    H210713   6.156   6.932   3.622
 3590TIP3   OH210714   1.380   5.477   3.167
 3590TIP3    H110715   1.412   5.516   3.248
 3590TIP3    H210716   1.362   5.386   3.189
 3591TIP3   OH210717   6.754   6.367   3.649
 3591TIP3    H110718   6.666   6.358   3.687
 3591TIP3    H210719   6.798   6.432   3.704
 3592TIP3   OH210720   1.843   3.947   4.642
 3592TIP3    H110721   1.763   3.896   4.630
 3592TIP3    H210722   1.904   3.912   4.577
 3593TIP3   OH210723   7.359   4.474   3.990
 3593TIP3    H110724   7.281   4.420   3.976
 3593TIP3    H210725   7.362   4.488   4.085
 3594TIP3   OH210726   5.505   6.863   4.914
 3594TIP3    H110727   5.595   6.840   4.894
 3594TIP3    H210728   5.458   6.857   4.831
 3595TIP3   OH210729   5.581   0.756   2.283
 3595TIP3    H110730   5.557   0.697   2.355
 3595TIP3    H210731   5.672   0.733   2.263
 3596TIP3   OH210732   0.247   6.041   0.396
 3596TIP3    H110733   0.189   6.098   0.448
 3596TIP3    H210734   0.192   5.966   0.373
 3597TIP3   OH210735   5.581   3.888   0.825
 3597TIP3    H110736   5.564   3.808   0.775
 3597TIP3    H210737   5.496   3.915   0.858
 3598TIP3   OH210738   5.286   4.506   5.119
 3598TIP3    H110739   5.332   4.469   5.194
 3598TIP3    H210740   5.267   4.596   5.145
 3599TIP3   OH210741   0.157   7.228   1.973
 3599TIP3    H110742   0.142   7.229   1.879
 3599TIP3    H210743   0.099   7.160   2.007
 3600TIP3   OH210744   7.774   0.700   6.439
 3600TIP3    H110745   7.702   0.738   6.390
 3600TIP3    H210746   7.749   0.608   6.451
 3601TIP3   OH210747   8.213   0.055   0.639
 3601TIP3    H110748   8.206   0.133   0.583
 3601TIP3    H210749   8.162  -0.012   0.593
 3602TIP3   OH210750   4.716   7.207   5.283
 3602TIP3    H110751   4.799   7.247   5.310
 3602TIP3    H210752   4.679   7.270   5.221
 3603TIP3   OH210753   5.716   2.998   5.310
 3603TIP3    H110754   5.715   2.948   5.392
 3603TIP3    H210755   5.732   3.088   5.338
 3604TIP3   OH210756   0.917   5.207   6.207
 3604TIP3    H110757   0.924   5.120   6.168
 3604TIP3    H210758   0.932   5.192   6.300
 3605TIP3   OH210759   5.901   6.152   4.744
 3605TIP3    H110760   5.937   6.108   4.667
 3605TIP3    H210761   5.820   6.193   4.712
 3606TIP3   OH210762   6.757   4.663   4.921
 3606TIP3    H110763   6.757   4.607   4.998
 3606TIP3    H210764   6.848   4.690   4.910
 3607TIP3   OH210765   2.746   2.356   2.441
 3607TIP3    H110766   2.685   2.313   2.380
 3607TIP3    H210767   2.830   2.353   2.396
 3608TIP3   OH210768   4.351   4.683   6.312
 3608TIP3    H110769   4.293   4.612   6.287
 3608TIP3    H210770   4.412   4.691   6.239
 3609TIP3   OH210771   7.209   6.590   0.827
 3609TIP3    H110772   7.245   6.615   0.742
 3609TIP3    H210773   7.282   6.602   0.888
 3610TIP3   OH210774   8.212   0.639   2.392
 3610TIP3    H110775   8.189   0.727   2.422
 3610TIP3    H210776   8.291   0.652   2.339
 3611TIP3   OH210777   0.748   3.077   5.670
 3611TIP3    H110778   0.731   2.983   5.679
 3611TIP3    H210779   0.832   3.090   5.714
 3612TIP3   OH210780   5.096   2.429   4.961
 3612TIP3    H110781   5.002   2.423   4.946
 3612TIP3    H210782   5.109   2.394   5.049
 3613TIP3   OH210783   2.613   4.350   3.859
 3613TIP3    H110784   2.536   4.378   3.810
 3613TIP3    H210785   2.581   4.333   3.948
 3614TIP3   OH210786   3.310   6.814   3.572
 3614TIP3    H110787   3.306   6.909   3.583
 3614TIP3    H210788   3.310   6.780   3.662
 3615TIP3   OH210789   4.643   2.141   0.534
 3615TIP3    H110790   4.703   2.118   0.463
 3615TIP3    H210791   4.615   2.058   0.570
 3616TIP3   OH210792   0.664   2.899   5.331
 3616TIP3    H110793   0.576   2.861   5.326
 3616TIP3    H210794   0.722   2.828   5.301
 3617TIP3   OH210795   1.400   3.936   1.538
 3617TIP3    H110796   1.335   3.877   1.576
 3617TIP3    H210797   1.411   3.904   1.448
 3618TIP3   OH210798   2.768   2.830   5.710
 3618TIP3    H110799   2.696   2.767   5.715
 3618TIP3    H210800   2.847   2.778   5.722
 3619TIP3   OH210801   0.429   1.743   6.319
 3619TIP3    H110802   0.354   1.700   6.278
 3619TIP3    H210803   0.432   1.705   6.407
 3620TIP3   OH210804   6.310   4.962   6.561
 3620TIP3    H110805   6.301   5.029   6.629
 3620TIP3    H210806   6.228   4.965   6.513
 3621TIP3   OH210807   3.269   7.232   4.693
 3621TIP3    H110808   3.273   7.139   4.672
 3621TIP3    H210809   3.196   7.265   4.639
 3622TIP3   OH210810   6.156   2.794   6.752
 3622TIP3    H110811   6.191   2.867   6.701
 3622TIP3    H210812   6.222   2.779   6.820
 3623TIP3   OH210813   1.004   2.843   1.329
 3623TIP3    H110814   0.975   2.785   1.399
 3623TIP3    H210815   0.970   2.929   1.355
 3624TIP3   OH210816   5.240   3.349   5.546
 3624TIP3    H110817   5.277   3.425   5.501
 3624TIP3    H210818   5.147   3.370   5.556
 3625TIP3   OH210819   2.594   5.622   4.110
 3625TIP3    H110820   2.660   5.667   4.163
 3625TIP3    H210821   2.510   5.652   4.146
 3626TIP3   OH210822   7.746   7.269   5.232
 3626TIP3    H110823   7.825   7.221   5.208
 3626TIP3    H210824   7.680   7.201   5.246
 3627TIP3   OH210825   2.946   3.345   1.054
 3627TIP3    H110826   2.906   3.432   1.062
 3627TIP3    H210827   3.016   3.344   1.120
 3628TIP3   OH210828   4.942   2.507   0.648
 3628TIP3    H110829   5.027   2.552   0.654
 3628TIP3    H210830   4.937   2.477   0.557
 3629TIP3   OH210831   1.789   6.440   3.035
 3629TIP3    H110832   1.873   6.406   3.066
 3629TIP3    H210833   1.800   6.448   2.940
 3630TIP3   OH210834   0.497   4.741   6.086
 3630TIP3    H110835   0.537   4.737   6.172
 3630TIP3    H210836   0.422   4.799   6.097
 3631TIP3   OH210837   7.365   6.790   3.383
 3631TIP3    H110838   7.427   6.802   3.454
 3631TIP3    H210839   7.283   6.825   3.416
 3632TIP3   OH210840   5.849   5.902   1.103
 3632TIP3    H110841   5.903   5.865   1.033
 3632TIP3    H210842   5.862   5.842   1.177
 3633TIP3   OH210843   4.335   2.858   4.213
 3633TIP3    H110844   4.346   2.904   4.296
 3633TIP3    H210845   4.419   2.869   4.167
 3634TIP3   OH210846   7.954   0.039   2.357
 3634TIP3    H110847   7.957  -0.039   2.301
 3634TIP3    H210848   7.896   0.099   2.310
 3635TIP3   OH210849   0.807   0.299   6.430
 3635TIP3    H110850   0.837   0.370   6.486
 3635TIP3    H210851   0.803   0.223   6.489
 3636TIP3   OH210852   2.138   1.587   5.080
 3636TIP3    H110853   2.132   1.494   5.103
 3636TIP3    H210854   2.130   1.633   5.163
 3637TIP3   OH210855   3.248   5.943  -0.011
 3637TIP3    H110856   3.264   6.037  -0.008
 3637TIP3    H210857   3.248   5.916   0.081
 3638TIP3   OH210858   8.245   5.772   6.059
 3638TIP3    H110859   8.315   5.722   6.018
 3638TIP3    H210860   8.260   5.862   6.030
 3639TIP3   OH210861   3.157   5.333   0.759
 3639TIP3    H110862   3.140   5.280   0.837
 3639TIP3    H210863   3.080   5.321   0.704
 3640TIP3   OH210864   0.129   4.134   4.749
 3640TIP3    H110865   0.165   4.222   4.741
 3640TIP3    H210866   0.133   4.098   4.661
 3641TIP3   OH210867   4.990   5.948   4.252
 3641TIP3    H110868   4.986   5.964   4.157
 3641TIP3    H210869   5.066   5.890   4.263
 3642TIP3   OH210870   3.798   6.344   2.911
 3642TIP3    H110871   3.791   6.423   2.964
 3642TIP3    H210872   3.890   6.342   2.883
 3643TIP3   OH210873   5.892   3.324   0.078
 3643TIP3    H110874   5.965   3.384   0.089
 3643TIP3    H210875   5.882   3.314  -0.017
 3644TIP3   OH210876   1.673   1.369   6.504
 3644TIP3    H110877   1.585   1.368   6.466
 3644TIP3    H210878   1.660   1.351   6.597
 3645TIP3   OH210879   5.010   5.104   3.635
 3645TIP3    H110880   4.923   5.107   3.597
 3645TIP3    H210881   5.020   5.014   3.665
 3646TIP3   OH210882   2.723   0.297   5.502
 3646TIP3    H110883   2.739   0.203   5.488
 3646TIP3    H210884   2.663   0.299   5.576
 3647TIP3   OH210885   6.097   5.048   1.855
 3647TIP3    H110886   6.154   4.981   1.892
 3647TIP3    H210887   6.009   5.020   1.879
 3648TIP3   OH210888   0.799   3.308   0.036
 3648TIP3    H110889   0.875   3.268  -0.004
 3648TIP3    H210890   0.726   3.250   0.015
 3649TIP3   OH210891   7.882   3.284   6.379
 3649TIP3    H110892   7.825   3.353   6.413
 3649TIP3    H210893   7.965   3.296   6.424
 3650TIP3   OH210894   1.383   2.080   2.441
 3650TIP3    H110895   1.296   2.117   2.457
 3650TIP3    H210896   1.389   2.006   2.501
 3651TIP3   OH210897   3.969   7.531   1.163
 3651TIP3    H110898   3.971   7.450   1.112
 3651TIP3    H210899   4.019   7.511   1.242
 3652TIP3   OH210900   4.537   5.787   3.604
 3652TIP3    H110901   4.493   5.872   3.609
 3652TIP3    H210902   4.468   5.725   3.581
 3653TIP3   OH210903   7.641   4.973   2.822
 3653TIP3    H110904   7.627   4.897   2.879
 3653TIP3    H210905   7.685   5.037   2.878
 3654TIP3   OH210906   6.096   7.003   5.202
 3654TIP3    H110907   6.190   7.007   5.187
 3654TIP3    H210908   6.087   6.959   5.286
 3655TIP3   OH210909   7.722   6.897   1.753
 3655TIP3    H110910   7.728   6.938   1.667
 3655TIP3    H210911   7.808   6.911   1.792
 3656TIP3   OH210912   4.757   2.805   0.508
 3656TIP3    H110913   4.783   2.891   0.475
 3656TIP3    H210914   4.737   2.754   0.429
 3657TIP3   OH210915   3.054   2.639   3.038
 3657TIP3    H110916   2.986   2.636   2.971
 3657TIP3    H210917   3.006   2.644   3.121
 3658TIP3   OH210918   7.805   2.344   3.041
 3658TIP3    H110919   7.777   2.376   2.956
 3658TIP3    H210920   7.884   2.293   3.023
 3659TIP3   OH210921   2.112   6.255   0.601
 3659TIP3    H110922   2.186   6.308   0.571
 3659TIP3    H210923   2.037   6.288   0.551
 3660TIP3   OH210924   1.163   5.433   5.074
 3660TIP3    H110925   1.187   5.521   5.044
 3660TIP3    H210926   1.245   5.384   5.073
 3661TIP3   OH210927   2.645   4.119   5.995
 3661TIP3    H110928   2.711   4.163   6.050
 3661TIP3    H210929   2.690   4.103   5.912
 3662TIP3   OH210930   5.867   0.466   0.622
 3662TIP3    H110931   5.835   0.521   0.694
 3662TIP3    H210932   5.901   0.388   0.665
 3663TIP3   OH210933   2.267   4.454   4.780
 3663TIP3    H110934   2.252   4.490   4.867
 3663TIP3    H210935   2.226   4.517   4.721
 3664TIP3   OH210936   3.772   7.602   1.939
 3664TIP3    H110937   3.857   7.585   1.898
 3664TIP3    H210938   3.721   7.644   1.870
 3665TIP3   OH210939   5.708   0.102   5.453
 3665TIP3    H110940   5.731   0.050   5.530
 3665TIP3    H210941   5.767   0.071   5.385
 3666TIP3   OH210942   3.418   2.305   0.036
 3666TIP3    H110943   3.353   2.246  -0.004
 3666TIP3    H210944   3.447   2.258   0.114
 3667TIP3   OH210945   1.212   2.919   2.658
 3667TIP3    H110946   1.203   2.960   2.744
 3667TIP3    H210947   1.199   2.991   2.596
 3668TIP3   OH210948   7.528   7.546   0.836
 3668TIP3    H110949   7.576   7.629   0.837
 3668TIP3    H210950   7.569   7.494   0.905
 3669TIP3   OH210951   5.918   6.429   5.343
 3669TIP3    H110952   5.921   6.503   5.283
 3669TIP3    H210953   6.008   6.399   5.350
 3670TIP3   OH210954   5.534   5.617   3.702
 3670TIP3    H110955   5.618   5.638   3.661
 3670TIP3    H210956   5.520   5.524   3.681
 3671TIP3   OH210957   7.228   1.247   0.140
 3671TIP3    H110958   7.291   1.311   0.173
 3671TIP3    H210959   7.174   1.225   0.216
 3672TIP3   OH210960   1.110   0.906   0.476
 3672TIP3    H110961   1.176   0.936   0.538
 3672TIP3    H210962   1.145   0.931   0.390
 3673TIP3   OH210963   3.069   6.008   5.490
 3673TIP3    H110964   3.017   6.081   5.524
 3673TIP3    H210965   3.159   6.039   5.495
 3674TIP3   OH210966   4.620   4.812   5.142
 3674TIP3    H110967   4.596   4.834   5.232
 3674TIP3    H210968   4.669   4.730   5.151
 3675TIP3   OH210969   2.110   1.124   6.413
 3675TIP3    H110970   2.196   1.082   6.403
 3675TIP3    H210971   2.048   1.059   6.381
 3676TIP3   OH210972   6.510   0.684   0.958
 3676TIP3    H110973   6.579   0.742   0.926
 3676TIP3    H210974   6.449   0.676   0.885
 3677TIP3   OH210975   0.554   5.050   0.049
 3677TIP3    H110976   0.580   5.106  -0.024
 3677TIP3    H210977   0.629   5.052   0.109
 3678TIP3   OH210978   4.140   0.369   6.176
 3678TIP3    H110979   4.213   0.430   6.178
 3678TIP3    H210980   4.118   0.354   6.268
 3679TIP3   OH210981   6.258   5.126   2.893
 3679TIP3    H110982   6.297   5.200   2.846
 3679TIP3    H210983   6.180   5.104   2.842
 3680TIP3   OH210984   0.213   1.404   5.455
 3680TIP3    H110985   0.234   1.368   5.542
 3680TIP3    H210986   0.123   1.434   5.463
 3681TIP3   OH210987   0.628   1.697   4.860
 3681TIP3    H110988   0.553   1.642   4.834
 3681TIP3    H210989   0.674   1.645   4.926
 3682TIP3   OH210990   6.940   3.825   4.451
 3682TIP3    H110991   6.845   3.817   4.444
 3682TIP3    H210992   6.955   3.847   4.543
 3683TIP3   OH210993   6.416   1.933   5.241
 3683TIP3    H110994   6.442   2.025   5.240
 3683TIP3    H210995   6.323   1.935   5.267
 3684TIP3   OH210996   5.503   5.319   5.403
 3684TIP3    H110997   5.535   5.403   5.437
 3684TIP3    H210998   5.545   5.254   5.460
 3685TIP3   OH210999   2.591   6.986   3.400
 3685TIP3    H111000   2.535   7.041   3.455
 3685TIP3    H211001   2.678   7.024   3.410
 3686TIP3   OH211002   6.773   1.851   1.063
 3686TIP3    H111003   6.729   1.934   1.047
 3686TIP3    H211004   6.701   1.789   1.079
 3687TIP3   OH211005   1.407   3.451   1.599
 3687TIP3    H111006   1.379   3.421   1.685
 3687TIP3    H211007   1.367   3.389   1.538
 3688TIP3   OH211008   3.810   5.120   1.394
 3688TIP3    H111009   3.845   5.205   1.367
 3688TIP3    H211010   3.732   5.108   1.339
 3689TIP3   OH211011   4.832   4.803   5.669
 3689TIP3    H111012   4.856   4.785   5.578
 3689TIP3    H211013   4.737   4.801   5.670
 3690TIP3   OH211014   3.245   6.528   5.687
 3690TIP3    H111015   3.168   6.556   5.736
 3690TIP3    H211016   3.319   6.574   5.728
 3691TIP3   OH211017   3.132   0.992   2.344
 3691TIP3    H111018   3.188   1.042   2.286
 3691TIP3    H211019   3.067   0.951   2.287
 3692TIP3   OH211020   1.165   7.415   4.590
 3692TIP3    H111021   1.103   7.358   4.635
 3692TIP3    H211022   1.237   7.426   4.651
 3693TIP3   OH211023   0.589   6.333   3.297
 3693TIP3    H111024   0.671   6.362   3.337
 3693TIP3    H211025   0.615   6.263   3.237
 3694TIP3   OH211026   0.046   4.777   3.973
 3694TIP3    H111027   0.100   4.806   4.046
 3694TIP3    H211028  -0.023   4.844   3.966
 3695TIP3   OH211029   5.759   3.000   3.496
 3695TIP3    H111030   5.727   3.065   3.434
 3695TIP3    H211031   5.694   3.002   3.567
 3696TIP3   OH211032   4.876   2.242   5.762
 3696TIP3    H111033   4.912   2.307   5.822
 3696TIP3    H211034   4.814   2.192   5.814
 3697TIP3   OH211035   6.125   1.285   6.479
 3697TIP3    H111036   6.207   1.240   6.496
 3697TIP3    H211037   6.064   1.217   6.452
 3698TIP3   OH211038   4.203   7.692   3.560
 3698TIP3    H111039   4.253   7.636   3.620
 3698TIP3    H211040   4.267   7.721   3.495
 3699TIP3   OH211041   7.109   4.095   2.533
 3699TIP3    H111042   7.058   4.163   2.489
 3699TIP3    H211043   7.123   4.130   2.621
 3700TIP3   OH211044   1.472   1.376   6.708
 3700TIP3    H111045   1.435   1.360   6.622
 3700TIP3    H211046   1.444   1.465   6.730
 3701TIP3   OH211047   4.887   1.530   1.803
 3701TIP3    H111048   4.933   1.451   1.777
 3701TIP3    H211049   4.831   1.551   1.728
 3702TIP3   OH211050   7.673   0.068   2.735
 3702TIP3    H111051   7.681   0.034   2.824
 3702TIP3    H211052   7.627   0.152   2.746
 3703TIP3   OH211053   7.547   1.640   4.883
 3703TIP3    H111054   7.585   1.598   4.806
 3703TIP3    H211055   7.597   1.605   4.957
 3704TIP3   OH211056   2.165   1.210   1.165
 3704TIP3    H111057   2.200   1.151   1.232
 3704TIP3    H211058   2.077   1.233   1.196
 3705TIP3   OH211059   3.560   2.531   0.558
 3705TIP3    H111060   3.545   2.506   0.649
 3705TIP3    H211061   3.606   2.456   0.520
 3706TIP3   OH211062   7.300   0.392   6.299
 3706TIP3    H111063   7.209   0.361   6.300
 3706TIP3    H211064   7.301   0.462   6.234
 3707TIP3   OH211065   6.659   3.371   6.582
 3707TIP3    H111066   6.594   3.440   6.572
 3707TIP3    H211067   6.608   3.290   6.580
 3708TIP3   OH211068   4.544   6.915   0.238
 3708TIP3    H111069   4.469   6.857   0.246
 3708TIP3    H211070   4.516   6.997   0.278
 3709TIP3   OH211071   2.602   3.352   6.631
 3709TIP3    H111072   2.554   3.296   6.693
 3709TIP3    H211073   2.687   3.367   6.673
 3710TIP3   OH211074   3.315   3.627   3.653
 3710TIP3    H111075   3.252   3.685   3.610
 3710TIP3    H211076   3.361   3.684   3.714
 3711TIP3   OH211077   7.873   1.095   0.350
 3711TIP3    H111078   7.860   1.189   0.359
 3711TIP3    H211079   7.849   1.059   0.435
 3712TIP3   OH211080   6.318   4.664   6.591
 3712TIP3    H111081   6.329   4.758   6.605
 3712TIP3    H211082   6.228   4.647   6.621
 3713TIP3   OH211083   4.581   0.963   5.595
 3713TIP3    H111084   4.552   1.045   5.634
 3713TIP3    H211085   4.525   0.952   5.518
 3714TIP3   OH211086   2.689   4.541   0.350
 3714TIP3    H111087   2.673   4.450   0.329
 3714TIP3    H211088   2.629   4.590   0.294
 3715TIP3   OH211089   3.447   7.793   2.735
 3715TIP3    H111090   3.498   7.802   2.655
 3715TIP3    H211091   3.488   7.721   2.782
 3716TIP3   OH211092   3.568   3.996   5.553
 3716TIP3    H111093   3.558   3.928   5.486
 3716TIP3    H211094   3.537   4.076   5.511
 3717TIP3   OH211095   3.938   0.776   2.339
 3717TIP3    H111096   3.909   0.848   2.283
 3717TIP3    H211097   3.856   0.738   2.372
 3718TIP3   OH211098   7.357   2.429   4.362
 3718TIP3    H111099   7.300   2.503   4.341
 3718TIP3    H211100   7.396   2.453   4.446
 3719TIP3   OH211101   6.446   2.770   5.222
 3719TIP3    H111102   6.404   2.729   5.297
 3719TIP3    H211103   6.533   2.793   5.253
 3720TIP3   OH211104   7.744   5.521   2.439
 3720TIP3    H111105   7.775   5.546   2.526
 3720TIP3    H211106   7.671   5.581   2.421
 3721TIP3   OH211107   4.598   3.030   2.585
 3721TIP3    H111108   4.533   3.099   2.580
 3721TIP3    H211109   4.563   2.960   2.530
 3722TIP3   OH211110   5.027   4.477   2.901
 3722TIP3    H111111   5.121   4.479   2.881
 3722TIP3    H211112   4.984   4.480   2.816
 3723TIP3   OH211113   0.051   3.001   1.138
 3723TIP3    H111114  -0.028   2.981   1.087
 3723TIP3    H211115   0.095   2.917   1.148
 3724TIP3   OH211116   5.336   6.885   5.695
 3724TIP3    H111117   5.290   6.955   5.743
 3724TIP3    H211118   5.282   6.870   5.618
 3725TIP3   OH211119   6.881   3.239   4.134
 3725TIP3    H111120   6.808   3.234   4.072
 3725TIP3    H211121   6.839   3.243   4.220
 3726TIP3   OH211122   1.425   6.867   2.472
 3726TIP3    H111123   1.394   6.854   2.561
 3726TIP3    H211124   1.371   6.938   2.437
 3727TIP3   OH211125   5.727   5.801   5.932
 3727TIP3    H111126   5.803   5.774   5.983
 3727TIP3    H211127   5.659   5.738   5.955
 3728TIP3   OH211128   3.651   5.855   3.390
 3728TIP3    H111129   3.636   5.931   3.445
 3728TIP3    H211130   3.746   5.843   3.391
 3729TIP3   OH211131   1.925   2.303   4.649
 3729TIP3    H111132   1.890   2.284   4.736
 3729TIP3    H211133   1.935   2.398   4.647
 3730TIP3   OH211134   6.440   6.183   0.838
 3730TIP3    H111135   6.520   6.142   0.869
 3730TIP3    H211136   6.402   6.119   0.778
 3731TIP3   OH211137   6.422   1.333   3.584
 3731TIP3    H111138   6.450   1.414   3.541
 3731TIP3    H211139   6.452   1.264   3.525
 3732TIP3   OH211140   4.934   2.426   1.108
 3732TIP3    H111141   4.874   2.501   1.118
 3732TIP3    H211142   4.989   2.429   1.186
 3733TIP3   OH211143   5.693   1.459   3.409
 3733TIP3    H111144   5.746   1.384   3.383
 3733TIP3    H211145   5.683   1.510   3.328
 3734TIP3   OH211146   0.589   4.843   4.704
 3734TIP3    H111147   0.546   4.912   4.654
 3734TIP3    H211148   0.542   4.763   4.680
 3735TIP3   OH211149   7.017   2.777   3.897
 3735TIP3    H111150   7.037   2.686   3.922
 3735TIP3    H211151   7.041   2.828   3.974
 3736TIP3   OH211152   5.385   0.138   4.810
 3736TIP3    H111153   5.371   0.127   4.904
 3736TIP3    H211154   5.433   0.059   4.784
 3737TIP3   OH211155   0.054   3.720   4.114
 3737TIP3    H111156  -0.019   3.686   4.061
 3737TIP3    H211157   0.133   3.691   4.068
 3738TIP3   OH211158   1.120   1.850   5.964
 3738TIP3    H111159   1.057   1.832   5.894
 3738TIP3    H211160   1.133   1.945   5.960
 3739TIP3   OH211161   1.933   1.119   2.403
 3739TIP3    H111162   1.937   1.044   2.461
 3739TIP3    H211163   1.973   1.089   2.321
 3740TIP3   OH211164   6.942   5.558   1.898
 3740TIP3    H111165   7.015   5.551   1.959
 3740TIP3    H211166   6.964   5.632   1.842
 3741TIP3   OH211167   1.371   2.540   5.071
 3741TIP3    H111168   1.396   2.631   5.056
 3741TIP3    H211169   1.452   2.496   5.095
 3742TIP3   OH211170   0.216   0.918   6.563
 3742TIP3    H111171   0.224   0.842   6.505
 3742TIP3    H211172   0.189   0.989   6.505
 3743TIP3   OH211173   4.520   1.207   1.125
 3743TIP3    H111174   4.584   1.147   1.087
 3743TIP3    H211175   4.489   1.161   1.204
 3744TIP3   OH211176   4.299   7.388   1.069
 3744TIP3    H111177   4.243   7.368   1.144
 3744TIP3    H211178   4.255   7.345   0.995
 3745TIP3   OH211179   4.393   5.768   2.259
 3745TIP3    H111180   4.488   5.778   2.261
 3745TIP3    H211181   4.362   5.844   2.209
 3746TIP3   OH211182   7.302   2.003   4.732
 3746TIP3    H111183   7.267   1.914   4.738
 3746TIP3    H211184   7.394   1.995   4.759
 3747TIP3   OH211185   4.708   0.604   5.572
 3747TIP3    H111186   4.642   0.640   5.632
 3747TIP3    H211187   4.681   0.513   5.559
 3748TIP3   OH211188   8.084   0.791   2.737
 3748TIP3    H111189   8.093   0.814   2.830
 3748TIP3    H211190   8.108   0.698   2.733
 3749TIP3   OH211191   2.631   3.271   3.325
 3749TIP3    H111192   2.653   3.249   3.234
 3749TIP3    H211193   2.712   3.308   3.360
 3750TIP3   OH211194   8.277   6.687   4.997
 3750TIP3    H111195   8.255   6.604   5.041
 3750TIP3    H211196   8.315   6.741   5.066
 3751TIP3   OH211197   6.134   2.373   5.162
 3751TIP3    H111198   6.043   2.396   5.178
 3751TIP3    H211199   6.177   2.457   5.146
 3752TIP3   OH211200   7.741   6.953   0.212
 3752TIP3    H111201   7.808   7.011   0.176
 3752TIP3    H211202   7.762   6.867   0.177
 3753TIP3   OH211203   1.482   0.399   0.084
 3753TIP3    H111204   1.436   0.328   0.128
 3753TIP3    H211205   1.531   0.357   0.013
 3754TIP3   OH211206   4.581   7.500   0.766
 3754TIP3    H111207   4.666   7.482   0.725
 3754TIP3    H211208   4.601   7.550   0.845
 3755TIP3   OH211209   6.481   0.137   0.043
 3755TIP3    H111210   6.490   0.230   0.064
 3755TIP3    H211211   6.397   0.131  -0.003
 3756TIP3   OH211212   6.096   1.629   0.691
 3756TIP3    H111213   6.093   1.675   0.606
 3756TIP3    H211214   6.045   1.685   0.750
 3757TIP3   OH211215   5.742   0.481   5.430
 3757TIP3    H111216   5.703   0.426   5.361
 3757TIP3    H211217   5.668   0.521   5.475
 3758TIP3   OH211218   4.144   5.986   3.624
 3758TIP3    H111219   4.163   5.951   3.537
 3758TIP3    H211220   4.179   5.921   3.684
 3759TIP3   OH211221   5.463   2.600   4.047
 3759TIP3    H111222   5.424   2.625   3.963
 3759TIP3    H211223   5.390   2.604   4.109
 3760TIP3   OH211224   8.296   7.565   2.630
 3760TIP3    H111225   8.245   7.525   2.560
 3760TIP3    H211226   8.280   7.509   2.706
 3761TIP3   OH211227   2.942   0.110   3.790
 3761TIP3    H111228   2.848   0.103   3.803
 3761TIP3    H211229   2.952   0.172   3.718
 3762TIP3   OH211230   5.159   1.184   2.685
 3762TIP3    H111231   5.169   1.108   2.742
 3762TIP3    H211232   5.122   1.251   2.742
 3763TIP3   OH211233   0.625   3.875   4.034
 3763TIP3    H111234   0.675   3.932   4.093
 3763TIP3    H211235   0.647   3.907   3.946
 3764TIP3   OH211236   0.162   0.734   4.317
 3764TIP3    H111237   0.230   0.671   4.292
 3764TIP3    H211238   0.146   0.716   4.410
 3765TIP3   OH211239   5.115   3.069   0.959
 3765TIP3    H111240   5.084   3.084   1.049
 3765TIP3    H211241   5.099   3.152   0.914
 3766TIP3   OH211242   1.663   7.597   2.176
 3766TIP3    H111243   1.592   7.562   2.122
 3766TIP3    H211244   1.651   7.554   2.261
 3767TIP3   OH211245   7.971   0.981   3.721
 3767TIP3    H111246   7.897   1.005   3.666
 3767TIP3    H211247   7.958   0.888   3.739
 3768TIP3   OH211248   1.395   1.514   3.815
 3768TIP3    H111249   1.375   1.451   3.884
 3768TIP3    H211250   1.375   1.468   3.733
 3769TIP3   OH211251   4.479   7.061   3.583
 3769TIP3    H111252   4.423   6.986   3.566
 3769TIP3    H211253   4.526   7.039   3.663
 3770TIP3   OH211254   7.932   0.258   0.880
 3770TIP3    H111255   7.882   0.200   0.937
 3770TIP3    H211256   7.877   0.271   0.803
 3771TIP3   OH211257   6.195   4.415   1.388
 3771TIP3    H111258   6.153   4.500   1.375
 3771TIP3    H211259   6.147   4.356   1.330
 3772TIP3   OH211260   7.950   0.061   3.293
 3772TIP3    H111261   7.930   0.082   3.202
 3772TIP3    H211262   7.989   0.141   3.328
 3773TIP3   OH211263   0.737   5.747   1.864
 3773TIP3    H111264   0.827   5.778   1.871
 3773TIP3    H211265   0.730   5.679   1.931
 3774TIP3   OH211266   5.691   6.397   6.434
 3774TIP3    H111267   5.720   6.478   6.476
 3774TIP3    H211268   5.650   6.425   6.352
 3775TIP3   OH211269   2.089   7.157   6.609
 3775TIP3    H111270   2.153   7.102   6.652
 3775TIP3    H211271   2.087   7.238   6.661
 3776TIP3   OH211272   7.506   5.134   0.004
 3776TIP3    H111273   7.580   5.109   0.058
 3776TIP3    H211274   7.446   5.060   0.008
 3777TIP3   OH211275   2.662   4.637   5.300
 3777TIP3    H111276   2.577   4.620   5.260
 3777TIP3    H211277   2.723   4.579   5.254
 3778TIP3   OH211278   5.127   5.853   2.873
 3778TIP3    H111279   5.180   5.930   2.891
 3778TIP3    H211280   5.145   5.832   2.781
 3779TIP3   OH211281   4.778   1.585   6.637
 3779TIP3    H111282   4.746   1.661   6.588
 3779TIP3    H211283   4.867   1.571   6.603
 3780TIP3   OH211284   6.574   4.905   6.520
 3780TIP3    H111285   6.480   4.924   6.525
 3780TIP3    H211286   6.615   4.992   6.518
 3781TIP3   OH211287   2.338   2.540   1.391
 3781TIP3    H111288   2.336   2.635   1.402
 3781TIP3    H211289   2.262   2.520   1.336
 3782TIP3   OH211290   2.060   2.776   2.811
 3782TIP3    H111291   2.049   2.685   2.781
 3782TIP3    H211292   1.980   2.794   2.860
 3783TIP3   OH211293   3.482   2.089   5.717
 3783TIP3    H111294   3.571   2.053   5.718
 3783TIP3    H211295   3.444   2.061   5.800
 3784TIP3   OH211296   2.490   2.089   3.510
 3784TIP3    H111297   2.569   2.142   3.516
 3784TIP3    H211298   2.440   2.128   3.438
 3785TIP3   OH211299   5.416   6.119   6.511
 3785TIP3    H111300   5.401   6.212   6.527
 3785TIP3    H211301   5.348   6.094   6.448
 3786TIP3   OH211302   5.552   0.977   3.023
 3786TIP3    H111303   5.633   0.944   3.061
 3786TIP3    H211304   5.492   0.903   3.028
 3787TIP3   OH211305   6.768   4.045   2.856
 3787TIP3    H111306   6.677   4.016   2.864
 3787TIP3    H211307   6.798   4.008   2.773
 3788TIP3   OH211308   5.788   1.038   2.152
 3788TIP3    H111309   5.828   1.011   2.235
 3788TIP3    H211310   5.782   1.133   2.157
 3789TIP3   OH211311   3.521   0.569   5.019
 3789TIP3    H111312   3.478   0.635   5.074
 3789TIP3    H211313   3.458   0.498   5.013
 3790TIP3   OH211314   5.627   5.752   2.014
 3790TIP3    H111315   5.609   5.704   2.095
 3790TIP3    H211316   5.618   5.844   2.038
 3791TIP3   OH211317   7.618   5.809   0.380
 3791TIP3    H111318   7.593   5.724   0.343
 3791TIP3    H211319   7.707   5.795   0.412
 3792TIP3   OH211320   4.102   5.673   0.137
 3792TIP3    H111321   4.158   5.597   0.125
 3792TIP3    H211322   4.076   5.670   0.229
 3793TIP3   OH211323   1.129   4.416   5.085
 3793TIP3    H111324   1.125   4.322   5.064
 3793TIP3    H211325   1.044   4.450   5.055
 3794TIP3   OH211326   5.793   4.381   2.325
 3794TIP3    H111327   5.719   4.414   2.275
 3794TIP3    H211328   5.796   4.287   2.305
 3795TIP3   OH211329   1.087   7.631   2.314
 3795TIP3    H111330   1.182   7.634   2.328
 3795TIP3    H211331   1.068   7.708   2.260
 3796TIP3   OH211332   0.468   4.581   2.195
 3796TIP3    H111333   0.518   4.515   2.243
 3796TIP3    H211334   0.395   4.603   2.253
 3797TIP3   OH211335   6.129   6.467   2.257
 3797TIP3    H111336   6.188   6.540   2.238
 3797TIP3    H211337   6.181   6.389   2.237
 3798TIP3   OH211338   1.162   0.485   5.750
 3798TIP3    H111339   1.168   0.392   5.773
 3798TIP3    H211340   1.189   0.488   5.658
 3799TIP3   OH211341   0.205   4.523   3.104
 3799TIP3    H111342   0.245   4.473   3.175
 3799TIP3    H211343   0.241   4.485   3.024
 3800TIP3   OH211344   4.811   3.569   0.989
 3800TIP3    H111345   4.797   3.559   0.895
 3800TIP3    H211346   4.748   3.509   1.029
 3801TIP3   OH211347   3.076   0.610   2.228
 3801TIP3    H111348   3.041   0.646   2.147
 3801TIP3    H211349   3.161   0.573   2.203
 3802TIP3   OH211350   3.873   7.034   4.927
 3802TIP3    H111351   3.810   7.081   4.872
 3802TIP3    H211352   3.822   7.007   5.004
 3803TIP3   OH211353   0.296   5.506   4.668
 3803TIP3    H111354   0.373   5.480   4.718
 3803TIP3    H211355   0.238   5.546   4.732
 3804TIP3   OH211356   1.698   3.127   2.389
 3804TIP3    H111357   1.633   3.080   2.441
 3804TIP3    H211358   1.770   3.145   2.449
 3805TIP3   OH211359   8.291   6.818   2.998
 3805TIP3    H111360   8.371   6.839   2.950
 3805TIP3    H211361   8.223   6.867   2.952
 3806TIP3   OH211362   1.411   4.630   2.997
 3806TIP3    H111363   1.450   4.660   3.079
 3806TIP3    H211364   1.444   4.691   2.931
 3807TIP3   OH211365   5.035   5.020   0.086
 3807TIP3    H111366   5.022   5.109   0.121
 3807TIP3    H211367   4.978   5.017   0.009
 3808TIP3   OH211368   7.414   3.170   6.512
 3808TIP3    H111369   7.424   3.265   6.518
 3808TIP3    H211370   7.491   3.141   6.463
 3809TIP3   OH211371   1.679   6.172   6.007
 3809TIP3    H111372   1.754   6.154   6.064
 3809TIP3    H211373   1.656   6.263   6.027
 3810TIP3   OH211374   3.506   3.722   1.668
 3810TIP3    H111375   3.439   3.754   1.608
 3810TIP3    H211376   3.476   3.635   1.694
 3811TIP3   OH211377   3.669   0.006   3.443
 3811TIP3    H111378   3.625  -0.053   3.503
 3811TIP3    H211379   3.737   0.049   3.495
 3812TIP3   OH211380   8.275   4.929   0.630
 3812TIP3    H111381   8.244   4.919   0.541
 3812TIP3    H211382   8.197   4.954   0.680
 3813TIP3   OH211383   5.742   3.699   5.137
 3813TIP3    H111384   5.691   3.766   5.091
 3813TIP3    H211385   5.708   3.700   5.226
 3814TIP3   OH211386   1.700   2.457   4.467
 3814TIP3    H111387   1.753   2.465   4.387
 3814TIP3    H211388   1.728   2.374   4.506
 3815TIP3   OH211389   7.061   0.593   2.288
 3815TIP3    H111390   6.975   0.559   2.314
 3815TIP3    H211391   7.096   0.631   2.368
 3816TIP3   OH211392   4.103   2.351   4.136
 3816TIP3    H111393   4.070   2.432   4.175
 3816TIP3    H211394   4.189   2.339   4.175
 3817TIP3   OH211395   7.968   7.184   3.320
 3817TIP3    H111396   8.029   7.238   3.371
 3817TIP3    H211397   8.010   7.099   3.315
 3818TIP3   OH211398   7.588   1.859   5.485
 3818TIP3    H111399   7.673   1.859   5.529
 3818TIP3    H211400   7.553   1.771   5.500
 3819TIP3   OH211401   4.775   0.624   2.477
 3819TIP3    H111402   4.702   0.616   2.415
 3819TIP3    H211403   4.748   0.571   2.552
 3820TIP3   OH211404   7.230   3.299   1.089
 3820TIP3    H111405   7.215   3.206   1.075
 3820TIP3    H211406   7.147   3.341   1.069
 3821TIP3   OH211407   0.663   4.695   0.055
 3821TIP3    H111408   0.607   4.627   0.092
 3821TIP3    H211409   0.721   4.720   0.127
 3822TIP3   OH211410   5.990   3.243   0.384
 3822TIP3    H111411   5.996   3.186   0.460
 3822TIP3    H211412   6.051   3.206   0.321
 3823TIP3   OH211413   1.514   3.253   0.821
 3823TIP3    H111414   1.600   3.226   0.854
 3823TIP3    H211415   1.504   3.343   0.854
 3824TIP3   OH211416   3.185   0.839   3.063
 3824TIP3    H111417   3.175   0.745   3.051
 3824TIP3    H211418   3.259   0.848   3.124
 3825TIP3   OH211419   4.429   2.028   1.574
 3825TIP3    H111420   4.515   2.069   1.574
 3825TIP3    H211421   4.368   2.099   1.557
 3826TIP3   OH211422   2.649   3.730   3.558
 3826TIP3    H111423   2.664   3.806   3.613
 3826TIP3    H211424   2.694   3.750   3.476
 3827TIP3   OH211425   8.006   5.496   6.343
 3827TIP3    H111426   8.089   5.481   6.389
 3827TIP3    H211427   8.022   5.572   6.288
 3828TIP3   OH211428   4.361   1.002   4.920
 3828TIP3    H111429   4.344   1.016   4.827
 3828TIP3    H211430   4.296   1.055   4.965
 3829TIP3   OH211431   6.907   6.762   6.164
 3829TIP3    H111432   6.911   6.787   6.256
 3829TIP3    H211433   6.867   6.675   6.165
 3830TIP3   OH211434   3.101   6.807   5.085
 3830TIP3    H111435   3.015   6.781   5.051
 3830TIP3    H211436   3.156   6.730   5.070
 3831TIP3   OH211437   5.142   1.868   4.430
 3831TIP3    H111438   5.120   1.826   4.347
 3831TIP3    H211439   5.077   1.834   4.492
 3832TIP3   OH211440   5.367   4.088   5.183
 3832TIP3    H111441   5.366   4.153   5.113
 3832TIP3    H211442   5.352   4.139   5.263
 3833TIP3   OH211443   5.680   0.096   2.768
 3833TIP3    H111444   5.644   0.013   2.739
 3833TIP3    H211445   5.764   0.103   2.722
 3834TIP3   OH211446   6.096   7.096   2.236
 3834TIP3    H111447   6.146   7.128   2.311
 3834TIP3    H211448   6.014   7.064   2.274
 3835TIP3   OH211449   5.956   7.087   1.277
 3835TIP3    H111450   5.923   7.171   1.246
 3835TIP3    H211451   6.042   7.107   1.313
 3836TIP3   OH211452   5.195   2.321   3.625
 3836TIP3    H111453   5.277   2.330   3.673
 3836TIP3    H211454   5.128   2.348   3.687
 3837TIP3   OH211455   2.856   6.174   0.406
 3837TIP3    H111456   2.762   6.160   0.409
 3837TIP3    H211457   2.878   6.167   0.313
 3838TIP3   OH211458   4.629   7.687   0.396
 3838TIP3    H111459   4.645   7.778   0.371
 3838TIP3    H211460   4.714   7.644   0.384
 3839TIP3   OH211461   7.855   5.257   0.893
 3839TIP3    H111462   7.786   5.206   0.936
 3839TIP3    H211463   7.832   5.255   0.800
 3840TIP3   OH211464   7.490   7.630   3.478
 3840TIP3    H111465   7.455   7.546   3.449
 3840TIP3    H211466   7.434   7.695   3.435
 3841TIP3   OH211467   7.963   7.425   0.826
 3841TIP3    H111468   7.956   7.345   0.877
 3841TIP3    H211469   7.894   7.417   0.759
 3842TIP3   OH211470   7.562   5.129   0.676
 3842TIP3    H111471   7.557   5.184   0.755
 3842TIP3    H211472   7.642   5.079   0.687
 3843TIP3   OH211473   7.432   4.181   1.477
 3843TIP3    H111474   7.509   4.145   1.521
 3843TIP3    H211475   7.425   4.271   1.508
 3844TIP3   OH211476   5.793   5.095   3.994
 3844TIP3    H111477   5.811   5.172   3.940
 3844TIP3    H211478   5.875   5.045   3.993
 3845TIP3   OH211479   0.587   5.374   0.826
 3845TIP3    H111480   0.509   5.369   0.771
 3845TIP3    H211481   0.608   5.283   0.846
 3846TIP3   OH211482   3.808   4.432   0.947
 3846TIP3    H111483   3.853   4.352   0.972
 3846TIP3    H211484   3.877   4.489   0.914
 3847TIP3   OH211485   3.091   5.279   4.754
 3847TIP3    H111486   3.016   5.232   4.793
 3847TIP3    H211487   3.072   5.282   4.661
 3848TIP3   OH211488   2.313   6.756   5.256
 3848TIP3    H111489   2.285   6.805   5.178
 3848TIP3    H211490   2.396   6.717   5.231
 3849TIP3   OH211491   8.196   6.084   0.244
 3849TIP3    H111492   8.279   6.059   0.201
 3849TIP3    H211493   8.177   6.010   0.302
 3850TIP3   OH211494   1.551   2.689   3.310
 3850TIP3    H111495   1.587   2.628   3.375
 3850TIP3    H211496   1.558   2.775   3.352
 3851TIP3   OH211497   3.575   7.593   5.345
 3851TIP3    H111498   3.629   7.515   5.364
 3851TIP3    H211499   3.485   7.560   5.343
 3852TIP3   OH211500   4.945   5.938   3.320
 3852TIP3    H111501   5.009   5.881   3.364
 3852TIP3    H211502   4.884   5.877   3.278
 3853TIP3   OH211503   8.214   3.796   1.989
 3853TIP3    H111504   8.144   3.740   2.025
 3853TIP3    H211505   8.221   3.770   1.898
 3854TIP3   OH211506   3.539   1.413   4.330
 3854TIP3    H111507   3.451   1.438   4.360
 3854TIP3    H211508   3.553   1.467   4.252
 3855TIP3   OH211509   5.875   0.138   3.377
 3855TIP3    H111510   5.930   0.115   3.302
 3855TIP3    H211511   5.857   0.231   3.365
 3856TIP3   OH211512   0.972   3.491   0.952
 3856TIP3    H111513   0.892   3.471   1.001
 3856TIP3    H211514   0.995   3.409   0.909
 3857TIP3   OH211515   0.022   2.848   4.248
 3857TIP3    H111516  -0.051   2.903   4.220
 3857TIP3    H211517   0.033   2.785   4.177
 3858TIP3   OH211518   1.666   0.612   6.442
 3858TIP3    H111519   1.652   0.678   6.375
 3858TIP3    H211520   1.701   0.660   6.517
 3859TIP3   OH211521   4.006   4.069   5.028
 3859TIP3    H111522   3.916   4.037   5.035
 3859TIP3    H211523   3.997   4.159   4.998
 3860TIP3   OH211524   4.174   7.638   2.982
 3860TIP3    H111525   4.127   7.702   3.035
 3860TIP3    H211526   4.124   7.557   2.994
 3861TIP3   OH211527   0.124   7.480   3.411
 3861TIP3    H111528   0.082   7.428   3.343
 3861TIP3    H211529   0.075   7.461   3.491
 3862TIP3   OH211530   3.063   7.483   6.027
 3862TIP3    H111531   3.152   7.481   5.991
 3862TIP3    H211532   3.024   7.400   5.999
 3863TIP3   OH211533   7.662   4.975   2.072
 3863TIP3    H111534   7.723   5.026   2.126
 3863TIP3    H211535   7.645   4.896   2.122
 3864TIP3   OH211536   6.929   4.256   0.847
 3864TIP3    H111537   6.970   4.171   0.830
 3864TIP3    H211538   6.929   4.263   0.942
 3865TIP3   OH211539   3.160   3.538   3.079
 3865TIP3    H111540   3.222   3.467   3.095
 3865TIP3    H211541   3.114   3.549   3.162
 3866TIP3   OH211542   7.766   5.309   4.024
 3866TIP3    H111543   7.800   5.253   4.093
 3866TIP3    H211544   7.721   5.249   3.964
 3867TIP3   OH211545   5.407   7.729   6.420
 3867TIP3    H111546   5.372   7.640   6.430
 3867TIP3    H211547   5.358   7.781   6.483
 3868TIP3   OH211548   0.567   6.992   4.445
 3868TIP3    H111549   0.509   7.010   4.520
 3868TIP3    H211550   0.507   6.977   4.372
 3869TIP3   OH211551   5.272   3.250   2.330
 3869TIP3    H111552   5.236   3.336   2.351
 3869TIP3    H211553   5.363   3.268   2.305
 3870TIP3   OH211554   0.841   5.742   2.253
 3870TIP3    H111555   0.866   5.834   2.253
 3870TIP3    H211556   0.746   5.743   2.265
 3871TIP3   OH211557   0.275   3.336   5.238
 3871TIP3    H111558   0.305   3.253   5.201
 3871TIP3    H211559   0.294   3.400   5.169
 3872TIP3   OH211560   6.924   2.649   2.777
 3872TIP3    H111561   6.861   2.722   2.778
 3872TIP3    H211562   6.872   2.572   2.756
 3873TIP3   OH211563   1.803   3.404   0.749
 3873TIP3    H111564   1.793   3.311   0.768
 3873TIP3    H211565   1.878   3.409   0.690
 3874TIP3   OH211566   5.438   5.159   1.198
 3874TIP3    H111567   5.519   5.130   1.156
 3874TIP3    H211568   5.464   5.239   1.245
 3875TIP3   OH211569   4.858   7.490   1.915
 3875TIP3    H111570   4.869   7.395   1.922
 3875TIP3    H211571   4.795   7.501   1.844
 3876TIP3   OH211572   1.228   3.025   2.947
 3876TIP3    H111573   1.199   3.110   2.914
 3876TIP3    H211574   1.202   3.024   3.039
 3877TIP3   OH211575   7.255   5.034   4.895
 3877TIP3    H111576   7.171   5.040   4.940
 3877TIP3    H211577   7.258   4.944   4.862
 3878TIP3   OH211578   7.196   7.399   6.110
 3878TIP3    H111579   7.137   7.474   6.101
 3878TIP3    H211580   7.138   7.323   6.108
 3879TIP3   OH211581   2.986   3.026   2.874
 3879TIP3    H111582   3.029   2.941   2.879
 3879TIP3    H211583   3.044   3.085   2.922
 3880TIP3   OH211584   5.860   3.775   0.230
 3880TIP3    H111585   5.890   3.685   0.216
 3880TIP3    H211586   5.799   3.792   0.158
 3881TIP3   OH211587   5.143   3.329   4.661
 3881TIP3    H111588   5.068   3.272   4.680
 3881TIP3    H211589   5.199   3.321   4.738
 3882TIP3   OH211590   6.257   1.730   0.373
 3882TIP3    H111591   6.192   1.758   0.309
 3882TIP3    H211592   6.253   1.634   0.371
 3883TIP3   OH211593   3.382   5.010   0.872
 3883TIP3    H111594   3.453   4.958   0.909
 3883TIP3    H211595   3.353   4.960   0.796
 3884TIP3   OH211596   7.097   6.163   2.608
 3884TIP3    H111597   7.085   6.112   2.688
 3884TIP3    H211598   7.032   6.128   2.547
 3885TIP3   OH211599   7.138   0.876   2.068
 3885TIP3    H111600   7.160   0.783   2.069
 3885TIP3    H211601   7.044   0.878   2.051
 3886TIP3   OH211602   8.148   3.194   1.472
 3886TIP3    H111603   8.149   3.108   1.431
 3886TIP3    H211604   8.156   3.177   1.566
 3887TIP3   OH211605   4.309   1.803   3.033
 3887TIP3    H111606   4.322   1.718   3.076
 3887TIP3    H211607   4.222   1.796   2.993
 3888TIP3   OH211608   0.431   3.809   0.428
 3888TIP3    H111609   0.359   3.871   0.428
 3888TIP3    H211610   0.508   3.861   0.451
 3889TIP3   OH211611   6.998   1.964   5.900
 3889TIP3    H111612   6.942   1.901   5.854
 3889TIP3    H211613   7.029   2.023   5.831
 3890TIP3   OH211614   6.582   4.579   6.555
 3890TIP3    H111615   6.571   4.509   6.621
 3890TIP3    H211616   6.497   4.623   6.553
 3891TIP3   OH211617   2.647   0.064   6.571
 3891TIP3    H111618   2.607   0.146   6.601
 3891TIP3    H211619   2.592   0.036   6.497
 3892TIP3   OH211620   8.260   0.579   0.089
 3892TIP3    H111621   8.187   0.527   0.055
 3892TIP3    H211622   8.267   0.554   0.181
 3893TIP3   OH211623   3.651   2.783   0.552
 3893TIP3    H111624   3.566   2.824   0.537
 3893TIP3    H211625   3.631   2.690   0.564
 3894TIP3   OH211626   6.715   7.018   0.444
 3894TIP3    H111627   6.720   6.974   0.529
 3894TIP3    H211628   6.639   7.076   0.451
 3895TIP3   OH211629   4.285   0.985   5.677
 3895TIP3    H111630   4.219   0.920   5.654
 3895TIP3    H211631   4.339   0.993   5.598
 3896TIP3   OH211632   0.057   7.257   5.824
 3896TIP3    H111633   0.088   7.285   5.910
 3896TIP3    H211634   0.132   7.211   5.785
 3897TIP3   OH211635   6.924   6.968   1.510
 3897TIP3    H111636   6.829   6.983   1.514
 3897TIP3    H211637   6.950   7.000   1.424
 3898TIP3   OH211638   7.869   4.643   5.128
 3898TIP3    H111639   7.906   4.575   5.071
 3898TIP3    H211640   7.841   4.597   5.206
 3899TIP3   OH211641   4.023   2.787   5.662
 3899TIP3    H111642   4.040   2.771   5.754
 3899TIP3    H211643   3.996   2.878   5.657
 3900TIP3   OH211644   7.103   5.075   3.450
 3900TIP3    H111645   7.195   5.098   3.461
 3900TIP3    H211646   7.060   5.110   3.528
 3901TIP3   OH211647   7.238   0.838   3.612
 3901TIP3    H111648   7.279   0.751   3.608
 3901TIP3    H211649   7.217   0.859   3.521
 3902TIP3   OH211650   2.232   1.053   5.972
 3902TIP3    H111651   2.225   0.965   6.011
 3902TIP3    H211652   2.301   1.096   6.023
 3903TIP3   OH211653   5.405   4.472   2.541
 3903TIP3    H111654   5.453   4.540   2.494
 3903TIP3    H211655   5.325   4.459   2.490
 3904TIP3   OH211656   4.323   6.731   2.287
 3904TIP3    H111657   4.416   6.756   2.290
 3904TIP3    H211658   4.302   6.726   2.194
 3905TIP3   OH211659   3.302   3.632   5.381
 3905TIP3    H111660   3.254   3.550   5.367
 3905TIP3    H211661   3.323   3.632   5.474
 3906TIP3   OH211662   5.225   5.166   4.984
 3906TIP3    H111663   5.150   5.191   4.930
 3906TIP3    H211664   5.263   5.092   4.937
 3907TIP3   OH211665   1.292   0.502   5.492
 3907TIP3    H111666   1.277   0.573   5.428
 3907TIP3    H211667   1.226   0.436   5.470
 3908TIP3   OH211668   2.901   0.307   2.742
 3908TIP3    H111669   2.853   0.224   2.736
 3908TIP3    H211670   2.888   0.336   2.832
 3909TIP3   OH211671   6.358   6.986   4.039
 3909TIP3    H111672   6.429   7.012   4.098
 3909TIP3    H211673   6.400   6.984   3.952
 3910TIP3   OH211674   1.286   6.354   6.655
 3910TIP3    H111675   1.354   6.414   6.625
 3910TIP3    H211676   1.207   6.383   6.609
 3911TIP3   OH211677   5.117   0.164   5.131
 3911TIP3    H111678   5.186   0.098   5.121
 3911TIP3    H211679   5.126   0.195   5.221
 3912TIP3   OH211680   1.511   2.569   2.673
 3912TIP3    H111681   1.551   2.654   2.651
 3912TIP3    H211682   1.474   2.583   2.760
 3913TIP3   OH211683   3.220   3.130   0.295
 3913TIP3    H111684   3.196   3.093   0.380
 3913TIP3    H211685   3.260   3.214   0.316
 3914TIP3   OH211686   0.586   1.327   1.603
 3914TIP3    H111687   0.495   1.351   1.618
 3914TIP3    H211688   0.591   1.308   1.510
 3915TIP3   OH211689   6.217   7.194   2.751
 3915TIP3    H111690   6.145   7.192   2.688
 3915TIP3    H211691   6.189   7.257   2.817
 3916TIP3   OH211692   1.010   7.139   2.764
 3916TIP3    H111693   1.040   7.049   2.753
 3916TIP3    H211694   0.941   7.150   2.698
 3917TIP3   OH211695   2.955   7.344   4.009
 3917TIP3    H111696   2.910   7.259   4.009
 3917TIP3    H211697   2.950   7.373   4.100
 3918TIP3   OH211698   0.772   7.546   2.618
 3918TIP3    H111699   0.714   7.476   2.650
 3918TIP3    H211700   0.738   7.625   2.658
 3919TIP3   OH211701   7.683   6.157   1.472
 3919TIP3    H111702   7.747   6.207   1.523
 3919TIP3    H211703   7.705   6.177   1.381
 3920TIP3   OH211704   5.014   6.689   0.387
 3920TIP3    H111705   5.058   6.615   0.430
 3920TIP3    H211706   4.927   6.655   0.364
 3921TIP3   OH211707   7.303   2.752   3.528
 3921TIP3    H111708   7.338   2.796   3.605
 3921TIP3    H211709   7.371   2.690   3.503
 3922TIP3   OH211710   6.588   3.820   4.117
 3922TIP3    H111711   6.652   3.780   4.059
 3922TIP3    H211712   6.608   3.914   4.114
 3923TIP3   OH211713   7.834   5.556   0.579
 3923TIP3    H111714   7.741   5.576   0.593
 3923TIP3    H211715   7.863   5.620   0.514
 3924TIP3   OH211716   3.573   2.235   3.898
 3924TIP3    H111717   3.520   2.275   3.967
 3924TIP3    H211718   3.598   2.150   3.935
 3925TIP3   OH211719   4.880   1.467   3.177
 3925TIP3    H111720   4.821   1.404   3.219
 3925TIP3    H211721   4.850   1.470   3.086
 3926TIP3   OH211722   1.495   1.939   0.993
 3926TIP3    H111723   1.413   1.977   0.964
 3926TIP3    H211724   1.489   1.846   0.971
 3927TIP3   OH211725   1.098   3.516   1.765
 3927TIP3    H111726   1.081   3.439   1.818
 3927TIP3    H211727   1.011   3.544   1.735
 3928TIP3   OH211728   0.931   5.028   6.651
 3928TIP3    H111729   0.869   5.012   6.579
 3928TIP3    H211730   0.945   5.123   6.650
 3929TIP3   OH211731   8.137   1.873   3.553
 3929TIP3    H111732   8.187   1.951   3.577
 3929TIP3    H211733   8.203   1.803   3.550
 3930TIP3   OH211734   7.981   1.630   0.038
 3930TIP3    H111735   7.888   1.655   0.044
 3930TIP3    H211736   7.979   1.537   0.013
 3931TIP3   OH211737   2.732   3.162   3.083
 3931TIP3    H111738   2.732   3.072   3.050
 3931TIP3    H211739   2.824   3.187   3.085
 3932TIP3   OH211740   0.209   6.002   3.459
 3932TIP3    H111741   0.255   6.000   3.375
 3932TIP3    H211742   0.116   5.993   3.436
 3933TIP3   OH211743   4.713   4.352   2.945
 3933TIP3    H111744   4.747   4.424   2.892
 3933TIP3    H211745   4.765   4.276   2.919
 3934TIP3   OH211746   2.641   0.547   4.058
 3934TIP3    H111747   2.699   0.578   3.990
 3934TIP3    H211748   2.561   0.522   4.012
 3935TIP3   OH211749   1.736   6.951   1.602
 3935TIP3    H111750   1.709   6.981   1.515
 3935TIP3    H211751   1.759   6.859   1.589
 3936TIP3   OH211752   6.101   1.748   6.581
 3936TIP3    H111753   6.132   1.696   6.655
 3936TIP3    H211754   6.065   1.684   6.520
 3937TIP3   OH211755   7.207   0.118   3.705
 3937TIP3    H111756   7.164   0.204   3.700
 3937TIP3    H211757   7.139   0.060   3.738
 3938TIP3   OH211758   6.511   7.614   1.775
 3938TIP3    H111759   6.420   7.584   1.776
 3938TIP3    H211760   6.514   7.684   1.840
 3939TIP3   OH211761   0.761   6.287   4.467
 3939TIP3    H111762   0.760   6.203   4.513
 3939TIP3    H211763   0.673   6.322   4.478
 3940TIP3   OH211764   1.693   6.630   3.173
 3940TIP3    H111765   1.727   6.556   3.123
 3940TIP3    H211766   1.734   6.621   3.259
 3941TIP3   OH211767   3.847   3.025   2.734
 3941TIP3    H111768   3.796   3.025   2.815
 3941TIP3    H211769   3.937   3.007   2.763
 3942TIP3   OH211770   2.621   2.387   1.035
 3942TIP3    H111771   2.613   2.417   1.125
 3942TIP3    H211772   2.662   2.301   1.043
 3943TIP3   OH211773   7.623   7.072   2.975
 3943TIP3    H111774   7.664   7.143   3.023
 3943TIP3    H211775   7.540   7.108   2.945
 3944TIP3   OH211776   0.555   5.254   4.774
 3944TIP3    H111777   0.489   5.196   4.813
 3944TIP3    H211778   0.545   5.337   4.821
 3945TIP3   OH211779   0.960   2.821   3.425
 3945TIP3    H111780   0.986   2.815   3.517
 3945TIP3    H211781   0.931   2.732   3.403
 3946TIP3   OH211782   1.421   2.816   5.089
 3946TIP3    H111783   1.332   2.848   5.101
 3946TIP3    H211784   1.476   2.878   5.137
 3947TIP3   OH211785   2.804   1.740   2.461
 3947TIP3    H111786   2.858   1.743   2.540
 3947TIP3    H211787   2.810   1.829   2.425
 3948TIP3   OH211788   4.022   4.811   5.245
 3948TIP3    H111789   4.081   4.884   5.264
 3948TIP3    H211790   3.936   4.841   5.276
 3949TIP3   OH211791   8.245   6.902   1.461
 3949TIP3    H111792   8.273   6.922   1.550
 3949TIP3    H211793   8.314   6.845   1.426
 3950TIP3   OH211794   6.324   7.185   1.084
 3950TIP3    H111795   6.305   7.197   0.990
 3950TIP3    H211796   6.419   7.187   1.089
 3951TIP3   OH211797   7.200   5.854   5.568
 3951TIP3    H111798   7.200   5.827   5.476
 3951TIP3    H211799   7.195   5.771   5.616
 3952TIP3   OH211800   1.078   5.203   3.068
 3952TIP3    H111801   1.001   5.161   3.031
 3952TIP3    H211802   1.055   5.218   3.160
 3953TIP3   OH211803   2.867   0.475   4.210
 3953TIP3    H111804   2.848   0.397   4.158
 3953TIP3    H211805   2.906   0.441   4.291
 3954TIP3   OH211806   7.475   0.821   5.958
 3954TIP3    H111807   7.438   0.901   5.996
 3954TIP3    H211808   7.569   0.831   5.969
 3955TIP3   OH211809   8.317   4.905   2.901
 3955TIP3    H111810   8.238   4.856   2.925
 3955TIP3    H211811   8.289   4.996   2.898
 3956TIP3   OH211812   8.001   0.021   6.620
 3956TIP3    H111813   8.014   0.108   6.659
 3956TIP3    H211814   7.998  -0.038   6.695
 3957TIP3   OH211815   7.961   6.645   2.844
 3957TIP3    H111816   8.008   6.596   2.776
 3957TIP3    H211817   7.993   6.735   2.836
 3958TIP3   OH211818   6.571   5.022   5.645
 3958TIP3    H111819   6.617   5.090   5.597
 3958TIP3    H211820   6.487   5.013   5.600
 3959TIP3   OH211821   0.789   5.095   3.428
 3959TIP3    H111822   0.816   5.080   3.518
 3959TIP3    H211823   0.704   5.053   3.420
 3960TIP3   OH211824   2.566   3.060   5.722
 3960TIP3    H111825   2.547   3.022   5.636
 3960TIP3    H211826   2.541   2.991   5.784
 3961TIP3   OH211827   0.135   3.505   2.202
 3961TIP3    H111828   0.182   3.588   2.212
 3961TIP3    H211829   0.153   3.478   2.112
 3962TIP3   OH211830   2.965   4.381   3.959
 3962TIP3    H111831   2.948   4.392   3.866
 3962TIP3    H211832   2.927   4.458   4.000
 3963TIP3   OH211833   1.591   7.637   0.382
 3963TIP3    H111834   1.558   7.725   0.365
 3963TIP3    H211835   1.547   7.582   0.318
 3964TIP3   OH211836   3.863   2.419   2.809
 3964TIP3    H111837   3.811   2.421   2.728
 3964TIP3    H211838   3.829   2.344   2.858
 3965TIP3   OH211839   0.969   2.466   4.590
 3965TIP3    H111840   0.994   2.524   4.519
 3965TIP3    H211841   0.899   2.513   4.636
 3966TIP3   OH211842   4.214   5.946   0.154
 3966TIP3    H111843   4.309   5.948   0.165
 3966TIP3    H211844   4.189   5.855   0.167
 3967TIP3   OH211845   5.993   4.391   2.752
 3967TIP3    H111846   5.940   4.454   2.703
 3967TIP3    H211847   6.037   4.339   2.686
 3968TIP3   OH211848   2.577   3.477   0.925
 3968TIP3    H111849   2.521   3.554   0.927
 3968TIP3    H211850   2.554   3.432   0.844
 3969TIP3   OH211851   1.737   7.134   3.828
 3969TIP3    H111852   1.771   7.222   3.842
 3969TIP3    H211853   1.806   7.076   3.863
 3970TIP3   OH211854   0.556   2.115   2.791
 3970TIP3    H111855   0.583   2.033   2.749
 3970TIP3    H211856   0.480   2.144   2.741
 3971TIP3   OH211857   7.620   7.513   1.213
 3971TIP3    H111858   7.614   7.434   1.159
 3971TIP3    H211859   7.542   7.510   1.269
 3972TIP3   OH211860   6.885   5.675   0.152
 3972TIP3    H111861   6.811   5.684   0.212
 3972TIP3    H211862   6.907   5.582   0.155
 3973TIP3   OH211863   1.337   7.533   4.006
 3973TIP3    H111864   1.301   7.454   4.047
 3973TIP3    H211865   1.402   7.500   3.944
 3974TIP3   OH211866   5.286   2.116   2.304
 3974TIP3    H111867   5.279   2.080   2.216
 3974TIP3    H211868   5.212   2.176   2.312
 3975TIP3   OH211869   7.347   2.686   0.906
 3975TIP3    H111870   7.302   2.618   0.956
 3975TIP3    H211871   7.277   2.732   0.860
 3976TIP3   OH211872   6.750   3.677   3.949
 3976TIP3    H111873   6.804   3.634   4.015
 3976TIP3    H211874   6.808   3.684   3.872
 3977TIP3   OH211875   2.350   3.803   3.739
 3977TIP3    H111876   2.357   3.862   3.664
 3977TIP3    H211877   2.267   3.757   3.726
 3978TIP3   OH211878   7.658   2.538   2.221
 3978TIP3    H111879   7.637   2.460   2.272
 3978TIP3    H211880   7.670   2.506   2.132
 3979TIP3   OH211881   7.123   3.110   5.034
 3979TIP3    H111882   7.171   3.070   5.107
 3979TIP3    H211883   7.160   3.198   5.026
 3980TIP3   OH211884   5.375   6.617   3.339
 3980TIP3    H111885   5.468   6.611   3.364
 3980TIP3    H211886   5.332   6.655   3.415
 3981TIP3   OH211887   5.225   5.321   4.048
 3981TIP3    H111888   5.185   5.234   4.050
 3981TIP3    H211889   5.196   5.359   3.966
 3982TIP3   OH211890   4.989   2.812   1.255
 3982TIP3    H111891   4.935   2.733   1.259
 3982TIP3    H211892   4.944   2.876   1.310
 3983TIP3   OH211893   0.437   3.014   0.474
 3983TIP3    H111894   0.457   2.941   0.531
 3983TIP3    H211895   0.446   3.092   0.529
 3984TIP3   OH211896   1.991   1.042   4.626
 3984TIP3    H111897   1.982   1.058   4.532
 3984TIP3    H211898   2.057   0.973   4.632
 3985TIP3   OH211899   3.370   7.208   1.865
 3985TIP3    H111900   3.415   7.136   1.820
 3985TIP3    H211901   3.385   7.192   1.958
 3986TIP3   OH211902   3.309   1.318   0.613
 3986TIP3    H111903   3.274   1.403   0.587
 3986TIP3    H211904   3.322   1.271   0.531
 3987TIP3   OH211905   6.414   4.620   1.332
 3987TIP3    H111906   6.485   4.555   1.337
 3987TIP3    H211907   6.403   4.650   1.423
 3988TIP3   OH211908   0.525   6.339   5.767
 3988TIP3    H111909   0.475   6.271   5.812
 3988TIP3    H211910   0.470   6.417   5.774
 3989TIP3   OH211911   5.567   2.998   3.685
 3989TIP3    H111912   5.477   3.030   3.685
 3989TIP3    H211913   5.584   2.973   3.776
 3990TIP3   OH211914   1.289   3.320   3.163
 3990TIP3    H111915   1.210   3.312   3.216
 3990TIP3    H211916   1.347   3.252   3.196
 3991TIP3   OH211917   6.583   0.078   0.421
 3991TIP3    H111918   6.652   0.122   0.471
 3991TIP3    H211919   6.627   0.050   0.340
 3992TIP3   OH211920   2.873   3.560   3.653
 3992TIP3    H111921   2.808   3.621   3.618
 3992TIP3    H211922   2.854   3.477   3.608
 3993TIP3   OH211923   4.493   3.990   5.882
 3993TIP3    H111924   4.487   3.894   5.876
 3993TIP3    H211925   4.440   4.021   5.808
 3994TIP3   OH211926   0.877   4.814   3.450
 3994TIP3    H111927   0.865   4.862   3.369
 3994TIP3    H211928   0.885   4.722   3.423
 3995TIP3   OH211929   5.557   3.860   6.184
 3995TIP3    H111930   5.639   3.885   6.225
 3995TIP3    H211931   5.491   3.875   6.252
 3996TIP3   OH211932   3.259   4.557   1.007
 3996TIP3    H111933   3.231   4.504   0.932
 3996TIP3    H211934   3.254   4.497   1.082
 3997TIP3   OH211935   5.709   0.982   1.254
 3997TIP3    H111936   5.667   1.040   1.190
 3997TIP3    H211937   5.719   1.037   1.332
 3998TIP3   OH211938   7.568   7.039   5.318
 3998TIP3    H111939   7.480   7.077   5.321
 3998TIP3    H211940   7.584   7.009   5.408
 3999TIP3   OH211941   0.711   6.538   3.839
 3999TIP3    H111942   0.670   6.494   3.914
 3999TIP3    H211943   0.801   6.554   3.867
 4000TIP3   OH211944   1.199   2.695   1.719
 4000TIP3    H111945   1.277   2.652   1.752
 4000TIP3    H211946   1.147   2.714   1.797
 4001TIP3   OH211947   0.770   7.488   0.853
 4001TIP3    H111948   0.783   7.411   0.797
 4001TIP3    H211949   0.690   7.469   0.902
 4002TIP3   OH211950   5.093   4.043   2.810
 4002TIP3    H111951   5.085   3.973   2.745
 4002TIP3    H211952   5.146   4.004   2.879
 4003TIP3   OH211953   1.339   1.462   1.589
 4003TIP3    H111954   1.305   1.540   1.633
 4003TIP3    H211955   1.328   1.480   1.496
 4004TIP3   OH211956   7.871   2.774   3.847
 4004TIP3    H111957   7.832   2.729   3.772
 4004TIP3    H211958   7.933   2.710   3.883
 4005TIP3   OH211959   3.135   1.679   1.191
 4005TIP3    H111960   3.073   1.726   1.134
 4005TIP3    H211961   3.135   1.730   1.272
 4006TIP3   OH211962   3.302   3.403   0.355
 4006TIP3    H111963   3.398   3.402   0.357
 4006TIP3    H211964   3.280   3.444   0.272
 4007TIP3   OH211965   1.786   5.346   4.095
 4007TIP3    H111966   1.754   5.258   4.078
 4007TIP3    H211967   1.804   5.348   4.189
 4008TIP3   OH211968   5.317   7.293   5.650
 4008TIP3    H111969   5.403   7.251   5.657
 4008TIP3    H211970   5.279   7.257   5.570
 4009TIP3   OH211971   7.099   7.331   4.024
 4009TIP3    H111972   7.071   7.421   4.040
 4009TIP3    H211973   7.186   7.325   4.064
 4010TIP3   OH211974   7.604   3.846   3.657
 4010TIP3    H111975   7.656   3.858   3.578
 4010TIP3    H211976   7.592   3.934   3.692
 4011TIP3   OH211977   7.464   7.523   6.802
 4011TIP3    H111978   7.371   7.510   6.785
 4011TIP3    H211979   7.508   7.485   6.726
 4012TIP3   OH211980   0.969   3.818   0.128
 4012TIP3    H111981   0.903   3.861   0.183
 4012TIP3    H211982   0.923   3.741   0.094
 4013TIP3   OH211983   2.185   7.818   6.154
 4013TIP3    H111984   2.183   7.819   6.058
 4013TIP3    H211985   2.251   7.752   6.176
 4014TIP3   OH211986   6.271   0.922   5.971
 4014TIP3    H111987   6.331   0.934   6.045
 4014TIP3    H211988   6.202   0.865   6.005
 4015TIP3   OH211989   3.840   2.156   1.414
 4015TIP3    H111990   3.837   2.074   1.463
 4015TIP3    H211991   3.748   2.181   1.404
 4016TIP3   OH211992   0.721   3.549   5.552
 4016TIP3    H111993   0.806   3.509   5.574
 4016TIP3    H211994   0.741   3.642   5.541
 4017TIP3   OH211995   0.581   4.259   2.063
 4017TIP3    H111996   0.511   4.248   1.999
 4017TIP3    H211997   0.546   4.221   2.144
 4018TIP3   OH211998   5.601   5.898   4.769
 4018TIP3    H111999   5.563   5.879   4.683
 4018TIP3    H212000   5.565   5.984   4.792
 4019TIP3   OH212001   6.389   4.157   0.576
 4019TIP3    H112002   6.313   4.194   0.620
 4019TIP3    H212003   6.462   4.174   0.635
 4020TIP3   OH212004   4.423   6.584   4.634
 4020TIP3    H112005   4.377   6.542   4.561
 4020TIP3    H212006   4.443   6.512   4.694
 4021TIP3   OH212007   2.028   2.849   1.399
 4021TIP3    H112008   1.959   2.906   1.434
 4021TIP3    H212009   2.110   2.893   1.424
 4022TIP3   OH212010   0.062   6.740   2.636
 4022TIP3    H112011  -0.011   6.772   2.690
 4022TIP3    H212012   0.058   6.793   2.557
 4023TIP3   OH212013   6.180   6.409   5.308
 4023TIP3    H112014   6.268   6.377   5.286
 4023TIP3    H212015   6.195   6.487   5.361
 4024TIP3   OH212016   5.073   2.028   3.619
 4024TIP3    H112017   4.980   2.009   3.607
 4024TIP3    H212018   5.080   2.122   3.609
 4025TIP3   OH212019   1.832   2.586   2.059
 4025TIP3    H112020   1.859   2.521   2.124
 4025TIP3    H212021   1.738   2.572   2.049
 4026TIP3   OH212022   6.356   7.382   0.261
 4026TIP3    H112023   6.410   7.444   0.213
 4026TIP3    H212024   6.298   7.437   0.314
 4027TIP3   OH212025   5.575   6.829   1.583
 4027TIP3    H112026   5.609   6.757   1.530
 4027TIP3    H212027   5.618   6.907   1.548
 4028TIP3   OH212028   4.386   5.292   2.874
 4028TIP3    H112029   4.316   5.332   2.823
 4028TIP3    H212030   4.344   5.262   2.955
 4029TIP3   OH212031   4.973   1.535   0.688
 4029TIP3    H112032   4.948   1.608   0.631
 4029TIP3    H212033   4.890   1.490   0.708
 4030TIP3   OH212034   7.587   1.913   3.793
 4030TIP3    H112035   7.668   1.908   3.742
 4030TIP3    H212036   7.555   2.002   3.777
 4031TIP3   OH212037   0.030   3.319   4.936
 4031TIP3    H112038  -0.056   3.315   4.896
 4031TIP3    H212039   0.091   3.296   4.866
 4032TIP3   OH212040   1.631   1.055   6.010
 4032TIP3    H112041   1.577   0.976   6.012
 4032TIP3    H212042   1.611   1.095   5.925
 4033TIP3   OH212043   3.625   1.747   1.542
 4033TIP3    H112044   3.660   1.703   1.619
 4033TIP3    H212045   3.701   1.765   1.487
 4034TIP3   OH212046   7.298   0.640   5.787
 4034TIP3    H112047   7.376   0.668   5.836
 4034TIP3    H212048   7.247   0.590   5.850
 4035TIP3   OH212049   0.948   2.295   0.207
 4035TIP3    H112050   0.881   2.360   0.186
 4035TIP3    H212051   0.997   2.284   0.126
 4036TIP3   OH212052   2.049   3.136   5.006
 4036TIP3    H112053   2.127   3.156   5.058
 4036TIP3    H212054   1.990   3.094   5.069
 4037TIP3   OH212055   5.176   5.303   2.469
 4037TIP3    H112056   5.174   5.295   2.564
 4037TIP3    H212057   5.229   5.381   2.452
 4038TIP3   OH212058   2.593   7.580   6.788
 4038TIP3    H112059   2.660   7.626   6.736
 4038TIP3    H212060   2.568   7.505   6.734
 4039TIP3   OH212061   1.177   7.090   3.911
 4039TIP3    H112062   1.114   7.026   3.944
 4039TIP3    H212063   1.261   7.044   3.911
 4040TIP3   OH212064   4.608   4.984   6.357
 4040TIP3    H112065   4.694   4.946   6.372
 4040TIP3    H212066   4.585   4.958   6.269
 4041TIP3   OH212067   7.863   0.755   0.590
 4041TIP3    H112068   7.768   0.758   0.576
 4041TIP3    H212069   7.876   0.799   0.674
 4042TIP3   OH212070   3.993   7.543   1.492
 4042TIP3    H112071   3.928   7.490   1.446
 4042TIP3    H212072   4.060   7.481   1.520
 4043TIP3   OH212073   6.581   6.390   2.296
 4043TIP3    H112074   6.547   6.304   2.273
 4043TIP3    H212075   6.616   6.425   2.213
 4044TIP3   OH212076   3.543   3.624   3.425
 4044TIP3    H112077   3.447   3.626   3.432
 4044TIP3    H212078   3.568   3.543   3.468
 4045TIP3   OH212079   3.906   2.335   3.205
 4045TIP3    H112080   3.874   2.331   3.295
 4045TIP3    H212081   3.981   2.395   3.208
 4046TIP3   OH212082   4.018   2.856   6.240
 4046TIP3    H112083   4.014   2.933   6.297
 4046TIP3    H212084   4.009   2.781   6.299
 4047TIP3   OH212085   6.099   3.862   4.284
 4047TIP3    H112086   6.105   3.858   4.188
 4047TIP3    H212087   6.187   3.884   4.313
 4048TIP3   OH212088   5.433   7.326   1.508
 4048TIP3    H112089   5.529   7.331   1.499
 4048TIP3    H212090   5.403   7.415   1.490
 4049TIP3   OH212091   6.838   1.091   3.201
 4049TIP3    H112092   6.748   1.099   3.231
 4049TIP3    H212093   6.891   1.103   3.279
 4050TIP3   OH212094   4.085   5.022   2.559
 4050TIP3    H112095   4.016   4.962   2.585
 4050TIP3    H212096   4.131   5.044   2.640
 4051TIP3   OH212097   1.278   7.082   6.542
 4051TIP3    H112098   1.358   7.035   6.519
 4051TIP3    H212099   1.307   7.173   6.555
 4052TIP3   OH212100   1.642   3.769   4.543
 4052TIP3    H112101   1.609   3.810   4.464
 4052TIP3    H212102   1.576   3.702   4.564
 4053TIP3   OH212103   4.744   3.095   0.174
 4053TIP3    H112104   4.770   3.074   0.264
 4053TIP3    H212105   4.827   3.106   0.127
 4054TIP3   OH212106   6.126   0.922   1.447
 4054TIP3    H112107   6.135   0.989   1.515
 4054TIP3    H212108   6.113   0.972   1.366
 4055TIP3   OH212109   2.974   1.472   6.519
 4055TIP3    H112110   3.020   1.403   6.568
 4055TIP3    H212111   2.882   1.462   6.546
 4056TIP3   OH212112   0.561   7.682   1.094
 4056TIP3    H112113   0.525   7.642   1.015
 4056TIP3    H212114   0.655   7.664   1.088
 4057TIP3   OH212115   1.031   7.587   6.745
 4057TIP3    H112116   1.040   7.532   6.822
 4057TIP3    H212117   0.937   7.587   6.726
 4058TIP3   OH212118   3.689   2.988   4.539
 4058TIP3    H112119   3.752   2.931   4.581
 4058TIP3    H212120   3.698   3.072   4.585
 4059TIP3   OH212121   2.370   2.754   0.512
 4059TIP3    H112122   2.464   2.762   0.498
 4059TIP3    H212123   2.354   2.800   0.595
 4060TIP3   OH212124   0.219   2.147   3.722
 4060TIP3    H112125   0.258   2.183   3.801
 4060TIP3    H212126   0.197   2.223   3.668
 4061TIP3   OH212127   6.104   5.302   0.288
 4061TIP3    H112128   6.049   5.378   0.268
 4061TIP3    H212129   6.087   5.241   0.216
 4062TIP3   OH212130   1.932   2.150   6.410
 4062TIP3    H112131   1.920   2.077   6.471
 4062TIP3    H212132   1.865   2.213   6.435
 4063TIP3   OH212133   2.542   4.995   3.042
 4063TIP3    H112134   2.621   5.049   3.047
 4063TIP3    H212135   2.530   4.980   2.948
 4064TIP3   OH212136   0.949   3.785   4.314
 4064TIP3    H112137   0.971   3.791   4.221
 4064TIP3    H212138   1.024   3.824   4.359
 4065TIP3   OH212139   4.282   1.783   1.691
 4065TIP3    H112140   4.249   1.871   1.675
 4065TIP3    H212141   4.370   1.797   1.726
 4066TIP3   OH212142   7.744   1.497   5.569
 4066TIP3    H112143   7.827   1.454   5.547
 4066TIP3    H212144   7.765   1.590   5.571
 4067TIP3   OH212145   0.655   1.252   5.156
 4067TIP3    H112146   0.652   1.272   5.062
 4067TIP3    H212147   0.579   1.297   5.193
 4068TIP3   OH212148   4.501   1.641   5.034
 4068TIP3    H112149   4.489   1.549   5.059
 4068TIP3    H212150   4.522   1.638   4.941
 4069TIP3   OH212151   0.082   2.114   1.369
 4069TIP3    H112152   0.134   2.156   1.437
 4069TIP3    H212153  -0.002   2.094   1.412
 4070TIP3   OH212154   7.583   1.566   5.276
 4070TIP3    H112155   7.580   1.522   5.361
 4070TIP3    H212156   7.510   1.529   5.227
 4071TIP3   OH212157   5.599   6.896   6.577
 4071TIP3    H112158   5.571   6.920   6.665
 4071TIP3    H212159   5.686   6.934   6.567
 4072TIP3   OH212160   0.662   6.595   3.179
 4072TIP3    H112161   0.744   6.574   3.134
 4072TIP3    H212162   0.666   6.545   3.261
 4073TIP3   OH212163   3.080   6.831   3.790
 4073TIP3    H112164   3.039   6.787   3.716
 4073TIP3    H212165   3.050   6.781   3.867
 4074TIP3   OH212166   4.327   2.630   0.241
 4074TIP3    H112167   4.258   2.598   0.184
 4074TIP3    H212168   4.297   2.607   0.329
 4075TIP3   OH212169   0.387   1.205   4.335
 4075TIP3    H112170   0.363   1.297   4.324
 4075TIP3    H212171   0.387   1.191   4.429
 4076TIP3   OH212172   4.837   7.721   4.248
 4076TIP3    H112173   4.853   7.760   4.162
 4076TIP3    H212174   4.895   7.646   4.252
 4077TIP3   OH212175   1.777   0.355   5.892
 4077TIP3    H112176   1.778   0.448   5.869
 4077TIP3    H212177   1.869   0.329   5.893
 4078TIP3   OH212178   1.663   1.579   2.747
 4078TIP3    H112179   1.735   1.537   2.699
 4078TIP3    H212180   1.613   1.506   2.783
 4079TIP3   OH212181   0.154   2.214   1.959
 4079TIP3    H112182   0.249   2.213   1.965
 4079TIP3    H212183   0.128   2.294   2.005
 4080TIP3   OH212184   0.837   2.184   5.253
 4080TIP3    H112185   0.743   2.169   5.259
 4080TIP3    H212186   0.846   2.280   5.252
 4081TIP3   OH212187   3.199   5.723   6.437
 4081TIP3    H112188   3.185   5.812   6.468
 4081TIP3    H212189   3.115   5.696   6.401
 4082TIP3   OH212190   4.276   0.141   4.341
 4082TIP3    H112191   4.244   0.187   4.264
 4082TIP3    H212192   4.345   0.084   4.309
 4083TIP3   OH212193   2.833   4.119   0.813
 4083TIP3    H112194   2.757   4.081   0.856
 4083TIP3    H212195   2.803   4.205   0.783
 4084TIP3   OH212196   3.600   2.729   4.282
 4084TIP3    H112197   3.505   2.728   4.286
 4084TIP3    H212198   3.625   2.813   4.318
 4085TIP3   OH212199   0.593   7.148   1.212
 4085TIP3    H112200   0.516   7.122   1.262
 4085TIP3    H212201   0.632   7.218   1.264
 4086TIP3   OH212202   3.306   5.611   2.323
 4086TIP3    H112203   3.306   5.650   2.236
 4086TIP3    H212204   3.368   5.538   2.317
 4087TIP3   OH212205   7.200   0.444   1.014
 4087TIP3    H112206   7.142   0.519   1.003
 4087TIP3    H212207   7.268   0.457   0.947
 4088TIP3   OH212208   4.186   3.947   1.892
 4088TIP3    H112209   4.158   4.006   1.822
 4088TIP3    H212210   4.105   3.902   1.918
 4089TIP3   OH212211   5.123   4.773   1.071
 4089TIP3    H112212   5.086   4.686   1.055
 4089TIP3    H212213   5.181   4.788   0.996
 4090TIP3   OH212214   0.384   0.859   0.318
 4090TIP3    H112215   0.346   0.929   0.266
 4090TIP3    H212216   0.337   0.864   0.402
 4091TIP3   OH212217   2.302   7.716   6.650
 4091TIP3    H112218   2.290   7.639   6.706
 4091TIP3    H212219   2.254   7.786   6.695
 4092TIP3   OH212220   5.458   3.434   2.026
 4092TIP3    H112221   5.501   3.398   1.949
 4092TIP3    H212222   5.469   3.367   2.094
 4093TIP3   OH212223   6.470   5.986   4.290
 4093TIP3    H112224   6.526   5.968   4.214
 4093TIP3    H212225   6.449   5.900   4.325
 4094TIP3   OH212226   3.096   5.281   2.301
 4094TIP3    H112227   3.151   5.220   2.350
 4094TIP3    H212228   3.016   5.232   2.283
 4095TIP3   OH212229   0.421   7.444   4.792
 4095TIP3    H112230   0.369   7.396   4.856
 4095TIP3    H212231   0.357   7.495   4.742
 4096TIP3   OH212232   4.880   1.425   2.680
 4096TIP3    H112233   4.952   1.487   2.671
 4096TIP3    H212234   4.887   1.368   2.604
 4097TIP3   OH212235   4.937   5.462   3.364
 4097TIP3    H112236   4.848   5.459   3.399
 4097TIP3    H212237   4.948   5.379   3.318
 4098TIP3   OH212238   6.496   3.900   2.801
 4098TIP3    H112239   6.466   3.886   2.891
 4098TIP3    H212240   6.441   3.971   2.768
 4099TIP3   OH212241   7.968   3.750   6.695
 4099TIP3    H112242   7.992   3.803   6.619
 4099TIP3    H212243   7.883   3.785   6.723
 4100TIP3   OH212244   2.510   5.327   4.064
 4100TIP3    H112245   2.420   5.327   4.099
 4100TIP3    H212246   2.546   5.412   4.091
 4101TIP3   OH212247   0.438   6.208   6.570
 4101TIP3    H112248   0.388   6.214   6.651
 4101TIP3    H212249   0.521   6.167   6.596
 4102TIP3   OH212250   7.013   5.169   6.780
 4102TIP3    H112251   6.983   5.082   6.753
 4102TIP3    H212252   7.106   5.170   6.758
 4103TIP3   OH212253   4.569   3.988   4.082
 4103TIP3    H112254   4.621   3.956   4.156
 4103TIP3    H212255   4.516   3.913   4.057
 4104TIP3   OH212256   4.464   2.090   3.917
 4104TIP3    H112257   4.479   2.064   4.008
 4104TIP3    H212258   4.501   2.179   3.912
 4105TIP3   OH212259   4.640   1.429   5.294
 4105TIP3    H112260   4.658   1.419   5.201
 4105TIP3    H212261   4.674   1.516   5.316
 4106TIP3   OH212262   7.690   2.977   4.457
 4106TIP3    H112263   7.606   2.934   4.441
 4106TIP3    H212264   7.736   2.919   4.517
 4107TIP3   OH212265   5.073   2.377   1.348
 4107TIP3    H112266   5.091   2.287   1.373
 4107TIP3    H212267   5.159   2.413   1.325
 4108TIP3   OH212268   1.438   5.202   2.185
 4108TIP3    H112269   1.439   5.204   2.089
 4108TIP3    H212270   1.369   5.264   2.209
 4109TIP3   OH212271   7.525   4.202   0.857
 4109TIP3    H112272   7.430   4.209   0.862
 4109TIP3    H212273   7.549   4.251   0.778
 4110TIP3   OH212274   0.198   1.180   6.182
 4110TIP3    H112275   0.281   1.170   6.134
 4110TIP3    H212276   0.132   1.145   6.122
 4111TIP3   OH212277   2.768   3.689   6.230
 4111TIP3    H112278   2.763   3.684   6.135
 4111TIP3    H212279   2.860   3.670   6.250
 4112TIP3   OH212280   3.853   0.082   6.026
 4112TIP3    H112281   3.890  -0.006   6.018
 4112TIP3    H212282   3.928   0.137   6.052
 4113TIP3   OH212283   4.292   6.195   3.328
 4113TIP3    H112284   4.244   6.113   3.323
 4113TIP3    H212285   4.330   6.195   3.416
 4114TIP3   OH212286   7.211   3.995   5.458
 4114TIP3    H112287   7.162   3.918   5.426
 4114TIP3    H212288   7.265   4.022   5.384
 4115TIP3   OH212289   5.151   4.139   0.103
 4115TIP3    H112290   5.202   4.200   0.157
 4115TIP3    H212291   5.215   4.074   0.073
 4116TIP3   OH212292   2.406   6.210   6.290
 4116TIP3    H112293   2.370   6.204   6.201
 4116TIP3    H212294   2.484   6.155   6.287
 4117TIP3   OH212295   0.082   3.367   3.575
 4117TIP3    H112296   0.072   3.461   3.562
 4117TIP3    H212297   0.172   3.349   3.548
 4118TIP3   OH212298   4.352   1.429   1.231
 4118TIP3    H112299   4.279   1.394   1.281
 4118TIP3    H212300   4.424   1.434   1.293
 4119TIP3   OH212301   5.046   3.725   3.228
 4119TIP3    H112302   4.987   3.650   3.231
 4119TIP3    H212303   5.041   3.764   3.315
 4120TIP3   OH212304   1.089   3.309   0.233
 4120TIP3    H112305   1.029   3.257   0.286
 4120TIP3    H212306   1.080   3.273   0.145
 4121TIP3   OH212307   4.645   5.008   0.190
 4121TIP3    H112308   4.647   5.085   0.248
 4121TIP3    H212309   4.734   4.974   0.193
 4122TIP3   OH212310   2.943   7.050   1.432
 4122TIP3    H112311   3.031   7.077   1.405
 4122TIP3    H212312   2.888   7.063   1.355
 4123TIP3   OH212313   1.999   0.203   0.829
 4123TIP3    H112314   2.052   0.126   0.849
 4123TIP3    H212315   1.931   0.171   0.771
 4124TIP3   OH212316   2.408   1.075   3.085
 4124TIP3    H112317   2.370   1.140   3.145
 4124TIP3    H212318   2.347   1.073   3.011
 4125TIP3   OH212319   6.805   5.574   6.073
 4125TIP3    H112320   6.809   5.479   6.082
 4125TIP3    H212321   6.727   5.590   6.020
 4126TIP3   OH212322   1.474   0.975   1.014
 4126TIP3    H112323   1.402   0.946   0.959
 4126TIP3    H212324   1.443   1.057   1.053
 4127TIP3   OH212325   6.993   4.163   5.168
 4127TIP3    H112326   7.032   4.166   5.081
 4127TIP3    H212327   7.051   4.218   5.222
 4128TIP3   OH212328   5.649   5.756   0.891
 4128TIP3    H112329   5.686   5.806   0.819
 4128TIP3    H212330   5.647   5.816   0.965
 4129TIP3   OH212331   6.773   3.175   4.752
 4129TIP3    H112332   6.773   3.190   4.658
 4129TIP3    H212333   6.806   3.257   4.790
 4130TIP3   OH212334   7.109   7.791   3.290
 4130TIP3    H112335   7.099   7.702   3.323
 4130TIP3    H212336   7.140   7.780   3.200
 4131TIP3   OH212337   1.222   2.668   1.448
 4131TIP3    H112338   1.197   2.663   1.540
 4131TIP3    H212339   1.159   2.728   1.408
 4132TIP3   OH212340   1.033   2.199   0.938
 4132TIP3    H112341   1.025   2.272   0.877
 4132TIP3    H212342   0.949   2.197   0.984
 4133TIP3   OH212343   5.088   2.765   4.858
 4133TIP3    H112344   5.163   2.722   4.818
 4133TIP3    H212345   5.114   2.782   4.948
 4134TIP3   OH212346   6.406   0.404   2.021
 4134TIP3    H112347   6.396   0.334   2.085
 4134TIP3    H212348   6.317   0.434   2.003
 4135TIP3   OH212349   3.180   0.445   3.849
 4135TIP3    H112350   3.211   0.454   3.759
 4135TIP3    H212351   3.259   0.438   3.902
 4136TIP3   OH212352   2.247   4.468   1.178
 4136TIP3    H112353   2.246   4.413   1.100
 4136TIP3    H212354   2.230   4.407   1.250
 4137TIP3   OH212355   1.733   7.298   5.789
 4137TIP3    H112356   1.741   7.385   5.751
 4137TIP3    H212357   1.820   7.277   5.822
 4138TIP3   OH212358   6.892   1.871   1.314
 4138TIP3    H112359   6.897   1.943   1.378
 4138TIP3    H212360   6.931   1.908   1.234
 4139TIP3   OH212361   4.556   5.543   4.158
 4139TIP3    H112362   4.490   5.579   4.098
 4139TIP3    H212363   4.636   5.591   4.137
 4140TIP3   OH212364   4.522   5.218   0.977
 4140TIP3    H112365   4.496   5.307   0.997
 4140TIP3    H212366   4.536   5.217   0.883
 4141TIP3   OH212367   2.124   7.325   0.505
 4141TIP3    H112368   2.031   7.308   0.519
 4141TIP3    H212369   2.128   7.368   0.419
 4142TIP3   OH212370   7.710   1.486   3.074
 4142TIP3    H112371   7.668   1.481   3.160
 4142TIP3    H212372   7.784   1.546   3.087
 4143TIP3   OH212373   5.714   7.325   1.540
 4143TIP3    H112374   5.705   7.298   1.631
 4143TIP3    H212375   5.808   7.335   1.527
 4144TIP3   OH212376   0.527   7.664   6.446
 4144TIP3    H112377   0.494   7.633   6.531
 4144TIP3    H212378   0.461   7.726   6.416
 4145TIP3   OH212379   2.807   0.143   5.103
 4145TIP3    H112380   2.804   0.050   5.081
 4145TIP3    H212381   2.877   0.179   5.048
 4146TIP3   OH212382   4.200   0.711   1.768
 4146TIP3    H112383   4.131   0.660   1.725
 4146TIP3    H212384   4.155   0.757   1.839
 4147TIP3   OH212385   5.513   5.649   6.134
 4147TIP3    H112386   5.423   5.617   6.127
 4147TIP3    H212387   5.568   5.572   6.120
 4148TIP3   OH212388   8.212   1.812   1.645
 4148TIP3    H112389   8.296   1.777   1.614
 4148TIP3    H212390   8.147   1.749   1.613
 4149TIP3   OH212391   4.080   2.411   1.652
 4149TIP3    H112392   4.122   2.416   1.566
 4149TIP3    H212393   3.987   2.395   1.632
 4150TIP3   OH212394   8.248   5.569   0.296
 4150TIP3    H112395   8.328   5.548   0.247
 4150TIP3    H212396   8.212   5.484   0.320
 4151TIP3   OH212397   6.964   4.632   1.621
 4151TIP3    H112398   7.033   4.688   1.586
 4151TIP3    H212399   6.994   4.610   1.709
 4152TIP3   OH212400   4.366   2.490   0.890
 4152TIP3    H112401   4.458   2.489   0.866
 4152TIP3    H212402   4.325   2.426   0.832
 4153TIP3   OH212403   7.799   4.547   5.360
 4153TIP3    H112404   7.719   4.495   5.373
 4153TIP3    H212405   7.787   4.623   5.417
 4154TIP3   OH212406   7.692   3.757   0.363
 4154TIP3    H112407   7.653   3.698   0.298
 4154TIP3    H212408   7.668   3.719   0.447
 4155TIP3   OH212409   7.125   2.190   1.717
 4155TIP3    H112410   7.205   2.145   1.743
 4155TIP3    H212411   7.124   2.270   1.769
 4156TIP3   OH212412   6.679   2.117   6.344
 4156TIP3    H112413   6.738   2.072   6.283
 4156TIP3    H212414   6.650   2.195   6.296
 4157TIP3   OH212415   0.675   6.025   2.492
 4157TIP3    H112416   0.722   6.098   2.452
 4157TIP3    H212417   0.665   6.051   2.584
 4158TIP3   OH212418   1.372   0.401   1.321
 4158TIP3    H112419   1.278   0.398   1.300
 4158TIP3    H212420   1.393   0.494   1.321
 4159TIP3   OH212421   1.206   6.105   1.175
 4159TIP3    H112422   1.242   6.148   1.252
 4159TIP3    H212423   1.128   6.156   1.153
 4160TIP3   OH212424   8.065   3.175   4.437
 4160TIP3    H112425   8.137   3.192   4.376
 4160TIP3    H212426   8.019   3.100   4.400
 4161TIP3   OH212427   6.047   1.958   0.872
 4161TIP3    H112428   6.024   1.992   0.959
 4161TIP3    H212429   6.078   2.035   0.824
 4162TIP3   OH212430   1.023   6.779   4.862
 4162TIP3    H112431   1.016   6.684   4.869
 4162TIP3    H212432   1.035   6.809   4.952
 4163TIP3   OH212433   4.163   3.453   5.721
 4163TIP3    H112434   4.080   3.471   5.677
 4163TIP3    H212435   4.144   3.468   5.814
 4164TIP3   OH212436   2.323   6.504   6.749
 4164TIP3    H112437   2.359   6.443   6.684
 4164TIP3    H212438   2.300   6.448   6.823
 4165TIP3   OH212439   3.088   1.877   2.933
 4165TIP3    H112440   3.167   1.869   2.880
 4165TIP3    H212441   3.070   1.788   2.962
 4166TIP3   OH212442   7.403   3.699   1.918
 4166TIP3    H112443   7.473   3.702   1.853
 4166TIP3    H212444   7.326   3.733   1.871
 4167TIP3   OH212445   4.316   7.187   3.939
 4167TIP3    H112446   4.284   7.103   3.904
 4167TIP3    H212447   4.315   7.246   3.863
 4168TIP3   OH212448   3.257   3.626   2.020
 4168TIP3    H112449   3.185   3.569   2.048
 4168TIP3    H212450   3.306   3.573   1.957
 4169TIP3   OH212451   6.361   2.539   6.426
 4169TIP3    H112452   6.295   2.568   6.489
 4169TIP3    H212453   6.431   2.605   6.433
 4170TIP3   OH212454   2.432   4.324   0.696
 4170TIP3    H112455   2.347   4.309   0.655
 4170TIP3    H212456   2.487   4.252   0.664
 4171TIP3   OH212457   0.767   5.191   4.937
 4171TIP3    H112458   0.741   5.235   4.856
 4171TIP3    H212459   0.861   5.177   4.928
 4172TIP3   OH212460   3.244   3.235   2.624
 4172TIP3    H112461   3.239   3.309   2.563
 4172TIP3    H212462   3.222   3.273   2.709
 4173TIP3   OH212463   1.187   4.778   4.037
 4173TIP3    H112464   1.110   4.795   3.983
 4173TIP3    H212465   1.224   4.864   4.054
 4174TIP3   OH212466   5.525   3.765   5.834
 4174TIP3    H112467   5.563   3.839   5.882
 4174TIP3    H212468   5.551   3.781   5.743
 4175TIP3   OH212469   4.067   2.616   1.355
 4175TIP3    H112470   3.986   2.606   1.305
 4175TIP3    H212471   4.137   2.598   1.291
 4176TIP3   OH212472   0.281   1.633   3.598
 4176TIP3    H112473   0.304   1.593   3.514
 4176TIP3    H212474   0.275   1.727   3.578
 4177TIP3   OH212475   6.608   1.332   3.787
 4177TIP3    H112476   6.666   1.260   3.813
 4177TIP3    H212477   6.561   1.298   3.711
 4178TIP3   OH212478   8.187   3.931   0.946
 4178TIP3    H112479   8.239   3.866   0.900
 4178TIP3    H212480   8.213   3.923   1.038
 4179TIP3   OH212481   4.578   3.514   5.198
 4179TIP3    H112482   4.653   3.573   5.187
 4179TIP3    H212483   4.550   3.494   5.109
 4180TIP3   OH212484   5.596   6.527   3.057
 4180TIP3    H112485   5.525   6.584   3.088
 4180TIP3    H212486   5.604   6.547   2.964
 4181TIP3   OH212487   4.228   5.141   1.723
 4181TIP3    H112488   4.230   5.227   1.766
 4181TIP3    H212489   4.142   5.106   1.743
 4182TIP3   OH212490   2.163   1.663   6.466
 4182TIP3    H112491   2.161   1.567   6.463
 4182TIP3    H212492   2.203   1.684   6.550
 4183TIP3   OH212493   1.577   3.479   3.545
 4183TIP3    H112494   1.511   3.416   3.572
 4183TIP3    H212495   1.658   3.448   3.584
 4184TIP3   OH212496   5.171   0.613   5.220
 4184TIP3    H112497   5.240   0.549   5.204
 4184TIP3    H212498   5.188   0.682   5.154
 4185TIP3   OH212499   2.627   1.543   2.408
 4185TIP3    H112500   2.716   1.577   2.410
 4185TIP3    H212501   2.572   1.622   2.402
 4186TIP3   OH212502   3.389   2.595   5.913
 4186TIP3    H112503   3.379   2.672   5.970
 4186TIP3    H212504   3.338   2.616   5.835
 4187TIP3   OH212505   1.509   2.336   4.215
 4187TIP3    H112506   1.438   2.275   4.234
 4187TIP3    H212507   1.583   2.281   4.189
 4188TIP3   OH212508   3.377   3.747   5.131
 4188TIP3    H112509   3.322   3.785   5.063
 4188TIP3    H212510   3.316   3.716   5.197
 4189TIP3   OH212511   6.840   3.419   6.782
 4189TIP3    H112512   6.810   3.406   6.692
 4189TIP3    H212513   6.869   3.333   6.811
 4190TIP3   OH212514   7.177   3.284   5.763
 4190TIP3    H112515   7.142   3.206   5.806
 4190TIP3    H212516   7.233   3.250   5.693
 4191TIP3   OH212517   4.497   3.687   3.358
 4191TIP3    H112518   4.550   3.724   3.428
 4191TIP3    H212519   4.545   3.706   3.278
 4192TIP3   OH212520   5.964   1.172   0.820
 4192TIP3    H112521   5.874   1.140   0.816
 4192TIP3    H212522   5.955   1.266   0.840
 4193TIP3   OH212523   5.481   1.909   0.073
 4193TIP3    H112524   5.523   1.871  -0.004
 4193TIP3    H212525   5.503   2.002   0.068
 4194TIP3   OH212526   5.673   6.406   1.130
 4194TIP3    H112527   5.663   6.333   1.191
 4194TIP3    H212528   5.589   6.411   1.085
 4195TIP3   OH212529   3.911   7.258   0.660
 4195TIP3    H112530   3.860   7.208   0.724
 4195TIP3    H212531   3.899   7.349   0.685
 4196TIP3   OH212532   1.933   5.049   6.214
 4196TIP3    H112533   1.856   5.021   6.164
 4196TIP3    H212534   1.909   5.137   6.245
 4197TIP3   OH212535   5.383   0.103   3.433
 4197TIP3    H112536   5.460   0.097   3.377
 4197TIP3    H212537   5.406   0.052   3.511
 4198TIP3   OH212538   4.243   7.079   1.941
 4198TIP3    H112539   4.188   7.026   1.885
 4198TIP3    H212540   4.241   7.167   1.902
 4199TIP3   OH212541   6.608   3.791   1.830
 4199TIP3    H112542   6.643   3.781   1.918
 4199TIP3    H212543   6.675   3.842   1.784
 4200TIP3   OH212544   7.836   6.418   6.337
 4200TIP3    H112545   7.793   6.360   6.400
 4200TIP3    H212546   7.849   6.364   6.259
 4201TIP3   OH212547   5.253   3.640   4.731
 4201TIP3    H112548   5.242   3.555   4.774
 4201TIP3    H212549   5.324   3.626   4.669
 4202TIP3   OH212550   4.629   4.381   4.512
 4202TIP3    H112551   4.641   4.475   4.525
 4202TIP3    H212552   4.717   4.344   4.519
 4203TIP3   OH212553   3.166   3.376   5.318
 4203TIP3    H112554   3.090   3.336   5.274
 4203TIP3    H212555   3.241   3.346   5.268
 4204TIP3   OH212556   1.454   2.841   2.899
 4204TIP3    H112557   1.391   2.914   2.906
 4204TIP3    H212558   1.400   2.765   2.877
 4205TIP3   OH212559   5.233   4.844   4.485
 4205TIP3    H112560   5.298   4.781   4.454
 4205TIP3    H212561   5.177   4.793   4.543
 4206TIP3   OH212562   8.256   3.592   5.313
 4206TIP3    H112563   8.238   3.657   5.244
 4206TIP3    H212564   8.175   3.540   5.317
 4207TIP3   OH212565   6.657   5.707   1.677
 4207TIP3    H112566   6.630   5.656   1.753
 4207TIP3    H212567   6.577   5.718   1.625
 4208TIP3   OH212568   4.172   7.716   4.928
 4208TIP3    H112569   4.222   7.647   4.971
 4208TIP3    H212570   4.096   7.730   4.985
 4209TIP3   OH212571   0.930   5.692   5.683
 4209TIP3    H112572   0.891   5.771   5.719
 4209TIP3    H212573   0.943   5.711   5.590
 4210TIP3   OH212574   4.462   4.025   1.792
 4210TIP3    H112575   4.498   3.984   1.871
 4210TIP3    H212576   4.371   3.995   1.789
 4211TIP3   OH212577   4.268   5.469   2.686
 4211TIP3    H112578   4.203   5.409   2.649
 4211TIP3    H212579   4.327   5.489   2.613
 4212TIP3   OH212580   5.718   0.697   0.778
 4212TIP3    H112581   5.645   0.729   0.832
 4212TIP3    H212582   5.795   0.743   0.813
 4213TIP3   OH212583   4.428   6.025   5.529
 4213TIP3    H112584   4.339   6.043   5.561
 4213TIP3    H212585   4.439   6.085   5.456
 4214TIP3   OH212586   2.906   2.758   4.654
 4214TIP3    H112587   2.970   2.809   4.605
 4214TIP3    H212588   2.951   2.734   4.735
 4215TIP3   OH212589   2.211   0.938   4.885
 4215TIP3    H112590   2.120   0.910   4.893
 4215TIP3    H212591   2.259   0.858   4.863
 4216TIP3   OH212592   3.564   0.940   0.791
 4216TIP3    H112593   3.483   0.985   0.767
 4216TIP3    H212594   3.623   0.955   0.717
 4217TIP3   OH212595   3.243   5.658   5.814
 4217TIP3    H112596   3.263   5.751   5.806
 4217TIP3    H212597   3.293   5.617   5.744
 4218TIP3   OH212598   0.466   0.848   3.661
 4218TIP3    H112599   0.498   0.874   3.574
 4218TIP3    H212600   0.378   0.886   3.667
 4219TIP3   OH212601   2.159   1.023   5.626
 4219TIP3    H112602   2.157   0.969   5.704
 4219TIP3    H212603   2.078   1.075   5.631
 4220TIP3   OH212604   8.321   4.230   0.196
 4220TIP3    H112605   8.309   4.182   0.115
 4220TIP3    H212606   8.235   4.229   0.238
 4221TIP3   OH212607   7.530   5.334   5.762
 4221TIP3    H112608   7.578   5.251   5.759
 4221TIP3    H212609   7.438   5.309   5.752
 4222TIP3   OH212610   1.740   1.331   5.438
 4222TIP3    H112611   1.786   1.411   5.461
 4222TIP3    H212612   1.774   1.308   5.351
 4223TIP3   OH212613   1.111   3.206   1.054
 4223TIP3    H112614   1.043   3.160   1.004
 4223TIP3    H212615   1.071   3.222   1.139
 4224TIP3   OH212616   6.645   0.073   6.005
 4224TIP3    H112617   6.586   0.144   5.981
 4224TIP3    H212618   6.591   0.012   6.055
 4225TIP3   OH212619   2.447   0.943   0.386
 4225TIP3    H112620   2.503   0.999   0.333
 4225TIP3    H212621   2.365   0.992   0.394
 4226TIP3   OH212622   6.755   4.508   6.059
 4226TIP3    H112623   6.721   4.593   6.085
 4226TIP3    H212624   6.817   4.527   5.989
 4227TIP3   OH212625   6.290   6.689   5.229
 4227TIP3    H112626   6.260   6.742   5.303
 4227TIP3    H212627   6.210   6.655   5.189
 4228TIP3   OH212628   3.425   6.599   4.334
 4228TIP3    H112629   3.333   6.583   4.312
 4228TIP3    H212630   3.422   6.662   4.406
 4229TIP3   OH212631   7.440   1.449   1.336
 4229TIP3    H112632   7.375   1.488   1.278
 4229TIP3    H212633   7.520   1.445   1.282
 4230TIP3   OH212634   3.366   5.813   3.877
 4230TIP3    H112635   3.448   5.862   3.868
 4230TIP3    H212636   3.394   5.722   3.890
 4231TIP3   OH212637   1.397   5.125   0.699
 4231TIP3    H112638   1.442   5.138   0.616
 4231TIP3    H212639   1.383   5.030   0.704
 4232TIP3   OH212640   4.068   1.495   5.473
 4232TIP3    H112641   3.984   1.537   5.489
 4232TIP3    H212642   4.131   1.567   5.467
 4233TIP3   OH212643   2.091   0.281   1.440
 4233TIP3    H112644   2.086   0.286   1.344
 4233TIP3    H212645   2.144   0.356   1.465
 4234TIP3   OH212646   3.798   0.328   1.629
 4234TIP3    H112647   3.861   0.282   1.685
 4234TIP3    H212648   3.721   0.272   1.630
 4235TIP3   OH212649   0.401   4.621   6.462
 4235TIP3    H112650   0.318   4.668   6.464
 4235TIP3    H212651   0.378   4.529   6.471
 4236TIP3   OH212652   1.488   2.965   3.814
 4236TIP3    H112653   1.530   3.004   3.890
 4236TIP3    H212654   1.416   2.914   3.850
 4237TIP3   OH212655   4.764   3.418   6.549
 4237TIP3    H112656   4.682   3.466   6.541
 4237TIP3    H212657   4.821   3.457   6.482
 4238TIP3   OH212658   6.707   0.323   5.461
 4238TIP3    H112659   6.622   0.365   5.472
 4238TIP3    H212660   6.767   0.377   5.513
 4239TIP3   OH212661   4.118   3.876   5.187
 4239TIP3    H112662   4.045   3.815   5.185
 4239TIP3    H212663   4.082   3.958   5.152
 4240TIP3   OH212664   6.131   5.698   2.704
 4240TIP3    H112665   6.129   5.647   2.623
 4240TIP3    H212666   6.211   5.750   2.698
 4241TIP3   OH212667   3.508   2.746   1.606
 4241TIP3    H112668   3.521   2.707   1.519
 4241TIP3    H212669   3.594   2.742   1.648
 4242TIP3   OH212670   3.871   4.278   3.477
 4242TIP3    H112671   3.879   4.190   3.513
 4242TIP3    H212672   3.858   4.335   3.553
 4243TIP3   OH212673   7.784   3.187   3.756
 4243TIP3    H112674   7.764   3.263   3.811
 4243TIP3    H212675   7.806   3.118   3.817
 4244TIP3   OH212676   5.311   6.849   1.527
 4244TIP3    H112677   5.401   6.872   1.549
 4244TIP3    H212678   5.310   6.754   1.525
 4245TIP3   OH212679   4.646   5.149   3.893
 4245TIP3    H112680   4.639   5.055   3.880
 4245TIP3    H212681   4.740   5.165   3.905
 4246TIP3   OH212682   1.606   2.215   2.370
 4246TIP3    H112683   1.617   2.263   2.452
 4246TIP3    H212684   1.535   2.153   2.388
 4247TIP3   OH212685   0.404   0.192   0.476
 4247TIP3    H112686   0.448   0.149   0.403
 4247TIP3    H212687   0.476   0.223   0.532
 4248TIP3   OH212688   4.867   2.256   5.258
 4248TIP3    H112689   4.886   2.163   5.268
 4248TIP3    H212690   4.861   2.290   5.347
 4249TIP3   OH212691   1.149   1.561   4.962
 4249TIP3    H112692   1.054   1.547   4.964
 4249TIP3    H212693   1.165   1.626   5.031
 4250TIP3   OH212694   7.033   2.221   0.297
 4250TIP3    H112695   7.003   2.140   0.255
 4250TIP3    H212696   6.988   2.290   0.249
 4251TIP3   OH212697   6.525   2.006   2.522
 4251TIP3    H112698   6.568   2.017   2.437
 4251TIP3    H212699   6.433   1.993   2.501
 4252TIP3   OH212700   5.379   5.190   2.114
 4252TIP3    H112701   5.382   5.285   2.105
 4252TIP3    H212702   5.392   5.157   2.025
 4253TIP3   OH212703   6.659   4.851   3.540
 4253TIP3    H112704   6.745   4.848   3.583
 4253TIP3    H212705   6.624   4.763   3.553
 4254TIP3   OH212706   1.286   2.965   4.564
 4254TIP3    H112707   1.230   3.039   4.587
 4254TIP3    H212708   1.253   2.892   4.616
 4255TIP3   OH212709   4.648   6.364   6.194
 4255TIP3    H112710   4.687   6.439   6.148
 4255TIP3    H212711   4.720   6.301   6.200
 4256TIP3   OH212712   0.484   7.685   6.743
 4256TIP3    H112713   0.528   7.769   6.754
 4256TIP3    H212714   0.391   7.704   6.760
 4257TIP3   OH212715   4.274   2.033   4.890
 4257TIP3    H112716   4.210   2.008   4.956
 4257TIP3    H212717   4.223   2.067   4.817
 4258TIP3   OH212718   7.311   2.770   6.209
 4258TIP3    H112719   7.268   2.732   6.286
 4258TIP3    H212720   7.328   2.861   6.233
 4259TIP3   OH212721   7.982   5.596   3.590
 4259TIP3    H112722   8.064   5.557   3.559
 4259TIP3    H212723   7.914   5.552   3.541
 4260TIP3   OH212724   8.249   2.382   1.218
 4260TIP3    H112725   8.333   2.386   1.265
 4260TIP3    H212726   8.205   2.305   1.254
 4261TIP3   OH212727   5.848   5.769   2.321
 4261TIP3    H112728   5.903   5.693   2.341
 4261TIP3    H212729   5.759   5.739   2.338
 4262TIP3   OH212730   2.125   4.073   3.915
 4262TIP3    H112731   2.191   4.130   3.875
 4262TIP3    H212732   2.171   3.990   3.930
 4263TIP3   OH212733   3.281   0.693   3.667
 4263TIP3    H112734   3.356   0.673   3.723
 4263TIP3    H212735   3.301   0.780   3.631
 4264TIP3   OH212736   4.504   0.847   1.263
 4264TIP3    H112737   4.490   0.755   1.281
 4264TIP3    H212738   4.422   0.889   1.288
 4265TIP3   OH212739   7.418   3.877   6.582
 4265TIP3    H112740   7.385   3.846   6.667
 4265TIP3    H212741   7.485   3.942   6.605
 4266TIP3   OH212742   7.326   5.901   5.210
 4266TIP3    H112743   7.287   5.818   5.236
 4266TIP3    H212744   7.261   5.941   5.152
 4267TIP3   OH212745   5.719   1.473   4.153
 4267TIP3    H112746   5.694   1.385   4.181
 4267TIP3    H212747   5.750   1.462   4.063
 4268TIP3   OH212748   3.249   3.743   3.337
 4268TIP3    H112749   3.256   3.819   3.279
 4268TIP3    H212750   3.185   3.769   3.403
 4269TIP3   OH212751   1.643   5.690   6.200
 4269TIP3    H112752   1.586   5.614   6.210
 4269TIP3    H212753   1.628   5.741   6.280
 4270TIP3   OH212754   3.011   1.983   5.281
 4270TIP3    H112755   3.062   1.906   5.309
 4270TIP3    H212756   2.933   1.981   5.337
 4271TIP3   OH212757   0.600   1.576   4.425
 4271TIP3    H112758   0.614   1.500   4.368
 4271TIP3    H212759   0.518   1.614   4.394
 4272TIP3   OH212760   4.216   3.350   0.622
 4272TIP3    H112761   4.261   3.290   0.681
 4272TIP3    H212762   4.274   3.357   0.546
 4273TIP3   OH212763   4.826   1.160   1.185
 4273TIP3    H112764   4.769   1.096   1.142
 4273TIP3    H212765   4.899   1.172   1.125
 4274TIP3   OH212766   2.312   4.987   0.787
 4274TIP3    H112767   2.329   4.981   0.881
 4274TIP3    H212768   2.397   5.008   0.748
 4275TIP3   OH212769   2.419   3.584   4.875
 4275TIP3    H112770   2.385   3.531   4.948
 4275TIP3    H212771   2.354   3.653   4.863
 4276TIP3   OH212772   0.361   0.463   0.381
 4276TIP3    H112773   0.391   0.484   0.470
 4276TIP3    H212774   0.359   0.367   0.379
 4277TIP3   OH212775   1.862   0.623   5.644
 4277TIP3    H112776   1.873   0.653   5.554
 4277TIP3    H212777   1.772   0.647   5.667
 4278TIP3   OH212778   2.802   0.605   3.481
 4278TIP3    H112779   2.727   0.603   3.421
 4278TIP3    H212780   2.848   0.685   3.458
 4279TIP3   OH212781   4.083   6.394   3.801
 4279TIP3    H112782   4.077   6.405   3.896
 4279TIP3    H212783   3.992   6.390   3.772
 4280TIP3   OH212784   1.514   3.847   4.816
 4280TIP3    H112785   1.507   3.875   4.725
 4280TIP3    H212786   1.567   3.916   4.858
 4281TIP3   OH212787   4.971   1.135   0.970
 4281TIP3    H112788   4.950   1.044   0.990
 4281TIP3    H212789   4.982   1.138   0.875
 4282TIP3   OH212790   5.183   0.133   1.479
 4282TIP3    H112791   5.102   0.083   1.467
 4282TIP3    H212792   5.186   0.193   1.404
 4283TIP3   OH212793   2.536   4.128   1.901
 4283TIP3    H112794   2.441   4.120   1.891
 4283TIP3    H212795   2.556   4.083   1.983
 4284TIP3   OH212796   1.763   5.286   6.331
 4284TIP3    H112797   1.729   5.266   6.243
 4284TIP3    H212798   1.690   5.265   6.390
 4285TIP3   OH212799   2.831   5.476   6.576
 4285TIP3    H112800   2.867   5.389   6.558
 4285TIP3    H212801   2.764   5.489   6.508
 4286TIP3   OH212802   4.185   0.308   4.165
 4286TIP3    H112803   4.140   0.365   4.228
 4286TIP3    H212804   4.224   0.369   4.102
 4287TIP3   OH212805   3.095   5.814   5.220
 4287TIP3    H112806   3.070   5.780   5.306
 4287TIP3    H212807   3.016   5.857   5.188
 4288TIP3   OH212808   7.451   6.017   4.319
 4288TIP3    H112809   7.458   6.027   4.224
 4288TIP3    H212810   7.447   5.922   4.332
 4289TIP3   OH212811   6.151   4.726   6.317
 4289TIP3    H112812   6.186   4.785   6.384
 4289TIP3    H212813   6.170   4.638   6.350
 4290TIP3   OH212814   4.350   5.363   3.524
 4290TIP3    H112815   4.380   5.337   3.437
 4290TIP3    H212816   4.418   5.331   3.583
 4291TIP3   OH212817   5.402   6.452   4.085
 4291TIP3    H112818   5.419   6.363   4.055
 4291TIP3    H212819   5.325   6.480   4.034
 4292TIP3   OH212820   4.337   5.321   5.646
 4292TIP3    H112821   4.385   5.250   5.688
 4292TIP3    H212822   4.252   5.282   5.624
 4293TIP3   OH212823   6.830   2.460   4.432
 4293TIP3    H112824   6.795   2.546   4.408
 4293TIP3    H212825   6.768   2.398   4.393
 4294TIP3   OH212826   5.203   4.776   4.109
 4294TIP3    H112827   5.162   4.734   4.034
 4294TIP3    H212828   5.231   4.703   4.165
 4295TIP3   OH212829   6.704   1.541   4.243
 4295TIP3    H112830   6.617   1.562   4.209
 4295TIP3    H212831   6.691   1.530   4.337
 4296TIP3   OH212832   7.656   3.931   2.424
 4296TIP3    H112833   7.576   3.980   2.438
 4296TIP3    H212834   7.719   3.995   2.392
 4297TIP3   OH212835   4.314   3.196   3.232
 4297TIP3    H112836   4.382   3.129   3.239
 4297TIP3    H212837   4.356   3.275   3.267
 4298TIP3   OH212838   7.956   0.035   2.642
 4298TIP3    H112839   7.957   0.091   2.564
 4298TIP3    H212840   7.863   0.027   2.665
 4299TIP3   OH212841   1.795   5.312   0.088
 4299TIP3    H112842   1.753   5.271   0.163
 4299TIP3    H212843   1.727   5.314   0.020
 4300TIP3   OH212844   3.788   5.772   5.837
 4300TIP3    H112845   3.750   5.798   5.753
 4300TIP3    H212846   3.749   5.833   5.900
 4301TIP3   OH212847   3.998   3.014   1.290
 4301TIP3    H112848   3.920   2.967   1.320
 4301TIP3    H212849   4.049   2.947   1.244
 4302TIP3   OH212850   4.206   5.755   2.488
 4302TIP3    H112851   4.180   5.843   2.463
 4302TIP3    H212852   4.294   5.745   2.450
 4303TIP3   OH212853   5.472   3.632   4.522
 4303TIP3    H112854   5.543   3.638   4.458
 4303TIP3    H212855   5.451   3.539   4.526
 4304TIP3   OH212856   4.220   1.812   6.036
 4304TIP3    H112857   4.209   1.786   6.128
 4304TIP3    H212858   4.227   1.908   6.040
 4305TIP3   OH212859   4.767   4.732   0.494
 4305TIP3    H112860   4.760   4.701   0.404
 4305TIP3    H212861   4.726   4.663   0.547
 4306TIP3   OH212862   5.185   5.568   1.153
 4306TIP3    H112863   5.275   5.534   1.151
 4306TIP3    H212864   5.157   5.556   1.244
 4307TIP3   OH212865   7.208   5.378   1.435
 4307TIP3    H112866   7.222   5.467   1.467
 4307TIP3    H212867   7.115   5.375   1.412
 4308TIP3   OH212868   4.098   5.605   3.571
 4308TIP3    H112869   4.073   5.515   3.551
 4308TIP3    H212870   4.184   5.615   3.530
 4309TIP3   OH212871   4.578   6.423   5.134
 4309TIP3    H112872   4.633   6.345   5.137
 4309TIP3    H212873   4.491   6.390   5.114
 4310TIP3   OH212874   2.969   3.206   5.641
 4310TIP3    H112875   3.051   3.251   5.662
 4310TIP3    H212876   2.931   3.184   5.726
 4311TIP3   OH212877   0.606   0.540   5.582
 4311TIP3    H112878   0.656   0.621   5.577
 4311TIP3    H212879   0.623   0.497   5.498
 4312TIP3   OH212880   5.288   3.008   4.510
 4312TIP3    H112881   5.367   3.002   4.563
 4312TIP3    H212882   5.311   3.070   4.440
 4313TIP3   OH212883   1.800   2.957   6.137
 4313TIP3    H112884   1.892   2.931   6.137
 4313TIP3    H212885   1.752   2.874   6.137
 4314TIP3   OH212886   8.209   7.148   4.992
 4314TIP3    H112887   8.228   7.158   4.899
 4314TIP3    H212888   8.278   7.089   5.024
 4315TIP3   OH212889   5.655   3.817   0.478
 4315TIP3    H112890   5.696   3.775   0.403
 4315TIP3    H212891   5.561   3.812   0.461
 4316TIP3   OH212892   0.514   6.578   2.242
 4316TIP3    H112893   0.497   6.626   2.323
 4316TIP3    H212894   0.578   6.632   2.195
 4317TIP3   OH212895   4.444   7.680   3.997
 4317TIP3    H112896   4.461   7.672   4.091
 4317TIP3    H212897   4.523   7.645   3.955
 4318TIP3   OH212898   4.480   1.399   6.484
 4318TIP3    H112899   4.398   1.403   6.434
 4318TIP3    H212900   4.467   1.326   6.545
 4319TIP3   OH212901   2.689   2.991   2.348
 4319TIP3    H112902   2.767   2.949   2.383
 4319TIP3    H212903   2.630   2.998   2.424
 4320TIP3   OH212904   3.932   7.303   4.196
 4320TIP3    H112905   3.958   7.323   4.107
 4320TIP3    H212906   3.903   7.387   4.233
 4321TIP3   OH212907   5.697   6.399   0.459
 4321TIP3    H112908   5.766   6.385   0.524
 4321TIP3    H212909   5.743   6.399   0.375
 4322TIP3   OH212910   2.747   0.320   2.379
 4322TIP3    H112911   2.725   0.408   2.347
 4322TIP3    H212912   2.780   0.274   2.301
 4323TIP3   OH212913   8.086   5.825   0.607
 4323TIP3    H112914   8.065   5.917   0.624
 4323TIP3    H212915   8.077   5.783   0.692
 4324TIP3   OH212916   4.127   2.479   5.260
 4324TIP3    H112917   4.126   2.384   5.272
 4324TIP3    H212918   4.081   2.513   5.336
 4325TIP3   OH212919   4.073   5.895   6.675
 4325TIP3    H112920   4.157   5.904   6.630
 4325TIP3    H212921   4.073   5.807   6.711
 4326TIP3   OH212922   1.516   3.868   5.604
 4326TIP3    H112923   1.493   3.780   5.575
 4326TIP3    H212924   1.565   3.854   5.685
 4327TIP3   OH212925   0.542   5.408   2.140
 4327TIP3    H112926   0.546   5.403   2.236
 4327TIP3    H212927   0.459   5.451   2.122
 4328TIP3   OH212928   4.022   5.361   5.983
 4328TIP3    H112929   4.000   5.287   6.040
 4328TIP3    H212930   4.106   5.392   6.017
 4329TIP3   OH212931   4.138   6.022   2.432
 4329TIP3    H112932   4.173   6.093   2.485
 4329TIP3    H212933   4.164   6.044   2.342
 4330TIP3   OH212934   7.021   0.029   3.870
 4330TIP3    H112935   7.027   0.123   3.883
 4330TIP3    H212936   7.076  -0.008   3.939
 4331TIP3   OH212937   2.695   6.142   1.121
 4331TIP3    H112938   2.756   6.145   1.047
 4331TIP3    H212939   2.748   6.116   1.195
 4332TIP3   OH212940   0.860   1.329   3.875
 4332TIP3    H112941   0.777   1.300   3.836
 4332TIP3    H212942   0.927   1.279   3.830
 4333TIP3   OH212943   2.786   5.015   2.727
 4333TIP3    H112944   2.812   5.088   2.671
 4333TIP3    H212945   2.863   4.957   2.729
 4334TIP3   OH212946   4.324   0.123   6.169
 4334TIP3    H112947   4.325   0.217   6.155
 4334TIP3    H212948   4.363   0.111   6.256
 4335TIP3   OH212949   1.303   2.953   0.040
 4335TIP3    H112950   1.367   2.912   0.098
 4335TIP3    H212951   1.283   3.036   0.082
 4336TIP3   OH212952   0.291   3.793   6.148
 4336TIP3    H112953   0.256   3.818   6.062
 4336TIP3    H212954   0.326   3.705   6.135
 4337TIP3   OH212955   4.986   1.248   4.603
 4337TIP3    H112956   5.066   1.197   4.619
 4337TIP3    H212957   5.016   1.338   4.593
 4338TIP3   OH212958   1.850   5.752   3.558
 4338TIP3    H112959   1.822   5.702   3.481
 4338TIP3    H212960   1.783   5.819   3.569
 4339TIP3   OH212961   1.706   4.489   3.891
 4339TIP3    H112962   1.732   4.575   3.926
 4339TIP3    H212963   1.789   4.445   3.873
 4340TIP3   OH212964   2.319   6.454   4.839
 4340TIP3    H112965   2.282   6.399   4.770
 4340TIP3    H212966   2.409   6.471   4.811
 4341TIP3   OH212967   3.480   3.500   5.041
 4341TIP3    H112968   3.440   3.421   5.076
 4341TIP3    H212969   3.437   3.572   5.088
 4342TIP3   OH212970   3.176   1.786   5.405
 4342TIP3    H112971   3.181   1.691   5.406
 4342TIP3    H212972   3.266   1.815   5.392
 4343TIP3   OH212973   7.811   5.777   4.063
 4343TIP3    H112974   7.801   5.704   4.001
 4343TIP3    H212975   7.862   5.740   4.135
 4344TIP3   OH212976   5.394   1.777   4.075
 4344TIP3    H112977   5.350   1.861   4.080
 4344TIP3    H212978   5.325   1.712   4.090
 4345TIP3   OH212979   7.865   6.903   1.006
 4345TIP3    H112980   7.900   6.893   0.918
 4345TIP3    H212981   7.939   6.883   1.064
 4346TIP3   OH212982   5.772   7.760   2.321
 4346TIP3    H112983   5.785   7.829   2.256
 4346TIP3    H212984   5.702   7.705   2.284
 4347TIP3   OH212985   2.910   6.733   0.222
 4347TIP3    H112986   2.852   6.657   0.217
 4347TIP3    H212987   2.928   6.754   0.130
 4348TIP3   OH212988   3.755   2.593   6.486
 4348TIP3    H112989   3.801   2.556   6.562
 4348TIP3    H212990   3.802   2.558   6.410
 4349TIP3   OH212991   4.850   3.207   5.405
 4349TIP3    H112992   4.932   3.160   5.391
 4349TIP3    H212993   4.804   3.199   5.322
 4350TIP3   OH212994   3.998   6.534   1.637
 4350TIP3    H112995   4.071   6.487   1.597
 4350TIP3    H212996   3.971   6.479   1.710
 4351TIP3   OH212997   1.967   5.584   0.566
 4351TIP3    H112998   2.006   5.519   0.508
 4351TIP3    H212999   2.027   5.658   0.562
 4352TIP3   OH213000   4.494   1.423   4.298
 4352TIP3    H113001   4.567   1.367   4.274
 4352TIP3    H213002   4.468   1.465   4.216
 4353TIP3   OH213003   6.914   6.298   4.894
 4353TIP3    H113004   6.877   6.331   4.812
 4353TIP3    H213005   7.001   6.340   4.899
 4354TIP3   OH213006   6.158   1.954   3.632
 4354TIP3    H113007   6.226   2.011   3.667
 4354TIP3    H213008   6.120   2.003   3.559
 4355TIP3   OH213009   4.322   3.479   0.246
 4355TIP3    H113010   4.323   3.384   0.247
 4355TIP3    H213011   4.322   3.502   0.153
 4356TIP3   OH213012   4.760   1.670   5.336
 4356TIP3    H113013   4.838   1.661   5.282
 4356TIP3    H213014   4.727   1.757   5.316
 4357TIP3   OH213015   5.860   5.833   0.316
 4357TIP3    H113016   5.801   5.890   0.266
 4357TIP3    H213017   5.947   5.850   0.278
 4358TIP3   OH213018   8.025   5.226   2.336
 4358TIP3    H113019   8.048   5.136   2.312
 4358TIP3    H213020   8.064   5.238   2.422
 4359TIP3   OH213021   5.873   6.382   1.798
 4359TIP3    H113022   5.845   6.331   1.874
 4359TIP3    H213023   5.899   6.467   1.833
 4360TIP3   OH213024   6.428   4.312   1.222
 4360TIP3    H113025   6.357   4.346   1.276
 4360TIP3    H213026   6.507   4.330   1.272
 4361TIP3   OH213027   2.239   6.533   3.656
 4361TIP3    H113028   2.237   6.495   3.744
 4361TIP3    H213029   2.296   6.475   3.607
 4362TIP3   OH213030   1.841   7.182   5.084
 4362TIP3    H113031   1.869   7.195   4.993
 4362TIP3    H213032   1.913   7.218   5.136
 4363TIP3   OH213033   3.264   2.006   1.051
 4363TIP3    H113034   3.238   2.078   0.993
 4363TIP3    H213035   3.218   1.930   1.017
 4364TIP3   OH213036   7.406   6.151   1.375
 4364TIP3    H113037   7.425   6.062   1.403
 4364TIP3    H213038   7.485   6.181   1.331
 4365TIP3   OH213039   3.399   6.842   1.001
 4365TIP3    H113040   3.426   6.766   0.949
 4365TIP3    H213041   3.463   6.846   1.072
 4366TIP3   OH213042   7.662   4.341   6.610
 4366TIP3    H113043   7.613   4.361   6.690
 4366TIP3    H213044   7.594   4.319   6.545
 4367TIP3   OH213045   5.001   4.878   1.323
 4367TIP3    H113046   5.026   4.836   1.240
 4367TIP3    H213047   5.044   4.963   1.320
 4368TIP3   OH213048   3.191   2.971   2.628
 4368TIP3    H113049   3.194   3.066   2.615
 4368TIP3    H213050   3.191   2.935   2.539
 4369TIP3   OH213051   7.805   7.594   5.622
 4369TIP3    H113052   7.786   7.681   5.588
 4369TIP3    H213053   7.727   7.571   5.673
 4370TIP3   OH213054   7.211   4.804   4.165
 4370TIP3    H113055   7.246   4.877   4.115
 4370TIP3    H213056   7.276   4.788   4.234
 4371TIP3   OH213057   0.074   1.832   1.910
 4371TIP3    H113058   0.060   1.747   1.870
 4371TIP3    H213059   0.014   1.891   1.864
 4372TIP3   OH213060   0.858   7.503   4.027
 4372TIP3    H113061   0.823   7.469   4.109
 4372TIP3    H213062   0.950   7.475   4.027
 4373TIP3   OH213063   8.292   1.843   4.158
 4373TIP3    H113064   8.348   1.896   4.102
 4373TIP3    H213065   8.203   1.874   4.141
 4374TIP3   OH213066   5.961   0.337   1.050
 4374TIP3    H113067   6.015   0.361   1.125
 4374TIP3    H213068   5.871   0.353   1.078
 4375TIP3   OH213069   1.291   5.482   6.730
 4375TIP3    H113070   1.233   5.538   6.782
 4375TIP3    H213071   1.377   5.491   6.771
 4376TIP3   OH213072   3.009   2.764   3.306
 4376TIP3    H113073   3.006   2.700   3.377
 4376TIP3    H213074   3.102   2.787   3.299
 4377TIP3   OH213075   3.787   2.108   0.930
 4377TIP3    H113076   3.812   2.047   0.861
 4377TIP3    H213077   3.821   2.069   1.010
 4378TIP3   OH213078   3.976   0.085   2.274
 4378TIP3    H113079   4.040   0.050   2.212
 4378TIP3    H213080   4.010   0.170   2.299
 4379TIP3   OH213081   5.644   6.074   1.770
 4379TIP3    H113082   5.611   5.993   1.808
 4379TIP3    H213083   5.597   6.084   1.688
 4380TIP3   OH213084   0.250   2.122   1.147
 4380TIP3    H113085   0.289   2.035   1.142
 4380TIP3    H213086   0.177   2.111   1.209
 4381TIP3   OH213087   0.581   1.520   1.915
 4381TIP3    H113088   0.508   1.560   1.963
 4381TIP3    H213089   0.567   1.426   1.923
 4382TIP3   OH213090   1.092   0.551   4.573
 4382TIP3    H113091   1.187   0.557   4.564
 4382TIP3    H213092   1.077   0.551   4.667
 4383TIP3   OH213093   4.127   7.009   4.870
 4383TIP3    H113094   4.146   7.091   4.825
 4383TIP3    H213095   4.031   7.005   4.873
 4384TIP3   OH213096   7.294   1.913   5.606
 4384TIP3    H113097   7.374   1.936   5.558
 4384TIP3    H213098   7.318   1.920   5.698
 4385TIP3   OH213099   5.437   0.133   4.036
 4385TIP3    H113100   5.444   0.099   4.126
 4385TIP3    H213101   5.523   0.118   3.998
 4386TIP3   OH213102   6.907   4.569   1.014
 4386TIP3    H113103   6.962   4.495   0.989
 4386TIP3    H213104   6.871   4.601   0.931
 4387TIP3   OH213105   1.947   0.563   3.922
 4387TIP3    H113106   2.024   0.603   3.963
 4387TIP3    H213107   1.951   0.471   3.948
 4388TIP3   OH213108   5.081   2.471   2.518
 4388TIP3    H113109   4.987   2.478   2.533
 4388TIP3    H213110   5.121   2.513   2.594
 4389TIP3   OH213111   4.574   4.188   3.155
 4389TIP3    H113112   4.491   4.191   3.108
 4389TIP3    H213113   4.639   4.211   3.088
 4390TIP3   OH213114   7.408   0.227   6.550
 4390TIP3    H113115   7.431   0.248   6.459
 4390TIP3    H213116   7.361   0.144   6.545
 4391TIP3   OH213117   1.260   4.455   5.340
 4391TIP3    H113118   1.243   4.423   5.251
 4391TIP3    H213119   1.174   4.455   5.382
 4392TIP3   OH213120   4.704   1.096   3.762
 4392TIP3    H113121   4.746   1.179   3.737
 4392TIP3    H213122   4.660   1.115   3.845
 4393TIP3   OH213123   6.047   3.032   2.622
 4393TIP3    H113124   6.095   2.951   2.605
 4393TIP3    H213125   6.025   3.065   2.535
 4394TIP3   OH213126   8.110   4.806   3.292
 4394TIP3    H113127   8.060   4.816   3.211
 4394TIP3    H213128   8.177   4.741   3.272
 4395TIP3   OH213129   2.175   4.978   6.335
 4395TIP3    H113130   2.090   4.999   6.296
 4395TIP3    H213131   2.239   5.009   6.270
 4396TIP3   OH213132   5.532   4.497   4.791
 4396TIP3    H113133   5.504   4.425   4.847
 4396TIP3    H213134   5.558   4.566   4.853
 4397TIP3   OH213135   7.162   6.238   6.311
 4397TIP3    H113136   7.220   6.190   6.252
 4397TIP3    H213137   7.203   6.226   6.398
 4398TIP3   OH213138   3.882   7.323   3.263
 4398TIP3    H113139   3.962   7.346   3.309
 4398TIP3    H213140   3.837   7.262   3.322
 4399TIP3   OH213141   1.198   1.674   3.393
 4399TIP3    H113142   1.151   1.592   3.375
 4399TIP3    H213143   1.130   1.741   3.394
 4400TIP3   OH213144   2.806   7.004   3.131
 4400TIP3    H113145   2.711   6.993   3.130
 4400TIP3    H213146   2.840   6.915   3.122
 4401TIP3   OH213147   6.241   4.755   5.406
 4401TIP3    H113148   6.194   4.689   5.457
 4401TIP3    H213149   6.324   4.712   5.382
 4402TIP3   OH213150   4.454   2.924   5.146
 4402TIP3    H113151   4.493   2.880   5.221
 4402TIP3    H213152   4.435   3.013   5.177
 4403TIP3   OH213153   4.780   1.336   0.700
 4403TIP3    H113154   4.741   1.356   0.785
 4403TIP3    H213155   4.713   1.361   0.636
 4404TIP3   OH213156   4.019   7.431   3.478
 4404TIP3    H113157   4.087   7.498   3.472
 4404TIP3    H213158   3.943   7.476   3.514
 4405TIP3   OH213159   7.427   7.681   2.665
 4405TIP3    H113160   7.506   7.649   2.621
 4405TIP3    H213161   7.459   7.713   2.750
 4406TIP3   OH213162   4.154   0.625   2.470
 4406TIP3    H113163   4.134   0.674   2.550
 4406TIP3    H213164   4.110   0.674   2.401
 4407TIP3   OH213165   6.137   4.066   0.826
 4407TIP3    H113166   6.057   4.050   0.876
 4407TIP3    H213167   6.193   4.116   0.885
 4408TIP3   OH213168   2.949   2.725   2.794
 4408TIP3    H113169   3.039   2.699   2.771
 4408TIP3    H213170   2.896   2.691   2.723
 4409TIP3   OH213171   1.104   1.209   4.044
 4409TIP3    H113172   1.079   1.208   3.951
 4409TIP3    H213173   1.035   1.259   4.087
 4410TIP3   OH213174   7.898   4.366   4.981
 4410TIP3    H113175   7.936   4.373   4.894
 4410TIP3    H213176   7.968   4.328   5.035
 4411TIP3   OH213177   2.779   3.380   6.221
 4411TIP3    H113178   2.774   3.396   6.127
 4411TIP3    H213179   2.871   3.362   6.239
 4412TIP3   OH213180   4.770   7.321   5.892
 4412TIP3    H113181   4.808   7.330   5.804
 4412TIP3    H213182   4.846   7.324   5.951
 4413TIP3   OH213183   1.164   4.675   5.846
 4413TIP3    H113184   1.096   4.641   5.905
 4413TIP3    H213185   1.232   4.607   5.846
 4414TIP3   OH213186   8.015   5.446   4.486
 4414TIP3    H113187   8.048   5.472   4.400
 4414TIP3    H213188   7.945   5.509   4.504
 4415TIP3   OH213189   4.428   4.986   2.282
 4415TIP3    H113190   4.403   4.898   2.308
 4415TIP3    H213191   4.463   5.026   2.362
 4416TIP3   OH213192   6.340   6.456   3.241
 4416TIP3    H113193   6.385   6.523   3.189
 4416TIP3    H213194   6.247   6.469   3.222
 4417TIP3   OH213195   7.031   7.394   4.984
 4417TIP3    H113196   7.081   7.458   4.934
 4417TIP3    H213197   7.079   7.385   5.066
 4418TIP3   OH213198   3.878   0.203   4.551
 4418TIP3    H113199   3.886   0.294   4.522
 4418TIP3    H213200   3.935   0.154   4.490
 4419TIP3   OH213201   2.785   1.310   3.313
 4419TIP3    H113202   2.850   1.381   3.318
 4419TIP3    H213203   2.799   1.259   3.392
 4420TIP3   OH213204   3.700   1.769   2.876
 4420TIP3    H113205   3.752   1.850   2.870
 4420TIP3    H213206   3.615   1.792   2.840
 4421TIP3   OH213207   3.407   4.617   1.538
 4421TIP3    H113208   3.428   4.599   1.630
 4421TIP3    H213209   3.470   4.685   1.513
 4422TIP3   OH213210   3.485   3.525   6.446
 4422TIP3    H113211   3.503   3.609   6.488
 4422TIP3    H213212   3.555   3.515   6.381
 4423TIP3   OH213213   5.080   3.978   0.689
 4423TIP3    H113214   5.056   3.887   0.671
 4423TIP3    H213215   5.041   4.028   0.618
 4424TIP3   OH213216   0.455   0.152   4.775
 4424TIP3    H113217   0.485   0.090   4.708
 4424TIP3    H213218   0.486   0.116   4.858
 4425TIP3   OH213219   7.617   2.185   2.865
 4425TIP3    H113220   7.654   2.270   2.839
 4425TIP3    H213221   7.678   2.151   2.929
 4426TIP3   OH213222   4.871   5.500   6.670
 4426TIP3    H113223   4.917   5.464   6.745
 4426TIP3    H213224   4.921   5.578   6.645
 4427TIP3   OH213225   1.127   2.713   4.721
 4427TIP3    H113226   1.064   2.689   4.788
 4427TIP3    H213227   1.211   2.717   4.767
 4428TIP3   OH213228   6.465   7.309   2.525
 4428TIP3    H113229   6.556   7.286   2.545
 4428TIP3    H213230   6.458   7.401   2.550
 4429TIP3   OH213231   4.920   5.602   0.241
 4429TIP3    H113232   4.925   5.685   0.289
 4429TIP3    H213233   4.855   5.551   0.290
 4430TIP3   OH213234   1.392   0.479   0.693
 4430TIP3    H113235   1.356   0.393   0.672
 4430TIP3    H213236   1.356   0.499   0.780
 4431TIP3   OH213237   6.253   4.344   6.040
 4431TIP3    H113238   6.331   4.297   6.011
 4431TIP3    H213239   6.281   4.436   6.047
 4432TIP3   OH213240   2.291   6.867   3.248
 4432TIP3    H113241   2.246   6.933   3.195
 4432TIP3    H213242   2.223   6.804   3.270
 4433TIP3   OH213243   5.891   6.352   5.834
 4433TIP3    H113244   5.875   6.376   5.926
 4433TIP3    H213245   5.830   6.406   5.784
 4434TIP3   OH213246   2.166   2.977   3.358
 4434TIP3    H113247   2.095   3.002   3.298
 4434TIP3    H213248   2.234   2.941   3.301
 4435TIP3   OH213249   1.087   7.771   1.416
 4435TIP3    H113250   1.102   7.866   1.413
 4435TIP3    H213251   1.067   7.747   1.326
 4436TIP3   OH213252   7.469   1.617  -0.027
 4436TIP3    H113253   7.507   1.623   0.061
 4436TIP3    H213254   7.407   1.690  -0.031
 4437TIP3   OH213255   5.799   1.366   3.789
 4437TIP3    H113256   5.709   1.365   3.757
 4437TIP3    H213257   5.817   1.459   3.806
 4438TIP3   OH213258   3.337   5.826   5.129
 4438TIP3    H113259   3.250   5.829   5.169
 4438TIP3    H213260   3.359   5.733   5.128
 4439TIP3   OH213261   3.267   5.643   2.677
 4439TIP3    H113262   3.339   5.667   2.736
 4439TIP3    H213263   3.220   5.574   2.724
 4440TIP3   OH213264   0.406   6.517   4.998
 4440TIP3    H113265   0.417   6.451   5.066
 4440TIP3    H213266   0.496   6.540   4.972
 4441TIP3   OH213267   5.877   1.981   4.831
 4441TIP3    H113268   5.834   1.912   4.882
 4441TIP3    H213269   5.967   1.984   4.865
 4442TIP3   OH213270   3.722   0.914   3.348
 4442TIP3    H113271   3.776   0.988   3.376
 4442TIP3    H213272   3.747   0.900   3.256
 4443TIP3   OH213273   7.719   0.849   6.059
 4443TIP3    H113274   7.769   0.886   5.986
 4443TIP3    H213275   7.777   0.784   6.098
 4444TIP3   OH213276   4.236   1.112   3.733
 4444TIP3    H113277   4.314   1.119   3.678
 4444TIP3    H213278   4.193   1.197   3.724
 4445TIP3   OH213279   2.947   5.436   6.240
 4445TIP3    H113280   3.015   5.498   6.269
 4445TIP3    H213281   2.866   5.472   6.275
 4446TIP3   OH213282   6.221   7.515   6.085
 4446TIP3    H113283   6.288   7.583   6.099
 4446TIP3    H213284   6.138   7.560   6.100
 4447TIP3   OH213285   5.697   5.063   1.067
 4447TIP3    H113286   5.728   5.057   0.977
 4447TIP3    H213287   5.742   5.139   1.103
 4448TIP3   OH213288   3.454   4.217   2.926
 4448TIP3    H113289   3.480   4.285   2.989
 4448TIP3    H213290   3.440   4.265   2.844
 4449TIP3   OH213291   4.261   6.950   3.834
 4449TIP3    H113292   4.260   6.857   3.857
 4449TIP3    H213293   4.281   6.951   3.740
 4450TIP3   OH213294   6.350   2.346   3.086
 4450TIP3    H113295   6.261   2.383   3.094
 4450TIP3    H213296   6.338   2.252   3.101
 4451TIP3   OH213297   5.075   6.512   3.045
 4451TIP3    H113298   5.043   6.594   3.008
 4451TIP3    H213299   5.159   6.498   3.001
 4452TIP3   OH213300   7.544   0.656   4.665
 4452TIP3    H113301   7.592   0.726   4.620
 4452TIP3    H213302   7.511   0.600   4.594
 4453TIP3   OH213303   0.224   5.783   1.302
 4453TIP3    H113304   0.213   5.698   1.260
 4453TIP3    H213305   0.167   5.842   1.252
 4454TIP3   OH213306   7.433   7.334   5.737
 4454TIP3    H113307   7.475   7.409   5.780
 4454TIP3    H213308   7.483   7.258   5.767
 4455TIP3   OH213309   8.133   6.327   4.052
 4455TIP3    H113310   8.199   6.396   4.061
 4455TIP3    H213311   8.094   6.319   4.139
 4456TIP3   OH213312   4.692   5.701   2.653
 4456TIP3    H113313   4.650   5.670   2.734
 4456TIP3    H213314   4.786   5.701   2.674
 4457TIP3   OH213315   5.193   6.562   1.024
 4457TIP3    H113316   5.136   6.590   1.095
 4457TIP3    H213317   5.144   6.583   0.944
 4458TIP3   OH213318   2.857   1.683   3.209
 4458TIP3    H113319   2.860   1.609   3.269
 4458TIP3    H213320   2.928   1.666   3.147
 4459TIP3   OH213321   2.049   0.079   4.620
 4459TIP3    H113322   2.019   0.118   4.703
 4459TIP3    H213323   2.106   0.145   4.582
 4460TIP3   OH213324   1.354   6.746   2.745
 4460TIP3    H113325   1.432   6.691   2.752
 4460TIP3    H213326   1.281   6.684   2.746
 4461TIP3   OH213327   1.212   6.499   3.069
 4461TIP3    H113328   1.234   6.466   3.156
 4461TIP3    H213329   1.232   6.593   3.073
 4462TIP3   OH213330   0.101   0.693   4.965
 4462TIP3    H113331   0.034   0.762   4.965
 4462TIP3    H213332   0.184   0.740   4.971
 4463TIP3   OH213333   0.016   1.648   3.580
 4463TIP3    H113334   0.025   1.660   3.486
 4463TIP3    H213335   0.094   1.599   3.606
 4464TIP3   OH213336   0.516   4.540   2.684
 4464TIP3    H113337   0.607   4.538   2.715
 4464TIP3    H213338   0.514   4.611   2.620
 4465TIP3   OH213339   0.947   3.257   3.733
 4465TIP3    H113340   0.998   3.191   3.779
 4465TIP3    H213341   0.856   3.227   3.741
 4466TIP3   OH213342   4.448   7.152   4.335
 4466TIP3    H113343   4.398   7.070   4.335
 4466TIP3    H213344   4.456   7.176   4.242
 4467TIP3   OH213345   4.445   7.041   1.655
 4467TIP3    H113346   4.405   7.120   1.692
 4467TIP3    H213347   4.372   6.981   1.641
 4468TIP3   OH213348   4.123   4.183   5.297
 4468TIP3    H113349   4.206   4.230   5.298
 4468TIP3    H213350   4.119   4.144   5.209
 4469TIP3   OH213351   4.275   3.790   1.590
 4469TIP3    H113352   4.227   3.812   1.510
 4469TIP3    H213353   4.217   3.819   1.661
 4470TIP3   OH213354   0.919   0.915   4.528
 4470TIP3    H113355   0.867   0.858   4.471
 4470TIP3    H213356   0.939   0.992   4.473
 4471TIP3   OH213357   1.416   4.786   0.783
 4471TIP3    H113358   1.327   4.796   0.816
 4471TIP3    H213359   1.471   4.821   0.853
 4472TIP3   OH213360   0.915   5.590   6.730
 4472TIP3    H113361   0.911   5.685   6.744
 4472TIP3    H213362   0.833   5.557   6.767
 4473TIP3   OH213363   4.726   4.523   5.599
 4473TIP3    H113364   4.778   4.554   5.525
 4473TIP3    H213365   4.672   4.453   5.562
 4474TIP3   OH213366   8.258   3.633   1.752
 4474TIP3    H113367   8.320   3.571   1.789
 4474TIP3    H213368   8.208   3.582   1.689
 4475TIP3   OH213369   0.225   7.173   3.332
 4475TIP3    H113370   0.280   7.241   3.294
 4475TIP3    H213371   0.250   7.093   3.285
 4476TIP3   OH213372   0.703   4.307   5.850
 4476TIP3    H113373   0.699   4.402   5.836
 4476TIP3    H213374   0.614   4.276   5.831
 4477TIP3   OH213375   4.546   3.629   6.106
 4477TIP3    H113376   4.631   3.664   6.077
 4477TIP3    H213377   4.560   3.534   6.111
 4478TIP3   OH213378   5.247   0.517   0.388
 4478TIP3    H113379   5.328   0.474   0.360
 4478TIP3    H213380   5.276   0.599   0.429
 4479TIP3   OH213381   6.806   2.629   5.871
 4479TIP3    H113382   6.878   2.626   5.808
 4479TIP3    H213383   6.784   2.722   5.878
 4480TIP3   OH213384   7.693   1.499   2.661
 4480TIP3    H113385   7.645   1.514   2.743
 4480TIP3    H213386   7.687   1.405   2.646
 4481TIP3   OH213387   3.080   7.323   1.166
 4481TIP3    H113388   3.021   7.346   1.238
 4481TIP3    H213389   3.165   7.359   1.192
 4482TIP3   OH213390   6.823   7.745   2.659
 4482TIP3    H113391   6.885   7.696   2.604
 4482TIP3    H213392   6.791   7.681   2.722
 4483TIP3   OH213393   8.107   5.136   3.500
 4483TIP3    H113394   8.014   5.116   3.493
 4483TIP3    H213395   8.145   5.057   3.538
 4484TIP3   OH213396   6.867   5.261   5.862
 4484TIP3    H113397   6.791   5.210   5.891
 4484TIP3    H213398   6.932   5.195   5.837
 4485TIP3   OH213399   6.125   6.535   3.495
 4485TIP3    H113400   6.141   6.457   3.547
 4485TIP3    H213401   6.095   6.502   3.411
 4486TIP3   OH213402   3.870   5.869   6.348
 4486TIP3    H113403   3.926   5.941   6.378
 4486TIP3    H213404   3.848   5.893   6.258
 4487TIP3   OH213405   3.616   1.225   5.231
 4487TIP3    H113406   3.654   1.310   5.255
 4487TIP3    H213407   3.578   1.239   5.145
 4488TIP3   OH213408   3.292   3.178   1.205
 4488TIP3    H113409   3.369   3.158   1.152
 4488TIP3    H213410   3.235   3.101   1.194
 4489TIP3   OH213411   0.822   3.366   0.599
 4489TIP3    H113412   0.775   3.446   0.621
 4489TIP3    H213413   0.904   3.373   0.647
 4490TIP3   OH213414   4.022   2.138   3.483
 4490TIP3    H113415   4.015   2.220   3.531
 4490TIP3    H213416   3.939   2.131   3.436
 4491TIP3   OH213417   2.927   4.487   6.012
 4491TIP3    H113418   2.931   4.459   5.921
 4491TIP3    H213419   2.834   4.482   6.034
 4492TIP3   OH213420   6.961   7.668   0.396
 4492TIP3    H113421   7.033   7.616   0.433
 4492TIP3    H213422   6.923   7.713   0.471
 4493TIP3   OH213423   3.607   5.936   5.726
 4493TIP3    H113424   3.622   6.031   5.725
 4493TIP3    H213425   3.538   5.924   5.791
 4494TIP3   OH213426   5.697   4.665   4.153
 4494TIP3    H113427   5.637   4.673   4.079
 4494TIP3    H213428   5.674   4.583   4.195
 4495TIP3   OH213429   2.491   7.200   0.147
 4495TIP3    H113430   2.400   7.173   0.160
 4495TIP3    H213431   2.484   7.291   0.119
 4496TIP3   OH213432   0.859   4.130   4.933
 4496TIP3    H113433   0.806   4.193   4.885
 4496TIP3    H213434   0.812   4.047   4.924
 4497TIP3   OH213435   4.533   0.351   6.392
 4497TIP3    H113436   4.511   0.385   6.479
 4497TIP3    H213437   4.513   0.258   6.397
 4498TIP3   OH213438   4.438   6.321   6.552
 4498TIP3    H113439   4.524   6.288   6.528
 4498TIP3    H213440   4.450   6.416   6.560
 4499TIP3   OH213441   7.641   6.763   1.036
 4499TIP3    H113442   7.721   6.815   1.044
 4499TIP3    H213443   7.663   6.678   1.074
 4500TIP3   OH213444   7.271   4.065   1.813
 4500TIP3    H113445   7.245   3.986   1.861
 4500TIP3    H213446   7.328   4.112   1.873
 4501TIP3   OH213447   7.370   2.760   4.688
 4501TIP3    H113448   7.397   2.845   4.724
 4501TIP3    H213449   7.425   2.750   4.610
 4502TIP3   OH213450   6.546   0.038   1.487
 4502TIP3    H113451   6.460   0.060   1.451
 4502TIP3    H213452   6.596   0.008   1.411
 4503TIP3   OH213453   2.996   3.966   3.867
 4503TIP3    H113454   3.006   3.871   3.880
 4503TIP3    H213455   3.072   4.004   3.909
 4504TIP3   OH213456   3.923   1.860   5.547
 4504TIP3    H113457   3.956   1.849   5.637
 4504TIP3    H213458   3.899   1.771   5.520
 4505TIP3   OH213459   0.846   5.738   6.256
 4505TIP3    H113460   0.895   5.797   6.314
 4505TIP3    H213461   0.880   5.651   6.276
 4506TIP3   OH213462   5.151   7.195   4.524
 4506TIP3    H113463   5.189   7.146   4.450
 4506TIP3    H213464   5.081   7.138   4.557
 4507TIP3   OH213465   7.995   3.021   1.183
 4507TIP3    H113466   7.949   3.104   1.181
 4507TIP3    H213467   8.014   3.007   1.276
 4508TIP3   OH213468   4.891   6.518   3.262
 4508TIP3    H113469   4.849   6.602   3.249
 4508TIP3    H213470   4.946   6.506   3.184
 4509TIP3   OH213471   1.291   3.133   0.773
 4509TIP3    H113472   1.365   3.193   0.785
 4509TIP3    H213473   1.310   3.060   0.832
 4510TIP3   OH213474   6.858   4.395   3.174
 4510TIP3    H113475   6.907   4.331   3.123
 4510TIP3    H213476   6.884   4.380   3.264
 4511TIP3   OH213477   0.372   2.975   3.293
 4511TIP3    H113478   0.341   2.888   3.267
 4511TIP3    H213479   0.465   2.975   3.272
 4512TIP3   OH213480   5.918   7.268   5.920
 4512TIP3    H113481   5.999   7.306   5.886
 4512TIP3    H213482   5.901   7.193   5.863
 4513TIP3   OH213483   6.338   5.435   0.335
 4513TIP3    H113484   6.405   5.376   0.369
 4513TIP3    H213485   6.257   5.383   0.338
 4514TIP3   OH213486   4.569   5.083   4.887
 4514TIP3    H113487   4.651   5.076   4.937
 4514TIP3    H213488   4.533   4.994   4.887
 4515TIP3   OH213489   4.339   4.003   3.845
 4515TIP3    H113490   4.425   4.029   3.814
 4515TIP3    H213491   4.350   3.912   3.872
 4516TIP3   OH213492   4.219   6.950   0.100
 4516TIP3    H113493   4.130   6.923   0.081
 4516TIP3    H213494   4.231   6.932   0.194
 4517TIP3   OH213495   0.008   6.133   1.886
 4517TIP3    H113496   0.069   6.196   1.925
 4517TIP3    H213497   0.002   6.063   1.951
 4518TIP3   OH213498   3.989   7.276   5.040
 4518TIP3    H113499   3.970   7.183   5.031
 4518TIP3    H213500   4.082   7.280   5.061
 4519TIP3   OH213501   6.189   3.465   1.360
 4519TIP3    H113502   6.225   3.436   1.443
 4519TIP3    H213503   6.229   3.407   1.295
 4520TIP3   OH213504   6.328   2.511   4.248
 4520TIP3    H113505   6.398   2.446   4.246
 4520TIP3    H213506   6.298   2.511   4.339
 4521TIP3   OH213507   0.310   3.366   5.984
 4521TIP3    H113508   0.258   3.438   5.950
 4521TIP3    H213509   0.249   3.316   6.039
 4522TIP3   OH213510   1.212   2.126   2.094
 4522TIP3    H113511   1.225   2.035   2.120
 4522TIP3    H213512   1.117   2.138   2.092
 4523TIP3   OH213513   2.338   4.537   3.991
 4523TIP3    H113514   2.278   4.610   3.980
 4523TIP3    H213515   2.308   4.493   4.071
 4524TIP3   OH213516   5.745   7.136   2.457
 4524TIP3    H113517   5.798   7.077   2.403
 4524TIP3    H213518   5.683   7.078   2.501
 4525TIP3   OH213519   7.445   2.315   6.119
 4525TIP3    H113520   7.382   2.333   6.048
 4525TIP3    H213521   7.475   2.402   6.146
 4526TIP3   OH213522   1.314   6.575   1.962
 4526TIP3    H113523   1.308   6.631   2.040
 4526TIP3    H213524   1.307   6.486   1.997
 4527TIP3   OH213525   4.690   3.531   5.693
 4527TIP3    H113526   4.603   3.492   5.704
 4527TIP3    H213527   4.673   3.624   5.682
 4528TIP3   OH213528   5.476   2.677   4.945
 4528TIP3    H113529   5.392   2.639   4.924
 4528TIP3    H213530   5.470   2.768   4.915
 4529TIP3   OH213531   1.736   4.816   5.574
 4529TIP3    H113532   1.749   4.865   5.492
 4529TIP3    H213533   1.812   4.839   5.628
 4530TIP3   OH213534   3.324   6.618   4.687
 4530TIP3    H113535   3.234   6.651   4.691
 4530TIP3    H213536   3.320   6.532   4.728
 4531TIP3   OH213537   7.805   7.575   3.890
 4531TIP3    H113538   7.721   7.558   3.932
 4531TIP3    H213539   7.835   7.489   3.861
 4532TIP3   OH213540   6.476   3.607   3.084
 4532TIP3    H113541   6.484   3.540   3.016
 4532TIP3    H213542   6.393   3.587   3.127
 4533TIP3   OH213543   3.184   2.102   0.098
 4533TIP3    H113544   3.103   2.151   0.091
 4533TIP3    H213545   3.207   2.106   0.191
 4534TIP3   OH213546   8.231   5.835   1.234
 4534TIP3    H113547   8.205   5.745   1.217
 4534TIP3    H213548   8.195   5.855   1.320
 4535TIP3   OH213549   7.607   7.653   4.474
 4535TIP3    H113550   7.625   7.591   4.545
 4535TIP3    H213551   7.614   7.739   4.516
 4536TIP3   OH213552   4.452   6.617   0.508
 4536TIP3    H113553   4.439   6.664   0.590
 4536TIP3    H213554   4.423   6.678   0.440
 4537TIP3   OH213555   3.335   2.429   0.372
 4537TIP3    H113556   3.384   2.367   0.319
 4537TIP3    H213557   3.286   2.374   0.434
 4538TIP3   OH213558   4.476   4.402   0.703
 4538TIP3    H113559   4.421   4.453   0.762
 4538TIP3    H213560   4.550   4.459   0.683
 4539TIP3   OH213561   7.316   4.355   5.850
 4539TIP3    H113562   7.367   4.366   5.770
 4539TIP3    H213563   7.247   4.292   5.826
 4540TIP3   OH213564   6.561   6.160   2.166
 4540TIP3    H113565   6.607   6.076   2.162
 4540TIP3    H213566   6.589   6.207   2.087
 4541TIP3   OH213567   7.553   0.030   5.739
 4541TIP3    H113568   7.603   0.092   5.686
 4541TIP3    H213569   7.496   0.085   5.793
 4542TIP3   OH213570   6.421   7.475   0.917
 4542TIP3    H113571   6.354   7.530   0.876
 4542TIP3    H213572   6.377   7.436   0.993
 4543TIP3   OH213573   8.013   1.365   4.457
 4543TIP3    H113574   8.044   1.415   4.381
 4543TIP3    H213575   8.061   1.403   4.531
 4544TIP3   OH213576   2.395   0.779   0.922
 4544TIP3    H113577   2.366   0.716   0.856
 4544TIP3    H213578   2.471   0.738   0.963
 4545TIP3   OH213579   2.374   5.292   0.287
 4545TIP3    H113580   2.365   5.200   0.309
 4545TIP3    H213581   2.435   5.327   0.353
 4546TIP3   OH213582   8.126   0.277   3.602
 4546TIP3    H113583   8.125   0.368   3.632
 4546TIP3    H213584   8.102   0.227   3.680
 4547TIP3   OH213585   4.440   6.001   4.257
 4547TIP3    H113586   4.492   6.081   4.249
 4547TIP3    H213587   4.439   5.983   4.351
 4548TIP3   OH213588   4.351   7.623   1.219
 4548TIP3    H113589   4.328   7.544   1.170
 4548TIP3    H213590   4.305   7.693   1.174
 4549TIP3   OH213591   7.782   6.863   6.137
 4549TIP3    H113592   7.805   6.933   6.198
 4549TIP3    H213593   7.780   6.784   6.190
 4550TIP3   OH213594   1.196   2.760   3.635
 4550TIP3    H113595   1.205   2.770   3.730
 4550TIP3    H213596   1.223   2.844   3.599
 4551TIP3   OH213597   6.110   4.416   0.924
 4551TIP3    H113598   6.150   4.346   0.975
 4551TIP3    H213599   6.147   4.406   0.836
 4552TIP3   OH213600   4.686   2.227   6.512
 4552TIP3    H113601   4.733   2.282   6.575
 4552TIP3    H213602   4.747   2.218   6.439
 4553TIP3   OH213603   1.346   0.660   3.677
 4553TIP3    H113604   1.411   0.613   3.730
 4553TIP3    H213605   1.275   0.597   3.665
 4554TIP3   OH213606   5.096   6.546   5.453
 4554TIP3    H113607   5.180   6.549   5.498
 4554TIP3    H213608   5.043   6.486   5.504
 4555TIP3   OH213609   2.037   0.894   0.329
 4555TIP3    H113610   1.950   0.860   0.310
 4555TIP3    H213611   2.089   0.817   0.349
 4556TIP3   OH213612   3.438   5.320   4.771
 4556TIP3    H113613   3.379   5.245   4.759
 4556TIP3    H213614   3.457   5.320   4.865
 4557TIP3   OH213615   4.041   4.127   5.769
 4557TIP3    H113616   3.953   4.089   5.773
 4557TIP3    H213617   4.098   4.059   5.805
 4558TIP3   OH213618   2.886   2.444   5.171
 4558TIP3    H113619   2.802   2.432   5.215
 4558TIP3    H213620   2.919   2.355   5.157
 4559TIP3   OH213621   2.965   0.918   0.445
 4559TIP3    H113622   2.872   0.923   0.470
 4559TIP3    H213623   2.964   0.878   0.358
 4560TIP3   OH213624   3.739   4.280   1.375
 4560TIP3    H113625   3.734   4.368   1.336
 4560TIP3    H213626   3.769   4.224   1.303
 4561TIP3   OH213627   3.464   5.134   0.355
 4561TIP3    H113628   3.487   5.197   0.424
 4561TIP3    H213629   3.541   5.077   0.348
 4562TIP3   OH213630   3.999   2.670   2.268
 4562TIP3    H113631   4.062   2.685   2.339
 4562TIP3    H213632   4.007   2.747   2.212
 4563TIP3   OH213633   7.974   7.461   5.226
 4563TIP3    H113634   7.901   7.403   5.247
 4563TIP3    H213635   8.031   7.408   5.169
 4564TIP3   OH213636   5.263   0.986   4.047
 4564TIP3    H113637   5.187   0.939   4.082
 4564TIP3    H213638   5.339   0.940   4.083
 4565TIP3   OH213639   3.644   4.402   6.426
 4565TIP3    H113640   3.655   4.467   6.496
 4565TIP3    H213641   3.550   4.386   6.423
 4566TIP3   OH213642   3.438   0.240   2.700
 4566TIP3    H113643   3.481   0.325   2.702
 4566TIP3    H213644   3.367   0.251   2.637
 4567TIP3   OH213645   1.191   7.031   5.878
 4567TIP3    H113646   1.163   7.038   5.969
 4567TIP3    H213647   1.286   7.037   5.881
 4568TIP3   OH213648   1.896   3.953   6.359
 4568TIP3    H113649   1.933   4.005   6.430
 4568TIP3    H213650   1.967   3.943   6.296
 4569TIP3   OH213651   4.929   5.929   6.197
 4569TIP3    H113652   4.992   5.891   6.136
 4569TIP3    H213653   4.849   5.940   6.146
 4570TIP3   OH213654   2.605   7.777   0.154
 4570TIP3    H113655   2.566   7.743   0.074
 4570TIP3    H213656   2.695   7.798   0.131
 4571TIP3   OH213657   4.319   1.742   0.510
 4571TIP3    H113658   4.250   1.692   0.468
 4571TIP3    H213659   4.338   1.694   0.591
 4572TIP3   OH213660   4.110   2.538   0.125
 4572TIP3    H113661   4.107   2.445   0.103
 4572TIP3    H213662   4.021   2.559   0.155
 4573TIP3   OH213663   0.708   2.285   0.453
 4573TIP3    H113664   0.759   2.365   0.440
 4573TIP3    H213665   0.685   2.286   0.546
 4574TIP3   OH213666  -0.005   4.459   2.484
 4574TIP3    H113667  -0.022   4.365   2.495
 4574TIP3    H213668   0.062   4.479   2.549
 4575TIP3   OH213669   5.454   3.171   5.157
 4575TIP3    H113670   5.417   3.123   5.232
 4575TIP3    H213671   5.521   3.227   5.195
 4576TIP3   OH213672   4.767   4.096   2.596
 4576TIP3    H113673   4.766   4.049   2.680
 4576TIP3    H213674   4.674   4.106   2.574
 4577TIP3   OH213675   4.198   1.738   4.308
 4577TIP3    H113676   4.170   1.772   4.393
 4577TIP3    H213677   4.188   1.643   4.316
 4578TIP3   OH213678   6.908   4.748   6.334
 4578TIP3    H113679   6.925   4.745   6.428
 4578TIP3    H213680   6.820   4.784   6.326
 4579TIP3   OH213681   4.684   1.563   2.006
 4579TIP3    H113682   4.643   1.478   1.989
 4579TIP3    H213683   4.755   1.569   1.941
 4580TIP3   OH213684   8.199   6.220   6.698
 4580TIP3    H113685   8.209   6.311   6.724
 4580TIP3    H213686   8.184   6.223   6.604
 4581TIP3   OH213687   7.707   0.652   4.089
 4581TIP3    H113688   7.671   0.600   4.160
 4581TIP3    H213689   7.655   0.733   4.090
 4582TIP3   OH213690   0.762   1.719   1.245
 4582TIP3    H113691   0.831   1.783   1.266
 4582TIP3    H213692   0.725   1.696   1.330
 4583TIP3   OH213693   3.505   2.941   5.508
 4583TIP3    H113694   3.521   2.930   5.601
 4583TIP3    H213695   3.461   3.025   5.500
 4584TIP3   OH213696   2.589   3.076   2.830
 4584TIP3    H113697   2.677   3.050   2.804
 4584TIP3    H213698   2.546   2.994   2.854
 4585TIP3   OH213699   5.361   3.049   5.384
 4585TIP3    H113700   5.349   2.959   5.353
 4585TIP3    H213701   5.341   3.045   5.478
 4586TIP3   OH213702   1.269   6.903   3.644
 4586TIP3    H113703   1.297   6.951   3.722
 4586TIP3    H213704   1.345   6.851   3.619
 4587TIP3   OH213705   2.339   0.043   3.689
 4587TIP3    H113706   2.377  -0.027   3.742
 4587TIP3    H213707   2.245   0.022   3.686
 4588TIP3   OH213708   0.225   1.506   4.617
 4588TIP3    H113709   0.183   1.563   4.553
 4588TIP3    H213710   0.152   1.464   4.663
 4589TIP3   OH213711   4.464   5.336   3.239
 4589TIP3    H113712   4.521   5.388   3.182
 4589TIP3    H213713   4.384   5.388   3.247
 4590TIP3   OH213714   5.130   1.286   1.266
 4590TIP3    H113715   5.127   1.192   1.283
 4590TIP3    H213716   5.039   1.314   1.268
 4591TIP3   OH213717   5.500   3.136   2.018
 4591TIP3    H113718   5.499   3.155   2.112
 4591TIP3    H213719   5.592   3.126   1.996
 4592TIP3   OH213720   1.124   6.500   1.271
 4592TIP3    H113721   1.163   6.588   1.269
 4592TIP3    H213722   1.094   6.485   1.182
 4593TIP3   OH213723   0.112   0.857   6.155
 4593TIP3    H113724   0.129   0.782   6.212
 4593TIP3    H213725   0.102   0.819   6.068
 4594TIP3   OH213726   0.732   3.852   2.836
 4594TIP3    H113727   0.810   3.801   2.857
 4594TIP3    H213728   0.717   3.907   2.913
 4595TIP3   OH213729   6.978   6.052   5.467
 4595TIP3    H113730   7.063   6.027   5.503
 4595TIP3    H213731   6.996   6.127   5.411
 4596TIP3   OH213732   4.638   0.500   1.626
 4596TIP3    H113733   4.586   0.429   1.588
 4596TIP3    H213734   4.576   0.572   1.637
 4597TIP3   OH213735   7.129   4.474   6.022
 4597TIP3    H113736   7.053   4.476   5.963
 4597TIP3    H213737   7.203   4.455   5.964
 4598TIP3   OH213738   2.519   5.861   0.573
 4598TIP3    H113739   2.474   5.942   0.548
 4598TIP3    H213740   2.587   5.889   0.634
 4599TIP3   OH213741   7.701   4.000   0.960
 4599TIP3    H113742   7.791   4.035   0.955
 4599TIP3    H213743   7.647   4.070   0.922
 4600TIP3   OH213744   7.102   2.901   3.440
 4600TIP3    H113745   7.172   2.839   3.456
 4600TIP3    H213746   7.045   2.895   3.517
 4601TIP3   OH213747   3.825   4.911   6.491
 4601TIP3    H113748   3.845   5.003   6.476
 4601TIP3    H213749   3.775   4.884   6.415
 4602TIP3   OH213750   1.720   7.248   1.125
 4602TIP3    H113751   1.677   7.331   1.143
 4602TIP3    H213752   1.691   7.224   1.037
 4603TIP3   OH213753   6.278   6.478   6.537
 4603TIP3    H113754   6.253   6.518   6.620
 4603TIP3    H213755   6.267   6.384   6.551
 4604TIP3   OH213756   2.741   6.621   4.597
 4604TIP3    H113757   2.674   6.688   4.611
 4604TIP3    H213758   2.760   6.625   4.503
 4605TIP3   OH213759   4.580   2.637   6.489
 4605TIP3    H113760   4.525   2.583   6.546
 4605TIP3    H213761   4.627   2.574   6.435
 4606TIP3   OH213762   0.445   6.412   2.611
 4606TIP3    H113763   0.418   6.321   2.619
 4606TIP3    H213764   0.384   6.461   2.666
 4607TIP3   OH213765   4.848   7.614   2.864
 4607TIP3    H113766   4.759   7.579   2.868
 4607TIP3    H213767   4.881   7.585   2.779
 4608TIP3   OH213768   4.610   2.342   3.742
 4608TIP3    H113769   4.681   2.304   3.794
 4608TIP3    H213770   4.571   2.268   3.696
 4609TIP3   OH213771   1.358   3.815   1.940
 4609TIP3    H113772   1.356   3.720   1.925
 4609TIP3    H213773   1.329   3.826   2.030
 4610TIP3   OH213774   2.386   2.028   0.945
 4610TIP3    H113775   2.375   2.118   0.974
 4610TIP3    H213776   2.445   1.989   1.009
 4611TIP3   OH213777   4.056   5.225   3.623
 4611TIP3    H113778   4.064   5.161   3.694
 4611TIP3    H213779   4.136   5.277   3.629
 4612TIP3   OH213780   8.071   2.747   2.275
 4612TIP3    H113781   8.096   2.758   2.183
 4612TIP3    H213782   8.148   2.706   2.315
 4613TIP3   OH213783   5.693   3.627   0.087
 4613TIP3    H113784   5.638   3.678   0.027
 4613TIP3    H213785   5.665   3.537   0.076
 4614TIP3   OH213786   0.289   5.872   6.181
 4614TIP3    H113787   0.335   5.931   6.123
 4614TIP3    H213788   0.250   5.806   6.123
 4615TIP3   OH213789   7.521   1.054   6.383
 4615TIP3    H113790   7.452   1.049   6.449
 4615TIP3    H213791   7.564   0.968   6.387
 4616TIP3   OH213792   1.189   0.867   4.355
 4616TIP3    H113793   1.141   0.859   4.437
 4616TIP3    H213794   1.163   0.789   4.305
 4617TIP3   OH213795   3.418   1.253   5.423
 4617TIP3    H113796   3.468   1.254   5.341
 4617TIP3    H213797   3.438   1.169   5.462
 4618TIP3   OH213798   6.954   3.748   2.155
 4618TIP3    H113799   6.921   3.837   2.141
 4618TIP3    H213800   6.986   3.749   2.245
 4619TIP3   OH213801   2.368   2.846   0.763
 4619TIP3    H113802   2.342   2.938   0.771
 4619TIP3    H213803   2.322   2.802   0.834
 4620TIP3   OH213804   2.510   0.438   5.973
 4620TIP3    H113805   2.432   0.386   5.996
 4620TIP3    H213806   2.521   0.498   6.046
 4621TIP3   OH213807   1.614   7.265   4.950
 4621TIP3    H113808   1.640   7.358   4.955
 4621TIP3    H213809   1.666   7.222   5.017
 4622TIP3   OH213810   2.500   6.290   1.725
 4622TIP3    H113811   2.470   6.344   1.652
 4622TIP3    H213812   2.583   6.253   1.696
 4623TIP3   OH213813   1.591   4.256   4.018
 4623TIP3    H113814   1.632   4.320   3.959
 4623TIP3    H213815   1.662   4.226   4.074
 4624TIP3   OH213816   8.020   2.064   4.450
 4624TIP3    H113817   8.013   1.969   4.437
 4624TIP3    H213818   7.936   2.098   4.420
 4625TIP3   OH213819   7.967   0.827   5.268
 4625TIP3    H113820   8.062   0.840   5.265
 4625TIP3    H213821   7.946   0.784   5.185
 4626TIP3   OH213822   0.002   4.007   1.248
 4626TIP3    H113823   0.092   3.995   1.217
 4626TIP3    H213824   0.011   4.036   1.338
 4627TIP3   OH213825   0.611   5.645   4.569
 4627TIP3    H113826   0.612   5.645   4.665
 4627TIP3    H213827   0.685   5.700   4.545
 4628TIP3   OH213828   4.882   1.797   4.578
 4628TIP3    H113829   4.797   1.797   4.534
 4628TIP3    H213830   4.862   1.821   4.669
 4629TIP3   OH213831   6.740   0.351   1.283
 4629TIP3    H113832   6.688   0.339   1.204
 4629TIP3    H213833   6.821   0.304   1.266
 4630TIP3   OH213834   5.594   3.292   0.551
 4630TIP3    H113835   5.642   3.325   0.475
 4630TIP3    H213836   5.517   3.348   0.557
 4631TIP3   OH213837   7.712   3.410   0.353
 4631TIP3    H113838   7.674   3.425   0.440
 4631TIP3    H213839   7.800   3.446   0.359
 4632TIP3   OH213840   4.266   4.359   3.622
 4632TIP3    H113841   4.283   4.363   3.528
 4632TIP3    H213842   4.207   4.284   3.632
 4633TIP3   OH213843   5.730   6.771   2.151
 4633TIP3    H113844   5.636   6.785   2.139
 4633TIP3    H213845   5.738   6.677   2.166
 4634TIP3   OH213846   5.696   7.003   0.243
 4634TIP3    H113847   5.641   7.054   0.184
 4634TIP3    H213848   5.650   7.004   0.327
 4635TIP3   OH213849   5.498   6.569   1.336
 4635TIP3    H113850   5.567   6.567   1.402
 4635TIP3    H213851   5.539   6.535   1.257
 4636TIP3   OH213852   6.659   1.071   1.691
 4636TIP3    H113853   6.603   1.044   1.618
 4636TIP3    H213854   6.612   1.145   1.730
 4637TIP3   OH213855   0.517   5.474   5.308
 4637TIP3    H113856   0.590   5.446   5.252
 4637TIP3    H213857   0.544   5.450   5.396
 4638TIP3   OH213858   1.288   6.043   0.223
 4638TIP3    H113859   1.205   6.038   0.174
 4638TIP3    H213860   1.350   6.081   0.160
 4639TIP3   OH213861   3.856   6.898   6.570
 4639TIP3    H113862   3.826   6.882   6.481
 4639TIP3    H213863   3.951   6.897   6.565
 4640TIP3   OH213864   1.888   4.692   5.252
 4640TIP3    H113865   1.950   4.669   5.183
 4640TIP3    H213866   1.912   4.781   5.278
 4641TIP3   OH213867   6.464   6.430   4.022
 4641TIP3    H113868   6.425   6.398   4.104
 4641TIP3    H213869   6.481   6.523   4.039
 4642TIP3   OH213870   8.178   6.762   0.942
 4642TIP3    H113871   8.247   6.762   1.008
 4642TIP3    H213872   8.167   6.670   0.917
 4643TIP3   OH213873   5.542   0.167   6.739
 4643TIP3    H113874   5.540   0.083   6.786
 4643TIP3    H213875   5.466   0.163   6.681
 4644TIP3   OH213876   2.691   1.659   5.161
 4644TIP3    H113877   2.686   1.751   5.135
 4644TIP3    H213878   2.779   1.631   5.137
 4645TIP3   OH213879   6.045   6.566   1.385
 4645TIP3    H113880   6.060   6.588   1.293
 4645TIP3    H213881   6.129   6.583   1.427
 4646TIP3   OH213882   6.452   0.950   0.615
 4646TIP3    H113883   6.535   0.996   0.619
 4646TIP3    H213884   6.420   0.966   0.526
 4647TIP3   OH213885   1.990   0.993   0.739
 4647TIP3    H113886   2.000   1.059   0.808
 4647TIP3    H213887   1.953   1.041   0.665
 4648TIP3   OH213888   7.612   7.201   6.219
 4648TIP3    H113889   7.532   7.241   6.252
 4648TIP3    H213890   7.614   7.223   6.126
 4649TIP3   OH213891   6.549   6.755   3.272
 4649TIP3    H113892   6.639   6.790   3.273
 4649TIP3    H213893   6.559   6.664   3.298
 4650TIP3   OH213894   7.842   2.666   3.009
 4650TIP3    H113895   7.914   2.605   3.026
 4650TIP3    H213896   7.797   2.673   3.092
 4651TIP3   OH213897   3.790   6.930   5.536
 4651TIP3    H113898   3.723   6.863   5.548
 4651TIP3    H213899   3.858   6.888   5.484
 4652TIP3   OH213900   5.423   5.643   2.923
 4652TIP3    H113901   5.468   5.696   2.857
 4652TIP3    H213902   5.406   5.704   2.995
 4653TIP3   OH213903   6.080   3.488   5.885
 4653TIP3    H113904   6.080   3.584   5.875
 4653TIP3    H213905   6.140   3.472   5.958
 4654TIP3   OH213906   8.146   0.521   2.717
 4654TIP3    H113907   8.182   0.433   2.723
 4654TIP3    H213908   8.144   0.540   2.623
 4655TIP3   OH213909   4.337   2.040   4.484
 4655TIP3    H113910   4.253   2.034   4.529
 4655TIP3    H213911   4.396   2.080   4.547
 4656TIP3   OH213912   6.752   1.195   6.346
 4656TIP3    H113913   6.725   1.219   6.434
 4656TIP3    H213914   6.785   1.275   6.307
 4657TIP3   OH213915   4.390   5.475   0.237
 4657TIP3    H113916   4.401   5.510   0.148
 4657TIP3    H213917   4.473   5.430   0.255
 4658TIP3   OH213918   1.938   3.811   3.349
 4658TIP3    H113919   1.937   3.721   3.381
 4658TIP3    H213920   2.013   3.851   3.394
 4659TIP3   OH213921   3.536   5.963   4.994
 4659TIP3    H113922   3.611   5.925   5.039
 4659TIP3    H213923   3.463   5.905   5.014
 4660TIP3   OH213924   7.904   4.496   4.537
 4660TIP3    H113925   7.904   4.548   4.456
 4660TIP3    H213926   7.822   4.448   4.535
 4661TIP3   OH213927   5.775   7.549   5.017
 4661TIP3    H113928   5.868   7.527   5.014
 4661TIP3    H213929   5.737   7.485   5.077
 4662TIP3   OH213930   5.345   7.283   2.942
 4662TIP3    H113931   5.303   7.199   2.961
 4662TIP3    H213932   5.293   7.348   2.988
 4663TIP3   OH213933   0.553   1.832   6.595
 4663TIP3    H113934   0.530   1.907   6.650
 4663TIP3    H213935   0.627   1.863   6.541
 4664TIP3   OH213936   8.242   0.223   4.748
 4664TIP3    H113937   8.255   0.316   4.764
 4664TIP3    H213938   8.331   0.189   4.731
 4665TIP3   OH213939   5.287   5.312   6.339
 4665TIP3    H113940   5.327   5.259   6.270
 4665TIP3    H213941   5.206   5.265   6.361
 4666TIP3   OH213942   3.746   3.385   5.157
 4666TIP3    H113943   3.702   3.443   5.094
 4666TIP3    H213944   3.813   3.341   5.105
 4667TIP3   OH213945   4.208   5.704   5.219
 4667TIP3    H113946   4.221   5.754   5.138
 4667TIP3    H213947   4.262   5.626   5.208
 4668TIP3   OH213948   7.534   0.765   4.330
 4668TIP3    H113949   7.472   0.817   4.381
 4668TIP3    H213950   7.545   0.813   4.249
 4669TIP3   OH213951   5.953   6.972   0.498
 4669TIP3    H113952   5.911   6.886   0.492
 4669TIP3    H213953   5.919   7.011   0.578
 4670TIP3   OH213954   3.841   0.341   0.210
 4670TIP3    H113955   3.922   0.363   0.164
 4670TIP3    H213956   3.849   0.384   0.295
 4671TIP3   OH213957   6.461   5.145   4.601
 4671TIP3    H113958   6.381   5.169   4.555
 4671TIP3    H213959   6.430   5.100   4.680
 4672TIP3   OH213960   4.463   7.373   4.522
 4672TIP3    H113961   4.553   7.406   4.513
 4672TIP3    H213962   4.452   7.311   4.450
 4673TIP3   OH213963   0.368   4.163   2.939
 4673TIP3    H113964   0.456   4.125   2.940
 4673TIP3    H213965   0.382   4.254   2.913
 4674TIP3   OH213966   3.511   7.672   1.315
 4674TIP3    H113967   3.546   7.682   1.227
 4674TIP3    H213968   3.421   7.706   1.310
 4675TIP3   OH213969   0.690   7.526   2.303
 4675TIP3    H113970   0.699   7.620   2.322
 4675TIP3    H213971   0.607   7.501   2.344
 4676TIP3   OH213972   2.553   1.121   1.958
 4676TIP3    H113973   2.641   1.085   1.945
 4676TIP3    H213974   2.519   1.077   2.035
 4677TIP3   OH213975   2.665   4.515   1.871
 4677TIP3    H113976   2.630   4.453   1.934
 4677TIP3    H213977   2.613   4.595   1.885
 4678TIP3   OH213978   2.703   0.406   4.865
 4678TIP3    H113979   2.752   0.429   4.786
 4678TIP3    H213980   2.764   0.425   4.937
 4679TIP3   OH213981   3.039   3.400   3.984
 4679TIP3    H113982   3.080   3.385   4.069
 4679TIP3    H213983   3.032   3.313   3.945
 4680TIP3   OH213984   6.339  -0.010   5.753
 4680TIP3    H113985   6.304  -0.019   5.664
 4680TIP3    H213986   6.388   0.073   5.751
 4681TIP3   OH213987   8.252   5.277   1.766
 4681TIP3    H113988   8.214   5.258   1.680
 4681TIP3    H213989   8.261   5.373   1.767
 4682TIP3   OH213990   1.581   3.257   4.555
 4682TIP3    H113991   1.598   3.351   4.541
 4682TIP3    H213992   1.626   3.236   4.636
 4683TIP3   OH213993   5.369   6.390   3.215
 4683TIP3    H113994   5.410   6.396   3.129
 4683TIP3    H213995   5.343   6.480   3.236
 4684TIP3   OH213996   4.772   0.069   4.408
 4684TIP3    H113997   4.804   0.100   4.323
 4684TIP3    H213998   4.851   0.054   4.460
 4685TIP3   OH213999   1.199   4.256   1.174
 4685TIP3    H114000   1.222   4.178   1.225
 4685TIP3    H214001   1.267   4.320   1.196
 4686TIP3   OH214002   2.771   6.318   5.219
 4686TIP3    H114003   2.727   6.251   5.166
 4686TIP3    H214004   2.815   6.374   5.155
 4687TIP3   OH214005   7.466   3.463   1.009
 4687TIP3    H114006   7.380   3.422   1.020
 4687TIP3    H214007   7.450   3.535   0.949
 4688TIP3   OH214008   6.547   6.772   0.486
 4688TIP3    H114009   6.459   6.803   0.503
 4688TIP3    H214010   6.580   6.829   0.417
 4689TIP3   OH214011   1.187   2.992   3.219
 4689TIP3    H114012   1.178   2.897   3.212
 4689TIP3    H214013   1.193   3.009   3.313
 4690TIP3   OH214014   7.922   0.939   4.315
 4690TIP3    H114015   7.936   0.851   4.279
 4690TIP3    H214016   7.839   0.967   4.276
 4691TIP3   OH214017   2.632   2.054   4.534
 4691TIP3    H114018   2.691   2.124   4.507
 4691TIP3    H214019   2.552   2.099   4.562
 4692TIP3   OH214020   6.331   1.235   5.764
 4692TIP3    H114021   6.415   1.262   5.800
 4692TIP3    H214022   6.348   1.149   5.726
 4693TIP3   OH214023   8.156   5.840   2.728
 4693TIP3    H114024   8.233   5.791   2.755
 4693TIP3    H214025   8.082   5.789   2.761
 4694TIP3   OH214026   7.338   6.340   0.666
 4694TIP3    H114027   7.270   6.310   0.605
 4694TIP3    H214028   7.408   6.275   0.657
 4695TIP3   OH214029   2.762   1.727   1.142
 4695TIP3    H114030   2.803   1.761   1.062
 4695TIP3    H214031   2.757   1.633   1.128
 4696TIP3   OH214032   6.208   6.148   5.553
 4696TIP3    H114033   6.133   6.205   5.535
 4696TIP3    H214034   6.196   6.074   5.494
 4697TIP3   OH214035   5.806   0.779   4.530
 4697TIP3    H114036   5.789   0.796   4.623
 4697TIP3    H214037   5.900   0.793   4.520
 4698TIP3   OH214038   5.498   5.393   6.530
 4698TIP3    H114039   5.546   5.475   6.543
 4698TIP3    H214040   5.416   5.419   6.488
 4699TIP3   OH214041   3.247   1.297   0.152
 4699TIP3    H114042   3.214   1.216   0.114
 4699TIP3    H214043   3.169   1.345   0.177
 4700TIP3   OH214044   0.339   5.279   4.462
 4700TIP3    H114045   0.370   5.326   4.540
 4700TIP3    H214046   0.253   5.317   4.444
 4701TIP3   OH214047   5.095   6.189   5.339
 4701TIP3    H114048   5.190   6.189   5.351
 4701TIP3    H214049   5.065   6.116   5.393
 4702TIP3   OH214050   0.047   7.149   1.007
 4702TIP3    H114051  -0.009   7.145   0.930
 4702TIP3    H214052   0.132   7.116   0.977
 4703TIP3   OH214053   3.833   3.898   2.793
 4703TIP3    H114054   3.764   3.920   2.856
 4703TIP3    H214055   3.801   3.821   2.747
 4704TIP3   OH214056   4.750   1.596   5.995
 4704TIP3    H114057   4.669   1.627   6.034
 4704TIP3    H214058   4.813   1.598   6.068
 4705TIP3   OH214059   3.308   3.587   5.640
 4705TIP3    H114060   3.360   3.526   5.693
 4705TIP3    H214061   3.219   3.579   5.674
 4706TIP3   OH214062   7.332   3.613   4.937
 4706TIP3    H114063   7.256   3.585   4.886
 4706TIP3    H214064   7.395   3.644   4.871
 4707TIP3   OH214065   5.146   7.699   4.242
 4707TIP3    H114066   5.225   7.646   4.252
 4707TIP3    H214067   5.135   7.743   4.326
 4708TIP3   OH214068   8.078   4.925   3.978
 4708TIP3    H114069   8.020   4.988   3.934
 4708TIP3    H214070   8.090   4.962   4.066
 4709TIP3   OH214071   0.036   7.654   3.652
 4709TIP3    H114072  -0.023   7.590   3.691
 4709TIP3    H214073   0.121   7.636   3.692
 4710TIP3   OH214074   3.905   3.709   5.329
 4710TIP3    H114075   3.910   3.693   5.235
 4710TIP3    H214076   3.833   3.653   5.359
 4711TIP3   OH214077   6.558   5.555   5.938
 4711TIP3    H114078   6.519   5.468   5.931
 4711TIP3    H214079   6.582   5.577   5.848
 4712TIP3   OH214080   4.120   5.189   2.107
 4712TIP3    H114081   4.032   5.225   2.113
 4712TIP3    H214082   4.121   5.115   2.168
 4713TIP3   OH214083   7.764   4.320   1.161
 4713TIP3    H114084   7.710   4.398   1.151
 4713TIP3    H214085   7.730   4.259   1.095
 4714TIP3   OH214086   1.846   5.320   4.890
 4714TIP3    H114087   1.907   5.289   4.958
 4714TIP3    H214088   1.820   5.241   4.843
 4715TIP3   OH214089   1.147   0.668   3.154
 4715TIP3    H114090   1.236   0.685   3.186
 4715TIP3    H214091   1.115   0.753   3.125
 4716TIP3   OH214092   6.283   1.445   4.094
 4716TIP3    H114093   6.246   1.357   4.093
 4716TIP3    H214094   6.284   1.472   4.002
 4717TIP3   OH214095   2.309   2.442   3.695
 4717TIP3    H114096   2.379   2.443   3.761
 4717TIP3    H214097   2.326   2.520   3.643
 4718TIP3   OH214098   7.819   5.195   5.348
 4718TIP3    H114099   7.858   5.277   5.321
 4718TIP3    H214100   7.797   5.208   5.441
 4719TIP3   OH214101   1.138   3.410   5.276
 4719TIP3    H114102   1.232   3.415   5.295
 4719TIP3    H214103   1.133   3.409   5.181
 4720TIP3   OH214104   6.904   1.487   4.681
 4720TIP3    H114105   6.993   1.451   4.671
 4720TIP3    H214106   6.918   1.580   4.698
 4721TIP3   OH214107   1.173   4.707   2.288
 4721TIP3    H114108   1.117   4.676   2.216
 4721TIP3    H214109   1.249   4.744   2.245
 4722TIP3   OH214110   3.777   5.600   2.401
 4722TIP3    H114111   3.813   5.590   2.312
 4722TIP3    H214112   3.817   5.680   2.434
 4723TIP3   OH214113   3.749   2.340   4.827
 4723TIP3    H114114   3.805   2.272   4.789
 4723TIP3    H214115   3.696   2.371   4.754
 4724TIP3   OH214116   0.422   6.597   3.517
 4724TIP3    H114117   0.403   6.575   3.608
 4724TIP3    H214118   0.422   6.513   3.472
 4725TIP3   OH214119   2.311   1.792   0.205
 4725TIP3    H114120   2.289   1.704   0.173
 4725TIP3    H214121   2.282   1.793   0.296
 4726TIP3   OH214122   2.766   5.847   3.011
 4726TIP3    H114123   2.708   5.919   3.035
 4726TIP3    H214124   2.733   5.772   3.061
 4727TIP3   OH214125   4.417   1.229   3.331
 4727TIP3    H114126   4.350   1.165   3.310
 4727TIP3    H214127   4.369   1.309   3.352
 4728TIP3   OH214128   0.430   7.472   2.352
 4728TIP3    H114129   0.391   7.385   2.364
 4728TIP3    H214130   0.400   7.498   2.265
 4729TIP3   OH214131   5.816   0.433   6.427
 4729TIP3    H114132   5.753   0.370   6.394
 4729TIP3    H214133   5.779   0.518   6.403
 4730TIP3   OH214134   3.832   1.644   4.364
 4730TIP3    H114135   3.854   1.710   4.297
 4730TIP3    H214136   3.854   1.561   4.323
 4731TIP3   OH214137   1.343   3.489   0.000
 4731TIP3    H114138   1.425   3.516   0.041
 4731TIP3    H214139   1.356   3.397  -0.020
 4732TIP3   OH214140   3.296   3.478   2.483
 4732TIP3    H114141   3.300   3.544   2.552
 4732TIP3    H214142   3.382   3.480   2.441
 4733TIP3   OH214143   5.762   7.429   6.302
 4733TIP3    H114144   5.820   7.418   6.377
 4733TIP3    H214145   5.817   7.469   6.234
 4734TIP3   OH214146   3.755   4.343   2.235
 4734TIP3    H114147   3.709   4.377   2.311
 4734TIP3    H214148   3.693   4.355   2.163
 4735TIP3   OH214149   3.865   1.271   5.737
 4735TIP3    H114150   3.909   1.193   5.772
 4735TIP3    H214151   3.858   1.254   5.643
 4736TIP3   OH214152   6.125   6.680   1.882
 4736TIP3    H114153   6.206   6.629   1.891
 4736TIP3    H214154   6.141   6.759   1.933
 4737TIP3   OH214155   3.364   0.027   3.930
 4737TIP3    H114156   3.339  -0.042   3.992
 4737TIP3    H214157   3.301   0.097   3.947
 4738TIP3   OH214158   6.211   0.291   3.909
 4738TIP3    H114159   6.220   0.309   3.815
 4738TIP3    H214160   6.289   0.240   3.931
 4739TIP3   OH214161   0.149   0.685   2.271
 4739TIP3    H114162   0.134   0.750   2.203
 4739TIP3    H214163   0.200   0.732   2.338
 4740TIP3   OH214164   0.643   5.018   1.669
 4740TIP3    H114165   0.592   4.961   1.612
 4740TIP3    H214166   0.732   5.013   1.634
 4741TIP3   OH214167   1.081   2.643   5.095
 4741TIP3    H114168   1.155   2.590   5.066
 4741TIP3    H214169   1.115   2.732   5.097
 4742TIP3   OH214170   7.197   2.618   2.540
 4742TIP3    H114171   7.147   2.597   2.619
 4742TIP3    H214172   7.267   2.552   2.538
 4743TIP3   OH214173   5.721   1.635   3.811
 4743TIP3    H114174   5.647   1.620   3.752
 4743TIP3    H214175   5.706   1.722   3.847
 4744TIP3   OH214176   4.726   5.269   2.289
 4744TIP3    H114177   4.770   5.239   2.209
 4744TIP3    H214178   4.634   5.278   2.265
 4745TIP3   OH214179   8.231   3.713   6.594
 4745TIP3    H114180   8.305   3.681   6.645
 4745TIP3    H214181   8.154   3.679   6.640
 4746TIP3   OH214182   7.660   2.262   6.598
 4746TIP3    H114183   7.753   2.286   6.594
 4746TIP3    H214184   7.650   2.196   6.530
 4747TIP3   OH214185   7.038   2.527   6.639
 4747TIP3    H114186   7.098   2.465   6.682
 4747TIP3    H214187   7.014   2.484   6.557
 4748TIP3   OH214188   3.607   5.859   0.378
 4748TIP3    H114189   3.643   5.939   0.340
 4748TIP3    H214190   3.590   5.802   0.303
 4749TIP3   OH214191   3.113   7.650   1.318
 4749TIP3    H114192   3.154   7.726   1.279
 4749TIP3    H214193   3.024   7.679   1.338
 4750TIP3   OH214194   4.515   7.411   5.977
 4750TIP3    H114195   4.608   7.398   5.962
 4750TIP3    H214196   4.481   7.324   5.998
 4751TIP3   OH214197   5.093   4.329   4.317
 4751TIP3    H114198   5.003   4.336   4.284
 4751TIP3    H214199   5.130   4.254   4.271
 4752TIP3   OH214200   8.195   4.244   1.683
 4752TIP3    H114201   8.106   4.234   1.649
 4752TIP3    H214202   8.189   4.217   1.774
 4753TIP3   OH214203   4.850   5.801   0.683
 4753TIP3    H114204   4.916   5.777   0.748
 4753TIP3    H214205   4.769   5.763   0.717
 4754TIP3   OH214206   1.682   2.553   5.816
 4754TIP3    H114207   1.694   2.504   5.897
 4754TIP3    H214208   1.748   2.623   5.821
 4755TIP3   OH214209   5.136   2.729   3.196
 4755TIP3    H114210   5.215   2.766   3.236
 4755TIP3    H214211   5.153   2.635   3.191
 4756TIP3   OH214212   6.699   3.818   5.778
 4756TIP3    H114213   6.750   3.738   5.791
 4756TIP3    H214214   6.623   3.790   5.726
 4757TIP3   OH214215   5.018   1.497   5.844
 4757TIP3    H114216   4.928   1.469   5.826
 4757TIP3    H214217   5.019   1.518   5.937
 4758TIP3   OH214218   3.125   5.427   4.275
 4758TIP3    H114219   3.053   5.490   4.271
 4758TIP3    H214220   3.200   5.474   4.240
 4759TIP3   OH214221   3.753   6.876   1.402
 4759TIP3    H114222   3.789   6.791   1.427
 4759TIP3    H214223   3.829   6.929   1.378
 4760TIP3   OH214224   1.343   6.326   4.811
 4760TIP3    H114225   1.359   6.231   4.815
 4760TIP3    H214226   1.313   6.349   4.899
 4761TIP3   OH214227   5.538   0.399   4.177
 4761TIP3    H114228   5.519   0.305   4.165
 4761TIP3    H214229   5.612   0.415   4.119
 4762TIP3   OH214230   6.285   5.948   1.277
 4762TIP3    H114231   6.215   5.945   1.211
 4762TIP3    H214232   6.271   6.031   1.323
 4763TIP3   OH214233   4.540   0.377   0.178
 4763TIP3    H114234   4.607   0.311   0.195
 4763TIP3    H214235   4.515   0.363   0.087
 4764TIP3   OH214236   4.191   3.616   4.169
 4764TIP3    H114237   4.164   3.554   4.236
 4764TIP3    H214238   4.239   3.564   4.105
 4765TIP3   OH214239   4.120   1.014   0.081
 4765TIP3    H114240   4.033   0.981   0.060
 4765TIP3    H214241   4.178   0.940   0.068
 4766TIP3   OH214242   7.881   4.488   1.380
 4766TIP3    H114243   7.919   4.560   1.430
 4766TIP3    H214244   7.804   4.526   1.338
 4767TIP3   OH214245   0.902   0.714   0.396
 4767TIP3    H114246   0.808   0.718   0.411
 4767TIP3    H214247   0.933   0.804   0.409
 4768TIP3   OH214248   7.424   4.720   3.005
 4768TIP3    H114249   7.377   4.647   3.045
 4768TIP3    H214250   7.409   4.794   3.064
 4769TIP3   OH214251   1.683   7.490   2.441
 4769TIP3    H114252   1.655   7.565   2.493
 4769TIP3    H214253   1.723   7.431   2.505
 4770TIP3   OH214254   0.934   1.894   5.388
 4770TIP3    H114255   0.853   1.874   5.340
 4770TIP3    H214256   1.002   1.850   5.338
 4771TIP3   OH214257   5.109   4.990   0.643
 4771TIP3    H114258   5.173   4.942   0.696
 4771TIP3    H214259   5.138   4.977   0.553
 4772TIP3   OH214260   6.939   1.722   2.789
 4772TIP3    H114261   6.909   1.747   2.876
 4772TIP3    H214262   6.866   1.744   2.731
 4773TIP3   OH214263   6.084   7.404   0.052
 4773TIP3    H114264   6.072   7.493   0.020
 4773TIP3    H214265   6.140   7.361  -0.013
 4774TIP3   OH214266   3.087   4.731   2.989
 4774TIP3    H114267   3.014   4.704   3.046
 4774TIP3    H214268   3.053   4.808   2.942
 4775TIP3   OH214269   2.983   6.717   4.027
 4775TIP3    H114270   3.037   6.649   3.987
 4775TIP3    H214271   2.926   6.669   4.088
 4776TIP3   OH214272   3.566   4.190   6.132
 4776TIP3    H114273   3.652   4.164   6.099
 4776TIP3    H214274   3.562   4.156   6.221
 4777TIP3   OH214275   1.799   4.749   3.995
 4777TIP3    H114276   1.888   4.767   3.966
 4777TIP3    H214277   1.805   4.742   4.090
 4778TIP3   OH214278   5.941   0.313   4.248
 4778TIP3    H114279   5.877   0.356   4.305
 4778TIP3    H214280   5.947   0.370   4.171
 4779TIP3   OH214281   3.393   0.180   2.185
 4779TIP3    H114282   3.440   0.247   2.235
 4779TIP3    H214283   3.419   0.098   2.226
 4780TIP3   OH214284   6.434   0.685   5.501
 4780TIP3    H114285   6.491   0.746   5.548
 4780TIP3    H214286   6.434   0.717   5.411
 4781TIP3   OH214287   1.186   6.024   2.005
 4781TIP3    H114288   1.281   6.023   1.993
 4781TIP3    H214289   1.152   6.064   1.925
 4782TIP3   OH214290   1.520   5.042   0.449
 4782TIP3    H114291   1.577   4.968   0.429
 4782TIP3    H214292   1.577   5.118   0.446
 4783TIP3   OH214293   3.408   1.999   5.448
 4783TIP3    H114294   3.348   2.067   5.418
 4783TIP3    H214295   3.433   2.026   5.536
 4784TIP3   OH214296   3.858   7.080   5.268
 4784TIP3    H114297   3.909   7.001   5.286
 4784TIP3    H214298   3.776   7.048   5.231
 4785TIP3   OH214299   7.492   3.867   5.965
 4785TIP3    H114300   7.421   3.878   5.902
 4785TIP3    H214301   7.453   3.889   6.049
 4786TIP3   OH214302   0.700   4.048   0.114
 4786TIP3    H114303   0.749   4.094   0.046
 4786TIP3    H214304   0.762   4.037   0.186
 4787TIP3   OH214305   1.479   6.324   1.874
 4787TIP3    H114306   1.404   6.355   1.924
 4787TIP3    H214307   1.441   6.283   1.796
 4788TIP3   OH214308   6.552   3.284   5.454
 4788TIP3    H114309   6.538   3.253   5.543
 4788TIP3    H214310   6.471   3.262   5.408
 4789TIP3   OH214311   6.350   1.754   2.241
 4789TIP3    H114312   6.406   1.691   2.197
 4789TIP3    H214313   6.268   1.751   2.192
 4790TIP3   OH214314   5.502   6.772   3.136
 4790TIP3    H114315   5.424   6.757   3.189
 4790TIP3    H214316   5.468   6.806   3.053
 4791TIP3   OH214317   6.173   7.560   0.825
 4791TIP3    H114318   6.203   7.629   0.765
 4791TIP3    H214319   6.078   7.560   0.816
 4792TIP3   OH214320   3.969   5.181   6.486
 4792TIP3    H114321   4.041   5.185   6.423
 4792TIP3    H214322   3.974   5.264   6.534
 4793TIP3   OH214323   5.790   7.368   0.864
 4793TIP3    H114324   5.697   7.383   0.848
 4793TIP3    H214325   5.821   7.449   0.905
 4794TIP3   OH214326   7.600   0.479   0.528
 4794TIP3    H114327   7.582   0.573   0.534
 4794TIP3    H214328   7.539   0.448   0.461
 4795TIP3   OH214329   1.682   7.419   4.436
 4795TIP3    H114330   1.631   7.481   4.384
 4795TIP3    H214331   1.620   7.349   4.457
 4796TIP3   OH214332   1.915   6.424   5.068
 4796TIP3    H114333   1.858   6.448   4.995
 4796TIP3    H214334   1.962   6.347   5.037
 4797TIP3   OH214335   6.680   4.497   2.281
 4797TIP3    H114336   6.713   4.506   2.370
 4797TIP3    H214337   6.609   4.560   2.275
 4798TIP3   OH214338   3.186   4.154   2.751
 4798TIP3    H114339   3.269   4.201   2.757
 4798TIP3    H214340   3.197   4.094   2.677
 4799TIP3   OH214341   1.655   1.694   6.778
 4799TIP3    H114342   1.616   1.716   6.694
 4799TIP3    H214343   1.749   1.704   6.764
 4800TIP3   OH214344   4.053   0.307   0.522
 4800TIP3    H114345   4.073   0.311   0.616
 4800TIP3    H214346   3.960   0.329   0.517
 4801TIP3   OH214347   4.399   4.363   2.311
 4801TIP3    H114348   4.345   4.441   2.299
 4801TIP3    H214349   4.470   4.374   2.248
 4802TIP3   OH214350   3.429   3.476   1.890
 4802TIP3    H114351   3.510   3.438   1.922
 4802TIP3    H214352   3.395   3.411   1.829
 4803TIP3   OH214353   5.182   5.708   6.399
 4803TIP3    H114354   5.260   5.763   6.396
 4803TIP3    H214355   5.198   5.639   6.334
 4804TIP3   OH214356   5.975   2.097   1.091
 4804TIP3    H114357   5.930   2.054   1.163
 4804TIP3    H214358   5.932   2.183   1.084
 4805TIP3   OH214359   2.919   4.721   0.361
 4805TIP3    H114360   2.990   4.695   0.420
 4805TIP3    H214361   2.849   4.658   0.379
 4806TIP3   OH214362   1.212   6.598   0.522
 4806TIP3    H114363   1.216   6.523   0.581
 4806TIP3    H214364   1.159   6.663   0.569
 4807TIP3   OH214365   8.078   7.013   5.525
 4807TIP3    H114366   8.168   7.006   5.495
 4807TIP3    H214367   8.053   7.103   5.507
 4808TIP3   OH214368   4.351   4.787   6.718
 4808TIP3    H114369   4.312   4.863   6.675
 4808TIP3    H214370   4.292   4.715   6.695
 4809TIP3   OH214371   1.347   0.988   0.677
 4809TIP3    H114372   1.387   0.903   0.692
 4809TIP3    H214373   1.403   1.030   0.612
 4810TIP3   OH214374   0.902   7.154   0.424
 4810TIP3    H114375   0.920   7.248   0.418
 4810TIP3    H214376   0.900   7.124   0.333
 4811TIP3   OH214377   5.076   1.324   2.923
 4811TIP3    H114378   5.168   1.325   2.947
 4811TIP3    H214379   5.060   1.410   2.885
 4812TIP3   OH214380   8.051   7.559   3.701
 4812TIP3    H114381   8.079   7.534   3.789
 4812TIP3    H214382   7.960   7.530   3.694
 4813TIP3   OH214383   5.343   1.243   5.142
 4813TIP3    H114384   5.249   1.257   5.152
 4813TIP3    H214385   5.372   1.212   5.228
 4814TIP3   OH214386   1.778   2.306   1.422
 4814TIP3    H114387   1.859   2.290   1.469
 4814TIP3    H214388   1.786   2.252   1.342
 4815TIP3   OH214389   2.798   5.336   0.110
 4815TIP3    H114390   2.886   5.335   0.073
 4815TIP3    H214391   2.758   5.253   0.082
 4816TIP3   OH214392   1.045   7.482   2.560
 4816TIP3    H114393   0.959   7.483   2.600
 4816TIP3    H214394   1.029   7.501   2.467
 4817TIP3   OH214395   2.116   0.451   2.125
 4817TIP3    H114396   2.196   0.502   2.121
 4817TIP3    H214397   2.144   0.361   2.142
 4818TIP3   OH214398   2.698   7.146   3.806
 4818TIP3    H114399   2.636   7.092   3.756
 4818TIP3    H214400   2.784   7.118   3.777
 4819TIP3   OH214401   0.813   2.512   1.863
 4819TIP3    H114402   0.905   2.500   1.838
 4819TIP3    H214403   0.765   2.453   1.804
 4820TIP3   OH214404   4.845   3.073   0.409
 4820TIP3    H114405   4.922   3.022   0.434
 4820TIP3    H214406   4.836   3.139   0.477
 4821TIP3   OH214407   2.723   2.889   4.797
 4821TIP3    H114408   2.665   2.938   4.738
 4821TIP3    H214409   2.784   2.844   4.739
 4822TIP3   OH214410   4.991   0.506   5.435
 4822TIP3    H114411   5.016   0.547   5.352
 4822TIP3    H214412   4.938   0.571   5.480
 4823TIP3   OH214413   6.406   3.767   4.560
 4823TIP3    H114414   6.348   3.709   4.511
 4823TIP3    H214415   6.400   3.851   4.515
 4824TIP3   OH214416   2.643   4.172   1.174
 4824TIP3    H114417   2.686   4.257   1.164
 4824TIP3    H214418   2.665   4.144   1.263
 4825TIP3   OH214419   3.846   2.813   4.655
 4825TIP3    H114420   3.794   2.761   4.716
 4825TIP3    H214421   3.927   2.833   4.702
 4826TIP3   OH214422   0.066   0.599   3.366
 4826TIP3    H114423   0.149   0.628   3.329
 4826TIP3    H214424   0.081   0.596   3.460
 4827TIP3   OH214425   5.079   7.201   1.675
 4827TIP3    H114426   5.035   7.193   1.759
 4827TIP3    H214427   5.108   7.292   1.671
 4828TIP3   OH214428   6.799   1.038   5.784
 4828TIP3    H114429   6.807   1.006   5.874
 4828TIP3    H214430   6.890   1.045   5.754
 4829TIP3   OH214431   6.838   0.421   0.069
 4829TIP3    H114432   6.838   0.367  -0.010
 4829TIP3    H214433   6.860   0.509   0.039
 4830TIP3   OH214434   5.384   1.081   2.555
 4830TIP3    H114435   5.302   1.115   2.591
 4830TIP3    H214436   5.385   1.113   2.464
 4831TIP3   OH214437   3.741   5.647   3.794
 4831TIP3    H114438   3.749   5.720   3.856
 4831TIP3    H214439   3.819   5.594   3.810
 4832TIP3   OH214440   7.981   0.711   3.749
 4832TIP3    H114441   8.010   0.663   3.671
 4832TIP3    H214442   8.003   0.653   3.821
 4833TIP3   OH214443   2.704   3.921   5.760
 4833TIP3    H114444   2.781   3.955   5.806
 4833TIP3    H214445   2.737   3.898   5.673
 4834TIP3   OH214446   1.693   1.657   1.685
 4834TIP3    H114447   1.749   1.621   1.617
 4834TIP3    H214448   1.726   1.746   1.698
 4835TIP3   OH214449   7.800   2.253   1.282
 4835TIP3    H114450   7.866   2.237   1.216
 4835TIP3    H214451   7.802   2.348   1.295
 4836TIP3   OH214452   0.222   2.449   3.926
 4836TIP3    H114453   0.246   2.473   4.016
 4836TIP3    H214454   0.300   2.470   3.874
 4837TIP3   OH214455   3.252   1.425   1.280
 4837TIP3    H114456   3.226   1.373   1.203
 4837TIP3    H214457   3.229   1.515   1.256
 4838TIP3   OH214458   4.208   3.719   4.959
 4838TIP3    H114459   4.203   3.780   5.033
 4838TIP3    H214460   4.178   3.770   4.884
 4839TIP3   OH214461   5.879   0.743   2.297
 4839TIP3    H114462   5.884   0.741   2.202
 4839TIP3    H214463   5.940   0.812   2.323
 4840TIP3   OH214464   2.486   1.401   6.054
 4840TIP3    H114465   2.469   1.439   5.968
 4840TIP3    H214466   2.420   1.440   6.111
 4841TIP3   OH214467   1.754   4.105   0.948
 4841TIP3    H114468   1.795   4.030   0.991
 4841TIP3    H214469   1.678   4.068   0.902
 4842TIP3   OH214470   2.944   3.204   1.649
 4842TIP3    H114471   3.005   3.225   1.579
 4842TIP3    H214472   2.996   3.155   1.713
 4843TIP3   OH214473   0.585   5.333   3.715
 4843TIP3    H114474   0.663   5.344   3.661
 4843TIP3    H214475   0.528   5.405   3.691
 4844TIP3   OH214476   3.534   0.994   0.222
 4844TIP3    H114477   3.510   0.966   0.310
 4844TIP3    H214478   3.588   1.072   0.235
 4845TIP3   OH214479   5.615   7.575   3.919
 4845TIP3    H114480   5.552   7.642   3.947
 4845TIP3    H214481   5.561   7.498   3.901
 4846TIP3   OH214482   6.990   4.266   2.340
 4846TIP3    H114483   7.015   4.353   2.309
 4846TIP3    H214484   7.021   4.207   2.271
 4847TIP3   OH214485   4.205   1.546   6.786
 4847TIP3    H114486   4.282   1.590   6.750
 4847TIP3    H214487   4.184   1.478   6.721
 4848TIP3   OH214488   2.595   1.779   5.377
 4848TIP3    H114489   2.599   1.693   5.336
 4848TIP3    H214490   2.593   1.841   5.303
 4849TIP3   OH214491   6.643   5.607   0.793
 4849TIP3    H114492   6.612   5.521   0.818
 4849TIP3    H214493   6.566   5.652   0.759
 4850TIP3   OH214494   6.453   1.198   3.968
 4850TIP3    H114495   6.545   1.192   3.944
 4850TIP3    H214496   6.448   1.166   4.058
 4851TIP3   OH214497   4.425   4.524   1.857
 4851TIP3    H114498   4.418   4.602   1.801
 4851TIP3    H214499   4.434   4.452   1.795
 4852TIP3   OH214500   5.645   1.770   0.946
 4852TIP3    H114501   5.653   1.820   1.027
 4852TIP3    H214502   5.551   1.752   0.939
 4853TIP3   OH214503   3.283   6.207   0.286
 4853TIP3    H114504   3.289   6.111   0.287
 4853TIP3    H214505   3.218   6.226   0.218
 4854TIP3   OH214506   3.118   6.749   1.939
 4854TIP3    H114507   3.116   6.764   2.033
 4854TIP3    H214508   3.160   6.827   1.903
 4855TIP3   OH214509   5.237   2.388   4.451
 4855TIP3    H114510   5.277   2.474   4.449
 4855TIP3    H214511   5.226   2.368   4.544
 4856TIP3   OH214512   7.533   1.734   3.563
 4856TIP3    H114513   7.517   1.749   3.657
 4856TIP3    H214514   7.477   1.798   3.519
 4857TIP3   OH214515   2.097   2.176   4.488
 4857TIP3    H114516   2.055   2.230   4.556
 4857TIP3    H214517   2.082   2.086   4.517
 4858TIP3   OH214518   5.294   7.665   4.603
 4858TIP3    H114519   5.337   7.681   4.687
 4858TIP3    H214520   5.364   7.633   4.546
 4859TIP3   OH214521   6.386   4.311   4.306
 4859TIP3    H114522   6.393   4.227   4.261
 4859TIP3    H214523   6.396   4.290   4.399
 4860TIP3   OH214524   3.129   5.606   3.048
 4860TIP3    H114525   3.125   5.701   3.058
 4860TIP3    H214526   3.064   5.572   3.110
 4861TIP3   OH214527   4.247   1.224   0.782
 4861TIP3    H114528   4.269   1.165   0.709
 4861TIP3    H214529   4.314   1.292   0.778
 4862TIP3   OH214530   0.219   4.946   2.141
 4862TIP3    H114531   0.253   5.035   2.132
 4862TIP3    H214532   0.232   4.906   2.055
 4863TIP3   OH214533   3.180   0.330   0.582
 4863TIP3    H114534   3.150   0.419   0.602
 4863TIP3    H214535   3.128   0.303   0.507
 4864TIP3   OH214536   3.898   1.781   4.125
 4864TIP3    H114537   3.978   1.832   4.114
 4864TIP3    H214538   3.870   1.759   4.036
 4865TIP3   OH214539   4.277   0.526   4.004
 4865TIP3    H114540   4.259   0.605   4.055
 4865TIP3    H214541   4.369   0.534   3.980
 4866TIP3   OH214542   4.823   6.154   3.573
 4866TIP3    H114543   4.855   6.244   3.584
 4866TIP3    H214544   4.882   6.101   3.627
 4867TIP3   OH214545   0.496   3.869   6.732
 4867TIP3    H114546   0.541   3.807   6.674
 4867TIP3    H214547   0.471   3.817   6.808
 4868TIP3   OH214548   0.039   0.566   0.370
 4868TIP3    H114549   0.067   0.494   0.427
 4868TIP3    H214550   0.114   0.625   0.368
 4869TIP3   OH214551   3.780   2.600   4.887
 4869TIP3    H114552   3.771   2.505   4.877
 4869TIP3    H214553   3.690   2.632   4.890
 4870TIP3   OH214554   4.647   2.790   5.343
 4870TIP3    H114555   4.620   2.707   5.382
 4870TIP3    H214556   4.649   2.851   5.416
 4871TIP3   OH214557   0.888   0.801   3.394
 4871TIP3    H114558   0.949   0.858   3.348
 4871TIP3    H214559   0.854   0.856   3.465
 4872TIP3   OH214560   5.539   5.026   2.276
 4872TIP3    H114561   5.569   4.953   2.222
 4872TIP3    H214562   5.482   5.076   2.218
 4873TIP3   OH214563   4.855   6.383   5.415
 4873TIP3    H114564   4.849   6.347   5.503
 4873TIP3    H214565   4.920   6.329   5.371
 4874TIP3   OH214566   5.637   3.996   6.500
 4874TIP3    H114567   5.655   4.068   6.439
 4874TIP3    H214568   5.595   4.039   6.575
 4875TIP3   OH214569   0.879   6.078   0.584
 4875TIP3    H114570   0.837   6.002   0.626
 4875TIP3    H214571   0.972   6.070   0.608
 4876TIP3   OH214572   8.297   4.530   4.888
 4876TIP3    H114573   8.258   4.613   4.860
 4876TIP3    H214574   8.228   4.466   4.872
 4877TIP3   OH214575   8.286   1.666   4.868
 4877TIP3    H114576   8.245   1.704   4.946
 4877TIP3    H214577   8.335   1.591   4.902
 4878TIP3   OH214578   6.138   1.217   4.137
 4878TIP3    H114579   6.194   1.159   4.189
 4878TIP3    H214580   6.068   1.243   4.197
 4879TIP3   OH214581   0.918   5.605   4.352
 4879TIP3    H114582   0.910   5.663   4.276
 4879TIP3    H214583   0.998   5.555   4.336
 4880TIP3   OH214584   2.479   1.445   5.735
 4880TIP3    H114585   2.548   1.434   5.670
 4880TIP3    H214586   2.455   1.356   5.760
 4881TIP3   OH214587   7.048   7.357   2.848
 4881TIP3    H114588   7.007   7.417   2.910
 4881TIP3    H214589   7.098   7.414   2.789
 4882TIP3   OH214590   1.720   2.847   0.018
 4882TIP3    H114591   1.630   2.842   0.050
 4882TIP3    H214592   1.763   2.907   0.078
 4883TIP3   OH214593   3.324   3.142   5.455
 4883TIP3    H114594   3.237   3.111   5.430
 4883TIP3    H214595   3.355   3.190   5.378
 4884TIP3   OH214596   1.680   1.435   1.276
 4884TIP3    H114597   1.742   1.498   1.240
 4884TIP3    H214598   1.594   1.473   1.259
 4885TIP3   OH214599   1.185   7.799   6.686
 4885TIP3    H114600   1.128   7.851   6.629
 4885TIP3    H214601   1.130   7.727   6.716
 4886TIP3   OH214602   0.752   5.466   5.945
 4886TIP3    H114603   0.831   5.457   5.891
 4886TIP3    H214604   0.720   5.554   5.927
 4887TIP3   OH214605   6.896   4.360   0.554
 4887TIP3    H114606   6.836   4.293   0.524
 4887TIP3    H214607   6.923   4.331   0.641
 4888TIP3   OH214608   3.832   5.389   3.805
 4888TIP3    H114609   3.744   5.404   3.769
 4888TIP3    H214610   3.852   5.299   3.781
 4889TIP3   OH214611   0.610   7.526   5.539
 4889TIP3    H114612   0.617   7.573   5.456
 4889TIP3    H214613   0.611   7.434   5.515
 4890TIP3   OH214614   6.548   6.464   5.041
 4890TIP3    H114615   6.506   6.428   4.963
 4890TIP3    H214616   6.507   6.418   5.114
 4891TIP3   OH214617   4.115   4.112   4.610
 4891TIP3    H114618   4.060   4.163   4.550
 4891TIP3    H214619   4.155   4.045   4.555
 4892TIP3   OH214620   6.771   0.247   2.845
 4892TIP3    H114621   6.690   0.284   2.809
 4892TIP3    H214622   6.763   0.258   2.939
 4893TIP3   OH214623   2.429   0.808   2.393
 4893TIP3    H114624   2.341   0.844   2.385
 4893TIP3    H214625   2.419   0.736   2.455
 4894TIP3   OH214626   7.375   0.179   1.180
 4894TIP3    H114627   7.377   0.252   1.119
 4894TIP3    H214628   7.287   0.181   1.218
 4895TIP3   OH214629   6.622   3.087   5.931
 4895TIP3    H114630   6.535   3.064   5.964
 4895TIP3    H214631   6.655   3.151   5.995
 4896TIP3   OH214632   6.930   0.526   3.257
 4896TIP3    H114633   6.861   0.479   3.211
 4896TIP3    H214634   7.012   0.493   3.219
 4897TIP3   OH214635   5.621   0.064   3.297
 4897TIP3    H114636   5.639  -0.007   3.236
 4897TIP3    H214637   5.699   0.067   3.354
 4898TIP3   OH214638   2.672   7.577   1.904
 4898TIP3    H114639   2.627   7.618   1.830
 4898TIP3    H214640   2.667   7.483   1.886
 4899TIP3   OH214641   7.028   2.221   5.436
 4899TIP3    H114642   7.033   2.293   5.372
 4899TIP3    H214643   6.939   2.186   5.427
 4900TIP3   OH214644   1.329   0.714   4.091
 4900TIP3    H114645   1.310   0.794   4.042
 4900TIP3    H214646   1.247   0.691   4.134
 4901TIP3   OH214647   6.612   4.306   2.965
 4901TIP3    H114648   6.682   4.241   2.960
 4901TIP3    H214649   6.566   4.286   3.046
 4902TIP3   OH214650   1.160   4.151   5.514
 4902TIP3    H114651   1.200   4.099   5.444
 4902TIP3    H214652   1.136   4.234   5.473
 4903TIP3   OH214653   4.558   2.091   2.802
 4903TIP3    H114654   4.571   2.016   2.860
 4903TIP3    H214655   4.621   2.079   2.731
 4904TIP3   OH214656   7.039   5.583   0.897
 4904TIP3    H114657   6.986   5.517   0.942
 4904TIP3    H214658   7.022   5.664   0.945
 4905TIP3   OH214659   7.223   5.765   4.848
 4905TIP3    H114660   7.293   5.823   4.818
 4905TIP3    H214661   7.149   5.785   4.791
 4906TIP3   OH214662   1.970   6.956   3.588
 4906TIP3    H114663   1.975   7.052   3.584
 4906TIP3    H214664   1.957   6.930   3.497
 4907TIP3   OH214665   5.284   3.656   0.006
 4907TIP3    H114666   5.264   3.669   0.099
 4907TIP3    H214667   5.333   3.734  -0.019
 4908TIP3   OH214668   2.250   0.694   3.566
 4908TIP3    H114669   2.271   0.604   3.589
 4908TIP3    H214670   2.172   0.687   3.511
 4909TIP3   OH214671   5.380   7.768   5.163
 4909TIP3    H114672   5.456   7.763   5.222
 4909TIP3    H214673   5.379   7.859   5.133
 4910TIP3   OH214674   1.798   3.496   1.149
 4910TIP3    H114675   1.761   3.582   1.171
 4910TIP3    H214676   1.741   3.433   1.193
 4911TIP3   OH214677   0.399   0.160   0.951
 4911TIP3    H114678   0.323   0.158   0.892
 4911TIP3    H214679   0.362   0.180   1.037
 4912TIP3   OH214680   4.338   0.266   5.058
 4912TIP3    H114681   4.374   0.343   5.014
 4912TIP3    H214682   4.262   0.241   5.006
 4913TIP3   OH214683   0.624   0.466   6.659
 4913TIP3    H114684   0.589   0.555   6.655
 4913TIP3    H214685   0.716   0.475   6.635
 4914TIP3   OH214686   5.165   5.460   0.884
 4914TIP3    H114687   5.201   5.490   0.967
 4914TIP3    H214688   5.225   5.494   0.818
 4915TIP3   OH214689   7.469   3.042   6.159
 4915TIP3    H114690   7.532   3.091   6.211
 4915TIP3    H214691   7.440   3.104   6.091
 4916TIP3   OH214692   4.767   4.594   2.812
 4916TIP3    H114693   4.818   4.604   2.731
 4916TIP3    H214694   4.683   4.634   2.792
 4917TIP3   OH214695   0.752   4.329   5.459
 4917TIP3    H114696   0.769   4.246   5.503
 4917TIP3    H214697   0.665   4.354   5.488
 4918TIP3   OH214698   4.083   4.976   0.581
 4918TIP3    H114699   4.177   4.967   0.565
 4918TIP3    H214700   4.047   5.003   0.496
 4919TIP3   OH214701   1.021   1.385   6.673
 4919TIP3    H114702   0.938   1.381   6.720
 4919TIP3    H214703   1.060   1.468   6.700
 4920TIP3   OH214704   0.385   6.026   3.258
 4920TIP3    H114705   0.386   5.941   3.212
 4920TIP3    H214706   0.477   6.053   3.260
 4921TIP3   OH214707   4.395   4.544   0.914
 4921TIP3    H114708   4.350   4.542   0.999
 4921TIP3    H214709   4.488   4.541   0.937
 4922TIP3   OH214710   6.320   4.536   5.744
 4922TIP3    H114711   6.328   4.527   5.839
 4922TIP3    H214712   6.311   4.630   5.730
 4923TIP3   OH214713   5.515   1.135   5.724
 4923TIP3    H114714   5.479   1.173   5.644
 4923TIP3    H214715   5.601   1.103   5.699
 4924TIP3   OH214716   3.412   6.655   2.830
 4924TIP3    H114717   3.416   6.585   2.896
 4924TIP3    H214718   3.385   6.610   2.750
 4925TIP3   OH214719   5.138   4.004   4.483
 4925TIP3    H114720   5.232   4.016   4.468
 4925TIP3    H214721   5.107   4.090   4.512
 4926TIP3   OH214722   7.490  -0.004   6.026
 4926TIP3    H114723   7.495   0.079   6.072
 4926TIP3    H214724   7.580  -0.034   6.019
 4927TIP3   OH214725   0.659   2.999   4.855
 4927TIP3    H114726   0.623   3.077   4.814
 4927TIP3    H214727   0.725   3.032   4.916
 4928TIP3   OH214728   2.893   7.477   2.033
 4928TIP3    H114729   2.958   7.457   1.966
 4928TIP3    H214730   2.824   7.525   1.986
 4929TIP3   OH214731   5.230   2.836   5.073
 4929TIP3    H114732   5.288   2.808   5.144
 4929TIP3    H214733   5.285   2.893   5.019
 4930TIP3   OH214734   3.551   5.369   4.381
 4930TIP3    H114735   3.527   5.360   4.288
 4930TIP3    H214736   3.470   5.397   4.424
 4931TIP3   OH214737   4.437   7.319   0.044
 4931TIP3    H114738   4.442   7.240  -0.010
 4931TIP3    H214739   4.463   7.390  -0.014
 4932TIP3   OH214740   2.410   7.593   3.144
 4932TIP3    H114741   2.349   7.644   3.198
 4932TIP3    H214742   2.495   7.633   3.160
 4933TIP3   OH214743   3.929   5.111   6.092
 4933TIP3    H114744   4.006   5.055   6.080
 4933TIP3    H214745   3.898   5.090   6.181
 4934TIP3   OH214746   1.711   3.115   6.744
 4934TIP3    H114747   1.656   3.044   6.711
 4934TIP3    H214748   1.721   3.096   6.837
 4935TIP3   OH214749   5.759   6.731   6.156
 4935TIP3    H114750   5.806   6.762   6.079
 4935TIP3    H214751   5.826   6.724   6.224
 4936TIP3   OH214752   0.799   3.654   2.487
 4936TIP3    H114753   0.774   3.716   2.555
 4936TIP3    H214754   0.879   3.691   2.450
 4937TIP3   OH214755   7.410   7.366   4.800
 4937TIP3    H114756   7.389   7.305   4.729
 4937TIP3    H214757   7.325   7.397   4.831
 4938TIP3   OH214758   6.781   0.334   6.457
 4938TIP3    H114759   6.729   0.266   6.415
 4938TIP3    H214760   6.759   0.328   6.550
 4939TIP3   OH214761   2.501   2.763   6.270
 4939TIP3    H114762   2.435   2.822   6.307
 4939TIP3    H214763   2.577   2.819   6.256
 4940TIP3   OH214764   7.505   2.284   4.648
 4940TIP3    H114765   7.576   2.337   4.612
 4940TIP3    H214766   7.510   2.201   4.600
 4941TIP3   OH214767   5.033   4.430   3.772
 4941TIP3    H114768   4.938   4.430   3.781
 4941TIP3    H214769   5.065   4.374   3.842
 4942TIP3   OH214770   1.471   6.677   1.721
 4942TIP3    H114771   1.562   6.705   1.712
 4942TIP3    H214772   1.473   6.609   1.789
 4943TIP3   OH214773   2.588   0.144   2.982
 4943TIP3    H114774   2.623   0.175   3.065
 4943TIP3    H214775   2.641   0.067   2.961
 4944TIP3   OH214776   5.739   3.172   6.674
 4944TIP3    H114777   5.797   3.097   6.690
 4944TIP3    H214778   5.653   3.132   6.657
 4945TIP3   OH214779   4.609   0.664   0.883
 4945TIP3    H114780   4.555   0.741   0.902
 4945TIP3    H214781   4.549   0.590   0.893
 4946TIP3   OH214782   7.531   2.527   6.468
 4946TIP3    H114783   7.619   2.496   6.446
 4946TIP3    H214784   7.482   2.447   6.485
 4947TIP3   OH214785   2.509   7.234   0.427
 4947TIP3    H114786   2.505   7.246   0.332
 4947TIP3    H214787   2.495   7.321   0.462
 4948TIP3   OH214788   4.493   5.813   1.385
 4948TIP3    H114789   4.551   5.886   1.410
 4948TIP3    H214790   4.412   5.856   1.357
 4949TIP3   OH214791   1.355   4.252   4.159
 4949TIP3    H114792   1.402   4.230   4.079
 4949TIP3    H214793   1.288   4.314   4.131
 4950TIP3   OH214794   3.359   1.091   3.208
 4950TIP3    H114795   3.282   1.116   3.159
 4950TIP3    H214796   3.424   1.067   3.141
 4951TIP3   OH214797   2.269   6.268   1.400
 4951TIP3    H114798   2.307   6.287   1.314
 4951TIP3    H214799   2.269   6.353   1.445
 4952TIP3   OH214800   7.752   7.363   6.429
 4952TIP3    H114801   7.656   7.363   6.425
 4952TIP3    H214802   7.772   7.367   6.523
 4953TIP3   OH214803   3.138   7.316   4.938
 4953TIP3    H114804   3.122   7.228   4.973
 4953TIP3    H214805   3.201   7.302   4.867
 4954TIP3   OH214806   5.783   0.679   4.207
 4954TIP3    H114807   5.852   0.745   4.199
 4954TIP3    H214808   5.738   0.681   4.123
 4955TIP3   OH214809   2.611   0.654   2.004
 4955TIP3    H114810   2.632   0.714   1.933
 4955TIP3    H214811   2.606   0.568   1.963
 4956TIP3   OH214812   4.119   6.565   4.999
 4956TIP3    H114813   4.103   6.651   5.037
 4956TIP3    H214814   4.032   6.531   4.977
 4957TIP3   OH214815   1.561   5.411   5.807
 4957TIP3    H114816   1.541   5.504   5.819
 4957TIP3    H214817   1.476   5.367   5.811
 4958TIP3   OH214818   5.207   2.402   0.844
 4958TIP3    H114819   5.205   2.341   0.918
 4958TIP3    H214820   5.159   2.479   0.875
 4959TIP3   OH214821   4.123   4.867   0.838
 4959TIP3    H114822   4.098   4.943   0.785
 4959TIP3    H214823   4.183   4.902   0.904
 4960TIP3   OH214824   0.379   0.235   2.297
 4960TIP3    H114825   0.366   0.310   2.239
 4960TIP3    H214826   0.334   0.258   2.378
 4961TIP3   OH214827   6.104   5.903   4.059
 4961TIP3    H114828   6.021   5.861   4.036
 4961TIP3    H214829   6.079   5.986   4.099
 4962TIP3   OH214830   3.715   4.174   5.336
 4962TIP3    H114831   3.702   4.120   5.258
 4962TIP3    H214832   3.783   4.129   5.385
 4963TIP3   OH214833   6.602   6.044   1.058
 4963TIP3    H114834   6.565   5.963   1.095
 4963TIP3    H214835   6.645   6.087   1.132
 4964TIP3   OH214836   8.189   3.047   6.740
 4964TIP3    H114837   8.148   3.045   6.654
 4964TIP3    H214838   8.252   2.974   6.738
 4965TIP3   OH214839   6.885   3.624   1.655
 4965TIP3    H114840   6.805   3.604   1.606
 4965TIP3    H214841   6.858   3.621   1.746
 4966TIP3   OH214842   5.997   0.423   4.019
 4966TIP3    H114843   6.053   0.498   4.037
 4966TIP3    H214844   6.055   0.359   3.978
 4967TIP3   OH214845   5.141   1.273   2.315
 4967TIP3    H114846   5.173   1.183   2.303
 4967TIP3    H214847   5.050   1.270   2.283
 4968TIP3   OH214848   2.626   2.831   0.480
 4968TIP3    H114849   2.674   2.753   0.454
 4968TIP3    H214850   2.662   2.854   0.566
 4969TIP3   OH214851   6.785   0.731   4.051
 4969TIP3    H114852   6.798   0.756   4.142
 4969TIP3    H214853   6.690   0.721   4.041
 4970TIP3   OH214854   3.463   5.242   5.821
 4970TIP3    H114855   3.390   5.180   5.829
 4970TIP3    H214856   3.540   5.190   5.840
 4971TIP3   OH214857   7.347   7.122   5.554
 4971TIP3    H114858   7.407   7.187   5.590
 4971TIP3    H214859   7.297   7.090   5.630
 4972TIP3   OH214860   4.731   6.349   1.437
 4972TIP3    H114861   4.779   6.407   1.496
 4972TIP3    H214862   4.792   6.276   1.421
 4973TIP3   OH214863   0.917   6.425   0.448
 4973TIP3    H114864   0.849   6.379   0.397
 4973TIP3    H214865   0.996   6.417   0.394
 4974TIP3   OH214866   3.297   5.286   6.718
 4974TIP3    H114867   3.334   5.313   6.634
 4974TIP3    H214868   3.272   5.195   6.705
 4975TIP3   OH214869   1.973   5.600   4.557
 4975TIP3    H114870   1.924   5.668   4.603
 4975TIP3    H214871   2.001   5.540   4.625
 4976TIP3   OH214872   7.660   7.418   4.309
 4976TIP3    H114873   7.595   7.351   4.330
 4976TIP3    H214874   7.643   7.488   4.373
 4977TIP3   OH214875   4.401   1.838   5.631
 4977TIP3    H114876   4.436   1.925   5.648
 4977TIP3    H214877   4.478   1.782   5.622
 4978TIP3   OH214878   7.108   6.387   0.389
 4978TIP3    H114879   7.056   6.372   0.311
 4978TIP3    H214880   7.144   6.301   0.411
 4979TIP3   OH214881   5.190   1.989   5.912
 4979TIP3    H114882   5.280   2.004   5.941
 4979TIP3    H214883   5.136   2.044   5.969
 4980TIP3   OH214884   5.330   7.819   1.202
 4980TIP3    H114885   5.405   7.863   1.161
 4980TIP3    H214886   5.352   7.726   1.199
 4981TIP3   OH214887   2.242   5.936   6.057
 4981TIP3    H114888   2.269   5.909   5.970
 4981TIP3    H214889   2.215   5.856   6.100
 4982TIP3   OH214890   0.299   7.137   0.512
 4982TIP3    H114891   0.269   7.050   0.483
 4982TIP3    H214892   0.280   7.138   0.606
 4983TIP3   OH214893   6.631   0.508   0.619
 4983TIP3    H114894   6.608   0.469   0.534
 4983TIP3    H214895   6.554   0.559   0.643
 4984TIP3   OH214896   5.964   0.289   5.513
 4984TIP3    H114897   5.952   0.285   5.608
 4984TIP3    H214898   5.883   0.329   5.481
 4985TIP3   OH214899   0.411   5.032   5.839
 4985TIP3    H114900   0.487   5.079   5.874
 4985TIP3    H214901   0.392   4.965   5.905
 4986TIP3   OH214902   0.401   2.376   4.152
 4986TIP3    H114903   0.429   2.423   4.230
 4986TIP3    H214904   0.331   2.318   4.182
 4987TIP3   OH214905   2.769   0.670   0.019
 4987TIP3    H114906   2.687   0.715   0.039
 4987TIP3    H214907   2.742   0.584  -0.012
 4988TIP3   OH214908   0.206   3.156   0.948
 4988TIP3    H114909   0.207   3.248   0.974
 4988TIP3    H214910   0.144   3.115   1.008
 4989TIP3   OH214911   4.239   0.165   1.479
 4989TIP3    H114912   4.235   0.239   1.539
 4989TIP3    H214913   4.162   0.177   1.422
 4990TIP3   OH214914   0.040   2.352   6.523
 4990TIP3    H114915  -0.027   2.420   6.516
 4990TIP3    H214916   0.060   2.329   6.432
 4991TIP3   OH214917   2.701   0.838   6.052
 4991TIP3    H114918   2.697   0.898   5.978
 4991TIP3    H214919   2.772   0.778   6.030
 4992TIP3   OH214920   6.819   6.301   4.597
 4992TIP3    H114921   6.761   6.355   4.543
 4992TIP3    H214922   6.774   6.216   4.603
 4993TIP3   OH214923   5.211   0.273   4.097
 4993TIP3    H114924   5.285   0.221   4.065
 4993TIP3    H214925   5.252   0.345   4.144
 4994TIP3   OH214926   1.182   1.578   4.642
 4994TIP3    H114927   1.144   1.665   4.627
 4994TIP3    H214928   1.135   1.520   4.582
 4995TIP3   OH214929   0.107   1.592   6.002
 4995TIP3    H114930   0.056   1.511   6.002
 4995TIP3    H214931   0.132   1.605   6.094
 4996TIP3   OH214932   6.292   1.362   0.723
 4996TIP3    H114933   6.382   1.368   0.754
 4996TIP3    H214934   6.267   1.271   0.741
 4997TIP3   OH214935   3.303   2.076   1.331
 4997TIP3    H114936   3.345   1.995   1.360
 4997TIP3    H214937   3.307   2.072   1.235
 4998TIP3   OH214938   1.721   1.709   0.677
 4998TIP3    H114939   1.671   1.717   0.596
 4998TIP3    H214940   1.773   1.789   0.682
 4999TIP3   OH214941   6.730   1.877   4.640
 4999TIP3    H114942   6.716   1.855   4.732
 4999TIP3    H214943   6.823   1.856   4.625
 5000TIP3   OH214944   2.928   6.469   4.146
 5000TIP3    H114945   2.910   6.414   4.070
 5000TIP3    H214946   2.845   6.513   4.164
 5001TIP3   OH214947   7.640   6.681   5.010
 5001TIP3    H114948   7.690   6.714   5.083
 5001TIP3    H214949   7.624   6.589   5.031
 5002TIP3   OH214950   0.079   0.978   1.202
 5002TIP3    H114951   0.009   0.942   1.256
 5002TIP3    H214952   0.106   0.906   1.146
 5003TIP3   OH214953   0.855   0.703   0.847
 5003TIP3    H114954   0.922   0.771   0.842
 5003TIP3    H214955   0.903   0.622   0.860
 5004TIP3   OH214956   8.005   2.848   1.824
 5004TIP3    H114957   8.035   2.793   1.896
 5004TIP3    H214958   8.060   2.824   1.749
 5005TIP3   OH214959   1.481   1.929   1.881
 5005TIP3    H114960   1.424   1.858   1.911
 5005TIP3    H214961   1.422   2.002   1.864
 5006TIP3   OH214962   3.887   1.545   0.819
 5006TIP3    H114963   3.942   1.527   0.895
 5006TIP3    H214964   3.879   1.460   0.775
 5007TIP3   OH214965   8.173   6.024   5.349
 5007TIP3    H114966   8.205   5.976   5.425
 5007TIP3    H214967   8.104   5.969   5.313
 5008TIP3   OH214968   3.778   3.431   3.246
 5008TIP3    H114969   3.859   3.393   3.279
 5008TIP3    H214970   3.720   3.433   3.323
 5009TIP3   OH214971   2.543   2.402   3.099
 5009TIP3    H114972   2.574   2.443   3.180
 5009TIP3    H214973   2.578   2.313   3.103
 5010TIP3   OH214974   7.130   6.843   4.636
 5010TIP3    H114975   7.166   6.818   4.721
 5010TIP3    H214976   7.191   6.806   4.572
 5011TIP3   OH214977   4.985   3.232   4.010
 5011TIP3    H114978   4.890   3.239   4.022
 5011TIP3    H214979   5.010   3.153   4.060
 5012TIP3   OH214980   1.917   4.182   6.519
 5012TIP3    H114981   1.840   4.235   6.499
 5012TIP3    H214982   1.989   4.224   6.471
 5013TIP3   OH214983   4.470   3.608   1.568
 5013TIP3    H114984   4.549   3.634   1.615
 5013TIP3    H214985   4.402   3.666   1.602
 5014TIP3   OH214986   3.102   3.973   5.105
 5014TIP3    H114987   3.026   3.920   5.131
 5014TIP3    H214988   3.145   3.921   5.037
 5015TIP3   OH214989   1.639   6.070   6.375
 5015TIP3    H114990   1.591   6.151   6.358
 5015TIP3    H214991   1.616   6.013   6.302
 5016TIP3   OH214992   8.006   6.830   6.615
 5016TIP3    H114993   7.951   6.843   6.537
 5016TIP3    H214994   8.075   6.770   6.586
 5017TIP3   OH214995   5.452   6.405   2.340
 5017TIP3    H114996   5.392   6.335   2.314
 5017TIP3    H214997   5.508   6.364   2.406
 5018TIP3   OH214998   6.000   4.145   6.231
 5018TIP3    H114999   6.084   4.172   6.195
 5018TIP3    H215000   5.966   4.222   6.276
 5019TIP3   OH215001   7.699   4.467   3.596
 5019TIP3    H115002   7.700   4.387   3.544
 5019TIP3    H215003   7.730   4.535   3.537
 5020TIP3   OH215004   0.316   5.790   2.261
 5020TIP3    H115005   0.270   5.706   2.255
 5020TIP3    H215006   0.312   5.813   2.354
 5021TIP3   OH215007   6.403   3.861   2.480
 5021TIP3    H115008   6.465   3.820   2.540
 5021TIP3    H215009   6.318   3.829   2.508
 5022TIP3   OH215010   4.595   1.079   4.586
 5022TIP3    H115011   4.524   1.143   4.580
 5022TIP3    H215012   4.550   0.995   4.592
 5023TIP3   OH215013   0.561   5.962   1.922
 5023TIP3    H115014   0.621   5.896   1.888
 5023TIP3    H215015   0.590   6.044   1.882
 5024TIP3   OH215016   3.737   7.481   2.521
 5024TIP3    H115017   3.768   7.556   2.471
 5024TIP3    H215018   3.817   7.437   2.551
 5025TIP3   OH215019   1.803   2.098   0.597
 5025TIP3    H115020   1.736   2.059   0.541
 5025TIP3    H215021   1.867   2.135   0.536
 5026TIP3   OH215022   8.121   2.792   3.464
 5026TIP3    H115023   8.110   2.741   3.545
 5026TIP3    H215024   8.067   2.870   3.478
 5027TIP3   OH215025   2.459   4.740   6.339
 5027TIP3    H115026   2.452   4.705   6.428
 5027TIP3    H215027   2.470   4.835   6.351
 5028TIP3   OH215028   3.846   3.607   2.738
 5028TIP3    H115029   3.853   3.523   2.784
 5028TIP3    H215030   3.827   3.584   2.648
 5029TIP3   OH215031   3.359   3.057   1.900
 5029TIP3    H115032   3.372   3.057   1.806
 5029TIP3    H215033   3.444   3.083   1.936
 5030TIP3   OH215034   5.869   5.800   4.419
 5030TIP3    H115035   5.780   5.827   4.395
 5030TIP3    H215036   5.914   5.790   4.335
 5031TIP3   OH215037   7.294   1.205   3.917
 5031TIP3    H115038   7.220   1.146   3.926
 5031TIP3    H215039   7.293   1.258   3.997
 5032TIP3   OH215040   2.076   7.499   2.235
 5032TIP3    H115041   2.159   7.492   2.188
 5032TIP3    H215042   2.013   7.526   2.168
 5033TIP3   OH215043   2.160   4.081   0.908
 5033TIP3    H115044   2.199   3.994   0.916
 5033TIP3    H215045   2.087   4.068   0.847
 5034TIP3   OH215046   2.032   2.579   1.392
 5034TIP3    H115047   2.033   2.674   1.390
 5034TIP3    H215048   1.950   2.554   1.351
 5035TIP3   OH215049   8.158   5.145   3.203
 5035TIP3    H115050   8.173   5.097   3.284
 5035TIP3    H215051   8.174   5.236   3.226
 5036TIP3   OH215052   0.763   3.389   6.156
 5036TIP3    H115053   0.725   3.477   6.154
 5036TIP3    H215054   0.693   3.334   6.192
 5037TIP3   OH215055   3.652   2.466   4.583
 5037TIP3    H115056   3.611   2.551   4.571
 5037TIP3    H215057   3.593   2.404   4.542
 5038TIP3   OH215058   5.677   0.397   0.397
 5038TIP3    H115059   5.749   0.389   0.459
 5038TIP3    H215060   5.600   0.413   0.451
 5039TIP3   OH215061   3.904   7.313   6.566
 5039TIP3    H115062   3.962   7.322   6.490
 5039TIP3    H215063   3.959   7.336   6.641
 5040TIP3   OH215064   2.062   4.660   5.025
 5040TIP3    H115065   2.121   4.585   5.027
 5040TIP3    H215066   2.117   4.734   5.053
 5041TIP3   OH215067   0.997   1.895   3.399
 5041TIP3    H115068   0.942   1.970   3.376
 5041TIP3    H215069   0.949   1.850   3.469
 5042TIP3   OH215070   3.997   3.076   6.036
 5042TIP3    H115071   4.089   3.101   6.028
 5042TIP3    H215072   3.999   2.993   6.083
 5043TIP3   OH215073   6.027   7.058   1.752
 5043TIP3    H115074   6.050   6.994   1.685
 5043TIP3    H215075   6.007   7.006   1.830
 5044TIP3   OH215076   7.447   1.496   1.634
 5044TIP3    H115077   7.432   1.460   1.547
 5044TIP3    H215078   7.539   1.523   1.633
 5045TIP3   OH215079   5.588   1.698   4.275
 5045TIP3    H115080   5.543   1.748   4.207
 5045TIP3    H215081   5.623   1.621   4.229
 5046TIP3   OH215082   6.546   6.199   1.870
 5046TIP3    H115083   6.456   6.166   1.879
 5046TIP3    H215084   6.536   6.286   1.831
 5047TIP3   OH215085   5.502   2.981   6.683
 5047TIP3    H115086   5.477   2.907   6.739
 5047TIP3    H215087   5.518   2.942   6.597
 5048TIP3   OH215088   2.307   2.998   3.592
 5048TIP3    H115089   2.389   3.031   3.555
 5048TIP3    H215090   2.247   2.994   3.517
 5049TIP3   OH215091   5.908   1.242   3.106
 5049TIP3    H115092   5.900   1.177   3.037
 5049TIP3    H215093   5.875   1.323   3.067
 5050TIP3   OH215094   1.734   4.266   3.197
 5050TIP3    H115095   1.750   4.173   3.215
 5050TIP3    H215096   1.820   4.307   3.200
 5051TIP3   OH215097   6.728   5.977   0.692
 5051TIP3    H115098   6.704   6.001   0.602
 5051TIP3    H215099   6.815   6.014   0.704
 5052TIP3   OH215100   2.216   7.371   0.837
 5052TIP3    H115101   2.136   7.400   0.882
 5052TIP3    H215102   2.221   7.426   0.759
 5053TIP3   OH215103   0.325   2.291   0.031
 5053TIP3    H115104   0.328   2.210   0.083
 5053TIP3    H215105   0.243   2.285  -0.017
 5054TIP3   OH215106   3.047   0.688   6.423
 5054TIP3    H115107   2.959   0.705   6.456
 5054TIP3    H215108   3.064   0.597   6.445
 5055TIP3   OH215109   7.255   6.919   2.519
 5055TIP3    H115110   7.201   6.868   2.579
 5055TIP3    H215111   7.321   6.961   2.574
 5056TIP3   OH215112   0.418   1.007   2.522
 5056TIP3    H115113   0.354   1.076   2.503
 5056TIP3    H215114   0.366   0.927   2.531
 5057TIP3   OH215115   3.342   0.596   5.413
 5057TIP3    H115116   3.340   0.508   5.375
 5057TIP3    H215117   3.425   0.633   5.383
 5058TIP3   OH215118   4.663   7.651   5.625
 5058TIP3    H115119   4.703   7.711   5.689
 5058TIP3    H215120   4.718   7.659   5.547
 5059TIP3   OH215121   5.982   1.502   6.197
 5059TIP3    H115122   6.069   1.464   6.187
 5059TIP3    H215123   5.977   1.525   6.290
 5060TIP3   OH215124   8.031   2.203   3.921
 5060TIP3    H115125   7.964   2.184   3.987
 5060TIP3    H215126   8.024   2.297   3.907
 5061TIP3   OH215127   5.647   4.021   5.158
 5061TIP3    H115128   5.679   4.085   5.095
 5061TIP3    H215129   5.557   4.003   5.131
 5062TIP3   OH215130   5.892   4.453   5.783
 5062TIP3    H115131   5.942   4.532   5.802
 5062TIP3    H215132   5.955   4.382   5.792
 5063TIP3   OH215133   0.830   0.041   1.400
 5063TIP3    H115134   0.750  -0.008   1.419
 5063TIP3    H215135   0.879   0.042   1.483
 5064TIP3   OH215136   2.565   4.687   1.385
 5064TIP3    H115137   2.563   4.592   1.372
 5064TIP3    H215138   2.658   4.709   1.380
 5065TIP3   OH215139   1.462   5.083   6.109
 5065TIP3    H115140   1.385   5.129   6.140
 5065TIP3    H215141   1.530   5.150   6.102
 5066TIP3   OH215142   6.798   5.450   2.412
 5066TIP3    H115143   6.840   5.364   2.415
 5066TIP3    H215144   6.706   5.432   2.434
 5067TIP3   OH215145   7.953   2.741   4.873
 5067TIP3    H115146   7.979   2.832   4.861
 5067TIP3    H215147   7.926   2.735   4.964
 5068TIP3   OH215148   7.222   6.115   4.794
 5068TIP3    H115149   7.135   6.078   4.781
 5068TIP3    H215150   7.244   6.156   4.711
 5069TIP3   OH215151   0.748   2.491   1.371
 5069TIP3    H115152   0.819   2.492   1.306
 5069TIP3    H215153   0.728   2.583   1.386
 5070TIP3   OH215154   6.998   6.882   0.986
 5070TIP3    H115155   6.978   6.805   0.932
 5070TIP3    H215156   7.080   6.916   0.949
 5071TIP3   OH215157   2.321   2.112   5.496
 5071TIP3    H115158   2.284   2.023   5.500
 5071TIP3    H215159   2.249   2.166   5.464
 5072TIP3   OH215160   5.529   4.438   1.612
 5072TIP3    H115161   5.449   4.461   1.565
 5072TIP3    H215162   5.522   4.484   1.695
 5073TIP3   OH215163   2.525   5.496   1.881
 5073TIP3    H115164   2.490   5.579   1.913
 5073TIP3    H215165   2.548   5.448   1.960
 5074TIP3   OH215166   2.799   5.557   4.879
 5074TIP3    H115167   2.824   5.567   4.971
 5074TIP3    H215168   2.835   5.634   4.836
 5075TIP3   OH215169   8.167   6.570   5.301
 5075TIP3    H115170   8.170   6.522   5.384
 5075TIP3    H215171   8.198   6.506   5.236
 5076TIP3   OH215172   5.010   3.264   6.503
 5076TIP3    H115173   4.939   3.308   6.549
 5076TIP3    H215174   5.084   3.324   6.510
 5077TIP3   OH215175   8.051   7.832   1.388
 5077TIP3    H115176   8.128   7.826   1.331
 5077TIP3    H215177   7.982   7.787   1.341
 5078TIP3   OH215178   5.698   7.295   4.243
 5078TIP3    H115179   5.603   7.297   4.235
 5078TIP3    H215180   5.729   7.266   4.157
 5079TIP3   OH215181   1.957   2.614   0.454
 5079TIP3    H115182   1.989   2.622   0.544
 5079TIP3    H215183   2.030   2.577   0.405
 5080TIP3   OH215184   0.501   6.030   4.625
 5080TIP3    H115185   0.454   5.952   4.655
 5080TIP3    H215186   0.453   6.103   4.663
 5081TIP3   OH215187   3.234   4.282   0.879
 5081TIP3    H115188   3.139   4.272   0.878
 5081TIP3    H215189   3.267   4.201   0.918
 5082TIP3   OH215190   5.193   0.223   5.890
 5082TIP3    H115191   5.251   0.147   5.892
 5082TIP3    H215192   5.251   0.298   5.879
 5083TIP3   OH215193   6.020   6.369   5.595
 5083TIP3    H115194   5.967   6.341   5.669
 5083TIP3    H215195   5.958   6.410   5.535
 5084TIP3   OH215196   5.166   2.188   5.137
 5084TIP3    H115197   5.137   2.111   5.088
 5084TIP3    H215198   5.159   2.162   5.229
 5085TIP3   OH215199   1.027   5.161   2.124
 5085TIP3    H115200   0.940   5.134   2.096
 5085TIP3    H215201   1.048   5.236   2.069
 5086TIP3   OH215202   1.498   0.462   5.726
 5086TIP3    H115203   1.458   0.394   5.780
 5086TIP3    H215204   1.477   0.436   5.636
 5087TIP3   OH215205   1.469   5.229   5.487
 5087TIP3    H115206   1.481   5.225   5.582
 5087TIP3    H215207   1.419   5.150   5.466
 5088TIP3   OH215208   7.697   4.760   2.313
 5088TIP3    H115209   7.782   4.720   2.293
 5088TIP3    H215210   7.693   4.763   2.408
 5089TIP3   OH215211   6.541   0.377   2.747
 5089TIP3    H115212   6.473   0.375   2.679
 5089TIP3    H215213   6.554   0.470   2.765
 5090TIP3   OH215214   0.608   3.818   2.313
 5090TIP3    H115215   0.593   3.734   2.269
 5090TIP3    H215216   0.690   3.806   2.360
 5091TIP3   OH215217   3.956   0.192   1.812
 5091TIP3    H115218   4.048   0.165   1.807
 5091TIP3    H215219   3.959   0.283   1.841
 5092TIP3   OH215220   8.217   7.418   1.485
 5092TIP3    H115221   8.153   7.353   1.457
 5092TIP3    H215222   8.301   7.384   1.453
 5093TIP3   OH215223   2.821   4.907   2.377
 5093TIP3    H115224   2.893   4.850   2.400
 5093TIP3    H215225   2.744   4.866   2.416
 5094TIP3   OH215226   6.264   1.734   2.793
 5094TIP3    H115227   6.264   1.681   2.873
 5094TIP3    H215228   6.274   1.824   2.824
 5095TIP3   OH215229   7.379   6.460   6.734
 5095TIP3    H115230   7.447   6.497   6.678
 5095TIP3    H215231   7.326   6.406   6.675
 5096TIP3   OH215232   0.717   5.584   2.809
 5096TIP3    H115233   0.787   5.643   2.780
 5096TIP3    H215234   0.740   5.562   2.900
 5097TIP3   OH215235   1.081   7.367   5.302
 5097TIP3    H115236   1.033   7.323   5.231
 5097TIP3    H215237   1.109   7.450   5.263
 5098TIP3   OH215238   3.697   5.197   5.141
 5098TIP3    H115239   3.705   5.142   5.219
 5098TIP3    H215240   3.609   5.179   5.108
 5099TIP3   OH215241   1.627   2.256   3.014
 5099TIP3    H115242   1.557   2.193   3.025
 5099TIP3    H215243   1.600   2.332   3.067
 5100TIP3   OH215244   3.281   6.940   4.266
 5100TIP3    H115245   3.304   6.863   4.213
 5100TIP3    H215246   3.201   6.914   4.312
 5101TIP3   OH215247   3.099   5.681   1.717
 5101TIP3    H115248   3.052   5.599   1.726
 5101TIP3    H215249   3.148   5.689   1.798
 5102TIP3   OH215250   4.204   3.019   3.641
 5102TIP3    H115251   4.286   2.985   3.606
 5102TIP3    H215252   4.200   2.987   3.731
 5103TIP3   OH215253   1.160   6.699   0.225
 5103TIP3    H115254   1.187   6.657   0.307
 5103TIP3    H215255   1.219   6.661   0.159
 5104TIP3   OH215256   7.157   7.467   6.731
 5104TIP3    H115257   7.129   7.387   6.687
 5104TIP3    H215258   7.102   7.536   6.694
 5105TIP3   OH215259   3.368   4.289   0.620
 5105TIP3    H115260   3.329   4.308   0.705
 5105TIP3    H215261   3.296   4.293   0.558
 5106TIP3   OH215262   0.470   4.072   2.229
 5106TIP3    H115263   0.538   4.007   2.247
 5106TIP3    H215264   0.403   4.057   2.296
 5107TIP3   OH215265   2.176   5.675   6.104
 5107TIP3    H115266   2.213   5.587   6.104
 5107TIP3    H215267   2.084   5.662   6.127
 5108TIP3   OH215268   1.861   5.323   2.424
 5108TIP3    H115269   1.766   5.314   2.437
 5108TIP3    H215270   1.898   5.299   2.509
 5109TIP3   OH215271   2.938   5.124   3.565
 5109TIP3    H115272   2.865   5.079   3.523
 5109TIP3    H215273   2.899   5.203   3.603
 5110TIP3   OH215274   7.489   3.179   2.583
 5110TIP3    H115275   7.453   3.206   2.499
 5110TIP3    H215276   7.545   3.104   2.562
 5111TIP3   OH215277   3.521   4.981   1.966
 5111TIP3    H115278   3.513   4.886   1.966
 5111TIP3    H215279   3.524   5.004   1.873
 5112TIP3   OH215280   4.611   1.509   6.247
 5112TIP3    H115281   4.569   1.593   6.230
 5112TIP3    H215282   4.553   1.465   6.309
 5113TIP3   OH215283   5.045   2.620   4.244
 5113TIP3    H115284   4.956   2.652   4.227
 5113TIP3    H215285   5.098   2.699   4.256
 5114TIP3   OH215286   5.550   2.051   0.738
 5114TIP3    H115287   5.543   2.143   0.712
 5114TIP3    H215288   5.494   2.043   0.814
 5115TIP3   OH215289   4.582   6.864   3.913
 5115TIP3    H115290   4.664   6.816   3.915
 5115TIP3    H215291   4.530   6.821   3.845
 5116TIP3   OH215292   6.261   0.945   0.372
 5116TIP3    H115293   6.195   0.929   0.305
 5116TIP3    H215294   6.245   1.034   0.401
 5117TIP3   OH215295   0.150   3.601   2.590
 5117TIP3    H115296   0.166   3.514   2.628
 5117TIP3    H215297   0.237   3.634   2.569
 5118TIP3   OH215298   0.278   3.396   3.173
 5118TIP3    H115299   0.191   3.431   3.154
 5118TIP3    H215300   0.272   3.303   3.150
 5119TIP3   OH215301   0.753   4.996   6.443
 5119TIP3    H115302   0.782   4.968   6.356
 5119TIP3    H215303   0.660   4.974   6.445
 5120TIP3   OH215304   7.315   7.105   3.894
 5120TIP3    H115305   7.348   7.086   3.981
 5120TIP3    H215306   7.391   7.138   3.846
 5121TIP3   OH215307   5.683   7.146   1.761
 5121TIP3    H115308   5.699   7.062   1.803
 5121TIP3    H215309   5.635   7.125   1.681
 5122TIP3   OH215310   6.551   1.351   2.954
 5122TIP3    H115311   6.583   1.437   2.981
 5122TIP3    H215312   6.629   1.303   2.930
 5123TIP3   OH215313   3.580   7.337   4.384
 5123TIP3    H115314   3.629   7.395   4.327
 5123TIP3    H215315   3.527   7.283   4.325
 5124TIP3   OH215316   6.061   0.634   3.091
 5124TIP3    H115317   6.012   0.688   3.029
 5124TIP3    H215318   6.080   0.553   3.043
 5125TIP3   OH215319   1.868   0.648   0.320
 5125TIP3    H115320   1.814   0.588   0.269
 5125TIP3    H215321   1.927   0.591   0.370
 5126TIP3   OH215322   3.419  -0.019   3.386
 5126TIP3    H115323   3.510  -0.008   3.414
 5126TIP3    H215324   3.404   0.052   3.325
 5127TIP3   OH215325   3.484   5.684   6.518
 5127TIP3    H115326   3.487   5.644   6.431
 5127TIP3    H215327   3.391   5.697   6.535
 5128TIP3   OH215328   2.710   0.173   6.247
 5128TIP3    H115329   2.664   0.176   6.163
 5128TIP3    H215330   2.695   0.260   6.284
 5129TIP3   OH215331   5.414   1.016   3.778
 5129TIP3    H115332   5.338   1.074   3.773
 5129TIP3    H215333   5.448   1.013   3.688
 5130TIP3   OH215334   0.729   6.893   2.389
 5130TIP3    H115335   0.635   6.909   2.399
 5130TIP3    H215336   0.759   6.959   2.326
 5131TIP3   OH215337   5.379   1.103   2.282
 5131TIP3    H115338   5.369   1.135   2.192
 5131TIP3    H215339   5.378   1.008   2.274
 5132TIP3   OH215340   3.830   2.320   1.652
 5132TIP3    H115341   3.797   2.350   1.737
 5132TIP3    H215342   3.820   2.225   1.655
 5133TIP3   OH215343   4.322   2.972   1.462
 5133TIP3    H115344   4.353   2.925   1.385
 5133TIP3    H215345   4.341   3.064   1.444
 5134TIP3   OH215346   5.376   3.947   1.347
 5134TIP3    H115347   5.395   3.877   1.285
 5134TIP3    H215348   5.304   3.996   1.308
 5135TIP3   OH215349   4.784   2.740   4.777
 5135TIP3    H115350   4.866   2.778   4.808
 5135TIP3    H215351   4.723   2.754   4.849
 5136TIP3   OH215352   6.494   0.956   1.498
 5136TIP3    H115353   6.547   0.878   1.482
 5136TIP3    H215354   6.487   0.998   1.412
 5137TIP3   OH215355   0.827   7.713   2.906
 5137TIP3    H115356   0.886   7.782   2.876
 5137TIP3    H215357   0.765   7.702   2.834
 5138TIP3   OH215358   6.876   4.657   5.292
 5138TIP3    H115359   6.794   4.707   5.296
 5138TIP3    H215360   6.939   4.719   5.256
 5139TIP3   OH215361   8.034   2.900   5.093
 5139TIP3    H115362   8.110   2.950   5.063
 5139TIP3    H215363   7.977   2.966   5.135
 5140TIP3   OH215364   1.467   7.468   6.102
 5140TIP3    H115365   1.425   7.545   6.140
 5140TIP3    H215366   1.544   7.501   6.058
 5141TIP3   OH215367   8.026   1.064   4.825
 5141TIP3    H115368   8.062   1.149   4.850
 5141TIP3    H215369   8.031   1.063   4.730
 5142TIP3   OH215370   2.034   1.534   0.281
 5142TIP3    H115371   1.966   1.557   0.219
 5142TIP3    H215372   2.004   1.571   0.364
 5143TIP3   OH215373   1.381   3.252   4.297
 5143TIP3    H115374   1.293   3.226   4.269
 5143TIP3    H215375   1.415   3.176   4.344
 5144TIP3   OH215376   2.417   5.208   3.140
 5144TIP3    H115377   2.345   5.223   3.079
 5144TIP3    H215378   2.466   5.135   3.103
 5145TIP3   OH215379   7.641   6.795   2.934
 5145TIP3    H115380   7.650   6.890   2.933
 5145TIP3    H215381   7.561   6.779   2.984
 5146TIP3   OH215382   0.626   7.069   1.832
 5146TIP3    H115383   0.612   6.996   1.772
 5146TIP3    H215384   0.660   7.139   1.777
 5147TIP3   OH215385   3.494   2.242   3.455
 5147TIP3    H115386   3.499   2.294   3.374
 5147TIP3    H215387   3.508   2.306   3.525
 5148TIP3   OH215388   1.642   4.268   1.663
 5148TIP3    H115389   1.666   4.342   1.607
 5148TIP3    H215390   1.658   4.299   1.752
 5149TIP3   OH215391   4.295   5.655   1.713
 5149TIP3    H115392   4.363   5.637   1.778
 5149TIP3    H215393   4.234   5.714   1.757
 5150TIP3   OH215394   2.566   4.845   3.264
 5150TIP3    H115395   2.529   4.907   3.327
 5150TIP3    H215396   2.560   4.889   3.180
 5151TIP3   OH215397   2.879   4.221   6.117
 5151TIP3    H115398   2.930   4.288   6.070
 5151TIP3    H215399   2.942   4.179   6.175
 5152TIP3   OH215400   6.012   3.068   5.494
 5152TIP3    H115401   6.037   3.105   5.579
 5152TIP3    H215402   5.949   3.130   5.458
 5153TIP3   OH215403   2.193   5.421   1.408
 5153TIP3    H115404   2.153   5.440   1.493
 5153TIP3    H215405   2.287   5.429   1.423
 5154TIP3   OH215406   2.532   3.581   3.961
 5154TIP3    H115407   2.509   3.552   4.049
 5154TIP3    H215408   2.627   3.575   3.957
 5155TIP3   OH215409   3.146   2.277   3.563
 5155TIP3    H115410   3.183   2.355   3.605
 5155TIP3    H215411   3.064   2.262   3.610
 5156TIP3   OH215412   5.041   5.645   3.025
 5156TIP3    H115413   5.087   5.699   2.961
 5156TIP3    H215414   5.076   5.557   3.011
 5157TIP3   OH215415   4.072   1.112   5.803
 5157TIP3    H115416   4.056   1.049   5.873
 5157TIP3    H215417   4.163   1.097   5.777
 5158TIP3   OH215418   0.572   7.640   4.906
 5158TIP3    H115419   0.657   7.640   4.861
 5158TIP3    H215420   0.514   7.590   4.849
 5159TIP3   OH215421   1.759   3.687   0.856
 5159TIP3    H115422   1.680   3.693   0.909
 5159TIP3    H215423   1.770   3.593   0.840
 5160TIP3   OH215424   0.247   2.281   5.250
 5160TIP3    H115425   0.237   2.264   5.157
 5160TIP3    H215426   0.171   2.335   5.273
 5161TIP3   OH215427   0.913   7.382   1.524
 5161TIP3    H115428   0.913   7.451   1.589
 5161TIP3    H215429   0.959   7.309   1.566
 5162TIP3   OH215430   2.205   6.370   5.850
 5162TIP3    H115431   2.110   6.377   5.843
 5162TIP3    H215432   2.239   6.455   5.823
 5163TIP3   OH215433   2.734   4.681   1.636
 5163TIP3    H115434   2.828   4.683   1.653
 5163TIP3    H215435   2.703   4.603   1.681
 5164TIP3   OH215436   5.487   1.178   5.410
 5164TIP3    H115437   5.559   1.234   5.439
 5164TIP3    H215438   5.529   1.097   5.382
 5165TIP3   OH215439   5.627   5.578   4.910
 5165TIP3    H115440   5.660   5.581   4.820
 5165TIP3    H215441   5.552   5.637   4.909
 5166TIP3   OH215442   5.612   2.499   5.311
 5166TIP3    H115443   5.578   2.418   5.349
 5166TIP3    H215444   5.625   2.557   5.386
 5167TIP3   OH215445   0.228   5.334   1.006
 5167TIP3    H115446   0.303   5.289   1.046
 5167TIP3    H215447   0.253   5.347   0.915
 5168TIP3   OH215448   0.244   4.838   6.778
 5168TIP3    H115449   0.172   4.791   6.736
 5168TIP3    H215450   0.304   4.770   6.807
 5169TIP3   OH215451   2.068   2.573   5.723
 5169TIP3    H115452   2.129   2.584   5.797
 5169TIP3    H215453   2.059   2.478   5.714
 5170TIP3   OH215454   3.319   1.071   4.797
 5170TIP3    H115455   3.355   1.035   4.716
 5170TIP3    H215456   3.374   1.035   4.866
 5171TIP3   OH215457   6.290   3.316   1.128
 5171TIP3    H115458   6.314   3.231   1.164
 5171TIP3    H215459   6.368   3.344   1.080
 5172TIP3   OH215460   5.706   6.336   2.481
 5172TIP3    H115461   5.783   6.340   2.537
 5172TIP3    H215462   5.735   6.376   2.399
 5173TIP3   OH215463   3.916   2.056   2.207
 5173TIP3    H115464   3.942   1.965   2.191
 5173TIP3    H215465   3.995   2.107   2.190
 5174TIP3   OH215466   2.496   5.621   6.216
 5174TIP3    H115467   2.551   5.699   6.223
 5174TIP3    H215468   2.411   5.650   6.249
 5175TIP3   OH215469   3.411   1.073   2.459
 5175TIP3    H115470   3.376   1.136   2.396
 5175TIP3    H215471   3.336   1.051   2.514
 5176TIP3   OH215472   5.066   6.202   6.731
 5176TIP3    H115473   5.021   6.195   6.647
 5176TIP3    H215474   5.119   6.122   6.737
 5177TIP3   OH215475   1.222   1.263   5.070
 5177TIP3    H115476   1.222   1.348   5.114
 5177TIP3    H215477   1.218   1.285   4.976
 5178TIP3   OH215478   5.504   0.532   0.118
 5178TIP3    H115479   5.581   0.525   0.174
 5178TIP3    H215480   5.478   0.624   0.124
 5179TIP3   OH215481   0.778   4.543   2.856
 5179TIP3    H115482   0.872   4.546   2.837
 5179TIP3    H215483   0.767   4.464   2.909
 5180TIP3   OH215484   0.914   5.519   4.918
 5180TIP3    H115485   0.929   5.479   4.832
 5180TIP3    H215486   0.982   5.482   4.974
 5181TIP3   OH215487   0.081   0.436   2.891
 5181TIP3    H115488   0.164   0.396   2.918
 5181TIP3    H215489   0.046   0.376   2.825
 5182TIP3   OH215490   4.607   7.160   1.917
 5182TIP3    H115491   4.570   7.091   1.863
 5182TIP3    H215492   4.547   7.234   1.907
 5183TIP3   OH215493   4.037   2.884   0.419
 5183TIP3    H115494   4.042   2.791   0.439
 5183TIP3    H215495   4.127   2.916   0.428
 5184TIP3   OH215496   5.062   5.052   4.285
 5184TIP3    H115497   5.053   5.136   4.330
 5184TIP3    H215498   5.153   5.026   4.299
 5185TIP3   OH215499   2.360   4.365   2.714
 5185TIP3    H115500   2.363   4.451   2.755
 5185TIP3    H215501   2.447   4.353   2.676
 5186TIP3   OH215502   4.394   2.762   1.737
 5186TIP3    H115503   4.365   2.817   1.664
 5186TIP3    H215504   4.319   2.758   1.795
 5187TIP3   OH215505   6.241   2.526   1.298
 5187TIP3    H115506   6.175   2.576   1.346
 5187TIP3    H215507   6.210   2.436   1.300
 5188TIP3   OH215508   6.638   6.147   6.595
 5188TIP3    H115509   6.666   6.236   6.615
 5188TIP3    H215510   6.635   6.103   6.680
 5189TIP3   OH215511   3.848   6.598   1.428
 5189TIP3    H115512   3.874   6.524   1.372
 5189TIP3    H215513   3.897   6.584   1.509
 5190TIP3   OH215514   7.536   3.576   0.210
 5190TIP3    H115515   7.571   3.499   0.254
 5190TIP3    H215516   7.560   3.563   0.118
 5191TIP3   OH215517   5.339   0.111   0.990
 5191TIP3    H115518   5.257   0.080   1.030
 5191TIP3    H215519   5.394   0.136   1.065
 5192TIP3   OH215520   0.981   1.092   2.512
 5192TIP3    H115521   0.896   1.056   2.537
 5192TIP3    H215522   0.962   1.178   2.476
 5193TIP3   OH215523   6.309   2.061   6.123
 5193TIP3    H115524   6.257   2.012   6.059
 5193TIP3    H215525   6.388   2.009   6.135
 5194TIP3   OH215526   5.455   5.020   0.881
 5194TIP3    H115527   5.432   5.106   0.844
 5194TIP3    H215528   5.507   5.040   0.959
 5195TIP3   OH215529   5.716   2.158   1.908
 5195TIP3    H115530   5.636   2.208   1.928
 5195TIP3    H215531   5.723   2.094   1.979
 5196TIP3   OH215532   2.054   4.756   2.714
 5196TIP3    H115533   1.985   4.742   2.778
 5196TIP3    H215534   2.050   4.679   2.657
 5197TIP3   OH215535   7.508   5.743   3.900
 5197TIP3    H115536   7.560   5.663   3.897
 5197TIP3    H215537   7.482   5.752   3.991
 5198TIP3   OH215538   2.570   4.006   0.315
 5198TIP3    H115539   2.665   4.017   0.320
 5198TIP3    H215540   2.555   3.913   0.328
 5199TIP3   OH215541   7.390   6.771   0.072
 5199TIP3    H115542   7.379   6.855   0.115
 5199TIP3    H215543   7.387   6.707   0.143
 5200TIP3   OH215544   0.078   6.382   1.536
 5200TIP3    H115545  -0.005   6.403   1.494
 5200TIP3    H215546   0.090   6.451   1.602
 5201TIP3   OH215547   0.768   6.224   5.026
 5201TIP3    H115548   0.856   6.220   5.064
 5201TIP3    H215549   0.767   6.155   4.960
 5202TIP3   OH215550   0.589   1.102   0.949
 5202TIP3    H115551   0.629   1.189   0.956
 5202TIP3    H215552   0.640   1.048   1.009
 5203TIP3   OH215553   1.485   1.114   4.487
 5203TIP3    H115554   1.518   1.048   4.426
 5203TIP3    H215555   1.443   1.180   4.430
 5204TIP3   OH215556   3.484   0.533   2.732
 5204TIP3    H115557   3.460   0.519   2.823
 5204TIP3    H215558   3.524   0.620   2.729
 5205TIP3   OH215559   6.345   1.775   4.821
 5205TIP3    H115560   6.405   1.752   4.891
 5205TIP3    H215561   6.279   1.706   4.822
 5206TIP3   OH215562   6.505   4.059   2.153
 5206TIP3    H115563   6.449   4.013   2.091
 5206TIP3    H215564   6.503   4.150   2.125
 5207TIP3   OH215565   2.145   5.860   4.789
 5207TIP3    H115566   2.081   5.839   4.856
 5207TIP3    H215567   2.098   5.917   4.727
 5208TIP3   OH215568   6.016   5.569   1.820
 5208TIP3    H115569   6.038   5.504   1.887
 5208TIP3    H215570   5.930   5.603   1.846
 5209TIP3   OH215571   0.322   4.072   6.576
 5209TIP3    H115572   0.405   4.028   6.594
 5209TIP3    H215573   0.267   4.005   6.536
 5210TIP3   OH215574   1.257   2.244   0.453
 5210TIP3    H115575   1.165   2.257   0.472
 5210TIP3    H215576   1.293   2.207   0.533
 5211TIP3   OH215577   6.537   6.425   2.724
 5211TIP3    H115578   6.537   6.487   2.652
 5211TIP3    H215579   6.459   6.446   2.774
 5212TIP3   OH215580   7.316   6.540   3.472
 5212TIP3    H115581   7.378   6.519   3.541
 5212TIP3    H215582   7.347   6.622   3.435
 5213TIP3   OH215583   2.184   3.105   0.173
 5213TIP3    H115584   2.274   3.125   0.147
 5213TIP3    H215585   2.193   3.028   0.230
 5214TIP3   OH215586   7.172   0.903   3.068
 5214TIP3    H115587   7.260   0.882   3.037
 5214TIP3    H215588   7.176   0.997   3.087
 5215TIP3   OH215589   2.778   6.007   1.347
 5215TIP3    H115590   2.818   5.944   1.408
 5215TIP3    H215591   2.711   6.051   1.399
 5216TIP3   OH215592   4.035   1.570   6.436
 5216TIP3    H115593   3.941   1.585   6.448
 5216TIP3    H215594   4.043   1.474   6.433
 5217TIP3   OH215595   4.769   4.592   5.094
 5217TIP3    H115596   4.849   4.550   5.124
 5217TIP3    H215597   4.789   4.622   5.005
 5218TIP3   OH215598   0.198   3.558   4.768
 5218TIP3    H115599   0.203   3.588   4.859
 5218TIP3    H215600   0.281   3.512   4.753
 5219TIP3   OH215601   6.962   0.440   2.797
 5219TIP3    H115602   6.900   0.508   2.822
 5219TIP3    H215603   6.913   0.358   2.809
 5220TIP3   OH215604   0.512   6.675   6.683
 5220TIP3    H115605   0.568   6.639   6.614
 5220TIP3    H215606   0.510   6.607   6.751
 5221TIP3   OH215607   1.780   7.781   0.072
 5221TIP3    H115608   1.815   7.852   0.126
 5221TIP3    H215609   1.685   7.792   0.076
 5222TIP3   OH215610   7.839   3.219   0.189
 5222TIP3    H115611   7.788   3.287   0.232
 5222TIP3    H215612   7.923   3.261   0.169
 5223TIP3   OH215613   2.279   2.362   5.158
 5223TIP3    H115614   2.237   2.379   5.243
 5223TIP3    H215615   2.333   2.284   5.174
 5224TIP3   OH215616   3.041   6.133   2.262
 5224TIP3    H115617   2.954   6.101   2.237
 5224TIP3    H215618   3.057   6.206   2.202
 5225TIP3   OH215619   1.906   0.330   1.899
 5225TIP3    H115620   1.984   0.336   1.844
 5225TIP3    H215621   1.939   0.337   1.989
 5226TIP3   OH215622   5.448   6.804   1.176
 5226TIP3    H115623   5.397   6.879   1.206
 5226TIP3    H215624   5.418   6.731   1.229
 5227TIP3   OH215625   4.103   6.698   5.683
 5227TIP3    H115626   4.021   6.649   5.686
 5227TIP3    H215627   4.128   6.709   5.775
 5228TIP3   OH215628   2.750   2.876   2.991
 5228TIP3    H115629   2.666   2.841   2.960
 5228TIP3    H215630   2.815   2.839   2.931
 5229TIP3   OH215631   5.654   2.120   4.070
 5229TIP3    H115632   5.700   2.195   4.032
 5229TIP3    H215633   5.650   2.056   3.999
 5230TIP3   OH215634   6.837   4.685   6.583
 5230TIP3    H115635   6.857   4.594   6.601
 5230TIP3    H215636   6.741   4.691   6.589
 5231TIP3   OH215637   7.186   0.071   2.750
 5231TIP3    H115638   7.156   0.067   2.841
 5231TIP3    H215639   7.115   0.116   2.704
 5232TIP3   OH215640   1.349   6.309   4.530
 5232TIP3    H115641   1.328   6.320   4.623
 5232TIP3    H215642   1.442   6.284   4.529
 5233TIP3   OH215643   1.452   2.611   1.774
 5233TIP3    H115644   1.521   2.561   1.732
 5233TIP3    H215645   1.478   2.618   1.865
 5234TIP3   OH215646   2.827   3.721   4.444
 5234TIP3    H115647   2.897   3.784   4.430
 5234TIP3    H215648   2.777   3.721   4.362
 5235TIP3   OH215649   1.336   1.314   4.010
 5235TIP3    H115650   1.385   1.246   3.964
 5235TIP3    H215651   1.256   1.270   4.038
 5236TIP3   OH215652   6.371   5.162   0.982
 5236TIP3    H115653   6.354   5.111   1.062
 5236TIP3    H215654   6.388   5.096   0.915
 5237TIP3   OH215655   1.336   1.965   5.576
 5237TIP3    H115656   1.288   1.900   5.524
 5237TIP3    H215657   1.345   2.040   5.518
 5238TIP3   OH215658   2.704   2.125   5.586
 5238TIP3    H115659   2.646   2.110   5.660
 5238TIP3    H215660   2.737   2.038   5.563
 5239TIP3   OH215661   3.255   3.243   5.741
 5239TIP3    H115662   3.275   3.158   5.780
 5239TIP3    H215663   3.291   3.239   5.653
 5240TIP3   OH215664   4.309   5.010   0.987
 5240TIP3    H115665   4.379   5.070   0.958
 5240TIP3    H215666   4.320   5.004   1.082
 5241TIP3   OH215667   5.794   5.778   2.592
 5241TIP3    H115668   5.834   5.695   2.565
 5241TIP3    H215669   5.842   5.845   2.544
 5242TIP3   OH215670   3.088   4.255   1.420
 5242TIP3    H115671   3.040   4.298   1.491
 5242TIP3    H215672   3.177   4.289   1.427
 5243TIP3   OH215673   0.989   7.074   1.457
 5243TIP3    H115674   1.081   7.095   1.472
 5243TIP3    H215675   0.984   7.049   1.365
 5244TIP3   OH215676   0.977   5.081   0.924
 5244TIP3    H115677   1.024   5.124   0.995
 5244TIP3    H215678   1.007   5.126   0.845
 5245TIP3   OH215679   7.563   1.412   3.285
 5245TIP3    H115680   7.499   1.360   3.333
 5245TIP3    H215681   7.528   1.501   3.286
 5246TIP3   OH215682   3.591   4.263   3.330
 5246TIP3    H115683   3.668   4.297   3.284
 5246TIP3    H215684   3.627   4.226   3.411
 5247TIP3   OH215685   3.882   1.417   1.294
 5247TIP3    H115686   3.887   1.377   1.381
 5247TIP3    H215687   3.827   1.358   1.243
 5248TIP3   OH215688   0.387   0.279   3.287
 5248TIP3    H115689   0.304   0.311   3.322
 5248TIP3    H215690   0.410   0.205   3.343
 5249TIP3   OH215691   7.864   7.398   4.495
 5249TIP3    H115692   7.809   7.367   4.423
 5249TIP3    H215693   7.825   7.360   4.573
 5250TIP3   OH215694   6.347   5.260   5.630
 5250TIP3    H115695   6.307   5.174   5.630
 5250TIP3    H215696   6.361   5.280   5.722
 5251TIP3   OH215697   5.371   3.903   6.376
 5251TIP3    H115698   5.295   3.957   6.398
 5251TIP3    H215699   5.402   3.870   6.461
 5252TIP3   OH215700   7.080   6.189   3.023
 5252TIP3    H115701   6.992   6.214   2.994
 5252TIP3    H215702   7.134   6.267   3.005
 5253TIP3   OH215703   7.738   1.522   1.698
 5253TIP3    H115704   7.751   1.611   1.666
 5253TIP3    H215705   7.753   1.528   1.792
 5254TIP3   OH215706   3.124   0.161   2.681
 5254TIP3    H115707   3.087   0.141   2.595
 5254TIP3    H215708   3.057   0.213   2.725
 5255TIP3   OH215709   4.697   3.211   0.985
 5255TIP3    H115710   4.705   3.143   1.053
 5255TIP3    H215711   4.785   3.217   0.948
 5256TIP3   OH215712   2.265   4.129   1.889
 5256TIP3    H115713   2.210   4.206   1.875
 5256TIP3    H215714   2.205   4.055   1.884
 5257TIP3   OH215715   3.699   3.223   4.686
 5257TIP3    H115716   3.704   3.305   4.637
 5257TIP3    H215717   3.640   3.241   4.758
 5258TIP3   OH215718   5.401   5.308   0.317
 5258TIP3    H115719   5.403   5.371   0.389
 5258TIP3    H215720   5.374   5.225   0.358
 5259TIP3   OH215721   7.844   1.550   2.316
 5259TIP3    H115722   7.796   1.601   2.251
 5259TIP3    H215723   7.932   1.587   2.315
 5260TIP3   OH215724   7.818   2.790   6.538
 5260TIP3    H115725   7.881   2.719   6.549
 5260TIP3    H215726   7.771   2.768   6.458
 5261TIP3   OH215727   3.867   7.562   0.408
 5261TIP3    H115728   3.902   7.510   0.336
 5261TIP3    H215729   3.772   7.546   0.406
 5262TIP3   OH215730   3.028   4.900   5.331
 5262TIP3    H115731   3.017   4.828   5.270
 5262TIP3    H215732   2.977   4.875   5.408
 5263TIP3   OH215733   0.812   5.850   1.028
 5263TIP3    H115734   0.816   5.903   1.107
 5263TIP3    H215735   0.904   5.839   1.002
 5264TIP3   OH215736   3.547   0.749   5.690
 5264TIP3    H115737   3.457   0.725   5.667
 5264TIP3    H215738   3.543   0.768   5.784
 5265TIP3   OH215739   0.688   4.647   2.018
 5265TIP3    H115740   0.602   4.618   2.048
 5265TIP3    H215741   0.674   4.735   1.983
 5266TIP3   OH215742   5.297   5.895   0.925
 5266TIP3    H115743   5.260   5.973   0.966
 5266TIP3    H215744   5.339   5.848   0.997
 5267TIP3   OH215745   3.693   5.383   4.688
 5267TIP3    H115746   3.606   5.344   4.690
 5267TIP3    H215747   3.678   5.474   4.661
 5268TIP3   OH215748   7.718   4.148   4.763
 5268TIP3    H115749   7.686   4.094   4.690
 5268TIP3    H215750   7.708   4.238   4.732
 5269TIP3   OH215751   1.055   0.707   2.323
 5269TIP3    H115752   1.150   0.718   2.328
 5269TIP3    H215753   1.041   0.613   2.331
 5270TIP3   OH215754   2.243   5.405   5.001
 5270TIP3    H115755   2.207   5.336   4.945
 5270TIP3    H215756   2.333   5.416   4.969
 5271TIP3   OH215757   0.407   3.332   2.894
 5271TIP3    H115758   0.485   3.282   2.919
 5271TIP3    H215759   0.334   3.277   2.921
 5272TIP3   OH215760   7.461   4.108   2.456
 5272TIP3    H115761   7.403   4.111   2.380
 5272TIP3    H215762   7.443   4.190   2.502
 5273TIP3   OH215763   4.787   3.071   6.603
 5273TIP3    H115764   4.868   3.108   6.569
 5273TIP3    H215765   4.809   2.980   6.626
 5274TIP3   OH215766   6.560   4.607   3.479
 5274TIP3    H115767   6.567   4.516   3.506
 5274TIP3    H215768   6.598   4.608   3.390
 5275TIP3   OH215769   2.593   1.805   1.440
 5275TIP3    H115770   2.576   1.741   1.371
 5275TIP3    H215771   2.509   1.815   1.485
 5276TIP3   OH215772   3.549   5.729   1.120
 5276TIP3    H115773   3.457   5.750   1.136
 5276TIP3    H215774   3.548   5.640   1.084
 5277TIP3   OH215775   5.430   1.973   6.377
 5277TIP3    H115776   5.500   1.908   6.371
 5277TIP3    H215777   5.470   2.054   6.345
 5278TIP3   OH215778   4.118   0.586   2.190
 5278TIP3    H115779   4.070   0.668   2.202
 5278TIP3    H215780   4.207   0.614   2.168
 5279TIP3   OH215781   3.743   1.056   6.412
 5279TIP3    H115782   3.833   1.031   6.433
 5279TIP3    H215783   3.734   1.038   6.319
 5280TIP3   OH215784   4.972   7.133   2.658
 5280TIP3    H115785   4.884   7.110   2.627
 5280TIP3    H215786   5.030   7.072   2.611
 5281TIP3   OH215787   5.113   2.838   0.764
 5281TIP3    H115788   5.116   2.755   0.811
 5281TIP3    H215789   5.130   2.904   0.830
 5282TIP3   OH215790   8.270   6.946   1.722
 5282TIP3    H115791   8.180   6.925   1.749
 5282TIP3    H215792   8.324   6.923   1.798
 5283TIP3   OH215793   0.043   2.204   5.776
 5283TIP3    H115794   0.121   2.199   5.832
 5283TIP3    H215795   0.078   2.220   5.688
 5284TIP3   OH215796   1.210   3.184   2.533
 5284TIP3    H115797   1.292   3.224   2.504
 5284TIP3    H215798   1.143   3.219   2.474
 5285TIP3   OH215799   5.119   7.405   0.453
 5285TIP3    H115800   5.113   7.311   0.469
 5285TIP3    H215801   5.202   7.416   0.406
 5286TIP3   OH215802   6.235   6.799   5.896
 5286TIP3    H115803   6.227   6.800   5.991
 5286TIP3    H215804   6.205   6.885   5.868
 5287TIP3   OH215805   7.401   4.944   3.166
 5287TIP3    H115806   7.404   5.011   3.098
 5287TIP3    H215807   7.309   4.941   3.193
 5288TIP3   OH215808   7.980   4.009   3.531
 5288TIP3    H115809   8.043   4.012   3.459
 5288TIP3    H215810   7.894   4.008   3.489
 5289TIP3   OH215811   8.264   1.517   1.335
 5289TIP3    H115812   8.192   1.517   1.272
 5289TIP3    H215813   8.337   1.475   1.290
 5290TIP3   OH215814   4.352   2.430   1.749
 5290TIP3    H115815   4.262   2.452   1.728
 5290TIP3    H215816   4.405   2.488   1.694
 5291TIP3   OH215817   7.709   3.986   3.440
 5291TIP3    H115818   7.677   3.932   3.367
 5291TIP3    H215819   7.659   4.067   3.433
 5292TIP3   OH215820   3.387   2.304   6.701
 5292TIP3    H115821   3.314   2.319   6.642
 5292TIP3    H215822   3.463   2.340   6.656
 5293TIP3   OH215823   3.828   1.142   0.097
 5293TIP3    H115824   3.839   1.222   0.046
 5293TIP3    H215825   3.772   1.168   0.171
 5294TIP3   OH215826   3.720   2.200   6.316
 5294TIP3    H115827   3.665   2.181   6.393
 5294TIP3    H215828   3.687   2.141   6.248
 5295TIP3   OH215829   5.345   1.064   3.310
 5295TIP3    H115830   5.280   1.008   3.267
 5295TIP3    H215831   5.399   1.097   3.238
 5296TIP3   OH215832   1.897   5.268   5.633
 5296TIP3    H115833   1.901   5.219   5.715
 5296TIP3    H215834   1.829   5.334   5.647
 5297TIP3   OH215835   1.841   7.684   4.476
 5297TIP3    H115836   1.878   7.771   4.467
 5297TIP3    H215837   1.871   7.636   4.399
 5298TIP3   OH215838   3.510   1.894   1.112
 5298TIP3    H115839   3.422   1.925   1.092
 5298TIP3    H215840   3.513   1.889   1.208
 5299TIP3   OH215841   4.636   2.756   5.021
 5299TIP3    H115842   4.546   2.779   5.044
 5299TIP3    H215843   4.674   2.725   5.102
 5300TIP3   OH215844   7.248   6.325   5.185
 5300TIP3    H115845   7.272   6.410   5.222
 5300TIP3    H215846   7.301   6.262   5.233
 5301TIP3   OH215847   4.112   2.642   5.037
 5301TIP3    H115848   4.116   2.586   5.115
 5301TIP3    H215849   4.098   2.580   4.965
 5302TIP3   OH215850   1.580   1.055   1.599
 5302TIP3    H115851   1.577   1.146   1.569
 5302TIP3    H215852   1.666   1.023   1.571
 5303TIP3   OH215853   7.394   3.359   3.715
 5303TIP3    H115854   7.461   3.415   3.676
 5303TIP3    H215855   7.311   3.405   3.698
 5304TIP3   OH215856   1.992   5.186   0.542
 5304TIP3    H115857   2.013   5.097   0.571
 5304TIP3    H215858   2.045   5.243   0.598
 5305TIP3   OH215859   4.342   1.476   3.730
 5305TIP3    H115860   4.299   1.542   3.785
 5305TIP3    H215861   4.388   1.420   3.792
 5306TIP3   OH215862   5.026   5.012   1.819
 5306TIP3    H115863   4.932   5.004   1.803
 5306TIP3    H215864   5.066   4.987   1.736
 5307TIP3   OH215865   0.110   3.415   6.333
 5307TIP3    H115866   0.135   3.326   6.306
 5307TIP3    H215867   0.194   3.459   6.350
 5308TIP3   OH215868   2.353   1.940   4.946
 5308TIP3    H115869   2.343   1.847   4.927
 5308TIP3    H215870   2.356   1.982   4.860
 5309TIP3   OH215871   5.495   1.209   3.471
 5309TIP3    H115872   5.444   1.151   3.416
 5309TIP3    H215873   5.580   1.214   3.428
 5310TIP3   OH215874   2.077   6.001   3.748
 5310TIP3    H115875   2.021   6.044   3.812
 5310TIP3    H215876   2.042   5.912   3.740
 5311TIP3   OH215877   5.594   6.840   0.731
 5311TIP3    H115878   5.591   6.827   0.825
 5311TIP3    H215879   5.530   6.909   0.714
 5312TIP3   OH215880   5.049   0.599   0.211
 5312TIP3    H115881   4.975   0.538   0.216
 5312TIP3    H215882   5.112   0.564   0.273
 5313TIP3   OH215883   1.071   7.564   4.840
 5313TIP3    H115884   1.087   7.656   4.819
 5313TIP3    H215885   1.155   7.521   4.825
 5314TIP3   OH215886   0.491   7.705   2.492
 5314TIP3    H115887   0.446   7.620   2.489
 5314TIP3    H215888   0.422   7.769   2.479
 5315TIP3   OH215889   7.485   3.041   2.069
 5315TIP3    H115890   7.519   3.071   2.153
 5315TIP3    H215891   7.463   3.121   2.021
 5316TIP3   OH215892   6.103   5.031   4.945
 5316TIP3    H115893   6.145   5.093   5.004
 5316TIP3    H215894   6.160   4.955   4.945
 5317TIP3   OH215895   2.110   7.420   2.992
 5317TIP3    H115896   2.057   7.378   2.926
 5317TIP3    H215897   2.182   7.359   3.008
 5318TIP3   OH215898   1.369   1.311   2.400
 5318TIP3    H115899   1.370   1.287   2.493
 5318TIP3    H215900   1.343   1.231   2.355
 5319TIP3   OH215901   5.561   3.547   1.321
 5319TIP3    H115902   5.498   3.606   1.279
 5319TIP3    H215903   5.516   3.462   1.324
 5320TIP3   OH215904   3.760   3.889   1.365
 5320TIP3    H115905   3.683   3.944   1.376
 5320TIP3    H215906   3.815   3.937   1.304
 5321TIP3   OH215907   6.863   0.884   2.029
 5321TIP3    H115908   6.862   0.924   1.942
 5321TIP3    H215909   6.867   0.790   2.011
 5322TIP3   OH215910   1.825   7.246   6.639
 5322TIP3    H115911   1.786   7.298   6.569
 5322TIP3    H215912   1.916   7.234   6.613
 5323TIP3   OH215913   3.705   5.871   0.659
 5323TIP3    H115914   3.664   5.876   0.573
 5323TIP3    H215915   3.700   5.960   0.693
 5324TIP3   OH215916   3.516   1.816   4.124
 5324TIP3    H115917   3.500   1.897   4.075
 5324TIP3    H215918   3.433   1.799   4.170
 5325TIP3   OH215919   0.147   5.292   3.113
 5325TIP3    H115920   0.068   5.307   3.165
 5325TIP3    H215921   0.175   5.380   3.087
 5326TIP3   OH215922   7.904   0.874   1.917
 5326TIP3    H115923   7.868   0.900   2.001
 5326TIP3    H215924   7.883   0.947   1.858
 5327TIP3   OH215925   3.607   1.193   4.830
 5327TIP3    H115926   3.624   1.242   4.750
 5327TIP3    H215927   3.556   1.253   4.884
 5328TIP3   OH215928   7.417   7.015   2.717
 5328TIP3    H115929   7.377   7.042   2.800
 5328TIP3    H215930   7.431   7.096   2.669
 5329TIP3   OH215931   1.089   5.736   0.868
 5329TIP3    H115932   1.170   5.784   0.845
 5329TIP3    H215933   1.034   5.745   0.790
 5330TIP3   OH215934   0.823   0.065   6.576
 5330TIP3    H115935   0.909   0.033   6.600
 5330TIP3    H215936   0.786   0.099   6.658
 5331TIP3   OH215937   3.282   4.756   1.916
 5331TIP3    H115938   3.328   4.695   1.859
 5331TIP3    H215939   3.231   4.811   1.856
 5332TIP3   OH215940   2.751   7.420   3.801
 5332TIP3    H115941   2.742   7.392   3.710
 5332TIP3    H215942   2.723   7.344   3.852
 5333TIP3   OH215943   0.703   3.871   1.243
 5333TIP3    H115944   0.745   3.811   1.182
 5333TIP3    H215945   0.694   3.822   1.324
 5334TIP3   OH215946   1.156   1.744   3.829
 5334TIP3    H115947   1.142   1.678   3.897
 5334TIP3    H215948   1.242   1.723   3.793
 5335TIP3   OH215949   6.525   0.323   5.948
 5335TIP3    H115950   6.539   0.338   6.042
 5335TIP3    H215951   6.523   0.411   5.910
 5336TIP3   OH215952   1.664   0.873   5.355
 5336TIP3    H115953   1.631   0.880   5.265
 5336TIP3    H215954   1.608   0.930   5.407
 5337TIP3   OH215955   2.933   7.637   3.611
 5337TIP3    H115956   2.928   7.619   3.705
 5337TIP3    H215957   3.013   7.689   3.601
 5338TIP3   OH215958   5.634   5.071   4.825
 5338TIP3    H115959   5.659   5.157   4.792
 5338TIP3    H215960   5.700   5.011   4.790
 5339TIP3   OH215961   7.664   0.627   2.335
 5339TIP3    H115962   7.612   0.642   2.414
 5339TIP3    H215963   7.755   0.628   2.365
 5340TIP3   OH215964   5.914   4.832   4.989
 5340TIP3    H115965   5.931   4.924   4.965
 5340TIP3    H215966   5.948   4.782   4.915
 5341TIP3   OH215967   4.344   7.328   3.263
 5341TIP3    H115968   4.401   7.298   3.334
 5341TIP3    H215969   4.287   7.253   3.244
 5342TIP3   OH215970   6.002   4.942   2.360
 5342TIP3    H115971   5.923   4.929   2.412
 5342TIP3    H215972   5.973   4.994   2.285
 5343TIP3   OH215973   6.603   5.452   4.828
 5343TIP3    H115974   6.587   5.394   4.902
 5343TIP3    H215975   6.517   5.464   4.788
 5344TIP3   OH215976   6.861   5.789   2.094
 5344TIP3    H115977   6.832   5.758   2.008
 5344TIP3    H215978   6.924   5.859   2.075
 5345TIP3   OH215979   1.619   0.503   4.944
 5345TIP3    H115980   1.606   0.449   4.867
 5345TIP3    H215981   1.661   0.444   5.007
 5346TIP3   OH215982   2.985   0.587   5.739
 5346TIP3    H115983   3.028   0.502   5.741
 5346TIP3    H215984   2.920   0.580   5.670
 5347TIP3   OH215985   2.545   3.580   4.625
 5347TIP3    H115986   2.567   3.487   4.614
 5347TIP3    H215987   2.536   3.591   4.720
 5348TIP3   OH215988   0.897   4.054   3.179
 5348TIP3    H115989   0.814   4.012   3.157
 5348TIP3    H215990   0.885   4.084   3.270
 5349TIP3   OH215991   6.956   3.245   2.609
 5349TIP3    H115992   7.023   3.252   2.677
 5349TIP3    H215993   6.895   3.179   2.643
 5350TIP3   OH215994   0.979   5.411   1.694
 5350TIP3    H115995   1.053   5.371   1.742
 5350TIP3    H215996   0.983   5.504   1.717
 5351TIP3   OH215997   1.259   2.209   1.172
 5351TIP3    H115998   1.238   2.268   1.100
 5351TIP3    H215999   1.189   2.222   1.236
 5352TIP3   OH216000   3.803   7.626   3.563
 5352TIP3    H116001   3.762   7.592   3.484
 5352TIP3    H216002   3.772   7.716   3.570
 5353TIP3   OH216003   4.282   3.201   0.307
 5353TIP3    H116004   4.324   3.157   0.381
 5353TIP3    H216005   4.188   3.195   0.325
 5354TIP3   OH216006   0.770   4.905   5.417
 5354TIP3    H116007   0.717   4.891   5.339
 5354TIP3    H216008   0.756   4.997   5.439
 5355TIP3   OH216009   8.004   1.348   2.026
 5355TIP3    H116010   7.927   1.402   2.007
 5355TIP3    H216011   8.078   1.409   2.022
 5356TIP3   OH216012   0.400   1.616   6.570
 5356TIP3    H116013   0.402   1.581   6.659
 5356TIP3    H216014   0.428   1.707   6.579
 5357TIP3   OH216015   2.201   5.945   2.458
 5357TIP3    H116016   2.137   5.896   2.509
 5357TIP3    H216017   2.194   5.909   2.369
 5358TIP3   OH216018   7.417   1.304   3.043
 5358TIP3    H116019   7.386   1.350   3.121
 5358TIP3    H216020   7.361   1.337   2.972
 5359TIP3   OH216021   2.642   1.025   3.520
 5359TIP3    H116022   2.575   0.960   3.501
 5359TIP3    H216023   2.668   1.059   3.435
 5360TIP3   OH216024   5.947   6.134   4.213
 5360TIP3    H116025   5.879   6.173   4.267
 5360TIP3    H216026   6.009   6.096   4.275
 5361TIP3   OH216027   0.633   0.356   3.124
 5361TIP3    H116028   0.575   0.313   3.186
 5361TIP3    H216029   0.581   0.364   3.044
 5362TIP3   OH216030   7.971   1.350   5.504
 5362TIP3    H116031   8.036   1.405   5.548
 5362TIP3    H216032   7.995   1.355   5.411
 5363TIP3   OH216033   0.019   4.306   5.696
 5363TIP3    H116034   0.014   4.258   5.779
 5363TIP3    H216035   0.102   4.279   5.657
 5364TIP3   OH216036   0.607   0.806   6.362
 5364TIP3    H116037   0.523   0.845   6.339
 5364TIP3    H216038   0.626   0.745   6.291
 5365TIP3   OH216039   3.229   2.711   1.509
 5365TIP3    H116040   3.318   2.699   1.543
 5365TIP3    H216041   3.172   2.681   1.580
 5366TIP3   OH216042   8.149   3.004   0.499
 5366TIP3    H116043   8.202   3.082   0.491
 5366TIP3    H216044   8.059   3.036   0.509
 5367TIP3   OH216045   2.682   7.209   5.699
 5367TIP3    H116046   2.657   7.169   5.616
 5367TIP3    H216047   2.773   7.236   5.686
 5368TIP3   OH216048   5.966   5.606   5.685
 5368TIP3    H116049   5.976   5.679   5.624
 5368TIP3    H216050   5.926   5.537   5.632
 5369TIP3   OH216051   5.666   5.961   3.776
 5369TIP3    H116052   5.620   5.987   3.856
 5369TIP3    H216053   5.617   6.003   3.706
 5370TIP3   OH216054   6.464   7.518   4.105
 5370TIP3    H116055   6.474   7.453   4.036
 5370TIP3    H216056   6.439   7.598   4.060
 5371TIP3   OH216057   5.741   3.271   6.395
 5371TIP3    H116058   5.647   3.256   6.388
 5371TIP3    H216059   5.761   3.256   6.488
 5372TIP3   OH216060   5.388   4.892   6.439
 5372TIP3    H116061   5.476   4.924   6.419
 5372TIP3    H216062   5.366   4.834   6.366
 5373TIP3   OH216063   4.098   5.096   3.859
 5373TIP3    H116064   4.041   5.107   3.935
 5373TIP3    H216065   4.169   5.039   3.890
 5374TIP3   OH216066   4.381   5.315   6.619
 5374TIP3    H116067   4.444   5.385   6.631
 5374TIP3    H216068   4.306   5.356   6.576
 5375TIP3   OH216069   3.521   2.933   2.127
 5375TIP3    H116070   3.609   2.908   2.155
 5375TIP3    H216071   3.522   3.028   2.125
 5376TIP3   OH216072   1.297   5.091   1.116
 5376TIP3    H116073   1.361   5.132   1.058
 5376TIP3    H216074   1.349   5.028   1.167
 5377TIP3   OH216075   1.606   2.234   0.302
 5377TIP3    H116076   1.631   2.200   0.217
 5377TIP3    H216077   1.604   2.158   0.360
 5378TIP3   OH216078   3.304   6.252   4.526
 5378TIP3    H116079   3.273   6.251   4.435
 5378TIP3    H216080   3.224   6.256   4.578
 5379TIP3   OH216081   1.531   3.315   4.055
 5379TIP3    H116082   1.546   3.224   4.027
 5379TIP3    H216083   1.509   3.307   4.148
 5380TIP3   OH216084   4.757   2.919   6.246
 5380TIP3    H116085   4.847   2.941   6.272
 5380TIP3    H216086   4.759   2.824   6.234
 5381TIP3   OH216087   1.774   2.367   0.779
 5381TIP3    H116088   1.710   2.350   0.709
 5381TIP3    H216089   1.859   2.356   0.736
 5382TIP3   OH216090   7.287   0.444   6.716
 5382TIP3    H116091   7.241   0.389   6.779
 5382TIP3    H216092   7.303   0.388   6.641
 5383TIP3   OH216093   3.317   6.135   4.995
 5383TIP3    H116094   3.245   6.072   5.007
 5383TIP3    H216095   3.394   6.080   4.983
 5384TIP3   OH216096   3.535   2.102   5.076
 5384TIP3    H116097   3.583   2.185   5.084
 5384TIP3    H216098   3.587   2.050   5.015
 5385TIP3   OH216099   0.268   0.893   0.555
 5385TIP3    H116100   0.183   0.901   0.598
 5385TIP3    H216101   0.332   0.909   0.624
 5386TIP3   OH216102   5.408   4.533   0.354
 5386TIP3    H116103   5.499   4.502   0.353
 5386TIP3    H216104   5.415   4.628   0.366
 5387TIP3   OH216105   1.407   4.196   1.586
 5387TIP3    H116106   1.499   4.203   1.611
 5387TIP3    H216107   1.395   4.104   1.562
 5388TIP3   OH216108   5.778   4.764   1.406
 5388TIP3    H116109   5.763   4.676   1.441
 5388TIP3    H216110   5.823   4.811   1.476
 5389TIP3   OH216111   3.834   2.001   3.770
 5389TIP3    H116112   3.770   2.026   3.703
 5389TIP3    H216113   3.916   1.990   3.721
 5390TIP3   OH216114   7.160   3.423   2.469
 5390TIP3    H116115   7.105   3.354   2.506
 5390TIP3    H216116   7.206   3.460   2.544
 5391TIP3   OH216117   6.726   1.583   3.088
 5391TIP3    H116118   6.684   1.581   3.174
 5391TIP3    H216119   6.678   1.651   3.040
 5392TIP3   OH216120   4.573   1.405   1.504
 5392TIP3    H116121   4.560   1.445   1.590
 5392TIP3    H216122   4.605   1.317   1.523
 5393TIP3   OH216123   1.461   6.558   2.497
 5393TIP3    H116124   1.469   6.635   2.441
 5393TIP3    H216125   1.547   6.546   2.536
 5394TIP3   OH216126  -0.004   7.522   5.773
 5394TIP3    H116127   0.031   7.433   5.782
 5394TIP3    H216128   0.058   7.576   5.823
 5395TIP3   OH216129   5.401   2.462   5.731
 5395TIP3    H116130   5.324   2.453   5.674
 5395TIP3    H216131   5.408   2.556   5.748
 5396TIP3   OH216132   0.776   4.815   6.007
 5396TIP3    H116133   0.686   4.782   6.005
 5396TIP3    H216134   0.797   4.835   5.916
 5397TIP3   OH216135   6.821   6.391   2.442
 5397TIP3    H116136   6.866   6.315   2.406
 5397TIP3    H216137   6.729   6.364   2.449
 5398TIP3   OH216138   6.739   3.065   0.468
 5398TIP3    H116139   6.672   3.045   0.533
 5398TIP3    H216140   6.722   3.157   0.444
 5399TIP3   OH216141   1.262   2.242   6.326
 5399TIP3    H116142   1.308   2.209   6.403
 5399TIP3    H216143   1.329   2.245   6.258
 5400TIP3   OH216144   2.463   3.775   1.234
 5400TIP3    H116145   2.423   3.689   1.242
 5400TIP3    H216146   2.544   3.769   1.285
 5401TIP3   OH216147   7.813   6.111   1.012
 5401TIP3    H116148   7.722   6.083   1.005
 5401TIP3    H216149   7.858   6.034   1.048
 5402TIP3   OH216150   1.530   4.536   2.077
 5402TIP3    H116151   1.457   4.474   2.082
 5402TIP3    H216152   1.493   4.614   2.036
 5403TIP3   OH216153   1.521   5.827   1.127
 5403TIP3    H116154   1.543   5.751   1.073
 5403TIP3    H216155   1.546   5.803   1.216
 5404TIP3   OH216156   7.298   2.578   1.439
 5404TIP3    H116157   7.386   2.612   1.454
 5404TIP3    H216158   7.241   2.634   1.491
 5405TIP3   OH216159   2.233   0.715   0.472
 5405TIP3    H116160   2.325   0.723   0.445
 5405TIP3    H216161   2.233   0.742   0.564
 5406TIP3   OH216162   1.866   3.364   6.379
 5406TIP3    H116163   1.924   3.385   6.306
 5406TIP3    H216164   1.886   3.273   6.402
 5407TIP3   OH216165   1.594   0.073   0.223
 5407TIP3    H116166   1.610  -0.010   0.268
 5407TIP3    H216167   1.631   0.139   0.281
 5408TIP3   OH216168   8.314   5.327   2.014
 5408TIP3    H116169   8.244   5.366   2.067
 5408TIP3    H216170   8.269   5.291   1.938
 5409TIP3   OH216171   0.638   7.420   1.831
 5409TIP3    H116172   0.548   7.449   1.812
 5409TIP3    H216173   0.659   7.358   1.761
 5410TIP3   OH216174   5.827   6.829   0.051
 5410TIP3    H116175   5.791   6.743   0.074
 5410TIP3    H216176   5.830   6.876   0.135
 5411TIP3   OH216177   2.080   0.160   1.723
 5411TIP3    H116178   2.140   0.224   1.761
 5411TIP3    H216179   2.072   0.186   1.631
 5412TIP3   OH216180   6.621   2.169   3.972
 5412TIP3    H116181   6.566   2.171   4.051
 5412TIP3    H216182   6.578   2.107   3.914
 5413TIP3   OH216183   0.116   7.435   1.184
 5413TIP3    H116184   0.081   7.516   1.148
 5413TIP3    H216185   0.161   7.462   1.264
 5414TIP3   OH216186   1.375   5.886   3.777
 5414TIP3    H116187   1.289   5.883   3.737
 5414TIP3    H216188   1.358   5.901   3.870
 5415TIP3   OH216189   7.418   4.909   2.319
 5415TIP3    H116190   7.443   4.977   2.382
 5415TIP3    H216191   7.484   4.841   2.330
 5416TIP3   OH216192   3.481   0.841   3.981
 5416TIP3    H116193   3.412   0.904   4.004
 5416TIP3    H216194   3.454   0.760   4.024
 5417TIP3   OH216195   2.404   5.687   4.822
 5417TIP3    H116196   2.313   5.684   4.791
 5417TIP3    H216197   2.428   5.595   4.834
 5418TIP3   OH216198   6.302   5.100   1.534
 5418TIP3    H116199   6.380   5.051   1.507
 5418TIP3    H216200   6.322   5.191   1.509
 5419TIP3   OH216201   5.860   6.563   3.915
 5419TIP3    H116202   5.812   6.552   3.998
 5419TIP3    H216203   5.924   6.491   3.915
 5420TIP3   OH216204   3.221   4.705   5.359
 5420TIP3    H116205   3.207   4.800   5.363
 5420TIP3    H216206   3.165   4.670   5.428
 5421TIP3   OH216207   1.656   1.461   4.218
 5421TIP3    H116208   1.691   1.464   4.307
 5421TIP3    H216209   1.623   1.550   4.202
 5422TIP3   OH216210   2.068   0.623   5.804
 5422TIP3    H116211   1.993   0.591   5.754
 5422TIP3    H216212   2.059   0.718   5.802
 5423TIP3   OH216213   2.585   1.289   2.762
 5423TIP3    H116214   2.497   1.323   2.773
 5423TIP3    H216215   2.598   1.286   2.667
 5424TIP3   OH216216   6.060   4.649   1.312
 5424TIP3    H116217   5.986   4.628   1.369
 5424TIP3    H216218   6.022   4.653   1.224
 5425TIP3   OH216219   6.528   3.290   2.250
 5425TIP3    H116220   6.492   3.367   2.207
 5425TIP3    H216221   6.601   3.323   2.303
 5426TIP3   OH216222   2.066   5.431   3.592
 5426TIP3    H116223   2.112   5.514   3.603
 5426TIP3    H216224   2.019   5.418   3.674
 5427TIP3   OH216225   3.111   6.333   0.095
 5427TIP3    H116226   3.205   6.330   0.076
 5427TIP3    H216227   3.075   6.257   0.050
 5428TIP3   OH216228   3.475   5.974   4.226
 5428TIP3    H116229   3.489   5.908   4.294
 5428TIP3    H216230   3.476   5.925   4.144
 5429TIP3   OH216231   6.474   0.375   6.246
 5429TIP3    H116232   6.475   0.344   6.336
 5429TIP3    H216233   6.453   0.468   6.253
 5430TIP3   OH216234   2.470   2.640   1.742
 5430TIP3    H116235   2.416   2.621   1.819
 5430TIP3    H216236   2.475   2.557   1.695
 5431TIP3   OH216237   6.650   6.696   1.013
 5431TIP3    H116238   6.692   6.613   0.991
 5431TIP3    H216239   6.650   6.746   0.932
 5432TIP3   OH216240   3.207  -0.032   0.265
 5432TIP3    H116241   3.184   0.050   0.309
 5432TIP3    H216242   3.295  -0.017   0.230
 5433TIP3   OH216243   5.630   7.230   3.845
 5433TIP3    H116244   5.672   7.152   3.882
 5433TIP3    H216245   5.544   7.200   3.817
 5434TIP3   OH216246   0.410   1.367   5.707
 5434TIP3    H116247   0.502   1.382   5.687
 5434TIP3    H216248   0.375   1.454   5.726
 5435TIP3   OH216249   2.832   3.670   6.591
 5435TIP3    H116250   2.861   3.580   6.575
 5435TIP3    H216251   2.739   3.669   6.566
 5436TIP3   OH216252   2.425   4.900   4.086
 5436TIP3    H116253   2.498   4.869   4.031
 5436TIP3    H216254   2.347   4.876   4.037
 5437TIP3   OH216255   6.461   7.696   6.148
 5437TIP3    H116256   6.413   7.743   6.080
 5437TIP3    H216257   6.486   7.763   6.211
 5438TIP3   OH216258   3.838   0.593   3.180
 5438TIP3    H116259   3.752   0.552   3.167
 5438TIP3    H216260   3.843   0.608   3.274
 5439TIP3   OH216261   7.578   2.804   5.735
 5439TIP3    H116262   7.563   2.828   5.826
 5439TIP3    H216263   7.506   2.744   5.714
 5440TIP3   OH216264   2.878   7.164   0.740
 5440TIP3    H116265   2.818   7.212   0.797
 5440TIP3    H216266   2.821   7.122   0.676
 5441TIP3   OH216267   6.501   1.900   6.350
 5441TIP3    H116268   6.464   1.952   6.422
 5441TIP3    H216269   6.559   1.962   6.304
 5442TIP3   OH216270   1.070   1.450   4.434
 5442TIP3    H116271   1.101   1.475   4.347
 5442TIP3    H216272   1.087   1.356   4.440
 5443TIP3   OH216273   5.447   7.457   4.492
 5443TIP3    H116274   5.535   7.491   4.477
 5443TIP3    H216275   5.449   7.368   4.458
 5444TIP3   OH216276   7.273   5.402   0.531
 5444TIP3    H116277   7.267   5.433   0.622
 5444TIP3    H216278   7.189   5.427   0.492
 5445TIP3   OH216279   5.680   1.457   4.780
 5445TIP3    H116280   5.597   1.424   4.747
 5445TIP3    H216281   5.678   1.436   4.874
 5446TIP3   OH216282   7.411   6.742   6.393
 5446TIP3    H116283   7.399   6.655   6.356
 5446TIP3    H216284   7.505   6.759   6.387
 5447TIP3   OH216285   1.290   1.860   2.895
 5447TIP3    H116286   1.339   1.783   2.921
 5447TIP3    H216287   1.216   1.863   2.956
 5448TIP3   OH216288   5.220   4.165   5.671
 5448TIP3    H116289   5.310   4.167   5.706
 5448TIP3    H216290   5.167   4.132   5.743
 5449TIP3   OH216291   7.642   7.347   1.982
 5449TIP3    H116292   7.647   7.328   2.076
 5449TIP3    H216293   7.624   7.441   1.977
 5450TIP3   OH216294   5.321   0.782   6.616
 5450TIP3    H116295   5.391   0.836   6.580
 5450TIP3    H216296   5.244   0.839   6.616
 5451TIP3   OH216297   1.281   5.023   2.524
 5451TIP3    H116298   1.346   4.960   2.494
 5451TIP3    H216299   1.274   5.008   2.618
 5452TIP3   OH216300   7.778   6.282   6.111
 5452TIP3    H116301   7.831   6.208   6.080
 5452TIP3    H216302   7.719   6.301   6.038
 5453TIP3   OH216303   1.082   6.806   1.963
 5453TIP3    H116304   1.069   6.718   1.929
 5453TIP3    H216305   1.149   6.845   1.907
 5454TIP3   OH216306   3.107   7.074   1.974
 5454TIP3    H116307   3.165   7.130   1.923
 5454TIP3    H216308   3.021   7.085   1.933
 5455TIP3   OH216309   1.480   6.733   3.533
 5455TIP3    H116310   1.540   6.795   3.574
 5455TIP3    H216311   1.464   6.768   3.446
 5456TIP3   OH216312   4.733   0.192   0.175
 5456TIP3    H116313   4.773   0.177   0.089
 5456TIP3    H216314   4.800   0.165   0.237
 5457TIP3   OH216315   0.518   1.454   6.175
 5457TIP3    H116316   0.565   1.493   6.249
 5457TIP3    H216317   0.586   1.437   6.110
 5458TIP3   OH216318   6.750   7.361   3.449
 5458TIP3    H116319   6.717   7.382   3.536
 5458TIP3    H216320   6.844   7.348   3.461
 5459TIP3   OH216321   5.261   0.495   4.269
 5459TIP3    H116322   5.252   0.569   4.330
 5459TIP3    H216323   5.328   0.440   4.310
 5460TIP3   OH216324   1.325   3.513   1.268
 5460TIP3    H116325   1.340   3.482   1.179
 5460TIP3    H216326   1.343   3.437   1.324
 5461TIP3   OH216327   3.754   1.705   0.063
 5461TIP3    H116328   3.822   1.688   0.128
 5461TIP3    H216329   3.802   1.726  -0.017
 5462TIP3   OH216330   5.079   4.179   1.904
 5462TIP3    H116331   5.070   4.108   1.967
 5462TIP3    H216332   5.172   4.202   1.907
 5463TIP3   OH216333   0.809   6.599   5.203
 5463TIP3    H116334   0.769   6.543   5.270
 5463TIP3    H216335   0.857   6.665   5.252
 5464TIP3   OH216336   1.469   6.039   4.098
 5464TIP3    H116337   1.506   5.991   4.173
 5464TIP3    H216338   1.542   6.046   4.036
 5465TIP3   OH216339   1.614   5.754   0.741
 5465TIP3    H116340   1.704   5.773   0.767
 5465TIP3    H216341   1.589   5.678   0.795
 5466TIP3   OH216342   8.170   3.718   5.081
 5466TIP3    H116343   8.146   3.745   4.993
 5466TIP3    H216344   8.090   3.726   5.132
 5467TIP3   OH216345   8.111   4.603   1.967
 5467TIP3    H116346   8.172   4.556   1.910
 5467TIP3    H216347   8.155   4.686   1.986
 5468TIP3   OH216348   1.915   0.254   2.347
 5468TIP3    H116349   1.977   0.288   2.412
 5468TIP3    H216350   1.969   0.233   2.271
 5469TIP3   OH216351   2.331   5.637   3.587
 5469TIP3    H116352   2.307   5.639   3.680
 5469TIP3    H216353   2.367   5.550   3.573
 5470TIP3   OH216354   5.793   3.435   1.945
 5470TIP3    H116355   5.876   3.432   1.898
 5470TIP3    H216356   5.731   3.387   1.889
 5471TIP3   OH216357   7.478   3.696   1.601
 5471TIP3    H116358   7.552   3.752   1.625
 5471TIP3    H216359   7.443   3.736   1.521
 5472TIP3   OH216360   1.008   6.042   2.245
 5472TIP3    H116361   1.084   6.039   2.187
 5472TIP3    H216362   1.045   6.032   2.333
 5473TIP3   OH216363   2.874   3.082   3.471
 5473TIP3    H116364   2.923   3.022   3.528
 5473TIP3    H216365   2.866   3.036   3.388
 5474TIP3   OH216366   1.531   3.264   1.139
 5474TIP3    H116367   1.524   3.172   1.112
 5474TIP3    H216368   1.456   3.307   1.100
 5475TIP3   OH216369   0.777   3.493   4.849
 5475TIP3    H116370   0.787   3.568   4.907
 5475TIP3    H216371   0.686   3.465   4.862
 5476TIP3   OH216372   8.225   3.643   1.324
 5476TIP3    H116373   8.219   3.738   1.317
 5476TIP3    H216374   8.319   3.624   1.320
 5477TIP3   OH216375   4.090   5.813   1.200
 5477TIP3    H116376   4.153   5.838   1.133
 5477TIP3    H216377   4.005   5.831   1.162
 5478TIP3   OH216378   1.580   6.081   1.061
 5478TIP3    H116379   1.656   6.048   1.012
 5478TIP3    H216380   1.541   6.004   1.101
 5479TIP3   OH216381   6.108   5.310   2.367
 5479TIP3    H116382   6.117   5.221   2.332
 5479TIP3    H216383   6.158   5.364   2.306
 5480TIP3   OH216384   0.179   5.517   2.949
 5480TIP3    H116385   0.089   5.538   2.923
 5480TIP3    H216386   0.214   5.599   2.983
 5481TIP3   OH216387   2.101   2.688   4.282
 5481TIP3    H116388   2.027   2.746   4.267
 5481TIP3    H216389   2.169   2.745   4.319
 5482TIP3   OH216390   6.083   6.158   5.807
 5482TIP3    H116391   6.132   6.189   5.731
 5482TIP3    H216392   6.012   6.221   5.818
 5483TIP3   OH216393   1.089   7.756   1.691
 5483TIP3    H116394   1.184   7.760   1.705
 5483TIP3    H216395   1.078   7.780   1.599
 5484TIP3   OH216396   5.367   0.788   1.984
 5484TIP3    H116397   5.336   0.785   2.075
 5484TIP3    H216398   5.419   0.708   1.975
 5485TIP3   OH216399   5.503   5.841   5.773
 5485TIP3    H116400   5.569   5.856   5.841
 5485TIP3    H216401   5.544   5.873   5.693
 5486TIP3   OH216402   5.213   4.308   1.389
 5486TIP3    H116403   5.159   4.239   1.350
 5486TIP3    H216404   5.295   4.303   1.340
 5487TIP3   OH216405   2.396   0.516   3.965
 5487TIP3    H116406   2.372   0.428   3.936
 5487TIP3    H216407   2.417   0.563   3.885
 5488TIP3   OH216408   5.288   6.741   3.597
 5488TIP3    H116409   5.236   6.761   3.675
 5488TIP3    H216410   5.372   6.784   3.612
 5489TIP3   OH216411   3.503   5.731   3.608
 5489TIP3    H116412   3.550   5.669   3.663
 5489TIP3    H216413   3.566   5.757   3.541
 5490TIP3   OH216414   2.083   5.498   1.640
 5490TIP3    H116415   2.007   5.457   1.680
 5490TIP3    H216416   2.081   5.589   1.672
 5491TIP3   OH216417   4.016   7.131   3.145
 5491TIP3    H116418   3.943   7.078   3.112
 5491TIP3    H216419   3.974   7.212   3.174
 5492TIP3   OH216420   6.872   0.709   0.544
 5492TIP3    H116421   6.897   0.715   0.452
 5492TIP3    H216422   6.799   0.648   0.546
 5493TIP3   OH216423   3.416   3.384   1.310
 5493TIP3    H116424   3.373   3.306   1.274
 5493TIP3    H216425   3.505   3.356   1.331
 5494TIP3   OH216426   7.439   2.450   2.531
 5494TIP3    H116427   7.494   2.518   2.569
 5494TIP3    H216428   7.495   2.406   2.467
 5495TIP3   OH216429   6.173   3.323   6.166
 5495TIP3    H116430   6.251   3.345   6.115
 5495TIP3    H216431   6.188   3.362   6.252
 5496TIP3   OH216432   6.867   6.671   5.611
 5496TIP3    H116433   6.850   6.579   5.629
 5496TIP3    H216434   6.951   6.689   5.654
 5497TIP3   OH216435   2.854   5.369   1.492
 5497TIP3    H116436   2.829   5.287   1.450
 5497TIP3    H216437   2.771   5.411   1.514
 5498TIP3   OH216438   4.517   0.740   5.718
 5498TIP3    H116439   4.549   0.823   5.684
 5498TIP3    H216440   4.456   0.764   5.788
 5499TIP3   OH216441   1.600   3.564   5.397
 5499TIP3    H116442   1.656   3.622   5.346
 5499TIP3    H216443   1.659   3.524   5.461
 5500TIP3   OH216444   3.958   0.047   5.066
 5500TIP3    H116445   3.987   0.084   5.150
 5500TIP3    H216446   3.967   0.119   5.004
 5501TIP3   OH216447   6.729   0.426   1.703
 5501TIP3    H116448   6.779   0.387   1.775
 5501TIP3    H216449   6.658   0.474   1.746
 5502TIP3   OH216450   4.994   4.853   3.398
 5502TIP3    H116451   5.038   4.823   3.478
 5502TIP3    H216452   5.055   4.832   3.327
 5503TIP3   OH216453   5.738   1.176   6.371
 5503TIP3    H116454   5.675   1.150   6.438
 5503TIP3    H216455   5.821   1.139   6.401
 5504TIP3   OH216456   7.469   5.812   2.997
 5504TIP3    H116457   7.506   5.813   2.908
 5504TIP3    H216458   7.462   5.719   3.019
 5505TIP3   OH216459   7.699   4.087   4.335
 5505TIP3    H116460   7.789   4.091   4.301
 5505TIP3    H216461   7.646   4.064   4.259
 5506TIP3   OH216462   1.798   4.169   4.209
 5506TIP3    H116463   1.733   4.138   4.272
 5506TIP3    H216464   1.858   4.095   4.199
 5507TIP3   OH216465   3.791   3.255   0.652
 5507TIP3    H116466   3.781   3.175   0.600
 5507TIP3    H216467   3.852   3.232   0.722
 5508TIP3   OH216468   0.654   2.619   5.096
 5508TIP3    H116469   0.709   2.655   5.166
 5508TIP3    H216470   0.589   2.687   5.079
 5509TIP3   OH216471   1.044   5.773   4.831
 5509TIP3    H116472   0.998   5.790   4.749
 5509TIP3    H216473   1.018   5.684   4.855
 5510TIP3   OH216474   7.632   2.583   4.226
 5510TIP3    H116475   7.717   2.627   4.223
 5510TIP3    H216476   7.599   2.589   4.137
 5511TIP3   OH216477   7.177   4.058   0.132
 5511TIP3    H116478   7.220   4.139   0.106
 5511TIP3    H216479   7.157   4.070   0.225
 5512TIP3   OH216480   7.654   4.898   6.363
 5512TIP3    H116481   7.603   4.919   6.285
 5512TIP3    H216482   7.663   4.802   6.361
 5513TIP3   OH216483   4.374   3.716   3.889
 5513TIP3    H116484   4.369   3.632   3.936
 5513TIP3    H216485   4.441   3.702   3.822
 5514TIP3   OH216486   5.156   7.632   5.263
 5514TIP3    H116487   5.208   7.563   5.303
 5514TIP3    H216488   5.220   7.685   5.215
 5515TIP3   OH216489   1.201   5.718   0.098
 5515TIP3    H116490   1.286   5.732   0.141
 5515TIP3    H216491   1.148   5.674   0.165
 5516TIP3   OH216492   2.171   1.895   2.308
 5516TIP3    H116493   2.248   1.936   2.267
 5516TIP3    H216494   2.110   1.881   2.236
 5517TIP3   OH216495   7.725   2.741   1.833
 5517TIP3    H116496   7.690   2.824   1.865
 5517TIP3    H216497   7.812   2.763   1.801
 5518TIP3   OH216498   1.177   6.541   5.400
 5518TIP3    H116499   1.218   6.578   5.478
 5518TIP3    H216500   1.223   6.582   5.327
 5519TIP3   OH216501   3.990   1.333   5.257
 5519TIP3    H116502   4.011   1.381   5.337
 5519TIP3    H216503   4.065   1.276   5.243
 5520TIP3   OH216504   5.642   6.138   5.656
 5520TIP3    H116505   5.710   6.098   5.711
 5520TIP3    H216506   5.613   6.067   5.599
 5521TIP3   OH216507   3.747   1.949   5.799
 5521TIP3    H116508   3.797   2.014   5.849
 5521TIP3    H216509   3.793   1.944   5.714
 5522TIP3   OH216510   7.096   1.159   3.296
 5522TIP3    H116511   7.068   1.203   3.216
 5522TIP3    H216512   7.067   1.217   3.367
 5523TIP3   OH216513   6.030   3.692   1.980
 5523TIP3    H116514   5.956   3.715   1.923
 5523TIP3    H216515   6.021   3.750   2.056
 5524TIP3   OH216516   6.993   1.497   2.457
 5524TIP3    H116517   6.989   1.438   2.532
 5524TIP3    H216518   6.934   1.458   2.393
 5525TIP3   OH216519   8.079   2.393   1.483
 5525TIP3    H116520   8.161   2.384   1.531
 5525TIP3    H216521   8.069   2.487   1.471
 5526TIP3   OH216522   5.523   6.664   5.686
 5526TIP3    H116523   5.516   6.662   5.782
 5526TIP3    H216524   5.465   6.735   5.659
 5527TIP3   OH216525   8.038   6.040   1.411
 5527TIP3    H116526   8.068   6.118   1.364
 5527TIP3    H216527   8.118   6.002   1.448
 5528TIP3   OH216528   2.360   7.722   4.210
 5528TIP3    H116529   2.395   7.664   4.142
 5528TIP3    H216530   2.434   7.735   4.270
 5529TIP3   OH216531   3.355   5.377   2.028
 5529TIP3    H116532   3.402   5.401   2.108
 5529TIP3    H216533   3.376   5.447   1.966
 5530TIP3   OH216534   4.286   2.329   0.041
 5530TIP3    H116535   4.309   2.248  -0.003
 5530TIP3    H216536   4.331   2.325   0.126
 5531TIP3   OH216537   4.874   2.062   0.409
 5531TIP3    H116538   4.929   2.024   0.340
 5531TIP3    H216539   4.926   2.052   0.488
 5532TIP3   OH216540   6.604   7.195   1.109
 5532TIP3    H116541   6.664   7.250   1.158
 5532TIP3    H216542   6.654   7.115   1.091
 5533TIP3   OH216543   7.570   5.726   6.124
 5533TIP3    H116544   7.492   5.690   6.166
 5533TIP3    H216545   7.621   5.649   6.098
 5534TIP3   OH216546   7.792   6.088   3.032
 5534TIP3    H116547   7.738   6.150   2.983
 5534TIP3    H216548   7.853   6.052   2.967
 5535TIP3   OH216549   1.897   6.932   3.273
 5535TIP3    H116550   1.830   6.911   3.209
 5535TIP3    H216551   1.903   6.854   3.329
 5536TIP3   OH216552   2.044   1.581   1.705
 5536TIP3    H116553   2.054   1.641   1.630
 5536TIP3    H216554   2.116   1.605   1.764
 5537TIP3   OH216555   0.289   7.226   0.830
 5537TIP3    H116556   0.194   7.225   0.816
 5537TIP3    H216557   0.320   7.299   0.778
 5538TIP3   OH216558   8.155   0.957   0.492
 5538TIP3    H116559   8.206   0.999   0.561
 5538TIP3    H216560   8.065   0.959   0.524
 5539TIP3   OH216561   6.190   4.415   4.633
 5539TIP3    H116562   6.194   4.509   4.616
 5539TIP3    H216563   6.202   4.407   4.727
 5540TIP3   OH216564   3.144   6.555   4.252
 5540TIP3    H116565   3.070   6.518   4.203
 5540TIP3    H216566   3.110   6.636   4.289
 5541TIP3   OH216567   6.010   0.047   3.162
 5541TIP3    H116568   6.102   0.063   3.144
 5541TIP3    H216569   5.988  -0.029   3.109
 5542TIP3   OH216570   7.405   0.265   4.623
 5542TIP3    H116571   7.386   0.316   4.544
 5542TIP3    H216572   7.341   0.194   4.622
 5543TIP3   OH216573   3.240   4.871   1.647
 5543TIP3    H116574   3.288   4.829   1.575
 5543TIP3    H216575   3.183   4.934   1.604
 5544TIP3   OH216576   5.679   1.430   3.115
 5544TIP3    H116577   5.648   1.339   3.116
 5544TIP3    H216578   5.599   1.483   3.111
 5545TIP3   OH216579   7.358   4.937   1.361
 5545TIP3    H116580   7.323   4.951   1.273
 5545TIP3    H216581   7.320   5.006   1.415
 5546TIP3   OH216582   6.394   3.065   3.980
 5546TIP3    H116583   6.367   3.103   3.897
 5546TIP3    H216584   6.489   3.074   3.981
 5547TIP3   OH216585   5.321   7.218   6.457
 5547TIP3    H116586   5.269   7.139   6.443
 5547TIP3    H216587   5.410   7.193   6.431
 5548TIP3   OH216588   6.553   3.447   1.962
 5548TIP3    H116589   6.596   3.475   2.043
 5548TIP3    H216590   6.493   3.517   1.941
 5549TIP3   OH216591   0.707   2.302   5.863
 5549TIP3    H116592   0.775   2.238   5.843
 5549TIP3    H216593   0.735   2.341   5.946
 5550TIP3   OH216594   2.671   6.073   5.088
 5550TIP3    H116595   2.696   6.028   5.169
 5550TIP3    H216596   2.590   6.029   5.060
 5551TIP3   OH216597   7.227   6.427   2.539
 5551TIP3    H116598   7.233   6.497   2.604
 5551TIP3    H216599   7.194   6.352   2.588
 5552TIP3   OH216600   0.862   3.092   5.019
 5552TIP3    H116601   0.784   3.118   5.068
 5552TIP3    H216602   0.933   3.092   5.084
 5553TIP3   OH216603   8.138   5.725   5.361
 5553TIP3    H116604   8.097   5.710   5.276
 5553TIP3    H216605   8.066   5.723   5.423
 5554TIP3   OH216606   2.708   5.446   2.245
 5554TIP3    H116607   2.688   5.531   2.206
 5554TIP3    H216608   2.736   5.392   2.171
 5555TIP3   OH216609   0.470   0.983   1.211
 5555TIP3    H116610   0.561   0.958   1.228
 5555TIP3    H216611   0.434   0.911   1.160
 5556TIP3   OH216612   5.742   6.630   6.546
 5556TIP3    H116613   5.816   6.688   6.529
 5556TIP3    H216614   5.667   6.689   6.557
 5557TIP3   OH216615   3.804   2.606   1.251
 5557TIP3    H116616   3.799   2.539   1.182
 5557TIP3    H216617   3.765   2.564   1.328
 5558TIP3   OH216618   6.075   7.350   6.297
 5558TIP3    H116619   6.152   7.335   6.241
 5558TIP3    H216620   6.008   7.291   6.262
 5559TIP3   OH216621   3.905   6.036   5.553
 5559TIP3    H116622   3.940   5.992   5.476
 5559TIP3    H216623   3.980   6.084   5.589
 5560TIP3   OH216624   8.177   7.810   3.504
 5560TIP3    H116625   8.136   7.875   3.561
 5560TIP3    H216626   8.224   7.752   3.563
 5561TIP3   OH216627   4.048   2.318   4.415
 5561TIP3    H116628   3.995   2.379   4.464
 5561TIP3    H216629   4.129   2.309   4.466
 5562TIP3   OH216630   4.618   5.506   0.681
 5562TIP3    H116631   4.624   5.555   0.763
 5562TIP3    H216632   4.531   5.525   0.647
 5563TIP3   OH216633   2.479   4.948   0.062
 5563TIP3    H116634   2.530   4.910  -0.010
 5563TIP3    H216635   2.529   4.926   0.141
 5564TIP3   OH216636   7.097   0.952   3.831
 5564TIP3    H116637   7.002   0.963   3.822
 5564TIP3    H216638   7.123   0.904   3.753
 5565TIP3   OH216639   8.133   2.320   0.128
 5565TIP3    H116640   8.110   2.367   0.208
 5565TIP3    H216641   8.049   2.296   0.089
 5566TIP3   OH216642   7.984   3.063   2.050
 5566TIP3    H116643   7.918   3.026   1.991
 5566TIP3    H216644   7.971   3.157   2.044
 5567TIP3   OH216645   0.898   2.831   3.130
 5567TIP3    H116646   0.955   2.754   3.142
 5567TIP3    H216647   0.928   2.893   3.196
 5568TIP3   OH216648   2.285   2.929   2.039
 5568TIP3    H116649   2.201   2.886   2.051
 5568TIP3    H216650   2.306   2.967   2.124
 5569TIP3   OH216651   5.892   1.425   0.848
 5569TIP3    H116652   5.844   1.439   0.930
 5569TIP3    H216653   5.873   1.502   0.796
 5570TIP3   OH216654   5.063   0.784   1.528
 5570TIP3    H116655   5.001   0.717   1.557
 5570TIP3    H216656   5.136   0.778   1.589
 5571TIP3   OH216657   0.659   5.686   3.212
 5571TIP3    H116658   0.626   5.614   3.264
 5571TIP3    H216659   0.618   5.764   3.249
 5572TIP3   OH216660   4.710   2.613   3.847
 5572TIP3    H116661   4.617   2.632   3.850
 5572TIP3    H216662   4.715   2.519   3.826
 5573TIP3   OH216663   5.454   7.134   2.746
 5573TIP3    H116664   5.428   7.191   2.819
 5573TIP3    H216665   5.540   7.166   2.720
 5574TIP3   OH216666   7.347   7.238   2.483
 5574TIP3    H116667   7.269   7.294   2.476
 5574TIP3    H216668   7.330   7.166   2.422
 5575TIP3   OH216669   4.381   3.467   4.016
 5575TIP3    H116670   4.374   3.381   3.974
 5575TIP3    H216671   4.431   3.450   4.096
 5576TIP3   OH216672   1.711   4.416   1.900
 5576TIP3    H116673   1.644   4.461   1.951
 5576TIP3    H216674   1.749   4.353   1.960
 5577TIP3   OH216675   0.933   0.545   4.349
 5577TIP3    H116676   0.973   0.532   4.435
 5577TIP3    H216677   0.946   0.461   4.304
 5578TIP3   OH216678   3.417   3.401   2.908
 5578TIP3    H116679   3.475   3.450   2.850
 5578TIP3    H216680   3.438   3.434   2.996
 5579TIP3   OH216681   0.353   6.253   0.991
 5579TIP3    H116682   0.360   6.226   1.082
 5579TIP3    H216683   0.408   6.191   0.943
 5580TIP3   OH216684   6.056   5.898   1.539
 5580TIP3    H116685   6.122   5.940   1.484
 5580TIP3    H216686   5.980   5.956   1.532
 5581TIP3   OH216687   4.904   6.422   3.532
 5581TIP3    H116688   4.827   6.479   3.537
 5581TIP3    H216689   4.947   6.445   3.450
 5582TIP3   OH216690   6.647   7.380   4.966
 5582TIP3    H116691   6.695   7.324   5.027
 5582TIP3    H216692   6.630   7.460   5.016
 5583TIP3   OH216693   3.460   3.333   0.935
 5583TIP3    H116694   3.453   3.269   0.863
 5583TIP3    H216695   3.521   3.292   0.996
 5584TIP3   OH216696   3.213   3.996   6.667
 5584TIP3    H116697   3.165   4.063   6.716
 5584TIP3    H216698   3.246   4.042   6.589
 5585TIP3   OH216699   4.313   3.053   4.420
 5585TIP3    H116700   4.247   3.112   4.382
 5585TIP3    H216701   4.292   3.052   4.514
 5586TIP3   OH216702   4.981   5.152   3.328
 5586TIP3    H116703   4.900   5.125   3.284
 5586TIP3    H216704   4.981   5.103   3.410
 5587TIP3   OH216705   8.096   6.672   3.330
 5587TIP3    H116706   8.006   6.654   3.303
 5587TIP3    H216707   8.150   6.642   3.256
 5588TIP3   OH216708   6.383   2.995   6.021
 5588TIP3    H116709   6.300   3.034   6.050
 5588TIP3    H216710   6.419   2.953   6.099
 5589TIP3   OH216711   6.704   1.850   4.910
 5589TIP3    H116712   6.640   1.868   4.979
 5589TIP3    H216713   6.746   1.768   4.937
 5590TIP3   OH216714   2.238   5.508   3.843
 5590TIP3    H116715   2.181   5.488   3.917
 5590TIP3    H216716   2.324   5.521   3.882
 5591TIP3   OH216717   6.265   3.842   6.676
 5591TIP3    H116718   6.202   3.876   6.613
 5591TIP3    H216719   6.227   3.760   6.707
 5592TIP3   OH216720   6.738   6.922   1.117
 5592TIP3    H116721   6.700   6.838   1.091
 5592TIP3    H216722   6.833   6.908   1.108
 5593TIP3   OH216723   4.261   0.994   0.622
 5593TIP3    H116724   4.286   0.920   0.566
 5593TIP3    H216725   4.175   0.971   0.656
 5594TIP3   OH216726   6.808   2.321   1.670
 5594TIP3    H116727   6.859   2.329   1.751
 5594TIP3    H216728   6.852   2.378   1.607
 5595TIP3   OH216729   6.118   0.485   5.108
 5595TIP3    H116730   6.030   0.460   5.080
 5595TIP3    H216731   6.176   0.421   5.066
 5596TIP3   OH216732   3.524   0.231   4.255
 5596TIP3    H116733   3.603   0.207   4.206
 5596TIP3    H216734   3.549   0.222   4.347
 5597TIP3   OH216735   4.033   5.641   4.993
 5597TIP3    H116736   4.013   5.696   5.069
 5597TIP3    H216737   3.987   5.559   5.010
 5598TIP3   OH216738   4.757   3.262   3.231
 5598TIP3    H116739   4.782   3.170   3.228
 5598TIP3    H216740   4.800   3.296   3.310
 5599TIP3   OH216741   5.972   3.455   3.310
 5599TIP3    H116742   6.011   3.368   3.304
 5599TIP3    H216743   5.958   3.481   3.219
 5600TIP3   OH216744   1.611   0.689   4.484
 5600TIP3    H116745   1.629   0.614   4.428
 5600TIP3    H216746   1.596   0.761   4.423
 5601TIP3   OH216747   1.454   3.678   6.039
 5601TIP3    H116748   1.514   3.663   6.112
 5601TIP3    H216749   1.469   3.605   5.979
 5602TIP3   OH216750   2.025   5.754   3.215
 5602TIP3    H116751   2.024   5.817   3.286
 5602TIP3    H216752   2.042   5.670   3.258
 5603TIP3   OH216753   1.072   4.956   0.040
 5603TIP3    H116754   1.088   4.880  -0.016
 5603TIP3    H216755   1.032   4.919   0.119
 5604TIP3   OH216756   8.278   5.999   4.216
 5604TIP3    H116757   8.182   5.996   4.211
 5604TIP3    H216758   8.296   6.028   4.305
 5605TIP3   OH216759   4.414   1.684   6.502
 5605TIP3    H116760   4.438   1.592   6.514
 5605TIP3    H216761   4.446   1.727   6.582
 5606TIP3   OH216762   6.467   1.255   6.087
 5606TIP3    H116763   6.499   1.238   5.999
 5606TIP3    H216764   6.470   1.170   6.131
 5607TIP3   OH216765   7.529   1.353   5.543
 5607TIP3    H116766   7.535   1.294   5.618
 5607TIP3    H216767   7.611   1.402   5.545
 5608TIP3   OH216768   2.318   0.153   3.033
 5608TIP3    H116769   2.413   0.144   3.033
 5608TIP3    H216770   2.286   0.072   3.071
 5609TIP3   OH216771   1.958   1.489   4.865
 5609TIP3    H116772   1.996   1.501   4.952
 5609TIP3    H216773   2.007   1.416   4.828
 5610TIP3   OH216774   6.886   6.131   0.976
 5610TIP3    H116775   6.797   6.108   1.004
 5610TIP3    H216776   6.942   6.092   1.043
 5611TIP3   OH216777   0.182   3.842   3.885
 5611TIP3    H116778   0.230   3.909   3.934
 5611TIP3    H216779   0.091   3.873   3.885
 5612TIP3   OH216780   6.516   0.108   4.156
 5612TIP3    H116781   6.464   0.080   4.230
 5612TIP3    H216782   6.603   0.072   4.172
 5613TIP3   OH216783   6.213   0.620   1.089
 5613TIP3    H116784   6.187   0.534   1.123
 5613TIP3    H216785   6.286   0.647   1.145
 5614TIP3   OH216786   3.419   6.756   6.182
 5614TIP3    H116787   3.509   6.725   6.171
 5614TIP3    H216788   3.368   6.705   6.119
 5615TIP3   OH216789   7.539   5.418   6.798
 5615TIP3    H116790   7.610   5.354   6.794
 5615TIP3    H216791   7.481   5.394   6.726
 5616TIP3   OH216792   6.197   0.789   0.884
 5616TIP3    H116793   6.168   0.746   0.804
 5616TIP3    H216794   6.193   0.720   0.951
 5617TIP3   OH216795   2.309   0.327   0.285
 5617TIP3    H116796   2.365   0.403   0.265
 5617TIP3    H216797   2.359   0.278   0.351
 5618TIP3   OH216798   2.908   0.071   6.537
 5618TIP3    H116799   2.925   0.007   6.468
 5618TIP3    H216800   2.813   0.081   6.537
 5619TIP3   OH216801   8.192   6.561   5.908
 5619TIP3    H116802   8.151   6.646   5.924
 5619TIP3    H216803   8.278   6.582   5.871
 5620TIP3   OH216804   6.049   4.292   5.568
 5620TIP3    H116805   6.071   4.277   5.660
 5620TIP3    H216806   6.115   4.242   5.520
 5621TIP3   OH216807   2.446   2.059   3.172
 5621TIP3    H116808   2.421   2.061   3.080
 5621TIP3    H216809   2.502   1.981   3.179
 5622TIP3   OH216810   5.425   2.340   3.763
 5622TIP3    H116811   5.435   2.313   3.854
 5622TIP3    H216812   5.428   2.436   3.765
 5623TIP3   OH216813   0.051   0.730   0.652
 5623TIP3    H116814  -0.022   0.670   0.637
 5623TIP3    H216815   0.013   0.802   0.702
 5624TIP3   OH216816   3.016   2.495   5.983
 5624TIP3    H116817   3.017   2.478   5.889
 5624TIP3    H216818   2.933   2.458   6.013
 5625TIP3   OH216819   3.520   6.591   0.956
 5625TIP3    H116820   3.536   6.509   1.002
 5625TIP3    H216821   3.599   6.643   0.973
 5626TIP3   OH216822   1.155   2.905   5.135
 5626TIP3    H116823   1.114   2.972   5.189
 5626TIP3    H216824   1.184   2.952   5.057
 5627TIP3   OH216825   4.491   3.261   1.289
 5627TIP3    H116826   4.408   3.289   1.250
 5627TIP3    H216827   4.499   3.169   1.266
 5628TIP3   OH216828   6.259   7.499   0.501
 5628TIP3    H116829   6.252   7.574   0.560
 5628TIP3    H216830   6.195   7.436   0.533
 5629TIP3   OH216831   6.528   2.255   1.682
 5629TIP3    H116832   6.474   2.331   1.661
 5629TIP3    H216833   6.617   2.290   1.690
 5630TIP3   OH216834   0.282   6.575   5.237
 5630TIP3    H116835   0.301   6.548   5.147
 5630TIP3    H216836   0.368   6.584   5.278
 5631TIP3   OH216837   8.054   4.244   3.161
 5631TIP3    H116838   8.131   4.222   3.212
 5631TIP3    H216839   8.075   4.214   3.072
 5632TIP3   OH216840   4.031   3.847   4.224
 5632TIP3    H116841   4.090   3.776   4.196
 5632TIP3    H216842   4.070   3.879   4.305
 5633TIP3   OH216843   1.680   7.830   4.176
 5633TIP3    H116844   1.604   7.811   4.121
 5633TIP3    H216845   1.750   7.775   4.141
 5634TIP3   OH216846   5.506   3.939   3.690
 5634TIP3    H116847   5.595   3.973   3.689
 5634TIP3    H216848   5.477   3.952   3.781
 5635TIP3   OH216849   3.808   3.170   6.251
 5635TIP3    H116850   3.879   3.124   6.295
 5635TIP3    H216851   3.821   3.262   6.274
 5636TIP3   OH216852   2.472   4.521   2.412
 5636TIP3    H116853   2.508   4.463   2.479
 5636TIP3    H216854   2.412   4.465   2.362
 5637TIP3   OH216855   2.601   3.506   1.584
 5637TIP3    H116856   2.692   3.481   1.600
 5637TIP3    H216857   2.554   3.475   1.661
 5638TIP3   OH216858   5.029   2.800   5.955
 5638TIP3    H116859   5.020   2.889   5.988
 5638TIP3    H216860   4.955   2.753   5.994
 5639TIP3   OH216861   6.476   1.479   0.980
 5639TIP3    H116862   6.484   1.438   0.894
 5639TIP3    H216863   6.382   1.478   0.999
 5640TIP3   OH216864   7.089   1.094   5.721
 5640TIP3    H116865   7.118   1.132   5.805
 5640TIP3    H216866   7.130   1.008   5.718
 5641TIP3   OH216867   6.141   1.691   3.665
 5641TIP3    H116868   6.060   1.650   3.635
 5641TIP3    H216869   6.135   1.782   3.634
 5642TIP3   OH216870   3.947   6.848   6.069
 5642TIP3    H116871   4.000   6.924   6.096
 5642TIP3    H216872   3.926   6.865   5.978
 5643TIP3   OH216873   5.320   4.831   0.770
 5643TIP3    H116874   5.379   4.888   0.818
 5643TIP3    H216875   5.360   4.744   0.775
 5644TIP3   OH216876   7.643   3.193   2.242
 5644TIP3    H116877   7.714   3.256   2.232
 5644TIP3    H216878   7.576   3.241   2.290
 5645TIP3   OH216879   6.572   5.446   3.278
 5645TIP3    H116880   6.523   5.408   3.206
 5645TIP3    H216881   6.563   5.541   3.266
 5646TIP3   OH216882   6.092   1.797   2.138
 5646TIP3    H116883   6.100   1.720   2.082
 5646TIP3    H216884   6.134   1.868   2.088
 5647TIP3   OH216885   0.635   3.533   3.598
 5647TIP3    H116886   0.574   3.586   3.650
 5647TIP3    H216887   0.581   3.464   3.561
 5648TIP3   OH216888   1.327   1.453   2.677
 5648TIP3    H116889   1.324   1.358   2.668
 5648TIP3    H216890   1.322   1.468   2.772
 5649TIP3   OH216891   1.106   1.651   1.231
 5649TIP3    H116892   1.104   1.556   1.242
 5649TIP3    H216893   1.168   1.682   1.297
 5650TIP3   OH216894   0.880   3.051   5.431
 5650TIP3    H116895   0.822   3.092   5.496
 5650TIP3    H216896   0.823   2.990   5.384
 5651TIP3   OH216897   4.996   3.033   6.068
 5651TIP3    H116898   5.005   3.038   6.163
 5651TIP3    H216899   4.988   3.124   6.040
 5652TIP3   OH216900   7.343   6.187   6.503
 5652TIP3    H116901   7.433   6.220   6.500
 5652TIP3    H216902   7.350   6.101   6.543
 5653TIP3   OH216903   1.336   7.247   3.447
 5653TIP3    H116904   1.302   7.253   3.536
 5653TIP3    H216905   1.431   7.254   3.457
 5654TIP3   OH216906   4.942   4.658   2.635
 5654TIP3    H116907   5.012   4.646   2.570
 5654TIP3    H216908   4.937   4.752   2.648
 5655TIP3   OH216909   4.601   2.313   5.968
 5655TIP3    H116910   4.654   2.380   5.924
 5655TIP3    H216911   4.647   2.296   6.050
 5656TIP3   OH216912   6.822   6.049   1.898
 5656TIP3    H116913   6.737   6.088   1.879
 5656TIP3    H216914   6.866   6.115   1.953
 5657TIP3   OH216915   3.039   4.168   3.352
 5657TIP3    H116916   3.062   4.079   3.380
 5657TIP3    H216917   3.123   4.208   3.330
 5658TIP3   OH216918   0.343   4.774   3.157
 5658TIP3    H116919   0.393   4.712   3.211
 5658TIP3    H216920   0.258   4.733   3.146
 5659TIP3   OH216921   5.355   1.867   3.128
 5659TIP3    H116922   5.268   1.833   3.110
 5659TIP3    H216923   5.400   1.863   3.043
 5660TIP3   OH216924   1.462   7.704   5.634
 5660TIP3    H116925   1.545   7.706   5.587
 5660TIP3    H216926   1.431   7.794   5.633
 5661TIP3   OH216927   6.414   7.673   4.915
 5661TIP3    H116928   6.409   7.708   4.826
 5661TIP3    H216929   6.374   7.586   4.908
 5662TIP3   OH216930   7.725   2.433   2.779
 5662TIP3    H116931   7.667   2.498   2.817
 5662TIP3    H216932   7.752   2.470   2.695
 5663TIP3   OH216933   5.834   5.865   4.051
 5663TIP3    H116934   5.774   5.794   4.074
 5663TIP3    H216935   5.779   5.943   4.049
 5664TIP3   OH216936   4.754   4.258   1.258
 5664TIP3    H116937   4.737   4.294   1.345
 5664TIP3    H216938   4.765   4.164   1.273
 5665TIP3   OH216939   4.865   0.984   1.465
 5665TIP3    H116940   4.887   1.023   1.381
 5665TIP3    H216941   4.933   0.918   1.479
 5666TIP3   OH216942   6.011   7.333   3.095
 5666TIP3    H116943   6.103   7.348   3.071
 5666TIP3    H216944   6.003   7.370   3.183
 5667TIP3   OH216945   2.749   4.160   2.422
 5667TIP3    H116946   2.751   4.216   2.344
 5667TIP3    H216947   2.787   4.077   2.393
 5668TIP3   OH216948   4.913   5.204   5.949
 5668TIP3    H116949   5.002   5.222   5.979
 5668TIP3    H216950   4.911   5.110   5.934
 5669TIP3   OH216951   7.696   2.524   1.185
 5669TIP3    H116952   7.633   2.592   1.161
 5669TIP3    H216953   7.686   2.514   1.280
 5670TIP3   OH216954   5.198   3.069   2.549
 5670TIP3    H116955   5.103   3.061   2.545
 5670TIP3    H216956   5.220   3.123   2.473
 5671TIP3   OH216957   0.657   6.651   4.923
 5671TIP3    H116958   0.682   6.649   5.016
 5671TIP3    H216959   0.679   6.740   4.894
 5672TIP3   OH216960   3.672   6.984   4.021
 5672TIP3    H116961   3.669   7.048   3.950
 5672TIP3    H216962   3.593   6.932   4.009
 5673TIP3   OH216963   7.966   4.663   4.293
 5673TIP3    H116964   7.935   4.690   4.207
 5673TIP3    H216965   8.060   4.648   4.281
 5674TIP3   OH216966   6.121   2.533   2.556
 5674TIP3    H116967   6.210   2.505   2.577
 5674TIP3    H216968   6.078   2.454   2.523
 5675TIP3   OH216969   4.995   1.754   1.962
 5675TIP3    H116970   5.031   1.693   2.027
 5675TIP3    H216971   4.974   1.699   1.887
 5676TIP3   OH216972   3.738   0.148   4.122
 5676TIP3    H116973   3.817   0.184   4.081
 5676TIP3    H216974   3.721   0.067   4.075
 5677TIP3   OH216975   7.876   1.903   3.432
 5677TIP3    H116976   7.951   1.887   3.491
 5677TIP3    H216977   7.887   1.993   3.403
 5678TIP3   OH216978   6.145   3.897   2.204
 5678TIP3    H116979   6.226   3.914   2.157
 5678TIP3    H216980   6.148   3.954   2.281
 5679TIP3   OH216981   5.013   0.834   4.809
 5679TIP3    H116982   4.982   0.913   4.764
 5679TIP3    H216983   5.095   0.861   4.850
 5680TIP3   OH216984   5.707   4.121   1.878
 5680TIP3    H116985   5.683   4.082   1.795
 5680TIP3    H216986   5.756   4.052   1.924
 5681TIP3   OH216987   4.931   6.842   2.263
 5681TIP3    H116988   4.837   6.841   2.280
 5681TIP3    H216989   4.939   6.876   2.174
 5682TIP3   OH216990   5.405   6.401   1.019
 5682TIP3    H116991   5.449   6.445   0.946
 5682TIP3    H216992   5.336   6.461   1.045
 5683TIP3   OH216993   2.647   2.810   3.900
 5683TIP3    H116994   2.728   2.779   3.861
 5683TIP3    H216995   2.629   2.749   3.972
 5684TIP3   OH216996   7.080   4.132   3.404
 5684TIP3    H116997   6.997   4.105   3.366
 5684TIP3    H216998   7.110   4.056   3.454
 5685TIP3   OH216999   5.265   7.772   2.893
 5685TIP3    H117000   5.356   7.801   2.889
 5685TIP3    H217001   5.233   7.781   2.803
 5686TIP3   OH217002   3.336   4.353   1.455
 5686TIP3    H117003   3.411   4.301   1.481
 5686TIP3    H217004   3.367   4.444   1.456
 5687TIP3   OH217005   7.397   2.032   5.868
 5687TIP3    H117006   7.374   2.079   5.948
 5687TIP3    H217007   7.439   1.952   5.898
 5688TIP3   OH217008   6.113   3.735   5.750
 5688TIP3    H117009   6.114   3.661   5.689
 5688TIP3    H217010   6.078   3.808   5.699
 5689TIP3   OH217011   0.293   5.004   2.987
 5689TIP3    H117012   0.214   4.962   2.953
 5689TIP3    H217013   0.314   4.954   3.067
 5690TIP3   OH217014   4.183   1.124   5.104
 5690TIP3    H117015   4.227   1.160   5.180
 5690TIP3    H217016   4.106   1.080   5.139
 5691TIP3   OH217017   4.713   2.191   6.227
 5691TIP3    H117018   4.630   2.145   6.211
 5691TIP3    H217019   4.770   2.125   6.267
 5692TIP3   OH217020   3.939   1.506   3.401
 5692TIP3    H117021   3.856   1.478   3.362
 5692TIP3    H217022   3.935   1.474   3.491
 5693TIP3   OH217023   6.881   6.987   3.364
 5693TIP3    H117024   6.820   7.031   3.305
 5693TIP3    H217025   6.827   6.955   3.436
 5694TIP3   OH217026   5.990   1.444   0.500
 5694TIP3    H117027   5.930   1.513   0.472
 5694TIP3    H217028   6.023   1.475   0.585
 5695TIP3   OH217029   7.762   6.961   4.478
 5695TIP3    H117030   7.708   6.883   4.463
 5695TIP3    H217031   7.833   6.930   4.536
 5696TIP3   OH217032   6.486   6.612   3.031
 5696TIP3    H117033   6.576   6.606   2.999
 5696TIP3    H217034   6.490   6.679   3.100
 5697TIP3   OH217035   6.152   5.098   5.290
 5697TIP3    H117036   6.134   5.192   5.286
 5697TIP3    H217037   6.066   5.058   5.298
 5698TIP3   OH217038   1.617   6.637   2.763
 5698TIP3    H117039   1.674   6.562   2.782
 5698TIP3    H217040   1.678   6.706   2.736
 5699TIP3   OH217041   7.748   5.546   4.829
 5699TIP3    H117042   7.660   5.584   4.836
 5699TIP3    H217043   7.737   5.470   4.772
 5700TIP3   OH217044   6.254   3.992   1.709
 5700TIP3    H117045   6.280   4.082   1.687
 5700TIP3    H217046   6.307   3.938   1.651
 5701TIP3   OH217047   7.891   1.567   0.396
 5701TIP3    H117048   7.985   1.579   0.387
 5701TIP3    H217049   7.871   1.486   0.349
 5702TIP3   OH217050   5.624   3.792   2.020
 5702TIP3    H117051   5.661   3.739   2.090
 5702TIP3    H217052   5.635   3.740   1.941
 5703TIP3   OH217053   6.635   5.905   2.198
 5703TIP3    H117054   6.573   5.858   2.143
 5703TIP3    H217055   6.721   5.884   2.160
 5704TIP3   OH217056   1.578   6.797   1.302
 5704TIP3    H117057   1.571   6.882   1.258
 5704TIP3    H217058   1.496   6.788   1.350
 5705TIP3   OH217059   3.289   5.284   1.612
 5705TIP3    H117060   3.253   5.248   1.693
 5705TIP3    H217061   3.216   5.283   1.551
 5706TIP3   OH217062   5.710   3.836   2.854
 5706TIP3    H117063   5.660   3.917   2.845
 5706TIP3    H217064   5.654   3.769   2.815
 5707TIP3   OH217065   0.303   6.595   4.239
 5707TIP3    H117066   0.254   6.522   4.276
 5707TIP3    H217067   0.282   6.592   4.145
 5708TIP3   OH217068   2.605   7.473   3.414
 5708TIP3    H117069   2.529   7.420   3.390
 5708TIP3    H217070   2.675   7.441   3.357
 5709TIP3   OH217071   6.537   4.390   0.690
 5709TIP3    H117072   6.557   4.434   0.773
 5709TIP3    H217073   6.573   4.448   0.623
 5710TIP3   OH217074   1.608   4.115   4.410
 5710TIP3    H117075   1.580   4.091   4.498
 5710TIP3    H217076   1.527   4.139   4.365
 5711TIP3   OH217077   6.498   3.404   5.117
 5711TIP3    H117078   6.507   3.433   5.208
 5711TIP3    H217079   6.576   3.438   5.073
 5712TIP3   OH217080   7.134   0.817   5.668
 5712TIP3    H117081   7.185   0.753   5.718
 5712TIP3    H217082   7.182   0.826   5.586
 5713TIP3   OH217083   4.304   6.371   4.836
 5713TIP3    H117084   4.268   6.451   4.874
 5713TIP3    H217085   4.249   6.301   4.870
 5714TIP3   OH217086   4.778   6.435   6.533
 5714TIP3    H117087   4.768   6.387   6.451
 5714TIP3    H217088   4.829   6.513   6.508
 5715TIP3   OH217089   5.275   2.925   0.144
 5715TIP3    H117090   5.299   2.833   0.134
 5715TIP3    H217091   5.240   2.951   0.059
 5716TIP3   OH217092   4.755   7.350   3.225
 5716TIP3    H117093   4.716   7.285   3.283
 5716TIP3    H217094   4.763   7.306   3.140
 5717TIP3   OH217095   0.157   3.750   5.622
 5717TIP3    H117096   0.164   3.730   5.529
 5717TIP3    H217097   0.214   3.825   5.636
 5718TIP3   OH217098   3.978   6.493   4.663
 5718TIP3    H117099   4.022   6.455   4.587
 5718TIP3    H217100   3.912   6.552   4.625
 5719TIP3   OH217101   1.439   1.201   1.193
 5719TIP3    H117102   1.532   1.183   1.204
 5719TIP3    H217103   1.432   1.241   1.106
 5720TIP3   OH217104   1.252   1.362   1.314
 5720TIP3    H117105   1.169   1.315   1.315
 5720TIP3    H217106   1.315   1.299   1.279
 5721TIP3   OH217107   4.189   6.687   4.688
 5721TIP3    H117108   4.129   6.613   4.681
 5721TIP3    H217109   4.270   6.657   4.647
 5722TIP3   OH217110   6.343   2.957   6.660
 5722TIP3    H117111   6.395   2.895   6.610
 5722TIP3    H217112   6.347   3.038   6.609
 5723TIP3   OH217113   4.656   1.184   4.280
 5723TIP3    H117114   4.742   1.219   4.305
 5723TIP3    H217115   4.609   1.175   4.363
 5724TIP3   OH217116   7.082   6.959   0.670
 5724TIP3    H117117   7.155   6.921   0.621
 5724TIP3    H217118   7.005   6.913   0.637
 5725TIP3   OH217119   5.496   1.443   2.172
 5725TIP3    H117120   5.550   1.499   2.226
 5725TIP3    H217121   5.517   1.468   2.082
 5726TIP3   OH217122   0.777   1.987   3.096
 5726TIP3    H117123   0.764   2.081   3.111
 5726TIP3    H217124   0.751   1.974   3.005
 5727TIP3   OH217125   2.854   5.720   3.825
 5727TIP3    H117126   2.860   5.649   3.889
 5727TIP3    H217127   2.887   5.797   3.872
 5728TIP3   OH217128   4.627   1.639   3.114
 5728TIP3    H117129   4.696   1.637   3.048
 5728TIP3    H217130   4.622   1.549   3.146
 5729TIP3   OH217131   3.794   1.283   0.677
 5729TIP3    H117132   3.774   1.214   0.614
 5729TIP3    H217133   3.716   1.289   0.732
 5730TIP3   OH217134   8.262   5.822   3.900
 5730TIP3    H117135   8.284   5.915   3.892
 5730TIP3    H217136   8.192   5.809   3.836
 5731TIP3   OH217137   3.341   4.480   2.231
 5731TIP3    H117138   3.339   4.398   2.281
 5731TIP3    H217139   3.255   4.485   2.189
 5732TIP3   OH217140   5.521   7.715   1.633
 5732TIP3    H117141   5.569   7.680   1.558
 5732TIP3    H217142   5.434   7.675   1.627
 5733TIP3   OH217143   0.383   4.574   1.419
 5733TIP3    H117144   0.328   4.522   1.477
 5733TIP3    H217145   0.469   4.572   1.460
 5734TIP3   OH217146   7.803   1.519   5.102
 5734TIP3    H117147   7.785   1.593   5.160
 5734TIP3    H217148   7.806   1.443   5.159
 5735TIP3   OH217149   3.729   7.113   4.255
 5735TIP3    H117150   3.733   7.095   4.161
 5735TIP3    H217151   3.635   7.118   4.274
 5736TIP3   OH217152   2.977   2.227   2.966
 5736TIP3    H117153   2.953   2.296   2.905
 5736TIP3    H217154   3.058   2.258   3.008
 5737TIP3   OH217155   1.251   3.759   2.693
 5737TIP3    H117156   1.229   3.845   2.656
 5737TIP3    H217157   1.337   3.772   2.734
 5738TIP3   OH217158   1.543   7.750   0.950
 5738TIP3    H117159   1.631   7.738   0.986
 5738TIP3    H217160   1.486   7.753   1.027
 5739TIP3   OH217161   4.410   6.352   0.656
 5739TIP3    H117162   4.424   6.437   0.613
 5739TIP3    H217163   4.494   6.331   0.697
 5740TIP3   OH217164   0.793   3.052   1.405
 5740TIP3    H117165   0.719   3.104   1.373
 5740TIP3    H217166   0.789   3.061   1.500
 5741TIP3   OH217167   8.265   1.235   1.167
 5741TIP3    H117168   8.285   1.144   1.189
 5741TIP3    H217169   8.183   1.254   1.214
 5742TIP3   OH217170   6.323   3.004   4.307
 5742TIP3    H117171   6.329   3.099   4.301
 5742TIP3    H217172   6.232   2.984   4.286
 5743TIP3   OH217173   2.183   5.646   2.013
 5743TIP3    H117174   2.191   5.559   2.053
 5743TIP3    H217175   2.111   5.637   1.951
 5744TIP3   OH217176   2.843   4.337   0.525
 5744TIP3    H117177   2.801   4.408   0.477
 5744TIP3    H217178   2.790   4.260   0.506
 5745TIP3   OH217179   6.300   2.440   1.589
 5745TIP3    H117180   6.248   2.363   1.611
 5745TIP3    H217181   6.237   2.511   1.584
 5746TIP3   OH217182   4.958   5.430   2.830
 5746TIP3    H117183   4.918   5.380   2.901
 5746TIP3    H217184   4.902   5.414   2.754
 5747TIP3   OH217185   2.745   0.297   1.478
 5747TIP3    H117186   2.809   0.366   1.496
 5747TIP3    H217187   2.768   0.265   1.391
 5748TIP3   OH217188   1.506   3.034   4.411
 5748TIP3    H117189   1.428   2.991   4.446
 5748TIP3    H217190   1.540   3.086   4.484
 5749TIP3   OH217191   5.648   2.474   0.488
 5749TIP3    H117192   5.618   2.555   0.446
 5749TIP3    H217193   5.724   2.447   0.435
 5750TIP3   OH217194   7.248   2.299   0.456
 5750TIP3    H117195   7.186   2.286   0.384
 5750TIP3    H217196   7.267   2.211   0.488
 5751TIP3   OH217197   3.985   3.392   1.305
 5751TIP3    H117198   3.984   3.418   1.398
 5751TIP3    H217199   3.941   3.465   1.260
 5752TIP3   OH217200   7.128   5.055   3.172
 5752TIP3    H117201   7.093   5.035   3.258
 5752TIP3    H217202   7.080   5.133   3.143
 5753TIP3   OH217203   4.137   0.845   5.187
 5753TIP3    H117204   4.228   0.852   5.156
 5753TIP3    H217205   4.143   0.794   5.267
 5754TIP3   OH217206   7.030   4.187   1.372
 5754TIP3    H117207   7.089   4.261   1.389
 5754TIP3    H217208   7.064   4.117   1.427
 5755TIP3   OH217209   3.097   0.689   2.498
 5755TIP3    H117210   3.120   0.777   2.525
 5755TIP3    H217211   3.092   0.693   2.403
 5756TIP3   OH217212   0.691   5.610   1.146
 5756TIP3    H117213   0.608   5.602   1.099
 5756TIP3    H217214   0.735   5.684   1.103
 5757TIP3   OH217215   4.954   4.514   6.598
 5757TIP3    H117216   5.011   4.575   6.551
 5757TIP3    H217217   5.002   4.495   6.679
 5758TIP3   OH217218   6.278   7.200   1.847
 5758TIP3    H117219   6.286   7.210   1.752
 5758TIP3    H217220   6.341   7.132   1.869
 5759TIP3   OH217221   3.251   4.364   0.172
 5759TIP3    H117222   3.301   4.426   0.119
 5759TIP3    H217223   3.170   4.410   0.194
 5760TIP3   OH217224   5.067   6.957   4.055
 5760TIP3    H117225   4.990   6.914   4.091
 5760TIP3    H217226   5.041   7.048   4.044
 5761TIP3   OH217227   2.315   1.000   0.704
 5761TIP3    H117228   2.268   1.034   0.628
 5761TIP3    H217229   2.269   0.919   0.726
 5762TIP3   OH217230   4.447   6.997   4.869
 5762TIP3    H117231   4.367   7.006   4.920
 5762TIP3    H217232   4.498   7.075   4.889
 5763TIP3   OH217233   1.716   3.226   4.783
 5763TIP3    H117234   1.798   3.183   4.809
 5763TIP3    H217235   1.729   3.318   4.806
 5764TIP3   OH217236   0.846   0.313   4.878
 5764TIP3    H117237   0.787   0.241   4.900
 5764TIP3    H217238   0.911   0.275   4.820
 5765TIP3   OH217239   2.322   1.220   5.767
 5765TIP3    H117240   2.315   1.137   5.815
 5765TIP3    H217241   2.308   1.194   5.675
 5766TIP3   OH217242   6.609   1.232   5.842
 5766TIP3    H117243   6.670   1.301   5.814
 5766TIP3    H217244   6.652   1.150   5.816
 5767TIP3   OH217245   1.887   1.991   2.563
 5767TIP3    H117246   1.961   2.052   2.570
 5767TIP3    H217247   1.833   2.009   2.640
 5768TIP3   OH217248   0.991   1.526   5.573
 5768TIP3    H117249   0.912   1.580   5.574
 5768TIP3    H217250   1.055   1.578   5.524
 5769TIP3   OH217251   5.827   7.546   5.508
 5769TIP3    H117252   5.874   7.535   5.590
 5769TIP3    H217253   5.764   7.616   5.525
 5770TIP3   OH217254   7.317   7.750   4.659
 5770TIP3    H117255   7.402   7.783   4.632
 5770TIP3    H217256   7.254   7.798   4.606
 5771TIP3   OH217257   3.109   3.238   1.447
 5771TIP3    H117258   3.181   3.276   1.397
 5771TIP3    H217259   3.125   3.144   1.445
 5772TIP3   OH217260   2.182   5.151   5.456
 5772TIP3    H117261   2.262   5.150   5.403
 5772TIP3    H217262   2.206   5.200   5.535
 5773TIP3   OH217263   6.756   7.097   3.753
 5773TIP3    H117264   6.850   7.096   3.772
 5773TIP3    H217265   6.742   7.181   3.708
 5774TIP3   OH217266   4.575   3.763   5.552
 5774TIP3    H117267   4.591   3.696   5.486
 5774TIP3    H217268   4.483   3.788   5.539
 5775TIP3   OH217269   1.175   7.615   3.605
 5775TIP3    H117270   1.162   7.636   3.512
 5775TIP3    H217271   1.131   7.686   3.652
 5776TIP3   OH217272   7.815   3.734   2.278
 5776TIP3    H117273   7.850   3.771   2.197
 5776TIP3    H217274   7.767   3.806   2.319
 5777TIP3   OH217275   2.248   1.751   0.467
 5777TIP3    H117276   2.162   1.723   0.499
 5777TIP3    H217277   2.282   1.807   0.536
 5778TIP3   OH217278   4.653   4.112   6.086
 5778TIP3    H117279   4.659   4.203   6.058
 5778TIP3    H217280   4.603   4.069   6.016
 5779TIP3   OH217281   1.252   5.670   6.169
 5779TIP3    H117282   1.277   5.704   6.255
 5779TIP3    H217283   1.180   5.726   6.141
 5780TIP3   OH217284   5.867   5.584   2.077
 5780TIP3    H117285   5.785   5.634   2.073
 5780TIP3    H217286   5.934   5.650   2.095
 5781TIP3   OH217287   4.487   2.978   3.229
 5781TIP3    H117288   4.556   2.929   3.185
 5781TIP3    H217289   4.407   2.927   3.212
 5782TIP3   OH217290   7.257   2.081   4.460
 5782TIP3    H117291   7.226   2.067   4.549
 5782TIP3    H217292   7.208   2.157   4.429
 5783TIP3   OH217293   2.141   3.127   1.848
 5783TIP3    H117294   2.145   3.222   1.838
 5783TIP3    H217295   2.051   3.109   1.874
 5784TIP3   OH217296   1.724   0.811   1.324
 5784TIP3    H117297   1.656   0.877   1.310
 5784TIP3    H217298   1.787   0.826   1.253
 5785TIP3   OH217299   3.521   5.957   2.707
 5785TIP3    H117300   3.521   5.896   2.781
 5785TIP3    H217301   3.453   5.925   2.649
 5786TIP3   OH217302   1.112   6.270   5.448
 5786TIP3    H117303   1.177   6.216   5.493
 5786TIP3    H217304   1.145   6.359   5.455
 5787TIP3   OH217305   6.284   5.446   2.229
 5787TIP3    H117306   6.361   5.490   2.264
 5787TIP3    H217307   6.318   5.384   2.165
 5788TIP3   OH217308   6.275   4.187   4.532
 5788TIP3    H117309   6.221   4.265   4.543
 5788TIP3    H217310   6.335   4.188   4.607
 5789TIP3   OH217311   3.471   2.194   0.310
 5789TIP3    H117312   3.410   2.126   0.338
 5789TIP3    H217313   3.550   2.179   0.363
 5790TIP3   OH217314   0.406   5.006   4.433
 5790TIP3    H117315   0.319   5.004   4.472
 5790TIP3    H217316   0.423   5.098   4.413
 5791TIP3   OH217317   3.314   3.504   6.069
 5791TIP3    H117318   3.325   3.581   6.013
 5791TIP3    H217319   3.224   3.475   6.053
 5792TIP3   OH217320   2.178   4.802   3.353
 5792TIP3    H117321   2.252   4.776   3.408
 5792TIP3    H217322   2.110   4.828   3.415
 5793TIP3   OH217323   7.100   0.968   4.637
 5793TIP3    H117324   7.021   1.017   4.661
 5793TIP3    H217325   7.152   0.965   4.717
 5794TIP3   OH217326   7.948   1.856   0.357
 5794TIP3    H117327   7.913   1.776   0.395
 5794TIP3    H217328   7.985   1.904   0.432
 5795TIP3   OH217329   3.547   0.389   0.184
 5795TIP3    H117330   3.642   0.384   0.185
 5795TIP3    H217331   3.522   0.383   0.276
 5796TIP3   OH217332   2.461   1.454   0.858
 5796TIP3    H117333   2.406   1.387   0.816
 5796TIP3    H217334   2.549   1.418   0.856
 5797TIP3   OH217335   2.468   6.932   5.028
 5797TIP3    H117336   2.554   6.890   5.032
 5797TIP3    H217337   2.468   6.994   5.101
 5798TIP3   OH217338   0.428   4.216   1.827
 5798TIP3    H117339   0.344   4.179   1.854
 5798TIP3    H217340   0.405   4.286   1.766
 5799TIP3   OH217341   1.109   2.521   2.805
 5799TIP3    H117342   1.031   2.574   2.789
 5799TIP3    H217343   1.182   2.580   2.789
 5800TIP3   OH217344   4.260   4.274   4.778
 5800TIP3    H117345   4.189   4.224   4.736
 5800TIP3    H217346   4.295   4.329   4.709
 5801TIP3   OH217347   0.061   5.707   4.594
 5801TIP3    H117348   0.025   5.795   4.603
 5801TIP3    H217349  -0.006   5.649   4.630
 5802TIP3   OH217350   5.088   6.946   1.749
 5802TIP3    H117351   5.166   6.907   1.709
 5802TIP3    H217352   5.068   7.021   1.693
 5803TIP3   OH217353   0.632   1.245   6.432
 5803TIP3    H117354   0.538   1.229   6.426
 5803TIP3    H217355   0.663   1.181   6.496
 5804TIP3   OH217356   3.715   3.678   3.084
 5804TIP3    H117357   3.670   3.606   3.130
 5804TIP3    H217358   3.691   3.756   3.134
 5805TIP3   OH217359   1.886   1.280   2.985
 5805TIP3    H117360   1.858   1.237   3.066
 5805TIP3    H217361   1.907   1.209   2.925
 5806TIP3   OH217362   4.194   3.616   2.199
 5806TIP3    H117363   4.229   3.577   2.279
 5806TIP3    H217364   4.133   3.550   2.165
 5807TIP3   OH217365   4.698   2.148   1.639
 5807TIP3    H117366   4.706   2.061   1.676
 5807TIP3    H217367   4.764   2.151   1.570
 5808TIP3   OH217368   2.139   6.621   3.292
 5808TIP3    H117369   2.086   6.631   3.371
 5808TIP3    H217370   2.123   6.530   3.265
 5809TIP3   OH217371   0.886   1.689   4.401
 5809TIP3    H117372   0.832   1.613   4.381
 5809TIP3    H217373   0.871   1.705   4.495
 5810TIP3   OH217374   5.199   5.910   2.625
 5810TIP3    H117375   5.116   5.933   2.585
 5810TIP3    H217376   5.262   5.910   2.552
 5811TIP3   OH217377   2.830   5.155   6.783
 5811TIP3    H117378   2.742   5.118   6.773
 5811TIP3    H217379   2.837   5.221   6.714
 5812TIP3   OH217380   0.461   1.397   2.414
 5812TIP3    H117381   0.517   1.336   2.366
 5812TIP3    H217382   0.456   1.474   2.358
 5813TIP3   OH217383   2.814   2.299   4.632
 5813TIP3    H117384   2.891   2.307   4.576
 5813TIP3    H217385   2.842   2.241   4.703
 5814TIP3   OH217386   1.504   7.123   0.254
 5814TIP3    H117387   1.574   7.085   0.201
 5814TIP3    H217388   1.423   7.090   0.214
 5815TIP3   OH217389   5.797   5.248   5.066
 5815TIP3    H117390   5.824   5.163   5.101
 5815TIP3    H217391   5.703   5.240   5.052
 5816TIP3   OH217392   1.051   5.855   6.080
 5816TIP3    H117393   1.010   5.910   6.012
 5816TIP3    H217394   0.976   5.818   6.127
 5817TIP3   OH217395   7.070   2.045   6.406
 5817TIP3    H117396   6.983   2.024   6.372
 5817TIP3    H217397   7.116   2.083   6.332
 5818TIP3   OH217398   5.847   1.724   5.749
 5818TIP3    H117399   5.912   1.695   5.813
 5818TIP3    H217400   5.863   1.817   5.738
 5819TIP3   OH217401   4.747   6.584   0.685
 5819TIP3    H117402   4.747   6.675   0.714
 5819TIP3    H217403   4.833   6.573   0.644
 5820TIP3   OH217404   8.234   7.683   2.942
 5820TIP3    H117405   8.146   7.668   2.907
 5820TIP3    H217406   8.282   7.603   2.923
 5821TIP3   OH217407   3.387   3.251   0.668
 5821TIP3    H117408   3.459   3.212   0.617
 5821TIP3    H217409   3.365   3.331   0.620
 5822TIP3   OH217410   6.968   5.826   6.632
 5822TIP3    H117411   6.974   5.826   6.537
 5822TIP3    H217412   7.006   5.909   6.659
 5823TIP3   OH217413   2.958   1.422   5.940
 5823TIP3    H117414   2.903   1.403   5.864
 5823TIP3    H217415   2.935   1.512   5.965
 5824TIP3   OH217416   5.745   5.001   0.781
 5824TIP3    H117417   5.832   4.991   0.742
 5824TIP3    H217418   5.708   5.077   0.737
 5825TIP3   OH217419   3.653   1.222   1.642
 5825TIP3    H117420   3.596   1.254   1.573
 5825TIP3    H217421   3.607   1.147   1.679
 5826TIP3   OH217422   3.318   4.138   3.404
 5826TIP3    H117423   3.311   4.233   3.406
 5826TIP3    H217424   3.412   4.120   3.405
 5827TIP3   OH217425   8.120   4.979   2.191
 5827TIP3    H117426   8.184   5.029   2.241
 5827TIP3    H217427   8.172   4.909   2.149
 5828TIP3   OH217428   1.275   1.776   1.389
 5828TIP3    H117429   1.347   1.822   1.345
 5828TIP3    H217430   1.289   1.795   1.482
 5829TIP3   OH217431   2.839   5.754   0.863
 5829TIP3    H117432   2.820   5.665   0.833
 5829TIP3    H217433   2.814   5.754   0.955
 5830TIP3   OH217434   1.001   0.429   0.810
 5830TIP3    H117435   1.086   0.470   0.795
 5830TIP3    H217436   1.021   0.347   0.855
 5831TIP3   OH217437   0.983   1.863   2.476
 5831TIP3    H117438   1.024   1.820   2.551
 5831TIP3    H217439   0.971   1.793   2.412
 5832TIP3   OH217440   4.175   6.145   1.386
 5832TIP3    H117441   4.241   6.106   1.329
 5832TIP3    H217442   4.125   6.071   1.420
 5833TIP3   OH217443   2.255   1.151   5.080
 5833TIP3    H117444   2.196   1.218   5.115
 5833TIP3    H217445   2.197   1.089   5.036
 5834TIP3   OH217446   7.700   4.824   3.696
 5834TIP3    H117447   7.788   4.858   3.683
 5834TIP3    H217448   7.643   4.887   3.652
 5835TIP3   OH217449   3.473   2.540   4.925
 5835TIP3    H117450   3.409   2.593   4.878
 5835TIP3    H217451   3.445   2.450   4.910
 5836TIP3   OH217452   6.069   1.432   5.333
 5836TIP3    H117453   6.066   1.525   5.308
 5836TIP3    H217454   6.022   1.428   5.416
 5837TIP3   OH217455   4.815   3.875   4.819
 5837TIP3    H117456   4.843   3.897   4.730
 5837TIP3    H217457   4.810   3.780   4.820
 5838TIP3   OH217458   5.082   1.705   1.482
 5838TIP3    H117459   5.168   1.663   1.490
 5838TIP3    H217460   5.035   1.649   1.420
 5839TIP3   OH217461   5.607   7.712   4.893
 5839TIP3    H117462   5.532   7.722   4.952
 5839TIP3    H217463   5.662   7.647   4.937
 5840TIP3   OH217464   6.514   5.800   5.086
 5840TIP3    H117465   6.426   5.837   5.084
 5840TIP3    H217466   6.564   5.861   5.140
 5841TIP3   OH217467   4.068   3.360   1.810
 5841TIP3    H117468   4.068   3.276   1.765
 5841TIP3    H217469   4.003   3.350   1.879
 5842TIP3   OH217470   7.058   5.588   6.714
 5842TIP3    H117471   7.027   5.677   6.698
 5842TIP3    H217472   7.048   5.576   6.808
 5843TIP3   OH217473   5.992   4.923   4.383
 5843TIP3    H117474   5.928   4.991   4.361
 5843TIP3    H217475   5.990   4.863   4.309
 5844TIP3   OH217476   0.691   0.994   5.937
 5844TIP3    H117477   0.721   1.061   5.876
 5844TIP3    H217478   0.729   0.912   5.902
 5845TIP3   OH217479   0.389   5.127   2.431
 5845TIP3    H117480   0.355   5.043   2.461
 5845TIP3    H217481   0.465   5.104   2.377
 5846TIP3   OH217482   5.041   4.242   4.577
 5846TIP3    H117483   4.971   4.287   4.624
 5846TIP3    H217484   5.056   4.295   4.499
 5847TIP3   OH217485   6.543   5.979   1.432
 5847TIP3    H117486   6.473   5.994   1.368
 5847TIP3    H217487   6.551   5.884   1.437
 5848TIP3   OH217488   4.405   0.093   2.104
 5848TIP3    H117489   4.416   0.034   2.029
 5848TIP3    H217490   4.312   0.088   2.124
 5849TIP3   OH217491   6.162   0.988   3.942
 5849TIP3    H117492   6.222   1.047   3.988
 5849TIP3    H217493   6.085   1.042   3.923
 5850TIP3   OH217494   2.863   5.519   2.936
 5850TIP3    H117495   2.944   5.470   2.928
 5850TIP3    H217496   2.852   5.561   2.851
 5851TIP3   OH217497   7.167   4.322   5.325
 5851TIP3    H117498   7.223   4.257   5.283
 5851TIP3    H217499   7.183   4.403   5.277
 5852TIP3   OH217500   7.281   5.623   5.968
 5852TIP3    H117501   7.244   5.536   5.948
 5852TIP3    H217502   7.222   5.659   6.034
 5853TIP3   OH217503   3.766   4.772   3.089
 5853TIP3    H117504   3.725   4.701   3.040
 5853TIP3    H217505   3.801   4.730   3.168
 5854TIP3   OH217506   5.375   5.620   0.350
 5854TIP3    H117507   5.293   5.628   0.302
 5854TIP3    H217508   5.436   5.676   0.303
 5855TIP3   OH217509   4.696   3.236   5.680
 5855TIP3    H117510   4.754   3.247   5.605
 5855TIP3    H217511   4.614   3.205   5.643
 5856TIP3   OH217512   1.874   3.451   5.893
 5856TIP3    H117513   1.955   3.402   5.881
 5856TIP3    H217514   1.871   3.511   5.819
 5857TIP3   OH217515   3.221   5.438   2.851
 5857TIP3    H117516   3.314   5.425   2.868
 5857TIP3    H217517   3.186   5.470   2.935
 5858TIP3   OH217518   3.546   4.369   2.038
 5858TIP3    H117519   3.456   4.351   2.010
 5858TIP3    H217520   3.538   4.435   2.106
 5859TIP3   OH217521   3.433   6.288   5.670
 5859TIP3    H117522   3.527   6.284   5.688
 5859TIP3    H217523   3.411   6.381   5.677
 5860TIP3   OH217524   1.426   6.229   0.408
 5860TIP3    H117525   1.401   6.193   0.494
 5860TIP3    H217526   1.397   6.163   0.345
 5861TIP3   OH217527   5.945   5.545   2.963
 5861TIP3    H117528   5.880   5.484   2.997
 5861TIP3    H217529   5.896   5.602   2.903
 5862TIP3   OH217530   6.940   1.217   0.757
 5862TIP3    H117531   6.918   1.200   0.666
 5862TIP3    H217532   6.914   1.308   0.772
 5863TIP3   OH217533   2.270   5.213   3.815
 5863TIP3    H117534   2.242   5.263   3.739
 5863TIP3    H217535   2.355   5.249   3.839
 5864TIP3   OH217536   2.420   7.465   0.575
 5864TIP3    H117537   2.325   7.455   0.564
 5864TIP3    H217538   2.437   7.555   0.548
 5865TIP3   OH217539   3.684   3.195   6.579
 5865TIP3    H117540   3.728   3.174   6.496
 5865TIP3    H217541   3.720   3.132   6.641
 5866TIP3   OH217542   5.891   7.314   1.153
 5866TIP3    H117543   5.889   7.294   1.059
 5866TIP3    H217544   5.964   7.375   1.164
 5867TIP3   OH217545   0.216   1.881   5.537
 5867TIP3    H117546   0.138   1.834   5.567
 5867TIP3    H217547   0.261   1.818   5.481
 5868TIP3   OH217548   4.233   0.670   3.524
 5868TIP3    H117549   4.274   0.680   3.610
 5868TIP3    H217550   4.162   0.607   3.539
 5869TIP3   OH217551   2.494   5.009   3.468
 5869TIP3    H117552   2.406   5.014   3.504
 5869TIP3    H217553   2.544   4.961   3.534
 5870TIP3   OH217554   0.340   2.832   5.724
 5870TIP3    H117555   0.419   2.821   5.776
 5870TIP3    H217556   0.274   2.864   5.786
 5871TIP3   OH217557   5.338   0.492   3.635
 5871TIP3    H117558   5.357   0.580   3.669
 5871TIP3    H217559   5.423   0.448   3.633
 5872TIP3   OH217560   2.935   6.460   3.592
 5872TIP3    H117561   3.001   6.392   3.580
 5872TIP3    H217562   2.853   6.419   3.566
 5873TIP3   OH217563   3.442   2.928   3.536
 5873TIP3    H117564   3.498   2.997   3.572
 5873TIP3    H217565   3.383   2.905   3.609
 5874TIP3   OH217566   8.104   0.919   1.590
 5874TIP3    H117567   8.140   0.905   1.678
 5874TIP3    H217568   8.112   1.013   1.576
 5875TIP3   OH217569   0.626   7.818   5.127
 5875TIP3    H117570   0.702   7.865   5.094
 5875TIP3    H217571   0.625   7.735   5.079
 5876TIP3   OH217572   2.066   5.554   2.474
 5876TIP3    H117573   2.148   5.549   2.523
 5876TIP3    H217574   2.022   5.631   2.510
 5877TIP3   OH217575   6.293   2.171   5.050
 5877TIP3    H117576   6.238   2.246   5.073
 5877TIP3    H217577   6.258   2.099   5.102
 5878TIP3   OH217578   7.390   2.783   0.535
 5878TIP3    H117579   7.391   2.691   0.564
 5878TIP3    H217580   7.468   2.821   0.576
 5879TIP3   OH217581   3.040   3.077   0.097
 5879TIP3    H117582   3.078   3.097   0.183
 5879TIP3    H217583   3.075   3.145   0.040
 5880TIP3   OH217584   0.750   0.483   0.680
 5880TIP3    H117585   0.840   0.458   0.704
 5880TIP3    H217586   0.732   0.561   0.733
 5881TIP3   OH217587   3.805   2.999   0.551
 5881TIP3    H117588   3.753   2.918   0.545
 5881TIP3    H217589   3.888   2.977   0.508
 5882TIP3   OH217590   0.607   2.050   3.344
 5882TIP3    H117591   0.671   2.011   3.285
 5882TIP3    H217592   0.660   2.093   3.411
 5883TIP3   OH217593   4.536   5.896   2.518
 5883TIP3    H117594   4.479   5.943   2.578
 5883TIP3    H217595   4.577   5.828   2.572
 5884TIP3   OH217596   4.664   3.453   2.233
 5884TIP3    H117597   4.617   3.520   2.184
 5884TIP3    H217598   4.745   3.440   2.184
 5885TIP3   OH217599   7.219   0.562   4.526
 5885TIP3    H117600   7.305   0.531   4.497
 5885TIP3    H217601   7.219   0.656   4.506
 5886TIP3   OH217602   7.788   1.187   6.258
 5886TIP3    H117603   7.864   1.232   6.220
 5886TIP3    H217604   7.824   1.104   6.291
 5887TIP3   OH217605   7.411   2.821   2.782
 5887TIP3    H117606   7.396   2.898   2.838
 5887TIP3    H217607   7.335   2.820   2.723
 5888TIP3   OH217608   6.121   2.246   5.564
 5888TIP3    H117609   6.048   2.220   5.507
 5888TIP3    H217610   6.133   2.339   5.547
 5889TIP3   OH217611   2.329   3.362   3.168
 5889TIP3    H117612   2.397   3.425   3.190
 5889TIP3    H217613   2.346   3.287   3.226
 5890TIP3   OH217614   5.101   0.387   4.974
 5890TIP3    H117615   5.112   0.308   5.027
 5890TIP3    H217616   5.169   0.379   4.906
 5891TIP3   OH217617   2.156   4.347   5.725
 5891TIP3    H117618   2.176   4.381   5.812
 5891TIP3    H217619   2.096   4.411   5.687
 5892TIP3   OH217620   0.135   2.058   0.083
 5892TIP3    H117621   0.095   2.134   0.042
 5892TIP3    H217622   0.065   2.019   0.135
 5893TIP3   OH217623   0.459   2.125   0.956
 5893TIP3    H117624   0.389   2.183   0.987
 5893TIP3    H217625   0.459   2.136   0.861
 5894TIP3   OH217626   6.545   7.250   0.450
 5894TIP3    H117627   6.581   7.320   0.505
 5894TIP3    H217628   6.497   7.296   0.381
 5895TIP3   OH217629   1.191   7.457   0.708
 5895TIP3    H117630   1.207   7.500   0.624
 5895TIP3    H217631   1.279   7.439   0.741
 5896TIP3   OH217632   6.651   6.964   5.501
 5896TIP3    H117633   6.651   6.939   5.409
 5896TIP3    H217634   6.580   6.912   5.540
 5897TIP3   OH217635   7.918   6.229   1.570
 5897TIP3    H117636   7.978   6.242   1.643
 5897TIP3    H217637   7.963   6.167   1.513
 5898TIP3   OH217638   0.709   2.566   4.645
 5898TIP3    H117639   0.641   2.524   4.698
 5898TIP3    H217640   0.718   2.653   4.683
 5899TIP3   OH217641   1.919   5.682   6.207
 5899TIP3    H117642   1.951   5.677   6.297
 5899TIP3    H217643   1.826   5.699   6.215
 5900TIP3   OH217644   6.990   3.423   0.386
 5900TIP3    H117645   7.004   3.500   0.331
 5900TIP3    H217646   6.900   3.396   0.367
 5901TIP3   OH217647   1.240   0.465   0.283
 5901TIP3    H117648   1.330   0.499   0.276
 5901TIP3    H217649   1.251   0.372   0.299
 5902TIP3   OH217650   7.518   2.624   3.914
 5902TIP3    H117651   7.547   2.552   3.858
 5902TIP3    H217652   7.552   2.702   3.871
 5903TIP3   OH217653   6.509   4.702   6.305
 5903TIP3    H117654   6.508   4.608   6.324
 5903TIP3    H217655   6.556   4.741   6.379
 5904TIP3   OH217656   7.532   2.893   3.204
 5904TIP3    H117657   7.498   2.949   3.274
 5904TIP3    H217658   7.511   2.804   3.231
 5905TIP3   OH217659   0.317   0.853   4.990
 5905TIP3    H117660   0.365   0.802   5.054
 5905TIP3    H217661   0.294   0.934   5.035
 5906TIP3   OH217662   3.412   1.835   1.366
 5906TIP3    H117663   3.330   1.796   1.395
 5906TIP3    H217664   3.479   1.792   1.418
 5907TIP3   OH217665   3.149   1.138   3.458
 5907TIP3    H117666   3.217   1.200   3.431
 5907TIP3    H217667   3.182   1.100   3.539
 5908TIP3   OH217668   4.064   1.455   3.905
 5908TIP3    H117669   3.988   1.419   3.951
 5908TIP3    H217670   4.032   1.538   3.868
 5909TIP3   OH217671   4.909   1.634   2.467
 5909TIP3    H117672   4.955   1.708   2.427
 5909TIP3    H217673   4.872   1.586   2.393
 5910TIP3   OH217674   3.733   3.258   3.034
 5910TIP3    H117675   3.710   3.339   3.078
 5910TIP3    H217676   3.740   3.193   3.104
 5911TIP3   OH217677   8.193   4.493   4.498
 5911TIP3    H117678   8.097   4.493   4.507
 5911TIP3    H217679   8.209   4.452   4.413
 5912TIP3   OH217680   6.611   4.097   3.387
 5912TIP3    H117681   6.608   4.009   3.348
 5912TIP3    H217682   6.545   4.147   3.339
 5913TIP3   OH217683   5.001   6.115   4.821
 5913TIP3    H117684   5.083   6.163   4.808
 5913TIP3    H217685   5.000   6.092   4.914
 5914TIP3   OH217686   7.164   4.441   0.583
 5914TIP3    H117687   7.075   4.409   0.573
 5914TIP3    H217688   7.164   4.484   0.668
 5915TIP3   OH217689   2.550   6.635   5.173
 5915TIP3    H117690   2.634   6.646   5.217
 5915TIP3    H217691   2.573   6.621   5.081
 5916TIP3   OH217692   1.814   6.423   3.411
 5916TIP3    H117693   1.842   6.355   3.350
 5916TIP3    H217694   1.878   6.421   3.482
 5917TIP3   OH217695   1.441   3.165   2.749
 5917TIP3    H117696   1.492   3.236   2.710
 5917TIP3    H217697   1.352   3.198   2.752
 5918TIP3   OH217698   7.503   3.225   1.212
 5918TIP3    H117699   7.468   3.145   1.172
 5918TIP3    H217700   7.522   3.283   1.138
 5919TIP3   OH217701   4.410   0.498   6.209
 5919TIP3    H117702   4.476   0.567   6.204
 5919TIP3    H217703   4.446   0.435   6.272
 5920TIP3   OH217704   5.778   3.061   1.960
 5920TIP3    H117705   5.843   3.090   1.896
 5920TIP3    H217706   5.830   3.018   2.029
 5921TIP3   OH217707   6.137   6.059   3.581
 5921TIP3    H117708   6.087   6.134   3.550
 5921TIP3    H217709   6.087   6.024   3.654
 5922TIP3   OH217710   2.193   1.298   2.097
 5922TIP3    H117711   2.244   1.235   2.147
 5922TIP3    H217712   2.128   1.331   2.159
 5923TIP3   OH217713   7.566   2.765   3.676
 5923TIP3    H117714   7.605   2.826   3.613
 5923TIP3    H217715   7.567   2.681   3.630
 5924TIP3   OH217716   8.146   2.180   4.174
 5924TIP3    H117717   8.116   2.092   4.151
 5924TIP3    H217718   8.162   2.222   4.090
 5925TIP3   OH217719   1.897   7.015   4.049
 5925TIP3    H117720   1.954   7.047   3.979
 5925TIP3    H217721   1.923   6.924   4.063
 5926TIP3   OH217722   3.229   5.971   6.549
 5926TIP3    H117723   3.287   6.027   6.600
 5926TIP3    H217724   3.154   6.026   6.527
 5927TIP3   OH217725   4.939   2.075   4.734
 5927TIP3    H117726   4.964   2.033   4.817
 5927TIP3    H217727   4.902   2.159   4.760
 5928TIP3   OH217728   8.263   7.798   0.364
 5928TIP3    H117729   8.335   7.750   0.322
 5928TIP3    H217730   8.234   7.861   0.297
 5929TIP3   OH217731   2.869   1.472   4.804
 5929TIP3    H117732   2.918   1.394   4.829
 5929TIP3    H217733   2.934   1.530   4.764
 5930TIP3   OH217734   4.578   6.412   5.434
 5930TIP3    H117735   4.553   6.373   5.350
 5930TIP3    H217736   4.674   6.411   5.434
 5931TIP3   OH217737   4.397   1.295   3.954
 5931TIP3    H117738   4.488   1.283   3.981
 5931TIP3    H217739   4.381   1.226   3.890
 5932TIP3   OH217740   4.726   6.953   3.266
 5932TIP3    H117741   4.648   7.007   3.253
 5932TIP3    H217742   4.701   6.867   3.233
 5933TIP3   OH217743   8.284   3.349   2.885
 5933TIP3    H117744   8.341   3.425   2.874
 5933TIP3    H217745   8.225   3.373   2.956
 5934TIP3   OH217746   2.665   2.239   6.532
 5934TIP3    H117747   2.689   2.190   6.454
 5934TIP3    H217748   2.717   2.319   6.529
 5935TIP3   OH217749   4.410   0.153   1.214
 5935TIP3    H117750   4.387   0.176   1.304
 5935TIP3    H217751   4.345   0.088   1.188
 5936TIP3   OH217752   2.648   1.047   2.890
 5936TIP3    H117753   2.742   1.033   2.875
 5936TIP3    H217754   2.632   1.136   2.859
 5937TIP3   OH217755   2.162   5.034   5.956
 5937TIP3    H117756   2.093   5.093   5.926
 5937TIP3    H217757   2.225   5.031   5.884
 5938TIP3   OH217758   0.651   4.892   1.220
 5938TIP3    H117759   0.611   4.875   1.305
 5938TIP3    H217760   0.580   4.879   1.157
 5939TIP3   OH217761   5.780   4.145   2.579
 5939TIP3    H117762   5.821   4.163   2.494
 5939TIP3    H217763   5.691   4.118   2.558
 5940TIP3   OH217764   1.911   4.038   3.211
 5940TIP3    H117765   1.925   3.957   3.260
 5940TIP3    H217766   1.842   4.016   3.149
 5941TIP3   OH217767   4.721   0.179   0.629
 5941TIP3    H117768   4.724   0.225   0.713
 5941TIP3    H217769   4.706   0.087   0.652
 5942TIP3   OH217770   5.535   0.190   1.200
 5942TIP3    H117771   5.606   0.135   1.168
 5942TIP3    H217772   5.564   0.279   1.182
 5943TIP3   OH217773   3.016   2.784   4.897
 5943TIP3    H117774   3.093   2.840   4.892
 5943TIP3    H217775   3.008   2.765   4.991
 5944TIP3   OH217776   0.138   4.815   1.015
 5944TIP3    H117777   0.134   4.858   1.101
 5944TIP3    H217778   0.189   4.875   0.961
 5945TIP3   OH217779   7.184   5.874   1.780
 5945TIP3    H117780   7.098   5.841   1.754
 5945TIP3    H217781   7.238   5.795   1.787
 5946TIP3   OH217782   3.002   5.146   6.230
 5946TIP3    H117783   2.967   5.215   6.286
 5946TIP3    H217784   3.030   5.077   6.291
 5947TIP3   OH217785   5.335   4.582   4.340
 5947TIP3    H117786   5.337   4.529   4.260
 5947TIP3    H217787   5.274   4.537   4.398
 5948TIP3   OH217788   5.089   7.660   3.453
 5948TIP3    H117789   5.173   7.618   3.468
 5948TIP3    H217790   5.105   7.721   3.381
 5949TIP3   OH217791   4.329   6.686   3.918
 5949TIP3    H117792   4.381   6.630   3.976
 5949TIP3    H217793   4.311   6.631   3.842
 5950TIP3   OH217794   7.156   3.429   4.074
 5950TIP3    H117795   7.071   3.469   4.087
 5950TIP3    H217796   7.144   3.367   4.003
 5951TIP3   OH217797   6.277   3.574   0.213
 5951TIP3    H117798   6.322   3.495   0.242
 5951TIP3    H217799   6.321   3.645   0.261
 5952TIP3   OH217800   6.251   7.600   2.842
 5952TIP3    H117801   6.211   7.664   2.900
 5952TIP3    H217802   6.287   7.652   2.770
 5953TIP3   OH217803   6.146   2.793   2.831
 5953TIP3    H117804   6.241   2.782   2.833
 5953TIP3    H217805   6.129   2.833   2.746
 5954TIP3   OH217806   5.165   3.073   3.157
 5954TIP3    H117807   5.253   3.061   3.195
 5954TIP3    H217808   5.163   3.165   3.131
 5955TIP3   OH217809   6.652   0.759   1.633
 5955TIP3    H117810   6.592   0.706   1.686
 5955TIP3    H217811   6.654   0.844   1.677
 5956TIP3   OH217812   1.506   3.040   6.124
 5956TIP3    H117813   1.455   2.965   6.093
 5956TIP3    H217814   1.597   3.010   6.120
 5957TIP3   OH217815   6.817   4.722   5.638
 5957TIP3    H117816   6.726   4.744   5.658
 5957TIP3    H217817   6.847   4.794   5.582
 5958TIP3   OH217818   7.594   7.362   1.682
 5958TIP3    H117819   7.638   7.441   1.653
 5958TIP3    H217820   7.616   7.354   1.775
 5959TIP3   OH217821   1.393   3.553   4.966
 5959TIP3    H117822   1.325   3.619   4.981
 5959TIP3    H217823   1.350   3.470   4.985
 5960TIP3   OH217824   5.991   1.199   1.599
 5960TIP3    H117825   6.020   1.209   1.508
 5960TIP3    H217826   5.913   1.143   1.593
 5961TIP3   OH217827   3.292   5.649   3.431
 5961TIP3    H117828   3.293   5.730   3.379
 5961TIP3    H217829   3.347   5.669   3.507
 5962TIP3   OH217830   5.634   1.685   3.215
 5962TIP3    H117831   5.716   1.729   3.236
 5962TIP3    H217832   5.571   1.720   3.277
 5963TIP3   OH217833   0.116   0.335   4.215
 5963TIP3    H117834   0.107   0.342   4.120
 5963TIP3    H217835   0.031   0.364   4.250
 5964TIP3   OH217836   0.079   7.764   6.308
 5964TIP3    H117837   0.007   7.700   6.303
 5964TIP3    H217838   0.040   7.846   6.279
 5965TIP3   OH217839   1.334   6.119   5.535
 5965TIP3    H117840   1.408   6.058   5.538
 5965TIP3    H217841   1.323   6.149   5.625
 5966TIP3   OH217842   7.437   4.631   2.505
 5966TIP3    H117843   7.530   4.635   2.531
 5966TIP3    H217844   7.439   4.615   2.411
 5967TIP3   OH217845   2.536   4.435   4.749
 5967TIP3    H117846   2.562   4.483   4.827
 5967TIP3    H217847   2.440   4.442   4.747
 5968TIP3   OH217848   4.225   4.578   2.212
 5968TIP3    H117849   4.211   4.647   2.147
 5968TIP3    H217850   4.179   4.502   2.176
 5969TIP3   OH217851   3.725   4.367   3.936
 5969TIP3    H117852   3.697   4.279   3.960
 5969TIP3    H217853   3.806   4.354   3.887
 5970TIP3   OH217854   5.588   2.136   1.137
 5970TIP3    H117855   5.556   2.063   1.189
 5970TIP3    H217856   5.570   2.111   1.046
 5971TIP3   OH217857   4.029   7.256   2.404
 5971TIP3    H117858   4.054   7.340   2.364
 5971TIP3    H217859   3.978   7.211   2.336
 5972TIP3   OH217860   5.886   6.918   1.064
 5972TIP3    H117861   5.879   6.935   1.158
 5972TIP3    H217862   5.915   7.002   1.027
 5973TIP3   OH217863   2.988   4.680   6.367
 5973TIP3    H117864   3.000   4.588   6.388
 5973TIP3    H217865   2.984   4.724   6.452
 5974TIP3   OH217866   0.274   5.643   3.270
 5974TIP3    H117867   0.367   5.620   3.277
 5974TIP3    H217868   0.268   5.691   3.188
 5975TIP3   OH217869   6.106   2.683   3.265
 5975TIP3    H117870   6.165   2.668   3.339
 5975TIP3    H217871   6.027   2.720   3.303
 5976TIP3   OH217872   0.955   4.461   5.774
 5976TIP3    H117873   0.961   4.478   5.868
 5976TIP3    H217874   1.004   4.533   5.733
 5977TIP3   OH217875   0.086   2.900   3.426
 5977TIP3    H117876  -0.004   2.892   3.457
 5977TIP3    H217877   0.078   2.931   3.336
 5978TIP3   OH217878   5.262   0.727   6.016
 5978TIP3    H117879   5.261   0.781   6.095
 5978TIP3    H217880   5.192   0.761   5.961
 5979TIP3   OH217881   7.909   0.023   4.476
 5979TIP3    H117882   7.985  -0.016   4.519
 5979TIP3    H217883   7.915   0.116   4.497
 5980TIP3   OH217884   0.352   0.071   4.476
 5980TIP3    H117885   0.289   0.055   4.547
 5980TIP3    H217886   0.435   0.036   4.510
 5981TIP3   OH217887   0.731   6.295   1.001
 5981TIP3    H117888   0.823   6.279   0.979
 5981TIP3    H217889   0.726   6.281   1.095
 5982TIP3   OH217890   3.534   0.741   6.196
 5982TIP3    H117891   3.511   0.791   6.274
 5982TIP3    H217892   3.548   0.652   6.227
 5983TIP3   OH217893   0.129   2.746   0.522
 5983TIP3    H117894   0.055   2.807   0.523
 5983TIP3    H217895   0.165   2.751   0.611
 5984TIP3   OH217896   3.712   1.058   4.069
 5984TIP3    H117897   3.683   0.969   4.086
 5984TIP3    H217898   3.632   1.106   4.046
 5985TIP3   OH217899   0.423   2.755   5.350
 5985TIP3    H117900   0.388   2.701   5.279
 5985TIP3    H217901   0.351   2.763   5.412
 5986TIP3   OH217902   8.163   0.257   2.168
 5986TIP3    H117903   8.183   0.190   2.102
 5986TIP3    H217904   8.152   0.338   2.118
 5987TIP3   OH217905   5.885   5.419   0.951
 5987TIP3    H117906   5.845   5.376   1.026
 5987TIP3    H217907   5.970   5.377   0.942
 5988TIP3   OH217908   7.752   7.176   1.530
 5988TIP3    H117909   7.721   7.087   1.513
 5988TIP3    H217910   7.680   7.218   1.577
 5989TIP3   OH217911   3.311   2.955   5.211
 5989TIP3    H117912   3.377   3.016   5.179
 5989TIP3    H217913   3.231   3.008   5.218
 5990TIP3   OH217914   3.790   6.032   1.785
 5990TIP3    H117915   3.864   6.004   1.840
 5990TIP3    H217916   3.817   6.116   1.750
 5991TIP3   OH217917   1.258   0.427   4.125
 5991TIP3    H117918   1.187   0.490   4.134
 5991TIP3    H217919   1.225   0.363   4.062
 5992TIP3   OH217920   2.939   6.680   4.918
 5992TIP3    H117921   2.845   6.686   4.932
 5992TIP3    H217922   2.959   6.587   4.925
 5993TIP3   OH217923   0.807   1.858   2.818
 5993TIP3    H117924   0.878   1.922   2.815
 5993TIP3    H217925   0.850   1.776   2.842
 5994TIP3   OH217926   5.267   7.519   6.527
 5994TIP3    H117927   5.265   7.425   6.505
 5994TIP3    H217928   5.348   7.529   6.577
 5995TIP3   OH217929   1.317   0.183   2.652
 5995TIP3    H117930   1.319   0.088   2.667
 5995TIP3    H217931   1.394   0.200   2.597
 5996TIP3   OH217932   7.118   3.199   0.455
 5996TIP3    H117933   7.038   3.165   0.496
 5996TIP3    H217934   7.092   3.283   0.417
 5997TIP3   OH217935   7.657   6.035   5.590
 5997TIP3    H117936   7.703   5.960   5.625
 5997TIP3    H217937   7.713   6.110   5.611
 5998TIP3   OH217938   2.972   5.704   0.494
 5998TIP3    H117939   3.066   5.710   0.474
 5998TIP3    H217940   2.939   5.640   0.431
 5999TIP3   OH217941   7.822   7.382   2.498
 5999TIP3    H117942   7.880   7.457   2.511
 5999TIP3    H217943   7.868   7.327   2.435
 6000TIP3   OH217944   3.983   1.185   0.852
 6000TIP3    H117945   4.071   1.197   0.818
 6000TIP3    H217946   3.928   1.242   0.798
 6001TIP3   OH217947   6.157   3.934   4.009
 6001TIP3    H117948   6.141   3.909   3.918
 6001TIP3    H217949   6.238   3.984   4.006
 6002TIP3   OH217950   5.111   1.558   2.140
 6002TIP3    H117951   5.150   1.498   2.203
 6002TIP3    H217952   5.017   1.549   2.154
 6003TIP3   OH217953   0.630   7.258   1.621
 6003TIP3    H117954   0.640   7.286   1.530
 6003TIP3    H217955   0.576   7.179   1.616
 6004TIP3   OH217956   8.098   5.316   0.345
 6004TIP3    H117957   8.124   5.275   0.428
 6004TIP3    H217958   8.002   5.307   0.344
 6005TIP3   OH217959   0.069   6.393   6.486
 6005TIP3    H117960   0.163   6.373   6.480
 6005TIP3    H217961   0.049   6.391   6.579
 6006TIP3   OH217962   3.515   1.726   6.246
 6006TIP3    H117963   3.477   1.664   6.184
 6006TIP3    H217964   3.556   1.793   6.191
 6007TIP3   OH217965   1.050   7.220   1.718
 6007TIP3    H117966   1.014   7.137   1.750
 6007TIP3    H217967   1.145   7.211   1.732
 6008TIP3   OH217968   1.443   5.767   0.203
 6008TIP3    H117969   1.516   5.731   0.254
 6008TIP3    H217970   1.468   5.857   0.185
 6009TIP3   OH217971   7.045   3.816   5.356
 6009TIP3    H117972   7.068   3.731   5.317
 6009TIP3    H217973   6.950   3.813   5.366
 6010TIP3   OH217974   3.550   4.126   4.921
 6010TIP3    H117975   3.584   4.210   4.953
 6010TIP3    H217976   3.612   4.061   4.954
 6011TIP3   OH217977   0.983   0.141   2.153
 6011TIP3    H117978   0.968   0.061   2.204
 6011TIP3    H217979   0.920   0.203   2.187
 6012TIP3   OH217980   6.214   6.149   3.944
 6012TIP3    H117981   6.222   6.054   3.949
 6012TIP3    H217982   6.300   6.178   3.914
 6013TIP3   OH217983   3.975   6.562   2.308
 6013TIP3    H117984   3.919   6.613   2.250
 6013TIP3    H217985   3.991   6.480   2.261
 6014TIP3   OH217986   7.714   5.204   2.272
 6014TIP3    H117987   7.794   5.157   2.293
 6014TIP3    H217988   7.744   5.284   2.229
 6015TIP3   OH217989   2.412   3.485   1.769
 6015TIP3    H117990   2.363   3.436   1.835
 6015TIP3    H217991   2.497   3.501   1.810
 6016TIP3   OH217992   3.322   0.729   1.878
 6016TIP3    H117993   3.265   0.712   1.802
 6016TIP3    H217994   3.397   0.671   1.865
 6017TIP3   OH217995   0.715   6.455   1.576
 6017TIP3    H117996   0.699   6.382   1.636
 6017TIP3    H217997   0.804   6.442   1.545
 6018TIP3   OH217998   1.094   2.341   6.720
 6018TIP3    H117999   1.138   2.256   6.724
 6018TIP3    H218000   1.159   2.403   6.751
 6019TIP3   OH218001   0.389   5.509   3.669
 6019TIP3    H118002   0.311   5.502   3.614
 6019TIP3    H218003   0.388   5.599   3.702
 6020TIP3   OH218004   0.072   1.144   5.936
 6020TIP3    H118005   0.043   1.121   5.848
 6020TIP3    H218006   0.168   1.142   5.931
 6021TIP3   OH218007   6.061   0.134   6.309
 6021TIP3    H118008   6.146   0.170   6.284
 6021TIP3    H218009   5.997   0.186   6.260
 6022TIP3   OH218010   0.639   1.293   3.736
 6022TIP3    H118011   0.559   1.276   3.785
 6022TIP3    H218012   0.640   1.388   3.724
 6023TIP3   OH218013   5.126   6.727   4.715
 6023TIP3    H118014   5.091   6.673   4.643
 6023TIP3    H218015   5.077   6.697   4.792
 6024TIP3   OH218016   5.000   7.006   4.655
 6024TIP3    H118017   5.065   6.950   4.698
 6024TIP3    H218018   4.945   7.038   4.726
 6025TIP3   OH218019   6.405   1.151   0.933
 6025TIP3    H118020   6.373   1.102   0.858
 6025TIP3    H218021   6.492   1.180   0.908
 6026TIP3   OH218022   5.965   4.747   4.184
 6026TIP3    H118023   5.997   4.680   4.122
 6026TIP3    H218024   5.877   4.718   4.207
 6027TIP3   OH218025   1.072   2.526   6.034
 6027TIP3    H118026   1.166   2.539   6.018
 6027TIP3    H218027   1.032   2.606   6.000
 6028TIP3   OH218028   7.627   5.956   3.775
 6028TIP3    H118029   7.635   5.927   3.684
 6028TIP3    H218030   7.600   5.878   3.823
 6029TIP3   OH218031   3.496   5.376   1.373
 6029TIP3    H118032   3.518   5.296   1.325
 6029TIP3    H218033   3.564   5.439   1.347
 6030TIP3   OH218034   3.435   5.473   3.873
 6030TIP3    H118035   3.362   5.420   3.842
 6030TIP3    H218036   3.507   5.453   3.813
 6031TIP3   OH218037   5.627   5.210   0.617
 6031TIP3    H118038   5.589   5.292   0.650
 6031TIP3    H218039   5.679   5.238   0.541
 6032TIP3   OH218040   2.442   0.096   4.651
 6032TIP3    H118041   2.387   0.020   4.664
 6032TIP3    H218042   2.495   0.101   4.730
 6033TIP3   OH218043   3.322   5.393   3.353
 6033TIP3    H118044   3.229   5.372   3.346
 6033TIP3    H218045   3.326   5.489   3.350
 6034TIP3   OH218046   3.321   3.302   4.477
 6034TIP3    H118047   3.345   3.218   4.515
 6034TIP3    H218048   3.396   3.326   4.423
 6035TIP3   OH218049   5.488   4.334   5.011
 6035TIP3    H118050   5.569   4.360   5.053
 6035TIP3    H218051   5.422   4.396   5.044
 6036TIP3   OH218052   6.566   2.147   5.106
 6036TIP3    H118053   6.618   2.150   5.026
 6036TIP3    H218054   6.475   2.158   5.077
 6037TIP3   OH218055   8.031   6.999   1.291
 6037TIP3    H118056   8.107   6.962   1.336
 6037TIP3    H218057   7.960   6.938   1.312
 6038TIP3   OH218058   4.801   5.759   5.197
 6038TIP3    H118059   4.806   5.793   5.108
 6038TIP3    H218060   4.761   5.829   5.248
 6039TIP3   OH218061   1.911   4.108   3.664
 6039TIP3    H118062   1.929   4.014   3.674
 6039TIP3    H218063   1.965   4.135   3.590
 6040TIP3   OH218064   3.593   5.848   6.077
 6040TIP3    H118065   3.546   5.931   6.074
 6040TIP3    H218066   3.685   5.872   6.067
 6041TIP3   OH218067   3.988   5.960   2.765
 6041TIP3    H118068   3.943   5.990   2.844
 6041TIP3    H218069   3.933   5.990   2.693
 6042TIP3   OH218070   6.258   1.982   1.453
 6042TIP3    H118071   6.340   1.952   1.415
 6042TIP3    H218072   6.190   1.943   1.398
 6043TIP3   OH218073   5.754   2.792   2.272
 6043TIP3    H118074   5.834   2.744   2.293
 6043TIP3    H218075   5.684   2.727   2.279
 6044TIP3   OH218076   7.879   0.154   3.045
 6044TIP3    H118077   7.919   0.096   2.981
 6044TIP3    H218078   7.875   0.239   3.001
 6045TIP3   OH218079   7.184   4.742   5.016
 6045TIP3    H118080   7.225   4.746   4.930
 6045TIP3    H218081   7.226   4.811   5.066
 6046TIP3   OH218082   3.364   6.890   1.427
 6046TIP3    H118083   3.323   6.975   1.411
 6046TIP3    H218084   3.289   6.830   1.439
 6047TIP3   OH218085   1.412   6.412   6.379
 6047TIP3    H118086   1.407   6.503   6.411
 6047TIP3    H218087   1.504   6.388   6.392
 6048TIP3   OH218088   2.496   0.468   3.061
 6048TIP3    H118089   2.507   0.422   2.978
 6048TIP3    H218090   2.406   0.450   3.087
 6049TIP3   OH218091   8.031   4.162   4.334
 6049TIP3    H118092   7.982   4.242   4.318
 6049TIP3    H218093   8.041   4.121   4.248
 6050TIP3   OH218094   0.549   4.477   3.253
 6050TIP3    H118095   0.584   4.391   3.231
 6050TIP3    H218096   0.463   4.459   3.289
 6051TIP3   OH218097   3.061   2.371   0.678
 6051TIP3    H118098   3.003   2.340   0.609
 6051TIP3    H218099   3.009   2.365   0.758
 6052TIP3   OH218100   0.780   6.710   4.174
 6052TIP3    H118101   0.699   6.659   4.185
 6052TIP3    H218102   0.774   6.780   4.239
 6053TIP3   OH218103   1.494   2.476   4.673
 6053TIP3    H118104   1.562   2.499   4.610
 6053TIP3    H218105   1.418   2.527   4.646
 6054TIP3   OH218106   1.759   2.377   5.591
 6054TIP3    H118107   1.689   2.312   5.592
 6054TIP3    H218108   1.730   2.444   5.652
 6055TIP3   OH218109   3.858   2.760   3.055
 6055TIP3    H118110   3.872   2.851   3.079
 6055TIP3    H218111   3.776   2.760   3.005
 6056TIP3   OH218112   4.816   7.213   0.497
 6056TIP3    H118113   4.800   7.189   0.406
 6056TIP3    H218114   4.899   7.170   0.519
 6057TIP3   OH218115   6.667   7.010   4.219
 6057TIP3    H118116   6.596   6.970   4.269
 6057TIP3    H218117   6.738   7.019   4.282
 6058TIP3   OH218118   5.151   1.895   6.242
 6058TIP3    H118119   5.166   1.805   6.272
 6058TIP3    H218120   5.212   1.948   6.292
 6059TIP3   OH218121   0.882   0.274   0.490
 6059TIP3    H118122   0.930   0.330   0.551
 6059TIP3    H218123   0.825   0.334   0.442
 6060TIP3   OH218124   7.196   3.383   6.497
 6060TIP3    H118125   7.105   3.352   6.501
 6060TIP3    H218126   7.243   3.312   6.454
 6061TIP3   OH218127   6.199   5.907   2.038
 6061TIP3    H118128   6.174   5.836   2.097
 6061TIP3    H218129   6.157   5.886   1.955
 6062TIP3   OH218130   6.950   1.754   4.275
 6062TIP3    H118131   6.878   1.691   4.275
 6062TIP3    H218132   6.907   1.839   4.278
 6063TIP3   OH218133   0.210   4.830   4.175
 6063TIP3    H118134   0.204   4.823   4.270
 6063TIP3    H218135   0.270   4.760   4.149
 6064TIP3   OH218136   1.356   0.238   4.993
 6064TIP3    H118137   1.400   0.250   5.078
 6064TIP3    H218138   1.324   0.148   4.996
 6065TIP3   OH218139   2.627   7.112   2.420
 6065TIP3    H118140   2.638   7.139   2.329
 6065TIP3    H218141   2.709   7.136   2.463
 6066TIP3   OH218142   3.142   3.839   1.881
 6066TIP3    H118143   3.188   3.790   1.950
 6066TIP3    H218144   3.111   3.772   1.821
 6067TIP3   OH218145   7.894   4.351   1.770
 6067TIP3    H118146   7.843   4.410   1.715
 6067TIP3    H218147   7.892   4.392   1.857
 6068TIP3   OH218148   8.001   6.745   5.586
 6068TIP3    H118149   7.989   6.701   5.501
 6068TIP3    H218150   8.014   6.837   5.564
 6069TIP3   OH218151   7.090   5.331   6.304
 6069TIP3    H118152   7.166   5.275   6.317
 6069TIP3    H218153   7.015   5.275   6.325
 6070TIP3   OH218154   6.222   6.870   0.507
 6070TIP3    H118155   6.140   6.919   0.508
 6070TIP3    H218156   6.196   6.779   0.515
 6071TIP3   OH218157   3.406   5.441   3.072
 6071TIP3    H118158   3.475   5.507   3.073
 6071TIP3    H218159   3.356   5.456   3.152
 6072TIP3   OH218160   2.213   6.810   6.454
 6072TIP3    H118161   2.141   6.747   6.454
 6072TIP3    H218162   2.201   6.860   6.535
 6073TIP3   OH218163   2.887   2.696   1.300
 6073TIP3    H118164   2.868   2.673   1.391
 6073TIP3    H218165   2.856   2.622   1.249
 6074TIP3   OH218166   1.075   1.297   3.494
 6074TIP3    H118167   1.099   1.274   3.404
 6074TIP3    H218168   1.011   1.367   3.484
 6075TIP3   OH218169   4.717   0.236   2.476
 6075TIP3    H118170   4.665   0.245   2.397
 6075TIP3    H218171   4.802   0.274   2.453
 6076TIP3   OH218172   3.822   2.612   0.139
 6076TIP3    H118173   3.739   2.576   0.107
 6076TIP3    H218174   3.799   2.698   0.174
 6077TIP3   OH218175   0.408   7.719   4.568
 6077TIP3    H118176   0.363   7.680   4.493
 6077TIP3    H218177   0.339   7.733   4.633
 6078TIP3   OH218178   1.419   4.494   4.944
 6078TIP3    H118179   1.337   4.505   4.991
 6078TIP3    H218180   1.485   4.481   5.012
 6079TIP3   OH218181   4.846   7.433   0.650
 6079TIP3    H118182   4.936   7.461   0.668
 6079TIP3    H218183   4.856   7.349   0.604
 6080TIP3   OH218184   2.105   4.850   5.437
 6080TIP3    H118185   2.039   4.835   5.504
 6080TIP3    H218186   2.189   4.841   5.483
 6081TIP3   OH218187   7.495   7.766   3.170
 6081TIP3    H118188   7.457   7.682   3.196
 6081TIP3    H218189   7.454   7.830   3.228
 6082TIP3   OH218190   0.984   7.376   0.152
 6082TIP3    H118191   0.896   7.355   0.119
 6082TIP3    H218192   1.043   7.340   0.086
 6083TIP3   OH218193   3.651   2.366   1.101
 6083TIP3    H118194   3.603   2.431   1.051
 6083TIP3    H218195   3.594   2.347   1.176
 6084TIP3   OH218196   8.242   7.635   2.117
 6084TIP3    H118197   8.289   7.611   2.196
 6084TIP3    H218198   8.306   7.624   2.046
 6085TIP3   OH218199   5.663   7.773   5.535
 6085TIP3    H118200   5.727   7.842   5.552
 6085TIP3    H218201   5.612   7.806   5.461
 6086TIP3   OH218202   3.288   3.312   3.617
 6086TIP3    H118203   3.281   3.402   3.649
 6086TIP3    H218204   3.272   3.257   3.694
 6087TIP3   OH218205   6.330   1.497   5.336
 6087TIP3    H118206   6.346   1.488   5.242
 6087TIP3    H218207   6.236   1.481   5.346
 6088TIP3   OH218208   2.284   5.241   3.359
 6088TIP3    H118209   2.334   5.220   3.281
 6088TIP3    H218210   2.206   5.186   3.353
 6089TIP3   OH218211   1.694   6.369   6.385
 6089TIP3    H118212   1.727   6.436   6.444
 6089TIP3    H218213   1.763   6.303   6.383
 6090TIP3   OH218214   8.030   7.365   1.746
 6090TIP3    H118215   8.081   7.445   1.734
 6090TIP3    H218216   8.034   7.321   1.660
 6091TIP3   OH218217   7.976   4.521   0.450
 6091TIP3    H118218   7.985   4.553   0.539
 6091TIP3    H218219   7.941   4.595   0.401
 6092TIP3   OH218220   1.793   4.183   2.084
 6092TIP3    H118221   1.736   4.123   2.132
 6092TIP3    H218222   1.794   4.148   1.994
 6093TIP3   OH218223   2.094   2.222   5.415
 6093TIP3    H118224   2.131   2.309   5.403
 6093TIP3    H218225   2.000   2.235   5.409
 6094TIP3   OH218226   2.175   6.346   5.432
 6094TIP3    H118227   2.250   6.297   5.396
 6094TIP3    H218228   2.201   6.438   5.425
 6095TIP3   OH218229   4.444   2.231   6.730
 6095TIP3    H118230   4.496   2.224   6.650
 6095TIP3    H218231   4.432   2.140   6.758
 6096TIP3   OH218232   2.299   6.160   0.818
 6096TIP3    H118233   2.229   6.222   0.839
 6096TIP3    H218234   2.313   6.112   0.900
 6097TIP3   OH218235   4.250   7.068   2.601
 6097TIP3    H118236   4.284   7.143   2.552
 6097TIP3    H218237   4.214   7.010   2.534
 6098TIP3   OH218238   0.899   4.514   0.260
 6098TIP3    H118239   0.929   4.593   0.305
 6098TIP3    H218240   0.806   4.509   0.279
 6099TIP3   OH218241   4.887   3.472   3.455
 6099TIP3    H118242   4.887   3.502   3.546
 6099TIP3    H218243   4.977   3.442   3.439
 6100TIP3   OH218244   3.350   1.383   3.663
 6100TIP3    H118245   3.398   1.306   3.693
 6100TIP3    H218246   3.416   1.452   3.661
 6101TIP3   OH218247   1.951   7.255   2.868
 6101TIP3    H118248   1.992   7.204   2.799
 6101TIP3    H218249   1.884   7.197   2.905
 6102TIP3   OH218250   4.788   7.249   2.972
 6102TIP3    H118251   4.752   7.200   2.898
 6102TIP3    H218252   4.878   7.217   2.980
 6103TIP3   OH218253   4.472   5.573   1.913
 6103TIP3    H118254   4.560   5.588   1.947
 6103TIP3    H218255   4.418   5.559   1.992
 6104TIP3   OH218256   6.145   6.829   4.026
 6104TIP3    H118257   6.178   6.755   3.975
 6104TIP3    H218258   6.217   6.891   4.028
 6105TIP3   OH218259   6.850   3.266   3.282
 6105TIP3    H118260   6.840   3.176   3.251
 6105TIP3    H218261   6.945   3.279   3.288
 6106TIP3   OH218262   4.867   2.736   3.086
 6106TIP3    H118263   4.927   2.715   3.158
 6106TIP3    H218264   4.919   2.728   3.007
 6107TIP3   OH218265   6.102   2.362   3.496
 6107TIP3    H118266   6.081   2.407   3.578
 6107TIP3    H218267   6.179   2.407   3.463
 6108TIP3   OH218268   5.562   7.440   5.483
 6108TIP3    H118269   5.643   7.463   5.439
 6108TIP3    H218270   5.589   7.413   5.571
 6109TIP3   OH218271   8.282   3.125   4.615
 6109TIP3    H118272   8.327   3.210   4.617
 6109TIP3    H218273   8.206   3.140   4.559
 6110TIP3   OH218274   6.154   7.039   5.715
 6110TIP3    H118275   6.178   7.080   5.633
 6110TIP3    H218276   6.061   7.018   5.705
 6111TIP3   OH218277   7.730   5.387   0.211
 6111TIP3    H118278   7.665   5.380   0.281
 6111TIP3    H218279   7.774   5.302   0.210
 6112TIP3   OH218280   0.494   6.686   0.808
 6112TIP3    H118281   0.548   6.694   0.886
 6112TIP3    H218282   0.506   6.595   0.780
 6113TIP3   OH218283   7.650   0.340   0.199
 6113TIP3    H118284   7.707   0.307   0.268
 6113TIP3    H218285   7.678   0.431   0.186
 6114TIP3   OH218286   4.958   6.455   4.716
 6114TIP3    H118287   4.926   6.441   4.805
 6114TIP3    H218288   4.885   6.497   4.671
 6115TIP3   OH218289   1.294   1.040   5.205
 6115TIP3    H118290   1.282   1.080   5.291
 6115TIP3    H218291   1.270   1.109   5.143
 6116TIP3   OH218292   5.220   3.628   3.430
 6116TIP3    H118293   5.206   3.641   3.523
 6116TIP3    H218294   5.288   3.691   3.407
 6117TIP3   OH218295   0.042   1.880   6.223
 6117TIP3    H118296   0.138   1.879   6.217
 6117TIP3    H218297   0.022   1.808   6.283
 6118TIP3   OH218298   4.000   4.613   5.040
 6118TIP3    H118299   3.989   4.677   5.110
 6118TIP3    H218300   4.011   4.665   4.961
 6119TIP3   OH218301   5.627   4.840   4.391
 6119TIP3    H118302   5.642   4.772   4.325
 6119TIP3    H218303   5.611   4.792   4.472
 6120TIP3   OH218304   3.118   1.702   6.586
 6120TIP3    H118305   3.067   1.778   6.616
 6120TIP3    H218306   3.057   1.629   6.590
 6121TIP3   OH218307   5.901   5.811   6.167
 6121TIP3    H118308   5.834   5.856   6.219
 6121TIP3    H218309   5.947   5.881   6.121
 6122TIP3   OH218310   0.996   2.241   0.461
 6122TIP3    H118311   0.954   2.247   0.376
 6122TIP3    H218312   0.949   2.171   0.507
 6123TIP3   OH218313   7.153   0.117   4.115
 6123TIP3    H118314   7.230   0.061   4.105
 6123TIP3    H218315   7.113   0.086   4.197
 6124TIP3   OH218316   0.632   2.584   0.551
 6124TIP3    H118317   0.657   2.665   0.596
 6124TIP3    H218318   0.544   2.602   0.516
 6125TIP3   OH218319   4.081   6.015   5.081
 6125TIP3    H118320   4.157   5.965   5.050
 6125TIP3    H218321   4.072   6.085   5.017
 6126TIP3   OH218322   2.277   2.328   5.977
 6126TIP3    H118323   2.186   2.339   6.004
 6126TIP3    H218324   2.284   2.236   5.954
 6127TIP3   OH218325   1.029   2.878   0.798
 6127TIP3    H118326   1.066   2.825   0.727
 6127TIP3    H218327   0.971   2.941   0.753
 6128TIP3   OH218328   6.332   3.451   1.582
 6128TIP3    H118329   6.359   3.542   1.591
 6128TIP3    H218330   6.302   3.426   1.670
 6129TIP3   OH218331   3.328   6.460   3.022
 6129TIP3    H118332   3.322   6.464   3.117
 6129TIP3    H218333   3.291   6.374   2.999
 6130TIP3   OH218334   4.022   3.084   5.663
 6130TIP3    H118335   4.075   3.099   5.742
 6130TIP3    H218336   4.076   3.119   5.592
 6131TIP3   OH218337   2.254   6.911   2.423
 6131TIP3    H118338   2.186   6.873   2.480
 6131TIP3    H218339   2.319   6.841   2.414
 6132TIP3   OH218340   4.036   5.693   5.708
 6132TIP3    H118341   3.954   5.735   5.736
 6132TIP3    H218342   4.064   5.744   5.631
 6133TIP3   OH218343   8.290   4.538   0.483
 6133TIP3    H118344   8.198   4.543   0.456
 6133TIP3    H218345   8.287   4.507   0.573
 6134TIP3   OH218346   2.851   4.361   1.063
 6134TIP3    H118347   2.858   4.344   0.970
 6134TIP3    H218348   2.833   4.455   1.069
 6135TIP3   OH218349   8.044   1.181   5.951
 6135TIP3    H118350   7.968   1.166   5.894
 6135TIP3    H218351   8.007   1.215   6.032
 6136TIP3   OH218352   7.392   5.427   2.544
 6136TIP3    H118353   7.369   5.509   2.586
 6136TIP3    H218354   7.311   5.376   2.544
 6137TIP3   OH218355   7.892   5.007   2.547
 6137TIP3    H118356   7.971   4.969   2.509
 6137TIP3    H218357   7.825   4.941   2.534
 6138TIP3   OH218358   0.727   4.298   3.420
 6138TIP3    H118359   0.781   4.376   3.405
 6138TIP3    H218360   0.786   4.237   3.463
 6139TIP3   OH218361   2.082   2.027   0.016
 6139TIP3    H118362   2.176   2.046   0.026
 6139TIP3    H218363   2.080   1.937  -0.018
 6140TIP3   OH218364   6.936   2.295   4.874
 6140TIP3    H118365   6.990   2.221   4.846
 6140TIP3    H218366   6.994   2.347   4.929
 6141TIP3   OH218367   1.928   1.061   6.067
 6141TIP3    H118368   1.840   1.086   6.039
 6141TIP3    H218369   1.914   1.018   6.151
 6142TIP3   OH218370   6.472   5.709   4.349
 6142TIP3    H118371   6.485   5.682   4.258
 6142TIP3    H218372   6.539   5.660   4.398
 6143TIP3   OH218373   6.433   1.175   5.160
 6143TIP3    H118374   6.511   1.177   5.216
 6143TIP3    H218375   6.436   1.258   5.112
 6144TIP3   OH218376   6.936   5.713   1.215
 6144TIP3    H118377   6.875   5.736   1.145
 6144TIP3    H218378   6.884   5.721   1.295
 6145TIP3   OH218379   4.802   0.447   0.268
 6145TIP3    H118380   4.818   0.357   0.296
 6145TIP3    H218381   4.706   0.453   0.263
 6146TIP3   OH218382   0.185   7.160   6.389
 6146TIP3    H118383   0.215   7.142   6.299
 6146TIP3    H218384   0.092   7.140   6.388
 6147TIP3   OH218385   2.338   3.487   5.128
 6147TIP3    H118386   2.340   3.459   5.219
 6147TIP3    H218387   2.255   3.454   5.094
 6148TIP3   OH218388   1.105   4.378   1.986
 6148TIP3    H118389   1.045   4.421   1.923
 6148TIP3    H218390   1.059   4.384   2.070
 6149TIP3   OH218391   1.658   3.800   5.829
 6149TIP3    H118392   1.636   3.870   5.891
 6149TIP3    H218393   1.747   3.775   5.853
 6150TIP3   OH218394   4.984   1.128   0.427
 6150TIP3    H118395   4.975   1.056   0.365
 6150TIP3    H218396   4.911   1.117   0.488
 6151TIP3   OH218397   4.713   7.605   1.722
 6151TIP3    H118398   4.659   7.542   1.675
 6151TIP3    H218399   4.692   7.689   1.682
 6152TIP3   OH218400   7.075   6.490   1.203
 6152TIP3    H118401   7.019   6.459   1.275
 6152TIP3    H218402   7.054   6.583   1.195
 6153TIP3   OH218403   6.670   4.866   5.269
 6153TIP3    H118404   6.593   4.907   5.229
 6153TIP3    H218405   6.711   4.936   5.319
 6154TIP3   OH218406   5.027   2.732   0.228
 6154TIP3    H118407   4.979   2.664   0.274
 6154TIP3    H218408   5.015   2.811   0.281
 6155TIP3   OH218409   0.970   6.653   3.833
 6155TIP3    H118410   1.046   6.672   3.888
 6155TIP3    H218411   1.007   6.611   3.755
 6156TIP3   OH218412   7.904   7.535   3.040
 6156TIP3    H118413   7.838   7.597   3.072
 6156TIP3    H218414   7.860   7.450   3.042
 6157TIP3   OH218415   1.034   6.939   2.202
 6157TIP3    H118416   0.955   6.994   2.200
 6157TIP3    H218417   1.041   6.903   2.114
 6158TIP3   OH218418   4.805   4.752   0.016
 6158TIP3    H118419   4.819   4.771   0.109
 6158TIP3    H218420   4.816   4.836  -0.028
 6159TIP3   OH218421   0.630   2.068   2.131
 6159TIP3    H118422   0.549   2.016   2.134
 6159TIP3    H218423   0.672   2.040   2.049
 6160TIP3   OH218424   5.620   7.586   0.367
 6160TIP3    H118425   5.624   7.679   0.345
 6160TIP3    H218426   5.593   7.543   0.285
 6161TIP3   OH218427   7.201   4.256   4.983
 6161TIP3    H118428   7.154   4.248   4.900
 6161TIP3    H218429   7.277   4.198   4.973
 6162TIP3   OH218430   7.444   2.560   3.156
 6162TIP3    H118431   7.459   2.541   3.063
 6162TIP3    H218432   7.351   2.585   3.161
 6163TIP3   OH218433   1.079   2.578   3.895
 6163TIP3    H118434   1.043   2.664   3.919
 6163TIP3    H218435   1.025   2.515   3.943
 6164TIP3   OH218436   0.969   5.769   5.430
 6164TIP3    H118437   1.039   5.822   5.391
 6164TIP3    H218438   0.947   5.705   5.363
 6165TIP3   OH218439   4.417   2.707   1.340
 6165TIP3    H118440   4.394   2.617   1.364
 6165TIP3    H218441   4.503   2.721   1.380
 6166TIP3   OH218442   0.631   1.736   1.475
 6166TIP3    H118443   0.558   1.699   1.524
 6166TIP3    H218444   0.609   1.829   1.467
 6167TIP3   OH218445   8.161   2.564   6.528
 6167TIP3    H118446   8.112   2.625   6.474
 6167TIP3    H218447   8.110   2.556   6.609
 6168TIP3   OH218448   6.694   0.098   4.831
 6168TIP3    H118449   6.655   0.185   4.821
 6168TIP3    H218450   6.623   0.043   4.864
 6169TIP3   OH218451   8.174   0.884   1.856
 6169TIP3    H118452   8.223   0.808   1.886
 6169TIP3    H218453   8.082   0.862   1.870
 6170TIP3   OH218454   5.134   5.333   1.371
 6170TIP3    H118455   5.177   5.398   1.427
 6170TIP3    H218456   5.072   5.289   1.429
 6171TIP3   OH218457   0.703   5.268   3.958
 6171TIP3    H118458   0.663   5.265   3.871
 6171TIP3    H218459   0.747   5.353   3.961
 6172TIP3   OH218460   7.776   6.430   4.750
 6172TIP3    H118461   7.837   6.400   4.817
 6172TIP3    H218462   7.773   6.525   4.760
 6173TIP3   OH218463   2.742   0.164   5.812
 6173TIP3    H118464   2.774   0.081   5.776
 6173TIP3    H218465   2.678   0.138   5.878
 6174TIP3   OH218466   0.501   7.461   2.777
 6174TIP3    H118467   0.540   7.482   2.862
 6174TIP3    H218468   0.435   7.529   2.764
 6175TIP3   OH218469   3.565   7.456   0.146
 6175TIP3    H118470   3.620   7.528   0.177
 6175TIP3    H218471   3.605   7.429   0.063
 6176TIP3   OH218472   2.700   5.483   3.421
 6176TIP3    H118473   2.781   5.464   3.469
 6176TIP3    H218474   2.714   5.442   3.335
 6177TIP3   OH218475   3.106   2.963   3.620
 6177TIP3    H118476   3.146   2.881   3.648
 6177TIP3    H218477   3.162   2.994   3.549
 6178TIP3   OH218478   2.190   7.467   1.173
 6178TIP3    H118479   2.162   7.411   1.246
 6178TIP3    H218480   2.273   7.430   1.145
 6179TIP3   OH218481   7.160   5.697   5.348
 6179TIP3    H118482   7.064   5.707   5.351
 6179TIP3    H218483   7.181   5.646   5.427
 6180TIP3   OH218484   4.555   2.993   1.216
 6180TIP3    H118485   4.575   2.915   1.267
 6180TIP3    H218486   4.638   3.016   1.174
 6181TIP3   OH218487   5.846   5.876   0.757
 6181TIP3    H118488   5.899   5.949   0.727
 6181TIP3    H218489   5.905   5.822   0.810
 6182TIP3   OH218490   3.110   7.450   2.194
 6182TIP3    H118491   3.099   7.359   2.221
 6182TIP3    H218492   3.020   7.481   2.177
 6183TIP3   OH218493   1.209   2.072   3.595
 6183TIP3    H118494   1.145   2.055   3.664
 6183TIP3    H218495   1.203   2.166   3.579
 6184TIP3   OH218496   0.174   4.128   1.934
 6184TIP3    H118497   0.082   4.138   1.912
 6184TIP3    H218498   0.189   4.034   1.938
 6185TIP3   OH218499   6.599   6.115   2.484
 6185TIP3    H118500   6.508   6.143   2.493
 6185TIP3    H218501   6.638   6.129   2.570
 6186TIP3   OH218502   0.344   5.836   5.206
 6186TIP3    H118503   0.268   5.868   5.158
 6186TIP3    H218504   0.315   5.831   5.297
 6187TIP3   OH218505   4.154   1.454   6.065
 6187TIP3    H118506   4.104   1.463   5.984
 6187TIP3    H218507   4.108   1.510   6.127
 6188TIP3   OH218508   7.006   5.309   3.169
 6188TIP3    H118509   6.949   5.284   3.242
 6188TIP3    H218510   6.945   5.336   3.100
 6189TIP3   OH218511   5.318   5.638   1.848
 6189TIP3    H118512   5.269   5.678   1.776
 6189TIP3    H218513   5.314   5.702   1.919
 6190TIP3   OH218514   3.148   4.637   6.148
 6190TIP3    H118515   3.098   4.626   6.229
 6190TIP3    H218516   3.097   4.589   6.083
 6191TIP3   OH218517   1.993   6.955   1.996
 6191TIP3    H118518   1.917   7.014   1.996
 6191TIP3    H218519   2.051   6.990   2.064
 6192TIP3   OH218520   0.545   6.662   2.528
 6192TIP3    H118521   0.528   6.577   2.567
 6192TIP3    H218522   0.618   6.698   2.578
 6193TIP3   OH218523   3.945   0.734   4.680
 6193TIP3    H118524   3.879   0.793   4.644
 6193TIP3    H218525   3.955   0.762   4.771
 6194TIP3   OH218526   0.739   6.477   5.433
 6194TIP3    H118527   0.790   6.519   5.502
 6194TIP3    H218528   0.724   6.388   5.465
 6195TIP3   OH218529   6.782   0.300   3.432
 6195TIP3    H118530   6.758   0.319   3.341
 6195TIP3    H218531   6.775   0.205   3.440
 6196TIP3   OH218532   6.344   3.507   5.483
 6196TIP3    H118533   6.328   3.423   5.440
 6196TIP3    H218534   6.261   3.530   5.524
 6197TIP3   OH218535   6.246   7.782   2.583
 6197TIP3    H118536   6.165   7.816   2.545
 6197TIP3    H218537   6.284   7.857   2.629
 6198TIP3   OH218538   5.885   6.307   0.251
 6198TIP3    H118539   5.953   6.347   0.305
 6198TIP3    H218540   5.929   6.235   0.206
 6199TIP3   OH218541   7.171   0.415   5.912
 6199TIP3    H118542   7.077   0.433   5.908
 6199TIP3    H218543   7.191   0.415   6.006
 6200TIP3   OH218544   0.120   3.758   0.857
 6200TIP3    H118545   0.077   3.687   0.809
 6200TIP3    H218546   0.181   3.796   0.794
 6201TIP3   OH218547   2.637   0.550   2.276
 6201TIP3    H118548   2.623   0.600   2.195
 6201TIP3    H218549   2.706   0.597   2.322
 6202TIP3   OH218550   2.592   5.231   3.674
 6202TIP3    H118551   2.678   5.265   3.652
 6202TIP3    H218552   2.532   5.276   3.615
 6203TIP3   OH218553   0.257   1.598   0.351
 6203TIP3    H118554   0.291   1.532   0.411
 6203TIP3    H218555   0.218   1.548   0.279
 6204TIP3   OH218556   4.373   5.506   5.334
 6204TIP3    H118557   4.411   5.536   5.416
 6204TIP3    H218558   4.431   5.541   5.266
 6205TIP3   OH218559   7.609   4.232   3.411
 6205TIP3    H118560   7.548   4.304   3.396
 6205TIP3    H218561   7.632   4.201   3.324
 6206TIP3   OH218562   6.761   0.625   1.188
 6206TIP3    H118563   6.726   0.638   1.100
 6206TIP3    H218564   6.735   0.535   1.210
 6207TIP3   OH218565   3.140   6.722   5.432
 6207TIP3    H118566   3.115   6.675   5.353
 6207TIP3    H218567   3.217   6.675   5.465
 6208TIP3   OH218568   4.030   6.467   0.068
 6208TIP3    H118569   4.117   6.487   0.033
 6208TIP3    H218570   4.047   6.417   0.147
 6209TIP3   OH218571   7.545   2.314   0.288
 6209TIP3    H118572   7.473   2.300   0.350
 6209TIP3    H218573   7.557   2.229   0.245
 6210TIP3   OH218574   0.252   7.633   5.868
 6210TIP3    H118575   0.339   7.645   5.829
 6210TIP3    H218576   0.270   7.610   5.959
 6211TIP3   OH218577   0.026   2.736   3.997
 6211TIP3    H118578  -0.003   2.721   3.907
 6211TIP3    H218579   0.114   2.698   4.001
 6212TIP3   OH218580   7.383   7.536   3.212
 6212TIP3    H118581   7.371   7.502   3.124
 6212TIP3    H218582   7.321   7.487   3.267
 6213TIP3   OH218583   3.164   3.277   4.892
 6213TIP3    H118584   3.121   3.363   4.896
 6213TIP3    H218585   3.205   3.266   4.978
 6214TIP3   OH218586   0.560   1.823   2.678
 6214TIP3    H118587   0.627   1.828   2.745
 6214TIP3    H218588   0.487   1.778   2.719
 6215TIP3   OH218589   5.625   2.012   6.053
 6215TIP3    H118590   5.683   1.995   6.127
 6215TIP3    H218591   5.585   1.927   6.034
 6216TIP3   OH218592   7.951   0.939   3.193
 6216TIP3    H118593   7.951   1.029   3.224
 6216TIP3    H218594   7.873   0.933   3.137
 6217TIP3   OH218595   6.906   6.618   1.897
 6217TIP3    H118596   6.979   6.642   1.954
 6217TIP3    H218597   6.894   6.693   1.839
 6218TIP3   OH218598   6.912   0.935   5.444
 6218TIP3    H118599   6.902   0.857   5.497
 6218TIP3    H218600   6.976   0.912   5.377
 6219TIP3   OH218601   3.372   7.457   1.983
 6219TIP3    H118602   3.429   7.438   1.908
 6219TIP3    H218603   3.316   7.380   1.990
 6220TIP3   OH218604   0.390   0.506   2.201
 6220TIP3    H118605   0.311   0.536   2.245
 6220TIP3    H218606   0.373   0.519   2.108
 6221TIP3   OH218607   4.813   3.391   1.981
 6221TIP3    H118608   4.843   3.417   1.894
 6221TIP3    H218609   4.723   3.361   1.968
 6222TIP3   OH218610   4.418   1.137   2.191
 6222TIP3    H118611   4.501   1.092   2.180
 6222TIP3    H218612   4.433   1.198   2.264
 6223TIP3   OH218613   1.869   4.495   0.485
 6223TIP3    H118614   1.883   4.536   0.571
 6223TIP3    H218615   1.954   4.501   0.442
 6224TIP3   OH218616   3.751   3.029   5.701
 6224TIP3    H118617   3.735   2.940   5.671
 6224TIP3    H218618   3.838   3.051   5.668
 6225TIP3   OH218619   1.482   3.138   3.284
 6225TIP3    H118620   1.475   3.062   3.342
 6225TIP3    H218621   1.569   3.172   3.301
 6226TIP3   OH218622   6.074   4.283   3.589
 6226TIP3    H118623   6.148   4.324   3.544
 6226TIP3    H218624   6.004   4.347   3.584
 6227TIP3   OH218625   2.209   3.703   4.257
 6227TIP3    H118626   2.201   3.620   4.305
 6227TIP3    H218627   2.123   3.744   4.266
 6228TIP3   OH218628   7.732   0.534   2.627
 6228TIP3    H118629   7.681   0.584   2.562
 6228TIP3    H218630   7.814   0.513   2.581
 6229TIP3   OH218631   7.115   4.762   5.786
 6229TIP3    H118632   7.059   4.688   5.813
 6229TIP3    H218633   7.151   4.735   5.701
 6230TIP3   OH218634   3.056   4.421   6.475
 6230TIP3    H118635   3.041   4.441   6.568
 6230TIP3    H218636   3.012   4.337   6.461
 6231TIP3   OH218637   7.565   0.193   5.026
 6231TIP3    H118638   7.594   0.126   5.087
 6231TIP3    H218639   7.619   0.180   4.948
 6232TIP3   OH218640   4.807   5.272   2.561
 6232TIP3    H118641   4.796   5.281   2.467
 6232TIP3    H218642   4.748   5.338   2.599
 6233TIP3   OH218643   1.962   7.139   0.313
 6233TIP3    H118644   1.931   7.049   0.324
 6233TIP3    H218645   1.882   7.190   0.298
 6234TIP3   OH218646   2.750   7.330   2.226
 6234TIP3    H118647   2.756   7.400   2.291
 6234TIP3    H218648   2.771   7.373   2.143
 6235TIP3   OH218649   3.077   3.057   1.827
 6235TIP3    H118650   3.164   3.062   1.867
 6235TIP3    H218651   3.018   3.039   1.900
 6236TIP3   OH218652   0.042   2.683   4.499
 6236TIP3    H118653   0.035   2.729   4.583
 6236TIP3    H218654   0.059   2.753   4.435
 6237TIP3   OH218655   2.781   0.262   0.662
 6237TIP3    H118656   2.849   0.329   0.651
 6237TIP3    H218657   2.750   0.274   0.752
 6238TIP3   OH218658   5.105   1.824   5.497
 6238TIP3    H118659   5.031   1.800   5.553
 6238TIP3    H218660   5.141   1.904   5.537
 6239TIP3   OH218661   5.539   3.283   2.270
 6239TIP3    H118662   5.580   3.353   2.320
 6239TIP3    H218663   5.587   3.204   2.294
 6240TIP3   OH218664   5.423   2.285   4.041
 6240TIP3    H118665   5.437   2.375   4.071
 6240TIP3    H218666   5.506   2.241   4.060
 6241TIP3   OH218667   8.277   1.937   2.665
 6241TIP3    H118668   8.315   1.896   2.587
 6241TIP3    H218669   8.229   1.866   2.708
 6242TIP3   OH218670   5.118   3.348   3.124
 6242TIP3    H118671   5.055   3.358   3.195
 6242TIP3    H218672   5.186   3.413   3.144
 6243TIP3   OH218673   5.225   5.784   0.664
 6243TIP3    H118674   5.193   5.831   0.587
 6243TIP3    H218675   5.146   5.743   0.701
 6244TIP3   OH218676   3.852   4.003   3.572
 6244TIP3    H118677   3.779   3.997   3.633
 6244TIP3    H218678   3.835   3.934   3.507
 6245TIP3   OH218679   1.940   3.017   3.228
 6245TIP3    H118680   1.867   2.957   3.245
 6245TIP3    H218681   1.907   3.076   3.160
 6246TIP3   OH218682   7.759   2.969   0.278
 6246TIP3    H118683   7.778   3.057   0.246
 6246TIP3    H218684   7.809   2.911   0.221
 6247TIP3   OH218685   6.016   4.415   4.384
 6247TIP3    H118686   6.096   4.412   4.436
 6247TIP3    H218687   5.978   4.501   4.403
 6248TIP3   OH218688   6.905   3.714   0.618
 6248TIP3    H118689   6.818   3.702   0.578
 6248TIP3    H218690   6.962   3.737   0.545
 6249TIP3   OH218691   7.441   1.002   4.645
 6249TIP3    H118692   7.398   0.957   4.718
 6249TIP3    H218693   7.522   1.037   4.682
 6250TIP3   OH218694   5.859   0.270   0.811
 6250TIP3    H118695   5.857   0.175   0.822
 6250TIP3    H218696   5.901   0.302   0.891
 6251TIP3   OH218697   3.704   3.522   1.937
 6251TIP3    H118698   3.663   3.606   1.956
 6251TIP3    H218699   3.722   3.525   1.843
 6252TIP3   OH218700   0.163   4.383   3.639
 6252TIP3    H118701   0.076   4.392   3.601
 6252TIP3    H218702   0.208   4.321   3.583
 6253TIP3   OH218703   4.900   5.305   5.385
 6253TIP3    H118704   4.974   5.281   5.442
 6253TIP3    H218705   4.825   5.309   5.444
 6254TIP3   OH218706   6.463   3.449   0.951
 6254TIP3    H118707   6.423   3.462   0.865
 6254TIP3    H218708   6.549   3.490   0.944
 6255TIP3   OH218709   1.351   4.883   2.824
 6255TIP3    H118710   1.439   4.921   2.825
 6255TIP3    H218711   1.293   4.954   2.850
 6256TIP3   OH218712   5.193   3.785   2.063
 6256TIP3    H118713   5.215   3.697   2.095
 6256TIP3    H218714   5.145   3.769   1.982
 6257TIP3   OH218715   3.693   0.957   3.796
 6257TIP3    H118716   3.648   0.933   3.716
 6257TIP3    H218717   3.628   0.943   3.865
 6258TIP3   OH218718   3.573   7.116   6.498
 6258TIP3    H118719   3.508   7.186   6.504
 6258TIP3    H218720   3.629   7.141   6.425
 6259TIP3   OH218721   0.414   3.369   1.893
 6259TIP3    H118722   0.450   3.282   1.876
 6259TIP3    H218723   0.435   3.420   1.815
 6260TIP3   OH218724   3.344   2.716   0.860
 6260TIP3    H118725   3.408   2.645   0.853
 6260TIP3    H218726   3.397   2.794   0.877
 6261TIP3   OH218727   0.706   3.630   4.181
 6261TIP3    H118728   0.670   3.718   4.190
 6261TIP3    H218729   0.711   3.616   4.086
 6262TIP3   OH218730   2.491   0.040   6.341
 6262TIP3    H118731   2.576   0.067   6.308
 6262TIP3    H218732   2.439   0.121   6.344
 6263TIP3   OH218733   0.526   6.054   2.723
 6263TIP3    H118734   0.511   6.122   2.788
 6263TIP3    H218735   0.516   5.972   2.771
 6264TIP3   OH218736   8.262   7.437   4.992
 6264TIP3    H118737   8.267   7.342   4.999
 6264TIP3    H218738   8.175   7.455   4.958
 6265TIP3   OH218739   2.341   0.584   2.531
 6265TIP3    H118740   2.346   0.550   2.442
 6265TIP3    H218741   2.247   0.590   2.549
 6266TIP3   OH218742   5.467   1.150   2.826
 6266TIP3    H118743   5.506   1.075   2.870
 6266TIP3    H218744   5.435   1.115   2.743
 6267TIP3   OH218745   2.139   0.940   2.679
 6267TIP3    H118746   2.213   0.960   2.736
 6267TIP3    H218747   2.086   0.879   2.730
 6268TIP3   OH218748   1.061   2.411   3.172
 6268TIP3    H118749   1.079   2.358   3.250
 6268TIP3    H218750   1.142   2.405   3.120
 6269TIP3   OH218751   0.279   1.341   1.832
 6269TIP3    H118752   0.287   1.267   1.771
 6269TIP3    H218753   0.369   1.357   1.862
 6270TIP3   OH218754   3.598   6.726   5.591
 6270TIP3    H118755   3.572   6.668   5.663
 6270TIP3    H218756   3.524   6.786   5.581
 6271TIP3   OH218757   1.720   3.372   5.614
 6271TIP3    H118758   1.806   3.330   5.612
 6271TIP3    H218759   1.658   3.300   5.609
 6272TIP3   OH218760   2.493   6.771   1.165
 6272TIP3    H118761   2.443   6.696   1.132
 6272TIP3    H218762   2.465   6.781   1.256
 6273TIP3   OH218763   4.990   0.042   3.906
 6273TIP3    H118764   4.981   0.059   4.000
 6273TIP3    H218765   5.073   0.085   3.882
 6274TIP3   OH218766   1.953   3.449   5.032
 6274TIP3    H118767   1.980   3.363   5.064
 6274TIP3    H218768   1.857   3.444   5.028
 6275TIP3   OH218769   1.196   7.320   1.027
 6275TIP3    H118770   1.111   7.307   0.985
 6275TIP3    H218771   1.179   7.385   1.095
 6276TIP3   OH218772   0.211   5.069   0.702
 6276TIP3    H118773   0.153   5.005   0.660
 6276TIP3    H218774   0.162   5.097   0.780
 6277TIP3   OH218775   6.367   3.926   4.309
 6277TIP3    H118776   6.407   3.886   4.232
 6277TIP3    H218777   6.437   3.981   4.346
 6278TIP3   OH218778   1.233   2.365   5.232
 6278TIP3    H118779   1.245   2.435   5.167
 6278TIP3    H218780   1.211   2.288   5.181
 6279TIP3   OH218781   6.786   6.740   2.773
 6279TIP3    H118782   6.732   6.770   2.699
 6279TIP3    H218783   6.766   6.802   2.843
 6280TIP3   OH218784   5.375   1.753   0.993
 6280TIP3    H118785   5.330   1.694   0.932
 6280TIP3    H218786   5.366   1.711   1.078
 6281TIP3   OH218787   2.971   1.084   5.786
 6281TIP3    H118788   2.945   1.040   5.705
 6281TIP3    H218789   2.978   1.176   5.762
 6282TIP3   OH218790   6.609   4.068   5.786
 6282TIP3    H118791   6.653   3.985   5.769
 6282TIP3    H218792   6.645   4.129   5.721
 6283TIP3   OH218793   0.630   0.086   4.315
 6283TIP3    H118794   0.572   0.015   4.340
 6283TIP3    H218795   0.709   0.043   4.284
 6284TIP3   OH218796   5.127   6.377   4.490
 6284TIP3    H118797   5.048   6.387   4.544
 6284TIP3    H218798   5.124   6.450   4.429
 6285TIP3   OH218799   1.232   0.427   4.853
 6285TIP3    H118800   1.176   0.463   4.922
 6285TIP3    H218801   1.272   0.350   4.892
 6286TIP3   OH218802   3.810   3.211   2.212
 6286TIP3    H118803   3.840   3.148   2.277
 6286TIP3    H218804   3.731   3.249   2.251
 6287TIP3   OH218805   2.669   7.038   0.303
 6287TIP3    H118806   2.634   7.123   0.329
 6287TIP3    H218807   2.650   7.032   0.209
 6288TIP3   OH218808   1.001   1.255   0.488
 6288TIP3    H118809   0.972   1.176   0.533
 6288TIP3    H218810   1.053   1.303   0.553
 6289TIP3   OH218811   1.178   5.588   4.074
 6289TIP3    H118812   1.219   5.661   4.028
 6289TIP3    H218813   1.168   5.618   4.164
 6290TIP3   OH218814   3.084   3.750   0.086
 6290TIP3    H118815   3.012   3.813   0.086
 6290TIP3    H218816   3.105   3.738  -0.007
 6291TIP3   OH218817   0.549   2.646   3.030
 6291TIP3    H118818   0.607   2.664   3.104
 6291TIP3    H218819   0.542   2.550   3.028
 6292TIP3   OH218820   4.586   0.683   2.088
 6292TIP3    H118821   4.610   0.754   2.029
 6292TIP3    H218822   4.647   0.612   2.065
 6293TIP3   OH218823   5.569   4.432   2.182
 6293TIP3    H118824   5.487   4.395   2.151
 6293TIP3    H218825   5.543   4.506   2.237
 6294TIP3   OH218826   0.053   7.729   4.491
 6294TIP3    H118827   0.076   7.817   4.521
 6294TIP3    H218828  -0.035   7.738   4.455
 6295TIP3   OH218829   3.413   6.997   5.039
 6295TIP3    H118830   3.334   6.999   5.093
 6295TIP3    H218831   3.385   6.958   4.956
 6296TIP3   OH218832   2.569   0.345   6.621
 6296TIP3    H118833   2.574   0.413   6.554
 6296TIP3    H218834   2.493   0.369   6.674
 6297TIP3   OH218835   6.693   2.093   1.171
 6297TIP3    H118836   6.693   2.143   1.253
 6297TIP3    H218837   6.611   2.119   1.128
 6298TIP3   OH218838   0.032   0.484   4.799
 6298TIP3    H118839   0.115   0.438   4.809
 6298TIP3    H218840   0.049   0.571   4.836
 6299TIP3   OH218841   4.147   4.636   3.045
 6299TIP3    H118842   4.199   4.627   2.965
 6299TIP3    H218843   4.109   4.549   3.058
 6300TIP3   OH218844   7.385   5.888   3.355
 6300TIP3    H118845   7.332   5.949   3.304
 6300TIP3    H218846   7.325   5.818   3.379
 6301TIP3   OH218847   2.547   4.558   5.036
 6301TIP3    H118848   2.547   4.462   5.046
 6301TIP3    H218849   2.467   4.587   5.079
 6302TIP3   OH218850   4.163   1.293   4.780
 6302TIP3    H118851   4.180   1.344   4.859
 6302TIP3    H218852   4.163   1.202   4.809
 6303TIP3   OH218853   3.815   3.422   6.715
 6303TIP3    H118854   3.772   3.348   6.673
 6303TIP3    H218855   3.907   3.395   6.723
 6304TIP3   OH218856   3.519   2.879   2.381
 6304TIP3    H118857   3.498   2.885   2.288
 6304TIP3    H218858   3.488   2.962   2.418
 6305TIP3   OH218859   0.798   0.332   2.014
 6305TIP3    H118860   0.798   0.352   2.107
 6305TIP3    H218861   0.889   0.343   1.986
 6306TIP3   OH218862   7.665   5.553   3.157
 6306TIP3    H118863   7.665   5.648   3.143
 6306TIP3    H218864   7.582   5.524   3.121
 6307TIP3   OH218865   4.987   1.485   4.052
 6307TIP3    H118866   5.046   1.422   4.012
 6307TIP3    H218867   4.977   1.553   3.985
 6308TIP3   OH218868   6.112   4.567   0.593
 6308TIP3    H118869   6.182   4.570   0.528
 6308TIP3    H218870   6.119   4.480   0.632
 6309TIP3   OH218871   5.808   3.237   5.405
 6309TIP3    H118872   5.848   3.320   5.379
 6309TIP3    H218873   5.736   3.264   5.463
 6310TIP3   OH218874   0.405   3.696   4.459
 6310TIP3    H118875   0.480   3.728   4.409
 6310TIP3    H218876   0.428   3.605   4.481
 6311TIP3   OH218877   7.023   7.242   3.278
 6311TIP3    H118878   7.070   7.166   3.245
 6311TIP3    H218879   6.933   7.229   3.250
 6312TIP3   OH218880   5.311   1.973   3.743
 6312TIP3    H118881   5.379   1.968   3.676
 6312TIP3    H218882   5.228   1.975   3.695
 6313TIP3   OH218883   8.162   2.739   2.016
 6313TIP3    H118884   8.196   2.829   2.011
 6313TIP3    H218885   8.233   2.689   2.055
 6314TIP3   OH218886   5.623   3.468   6.125
 6314TIP3    H118887   5.564   3.456   6.200
 6314TIP3    H218888   5.697   3.517   6.161
 6315TIP3   OH218889   2.802   0.028   2.438
 6315TIP3    H118890   2.725  -0.011   2.479
 6315TIP3    H218891   2.789   0.122   2.447
 6316TIP3   OH218892   5.963   0.609   1.348
 6316TIP3    H118893   5.950   0.521   1.384
 6316TIP3    H218894   6.058   0.620   1.344
 6317TIP3   OH218895   7.213   1.650   6.706
 6317TIP3    H118896   7.211   1.554   6.713
 6317TIP3    H218897   7.265   1.678   6.781
 6318TIP3   OH218898   4.978   7.780   2.006
 6318TIP3    H118899   4.962   7.764   2.099
 6318TIP3    H218900   5.053   7.725   1.985
 6319TIP3   OH218901   0.453   4.213   5.803
 6319TIP3    H118902   0.401   4.195   5.881
 6319TIP3    H218903   0.489   4.129   5.777
 6320TIP3   OH218904   6.038   6.436   6.342
 6320TIP3    H118905   6.059   6.368   6.406
 6320TIP3    H218906   6.067   6.517   6.384
 6321TIP3   OH218907   0.847   4.016   0.991
 6321TIP3    H118908   0.846   4.087   1.054
 6321TIP3    H218909   0.866   4.059   0.907
 6322TIP3   OH218910   1.149   3.735   6.737
 6322TIP3    H118911   1.083   3.734   6.667
 6322TIP3    H218912   1.109   3.686   6.808
 6323TIP3   OH218913   5.996   3.587   4.246
 6323TIP3    H118914   5.978   3.678   4.271
 6323TIP3    H218915   5.976   3.584   4.152
 6324TIP3   OH218916   4.768   2.514   5.856
 6324TIP3    H118917   4.830   2.572   5.811
 6324TIP3    H218918   4.683   2.554   5.840
 6325TIP3   OH218919   3.115   7.067   5.058
 6325TIP3    H118920   3.031   7.086   5.100
 6325TIP3    H218921   3.126   6.973   5.066
 6326TIP3   OH218922   5.148   4.567   6.105
 6326TIP3    H118923   5.118   4.645   6.058
 6326TIP3    H218924   5.146   4.497   6.040
 6327TIP3   OH218925   6.059   6.763   3.111
 6327TIP3    H118926   6.100   6.678   3.096
 6327TIP3    H218927   6.110   6.801   3.183
 6328TIP3   OH218928   3.613   1.336   2.080
 6328TIP3    H118929   3.550   1.402   2.053
 6328TIP3    H218930   3.628   1.352   2.173
 6329TIP3   OH218931   5.607   7.138   0.536
 6329TIP3    H118932   5.547   7.090   0.593
 6329TIP3    H218933   5.555   7.211   0.502
 6330TIP3   OH218934   5.792   2.607   0.067
 6330TIP3    H118935   5.798   2.701   0.048
 6330TIP3    H218936   5.835   2.597   0.152
 6331TIP3   OH218937   7.088   5.394   5.974
 6331TIP3    H118938   7.077   5.393   6.069
 6331TIP3    H218939   7.006   5.356   5.940
 6332TIP3   OH218940   7.367   0.182   2.510
 6332TIP3    H118941   7.289   0.129   2.490
 6332TIP3    H218942   7.335   0.272   2.512
 6333TIP3   OH218943   7.596   4.447   0.707
 6333TIP3    H118944   7.673   4.449   0.650
 6333TIP3    H218945   7.523   4.466   0.649
 6334TIP3   OH218946   3.189   2.816   0.248
 6334TIP3    H118947   3.177   2.900   0.203
 6334TIP3    H218948   3.132   2.755   0.201
 6335TIP3   OH218949   6.795   3.523   1.205
 6335TIP3    H118950   6.766   3.578   1.277
 6335TIP3    H218951   6.761   3.436   1.226
 6336TIP3   OH218952   6.556   7.331   5.438
 6336TIP3    H118953   6.563   7.321   5.343
 6336TIP3    H218954   6.645   7.317   5.470
 6337TIP3   OH218955   6.404   5.582   5.346
 6337TIP3    H118956   6.402   5.645   5.274
 6337TIP3    H218957   6.465   5.515   5.318
 6338TIP3   OH218958   7.195   1.717   2.954
 6338TIP3    H118959   7.202   1.802   2.910
 6338TIP3    H218960   7.217   1.735   3.045
 6339TIP3   OH218961   2.809   5.420   4.266
 6339TIP3    H118962   2.884   5.439   4.210
 6339TIP3    H218963   2.819   5.480   4.340
 6340TIP3   OH218964   7.205   3.499   3.328
 6340TIP3    H118965   7.257   3.472   3.252
 6340TIP3    H218966   7.168   3.418   3.362
 6341TIP3   OH218967   1.321   1.099   2.238
 6341TIP3    H118968   1.300   1.017   2.282
 6341TIP3    H218969   1.292   1.085   2.148
 6342TIP3   OH218970   5.995   4.657   1.022
 6342TIP3    H118971   5.997   4.577   0.969
 6342TIP3    H218972   5.925   4.710   0.983
 6343TIP3   OH218973   6.135   4.169   2.013
 6343TIP3    H118974   6.141   4.202   2.103
 6343TIP3    H218975   6.215   4.117   2.001
 6344TIP3   OH218976   3.914   5.252   1.109
 6344TIP3    H118977   3.985   5.209   1.158
 6344TIP3    H218978   3.885   5.323   1.166
 6345TIP3   OH218979   6.272   2.628   1.023
 6345TIP3    H118980   6.310   2.551   0.982
 6345TIP3    H218981   6.263   2.604   1.115
 6346TIP3   OH218982   4.945   7.053   3.710
 6346TIP3    H118983   4.902   7.055   3.625
 6346TIP3    H218984   4.873   7.055   3.773
 6347TIP3   OH218985   7.353   7.637   5.163
 6347TIP3    H118986   7.264   7.640   5.199
 6347TIP3    H218987   7.384   7.549   5.183
 6348TIP3   OH218988   7.910   2.985   4.292
 6348TIP3    H118989   7.834   3.035   4.323
 6348TIP3    H218990   7.882   2.894   4.294
 6349TIP3   OH218991   0.107   3.187   1.871
 6349TIP3    H118992   0.110   3.126   1.797
 6349TIP3    H218993   0.174   3.154   1.932
 6350TIP3   OH218994   0.181   7.021   1.305
 6350TIP3    H118995   0.171   6.930   1.331
 6350TIP3    H218996   0.160   7.022   1.211
 6351TIP3   OH218997   1.910   0.277   4.044
 6351TIP3    H118998   1.822   0.242   4.036
 6351TIP3    H218999   1.904   0.343   4.113
 6352TIP3   OH219000   1.648   3.950   3.560
 6352TIP3    H119001   1.617   4.030   3.603
 6352TIP3    H219002   1.735   3.934   3.598
 6353TIP3   OH219003   3.334   6.029   4.720
 6353TIP3    H119004   3.256   6.035   4.776
 6353TIP3    H219005   3.348   6.118   4.687
 6354TIP3   OH219006   4.428   2.216   6.428
 6354TIP3    H119007   4.413   2.122   6.429
 6354TIP3    H219008   4.517   2.228   6.459
 6355TIP3   OH219009   8.216   3.637   0.682
 6355TIP3    H119010   8.127   3.630   0.714
 6355TIP3    H219011   8.209   3.689   0.601
 6356TIP3   OH219012   1.326   7.509   0.280
 6356TIP3    H119013   1.334   7.458   0.361
 6356TIP3    H219014   1.267   7.457   0.225
 6357TIP3   OH219015   3.482   1.613   2.003
 6357TIP3    H119016   3.478   1.576   1.914
 6357TIP3    H219017   3.396   1.592   2.040
 6358TIP3   OH219018   6.916   0.995   1.785
 6358TIP3    H119019   6.853   1.042   1.730
 6358TIP3    H219020   6.977   0.955   1.723
 6359TIP3   OH219021   2.324   7.527   2.111
 6359TIP3    H119022   2.395   7.503   2.171
 6359TIP3    H219023   2.355   7.499   2.025
 6360TIP3   OH219024   0.204   2.386   1.364
 6360TIP3    H119025   0.187   2.365   1.455
 6360TIP3    H219026   0.299   2.378   1.355
 6361TIP3   OH219027   5.075   0.610   5.676
 6361TIP3    H119028   4.981   0.617   5.695
 6361TIP3    H219029   5.079   0.558   5.595
 6362TIP3   OH219030   7.871   5.318   3.676
 6362TIP3    H119031   7.944   5.373   3.649
 6362TIP3    H219032   7.813   5.376   3.726
 6363TIP3   OH219033   4.849   2.173   1.388
 6363TIP3    H119034   4.806   2.165   1.303
 6363TIP3    H219035   4.928   2.119   1.381
 6364TIP3   OH219036   8.258   3.962   3.081
 6364TIP3    H119037   8.311   4.034   3.116
 6364TIP3    H219038   8.199   4.004   3.018
 6365TIP3   OH219039   2.840   1.446   5.694
 6365TIP3    H119040   2.924   1.436   5.648
 6365TIP3    H219041   2.774   1.427   5.627
 6366TIP3   OH219042   4.540   7.676   5.274
 6366TIP3    H119043   4.481   7.723   5.335
 6366TIP3    H219044   4.624   7.721   5.283
 6367TIP3   OH219045   8.163   2.375   4.987
 6367TIP3    H119046   8.226   2.445   5.006
 6367TIP3    H219047   8.184   2.348   4.897
 6368TIP3   OH219048   0.191   7.137   4.435
 6368TIP3    H119049   0.237   7.090   4.365
 6368TIP3    H219050   0.260   7.167   4.494
 6369TIP3   OH219051   2.427   0.422   5.094
 6369TIP3    H119052   2.509   0.383   5.124
 6369TIP3    H219053   2.423   0.507   5.139
 6370TIP3   OH219054   7.980   7.237   4.730
 6370TIP3    H119055   7.971   7.307   4.795
 6370TIP3    H219056   8.056   7.263   4.678
 6371TIP3   OH219057   7.146   1.243   1.988
 6371TIP3    H119058   7.111   1.321   1.945
 6371TIP3    H219059   7.174   1.273   2.074
 6372TIP3   OH219060   6.709   4.641   3.235
 6372TIP3    H119061   6.792   4.601   3.208
 6372TIP3    H219062   6.736   4.721   3.282
 6373TIP3   OH219063   7.928   2.562   5.391
 6373TIP3    H119064   7.895   2.651   5.395
 6373TIP3    H219065   7.910   2.533   5.301
 6374TIP3   OH219066   4.686   6.035   1.433
 6374TIP3    H119067   4.653   6.105   1.490
 6374TIP3    H219068   4.692   6.075   1.347
 6375TIP3   OH219069   4.797   2.801   6.661
 6375TIP3    H119070   4.740   2.808   6.738
 6375TIP3    H219071   4.737   2.787   6.588
 6376TIP3   OH219072   0.301   3.778   0.123
 6376TIP3    H119073   0.290   3.840   0.195
 6376TIP3    H219074   0.278   3.828   0.045
 6377TIP3   OH219075   5.139   2.223   5.443
 6377TIP3    H119076   5.107   2.164   5.511
 6377TIP3    H219077   5.146   2.308   5.486
 6378TIP3   OH219078   7.533   3.455   6.629
 6378TIP3    H119079   7.454   3.497   6.664
 6378TIP3    H219080   7.546   3.379   6.686
 6379TIP3   OH219081   6.532   6.034   5.299
 6379TIP3    H119082   6.594   6.007   5.366
 6379TIP3    H219083   6.587   6.055   5.223
 6380TIP3   OH219084   4.165   7.777   4.644
 6380TIP3    H119085   4.116   7.858   4.626
 6380TIP3    H219086   4.151   7.761   4.738
 6381TIP3   OH219087   0.629   4.481   0.369
 6381TIP3    H119088   0.583   4.475   0.452
 6381TIP3    H219089   0.563   4.458   0.303
 6382TIP3   OH219090   6.212   5.287   4.898
 6382TIP3    H119091   6.243   5.314   4.811
 6382TIP3    H219092   6.121   5.317   4.901
 6383TIP3   OH219093   1.523   4.777   1.926
 6383TIP3    H119094   1.442   4.753   1.882
 6383TIP3    H219095   1.592   4.737   1.873
 6384TIP3   OH219096   1.076   5.869   2.490
 6384TIP3    H119097   1.128   5.937   2.534
 6384TIP3    H219098   1.119   5.857   2.406
 6385TIP3   OH219099   1.269   0.219   0.645
 6385TIP3    H119100   1.188   0.236   0.597
 6385TIP3    H219101   1.306   0.142   0.602
 6386TIP3   OH219102   1.935   5.939   2.286
 6386TIP3    H119103   2.002   6.000   2.254
 6386TIP3    H219104   1.978   5.854   2.288
 6387TIP3   OH219105   1.822   4.572   2.868
 6387TIP3    H119106   1.820   4.656   2.913
 6387TIP3    H219107   1.730   4.547   2.860
 6388TIP3   OH219108   8.073   4.262   5.923
 6388TIP3    H119109   8.072   4.345   5.876
 6388TIP3    H219110   8.094   4.284   6.013
 6389TIP3   OH219111   4.918   6.299   3.882
 6389TIP3    H119112   4.979   6.362   3.844
 6389TIP3    H219113   4.962   6.214   3.872
 6390TIP3   OH219114   3.090   2.455   4.715
 6390TIP3    H119115   3.010   2.499   4.743
 6390TIP3    H219116   3.068   2.417   4.629
 6391TIP3   OH219117   0.985   0.051   1.875
 6391TIP3    H119118   1.049   0.122   1.867
 6391TIP3    H219119   0.973   0.040   1.970
 6392TIP3   OH219120   6.390   6.233   6.412
 6392TIP3    H119121   6.384   6.138   6.415
 6392TIP3    H219122   6.413   6.253   6.321
 6393TIP3   OH219123   8.260   0.864   4.167
 6393TIP3    H119124   8.263   0.796   4.099
 6393TIP3    H219125   8.332   0.841   4.227
 6394TIP3   OH219126   5.586   5.105   0.238
 6394TIP3    H119127   5.528   5.181   0.240
 6394TIP3    H219128   5.585   5.071   0.328
 6395TIP3   OH219129   6.433   7.435   4.508
 6395TIP3    H119130   6.368   7.418   4.440
 6395TIP3    H219131   6.470   7.349   4.529
 6396TIP3   OH219132   5.206   6.381   0.545
 6396TIP3    H119133   5.283   6.331   0.572
 6396TIP3    H219134   5.168   6.328   0.475
 6397TIP3   OH219135   7.938   6.504   4.513
 6397TIP3    H119136   7.915   6.463   4.597
 6397TIP3    H219137   8.018   6.553   4.531
 6398TIP3   OH219138   5.660   6.364   5.274
 6398TIP3    H119139   5.693   6.312   5.202
 6398TIP3    H219140   5.738   6.398   5.318
 6399TIP3   OH219141   1.286   6.830   3.158
 6399TIP3    H119142   1.244   6.907   3.196
 6399TIP3    H219143   1.337   6.793   3.230
 6400TIP3   OH219144   0.034   2.814   6.711
 6400TIP3    H119145   0.095   2.766   6.655
 6400TIP3    H219146  -0.016   2.745   6.756
 6401TIP3   OH219147   0.894   4.988   1.593
 6401TIP3    H119148   0.972   4.944   1.559
 6401TIP3    H219149   0.888   5.069   1.542
 6402TIP3   OH219150   5.026   3.258   3.713
 6402TIP3    H119151   5.033   3.353   3.698
 6402TIP3    H219152   4.956   3.249   3.778
 6403TIP3   OH219153   2.282   6.179   3.676
 6403TIP3    H119154   2.356   6.184   3.737
 6403TIP3    H219155   2.232   6.103   3.705
 6404TIP3   OH219156   2.393   1.620   3.193
 6404TIP3    H119157   2.320   1.618   3.131
 6404TIP3    H219158   2.358   1.665   3.270
 6405TIP3   OH219159   7.524   1.173   0.039
 6405TIP3    H119160   7.512   1.115  -0.036
 6405TIP3    H219161   7.508   1.261   0.005
 6406TIP3   OH219162   1.591   0.217   2.946
 6406TIP3    H119163   1.528   0.272   2.899
 6406TIP3    H219164   1.558   0.128   2.935
 6407TIP3   OH219165   4.215   6.398   2.811
 6407TIP3    H119166   4.149   6.467   2.805
 6407TIP3    H219167   4.297   6.446   2.828
 6408TIP3   OH219168   2.292   0.295   6.076
 6408TIP3    H119169   2.243   0.377   6.078
 6408TIP3    H219170   2.226   0.227   6.066
 6409TIP3   OH219171   7.540   5.716   4.200
 6409TIP3    H119172   7.546   5.620   4.198
 6409TIP3    H219173   7.625   5.745   4.230
 6410TIP3   OH219174   8.249   4.926   4.644
 6410TIP3    H119175   8.300   4.970   4.576
 6410TIP3    H219176   8.312   4.910   4.715
 6411TIP3   OH219177   3.593   0.459   3.150
 6411TIP3    H119178   3.517   0.494   3.104
 6411TIP3    H219179   3.606   0.372   3.114
 6412TIP3   OH219180   0.857   2.525   0.926
 6412TIP3    H119181   0.795   2.468   0.971
 6412TIP3    H219182   0.889   2.473   0.852
 6413TIP3   OH219183   5.266   6.557   1.687
 6413TIP3    H119184   5.178   6.594   1.683
 6413TIP3    H219185   5.291   6.565   1.779
 6414TIP3   OH219186   5.756   4.381   5.098
 6414TIP3    H119187   5.813   4.395   5.023
 6414TIP3    H219188   5.807   4.327   5.158
 6415TIP3   OH219189   6.530   2.877   2.569
 6415TIP3    H119190   6.576   2.940   2.624
 6415TIP3    H219191   6.504   2.928   2.491
 6416TIP3   OH219192   1.971   4.382   1.600
 6416TIP3    H119193   2.002   4.300   1.562
 6416TIP3    H219194   2.016   4.450   1.550
 6417TIP3   OH219195   0.454   7.680   1.337
 6417TIP3    H119196   0.402   7.757   1.359
 6417TIP3    H219197   0.488   7.698   1.250
 6418TIP3   OH219198   2.855   4.245   5.395
 6418TIP3    H119199   2.769   4.223   5.432
 6418TIP3    H219200   2.896   4.160   5.378
 6419TIP3   OH219201   2.029   3.221   6.063
 6419TIP3    H119202   1.974   3.281   6.113
 6419TIP3    H219203   2.048   3.149   6.123
 6420TIP3   OH219204   6.251   1.926   1.949
 6420TIP3    H119205   6.332   1.936   2.000
 6420TIP3    H219206   6.279   1.941   1.858
 6421TIP3   OH219207   3.258   7.586   3.439
 6421TIP3    H119208   3.263   7.491   3.432
 6421TIP3    H219209   3.295   7.619   3.358
 6422TIP3   OH219210   3.004   0.024   6.787
 6422TIP3    H119211   2.927   0.069   6.821
 6422TIP3    H219212   2.997   0.034   6.692
 6423TIP3   OH219213   0.586   5.915   2.979
 6423TIP3    H119214   0.505   5.864   2.988
 6423TIP3    H219215   0.648   5.873   3.038
 6424TIP3   OH219216   3.907   6.845   4.097
 6424TIP3    H119217   3.819   6.883   4.092
 6424TIP3    H219218   3.958   6.910   4.147
 6425TIP3   OH219219   3.061   5.292   0.030
 6425TIP3    H119220   3.138   5.317   0.081
 6425TIP3    H219221   3.090   5.218  -0.023
 6426TIP3   OH219222   4.774   5.753   2.295
 6426TIP3    H119223   4.727   5.836   2.286
 6426TIP3    H219224   4.756   5.725   2.384
 6427TIP3   OH219225   6.369   5.405   5.109
 6427TIP3    H119226   6.298   5.370   5.055
 6427TIP3    H219227   6.336   5.400   5.198
 6428TIP3   OH219228   1.528   2.059   4.053
 6428TIP3    H119229   1.453   2.012   4.088
 6428TIP3    H219230   1.504   2.079   3.962
 6429TIP3   OH219231   7.262   6.997   5.284
 6429TIP3    H119232   7.309   6.914   5.297
 6429TIP3    H219233   7.254   7.034   5.372
 6430TIP3   OH219234   0.232   1.213   2.447
 6430TIP3    H119235   0.167   1.249   2.507
 6430TIP3    H219236   0.298   1.281   2.440
 6431TIP3   OH219237   1.794   1.565   2.475
 6431TIP3    H119238   1.826   1.490   2.525
 6431TIP3    H219239   1.865   1.630   2.480
 6432TIP3   OH219240   5.101   7.318   3.361
 6432TIP3    H119241   5.054   7.271   3.430
 6432TIP3    H219242   5.152   7.384   3.407
 6433TIP3   OH219243   6.917   7.136   4.071
 6433TIP3    H119244   6.982   7.199   4.039
 6433TIP3    H219245   6.868   7.184   4.138
 6434TIP3   OH219246   6.395   6.114   3.645
 6434TIP3    H119247   6.303   6.110   3.620
 6434TIP3    H219248   6.414   6.027   3.682
 6435TIP3   OH219249   2.990   4.793   6.634
 6435TIP3    H119250   3.082   4.769   6.636
 6435TIP3    H219251   2.957   4.770   6.721
 6436TIP3   OH219252   5.513   1.228   3.142
 6436TIP3    H119253   5.452   1.286   3.097
 6436TIP3    H219254   5.536   1.161   3.077
 6437TIP3   OH219255   3.908   7.541   0.680
 6437TIP3    H119256   3.939   7.523   0.591
 6437TIP3    H219257   3.850   7.616   0.670
 6438TIP3   OH219258   6.821   1.539   3.489
 6438TIP3    H119259   6.752   1.475   3.473
 6438TIP3    H219260   6.799   1.578   3.573
 6439TIP3   OH219261   5.311   1.220   4.190
 6439TIP3    H119262   5.307   1.140   4.138
 6439TIP3    H219263   5.361   1.281   4.136
 6440TIP3   OH219264   3.370   1.795   0.432
 6440TIP3    H119265   3.462   1.769   0.425
 6440TIP3    H219266   3.360   1.824   0.523
 6441TIP3   OH219267   2.038   7.150   2.616
 6441TIP3    H119268   2.038   7.055   2.610
 6441TIP3    H219269   2.005   7.179   2.531
 6442TIP3   OH219270   1.069   3.333   3.351
 6442TIP3    H119271   1.117   3.413   3.328
 6442TIP3    H219272   0.998   3.362   3.408
 6443TIP3   OH219273   3.612   5.731   4.119
 6443TIP3    H119274   3.657   5.649   4.099
 6443TIP3    H219275   3.667   5.799   4.082
 6444TIP3   OH219276   5.679   5.538   1.791
 6444TIP3    H119277   5.733   5.459   1.792
 6444TIP3    H219278   5.661   5.556   1.883
 6445TIP3   OH219279   2.803   0.483   0.448
 6445TIP3    H119280   2.854   0.542   0.505
 6445TIP3    H219281   2.715   0.521   0.448
 6446TIP3   OH219282   0.170   5.036   3.986
 6446TIP3    H119283   0.102   5.085   4.032
 6446TIP3    H219284   0.193   4.965   4.046
 6447TIP3   OH219285   3.497   4.814   1.068
 6447TIP3    H119286   3.438   4.782   1.137
 6447TIP3    H219287   3.584   4.787   1.096
 6448TIP3   OH219288   1.034   4.412   4.710
 6448TIP3    H119289   0.986   4.363   4.643
 6448TIP3    H219290   1.115   4.363   4.722
 6449TIP3   OH219291   5.472   5.075   1.465
 6449TIP3    H119292   5.563   5.102   1.479
 6449TIP3    H219293   5.467   5.054   1.371
 6450TIP3   OH219294   2.505   0.900   2.114
 6450TIP3    H119295   2.538   0.819   2.077
 6450TIP3    H219296   2.489   0.880   2.206
 6451TIP3   OH219297   0.729   4.213   6.728
 6451TIP3    H119298   0.681   4.245   6.805
 6451TIP3    H219299   0.724   4.286   6.666
 6452TIP3   OH219300   2.552   1.427   0.412
 6452TIP3    H119301   2.559   1.488   0.486
 6452TIP3    H219302   2.460   1.400   0.411
 6453TIP3   OH219303   2.596   2.314   0.108
 6453TIP3    H119304   2.607   2.318   0.203
 6453TIP3    H219305   2.593   2.220   0.089
 6454TIP3   OH219306   1.028   5.171   0.305
 6454TIP3    H119307   1.072   5.254   0.285
 6454TIP3    H219308   1.098   5.106   0.308
 6455TIP3   OH219309   1.366   1.982   6.210
 6455TIP3    H119310   1.292   1.992   6.270
 6455TIP3    H219311   1.443   1.976   6.268
 6456TIP3   OH219312   7.820   1.985   1.920
 6456TIP3    H119313   7.851   1.928   1.849
 6456TIP3    H219314   7.733   2.013   1.892
 6457TIP3   OH219315   1.332   1.142   0.427
 6457TIP3    H119316   1.303   1.174   0.341
 6457TIP3    H219317   1.392   1.071   0.407
 6458TIP3   OH219318   4.218   2.964   3.943
 6458TIP3    H119319   4.149   2.975   4.008
 6458TIP3    H219320   4.239   2.870   3.946
 6459TIP3   OH219321   2.612   6.591   4.121
 6459TIP3    H119322   2.600   6.498   4.100
 6459TIP3    H219323   2.544   6.636   4.071
 6460TIP3   OH219324   4.869   6.421   1.680
 6460TIP3    H119325   4.924   6.498   1.682
 6460TIP3    H219326   4.919   6.354   1.727
 6461TIP3   OH219327   0.612   6.376   4.035
 6461TIP3    H119328   0.586   6.424   4.114
 6461TIP3    H219329   0.677   6.314   4.066
 6462TIP3   OH219330   2.038   0.547   1.360
 6462TIP3    H119331   1.948   0.564   1.387
 6462TIP3    H219332   2.089   0.557   1.440
 6463TIP3   OH219333   2.230   5.504   4.407
 6463TIP3    H119334   2.295   5.542   4.467
 6463TIP3    H219335   2.145   5.529   4.445
 6464TIP3   OH219336   0.403   5.247   6.460
 6464TIP3    H119337   0.484   5.292   6.485
 6464TIP3    H219338   0.428   5.189   6.389
 6465TIP3   OH219339   2.148   7.738   5.017
 6465TIP3    H119340   2.192   7.812   4.977
 6465TIP3    H219341   2.055   7.754   5.001
 6466TIP3   OH219342   4.688   7.695   2.048
 6466TIP3    H119343   4.759   7.691   2.111
 6466TIP3    H219344   4.732   7.691   1.963
 6467TIP3   OH219345   7.100   3.644   0.047
 6467TIP3    H119346   7.014   3.622   0.083
 6467TIP3    H219347   7.154   3.566   0.064
 6468TIP3   OH219348   0.832   6.375   0.080
 6468TIP3    H119349   0.800   6.379  -0.010
 6468TIP3    H219350   0.877   6.459   0.093
 6469TIP3   OH219351   6.170   6.237   4.892
 6469TIP3    H119352   6.107   6.230   4.821
 6469TIP3    H219353   6.120   6.216   4.971
 6470TIP3   OH219354   6.554   6.210   3.129
 6470TIP3    H119355   6.589   6.293   3.162
 6470TIP3    H219356   6.478   6.236   3.077
 6471TIP3   OH219357   4.524   2.107   5.709
 6471TIP3    H119358   4.562   2.112   5.622
 6471TIP3    H219359   4.597   2.083   5.767
 6472TIP3   OH219360   3.507   2.274   4.480
 6472TIP3    H119361   3.568   2.210   4.442
 6472TIP3    H219362   3.426   2.225   4.491
 6473TIP3   OH219363   5.578   5.239   2.455
 6473TIP3    H119364   5.535   5.158   2.429
 6473TIP3    H219365   5.654   5.245   2.397
 6474TIP3   OH219366   4.526   4.747   2.012
 6474TIP3    H119367   4.552   4.723   2.101
 6474TIP3    H219368   4.457   4.685   1.989
 6475TIP3   OH219369   2.820   4.972   0.293
 6475TIP3    H119370   2.825   4.982   0.198
 6475TIP3    H219371   2.879   4.900   0.314
 6476TIP3   OH219372   5.935   3.174   1.773
 6476TIP3    H119373   5.997   3.173   1.701
 6476TIP3    H219374   5.933   3.266   1.801
 6477TIP3   OH219375   0.701   7.351   1.359
 6477TIP3    H119376   0.706   7.411   1.285
 6477TIP3    H219377   0.786   7.358   1.402
 6478TIP3   OH219378   5.240   4.957   2.106
 6478TIP3    H119379   5.214   5.048   2.123
 6478TIP3    H219380   5.229   4.946   2.012
 6479TIP3   OH219381   4.152   5.078   5.791
 6479TIP3    H119382   4.069   5.103   5.749
 6479TIP3    H219383   4.127   5.049   5.878
 6480TIP3   OH219384   2.993   3.171   2.337
 6480TIP3    H119385   3.000   3.150   2.430
 6480TIP3    H219386   2.996   3.266   2.333
 6481TIP3   OH219387   5.201   1.951   1.220
 6481TIP3    H119388   5.160   1.979   1.138
 6481TIP3    H219389   5.130   1.957   1.284
 6482TIP3   OH219390   6.316   1.948   4.502
 6482TIP3    H119391   6.253   2.012   4.534
 6482TIP3    H219392   6.277   1.863   4.523
 6483TIP3   OH219393   2.982   6.356   5.921
 6483TIP3    H119394   2.986   6.428   5.858
 6483TIP3    H219395   2.910   6.379   5.980
 6484TIP3   OH219396   7.584   3.834   5.419
 6484TIP3    H119397   7.508   3.779   5.399
 6484TIP3    H219398   7.649   3.773   5.455
 6485TIP3   OH219399   1.092   5.849   3.169
 6485TIP3    H119400   1.094   5.909   3.095
 6485TIP3    H219401   1.062   5.766   3.132
 6486TIP3   OH219402   6.191   6.324   4.188
 6486TIP3    H119403   6.166   6.273   4.111
 6486TIP3    H219404   6.180   6.263   4.261
 6487TIP3   OH219405   2.733   0.640   5.193
 6487TIP3    H119406   2.639   0.658   5.201
 6487TIP3    H219407   2.740   0.545   5.200
 6488TIP3   OH219408   5.589   0.298   5.274
 6488TIP3    H119409   5.596   0.236   5.202
 6488TIP3    H219410   5.624   0.252   5.350
 6489TIP3   OH219411   3.849   3.509   3.951
 6489TIP3    H119412   3.835   3.603   3.940
 6489TIP3    H219413   3.780   3.469   3.898
 6490TIP3   OH219414   2.174   6.008   5.363
 6490TIP3    H119415   2.237   6.076   5.340
 6490TIP3    H219416   2.095   6.056   5.388
 6491TIP3   OH219417   3.424   3.042   4.470
 6491TIP3    H119418   3.395   2.958   4.436
 6491TIP3    H219419   3.507   3.024   4.513
 6492TIP3   OH219420   4.296   4.010   6.070
 6492TIP3    H119421   4.226   3.963   6.024
 6492TIP3    H219422   4.364   4.022   6.004
 6493TIP3   OH219423   0.695   6.613   5.850
 6493TIP3    H119424   0.618   6.602   5.906
 6493TIP3    H219425   0.738   6.528   5.853
 6494TIP3   OH219426   7.703   4.236   5.968
 6494TIP3    H119427   7.764   4.302   6.003
 6494TIP3    H219428   7.703   4.252   5.873
 6495TIP3   OH219429   7.391   6.126   3.560
 6495TIP3    H119430   7.403   6.051   3.501
 6495TIP3    H219431   7.478   6.143   3.596
 6496TIP3   OH219432   5.980   0.827   5.735
 6496TIP3    H119433   6.021   0.790   5.656
 6496TIP3    H219434   5.910   0.766   5.757
 6497TIP3   OH219435   2.542   6.419   4.377
 6497TIP3    H119436   2.549   6.375   4.292
 6497TIP3    H219437   2.623   6.396   4.423
 6498TIP3   OH219438   1.101   3.733   5.533
 6498TIP3    H119439   1.188   3.703   5.508
 6498TIP3    H219440   1.049   3.653   5.540
 6499TIP3   OH219441   1.834   7.747   1.004
 6499TIP3    H119442   1.823   7.782   0.916
 6499TIP3    H219443   1.908   7.687   0.996
 6500TIP3   OH219444   5.473   5.740   5.277
 6500TIP3    H119445   5.501   5.800   5.208
 6500TIP3    H219446   5.512   5.656   5.253
 6501TIP3   OH219447   4.409   2.511   3.435
 6501TIP3    H119448   4.471   2.518   3.507
 6501TIP3    H219449   4.402   2.418   3.418
 6502TIP3   OH219450   2.245   0.957   2.019
 6502TIP3    H119451   2.336   0.950   2.048
 6502TIP3    H219452   2.246   1.028   1.956
 6503TIP3   OH219453   3.714   0.661   0.820
 6503TIP3    H119454   3.785   0.725   0.813
 6503TIP3    H219455   3.692   0.659   0.913
 6504TIP3   OH219456   1.514   4.880   3.161
 6504TIP3    H119457   1.436   4.899   3.214
 6504TIP3    H219458   1.536   4.964   3.120
 6505TIP3   OH219459   4.903   4.405   0.476
 6505TIP3    H119460   4.907   4.392   0.571
 6505TIP3    H219461   4.978   4.460   0.456
 6506TIP3   OH219462   6.684   7.468   2.082
 6506TIP3    H119463   6.727   7.396   2.037
 6506TIP3    H219464   6.594   7.439   2.094
 6507TIP3   OH219465   4.673   4.831   6.720
 6507TIP3    H119466   4.641   4.745   6.746
 6507TIP3    H219467   4.609   4.863   6.657
 6508TIP3   OH219468   3.525   3.570   2.362
 6508TIP3    H119469   3.531   3.616   2.278
 6508TIP3    H219470   3.550   3.636   2.427
 6509TIP3   OH219471   7.303   6.734   5.965
 6509TIP3    H119472   7.391   6.771   5.963
 6509TIP3    H219473   7.311   6.649   5.923
 6510TIP3   OH219474   5.563   0.650   5.817
 6510TIP3    H119475   5.597   0.732   5.782
 6510TIP3    H219476   5.551   0.595   5.740
 6511TIP3   OH219477   3.266   1.684   3.848
 6511TIP3    H119478   3.322   1.724   3.781
 6511TIP3    H219479   3.309   1.600   3.867
 6512TIP3   OH219480   4.593   3.163   4.602
 6512TIP3    H119481   4.642   3.082   4.611
 6512TIP3    H219482   4.510   3.137   4.562
 6513TIP3   OH219483   4.902   5.553   1.060
 6513TIP3    H119484   4.849   5.488   1.105
 6513TIP3    H219485   4.992   5.523   1.071
 6514TIP3   OH219486   0.552   0.797   2.897
 6514TIP3    H119487   0.477   0.856   2.889
 6514TIP3    H219488   0.616   0.846   2.948
 6515TIP3   OH219489   3.822   5.425   2.049
 6515TIP3    H119490   3.854   5.497   2.104
 6515TIP3    H219491   3.883   5.423   1.975
 6516TIP3   OH219492   4.222   1.954   3.887
 6516TIP3    H119493   4.303   2.005   3.889
 6516TIP3    H219494   4.182   1.969   3.973
 6517TIP3   OH219495   3.709   1.543   2.703
 6517TIP3    H119496   3.725   1.583   2.618
 6517TIP3    H219497   3.732   1.611   2.766
 6518TIP3   OH219498   1.061   1.184   3.751
 6518TIP3    H119499   1.044   1.223   3.665
 6518TIP3    H219500   1.152   1.154   3.746
 6519TIP3   OH219501   3.265   0.466   2.077
 6519TIP3    H119502   3.279   0.415   2.157
 6519TIP3    H219503   3.286   0.406   2.006
 6520TIP3   OH219504   1.361   2.565   5.948
 6520TIP3    H119505   1.427   2.569   6.017
 6520TIP3    H219506   1.329   2.655   5.939
 6521TIP3   OH219507   3.888   1.961   1.142
 6521TIP3    H119508   3.910   1.941   1.233
 6521TIP3    H219509   3.957   1.917   1.091
 6522TIP3   OH219510   6.232   6.860   5.445
 6522TIP3    H119511   6.310   6.876   5.498
 6522TIP3    H219512   6.169   6.821   5.505
 6523TIP3   OH219513   3.324   3.771   1.462
 6523TIP3    H119514   3.372   3.738   1.386
 6523TIP3    H219515   3.343   3.865   1.463
 6524TIP3   OH219516   6.829   4.269   1.542
 6524TIP3    H119517   6.776   4.189   1.538
 6524TIP3    H219518   6.897   4.257   1.476
 6525TIP3   OH219519   2.925   5.025   3.212
 6525TIP3    H119520   2.866   5.094   3.243
 6525TIP3    H219521   2.891   4.945   3.251
 6526TIP3   OH219522   6.385   2.440   2.598
 6526TIP3    H119523   6.458   2.441   2.536
 6526TIP3    H219524   6.391   2.354   2.641
 6527TIP3   OH219525   0.994   4.349   3.206
 6527TIP3    H119526   0.996   4.434   3.164
 6527TIP3    H219527   1.085   4.327   3.222
 6528TIP3   OH219528   1.395   0.281   5.263
 6528TIP3    H119529   1.481   0.318   5.244
 6528TIP3    H219530   1.399   0.258   5.356
 6529TIP3   OH219531   5.125   3.226   0.521
 6529TIP3    H119532   5.035   3.209   0.550
 6529TIP3    H219533   5.130   3.186   0.435
 6530TIP3   OH219534   3.638   1.699   0.537
 6530TIP3    H119535   3.626   1.662   0.625
 6530TIP3    H219536   3.663   1.623   0.484
 6531TIP3   OH219537   4.431   5.300   2.218
 6531TIP3    H119538   4.450   5.274   2.128
 6531TIP3    H219539   4.401   5.220   2.261
 6532TIP3   OH219540   2.133   0.248   3.750
 6532TIP3    H119541   2.127   0.226   3.843
 6532TIP3    H219542   2.101   0.170   3.704
 6533TIP3   OH219543   8.061   1.892   6.715
 6533TIP3    H119544   8.131   1.834   6.685
 6533TIP3    H219545   7.997   1.834   6.756
 6534TIP3   OH219546   7.979   1.891   3.778
 6534TIP3    H119547   8.060   1.873   3.729
 6534TIP3    H219548   7.941   1.967   3.734
 6535TIP3   OH219549   0.881   1.620   0.286
 6535TIP3    H119550   0.797   1.575   0.283
 6535TIP3    H219551   0.877   1.674   0.365
 6536TIP3   OH219552   4.792   5.999   0.989
 6536TIP3    H119553   4.774   5.905   0.984
 6536TIP3    H219554   4.864   6.013   0.928
 6537TIP3   OH219555   4.597   5.873   6.548
 6537TIP3    H119556   4.603   5.831   6.634
 6537TIP3    H219557   4.634   5.809   6.487
 6538TIP3   OH219558   2.190   1.767   5.945
 6538TIP3    H119559   2.222   1.805   5.863
 6538TIP3    H219560   2.107   1.725   5.922
 6539TIP3   OH219561   3.993   6.125   6.391
 6539TIP3    H119562   3.960   6.200   6.440
 6539TIP3    H219563   4.088   6.129   6.404
 6540TIP3   OH219564   5.961   3.718   2.554
 6540TIP3    H119565   5.873   3.693   2.525
 6540TIP3    H219566   5.973   3.671   2.636
 6541TIP3   OH219567   0.750   5.382   1.284
 6541TIP3    H119568   0.663   5.343   1.275
 6541TIP3    H219569   0.743   5.467   1.239
 6542TIP3   OH219570   0.682   1.110   2.564
 6542TIP3    H119571   0.610   1.058   2.526
 6542TIP3    H219572   0.653   1.201   2.554
 6543TIP3   OH219573   8.035   7.591   2.767
 6543TIP3    H119574   8.059   7.501   2.745
 6543TIP3    H219575   7.973   7.583   2.840
 6544TIP3   OH219576   0.312   5.410   2.581
 6544TIP3    H119577   0.318   5.378   2.671
 6544TIP3    H219578   0.279   5.335   2.531
 6545TIP3   OH219579   6.908   2.698   0.222
 6545TIP3    H119580   6.900   2.612   0.180
 6545TIP3    H219581   6.997   2.700   0.255
 6546TIP3   OH219582   6.473   1.644   0.516
 6546TIP3    H119583   6.498   1.659   0.607
 6546TIP3    H219584   6.386   1.683   0.509
 6547TIP3   OH219585   4.986   3.527   0.412
 6547TIP3    H119586   5.017   3.445   0.452
 6547TIP3    H219587   4.906   3.502   0.366
 6548TIP3   OH219588   5.155   0.879   2.706
 6548TIP3    H119589   5.200   0.819   2.764
 6548TIP3    H219590   5.083   0.915   2.758
 6549TIP3   OH219591   4.277   5.166   4.988
 6549TIP3    H119592   4.255   5.197   5.076
 6549TIP3    H219593   4.323   5.083   5.003
 6550TIP3   OH219594   3.964   6.842   3.307
 6550TIP3    H119595   3.978   6.828   3.213
 6550TIP3    H219596   3.968   6.755   3.346
 6551TIP3   OH219597   0.927   0.525   0.202
 6551TIP3    H119598   0.921   0.565   0.289
 6551TIP3    H219599   1.021   0.517   0.185
 6552TIP3   OH219600   0.589   6.712   5.597
 6552TIP3    H119601   0.591   6.801   5.563
 6552TIP3    H219602   0.659   6.709   5.662
 6553TIP3   OH219603   1.304   6.320   5.083
 6553TIP3    H119604   1.348   6.309   5.167
 6553TIP3    H219605   1.225   6.371   5.103
 6554TIP3   OH219606   1.266   4.828   6.468
 6554TIP3    H119607   1.247   4.886   6.542
 6554TIP3    H219608   1.359   4.843   6.449
 6555TIP3   OH219609   7.376   7.417   2.960
 6555TIP3    H119610   7.356   7.329   2.994
 6555TIP3    H219611   7.340   7.417   2.871
 6556TIP3   OH219612   3.215   7.378   3.147
 6556TIP3    H119613   3.172   7.300   3.115
 6556TIP3    H219614   3.205   7.374   3.242
 6557TIP3   OH219615   5.215   5.551   1.528
 6557TIP3    H119616   5.302   5.540   1.566
 6557TIP3    H219617   5.180   5.630   1.569
 6558TIP3   OH219618   5.708   0.465   4.374
 6558TIP3    H119619   5.740   0.551   4.346
 6558TIP3    H219620   5.649   0.439   4.303
 6559TIP3   OH219621   3.893   4.677   2.409
 6559TIP3    H119622   3.887   4.704   2.318
 6559TIP3    H219623   3.964   4.613   2.412
 6560TIP3   OH219624   3.768   4.418   3.169
 6560TIP3    H119625   3.764   4.478   3.243
 6560TIP3    H219626   3.861   4.415   3.145
 6561TIP3   OH219627   5.002   2.367   4.079
 6561TIP3    H119628   4.988   2.297   4.142
 6561TIP3    H219629   5.042   2.437   4.129
 6562TIP3   OH219630   4.274   3.879   2.146
 6562TIP3    H119631   4.267   3.918   2.060
 6562TIP3    H219632   4.262   3.785   2.131
 6563TIP3   OH219633   6.629   1.369   3.367
 6563TIP3    H119634   6.608   1.304   3.301
 6563TIP3    H219635   6.598   1.452   3.330
 6564TIP3   OH219636   5.692   3.224   3.331
 6564TIP3    H119637   5.706   3.285   3.403
 6564TIP3    H219638   5.713   3.274   3.252
 6565TIP3   OH219639   4.112   2.456   2.906
 6565TIP3    H119640   4.024   2.444   2.868
 6565TIP3    H219641   4.146   2.367   2.915
 6566TIP3   OH219642   7.385   1.744   6.094
 6566TIP3    H119643   7.463   1.708   6.138
 6566TIP3    H219644   7.389   1.708   6.006
 6567TIP3   OH219645   2.965   2.995   4.346
 6567TIP3    H119646   3.027   2.957   4.408
 6567TIP3    H219647   3.018   3.019   4.270
 6568TIP3   OH219648   1.193   5.862   6.405
 6568TIP3    H119649   1.186   5.901   6.492
 6568TIP3    H219650   1.247   5.924   6.355
 6569TIP3   OH219651   1.044   6.121   6.352
 6569TIP3    H119652   1.065   6.214   6.339
 6569TIP3    H219653   1.119   6.074   6.316
 6570TIP3   OH219654   2.955   0.824   1.645
 6570TIP3    H119655   3.013   0.889   1.605
 6570TIP3    H219656   2.966   0.746   1.591
 6571TIP3   OH219657   4.426   6.259   4.007
 6571TIP3    H119658   4.387   6.274   4.093
 6571TIP3    H219659   4.517   6.285   4.018
 6572TIP3   OH219660   3.591   1.026   2.049
 6572TIP3    H119661   3.540   1.105   2.067
 6572TIP3    H219662   3.665   1.057   1.997
 6573TIP3   OH219663   4.871   3.268   6.155
 6573TIP3    H119664   4.825   3.294   6.075
 6573TIP3    H219665   4.801   3.243   6.216
 6574TIP3   OH219666   0.367   4.011   3.998
 6574TIP3    H119667   0.463   4.014   3.990
 6574TIP3    H219668   0.338   4.093   3.959
 6575TIP3   OH219669   2.910   7.260   5.969
 6575TIP3    H119670   2.924   7.193   5.902
 6575TIP3    H219671   2.877   7.212   6.044
 6576TIP3   OH219672   3.003   4.149   2.478
 6576TIP3    H119673   2.910   4.169   2.464
 6576TIP3    H219674   3.003   4.060   2.514
 6577TIP3   OH219675   4.656   1.142   1.568
 6577TIP3    H119676   4.721   1.113   1.504
 6577TIP3    H219677   4.684   1.102   1.650
 6578TIP3   OH219678   2.976   1.402   1.098
 6578TIP3    H119679   2.958   1.462   1.025
 6578TIP3    H219680   2.891   1.362   1.117
 6579TIP3   OH219681   2.303   0.429   6.701
 6579TIP3    H119682   2.275   0.351   6.748
 6579TIP3    H219683   2.235   0.443   6.634
 6580TIP3   OH219684   4.003   3.695   1.153
 6580TIP3    H119685   4.093   3.694   1.121
 6580TIP3    H219686   4.007   3.745   1.234
 6581TIP3   OH219687   6.046   7.472   2.696
 6581TIP3    H119688   6.106   7.531   2.741
 6581TIP3    H219689   5.963   7.481   2.744
 6582TIP3   OH219690   6.035   1.825   0.102
 6582TIP3    H119691   6.096   1.897   0.116
 6582TIP3    H219692   5.951   1.867   0.086
 6583TIP3   OH219693   6.978   0.264   1.058
 6583TIP3    H119694   7.053   0.321   1.076
 6583TIP3    H219695   6.955   0.284   0.967
 6584TIP3   OH219696   8.101   7.606   4.193
 6584TIP3    H119697   8.009   7.630   4.189
 6584TIP3    H219698   8.117   7.556   4.113
 6585TIP3   OH219699   3.592   2.792   5.307
 6585TIP3    H119700   3.557   2.840   5.383
 6585TIP3    H219701   3.543   2.826   5.232
 6586TIP3   OH219702   5.992   5.496   6.248
 6586TIP3    H119703   5.980   5.558   6.176
 6586TIP3    H219704   5.930   5.524   6.315
 6587TIP3   OH219705   4.603   4.524   0.321
 6587TIP3    H119706   4.558   4.601   0.356
 6587TIP3    H219707   4.557   4.450   0.358
 6588TIP3   OH219708   2.747   2.089   0.972
 6588TIP3    H119709   2.753   2.017   0.909
 6588TIP3    H219710   2.817   2.149   0.947
 6589TIP3   OH219711   1.229   7.237   3.706
 6589TIP3    H119712   1.149   7.289   3.693
 6589TIP3    H219713   1.208   7.180   3.780
 6590TIP3   OH219714   0.969   3.477   5.500
 6590TIP3    H119715   0.982   3.464   5.406
 6590TIP3    H219716   1.019   3.406   5.541
 6591TIP3   OH219717   2.786   6.567   6.363
 6591TIP3    H119718   2.712   6.506   6.363
 6591TIP3    H219719   2.841   6.538   6.436
 6592TIP3   OH219720   5.923   2.360   1.892
 6592TIP3    H119721   5.899   2.269   1.910
 6592TIP3    H219722   5.847   2.396   1.846
 6593TIP3   OH219723   3.976   3.246   3.364
 6593TIP3    H119724   4.014   3.160   3.381
 6593TIP3    H219725   4.005   3.301   3.437
 6594TIP3   OH219726   0.662   1.072   0.169
 6594TIP3    H119727   0.724   1.085   0.097
 6594TIP3    H219728   0.583   1.116   0.140
 6595TIP3   OH219729   4.996   1.708   0.018
 6595TIP3    H119730   4.918   1.652   0.019
 6595TIP3    H219731   5.069   1.646   0.026
 6596TIP3   OH219732   1.636   3.824   0.351
 6596TIP3    H119733   1.556   3.841   0.302
 6596TIP3    H219734   1.612   3.837   0.443
 6597TIP3   OH219735   3.070   6.749   4.682
 6597TIP3    H119736   2.990   6.713   4.721
 6597TIP3    H219737   3.105   6.807   4.750
 6598TIP3   OH219738   0.204   1.284   3.784
 6598TIP3    H119739   0.114   1.259   3.807
 6598TIP3    H219740   0.212   1.261   3.692
 6599TIP3   OH219741   3.044   2.303   5.402
 6599TIP3    H119742   3.124   2.354   5.390
 6599TIP3    H219743   3.021   2.273   5.315
 6600TIP3   OH219744   2.991   6.332   1.064
 6600TIP3    H119745   3.080   6.344   1.032
 6600TIP3    H219746   2.955   6.262   1.009
 6601TIP3   OH219747   6.598   3.584   3.491
 6601TIP3    H119748   6.545   3.645   3.541
 6601TIP3    H219749   6.631   3.635   3.417
 6602TIP3   OH219750   3.335   2.111   3.775
 6602TIP3    H119751   3.429   2.127   3.782
 6602TIP3    H219752   3.323   2.079   3.686
 6603TIP3   OH219753   2.244   1.450   3.473
 6603TIP3    H119754   2.324   1.484   3.512
 6603TIP3    H219755   2.268   1.363   3.441
 6604TIP3   OH219756   6.850   2.110   6.090
 6604TIP3    H119757   6.911   2.060   6.036
 6604TIP3    H219758   6.845   2.195   6.047
 6605TIP3   OH219759   5.602   3.019   1.699
 6605TIP3    H119760   5.631   2.949   1.641
 6605TIP3    H219761   5.642   2.999   1.784
 6606TIP3   OH219762   1.408   3.552   1.950
 6606TIP3    H119763   1.396   3.466   1.909
 6606TIP3    H219764   1.500   3.555   1.975
 6607TIP3   OH219765   6.359   0.919   6.656
 6607TIP3    H119766   6.316   0.893   6.738
 6607TIP3    H219767   6.294   0.900   6.588
 6608TIP3   OH219768   2.665   0.387   1.924
 6608TIP3    H119769   2.681   0.296   1.949
 6608TIP3    H219770   2.746   0.416   1.882
 6609TIP3   OH219771   7.193   4.747   5.495
 6609TIP3    H119772   7.266   4.766   5.436
 6609TIP3    H219773   7.213   4.660   5.531
 6610TIP3   OH219774   7.368   7.295   0.848
 6610TIP3    H119775   7.394   7.388   0.848
 6610TIP3    H219776   7.449   7.248   0.866
 6611TIP3   OH219777   2.351   4.645   6.590
 6611TIP3    H119778   2.398   4.641   6.673
 6611TIP3    H219779   2.354   4.555   6.556
 6612TIP3   OH219780   8.228   6.033   0.990
 6612TIP3    H119781   8.270   5.988   0.917
 6612TIP3    H219782   8.236   5.972   1.064
 6613TIP3   OH219783   3.960   1.809   4.867
 6613TIP3    H119784   4.011   1.888   4.848
 6613TIP3    H219785   4.021   1.753   4.916
 6614TIP3   OH219786   0.707   1.424   2.896
 6614TIP3    H119787   0.626   1.404   2.944
 6614TIP3    H219788   0.691   1.510   2.856
 6615TIP3   OH219789   5.927   6.653   2.348
 6615TIP3    H119790   5.932   6.604   2.431
 6615TIP3    H219791   5.966   6.594   2.283
 6616TIP3   OH219792   1.003   5.496   0.548
 6616TIP3    H119793   0.946   5.505   0.624
 6616TIP3    H219794   1.091   5.490   0.585
 6617TIP3   OH219795   4.083   5.087   4.190
 6617TIP3    H119796   4.176   5.068   4.177
 6617TIP3    H219797   4.072   5.090   4.285
 6618TIP3   OH219798   5.082   0.080   4.863
 6618TIP3    H119799   5.149   0.015   4.840
 6618TIP3    H219800   5.110   0.114   4.948
 6619TIP3   OH219801   7.315   0.836   0.250
 6619TIP3    H119802   7.365   0.903   0.203
 6619TIP3    H219803   7.297   0.769   0.184
 6620TIP3   OH219804   5.417   4.081   2.201
 6620TIP3    H119805   5.509   4.105   2.191
 6620TIP3    H219806   5.370   4.164   2.192
 6621TIP3   OH219807   6.574   6.506   0.432
 6621TIP3    H119808   6.533   6.589   0.455
 6621TIP3    H219809   6.668   6.524   0.432
 6622TIP3   OH219810   0.305   6.766   6.118
 6622TIP3    H119811   0.261   6.804   6.041
 6622TIP3    H219812   0.257   6.685   6.135
 6623TIP3   OH219813   5.330   4.771   5.952
 6623TIP3    H119814   5.323   4.785   5.858
 6623TIP3    H219815   5.270   4.834   5.991
 6624TIP3   OH219816   4.033   3.764   2.933
 6624TIP3    H119817   3.987   3.686   2.962
 6624TIP3    H219818   3.970   3.808   2.876
 6625TIP3   OH219819   1.358   6.637   6.558
 6625TIP3    H119820   1.358   6.702   6.488
 6625TIP3    H219821   1.333   6.686   6.636
 6626TIP3   OH219822   4.994   3.856   2.601
 6626TIP3    H119823   4.933   3.781   2.601
 6626TIP3    H219824   4.939   3.931   2.579
 6627TIP3   OH219825   4.139   0.835   1.097
 6627TIP3    H119826   4.099   0.856   1.013
 6627TIP3    H219827   4.103   0.749   1.120
 6628TIP3   OH219828   5.592   3.021   2.332
 6628TIP3    H119829   5.658   2.952   2.331
 6628TIP3    H219830   5.518   2.982   2.378
 6629TIP3   OH219831   3.344   1.240   1.928
 6629TIP3    H119832   3.307   1.219   2.014
 6629TIP3    H219833   3.272   1.222   1.866
 6630TIP3   OH219834   7.838   0.050   0.295
 6630TIP3    H119835   7.799  -0.023   0.342
 6630TIP3    H219836   7.840   0.121   0.359
 6631TIP3   OH219837   4.864   6.362   0.156
 6631TIP3    H119838   4.846   6.307   0.080
 6631TIP3    H219839   4.958   6.382   0.149
 6632TIP3   OH219840   7.197   7.164   2.223
 6632TIP3    H119841   7.134   7.093   2.218
 6632TIP3    H219842   7.157   7.228   2.283
 6633TIP3   OH219843   2.533   7.763   5.361
 6633TIP3    H119844   2.454   7.715   5.336
 6633TIP3    H219845   2.598   7.695   5.376
 6634TIP3   OH219846   5.916   2.219   5.389
 6634TIP3    H119847   5.909   2.308   5.356
 6634TIP3    H219848   5.829   2.182   5.375
 6635TIP3   OH219849   0.831   1.400   1.681
 6635TIP3    H119850   0.749   1.366   1.645
 6635TIP3    H219851   0.817   1.402   1.775
 6636TIP3   OH219852   5.091   2.174   6.617
 6636TIP3    H119853   5.064   2.220   6.696
 6636TIP3    H219854   5.187   2.173   6.621
 6637TIP3   OH219855   1.041   3.676   2.175
 6637TIP3    H119856   1.125   3.723   2.175
 6637TIP3    H219857   0.984   3.730   2.120
 6638TIP3   OH219858   4.872   1.698   0.500
 6638TIP3    H119859   4.892   1.667   0.411
 6638TIP3    H219860   4.936   1.767   0.516
 6639TIP3   OH219861   0.492   2.157   6.460
 6639TIP3    H119862   0.533   2.127   6.379
 6639TIP3    H219863   0.409   2.109   6.465
 6640TIP3   OH219864   3.708   0.770   2.463
 6640TIP3    H119865   3.614   0.768   2.479
 6640TIP3    H219866   3.745   0.817   2.538
 6641TIP3   OH219867   2.298   5.374   6.118
 6641TIP3    H119868   2.277   5.282   6.136
 6641TIP3    H219869   2.393   5.374   6.105
 6642TIP3   OH219870   5.444   0.233   2.231
 6642TIP3    H119871   5.410   0.165   2.173
 6642TIP3    H219872   5.400   0.313   2.202
 6643TIP3   OH219873   2.972   3.200   6.492
 6643TIP3    H119874   3.044   3.237   6.441
 6643TIP3    H219875   2.963   3.111   6.460
 6644TIP3   OH219876   5.082   1.817   3.227
 6644TIP3    H119877   5.120   1.793   3.312
 6644TIP3    H219878   5.071   1.912   3.232
 6645TIP3   OH219879   2.204   0.303   2.481
 6645TIP3    H119880   2.267   0.360   2.435
 6645TIP3    H219881   2.221   0.321   2.574
 6646TIP3   OH219882   4.867   7.373   4.813
 6646TIP3    H119883   4.960   7.361   4.831
 6646TIP3    H219884   4.837   7.433   4.881
 6647TIP3   OH219885   4.387   1.836   3.563
 6647TIP3    H119886   4.398   1.879   3.479
 6647TIP3    H219887   4.297   1.801   3.561
 6648TIP3   OH219888   0.858   1.923   6.080
 6648TIP3    H119889   0.873   2.011   6.046
 6648TIP3    H219890   0.801   1.936   6.156
 6649TIP3   OH219891   5.315   6.284   1.636
 6649TIP3    H119892   5.277   6.284   1.548
 6649TIP3    H219893   5.319   6.377   1.660
 6650TIP3   OH219894   0.115   5.576   5.930
 6650TIP3    H119895   0.113   5.627   5.849
 6650TIP3    H219896   0.106   5.485   5.902
 6651TIP3   OH219897   2.804   7.313   4.260
 6651TIP3    H119898   2.767   7.240   4.210
 6651TIP3    H219899   2.850   7.271   4.333
 6652TIP3   OH219900   6.552   2.157   0.822
 6652TIP3    H119901   6.534   2.099   0.748
 6652TIP3    H219902   6.612   2.223   0.787
 6653TIP3   OH219903   7.756   2.010   1.438
 6653TIP3    H119904   7.769   2.054   1.354
 6653TIP3    H219905   7.662   1.993   1.443
 6654TIP3   OH219906   2.075   4.319   1.849
 6654TIP3    H119907   2.147   4.381   1.836
 6654TIP3    H219908   2.013   4.340   1.779
 6655TIP3   OH219909   4.179   5.839   0.941
 6655TIP3    H119910   4.095   5.854   0.897
 6655TIP3    H219911   4.229   5.785   0.879
 6656TIP3   OH219912   3.079   4.954   6.399
 6656TIP3    H119913   3.019   4.963   6.474
 6656TIP3    H219914   3.072   4.862   6.374
 6657TIP3   OH219915   2.546   2.284   1.794
 6657TIP3    H119916   2.617   2.242   1.745
 6657TIP3    H219917   2.497   2.332   1.728
 6658TIP3   OH219918   8.216   6.710   0.125
 6658TIP3    H119919   8.304   6.673   0.115
 6658TIP3    H219920   8.211   6.738   0.216
 6659TIP3   OH219921   0.933   0.755   6.578
 6659TIP3    H119922   0.904   0.825   6.636
 6659TIP3    H219923   0.943   0.797   6.493
 6660TIP3   OH219924   5.571   0.137   0.700
 6660TIP3    H119925   5.623   0.211   0.731
 6660TIP3    H219926   5.613   0.112   0.617
 6661TIP3   OH219927   5.675   7.686   6.484
 6661TIP3    H119928   5.703   7.771   6.449
 6661TIP3    H219929   5.580   7.695   6.495
 6662TIP3   OH219930   0.937   1.708   6.652
 6662TIP3    H119931   1.017   1.685   6.604
 6662TIP3    H219932   0.963   1.704   6.744
 6663TIP3   OH219933   4.921   5.591   6.365
 6663TIP3    H119934   5.011   5.621   6.383
 6663TIP3    H219935   4.921   5.572   6.271
 6664TIP3   OH219936   0.392   0.789   5.896
 6664TIP3    H119937   0.420   0.740   5.974
 6664TIP3    H219938   0.442   0.871   5.901
 6665TIP3   OH219939   8.095   5.025   4.988
 6665TIP3    H119940   8.155   5.092   4.955
 6665TIP3    H219941   8.010   5.048   4.949
 6666TIP3   OH219942   3.030   4.749   0.027
 6666TIP3    H119943   3.032   4.778  -0.064
 6666TIP3    H219944   2.945   4.706   0.037
 6667TIP3   OH219945   0.181   5.136   1.692
 6667TIP3    H119946   0.254   5.188   1.729
 6667TIP3    H219947   0.104   5.168   1.739
 6668TIP3   OH219948   8.098   0.234   1.673
 6668TIP3    H119949   8.177   0.233   1.728
 6668TIP3    H219950   8.026   0.243   1.736
 6669TIP3   OH219951   1.550   0.917   5.109
 6669TIP3    H119952   1.471   0.970   5.114
 6669TIP3    H219953   1.519   0.828   5.092
 6670TIP3   OH219954   3.593   0.585   5.335
 6670TIP3    H119955   3.629   0.518   5.277
 6670TIP3    H219956   3.663   0.650   5.343
 6671TIP3   OH219957   6.298   2.428   0.351
 6671TIP3    H119958   6.321   2.504   0.297
 6671TIP3    H219959   6.275   2.466   0.436
 6672TIP3   OH219960   0.679   4.533   1.130
 6672TIP3    H119961   0.707   4.537   1.221
 6672TIP3    H219962   0.588   4.563   1.131
 6673TIP3   OH219963   4.508   4.586   6.051
 6673TIP3    H119964   4.459   4.588   5.969
 6673TIP3    H219965   4.567   4.512   6.041
 6674TIP3   OH219966   3.254   6.267   1.239
 6674TIP3    H119967   3.181   6.227   1.286
 6674TIP3    H219968   3.321   6.282   1.306
 6675TIP3   OH219969   3.687   5.460   2.965
 6675TIP3    H119970   3.725   5.447   3.052
 6675TIP3    H219971   3.761   5.447   2.905
 6676TIP3   OH219972   1.289   7.471   1.684
 6676TIP3    H119973   1.199   7.503   1.695
 6676TIP3    H219974   1.329   7.483   1.770
 6677TIP3   OH219975   3.216   1.813   0.042
 6677TIP3    H119976   3.214   1.908   0.039
 6677TIP3    H219977   3.306   1.790   0.019
 6678TIP3   OH219978   5.516   6.138   4.527
 6678TIP3    H119979   5.473   6.220   4.502
 6678TIP3    H219980   5.444   6.074   4.532
 6679TIP3   OH219981   5.748   4.069   3.699
 6679TIP3    H119982   5.777   4.142   3.754
 6679TIP3    H219983   5.783   4.089   3.612
 6680TIP3   OH219984   0.187   6.649   0.056
 6680TIP3    H119985   0.146   6.603  -0.018
 6680TIP3    H219986   0.247   6.585   0.094
 6681TIP3   OH219987   5.300   3.179   4.274
 6681TIP3    H119988   5.289   3.123   4.198
 6681TIP3    H219989   5.300   3.268   4.238
 6682TIP3   OH219990   0.247   2.644   4.128
 6682TIP3    H119991   0.210   2.584   4.193
 6682TIP3    H219992   0.318   2.688   4.174
 6683TIP3   OH219993   0.274   3.047   3.580
 6683TIP3    H119994   0.347   3.092   3.538
 6683TIP3    H219995   0.238   2.990   3.511
 6684TIP3   OH219996   0.983   2.554   0.010
 6684TIP3    H119997   0.912   2.583  -0.047
 6684TIP3    H219998   1.007   2.632   0.061
 6685TIP3   OH219999   2.848   3.127   0.508
 6685TIP3    H120000   2.824   3.194   0.444
 6685TIP3    H220001   2.931   3.092   0.476
 6686TIP3   OH220002   0.265   6.189   2.557
 6686TIP3    H120003   0.245   6.181   2.650
 6686TIP3    H220004   0.181   6.174   2.513
 6687TIP3   OH220005   6.891   4.293   2.692
 6687TIP3    H120006   6.859   4.351   2.623
 6687TIP3    H220007   6.828   4.221   2.695
 6688TIP3   OH220008   5.338   6.357   6.642
 6688TIP3    H120009   5.321   6.295   6.713
 6688TIP3    H220010   5.378   6.433   6.685
 6689TIP3   OH220011   2.082   4.859   0.668
 6689TIP3    H120012   2.023   4.854   0.744
 6689TIP3    H220013   2.160   4.904   0.701
 6690TIP3   OH220014   6.000   7.129   0.926
 6690TIP3    H120015   5.937   7.173   0.869
 6690TIP3    H220016   6.076   7.186   0.927
 6691TIP3   OH220017   0.976   4.380   2.226
 6691TIP3    H120018   0.940   4.313   2.285
 6691TIP3    H220019   0.920   4.457   2.240
 6692TIP3   OH220020   1.889   6.235   3.242
 6692TIP3    H120021   1.895   6.207   3.150
 6692TIP3    H220022   1.980   6.230   3.274
 6693TIP3   OH220023   6.406   5.078   5.168
 6693TIP3    H120024   6.435   5.169   5.172
 6693TIP3    H220025   6.336   5.072   5.232
 6694TIP3   OH220026   3.684   7.498   6.524
 6694TIP3    H120027   3.617   7.500   6.593
 6694TIP3    H220028   3.750   7.436   6.557
 6695TIP3   OH220029   2.392   2.077   2.470
 6695TIP3    H120030   2.302   2.072   2.502
 6695TIP3    H220031   2.440   2.012   2.522
 6696TIP3   OH220032   3.513   6.584   5.818
 6696TIP3    H120033   3.551   6.652   5.873
 6696TIP3    H220034   3.503   6.508   5.876
 6697TIP3   OH220035   1.832   0.303   3.319
 6697TIP3    H120036   1.868   0.344   3.397
 6697TIP3    H220037   1.900   0.314   3.253
 6698TIP3   OH220038   7.868   1.793   0.736
 6698TIP3    H120039   7.817   1.846   0.796
 6698TIP3    H220040   7.816   1.714   0.721
 6699TIP3   OH220041   1.218   5.894   5.388
 6699TIP3    H120042   1.254   5.964   5.442
 6699TIP3    H220043   1.265   5.900   5.305
 6700TIP3   OH220044   3.694   7.332   4.987
 6700TIP3    H120045   3.752   7.392   5.034
 6700TIP3    H220046   3.607   7.352   5.021
 6701TIP3   OH220047   1.825   2.209   5.350
 6701TIP3    H120048   1.758   2.174   5.292
 6701TIP3    H220049   1.789   2.291   5.383
 6702TIP3   OH220050   6.876   4.529   4.718
 6702TIP3    H120051   6.814   4.595   4.747
 6702TIP3    H220052   6.961   4.574   4.717
 6703TIP3   OH220053   7.643   0.155   1.133
 6703TIP3    H120054   7.560   0.141   1.179
 6703TIP3    H220055   7.621   0.217   1.064
 6704TIP3   OH220056   2.734   2.154   3.091
 6704TIP3    H120057   2.830   2.158   3.094
 6704TIP3    H220058   2.713   2.074   3.140
 6705TIP3   OH220059   6.387   6.126   4.764
 6705TIP3    H120060   6.383   6.031   4.779
 6705TIP3    H220061   6.324   6.162   4.826
 6706TIP3   OH220062   1.250   2.267   1.606
 6706TIP3    H120063   1.313   2.281   1.535
 6706TIP3    H220064   1.304   2.252   1.684
 6707TIP3   OH220065   5.149   5.151   5.722
 6707TIP3    H120066   5.148   5.246   5.720
 6707TIP3    H220067   5.066   5.125   5.683
 6708TIP3   OH220068   1.994   0.035   5.813
 6708TIP3    H120069   2.036  -0.012   5.885
 6708TIP3    H220070   2.011   0.128   5.833
 6709TIP3   OH220071   2.039   1.238   4.800
 6709TIP3    H120072   2.130   1.242   4.830
 6709TIP3    H220073   2.038   1.167   4.736
 6710TIP3   OH220074   6.200   0.215   2.113
 6710TIP3    H120075   6.145   0.264   2.174
 6710TIP3    H220076   6.218   0.133   2.158
 6711TIP3   OH220077   4.808   0.894   2.570
 6711TIP3    H120078   4.745   0.825   2.551
 6711TIP3    H220079   4.874   0.886   2.501
 6712TIP3   OH220080   3.462   2.400   3.252
 6712TIP3    H120081   3.446   2.494   3.253
 6712TIP3    H220082   3.503   2.383   3.167
 6713TIP3   OH220083   5.337   2.237   0.666
 6713TIP3    H120084   5.324   2.152   0.709
 6713TIP3    H220085   5.291   2.299   0.722
 6714TIP3   OH220086   3.449   6.392   5.986
 6714TIP3    H120087   3.390   6.323   6.015
 6714TIP3    H220088   3.522   6.388   6.047
 6715TIP3   OH220089   7.868   5.531   1.004
 6715TIP3    H120090   7.864   5.450   0.953
 6715TIP3    H220091   7.925   5.509   1.078
 6716TIP3   OH220092   6.972   3.637   3.790
 6716TIP3    H120093   6.996   3.606   3.702
 6716TIP3    H220094   7.054   3.669   3.827
 6717TIP3   OH220095   7.552   1.090   4.409
 6717TIP3    H120096   7.612   1.157   4.441
 6717TIP3    H220097   7.531   1.037   4.486
 6718TIP3   OH220098   1.070   2.304   5.433
 6718TIP3    H120099   1.128   2.280   5.361
 6718TIP3    H220100   1.037   2.220   5.465
 6719TIP3   OH220101   0.081   1.105   1.814
 6719TIP3    H120102   0.012   1.039   1.818
 6719TIP3    H220103   0.116   1.108   1.903
 6720TIP3   OH220104   7.930   1.965   6.489
 6720TIP3    H120105   7.931   2.059   6.470
 6720TIP3    H220106   7.968   1.957   6.576
 6721TIP3   OH220107   2.184   0.217   5.142
 6721TIP3    H120108   2.200   0.127   5.114
 6721TIP3    H220109   2.097   0.216   5.182
 6722TIP3   OH220110   4.016   3.476   4.777
 6722TIP3    H120111   4.041   3.386   4.798
 6722TIP3    H220112   4.099   3.523   4.770
 6723TIP3   OH220113   4.088   5.372   3.331
 6723TIP3    H120114   3.999   5.338   3.337
 6723TIP3    H220115   4.137   5.324   3.397
 6724TIP3   OH220116   1.688   7.655   6.225
 6724TIP3    H120117   1.595   7.655   6.250
 6724TIP3    H220118   1.725   7.580   6.272
 6725TIP3   OH220119   2.870   5.936   1.922
 6725TIP3    H120120   2.836   5.980   2.000
 6725TIP3    H220121   2.909   6.006   1.870
 6726TIP3   OH220122   7.611   7.190   6.618
 6726TIP3    H120123   7.660   7.210   6.698
 6726TIP3    H220124   7.625   7.096   6.606
 6727TIP3   OH220125   3.152   1.238   5.447
 6727TIP3    H120126   3.246   1.241   5.427
 6727TIP3    H220127   3.115   1.179   5.383
 6728TIP3   OH220128   6.651   0.851   5.576
 6728TIP3    H120129   6.680   0.930   5.622
 6728TIP3    H220130   6.720   0.787   5.591
 6729TIP3   OH220131   7.368   4.396   2.965
 6729TIP3    H120132   7.330   4.484   2.959
 6729TIP3    H220133   7.353   4.358   2.878
 6730TIP3   OH220134   4.784   5.175   5.057
 6730TIP3    H120135   4.730   5.215   5.125
 6730TIP3    H220136   4.833   5.247   5.020
 6731TIP3   OH220137   0.255   5.402   0.403
 6731TIP3    H120138   0.195   5.477   0.400
 6731TIP3    H220139   0.197   5.327   0.419
 6732TIP3   OH220140   8.030   6.132   0.567
 6732TIP3    H120141   7.995   6.166   0.649
 6732TIP3    H220142   8.001   6.193   0.500
 6733TIP3   OH220143   3.922   7.057   2.591
 6733TIP3    H120144   3.988   7.120   2.563
 6733TIP3    H220145   3.856   7.059   2.522
 6734TIP3   OH220146   4.400   1.635   2.140
 6734TIP3    H120147   4.353   1.701   2.091
 6734TIP3    H220148   4.400   1.558   2.083
 6735TIP3   OH220149   5.939   3.467   3.033
 6735TIP3    H120150   5.944   3.534   2.965
 6735TIP3    H220151   6.022   3.419   3.025
 6736TIP3   OH220152   2.092   4.032   5.762
 6736TIP3    H120153   2.149   4.005   5.690
 6736TIP3    H220154   2.115   4.124   5.778
 6737TIP3   OH220155   1.340   3.918   3.801
 6737TIP3    H120156   1.339   3.829   3.766
 6737TIP3    H220157   1.426   3.928   3.841
 6738TIP3   OH220158   5.392   6.226   5.361
 6738TIP3    H120159   5.452   6.271   5.301
 6738TIP3    H220160   5.389   6.283   5.438
 6739TIP3   OH220161   2.076   2.765   1.781
 6739TIP3    H120162   1.984   2.753   1.757
 6739TIP3    H220163   2.075   2.767   1.877
 6740TIP3   OH220164   4.316   3.587   5.489
 6740TIP3    H120165   4.237   3.537   5.466
 6740TIP3    H220166   4.309   3.602   5.583
 6741TIP3   OH220167   0.825   2.991   2.915
 6741TIP3    H120168   0.855   2.914   2.965
 6741TIP3    H220169   0.743   2.963   2.875
 6742TIP3   OH220170   3.421   1.093   3.678
 6742TIP3    H120171   3.333   1.068   3.707
 6742TIP3    H220172   3.434   1.045   3.596
 6743TIP3   OH220173   0.780   0.584   5.962
 6743TIP3    H120174   0.821   0.503   5.930
 6743TIP3    H220175   0.715   0.555   6.025
 6744TIP3   OH220176   1.667   2.154   0.967
 6744TIP3    H120177   1.735   2.146   0.900
 6744TIP3    H220178   1.626   2.068   0.970
 6745TIP3   OH220179   2.334   5.878   0.302
 6745TIP3    H120180   2.305   5.968   0.293
 6745TIP3    H220181   2.396   5.879   0.375
 6746TIP3   OH220182   2.060   1.315   1.502
 6746TIP3    H120183   2.105   1.379   1.447
 6746TIP3    H220184   2.082   1.230   1.462
 6747TIP3   OH220185   4.409   6.091   5.244
 6747TIP3    H120186   4.362   6.170   5.217
 6747TIP3    H220187   4.342   6.023   5.246
 6748TIP3   OH220188   8.256   1.526   5.473
 6748TIP3    H120189   8.267   1.585   5.547
 6748TIP3    H220190   8.202   1.576   5.411
 6749TIP3   OH220191   5.525   3.106   4.394
 6749TIP3    H120192   5.610   3.119   4.353
 6749TIP3    H220193   5.462   3.110   4.323
 6750TIP3   OH220194   6.642   2.167   4.576
 6750TIP3    H120195   6.649   2.122   4.660
 6750TIP3    H220196   6.553   2.202   4.574
 6751TIP3   OH220197   4.143   7.477   1.937
 6751TIP3    H120198   4.102   7.563   1.936
 6751TIP3    H220199   4.069   7.416   1.946
 6752TIP3   OH220200   4.238   0.668   0.863
 6752TIP3    H120201   4.216   0.609   0.935
 6752TIP3    H220202   4.181   0.641   0.791
 6753TIP3   OH220203   5.204   6.535   5.715
 6753TIP3    H120204   5.114   6.567   5.704
 6753TIP3    H220205   5.239   6.585   5.789
 6754TIP3   OH220206   3.410   5.189   5.060
 6754TIP3    H120207   3.328   5.151   5.090
 6754TIP3    H220208   3.438   5.133   4.988
 6755TIP3   OH220209   2.058   4.281   5.134
 6755TIP3    H120210   2.038   4.287   5.228
 6755TIP3    H220211   1.979   4.311   5.090
 6756TIP3   OH220212   7.008   3.661   2.728
 6756TIP3    H120213   7.072   3.664   2.799
 6756TIP3    H220214   7.016   3.746   2.684
 6757TIP3   OH220215   6.722   6.119   1.285
 6757TIP3    H120216   6.661   6.072   1.342
 6757TIP3    H220217   6.800   6.132   1.340
 6758TIP3   OH220218   3.102   0.383   3.208
 6758TIP3    H120219   3.131   0.298   3.175
 6758TIP3    H220220   3.159   0.401   3.283
 6759TIP3   OH220221   2.598   4.982   6.731
 6759TIP3    H120222   2.639   4.977   6.645
 6759TIP3    H220223   2.578   4.892   6.755
 6760TIP3   OH220224   3.344   3.634   2.731
 6760TIP3    H120225   3.430   3.625   2.774
 6760TIP3    H220226   3.292   3.687   2.791
 6761TIP3   OH220227   2.816   4.238   3.696
 6761TIP3    H120228   2.805   4.144   3.692
 6761TIP3    H220229   2.756   4.267   3.765
 6762TIP3   OH220230   4.699   7.398   6.367
 6762TIP3    H120231   4.779   7.408   6.419
 6762TIP3    H220232   4.676   7.306   6.374
 6763TIP3   OH220233   4.000   0.907   6.005
 6763TIP3    H120234   3.951   0.831   5.972
 6763TIP3    H220235   3.940   0.949   6.067
 6764TIP3   OH220236   3.013   0.709   3.677
 6764TIP3    H120237   3.108   0.705   3.679
 6764TIP3    H220238   2.992   0.738   3.588
 6765TIP3   OH220239   0.764   2.454   2.375
 6765TIP3    H120240   0.790   2.541   2.345
 6765TIP3    H220241   0.742   2.406   2.295
 6766TIP3   OH220242   0.703   1.162   1.405
 6766TIP3    H120243   0.637   1.199   1.346
 6766TIP3    H220244   0.727   1.079   1.365
 6767TIP3   OH220245   6.556   5.342   0.844
 6767TIP3    H120246   6.495   5.283   0.887
 6767TIP3    H220247   6.537   5.334   0.750
 6768TIP3   OH220248   3.751   7.104   6.258
 6768TIP3    H120249   3.743   7.028   6.315
 6768TIP3    H220250   3.842   7.101   6.227
 6769TIP3   OH220251   4.001   3.061   6.439
 6769TIP3    H120252   4.014   3.017   6.524
 6769TIP3    H220253   4.078   3.118   6.431
 6770TIP3   OH220254   0.275   4.254   2.154
 6770TIP3    H120255   0.345   4.200   2.192
 6770TIP3    H220256   0.241   4.202   2.081
 6771TIP3   OH220257   6.407   4.388   1.786
 6771TIP3    H120258   6.376   4.311   1.739
 6771TIP3    H220259   6.392   4.461   1.725
 6772TIP3   OH220260   3.887   0.870   0.820
 6772TIP3    H120261   3.895   0.960   0.854
 6772TIP3    H220262   3.939   0.870   0.740
 6773TIP3   OH220263   4.109   3.287   3.612
 6773TIP3    H120264   4.128   3.196   3.633
 6773TIP3    H220265   4.193   3.332   3.625
 6774TIP3   OH220266   1.941   2.898   2.271
 6774TIP3    H120267   1.886   2.863   2.340
 6774TIP3    H220268   1.970   2.983   2.304
 6775TIP3   OH220269   3.581   4.122   4.268
 6775TIP3    H120270   3.677   4.116   4.267
 6775TIP3    H220271   3.563   4.185   4.338
 6776TIP3   OH220272   2.624   3.195   0.676
 6776TIP3    H120273   2.644   3.218   0.766
 6776TIP3    H220274   2.700   3.145   0.646
 6777TIP3   OH220275   7.641   4.961   4.640
 6777TIP3    H120276   7.734   4.956   4.662
 6777TIP3    H220277   7.599   4.897   4.698
 6778TIP3   OH220278   6.751   6.417   3.195
 6778TIP3    H120279   6.804   6.488   3.159
 6778TIP3    H220280   6.778   6.410   3.287
 6779TIP3   OH220281   1.439   1.372   0.521
 6779TIP3    H120282   1.383   1.449   0.526
 6779TIP3    H220283   1.379   1.297   0.524
 6780TIP3   OH220284   0.744   0.800   2.720
 6780TIP3    H120285   0.821   0.835   2.765
 6780TIP3    H220286   0.672   0.812   2.782
 6781TIP3   OH220287   4.620   6.293   2.966
 6781TIP3    H120288   4.592   6.313   3.055
 6781TIP3    H220289   4.592   6.368   2.914
 6782TIP3   OH220290   4.457   7.655   2.631
 6782TIP3    H120291   4.454   7.694   2.544
 6782TIP3    H220292   4.432   7.726   2.690
 6783TIP3   OH220293   4.133   3.460   3.246
 6783TIP3    H120294   4.222   3.453   3.280
 6783TIP3    H220295   4.092   3.377   3.269
 6784TIP3   OH220296   7.048   6.271   3.904
 6784TIP3    H120297   7.093   6.273   3.989
 6784TIP3    H220298   7.052   6.361   3.873
 6785TIP3   OH220299   6.559   2.706   3.052
 6785TIP3    H120300   6.504   2.666   2.986
 6785TIP3    H220301   6.527   2.796   3.059
 6786TIP3   OH220302   2.827   3.579   3.964
 6786TIP3    H120303   2.860   3.608   3.879
 6786TIP3    H220304   2.868   3.494   3.978
 6787TIP3   OH220305   0.060   4.099   4.261
 6787TIP3    H120306   0.038   4.090   4.168
 6787TIP3    H220307   0.020   4.182   4.288
 6788TIP3   OH220308   6.918   5.891   3.523
 6788TIP3    H120309   6.968   5.966   3.492
 6788TIP3    H220310   6.828   5.924   3.533
 6789TIP3   OH220311   4.282   5.326   1.119
 6789TIP3    H120312   4.241   5.408   1.148
 6789TIP3    H220313   4.279   5.269   1.195
 6790TIP3   OH220314   0.049   4.158   5.186
 6790TIP3    H120315   0.036   4.090   5.120
 6790TIP3    H220316   0.065   4.111   5.268
 6791TIP3   OH220317   6.133   4.549   5.547
 6791TIP3    H120318   6.101   4.467   5.510
 6791TIP3    H220319   6.203   4.523   5.607
 6792TIP3   OH220320   1.538   1.439   5.083
 6792TIP3    H120321   1.528   1.381   5.007
 6792TIP3    H220322   1.483   1.399   5.150
 6793TIP3   OH220323   2.812   3.272   2.154
 6793TIP3    H120324   2.885   3.250   2.212
 6793TIP3    H220325   2.761   3.191   2.149
 6794TIP3   OH220326   5.311   0.194   0.713
 6794TIP3    H120327   5.407   0.195   0.702
 6794TIP3    H220328   5.298   0.166   0.803
 6795TIP3   OH220329   0.953   2.770   1.582
 6795TIP3    H120330   1.017   2.721   1.634
 6795TIP3    H220331   0.875   2.775   1.638
 6796TIP3   OH220332   8.171   4.046   0.602
 6796TIP3    H120333   8.233   4.086   0.663
 6796TIP3    H220334   8.086   4.081   0.629
 6797TIP3   OH220335   1.766   2.671   6.374
 6797TIP3    H120336   1.783   2.626   6.291
 6797TIP3    H220337   1.674   2.698   6.367
 6798TIP3   OH220338   2.226   1.129   1.811
 6798TIP3    H120339   2.262   1.212   1.778
 6798TIP3    H220340   2.131   1.141   1.803
 6799TIP3   OH220341   4.915   5.547   5.632
 6799TIP3    H120342   4.856   5.535   5.557
 6799TIP3    H220343   4.856   5.571   5.704
 6800TIP3   OH220344   1.383   1.730   5.805
 6800TIP3    H120345   1.291   1.722   5.831
 6800TIP3    H220346   1.391   1.821   5.775
 6801TIP3   OH220347   3.432   7.160   2.763
 6801TIP3    H120348   3.411   7.071   2.734
 6801TIP3    H220349   3.446   7.209   2.682
 6802TIP3   OH220350   2.805   5.115   5.240
 6802TIP3    H120351   2.848   5.198   5.258
 6802TIP3    H220352   2.868   5.048   5.268
 6803TIP3   OH220353   1.248   6.046   0.507
 6803TIP3    H120354   1.241   6.057   0.412
 6803TIP3    H220355   1.298   5.966   0.519
 6804TIP3   OH220356   8.054   6.866   4.960
 6804TIP3    H120357   8.146   6.841   4.967
 6804TIP3    H220358   8.005   6.789   4.987
 6805TIP3   OH220359   0.641   0.140   5.396
 6805TIP3    H120360   0.646   0.129   5.490
 6805TIP3    H220361   0.590   0.220   5.384
 6806TIP3   OH220362   5.805   4.317   0.099
 6806TIP3    H120363   5.843   4.248   0.044
 6806TIP3    H220364   5.713   4.321   0.072
 6807TIP3   OH220365   1.520   4.253   5.263
 6807TIP3    H120366   1.509   4.348   5.267
 6807TIP3    H220367   1.609   4.237   5.294
 6808TIP3   OH220368   3.048   6.273   4.656
 6808TIP3    H120369   3.039   6.355   4.607
 6808TIP3    H220370   2.997   6.287   4.736
 6809TIP3   OH220371   7.791   1.376   0.228
 6809TIP3    H120372   7.844   1.349   0.152
 6809TIP3    H220373   7.713   1.321   0.223
 6810TIP3   OH220374   1.228   1.501   4.187
 6810TIP3    H120375   1.177   1.559   4.131
 6810TIP3    H220376   1.269   1.439   4.127
 6811TIP3   OH220377   1.058   6.849   0.611
 6811TIP3    H120378   1.084   6.861   0.702
 6811TIP3    H220379   0.965   6.872   0.609
 6812TIP3   OH220380   7.326   1.650   3.764
 6812TIP3    H120381   7.331   1.555   3.775
 6812TIP3    H220382   7.233   1.668   3.749
 6813TIP3   OH220383   6.876   5.389   6.642
 6813TIP3    H120384   6.913   5.304   6.667
 6813TIP3    H220385   6.945   5.452   6.663
 6814TIP3   OH220386   0.466   1.377   0.463
 6814TIP3    H120387   0.542   1.336   0.422
 6814TIP3    H220388   0.402   1.307   0.473
 6815TIP3   OH220389   0.484   2.360   1.295
 6815TIP3    H120390   0.571   2.395   1.313
 6815TIP3    H220391   0.497   2.266   1.284
 6816TIP3   OH220392   1.753   4.564   2.221
 6816TIP3    H120393   1.680   4.570   2.159
 6816TIP3    H220394   1.712   4.560   2.307
 6817TIP3   OH220395   7.981   4.318   3.913
 6817TIP3    H120396   7.969   4.233   3.871
 6817TIP3    H220397   8.069   4.345   3.887
 6818TIP3   OH220398   7.146   5.635   1.571
 6818TIP3    H120399   7.198   5.651   1.650
 6818TIP3    H220400   7.148   5.719   1.524
 6819TIP3   OH220401   5.784   4.776   0.916
 6819TIP3    H120402   5.777   4.739   0.828
 6819TIP3    H220403   5.758   4.867   0.905
 6820TIP3   OH220404   0.504   6.089   0.359
 6820TIP3    H120405   0.521   6.010   0.308
 6820TIP3    H220406   0.419   6.074   0.399
 6821TIP3   OH220407   6.189   2.509   0.007
 6821TIP3    H120408   6.284   2.512   0.012
 6821TIP3    H220409   6.162   2.453   0.080
 6822TIP3   OH220410   4.297   5.315   1.946
 6822TIP3    H120411   4.235   5.277   2.008
 6822TIP3    H220412   4.300   5.408   1.969
 6823TIP3   OH220413   4.217   6.122   3.909
 6823TIP3    H120414   4.272   6.196   3.935
 6823TIP3    H220415   4.223   6.121   3.813
 6824TIP3   OH220416   4.349   6.703   5.524
 6824TIP3    H120417   4.327   6.677   5.435
 6824TIP3    H220418   4.265   6.712   5.568
 6825TIP3   OH220419   3.430   7.680   5.932
 6825TIP3    H120420   3.469   7.698   5.846
 6825TIP3    H220421   3.346   7.726   5.930
 6826TIP3   OH220422   0.464   1.606   0.106
 6826TIP3    H120423   0.388   1.655   0.076
 6826TIP3    H220424   0.458   1.521   0.062
 6827TIP3   OH220425   7.598   4.468   1.983
 6827TIP3    H120426   7.688   4.494   2.002
 6827TIP3    H220427   7.573   4.521   1.907
 6828TIP3   OH220428   1.537   6.493   0.627
 6828TIP3    H120429   1.616   6.445   0.651
 6828TIP3    H220430   1.568   6.581   0.604
 6829TIP3   OH220431   7.749   2.971   3.580
 6829TIP3    H120432   7.814   2.986   3.513
 6829TIP3    H220433   7.744   3.053   3.629
 6830TIP3   OH220434   6.026   7.567   3.704
 6830TIP3    H120435   5.965   7.502   3.740
 6830TIP3    H220436   6.112   7.528   3.716
 6831TIP3   OH220437   2.624   4.529   4.231
 6831TIP3    H120438   2.583   4.468   4.170
 6831TIP3    H220439   2.659   4.473   4.301
 6832TIP3   OH220440   4.499   6.102   3.570
 6832TIP3    H120441   4.442   6.171   3.603
 6832TIP3    H220442   4.583   6.146   3.554
 6833TIP3   OH220443   5.590   3.981   1.586
 6833TIP3    H120444   5.590   3.898   1.538
 6833TIP3    H220445   5.600   4.048   1.519
 6834TIP3   OH220446   3.006   1.435   0.261
 6834TIP3    H120447   2.924   1.456   0.217
 6834TIP3    H220448   3.051   1.519   0.270
 6835TIP3   OH220449   5.076   1.674   4.779
 6835TIP3    H120450   5.038   1.740   4.837
 6835TIP3    H220451   5.153   1.717   4.741
 6836TIP3   OH220452   2.104   5.343   2.219
 6836TIP3    H120453   2.082   5.291   2.142
 6836TIP3    H220454   2.198   5.360   2.211
 6837TIP3   OH220455   0.576   7.226   2.075
 6837TIP3    H120456   0.575   7.206   1.981
 6837TIP3    H220457   0.511   7.295   2.085
 6838TIP3   OH220458   8.172   4.890   1.743
 6838TIP3    H120459   8.140   4.925   1.660
 6838TIP3    H220460   8.236   4.823   1.718
 6839TIP3   OH220461   0.851   2.507   3.066
 6839TIP3    H120462   0.850   2.562   2.988
 6839TIP3    H220463   0.944   2.489   3.082
 6840TIP3   OH220464   5.039   1.376   0.307
 6840TIP3    H120465   4.964   1.435   0.314
 6840TIP3    H220466   5.003   1.288   0.321
 6841TIP3   OH220467   1.386   4.651   4.452
 6841TIP3    H120468   1.364   4.736   4.490
 6841TIP3    H220469   1.323   4.640   4.381
 6842TIP3   OH220470   5.098   7.376   2.761
 6842TIP3    H120471   5.028   7.332   2.714
 6842TIP3    H220472   5.156   7.409   2.693
 6843TIP3   OH220473   1.798   5.153   3.764
 6843TIP3    H120474   1.789   5.067   3.723
 6843TIP3    H220475   1.748   5.212   3.709
 6844TIP3   OH220476   4.485   3.039   0.137
 6844TIP3    H120477   4.410   3.084   0.176
 6844TIP3    H220478   4.559   3.063   0.193
 6845TIP3   OH220479   1.274   3.881   6.544
 6845TIP3    H120480   1.197   3.927   6.512
 6845TIP3    H220481   1.244   3.834   6.622
 6846TIP3   OH220482   7.086   0.068   5.765
 6846TIP3    H120483   7.026   0.111   5.825
 6846TIP3    H220484   7.084   0.123   5.686
 6847TIP3   OH220485   2.319   7.386   3.690
 6847TIP3    H120486   2.291   7.477   3.694
 6847TIP3    H220487   2.391   7.381   3.754
 6848TIP3   OH220488   3.106   3.043   0.528
 6848TIP3    H120489   3.189   3.017   0.568
 6848TIP3    H220490   3.051   3.070   0.602
 6849TIP3   OH220491   2.182   5.805   6.591
 6849TIP3    H120492   2.256   5.840   6.541
 6849TIP3    H220493   2.132   5.882   6.617
 6850TIP3   OH220494   7.440   7.252   4.396
 6850TIP3    H120495   7.369   7.191   4.415
 6850TIP3    H220496   7.508   7.230   4.461
 6851TIP3   OH220497   4.260   5.740   3.763
 6851TIP3    H120498   4.225   5.708   3.846
 6851TIP3    H220499   4.221   5.681   3.697
 6852TIP3   OH220500   7.755   7.580   0.447
 6852TIP3    H120501   7.686   7.519   0.472
 6852TIP3    H220502   7.834   7.526   0.438
 6853TIP3   OH220503   3.650   1.105   2.314
 6853TIP3    H120504   3.574   1.088   2.369
 6853TIP3    H220505   3.629   1.061   2.231
 6854TIP3   OH220506   0.386   7.394   3.186
 6854TIP3    H120507   0.347   7.432   3.106
 6854TIP3    H220508   0.450   7.459   3.214
 6855TIP3   OH220509   1.637   2.955   0.503
 6855TIP3    H120510   1.570   2.887   0.513
 6855TIP3    H220511   1.720   2.907   0.501
 6856TIP3   OH220512   0.484   6.312   3.553
 6856TIP3    H120513   0.475   6.335   3.460
 6856TIP3    H220514   0.574   6.281   3.561
 6857TIP3   OH220515   2.229   2.728   2.445
 6857TIP3    H120516   2.308   2.732   2.391
 6857TIP3    H220517   2.167   2.679   2.391
 6858TIP3   OH220518   6.811   7.038   5.740
 6858TIP3    H120519   6.772   7.003   5.660
 6858TIP3    H220520   6.902   7.008   5.737
 6859TIP3   OH220521   0.276   1.462   4.251
 6859TIP3    H120522   0.243   1.533   4.307
 6859TIP3    H220523   0.341   1.504   4.196
 6860TIP3   OH220524   1.473   1.608   2.490
 6860TIP3    H120525   1.568   1.595   2.493
 6860TIP3    H220526   1.437   1.536   2.540
 6861TIP3   OH220527   0.681   4.172   0.789
 6861TIP3    H120528   0.636   4.250   0.757
 6861TIP3    H220529   0.671   4.175   0.884
 6862TIP3   OH220530   5.583   0.102   0.422
 6862TIP3    H120531   5.555   0.010   0.420
 6862TIP3    H220532   5.669   0.102   0.379
 6863TIP3   OH220533   5.499   2.523   6.310
 6863TIP3    H120534   5.567   2.499   6.375
 6863TIP3    H220535   5.548   2.562   6.238
 6864TIP3   OH220536   0.222   6.476   4.800
 6864TIP3    H120537   0.191   6.566   4.786
 6864TIP3    H220538   0.269   6.480   4.883
 6865TIP3   OH220539   6.562   1.772   2.968
 6865TIP3    H120540   6.618   1.837   2.925
 6865TIP3    H220541   6.548   1.705   2.901
 6866TIP3   OH220542   8.102   5.083   5.493
 6866TIP3    H120543   8.074   4.992   5.495
 6866TIP3    H220544   8.051   5.126   5.561
 6867TIP3   OH220545   3.626   5.594   0.718
 6867TIP3    H120546   3.660   5.680   0.692
 6867TIP3    H220547   3.539   5.590   0.677
 6868TIP3   OH220548   8.124   3.006   4.813
 6868TIP3    H120549   8.184   2.990   4.886
 6868TIP3    H220550   8.178   3.050   4.747
 6869TIP3   OH220551   2.783   6.763   2.305
 6869TIP3    H120552   2.806   6.856   2.311
 6869TIP3    H220553   2.718   6.759   2.234
 6870TIP3   OH220554   7.501   2.163   5.037
 6870TIP3    H120555   7.530   2.089   4.984
 6870TIP3    H220556   7.500   2.129   5.126
 6871TIP3   OH220557   3.814   2.831   1.441
 6871TIP3    H120558   3.864   2.836   1.522
 6871TIP3    H220559   3.835   2.745   1.405
 6872TIP3   OH220560   1.487   6.867   0.657
 6872TIP3    H120561   1.460   6.866   0.565
 6872TIP3    H220562   1.421   6.921   0.700
 6873TIP3   OH220563   4.407   3.197   2.531
 6873TIP3    H120564   4.314   3.177   2.544
 6873TIP3    H220565   4.407   3.272   2.472
 6874TIP3   OH220566   4.987   6.947   0.257
 6874TIP3    H120567   4.992   6.853   0.273
 6874TIP3    H220568   5.073   6.981   0.284
 6875TIP3   OH220569   0.466   7.577   6.079
 6875TIP3    H120570   0.422   7.646   6.129
 6875TIP3    H220571   0.404   7.504   6.078
 6876TIP3   OH220572   0.014   5.142   4.203
 6876TIP3    H120573  -0.062   5.157   4.260
 6876TIP3    H220574   0.052   5.229   4.190
 6877TIP3   OH220575   5.926   5.664   1.268
 6877TIP3    H120576   6.011   5.630   1.242
 6877TIP3    H220577   5.919   5.644   1.361
 6878TIP3   OH220578   3.747   0.081   2.432
 6878TIP3    H120579   3.823   0.080   2.374
 6878TIP3    H220580   3.715   0.172   2.427
 6879TIP3   OH220581   3.592   7.756   0.960
 6879TIP3    H120582   3.657   7.804   0.907
 6879TIP3    H220583   3.508   7.781   0.922
 6880TIP3   OH220584   1.666   6.284   0.069
 6880TIP3    H120585   1.673   6.342   0.145
 6880TIP3    H220586   1.756   6.270   0.041
 6881TIP3   OH220587   4.845   6.852   4.230
 6881TIP3    H120588   4.782   6.924   4.227
 6881TIP3    H220589   4.849   6.828   4.323
 6882TIP3   OH220590   4.762   0.756   6.379
 6882TIP3    H120591   4.752   0.732   6.287
 6882TIP3    H220592   4.772   0.851   6.378
 6883TIP3   OH220593   5.253   4.556   1.520
 6883TIP3    H120594   5.228   4.480   1.467
 6883TIP3    H220595   5.281   4.621   1.455
 6884TIP3   OH220596   2.023   1.707   2.784
 6884TIP3    H120597   2.043   1.614   2.794
 6884TIP3    H220598   2.023   1.721   2.689
 6885TIP3   OH220599   6.911   6.574   0.301
 6885TIP3    H120600   7.004   6.596   0.297
 6885TIP3    H220601   6.865   6.652   0.269
 6886TIP3   OH220602   1.433   1.990   1.517
 6886TIP3    H120603   1.421   2.003   1.423
 6886TIP3    H220604   1.474   2.071   1.548
 6887TIP3   OH220605   4.456   3.956   2.936
 6887TIP3    H120606   4.424   3.999   3.015
 6887TIP3    H220607   4.380   3.953   2.878
 6888TIP3   OH220608   4.173   5.424   6.489
 6888TIP3    H120609   4.245   5.464   6.440
 6888TIP3    H220610   4.097   5.479   6.471
 6889TIP3   OH220611   7.731   7.630   1.667
 6889TIP3    H120612   7.816   7.653   1.705
 6889TIP3    H220613   7.714   7.698   1.602
 6890TIP3   OH220614   6.037   1.517   3.917
 6890TIP3    H120615   6.050   1.590   3.857
 6890TIP3    H220616   6.107   1.455   3.894
 6891TIP3   OH220617   6.163   7.673   4.072
 6891TIP3    H120618   6.087   7.717   4.034
 6891TIP3    H220619   6.137   7.653   4.162
 6892TIP3   OH220620   5.117   3.609   6.033
 6892TIP3    H120621   5.095   3.667   5.959
 6892TIP3    H220622   5.211   3.620   6.044
 6893TIP3   OH220623   7.207   0.642   1.668
 6893TIP3    H120624   7.246   0.570   1.619
 6893TIP3    H220625   7.143   0.600   1.726
 6894TIP3   OH220626   5.745   2.022   3.077
 6894TIP3    H120627   5.767   2.115   3.074
 6894TIP3    H220628   5.665   2.018   3.129
 6895TIP3   OH220629   7.635   5.438   5.098
 6895TIP3    H120630   7.646   5.528   5.068
 6895TIP3    H220631   7.681   5.385   5.032
 6896TIP3   OH220632   4.409   6.914   6.593
 6896TIP3    H120633   4.420   7.007   6.610
 6896TIP3    H220634   4.442   6.871   6.672
 6897TIP3   OH220635   8.153   2.929   1.402
 6897TIP3    H120636   8.155   2.894   1.490
 6897TIP3    H220637   8.161   2.852   1.345
 6898TIP3   OH220638   5.638   1.591   5.427
 6898TIP3    H120639   5.676   1.511   5.465
 6898TIP3    H220640   5.675   1.595   5.339
 6899TIP3   OH220641   0.405   1.106   6.757
 6899TIP3    H120642   0.388   1.054   6.836
 6899TIP3    H220643   0.365   1.056   6.686
 6900TIP3   OH220644   7.660   3.367   4.763
 6900TIP3    H120645   7.727   3.310   4.726
 6900TIP3    H220646   7.676   3.452   4.724
 6901TIP3   OH220647   1.991   1.567   5.964
 6901TIP3    H120648   2.032   1.589   6.047
 6901TIP3    H220649   1.992   1.471   5.961
 6902TIP3   OH220650   0.649   6.740   3.660
 6902TIP3    H120651   0.555   6.722   3.674
 6902TIP3    H220652   0.692   6.658   3.683
 6903TIP3   OH220653   3.332   2.353   4.805
 6903TIP3    H120654   3.241   2.371   4.784
 6903TIP3    H220655   3.365   2.304   4.730
 6904TIP3   OH220656   3.692   6.168   2.266
 6904TIP3    H120657   3.598   6.156   2.277
 6904TIP3    H220658   3.723   6.196   2.352
 6905TIP3   OH220659   7.985   0.600   5.717
 6905TIP3    H120660   7.915   0.611   5.653
 6905TIP3    H220661   7.959   0.524   5.768
 6906TIP3   OH220662   5.448   7.175   6.735
 6906TIP3    H120663   5.489   7.252   6.773
 6906TIP3    H220664   5.445   7.193   6.641
 6907TIP3   OH220665   7.497   6.042   2.536
 6907TIP3    H120666   7.453   6.103   2.595
 6907TIP3    H220667   7.426   5.992   2.495
 6908TIP3   OH220668   6.562   0.270   0.789
 6908TIP3    H120669   6.504   0.247   0.716
 6908TIP3    H220670   6.605   0.351   0.761
 6909TIP3   OH220671   4.750   0.872   3.604
 6909TIP3    H120672   4.682   0.811   3.632
 6909TIP3    H220673   4.735   0.951   3.656
 6910TIP3   OH220674   2.465   7.497   5.390
 6910TIP3    H120675   2.395   7.513   5.453
 6910TIP3    H220676   2.522   7.433   5.432
 6911TIP3   OH220677   0.782   4.218   0.436
 6911TIP3    H120678   0.839   4.245   0.508
 6911TIP3    H220679   0.720   4.290   0.426
 6912TIP3   OH220680   5.623   2.990   1.064
 6912TIP3    H120681   5.698   3.047   1.046
 6912TIP3    H220682   5.643   2.909   1.017
 6913TIP3   OH220683   0.654   1.644   6.744
 6913TIP3    H120684   0.636   1.683   6.659
 6913TIP3    H220685   0.569   1.643   6.789
 6914TIP3   OH220686   7.425   3.191   4.870
 6914TIP3    H120687   7.387   3.124   4.813
 6914TIP3    H220688   7.474   3.141   4.935
 6915TIP3   OH220689   5.851   1.696   0.489
 6915TIP3    H120690   5.839   1.721   0.581
 6915TIP3    H220691   5.783   1.744   0.442
 6916TIP3   OH220692   2.285   4.003   1.273
 6916TIP3    H120693   2.335   3.925   1.299
 6916TIP3    H220694   2.204   3.967   1.237
 6917TIP3   OH220695   2.570   1.786   4.584
 6917TIP3    H120696   2.601   1.876   4.576
 6917TIP3    H220697   2.650   1.733   4.591
 6918TIP3   OH220698   5.819   2.507   3.070
 6918TIP3    H120699   5.854   2.509   2.981
 6918TIP3    H220700   5.733   2.549   3.062
 6919TIP3   OH220701   7.572   1.331   6.683
 6919TIP3    H120702   7.539   1.366   6.601
 6919TIP3    H220703   7.495   1.317   6.737
 6920TIP3   OH220704   7.230   6.872   1.346
 6920TIP3    H120705   7.168   6.913   1.285
 6920TIP3    H220706   7.247   6.939   1.412
 6921TIP3   OH220707   2.558   5.335   6.037
 6921TIP3    H120708   2.649   5.313   6.017
 6921TIP3    H220709   2.516   5.342   5.951
 6922TIP3   OH220710   7.513   5.096   5.011
 6922TIP3    H120711   7.451   5.075   4.941
 6922TIP3    H220712   7.515   5.018   5.066
 6923TIP3   OH220713   4.223   1.556   1.851
 6923TIP3    H120714   4.177   1.538   1.769
 6923TIP3    H220715   4.212   1.650   1.864
 6924TIP3   OH220716   8.179   0.859   4.938
 6924TIP3    H120717   8.141   0.936   4.894
 6924TIP3    H220718   8.167   0.788   4.875
 6925TIP3   OH220719   6.279   5.903   6.592
 6925TIP3    H120720   6.252   5.936   6.506
 6925TIP3    H220721   6.375   5.906   6.590
 6926TIP3   OH220722   6.809   3.607   2.524
 6926TIP3    H120723   6.791   3.701   2.530
 6926TIP3    H220724   6.875   3.591   2.591
 6927TIP3   OH220725   3.202   2.959   1.435
 6927TIP3    H120726   3.130   2.949   1.373
 6927TIP3    H220727   3.219   2.870   1.466
 6928TIP3   OH220728   1.200   2.040   3.915
 6928TIP3    H120729   1.134   2.104   3.940
 6928TIP3    H220730   1.150   1.968   3.876
 6929TIP3   OH220731   3.126   7.444   0.485
 6929TIP3    H120732   3.142   7.349   0.486
 6929TIP3    H220733   3.208   7.482   0.454
 6930TIP3   OH220734   6.132   7.707   2.051
 6930TIP3    H120735   6.158   7.744   2.135
 6930TIP3    H220736   6.063   7.644   2.073
 6931TIP3   OH220737   0.117   4.305   6.657
 6931TIP3    H120738   0.125   4.332   6.748
 6931TIP3    H220739   0.174   4.229   6.649
 6932TIP3   OH220740   7.654   4.512   0.979
 6932TIP3    H120741   7.570   4.532   1.021
 6932TIP3    H220742   7.629   4.474   0.894
 6933TIP3   OH220743   8.146   2.679   5.239
 6933TIP3    H120744   8.076   2.660   5.302
 6933TIP3    H220745   8.103   2.731   5.171
 6934TIP3   OH220746   0.925   6.682   4.466
 6934TIP3    H120747   0.949   6.637   4.385
 6934TIP3    H220748   0.962   6.627   4.535
 6935TIP3   OH220749   2.530   5.381   0.522
 6935TIP3    H120750   2.601   5.332   0.562
 6935TIP3    H220751   2.548   5.472   0.543
 6936TIP3   OH220752   2.304   3.047   3.904
 6936TIP3    H120753   2.380   3.056   3.961
 6936TIP3    H220754   2.324   3.102   3.829
 6937TIP3   OH220755   6.068   0.018   1.251
 6937TIP3    H120756   6.102   0.087   1.308
 6937TIP3    H220757   6.039   0.064   1.172
 6938TIP3   OH220758   5.517   0.813   4.149
 6938TIP3    H120759   5.543   0.789   4.237
 6938TIP3    H220760   5.482   0.732   4.111
 6939TIP3   OH220761   4.210   6.748   1.276
 6939TIP3    H120762   4.217   6.658   1.244
 6939TIP3    H220763   4.273   6.797   1.224
 6940TIP3   OH220764   8.101   6.362   4.316
 6940TIP3    H120765   8.107   6.283   4.369
 6940TIP3    H220766   8.012   6.394   4.331
 6941TIP3   OH220767   4.014   4.345   2.951
 6941TIP3    H120768   4.045   4.336   2.861
 6941TIP3    H220769   4.009   4.255   2.983
 6942TIP3   OH220770   7.731   3.646   1.795
 6942TIP3    H120771   7.680   3.727   1.788
 6942TIP3    H220772   7.810   3.672   1.842
 6943TIP3   OH220773   1.791   5.720   4.790
 6943TIP3    H120774   1.741   5.764   4.722
 6943TIP3    H220775   1.834   5.791   4.838
 6944TIP3   OH220776   1.029   6.516   2.454
 6944TIP3    H120777   1.055   6.508   2.546
 6944TIP3    H220778   1.034   6.609   2.436
 6945TIP3   OH220779   1.198   5.109   5.284
 6945TIP3    H120780   1.162   5.129   5.370
 6945TIP3    H220781   1.147   5.034   5.253
 6946TIP3   OH220782   8.116   0.660   4.757
 6946TIP3    H120783   8.150   0.572   4.773
 6946TIP3    H220784   8.034   0.645   4.710
 6947TIP3   OH220785   3.954   6.119   0.849
 6947TIP3    H120786   4.030   6.171   0.824
 6947TIP3    H220787   3.976   6.030   0.823
 6948TIP3   OH220788   0.693   3.575   3.902
 6948TIP3    H120789   0.627   3.506   3.901
 6948TIP3    H220790   0.647   3.653   3.871
 6949TIP3   OH220791   4.215   0.121   1.837
 6949TIP3    H120792   4.204   0.036   1.795
 6949TIP3    H220793   4.298   0.155   1.802
 6950TIP3   OH220794   3.571   3.435   0.310
 6950TIP3    H120795   3.609   3.512   0.353
 6950TIP3    H220796   3.643   3.373   0.304
 6951TIP3   OH220797   6.260   5.684   2.424
 6951TIP3    H120798   6.211   5.763   2.447
 6951TIP3    H220799   6.352   5.710   2.434
 6952TIP3   OH220800   5.583   4.086   2.867
 6952TIP3    H120801   5.526   4.128   2.803
 6952TIP3    H220802   5.562   4.128   2.950
 6953TIP3   OH220803   2.034   4.310   4.106
 6953TIP3    H120804   1.943   4.301   4.134
 6953TIP3    H220805   2.029   4.318   4.011
 6954TIP3   OH220806   0.198   6.958   4.753
 6954TIP3    H120807   0.129   7.023   4.764
 6954TIP3    H220808   0.275   7.008   4.724
 6955TIP3   OH220809   6.510   5.923   6.478
 6955TIP3    H120810   6.546   6.010   6.463
 6955TIP3    H220811   6.454   5.907   6.402
 6956TIP3   OH220812   8.196   3.398   4.016
 6956TIP3    H120813   8.127   3.340   4.048
 6956TIP3    H220814   8.171   3.418   3.926
 6957TIP3   OH220815   4.044   1.967   6.400
 6957TIP3    H120816   4.097   1.907   6.348
 6957TIP3    H220817   4.062   1.942   6.491
 6958TIP3   OH220818   4.027   7.289   5.975
 6958TIP3    H120819   4.082   7.362   6.001
 6958TIP3    H220820   3.970   7.324   5.906
 6959TIP3   OH220821   4.410   4.700   0.437
 6959TIP3    H120822   4.343   4.742   0.383
 6959TIP3    H220823   4.372   4.697   0.525
 6960TIP3   OH220824   7.406   3.988   3.419
 6960TIP3    H120825   7.338   3.981   3.485
 6960TIP3    H220826   7.430   3.898   3.399
 6961TIP3   OH220827   1.665   5.540   5.261
 6961TIP3    H120828   1.678   5.522   5.168
 6961TIP3    H220829   1.577   5.506   5.280
 6962TIP3   OH220830   1.208   7.657   6.039
 6962TIP3    H120831   1.211   7.614   6.124
 6962TIP3    H220832   1.152   7.601   5.985
 6963TIP3   OH220833   5.718   1.195   1.876
 6963TIP3    H120834   5.776   1.125   1.908
 6963TIP3    H220835   5.630   1.162   1.895
 6964TIP3   OH220836   7.920   6.166   1.902
 6964TIP3    H120837   7.986   6.198   1.841
 6964TIP3    H220838   7.969   6.146   1.982
 6965TIP3   OH220839   4.127   5.836   5.484
 6965TIP3    H120840   4.129   5.930   5.465
 6965TIP3    H220841   4.167   5.795   5.408
 6966TIP3   OH220842   7.758   0.849   4.525
 6966TIP3    H120843   7.765   0.899   4.444
 6966TIP3    H220844   7.746   0.915   4.593
 6967TIP3   OH220845   0.275   5.587   4.244
 6967TIP3    H120846   0.326   5.627   4.315
 6967TIP3    H220847   0.205   5.539   4.289
 6968TIP3   OH220848   2.210   2.559   0.611
 6968TIP3    H120849   2.212   2.655   0.612
 6968TIP3    H220850   2.300   2.533   0.592
 6969TIP3   OH220851   4.107   1.535   0.493
 6969TIP3    H120852   4.011   1.540   0.489
 6969TIP3    H220853   4.131   1.473   0.424
 6970TIP3   OH220854   6.291   6.270   2.160
 6970TIP3    H120855   6.224   6.255   2.093
 6970TIP3    H220856   6.335   6.185   2.170
 6971TIP3   OH220857   5.314   7.497   3.389
 6971TIP3    H120858   5.337   7.473   3.299
 6971TIP3    H220859   5.398   7.505   3.434
 6972TIP3   OH220860   1.935   3.509   3.186
 6972TIP3    H120861   1.955   3.461   3.267
 6972TIP3    H220862   1.890   3.445   3.131
 6973TIP3   OH220863   3.068   2.751   2.132
 6973TIP3    H120864   3.149   2.766   2.083
 6973TIP3    H220865   3.096   2.703   2.210
 6974TIP3   OH220866   6.736   3.458   3.124
 6974TIP3    H120867   6.777   3.383   3.169
 6974TIP3    H220868   6.789   3.470   3.045
 6975TIP3   OH220869   7.948   4.065   3.803
 6975TIP3    H120870   7.977   4.037   3.716
 6975TIP3    H220871   7.905   3.989   3.840
 6976TIP3   OH220872   0.876   1.480   1.135
 6976TIP3    H120873   0.860   1.480   1.041
 6976TIP3    H220874   0.860   1.570   1.162
 6977TIP3   OH220875   2.968   2.005   0.436
 6977TIP3    H120876   2.954   1.912   0.451
 6977TIP3    H220877   2.891   2.032   0.385
 6978TIP3   OH220878   5.435   5.974   3.069
 6978TIP3    H120879   5.354   5.926   3.088
 6978TIP3    H220880   5.411   6.035   2.999
 6979TIP3   OH220881   0.761   0.991   0.406
 6979TIP3    H120882   0.707   0.912   0.403
 6979TIP3    H220883   0.737   1.040   0.328
 6980TIP3   OH220884   3.959   4.777   3.671
 6980TIP3    H120885   4.034   4.740   3.718
 6980TIP3    H220886   3.992   4.797   3.584
 6981TIP3   OH220887   5.538   2.090   3.242
 6981TIP3    H120888   5.478   2.023   3.208
 6981TIP3    H220889   5.494   2.123   3.320
 6982TIP3   OH220890   4.559   2.848   4.047
 6982TIP3    H120891   4.567   2.930   4.000
 6982TIP3    H220892   4.648   2.830   4.079
 6983TIP3   OH220893   5.183   5.809   1.642
 6983TIP3    H120894   5.217   5.794   1.554
 6983TIP3    H220895   5.179   5.904   1.650
 6984TIP3   OH220896   7.509   0.241   6.256
 6984TIP3    H120897   7.562   0.301   6.203
 6984TIP3    H220898   7.424   0.284   6.262
 6985TIP3   OH220899   3.920   1.642   3.746
 6985TIP3    H120900   3.848   1.646   3.683
 6985TIP3    H220901   3.990   1.694   3.707
 6986TIP3   OH220902   0.887   7.388   1.976
 6986TIP3    H120903   0.882   7.385   1.881
 6986TIP3    H220904   0.796   7.383   2.005
 6987TIP3   OH220905   4.118   7.308   1.269
 6987TIP3    H120906   4.163   7.235   1.311
 6987TIP3    H220907   4.027   7.277   1.259
 6988TIP3   OH220908   1.182   7.712   2.684
 6988TIP3    H120909   1.131   7.631   2.676
 6988TIP3    H220910   1.236   7.714   2.605
 6989TIP3   OH220911   4.125   1.234   1.395
 6989TIP3    H120912   4.163   1.220   1.308
 6989TIP3    H220913   4.061   1.165   1.405
 6990TIP3   OH220914   6.803   3.296   2.395
 6990TIP3    H120915   6.732   3.242   2.427
 6990TIP3    H220916   6.861   3.308   2.470
 6991TIP3   OH220917   3.494   6.006   1.828
 6991TIP3    H120918   3.444   6.087   1.839
 6991TIP3    H220919   3.581   6.035   1.800
 6992TIP3   OH220920   2.743   4.836   4.461
 6992TIP3    H120921   2.657   4.803   4.436
 6992TIP3    H220922   2.785   4.860   4.378
 6993TIP3   OH220923   3.277   1.048   4.018
 6993TIP3    H120924   3.270   1.041   4.113
 6993TIP3    H220925   3.219   0.981   3.984
 6994TIP3   OH220926   1.128   7.637   5.212
 6994TIP3    H120927   1.127   7.667   5.303
 6994TIP3    H220928   1.136   7.716   5.160
 6995TIP3   OH220929   0.694   4.077   4.417
 6995TIP3    H120930   0.695   3.981   4.423
 6995TIP3    H220931   0.604   4.101   4.440
 6996TIP3   OH220932   0.906   0.478   5.223
 6996TIP3    H120933   0.883   0.565   5.257
 6996TIP3    H220934   0.934   0.495   5.133
 6997TIP3   OH220935   7.398   3.421   4.616
 6997TIP3    H120936   7.428   3.371   4.540
 6997TIP3    H220937   7.442   3.381   4.690
 6998TIP3   OH220938   2.472   5.814   5.269
 6998TIP3    H120939   2.457   5.721   5.283
 6998TIP3    H220940   2.469   5.852   5.357
 6999TIP3   OH220941   2.541   4.274   5.084
 6999TIP3    H120942   2.460   4.280   5.034
 6999TIP3    H220943   2.540   4.185   5.120
 7000TIP3   OH220944   3.657   5.848   2.215
 7000TIP3    H120945   3.684   5.825   2.304
 7000TIP3    H220946   3.591   5.917   2.226
 7001TIP3   OH220947   4.824   5.485   3.783
 7001TIP3    H120948   4.742   5.498   3.831
 7001TIP3    H220949   4.868   5.570   3.789
 7002TIP3   OH220950   7.283   7.817   6.450
 7002TIP3    H120951   7.265   7.833   6.543
 7002TIP3    H220952   7.372   7.784   6.449
 7003TIP3   OH220953   1.962   5.702   3.805
 7003TIP3    H120954   1.932   5.681   3.717
 7003TIP3    H220955   1.881   5.720   3.854
 7004TIP3   OH220956   6.434   1.904   0.118
 7004TIP3    H120957   6.451   1.931   0.209
 7004TIP3    H220958   6.349   1.943   0.097
 7005TIP3   OH220959   7.806   5.905   2.338
 7005TIP3    H120960   7.898   5.905   2.362
 7005TIP3    H220961   7.793   5.988   2.291
 7006TIP3   OH220962   0.309   5.908   1.994
 7006TIP3    H120963   0.401   5.930   1.982
 7006TIP3    H220964   0.297   5.902   2.089
 7007TIP3   OH220965   0.346   0.653   5.636
 7007TIP3    H120966   0.432   0.630   5.601
 7007TIP3    H220967   0.365   0.710   5.710
 7008TIP3   OH220968   1.654   5.496   1.173
 7008TIP3    H120969   1.680   5.428   1.235
 7008TIP3    H220970   1.628   5.570   1.228
 7009TIP3   OH220971   0.201   6.800   3.209
 7009TIP3    H120972   0.186   6.873   3.150
 7009TIP3    H220973   0.120   6.749   3.208
 7010TIP3   OH220974   3.882   4.009   1.800
 7010TIP3    H120975   3.871   4.063   1.877
 7010TIP3    H220976   3.861   4.067   1.726
 7011TIP3   OH220977   2.473   7.106   5.285
 7011TIP3    H120978   2.450   7.065   5.369
 7011TIP3    H220979   2.543   7.168   5.307
 7012TIP3   OH220980   2.394   2.833   1.362
 7012TIP3    H120981   2.458   2.798   1.300
 7012TIP3    H220982   2.427   2.921   1.382
 7013TIP3   OH220983   7.329   7.101   6.665
 7013TIP3    H120984   7.247   7.150   6.672
 7013TIP3    H220985   7.390   7.163   6.624
 7014TIP3   OH220986   1.016   1.537   5.252
 7014TIP3    H120987   1.100   1.493   5.244
 7014TIP3    H220988   1.036   1.630   5.245
 7015TIP3   OH220989   3.885   3.538   0.194
 7015TIP3    H120990   3.868   3.469   0.258
 7015TIP3    H220991   3.800   3.559   0.158
 7016TIP3   OH220992   7.124   1.407   6.342
 7016TIP3    H120993   7.175   1.439   6.267
 7016TIP3    H220994   7.140   1.312   6.342
 7017TIP3   OH220995   5.684   2.409   3.954
 7017TIP3    H120996   5.751   2.450   3.900
 7017TIP3    H220997   5.629   2.482   3.983
 7018TIP3   OH220998   2.196   1.706   3.002
 7018TIP3    H120999   2.132   1.748   3.060
 7018TIP3    H221000   2.144   1.667   2.932
 7019TIP3   OH221001   7.775   3.820   2.635
 7019TIP3    H121002   7.863   3.836   2.602
 7019TIP3    H221003   7.717   3.844   2.562
 7020TIP3   OH221004   8.305   0.631   1.930
 7020TIP3    H121005   8.354   0.555   1.961
 7020TIP3    H221006   8.215   0.615   1.960
 7021TIP3   OH221007   6.336   0.743   5.763
 7021TIP3    H121008   6.315   0.795   5.841
 7021TIP3    H221009   6.347   0.808   5.694
 7022TIP3   OH221010   3.005   6.125   1.780
 7022TIP3    H121011   3.070   6.079   1.727
 7022TIP3    H221012   3.052   6.201   1.815
 7023TIP3   OH221013   4.905   1.340   4.260
 7023TIP3    H121014   4.881   1.410   4.320
 7023TIP3    H221015   4.933   1.385   4.180
 7024TIP3   OH221016   7.554   4.132   0.217
 7024TIP3    H121017   7.493   4.062   0.239
 7024TIP3    H221018   7.616   4.092   0.157
 7025TIP3   OH221019   1.176   1.833   4.373
 7025TIP3    H121020   1.198   1.832   4.466
 7025TIP3    H221021   1.083   1.812   4.371
 7026TIP3   OH221022   5.556   2.431   1.706
 7026TIP3    H121023   5.493   2.498   1.733
 7026TIP3    H221024   5.610   2.474   1.640
 7027TIP3   OH221025   1.866   7.669   1.496
 7027TIP3    H121026   1.792   7.726   1.519
 7027TIP3    H221027   1.827   7.584   1.480
 7028TIP3   OH221028   4.524   2.732   2.554
 7028TIP3    H121029   4.508   2.707   2.645
 7028TIP3    H221030   4.619   2.723   2.544
 7029TIP3   OH221031   2.752   6.168   1.675
 7029TIP3    H121032   2.836   6.198   1.709
 7029TIP3    H221033   2.737   6.223   1.598
 7030TIP3   OH221034   5.275   6.200   0.906
 7030TIP3    H121035   5.326   6.203   0.825
 7030TIP3    H221036   5.308   6.274   0.958
 7031TIP3   OH221037   4.685   2.465   1.559
 7031TIP3    H121038   4.750   2.404   1.596
 7031TIP3    H221039   4.608   2.411   1.543
 7032TIP3   OH221040   2.487   1.135   6.048
 7032TIP3    H121041   2.553   1.103   5.986
 7032TIP3    H221042   2.494   1.230   6.042
 7033TIP3   OH221043   3.359   6.704   1.777
 7033TIP3    H121044   3.440   6.686   1.729
 7033TIP3    H221045   3.383   6.692   1.869
 7034TIP3   OH221046   5.662   6.664   0.223
 7034TIP3    H121047   5.747   6.666   0.266
 7034TIP3    H221048   5.607   6.610   0.280
 7035TIP3   OH221049   3.493   3.722   4.409
 7035TIP3    H121050   3.486   3.737   4.315
 7035TIP3    H221051   3.451   3.799   4.449
 7036TIP3   OH221052   3.488   0.052   3.697
 7036TIP3    H121053   3.490   0.145   3.677
 7036TIP3    H221054   3.427   0.044   3.770
 7037TIP3   OH221055   4.739   0.577   1.882
 7037TIP3    H121056   4.821   0.529   1.890
 7037TIP3    H221057   4.706   0.554   1.795
 7038TIP3   OH221058   7.069   5.757   3.119
 7038TIP3    H121059   7.101   5.788   3.204
 7038TIP3    H221060   6.999   5.818   3.096
 7039TIP3   OH221061   2.462   7.289   4.231
 7039TIP3    H121062   2.442   7.320   4.319
 7039TIP3    H221063   2.393   7.226   4.212
 7040TIP3   OH221064   4.675   2.815   1.700
 7040TIP3    H121065   4.609   2.764   1.748
 7040TIP3    H221066   4.628   2.892   1.670
 7041TIP3   OH221067   5.414   2.454   5.103
 7041TIP3    H121068   5.330   2.458   5.148
 7041TIP3    H221069   5.402   2.388   5.034
 7042TIP3   OH221070   4.399   2.213   0.422
 7042TIP3    H121071   4.476   2.220   0.478
 7042TIP3    H221072   4.396   2.120   0.397
 7043TIP3   OH221073   0.068   7.493   1.798
 7043TIP3    H121074  -0.022   7.524   1.808
 7043TIP3    H221075   0.064   7.427   1.729
 7044TIP3   OH221076   5.820   7.650   0.909
 7044TIP3    H121077   5.743   7.633   0.855
 7044TIP3    H221078   5.813   7.742   0.933
 7045TIP3   OH221079   2.760   6.773   3.647
 7045TIP3    H121080   2.801   6.857   3.627
 7045TIP3    H221081   2.823   6.708   3.616
 7046TIP3   OH221082   7.575   4.089   3.754
 7046TIP3    H121083   7.662   4.129   3.744
 7046TIP3    H221084   7.517   4.163   3.772
 7047TIP3   OH221085   0.261   2.507   0.547
 7047TIP3    H121086   0.197   2.569   0.513
 7047TIP3    H221087   0.252   2.430   0.491
 7048TIP3   OH221088   6.843   7.478   0.005
 7048TIP3    H121089   6.814   7.495   0.094
 7048TIP3    H221090   6.869   7.564  -0.028
 7049TIP3   OH221091   7.716   4.638   6.587
 7049TIP3    H121092   7.651   4.635   6.517
 7049TIP3    H221093   7.746   4.547   6.595
 7050TIP3   OH221094   7.879   7.150   2.841
 7050TIP3    H121095   7.798   7.104   2.864
 7050TIP3    H221096   7.929   7.151   2.922
 7051TIP3   OH221097   4.463   4.596   5.760
 7051TIP3    H121098   4.552   4.565   5.742
 7051TIP3    H221099   4.434   4.633   5.676
 7052TIP3   OH221100   6.323   2.259   1.939
 7052TIP3    H121101   6.377   2.196   1.987
 7052TIP3    H221102   6.281   2.207   1.870
 7053TIP3   OH221103   8.279   1.153   5.673
 7053TIP3    H121104   8.292   1.177   5.582
 7053TIP3    H221105   8.260   1.237   5.717
 7054TIP3   OH221106   7.824   3.211   3.300
 7054TIP3    H121107   7.857   3.301   3.298
 7054TIP3    H221108   7.740   3.217   3.345
 7055TIP3   OH221109   7.891   0.946   1.347
 7055TIP3    H121110   7.866   0.856   1.366
 7055TIP3    H221111   7.924   0.979   1.431
 7056TIP3   OH221112   1.489   2.526   0.138
 7056TIP3    H121113   1.568   2.580   0.141
 7056TIP3    H221114   1.474   2.500   0.229
 7057TIP3   OH221115   5.246   2.869   2.983
 7057TIP3    H121116   5.230   2.926   3.059
 7057TIP3    H221117   5.214   2.784   3.011
 7058TIP3   OH221118   1.138   5.989   2.926
 7058TIP3    H121119   1.084   6.068   2.928
 7058TIP3    H221120   1.213   6.013   2.872
 7059TIP3   OH221121   1.648   5.038   2.220
 7059TIP3    H121122   1.561   5.069   2.193
 7059TIP3    H221123   1.639   5.020   2.313
 7060TIP3   OH221124   3.086   3.476   0.759
 7060TIP3    H121125   3.008   3.529   0.773
 7060TIP3    H221126   3.093   3.468   0.664
 7061TIP3   OH221127  -0.004   6.010   6.311
 7061TIP3    H121128  -0.002   5.915   6.328
 7061TIP3    H221129   0.083   6.040   6.336
 7062TIP3   OH221130   4.927   0.775   3.130
 7062TIP3    H121131   4.856   0.835   3.108
 7062TIP3    H221132   4.882   0.697   3.163
 7063TIP3   OH221133   6.178   7.401   5.846
 7063TIP3    H121134   6.250   7.411   5.785
 7063TIP3    H221135   6.202   7.456   5.921
 7064TIP3   OH221136   8.127   0.709   0.940
 7064TIP3    H121137   8.109   0.788   0.990
 7064TIP3    H221138   8.066   0.644   0.976
 7065TIP3   OH221139   6.253   7.359   6.522
 7065TIP3    H121140   6.347   7.376   6.527
 7065TIP3    H221141   6.232   7.363   6.429
 7066TIP3   OH221142   5.948   7.155   6.733
 7066TIP3    H121143   6.039   7.128   6.719
 7066TIP3    H221144   5.942   7.242   6.694
 7067TIP3   OH221145   6.824   4.178   4.298
 7067TIP3    H121146   6.878   4.202   4.374
 7067TIP3    H221147   6.882   4.187   4.223
 7068TIP3   OH221148   2.571   4.876   5.420
 7068TIP3    H121149   2.540   4.933   5.351
 7068TIP3    H221150   2.621   4.808   5.374
 7069TIP3   OH221151   2.667   3.030   2.079
 7069TIP3    H121152   2.681   3.001   2.169
 7069TIP3    H221153   2.746   3.001   2.032
 7070TIP3   OH221154   7.311   5.877   5.876
 7070TIP3    H121155   7.354   5.868   5.791
 7070TIP3    H221156   7.316   5.789   5.915
 7071TIP3   OH221157   7.497   2.712   0.057
 7071TIP3    H121158   7.565   2.775   0.032
 7071TIP3    H221159   7.544   2.645   0.106
 7072TIP3   OH221160   6.632   4.559   0.473
 7072TIP3    H121161   6.590   4.619   0.411
 7072TIP3    H221162   6.685   4.501   0.418
 7073TIP3   OH221163  -0.027   5.306   6.604
 7073TIP3    H121164   0.067   5.293   6.617
 7073TIP3    H221165  -0.036   5.320   6.510
 7074TIP3   OH221166   6.497   5.469   6.415
 7074TIP3    H121167   6.480   5.442   6.505
 7074TIP3    H221168   6.469   5.395   6.361
 7075TIP3   OH221169   7.894   7.761   0.881
 7075TIP3    H121170   7.989   7.773   0.885
 7075TIP3    H221171   7.859   7.825   0.943
 7076TIP3   OH221172   0.864   4.028   0.646
 7076TIP3    H121173   0.839   4.054   0.558
 7076TIP3    H221174   0.815   4.088   0.703
 7077TIP3   OH221175   4.719   4.157   1.562
 7077TIP3    H121176   4.804   4.185   1.596
 7077TIP3    H221177   4.739   4.109   1.482
 7078TIP3   OH221178   1.463   6.030   1.348
 7078TIP3    H121179   1.441   5.963   1.283
 7078TIP3    H221180   1.399   6.100   1.333
 7079TIP3   OH221181   2.774   2.412   6.083
 7079TIP3    H121182   2.724   2.447   6.156
 7079TIP3    H221183   2.765   2.317   6.091
 7080TIP3   OH221184   2.712   3.790   5.503
 7080TIP3    H121185   2.621   3.773   5.528
 7080TIP3    H221186   2.727   3.731   5.429
 7081TIP3   OH221187   4.211   4.711   1.435
 7081TIP3    H121188   4.257   4.788   1.402
 7081TIP3    H221189   4.194   4.731   1.527
 7082TIP3   OH221190   1.900   1.111   2.747
 7082TIP3    H121191   1.984   1.066   2.737
 7082TIP3    H221192   1.846   1.076   2.677
 7083TIP3   OH221193   3.901   3.926   3.201
 7083TIP3    H121194   3.921   3.841   3.240
 7083TIP3    H221195   3.807   3.937   3.213
 7084TIP3   OH221196   4.464   5.749   5.529
 7084TIP3    H121197   4.442   5.842   5.528
 7084TIP3    H221198   4.425   5.715   5.610
 7085TIP3   OH221199   3.601   5.332   0.480
 7085TIP3    H121200   3.576   5.336   0.572
 7085TIP3    H221201   3.610   5.423   0.453
 7086TIP3   OH221202   7.358   3.622   0.396
 7086TIP3    H121203   7.390   3.635   0.307
 7086TIP3    H221204   7.367   3.527   0.411
 7087TIP3   OH221205   8.032   1.292   5.233
 7087TIP3    H121206   7.944   1.267   5.204
 7087TIP3    H221207   8.070   1.338   5.159
 7088TIP3   OH221208   4.813   2.648   1.022
 7088TIP3    H121209   4.809   2.737   0.987
 7088TIP3    H221210   4.724   2.615   1.017
 7089TIP3   OH221211   0.860   4.734   6.504
 7089TIP3    H121212   0.891   4.758   6.591
 7089TIP3    H221213   0.939   4.710   6.456
 7090TIP3   OH221214   4.702   5.403   3.473
 7090TIP3    H121215   4.702   5.425   3.566
 7090TIP3    H221216   4.642   5.329   3.466
 7091TIP3   OH221217   2.029   0.315   6.682
 7091TIP3    H121218   2.097   0.264   6.637
 7091TIP3    H221219   1.986   0.364   6.612
 7092TIP3   OH221220   8.237   5.873   1.517
 7092TIP3    H121221   8.192   5.865   1.601
 7092TIP3    H221222   8.316   5.820   1.527
 7093TIP3   OH221223   1.484   1.767   6.546
 7093TIP3    H121224   1.394   1.798   6.555
 7093TIP3    H221225   1.475   1.675   6.518
 7094TIP3   OH221226   0.128   1.996   3.978
 7094TIP3    H121227   0.213   2.041   3.968
 7094TIP3    H221228   0.129   1.928   3.911
 7095TIP3   OH221229   0.994   6.007   4.412
 7095TIP3    H121230   0.909   6.008   4.369
 7095TIP3    H221231   1.022   6.098   4.413
 7096TIP3   OH221232   5.465   5.901   0.672
 7096TIP3    H121233   5.499   5.942   0.752
 7096TIP3    H221234   5.387   5.855   0.701
 7097TIP3   OH221235   2.475   3.614   2.176
 7097TIP3    H121236   2.570   3.631   2.178
 7097TIP3    H221237   2.439   3.674   2.240
 7098TIP3   OH221238   6.893   4.551   4.283
 7098TIP3    H121239   6.933   4.638   4.286
 7098TIP3    H221240   6.906   4.522   4.193
 7099TIP3   OH221241   2.954   2.699   5.163
 7099TIP3    H121242   2.917   2.611   5.171
 7099TIP3    H221243   2.988   2.719   5.250
 7100TIP3   OH221244   0.176   2.642   3.420
 7100TIP3    H121245   0.159   2.734   3.443
 7100TIP3    H221246   0.268   2.629   3.441
 7101TIP3   OH221247   6.796   2.891   2.967
 7101TIP3    H121248   6.724   2.832   2.990
 7101TIP3    H221249   6.761   2.978   2.981
 7102TIP3   OH221250   2.534   6.879   2.592
 7102TIP3    H121251   2.476   6.928   2.534
 7102TIP3    H221252   2.622   6.895   2.558
 7103TIP3   OH221253   0.379   1.884   4.605
 7103TIP3    H121254   0.426   1.859   4.684
 7103TIP3    H221255   0.294   1.841   4.613
 7104TIP3   OH221256   7.576   1.698   0.992
 7104TIP3    H121257   7.612   1.616   0.957
 7104TIP3    H221258   7.501   1.670   1.044
 7105TIP3   OH221259   0.632   0.484   4.283
 7105TIP3    H121260   0.724   0.493   4.260
 7105TIP3    H221261   0.630   0.414   4.349
 7106TIP3   OH221262   0.364   2.491   1.837
 7106TIP3    H121263   0.336   2.480   1.928
 7106TIP3    H221264   0.419   2.415   1.819
 7107TIP3   OH221265   5.386   3.712   0.338
 7107TIP3    H121266   5.292   3.726   0.355
 7107TIP3    H221267   5.398   3.618   0.350
 7108TIP3   OH221268   0.165   1.153   4.747
 7108TIP3    H121269   0.225   1.156   4.673
 7108TIP3    H221270   0.096   1.093   4.720
 7109TIP3   OH221271   3.809   6.336   6.488
 7109TIP3    H121272   3.841   6.417   6.447
 7109TIP3    H221273   3.810   6.356   6.582
 7110TIP3   OH221274   0.805   5.399   3.000
 7110TIP3    H121275   0.762   5.359   3.075
 7110TIP3    H221276   0.785   5.342   2.926
 7111TIP3   OH221277   0.575   2.332   5.036
 7111TIP3    H121278   0.548   2.316   5.127
 7111TIP3    H221279   0.629   2.411   5.042
 7112TIP3   OH221280   5.551   2.947   4.971
 7112TIP3    H121281   5.624   2.969   4.913
 7112TIP3    H221282   5.539   3.025   5.025
 7113TIP3   OH221283   1.059   0.945   5.828
 7113TIP3    H121284   1.046   1.039   5.824
 7113TIP3    H221285   1.031   0.913   5.742
 7114TIP3   OH221286   7.256   5.115   0.612
 7114TIP3    H121287   7.344   5.132   0.644
 7114TIP3    H221288   7.233   5.192   0.561
 7115TIP3   OH221289   8.092   7.263   5.787
 7115TIP3    H121290   8.186   7.264   5.802
 7115TIP3    H221291   8.083   7.258   5.692
 7116TIP3   OH221292   0.503   1.492   4.706
 7116TIP3    H121293   0.418   1.475   4.664
 7116TIP3    H221294   0.560   1.518   4.634
 7117TIP3   OH221295   1.933   7.160   4.287
 7117TIP3    H121296   1.966   7.228   4.228
 7117TIP3    H221297   1.903   7.091   4.228
 7118TIP3   OH221298   2.779   6.865   1.178
 7118TIP3    H121299   2.700   6.811   1.179
 7118TIP3    H221300   2.756   6.944   1.227
 7119TIP3   OH221301   7.050   2.389   6.384
 7119TIP3    H121302   7.087   2.329   6.320
 7119TIP3    H221303   6.981   2.339   6.427
 7120TIP3   OH221304   4.392   6.243   5.878
 7120TIP3    H121305   4.306   6.204   5.862
 7120TIP3    H221306   4.408   6.300   5.803
 7121TIP3   OH221307   6.711   3.317   3.537
 7121TIP3    H121308   6.741   3.299   3.448
 7121TIP3    H221309   6.682   3.408   3.534
 7122TIP3   OH221310   0.819   7.124   5.825
 7122TIP3    H121311   0.756   7.196   5.832
 7122TIP3    H221312   0.900   7.167   5.797
 7123TIP3   OH221313   6.462   0.421   5.549
 7123TIP3    H121314   6.372   0.391   5.557
 7123TIP3    H221315   6.456   0.516   5.545
 7124TIP3   OH221316   5.319   2.744   5.747
 7124TIP3    H121317   5.254   2.722   5.680
 7124TIP3    H221318   5.299   2.834   5.771
 7125TIP3   OH221319   5.646   3.648   6.575
 7125TIP3    H121320   5.682   3.631   6.662
 7125TIP3    H221321   5.569   3.703   6.592
 7126TIP3   OH221322   3.357   0.249   6.393
 7126TIP3    H121323   3.315   0.314   6.337
 7126TIP3    H221324   3.365   0.171   6.339
 7127TIP3   OH221325   1.303   3.850   3.335
 7127TIP3    H121326   1.373   3.823   3.394
 7127TIP3    H221327   1.256   3.919   3.383
 7128TIP3   OH221328   1.590   4.464   2.514
 7128TIP3    H121329   1.532   4.420   2.577
 7128TIP3    H221330   1.668   4.409   2.511
 7129TIP3   OH221331   6.628   2.400   1.170
 7129TIP3    H121332   6.590   2.340   1.105
 7129TIP3    H221333   6.675   2.344   1.231
 7130TIP3   OH221334   2.694   2.799   5.062
 7130TIP3    H121335   2.692   2.825   4.970
 7130TIP3    H221336   2.787   2.797   5.084
 7131TIP3   OH221337   3.321   1.229   2.234
 7131TIP3    H121338   3.379   1.306   2.237
 7131TIP3    H221339   3.242   1.261   2.191
 7132TIP3   OH221340   3.987   0.035   0.592
 7132TIP3    H121341   4.021   0.004   0.676
 7132TIP3    H221342   4.058   0.088   0.556
 7133TIP3   OH221343   1.176   3.046   1.842
 7133TIP3    H121344   1.181   2.967   1.897
 7133TIP3    H221345   1.091   3.039   1.799
 7134TIP3   OH221346   1.869   7.667   4.033
 7134TIP3    H121347   1.961   7.669   4.005
 7134TIP3    H221348   1.864   7.592   4.093
 7135TIP3   OH221349   5.707   2.674   1.832
 7135TIP3    H121350   5.739   2.619   1.903
 7135TIP3    H221351   5.652   2.739   1.875
 7136TIP3   OH221352   2.092   5.191   1.980
 7136TIP3    H121353   2.169   5.141   1.952
 7136TIP3    H221354   2.026   5.172   1.914
 7137TIP3   OH221355   1.970   3.654   3.588
 7137TIP3    H121356   2.058   3.659   3.625
 7137TIP3    H221357   1.915   3.705   3.648
 7138TIP3   OH221358   4.896   3.649   5.078
 7138TIP3    H121359   4.988   3.637   5.056
 7138TIP3    H221360   4.850   3.637   4.994
 7139TIP3   OH221361   0.405   7.141   4.651
 7139TIP3    H121362   0.436   7.117   4.739
 7139TIP3    H221363   0.464   7.211   4.623
 7140TIP3   OH221364   1.569   2.339   0.568
 7140TIP3    H121365   1.581   2.414   0.509
 7140TIP3    H221366   1.607   2.265   0.520
 7141TIP3   OH221367   5.410   2.865   2.451
 7141TIP3    H121368   5.409   2.905   2.538
 7141TIP3    H221369   5.318   2.869   2.423
 7142TIP3   OH221370   1.785   1.332   5.144
 7142TIP3    H121371   1.791   1.262   5.080
 7142TIP3    H221372   1.700   1.373   5.128
 7143TIP3   OH221373   6.454   2.371   5.582
 7143TIP3    H121374   6.528   2.430   5.568
 7143TIP3    H221375   6.377   2.426   5.576
 7144TIP3   OH221376   4.284   2.671   4.425
 7144TIP3    H121377   4.253   2.750   4.381
 7144TIP3    H221378   4.379   2.681   4.429
 7145TIP3   OH221379   3.842   3.029   0.099
 7145TIP3    H121380   3.910   2.962   0.103
 7145TIP3    H221381   3.764   2.986   0.135
 7146TIP3   OH221382   3.257   4.548   4.390
 7146TIP3    H121383   3.225   4.477   4.445
 7146TIP3    H221384   3.213   4.534   4.306
 7147TIP3   OH221385   3.400   0.688   2.247
 7147TIP3    H121386   3.426   0.630   2.175
 7147TIP3    H221387   3.329   0.741   2.209
 7148TIP3   OH221388   7.585   5.173   3.799
 7148TIP3    H121389   7.570   5.134   3.712
 7148TIP3    H221390   7.522   5.129   3.856
 7149TIP3   OH221391   1.249   7.116   4.505
 7149TIP3    H121392   1.211   7.040   4.549
 7149TIP3    H221393   1.201   7.191   4.541
 7150TIP3   OH221394   1.506   1.228   3.234
 7150TIP3    H121395   1.527   1.141   3.201
 7150TIP3    H221396   1.545   1.231   3.321
 7151TIP3   OH221397   5.775   0.434   0.137
 7151TIP3    H121398   5.741   0.397   0.219
 7151TIP3    H221399   5.843   0.373   0.109
 7152TIP3   OH221400   8.161   2.520   1.849
 7152TIP3    H121401   8.152   2.605   1.891
 7152TIP3    H221402   8.117   2.459   1.909
 7153TIP3   OH221403   2.810   3.163   0.889
 7153TIP3    H121404   2.846   3.208   0.966
 7153TIP3    H221405   2.837   3.072   0.900
 7154TIP3   OH221406   2.117   3.444   0.787
 7154TIP3    H121407   2.099   3.537   0.773
 7154TIP3    H221408   2.149   3.413   0.703
 7155TIP3   OH221409   1.830   6.722   3.437
 7155TIP3    H121410   1.864   6.666   3.507
 7155TIP3    H221411   1.738   6.735   3.461
 7156TIP3   OH221412   2.702   5.151   3.349
 7156TIP3    H121413   2.648   5.225   3.321
 7156TIP3    H221414   2.647   5.103   3.410
 7157TIP3   OH221415   0.708   6.931   5.216
 7157TIP3    H121416   0.725   6.869   5.287
 7157TIP3    H221417   0.613   6.927   5.203
 7158TIP3   OH221418   0.516   7.250   0.389
 7158TIP3    H121419   0.436   7.217   0.431
 7158TIP3    H221420   0.492   7.264   0.298
 7159TIP3   OH221421   0.722   6.271   0.340
 7159TIP3    H121422   0.674   6.188   0.336
 7159TIP3    H221423   0.726   6.301   0.250
 7160TIP3   OH221424   1.127   0.534   1.662
 7160TIP3    H121425   1.057   0.599   1.660
 7160TIP3    H221426   1.104   0.472   1.594
 7161TIP3   OH221427   2.480   5.228   2.139
 7161TIP3    H121428   2.530   5.158   2.097
 7161TIP3    H221429   2.429   5.184   2.207
 7162TIP3   OH221430   6.084   5.060   3.833
 7162TIP3    H121431   6.028   5.076   3.757
 7162TIP3    H221432   6.139   4.986   3.807
 7163TIP3   OH221433   6.637   6.916   5.034
 7163TIP3    H121434   6.602   6.858   5.101
 7163TIP3    H221435   6.730   6.925   5.055
 7164TIP3   OH221436   5.965   3.595   6.599
 7164TIP3    H121437   5.931   3.526   6.543
 7164TIP3    H221438   5.897   3.608   6.665
 7165TIP3   OH221439   0.238   4.797   3.800
 7165TIP3    H121440   0.224   4.844   3.718
 7165TIP3    H221441   0.154   4.801   3.845
 7166TIP3   OH221442   0.571   0.727   6.646
 7166TIP3    H121443   0.627   0.780   6.703
 7166TIP3    H221444   0.563   0.779   6.565
 7167TIP3   OH221445   6.269   0.112   1.466
 7167TIP3    H121446   6.254   0.019   1.482
 7167TIP3    H221447   6.281   0.150   1.553
 7168TIP3   OH221448   6.094   4.123   2.962
 7168TIP3    H121449   6.177   4.108   2.917
 7168TIP3    H221450   6.028   4.083   2.905
 7169TIP3   OH221451   4.186   5.016   5.348
 7169TIP3    H121452   4.196   5.092   5.406
 7169TIP3    H221453   4.262   5.021   5.290
 7170TIP3   OH221454   4.951   4.637   2.256
 7170TIP3    H121455   4.866   4.593   2.259
 7170TIP3    H221456   4.937   4.712   2.200
 7171TIP3   OH221457   7.191   1.791   6.460
 7171TIP3    H121458   7.139   1.868   6.482
 7171TIP3    H221459   7.183   1.734   6.537
 7172TIP3   OH221460   3.149   3.408   2.827
 7172TIP3    H121461   3.227   3.455   2.797
 7172TIP3    H221462   3.135   3.440   2.916
 7173TIP3   OH221463   2.135   2.480   6.538
 7173TIP3    H121464   2.099   2.403   6.582
 7173TIP3    H221465   2.228   2.480   6.561
 7174TIP3   OH221466   4.844   4.361   4.731
 7174TIP3    H121467   4.751   4.385   4.733
 7174TIP3    H221468   4.871   4.359   4.822
 7175TIP3   OH221469   5.464   4.590   5.591
 7175TIP3    H121470   5.510   4.515   5.629
 7175TIP3    H221471   5.371   4.567   5.600
 7176TIP3   OH221472   4.198   1.737   6.324
 7176TIP3    H121473   4.278   1.707   6.368
 7176TIP3    H221474   4.129   1.681   6.361
 7177TIP3   OH221475   1.949   1.865   0.703
 7177TIP3    H121476   1.898   1.942   0.678
 7177TIP3    H221477   2.022   1.899   0.754
 7178TIP3   OH221478   3.996   1.372   4.566
 7178TIP3    H121479   4.028   1.320   4.640
 7178TIP3    H221480   3.902   1.378   4.579
 7179TIP3   OH221481   1.522   5.537   2.137
 7179TIP3    H121482   1.454   5.478   2.170
 7179TIP3    H221483   1.569   5.565   2.215
 7180TIP3   OH221484   7.094   1.385   3.701
 7180TIP3    H121485   7.102   1.431   3.784
 7180TIP3    H221486   7.169   1.326   3.698
 7181TIP3   OH221487   6.524   7.146   4.888
 7181TIP3    H121488   6.538   7.053   4.906
 7181TIP3    H221489   6.604   7.189   4.918
 7182TIP3   OH221490   0.862   0.340   3.509
 7182TIP3    H121491   0.814   0.378   3.582
 7182TIP3    H221492   0.901   0.416   3.464
 7183TIP3   OH221493   2.799   7.153   3.406
 7183TIP3    H121494   2.793   7.137   3.312
 7183TIP3    H221495   2.826   7.244   3.413
 7184TIP3   OH221496   2.707   1.500   1.484
 7184TIP3    H121497   2.782   1.558   1.472
 7184TIP3    H221498   2.657   1.509   1.403
 7185TIP3   OH221499   4.401   1.277   4.616
 7185TIP3    H121500   4.364   1.334   4.548
 7185TIP3    H221501   4.336   1.279   4.686
 7186TIP3   OH221502   2.993   1.488   3.373
 7186TIP3    H121503   3.068   1.441   3.336
 7186TIP3    H221504   3.021   1.512   3.461
 7187TIP3   OH221505   5.916   3.531   1.328
 7187TIP3    H121506   5.920   3.565   1.238
 7187TIP3    H221507   6.003   3.492   1.342
 7188TIP3   OH221508   0.126   3.736   4.393
 7188TIP3    H121509   0.116   3.726   4.298
 7188TIP3    H221510   0.221   3.741   4.407
 7189TIP3   OH221511   7.104   2.758   1.541
 7189TIP3    H121512   7.023   2.806   1.524
 7189TIP3    H221513   7.158   2.820   1.590
 7190TIP3   OH221514   3.275   2.791   3.373
 7190TIP3    H121515   3.341   2.827   3.433
 7190TIP3    H221516   3.321   2.779   3.290
 7191TIP3   OH221517   5.937   6.879   3.863
 7191TIP3    H121518   5.937   6.783   3.859
 7191TIP3    H221519   6.009   6.900   3.923
 7192TIP3   OH221520   1.827   1.203   3.270
 7192TIP3    H121521   1.845   1.110   3.257
 7192TIP3    H221522   1.752   1.204   3.331
 7193TIP3   OH221523   3.673   6.959   5.128
 7193TIP3    H121524   3.585   6.997   5.118
 7193TIP3    H221525   3.658   6.866   5.143
 7194TIP3   OH221526   1.989   5.781   2.591
 7194TIP3    H121527   2.032   5.823   2.665
 7194TIP3    H221528   1.906   5.750   2.626
 7195TIP3   OH221529   3.325   2.621   2.936
 7195TIP3    H121530   3.341   2.693   2.875
 7195TIP3    H221531   3.238   2.639   2.971
 7196TIP3   OH221532   3.574   3.232   1.997
 7196TIP3    H121533   3.661   3.229   1.957
 7196TIP3    H221534   3.585   3.287   2.075
 7197TIP3   OH221535   5.538   6.419   6.189
 7197TIP3    H121536   5.459   6.421   6.243
 7197TIP3    H221537   5.520   6.351   6.124
 7198TIP3   OH221538   5.339   4.254   1.742
 7198TIP3    H121539   5.349   4.166   1.780
 7198TIP3    H221540   5.423   4.270   1.699
 7199TIP3   OH221541   3.522   4.499   3.561
 7199TIP3    H121542   3.576   4.477   3.485
 7199TIP3    H221543   3.582   4.546   3.619
 7200TIP3   OH221544   7.928   5.444   6.042
 7200TIP3    H121545   7.934   5.524   6.094
 7200TIP3    H221546   7.956   5.374   6.101
 7201TIP3   OH221547   0.231   4.007   3.403
 7201TIP3    H121548   0.255   4.099   3.396
 7201TIP3    H221549   0.302   3.961   3.358
 7202TIP3   OH221550   2.114   2.516   1.667
 7202TIP3    H121551   2.073   2.575   1.604
 7202TIP3    H221552   2.156   2.574   1.731
 7203TIP3   OH221553   7.144   0.234   1.379
 7203TIP3    H121554   7.071   0.174   1.366
 7203TIP3    H221555   7.116   0.292   1.449
 7204TIP3   OH221556   5.034   2.869   0.493
 7204TIP3    H121557   5.045   2.855   0.587
 7204TIP3    H221558   5.123   2.868   0.458
 7205TIP3   OH221559   1.084   7.204   0.765
 7205TIP3    H121560   1.113   7.293   0.747
 7205TIP3    H221561   1.074   7.164   0.679
 7206TIP3   OH221562   1.201   3.217   4.618
 7206TIP3    H121563   1.285   3.256   4.640
 7206TIP3    H221564   1.135   3.276   4.654
 7207TIP3   OH221565   7.516   4.383   5.304
 7207TIP3    H121566   7.587   4.387   5.241
 7207TIP3    H221567   7.469   4.302   5.282
 7208TIP3   OH221568   4.683   5.471   3.109
 7208TIP3    H121569   4.757   5.410   3.104
 7208TIP3    H221570   4.721   5.551   3.146
 7209TIP3   OH221571   6.888   6.311   0.229
 7209TIP3    H121572   6.880   6.400   0.263
 7209TIP3    H221573   6.836   6.312   0.149
 7210TIP3   OH221574   3.570   4.442   0.484
 7210TIP3    H121575   3.519   4.509   0.439
 7210TIP3    H221576   3.505   4.379   0.516
 7211TIP3   OH221577   7.843   2.400   4.046
 7211TIP3    H121578   7.773   2.464   4.058
 7211TIP3    H221579   7.896   2.407   4.125
 7212TIP3   OH221580   3.600   2.315   0.826
 7212TIP3    H121581   3.643   2.232   0.846
 7212TIP3    H221582   3.506   2.295   0.826
 7213TIP3   OH221583   5.526   7.236   5.188
 7213TIP3    H121584   5.571   7.267   5.267
 7213TIP3    H221585   5.595   7.197   5.135
 7214TIP3   OH221586   5.831   5.962   2.122
 7214TIP3    H121587   5.852   5.890   2.182
 7214TIP3    H221588   5.738   5.978   2.135
 7215TIP3   OH221589   6.954   5.210   0.756
 7215TIP3    H121590   6.941   5.304   0.769
 7215TIP3    H221591   6.958   5.173   0.844
 7216TIP3   OH221592   3.898   7.727   5.102
 7216TIP3    H121593   3.815   7.764   5.073
 7216TIP3    H221594   3.940   7.798   5.150
 7217TIP3   OH221595   1.809   1.162   6.712
 7217TIP3    H121596   1.723   1.130   6.685
 7217TIP3    H221597   1.815   1.140   6.805
 7218TIP3   OH221598   0.570   1.748   3.536
 7218TIP3    H121599   0.630   1.686   3.493
 7218TIP3    H221600   0.544   1.703   3.616
 7219TIP3   OH221601   0.095   5.975   0.110
 7219TIP3    H121602   0.133   5.912   0.172
 7219TIP3    H221603   0.089   5.927   0.028
 7220TIP3   OH221604   4.216   7.666   0.433
 7220TIP3    H121605   4.133   7.696   0.469
 7220TIP3    H221606   4.279   7.680   0.504
 7221TIP3   OH221607   0.866   3.862   2.060
 7221TIP3    H121608   0.837   3.949   2.087
 7221TIP3    H221609   0.794   3.828   2.007
 7222TIP3   OH221610   0.882   6.133   5.583
 7222TIP3    H121611   0.952   6.182   5.540
 7222TIP3    H221612   0.801   6.174   5.552
 7223TIP3   OH221613   5.362   1.470   3.350
 7223TIP3    H121614   5.392   1.416   3.423
 7223TIP3    H221615   5.279   1.430   3.322
 7224TIP3   OH221616   0.138   4.507   3.915
 7224TIP3    H121617   0.091   4.590   3.902
 7224TIP3    H221618   0.151   4.474   3.826
 7225TIP3   OH221619   6.782   0.570   6.335
 7225TIP3    H121620   6.842   0.625   6.385
 7225TIP3    H221621   6.790   0.483   6.374
 7226TIP3   OH221622   4.341   7.085   5.126
 7226TIP3    H121623   4.311   6.996   5.108
 7226TIP3    H221624   4.393   7.078   5.206
 7227TIP3   OH221625   4.728   6.673   5.560
 7227TIP3    H121626   4.805   6.729   5.566
 7227TIP3    H221627   4.665   6.724   5.510
 7228TIP3   OH221628   5.029   1.299   6.080
 7228TIP3    H121629   5.066   1.258   6.158
 7228TIP3    H221630   5.036   1.393   6.098
 7229TIP3   OH221631   3.045   0.646   0.552
 7229TIP3    H121632   3.079   0.678   0.636
 7229TIP3    H221633   3.025   0.725   0.502
 7230TIP3   OH221634   3.122   4.508   2.796
 7230TIP3    H121635   3.165   4.448   2.857
 7230TIP3    H221636   3.114   4.590   2.844
 7231TIP3   OH221637   3.050   6.793   5.935
 7231TIP3    H121638   3.013   6.804   6.023
 7231TIP3    H221639   3.137   6.757   5.950
 7232TIP3   OH221640   6.752   0.025   4.207
 7232TIP3    H121641   6.813   0.099   4.209
 7232TIP3    H221642   6.808  -0.052   4.201
 7233TIP3   OH221643   7.749   0.603   4.834
 7233TIP3    H121644   7.788   0.537   4.776
 7233TIP3    H221645   7.662   0.619   4.796
 7234TIP3   OH221646   7.467   5.468   4.450
 7234TIP3    H121647   7.500   5.447   4.363
 7234TIP3    H221648   7.533   5.433   4.510
 7235TIP3   OH221649   7.523   5.253   3.474
 7235TIP3    H121650   7.563   5.246   3.387
 7235TIP3    H221651   7.457   5.322   3.464
 7236TIP3   OH221652   6.427   5.272   2.078
 7236TIP3    H121653   6.400   5.240   1.992
 7236TIP3    H221654   6.511   5.229   2.094
 7237TIP3   OH221655   3.384   6.110   1.046
 7237TIP3    H121656   3.333   6.141   1.121
 7237TIP3    H221657   3.347   6.024   1.026
 7238TIP3   OH221658   1.236   7.034   5.179
 7238TIP3    H121659   1.282   6.950   5.177
 7238TIP3    H221660   1.304   7.097   5.206
 7239TIP3   OH221661   2.248   5.018   4.250
 7239TIP3    H121662   2.304   5.062   4.313
 7239TIP3    H221663   2.308   4.980   4.186
 7240TIP3   OH221664   0.180   4.382   6.180
 7240TIP3    H121665   0.142   4.469   6.193
 7240TIP3    H221666   0.255   4.396   6.123
 7241TIP3   OH221667   4.287   6.335   5.181
 7241TIP3    H121668   4.220   6.316   5.115
 7241TIP3    H221669   4.260   6.420   5.218
 7242TIP3   OH221670   6.043   4.688   2.099
 7242TIP3    H121671   6.112   4.733   2.147
 7242TIP3    H221672   5.961   4.723   2.135
 7243TIP3   OH221673   5.011   3.971   5.590
 7243TIP3    H121674   5.012   3.958   5.495
 7243TIP3    H221675   5.099   4.003   5.610
 7244TIP3   OH221676   1.627   7.185   3.573
 7244TIP3    H121677   1.702   7.156   3.521
 7244TIP3    H221678   1.643   7.150   3.660
 7245TIP3   OH221679   3.373   0.106   6.726
 7245TIP3    H121680   3.439   0.126   6.792
 7245TIP3    H221681   3.422   0.069   6.653
 7246TIP3   OH221682   7.504   0.939   3.683
 7246TIP3    H121683   7.417   0.936   3.642
 7246TIP3    H221684   7.517   0.851   3.718
 7247TIP3   OH221685   1.000   6.834   3.576
 7247TIP3    H121686   0.963   6.809   3.660
 7247TIP3    H221687   1.084   6.876   3.597
 7248TIP3   OH221688   8.232   6.450   3.647
 7248TIP3    H121689   8.247   6.544   3.641
 7248TIP3    H221690   8.282   6.413   3.574
 7249TIP3   OH221691   2.793   2.139   0.260
 7249TIP3    H121692   2.829   2.198   0.194
 7249TIP3    H221693   2.774   2.058   0.213
 7250TIP3   OH221694   7.741   4.309   5.665
 7250TIP3    H121695   7.835   4.320   5.680
 7250TIP3    H221696   7.732   4.218   5.636
 7251TIP3   OH221697   5.193   4.426   4.878
 7251TIP3    H121698   5.101   4.418   4.904
 7251TIP3    H221699   5.233   4.477   4.948
 7252TIP3   OH221700   4.956   7.533   3.116
 7252TIP3    H121701   5.049   7.518   3.098
 7252TIP3    H221702   4.916   7.543   3.030
 7253TIP3   OH221703   0.597   0.957   2.202
 7253TIP3    H121704   0.657   0.895   2.243
 7253TIP3    H221705   0.595   0.932   2.110
 7254TIP3   OH221706   0.456   0.007   2.459
 7254TIP3    H121707   0.457   0.078   2.394
 7254TIP3    H221708   0.370  -0.033   2.449
 7255TIP3   OH221709   8.224   2.556   3.267
 7255TIP3    H121710   8.304   2.579   3.313
 7255TIP3    H221711   8.227   2.606   3.186
 7256TIP3   OH221712   6.944   6.036   0.278
 7256TIP3    H121713   6.926   6.130   0.271
 7256TIP3    H221714   7.022   6.022   0.224
 7257TIP3   OH221715   7.036   4.651   0.390
 7257TIP3    H121716   7.055   4.579   0.450
 7257TIP3    H221717   7.055   4.616   0.303
 7258TIP3   OH221718   0.409   0.978   0.786
 7258TIP3    H121719   0.455   1.055   0.820
 7258TIP3    H221720   0.474   0.907   0.791
 7259TIP3   OH221721   0.731   5.174   1.986
 7259TIP3    H121722   0.702   5.252   1.937
 7259TIP3    H221723   0.665   5.108   1.965
 7260TIP3   OH221724   0.058   5.043   5.587
 7260TIP3    H121725  -0.010   5.044   5.520
 7260TIP3    H221726   0.115   5.117   5.565
 7261TIP3   OH221727   7.873   6.021   5.987
 7261TIP3    H121728   7.859   5.997   6.078
 7261TIP3    H221729   7.786   6.024   5.948
 7262TIP3   OH221730   3.082   4.237   5.079
 7262TIP3    H121731   3.169   4.241   5.040
 7262TIP3    H221732   3.069   4.144   5.100
 7263TIP3   OH221733   7.386   3.636   5.347
 7263TIP3    H121734   7.438   3.569   5.302
 7263TIP3    H221735   7.297   3.626   5.312
 7264TIP3   OH221736   2.286   0.731   3.093
 7264TIP3    H121737   2.374   0.770   3.085
 7264TIP3    H221738   2.299   0.654   3.148
 7265TIP3   OH221739   2.108   2.806   5.484
 7265TIP3    H121740   2.097   2.759   5.401
 7265TIP3    H221741   2.028   2.786   5.533
 7266TIP3   OH221742   7.440   4.460   1.449
 7266TIP3    H121743   7.345   4.456   1.464
 7266TIP3    H221744   7.449   4.451   1.354
 7267TIP3   OH221745   5.140   2.351   0.285
 7267TIP3    H121746   5.064   2.327   0.338
 7267TIP3    H221747   5.210   2.365   0.349
 7268TIP3   OH221748   1.258   4.408   1.782
 7268TIP3    H121749   1.325   4.342   1.765
 7268TIP3    H221750   1.224   4.385   1.869
 7269TIP3   OH221751   3.005   4.130   4.769
 7269TIP3    H121752   2.944   4.173   4.830
 7269TIP3    H221753   2.976   4.038   4.768
 7270TIP3   OH221754   5.900   6.727   0.320
 7270TIP3    H121755   5.908   6.820   0.339
 7270TIP3    H221756   5.963   6.711   0.249
 7271TIP3   OH221757   0.334   5.263   2.843
 7271TIP3    H121758   0.323   5.186   2.899
 7271TIP3    H221759   0.262   5.322   2.868
 7272TIP3   OH221760   3.064   4.135   0.240
 7272TIP3    H121761   3.088   4.192   0.313
 7272TIP3    H221762   3.148   4.105   0.205
 7273TIP3   OH221763   1.002   6.133   3.997
 7273TIP3    H121764   0.923   6.179   4.022
 7273TIP3    H221765   1.051   6.121   4.079
 7274TIP3   OH221766   0.350   7.792   6.221
 7274TIP3    H121767   0.340   7.887   6.222
 7274TIP3    H221768   0.261   7.758   6.223
 7275TIP3   OH221769   7.250   2.273   1.488
 7275TIP3    H121770   7.219   2.260   1.578
 7275TIP3    H221771   7.245   2.368   1.474
 7276TIP3   OH221772   1.342   6.955   2.921
 7276TIP3    H121773   1.322   6.902   2.843
 7276TIP3    H221774   1.314   6.900   2.994
 7277TIP3   OH221775   7.867   5.163   1.767
 7277TIP3    H121776   7.887   5.256   1.764
 7277TIP3    H221777   7.933   5.127   1.827
 7278TIP3   OH221778   0.892   1.352   2.444
 7278TIP3    H121779   0.895   1.369   2.350
 7278TIP3    H221780   0.828   1.415   2.477
 7279TIP3   OH221781   1.004   6.213   1.886
 7279TIP3    H121782   0.947   6.208   1.963
 7279TIP3    H221783   0.944   6.208   1.812
 7280TIP3   OH221784   7.341   3.831   2.689
 7280TIP3    H121785   7.284   3.839   2.766
 7280TIP3    H221786   7.362   3.921   2.665
 7281TIP3   OH221787   5.890   3.860   3.794
 7281TIP3    H121788   5.832   3.936   3.796
 7281TIP3    H221789   5.971   3.892   3.753
 7282TIP3   OH221790   2.731   1.958   2.308
 7282TIP3    H121791   2.676   2.037   2.309
 7282TIP3    H221792   2.719   1.922   2.220
 7283TIP3   OH221793  -0.004   0.813   3.860
 7283TIP3    H121794   0.081   0.858   3.867
 7283TIP3    H221795   0.011   0.728   3.901
 7284TIP3   OH221796   7.701   0.902   2.325
 7284TIP3    H121797   7.759   0.929   2.254
 7284TIP3    H221798   7.715   0.807   2.332
 7285TIP3   OH221799   1.561   0.203   1.348
 7285TIP3    H121800   1.652   0.229   1.331
 7285TIP3    H221801   1.511   0.284   1.344
 7286TIP3   OH221802   3.343   5.470   4.531
 7286TIP3    H121803   3.385   5.450   4.614
 7286TIP3    H221804   3.254   5.495   4.554
 7287TIP3   OH221805   3.458   1.525   1.029
 7287TIP3    H121806   3.465   1.433   1.054
 7287TIP3    H221807   3.382   1.557   1.079
 7288TIP3   OH221808   5.436   4.307   4.551
 7288TIP3    H121809   5.507   4.251   4.518
 7288TIP3    H221810   5.474   4.351   4.627
 7289TIP3   OH221811   2.262   5.310   4.180
 7289TIP3    H121812   2.205   5.236   4.203
 7289TIP3    H221813   2.265   5.363   4.260
 7290TIP3   OH221814   1.418   5.638   4.707
 7290TIP3    H121815   1.350   5.659   4.771
 7290TIP3    H221816   1.499   5.671   4.747
 7291TIP3   OH221817   1.262   4.304   3.203
 7291TIP3    H121818   1.279   4.210   3.201
 7291TIP3    H221819   1.347   4.344   3.223
 7292TIP3   OH221820   5.846   6.331   2.212
 7292TIP3    H121821   5.874   6.407   2.161
 7292TIP3    H221822   5.856   6.257   2.153
 7293TIP3   OH221823   0.505   7.618   0.847
 7293TIP3    H121824   0.470   7.688   0.792
 7293TIP3    H221825   0.466   7.538   0.811
 7294TIP3   OH221826   1.639   4.117   2.858
 7294TIP3    H121827   1.614   4.202   2.893
 7294TIP3    H221828   1.679   4.071   2.932
 7295TIP3   OH221829   1.928   4.780   1.307
 7295TIP3    H121830   1.959   4.748   1.222
 7295TIP3    H221831   1.975   4.727   1.371
 7296TIP3   OH221832   6.690   6.116   1.647
 7296TIP3    H121833   6.633   6.119   1.724
 7296TIP3    H221834   6.642   6.063   1.584
 7297TIP3   OH221835   0.989   5.467   0.814
 7297TIP3    H121836   0.970   5.418   0.893
 7297TIP3    H221837   1.021   5.552   0.845
 7298TIP3   OH221838   5.915   6.381   6.105
 7298TIP3    H121839   5.827   6.361   6.138
 7298TIP3    H221840   5.970   6.384   6.184
 7299TIP3   OH221841   7.421   5.894   4.710
 7299TIP3    H121842   7.408   5.840   4.632
 7299TIP3    H221843   7.362   5.968   4.699
 7300TIP3   OH221844   2.232   1.587   5.673
 7300TIP3    H121845   2.307   1.538   5.705
 7300TIP3    H221846   2.253   1.679   5.693
 7301TIP3   OH221847   0.717   2.734   1.719
 7301TIP3    H121848   0.649   2.776   1.773
 7301TIP3    H221849   0.741   2.655   1.768
 7302TIP3   OH221850   1.681   5.829   3.286
 7302TIP3    H121851   1.620   5.890   3.244
 7302TIP3    H221852   1.762   5.879   3.296
 7303TIP3   OH221853   0.718   5.324   2.536
 7303TIP3    H121854   0.671   5.376   2.471
 7303TIP3    H221855   0.684   5.353   2.620
 7304TIP3   OH221856   0.407   3.301   6.337
 7304TIP3    H121857   0.406   3.302   6.433
 7304TIP3    H221858   0.358   3.222   6.313
 7305TIP3   OH221859   0.619   5.081   0.774
 7305TIP3    H121860   0.575   4.997   0.762
 7305TIP3    H221861   0.654   5.078   0.862
 7306TIP3   OH221862   4.755   6.276   4.931
 7306TIP3    H121863   4.702   6.239   5.002
 7306TIP3    H221864   4.841   6.237   4.943
 7307TIP3   OH221865   5.824   3.383   4.348
 7307TIP3    H121866   5.897   3.434   4.313
 7307TIP3    H221867   5.863   3.334   4.421
 7308TIP3   OH221868   4.941   0.145   6.771
 7308TIP3    H121869   4.857   0.102   6.759
 7308TIP3    H221870   4.938   0.221   6.714
 7309TIP3   OH221871   0.617   0.165   1.191
 7309TIP3    H121872   0.594   0.072   1.200
 7309TIP3    H221873   0.534   0.209   1.172
 7310TIP3   OH221874   5.719   6.407   5.613
 7310TIP3    H121875   5.738   6.315   5.633
 7310TIP3    H221876   5.624   6.415   5.622
 7311TIP3   OH221877   6.677   4.447   3.985
 7311TIP3    H121878   6.645   4.374   3.931
 7311TIP3    H221879   6.599   4.502   3.997
 7312TIP3   OH221880   8.264   7.271   0.041
 7312TIP3    H121881   8.222   7.239  -0.039
 7312TIP3    H221882   8.290   7.191   0.087
 7313TIP3   OH221883   7.563   7.719   2.387
 7313TIP3    H121884   7.646   7.753   2.420
 7313TIP3    H221885   7.555   7.633   2.428
 7314TIP3   OH221886   3.195   5.185   5.522
 7314TIP3    H121887   3.133   5.119   5.493
 7314TIP3    H221888   3.159   5.216   5.606
 7315TIP3   OH221889   6.577   4.059   4.431
 7315TIP3    H121890   6.578   4.103   4.516
 7315TIP3    H221891   6.655   4.091   4.386
 7316TIP3   OH221892   2.946   5.186   0.450
 7316TIP3    H121893   3.023   5.133   0.470
 7316TIP3    H221894   2.884   5.124   0.410
 7317TIP3   OH221895   5.784   1.043   5.668
 7317TIP3    H121896   5.869   1.043   5.711
 7317TIP3    H221897   5.789   1.113   5.603
 7318TIP3   OH221898   2.638   7.029   5.921
 7318TIP3    H121899   2.646   7.096   5.853
 7318TIP3    H221900   2.590   7.073   5.992
 7319TIP3   OH221901   5.837   5.926   4.881
 7319TIP3    H121902   5.871   5.996   4.825
 7319TIP3    H221903   5.750   5.906   4.844
 7320TIP3   OH221904   6.794   2.914   0.072
 7320TIP3    H121905   6.866   2.923   0.011
 7320TIP3    H221906   6.825   2.851   0.137
 7321TIP3   OH221907   3.142   7.601   1.011
 7321TIP3    H121908   3.097   7.526   0.973
 7321TIP3    H221909   3.139   7.585   1.105
 7322TIP3   OH221910   7.576   4.773   5.813
 7322TIP3    H121911   7.559   4.680   5.798
 7322TIP3    H221912   7.655   4.775   5.867
 7323TIP3   OH221913   2.587   5.163   4.906
 7323TIP3    H121914   2.609   5.108   4.831
 7323TIP3    H221915   2.671   5.196   4.937
 7324TIP3   OH221916   4.516   4.900   6.100
 7324TIP3    H121917   4.543   4.986   6.070
 7324TIP3    H221918   4.589   4.842   6.077
 7325TIP3   OH221919   0.420   5.799   6.411
 7325TIP3    H121920   0.449   5.716   6.448
 7325TIP3    H221921   0.369   5.775   6.334
 7326TIP3   OH221922   8.107   0.427   5.540
 7326TIP3    H121923   8.155   0.461   5.465
 7326TIP3    H221924   8.083   0.505   5.591
 7327TIP3   OH221925   0.826   1.556   0.581
 7327TIP3    H121926   0.842   1.500   0.505
 7327TIP3    H221927   0.913   1.569   0.619
 7328TIP3   OH221928   6.972   3.080   6.066
 7328TIP3    H121929   7.027   3.073   5.988
 7328TIP3    H221930   7.006   3.156   6.113
 7329TIP3   OH221931   0.371   4.585   0.647
 7329TIP3    H121932   0.326   4.619   0.570
 7329TIP3    H221933   0.321   4.508   0.672
 7330TIP3   OH221934   6.349   3.354   6.748
 7330TIP3    H121935   6.302   3.292   6.691
 7330TIP3    H221936   6.300   3.435   6.742
 7331TIP3   OH221937   5.968   1.019   3.324
 7331TIP3    H121938   6.039   1.083   3.336
 7331TIP3    H221939   6.002   0.938   3.360
 7332TIP3   OH221940   4.393   2.247   3.366
 7332TIP3    H121941   4.397   2.158   3.400
 7332TIP3    H221942   4.306   2.254   3.327
 7333TIP3   OH221943   7.076   3.844   5.663
 7333TIP3    H121944   7.046   3.756   5.643
 7333TIP3    H221945   7.037   3.899   5.595
 7334TIP3   OH221946   2.838   1.106   5.552
 7334TIP3    H121947   2.834   1.177   5.488
 7334TIP3    H221948   2.892   1.039   5.510
 7335TIP3   OH221949   5.060   6.619   4.367
 7335TIP3    H121950   5.125   6.688   4.356
 7335TIP3    H221951   4.983   6.665   4.402
 7336TIP3   OH221952   0.490   3.940   5.493
 7336TIP3    H121953   0.411   3.900   5.457
 7336TIP3    H221954   0.562   3.886   5.460
 7337TIP3   OH221955   0.010   3.717   4.642
 7337TIP3    H121956   0.055   3.649   4.692
 7337TIP3    H221957   0.032   3.699   4.551
 7338TIP3   OH221958   3.367   0.823   0.059
 7338TIP3    H121959   3.398   0.737   0.089
 7338TIP3    H221960   3.407   0.885   0.119
 7339TIP3   OH221961   2.861   3.693   0.875
 7339TIP3    H121962   2.890   3.767   0.928
 7339TIP3    H221963   2.802   3.644   0.933
 7340TIP3   OH221964   5.793   4.446   6.634
 7340TIP3    H121965   5.879   4.485   6.644
 7340TIP3    H221966   5.739   4.516   6.597
 7341TIP3   OH221967   3.869   6.908   5.810
 7341TIP3    H121968   3.833   6.907   5.721
 7341TIP3    H221969   3.939   6.973   5.807
 7342TIP3   OH221970   7.623   5.971   4.087
 7342TIP3    H121971   7.656   5.881   4.083
 7342TIP3    H221972   7.663   6.015   4.012
 7343TIP3   OH221973   6.181   5.986   1.005
 7343TIP3    H121974   6.159   5.965   0.914
 7343TIP3    H221975   6.200   6.080   1.004
 7344TIP3   OH221976   2.126   1.499   0.735
 7344TIP3    H121977   2.105   1.539   0.820
 7344TIP3    H221978   2.176   1.420   0.757
 7345TIP3   OH221979   1.099   5.385   5.469
 7345TIP3    H121980   1.156   5.319   5.510
 7345TIP3    H221981   1.156   5.460   5.455
 7346TIP3   OH221982   2.998   6.102   3.726
 7346TIP3    H121983   2.904   6.109   3.740
 7346TIP3    H221984   3.008   6.034   3.660
 7347TIP3   OH221985   2.578   7.022   0.797
 7347TIP3    H121986   2.575   6.930   0.824
 7347TIP3    H221987   2.630   7.022   0.717
 7348TIP3   OH221988   3.770   6.707   4.971
 7348TIP3    H121989   3.737   6.717   4.881
 7348TIP3    H221990   3.691   6.692   5.024
 7349TIP3   OH221991  -0.037   2.886   3.726
 7349TIP3    H121992   0.029   2.818   3.711
 7349TIP3    H221993   0.009   2.954   3.775
 7350TIP3   OH221994   4.018   3.790   1.414
 7350TIP3    H121995   3.949   3.834   1.463
 7350TIP3    H221996   4.033   3.708   1.461
 7351TIP3   OH221997   6.861   3.272   0.692
 7351TIP3    H121998   6.806   3.275   0.613
 7351TIP3    H221999   6.834   3.192   0.736
 7352TIP3   OH222000   7.100   1.494   1.472
 7352TIP3    H122001   7.118   1.450   1.389
 7352TIP3    H222002   7.029   1.554   1.452
 7353TIP3   OH222003   5.936   0.806   2.885
 7353TIP3    H122004   6.019   0.768   2.855
 7353TIP3    H222005   5.880   0.807   2.807
 7354TIP3   OH222006   4.479   7.162   0.298
 7354TIP3    H122007   4.470   7.200   0.211
 7354TIP3    H222008   4.532   7.225   0.347
 7355TIP3   OH222009   6.265   7.054   4.428
 7355TIP3    H122010   6.193   7.017   4.480
 7355TIP3    H222011   6.222   7.113   4.366
 7356TIP3   OH222012   1.987   2.306   5.724
 7356TIP3    H122013   2.025   2.219   5.724
 7356TIP3    H222014   1.923   2.305   5.653
 7357TIP3   OH222015   5.730   7.791   2.715
 7357TIP3    H122016   5.795   7.861   2.714
 7357TIP3    H222017   5.729   7.758   2.625
 7358TIP3   OH222018   6.344   1.145   2.751
 7358TIP3    H122019   6.370   1.221   2.699
 7358TIP3    H222020   6.259   1.119   2.716
 7359TIP3   OH222021   2.503   4.754   2.205
 7359TIP3    H122022   2.422   4.724   2.247
 7359TIP3    H222023   2.561   4.677   2.210
 7360TIP3   OH222024   4.367   5.188   4.665
 7360TIP3    H122025   4.332   5.277   4.653
 7360TIP3    H222026   4.434   5.198   4.732
 7361TIP3   OH222027   7.460   2.991   4.142
 7361TIP3    H122028   7.505   3.052   4.083
 7361TIP3    H222029   7.427   2.921   4.084
 7362TIP3   OH222030   7.923   0.789   6.699
 7362TIP3    H122031   7.992   0.806   6.636
 7362TIP3    H222032   7.845   0.775   6.646
 7363TIP3   OH222033   3.913   7.594   4.629
 7363TIP3    H122034   3.981   7.658   4.612
 7363TIP3    H222035   3.923   7.571   4.721
 7364TIP3   OH222036   5.419   3.615   2.429
 7364TIP3    H122037   5.340   3.562   2.423
 7364TIP3    H222038   5.412   3.677   2.357
 7365TIP3   OH222039   2.427   4.075   4.677
 7365TIP3    H122040   2.419   4.012   4.749
 7365TIP3    H222041   2.351   4.132   4.686
 7366TIP3   OH222042   5.837   7.153   0.708
 7366TIP3    H122043   5.822   7.239   0.747
 7366TIP3    H222044   5.755   7.131   0.665
 7367TIP3   OH222045   3.663   4.388   4.719
 7367TIP3    H122046   3.699   4.475   4.706
 7367TIP3    H222047   3.680   4.368   4.811
 7368TIP3   OH222048   6.577   1.856   4.406
 7368TIP3    H122049   6.487   1.885   4.421
 7368TIP3    H222050   6.628   1.900   4.474
 7369TIP3   OH222051   0.644   3.286   0.290
 7369TIP3    H122052   0.635   3.375   0.321
 7369TIP3    H222053   0.711   3.291   0.221
 7370TIP3   OH222054   5.144   3.183   0.248
 7370TIP3    H122055   5.102   3.236   0.179
 7370TIP3    H222056   5.200   3.122   0.200
 7371TIP3   OH222057   3.989   0.594   1.083
 7371TIP3    H122058   3.895   0.598   1.065
 7371TIP3    H222059   4.006   0.501   1.101
 7372TIP3   OH222060   3.809   0.486   4.544
 7372TIP3    H122061   3.818   0.521   4.633
 7372TIP3    H222062   3.747   0.546   4.502
 7373TIP3   OH222063   1.411   4.433   0.628
 7373TIP3    H122064   1.369   4.351   0.653
 7373TIP3    H222065   1.473   4.409   0.559
 7374TIP3   OH222066   6.132   3.051   6.116
 7374TIP3    H122067   6.118   3.142   6.140
 7374TIP3    H222068   6.099   3.044   6.027
 7375TIP3   OH222069   5.147   0.584   4.042
 7375TIP3    H122070   5.088   0.656   4.066
 7375TIP3    H222071   5.171   0.543   4.125
 7376TIP3   OH222072   4.207   0.039   2.490
 7376TIP3    H122073   4.207   0.119   2.438
 7376TIP3    H222074   4.157   0.061   2.568
 7377TIP3   OH222075   2.204   3.558   3.808
 7377TIP3    H122076   2.265   3.486   3.792
 7377TIP3    H222077   2.189   3.557   3.902
 7378TIP3   OH222078   2.363   6.545   1.048
 7378TIP3    H122079   2.269   6.554   1.068
 7378TIP3    H222080   2.381   6.452   1.060
 7379TIP3   OH222081   1.943   4.347   3.825
 7379TIP3    H122082   1.966   4.268   3.777
 7379TIP3    H222083   1.988   4.417   3.780
 7380TIP3   OH222084   6.319   5.765   3.493
 7380TIP3    H122085   6.226   5.770   3.473
 7380TIP3    H222086   6.362   5.813   3.423
 7381TIP3   OH222087   5.382   5.574   0.732
 7381TIP3    H122088   5.418   5.519   0.663
 7381TIP3    H222089   5.345   5.650   0.686
 7382TIP3   OH222090   1.347   6.719   4.584
 7382TIP3    H122091   1.287   6.792   4.593
 7382TIP3    H222092   1.292   6.641   4.585
 7383TIP3   OH222093   6.134   1.318   1.798
 7383TIP3    H122094   6.212   1.334   1.746
 7383TIP3    H222095   6.082   1.257   1.746
 7384TIP3   OH222096   0.847   3.202   2.695
 7384TIP3    H122097   0.887   3.217   2.781
 7384TIP3    H222098   0.791   3.278   2.681
 7385TIP3   OH222099   1.082   5.714   2.906
 7385TIP3    H122100   1.106   5.806   2.922
 7385TIP3    H222101   1.009   5.719   2.845
 7386TIP3   OH222102   1.748   7.143   0.015
 7386TIP3    H122103   1.766   7.235   0.037
 7386TIP3    H222104   1.818   7.120  -0.047
 7387TIP3   OH222105   2.041   1.384   2.359
 7387TIP3    H122106   2.021   1.293   2.381
 7387TIP3    H222107   1.965   1.434   2.390
 7388TIP3   OH222108   2.349   5.096   6.149
 7388TIP3    H122109   2.274   5.084   6.090
 7388TIP3    H222110   2.424   5.104   6.089
 7389TIP3   OH222111   3.980   1.921   0.034
 7389TIP3    H122112   4.071   1.892   0.036
 7389TIP3    H222113   3.950   1.898  -0.054
 7390TIP3   OH222114   2.704   1.462   6.211
 7390TIP3    H122115   2.757   1.387   6.185
 7390TIP3    H222116   2.619   1.448   6.169
 7391TIP3   OH222117   6.683   1.915   1.562
 7391TIP3    H122118   6.769   1.945   1.533
 7391TIP3    H222119   6.691   1.906   1.657
 7392TIP3   OH222120   1.160   2.709   3.105
 7392TIP3    H122121   1.246   2.699   3.145
 7392TIP3    H222122   1.172   2.681   3.014
 7393TIP3   OH222123   1.617   6.192   4.554
 7393TIP3    H122124   1.661   6.243   4.621
 7393TIP3    H222125   1.629   6.101   4.580
 7394TIP3   OH222126   7.807   4.805   5.570
 7394TIP3    H122127   7.729   4.751   5.580
 7394TIP3    H222128   7.789   4.861   5.494
 7395TIP3   OH222129   6.742   3.969   1.204
 7395TIP3    H122130   6.721   3.905   1.136
 7395TIP3    H222131   6.659   3.986   1.248
 7396TIP3   OH222132   7.830   4.604   1.938
 7396TIP3    H122133   7.805   4.696   1.925
 7396TIP3    H222134   7.920   4.607   1.971
 7397TIP3   OH222135   2.243   3.857   4.020
 7397TIP3    H122136   2.329   3.841   3.980
 7397TIP3    H222137   2.245   3.806   4.101
 7398TIP3   OH222138   7.130   2.382   0.710
 7398TIP3    H122139   7.212   2.417   0.675
 7398TIP3    H222140   7.065   2.451   0.691
 7399TIP3   OH222141   4.942   1.617   1.266
 7399TIP3    H122142   4.901   1.532   1.281
 7399TIP3    H222143   4.872   1.680   1.278
 7400TIP3   OH222144   6.407   1.620   3.531
 7400TIP3    H122145   6.314   1.602   3.545
 7400TIP3    H222146   6.448   1.599   3.615
 7401TIP3   OH222147   0.030   1.745   5.681
 7401TIP3    H122148  -0.019   1.797   5.744
 7401TIP3    H222149   0.061   1.669   5.731
 7402TIP3   OH222150   8.225   0.365   3.209
 7402TIP3    H122151   8.284   0.430   3.246
 7402TIP3    H222152   8.224   0.384   3.115
 7403TIP3   OH222153   8.122   5.209   5.246
 7403TIP3    H122154   8.032   5.231   5.222
 7403TIP3    H222155   8.112   5.143   5.315
 7404TIP3   OH222156   5.717   0.705   1.341
 7404TIP3    H122157   5.707   0.765   1.267
 7404TIP3    H222158   5.811   0.683   1.341
 7405TIP3   OH222159   6.345   0.405   4.154
 7405TIP3    H122160   6.393   0.388   4.074
 7405TIP3    H222161   6.281   0.334   4.160
 7406TIP3   OH222162   1.055   2.386   1.773
 7406TIP3    H122163   1.039   2.316   1.835
 7406TIP3    H222164   1.126   2.354   1.717
 7407TIP3   OH222165   6.822   1.060   0.967
 7407TIP3    H122166   6.885   1.084   0.899
 7407TIP3    H222167   6.773   1.141   0.985
 7408TIP3   OH222168   8.046   7.828   0.515
 7408TIP3    H122169   8.012   7.740   0.530
 7408TIP3    H222170   8.128   7.815   0.468
 7409TIP3   OH222171   7.529   0.695   1.261
 7409TIP3    H122172   7.618   0.662   1.263
 7409TIP3    H222173   7.504   0.702   1.354
 7410TIP3   OH222174   6.234   7.695   3.285
 7410TIP3    H122175   6.272   7.701   3.372
 7410TIP3    H222176   6.140   7.689   3.300
 7411TIP3   OH222177   1.090   1.869   4.850
 7411TIP3    H122178   1.114   1.824   4.931
 7411TIP3    H222179   1.096   1.962   4.871
 7412TIP3   OH222180   5.773   1.797   1.963
 7412TIP3    H122181   5.689   1.834   1.990
 7412TIP3    H222182   5.768   1.705   1.990
 7413TIP3   OH222183   1.799   0.651   2.730
 7413TIP3    H122184   1.714   0.693   2.729
 7413TIP3    H222185   1.785   0.566   2.687
 7414TIP3   OH222186   8.115   0.606   3.543
 7414TIP3    H122187   8.209   0.602   3.561
 7414TIP3    H222188   8.107   0.589   3.449
 7415TIP3   OH222189   5.579   7.099   1.130
 7415TIP3    H122190   5.644   7.093   1.060
 7415TIP3    H222191   5.539   7.012   1.133
 7416TIP3   OH222192   1.861   4.588   4.562
 7416TIP3    H122193   1.819   4.539   4.632
 7416TIP3    H222194   1.791   4.603   4.498
 7417TIP3   OH222195   1.933   2.911   3.525
 7417TIP3    H122196   1.966   2.863   3.601
 7417TIP3    H222197   2.011   2.929   3.472
 7418TIP3   OH222198   2.218   0.150   6.585
 7418TIP3    H122199   2.293   0.175   6.531
 7418TIP3    H222200   2.229   0.056   6.599
 7419TIP3   OH222201   7.198   3.975   3.607
 7419TIP3    H122202   7.125   3.923   3.641
 7419TIP3    H222203   7.239   4.013   3.685
 7420TIP3   OH222204   6.893   7.785   2.307
 7420TIP3    H122205   6.915   7.870   2.268
 7420TIP3    H222206   6.911   7.722   2.237
 7421TIP3   OH222207   2.517   7.167   1.873
 7421TIP3    H122208   2.545   7.240   1.818
 7421TIP3    H222209   2.529   7.089   1.819
 7422TIP3   OH222210   3.740   7.196   5.581
 7422TIP3    H122211   3.773   7.106   5.575
 7422TIP3    H222212   3.662   7.189   5.636
 7423TIP3   OH222213   6.257   4.412   4.889
 7423TIP3    H122214   6.230   4.371   4.972
 7423TIP3    H222215   6.349   4.437   4.904
 7424TIP3   OH222216   0.749   6.931   4.863
 7424TIP3    H122217   0.809   6.938   4.938
 7424TIP3    H222218   0.807   6.918   4.788
 7425TIP3   OH222219   0.238   0.442   5.862
 7425TIP3    H122220   0.207   0.500   5.932
 7425TIP3    H222221   0.213   0.487   5.781
 7426TIP3   OH222222   4.242   3.892   1.326
 7426TIP3    H122223   4.159   3.848   1.342
 7426TIP3    H222224   4.232   3.978   1.367
 7427TIP3   OH222225   5.844   4.340   0.580
 7427TIP3    H122226   5.843   4.334   0.675
 7427TIP3    H222227   5.886   4.259   0.551
 7428TIP3   OH222228   6.711   5.371   2.730
 7428TIP3    H122229   6.714   5.455   2.685
 7428TIP3    H222230   6.685   5.393   2.820
 7429TIP3   OH222231   4.744   6.846   0.791
 7429TIP3    H122232   4.725   6.840   0.885
 7429TIP3    H222233   4.808   6.917   0.784
 7430TIP3   OH222234   4.743   3.095   3.683
 7430TIP3    H122235   4.805   3.117   3.613
 7430TIP3    H222236   4.785   3.023   3.730
 7431TIP3   OH222237   7.740   1.766   0.060
 7431TIP3    H122238   7.697   1.786  -0.024
 7431TIP3    H222239   7.761   1.852   0.097
 7432TIP3   OH222240   1.485   5.294   1.329
 7432TIP3    H122241   1.459   5.211   1.287
 7432TIP3    H222242   1.560   5.271   1.383
 7433TIP3   OH222243   7.764   2.540   3.248
 7433TIP3    H122244   7.779   2.477   3.178
 7433TIP3    H222245   7.843   2.536   3.302
 7434TIP3   OH222246   7.860   6.151   3.519
 7434TIP3    H122247   7.890   6.060   3.520
 7434TIP3    H222248   7.865   6.177   3.427
 7435TIP3   OH222249   1.262   4.011   3.543
 7435TIP3    H122250   1.321   4.086   3.547
 7435TIP3    H222251   1.281   3.962   3.622
 7436TIP3   OH222252   2.591   0.527   5.717
 7436TIP3    H122253   2.576   0.481   5.800
 7436TIP3    H222254   2.519   0.590   5.712
 7437TIP3   OH222255   5.509   4.476   6.514
 7437TIP3    H122256   5.419   4.467   6.483
 7437TIP3    H222257   5.524   4.570   6.518
 7438TIP3   OH222258   0.622   2.535   5.731
 7438TIP3    H122259   0.567   2.580   5.794
 7438TIP3    H222260   0.675   2.475   5.784
 7439TIP3   OH222261   0.628   7.459   0.246
 7439TIP3    H122262   0.661   7.521   0.311
 7439TIP3    H222263   0.619   7.377   0.295
 7440TIP3   OH222264   3.241   5.503   4.887
 7440TIP3    H122265   3.251   5.421   4.839
 7440TIP3    H222266   3.325   5.515   4.932
 7441TIP3   OH222267   5.516   4.217   3.111
 7441TIP3    H122268   5.471   4.282   3.165
 7441TIP3    H222269   5.562   4.162   3.174
 7442TIP3   OH222270   4.132   2.959   2.841
 7442TIP3    H122271   4.100   2.884   2.792
 7442TIP3    H222272   4.212   2.927   2.884
 7443TIP3   OH222273   2.073   4.103   1.528
 7443TIP3    H122274   2.092   4.012   1.506
 7443TIP3    H222275   2.067   4.104   1.624
 7444TIP3   OH222276   4.781   2.946   4.577
 7444TIP3    H122277   4.768   2.864   4.625
 7444TIP3    H222278   4.873   2.968   4.591
 7445TIP3   OH222279   3.311   2.228   2.043
 7445TIP3    H122280   3.344   2.252   2.130
 7445TIP3    H222281   3.261   2.305   2.016
 7446TIP3   OH222282   8.074   0.561   3.947
 7446TIP3    H122283   8.003   0.502   3.972
 7446TIP3    H222284   8.153   0.515   3.973
 7447TIP3   OH222285   3.650   4.313   2.540
 7447TIP3    H122286   3.694   4.230   2.554
 7447TIP3    H222287   3.720   4.378   2.539
 7448TIP3   OH222288   7.302   3.931   5.770
 7448TIP3    H122289   7.354   3.979   5.705
 7448TIP3    H222290   7.227   3.897   5.721
 7449TIP3   OH222291   2.715   0.370   5.223
 7449TIP3    H122292   2.762   0.294   5.189
 7449TIP3    H222293   2.692   0.346   5.312
 7450TIP3   OH222294   4.445   2.571   3.778
 7450TIP3    H122295   4.361   2.536   3.807
 7450TIP3    H222296   4.499   2.494   3.763
 7451TIP3   OH222297   3.760   2.953   6.739
 7451TIP3    H122298   3.744   2.860   6.725
 7451TIP3    H222299   3.855   2.963   6.729
 7452TIP3   OH222300   5.568   3.144   0.259
 7452TIP3    H122301   5.640   3.195   0.296
 7452TIP3    H222302   5.489   3.179   0.300
 7453TIP3   OH222303   2.315   5.795   3.234
 7453TIP3    H122304   2.377   5.801   3.306
 7453TIP3    H222305   2.229   5.795   3.276
 7454TIP3   OH222306   4.435   3.694   2.766
 7454TIP3    H122307   4.485   3.613   2.781
 7454TIP3    H222308   4.436   3.738   2.851
 7455TIP3   OH222309   7.534   0.336   2.715
 7455TIP3    H122310   7.593   0.409   2.698
 7455TIP3    H222311   7.464   0.346   2.651
 7456TIP3   OH222312   6.873   0.236   5.006
 7456TIP3    H122313   6.848   0.172   5.073
 7456TIP3    H222314   6.834   0.203   4.925
 7457TIP3   OH222315   4.784   5.199   6.404
 7457TIP3    H122316   4.766   5.274   6.348
 7457TIP3    H222317   4.712   5.138   6.386
 7458TIP3   OH222318   3.944   3.068   2.431
 7458TIP3    H122319   4.014   3.117   2.474
 7458TIP3    H222320   3.904   3.016   2.501
 7459TIP3   OH222321   6.868   2.577   1.752
 7459TIP3    H122322   6.960   2.592   1.730
 7459TIP3    H222323   6.870   2.544   1.842
 7460TIP3   OH222324   5.344   3.841   1.611
 7460TIP3    H122325   5.351   3.869   1.519
 7460TIP3    H222326   5.380   3.914   1.661
 7461TIP3   OH222327   3.316   3.253   3.904
 7461TIP3    H122328   3.392   3.195   3.902
 7461TIP3    H222329   3.320   3.296   3.989
 7462TIP3   OH222330   0.083   1.400   0.232
 7462TIP3    H122331   0.108   1.340   0.162
 7462TIP3    H222332  -0.008   1.423   0.213
 7463TIP3   OH222333   6.220   1.527   0.937
 7463TIP3    H122334   6.204   1.516   0.844
 7463TIP3    H222335   6.167   1.458   0.979
 7464TIP3   OH222336   2.365   7.574   6.185
 7464TIP3    H122337   2.331   7.491   6.153
 7464TIP3    H222338   2.435   7.597   6.124
 7465TIP3   OH222339   0.948   2.003   0.211
 7465TIP3    H122340   0.891   1.988   0.286
 7465TIP3    H222341   0.967   2.097   0.214
 7466TIP3   OH222342   2.281   3.452   2.377
 7466TIP3    H122343   2.197   3.452   2.331
 7466TIP3    H222344   2.258   3.469   2.468
 7467TIP3   OH222345   5.705   1.730   4.906
 7467TIP3    H122346   5.627   1.735   4.960
 7467TIP3    H222347   5.697   1.647   4.859
 7468TIP3   OH222348   3.023   0.367   1.255
 7468TIP3    H122349   2.963   0.295   1.275
 7468TIP3    H222350   3.025   0.420   1.334
 7469TIP3   OH222351   6.150   3.738   1.336
 7469TIP3    H122352   6.175   3.648   1.314
 7469TIP3    H222353   6.090   3.729   1.410
 7470TIP3   OH222354   2.382   6.485   2.025
 7470TIP3    H122355   2.477   6.494   2.016
 7470TIP3    H222356   2.367   6.391   2.038
 7471TIP3   OH222357   0.544   5.506   4.867
 7471TIP3    H122358   0.483   5.508   4.941
 7471TIP3    H222359   0.624   5.546   4.901
 7472TIP3   OH222360   0.443   3.383   3.893
 7472TIP3    H122361   0.393   3.389   3.974
 7472TIP3    H222362   0.487   3.298   3.898
 7473TIP3   OH222363   1.872   2.565   2.751
 7473TIP3    H122364   1.784   2.604   2.759
 7473TIP3    H222365   1.890   2.568   2.657
 7474TIP3   OH222366   0.125   6.682   5.581
 7474TIP3    H122367   0.175   6.754   5.542
 7474TIP3    H222368   0.056   6.726   5.632
 7475TIP3   OH222369   3.939   4.907   4.576
 7475TIP3    H122370   3.852   4.945   4.591
 7475TIP3    H222371   3.983   4.970   4.519
 7476TIP3   OH222372   1.017   5.979   4.997
 7476TIP3    H122373   1.096   6.024   4.967
 7476TIP3    H222374   1.025   5.890   4.962
 7477TIP3   OH222375   6.538   2.528   1.406
 7477TIP3    H122376   6.458   2.483   1.435
 7477TIP3    H222377   6.563   2.482   1.326
 7478TIP3   OH222378   4.990   3.204   5.773
 7478TIP3    H122379   5.042   3.125   5.759
 7478TIP3    H222380   4.899   3.176   5.764
 7479TIP3   OH222381   7.035   1.833   5.661
 7479TIP3    H122382   6.974   1.818   5.588
 7479TIP3    H222383   7.118   1.856   5.619
 7480TIP3   OH222384   1.258   6.049   3.559
 7480TIP3    H122385   1.198   6.006   3.619
 7480TIP3    H222386   1.261   5.991   3.483
 7481TIP3   OH222387   0.975   6.094   0.322
 7481TIP3    H122388   0.908   6.097   0.391
 7481TIP3    H222389   1.023   6.177   0.332
 7482TIP3   OH222390   4.258   3.814   3.554
 7482TIP3    H122391   4.333   3.766   3.520
 7482TIP3    H222392   4.234   3.875   3.483
 7483TIP3   OH222393   5.014   5.073   2.340
 7483TIP3    H122394   5.033   5.098   2.249
 7483TIP3    H222395   5.002   5.157   2.385
 7484TIP3   OH222396   3.541   6.670   0.608
 7484TIP3    H122397   3.499   6.603   0.662
 7484TIP3    H222398   3.622   6.630   0.578
 7485TIP3   OH222399   0.646   5.516   0.028
 7485TIP3    H122400   0.736   5.486   0.039
 7485TIP3    H222401   0.601   5.485   0.107
 7486TIP3   OH222402   2.646   6.367   3.725
 7486TIP3    H122403   2.639   6.274   3.704
 7486TIP3    H222404   2.708   6.371   3.798
 7487TIP3   OH222405   1.355   6.828   1.453
 7487TIP3    H122406   1.315   6.915   1.455
 7487TIP3    H222407   1.342   6.793   1.541
 7488TIP3   OH222408   1.853   4.855   2.216
 7488TIP3    H122409   1.803   4.779   2.245
 7488TIP3    H222410   1.786   4.917   2.187
 7489TIP3   OH222411   1.981   6.541   3.606
 7489TIP3    H122412   1.953   6.487   3.680
 7489TIP3    H222413   2.076   6.543   3.613
 7490TIP3   OH222414   3.470   4.681   0.825
 7490TIP3    H122415   3.496   4.589   0.824
 7490TIP3    H222416   3.443   4.698   0.915
 7491TIP3   OH222417   7.318   3.548   5.596
 7491TIP3    H122418   7.228   3.578   5.599
 7491TIP3    H222419   7.354   3.588   5.517
 7492TIP3   OH222420   6.585   6.722   6.625
 7492TIP3    H122421   6.654   6.763   6.677
 7492TIP3    H222422   6.596   6.628   6.640
 7493TIP3   OH222423   6.125   5.669   2.178
 7493TIP3    H122424   6.156   5.716   2.256
 7493TIP3    H222425   6.174   5.586   2.180
 7494TIP3   OH222426   5.123   0.464   3.059
 7494TIP3    H122427   5.077   0.403   3.001
 7494TIP3    H222428   5.169   0.407   3.121
 7495TIP3   OH222429   0.007   2.411   1.638
 7495TIP3    H122430   0.064   2.488   1.628
 7495TIP3    H222431  -0.047   2.432   1.714
 7496TIP3   OH222432   4.538   2.755   4.446
 7496TIP3    H122433   4.596   2.703   4.501
 7496TIP3    H222434   4.595   2.824   4.410
 7497TIP3   OH222435   2.956   2.216   6.709
 7497TIP3    H122436   3.044   2.204   6.673
 7497TIP3    H222437   2.952   2.310   6.729
 7498TIP3   OH222438   4.859   6.808   5.900
 7498TIP3    H122439   4.936   6.821   5.956
 7498TIP3    H222440   4.894   6.799   5.812
 7499TIP3   OH222441   0.589   5.576   1.691
 7499TIP3    H122442   0.662   5.603   1.747
 7499TIP3    H222443   0.580   5.482   1.708
 7500TIP3   OH222444   1.857   6.038   3.454
 7500TIP3    H122445   1.935   6.092   3.463
 7500TIP3    H222446   1.802   6.086   3.391
 7501TIP3   OH222447   1.260   3.801   3.066
 7501TIP3    H122448   1.310   3.809   3.148
 7501TIP3    H222449   1.326   3.808   2.997
 7502TIP3   OH222450   4.223   4.190   0.019
 7502TIP3    H122451   4.138   4.217  -0.013
 7502TIP3    H222452   4.206   4.158   0.108
 7503TIP3   OH222453   2.297   6.183   2.345
 7503TIP3    H122454   2.361   6.206   2.413
 7503TIP3    H222455   2.260   6.100   2.375
 7504TIP3   OH222456   5.261   7.099   5.920
 7504TIP3    H122457   5.268   7.192   5.900
 7504TIP3    H222458   5.346   7.077   5.960
 7505TIP3   OH222459   2.680   7.348   1.717
 7505TIP3    H122460   2.716   7.272   1.672
 7505TIP3    H222461   2.744   7.417   1.703
 7506TIP3   OH222462   0.341   3.482   3.632
 7506TIP3    H122463   0.347   3.419   3.560
 7506TIP3    H222464   0.397   3.444   3.701
 7507TIP3   OH222465   0.225   6.769   6.434
 7507TIP3    H122466   0.260   6.822   6.506
 7507TIP3    H222467   0.298   6.713   6.408
 7508TIP3   OH222468   0.756   3.589   3.235
 7508TIP3    H122469   0.686   3.625   3.181
 7508TIP3    H222470   0.832   3.586   3.176
 7509TIP3   OH222471   6.300   3.646   1.086
 7509TIP3    H122472   6.286   3.693   1.003
 7509TIP3    H222473   6.344   3.565   1.060
 7510TIP3   OH222474   5.033   3.110   2.813
 7510TIP3    H122475   5.114   3.150   2.845
 7510TIP3    H222476   4.963   3.152   2.862
 7511TIP3   OH222477   1.537   5.733   3.611
 7511TIP3    H122478   1.495   5.800   3.666
 7511TIP3    H222479   1.604   5.694   3.668
 7512TIP3   OH222480   7.215   2.671   4.345
 7512TIP3    H122481   7.147   2.711   4.399
 7512TIP3    H222482   7.166   2.629   4.274
 7513TIP3   OH222483   3.794   3.974   6.321
 7513TIP3    H122484   3.737   4.020   6.382
 7513TIP3    H222485   3.828   4.042   6.264
 7514TIP3   OH222486   5.117   0.668   1.049
 7514TIP3    H122487   5.178   0.629   0.986
 7514TIP3    H222488   5.158   0.655   1.134
 7515TIP3   OH222489   6.198   6.238   6.068
 7515TIP3    H122490   6.188   6.333   6.068
 7515TIP3    H222491   6.257   6.220   5.994
 7516TIP3   OH222492   6.661   7.749   4.534
 7516TIP3    H122493   6.639   7.825   4.479
 7516TIP3    H222494   6.686   7.681   4.471
 7517TIP3   OH222495   4.597   2.473   4.978
 7517TIP3    H122496   4.579   2.567   4.977
 7517TIP3    H222497   4.543   2.438   5.049
 7518TIP3   OH222498   4.962   0.885   1.069
 7518TIP3    H122499   4.882   0.855   1.111
 7518TIP3    H222500   5.012   0.805   1.052
 7519TIP3   OH222501   2.602   4.352   3.338
 7519TIP3    H122502   2.623   4.259   3.340
 7519TIP3    H222503   2.559   4.365   3.253
 7520TIP3   OH222504   0.694   5.185   5.423
 7520TIP3    H122505   0.654   5.236   5.493
 7520TIP3    H222506   0.620   5.151   5.373
 7521TIP3   OH222507   2.538   3.411   6.364
 7521TIP3    H122508   2.614   3.388   6.311
 7521TIP3    H222509   2.562   3.386   6.453
 7522TIP3   OH222510   3.891   5.379   2.491
 7522TIP3    H122511   3.958   5.371   2.423
 7522TIP3    H222512   3.851   5.464   2.474
 7523TIP3   OH222513   2.808   2.901   0.664
 7523TIP3    H122514   2.843   2.969   0.608
 7523TIP3    H222515   2.884   2.851   0.692
 7524TIP3   OH222516   7.551   5.248   3.182
 7524TIP3    H122517   7.482   5.222   3.120
 7524TIP3    H222518   7.628   5.261   3.128
 7525TIP3   OH222519   2.396   6.712   2.339
 7525TIP3    H122520   2.413   6.733   2.247
 7525TIP3    H222521   2.396   6.616   2.342
 7526TIP3   OH222522   6.905   7.632   2.068
 7526TIP3    H122523   6.853   7.556   2.041
 7526TIP3    H222524   6.897   7.693   1.995
 7527TIP3   OH222525   2.083   3.130   2.391
 7527TIP3    H122526   2.023   3.178   2.334
 7527TIP3    H222527   2.160   3.114   2.336
 7528TIP3   OH222528   0.531   1.140   6.137
 7528TIP3    H122529   0.623   1.134   6.112
 7528TIP3    H222530   0.520   1.229   6.168
 7529TIP3   OH222531   4.781   6.804   0.074
 7529TIP3    H122532   4.834   6.845   0.142
 7529TIP3    H222533   4.691   6.820   0.101
 7530TIP3   OH222534   1.416   5.314   2.918
 7530TIP3    H122535   1.456   5.367   2.849
 7530TIP3    H222536   1.364   5.376   2.969
 7531TIP3   OH222537   0.843   5.396   3.585
 7531TIP3    H122538   0.873   5.322   3.638
 7531TIP3    H222539   0.913   5.412   3.523
 7532TIP3   OH222540   3.954   2.738   4.400
 7532TIP3    H122541   3.990   2.746   4.489
 7532TIP3    H222542   3.864   2.771   4.408
 7533TIP3   OH222543   0.083   1.761   0.200
 7533TIP3    H122544   0.148   1.710   0.151
 7533TIP3    H222545   0.122   1.771   0.287
 7534TIP3   OH222546   4.208   6.497   5.887
 7534TIP3    H122547   4.286   6.468   5.839
 7534TIP3    H222548   4.221   6.463   5.976
 7535TIP3   OH222549   4.425   0.138   5.340
 7535TIP3    H122550   4.391   0.160   5.253
 7535TIP3    H222551   4.520   0.150   5.332
 7536TIP3   OH222552   0.318   4.351   6.446
 7536TIP3    H122553   0.223   4.342   6.456
 7536TIP3    H222554   0.355   4.290   6.510
 7537TIP3   OH222555   7.990   4.393   4.189
 7537TIP3    H122556   7.984   4.362   4.099
 7537TIP3    H222557   7.957   4.483   4.186
 7538TIP3   OH222558   7.386   7.286   1.522
 7538TIP3    H122559   7.332   7.363   1.543
 7538TIP3    H222560   7.470   7.302   1.565
 7539TIP3   OH222561   8.112   0.199   4.125
 7539TIP3    H122562   8.077   0.282   4.158
 7539TIP3    H222563   8.036   0.154   4.087
 7540TIP3   OH222564   7.706   0.944   3.084
 7540TIP3    H122565   7.690   1.038   3.075
 7540TIP3    H222566   7.688   0.925   3.176
 7541TIP3   OH222567   1.175   1.529   0.531
 7541TIP3    H122568   1.138   1.617   0.543
 7541TIP3    H222569   1.184   1.520   0.436
 7542TIP3   OH222570   5.625   2.364   1.255
 7542TIP3    H122571   5.594   2.278   1.227
 7542TIP3    H222572   5.718   2.365   1.233
 7543TIP3   OH222573   4.660   3.730   6.524
 7543TIP3    H122574   4.699   3.763   6.604
 7543TIP3    H222575   4.703   3.778   6.454
 7544TIP3   OH222576   1.512   2.601   4.287
 7544TIP3    H122577   1.572   2.579   4.359
 7544TIP3    H222578   1.496   2.517   4.243
 7545TIP3   OH222579   6.675   3.712   3.276
 7545TIP3    H122580   6.621   3.748   3.206
 7545TIP3    H222581   6.708   3.629   3.241
 7546TIP3   OH222582   5.359   2.237   4.954
 7546TIP3    H122583   5.298   2.218   5.026
 7546TIP3    H222584   5.416   2.161   4.951
 7547TIP3   OH222585   1.655   6.694   0.466
 7547TIP3    H122586   1.591   6.763   0.448
 7547TIP3    H222587   1.740   6.738   0.460
 7548TIP3   OH222588   2.628   1.292   3.712
 7548TIP3    H122589   2.717   1.296   3.676
 7548TIP3    H222590   2.632   1.222   3.777
 7549TIP3   OH222591   8.234   1.612   4.037
 7549TIP3    H122592   8.254   1.704   4.057
 7549TIP3    H222593   8.315   1.577   4.002
 7550TIP3   OH222594   1.219   1.861   6.551
 7550TIP3    H122595   1.169   1.899   6.622
 7550TIP3    H222596   1.194   1.912   6.474
 7551TIP3   OH222597   6.214   7.251   0.826
 7551TIP3    H122598   6.226   7.183   0.760
 7551TIP3    H222599   6.211   7.333   0.776
 7552TIP3   OH222600   0.521   2.035   3.630
 7552TIP3    H122601   0.448   2.032   3.692
 7552TIP3    H222602   0.533   1.944   3.603
 7553TIP3   OH222603   5.413   1.481   2.673
 7553TIP3    H122604   5.337   1.538   2.683
 7553TIP3    H222605   5.405   1.445   2.585
 7554TIP3   OH222606   1.062   7.589   3.036
 7554TIP3    H122607   1.038   7.498   3.055
 7554TIP3    H222608   0.989   7.623   2.985
 7555TIP3   OH222609   4.338   0.816   4.654
 7555TIP3    H122610   4.376   0.734   4.686
 7555TIP3    H222611   4.387   0.836   4.575
 7556TIP3   OH222612   7.898   0.945   6.358
 7556TIP3    H122613   7.853   0.860   6.354
 7556TIP3    H222614   7.988   0.926   6.333
 7557TIP3   OH222615   8.148   7.095   2.547
 7557TIP3    H122616   8.242   7.079   2.560
 7557TIP3    H222617   8.118   7.018   2.498
 7558TIP3   OH222618   0.700   7.622   3.604
 7558TIP3    H122619   0.631   7.580   3.656
 7558TIP3    H222620   0.701   7.713   3.636
 7559TIP3   OH222621   7.882   2.011   0.149
 7559TIP3    H122622   7.927   1.949   0.206
 7559TIP3    H222623   7.861   2.085   0.205
 7560TIP3   OH222624   7.082   7.689   0.792
 7560TIP3    H122625   7.084   7.595   0.808
 7560TIP3    H222626   7.159   7.705   0.737
 7561TIP3   OH222627   4.127   4.994   2.276
 7561TIP3    H122628   4.096   5.021   2.363
 7561TIP3    H222629   4.222   4.989   2.284
 7562TIP3   OH222630   1.849   2.072   0.165
 7562TIP3    H122631   1.805   2.123   0.097
 7562TIP3    H222632   1.931   2.044   0.125
 7563TIP3   OH222633   8.095   7.095   0.327
 7563TIP3    H122634   8.034   7.153   0.281
 7563TIP3    H222635   8.160   7.072   0.261
 7564TIP3   OH222636   0.178   5.758   1.582
 7564TIP3    H122637   0.207   5.745   1.492
 7564TIP3    H222638   0.229   5.833   1.613
 7565TIP3   OH222639   5.439   7.403   4.972
 7565TIP3    H122640   5.452   7.334   5.037
 7565TIP3    H222641   5.464   7.362   4.889
 7566TIP3   OH222642   2.413   1.932   4.029
 7566TIP3    H122643   2.421   2.020   3.992
 7566TIP3    H222644   2.374   1.880   3.959
 7567TIP3   OH222645   7.190   6.943   5.004
 7567TIP3    H122646   7.206   6.849   5.006
 7567TIP3    H222647   7.219   6.974   5.090
 7568TIP3   OH222648   5.185   1.815   2.856
 7568TIP3    H122649   5.109   1.869   2.833
 7568TIP3    H222650   5.261   1.870   2.839
 7569TIP3   OH222651   4.647   1.431   4.674
 7569TIP3    H122652   4.609   1.518   4.684
 7569TIP3    H222653   4.574   1.371   4.686
 7570TIP3   OH222654   0.875   5.819   4.553
 7570TIP3    H122655   0.881   5.741   4.497
 7570TIP3    H222656   0.924   5.886   4.506
 7571TIP3   OH222657   0.461   3.703   3.805
 7571TIP3    H122658   0.370   3.711   3.776
 7571TIP3    H222659   0.490   3.794   3.817
 7572TIP3   OH222660   7.989   0.993   2.192
 7572TIP3    H122661   7.948   1.075   2.218
 7572TIP3    H222662   8.070   1.019   2.148
 7573TIP3   OH222663   0.434   4.124   0.094
 7573TIP3    H122664   0.526   4.108   0.113
 7573TIP3    H222665   0.422   4.091   0.005
 7574TIP3   OH222666   3.453   3.426   5.790
 7574TIP3    H122667   3.386   3.361   5.808
 7574TIP3    H222668   3.506   3.388   5.720
 7575TIP3   OH222669   6.508   0.164   4.561
 7575TIP3    H122670   6.468   0.086   4.523
 7575TIP3    H222671   6.596   0.137   4.586
 7576TIP3   OH222672   1.958   4.036   0.573
 7576TIP3    H122673   1.957   4.103   0.642
 7576TIP3    H222674   1.891   3.973   0.600
 7577TIP3   OH222675   8.103   1.476   1.756
 7577TIP3    H122676   8.079   1.549   1.699
 7577TIP3    H222677   8.190   1.450   1.725
 7578TIP3   OH222678   7.639   6.495   5.592
 7578TIP3    H122679   7.622   6.586   5.615
 7578TIP3    H222680   7.692   6.461   5.664
 7579TIP3   OH222681   4.693   6.053   3.106
 7579TIP3    H122682   4.610   6.018   3.138
 7579TIP3    H222683   4.720   6.116   3.173
 7580TIP3   OH222684   4.294   0.786   0.069
 7580TIP3    H122685   4.305   0.699   0.030
 7580TIP3    H222686   4.378   0.806   0.110
 7581TIP3   OH222687   0.165   6.545   5.910
 7581TIP3    H122688   0.206   6.532   5.996
 7581TIP3    H222689   0.235   6.581   5.855
 7582TIP3   OH222690   0.083   7.665   3.969
 7582TIP3    H122691   0.037   7.715   3.901
 7582TIP3    H222692   0.064   7.711   4.050
 7583TIP3   OH222693   1.923   4.755   3.731
 7583TIP3    H122694   1.931   4.786   3.641
 7583TIP3    H222695   1.841   4.794   3.762
 7584TIP3   OH222696   5.368   3.802   2.261
 7584TIP3    H122697   5.299   3.806   2.194
 7584TIP3    H222698   5.398   3.893   2.269
 7585TIP3   OH222699   4.253   4.027   3.311
 7585TIP3    H122700   4.250   3.940   3.270
 7585TIP3    H222701   4.172   4.069   3.283
 7586TIP3   OH222702   0.097   6.390   5.457
 7586TIP3    H122703   0.148   6.344   5.523
 7586TIP3    H222704   0.146   6.470   5.439
 7587TIP3   OH222705   0.974   0.589   6.288
 7587TIP3    H122706   1.007   0.557   6.203
 7587TIP3    H222707   0.992   0.683   6.286
 7588TIP3   OH222708   1.504   1.042   4.083
 7588TIP3    H122709   1.576   1.100   4.107
 7588TIP3    H222710   1.430   1.071   4.137
 7589TIP3   OH222711   6.664   4.999   1.736
 7589TIP3    H122712   6.726   5.070   1.717
 7589TIP3    H222713   6.587   5.019   1.683
 7590TIP3   OH222714   5.730   2.831   3.935
 7590TIP3    H122715   5.739   2.748   3.981
 7590TIP3    H222716   5.768   2.814   3.848
 7591TIP3   OH222717   0.376   6.142   1.251
 7591TIP3    H122718   0.289   6.158   1.288
 7591TIP3    H222719   0.431   6.125   1.327
 7592TIP3   OH222720   1.671   5.759   1.352
 7592TIP3    H122721   1.756   5.796   1.328
 7592TIP3    H222722   1.685   5.720   1.438
 7593TIP3   OH222723   2.739   7.095   4.095
 7593TIP3    H122724   2.760   7.035   4.024
 7593TIP3    H222725   2.651   7.127   4.075
 7594TIP3   OH222726   5.889   2.253   3.038
 7594TIP3    H122727   5.964   2.232   3.093
 7594TIP3    H222728   5.869   2.344   3.057
 7595TIP3   OH222729   2.106   7.575   4.249
 7595TIP3    H122730   2.187   7.625   4.256
 7595TIP3    H222731   2.106   7.542   4.159
 7596TIP3   OH222732   6.158   0.815   3.559
 7596TIP3    H122733   6.221   0.743   3.563
 7596TIP3    H222734   6.113   0.802   3.475
 7597TIP3   OH222735   6.803   3.261   5.084
 7597TIP3    H122736   6.891   3.266   5.120
 7597TIP3    H222737   6.809   3.306   4.999
 7598TIP3   OH222738   3.682   2.749   2.592
 7598TIP3    H122739   3.714   2.808   2.661
 7598TIP3    H222740   3.641   2.807   2.528
 7599TIP3   OH222741   4.989   6.965   3.301
 7599TIP3    H122742   5.002   6.893   3.363
 7599TIP3    H222743   4.896   6.963   3.282
 7600TIP3   OH222744   7.073   2.417   3.055
 7600TIP3    H122745   7.045   2.342   3.107
 7600TIP3    H222746   7.016   2.488   3.084
 7601TIP3   OH222747   3.577   3.884   3.205
 7601TIP3    H122748   3.587   3.874   3.299
 7601TIP3    H222749   3.486   3.912   3.194
 7602TIP3   OH222750   6.420   4.727   4.659
 7602TIP3    H122751   6.351   4.779   4.615
 7602TIP3    H222752   6.475   4.792   4.701
 7603TIP3   OH222753   4.490   7.042   4.090
 7603TIP3    H122754   4.438   7.105   4.041
 7603TIP3    H222755   4.488   6.963   4.036
 7604TIP3   OH222756   0.477   7.781   1.893
 7604TIP3    H122757   0.544   7.731   1.939
 7604TIP3    H222758   0.507   7.784   1.802
 7605TIP3   OH222759   6.847   5.914   3.114
 7605TIP3    H122760   6.817   5.973   3.183
 7605TIP3    H222761   6.773   5.908   3.053
 7606TIP3   OH222762   6.771   0.624   2.387
 7606TIP3    H122763   6.704   0.576   2.339
 7606TIP3    H222764   6.740   0.624   2.478
 7607TIP3   OH222765   6.705   1.905   0.609
 7607TIP3    H122766   6.697   1.822   0.656
 7607TIP3    H222767   6.799   1.921   0.605
 7608TIP3   OH222768   4.414   7.746   0.164
 7608TIP3    H122769   4.490   7.696   0.134
 7608TIP3    H222770   4.449   7.833   0.185
 7609TIP3   OH222771   1.637   4.746   5.846
 7609TIP3    H122772   1.684   4.738   5.763
 7609TIP3    H222773   1.648   4.661   5.888
 7610TIP3   OH222774   6.121   4.748   2.782
 7610TIP3    H122775   6.134   4.673   2.840
 7610TIP3    H222776   6.167   4.724   2.702
 7611TIP3   OH222777   4.618   3.373   3.735
 7611TIP3    H122778   4.628   3.282   3.709
 7611TIP3    H222779   4.669   3.380   3.816
 7612TIP3   OH222780   5.948   0.242   3.759
 7612TIP3    H122781   5.982   0.320   3.716
 7612TIP3    H222782   5.870   0.219   3.708
 7613TIP3   OH222783   0.395   0.626   3.438
 7613TIP3    H122784   0.489   0.629   3.425
 7613TIP3    H222785   0.384   0.597   3.528
 7614TIP3   OH222786   8.148   7.316   4.528
 7614TIP3    H122787   8.077   7.377   4.511
 7614TIP3    H222788   8.214   7.369   4.573
 7615TIP3   OH222789   4.264   7.420   2.212
 7615TIP3    H122790   4.221   7.401   2.129
 7615TIP3    H222791   4.207   7.483   2.256
 7616TIP3   OH222792   1.091   6.787   1.315
 7616TIP3    H122793   1.058   6.866   1.271
 7616TIP3    H222794   1.092   6.811   1.408
 7617TIP3   OH222795   4.539   1.742   6.118
 7617TIP3    H122796   4.525   1.837   6.125
 7617TIP3    H222797   4.486   1.715   6.043
 7618TIP3   OH222798   1.647   4.183   1.220
 7618TIP3    H122799   1.690   4.145   1.296
 7618TIP3    H222800   1.708   4.170   1.148
 7619TIP3   OH222801   4.574   3.880   4.968
 7619TIP3    H122802   4.546   3.962   4.929
 7619TIP3    H222803   4.649   3.851   4.916
 7620TIP3   OH222804   4.060   2.817   1.115
 7620TIP3    H122805   4.127   2.750   1.129
 7620TIP3    H222806   4.000   2.777   1.052
 7621TIP3   OH222807   6.452   1.673   4.148
 7621TIP3    H122808   6.419   1.710   4.067
 7621TIP3    H222809   6.379   1.624   4.185
 7622TIP3   OH222810   1.668   4.794   1.222
 7622TIP3    H122811   1.637   4.710   1.256
 7622TIP3    H222812   1.752   4.808   1.266
 7623TIP3   OH222813   4.330   4.355   5.271
 7623TIP3    H122814   4.332   4.319   5.182
 7623TIP3    H222815   4.351   4.447   5.261
 7624TIP3   OH222816   6.480   4.044   6.713
 7624TIP3    H122817   6.532   4.045   6.793
 7624TIP3    H222818   6.429   3.963   6.718
 7625TIP3   OH222819   5.306   4.002   3.319
 7625TIP3    H122820   5.344   3.967   3.238
 7625TIP3    H222821   5.337   3.942   3.387
 7626TIP3   OH222822   1.942   0.791   4.180
 7626TIP3    H122823   2.035   0.812   4.171
 7626TIP3    H222824   1.897   0.856   4.127
 7627TIP3   OH222825  -0.027   5.085   2.410
 7627TIP3    H122826   0.038   5.154   2.414
 7627TIP3    H222827   0.012   5.012   2.458
 7628TIP3   OH222828   2.187   0.044   0.473
 7628TIP3    H122829   2.252   0.084   0.531
 7628TIP3    H222830   2.207  -0.049   0.474
 7629TIP3   OH222831   6.775   3.928   5.024
 7629TIP3    H122832   6.870   3.930   5.032
 7629TIP3    H222833   6.751   3.837   5.042
 7630TIP3   OH222834   3.349   6.289   5.271
 7630TIP3    H122835   3.257   6.271   5.289
 7630TIP3    H222836   3.355   6.285   5.175
 7631TIP3   OH222837   1.307   6.738   2.210
 7631TIP3    H122838   1.395   6.760   2.239
 7631TIP3    H222839   1.253   6.744   2.289
 7632TIP3   OH222840   7.725   0.197   2.296
 7632TIP3    H122841   7.652   0.219   2.238
 7632TIP3    H222842   7.690   0.131   2.356
 7633TIP3   OH222843   5.628   0.582   1.710
 7633TIP3    H122844   5.619   0.677   1.711
 7633TIP3    H222845   5.599   0.555   1.623
 7634TIP3   OH222846   5.097   1.058   2.931
 7634TIP3    H122847   5.119   1.035   3.021
 7634TIP3    H222848   5.079   1.152   2.933
 7635TIP3   OH222849   3.993   1.439   1.971
 7635TIP3    H122850   4.073   1.490   1.958
 7635TIP3    H222851   4.018   1.373   2.036
 7636TIP3   OH222852   4.990   1.905   1.665
 7636TIP3    H122853   4.900   1.884   1.692
 7636TIP3    H222854   5.016   1.831   1.610
 7637TIP3   OH222855   7.503   1.188   5.249
 7637TIP3    H122856   7.420   1.160   5.210
 7637TIP3    H222857   7.503   1.149   5.336
 7638TIP3   OH222858   5.372   6.894   4.667
 7638TIP3    H122859   5.426   6.899   4.588
 7638TIP3    H222860   5.301   6.835   4.643
 7639TIP3   OH222861   6.389   2.785   4.953
 7639TIP3    H122862   6.452   2.827   4.893
 7639TIP3    H222863   6.419   2.809   5.040
 7640TIP3   OH222864   0.084   7.656   0.609
 7640TIP3    H122865   0.122   7.577   0.569
 7640TIP3    H222866   0.039   7.700   0.536
 7641TIP3   OH222867   5.072   7.183   3.119
 7641TIP3    H122868   5.107   7.238   3.190
 7641TIP3    H222869   5.030   7.110   3.163
 7642TIP3   OH222870   0.739   3.164   2.126
 7642TIP3    H122871   0.743   3.131   2.216
 7642TIP3    H222872   0.777   3.251   2.131
 7643TIP3   OH222873   7.651   2.389   3.812
 7643TIP3    H122874   7.643   2.298   3.839
 7643TIP3    H222875   7.589   2.398   3.740
 7644TIP3   OH222876   7.056   1.981   5.110
 7644TIP3    H122877   7.138   1.958   5.154
 7644TIP3    H222878   6.990   1.928   5.155
 7645TIP3   OH222879   6.042   4.510   3.192
 7645TIP3    H122880   6.114   4.533   3.250
 7645TIP3    H222881   6.084   4.483   3.111
 7646TIP3   OH222882   1.808   1.973   3.544
 7646TIP3    H122883   1.726   1.928   3.521
 7646TIP3    H222884   1.830   1.939   3.631
 7647TIP3   OH222885   7.852   6.518   0.845
 7647TIP3    H122886   7.834   6.592   0.786
 7647TIP3    H222887   7.948   6.516   0.851
 7648TIP3   OH222888   2.328   5.240   2.533
 7648TIP3    H122889   2.415   5.271   2.557
 7648TIP3    H222890   2.269   5.295   2.585
 7649TIP3   OH222891   2.258   6.407   3.890
 7649TIP3    H122892   2.341   6.405   3.938
 7649TIP3    H222893   2.204   6.340   3.933
 7650TIP3   OH222894   0.106   5.307   5.805
 7650TIP3    H122895   0.050   5.232   5.784
 7650TIP3    H222896   0.148   5.330   5.722
 7651TIP3   OH222897   8.024   1.685   5.051
 7651TIP3    H122898   7.949   1.627   5.062
 7651TIP3    H222899   7.991   1.758   4.999
 7652TIP3   OH222900   7.372   4.902   0.029
 7652TIP3    H122901   7.327   4.850  -0.037
 7652TIP3    H222902   7.337   4.869   0.112
 7653TIP3   OH222903   6.356   3.869   3.585
 7653TIP3    H122904   6.344   3.963   3.579
 7653TIP3    H222905   6.339   3.848   3.677
 7654TIP3   OH222906   7.469   0.506   4.421
 7654TIP3    H122907   7.493   0.588   4.379
 7654TIP3    H222908   7.479   0.440   4.353
 7655TIP3   OH222909   0.699   6.862   3.927
 7655TIP3    H122910   0.713   6.817   3.843
 7655TIP3    H222911   0.710   6.793   3.993
 7656TIP3   OH222912   3.728   7.349   5.344
 7656TIP3    H122913   3.731   7.301   5.427
 7656TIP3    H222914   3.740   7.282   5.277
 7657TIP3   OH222915   3.063   7.652   5.508
 7657TIP3    H122916   2.998   7.649   5.578
 7657TIP3    H222917   3.057   7.567   5.466
 7658TIP3   OH222918   0.323   2.333   0.772
 7658TIP3    H122919   0.290   2.422   0.763
 7658TIP3    H222920   0.245   2.278   0.764
 7659TIP3   OH222921   4.916   3.554   3.703
 7659TIP3    H122922   4.894   3.544   3.795
 7659TIP3    H222923   4.984   3.621   3.701
 7660TIP3   OH222924   6.156   2.969   5.780
 7660TIP3    H122925   6.079   3.024   5.765
 7660TIP3    H222926   6.218   3.027   5.826
 7661TIP3   OH222927   4.451   7.737   5.953
 7661TIP3    H122928   4.538   7.778   5.948
 7661TIP3    H222929   4.396   7.791   5.897
 7662TIP3   OH222930   4.006   7.428   2.994
 7662TIP3    H122931   4.055   7.351   3.022
 7662TIP3    H222932   3.946   7.395   2.926
 7663TIP3   OH222933   1.474   0.257   3.557
 7663TIP3    H122934   1.400   0.232   3.611
 7663TIP3    H222935   1.541   0.286   3.620
 7664TIP3   OH222936   2.307   1.827   4.514
 7664TIP3    H122937   2.394   1.818   4.551
 7664TIP3    H222938   2.250   1.845   4.589
 7665TIP3   OH222939   5.464   2.577   1.135
 7665TIP3    H122940   5.514   2.512   1.184
 7665TIP3    H222941   5.472   2.549   1.044
 7666TIP3   OH222942   6.471   5.816   0.691
 7666TIP3    H122943   6.403   5.882   0.678
 7666TIP3    H222944   6.553   5.865   0.695
 7667TIP3   OH222945   7.366   2.134   3.827
 7667TIP3    H122946   7.365   2.142   3.732
 7667TIP3    H222947   7.330   2.047   3.845
 7668TIP3   OH222948   2.861   0.230   2.146
 7668TIP3    H122949   2.834   0.193   2.062
 7668TIP3    H222950   2.957   0.225   2.145
 7669TIP3   OH222951   0.374   6.254   4.750
 7669TIP3    H122952   0.345   6.322   4.811
 7669TIP3    H222953   0.334   6.173   4.783
 7670TIP3   OH222954   2.034   6.813   3.861
 7670TIP3    H122955   2.031   6.865   3.782
 7670TIP3    H222956   2.118   6.767   3.857
 7671TIP3   OH222957   8.264   3.956   0.340
 7671TIP3    H122958   8.178   3.951   0.298
 7671TIP3    H222959   8.246   3.990   0.428
 7672TIP3   OH222960   5.754   3.347   5.918
 7672TIP3    H122961   5.722   3.437   5.913
 7672TIP3    H222962   5.780   3.335   6.010
 7673TIP3   OH222963   1.440   0.195   5.528
 7673TIP3    H122964   1.523   0.181   5.573
 7673TIP3    H222965   1.374   0.193   5.597
 7674TIP3   OH222966   0.187   7.469   0.043
 7674TIP3    H122967   0.119   7.405   0.023
 7674TIP3    H222968   0.232   7.434   0.120
 7675TIP3   OH222969   0.294   3.060   6.419
 7675TIP3    H122970   0.256   3.077   6.505
 7675TIP3    H222971   0.224   3.016   6.370
 7676TIP3   OH222972   1.136   0.841   6.066
 7676TIP3    H122973   1.065   0.862   6.006
 7676TIP3    H222974   1.203   0.908   6.049
 7677TIP3   OH222975   8.099   5.004   5.775
 7677TIP3    H122976   8.173   5.001   5.714
 7677TIP3    H222977   8.036   5.062   5.734
 7678TIP3   OH222978   3.050   0.072   4.273
 7678TIP3    H122979   3.030   0.014   4.347
 7678TIP3    H222980   2.969   0.076   4.223
 7679TIP3   OH222981   0.272   1.978   6.500
 7679TIP3    H122982   0.177   1.991   6.508
 7679TIP3    H222983   0.305   1.985   6.589
 7680TIP3   OH222984   1.034   6.487   4.955
 7680TIP3    H122985   1.006   6.440   5.034
 7680TIP3    H222986   0.952   6.513   4.912
 7681TIP3   OH222987   0.157   0.644   4.588
 7681TIP3    H122988   0.224   0.592   4.542
 7681TIP3    H222989   0.099   0.579   4.628
 7682TIP3   OH222990   1.955   0.680   1.680
 7682TIP3    H122991   1.878   0.728   1.649
 7682TIP3    H222992   1.920   0.618   1.744
 7683TIP3   OH222993   2.505   6.902   4.319
 7683TIP3    H122994   2.463   6.864   4.243
 7683TIP3    H222995   2.502   6.834   4.386
 7684TIP3   OH222996   3.636   4.698   2.445
 7684TIP3    H122997   3.624   4.653   2.528
 7684TIP3    H222998   3.731   4.702   2.434
 7685TIP3   OH222999   4.076   7.275   1.590
 7685TIP3    H123000   4.009   7.303   1.527
 7685TIP3    H223001   4.043   7.193   1.625
 7686TIP3   OH223002   2.354   6.188   3.043
 7686TIP3    H123003   2.342   6.163   2.951
 7686TIP3    H223004   2.386   6.278   3.039
 7687TIP3   OH223005   5.206   3.662   5.608
 7687TIP3    H123006   5.122   3.668   5.561
 7687TIP3    H223007   5.197   3.583   5.661
 7688TIP3   OH223008   7.192   5.579   5.054
 7688TIP3    H123009   7.159   5.524   4.982
 7688TIP3    H223010   7.224   5.658   5.010
 7689TIP3   OH223011   7.710   6.975   3.916
 7689TIP3    H123012   7.789   6.942   3.960
 7689TIP3    H223013   7.685   7.052   3.968
 7690TIP3   OH223014   0.181   5.517   3.486
 7690TIP3    H123015   0.102   5.571   3.493
 7690TIP3    H223016   0.218   5.541   3.401
 7691TIP3   OH223017   7.192   4.580   3.078
 7691TIP3    H123018   7.129   4.631   3.028
 7691TIP3    H223019   7.139   4.512   3.120
 7692TIP3   OH223020   5.819   6.391   3.116
 7692TIP3    H123021   5.795   6.304   3.083
 7692TIP3    H223022   5.738   6.441   3.114
 7693TIP3   OH223023   0.674   2.112   1.644
 7693TIP3    H123024   0.760   2.130   1.605
 7693TIP3    H223025   0.623   2.076   1.571
 7694TIP3   OH223026   3.791   4.208   0.394
 7694TIP3    H123027   3.710   4.239   0.433
 7694TIP3    H223028   3.808   4.269   0.322
 7695TIP3   OH223029   2.700   4.842   6.193
 7695TIP3    H123030   2.706   4.751   6.222
 7695TIP3    H223031   2.732   4.893   6.267
 7696TIP3   OH223032   6.125   0.115   5.004
 7696TIP3    H123033   6.049   0.163   4.970
 7696TIP3    H223034   6.199   0.174   4.989
 7697TIP3   OH223035   0.753   0.774   4.360
 7697TIP3    H123036   0.786   0.689   4.329
 7697TIP3    H223037   0.670   0.752   4.404
 7698TIP3   OH223038   4.880   4.218   3.517
 7698TIP3    H123039   4.956   4.182   3.471
 7698TIP3    H223040   4.872   4.165   3.596
 7699TIP3   OH223041   7.239   1.899   3.874
 7699TIP3    H123042   7.151   1.892   3.836
 7699TIP3    H223043   7.271   1.809   3.874
 7700TIP3   OH223044   0.581   7.259   5.434
 7700TIP3    H123045   0.512   7.229   5.375
 7700TIP3    H223046   0.655   7.281   5.377
 7701TIP3   OH223047   4.971   7.677   6.023
 7701TIP3    H123048   4.948   7.613   6.090
 7701TIP3    H223049   5.065   7.665   6.009
 7702TIP3   OH223050   8.247   1.593   0.991
 7702TIP3    H123051   8.159   1.559   1.002
 7702TIP3    H223052   8.245   1.680   1.030
 7703TIP3   OH223053   3.136   2.116   2.300
 7703TIP3    H123054   3.119   2.061   2.377
 7703TIP3    H223055   3.228   2.101   2.280
 7704TIP3   OH223056   6.860   0.699   5.634
 7704TIP3    H123057   6.834   0.629   5.694
 7704TIP3    H223058   6.925   0.750   5.683
 7705TIP3   OH223059   4.233   0.125   3.765
 7705TIP3    H123060   4.223   0.060   3.695
 7705TIP3    H223061   4.296   0.188   3.729
 7706TIP3   OH223062   1.483   0.624   0.364
 7706TIP3    H123063   1.519   0.613   0.452
 7706TIP3    H223064   1.532   0.697   0.326
 7707TIP3   OH223065   3.827   6.995   3.009
 7707TIP3    H123066   3.834   7.070   2.951
 7707TIP3    H223067   3.738   6.963   2.997
 7708TIP3   OH223068   0.854   1.296   4.162
 7708TIP3    H123069   0.776   1.337   4.198
 7708TIP3    H223070   0.847   1.310   4.067
 7709TIP3   OH223071   6.542   2.456   1.966
 7709TIP3    H123072   6.540   2.510   1.888
 7709TIP3    H223073   6.470   2.394   1.955
 7710TIP3   OH223074   6.906   3.574   4.632
 7710TIP3    H123075   6.885   3.664   4.606
 7710TIP3    H223076   6.846   3.520   4.582
 7711TIP3   OH223077   7.816   1.974   4.719
 7711TIP3    H123078   7.799   2.038   4.650
 7711TIP3    H223079   7.848   2.026   4.793
 7712TIP3   OH223080   0.331   1.661   5.417
 7712TIP3    H123081   0.417   1.624   5.436
 7712TIP3    H223082   0.279   1.586   5.386
 7713TIP3   OH223083   1.985   3.949   4.143
 7713TIP3    H123084   2.029   4.011   4.085
 7713TIP3    H223085   2.010   3.863   4.108
 7714TIP3   OH223086   1.706   3.839   4.184
 7714TIP3    H123087   1.621   3.806   4.212
 7714TIP3    H223088   1.757   3.760   4.165
 7715TIP3   OH223089   2.196   1.887   3.353
 7715TIP3    H123090   2.146   1.840   3.286
 7715TIP3    H223091   2.145   1.967   3.369
 7716TIP3   OH223092   3.751   3.729   4.519
 7716TIP3    H123093   3.672   3.738   4.465
 7716TIP3    H223094   3.794   3.814   4.514
 7717TIP3   OH223095   2.577   3.071   4.580
 7717TIP3    H123096   2.623   3.093   4.499
 7717TIP3    H223097   2.487   3.100   4.564
 7718TIP3   OH223098   1.923   3.683   5.759
 7718TIP3    H123099   2.013   3.699   5.787
 7718TIP3    H223100   1.920   3.715   5.669
 7719TIP3   OH223101   6.497   4.428   4.653
 7719TIP3    H123102   6.544   4.440   4.571
 7719TIP3    H223103   6.472   4.517   4.679
 7720TIP3   OH223104   0.334   2.617   2.810
 7720TIP3    H123105   0.367   2.615   2.900
 7720TIP3    H223106   0.289   2.701   2.802
 7721TIP3   OH223107   1.198   1.100   1.998
 7721TIP3    H123108   1.111   1.139   1.998
 7721TIP3    H223109   1.242   1.138   1.922
 7722TIP3   OH223110   1.872   0.611   2.096
 7722TIP3    H123111   1.824   0.585   2.174
 7722TIP3    H223112   1.953   0.560   2.099
 7723TIP3   OH223113   6.068   1.616   5.895
 7723TIP3    H123114   6.050   1.544   5.956
 7723TIP3    H223115   6.140   1.583   5.841
 7724TIP3   OH223116   0.640   3.265   2.408
 7724TIP3    H123117   0.612   3.183   2.448
 7724TIP3    H223118   0.560   3.318   2.403
 7725TIP3   OH223119   3.714   0.901   2.734
 7725TIP3    H123120   3.786   0.942   2.781
 7725TIP3    H223121   3.653   0.972   2.716
 7726TIP3   OH223122   3.669   3.163   3.353
 7726TIP3    H123123   3.643   3.090   3.409
 7726TIP3    H223124   3.712   3.224   3.412
 7727TIP3   OH223125   1.393   7.329   6.601
 7727TIP3    H123126   1.304   7.364   6.601
 7727TIP3    H223127   1.430   7.358   6.518
 7728TIP3   OH223128   2.651   4.728   2.475
 7728TIP3    H123129   2.600   4.657   2.437
 7728TIP3    H223130   2.585   4.794   2.499
 7729TIP3   OH223131   3.010   5.868   6.083
 7729TIP3    H123132   3.004   5.963   6.089
 7729TIP3    H223133   2.979   5.847   5.995
 7730TIP3   OH223134   3.824   4.884   1.008
 7730TIP3    H123135   3.787   4.843   0.930
 7730TIP3    H223136   3.919   4.878   0.996
 7731TIP3   OH223137   6.530   5.728   4.061
 7731TIP3    H123138   6.550   5.640   4.030
 7731TIP3    H223139   6.613   5.775   4.054
 7732TIP3   OH223140   5.002   3.440   4.309
 7732TIP3    H123141   5.028   3.498   4.237
 7732TIP3    H223142   5.045   3.476   4.386
 7733TIP3   OH223143   8.090   2.081   0.850
 7733TIP3    H123144   8.073   1.995   0.813
 7733TIP3    H223145   8.180   2.100   0.824
 7734TIP3   OH223146   6.848   5.609   4.597
 7734TIP3    H123147   6.916   5.677   4.588
 7734TIP3    H223148   6.837   5.600   4.692
 7735TIP3   OH223149   6.205   7.110   6.634
 7735TIP3    H123150   6.258   7.176   6.590
 7735TIP3    H223151   6.260   7.078   6.705
 7736TIP3   OH223152   5.889   6.414   4.531
 7736TIP3    H123153   5.935   6.365   4.599
 7736TIP3    H223154   5.888   6.504   4.563
 7737TIP3   OH223155   0.933   0.350   4.130
 7737TIP3    H123156   0.942   0.267   4.178
 7737TIP3    H223157   0.977   0.334   4.047
 7738TIP3   OH223158   5.240   0.274   3.246
 7738TIP3    H123159   5.219   0.204   3.185
 7738TIP3    H223160   5.291   0.232   3.315
 7739TIP3   OH223161   5.579   5.665   1.392
 7739TIP3    H123162   5.652   5.723   1.414
 7739TIP3    H223163   5.586   5.652   1.297
 7740TIP3   OH223164   6.913   7.773   5.415
 7740TIP3    H123165   6.829   7.795   5.374
 7740TIP3    H223166   6.943   7.855   5.454
 7741TIP3   OH223167   6.149   2.519   1.888
 7741TIP3    H123168   6.211   2.452   1.917
 7741TIP3    H223169   6.068   2.472   1.870
 7742TIP3   OH223170   3.729   5.215   5.924
 7742TIP3    H123171   3.794   5.165   5.973
 7742TIP3    H223172   3.725   5.300   5.969
 7743TIP3   OH223173   6.900   5.739   4.906
 7743TIP3    H123174   6.932   5.654   4.874
 7743TIP3    H223175   6.807   5.739   4.885
 7744TIP3   OH223176   6.616   3.320   2.661
 7744TIP3    H123177   6.594   3.344   2.750
 7744TIP3    H223178   6.608   3.401   2.611
 7745TIP3   OH223179   3.070   3.740   3.536
 7745TIP3    H123180   3.006   3.681   3.575
 7745TIP3    H223181   3.042   3.827   3.563
 7746TIP3   OH223182   3.229   1.568   0.546
 7746TIP3    H123183   3.225   1.639   0.610
 7746TIP3    H223184   3.237   1.612   0.462
 7747TIP3   OH223185   0.866   0.780   5.132
 7747TIP3    H123186   0.904   0.747   5.050
 7747TIP3    H223187   0.774   0.796   5.111
 7748TIP3   OH223188   0.143   4.909   4.882
 7748TIP3    H123189   0.111   4.877   4.966
 7748TIP3    H223190   0.221   4.961   4.904
 7749TIP3   OH223191   4.224   1.825   2.032
 7749TIP3    H123192   4.141   1.814   2.079
 7749TIP3    H223193   4.229   1.919   2.013
 7750TIP3   OH223194   7.213   6.524   5.430
 7750TIP3    H123195   7.209   6.587   5.502
 7750TIP3    H223196   7.279   6.460   5.458
 7751TIP3   OH223197   6.647   6.926   2.556
 7751TIP3    H123198   6.598   6.965   2.628
 7751TIP3    H223199   6.600   6.954   2.477
 7752TIP3   OH223200   4.225   1.698   1.201
 7752TIP3    H123201   4.193   1.682   1.290
 7752TIP3    H223202   4.286   1.626   1.184
 7753TIP3   OH223203   7.253   0.358   1.685
 7753TIP3    H123204   7.241   0.320   1.772
 7753TIP3    H223205   7.326   0.419   1.696
 7754TIP3   OH223206   0.619   3.036   6.780
 7754TIP3    H123207   0.642   3.106   6.719
 7754TIP3    H223208   0.686   2.970   6.768
 7755TIP3   OH223209   3.420   4.736   6.135
 7755TIP3    H123210   3.454   4.648   6.146
 7755TIP3    H223211   3.325   4.726   6.142
 7756TIP3   OH223212   1.915   5.675   1.126
 7756TIP3    H123213   1.893   5.694   1.034
 7756TIP3    H223214   1.914   5.760   1.169
 7757TIP3   OH223215   1.645   7.657   0.661
 7757TIP3    H123216   1.621   7.614   0.579
 7757TIP3    H223217   1.599   7.741   0.659
 7758TIP3   OH223218   6.997   7.377   5.347
 7758TIP3    H123219   6.938   7.313   5.305
 7758TIP3    H223220   7.083   7.357   5.311
 7759TIP3   OH223221   3.591   7.575   0.468
 7759TIP3    H123222   3.532   7.619   0.408
 7759TIP3    H223223   3.609   7.639   0.536
 7760TIP3   OH223224   7.137   7.399   0.748
 7760TIP3    H123225   7.223   7.359   0.758
 7760TIP3    H223226   7.094   7.350   0.678
 7761TIP3   OH223227   8.273   4.133   4.006
 7761TIP3    H123228   8.271   4.129   3.910
 7761TIP3    H223229   8.335   4.203   4.026
 7762TIP3   OH223230   5.348   6.837   4.038
 7762TIP3    H123231   5.358   6.929   4.063
 7762TIP3    H223232   5.288   6.839   3.963
 7763TIP3   OH223233   5.262   1.801   2.172
 7763TIP3    H123234   5.247   1.782   2.265
 7763TIP3    H223235   5.205   1.740   2.126
 7764TIP3   OH223236   1.774   3.132   0.766
 7764TIP3    H123237   1.757   3.039   0.755
 7764TIP3    H223238   1.865   3.143   0.741
 7765TIP3   OH223239   3.563   2.807   1.056
 7765TIP3    H123240   3.648   2.771   1.031
 7765TIP3    H223241   3.554   2.885   1.002
 7766TIP3   OH223242   0.788   2.862   6.512
 7766TIP3    H123243   0.786   2.767   6.519
 7766TIP3    H223244   0.863   2.881   6.456
 7767TIP3   OH223245   7.618   7.525   4.723
 7767TIP3    H123246   7.535   7.477   4.729
 7767TIP3    H223247   7.624   7.572   4.807
 7768TIP3   OH223248   5.082   1.205   4.959
 7768TIP3    H123249   5.133   1.251   4.893
 7768TIP3    H223250   5.019   1.269   4.990
 7769TIP3   OH223251   3.464   4.720   3.289
 7769TIP3    H123252   3.378   4.687   3.261
 7769TIP3    H223253   3.451   4.743   3.381
 7770TIP3   OH223254   1.075   4.378   0.946
 7770TIP3    H123255   1.147   4.328   0.983
 7770TIP3    H223256   1.085   4.466   0.983
 7771TIP3   OH223257   6.051   5.315   4.430
 7771TIP3    H123258   5.982   5.249   4.426
 7771TIP3    H223259   6.007   5.397   4.410
 7772TIP3   OH223260   2.689   4.904   3.647
 7772TIP3    H123261   2.750   4.831   3.653
 7772TIP3    H223262   2.666   4.923   3.738
 7773TIP3   OH223263   0.382   1.926   0.019
 7773TIP3    H123264   0.414   1.982  -0.052
 7773TIP3    H223265   0.308   1.975   0.056
 7774TIP3   OH223266   1.845   1.552   1.495
 7774TIP3    H123267   1.908   1.513   1.555
 7774TIP3    H223268   1.833   1.486   1.427
 7775TIP3   OH223269   5.999   2.562   2.851
 7775TIP3    H123270   5.971   2.575   2.760
 7775TIP3    H223271   6.047   2.641   2.873
 7776TIP3   OH223272   7.478   5.830   1.265
 7776TIP3    H123273   7.515   5.752   1.222
 7776TIP3    H223274   7.389   5.805   1.287
 7777TIP3   OH223275   2.555   6.304   5.860
 7777TIP3    H123276   2.516   6.343   5.782
 7777TIP3    H223277   2.481   6.281   5.916
 7778TIP3   OH223278   7.530   6.873   6.626
 7778TIP3    H123279   7.511   6.837   6.539
 7778TIP3    H223280   7.601   6.820   6.660
 7779TIP3   OH223281   4.544   2.070   3.636
 7779TIP3    H123282   4.478   2.017   3.593
 7779TIP3    H223283   4.509   2.086   3.724
 7780TIP3   OH223284   5.541   3.042   4.643
 7780TIP3    H123285   5.550   3.057   4.549
 7780TIP3    H223286   5.543   3.129   4.682
 7781TIP3   OH223287   6.941   0.453   3.547
 7781TIP3    H123288   6.933   0.515   3.475
 7781TIP3    H223289   6.865   0.395   3.536
 7782TIP3   OH223290   0.259   3.138   3.089
 7782TIP3    H123291   0.266   3.085   3.009
 7782TIP3    H223292   0.306   3.087   3.155
 7783TIP3   OH223293   7.374   5.973   0.137
 7783TIP3    H123294   7.293   5.935   0.170
 7783TIP3    H223295   7.424   5.995   0.216
 7784TIP3   OH223296   5.855   6.082   5.264
 7784TIP3    H123297   5.768   6.043   5.271
 7784TIP3    H223298   5.888   6.085   5.354
 7785TIP3   OH223299   7.694   1.920   0.900
 7785TIP3    H123300   7.657   1.835   0.927
 7785TIP3    H223301   7.735   1.954   0.980
 7786TIP3   OH223302   3.864   7.591   4.348
 7786TIP3    H123303   3.945   7.621   4.308
 7786TIP3    H223304   3.879   7.599   4.442
 7787TIP3   OH223305   3.937   6.236   5.870
 7787TIP3    H123306   4.010   6.193   5.826
 7787TIP3    H223307   3.968   6.249   5.960
 7788TIP3   OH223308   8.138   2.578   3.665
 7788TIP3    H123309   8.230   2.598   3.678
 7788TIP3    H223310   8.137   2.499   3.612
 7789TIP3   OH223311   2.918   6.478   1.282
 7789TIP3    H123312   2.928   6.425   1.203
 7789TIP3    H223313   3.000   6.528   1.288
 7790TIP3   OH223314   5.479   6.715   6.159
 7790TIP3    H123315   5.554   6.673   6.202
 7790TIP3    H223316   5.517   6.788   6.111
 7791TIP3   OH223317   3.816   4.557   4.132
 7791TIP3    H123318   3.908   4.533   4.146
 7791TIP3    H223319   3.783   4.491   4.071
 7792TIP3   OH223320   2.246   1.769   6.715
 7792TIP3    H123321   2.284   1.856   6.701
 7792TIP3    H223322   2.323   1.712   6.726
 7793TIP3   OH223323   3.611   5.766   1.932
 7793TIP3    H123324   3.582   5.851   1.897
 7793TIP3    H223325   3.624   5.782   2.025
 7794TIP3   OH223326   4.299   6.842   3.560
 7794TIP3    H123327   4.205   6.847   3.542
 7794TIP3    H223328   4.323   6.753   3.534
 7795TIP3   OH223329   3.566   6.662   1.569
 7795TIP3    H123330   3.646   6.692   1.526
 7795TIP3    H223331   3.499   6.666   1.501
 7796TIP3   OH223332   4.058   3.187   0.798
 7796TIP3    H123333   4.060   3.098   0.763
 7796TIP3    H223334   4.080   3.243   0.724
 7797TIP3   OH223335   7.472   6.905   4.496
 7797TIP3    H123336   7.418   6.977   4.462
 7797TIP3    H223337   7.477   6.920   4.590
 7798TIP3   OH223338   4.135   6.392   1.026
 7798TIP3    H123339   4.152   6.358   0.938
 7798TIP3    H223340   4.043   6.417   1.024
 7799TIP3   OH223341   7.711   2.538   0.574
 7799TIP3    H123342   7.694   2.591   0.497
 7799TIP3    H223343   7.669   2.454   0.555
 7800TIP3   OH223344   1.851   6.444   0.478
 7800TIP3    H123345   1.809   6.518   0.434
 7800TIP3    H223346   1.794   6.369   0.458
 7801TIP3   OH223347   5.642   7.575   2.554
 7801TIP3    H123348   5.558   7.612   2.584
 7801TIP3    H223349   5.642   7.590   2.460
 7802TIP3   OH223350   3.572   1.305   1.353
 7802TIP3    H123351   3.532   1.329   1.269
 7802TIP3    H223352   3.631   1.233   1.332
 7803TIP3   OH223353   4.764   7.437   2.204
 7803TIP3    H123354   4.678   7.467   2.235
 7803TIP3    H223355   4.763   7.455   2.110
 7804TIP3   OH223356   0.415   6.894   4.245
 7804TIP3    H123357   0.436   6.846   4.165
 7804TIP3    H223358   0.342   6.845   4.283
 7805TIP3   OH223359   6.802   0.703   5.101
 7805TIP3    H123360   6.798   0.688   5.006
 7805TIP3    H223361   6.775   0.620   5.139
 7806TIP3   OH223362   0.699   0.089   4.977
 7806TIP3    H123363   0.776   0.034   4.997
 7806TIP3    H223364   0.641   0.075   5.052
 7807TIP3   OH223365   4.205   6.694   1.752
 7807TIP3    H123366   4.209   6.759   1.822
 7807TIP3    H223367   4.112   6.692   1.726
 7808TIP3   OH223368   6.791   2.499   4.707
 7808TIP3    H123369   6.858   2.455   4.759
 7808TIP3    H223370   6.786   2.449   4.626
 7809TIP3   OH223371   0.198   5.705   0.592
 7809TIP3    H123372   0.286   5.724   0.625
 7809TIP3    H223373   0.167   5.633   0.647
 7810TIP3   OH223374   4.851   5.112   0.710
 7810TIP3    H123375   4.877   5.185   0.765
 7810TIP3    H223376   4.927   5.095   0.654
 7811TIP3   OH223377   6.096   0.101   0.570
 7811TIP3    H123378   6.005   0.115   0.544
 7811TIP3    H223379   6.119   0.017   0.531
 7812TIP3   OH223380   5.018   2.601   3.765
 7812TIP3    H123381   4.970   2.654   3.701
 7812TIP3    H223382   5.014   2.512   3.729
 7813TIP3   OH223383   5.213   4.469   1.871
 7813TIP3    H123384   5.127   4.484   1.830
 7813TIP3    H223385   5.252   4.398   1.820
 7814TIP3   OH223386   5.687   3.506   2.768
 7814TIP3    H123387   5.661   3.418   2.741
 7814TIP3    H223388   5.608   3.544   2.806
 7815TIP3   OH223389   1.734   0.461   0.165
 7815TIP3    H123390   1.644   0.442   0.138
 7815TIP3    H223391   1.788   0.405   0.109
 7816TIP3   OH223392   5.214   2.895   3.570
 7816TIP3    H123393   5.223   2.938   3.656
 7816TIP3    H223394   5.147   2.945   3.525
 7817TIP3   OH223395   6.579   1.276   2.116
 7817TIP3    H123396   6.666   1.276   2.075
 7817TIP3    H223397   6.594   1.243   2.204
 7818TIP3   OH223398   7.009   1.535   0.471
 7818TIP3    H123399   6.965   1.529   0.387
 7818TIP3    H223400   7.056   1.619   0.468
 7819TIP3   OH223401   6.572   7.619   5.141
 7819TIP3    H123402   6.529   7.658   5.065
 7819TIP3    H223403   6.501   7.576   5.188
 7820TIP3   OH223404   0.643   6.258   5.540
 7820TIP3    H123405   0.607   6.287   5.623
 7820TIP3    H223406   0.567   6.231   5.488
 7821TIP3   OH223407   1.084   1.007   5.455
 7821TIP3    H123408   1.112   0.935   5.399
 7821TIP3    H223409   1.128   1.084   5.419
 7822TIP3   OH223410   4.602   2.685   0.299
 7822TIP3    H123411   4.652   2.618   0.251
 7822TIP3    H223412   4.510   2.662   0.283
 7823TIP3   OH223413   0.374   2.578   1.142
 7823TIP3    H123414   0.298   2.538   1.100
 7823TIP3    H223415   0.422   2.505   1.181
 7824TIP3   OH223416   3.600   6.349   3.154
 7824TIP3    H123417   3.580   6.282   3.089
 7824TIP3    H223418   3.551   6.426   3.126
 7825TIP3   OH223419   6.233   5.252   6.223
 7825TIP3    H123420   6.248   5.245   6.129
 7825TIP3    H223421   6.220   5.345   6.239
 7826TIP3   OH223422   1.089   2.897   0.448
 7826TIP3    H123423   1.038   2.829   0.492
 7826TIP3    H223424   1.134   2.851   0.377
 7827TIP3   OH223425   8.008   5.379   2.963
 7827TIP3    H123426   8.018   5.287   2.937
 7827TIP3    H223427   7.939   5.413   2.906
 7828TIP3   OH223428   3.056   3.046   5.302
 7828TIP3    H123429   2.974   3.021   5.345
 7828TIP3    H223430   3.031   3.115   5.240
 7829TIP3   OH223431   8.175   4.456   3.432
 7829TIP3    H123432   8.221   4.508   3.367
 7829TIP3    H223433   8.082   4.475   3.418
 7830TIP3   OH223434   0.768   7.721   0.708
 7830TIP3    H123435   0.755   7.648   0.768
 7830TIP3    H223436   0.824   7.782   0.755
 7831TIP3   OH223437   4.190   6.235   0.797
 7831TIP3    H123438   4.243   6.190   0.862
 7831TIP3    H223439   4.253   6.275   0.737
 7832TIP3   OH223440   1.761   4.418   6.487
 7832TIP3    H123441   1.846   4.455   6.461
 7832TIP3    H223442   1.702   4.494   6.491
 7833TIP3   OH223443   5.679   2.504   5.941
 7833TIP3    H123444   5.595   2.499   5.895
 7833TIP3    H223445   5.722   2.421   5.922
 7834TIP3   OH223446   2.949   7.551   6.418
 7834TIP3    H123447   2.908   7.466   6.401
 7834TIP3    H223448   3.036   7.544   6.381
 7835TIP3   OH223449   5.717   2.112   4.626
 7835TIP3    H123450   5.670   2.076   4.550
 7835TIP3    H223451   5.780   2.044   4.649
 7836TIP3   OH223452   4.329   6.260   4.280
 7836TIP3    H123453   4.296   6.258   4.370
 7836TIP3    H223454   4.278   6.193   4.235
 7837TIP3   OH223455   1.084   2.851   4.255
 7837TIP3    H123456   1.118   2.928   4.301
 7837TIP3    H223457   1.062   2.883   4.168
 7838TIP3   OH223458   3.481   5.855   5.474
 7838TIP3    H123459   3.425   5.916   5.426
 7838TIP3    H223460   3.509   5.903   5.552
 7839TIP3   OH223461   1.079   0.681   4.177
 7839TIP3    H123462   1.024   0.641   4.245
 7839TIP3    H223463   1.018   0.698   4.105
 7840TIP3   OH223464   0.607   5.937   5.380
 7840TIP3    H123465   0.631   5.861   5.434
 7840TIP3    H223466   0.688   5.965   5.340
 7841TIP3   OH223467   1.309   1.862   4.116
 7841TIP3    H123468   1.257   1.928   4.070
 7841TIP3    H223469   1.269   1.858   4.203
 7842TIP3   OH223470   2.914   7.081   5.235
 7842TIP3    H123471   2.955   7.157   5.275
 7842TIP3    H223472   2.904   7.018   5.306
 7843TIP3   OH223473   6.198   3.347   2.992
 7843TIP3    H123474   6.210   3.288   3.066
 7843TIP3    H223475   6.184   3.288   2.917
 7844TIP3   OH223476   6.135   5.049   4.104
 7844TIP3    H123477   6.144   5.028   4.011
 7844TIP3    H223478   6.112   5.142   4.106
 7845TIP3   OH223479   5.513   1.527   1.248
 7845TIP3    H123480   5.508   1.600   1.310
 7845TIP3    H223481   5.439   1.541   1.189
 7846TIP3   OH223482   2.293   7.235   2.715
 7846TIP3    H123483   2.207   7.202   2.692
 7846TIP3    H223484   2.318   7.291   2.642
 7847TIP3   OH223485   3.581   2.797   4.998
 7847TIP3    H123486   3.545   2.723   5.046
 7847TIP3    H223487   3.505   2.836   4.954
 7848TIP3   OH223488   1.401   7.203   1.251
 7848TIP3    H123489   1.357   7.163   1.176
 7848TIP3    H223490   1.493   7.208   1.226
 7849TIP3   OH223491   1.817   2.120   2.830
 7849TIP3    H123492   1.736   2.115   2.880
 7849TIP3    H223493   1.863   2.196   2.865
 7850TIP3   OH223494   4.788   4.955   2.173
 7850TIP3    H123495   4.756   4.948   2.083
 7850TIP3    H223496   4.871   5.003   2.166
 7851TIP3   OH223497   2.510   2.710   1.143
 7851TIP3    H123498   2.565   2.755   1.078
 7851TIP3    H223499   2.569   2.650   1.188
 7852TIP3   OH223500   1.276   4.167   6.625
 7852TIP3    H123501   1.203   4.121   6.584
 7852TIP3    H223502   1.348   4.103   6.623
 7853TIP3   OH223503   2.342   2.915   1.724
 7853TIP3    H123504   2.301   2.954   1.647
 7853TIP3    H223505   2.368   2.827   1.695
 7854TIP3   OH223506   1.171   1.758   0.962
 7854TIP3    H123507   1.152   1.709   1.042
 7854TIP3    H223508   1.206   1.692   0.902
 7855TIP3   OH223509   1.238   0.557   5.140
 7855TIP3    H123510   1.266   0.473   5.175
 7855TIP3    H223511   1.155   0.539   5.096
 7856TIP3   OH223512   2.048   3.490   4.723
 7856TIP3    H123513   2.058   3.532   4.809
 7856TIP3    H223514   2.047   3.397   4.742
 7857TIP3   OH223515   2.892   0.985   3.641
 7857TIP3    H123516   2.802   0.998   3.611
 7857TIP3    H223517   2.885   0.924   3.713
 7858TIP3   OH223518   2.338   4.747   5.535
 7858TIP3    H123519   2.377   4.709   5.613
 7858TIP3    H223520   2.410   4.797   5.494
 7859TIP3   OH223521   6.707   3.040   1.220
 7859TIP3    H123522   6.771   3.086   1.165
 7859TIP3    H223523   6.688   2.960   1.171
 7860TIP3   OH223524   4.057   2.918   0.730
 7860TIP3    H123525   3.993   2.849   0.711
 7860TIP3    H223526   4.131   2.873   0.770
 7861TIP3   OH223527   2.713   6.092   5.761
 7861TIP3    H123528   2.648   6.150   5.800
 7861TIP3    H223529   2.774   6.151   5.715
 7862TIP3   OH223530   0.871   6.945   6.030
 7862TIP3    H123531   0.965   6.931   6.044
 7862TIP3    H223532   0.866   7.016   5.966
 7863TIP3   OH223533   4.658   5.650   1.617
 7863TIP3    H123534   4.645   5.711   1.545
 7863TIP3    H223535   4.614   5.570   1.589
 7864TIP3   OH223536   2.689   1.328   3.040
 7864TIP3    H123537   2.650   1.365   2.961
 7864TIP3    H223538   2.781   1.352   3.035
 7865TIP3   OH223539   6.836   1.235   2.027
 7865TIP3    H123540   6.848   1.141   2.013
 7865TIP3    H223541   6.916   1.275   1.992
 7866TIP3   OH223542   7.240   2.206   4.188
 7866TIP3    H123543   7.169   2.238   4.134
 7866TIP3    H223544   7.284   2.284   4.221
 7867TIP3   OH223545   2.101   4.549   0.342
 7867TIP3    H123546   2.179   4.580   0.297
 7867TIP3    H223547   2.043   4.519   0.272
 7868TIP3   OH223548   3.861   5.168   5.670
 7868TIP3    H123549   3.800   5.119   5.725
 7868TIP3    H223550   3.842   5.260   5.688
 7869TIP3   OH223551   4.757   1.199   0.021
 7869TIP3    H123552   4.763   1.107  -0.004
 7869TIP3    H223553   4.845   1.223   0.049
 7870TIP3   OH223554   3.493   4.073   0.733
 7870TIP3    H123555   3.577   4.105   0.767
 7870TIP3    H223556   3.460   4.145   0.680
 7871TIP3   OH223557   0.342   5.247   3.924
 7871TIP3    H123558   0.319   5.228   3.833
 7871TIP3    H223559   0.314   5.169   3.973
 7872TIP3   OH223560   4.401   0.580   1.297
 7872TIP3    H123561   4.497   0.578   1.293
 7872TIP3    H223562   4.373   0.529   1.221
 7873TIP3   OH223563   5.615   4.436   4.259
 7873TIP3    H123564   5.631   4.431   4.353
 7873TIP3    H223565   5.533   4.389   4.246
 7874TIP3   OH223566   7.281   7.645   0.393
 7874TIP3    H123567   7.319   7.646   0.305
 7874TIP3    H223568   7.312   7.563   0.431
 7875TIP3   OH223569   3.074   3.445   0.482
 7875TIP3    H123570   3.022   3.456   0.403
 7875TIP3    H223571   3.163   3.427   0.449
 7876TIP3   OH223572   0.510   7.063   4.878
 7876TIP3    H123573   0.570   6.993   4.851
 7876TIP3    H223574   0.565   7.128   4.921
 7877TIP3   OH223575   2.033   1.502   3.718
 7877TIP3    H123576   2.032   1.597   3.732
 7877TIP3    H223577   2.043   1.465   3.805
 7878TIP3   OH223578   7.397   3.940   0.583
 7878TIP3    H123579   7.422   3.994   0.508
 7878TIP3    H223580   7.342   3.997   0.637
 7879TIP3   OH223581   6.045   0.974   2.319
 7879TIP3    H123582   6.093   1.014   2.392
 7879TIP3    H223583   6.074   1.024   2.242
 7880TIP3   OH223584   4.671   5.255   4.189
 7880TIP3    H123585   4.635   5.190   4.128
 7880TIP3    H223586   4.618   5.333   4.175
 7881TIP3   OH223587   6.443   7.548   3.162
 7881TIP3    H123588   6.503   7.617   3.191
 7881TIP3    H223589   6.358   7.575   3.196
 7882TIP3   OH223590   3.649   0.386   5.558
 7882TIP3    H123591   3.736   0.377   5.518
 7882TIP3    H223592   3.608   0.456   5.508
 7883TIP3   OH223593   1.593   2.750   6.052
 7883TIP3    H123594   1.516   2.761   6.109
 7883TIP3    H223595   1.629   2.665   6.077
 7884TIP3   OH223596   2.181   3.787   5.237
 7884TIP3    H123597   2.231   3.822   5.164
 7884TIP3    H223598   2.103   3.748   5.198
 7885TIP3   OH223599   1.741   1.191   3.832
 7885TIP3    H123600   1.692   1.126   3.781
 7885TIP3    H223601   1.742   1.269   3.777
 7886TIP3   OH223602   8.109   2.595   4.349
 7886TIP3    H123603   8.087   2.592   4.442
 7886TIP3    H223604   8.190   2.647   4.345
 7887TIP3   OH223605   6.360   6.973   5.152
 7887TIP3    H123606   6.398   6.983   5.065
 7887TIP3    H223607   6.389   6.886   5.181
 7888TIP3   OH223608   5.803   7.512   5.966
 7888TIP3    H123609   5.852   7.430   5.973
 7888TIP3    H223610   5.716   7.486   5.935
 7889TIP3   OH223611   5.654   4.367   3.422
 7889TIP3    H123612   5.665   4.419   3.342
 7889TIP3    H223613   5.563   4.379   3.446
 7890TIP3   OH223614   3.104   5.582   5.392
 7890TIP3    H123615   3.116   5.557   5.484
 7890TIP3    H223616   3.177   5.541   5.346
 7891TIP3   OH223617   5.973   0.821   6.674
 7891TIP3    H123618   6.061   0.792   6.699
 7891TIP3    H223619   5.925   0.740   6.656
 7892TIP3   OH223620   1.467   7.198   2.756
 7892TIP3    H123621   1.416   7.278   2.769
 7892TIP3    H223622   1.429   7.135   2.818
 7893TIP3   OH223623   8.150   7.798   0.808
 7893TIP3    H123624   8.137   7.774   0.716
 7893TIP3    H223625   8.192   7.721   0.847
 7894TIP3   OH223626   0.374   0.567   4.372
 7894TIP3    H123627   0.452   0.560   4.317
 7894TIP3    H223628   0.365   0.480   4.412
 7895TIP3   OH223629   7.340   5.329   0.119
 7895TIP3    H123630   7.388   5.288   0.046
 7895TIP3    H223631   7.404   5.336   0.189
 7896TIP3   OH223632   7.804   3.171   4.591
 7896TIP3    H123633   7.886   3.166   4.541
 7896TIP3    H223634   7.741   3.121   4.539
 7897TIP3   OH223635   4.832   1.642   1.004
 7897TIP3    H123636   4.812   1.659   1.096
 7897TIP3    H223637   4.904   1.578   1.007
 7898TIP3   OH223638   5.623   3.665   5.383
 7898TIP3    H123639   5.627   3.710   5.468
 7898TIP3    H223640   5.556   3.598   5.394
 7899TIP3   OH223641   2.163   2.182   4.938
 7899TIP3    H123642   2.216   2.226   5.005
 7899TIP3    H223643   2.158   2.245   4.866
 7900TIP3   OH223644   7.898   5.129   0.410
 7900TIP3    H123645   7.954   5.051   0.419
 7900TIP3    H223646   7.829   5.101   0.349
 7901TIP3   OH223647   0.238   0.806   2.535
 7901TIP3    H123648   0.274   0.730   2.580
 7901TIP3    H223649   0.177   0.845   2.598
 7902TIP3   OH223650   3.652   0.355   2.563
 7902TIP3    H123651   3.617   0.415   2.628
 7902TIP3    H223652   3.713   0.300   2.612
 7903TIP3   OH223653   2.850   3.101   4.946
 7903TIP3    H123654   2.815   3.023   4.904
 7903TIP3    H223655   2.774   3.159   4.955
 7904TIP3   OH223656   0.044   0.319   3.924
 7904TIP3    H123657   0.079   0.259   3.858
 7904TIP3    H223658  -0.036   0.275   3.955
 7905TIP3   OH223659   5.657   2.533   1.478
 7905TIP3    H123660   5.746   2.546   1.444
 7905TIP3    H223661   5.617   2.472   1.416
 7906TIP3   OH223662   4.833   1.543   0.282
 7906TIP3    H123663   4.758   1.500   0.323
 7906TIP3    H223664   4.812   1.546   0.189
 7907TIP3   OH223665   8.201   0.524   1.455
 7907TIP3    H123666   8.193   0.607   1.408
 7907TIP3    H223667   8.128   0.524   1.517
 7908TIP3   OH223668   2.186   7.815   2.085
 7908TIP3    H123669   2.096   7.804   2.117
 7908TIP3    H223670   2.234   7.742   2.124
 7909TIP3   OH223671   2.391   4.608   5.257
 7909TIP3    H123672   2.379   4.576   5.346
 7909TIP3    H223673   2.323   4.675   5.246
 7910TIP3   OH223674   0.311   3.899   0.714
 7910TIP3    H123675   0.374   3.897   0.786
 7910TIP3    H223676   0.326   3.983   0.670
 7911TIP3   OH223677   4.252   7.569   6.471
 7911TIP3    H123678   4.211   7.640   6.520
 7911TIP3    H223679   4.324   7.540   6.528
 7912TIP3   OH223680   3.019   6.488   3.844
 7912TIP3    H123681   3.050   6.480   3.754
 7912TIP3    H223682   2.954   6.419   3.853
 7913TIP3   OH223683   6.227   3.600   3.202
 7913TIP3    H123684   6.224   3.693   3.224
 7913TIP3    H223685   6.156   3.561   3.255
 7914TIP3   OH223686   7.604   0.006   2.479
 7914TIP3    H123687   7.519   0.049   2.487
 7914TIP3    H223688   7.657   0.043   2.550
 7915TIP3   OH223689   0.124   1.523   6.548
 7915TIP3    H123690   0.209   1.524   6.592
 7915TIP3    H223691   0.127   1.446   6.491
 7916TIP3   OH223692   4.680   3.681   1.318
 7916TIP3    H123693   4.667   3.604   1.263
 7916TIP3    H223694   4.592   3.702   1.350
 7917TIP3   OH223695   4.223   4.497   1.652
 7917TIP3    H123696   4.285   4.569   1.663
 7917TIP3    H223697   4.276   4.418   1.658
 7918TIP3   OH223698   5.642   7.443   6.593
 7918TIP3    H123699   5.658   7.522   6.541
 7918TIP3    H223700   5.582   7.471   6.662
 7919TIP3   OH223701   2.931   3.616   4.700
 7919TIP3    H123702   3.016   3.582   4.670
 7919TIP3    H223703   2.894   3.658   4.623
 7920TIP3   OH223704   2.533   0.238   2.574
 7920TIP3    H123705   2.618   0.267   2.540
 7920TIP3    H223706   2.544   0.144   2.589
 7921TIP3   OH223707   4.011   6.784   5.101
 7921TIP3    H123708   3.922   6.758   5.080
 7921TIP3    H223709   4.030   6.854   5.039
 7922TIP3   OH223710   5.763   1.060   1.572
 7922TIP3    H123711   5.737   0.980   1.619
 7922TIP3    H223712   5.684   1.114   1.571
 7923TIP3   OH223713   5.143   7.505   2.032
 7923TIP3    H123714   5.180   7.476   1.948
 7923TIP3    H223715   5.049   7.489   2.023
 7924TIP3   OH223716   2.225   7.004   6.006
 7924TIP3    H123717   2.180   7.087   6.023
 7924TIP3    H223718   2.154   6.942   5.989
 7925TIP3   OH223719   7.869   0.217   1.864
 7925TIP3    H123720   7.776   0.216   1.886
 7925TIP3    H223721   7.898   0.126   1.875
 7926TIP3   OH223722   7.910   3.990   5.390
 7926TIP3    H123723   7.835   4.049   5.394
 7926TIP3    H223724   7.987   4.047   5.395
 7927TIP3   OH223725   1.800   7.829   3.153
 7927TIP3    H123726   1.834   7.810   3.240
 7927TIP3    H223727   1.829   7.755   3.099
 7928TIP3   OH223728   6.179   4.469   6.780
 7928TIP3    H123729   6.203   4.389   6.827
 7928TIP3    H223730   6.178   4.443   6.688
 7929TIP3   OH223731   1.294   7.122   2.508
 7929TIP3    H123732   1.325   7.191   2.450
 7929TIP3    H223733   1.272   7.167   2.590
 7930TIP3   OH223734   1.148   0.414   6.458
 7930TIP3    H123735   1.116   0.504   6.455
 7930TIP3    H223736   1.082   0.363   6.411
 7931TIP3   OH223737   7.784   7.332   3.759
 7931TIP3    H123738   7.698   7.340   3.800
 7931TIP3    H223739   7.781   7.249   3.711
 7932TIP3   OH223740   6.167   6.048   6.300
 7932TIP3    H123741   6.088   6.070   6.349
 7932TIP3    H223742   6.176   6.118   6.236
 7933TIP3   OH223743   5.965   6.770   4.265
 7933TIP3    H123744   6.007   6.856   4.263
 7933TIP3    H223745   6.025   6.713   4.216
 7934TIP3   OH223746   2.680   7.071   1.608
 7934TIP3    H123747   2.644   6.989   1.642
 7934TIP3    H223748   2.755   7.044   1.555
 7935TIP3   OH223749   1.696   3.565   4.080
 7935TIP3    H123750   1.643   3.606   4.012
 7935TIP3    H223751   1.665   3.474   4.082
 7936TIP3   OH223752   6.420   6.331   5.532
 7936TIP3    H123753   6.342   6.277   5.534
 7936TIP3    H223754   6.483   6.285   5.587
 7937TIP3   OH223755   7.811   6.781   5.813
 7937TIP3    H123756   7.773   6.807   5.729
 7937TIP3    H223757   7.904   6.772   5.796
 7938TIP3   OH223758   7.502   7.680   6.448
 7938TIP3    H123759   7.493   7.609   6.511
 7938TIP3    H223760   7.593   7.710   6.459
 7939TIP3   OH223761   4.360   7.409   2.683
 7939TIP3    H123762   4.270   7.437   2.698
 7939TIP3    H223763   4.413   7.487   2.699
 7940TIP3   OH223764   4.501   1.949   6.409
 7940TIP3    H123765   4.480   1.857   6.394
 7940TIP3    H223766   4.558   1.948   6.486
 7941TIP3   OH223767   8.151   6.189   3.269
 7941TIP3    H123768   8.208   6.175   3.193
 7941TIP3    H223769   8.192   6.261   3.317
 7942TIP3   OH223770   1.849   0.881   2.052
 7942TIP3    H123771   1.832   0.916   1.964
 7942TIP3    H223772   1.864   0.787   2.037
 7943TIP3   OH223773   6.899   5.156   4.623
 7943TIP3    H123774   6.970   5.203   4.579
 7943TIP3    H223775   6.819   5.196   4.589
 7944TIP3   OH223776   6.755   5.120   3.792
 7944TIP3    H123777   6.779   5.139   3.883
 7944TIP3    H223778   6.797   5.037   3.773
 7945TIP3   OH223779   4.999   6.099   1.249
 7945TIP3    H123780   5.040   6.041   1.314
 7945TIP3    H223781   4.950   6.040   1.191
 7946TIP3   OH223782   5.929   3.445   3.814
 7946TIP3    H123783   5.986   3.518   3.839
 7946TIP3    H223784   5.903   3.405   3.897
 7947TIP3   OH223785   2.017   6.387   4.275
 7947TIP3    H123786   2.004   6.360   4.366
 7947TIP3    H223787   2.108   6.363   4.255
 7948TIP3   OH223788   2.066   5.757   1.726
 7948TIP3    H123789   2.137   5.820   1.739
 7948TIP3    H223790   2.001   5.805   1.674
 7949TIP3   OH223791   0.661   5.966   4.279
 7949TIP3    H123792   0.622   6.023   4.212
 7949TIP3    H223793   0.628   6.001   4.362
 7950TIP3   OH223794   1.268   5.329   4.016
 7950TIP3    H123795   1.222   5.330   4.099
 7950TIP3    H223796   1.262   5.420   3.985
 7951TIP3   OH223797   0.385   2.831   6.140
 7951TIP3    H123798   0.318   2.897   6.159
 7951TIP3    H223799   0.434   2.822   6.222
 7952TIP3   OH223800   0.136   5.537   6.216
 7952TIP3    H123801   0.227   5.506   6.216
 7952TIP3    H223802   0.117   5.555   6.124
 7953TIP3   OH223803   6.714   5.377   0.466
 7953TIP3    H123804   6.712   5.354   0.373
 7953TIP3    H223805   6.635   5.338   0.502
 7954TIP3   OH223806   4.548   1.107   5.241
 7954TIP3    H123807   4.638   1.138   5.245
 7954TIP3    H223808   4.550   1.033   5.180
 7955TIP3   OH223809   6.435   0.798   4.305
 7955TIP3    H123810   6.471   0.757   4.226
 7955TIP3    H223811   6.426   0.726   4.367
 7956TIP3   OH223812   2.759   3.642   2.159
 7956TIP3    H123813   2.820   3.716   2.155
 7956TIP3    H223814   2.772   3.605   2.246
 7957TIP3   OH223815   3.597   3.769   6.618
 7957TIP3    H123816   3.636   3.750   6.704
 7957TIP3    H223817   3.635   3.853   6.592
 7958TIP3   OH223818   6.300   1.995   0.400
 7958TIP3    H123819   6.303   1.907   0.363
 7958TIP3    H223820   6.217   2.031   0.370
 7959TIP3   OH223821   7.935   1.725   4.681
 7959TIP3    H123822   7.892   1.808   4.703
 7959TIP3    H223823   7.867   1.659   4.696
 7960TIP3   OH223824   2.122   6.318   3.342
 7960TIP3    H123825   2.201   6.368   3.363
 7960TIP3    H223826   2.148   6.227   3.356
 7961TIP3   OH223827   0.700   5.438   4.423
 7961TIP3    H123828   0.766   5.487   4.374
 7961TIP3    H223829   0.654   5.505   4.474
 7962TIP3   OH223830   8.092   4.359   0.278
 7962TIP3    H123831   8.023   4.325   0.221
 7962TIP3    H223832   8.047   4.421   0.336
 7963TIP3   OH223833   0.053   4.231   1.046
 7963TIP3    H123834   0.032   4.161   1.108
 7963TIP3    H223835   0.011   4.309   1.083
 7964TIP3   OH223836   2.309   6.236   2.056
 7964TIP3    H123837   2.220   6.203   2.041
 7964TIP3    H223838   2.318   6.236   2.151
 7965TIP3   OH223839   5.657   3.683   3.373
 7965TIP3    H123840   5.729   3.746   3.378
 7965TIP3    H223841   5.641   3.672   3.279
 7966TIP3   OH223842   7.332   4.642   0.019
 7966TIP3    H123843   7.355   4.639   0.112
 7966TIP3    H223844   7.416   4.635  -0.026
 7967TIP3   OH223845   4.042   7.093   6.161
 7967TIP3    H123846   4.104   7.103   6.233
 7967TIP3    H223847   4.041   7.178   6.118
 7968TIP3   OH223848   0.781   2.250   4.765
 7968TIP3    H123849   0.703   2.260   4.820
 7968TIP3    H223850   0.838   2.323   4.789
 7969TIP3   OH223851   5.603   6.542   5.928
 7969TIP3    H123852   5.551   6.499   5.996
 7969TIP3    H223853   5.659   6.602   5.976
 7970TIP3   OH223854   4.412   0.890   4.410
 7970TIP3    H123855   4.454   0.893   4.324
 7970TIP3    H223856   4.345   0.958   4.407
 7971TIP3   OH223857   3.975   1.113   0.341
 7971TIP3    H123858   4.025   1.086   0.264
 7971TIP3    H223859   3.989   1.208   0.346
 7972TIP3   OH223860   1.816   6.007   0.912
 7972TIP3    H123861   1.903   6.032   0.882
 7972TIP3    H223862   1.802   5.920   0.876
 7973TIP3   OH223863   3.225   7.319   1.642
 7973TIP3    H123864   3.293   7.289   1.702
 7973TIP3    H223865   3.197   7.241   1.595
 7974TIP3   OH223866   0.316   6.873   5.518
 7974TIP3    H123867   0.395   6.823   5.496
 7974TIP3    H223868   0.319   6.949   5.460
 7975TIP3   OH223869   7.803   0.387   6.534
 7975TIP3    H123870   7.787   0.293   6.529
 7975TIP3    H223871   7.721   0.427   6.505
 7976TIP3   OH223872   4.619   2.542   5.481
 7976TIP3    H123873   4.689   2.481   5.504
 7976TIP3    H223874   4.597   2.586   5.563
 7977TIP3   OH223875   7.896   5.065   3.202
 7977TIP3    H123876   7.877   5.073   3.295
 7977TIP3    H223877   7.981   5.108   3.191
 7978TIP3   OH223878   5.960   1.582   4.173
 7978TIP3    H123879   5.868   1.557   4.178
 7978TIP3    H223880   5.982   1.575   4.080
 7979TIP3   OH223881   6.413   2.184   2.720
 7979TIP3    H123882   6.342   2.147   2.772
 7979TIP3    H223883   6.426   2.122   2.649
 7980TIP3   OH223884   2.117   7.403   6.752
 7980TIP3    H123885   2.118   7.432   6.660
 7980TIP3    H223886   2.205   7.420   6.783
 7981TIP3   OH223887   6.139   2.119   3.403
 7981TIP3    H123888   6.131   2.210   3.432
 7981TIP3    H223889   6.125   2.123   3.308
 7982TIP3   OH223890   7.998   2.207   5.151
 7982TIP3    H123891   8.059   2.254   5.095
 7982TIP3    H223892   7.975   2.269   5.220
 7983TIP3   OH223893   7.373   5.439   5.214
 7983TIP3    H123894   7.429   5.459   5.139
 7983TIP3    H223895   7.292   5.486   5.197
 7984TIP3   OH223896   6.037   6.664   4.580
 7984TIP3    H123897   6.077   6.646   4.665
 7984TIP3    H223898   6.106   6.642   4.517
 7985TIP3   OH223899   3.154   0.133   3.070
 7985TIP3    H123900   3.105   0.077   3.130
 7985TIP3    H223901   3.149   0.087   2.986
 7986TIP3   OH223902   0.598   3.860   1.656
 7986TIP3    H123903   0.603   3.832   1.747
 7986TIP3    H223904   0.505   3.856   1.634
 7987TIP3   OH223905   5.572   1.564   0.600
 7987TIP3    H123906   5.539   1.533   0.684
 7987TIP3    H223907   5.590   1.657   0.614
 7988TIP3   OH223908   3.678   2.534   5.365
 7988TIP3    H123909   3.769   2.559   5.350
 7988TIP3    H223910   3.627   2.607   5.330
 7989TIP3   OH223911   0.147   3.423   4.251
 7989TIP3    H123912   0.236   3.393   4.230
 7989TIP3    H223913   0.128   3.489   4.185
 7990TIP3   OH223914   3.054   2.899   0.945
 7990TIP3    H123915   3.077   2.982   0.904
 7990TIP3    H223916   3.076   2.833   0.879
 7991TIP3   OH223917   7.990   6.472   5.739
 7991TIP3    H123918   7.947   6.557   5.730
 7991TIP3    H223919   8.077   6.493   5.772
 7992TIP3   OH223920   2.469   3.729   5.592
 7992TIP3    H123921   2.439   3.719   5.683
 7992TIP3    H223922   2.437   3.650   5.548
 7993TIP3   OH223923   2.226   4.044   3.160
 7993TIP3    H123924   2.132   4.052   3.172
 7993TIP3    H223925   2.243   4.092   3.079
 7994TIP3   OH223926   5.323   4.027   6.725
 7994TIP3    H123927   5.240   4.074   6.717
 7994TIP3    H223928   5.345   4.033   6.818
 7995TIP3   OH223929   0.031   4.627   1.498
 7995TIP3    H123930   0.025   4.549   1.443
 7995TIP3    H223931   0.049   4.698   1.436
 7996TIP3   OH223932   4.876   3.273   2.971
 7996TIP3    H123933   4.817   3.253   3.043
 7996TIP3    H223934   4.946   3.325   3.010
 7997TIP3   OH223935   1.623   2.812   2.708
 7997TIP3    H123936   1.584   2.840   2.790
 7997TIP3    H223937   1.624   2.890   2.653
 7998TIP3   OH223938   1.955   1.622   4.623
 7998TIP3    H123939   2.021   1.604   4.556
 7998TIP3    H223940   1.969   1.555   4.689
 7999TIP3   OH223941   5.065   3.737   2.346
 7999TIP3    H123942   4.976   3.706   2.329
 7999TIP3    H223943   5.055   3.804   2.414
 8000TIP3   OH223944   3.423   7.334   3.830
 8000TIP3    H123945   3.406   7.428   3.825
 8000TIP3    H223946   3.510   7.327   3.868
 8001TIP3   OH223947   1.357   2.713   2.438
 8001TIP3    H123948   1.264   2.724   2.457
 8001TIP3    H223949   1.372   2.619   2.443
 8002TIP3   OH223950   4.501   3.580   2.016
 8002TIP3    H123951   4.535   3.499   1.978
 8002TIP3    H223952   4.411   3.586   1.982
 8003TIP3   OH223953   2.286   1.259   0.785
 8003TIP3    H123954   2.200   1.250   0.825
 8003TIP3    H223955   2.309   1.171   0.755
 8004TIP3   OH223956   0.019   3.644   0.359
 8004TIP3    H123957   0.089   3.624   0.296
 8004TIP3    H223958  -0.054   3.675   0.305
 8005TIP3   OH223959   4.758   0.656   3.856
 8005TIP3    H123960   4.800   0.573   3.833
 8005TIP3    H223961   4.830   0.714   3.880
 8006TIP3   OH223962   0.057   7.153   2.906
 8006TIP3    H123963  -0.018   7.143   2.964
 8006TIP3    H223964   0.105   7.071   2.914
 8007TIP3   OH223965   6.841   7.466   4.506
 8007TIP3    H123966   6.799   7.405   4.566
 8007TIP3    H223967   6.854   7.546   4.558
 8008TIP3   OH223968   5.992   2.549   0.629
 8008TIP3    H123969   6.072   2.499   0.646
 8008TIP3    H223970   5.979   2.541   0.534
 8009TIP3   OH223971   5.736   0.074   1.450
 8009TIP3    H123972   5.740   0.061   1.545
 8009TIP3    H223973   5.659   0.024   1.423
 8010TIP3   OH223974   4.538   7.154   3.120
 8010TIP3    H123975   4.501   7.227   3.169
 8010TIP3    H223976   4.553   7.189   3.032
 8011TIP3   OH223977   6.497   4.527   4.950
 8011TIP3    H123978   6.546   4.465   4.896
 8011TIP3    H223979   6.541   4.611   4.937
 8012TIP3   OH223980   1.859   6.780   1.323
 8012TIP3    H123981   1.766   6.795   1.308
 8012TIP3    H223982   1.891   6.741   1.241
 8013TIP3   OH223983   0.659   6.781   1.881
 8013TIP3    H123984   0.714   6.778   1.803
 8013TIP3    H223985   0.657   6.691   1.914
 8014TIP3   OH223986   6.901   6.094   4.237
 8014TIP3    H123987   6.895   6.189   4.237
 8014TIP3    H223988   6.838   6.066   4.170
 8015TIP3   OH223989   7.958   2.638   0.900
 8015TIP3    H123990   7.874   2.682   0.911
 8015TIP3    H223991   7.983   2.609   0.988
 8016TIP3   OH223992   4.209   3.675   0.965
 8016TIP3    H123993   4.131   3.687   0.910
 8016TIP3    H223994   4.262   3.612   0.917
 8017TIP3   OH223995   5.410   6.179   0.620
 8017TIP3    H123996   5.500   6.197   0.647
 8017TIP3    H223997   5.400   6.084   0.631
 8018TIP3   OH223998   6.291   4.877   2.024
 8018TIP3    H123999   6.362   4.848   1.967
 8018TIP3    H224000   6.294   4.817   2.098
 8019TIP3   OH224001   0.729   5.470   5.111
 8019TIP3    H124002   0.731   5.384   5.155
 8019TIP3    H224003   0.790   5.460   5.038
 8020TIP3   OH224004   4.142   3.696   6.188
 8020TIP3    H124005   4.051   3.699   6.160
 8020TIP3    H224006   4.153   3.774   6.242
 8021TIP3   OH224007   2.515   1.490   4.671
 8021TIP3    H124008   2.561   1.569   4.699
 8021TIP3    H224009   2.543   1.476   4.581
 8022TIP3   OH224010   3.693   1.577   5.015
 8022TIP3    H124011   3.758   1.507   5.008
 8022TIP3    H224012   3.646   1.574   4.931
 8023TIP3   OH224013   6.680   4.991   2.220
 8023TIP3    H124014   6.636   5.048   2.283
 8023TIP3    H224015   6.680   4.905   2.262
 8024TIP3   OH224016   0.270   2.244   6.649
 8024TIP3    H124017   0.337   2.263   6.583
 8024TIP3    H224018   0.188   2.272   6.608
 8025TIP3   OH224019   1.754   0.239   6.304
 8025TIP3    H124020   1.740   0.149   6.334
 8025TIP3    H224021   1.849   0.246   6.291
 8026TIP3   OH224022   2.304   4.353   2.247
 8026TIP3    H124023   2.214   4.345   2.217
 8026TIP3    H224024   2.312   4.288   2.317
 8027TIP3   OH224025   7.709   4.782   4.363
 8027TIP3    H124026   7.789   4.739   4.332
 8027TIP3    H224027   7.732   4.816   4.449
 8028TIP3   OH224028   2.919   6.902   5.432
 8028TIP3    H124029   3.007   6.866   5.438
 8028TIP3    H224030   2.874   6.869   5.510
 8029TIP3   OH224031   5.984   6.077   0.658
 8029TIP3    H124032   6.027   6.138   0.718
 8029TIP3    H224033   6.055   6.043   0.604
 8030TIP3   OH224034   6.693   1.089   4.928
 8030TIP3    H124035   6.729   1.137   5.002
 8030TIP3    H224036   6.626   1.032   4.967
 8031TIP3   OH224037   4.900   5.804   0.421
 8031TIP3    H124038   4.977   5.856   0.401
 8031TIP3    H224039   4.893   5.806   0.517
 8032TIP3   OH224040   2.444   5.461   0.078
 8032TIP3    H124041   2.401   5.526   0.134
 8032TIP3    H224042   2.452   5.384   0.134
 8033TIP3   OH224043   7.344   7.571   4.268
 8033TIP3    H124044   7.319   7.662   4.284
 8033TIP3    H224045   7.294   7.520   4.331
 8034TIP3   OH224046   1.727   6.608   5.886
 8034TIP3    H124047   1.747   6.649   5.971
 8034TIP3    H224048   1.764   6.668   5.821
 8035TIP3   OH224049   8.030   4.652   0.699
 8035TIP3    H124050   7.977   4.715   0.749
 8035TIP3    H224051   8.058   4.588   0.765
 8036TIP3   OH224052   4.516   3.216   6.619
 8036TIP3    H124053   4.462   3.260   6.553
 8036TIP3    H224054   4.577   3.163   6.568
 8037TIP3   OH224055   3.964   0.689   5.632
 8037TIP3    H124056   3.926   0.710   5.718
 8037TIP3    H224057   3.986   0.596   5.639
 8038TIP3   OH224058   3.234   3.801   2.330
 8038TIP3    H124059   3.289   3.733   2.293
 8038TIP3    H224060   3.270   3.883   2.295
 8039TIP3   OH224061   7.456   1.393   3.788
 8039TIP3    H124062   7.415   1.343   3.859
 8039TIP3    H224063   7.548   1.366   3.791
 8040TIP3   OH224064   5.262   0.400   1.885
 8040TIP3    H124065   5.325   0.453   1.932
 8040TIP3    H224066   5.301   0.312   1.882
 8041TIP3   OH224067   0.039   2.962   4.983
 8041TIP3    H124068   0.053   2.954   5.078
 8041TIP3    H224069   0.106   3.024   4.955
 8042TIP3   OH224070   1.020   0.578   2.923
 8042TIP3    H124071   0.930   0.592   2.954
 8042TIP3    H224072   1.075   0.618   2.990
 8043TIP3   OH224073   0.893   0.134   5.681
 8043TIP3    H124074   0.799   0.140   5.663
 8043TIP3    H224075   0.920   0.051   5.642
 8044TIP3   OH224076   2.657   2.644   0.037
 8044TIP3    H124077   2.746   2.610   0.047
 8044TIP3    H224078   2.611   2.616   0.116
 8045TIP3   OH224079   8.220   4.504   1.718
 8045TIP3    H124080   8.210   4.411   1.699
 8045TIP3    H224081   8.231   4.545   1.632
 8046TIP3   OH224082   1.357   5.210   5.070
 8046TIP3    H124083   1.309   5.157   5.134
 8046TIP3    H224084   1.428   5.153   5.041
 8047TIP3   OH224085   5.968   2.597   4.571
 8047TIP3    H124086   5.923   2.609   4.488
 8047TIP3    H224087   5.934   2.514   4.606
 8048TIP3   OH224088   8.254   2.031   0.337
 8048TIP3    H124089   8.195   2.059   0.407
 8048TIP3    H224090   8.198   1.986   0.274
 8049TIP3   OH224091   1.692   7.803   1.851
 8049TIP3    H124092   1.646   7.719   1.859
 8049TIP3    H224093   1.692   7.822   1.757
 8050TIP3   OH224094   0.078   4.689   5.507
 8050TIP3    H124095   0.076   4.594   5.522
 8050TIP3    H224096   0.137   4.722   5.575
 8051TIP3   OH224097   4.508   2.871   0.889
 8051TIP3    H124098   4.587   2.919   0.914
 8051TIP3    H224099   4.496   2.807   0.960
 8052TIP3   OH224100   2.741   2.484   0.794
 8052TIP3    H124101   2.690   2.461   0.871
 8052TIP3    H224102   2.826   2.444   0.808
 8053TIP3   OH224103   3.705   6.330   6.153
 8053TIP3    H124104   3.665   6.245   6.168
 8053TIP3    H224105   3.799   6.311   6.145
 8054TIP3   OH224106   4.565   5.605   3.814
 8054TIP3    H124107   4.571   5.688   3.767
 8054TIP3    H224108   4.478   5.607   3.855
 8055TIP3   OH224109   0.892   6.540   2.787
 8055TIP3    H124110   0.836   6.467   2.762
 8055TIP3    H224111   0.866   6.611   2.729
 8056TIP3   OH224112   4.465   0.508   5.354
 8056TIP3    H124113   4.492   0.479   5.267
 8056TIP3    H224114   4.542   0.497   5.409
 8057TIP3   OH224115   6.605   3.049   2.369
 8057TIP3    H124116   6.592   3.103   2.291
 8057TIP3    H224117   6.664   2.980   2.341
 8058TIP3   OH224118   2.710   1.242   0.537
 8058TIP3    H124119   2.794   1.221   0.496
 8058TIP3    H224120   2.668   1.304   0.477
 8059TIP3   OH224121   7.720   6.669   4.469
 8059TIP3    H124122   7.806   6.627   4.466
 8059TIP3    H224123   7.703   6.681   4.563
 8060TIP3   OH224124   4.919   4.314   4.982
 8060TIP3    H124125   4.935   4.298   5.075
 8060TIP3    H224126   4.906   4.227   4.945
 8061TIP3   OH224127   4.784   5.055   3.139
 8061TIP3    H124128   4.763   4.990   3.206
 8061TIP3    H224129   4.710   5.051   3.078
 8062TIP3   OH224130   4.926   3.485   1.225
 8062TIP3    H124131   4.892   3.488   1.136
 8062TIP3    H224132   4.883   3.408   1.264
 8063TIP3   OH224133   5.397   3.271   5.778
 8063TIP3    H124134   5.323   3.285   5.837
 8063TIP3    H224135   5.374   3.318   5.698
 8064TIP3   OH224136   5.838   0.488   2.371
 8064TIP3    H124137   5.861   0.581   2.364
 8064TIP3    H224138   5.822   0.475   2.465
 8065TIP3   OH224139   1.384   6.268   6.144
 8065TIP3    H124140   1.403   6.313   6.225
 8065TIP3    H224141   1.424   6.322   6.076
 8066TIP3   OH224142   6.403   6.293   1.135
 8066TIP3    H124143   6.465   6.233   1.094
 8066TIP3    H224144   6.405   6.371   1.079
 8067TIP3   OH224145   2.507   3.467   4.236
 8067TIP3    H124146   2.420   3.496   4.264
 8067TIP3    H224147   2.564   3.541   4.253
 8068TIP3   OH224148   7.892   2.036   6.043
 8068TIP3    H124149   7.973   2.050   6.092
 8068TIP3    H224150   7.825   2.081   6.095
 8069TIP3   OH224151   6.680   0.247   3.937
 8069TIP3    H124152   6.740   0.251   4.011
 8069TIP3    H224153   6.706   0.167   3.890
 8070TIP3   OH224154   2.894   2.688   3.660
 8070TIP3    H124155   2.928   2.681   3.748
 8070TIP3    H224156   2.966   2.662   3.603
 8071TIP3   OH224157   1.487   6.215   3.581
 8071TIP3    H124158   1.427   6.142   3.593
 8071TIP3    H224159   1.474   6.269   3.658
 8072TIP3   OH224160   1.797   3.453   3.708
 8072TIP3    H124161   1.834   3.368   3.686
 8072TIP3    H224162   1.861   3.516   3.673
 8073TIP3   OH224163   1.369   6.347   2.875
 8073TIP3    H124164   1.445   6.324   2.929
 8073TIP3    H224165   1.303   6.376   2.938
 8074TIP3   OH224166   0.065   2.464   4.238
 8074TIP3    H124167  -0.014   2.477   4.290
 8074TIP3    H224168   0.069   2.369   4.224
 8075TIP3   OH224169   5.290   0.730   6.320
 8075TIP3    H124170   5.286   0.644   6.279
 8075TIP3    H224171   5.281   0.712   6.414
 8076TIP3   OH224172   3.702   1.350   3.624
 8076TIP3    H124173   3.747   1.293   3.687
 8076TIP3    H224174   3.718   1.309   3.539
 8077TIP3   OH224175   6.350   4.986   5.501
 8077TIP3    H124176   6.324   4.899   5.473
 8077TIP3    H224177   6.276   5.043   5.476
 8078TIP3   OH224178   6.516   5.006   4.135
 8078TIP3    H124179   6.433   4.970   4.165
 8078TIP3    H224180   6.572   5.006   4.212
 8079TIP3   OH224181   4.503   3.260   5.029
 8079TIP3    H124182   4.452   3.237   5.107
 8079TIP3    H224183   4.553   3.181   5.008
 8080TIP3   OH224184   2.882   5.312   1.031
 8080TIP3    H124185   2.807   5.252   1.040
 8080TIP3    H224186   2.958   5.255   1.037
 8081TIP3   OH224187   1.685   5.428   5.552
 8081TIP3    H124188   1.623   5.378   5.605
 8081TIP3    H224189   1.646   5.516   5.547
 8082TIP3   OH224190   3.222   6.758   6.739
 8082TIP3    H124191   3.282   6.771   6.812
 8082TIP3    H224192   3.265   6.801   6.665
 8083TIP3   OH224193   3.791   1.502   0.362
 8083TIP3    H124194   3.713   1.521   0.311
 8083TIP3    H224195   3.864   1.512   0.301
 8084TIP3   OH224196   2.343   5.222   5.216
 8084TIP3    H124197   2.288   5.260   5.148
 8084TIP3    H224198   2.424   5.273   5.214
 8085TIP3   OH224199   8.202   0.203   5.051
 8085TIP3    H124200   8.224   0.205   4.957
 8085TIP3    H224201   8.205   0.295   5.078
 8086TIP3   OH224202   2.249   3.027   1.030
 8086TIP3    H124203   2.298   3.052   1.109
 8086TIP3    H224204   2.279   2.939   1.010
 8087TIP3   OH224205   3.440   3.143   2.458
 8087TIP3    H124206   3.518   3.177   2.503
 8087TIP3    H224207   3.371   3.148   2.524
 8088TIP3   OH224208   6.267   2.332   3.907
 8088TIP3    H124209   6.338   2.394   3.892
 8088TIP3    H224210   6.285   2.259   3.848
 8089TIP3   OH224211   3.120   0.941   1.461
 8089TIP3    H124212   3.103   0.993   1.383
 8089TIP3    H224213   3.215   0.945   1.474
 8090TIP3   OH224214   5.956   7.795   1.744
 8090TIP3    H124215   5.967   7.702   1.765
 8090TIP3    H224216   6.016   7.840   1.804
 8091TIP3   OH224217   7.478   7.414   6.553
 8091TIP3    H124218   7.428   7.391   6.475
 8091TIP3    H224219   7.525   7.334   6.576
 8092TIP3   OH224220   6.113   6.260   1.039
 8092TIP3    H124221   6.169   6.306   1.101
 8092TIP3    H224222   6.033   6.241   1.088
 8093TIP3   OH224223   2.040   6.360   4.543
 8093TIP3    H124224   1.974   6.365   4.612
 8093TIP3    H224225   2.117   6.323   4.585
 8094TIP3   OH224226   0.890   5.296   5.271
 8094TIP3    H124227   0.829   5.259   5.335
 8094TIP3    H224228   0.970   5.310   5.321
 8095TIP3   OH224229   4.651   2.447   0.555
 8095TIP3    H124230   4.744   2.450   0.531
 8095TIP3    H224231   4.630   2.354   0.559
 8096TIP3   OH224232   2.747   1.524   0.200
 8096TIP3    H124233   2.698   1.482   0.270
 8096TIP3    H224234   2.698   1.505   0.121
 8097TIP3   OH224235   4.620   2.022   1.961
 8097TIP3    H124236   4.716   2.020   1.960
 8097TIP3    H224237   4.599   2.105   2.005
 8098TIP3   OH224238   3.903   2.067   4.272
 8098TIP3    H124239   3.992   2.034   4.263
 8098TIP3    H224240   3.911   2.161   4.260
 8099TIP3   OH224241   5.005   2.225   2.109
 8099TIP3    H124242   5.038   2.285   2.043
 8099TIP3    H224243   4.970   2.151   2.059
 8100TIP3   OH224244   3.539   6.546   1.288
 8100TIP3    H124245   3.635   6.546   1.284
 8100TIP3    H224246   3.514   6.464   1.245
 8101TIP3   OH224247   2.658   7.386   1.335
 8101TIP3    H124248   2.614   7.390   1.420
 8101TIP3    H224249   2.594   7.421   1.273
 8102TIP3   OH224250   2.640   2.162   5.285
 8102TIP3    H124251   2.545   2.148   5.276
 8102TIP3    H224252   2.650   2.200   5.373
 8103TIP3   OH224253   5.901   6.875   5.972
 8103TIP3    H124254   5.984   6.917   5.991
 8103TIP3    H224255   5.861   6.929   5.904
 8104TIP3   OH224256   5.377   4.980   3.726
 8104TIP3    H124257   5.293   5.007   3.688
 8104TIP3    H224258   5.375   4.884   3.720
 8105TIP3   OH224259   4.239   7.076   1.344
 8105TIP3    H124260   4.258   7.033   1.261
 8105TIP3    H224261   4.289   7.028   1.409
 8106TIP3   OH224262   3.302   6.602   5.090
 8106TIP3    H124263   3.269   6.611   5.179
 8106TIP3    H224264   3.257   6.524   5.056
 8107TIP3   OH224265   7.891   7.348   4.147
 8107TIP3    H124266   7.818   7.344   4.209
 8107TIP3    H224267   7.956   7.287   4.181
 8108TIP3   OH224268   0.269   7.585   3.025
 8108TIP3    H124269   0.339   7.625   2.974
 8108TIP3    H224270   0.231   7.658   3.074
 8109TIP3   OH224271   7.611   0.554   1.935
 8109TIP3    H124272   7.675   0.588   1.872
 8109TIP3    H224273   7.664   0.520   2.007
 8110TIP3   OH224274   8.122   5.206   0.606
 8110TIP3    H124275   8.092   5.296   0.619
 8110TIP3    H224276   8.046   5.152   0.625
 8111TIP3   OH224277   5.003   7.653   5.696
 8111TIP3    H124278   5.079   7.697   5.735
 8111TIP3    H224279   4.928   7.688   5.744
 8112TIP3   OH224280   7.655   0.406   5.617
 8112TIP3    H124281   7.578   0.391   5.562
 8112TIP3    H224282   7.710   0.328   5.604
 8113TIP3   OH224283   4.531   6.332   3.211
 8113TIP3    H124284   4.447   6.318   3.253
 8113TIP3    H224285   4.595   6.288   3.268
 8114TIP3   OH224286   1.714   0.032   4.019
 8114TIP3    H124287   1.736   0.024   4.112
 8114TIP3    H224288   1.799   0.037   3.975
 8115TIP3   OH224289   2.945   5.734   6.357
 8115TIP3    H124290   2.938   5.791   6.281
 8115TIP3    H224291   2.875   5.762   6.415
 8116TIP3   OH224292   0.903   1.330   5.051
 8116TIP3    H124293   0.976   1.269   5.039
 8116TIP3    H224294   0.845   1.286   5.113
 8117TIP3   OH224295   6.479   0.931   3.365
 8117TIP3    H124296   6.429   0.974   3.435
 8117TIP3    H224297   6.558   0.898   3.408
 8118TIP3   OH224298   5.981   1.959   5.651
 8118TIP3    H124299   6.073   1.935   5.644
 8118TIP3    H224300   5.982   2.049   5.683
 8119TIP3   OH224301   0.547   3.606   3.024
 8119TIP3    H124302   0.564   3.636   2.934
 8119TIP3    H224303   0.510   3.518   3.013
 8120TIP3   OH224304   2.759   6.259   0.104
 8120TIP3    H124305   2.851   6.249   0.080
 8120TIP3    H224306   2.713   6.191   0.054
 8121TIP3   OH224307   2.733   1.901   0.617
 8121TIP3    H124308   2.695   1.847   0.548
 8121TIP3    H224309   2.658   1.926   0.671
 8122TIP3   OH224310   7.505   4.726   1.851
 8122TIP3    H124311   7.555   4.728   1.770
 8122TIP3    H224312   7.539   4.800   1.902
 8123TIP3   OH224313   0.858   4.814   4.676
 8123TIP3    H124314   0.779   4.864   4.695
 8123TIP3    H224315   0.875   4.763   4.755
 8124TIP3   OH224316   6.303   3.201   6.515
 8124TIP3    H124317   6.301   3.289   6.478
 8124TIP3    H224318   6.221   3.161   6.485
 8125TIP3   OH224319   0.914   6.323   0.697
 8125TIP3    H124320   0.919   6.371   0.615
 8125TIP3    H224321   0.908   6.231   0.671
 8126TIP3   OH224322   1.983   7.619   3.730
 8126TIP3    H124323   1.892   7.627   3.759
 8126TIP3    H224324   1.977   7.579   3.643
 8127TIP3   OH224325   4.421   3.616   0.444
 8127TIP3    H124326   4.374   3.570   0.375
 8127TIP3    H224327   4.481   3.551   0.480
 8128TIP3   OH224328   5.276   7.584   1.515
 8128TIP3    H124329   5.240   7.670   1.537
 8128TIP3    H224330   5.306   7.593   1.424
 8129TIP3   OH224331   2.681   1.914   4.886
 8129TIP3    H124332   2.687   1.819   4.878
 8129TIP3    H224333   2.647   1.943   4.801
 8130TIP3   OH224334   4.360   4.271   3.350
 8130TIP3    H124335   4.451   4.267   3.380
 8130TIP3    H224336   4.334   4.179   3.342
 8131TIP3   OH224337   4.064   7.041   4.202
 8131TIP3    H124338   4.090   7.065   4.114
 8131TIP3    H224339   4.145   7.011   4.244
 8132TIP3   OH224340   5.461   1.115   1.609
 8132TIP3    H124341   5.473   1.039   1.552
 8132TIP3    H224342   5.408   1.176   1.557
 8133TIP3   OH224343   7.150   6.952   3.449
 8133TIP3    H124344   7.127   6.907   3.530
 8133TIP3    H224345   7.066   6.968   3.406
 8134TIP3   OH224346   4.638   0.381   4.701
 8134TIP3    H124347   4.617   0.323   4.628
 8134TIP3    H224348   4.723   0.351   4.733
 8135TIP3   OH224349   1.763   0.017   2.465
 8135TIP3    H124350   1.824   0.090   2.451
 8135TIP3    H224351   1.813  -0.047   2.515
 8136TIP3   OH224352   4.639   4.531   1.036
 8136TIP3    H124353   4.678   4.470   1.099
 8136TIP3    H224354   4.681   4.615   1.055
 8137TIP3   OH224355   2.568   2.294   4.788
 8137TIP3    H124356   2.607   2.291   4.875
 8137TIP3    H224357   2.639   2.322   4.730
 8138TIP3   OH224358   7.035   1.471   1.918
 8138TIP3    H124359   7.096   1.483   1.846
 8138TIP3    H224360   7.062   1.537   1.982
 8139TIP3   OH224361   5.538   7.690   4.288
 8139TIP3    H124362   5.525   7.768   4.342
 8139TIP3    H224363   5.603   7.639   4.336
 8140TIP3   OH224364   2.500   7.498   6.465
 8140TIP3    H124365   2.510   7.455   6.380
 8140TIP3    H224366   2.473   7.588   6.443
 8141TIP3   OH224367   0.835   3.433   4.314
 8141TIP3    H124368   0.837   3.463   4.405
 8141TIP3    H224369   0.798   3.506   4.266
 8142TIP3   OH224370   5.861   7.264   1.961
 8142TIP3    H124371   5.951   7.286   1.984
 8142TIP3    H224372   5.864   7.249   1.866
 8143TIP3   OH224373   3.932   6.304   1.345
 8143TIP3    H124374   4.013   6.254   1.350
 8143TIP3    H224375   3.889   6.273   1.265
 8144TIP3   OH224376   6.232   6.413   5.747
 8144TIP3    H124377   6.193   6.468   5.816
 8144TIP3    H224378   6.163   6.405   5.681
 8145TIP3   OH224379   1.316   3.265   1.414
 8145TIP3    H124380   1.226   3.246   1.386
 8145TIP3    H224381   1.364   3.185   1.396
 8146TIP3   OH224382   6.508   0.572   4.496
 8146TIP3    H124383   6.544   0.507   4.436
 8146TIP3    H224384   6.469   0.521   4.567
 8147TIP3   OH224385   2.533   6.735   5.492
 8147TIP3    H124386   2.505   6.823   5.469
 8147TIP3    H224387   2.452   6.683   5.487
 8148TIP3   OH224388   7.746   4.192   3.166
 8148TIP3    H124389   7.746   4.150   3.080
 8148TIP3    H224390   7.839   4.195   3.191
 8149TIP3   OH224391   0.487   6.559   6.007
 8149TIP3    H124392   0.485   6.474   6.051
 8149TIP3    H224393   0.473   6.623   6.077
 8150TIP3   OH224394   6.458   3.714   6.164
 8150TIP3    H124395   6.526   3.668   6.214
 8150TIP3    H224396   6.465   3.805   6.194
 8151TIP3   OH224397   0.889   1.642  -0.003
 8151TIP3    H124398   0.843   1.624   0.079
 8151TIP3    H224399   0.925   1.558  -0.030
 8152TIP3   OH224400   3.073   7.021   4.779
 8152TIP3    H124401   2.981   7.038   4.800
 8152TIP3    H224402   3.122   7.061   4.851
 8153TIP3   OH224403   2.213   0.312   2.801
 8153TIP3    H124404   2.253   0.250   2.863
 8153TIP3    H224405   2.212   0.395   2.848
 8154TIP3   OH224406   6.915   4.565   5.846
 8154TIP3    H124407   6.881   4.612   5.769
 8154TIP3    H224408   6.928   4.475   5.815
 8155TIP3   OH224409   5.040   7.608   6.419
 8155TIP3    H124410   5.041   7.536   6.356
 8155TIP3    H224411   5.109   7.587   6.481
 8156TIP3   OH224412   7.959   1.473   2.754
 8156TIP3    H124413   7.921   1.511   2.833
 8156TIP3    H224414   7.897   1.494   2.685
 8157TIP3   OH224415   2.331   1.812   0.735
 8157TIP3    H124416   2.393   1.852   0.796
 8157TIP3    H224417   2.248   1.810   0.783
 8158TIP3   OH224418   6.842   5.130   2.943
 8158TIP3    H124419   6.828   5.225   2.944
 8158TIP3    H224420   6.850   5.109   2.850
 8159TIP3   OH224421   4.542   1.730   3.773
 8159TIP3    H124422   4.499   1.739   3.689
 8159TIP3    H224423   4.471   1.732   3.837
 8160TIP3   OH224424   0.420   0.382   6.389
 8160TIP3    H124425   0.494   0.388   6.449
 8160TIP3    H224426   0.361   0.452   6.417
 8161TIP3   OH224427   2.063   2.741   2.081
 8161TIP3    H124428   2.041   2.809   2.145
 8161TIP3    H224429   1.990   2.680   2.085
 8162TIP3   OH224430   4.660   5.832   4.979
 8162TIP3    H124431   4.701   5.777   4.912
 8162TIP3    H224432   4.659   5.920   4.942
 8163TIP3   OH224433   1.039   4.170   3.623
 8163TIP3    H124434   1.009   4.121   3.699
 8163TIP3    H224435   1.105   4.114   3.582
 8164TIP3   OH224436   6.101   1.690   5.299
 8164TIP3    H124437   6.036   1.757   5.279
 8164TIP3    H224438   6.157   1.729   5.366
 8165TIP3   OH224439   5.417   6.112   4.849
 8165TIP3    H124440   5.368   6.191   4.825
 8165TIP3    H224441   5.469   6.139   4.925
 8166TIP3   OH224442   7.914   6.190   3.805
 8166TIP3    H124443   7.898   6.178   3.712
 8166TIP3    H224444   7.979   6.123   3.827
 8167TIP3   OH224445   8.149   1.605   0.361
 8167TIP3    H124446   8.201   1.636   0.435
 8167TIP3    H224447   8.189   1.646   0.284
 8168TIP3   OH224448   6.832   6.126   2.357
 8168TIP3    H124449   6.838   6.168   2.270
 8168TIP3    H224450   6.739   6.107   2.368
 8169TIP3   OH224451   2.235   7.562   1.729
 8169TIP3    H124452   2.251   7.483   1.780
 8169TIP3    H224453   2.175   7.534   1.659
 8170TIP3   OH224454   2.053   1.205   0.918
 8170TIP3    H124455   2.121   1.172   0.976
 8170TIP3    H224456   1.979   1.225   0.975
 8171TIP3   OH224457   3.351   1.964   2.326
 8171TIP3    H124458   3.444   1.952   2.343
 8171TIP3    H224459   3.309   1.887   2.364
 8172TIP3   OH224460   4.675   1.398   0.953
 8172TIP3    H124461   4.696   1.482   0.993
 8172TIP3    H224462   4.608   1.360   1.010
 8173TIP3   OH224463   2.563   5.174   1.391
 8173TIP3    H124464   2.578   5.182   1.297
 8173TIP3    H224465   2.511   5.251   1.414
 8174TIP3   OH224466   0.792   3.382   5.304
 8174TIP3    H124467   0.791   3.460   5.248
 8174TIP3    H224468   0.746   3.409   5.384
 8175TIP3   OH224469   3.366   2.264   5.355
 8175TIP3    H124470   3.342   2.357   5.357
 8175TIP3    H224471   3.342   2.235   5.267
 8176TIP3   OH224472   5.796   4.790   5.606
 8176TIP3    H124473   5.706   4.804   5.575
 8176TIP3    H224474   5.848   4.854   5.558
 8177TIP3   OH224475   0.096   6.096   4.475
 8177TIP3    H124476   0.161   6.038   4.436
 8177TIP3    H224477   0.047   6.039   4.535
 8178TIP3   OH224478   5.226   0.125   4.582
 8178TIP3    H124479   5.133   0.139   4.602
 8178TIP3    H224480   5.271   0.144   4.664
 8179TIP3   OH224481   5.003   7.036   6.045
 8179TIP3    H124482   5.066   7.041   5.974
 8179TIP3    H224483   5.042   6.977   6.109
 8180TIP3   OH224484   7.117   7.474   3.354
 8180TIP3    H124485   7.089   7.383   3.348
 8180TIP3    H224486   7.151   7.484   3.442
 8181TIP3   OH224487   1.911   3.221   2.199
 8181TIP3    H124488   1.822   3.218   2.234
 8181TIP3    H224489   1.904   3.181   2.112
 8182TIP3   OH224490   3.598   7.631   4.686
 8182TIP3    H124491   3.543   7.552   4.679
 8182TIP3    H224492   3.686   7.601   4.664
 8183TIP3   OH224493   1.666   1.696   6.079
 8183TIP3    H124494   1.687   1.782   6.042
 8183TIP3    H224495   1.722   1.690   6.157
 8184TIP3   OH224496   3.746   4.208   5.889
 8184TIP3    H124497   3.665   4.235   5.846
 8184TIP3    H224498   3.809   4.277   5.868
 8185TIP3   OH224499   0.024   4.441   6.453
 8185TIP3    H124500  -0.005   4.396   6.374
 8185TIP3    H224501   0.039   4.371   6.517
 8186TIP3   OH224502   1.687   4.951   6.702
 8186TIP3    H124503   1.714   5.018   6.764
 8186TIP3    H224504   1.720   4.981   6.618
 8187TIP3   OH224505   5.193   0.247   3.620
 8187TIP3    H124506   5.229   0.221   3.535
 8187TIP3    H224507   5.234   0.187   3.682
 8188TIP3   OH224508   3.356   0.342   0.931
 8188TIP3    H124509   3.347   0.257   0.973
 8188TIP3    H224510   3.266   0.374   0.922
 8189TIP3   OH224511   5.517   1.619   5.779
 8189TIP3    H124512   5.427   1.644   5.760
 8189TIP3    H224513   5.566   1.643   5.700
 8190TIP3   OH224514   5.230   1.613   0.129
 8190TIP3    H124515   5.265   1.534   0.170
 8190TIP3    H224516   5.253   1.683   0.189
 8191TIP3   OH224517   4.808   3.640   4.563
 8191TIP3    H124518   4.763   3.697   4.501
 8191TIP3    H224519   4.782   3.552   4.538
 8192TIP3   OH224520   6.842   2.928   5.839
 8192TIP3    H124521   6.767   2.979   5.869
 8192TIP3    H224522   6.914   2.953   5.897
 8193TIP3   OH224523   4.218   3.779   3.150
 8193TIP3    H124524   4.168   3.796   3.070
 8193TIP3    H224525   4.299   3.739   3.120
 8194TIP3   OH224526   4.594   7.604   6.203
 8194TIP3    H124527   4.628   7.529   6.253
 8194TIP3    H224528   4.664   7.669   6.206
 8195TIP3   OH224529   1.647   1.416   0.738
 8195TIP3    H124530   1.588   1.420   0.662
 8195TIP3    H224531   1.728   1.456   0.707
 8196TIP3   OH224532   0.812   6.942   1.614
 8196TIP3    H124533   0.843   6.957   1.703
 8196TIP3    H224534   0.869   6.997   1.559
 8197TIP3   OH224535   0.213   7.497   6.432
 8197TIP3    H124536   0.208   7.539   6.518
 8197TIP3    H224537   0.139   7.436   6.432
 8198TIP3   OH224538   0.145   0.389   2.429
 8198TIP3    H124539   0.092   0.457   2.388
 8198TIP3    H224540   0.083   0.340   2.484
 8199TIP3   OH224541   2.317   5.721   0.076
 8199TIP3    H124542   2.361   5.759   0.152
 8199TIP3    H224543   2.226   5.749   0.085
 8200TIP3   OH224544   0.132   2.945   5.924
 8200TIP3    H124545   0.044   2.959   5.890
 8200TIP3    H224546   0.187   3.008   5.876
 8201TIP3   OH224547   4.591   5.221   0.722
 8201TIP3    H124548   4.599   5.316   0.721
 8201TIP3    H224549   4.681   5.188   0.713
 8202TIP3   OH224550   2.293   2.744   5.670
 8202TIP3    H124551   2.235   2.810   5.632
 8202TIP3    H224552   2.234   2.681   5.711
 8203TIP3   OH224553   6.504   1.136   1.207
 8203TIP3    H124554   6.445   1.146   1.133
 8203TIP3    H224555   6.589   1.165   1.173
 8204TIP3   OH224556   3.553   4.420   0.149
 8204TIP3    H124557   3.513   4.356   0.207
 8204TIP3    H224558   3.514   4.504   0.175
 8205TIP3   OH224559   1.689   6.754   0.825
 8205TIP3    H124560   1.733   6.834   0.798
 8205TIP3    H224561   1.609   6.752   0.773
 8206TIP3   OH224562   1.108   5.875   3.682
 8206TIP3    H124563   1.091   5.782   3.668
 8206TIP3    H224564   1.024   5.911   3.712
 8207TIP3   OH224565   1.523   7.073   3.109
 8207TIP3    H124566   1.462   7.025   3.052
 8207TIP3    H224567   1.470   7.098   3.185
 8208TIP3   OH224568   0.953   4.617   1.040
 8208TIP3    H124569   0.935   4.682   0.972
 8208TIP3    H224570   0.868   4.582   1.064
 8209TIP3   OH224571   1.490   2.612   5.333
 8209TIP3    H124572   1.493   2.616   5.429
 8209TIP3    H224573   1.415   2.666   5.309
 8210TIP3   OH224574   5.557   0.449   2.931
 8210TIP3    H124575   5.531   0.459   3.023
 8210TIP3    H224576   5.484   0.400   2.891
 8211TIP3   OH224577   4.926   3.512   1.763
 8211TIP3    H124578   4.907   3.605   1.753
 8211TIP3    H224579   5.014   3.510   1.801
 8212TIP3   OH224580   6.838   0.207   4.572
 8212TIP3    H124581   6.823   0.244   4.485
 8212TIP3    H224582   6.838   0.283   4.630
 8213TIP3   OH224583   4.711   5.571   5.436
 8213TIP3    H124584   4.652   5.643   5.411
 8213TIP3    H224585   4.749   5.541   5.354
 8214TIP3   OH224586   0.254   6.325   0.279
 8214TIP3    H124587   0.324   6.366   0.227
 8214TIP3    H224588   0.288   6.239   0.302
 8215TIP3   OH224589   6.036   7.662   4.300
 8215TIP3    H124590   6.046   7.608   4.378
 8215TIP3    H224591   5.951   7.635   4.263
 8216TIP3   OH224592   2.739   1.572   0.673
 8216TIP3    H124593   2.657   1.597   0.632
 8216TIP3    H224594   2.731   1.478   0.688
 8217TIP3   OH224595   3.882   3.149   3.675
 8217TIP3    H124596   3.889   3.128   3.768
 8217TIP3    H224597   3.959   3.202   3.656
 8218TIP3   OH224598   1.993   6.048   0.717
 8218TIP3    H124599   2.059   5.979   0.726
 8218TIP3    H224600   2.045   6.127   0.700
 8219TIP3   OH224601   7.929   4.725   6.410
 8219TIP3    H124602   7.876   4.708   6.488
 8219TIP3    H224603   8.014   4.754   6.444
 8220TIP3   OH224604   7.850   3.864   3.042
 8220TIP3    H124605   7.790   3.821   2.980
 8220TIP3    H224606   7.846   3.957   3.019
 8221TIP3   OH224607   1.895   5.583   5.831
 8221TIP3    H124608   1.837   5.531   5.774
 8221TIP3    H224609   1.912   5.663   5.781
 8222TIP3   OH224610   7.419   5.664   5.735
 8222TIP3    H124611   7.383   5.647   5.822
 8222TIP3    H224612   7.377   5.599   5.678
 8223TIP3   OH224613   5.683   6.542   4.126
 8223TIP3    H124614   5.721   6.459   4.155
 8223TIP3    H224615   5.589   6.531   4.139
 8224TIP3   OH224616   1.155   5.517   4.484
 8224TIP3    H124617   1.233   5.474   4.520
 8224TIP3    H224618   1.189   5.598   4.446
 8225TIP3   OH224619   6.862   3.541   6.399
 8225TIP3    H124620   6.909   3.625   6.394
 8225TIP3    H224621   6.909   3.492   6.467
 8226TIP3   OH224622   6.063   5.902   2.451
 8226TIP3    H124623   5.987   5.893   2.394
 8226TIP3    H224624   6.068   5.996   2.470
 8227TIP3   OH224625   6.428   6.862   5.650
 8227TIP3    H124626   6.422   6.869   5.745
 8227TIP3    H224627   6.424   6.768   5.633
 8228TIP3   OH224628   3.459   2.553   2.116
 8228TIP3    H124629   3.452   2.466   2.156
 8228TIP3    H224630   3.535   2.593   2.159
 8229TIP3   OH224631   0.671   2.666   3.729
 8229TIP3    H124632   0.672   2.570   3.729
 8229TIP3    H224633   0.581   2.688   3.753
 8230TIP3   OH224634   6.229   1.842   5.962
 8230TIP3    H124635   6.252   1.830   6.054
 8230TIP3    H224636   6.168   1.771   5.943
 8231TIP3   OH224637   2.858   1.798   1.381
 8231TIP3    H124638   2.785   1.846   1.421
 8231TIP3    H224639   2.832   1.787   1.290
 8232TIP3   OH224640   3.525   6.358   3.881
 8232TIP3    H124641   3.496   6.285   3.935
 8232TIP3    H224642   3.508   6.330   3.791
 8233TIP3   OH224643   1.151   5.754   4.295
 8233TIP3    H124644   1.081   5.801   4.340
 8233TIP3    H224645   1.232   5.796   4.325
 8234TIP3   OH224646   1.197   1.489   2.940
 8234TIP3    H124647   1.177   1.395   2.943
 8234TIP3    H224648   1.152   1.525   3.017
 8235TIP3   OH224649   8.050   5.806   1.717
 8235TIP3    H124650   8.072   5.754   1.794
 8235TIP3    H224651   7.978   5.862   1.746
 8236TIP3   OH224652   0.133   0.795   0.100
 8236TIP3    H124653   0.067   0.727   0.116
 8236TIP3    H224654   0.125   0.854   0.174
 8237TIP3   OH224655   0.071   7.198   1.703
 8237TIP3    H124656   0.029   7.112   1.708
 8237TIP3    H224657   0.034   7.238   1.624
 8238TIP3   OH224658   2.755   0.422   0.918
 8238TIP3    H124659   2.719   0.507   0.940
 8238TIP3    H224660   2.694   0.359   0.958
 8239TIP3   OH224661   1.019   4.210   0.255
 8239TIP3    H124662   1.023   4.305   0.246
 8239TIP3    H224663   0.930   4.192   0.285
 8240TIP3   OH224664   7.445   0.748   4.897
 8240TIP3    H124665   7.467   0.694   4.972
 8240TIP3    H224666   7.461   0.692   4.821
 8241TIP3   OH224667   0.292   0.266   0.036
 8241TIP3    H124668   0.361   0.253   0.100
 8241TIP3    H224669   0.303   0.356   0.006
 8242TIP3   OH224670   1.851   6.522   0.162
 8242TIP3    H124671   1.858   6.607   0.119
 8242TIP3    H224672   1.757   6.511   0.178
 8243TIP3   OH224673   6.289   1.367   3.826
 8243TIP3    H124674   6.328   1.344   3.742
 8243TIP3    H224675   6.350   1.332   3.891
 8244TIP3   OH224676   6.641   0.788   3.518
 8244TIP3    H124677   6.723   0.764   3.474
 8244TIP3    H224678   6.662   0.787   3.611
 8245TIP3   OH224679   1.281   3.786   2.201
 8245TIP3    H124680   1.330   3.811   2.280
 8245TIP3    H224681   1.305   3.695   2.187
 8246TIP3   OH224682   5.766   6.342   1.530
 8246TIP3    H124683   5.749   6.357   1.623
 8246TIP3    H224684   5.768   6.429   1.492
 8247TIP3   OH224685   6.571   6.586   2.501
 8247TIP3    H124686   6.566   6.510   2.443
 8247TIP3    H224687   6.657   6.624   2.484
 8248TIP3   OH224688   7.867   5.373   3.237
 8248TIP3    H124689   7.902   5.350   3.151
 8248TIP3    H224690   7.806   5.445   3.220
 8249TIP3   OH224691   5.858   1.091   2.880
 8249TIP3    H124692   5.883   1.007   2.842
 8249TIP3    H224693   5.774   1.112   2.839
 8250TIP3   OH224694   1.535   0.961   0.455
 8250TIP3    H124695   1.588   0.927   0.383
 8250TIP3    H224696   1.597   0.970   0.528
 8251TIP3   OH224697   1.415   5.158   0.152
 8251TIP3    H124698   1.401   5.242   0.196
 8251TIP3    H224699   1.375   5.094   0.210
 8252TIP3   OH224700   7.709   6.917   1.457
 8252TIP3    H124701   7.782   6.868   1.419
 8252TIP3    H224702   7.631   6.870   1.428
 8253TIP3   OH224703   8.110   6.269   0.807
 8253TIP3    H124704   8.115   6.203   0.877
 8253TIP3    H224705   8.185   6.250   0.751
 8254TIP3   OH224706   3.819   2.705   3.700
 8254TIP3    H124707   3.820   2.735   3.791
 8254TIP3    H224708   3.907   2.723   3.668
 8255TIP3   OH224709   5.055   5.179   6.275
 8255TIP3    H124710   4.964   5.207   6.270
 8255TIP3    H224711   5.050   5.088   6.305
 8256TIP3   OH224712   4.197   0.530   6.536
 8256TIP3    H124713   4.183   0.448   6.488
 8256TIP3    H224714   4.111   0.552   6.571
 8257TIP3   OH224715   1.157   7.242   4.836
 8257TIP3    H124716   1.090   7.212   4.775
 8257TIP3    H224717   1.216   7.167   4.845
 8258TIP3   OH224718   7.740   1.599   4.118
 8258TIP3    H124719   7.806   1.543   4.078
 8258TIP3    H224720   7.678   1.618   4.048
 8259TIP3   OH224721   3.227   6.435   1.834
 8259TIP3    H124722   3.226   6.430   1.739
 8259TIP3    H224723   3.212   6.527   1.854
 8260TIP3   OH224724   7.535   1.308   6.249
 8260TIP3    H124725   7.626   1.280   6.240
 8260TIP3    H224726   7.496   1.245   6.310
 8261TIP3   OH224727   2.469   3.282   4.040
 8261TIP3    H124728   2.505   3.197   4.066
 8261TIP3    H224729   2.500   3.343   4.107
 8262TIP3   OH224730   3.479   1.124   4.337
 8262TIP3    H124731   3.391   1.107   4.304
 8262TIP3    H224732   3.488   1.219   4.334
 8263TIP3   OH224733   1.271   2.826   3.896
 8263TIP3    H124734   1.313   2.752   3.938
 8263TIP3    H224735   1.190   2.839   3.945
 8264TIP3   OH224736   3.728   1.267   3.366
 8264TIP3    H124737   3.773   1.193   3.406
 8264TIP3    H224738   3.730   1.248   3.272
 8265TIP3   OH224739   4.421   7.183   6.517
 8265TIP3    H124740   4.354   7.150   6.457
 8265TIP3    H224741   4.504   7.155   6.479
 8266TIP3   OH224742   3.495   3.774   4.714
 8266TIP3    H124743   3.468   3.857   4.754
 8266TIP3    H224744   3.528   3.798   4.628
 8267TIP3   OH224745   5.406   4.097   1.057
 8267TIP3    H124746   5.376   4.024   1.002
 8267TIP3    H224747   5.341   4.166   1.041
 8268TIP3   OH224748   0.284   4.799   2.351
 8268TIP3    H124749   0.262   4.860   2.281
 8268TIP3    H224750   0.209   4.740   2.356
 8269TIP3   OH224751   2.385   7.157   4.587
 8269TIP3    H124752   2.296   7.121   4.598
 8269TIP3    H224753   2.371   7.247   4.560
 8270TIP3   OH224754   8.138   4.662   2.704
 8270TIP3    H124755   8.124   4.715   2.625
 8270TIP3    H224756   8.069   4.596   2.701
 8271TIP3   OH224757   4.521   1.761   1.911
 8271TIP3    H124758   4.576   1.718   1.976
 8271TIP3    H224759   4.540   1.854   1.921
 8272TIP3   OH224760   1.150   3.552   2.440
 8272TIP3    H124761   1.078   3.490   2.449
 8272TIP3    H224762   1.108   3.638   2.445
 8273TIP3   OH224763   2.351   2.614   3.070
 8273TIP3    H124764   2.318   2.618   2.980
 8273TIP3    H224765   2.388   2.525   3.077
 8274TIP3   OH224766   5.929   4.246   5.304
 8274TIP3    H124767   5.923   4.281   5.393
 8274TIP3    H224768   6.020   4.219   5.295
 8275TIP3   OH224769   3.913   4.699   6.628
 8275TIP3    H124770   3.883   4.778   6.583
 8275TIP3    H224771   3.997   4.679   6.587
 8276TIP3   OH224772   4.852   2.373   5.523
 8276TIP3    H124773   4.921   2.438   5.535
 8276TIP3    H224774   4.854   2.322   5.604
 8277TIP3   OH224775   4.450   4.771   0.089
 8277TIP3    H124776   4.514   4.808   0.149
 8277TIP3    H224777   4.370   4.764   0.140
 8278TIP3   OH224778   1.019   2.703   5.717
 8278TIP3    H124779   0.930   2.723   5.686
 8278TIP3    H224780   1.060   2.658   5.644
 8279TIP3   OH224781   1.662   5.965   0.373
 8279TIP3    H124782   1.677   5.998   0.462
 8279TIP3    H224783   1.707   5.880   0.371
 8280TIP3   OH224784   8.013   3.547   5.461
 8280TIP3    H124785   8.015   3.480   5.392
 8280TIP3    H224786   7.930   3.593   5.447
 8281TIP3   OH224787   7.259   2.244   2.479
 8281TIP3    H124788   7.193   2.204   2.535
 8281TIP3    H224789   7.292   2.317   2.531
 8282TIP3   OH224790   7.852   7.196   1.880
 8282TIP3    H124791   7.772   7.232   1.918
 8282TIP3    H224792   7.892   7.269   1.834
 8283TIP3   OH224793   1.600   0.716   5.725
 8283TIP3    H124794   1.578   0.627   5.752
 8283TIP3    H224795   1.518   0.752   5.690
 8284TIP3   OH224796   5.202   7.119   0.055
 8284TIP3    H124797   5.123   7.093   0.008
 8284TIP3    H224798   5.238   7.036   0.089
 8285TIP3   OH224799   0.069   5.676   0.918
 8285TIP3    H124800  -0.026   5.677   0.907
 8285TIP3    H224801   0.100   5.755   0.873
 8286TIP3   OH224802   0.310   0.760   5.382
 8286TIP3    H124803   0.310   0.852   5.410
 8286TIP3    H224804   0.302   0.710   5.463
 8287TIP3   OH224805   4.923   0.604   4.287
 8287TIP3    H124806   4.830   0.619   4.269
 8287TIP3    H224807   4.924   0.555   4.369
 8288TIP3   OH224808   1.893   5.584   5.381
 8288TIP3    H124809   1.920   5.508   5.432
 8288TIP3    H224810   1.806   5.561   5.348
 8289TIP3   OH224811   3.079   2.365   5.739
 8289TIP3    H124812   3.027   2.315   5.676
 8289TIP3    H224813   3.168   2.364   5.702
 8290TIP3   OH224814   0.866   4.510   1.867
 8290TIP3    H124815   0.816   4.477   1.792
 8290TIP3    H224816   0.800   4.548   1.925
 8291TIP3   OH224817   6.986   5.026   0.564
 8291TIP3    H124818   7.079   5.039   0.581
 8291TIP3    H224819   6.943   5.102   0.605
 8292TIP3   OH224820   6.402   0.643   3.567
 8292TIP3    H124821   6.414   0.564   3.514
 8292TIP3    H224822   6.486   0.688   3.563
 8293TIP3   OH224823   0.106   1.312   6.390
 8293TIP3    H124824   0.049   1.259   6.447
 8293TIP3    H224825   0.138   1.251   6.324
 8294TIP3   OH224826   0.948   7.258   6.583
 8294TIP3    H124827   0.862   7.243   6.545
 8294TIP3    H224828   0.981   7.171   6.604
 8295TIP3   OH224829   7.204   1.570   1.720
 8295TIP3    H124830   7.287   1.524   1.703
 8295TIP3    H224831   7.157   1.565   1.637
 8296TIP3   OH224832   4.945   4.244   1.675
 8296TIP3    H124833   5.012   4.200   1.728
 8296TIP3    H224834   4.922   4.322   1.726
 8297TIP3   OH224835   4.870   4.050   5.310
 8297TIP3    H124836   4.898   4.011   5.228
 8297TIP3    H224837   4.784   4.087   5.292
 8298TIP3   OH224838   2.125   4.994   5.198
 8298TIP3    H124839   2.111   4.956   5.284
 8298TIP3    H224840   2.106   5.087   5.209
 8299TIP3   OH224841   0.449   5.100   5.564
 8299TIP3    H124842   0.463   5.033   5.497
 8299TIP3    H224843   0.420   5.052   5.641
 8300TIP3   OH224844   7.245   5.599   0.298
 8300TIP3    H124845   7.171   5.550   0.332
 8300TIP3    H224846   7.296   5.535   0.248
 8301TIP3   OH224847   4.329   0.626   5.552
 8301TIP3    H124848   4.393   0.661   5.614
 8301TIP3    H224849   4.378   0.560   5.502
 8302TIP3   OH224850   5.586   2.679   5.519
 8302TIP3    H124851   5.569   2.758   5.570
 8302TIP3    H224852   5.643   2.626   5.575
 8303TIP3   OH224853   6.622   5.711   6.588
 8303TIP3    H124854   6.672   5.670   6.517
 8303TIP3    H224855   6.578   5.785   6.548
 8304TIP3   OH224856   7.224   1.988   0.167
 8304TIP3    H124857   7.205   1.911   0.221
 8304TIP3    H224858   7.198   2.062   0.221
 8305TIP3   OH224859   7.260   2.902   0.033
 8305TIP3    H124860   7.236   2.929   0.121
 8305TIP3    H224861   7.335   2.844   0.045
 8306TIP3   OH224862   4.694   3.402   4.478
 8306TIP3    H124863   4.677   3.340   4.549
 8306TIP3    H224864   4.754   3.357   4.419
 8307TIP3   OH224865   5.753   0.675   3.360
 8307TIP3    H124866   5.734   0.729   3.437
 8307TIP3    H224867   5.745   0.735   3.286
 8308TIP3   OH224868   6.494   5.030   0.474
 8308TIP3    H124869   6.556   5.049   0.404
 8308TIP3    H224870   6.443   4.955   0.442
 8309TIP3   OH224871   7.931   0.091   5.853
 8309TIP3    H124872   7.948   0.055   5.940
 8309TIP3    H224873   8.011   0.138   5.830
 8310TIP3   OH224874   4.287   6.927   4.342
 8310TIP3    H124875   4.359   6.892   4.394
 8310TIP3    H224876   4.210   6.876   4.368
 8311TIP3   OH224877   7.927   4.460   3.308
 8311TIP3    H124878   7.920   4.538   3.254
 8311TIP3    H224879   7.987   4.403   3.259
 8312TIP3   OH224880   7.728   5.980   1.985
 8312TIP3    H124881   7.787   6.038   1.936
 8312TIP3    H224882   7.643   5.993   1.944
 8313TIP3   OH224883   3.197   4.641   0.681
 8313TIP3    H124884   3.268   4.645   0.745
 8313TIP3    H224885   3.197   4.726   0.639
 8314TIP3   OH224886   6.892   2.502   3.600
 8314TIP3    H124887   6.875   2.409   3.616
 8314TIP3    H224888   6.863   2.545   3.681
 8315TIP3   OH224889   0.195   3.370   5.617
 8315TIP3    H124890   0.140   3.430   5.567
 8315TIP3    H224891   0.253   3.427   5.668
 8316TIP3   OH224892   6.199   7.254   1.340
 8316TIP3    H124893   6.228   7.345   1.347
 8316TIP3    H224894   6.239   7.222   1.259
 8317TIP3   OH224895   2.799   0.189   1.234
 8317TIP3    H124896   2.811   0.094   1.231
 8317TIP3    H224897   2.784   0.214   1.142
 8318TIP3   OH224898   1.408   2.015   5.148
 8318TIP3    H124899   1.335   1.952   5.144
 8318TIP3    H224900   1.446   2.013   5.061
 8319TIP3   OH224901   6.315   5.302   3.261
 8319TIP3    H124902   6.221   5.320   3.260
 8319TIP3    H224903   6.323   5.215   3.222
 8320TIP3   OH224904   5.066   4.108   5.899
 8320TIP3    H124905   5.086   4.066   5.982
 8320TIP3    H224906   4.999   4.174   5.921
 8321TIP3   OH224907   5.856   7.759   4.008
 8321TIP3    H124908   5.823   7.828   4.065
 8321TIP3    H224909   5.795   7.686   4.020
 8322TIP3   OH224910   1.537   4.197   4.708
 8322TIP3    H124911   1.598   4.271   4.714
 8322TIP3    H224912   1.559   4.142   4.782
 8323TIP3   OH224913   2.793   2.079   6.030
 8323TIP3    H124914   2.878   2.093   5.986
 8323TIP3    H224915   2.774   1.986   6.015
 8324TIP3   OH224916   2.254   7.165   0.290
 8324TIP3    H124917   2.163   7.139   0.305
 8324TIP3    H224918   2.299   7.143   0.372
 8325TIP3   OH224919   7.891   7.095   4.954
 8325TIP3    H124920   7.954   7.029   4.983
 8325TIP3    H224921   7.912   7.109   4.861
 8326TIP3   OH224922   0.450   1.473   2.691
 8326TIP3    H124923   0.472   1.432   2.607
 8326TIP3    H224924   0.407   1.556   2.666
 8327TIP3   OH224925   6.342   3.445   6.375
 8327TIP3    H124926   6.313   3.529   6.409
 8327TIP3    H224927   6.420   3.465   6.323
 8328TIP3   OH224928   3.010   7.626   2.601
 8328TIP3    H124929   3.098   7.606   2.635
 8328TIP3    H224930   2.954   7.624   2.678
 8329TIP3   OH224931   6.167   2.116   0.651
 8329TIP3    H124932   6.251   2.075   0.672
 8329TIP3    H224933   6.157   2.105   0.556
 8330TIP3   OH224934   2.619   6.541   3.505
 8330TIP3    H124935   2.588   6.622   3.545
 8330TIP3    H224936   2.629   6.480   3.578
 8331TIP3   OH224937   1.731   1.459   1.887
 8331TIP3    H124938   1.723   1.549   1.855
 8331TIP3    H224939   1.726   1.405   1.808
 8332TIP3   OH224940   1.553   2.231   1.628
 8332TIP3    H124941   1.563   2.232   1.533
 8332TIP3    H224942   1.641   2.249   1.661
 8333TIP3   OH224943   2.825   4.128   4.027
 8333TIP3    H124944   2.888   4.198   4.046
 8333TIP3    H224945   2.864   4.080   3.954
 8334TIP3   OH224946   0.105   0.611   3.643
 8334TIP3    H124947   0.073   0.667   3.713
 8334TIP3    H224948   0.194   0.587   3.669
 8335TIP3   OH224949   7.740   6.815   5.223
 8335TIP3    H124950   7.696   6.900   5.228
 8335TIP3    H224951   7.834   6.837   5.221
 8336TIP3   OH224952   7.708   4.426   0.172
 8336TIP3    H124953   7.745   4.341   0.195
 8336TIP3    H224954   7.775   4.467   0.117
 8337TIP3   OH224955   3.261   4.100   5.480
 8337TIP3    H124956   3.251   4.047   5.401
 8337TIP3    H224957   3.273   4.189   5.446
 8338TIP3   OH224958   3.763   1.637   2.118
 8338TIP3    H124959   3.748   1.572   2.187
 8338TIP3    H224960   3.754   1.588   2.036
 8339TIP3   OH224961   8.072   3.607   6.279
 8339TIP3    H124962   8.002   3.671   6.266
 8339TIP3    H224963   8.126   3.615   6.200
 8340TIP3   OH224964   5.218   4.487   4.607
 8340TIP3    H124965   5.268   4.415   4.567
 8340TIP3    H224966   5.225   4.471   4.701
 8341TIP3   OH224967   8.032   2.944   5.510
 8341TIP3    H124968   8.113   2.968   5.555
 8341TIP3    H224969   7.990   2.880   5.567
 8342TIP3   OH224970   5.145   3.812   3.905
 8342TIP3    H124971   5.060   3.851   3.926
 8342TIP3    H224972   5.208   3.878   3.934
 8343TIP3   OH224973   3.241   5.515   6.106
 8343TIP3    H124974   3.252   5.570   6.029
 8343TIP3    H224975   3.176   5.450   6.081
 8344TIP3   OH224976   7.443   1.638   4.560
 8344TIP3    H124977   7.528   1.678   4.576
 8344TIP3    H224978   7.380   1.695   4.605
 8345TIP3   OH224979   1.148   5.601   1.132
 8345TIP3    H124980   1.203   5.523   1.130
 8345TIP3    H224981   1.120   5.612   1.041
 8346TIP3   OH224982   4.642   6.839   4.733
 8346TIP3    H124983   4.592   6.907   4.778
 8346TIP3    H224984   4.632   6.761   4.787
 8347TIP3   OH224985   3.342   4.187   6.543
 8347TIP3    H124986   3.327   4.249   6.471
 8347TIP3    H224987   3.362   4.243   6.618
 8348TIP3   OH224988   5.870   3.105   3.097
 8348TIP3    H124989   5.892   3.131   3.008
 8348TIP3    H224990   5.855   3.011   3.093
 8349TIP3   OH224991   4.361   4.963   0.556
 8349TIP3    H124992   4.443   5.011   0.561
 8349TIP3    H224993   4.373   4.888   0.615
 8350TIP3   OH224994   6.701   6.950   1.816
 8350TIP3    H124995   6.730   7.021   1.759
 8350TIP3    H224996   6.746   6.967   1.899
 8351TIP3   OH224997   5.263   5.223   2.725
 8351TIP3    H124998   5.304   5.232   2.811
 8351TIP3    H224999   5.335   5.232   2.663
 8352TIP3   OH225000   6.505   6.660   4.155
 8352TIP3    H125001   6.469   6.733   4.205
 8352TIP3    H225002   6.592   6.645   4.193
 8353TIP3   OH225003   2.296   7.485   5.597
 8353TIP3    H125004   2.318   7.422   5.665
 8353TIP3    H225005   2.248   7.554   5.643
 8354TIP3   OH225006   8.031   5.780   0.906
 8354TIP3    H125007   7.969   5.717   0.942
 8354TIP3    H225008   8.005   5.864   0.945
 8355TIP3   OH225009   3.455   7.540   6.187
 8355TIP3    H125010   3.501   7.457   6.184
 8355TIP3    H225011   3.409   7.545   6.103
 8356TIP3   OH225012   1.945   3.765   3.059
 8356TIP3    H125013   1.961   3.671   3.068
 8356TIP3    H225014   1.949   3.799   3.148
 8357TIP3   OH225015   3.779   6.123   1.204
 8357TIP3    H125016   3.726   6.108   1.282
 8357TIP3    H225017   3.788   6.037   1.163
 8358TIP3   OH225018   5.496   7.228   1.950
 8358TIP3    H125019   5.577   7.216   1.901
 8358TIP3    H225020   5.433   7.171   1.907
 8359TIP3   OH225021   0.846   5.818   4.160
 8359TIP3    H125022   0.789   5.880   4.206
 8359TIP3    H225023   0.828   5.834   4.067
 8360TIP3   OH225024   7.963   3.709   1.552
 8360TIP3    H125025   8.011   3.626   1.564
 8360TIP3    H225026   8.024   3.765   1.504
 8361TIP3   OH225027   6.789   4.751   4.533
 8361TIP3    H125028   6.769   4.658   4.523
 8361TIP3    H225029   6.847   4.771   4.460
 8362TIP3   OH225030   1.902   2.340   6.759
 8362TIP3    H125031   1.866   2.270   6.814
 8362TIP3    H225032   1.832   2.359   6.696
 8363TIP3   OH225033   5.674   3.655   3.693
 8363TIP3    H125034   5.632   3.702   3.620
 8363TIP3    H225035   5.697   3.725   3.755
 8364TIP3   OH225036   6.706   3.296   1.345
 8364TIP3    H125037   6.697   3.286   1.440
 8364TIP3    H225038   6.707   3.206   1.311
 8365TIP3   OH225039   4.563   3.348   1.893
 8365TIP3    H125040   4.532   3.263   1.925
 8365TIP3    H225041   4.579   3.333   1.799
 8366TIP3   OH225042   2.614   2.532   1.296
 8366TIP3    H125043   2.672   2.532   1.372
 8366TIP3    H225044   2.526   2.524   1.334
 8367TIP3   OH225045   7.363   7.589   1.325
 8367TIP3    H125046   7.343   7.506   1.368
 8367TIP3    H225047   7.358   7.653   1.396
 8368TIP3   OH225048   5.984   0.936   5.459
 8368TIP3    H125049   5.960   0.874   5.390
 8368TIP3    H225050   5.906   0.940   5.515
 8369TIP3   OH225051   7.340   6.816   1.626
 8369TIP3    H125052   7.376   6.845   1.711
 8369TIP3    H225053   7.311   6.897   1.584
 8370TIP3   OH225054   2.854   2.470   3.172
 8370TIP3    H125055   2.858   2.378   3.197
 8370TIP3    H225056   2.780   2.505   3.221
 8371TIP3   OH225057   3.562   4.043   4.632
 8371TIP3    H125058   3.504   4.072   4.561
 8371TIP3    H225059   3.523   4.080   4.711
 8372TIP3   OH225060   3.467   4.856   5.131
 8372TIP3    H125061   3.501   4.896   5.051
 8372TIP3    H225062   3.389   4.808   5.104
 8373TIP3   OH225063   3.877   0.714   0.427
 8373TIP3    H125064   3.932   0.711   0.349
 8373TIP3    H225065   3.877   0.806   0.453
 8374TIP3   OH225066   1.960   3.238   5.671
 8374TIP3    H125067   1.956   3.152   5.714
 8374TIP3    H225068   2.036   3.281   5.710
 8375TIP3   OH225069   7.539   6.251   4.425
 8375TIP3    H125070   7.539   6.258   4.521
 8375TIP3    H225071   7.489   6.171   4.408
 8376TIP3   OH225072   2.978   6.583   6.730
 8376TIP3    H125073   2.985   6.546   6.818
 8376TIP3    H225074   3.034   6.661   6.732
 8377TIP3   OH225075   3.989   0.988   6.491
 8377TIP3    H125076   4.001   1.017   6.581
 8377TIP3    H225077   4.073   0.949   6.467
 8378TIP3   OH225078   2.907   1.050   2.987
 8378TIP3    H125079   2.918   1.045   3.082
 8378TIP3    H225080   2.996   1.059   2.953
 8379TIP3   OH225081   5.085   3.581   4.514
 8379TIP3    H125082   5.116   3.550   4.600
 8379TIP3    H225083   5.009   3.635   4.534
 8380TIP3   OH225084   7.861   4.763   0.360
 8380TIP3    H125085   7.805   4.777   0.283
 8380TIP3    H225086   7.800   4.744   0.431
 8381TIP3   OH225087   4.787   1.723   3.660
 8381TIP3    H125088   4.761   1.770   3.581
 8381TIP3    H225089   4.706   1.710   3.708
 8382TIP3   OH225090   5.870   4.917   1.641
 8382TIP3    H125091   5.869   5.012   1.629
 8382TIP3    H225092   5.840   4.904   1.730
 8383TIP3   OH225093   5.692   2.027   2.146
 8383TIP3    H125094   5.717   1.936   2.163
 8383TIP3    H225095   5.617   2.042   2.202
 8384TIP3   OH225096   1.053   4.553   2.793
 8384TIP3    H125097   1.102   4.500   2.856
 8384TIP3    H225098   1.121   4.591   2.736
 8385TIP3   OH225099   0.536   2.480   4.369
 8385TIP3    H125100   0.616   2.427   4.366
 8385TIP3    H225101   0.497   2.459   4.454
 8386TIP3   OH225102   1.013   5.169   4.451
 8386TIP3    H125103   1.058   5.101   4.501
 8386TIP3    H225104   0.939   5.195   4.506
 8387TIP3   OH225105   1.855   1.819   0.000
 8387TIP3    H125106   1.825   1.735  -0.035
 8387TIP3    H225107   1.850   1.809   0.095
 8388TIP3   OH225108   4.138   7.110   6.466
 8388TIP3    H125109   4.123   7.204   6.455
 8388TIP3    H225110   4.159   7.100   6.559
 8389TIP3   OH225111   6.867   2.851   1.895
 8389TIP3    H125112   6.852   2.919   1.830
 8389TIP3    H225113   6.859   2.769   1.846
 8390TIP3   OH225114   0.847   6.268   6.532
 8390TIP3    H125115   0.841   6.256   6.437
 8390TIP3    H225116   0.885   6.186   6.564
 8391TIP3   OH225117   0.621   1.508   6.468
 8391TIP3    H125118   0.630   1.414   6.486
 8391TIP3    H225119   0.534   1.530   6.501
 8392TIP3   OH225120   4.064   6.684   0.431
 8392TIP3    H125121   4.032   6.597   0.455
 8392TIP3    H225122   3.987   6.729   0.398
 8393TIP3   OH225123   2.392   2.065   1.871
 8393TIP3    H125124   2.461   2.130   1.882
 8393TIP3    H225125   2.367   2.070   1.779
 8394TIP3   OH225126   2.023   7.576   5.365
 8394TIP3    H125127   1.933   7.589   5.332
 8394TIP3    H225128   2.012   7.557   5.458
 8395TIP3   OH225129   4.450   5.153   4.418
 8395TIP3    H125130   4.453   5.242   4.383
 8395TIP3    H225131   4.412   5.163   4.505
 8396TIP3   OH225132   0.339   0.510   4.074
 8396TIP3    H125133   0.298   0.460   4.144
 8396TIP3    H225134   0.409   0.453   4.042
 8397TIP3   OH225135   1.929   7.709   2.457
 8397TIP3    H125136   1.880   7.634   2.424
 8397TIP3    H225137   1.868   7.754   2.516
 8398TIP3   OH225138   3.714   0.761   2.042
 8398TIP3    H125139   3.669   0.836   2.080
 8398TIP3    H225140   3.676   0.685   2.088
 8399TIP3   OH225141   3.256   3.146   2.134
 8399TIP3    H125142   3.193   3.203   2.091
 8399TIP3    H225143   3.321   3.128   2.067
 8400TIP3   OH225144   5.035   4.685   3.906
 8400TIP3    H125145   5.033   4.614   3.842
 8400TIP3    H225146   4.944   4.699   3.931
 8401TIP3   OH225147   3.402   3.813   5.732
 8401TIP3    H125148   3.379   3.729   5.694
 8401TIP3    H225149   3.441   3.862   5.660
 8402TIP3   OH225150   1.998   6.856   6.634
 8402TIP3    H125151   1.981   6.944   6.601
 8402TIP3    H225152   1.913   6.812   6.631
 8403TIP3   OH225153   2.960   3.701   5.000
 8403TIP3    H125154   2.917   3.747   5.072
 8403TIP3    H225155   2.911   3.619   4.991
 8404TIP3   OH225156   3.186   1.444   3.146
 8404TIP3    H125157   3.214   1.363   3.105
 8404TIP3    H225158   3.237   1.450   3.226
 8405TIP3   OH225159   2.038   3.976   5.059
 8405TIP3    H125160   2.021   3.988   5.153
 8405TIP3    H225161   1.988   3.898   5.035
 8406TIP3   OH225162   0.468   2.747   4.262
 8406TIP3    H125163   0.485   2.706   4.347
 8406TIP3    H225164   0.553   2.747   4.218
 8407TIP3   OH225165   5.212   5.564   3.808
 8407TIP3    H125166   5.133   5.599   3.849
 8407TIP3    H225167   5.222   5.614   3.727
 8408TIP3   OH225168   1.617   5.323   6.072
 8408TIP3    H125169   1.623   5.345   5.979
 8408TIP3    H225170   1.550   5.382   6.107
 8409TIP3   OH225171   3.942   4.773   6.228
 8409TIP3    H125172   3.935   4.678   6.217
 8409TIP3    H225173   3.977   4.784   6.316
 8410TIP3   OH225174   5.715   3.470   1.554
 8410TIP3    H125175   5.629   3.504   1.528
 8410TIP3    H225176   5.766   3.470   1.473
 8411TIP3   OH225177   6.631   5.214   0.222
 8411TIP3    H125178   6.547   5.212   0.178
 8411TIP3    H225179   6.672   5.130   0.201
 8412TIP3   OH225180   6.284   5.718   3.955
 8412TIP3    H125181   6.241   5.799   3.983
 8412TIP3    H225182   6.364   5.714   4.006
 8413TIP3   OH225183   7.574   7.040   0.844
 8413TIP3    H125184   7.649   7.070   0.792
 8413TIP3    H225185   7.548   6.957   0.802
 8414TIP3   OH225186   5.946   4.435   4.890
 8414TIP3    H125187   6.004   4.478   4.827
 8414TIP3    H225188   5.982   4.347   4.900
 8415TIP3   OH225189   4.915   3.936   3.961
 8415TIP3    H125190   4.840   3.881   3.939
 8415TIP3    H225191   4.911   3.946   4.056
 8416TIP3   OH225192   7.409   5.763   4.466
 8416TIP3    H125193   7.354   5.698   4.424
 8416TIP3    H225194   7.494   5.754   4.423
 8417TIP3   OH225195   7.004   0.909   0.698
 8417TIP3    H125196   6.937   0.853   0.658
 8417TIP3    H225197   7.042   0.957   0.624
 8418TIP3   OH225198   2.130   6.968   3.020
 8418TIP3    H125199   2.171   6.934   2.940
 8418TIP3    H225200   2.051   6.915   3.031
 8419TIP3   OH225201   2.658   0.989   4.324
 8419TIP3    H125202   2.705   0.981   4.407
 8419TIP3    H225203   2.626   1.079   4.323
 8420TIP3   OH225204   2.834   2.367   5.583
 8420TIP3    H125205   2.810   2.275   5.573
 8420TIP3    H225206   2.907   2.380   5.523
 8421TIP3   OH225207   5.356   5.210   4.290
 8421TIP3    H125208   5.299   5.234   4.216
 8421TIP3    H225209   5.440   5.191   4.250
 8422TIP3   OH225210   5.172   6.906   3.786
 8422TIP3    H125211   5.089   6.944   3.756
 8422TIP3    H225212   5.154   6.875   3.874
 8423TIP3   OH225213   0.168   3.168   6.137
 8423TIP3    H125214   0.075   3.181   6.151
 8423TIP3    H225215   0.175   3.079   6.103
 8424TIP3   OH225216   5.566   4.874   1.242
 8424TIP3    H125217   5.606   4.928   1.174
 8424TIP3    H225218   5.640   4.838   1.292
 8425TIP3   OH225219   7.131   7.185   4.851
 8425TIP3    H125220   7.143   7.118   4.918
 8425TIP3    H225221   7.080   7.253   4.894
 8426TIP3   OH225222   0.860   5.030   0.650
 8426TIP3    H125223   0.785   5.054   0.704
 8426TIP3    H225224   0.891   5.112   0.612
 8427TIP3   OH225225   0.844   4.919   3.693
 8427TIP3    H125226   0.840   4.855   3.764
 8427TIP3    H225227   0.848   4.866   3.613
 8428TIP3   OH225228   7.987   3.531   2.041
 8428TIP3    H125229   7.892   3.530   2.049
 8428TIP3    H225230   8.007   3.458   1.983
 8429TIP3   OH225231   7.849   6.082   6.593
 8429TIP3    H125232   7.874   6.070   6.684
 8429TIP3    H225233   7.930   6.103   6.547
 8430TIP3   OH225234   2.957   0.657   1.993
 8430TIP3    H125235   2.981   0.674   1.902
 8430TIP3    H225236   2.915   0.571   1.992
 8431TIP3   OH225237   6.032   3.722   1.597
 8431TIP3    H125238   5.978   3.736   1.674
 8431TIP3    H225239   6.122   3.721   1.631
 8432TIP3   OH225240   3.967   7.525   4.915
 8432TIP3    H125241   3.974   7.439   4.957
 8432TIP3    H225242   3.935   7.583   4.985
 8433TIP3   OH225243   7.635   7.624   1.950
 8433TIP3    H125244   7.711   7.669   1.986
 8433TIP3    H225245   7.635   7.648   1.857
 8434TIP3   OH225246   3.628   7.547   3.331
 8434TIP3    H125247   3.553   7.588   3.289
 8434TIP3    H225248   3.687   7.526   3.259
 8435TIP3   OH225249   4.262   3.024   4.689
 8435TIP3    H125250   4.211   3.100   4.717
 8435TIP3    H225251   4.269   2.970   4.768
 8436TIP3   OH225252   4.142   1.940   4.134
 8436TIP3    H125253   4.180   2.020   4.172
 8436TIP3    H225254   4.172   1.870   4.193
 8437TIP3   OH225255   2.341   6.044   0.529
 8437TIP3    H125256   2.326   6.125   0.480
 8437TIP3    H225257   2.317   6.065   0.619
 8438TIP3   OH225258   7.434   2.927   1.454
 8438TIP3    H125259   7.517   2.899   1.491
 8438TIP3    H225260   7.406   3.000   1.508
 8439TIP3   OH225261   4.688   3.079   4.987
 8439TIP3    H125262   4.781   3.066   5.005
 8439TIP3    H225263   4.652   2.990   4.983
 8440TIP3   OH225264   7.175   0.578   5.102
 8440TIP3    H125265   7.188   0.545   5.013
 8440TIP3    H225266   7.262   0.606   5.130
 8441TIP3   OH225267   5.339   0.465   5.888
 8441TIP3    H125268   5.430   0.493   5.879
 8441TIP3    H225269   5.288   0.542   5.862
 8442TIP3   OH225270   2.518   1.010   5.311
 8442TIP3    H125271   2.450   1.066   5.347
 8442TIP3    H225272   2.474   0.963   5.240
 8443TIP3   OH225273   5.109   7.376   0.128
 8443TIP3    H125274   5.186   7.410   0.174
 8443TIP3    H225275   5.130   7.284   0.111
 8444TIP3   OH225276   2.670   6.726   3.308
 8444TIP3    H125277   2.652   6.796   3.371
 8444TIP3    H225278   2.731   6.668   3.354
 8445TIP3   OH225279   5.895   2.858   3.689
 8445TIP3    H125280   5.978   2.834   3.649
 8445TIP3    H225281   5.861   2.928   3.634
 8446TIP3   OH225282   3.253   4.650   6.639
 8446TIP3    H125283   3.306   4.586   6.685
 8446TIP3    H225284   3.315   4.699   6.585
 8447TIP3   OH225285   3.060   3.436   2.358
 8447TIP3    H125286   3.151   3.463   2.372
 8447TIP3    H225287   3.033   3.481   2.278
 8448TIP3   OH225288   4.679   5.604   4.793
 8448TIP3    H125289   4.598   5.563   4.762
 8448TIP3    H225290   4.738   5.531   4.810
 8449TIP3   OH225291   7.756   0.819   1.578
 8449TIP3    H125292   7.749   0.900   1.628
 8449TIP3    H225293   7.669   0.804   1.544
 8450TIP3   OH225294   0.127   1.565   1.810
 8450TIP3    H125295   0.115   1.572   1.715
 8450TIP3    H225296   0.182   1.488   1.822
 8451TIP3   OH225297   6.734   5.485   3.937
 8451TIP3    H125298   6.697   5.399   3.956
 8451TIP3    H225299   6.765   5.516   4.022
 8452TIP3   OH225300   2.650   3.249   1.212
 8452TIP3    H125301   2.709   3.304   1.161
 8452TIP3    H225302   2.708   3.193   1.263
 8453TIP3   OH225303   7.674   2.919   3.939
 8453TIP3    H125304   7.752   2.864   3.938
 8453TIP3    H225305   7.628   2.897   3.858
 8454TIP3   OH225306   3.965   3.517   3.047
 8454TIP3    H125307   4.028   3.486   3.111
 8454TIP3    H225308   3.892   3.552   3.099
 8455TIP3   OH225309   4.630   6.129   6.455
 8455TIP3    H125310   4.570   6.140   6.382
 8455TIP3    H225311   4.613   6.040   6.487
 8456TIP3   OH225312   0.837   2.221   6.146
 8456TIP3    H125313   0.921   2.195   6.108
 8456TIP3    H225314   0.837   2.317   6.142
 8457TIP3   OH225315   0.614   6.824   3.057
 8457TIP3    H125316   0.621   6.730   3.075
 8457TIP3    H225317   0.682   6.864   3.111
 8458TIP3   OH225318   3.822   3.486   4.599
 8458TIP3    H125319   3.893   3.492   4.662
 8458TIP3    H225320   3.799   3.577   4.579
 8459TIP3   OH225321   3.083   6.822   4.427
 8459TIP3    H125322   3.078   6.782   4.514
 8459TIP3    H225323   2.995   6.857   4.412
 8460TIP3   OH225324   7.744   3.703   5.581
 8460TIP3    H125325   7.825   3.726   5.625
 8460TIP3    H225326   7.688   3.667   5.649
 8461TIP3   OH225327   7.885   2.695   4.211
 8461TIP3    H125328   7.933   2.723   4.134
 8461TIP3    H225329   7.953   2.673   4.275
 8462TIP3   OH225330   7.536   3.424   6.345
 8462TIP3    H125331   7.510   3.507   6.385
 8462TIP3    H225332   7.462   3.403   6.287
 8463TIP3   OH225333   3.759   2.704   1.723
 8463TIP3    H125334   3.769   2.619   1.765
 8463TIP3    H225335   3.813   2.763   1.776
 8464TIP3   OH225336   4.782   1.405   1.267
 8464TIP3    H125337   4.693   1.421   1.297
 8464TIP3    H225338   4.787   1.310   1.256
 8465TIP3   OH225339   3.242   0.668   5.654
 8465TIP3    H125340   3.153   0.646   5.681
 8465TIP3    H225341   3.247   0.640   5.563
 8466TIP3   OH225342   3.879   2.133   5.031
 8466TIP3    H125343   3.855   2.212   5.078
 8466TIP3    H225344   3.967   2.112   5.063
 8467TIP3   OH225345   5.743   3.261   1.279
 8467TIP3    H125346   5.744   3.166   1.292
 8467TIP3    H225347   5.824   3.292   1.319
 8468TIP3   OH225348   0.025   2.335   4.758
 8468TIP3    H125349   0.058   2.246   4.743
 8468TIP3    H225350   0.055   2.385   4.682
 8469TIP3   OH225351   6.499   0.215   5.287
 8469TIP3    H125352   6.479   0.296   5.240
 8469TIP3    H225353   6.569   0.240   5.348
 8470TIP3   OH225354   6.965   5.938   2.489
 8470TIP3    H125355   6.959   5.856   2.439
 8470TIP3    H225356   6.936   6.006   2.427
 8471TIP3   OH225357   3.977   4.327   3.808
 8471TIP3    H125358   4.027   4.293   3.734
 8471TIP3    H225359   4.012   4.280   3.884
 8472TIP3   OH225360   5.629   0.834   5.597
 8472TIP3    H125361   5.679   0.916   5.604
 8472TIP3    H225362   5.586   0.840   5.511
 8473TIP3   OH225363   8.148   2.860   1.030
 8473TIP3    H125364   8.087   2.905   1.089
 8473TIP3    H225365   8.136   2.767   1.051
 8474TIP3   OH225366   7.684   4.715   0.564
 8474TIP3    H125367   7.590   4.728   0.549
 8474TIP3    H225368   7.697   4.735   0.657
 8475TIP3   OH225369   4.726   4.049   3.337
 8475TIP3    H125370   4.655   4.086   3.285
 8475TIP3    H225371   4.756   4.121   3.392
 8476TIP3   OH225372   4.294   6.078   1.655
 8476TIP3    H125373   4.382   6.116   1.648
 8476TIP3    H225374   4.272   6.052   1.565
 8477TIP3   OH225375   4.276   6.136   0.460
 8477TIP3    H125376   4.339   6.186   0.512
 8477TIP3    H225377   4.302   6.045   0.472
 8478TIP3   OH225378   4.787   2.153   3.829
 8478TIP3    H125379   4.805   2.110   3.746
 8478TIP3    H225380   4.774   2.080   3.891
 8479TIP3   OH225381   4.297   2.021   2.658
 8479TIP3    H125382   4.308   1.991   2.568
 8479TIP3    H225383   4.384   2.047   2.686
 8480TIP3   OH225384   2.766   7.328   4.582
 8480TIP3    H125385   2.685   7.280   4.563
 8480TIP3    H225386   2.760   7.408   4.530
 8481TIP3   OH225387   3.540   7.590   5.060
 8481TIP3    H125388   3.542   7.593   5.155
 8481TIP3    H225389   3.517   7.500   5.039
 8482TIP3   OH225390   6.254   6.795   3.356
 8482TIP3    H125391   6.342   6.758   3.365
 8482TIP3    H225392   6.202   6.751   3.422
 8483TIP3   OH225393   7.366   1.334   4.669
 8483TIP3    H125394   7.433   1.299   4.727
 8483TIP3    H225395   7.284   1.319   4.715
 8484TIP3   OH225396   4.252   1.263   3.027
 8484TIP3    H125397   4.320   1.331   3.028
 8484TIP3    H225398   4.172   1.310   3.005
 8485TIP3   OH225399   2.414   4.600   3.260
 8485TIP3    H125400   2.449   4.550   3.186
 8485TIP3    H225401   2.470   4.677   3.265
 8486TIP3   OH225402   3.293   2.244   5.053
 8486TIP3    H125403   3.368   2.184   5.052
 8486TIP3    H225404   3.309   2.302   4.978
 8487TIP3   OH225405   5.131   3.553   6.702
 8487TIP3    H125406   5.081   3.635   6.702
 8487TIP3    H225407   5.160   3.542   6.611
 8488TIP3   OH225408   0.367   3.488   0.793
 8488TIP3    H125409   0.381   3.546   0.718
 8488TIP3    H225410   0.287   3.440   0.771
 8489TIP3   OH225411   0.360   2.054   5.357
 8489TIP3    H125412   0.297   2.123   5.334
 8489TIP3    H225413   0.317   2.004   5.427
 8490TIP3   OH225414   0.728   5.407   6.227
 8490TIP3    H125415   0.736   5.433   6.135
 8490TIP3    H225416   0.793   5.338   6.238
 8491TIP3   OH225417   7.425   5.545   3.014
 8491TIP3    H125418   7.456   5.474   2.958
 8491TIP3    H225419   7.358   5.505   3.069
 8492TIP3   OH225420   2.599   7.182   1.015
 8492TIP3    H125421   2.592   7.142   0.929
 8492TIP3    H225422   2.677   7.237   1.009
 8493TIP3   OH225423   2.443   5.872   3.015
 8493TIP3    H125424   2.515   5.919   3.056
 8493TIP3    H225425   2.385   5.849   3.088
 8494TIP3   OH225426   0.997   7.255   5.085
 8494TIP3    H125427   0.959   7.177   5.044
 8494TIP3    H225428   1.071   7.277   5.029
 8495TIP3   OH225429   5.234   0.550   1.626
 8495TIP3    H125430   5.177   0.606   1.678
 8495TIP3    H225431   5.231   0.465   1.670
 8496TIP3   OH225432   0.184   5.540   1.153
 8496TIP3    H125433   0.201   5.454   1.114
 8496TIP3    H225434   0.144   5.590   1.082
 8497TIP3   OH225435   5.932   0.667   4.871
 8497TIP3    H125436   5.971   0.580   4.866
 8497TIP3    H225437   5.874   0.663   4.948
 8498TIP3   OH225438   3.871   4.793   1.281
 8498TIP3    H125439   3.834   4.741   1.210
 8498TIP3    H225440   3.866   4.883   1.249
 8499TIP3   OH225441   3.309   7.129   6.701
 8499TIP3    H125442   3.307   7.180   6.620
 8499TIP3    H225443   3.338   7.042   6.674
 8500TIP3   OH225444   5.243   3.594   1.531
 8500TIP3    H125445   5.240   3.569   1.439
 8500TIP3    H225446   5.284   3.681   1.531
 8501TIP3   OH225447   3.268   4.400   3.469
 8501TIP3    H125448   3.217   4.481   3.461
 8501TIP3    H225449   3.357   4.430   3.489
 8502TIP3   OH225450   2.610   1.063   0.209
 8502TIP3    H125451   2.555   1.118   0.153
 8502TIP3    H225452   2.693   1.111   0.215
 8503TIP3   OH225453   7.388   5.997   0.551
 8503TIP3    H125454   7.448   6.025   0.482
 8503TIP3    H225455   7.369   5.905   0.530
 8504TIP3   OH225456   1.334   3.587   5.475
 8504TIP3    H125457   1.343   3.497   5.506
 8504TIP3    H225458   1.409   3.599   5.416
 8505TIP3   OH225459   1.870  -0.006   1.536
 8505TIP3    H125460   1.868   0.083   1.571
 8505TIP3    H225461   1.891  -0.061   1.612
 8506TIP3   OH225462   1.332   5.409   1.105
 8506TIP3    H125463   1.387   5.395   1.028
 8506TIP3    H225464   1.392   5.408   1.179
 8507TIP3   OH225465   7.981   0.344   3.355
 8507TIP3    H125466   8.049   0.366   3.291
 8507TIP3    H225467   8.030   0.324   3.435
 8508TIP3   OH225468   2.562   6.790   4.726
 8508TIP3    H125469   2.478   6.744   4.732
 8508TIP3    H225470   2.549   6.852   4.655
 8509TIP3   OH225471   2.410   6.113   3.301
 8509TIP3    H125472   2.395   6.160   3.219
 8509TIP3    H225473   2.325   6.076   3.324
 8510TIP3   OH225474   0.054   1.351   4.153
 8510TIP3    H125475   0.038   1.393   4.068
 8510TIP3    H225476   0.128   1.399   4.190
 8511TIP3   OH225477   0.981   5.986   3.407
 8511TIP3    H125478   1.018   5.910   3.360
 8511TIP3    H225479   0.937   6.037   3.339
 8512TIP3   OH225480   3.861   5.856   2.411
 8512TIP3    H125481   3.944   5.901   2.394
 8512TIP3    H225482   3.824   5.904   2.485
 8513TIP3   OH225483   1.065   6.966   0.260
 8513TIP3    H125484   0.995   6.996   0.202
 8513TIP3    H225485   1.079   6.874   0.235
 8514TIP3   OH225486   1.348   2.270   1.882
 8514TIP3    H125487   1.305   2.207   1.939
 8514TIP3    H225488   1.398   2.327   1.941
 8515TIP3   OH225489   8.065   3.474   0.965
 8515TIP3    H125490   8.068   3.569   0.964
 8515TIP3    H225491   7.991   3.453   1.023
 8516TIP3   OH225492   6.195   0.390   1.230
 8516TIP3    H125493   6.178   0.366   1.321
 8516TIP3    H225494   6.268   0.334   1.204
 8517TIP3   OH225495   6.639   2.785   4.690
 8517TIP3    H125496   6.662   2.863   4.740
 8517TIP3    H225497   6.606   2.818   4.607
 8518TIP3   OH225498   7.962   7.716   0.190
 8518TIP3    H125499   7.953   7.746   0.281
 8518TIP3    H225500   8.054   7.691   0.182
 8519TIP3   OH225501   1.897   5.553   0.214
 8519TIP3    H125502   1.982   5.525   0.246
 8519TIP3    H225503   1.867   5.480   0.159
 8520TIP3   OH225504   0.133   1.852   0.714
 8520TIP3    H125505   0.189   1.836   0.791
 8520TIP3    H225506   0.082   1.929   0.738
 8521TIP3   OH225507   7.919   6.765   1.368
 8521TIP3    H125508   7.926   6.730   1.279
 8521TIP3    H225509   7.907   6.687   1.423
 8522TIP3   OH225510   7.572   1.622   0.247
 8522TIP3    H125511   7.660   1.631   0.212
 8522TIP3    H225512   7.566   1.687   0.316
 8523TIP3   OH225513   1.212   0.030   6.149
 8523TIP3    H125514   1.143   0.080   6.193
 8523TIP3    H225515   1.259  -0.013   6.220
 8524TIP3   OH225516   1.423   7.377   0.858
 8524TIP3    H125517   1.373   7.392   0.939
 8524TIP3    H225518   1.512   7.406   0.879
 8525TIP3   OH225519   2.988   1.773   2.672
 8525TIP3    H125520   3.077   1.806   2.661
 8525TIP3    H225521   2.950   1.831   2.738
 8526TIP3   OH225522   3.281   2.487   1.913
 8526TIP3    H125523   3.343   2.454   1.847
 8526TIP3    H225524   3.334   2.544   1.969
 8527TIP3   OH225525   0.093   1.005   5.336
 8527TIP3    H125526   0.095   1.094   5.371
 8527TIP3    H225527   0.184   0.987   5.313
 8528TIP3   OH225528   0.551   4.203   3.225
 8528TIP3    H125529   0.609   4.233   3.295
 8528TIP3    H225530   0.463   4.216   3.259
 8529TIP3   OH225531   1.324   4.229   3.816
 8529TIP3    H125532   1.377   4.152   3.836
 8529TIP3    H225533   1.360   4.261   3.733
 8530TIP3   OH225534   2.968   1.499   2.635
 8530TIP3    H125535   3.035   1.533   2.576
 8530TIP3    H225536   2.950   1.572   2.695
 8531TIP3   OH225537   4.553   6.327   0.950
 8531TIP3    H125538   4.538   6.356   1.040
 8531TIP3    H225539   4.640   6.360   0.928
 8532TIP3   OH225540   6.462   4.001   6.236
 8532TIP3    H125541   6.503   4.020   6.321
 8532TIP3    H225542   6.513   4.050   6.172
 8533TIP3   OH225543   7.336   7.195   1.243
 8533TIP3    H125544   7.359   7.210   1.335
 8533TIP3    H225545   7.396   7.126   1.215
 8534TIP3   OH225546   4.693   4.994   2.441
 8534TIP3    H125547   4.720   4.997   2.349
 8534TIP3    H225548   4.710   5.083   2.473
 8535TIP3   OH225549   5.972   3.523   2.755
 8535TIP3    H125550   6.014   3.453   2.706
 8535TIP3    H225551   5.879   3.504   2.748
 8536TIP3   OH225552   7.998   3.206   0.608
 8536TIP3    H125553   7.946   3.264   0.664
 8536TIP3    H225554   7.935   3.168   0.548
 8537TIP3   OH225555   7.424   1.618   5.522
 8537TIP3    H125556   7.340   1.631   5.478
 8537TIP3    H225557   7.428   1.524   5.538
 8538TIP3   OH225558   3.052   4.408   4.549
 8538TIP3    H125559   2.990   4.478   4.527
 8538TIP3    H225560   3.031   4.387   4.640
 8539TIP3   OH225561   1.735   1.201   4.124
 8539TIP3    H125562   1.710   1.279   4.173
 8539TIP3    H225563   1.734   1.229   4.032
 8540TIP3   OH225564   0.768   5.939   4.899
 8540TIP3    H125565   0.860   5.961   4.915
 8540TIP3    H225566   0.743   5.884   4.973
 8541TIP3   OH225567   7.764   0.641   2.981
 8541TIP3    H125568   7.781   0.735   2.985
 8541TIP3    H225569   7.701   0.625   3.051
 8542TIP3   OH225570   3.079   2.065   0.715
 8542TIP3    H125571   3.041   2.036   0.632
 8542TIP3    H225572   3.056   2.158   0.720
 8543TIP3   OH225573   2.506   4.994   5.200
 8543TIP3    H125574   2.440   4.925   5.193
 8543TIP3    H225575   2.455   5.073   5.218
 8544TIP3   OH225576   0.249   7.141   5.367
 8544TIP3    H125577   0.314   7.144   5.298
 8544TIP3    H225578   0.225   7.233   5.381
 8545TIP3   OH225579   8.153   6.103   2.886
 8545TIP3    H125580   8.246   6.106   2.908
 8545TIP3    H225581   8.148   6.041   2.813
 8546TIP3   OH225582   2.287   7.213   2.996
 8546TIP3    H125583   2.250   7.132   3.030
 8546TIP3    H225584   2.275   7.207   2.901
 8547TIP3   OH225585   6.355   1.404   2.640
 8547TIP3    H125586   6.358   1.457   2.560
 8547TIP3    H225587   6.265   1.412   2.671
 8548TIP3   OH225588   6.826   0.826   4.310
 8548TIP3    H125589   6.824   0.921   4.301
 8548TIP3    H225590   6.815   0.811   4.404
 8549TIP3   OH225591   5.622   4.412   3.766
 8549TIP3    H125592   5.588   4.417   3.677
 8549TIP3    H225593   5.575   4.339   3.806
 8550TIP3   OH225594   6.486   0.195   5.696
 8550TIP3    H125595   6.496   0.244   5.778
 8550TIP3    H225596   6.462   0.261   5.631
 8551TIP3   OH225597   2.203   0.053   1.084
 8551TIP3    H125598   2.117   0.072   1.121
 8551TIP3    H225599   2.223  -0.036   1.112
 8552TIP3   OH225600   1.454   0.477   1.948
 8552TIP3    H125601   1.410   0.541   1.893
 8552TIP3    H225602   1.412   0.485   2.033
 8553TIP3   OH225603   4.661   0.511   1.206
 8553TIP3    H125604   4.749   0.534   1.237
 8553TIP3    H225605   4.663   0.416   1.196
 8554TIP3   OH225606   4.763   2.393   3.482
 8554TIP3    H125607   4.853   2.403   3.453
 8554TIP3    H225608   4.770   2.371   3.575
 8555TIP3   OH225609   7.539   7.043   1.125
 8555TIP3    H125610   7.544   7.010   1.035
 8555TIP3    H225611   7.504   6.969   1.176
 8556TIP3   OH225612   6.167   5.735   4.299
 8556TIP3    H125613   6.255   5.718   4.333
 8556TIP3    H225614   6.182   5.787   4.220
 8557TIP3   OH225615   4.582   7.522   1.347
 8557TIP3    H125616   4.604   7.480   1.263
 8557TIP3    H225617   4.509   7.579   1.326
 8558TIP3   OH225618   1.534   3.532   5.787
 8558TIP3    H125619   1.564   3.622   5.800
 8558TIP3    H225620   1.598   3.494   5.727
 8559TIP3   OH225621   5.862   4.674   0.666
 8559TIP3    H125622   5.941   4.686   0.718
 8559TIP3    H225623   5.875   4.589   0.623
 8560TIP3   OH225624   1.038   3.776   5.253
 8560TIP3    H125625   0.962   3.832   5.268
 8560TIP3    H225626   1.068   3.752   5.341
 8561TIP3   OH225627   0.005   6.783   1.984
 8561TIP3    H125628  -0.026   6.705   2.028
 8561TIP3    H225629   0.100   6.784   1.999
 8562TIP3   OH225630   4.590   3.249   2.803
 8562TIP3    H125631   4.541   3.208   2.732
 8562TIP3    H225632   4.528   3.253   2.876
 8563TIP3   OH225633   1.711   3.270   3.403
 8563TIP3    H125634   1.651   3.340   3.429
 8563TIP3    H225635   1.762   3.252   3.481
 8564TIP3   OH225636   8.019   6.453   3.794
 8564TIP3    H125637   8.103   6.440   3.750
 8564TIP3    H225638   7.981   6.365   3.798
 8565TIP3   OH225639   0.622   0.248   0.665
 8565TIP3    H125640   0.685   0.317   0.642
 8565TIP3    H225641   0.630   0.239   0.760
 8566TIP3   OH225642   6.843   6.087   3.838
 8566TIP3    H125643   6.822   6.130   3.755
 8566TIP3    H225644   6.931   6.118   3.859
 8567TIP3   OH225645   5.672   4.103   5.965
 8567TIP3    H125646   5.721   4.098   5.884
 8567TIP3    H225647   5.725   4.056   6.029
 8568TIP3   OH225648   2.112   3.824   5.962
 8568TIP3    H125649   2.022   3.832   5.992
 8568TIP3    H225650   2.119   3.888   5.891
 8569TIP3   OH225651   4.870   4.345   2.625
 8569TIP3    H125652   4.836   4.256   2.633
 8569TIP3    H225653   4.800   4.393   2.581
 8570TIP3   OH225654   7.502   5.940   1.820
 8570TIP3    H125655   7.499   6.016   1.761
 8570TIP3    H225656   7.413   5.903   1.815
 8571TIP3   OH225657   0.221   0.532   6.672
 8571TIP3    H125658   0.128   0.525   6.650
 8571TIP3    H225659   0.259   0.580   6.599
 8572TIP3   OH225660   2.133   6.354   0.925
 8572TIP3    H125661   2.142   6.398   1.009
 8572TIP3    H225662   2.075   6.411   0.874
 8573TIP3   OH225663   7.858   1.923   2.356
 8573TIP3    H125664   7.954   1.921   2.351
 8573TIP3    H225665   7.836   1.859   2.424
 8574TIP3   OH225666   4.510   2.006   6.129
 8574TIP3    H125667   4.478   2.010   6.219
 8574TIP3    H225668   4.435   2.030   6.075
 8575TIP3   OH225669   6.622   4.426   1.414
 8575TIP3    H125670   6.659   4.473   1.339
 8575TIP3    H225671   6.698   4.404   1.468
 8576TIP3   OH225672   7.694   2.474   1.468
 8576TIP3    H125673   7.634   2.508   1.534
 8576TIP3    H225674   7.709   2.383   1.493
 8577TIP3   OH225675   1.051   3.138   5.236
 8577TIP3    H125676   1.003   3.097   5.309
 8577TIP3    H225677   1.084   3.220   5.273
 8578TIP3   OH225678   4.904   5.104   5.582
 8578TIP3    H125679   4.835   5.169   5.594
 8578TIP3    H225680   4.859   5.020   5.586
 8579TIP3   OH225681   4.325   0.809   3.746
 8579TIP3    H125682   4.272   0.887   3.761
 8579TIP3    H225683   4.404   0.823   3.798
 8580TIP3   OH225684   5.344   1.718   1.674
 8580TIP3    H125685   5.303   1.675   1.749
 8580TIP3    H225686   5.424   1.667   1.658
 8581TIP3   OH225687   2.378   1.480   1.967
 8581TIP3    H125688   2.310   1.416   1.988
 8581TIP3    H225689   2.358   1.506   1.877
 8582TIP3   OH225690   1.147   4.919   2.005
 8582TIP3    H125691   1.102   5.000   2.029
 8582TIP3    H225692   1.172   4.932   1.913
 8583TIP3   OH225693   2.324   3.769   6.567
 8583TIP3    H125694   2.362   3.850   6.600
 8583TIP3    H225695   2.382   3.742   6.497
 8584TIP3   OH225696   6.795   1.824   3.578
 8584TIP3    H125697   6.716   1.831   3.524
 8584TIP3    H225698   6.801   1.909   3.622
 8585TIP3   OH225699   5.710   4.498   3.184
 8585TIP3    H125700   5.712   4.543   3.100
 8585TIP3    H225701   5.754   4.414   3.167
 8586TIP3   OH225702   6.398   1.685   2.538
 8586TIP3    H125703   6.371   1.768   2.498
 8586TIP3    H225704   6.347   1.681   2.619
 8587TIP3   OH225705   3.940   6.041   3.043
 8587TIP3    H125706   3.936   6.064   3.136
 8587TIP3    H225707   4.021   6.080   3.012
 8588TIP3   OH225708   1.242   1.653   6.090
 8588TIP3    H125709   1.174   1.648   6.156
 8588TIP3    H225710   1.223   1.733   6.040
 8589TIP3   OH225711   3.730   4.642   4.614
 8589TIP3    H125712   3.775   4.725   4.632
 8589TIP3    H225713   3.651   4.668   4.565
 8590TIP3   OH225714   5.801   2.269   6.735
 8590TIP3    H125715   5.798   2.205   6.806
 8590TIP3    H225716   5.850   2.225   6.665
 8591TIP3   OH225717   7.368   4.455   3.538
 8591TIP3    H125718   7.441   4.513   3.515
 8591TIP3    H225719   7.348   4.408   3.457
 8592TIP3   OH225720   6.989   4.061   0.616
 8592TIP3    H125721   6.894   4.068   0.605
 8592TIP3    H225722   7.000   4.001   0.691
 8593TIP3   OH225723   1.840   5.249   2.070
 8593TIP3    H125724   1.790   5.183   2.119
 8593TIP3    H225725   1.925   5.208   2.054
 8594TIP3   OH225726   3.820   5.012   3.822
 8594TIP3    H125727   3.903   4.965   3.824
 8594TIP3    H225728   3.810   5.040   3.731
 8595TIP3   OH225729   1.940   1.928   5.368
 8595TIP3    H125730   1.953   2.016   5.405
 8595TIP3    H225731   1.845   1.920   5.360
 8596TIP3   OH225732   1.688   1.071   0.711
 8596TIP3    H125733   1.764   1.126   0.694
 8596TIP3    H225734   1.635   1.122   0.772
 8597TIP3   OH225735   6.614   7.193   5.199
 8597TIP3    H125736   6.573   7.107   5.208
 8597TIP3    H225737   6.708   7.177   5.213
 8598TIP3   OH225738   2.443   6.004   2.568
 8598TIP3    H125739   2.492   5.940   2.516
 8598TIP3    H225740   2.352   5.992   2.540
 8599TIP3   OH225741   8.248   0.923   3.596
 8599TIP3    H125742   8.198   0.842   3.590
 8599TIP3    H225743   8.223   0.960   3.681
 8600TIP3   OH225744   7.598   1.030   0.910
 8600TIP3    H125745   7.544   0.997   0.981
 8600TIP3    H225746   7.585   1.125   0.912
 8601TIP3   OH225747   0.043   3.414   1.072
 8601TIP3    H125748   0.055   3.457   0.988
 8601TIP3    H225749  -0.052   3.415   1.087
 8602TIP3   OH225750   4.460   3.115   2.030
 8602TIP3    H125751   4.496   3.146   2.113
 8602TIP3    H225752   4.509   3.034   2.012
 8603TIP3   OH225753   1.929   7.398   3.234
 8603TIP3    H125754   1.859   7.401   3.168
 8603TIP3    H225755   2.010   7.404   3.183
 8604TIP3   OH225756   4.636   5.041   1.157
 8604TIP3    H125757   4.598   5.089   1.083
 8604TIP3    H225758   4.731   5.048   1.144
 8605TIP3   OH225759   2.488   1.343   6.388
 8605TIP3    H125760   2.457   1.358   6.477
 8605TIP3    H225761   2.580   1.318   6.399
 8606TIP3   OH225762   1.317   0.875   3.537
 8606TIP3    H125763   1.320   0.868   3.441
 8606TIP3    H225764   1.324   0.784   3.568
 8607TIP3   OH225765   4.986   5.283   0.204
 8607TIP3    H125766   4.933   5.362   0.207
 8607TIP3    H225767   5.066   5.307   0.251
 8608TIP3   OH225768   0.254   2.626   0.271
 8608TIP3    H125769   0.228   2.675   0.349
 8608TIP3    H225770   0.235   2.534   0.293
 8609TIP3   OH225771   4.725   5.955   6.020
 8609TIP3    H125772   4.634   5.930   6.040
 8609TIP3    H225773   4.756   5.886   5.962
 8610TIP3   OH225774   2.168   0.914   2.399
 8610TIP3    H125775   2.156   0.925   2.494
 8610TIP3    H225776   2.190   1.001   2.367
 8611TIP3   OH225777   0.732   3.009   0.357
 8611TIP3    H125778   0.822   3.036   0.341
 8611TIP3    H225779   0.681   3.090   0.351
 8612TIP3   OH225780   2.795   7.649   0.449
 8612TIP3    H125781   2.800   7.589   0.375
 8612TIP3    H225782   2.703   7.645   0.477
 8613TIP3   OH225783   6.823   6.487   1.633
 8613TIP3    H125784   6.876   6.533   1.698
 8613TIP3    H225785   6.752   6.447   1.684
 8614TIP3   OH225786   6.511   1.596   3.273
 8614TIP3    H125787   6.472   1.615   3.188
 8614TIP3    H225788   6.445   1.622   3.337
 8615TIP3   OH225789   1.860   3.802   6.084
 8615TIP3    H125790   1.806   3.873   6.119
 8615TIP3    H225791   1.832   3.724   6.132
 8616TIP3   OH225792   3.144   3.440   4.611
 8616TIP3    H125793   3.200   3.484   4.675
 8616TIP3    H225794   3.205   3.389   4.558
 8617TIP3   OH225795   3.310   3.980   0.422
 8617TIP3    H125796   3.313   4.011   0.513
 8617TIP3    H225797   3.233   3.923   0.419
 8618TIP3   OH225798   1.250   6.471   2.642
 8618TIP3    H125799   1.278   6.414   2.714
 8618TIP3    H225800   1.329   6.483   2.589
 8619TIP3   OH225801   3.085   1.347   2.131
 8619TIP3    H125802   3.009   1.353   2.189
 8619TIP3    H225803   3.060   1.282   2.065
 8620TIP3   OH225804   5.613   6.494   2.152
 8620TIP3    H125805   5.678   6.425   2.141
 8620TIP3    H225806   5.556   6.463   2.222
 8621TIP3   OH225807   8.041   0.054   5.533
 8621TIP3    H125808   8.047  -0.040   5.513
 8621TIP3    H225809   8.093   0.064   5.613
 8622TIP3   OH225810   2.205   0.597   2.889
 8622TIP3    H125811   2.238   0.632   2.972
 8622TIP3    H225812   2.271   0.623   2.825
 8623TIP3   OH225813   7.940   5.564   5.518
 8623TIP3    H125814   7.880   5.517   5.576
 8623TIP3    H225815   7.934   5.517   5.435
 8624TIP3   OH225816   0.336   6.815   1.597
 8624TIP3    H125817   0.307   6.835   1.686
 8624TIP3    H225818   0.431   6.807   1.605
 8625TIP3   OH225819   4.304   2.162   5.305
 8625TIP3    H125820   4.233   2.220   5.331
 8625TIP3    H225821   4.296   2.086   5.363
 8626TIP3   OH225822   2.744   3.141   4.368
 8626TIP3    H125823   2.789   3.226   4.369
 8626TIP3    H225824   2.814   3.076   4.363
 8627TIP3   OH225825   4.567   2.152   5.194
 8627TIP3    H125826   4.607   2.226   5.239
 8627TIP3    H225827   4.473   2.162   5.208
 8628TIP3   OH225828   3.560   4.131   3.971
 8628TIP3    H125829   3.514   4.130   4.055
 8628TIP3    H225830   3.491   4.139   3.906
 8629TIP3   OH225831   1.497   0.536   3.392
 8629TIP3    H125832   1.483   0.449   3.430
 8629TIP3    H225833   1.551   0.518   3.314
 8630TIP3   OH225834   7.820   7.072   4.243
 8630TIP3    H125835   7.869   7.001   4.202
 8630TIP3    H225836   7.809   7.044   4.334
 8631TIP3   OH225837   6.188   0.392   6.721
 8631TIP3    H125838   6.145   0.437   6.794
 8631TIP3    H225839   6.116   0.353   6.672
 8632TIP3   OH225840   5.275   3.768   2.619
 8632TIP3    H125841   5.313   3.756   2.532
 8632TIP3    H225842   5.182   3.783   2.603
 8633TIP3   OH225843   4.070   5.904   3.973
 8633TIP3    H125844   4.104   5.987   3.938
 8633TIP3    H225845   4.129   5.882   4.045
 8634TIP3   OH225846   5.183   2.840   2.307
 8634TIP3    H125847   5.242   2.851   2.232
 8634TIP3    H225848   5.099   2.815   2.268
 8635TIP3   OH225849   8.200   4.320   6.204
 8635TIP3    H125850   8.275   4.267   6.178
 8635TIP3    H225851   8.135   4.257   6.236
 8636TIP3   OH225852   6.996   4.848   1.032
 8636TIP3    H125853   7.006   4.817   0.942
 8636TIP3    H225854   6.934   4.787   1.072
 8637TIP3   OH225855   5.943   6.529   2.034
 8637TIP3    H125856   5.953   6.603   1.975
 8637TIP3    H225857   6.028   6.485   2.031
 8638TIP3   OH225858   4.916   1.994   6.191
 8638TIP3    H125859   5.005   1.962   6.201
 8638TIP3    H225860   4.926   2.087   6.170
 8639TIP3   OH225861   3.995   1.766   2.193
 8639TIP3    H125862   4.010   1.687   2.245
 8639TIP3    H225863   3.920   1.745   2.138
 8640TIP3   OH225864   1.970   6.082   4.699
 8640TIP3    H125865   1.895   6.107   4.645
 8640TIP3    H225866   2.000   6.163   4.739
 8641TIP3   OH225867   8.203   4.998   1.198
 8641TIP3    H125868   8.236   4.979   1.110
 8641TIP3    H225869   8.282   5.006   1.251
 8642TIP3   OH225870   5.563   7.474   0.104
 8642TIP3    H125871   5.617   7.439   0.033
 8642TIP3    H225872   5.490   7.517   0.059
 8643TIP3   OH225873   0.710   7.608   2.023
 8643TIP3    H125874   0.705   7.543   1.953
 8643TIP3    H225875   0.705   7.557   2.104
 8644TIP3   OH225876   3.226   2.353   6.479
 8644TIP3    H125877   3.220   2.258   6.471
 8644TIP3    H225878   3.184   2.387   6.400
 8645TIP3   OH225879   3.805   5.005   2.036
 8645TIP3    H125880   3.761   5.058   2.103
 8645TIP3    H225881   3.735   4.972   1.981
 8646TIP3   OH225882   5.940   5.189   5.568
 8646TIP3    H125883   5.915   5.102   5.536
 8646TIP3    H225884   5.931   5.183   5.663
 8647TIP3   OH225885   4.538   7.690   4.719
 8647TIP3    H125886   4.508   7.777   4.695
 8647TIP3    H225887   4.573   7.653   4.638
 8648TIP3   OH225888   7.669   5.848   3.180
 8648TIP3    H125889   7.592   5.860   3.124
 8648TIP3    H225890   7.721   5.927   3.167
 8649TIP3   OH225891   1.273   1.581   6.704
 8649TIP3    H125892   1.242   1.569   6.615
 8649TIP3    H225893   1.248   1.671   6.727
 8650TIP3   OH225894   7.001   7.642   4.662
 8650TIP3    H125895   7.003   7.731   4.624
 8650TIP3    H225896   6.926   7.643   4.721
 8651TIP3   OH225897   7.701   2.738   0.384
 8651TIP3    H125898   7.796   2.725   0.385
 8651TIP3    H225899   7.689   2.826   0.348
 8652TIP3   OH225900   0.653   5.070   2.636
 8652TIP3    H125901   0.654   5.156   2.592
 8652TIP3    H225902   0.589   5.080   2.706
 8653TIP3   OH225903   0.920   0.098   0.129
 8653TIP3    H125904   0.949   0.131   0.214
 8653TIP3    H225905   0.985   0.031   0.107
 8654TIP3   OH225906   1.681   0.368   2.259
 8654TIP3    H125907   1.770   0.344   2.286
 8654TIP3    H225908   1.669   0.325   2.174
 8655TIP3   OH225909   4.422   7.065   5.602
 8655TIP3    H125910   4.393   7.132   5.663
 8655TIP3    H225911   4.428   6.985   5.655
 8656TIP3   OH225912   6.599   3.093   4.292
 8656TIP3    H125913   6.553   3.177   4.296
 8656TIP3    H225914   6.534   3.032   4.258
 8657TIP3   OH225915   0.985   6.190   0.919
 8657TIP3    H125916   1.033   6.120   0.876
 8657TIP3    H225917   0.985   6.262   0.857
 8658TIP3   OH225918   7.939   4.342   2.079
 8658TIP3    H125919   7.944   4.279   2.151
 8658TIP3    H225920   8.006   4.407   2.099
 8659TIP3   OH225921   5.185   5.569   2.771
 8659TIP3    H125922   5.121   5.502   2.795
 8659TIP3    H225923   5.222   5.597   2.854
 8660TIP3   OH225924   4.102   2.652   3.097
 8660TIP3    H125925   4.012   2.684   3.093
 8660TIP3    H225926   4.109   2.594   3.021
 8661TIP3   OH225927   3.328   5.946   3.608
 8661TIP3    H125928   3.298   5.911   3.692
 8661TIP3    H225929   3.390   5.882   3.575
 8662TIP3   OH225930   2.510   5.031   2.745
 8662TIP3    H125931   2.605   5.023   2.752
 8662TIP3    H225932   2.489   4.996   2.658
 8663TIP3   OH225933   6.483   0.826   2.606
 8663TIP3    H125934   6.496   0.869   2.521
 8663TIP3    H225935   6.388   0.827   2.619
 8664TIP3   OH225936   0.350   7.218   0.116
 8664TIP3    H125937   0.314   7.149   0.172
 8664TIP3    H225938   0.294   7.218   0.039
 8665TIP3   OH225939   0.354   5.317   1.307
 8665TIP3    H125940   0.390   5.393   1.353
 8665TIP3    H225941   0.428   5.280   1.260
 8666TIP3   OH225942   5.721   7.458   3.159
 8666TIP3    H125943   5.738   7.550   3.140
 8666TIP3    H225944   5.717   7.416   3.074
 8667TIP3   OH225945   1.910   7.230   0.792
 8667TIP3    H125946   1.919   7.290   0.717
 8667TIP3    H225947   1.936   7.282   0.867
 8668TIP3   OH225948   6.655   0.284   1.978
 8668TIP3    H125949   6.648   0.194   2.009
 8668TIP3    H225950   6.564   0.314   1.973
 8669TIP3   OH225951   7.773   3.542   5.265
 8669TIP3    H125952   7.685   3.544   5.228
 8669TIP3    H225953   7.783   3.454   5.300
 8670TIP3   OH225954   4.513   1.970   0.217
 8670TIP3    H125955   4.587   1.926   0.174
 8670TIP3    H225956   4.526   1.954   0.311
 8671TIP3   OH225957   1.875   6.410   4.012
 8671TIP3    H125958   1.906   6.365   3.934
 8671TIP3    H225959   1.944   6.396   4.077
 8672TIP3   OH225960   2.318   1.143   2.314
 8672TIP3    H125961   2.290   1.209   2.378
 8672TIP3    H225962   2.400   1.177   2.279
 8673TIP3   OH225963   3.877   1.427   5.977
 8673TIP3    H125964   3.839   1.363   5.916
 8673TIP3    H225965   3.848   1.397   6.063
 8674TIP3   OH225966   1.936   5.483   3.083
 8674TIP3    H125967   1.980   5.497   3.167
 8674TIP3    H225968   1.848   5.520   3.095
 8675TIP3   OH225969   1.076   5.365   3.448
 8675TIP3    H125970   1.126   5.370   3.529
 8675TIP3    H225971   1.082   5.453   3.411
 8676TIP3   OH225972   4.918   0.596   5.059
 8676TIP3    H125973   4.991   0.536   5.041
 8676TIP3    H225974   4.958   0.683   5.057
 8677TIP3   OH225975   1.079   3.032   6.584
 8677TIP3    H125976   1.173   3.037   6.572
 8677TIP3    H225977   1.043   3.041   6.495
 8678TIP3   OH225978   5.340   5.839   4.854
 8678TIP3    H125979   5.267   5.846   4.915
 8678TIP3    H225980   5.385   5.923   4.861
 8679TIP3   OH225981   5.394   4.032   1.891
 8679TIP3    H125982   5.382   4.029   1.986
 8679TIP3    H225983   5.465   3.970   1.874
 8680TIP3   OH225984   1.609   6.515   1.277
 8680TIP3    H125985   1.603   6.610   1.278
 8680TIP3    H225986   1.698   6.496   1.306
 8681TIP3   OH225987   6.730   1.706   1.821
 8681TIP3    H125988   6.699   1.776   1.879
 8681TIP3    H225989   6.826   1.710   1.828
 8682TIP3   OH225990   2.833   3.066   6.725
 8682TIP3    H125991   2.853   3.135   6.661
 8682TIP3    H225992   2.918   3.030   6.750
 8683TIP3   OH225993   3.736   3.383   3.511
 8683TIP3    H125994   3.823   3.385   3.552
 8683TIP3    H225995   3.676   3.411   3.581
 8684TIP3   OH225996   1.142   1.727   5.479
 8684TIP3    H125997   1.128   1.726   5.384
 8684TIP3    H225998   1.231   1.696   5.491
 8685TIP3   OH225999   0.159   5.643   3.815
 8685TIP3    H126000   0.198   5.706   3.753
 8685TIP3    H226001   0.080   5.686   3.846
 8686TIP3   OH226002   3.964   1.432   1.691
 8686TIP3    H126003   3.988   1.397   1.776
 8686TIP3    H226004   4.033   1.401   1.632
 8687TIP3   OH226005   0.505   0.729   1.050
 8687TIP3    H126006   0.419   0.690   1.036
 8687TIP3    H226007   0.531   0.698   1.137
 8688TIP3   OH226008   4.904   7.678   5.441
 8688TIP3    H126009   4.938   7.650   5.526
 8688TIP3    H226010   4.982   7.690   5.387
 8689TIP3   OH226011   7.273   6.423   5.907
 8689TIP3    H126012   7.298   6.332   5.925
 8689TIP3    H226013   7.264   6.427   5.812
 8690TIP3   OH226014   1.486   2.278   1.353
 8690TIP3    H126015   1.428   2.243   1.285
 8690TIP3    H226016   1.492   2.372   1.334
 8691TIP3   OH226017   7.644   7.486   5.830
 8691TIP3    H126018   7.716   7.424   5.828
 8691TIP3    H226019   7.639   7.516   5.921
 8692TIP3   OH226020   5.131   2.456   2.238
 8692TIP3    H126021   5.068   2.386   2.221
 8692TIP3    H226022   5.124   2.473   2.332
 8693TIP3   OH226023   4.193   3.933   2.788
 8693TIP3    H126024   4.178   3.945   2.694
 8693TIP3    H226025   4.162   3.844   2.805
 8694TIP3   OH226026   4.315   0.482   0.024
 8694TIP3    H126027   4.386   0.459   0.083
 8694TIP3    H226028   4.348   0.461  -0.063
 8695TIP3   OH226029   6.337   6.240   4.508
 8695TIP3    H126030   6.381   6.325   4.504
 8695TIP3    H226031   6.346   6.213   4.599
 8696TIP3   OH226032   4.638   5.299   5.506
 8696TIP3    H126033   4.607   5.281   5.595
 8696TIP3    H226034   4.626   5.393   5.495
 8697TIP3   OH226035   1.955   5.274   6.605
 8697TIP3    H126036   1.920   5.343   6.662
 8697TIP3    H226037   1.910   5.288   6.521
 8698TIP3   OH226038   3.666   1.317   4.575
 8698TIP3    H126039   3.720   1.248   4.535
 8698TIP3    H226040   3.624   1.360   4.501
 8699TIP3   OH226041   1.566   0.001   1.141
 8699TIP3    H126042   1.558   0.049   1.223
 8699TIP3    H226043   1.599   0.066   1.078
 8700TIP3   OH226044   2.696   1.820   2.029
 8700TIP3    H126045   2.615   1.776   2.054
 8700TIP3    H226046   2.727   1.773   1.952
 8701TIP3   OH226047   2.040   2.784   6.348
 8701TIP3    H126048   2.068   2.775   6.439
 8701TIP3    H226049   1.947   2.763   6.349
 8702TIP3   OH226050   2.023   7.239   2.320
 8702TIP3    H126051   2.050   7.331   2.323
 8702TIP3    H226052   2.102   7.191   2.296
 8703TIP3   OH226053   7.150   2.542   4.824
 8703TIP3    H126054   7.160   2.465   4.768
 8703TIP3    H226055   7.227   2.595   4.807
 8704TIP3   OH226056   4.608   4.024   4.643
 8704TIP3    H126057   4.624   4.119   4.644
 8704TIP3    H226058   4.687   3.986   4.681
 8705TIP3   OH226059   6.774   1.653   2.334
 8705TIP3    H126060   6.838   1.691   2.274
 8705TIP3    H226061   6.827   1.609   2.401
 8706TIP3   OH226062   4.491   6.465   1.527
 8706TIP3    H126063   4.557   6.400   1.500
 8706TIP3    H226064   4.535   6.549   1.519
 8707TIP3   OH226065   8.013   3.444   4.491
 8707TIP3    H126066   8.029   3.466   4.399
 8707TIP3    H226067   8.043   3.353   4.499
 8708TIP3   OH226068   2.711   1.391   6.609
 8708TIP3    H126069   2.623   1.354   6.616
 8708TIP3    H226070   2.724   1.439   6.691
 8709TIP3   OH226071   1.408   0.687   1.351
 8709TIP3    H126072   1.434   0.779   1.346
 8709TIP3    H226073   1.454   0.653   1.427
 8710TIP3   OH226074   6.005   2.204   2.155
 8710TIP3    H126075   5.991   2.180   2.063
 8710TIP3    H226076   5.949   2.145   2.204
 8711TIP3   OH226077   6.710   4.565   1.228
 8711TIP3    H126078   6.774   4.570   1.158
 8711TIP3    H226079   6.704   4.654   1.263
 8712TIP3   OH226080   7.904   7.735   6.016
 8712TIP3    H126081   7.878   7.657   6.065
 8712TIP3    H226082   7.933   7.702   5.931
 8713TIP3   OH226083   5.486   6.474   4.501
 8713TIP3    H126084   5.536   6.550   4.531
 8713TIP3    H226085   5.395   6.505   4.499
 8714TIP3   OH226086   8.233   0.983   4.650
 8714TIP3    H126087   8.232   0.890   4.626
 8714TIP3    H226088   8.169   1.024   4.592
 8715TIP3   OH226089   6.149   6.015   0.422
 8715TIP3    H126090   6.188   5.935   0.387
 8715TIP3    H226091   6.125   6.066   0.344
 8716TIP3   OH226092   4.150   3.172   2.635
 8716TIP3    H126093   4.144   3.234   2.707
 8716TIP3    H226094   4.180   3.091   2.676
 8717TIP3   OH226095   4.963   3.298   0.871
 8717TIP3    H126096   5.058   3.290   0.861
 8717TIP3    H226097   4.946   3.392   0.865
 8718TIP3   OH226098   2.641   4.308   6.276
 8718TIP3    H126099   2.724   4.260   6.279
 8718TIP3    H226100   2.576   4.241   6.254
 8719TIP3   OH226101   5.695   5.618   1.146
 8719TIP3    H126102   5.734   5.564   1.077
 8719TIP3    H226103   5.769   5.663   1.186
 8720TIP3   OH226104   0.126   2.088   4.763
 8720TIP3    H126105   0.130   2.002   4.720
 8720TIP3    H226106   0.209   2.097   4.808
 8721TIP3   OH226107   1.496   2.296   4.891
 8721TIP3    H126108   1.492   2.330   4.801
 8721TIP3    H226109   1.430   2.345   4.939
 8722TIP3   OH226110   3.065   5.339   2.662
 8722TIP3    H126111   3.033   5.415   2.613
 8722TIP3    H226112   3.135   5.374   2.718
 8723TIP3   OH226113   4.820   2.663   6.101
 8723TIP3    H126114   4.800   2.618   6.019
 8723TIP3    H226115   4.783   2.607   6.169
 8724TIP3   OH226116   3.232   1.293   6.284
 8724TIP3    H126117   3.138   1.301   6.303
 8724TIP3    H226118   3.241   1.330   6.196
 8725TIP3   OH226119   3.055   1.948   2.097
 8725TIP3    H126120   3.113   2.000   2.153
 8725TIP3    H226121   3.025   1.877   2.153
 8726TIP3   OH226122   2.638   7.073   4.552
 8726TIP3    H126123   2.651   7.031   4.467
 8726TIP3    H226124   2.543   7.082   4.560
 8727TIP3   OH226125   3.368   1.403   5.735
 8727TIP3    H126126   3.384   1.485   5.688
 8727TIP3    H226127   3.449   1.352   5.722
 8728TIP3   OH226128   4.487   1.522   1.724
 8728TIP3    H126129   4.530   1.592   1.772
 8728TIP3    H226130   4.398   1.518   1.759
 8729TIP3   OH226131   0.868   1.479   3.519
 8729TIP3    H126132   0.882   1.569   3.547
 8729TIP3    H226133   0.773   1.473   3.506
 8730TIP3   OH226134   2.100   7.098   4.627
 8730TIP3    H126135   2.165   7.029   4.638
 8730TIP3    H226136   2.016   7.052   4.624
 8731TIP3   OH226137   7.024   0.235   6.624
 8731TIP3    H126138   6.929   0.239   6.633
 8731TIP3    H226139   7.057   0.260   6.711
 8732TIP3   OH226140   7.021   3.779   6.358
 8732TIP3    H126141   6.936   3.817   6.380
 8732TIP3    H226142   7.083   3.852   6.363
 8733TIP3   OH226143   2.342   3.762   5.848
 8733TIP3    H126144   2.364   3.855   5.840
 8733TIP3    H226145   2.259   3.762   5.896
 8734TIP3   OH226146   3.965   7.803   3.825
 8734TIP3    H126147   4.003   7.785   3.739
 8734TIP3    H226148   4.039   7.800   3.885
 8735TIP3   OH226149   2.190   6.505   1.549
 8735TIP3    H126150   2.112   6.558   1.561
 8735TIP3    H226151   2.211   6.472   1.637
 8736TIP3   OH226152   5.061   0.872   0.251
 8736TIP3    H126153   5.052   0.777   0.260
 8736TIP3    H226154   5.104   0.883   0.166
 8737TIP3   OH226155   4.598   7.500   3.604
 8737TIP3    H126156   4.612   7.534   3.692
 8737TIP3    H226157   4.569   7.577   3.553
 8738TIP3   OH226158   2.254   6.610   5.660
 8738TIP3    H126159   2.164   6.633   5.635
 8738TIP3    H226160   2.289   6.691   5.697
 8739TIP3   OH226161   7.735   2.166   3.939
 8739TIP3    H126162   7.782   2.126   3.865
 8739TIP3    H226163   7.787   2.243   3.962
 8740TIP3   OH226164   5.422   5.471   2.045
 8740TIP3    H126165   5.432   5.516   2.130
 8740TIP3    H226166   5.382   5.536   1.988
 8741TIP3   OH226167   3.072   7.195   6.321
 8741TIP3    H126168   3.151   7.217   6.271
 8741TIP3    H226169   2.999   7.219   6.263
 8742TIP3   OH226170   6.429   1.443   5.049
 8742TIP3    H126171   6.453   1.534   5.035
 8742TIP3    H226172   6.400   1.411   4.963
 8743TIP3   OH226173   4.556   6.558   4.040
 8743TIP3    H126174   4.614   6.482   4.045
 8743TIP3    H226175   4.615   6.632   4.027
 8744TIP3   OH226176   6.792   4.862   4.027
 8744TIP3    H126177   6.845   4.939   4.006
 8744TIP3    H226178   6.716   4.869   3.969
 8745TIP3   OH226179   3.332   5.555   4.110
 8745TIP3    H126180   3.344   5.506   4.028
 8745TIP3    H226181   3.419   5.589   4.131
 8746TIP3   OH226182   2.979   7.763   4.666
 8746TIP3    H126183   3.003   7.695   4.603
 8746TIP3    H226184   2.998   7.845   4.620
 8747TIP3   OH226185   6.046   3.772   1.053
 8747TIP3    H126186   5.961   3.740   1.084
 8747TIP3    H226187   6.108   3.747   1.121
 8748TIP3   OH226188   6.689   7.268   6.099
 8748TIP3    H126189   6.594   7.264   6.087
 8748TIP3    H226190   6.709   7.362   6.103
 8749TIP3   OH226191   6.232   6.609   3.895
 8749TIP3    H126192   6.207   6.547   3.826
 8749TIP3    H226193   6.302   6.565   3.943
 8750TIP3   OH226194   3.172   5.108   5.237
 8750TIP3    H126195   3.120   5.034   5.270
 8750TIP3    H226196   3.241   5.120   5.302
 8751TIP3   OH226197   6.368   6.578   0.980
 8751TIP3    H126198   6.455   6.592   1.017
 8751TIP3    H226199   6.378   6.597   0.887
 8752TIP3   OH226200   6.335   3.301   0.361
 8752TIP3    H126201   6.426   3.288   0.387
 8752TIP3    H226202   6.338   3.308   0.266
 8753TIP3   OH226203   7.941   2.639   1.373
 8753TIP3    H126204   7.849   2.610   1.369
 8753TIP3    H226205   7.937   2.725   1.414
 8754TIP3   OH226206   1.063   2.214   1.382
 8754TIP3    H126207   0.992   2.245   1.437
 8754TIP3    H226208   1.141   2.219   1.437
 8755TIP3   OH226209   0.377   2.222   3.356
 8755TIP3    H126210   0.447   2.157   3.345
 8755TIP3    H226211   0.297   2.171   3.360
 8756TIP3   OH226212   8.123   5.917   4.933
 8756TIP3    H126213   8.060   5.989   4.927
 8756TIP3    H226214   8.089   5.862   5.005
 8757TIP3   OH226215   5.829   7.425   3.826
 8757TIP3    H126216   5.778   7.504   3.844
 8757TIP3    H226217   5.769   7.353   3.847
 8758TIP3   OH226218   0.080   2.163   5.061
 8758TIP3    H126219   0.023   2.239   5.060
 8758TIP3    H226220   0.143   2.179   4.991
 8759TIP3   OH226221   1.304   3.920   6.069
 8759TIP3    H126222   1.350   3.842   6.040
 8759TIP3    H226223   1.213   3.905   6.043
 8760TIP3   OH226224   0.671   0.300   5.986
 8760TIP3    H126225   0.603   0.333   5.929
 8760TIP3    H226226   0.670   0.360   6.061
 8761TIP3   OH226227   5.309   3.749   1.145
 8761TIP3    H126228   5.299   3.664   1.189
 8761TIP3    H226229   5.229   3.759   1.094
 8762TIP3   OH226230   1.841   0.624   0.750
 8762TIP3    H126231   1.826   0.676   0.671
 8762TIP3    H226232   1.798   0.674   0.820
 8763TIP3   OH226233   6.711   2.223   5.340
 8763TIP3    H126234   6.657   2.180   5.274
 8763TIP3    H226235   6.744   2.301   5.295
 8764TIP3   OH226236   0.191   0.050   1.423
 8764TIP3    H126237   0.149   0.068   1.507
 8764TIP3    H226238   0.148  -0.029   1.391
 8765TIP3   OH226239   1.788   7.469   5.107
 8765TIP3    H126240   1.811   7.552   5.066
 8765TIP3    H226241   1.873   7.433   5.135
 8766TIP3   OH226242   1.416   2.112   6.488
 8766TIP3    H126243   1.391   2.102   6.580
 8766TIP3    H226244   1.507   2.084   6.485
 8767TIP3   OH226245   6.257   0.713   2.087
 8767TIP3    H126246   6.246   0.807   2.071
 8767TIP3    H226247   6.312   0.708   2.164
 8768TIP3   OH226248   1.649   4.816   5.112
 8768TIP3    H126249   1.664   4.859   5.197
 8768TIP3    H226250   1.575   4.862   5.074
 8769TIP3   OH226251   5.420   2.169   3.505
 8769TIP3    H126252   5.347   2.218   3.543
 8769TIP3    H226253   5.488   2.172   3.573
 8770TIP3   OH226254   8.082   6.046   0.005
 8770TIP3    H126255   8.162   6.061  -0.046
 8770TIP3    H226256   8.111   6.053   0.096
 8771TIP3   OH226257   1.767   1.760   4.280
 8771TIP3    H126258   1.739   1.688   4.337
 8771TIP3    H226259   1.704   1.760   4.209
 8772TIP3   OH226260   3.159   0.188   5.931
 8772TIP3    H126261   3.204   0.272   5.927
 8772TIP3    H226262   3.160   0.164   6.023
 8773TIP3   OH226263   0.975   0.089   2.960
 8773TIP3    H126264   1.039   0.159   2.973
 8773TIP3    H226265   0.999   0.023   3.025
 8774TIP3   OH226266   4.646   0.611   4.447
 8774TIP3    H126267   4.570   0.641   4.397
 8774TIP3    H226268   4.673   0.687   4.499
 8775TIP3   OH226269   5.357   6.122   0.290
 8775TIP3    H126270   5.379   6.121   0.197
 8775TIP3    H226271   5.415   6.056   0.329
 8776TIP3   OH226272   6.213   1.523   2.418
 8776TIP3    H126273   6.229   1.496   2.327
 8776TIP3    H226274   6.270   1.599   2.431
 8777TIP3   OH226275   4.032   2.912   6.699
 8777TIP3    H126276   4.075   2.827   6.705
 8777TIP3    H226277   4.094   2.972   6.741
 8778TIP3   OH226278   8.099   4.156   4.610
 8778TIP3    H126279   8.182   4.154   4.563
 8778TIP3    H226280   8.032   4.167   4.542
 8779TIP3   OH226281   7.860   4.212   0.219
 8779TIP3    H126282   7.852   4.158   0.141
 8779TIP3    H226283   7.871   4.149   0.291
 8780TIP3   OH226284   2.840   6.103   2.862
 8780TIP3    H126285   2.877   6.054   2.788
 8780TIP3    H226286   2.745   6.090   2.853
 8781TIP3   OH226287   7.325   0.204   4.367
 8781TIP3    H126288   7.231   0.204   4.348
 8781TIP3    H226289   7.366   0.180   4.284
 8782TIP3   OH226290   3.886   5.591   6.025
 8782TIP3    H126291   3.843   5.614   5.942
 8782TIP3    H226292   3.938   5.513   6.004
 8783TIP3   OH226293   0.591   2.335   2.174
 8783TIP3    H126294   0.614   2.242   2.164
 8783TIP3    H226295   0.525   2.336   2.242
 8784TIP3   OH226296   4.878   3.778   0.128
 8784TIP3    H126297   4.817   3.722   0.080
 8784TIP3    H226298   4.831   3.800   0.209
 8785TIP3   OH226299   4.601   6.814   2.344
 8785TIP3    H126300   4.580   6.880   2.411
 8785TIP3    H226301   4.623   6.865   2.266
 8786TIP3   OH226302   2.047   6.686   3.011
 8786TIP3    H126303   2.097   6.655   3.087
 8786TIP3    H226304   2.104   6.672   2.936
 8787TIP3   OH226305   8.005   1.348   6.194
 8787TIP3    H126306   7.959   1.432   6.193
 8787TIP3    H226307   8.097   1.371   6.177
 8788TIP3   OH226308   2.634   1.166   4.999
 8788TIP3    H126309   2.648   1.187   4.907
 8788TIP3    H226310   2.573   1.233   5.030
 8789TIP3   OH226311   4.094   0.284   6.459
 8789TIP3    H126312   4.137   0.200   6.475
 8789TIP3    H226313   4.003   0.269   6.481
 8790TIP3   OH226314   7.010   4.072   1.118
 8790TIP3    H126315   7.044   4.136   1.181
 8790TIP3    H226316   6.928   4.041   1.158
 8791TIP3   OH226317   7.845   6.367   5.113
 8791TIP3    H126318   7.794   6.303   5.064
 8791TIP3    H226319   7.908   6.314   5.163
 8792TIP3   OH226320   5.913   5.906   6.526
 8792TIP3    H126321   5.956   5.918   6.611
 8792TIP3    H226322   5.963   5.837   6.483
 8793TIP3   OH226323   3.964   6.273   5.163
 8793TIP3    H126324   3.880   6.237   5.192
 8793TIP3    H226325   3.943   6.326   5.086
 8794TIP3   OH226326   7.928   6.686   6.354
 8794TIP3    H126327   7.901   6.595   6.346
 8794TIP3    H226328   8.015   6.689   6.314
 8795TIP3   OH226329   8.096   0.755   0.312
 8795TIP3    H126330   8.145   0.684   0.353
 8795TIP3    H226331   8.123   0.833   0.359
 8796TIP3   OH226332   7.392   1.971   6.375
 8796TIP3    H126333   7.365   1.908   6.443
 8796TIP3    H226334   7.315   1.978   6.318
 8797TIP3   OH226335   5.432   1.345   3.984
 8797TIP3    H126336   5.474   1.310   3.906
 8797TIP3    H226337   5.499   1.401   4.024
 8798TIP3   OH226338   0.330   5.014   3.570
 8798TIP3    H126339   0.270   5.088   3.562
 8798TIP3    H226340   0.372   5.027   3.655
 8799TIP3   OH226341   3.958   1.281   2.269
 8799TIP3    H126342   4.031   1.222   2.289
 8799TIP3    H226343   3.883   1.223   2.258
 8800TIP3   OH226344   6.334   0.155   0.374
 8800TIP3    H126345   6.424   0.128   0.390
 8800TIP3    H226346   6.325   0.239   0.420
 8801TIP3   OH226347   5.078   6.745   3.437
 8801TIP3    H126348   4.997   6.728   3.485
 8801TIP3    H226349   5.146   6.745   3.504
 8802TIP3   OH226350   4.164   3.474   4.408
 8802TIP3    H126351   4.251   3.483   4.445
 8802TIP3    H226352   4.111   3.539   4.456
 8803TIP3   OH226353   3.329   6.232   1.513
 8803TIP3    H126354   3.423   6.222   1.497
 8803TIP3    H226355   3.306   6.157   1.568
 8804TIP3   OH226356   8.015   1.487   1.142
 8804TIP3    H126357   7.959   1.554   1.180
 8804TIP3    H226358   7.955   1.414   1.123
 8805TIP3   OH226359   4.288   2.082   1.990
 8805TIP3    H126360   4.382   2.088   2.010
 8805TIP3    H226361   4.250   2.160   2.032
 8806TIP3   OH226362   0.413   3.689   2.483
 8806TIP3    H126363   0.419   3.599   2.452
 8806TIP3    H226364   0.462   3.740   2.418
 8807TIP3   OH226365   5.678   3.631   2.508
 8807TIP3    H126366   5.682   3.619   2.603
 8807TIP3    H226367   5.585   3.648   2.491
 8808TIP3   OH226368   5.647   7.451   4.732
 8808TIP3    H126369   5.691   7.485   4.810
 8808TIP3    H226370   5.592   7.523   4.702
 8809TIP3   OH226371   7.159   6.000   3.213
 8809TIP3    H126372   7.165   6.067   3.144
 8809TIP3    H226373   7.088   6.031   3.269
 8810TIP3   OH226374   6.895   5.440   5.486
 8810TIP3    H126375   6.888   5.506   5.417
 8810TIP3    H226376   6.945   5.369   5.447
 8811TIP3   OH226377   6.146   6.595   0.046
 8811TIP3    H126378   6.156   6.679   0.090
 8811TIP3    H226379   6.057   6.596   0.011
 8812TIP3   OH226380   7.328   0.105   2.176
 8812TIP3    H126381   7.366   0.037   2.120
 8812TIP3    H226382   7.401   0.163   2.198
 8813TIP3   OH226383   4.933   7.077   0.828
 8813TIP3    H126384   4.978   7.040   0.904
 8813TIP3    H226385   4.938   7.171   0.841
 8814TIP3   OH226386   6.211   2.448   4.492
 8814TIP3    H126387   6.135   2.419   4.442
 8814TIP3    H226388   6.173   2.492   4.569
 8815TIP3   OH226389   0.186   6.186   4.183
 8815TIP3    H126390   0.135   6.106   4.195
 8815TIP3    H226391   0.121   6.257   4.188
 8816TIP3   OH226392   4.110   4.460   3.342
 8816TIP3    H126393   4.101   4.382   3.287
 8816TIP3    H226394   4.049   4.446   3.414
 8817TIP3   OH226395   5.608   7.200   4.632
 8817TIP3    H126396   5.629   7.293   4.643
 8817TIP3    H226397   5.536   7.185   4.694
 8818TIP3   OH226398   0.501   6.362   4.501
 8818TIP3    H126399   0.483   6.299   4.431
 8818TIP3    H226400   0.421   6.362   4.553
 8819TIP3   OH226401   0.984   0.957   0.857
 8819TIP3    H126402   0.917   0.952   0.926
 8819TIP3    H226403   0.941   1.005   0.786
 8820TIP3   OH226404   5.659   2.424   5.586
 8820TIP3    H126405   5.681   2.331   5.579
 8820TIP3    H226406   5.564   2.425   5.600
 8821TIP3   OH226407   8.284   0.571   5.365
 8821TIP3    H126408   8.298   0.662   5.340
 8821TIP3    H226409   8.266   0.525   5.283
 8822TIP3   OH226410   2.408   1.343   6.675
 8822TIP3    H126411   2.319   1.317   6.697
 8822TIP3    H226412   2.422   1.424   6.724
 8823TIP3   OH226413   3.692   4.302   1.820
 8823TIP3    H126414   3.659   4.336   1.903
 8823TIP3    H226415   3.785   4.287   1.835
 8824TIP3   OH226416   6.815   4.055   5.322
 8824TIP3    H126417   6.881   4.081   5.386
 8824TIP3    H226418   6.851   4.083   5.238
 8825TIP3   OH226419   6.719   2.251   0.559
 8825TIP3    H126420   6.791   2.309   0.536
 8825TIP3    H226421   6.674   2.235   0.476
 8826TIP3   OH226422   6.305   1.318   4.820
 8826TIP3    H126423   6.265   1.248   4.871
 8826TIP3    H226424   6.267   1.308   4.732
 8827TIP3   OH226425   6.915   6.077   6.279
 8827TIP3    H126426   6.952   5.998   6.318
 8827TIP3    H226427   6.831   6.048   6.242
 8828TIP3   OH226428   0.406   2.178   1.815
 8828TIP3    H126429   0.498   2.179   1.842
 8828TIP3    H226430   0.382   2.085   1.818
 8829TIP3   OH226431   2.552   3.512   3.701
 8829TIP3    H126432   2.585   3.582   3.645
 8829TIP3    H226433   2.525   3.556   3.782
 8830TIP3   OH226434   6.606   0.964   2.863
 8830TIP3    H126435   6.536   0.900   2.879
 8830TIP3    H226436   6.576   1.014   2.788
 8831TIP3   OH226437   2.043   5.998   0.408
 8831TIP3    H126438   2.037   6.049   0.489
 8831TIP3    H226439   2.004   6.054   0.341
 8832TIP3   OH226440   1.432   5.495   1.756
 8832TIP3    H126441   1.508   5.529   1.710
 8832TIP3    H226442   1.383   5.446   1.690
 8833TIP3   OH226443   5.116   4.965   1.551
 8833TIP3    H126444   5.207   4.936   1.538
 8833TIP3    H226445   5.066   4.913   1.488
 8834TIP3   OH226446   6.939   0.180   3.171
 8834TIP3    H126447   6.868   0.243   3.164
 8834TIP3    H226448   6.896   0.094   3.166
 8835TIP3   OH226449   0.397   2.501   2.315
 8835TIP3    H126450   0.415   2.593   2.296
 8835TIP3    H226451   0.407   2.495   2.410
 8836TIP3   OH226452   0.293   0.639   2.821
 8836TIP3    H126453   0.223   0.591   2.864
 8836TIP3    H226454   0.338   0.685   2.892
 8837TIP3   OH226455   7.432   0.379   4.867
 8837TIP3    H126456   7.443   0.338   4.781
 8837TIP3    H226457   7.470   0.316   4.929
 8838TIP3   OH226458   4.884   6.503   5.081
 8838TIP3    H126459   4.875   6.560   5.157
 8838TIP3    H226460   4.794   6.480   5.058
 8839TIP3   OH226461   5.452   5.450   2.346
 8839TIP3    H126462   5.484   5.367   2.383
 8839TIP3    H226463   5.386   5.480   2.409
 8840TIP3   OH226464   7.785   0.338   6.180
 8840TIP3    H126465   7.873   0.355   6.212
 8840TIP3    H226466   7.749   0.273   6.240
 8841TIP3   OH226467   4.733   7.081   5.989
 8841TIP3    H126468   4.818   7.054   6.022
 8841TIP3    H226469   4.745   7.172   5.962
 8842TIP3   OH226470   5.699   0.001   1.711
 8842TIP3    H126471   5.769  -0.002   1.777
 8842TIP3    H226472   5.662   0.089   1.720
 8843TIP3   OH226473   2.090   1.083   3.586
 8843TIP3    H126474   2.081   1.032   3.666
 8843TIP3    H226475   2.177   1.060   3.552
 8844TIP3   OH226476   0.141   6.813   3.826
 8844TIP3    H126477   0.083   6.793   3.752
 8844TIP3    H226478   0.213   6.863   3.787
 8845TIP3   OH226479   7.792   3.264   5.321
 8845TIP3    H126480   7.800   3.236   5.412
 8845TIP3    H226481   7.821   3.188   5.270
 8846TIP3   OH226482   4.091   1.147   6.228
 8846TIP3    H126483   4.071   1.133   6.135
 8846TIP3    H226484   4.118   1.060   6.259
 8847TIP3   OH226485   7.424   6.343   4.177
 8847TIP3    H126486   7.492   6.327   4.243
 8847TIP3    H226487   7.381   6.423   4.206
 8848TIP3   OH226488   3.269   5.097   2.995
 8848TIP3    H126489   3.364   5.100   2.996
 8848TIP3    H226490   3.247   5.075   2.904
 8849TIP3   OH226491   5.127   3.693   2.942
 8849TIP3    H126492   5.086   3.700   3.028
 8849TIP3    H226493   5.194   3.761   2.941
 8850TIP3   OH226494   3.050   1.033   3.213
 8850TIP3    H126495   3.058   1.081   3.296
 8850TIP3    H226496   3.102   0.954   3.227
 8851TIP3   OH226497   0.105   0.810   3.089
 8851TIP3    H126498   0.158   0.868   3.144
 8851TIP3    H226499   0.150   0.726   3.092
 8852TIP3   OH226500   3.409   0.170   3.176
 8852TIP3    H126501   3.329   0.140   3.134
 8852TIP3    H226502   3.471   0.184   3.105
 8853TIP3   OH226503   8.091   4.755   2.966
 8853TIP3    H126504   8.013   4.708   2.997
 8853TIP3    H226505   8.096   4.734   2.873
 8854TIP3   OH226506   3.017   7.059   3.953
 8854TIP3    H126507   3.071   7.006   4.012
 8854TIP3    H226508   3.016   7.010   3.871
 8855TIP3   OH226509   2.635   2.547   5.463
 8855TIP3    H126510   2.563   2.501   5.505
 8855TIP3    H226511   2.714   2.508   5.501
 8856TIP3   OH226512   6.273   3.579   2.865
 8856TIP3    H126513   6.180   3.584   2.844
 8856TIP3    H226514   6.276   3.542   2.954
 8857TIP3   OH226515   1.712   3.496   4.717
 8857TIP3    H126516   1.750   3.512   4.630
 8857TIP3    H226517   1.756   3.560   4.774
 8858TIP3   OH226518   1.850   0.877   3.260
 8858TIP3    H126519   1.852   0.786   3.232
 8858TIP3    H226520   1.863   0.874   3.355
 8859TIP3   OH226521   3.908   6.430   5.424
 8859TIP3    H126522   3.990   6.404   5.467
 8859TIP3    H226523   3.873   6.349   5.388
 8860TIP3   OH226524   0.900   3.533   3.483
 8860TIP3    H126525   0.817   3.510   3.526
 8860TIP3    H226526   0.875   3.595   3.415
 8861TIP3   OH226527   0.566   3.157   0.771
 8861TIP3    H126528   0.521   3.222   0.718
 8861TIP3    H226529   0.515   3.152   0.852
 8862TIP3   OH226530   7.974   6.485   6.620
 8862TIP3    H126531   8.049   6.529   6.579
 8862TIP3    H226532   7.898   6.516   6.570
 8863TIP3   OH226533   7.006   6.818   1.724
 8863TIP3    H126534   6.990   6.889   1.662
 8863TIP3    H226535   7.065   6.758   1.678
 8864TIP3   OH226536   3.364   7.705   1.629
 8864TIP3    H126537   3.340   7.674   1.716
 8864TIP3    H226538   3.285   7.747   1.595
 8865TIP3   OH226539   7.214   1.979   6.080
 8865TIP3    H126540   7.259   1.895   6.075
 8865TIP3    H226541   7.145   1.973   6.013
 8866TIP3   OH226542   4.741   3.846   6.270
 8866TIP3    H126543   4.675   3.904   6.232
 8866TIP3    H226544   4.768   3.789   6.198
 8867TIP3   OH226545   1.153   4.003   2.622
 8867TIP3    H126546   1.136   4.044   2.707
 8867TIP3    H226547   1.200   4.070   2.572
 8868TIP3   OH226548   2.506   6.341   0.688
 8868TIP3    H126549   2.445   6.276   0.724
 8868TIP3    H226550   2.593   6.308   0.713
 8869TIP3   OH226551   1.149   4.374   3.989
 8869TIP3    H126552   1.127   4.449   3.934
 8869TIP3    H226553   1.202   4.317   3.933
 8870TIP3   OH226554   3.574   6.656   0.049
 8870TIP3    H126555   3.555   6.632  -0.042
 8870TIP3    H226556   3.516   6.600   0.101
 8871TIP3   OH226557   3.413   1.328   0.366
 8871TIP3    H126558   3.400   1.422   0.377
 8871TIP3    H226559   3.364   1.305   0.288
 8872TIP3   OH226560   0.507   1.257   3.031
 8872TIP3    H126561   0.449   1.255   2.955
 8872TIP3    H226562   0.459   1.210   3.100
 8873TIP3   OH226563   3.774   1.191   1.182
 8873TIP3    H126564   3.695   1.137   1.177
 8873TIP3    H226565   3.843   1.136   1.144
 8874TIP3   OH226566   7.059   3.134   1.537
 8874TIP3    H126567   6.999   3.111   1.607
 8874TIP3    H226568   7.138   3.084   1.556
 8875TIP3   OH226569   4.409   5.258   4.079
 8875TIP3    H126570   4.387   5.348   4.058
 8875TIP3    H226571   4.396   5.210   3.997
 8876TIP3   OH226572   0.371   1.579   0.702
 8876TIP3    H126573   0.463   1.602   0.720
 8876TIP3    H226574   0.322   1.658   0.722
 8877TIP3   OH226575   5.397   1.896   4.354
 8877TIP3    H126576   5.364   1.971   4.305
 8877TIP3    H226577   5.319   1.845   4.375
 8878TIP3   OH226578   0.830   6.278   4.155
 8878TIP3    H126579   0.892   6.349   4.177
 8878TIP3    H226580   0.809   6.238   4.240
 8879TIP3   OH226581   3.304   2.253   2.470
 8879TIP3    H126582   3.212   2.268   2.450
 8879TIP3    H226583   3.307   2.164   2.504
 8880TIP3   OH226584   7.708   5.240   4.891
 8880TIP3    H126585   7.626   5.209   4.931
 8880TIP3    H226586   7.769   5.167   4.904
 8881TIP3   OH226587   3.570   7.454   1.488
 8881TIP3    H126588   3.503   7.390   1.461
 8881TIP3    H226589   3.549   7.532   1.436
 8882TIP3   OH226590   0.111   1.445   3.341
 8882TIP3    H126591   0.111   1.538   3.318
 8882TIP3    H226592   0.087   1.401   3.260
 8883TIP3   OH226593   4.731   4.236   0.761
 8883TIP3    H126594   4.639   4.241   0.735
 8883TIP3    H226595   4.744   4.145   0.787
 8884TIP3   OH226596   6.155   2.722   0.213
 8884TIP3    H126597   6.088   2.791   0.209
 8884TIP3    H226598   6.114   2.651   0.262
 8885TIP3   OH226599   0.217   7.767   1.634
 8885TIP3    H126600   0.259   7.849   1.610
 8885TIP3    H226601   0.123   7.783   1.621
 8886TIP3   OH226602   3.020   5.029   1.951
 8886TIP3    H126603   2.967   5.058   1.877
 8886TIP3    H226604   3.092   5.092   1.956
 8887TIP3   OH226605   2.397   5.660   4.539
 8887TIP3    H126606   2.452   5.724   4.494
 8887TIP3    H226607   2.412   5.678   4.632
 8888TIP3   OH226608   0.814   7.094   6.292
 8888TIP3    H126609   0.737   7.134   6.251
 8888TIP3    H226610   0.889   7.135   6.248
 8889TIP3   OH226611   7.745   3.092   5.105
 8889TIP3    H126612   7.813   3.093   5.037
 8889TIP3    H226613   7.680   3.030   5.073
 8890TIP3   OH226614   7.708   0.702   3.584
 8890TIP3    H126615   7.777   0.743   3.637
 8890TIP3    H226616   7.733   0.721   3.493
 8891TIP3   OH226617   0.037   7.746   4.238
 8891TIP3    H126618  -0.049   7.709   4.221
 8891TIP3    H226619   0.060   7.714   4.326
 8892TIP3   OH226620   8.228   3.789   5.779
 8892TIP3    H126621   8.303   3.770   5.723
 8892TIP3    H226622   8.199   3.876   5.753
 8893TIP3   OH226623   6.097   4.897   6.087
 8893TIP3    H126624   6.108   4.864   6.176
 8893TIP3    H226625   6.179   4.874   6.043
 8894TIP3   OH226626   4.220   3.241   4.249
 8894TIP3    H126627   4.224   3.316   4.308
 8894TIP3    H226628   4.147   3.261   4.190
 8895TIP3   OH226629   5.310   7.678   0.508
 8895TIP3    H126630   5.355   7.729   0.441
 8895TIP3    H226631   5.229   7.649   0.466
 8896TIP3   OH226632   8.300   3.911   6.158
 8896TIP3    H126633   8.210   3.942   6.161
 8896TIP3    H226634   8.293   3.816   6.148
 8897TIP3   OH226635   2.819   2.822   6.037
 8897TIP3    H126636   2.764   2.899   6.050
 8897TIP3    H226637   2.791   2.788   5.952
 8898TIP3   OH226638   2.362   3.926   0.974
 8898TIP3    H126639   2.436   3.986   0.976
 8898TIP3    H226640   2.331   3.922   1.064
 8899TIP3   OH226641   7.962   2.265   6.496
 8899TIP3    H126642   7.886   2.311   6.460
 8899TIP3    H226643   8.031   2.331   6.500
 8900TIP3   OH226644   4.871   2.407   3.120
 8900TIP3    H126645   4.804   2.359   3.169
 8900TIP3    H226646   4.824   2.481   3.082
 8901TIP3   OH226647   5.648   1.045   5.188
 8901TIP3    H126648   5.594   1.065   5.112
 8901TIP3    H226649   5.646   0.950   5.195
 8902TIP3   OH226650   3.238   0.080   4.840
 8902TIP3    H126651   3.281  -0.003   4.857
 8902TIP3    H226652   3.287   0.118   4.767
 8903TIP3   OH226653   1.140   4.628   4.262
 8903TIP3    H126654   1.156   4.672   4.178
 8903TIP3    H226655   1.051   4.653   4.285
 8904TIP3   OH226656   2.659   0.837   1.397
 8904TIP3    H126657   2.588   0.792   1.352
 8904TIP3    H226658   2.640   0.930   1.384
 8905TIP3   OH226659   2.933   5.504   3.211
 8905TIP3    H126660   2.968   5.419   3.236
 8905TIP3    H226661   2.877   5.485   3.135
 8906TIP3   OH226662   2.527   6.509   6.139
 8906TIP3    H126663   2.444   6.465   6.161
 8906TIP3    H226664   2.501   6.599   6.121
 8907TIP3   OH226665   7.551   6.061   0.328
 8907TIP3    H126666   7.626   6.108   0.292
 8907TIP3    H226667   7.580   5.970   0.332
 8908TIP3   OH226668   0.804   0.347   2.278
 8908TIP3    H126669   0.741   0.414   2.303
 8908TIP3    H226670   0.884   0.371   2.323
 8909TIP3   OH226671   0.828   2.761   2.242
 8909TIP3    H126672   0.918   2.731   2.227
 8909TIP3    H226673   0.838   2.852   2.270
 8910TIP3   OH226674   2.058   6.312   0.268
 8910TIP3    H126675   2.021   6.336   0.184
 8910TIP3    H226676   1.997   6.348   0.333
 8911TIP3   OH226677   3.216   2.464   3.743
 8911TIP3    H126678   3.169   2.386   3.774
 8911TIP3    H226679   3.260   2.498   3.820
 8912TIP3   OH226680   3.215   0.358   6.607
 8912TIP3    H126681   3.279   0.307   6.558
 8912TIP3    H226682   3.265   0.431   6.642
 8913TIP3   OH226683   3.875   2.537   3.995
 8913TIP3    H126684   3.919   2.459   3.960
 8913TIP3    H226685   3.945   2.586   4.039
 8914TIP3   OH226686   1.113   6.351   0.289
 8914TIP3    H126687   1.195   6.390   0.319
 8914TIP3    H226688   1.119   6.350   0.194
 8915TIP3   OH226689   7.703   1.437   6.011
 8915TIP3    H126690   7.674   1.482   6.090
 8915TIP3    H226691   7.782   1.484   5.983
 8916TIP3   OH226692   3.024   2.093   5.604
 8916TIP3    H126693   2.977   2.016   5.572
 8916TIP3    H226694   3.035   2.148   5.527
 8917TIP3   OH226695   1.059   1.557   1.655
 8917TIP3    H126696   1.114   1.551   1.732
 8917TIP3    H226697   0.986   1.497   1.672
 8918TIP3   OH226698   5.901   2.069   2.372
 8918TIP3    H126699   5.837   2.120   2.423
 8918TIP3    H226700   5.848   2.000   2.332
 8919TIP3   OH226701   4.171   4.892   5.605
 8919TIP3    H126702   4.159   4.967   5.663
 8919TIP3    H226703   4.143   4.923   5.519
 8920TIP3   OH226704   0.816   5.171   5.715
 8920TIP3    H126705   0.852   5.138   5.633
 8920TIP3    H226706   0.823   5.266   5.709
 8921TIP3   OH226707   6.102   5.659   4.595
 8921TIP3    H126708   6.075   5.685   4.507
 8921TIP3    H226709   6.022   5.629   4.638
 8922TIP3   OH226710   4.694   1.755   3.361
 8922TIP3    H126711   4.664   1.717   3.279
 8922TIP3    H226712   4.712   1.847   3.340
 8923TIP3   OH226713   2.492   1.635   6.732
 8923TIP3    H126714   2.584   1.622   6.755
 8923TIP3    H226715   2.495   1.693   6.656
 8924TIP3   OH226716   3.988   5.361   1.819
 8924TIP3    H126717   3.990   5.266   1.814
 8924TIP3    H226718   3.994   5.391   1.728
 8925TIP3   OH226719   5.307   1.796   4.939
 8925TIP3    H126720   5.326   1.836   4.854
 8925TIP3    H226721   5.228   1.840   4.970
 8926TIP3   OH226722   0.413   3.399   4.173
 8926TIP3    H126723   0.449   3.484   4.196
 8926TIP3    H226724   0.452   3.338   4.236
 8927TIP3   OH226725   6.786   3.483   5.387
 8927TIP3    H126726   6.729   3.422   5.434
 8927TIP3    H226727   6.725   3.547   5.349
 8928TIP3   OH226728   4.828   3.235   2.415
 8928TIP3    H126729   4.849   3.284   2.494
 8928TIP3    H226730   4.844   3.297   2.343
 8929TIP3   OH226731   3.123   4.560   1.663
 8929TIP3    H126732   3.135   4.601   1.577
 8929TIP3    H226733   3.210   4.525   1.684
 8930TIP3   OH226734   7.837   6.513   5.388
 8930TIP3    H126735   7.820   6.504   5.294
 8930TIP3    H226736   7.757   6.551   5.424
 8931TIP3   OH226737   1.636   7.116   0.886
 8931TIP3    H126738   1.689   7.096   0.809
 8931TIP3    H226739   1.546   7.119   0.853
 8932TIP3   OH226740   4.750   0.748   4.874
 8932TIP3    H126741   4.777   0.667   4.918
 8932TIP3    H226742   4.829   0.779   4.831
 8933TIP3   OH226743   4.528   4.415   2.674
 8933TIP3    H126744   4.527   4.328   2.635
 8933TIP3    H226745   4.599   4.461   2.627
 8934TIP3   OH226746   5.267   6.152   2.405
 8934TIP3    H126747   5.311   6.069   2.385
 8934TIP3    H226748   5.174   6.132   2.395
 8935TIP3   OH226749   5.280   2.564   4.807
 8935TIP3    H126750   5.334   2.503   4.757
 8935TIP3    H226751   5.238   2.509   4.873
 8936TIP3   OH226752   5.037   1.865   2.436
 8936TIP3    H126753   5.128   1.839   2.447
 8936TIP3    H226754   5.037   1.960   2.442
 8937TIP3   OH226755   5.201   5.422   3.041
 8937TIP3    H126756   5.296   5.435   3.034
 8937TIP3    H226757   5.190   5.327   3.041
 8938TIP3   OH226758   6.799   6.414   4.004
 8938TIP3    H126759   6.739   6.455   4.066
 8938TIP3    H226760   6.881   6.404   4.052
 8939TIP3   OH226761   2.899   4.451   5.714
 8939TIP3    H126762   2.974   4.428   5.660
 8939TIP3    H226763   2.827   4.465   5.653
 8940TIP3   OH226764   2.067   4.396   6.427
 8940TIP3    H126765   2.132   4.358   6.368
 8940TIP3    H226766   2.058   4.487   6.398
 8941TIP3   OH226767   3.968   1.856   0.829
 8941TIP3    H126768   4.028   1.886   0.897
 8941TIP3    H226769   3.950   1.764   0.852
 8942TIP3   OH226770   6.561   1.701   0.783
 8942TIP3    H126771   6.573   1.642   0.857
 8942TIP3    H226772   6.483   1.752   0.805
 8943TIP3   OH226773   5.423   4.840   1.583
 8943TIP3    H126774   5.445   4.932   1.567
 8943TIP3    H226775   5.398   4.806   1.497
 8944TIP3   OH226776   6.777   2.971   3.272
 8944TIP3    H126777   6.790   2.900   3.334
 8944TIP3    H226778   6.852   2.965   3.213
 8945TIP3   OH226779   1.031   2.903   4.001
 8945TIP3    H126780   1.055   2.995   3.994
 8945TIP3    H226781   0.938   2.901   3.979
 8946TIP3   OH226782   5.154   4.512   6.377
 8946TIP3    H126783   5.191   4.530   6.291
 8946TIP3    H226784   5.193   4.428   6.402
 8947TIP3   OH226785   1.470   2.014   4.895
 8947TIP3    H126786   1.375   2.018   4.880
 8947TIP3    H226787   1.497   2.105   4.906
 8948TIP3   OH226788   6.879   6.256   2.077
 8948TIP3    H126789   6.958   6.307   2.089
 8948TIP3    H226790   6.810   6.320   2.061
 8949TIP3   OH226791   0.953   5.398   4.049
 8949TIP3    H126792   0.887   5.454   4.008
 8949TIP3    H226793   1.029   5.455   4.061
 8950TIP3   OH226794   3.293   0.709   0.357
 8950TIP3    H126795   3.330   0.623   0.338
 8950TIP3    H226796   3.202   0.703   0.329
 8951TIP3   OH226797   0.415   6.216   1.661
 8951TIP3    H126798   0.400   6.289   1.601
 8951TIP3    H226799   0.501   6.233   1.699
 8952TIP3   OH226800   3.377   3.007   1.637
 8952TIP3    H126801   3.308   3.001   1.572
 8952TIP3    H226802   3.411   2.918   1.645
 8953TIP3   OH226803   3.270   1.783   2.546
 8953TIP3    H126804   3.258   1.874   2.574
 8953TIP3    H226805   3.272   1.733   2.627
 8954TIP3   OH226806   7.619   4.669   2.808
 8954TIP3    H126807   7.682   4.614   2.854
 8954TIP3    H226808   7.548   4.682   2.872
 8955TIP3   OH226809   1.420   5.270   1.909
 8955TIP3    H126810   1.336   5.238   1.875
 8955TIP3    H226811   1.439   5.347   1.855
 8956TIP3   OH226812   5.916   1.092   3.626
 8956TIP3    H126813   5.943   1.181   3.601
 8956TIP3    H226814   5.935   1.087   3.719
 8957TIP3   OH226815   1.619   2.459   6.665
 8957TIP3    H126816   1.621   2.403   6.743
 8957TIP3    H226817   1.555   2.417   6.607
 8958TIP3   OH226818   6.013   2.315   4.025
 8958TIP3    H126819   6.105   2.312   3.997
 8958TIP3    H226820   5.965   2.276   3.952
 8959TIP3   OH226821   0.335   0.214   1.217
 8959TIP3    H126822   0.287   0.293   1.244
 8959TIP3    H226823   0.358   0.171   1.300
 8960TIP3   OH226824   4.582   3.421   4.748
 8960TIP3    H126825   4.583   3.338   4.796
 8960TIP3    H226826   4.523   3.478   4.799
 8961TIP3   OH226827   1.893   2.928   5.136
 8961TIP3    H126828   1.974   2.895   5.175
 8961TIP3    H226829   1.823   2.886   5.186
 8962TIP3   OH226830   1.419   2.091   3.037
 8962TIP3    H126831   1.370   2.046   3.106
 8962TIP3    H226832   1.408   2.034   2.960
 8963TIP3   OH226833   6.968   6.015   4.764
 8963TIP3    H126834   6.881   6.030   4.726
 8963TIP3    H226835   6.951   5.963   4.842
 8964TIP3   OH226836   5.456   2.650   0.347
 8964TIP3    H126837   5.403   2.636   0.268
 8964TIP3    H226838   5.505   2.729   0.328
 8965TIP3   OH226839   5.497   5.459   3.422
 8965TIP3    H126840   5.524   5.550   3.427
 8965TIP3    H226841   5.417   5.455   3.474
 8966TIP3   OH226842   2.522   4.746   1.923
 8966TIP3    H126843   2.534   4.760   2.017
 8966TIP3    H226844   2.432   4.774   1.906
 8967TIP3   OH226845   6.559   2.335   6.157
 8967TIP3    H126846   6.496   2.342   6.229
 8967TIP3    H226847   6.505   2.342   6.078
 8968TIP3   OH226848   8.144   2.857   5.887
 8968TIP3    H126849   8.186   2.818   5.810
 8968TIP3    H226850   8.072   2.797   5.907
 8969TIP3   OH226851   2.646   3.941   6.220
 8969TIP3    H126852   2.673   3.987   6.141
 8969TIP3    H226853   2.715   3.876   6.234
 8970TIP3   OH226854   3.357   4.029   3.117
 8970TIP3    H126855   3.261   4.021   3.116
 8970TIP3    H226856   3.373   4.116   3.080
 8971TIP3   OH226857   7.323   3.169   5.531
 8971TIP3    H126858   7.379   3.103   5.573
 8971TIP3    H226859   7.373   3.196   5.454
 8972TIP3   OH226860   0.748   7.406   3.426
 8972TIP3    H126861   0.668   7.357   3.448
 8972TIP3    H226862   0.751   7.476   3.491
 8973TIP3   OH226863   6.607   3.508   6.322
 8973TIP3    H126864   6.700   3.503   6.345
 8973TIP3    H226865   6.568   3.557   6.395
 8974TIP3   OH226866   6.313   7.501   1.309
 8974TIP3    H126867   6.397   7.509   1.355
 8974TIP3    H226868   6.300   7.586   1.268
 8975TIP3   OH226869   5.749   5.627   4.171
 8975TIP3    H126870   5.678   5.564   4.187
 8975TIP3    H226871   5.829   5.574   4.173
 8976TIP3   OH226872   4.740   5.919   3.923
 8976TIP3    H126873   4.649   5.941   3.900
 8976TIP3    H226874   4.781   6.003   3.941
 8977TIP3   OH226875   1.332   0.655   1.790
 8977TIP3    H126876   1.251   0.615   1.757
 8977TIP3    H226877   1.348   0.728   1.731
 8978TIP3   OH226878   7.004   5.015   4.997
 8978TIP3    H126879   6.969   4.985   4.913
 8978TIP3    H226880   6.940   5.080   5.027
 8979TIP3   OH226881   2.144   4.402   6.694
 8979TIP3    H126882   2.239   4.396   6.687
 8979TIP3    H226883   2.113   4.407   6.604
 8980TIP3   OH226884   4.117   4.727   6.452
 8980TIP3    H126885   4.131   4.808   6.502
 8980TIP3    H226886   4.201   4.709   6.411
 8981TIP3   OH226887   0.610   3.921   3.768
 8981TIP3    H126888   0.665   3.884   3.699
 8981TIP3    H226889   0.599   4.013   3.743
 8982TIP3   OH226890   7.593   0.399   5.227
 8982TIP3    H126891   7.681   0.436   5.238
 8982TIP3    H226892   7.583   0.389   5.132
 8983TIP3   OH226893   5.711   2.400   6.490
 8983TIP3    H126894   5.711   2.454   6.569
 8983TIP3    H226895   5.782   2.338   6.503
 8984TIP3   OH226896   2.706   2.596   0.396
 8984TIP3    H126897   2.802   2.600   0.391
 8984TIP3    H226898   2.688   2.507   0.427
 8985TIP3   OH226899   4.715   7.690   4.922
 8985TIP3    H126900   4.659   7.688   4.844
 8985TIP3    H226901   4.804   7.700   4.887
 8986TIP3   OH226902   1.303   6.080   6.715
 8986TIP3    H126903   1.390   6.048   6.692
 8986TIP3    H226904   1.303   6.172   6.689
 8987TIP3   OH226905   0.665   3.813   0.876
 8987TIP3    H126906   0.751   3.835   0.913
 8987TIP3    H226907   0.605   3.872   0.920
 8988TIP3   OH226908   6.476   5.737   1.434
 8988TIP3    H126909   6.454   5.771   1.347
 8988TIP3    H226910   6.391   5.715   1.473
 8989TIP3   OH226911   5.495   1.996   5.099
 8989TIP3    H126912   5.478   1.938   5.024
 8989TIP3    H226913   5.473   1.943   5.175
 8990TIP3   OH226914   1.333   5.053   6.660
 8990TIP3    H126915   1.259   5.048   6.720
 8990TIP3    H226916   1.394   5.113   6.703
 8991TIP3   OH226917   7.995   5.703   6.199
 8991TIP3    H126918   7.927   5.771   6.199
 8991TIP3    H226919   8.077   5.751   6.185
 8992TIP3   OH226920   0.362   3.554   1.079
 8992TIP3    H126921   0.377   3.648   1.082
 8992TIP3    H226922   0.373   3.530   0.987
 8993TIP3   OH226923   6.514   3.489   2.463
 8993TIP3    H126924   6.430   3.444   2.464
 8993TIP3    H226925   6.515   3.540   2.545
 8994TIP3   OH226926   1.358   6.433   4.281
 8994TIP3    H126927   1.327   6.423   4.371
 8994TIP3    H226928   1.450   6.408   4.285
 8995TIP3   OH226929   0.854   6.551   0.846
 8995TIP3    H126930   0.946   6.576   0.852
 8995TIP3    H226931   0.854   6.474   0.789
 8996TIP3   OH226932   6.888   3.154   2.078
 8996TIP3    H126933   6.900   3.244   2.108
 8996TIP3    H226934   6.845   3.163   1.992
 8997TIP3   OH226935   6.660   3.929   3.622
 8997TIP3    H126936   6.582   3.902   3.670
 8997TIP3    H226937   6.627   3.990   3.555
 8998TIP3   OH226938   3.038   5.862   3.084
 8998TIP3    H126939   3.031   5.957   3.096
 8998TIP3    H226940   2.962   5.839   3.032
 8999TIP3   OH226941   0.908   2.835   3.704
 8999TIP3    H126942   0.848   2.761   3.713
 8999TIP3    H226943   0.852   2.912   3.705
 9000TIP3   OH226944   3.299   1.811   0.714
 9000TIP3    H126945   3.249   1.884   0.751
 9000TIP3    H226946   3.373   1.801   0.773
 9001TIP3   OH226947   1.301   4.217   4.435
 9001TIP3    H126948   1.283   4.295   4.488
 9001TIP3    H226949   1.323   4.251   4.349
 9002TIP3   OH226950   5.414   6.247   3.874
 9002TIP3    H126951   5.500   6.287   3.863
 9002TIP3    H226952   5.384   6.230   3.785
 9003TIP3   OH226953   2.912   7.116   4.484
 9003TIP3    H126954   2.985   7.118   4.546
 9003TIP3    H226955   2.834   7.111   4.539
 9004TIP3   OH226956   6.348   3.180   3.726
 9004TIP3    H126957   6.405   3.135   3.664
 9004TIP3    H226958   6.284   3.226   3.671
 9005TIP3   OH226959   6.251   7.314   2.366
 9005TIP3    H126960   6.325   7.314   2.426
 9005TIP3    H226961   6.261   7.395   2.315
 9006TIP3   OH226962   5.172   3.500   2.050
 9006TIP3    H126963   5.264   3.476   2.059
 9006TIP3    H226964   5.157   3.505   1.956
 9007TIP3   OH226965   7.268   6.121   2.133
 9007TIP3    H126966   7.329   6.151   2.065
 9007TIP3    H226967   7.272   6.188   2.201
 9008TIP3   OH226968   2.624   6.046   6.450
 9008TIP3    H126969   2.706   6.092   6.435
 9008TIP3    H226970   2.639   5.995   6.530
 9009TIP3   OH226971   6.110   5.459   1.380
 9009TIP3    H126972   6.076   5.385   1.331
 9009TIP3    H226973   6.181   5.422   1.434
 9010TIP3   OH226974   5.289   1.213   0.281
 9010TIP3    H126975   5.196   1.234   0.288
 9010TIP3    H226976   5.334   1.292   0.312
 9011TIP3   OH226977   2.084   1.343   5.169
 9011TIP3    H126978   1.995   1.335   5.135
 9011TIP3    H226979   2.079   1.307   5.258
 9012TIP3   OH226980   5.761   4.910   2.737
 9012TIP3    H126981   5.699   4.979   2.761
 9012TIP3    H226982   5.826   4.911   2.808
 9013TIP3   OH226983   4.214   6.604   3.085
 9013TIP3    H126984   4.175   6.661   3.019
 9013TIP3    H226985   4.140   6.577   3.140
 9014TIP3   OH226986   7.894   2.305   2.508
 9014TIP3    H126987   7.969   2.258   2.545
 9014TIP3    H226988   7.924   2.395   2.499
 9015TIP3   OH226989   2.302   3.530   1.027
 9015TIP3    H126990   2.226   3.471   1.031
 9015TIP3    H226991   2.359   3.501   1.097
 9016TIP3   OH226992   1.129   6.641   0.875
 9016TIP3    H126993   1.207   6.590   0.850
 9016TIP3    H226994   1.158   6.695   0.948
 9017TIP3   OH226995   6.480   1.304   5.523
 9017TIP3    H126996   6.424   1.254   5.582
 9017TIP3    H226997   6.419   1.346   5.462
 9018TIP3   OH226998   7.778   1.754   2.577
 9018TIP3    H126999   7.764   1.768   2.670
 9018TIP3    H227000   7.757   1.661   2.564
 9019TIP3   OH227001   4.295   1.697   3.899
 9019TIP3    H127002   4.301   1.685   3.994
 9019TIP3    H227003   4.288   1.792   3.888
 9020TIP3   OH227004   5.348   1.389   2.956
 9020TIP3    H127005   5.379   1.476   2.980
 9020TIP3    H227006   5.376   1.378   2.865
 9021TIP3   OH227007   6.122   5.023   0.454
 9021TIP3    H127008   6.210   5.016   0.416
 9021TIP3    H227009   6.078   4.943   0.426
 9022TIP3   OH227010   4.306   2.964   0.462
 9022TIP3    H127011   4.389   2.920   0.482
 9022TIP3    H227012   4.259   2.967   0.546
 9023TIP3   OH227013   0.185   6.220   6.203
 9023TIP3    H127014   0.215   6.183   6.286
 9023TIP3    H227015   0.095   6.189   6.194
 9024TIP3   OH227016   2.437   1.822   3.454
 9024TIP3    H127017   2.468   1.903   3.494
 9024TIP3    H227018   2.359   1.849   3.405
 9025TIP3   OH227019   3.962   6.061   4.741
 9025TIP3    H127020   3.993   5.971   4.751
 9025TIP3    H227021   3.868   6.056   4.759
 9026TIP3   OH227022   4.338   5.665   0.757
 9026TIP3    H127023   4.368   5.598   0.818
 9026TIP3    H227024   4.353   5.628   0.670
 9027TIP3   OH227025   6.157   5.281   3.977
 9027TIP3    H127026   6.095   5.257   3.909
 9027TIP3    H227027   6.242   5.253   3.945
 9028TIP3   OH227028   1.527   2.896   0.210
 9028TIP3    H127029   1.496   2.843   0.282
 9028TIP3    H227030   1.599   2.948   0.247
 9029TIP3   OH227031   5.570   3.093   5.874
 9029TIP3    H127032   5.619   3.168   5.906
 9029TIP3    H227033   5.493   3.131   5.830
 9030TIP3   OH227034   2.652   2.583   2.144
 9030TIP3    H127035   2.578   2.573   2.204
 9030TIP3    H227036   2.663   2.497   2.104
 9031TIP3   OH227037   5.386   6.907   2.933
 9031TIP3    H127038   5.439   6.954   2.869
 9031TIP3    H227039   5.296   6.933   2.914
 9032TIP3   OH227040   0.452   4.931   6.471
 9032TIP3    H127041   0.403   4.988   6.530
 9032TIP3    H227042   0.395   4.855   6.457
 9033TIP3   OH227043   1.986   6.816   4.446
 9033TIP3    H127044   2.062   6.873   4.434
 9033TIP3    H227045   1.940   6.852   4.521
 9034TIP3   OH227046   0.873   0.274   1.246
 9034TIP3    H127047   0.790   0.275   1.200
 9034TIP3    H227048   0.880   0.186   1.282
 9035TIP3   OH227049   0.378   4.505   4.978
 9035TIP3    H127050   0.357   4.541   5.064
 9035TIP3    H227051   0.440   4.567   4.940
 9036TIP3   OH227052   0.668   4.385   6.525
 9036TIP3    H127053   0.678   4.472   6.564
 9036TIP3    H227054   0.663   4.402   6.430
 9037TIP3   OH227055   1.483   2.316   6.166
 9037TIP3    H127056   1.546   2.369   6.215
 9037TIP3    H227057   1.533   2.283   6.091
 9038TIP3   OH227058   2.023   0.675   2.331
 9038TIP3    H127059   2.076   0.749   2.359
 9038TIP3    H227060   1.965   0.711   2.264
 9039TIP3   OH227061   1.640   4.053   4.929
 9039TIP3    H127062   1.580   4.106   4.982
 9039TIP3    H227063   1.677   3.990   4.991
 9040TIP3   OH227064   0.598   3.994   0.532
 9040TIP3    H127065   0.662   3.979   0.602
 9040TIP3    H227066   0.561   4.080   0.551
 9041TIP3   OH227067   3.100   5.417   0.310
 9041TIP3    H127068   3.024   5.468   0.337
 9041TIP3    H227069   3.081   5.328   0.339
 9042TIP3   OH227070   0.576   0.366   2.784
 9042TIP3    H127071   0.536   0.421   2.717
 9042TIP3    H227072   0.670   0.382   2.776
 9043TIP3   OH227073   1.387   3.784   0.108
 9043TIP3    H127074   1.361   3.705   0.062
 9043TIP3    H227075   1.427   3.839   0.041
 9044TIP3   OH227076   7.960   3.769   5.236
 9044TIP3    H127077   7.939   3.828   5.308
 9044TIP3    H227078   7.890   3.704   5.237
 9045TIP3   OH227079   3.195   5.949   1.682
 9045TIP3    H127080   3.273   5.925   1.732
 9045TIP3    H227081   3.129   5.884   1.707
 9046TIP3   OH227082   7.841   4.877   1.845
 9046TIP3    H127083   7.920   4.923   1.874
 9046TIP3    H227084   7.778   4.947   1.828
 9047TIP3   OH227085   0.916   6.063   5.990
 9047TIP3    H127086   0.857   6.130   6.026
 9047TIP3    H227087   1.002   6.086   6.024
 9048TIP3   OH227088   0.427   6.728   0.447
 9048TIP3    H127089   0.336   6.754   0.459
 9048TIP3    H227090   0.473   6.768   0.520
 9049TIP3   OH227091   2.014   3.231   0.399
 9049TIP3    H127092   2.030   3.177   0.322
 9049TIP3    H227093   1.919   3.232   0.409
 9050TIP3   OH227094   8.079   2.013   6.249
 9050TIP3    H127095   8.053   1.930   6.288
 9050TIP3    H227096   8.172   2.002   6.229
 9051TIP3   OH227097   6.142   2.907   3.553
 9051TIP3    H127098   6.106   2.992   3.528
 9051TIP3    H227099   6.207   2.887   3.485
 9052TIP3   OH227100   4.339   6.816   2.923
 9052TIP3    H127101   4.302   6.900   2.898
 9052TIP3    H227102   4.356   6.823   3.017
 9053TIP3   OH227103   3.451   5.972   3.049
 9053TIP3    H127104   3.525   6.027   3.024
 9053TIP3    H227105   3.389   5.982   2.977
 9054TIP3   OH227106   1.268   7.055   0.093
 9054TIP3    H127107   1.226   7.015   0.018
 9054TIP3    H227108   1.204   7.050   0.163
 9055TIP3   OH227109   1.635   1.267   6.186
 9055TIP3    H127110   1.616   1.200   6.121
 9055TIP3    H227111   1.572   1.337   6.168
 9056TIP3   OH227112   2.906   2.522   3.919
 9056TIP3    H127113   2.962   2.590   3.958
 9056TIP3    H227114   2.831   2.515   3.978
 9057TIP3   OH227115   3.021   0.281   0.031
 9057TIP3    H127116   2.973   0.214   0.079
 9057TIP3    H227117   2.965   0.301  -0.044
 9058TIP3   OH227118   2.978   6.145   6.517
 9058TIP3    H127119   2.903   6.126   6.574
 9058TIP3    H227120   2.954   6.225   6.471
 9059TIP3   OH227121   7.306   6.399   1.460
 9059TIP3    H127122   7.343   6.464   1.401
 9059TIP3    H227123   7.370   6.327   1.459
 9060TIP3   OH227124   2.338   1.830   5.336
 9060TIP3    H127125   2.277   1.774   5.385
 9060TIP3    H227126   2.425   1.796   5.357
 9061TIP3   OH227127   2.109   7.793   2.762
 9061TIP3    H127128   2.024   7.784   2.719
 9061TIP3    H227129   2.090   7.794   2.855
 9062TIP3   OH227130   4.145   4.992   0.060
 9062TIP3    H127131   4.139   4.926   0.129
 9062TIP3    H227132   4.179   5.070   0.103
 9063TIP3   OH227133   7.536   2.909   5.030
 9063TIP3    H127134   7.453   2.939   5.067
 9063TIP3    H227135   7.515   2.827   4.985
 9064TIP3   OH227136   3.764   5.859   5.152
 9064TIP3    H127137   3.718   5.855   5.235
 9064TIP3    H227138   3.843   5.910   5.170
 9065TIP3   OH227139   3.043   3.811   2.629
 9065TIP3    H127140   2.965   3.818   2.683
 9065TIP3    H227141   3.082   3.727   2.653
 9066TIP3   OH227142   3.982   0.972   1.765
 9066TIP3    H127143   3.904   1.012   1.805
 9066TIP3    H227144   3.987   1.012   1.678
 9067TIP3   OH227145   6.662   0.858   5.293
 9067TIP3    H127146   6.729   0.819   5.237
 9067TIP3    H227147   6.699   0.853   5.382
 9068TIP3   OH227148   3.743   7.135   3.424
 9068TIP3    H127149   3.663   7.153   3.474
 9068TIP3    H227150   3.811   7.127   3.490
 9069TIP3   OH227151   3.629   7.332   6.120
 9069TIP3    H127152   3.650   7.259   6.178
 9069TIP3    H227153   3.691   7.401   6.145
 9070TIP3   OH227154   0.604   4.660   3.578
 9070TIP3    H127155   0.661   4.591   3.543
 9070TIP3    H227156   0.515   4.632   3.553
 9071TIP3   OH227157   6.144   1.587   4.837
 9071TIP3    H127158   6.158   1.539   4.755
 9071TIP3    H227159   6.095   1.527   4.892
 9072TIP3   OH227160   6.877   0.437   6.074
 9072TIP3    H127161   6.786   0.457   6.094
 9072TIP3    H227162   6.918   0.522   6.062
 9073TIP3   OH227163   2.450   6.047   1.878
 9073TIP3    H127164   2.481   6.047   1.969
 9073TIP3    H227165   2.472   6.134   1.846
 9074TIP3   OH227166   6.243   4.551   0.334
 9074TIP3    H127167   6.295   4.550   0.254
 9074TIP3    H227168   6.168   4.495   0.315
 9075TIP3   OH227169   6.692   7.789   0.058
 9075TIP3    H127170   6.766   7.832   0.101
 9075TIP3    H227171   6.715   7.789  -0.035
 9076TIP3   OH227172   1.518   4.043   5.931
 9076TIP3    H127173   1.426   4.019   5.944
 9076TIP3    H227174   1.551   4.057   6.020
 9077TIP3   OH227175   5.972   4.038   0.195
 9077TIP3    H127176   5.916   3.961   0.204
 9077TIP3    H227177   5.997   4.038   0.102
 9078TIP3   OH227178   6.117   0.681   5.552
 9078TIP3    H127179   6.086   0.727   5.474
 9078TIP3    H227180   6.210   0.668   5.537
 9079TIP3   OH227181   7.500   6.486   3.655
 9079TIP3    H127182   7.542   6.400   3.656
 9079TIP3    H227183   7.476   6.501   3.747
 9080TIP3   OH227184   7.117   6.341   0.908
 9080TIP3    H127185   7.168   6.402   0.854
 9080TIP3    H227186   7.080   6.279   0.845
 9081TIP3   OH227187   6.543   4.996   1.473
 9081TIP3    H127188   6.587   4.912   1.484
 9081TIP3    H227189   6.604   5.049   1.422
 9082TIP3   OH227190   5.049   2.434   5.867
 9082TIP3    H127191   5.127   2.475   5.904
 9082TIP3    H227192   5.052   2.455   5.774
 9083TIP3   OH227193   6.411   0.980   6.197
 9083TIP3    H127194   6.483   0.957   6.256
 9083TIP3    H227195   6.359   1.043   6.246
 9084TIP3   OH227196   4.193   2.550   1.108
 9084TIP3    H127197   4.154   2.473   1.069
 9084TIP3    H227198   4.266   2.573   1.050
 9085TIP3   OH227199   7.476   1.746   3.077
 9085TIP3    H127200   7.394   1.760   3.124
 9085TIP3    H227201   7.544   1.771   3.139
 9086TIP3   OH227202   4.186   5.689   4.770
 9086TIP3    H127203   4.134   5.679   4.850
 9086TIP3    H227204   4.249   5.759   4.792
 9087TIP3   OH227205   3.802   0.470   5.942
 9087TIP3    H127206   3.873   0.406   5.939
 9087TIP3    H227207   3.738   0.438   5.880
 9088TIP3   OH227208   2.503   6.719   3.056
 9088TIP3    H127209   2.432   6.781   3.069
 9088TIP3    H227210   2.558   6.730   3.134
 9089TIP3   OH227211   5.009   1.916   0.205
 9089TIP3    H127212   5.103   1.935   0.208
 9089TIP3    H227213   5.000   1.850   0.136
 9090TIP3   OH227214   4.168   6.697   4.159
 9090TIP3    H127215   4.085   6.661   4.128
 9090TIP3    H227216   4.215   6.721   4.080
 9091TIP3   OH227217   8.186   2.366   0.693
 9091TIP3    H127218   8.093   2.355   0.711
 9091TIP3    H227219   8.215   2.434   0.754
 9092TIP3   OH227220   5.227   1.286   5.867
 9092TIP3    H127221   5.156   1.267   5.928
 9092TIP3    H227222   5.185   1.329   5.793
 9093TIP3   OH227223   4.159   5.074   2.838
 9093TIP3    H127224   4.158   5.156   2.887
 9093TIP3    H227225   4.085   5.025   2.872
 9094TIP3   OH227226   6.648   4.948   3.088
 9094TIP3    H127227   6.650   4.991   3.174
 9094TIP3    H227228   6.696   5.008   3.030
 9095TIP3   OH227229   7.015   0.232   5.272
 9095TIP3    H127230   7.019   0.327   5.261
 9095TIP3    H227231   7.101   0.201   5.242
 9096TIP3   OH227232   0.007   6.408   3.342
 9096TIP3    H127233  -0.014   6.485   3.288
 9096TIP3    H227234   0.098   6.388   3.319
 9097TIP3   OH227235   7.680   5.069   5.738
 9097TIP3    H127236   7.600   5.039   5.781
 9097TIP3    H227237   7.734   4.991   5.730
 9098TIP3   OH227238   5.426   1.545   4.438
 9098TIP3    H127239   5.345   1.533   4.389
 9098TIP3    H227240   5.472   1.616   4.392
 9099TIP3   OH227241   5.832   2.330   0.043
 9099TIP3    H127242   5.908   2.313   0.099
 9099TIP3    H227243   5.829   2.425   0.035
 9100TIP3   OH227244   4.972   2.999   4.951
 9100TIP3    H127245   5.056   3.036   4.978
 9100TIP3    H227246   4.996   2.922   4.899
 9101TIP3   OH227247   1.033   4.141   4.171
 9101TIP3    H127248   1.034   4.217   4.230
 9101TIP3    H227249   1.120   4.102   4.181
 9102TIP3   OH227250   1.290   6.513   1.590
 9102TIP3    H127251   1.239   6.587   1.557
 9102TIP3    H227252   1.357   6.553   1.644
 9103TIP3   OH227253   6.868   1.197   5.471
 9103TIP3    H127254   6.882   1.227   5.561
 9103TIP3    H227255   6.908   1.110   5.469
 9104TIP3   OH227256   7.101   0.151   3.407
 9104TIP3    H127257   7.074   0.233   3.448
 9104TIP3    H227258   7.075   0.161   3.315
 9105TIP3   OH227259   3.740   2.582   2.196
 9105TIP3    H127260   3.829   2.608   2.175
 9105TIP3    H227261   3.738   2.575   2.291
 9106TIP3   OH227262   1.083   3.179   4.308
 9106TIP3    H127263   1.108   3.177   4.400
 9106TIP3    H227264   1.027   3.256   4.300
 9107TIP3   OH227265   1.500   4.804   6.283
 9107TIP3    H127266   1.565   4.774   6.219
 9107TIP3    H227267   1.469   4.888   6.247
 9108TIP3   OH227268   7.427   4.380   2.648
 9108TIP3    H127269   7.336   4.388   2.676
 9108TIP3    H227270   7.441   4.455   2.590
 9109TIP3   OH227271   0.099   5.737   1.985
 9109TIP3    H127272   0.171   5.797   1.967
 9109TIP3    H227273   0.022   5.793   1.988
 9110TIP3   OH227274   0.181   2.049   2.795
 9110TIP3    H127275   0.209   2.122   2.740
 9110TIP3    H227276   0.113   2.005   2.744
 9111TIP3   OH227277   5.527   6.130   1.517
 9111TIP3    H127278   5.455   6.187   1.546
 9111TIP3    H227279   5.598   6.191   1.495
 9112TIP3   OH227280   7.466   1.359   2.407
 9112TIP3    H127281   7.428   1.349   2.494
 9112TIP3    H227282   7.439   1.446   2.378
 9113TIP3   OH227283   1.057   6.102   0.059
 9113TIP3    H127284   1.022   6.175   0.008
 9113TIP3    H227285   1.000   6.097   0.136
 9114TIP3   OH227286   5.701   3.364   5.638
 9114TIP3    H127287   5.696   3.289   5.697
 9114TIP3    H227288   5.725   3.437   5.695
 9115TIP3   OH227289   4.187   5.344   4.260
 9115TIP3    H127290   4.195   5.272   4.197
 9115TIP3    H227291   4.277   5.360   4.289
 9116TIP3   OH227292   6.784   4.820   1.940
 9116TIP3    H127293   6.762   4.883   2.010
 9116TIP3    H227294   6.744   4.858   1.861
 9117TIP3   OH227295   4.634   0.785   5.375
 9117TIP3    H127296   4.657   0.720   5.443
 9117TIP3    H227297   4.713   0.792   5.321
 9118TIP3   OH227298   6.288   4.811   4.135
 9118TIP3    H127299   6.235   4.885   4.163
 9118TIP3    H227300   6.260   4.739   4.190
 9119TIP3   OH227301   0.507   5.927   5.730
 9119TIP3    H127302   0.489   5.856   5.669
 9119TIP3    H227303   0.594   5.907   5.765
 9120TIP3   OH227304   2.843   1.650   6.058
 9120TIP3    H127305   2.786   1.719   6.026
 9120TIP3    H227306   2.790   1.602   6.122
 9121TIP3   OH227307   5.771   1.821   2.363
 9121TIP3    H127308   5.695   1.761   2.361
 9121TIP3    H227309   5.847   1.762   2.366
 9122TIP3   OH227310   4.390   0.774   6.593
 9122TIP3    H127311   4.464   0.748   6.647
 9122TIP3    H227312   4.362   0.694   6.549
 9123TIP3   OH227313   4.575   0.224   2.925
 9123TIP3    H127314   4.562   0.161   2.996
 9123TIP3    H227315   4.488   0.232   2.884
 9124TIP3   OH227316   3.550   0.891   4.860
 9124TIP3    H127317   3.589   0.832   4.924
 9124TIP3    H227318   3.598   0.973   4.871
 9125TIP3   OH227319   2.598   5.085   3.914
 9125TIP3    H127320   2.565   5.147   3.979
 9125TIP3    H227321   2.589   5.131   3.830
 9126TIP3   OH227322   8.170   5.479   4.264
 9126TIP3    H127323   8.171   5.409   4.199
 9126TIP3    H227324   8.196   5.558   4.216
 9127TIP3   OH227325   0.814   0.781   5.780
 9127TIP3    H127326   0.890   0.751   5.730
 9127TIP3    H227327   0.809   0.720   5.854
 9128TIP3   OH227328   0.712   3.681   5.145
 9128TIP3    H127329   0.795   3.701   5.102
 9128TIP3    H227330   0.686   3.764   5.186
 9129TIP3   OH227331   6.738   4.639   0.032
 9129TIP3    H127332   6.817   4.691   0.039
 9129TIP3    H227333   6.723   4.630  -0.062
 9130TIP3   OH227334   0.759   0.766   5.405
 9130TIP3    H127335   0.817   0.793   5.334
 9130TIP3    H227336   0.757   0.841   5.465
 9131TIP3   OH227337   1.965   3.233   6.666
 9131TIP3    H127338   1.966   3.324   6.637
 9131TIP3    H227339   1.876   3.203   6.648
 9132TIP3   OH227340   7.127   4.494   3.658
 9132TIP3    H127341   7.118   4.581   3.618
 9132TIP3    H227342   7.215   4.466   3.635
 9133TIP3   OH227343   0.575   5.000   5.022
 9133TIP3    H127344   0.494   5.013   4.972
 9133TIP3    H227345   0.632   5.072   4.996
 9134TIP3   OH227346   3.109   7.807   4.937
 9134TIP3    H127347   3.091   7.767   4.852
 9134TIP3    H227348   3.197   7.777   4.959
 9135TIP3   OH227349   4.114   3.142   1.625
 9135TIP3    H127350   4.139   3.083   1.554
 9135TIP3    H227351   4.184   3.207   1.627
 9136TIP3   OH227352   1.325   4.484   4.650
 9136TIP3    H127353   1.364   4.534   4.579
 9136TIP3    H227354   1.317   4.546   4.722
 9137TIP3   OH227355   7.554   2.005   1.827
 9137TIP3    H127356   7.559   1.913   1.853
 9137TIP3    H227357   7.464   2.031   1.847
 9138TIP3   OH227358   1.101   2.356   4.116
 9138TIP3    H127359   1.156   2.431   4.141
 9138TIP3    H227360   1.091   2.305   4.197
 9139TIP3   OH227361   1.865   7.639   0.410
 9139TIP3    H127362   1.850   7.733   0.414
 9139TIP3    H227363   1.777   7.601   0.413
 9140TIP3   OH227364   2.206   1.065   3.981
 9140TIP3    H127365   2.140   1.134   3.981
 9140TIP3    H227366   2.172   0.998   4.040
 9141TIP3   OH227367   6.531   4.684   0.217
 9141TIP3    H127368   6.450   4.683   0.166
 9141TIP3    H227369   6.600   4.664   0.154
 9142TIP3   OH227370   6.756   2.251   3.120
 9142TIP3    H127371   6.753   2.343   3.148
 9142TIP3    H227372   6.700   2.248   3.043
 9143TIP3   OH227373   6.721   2.422   2.743
 9143TIP3    H127374   6.646   2.399   2.798
 9143TIP3    H227375   6.688   2.490   2.684
 9144TIP3   OH227376   6.093   4.043   3.731
 9144TIP3    H127377   6.186   4.061   3.714
 9144TIP3    H227378   6.050   4.127   3.715
 9145TIP3   OH227379   6.003   7.190   5.028
 9145TIP3    H127380   5.952   7.119   4.988
 9145TIP3    H227381   6.053   7.148   5.097
 9146TIP3   OH227382   4.012   7.014   2.126
 9146TIP3    H127383   3.949   7.065   2.075
 9146TIP3    H227384   4.097   7.052   2.104
 9147TIP3   OH227385   2.123   7.624   5.779
 9147TIP3    H127386   2.155   7.711   5.806
 9147TIP3    H227387   2.089   7.585   5.860
 9148TIP3   OH227388   3.222   2.008   1.662
 9148TIP3    H127389   3.284   2.081   1.667
 9148TIP3    H227390   3.277   1.930   1.656
 9149TIP3   OH227391   0.381   2.989   4.350
 9149TIP3    H127392   0.336   3.010   4.268
 9149TIP3    H227393   0.419   2.902   4.335
 9150TIP3   OH227394   5.436   3.493   2.941
 9150TIP3    H127395   5.439   3.398   2.951
 9150TIP3    H227396   5.360   3.520   2.992
 9151TIP3   OH227397   7.986   5.617   1.343
 9151TIP3    H127398   7.906   5.662   1.317
 9151TIP3    H227399   7.970   5.592   1.434
 9152TIP3   OH227400   6.865   6.515   5.912
 9152TIP3    H127401   6.809   6.592   5.921
 9152TIP3    H227402   6.836   6.472   5.831
 9153TIP3   OH227403   5.118   0.440   3.443
 9153TIP3    H127404   5.155   0.397   3.367
 9153TIP3    H227405   5.025   0.450   3.423
 9154TIP3   OH227406   5.153   7.045   2.869
 9154TIP3    H127407   5.121   7.082   2.787
 9154TIP3    H227408   5.103   7.090   2.937
 9155TIP3   OH227409   6.437   0.504   3.020
 9155TIP3    H127410   6.488   0.428   3.049
 9155TIP3    H227411   6.447   0.568   3.092
 9156TIP3   OH227412   0.651   2.702   3.278
 9156TIP3    H127413   0.586   2.641   3.314
 9156TIP3    H227414   0.735   2.661   3.297
 9157TIP3   OH227415   7.478   7.135   2.010
 9157TIP3    H127416   7.556   7.189   1.994
 9157TIP3    H227417   7.420   7.191   2.061
 9158TIP3   OH227418   4.170   1.616   1.483
 9158TIP3    H127419   4.076   1.630   1.491
 9158TIP3    H227420   4.209   1.675   1.547
 9159TIP3   OH227421   2.197   0.929   1.599
 9159TIP3    H127422   2.199   0.982   1.678
 9159TIP3    H227423   2.208   0.839   1.630
 9160TIP3   OH227424   2.854   7.024   2.198
 9160TIP3    H127425   2.827   7.115   2.208
 9160TIP3    H227426   2.848   7.007   2.104
 9161TIP3   OH227427   1.800   0.089   3.695
 9161TIP3    H127428   1.886   0.053   3.674
 9161TIP3    H227429   1.756   0.096   3.610
 9162TIP3   OH227430   4.322   1.163   1.796
 9162TIP3    H127431   4.257   1.187   1.729
 9162TIP3    H227432   4.403   1.202   1.766
 9163TIP3   OH227433   5.898   3.481   5.269
 9163TIP3    H127434   5.887   3.431   5.188
 9163TIP3    H227435   5.823   3.540   5.271
 9164TIP3   OH227436   3.807   2.859   3.941
 9164TIP3    H127437   3.850   2.942   3.960
 9164TIP3    H227438   3.780   2.825   4.026
 9165TIP3   OH227439   6.610   5.287   6.737
 9165TIP3    H127440   6.544   5.339   6.692
 9165TIP3    H227441   6.689   5.298   6.685
 9166TIP3   OH227442   2.936   5.909   5.820
 9166TIP3    H127443   2.901   5.996   5.802
 9166TIP3    H227444   2.936   5.865   5.735
 9167TIP3   OH227445   3.449   3.805   6.281
 9167TIP3    H127446   3.496   3.724   6.300
 9167TIP3    H227447   3.497   3.843   6.207
 9168TIP3   OH227448   0.177   4.363   0.371
 9168TIP3    H127449   0.109   4.420   0.405
 9168TIP3    H227450   0.135   4.313   0.302
 9169TIP3   OH227451   0.322   3.974   4.281
 9169TIP3    H127452   0.232   3.994   4.258
 9169TIP3    H227453   0.374   4.010   4.208
 9170TIP3   OH227454   2.822   5.833   1.138
 9170TIP3    H127455   2.776   5.885   1.204
 9170TIP3    H227456   2.854   5.756   1.186
 9171TIP3   OH227457   4.124   2.443   4.808
 9171TIP3    H127458   4.198   2.469   4.753
 9171TIP3    H227459   4.047   2.480   4.765
 9172TIP3   OH227460   8.060   4.424   5.350
 9172TIP3    H127461   7.966   4.437   5.352
 9172TIP3    H227462   8.097   4.511   5.333
 9173TIP3   OH227463   5.989   7.505   1.713
 9173TIP3    H127464   5.894   7.504   1.721
 9173TIP3    H227465   6.009   7.427   1.660
 9174TIP3   OH227466   6.360   2.810   4.084
 9174TIP3    H127467   6.360   2.829   4.178
 9174TIP3    H227468   6.353   2.896   4.043
 9175TIP3   OH227469   4.123   7.546   2.429
 9175TIP3    H127470   4.031   7.574   2.430
 9175TIP3    H227471   4.162   7.589   2.505
 9176TIP3   OH227472   0.436   3.084   1.052
 9176TIP3    H127473   0.416   2.992   1.037
 9176TIP3    H227474   0.371   3.132   0.999
 9177TIP3   OH227475   6.067   1.395   2.626
 9177TIP3    H127476   6.061   1.302   2.603
 9177TIP3    H227477   6.098   1.438   2.546
 9178TIP3   OH227478   2.471   1.569   2.657
 9178TIP3    H127479   2.534   1.548   2.588
 9178TIP3    H227480   2.510   1.642   2.705
 9179TIP3   OH227481   6.502   7.128   2.728
 9179TIP3    H127482   6.455   7.181   2.665
 9179TIP3    H227483   6.439   7.110   2.797
 9180TIP3   OH227484   5.022   6.758   6.696
 9180TIP3    H127485   5.007   6.668   6.725
 9180TIP3    H227486   5.114   6.775   6.716
 9181TIP3   OH227487   4.681   1.732   0.752
 9181TIP3    H127488   4.736   1.768   0.682
 9181TIP3    H227489   4.711   1.642   0.762
 9182TIP3   OH227490   2.344   2.003   0.032
 9182TIP3    H127491   2.425   2.044   0.063
 9182TIP3    H227492   2.323   1.938   0.098
 9183TIP3   OH227493   1.776   3.649   2.458
 9183TIP3    H127494   1.824   3.720   2.501
 9183TIP3    H227495   1.728   3.606   2.529
 9184TIP3   OH227496   4.367   3.500   0.829
 9184TIP3    H127497   4.370   3.414   0.872
 9184TIP3    H227498   4.407   3.486   0.744
 9185TIP3   OH227499   3.051   5.524   3.516
 9185TIP3    H127500   2.974   5.564   3.475
 9185TIP3    H227501   3.123   5.583   3.494
 9186TIP3   OH227502   6.002   2.720   5.204
 9186TIP3    H127503   6.023   2.759   5.289
 9186TIP3    H227504   5.983   2.795   5.147
 9187TIP3   OH227505   2.447   0.136   5.305
 9187TIP3    H127506   2.510   0.091   5.361
 9187TIP3    H227507   2.398   0.193   5.364
 9188TIP3   OH227508   3.029   2.203   5.121
 9188TIP3    H127509   3.115   2.213   5.082
 9188TIP3    H227510   3.031   2.116   5.162
 9189TIP3   OH227511   2.920   3.080   2.596
 9189TIP3    H127512   2.932   3.052   2.686
 9189TIP3    H227513   2.870   3.162   2.602
 9190TIP3   OH227514   1.644   4.424   4.412
 9190TIP3    H127515   1.679   4.335   4.417
 9190TIP3    H227516   1.628   4.448   4.503
 9191TIP3   OH227517   6.764   0.835   3.078
 9191TIP3    H127518   6.810   0.887   3.143
 9191TIP3    H227519   6.721   0.899   3.021
 9192TIP3   OH227520   3.331   5.925   5.836
 9192TIP3    H127521   3.330   5.924   5.932
 9192TIP3    H227522   3.264   5.989   5.812
 9193TIP3   OH227523   5.285   5.096   4.550
 9193TIP3    H127524   5.272   5.004   4.525
 9193TIP3    H227525   5.327   5.135   4.473
 9194TIP3   OH227526   7.536   1.845   2.437
 9194TIP3    H127527   7.612   1.806   2.480
 9194TIP3    H227528   7.500   1.906   2.501
 9195TIP3   OH227529   7.963   2.091   5.586
 9195TIP3    H127530   7.881   2.073   5.631
 9195TIP3    H227531   8.031   2.077   5.652
 9196TIP3   OH227532   3.571   1.828   6.506
 9196TIP3    H127533   3.542   1.792   6.423
 9196TIP3    H227534   3.662   1.853   6.491
 9197TIP3   OH227535   4.016   2.483   5.957
 9197TIP3    H127536   4.034   2.576   5.940
 9197TIP3    H227537   3.954   2.458   5.888
 9198TIP3   OH227538   0.592   1.397   4.228
 9198TIP3    H127539   0.565   1.460   4.161
 9198TIP3    H227540   0.568   1.312   4.191
 9199TIP3   OH227541   7.099   4.371   1.074
 9199TIP3    H127542   7.178   4.330   1.111
 9199TIP3    H227543   7.074   4.436   1.140
 9200TIP3   OH227544   4.492   2.708   6.039
 9200TIP3    H127545   4.421   2.697   6.102
 9200TIP3    H227546   4.562   2.751   6.089
 9201TIP3   OH227547   3.933   2.419   2.397
 9201TIP3    H127548   3.851   2.422   2.447
 9201TIP3    H227549   3.941   2.507   2.360
 9202TIP3   OH227550   6.734   1.176   3.981
 9202TIP3    H127551   6.770   1.261   4.004
 9202TIP3    H227552   6.709   1.137   4.064
 9203TIP3   OH227553   3.327   4.295   4.934
 9203TIP3    H127554   3.395   4.228   4.926
 9203TIP3    H227555   3.374   4.378   4.929
 9204TIP3   OH227556   7.578   7.205   5.944
 9204TIP3    H127557   7.634   7.177   5.871
 9204TIP3    H227558   7.504   7.144   5.942
 9205TIP3   OH227559   8.067   1.322   4.929
 9205TIP3    H127560   8.057   1.399   4.874
 9205TIP3    H227561   8.120   1.351   5.003
 9206TIP3   OH227562   7.295   6.030   6.189
 9206TIP3    H127563   7.321   5.961   6.250
 9206TIP3    H227564   7.229   5.990   6.133
 9207TIP3   OH227565   5.932   7.643   6.582
 9207TIP3    H127566   5.979   7.705   6.527
 9207TIP3    H227567   5.850   7.626   6.536
 9208TIP3   OH227568   8.084   0.889   2.414
 9208TIP3    H127569   8.002   0.898   2.464
 9208TIP3    H227570   8.064   0.924   2.328
 9209TIP3   OH227571   7.386   2.249   2.760
 9209TIP3    H127572   7.462   2.221   2.811
 9209TIP3    H227573   7.418   2.321   2.706
 9210TIP3   OH227574   1.021   3.804   3.729
 9210TIP3    H127575   1.106   3.774   3.698
 9210TIP3    H227576   1.039   3.884   3.778
 9211TIP3   OH227577   3.901   3.346   2.019
 9211TIP3    H127578   3.859   3.287   2.082
 9211TIP3    H227579   3.829   3.396   1.981
 9212TIP3   OH227580   3.200   1.397   1.585
 9212TIP3    H127581   3.285   1.440   1.575
 9212TIP3    H227582   3.180   1.364   1.498
 9213TIP3   OH227583   0.762   6.242   6.122
 9213TIP3    H127584   0.794   6.329   6.147
 9213TIP3    H227585   0.671   6.241   6.151
 9214TIP3   OH227586   7.336   1.924   4.203
 9214TIP3    H127587   7.308   2.004   4.247
 9214TIP3    H227588   7.391   1.954   4.131
 9215TIP3   OH227589   6.420   2.797   1.383
 9215TIP3    H127590   6.497   2.799   1.325
 9215TIP3    H227591   6.408   2.704   1.403
 9216TIP3   OH227592   4.253   2.699   2.443
 9216TIP3    H127593   4.262   2.652   2.361
 9216TIP3    H227594   4.343   2.725   2.466
 9217TIP3   OH227595   7.788   1.767   5.276
 9217TIP3    H127596   7.819   1.856   5.294
 9217TIP3    H227597   7.701   1.763   5.315
 9218TIP3   OH227598   2.862   4.787   2.008
 9218TIP3    H127599   2.918   4.863   2.025
 9218TIP3    H227600   2.879   4.766   1.916
 9219TIP3   OH227601   2.013   4.612   1.126
 9219TIP3    H127602   1.962   4.540   1.162
 9219TIP3    H227603   2.101   4.598   1.161
 9220TIP3   OH227604   5.837   0.530   2.632
 9220TIP3    H127605   5.811   0.460   2.691
 9220TIP3    H227606   5.802   0.610   2.671
 9221TIP3   OH227607   7.516   1.405   4.393
 9221TIP3    H127608   7.513   1.376   4.302
 9221TIP3    H227609   7.592   1.463   4.398
 9222TIP3   OH227610   3.542   6.722   5.129
 9222TIP3    H127611   3.562   6.645   5.182
 9222TIP3    H227612   3.451   6.711   5.103
 9223TIP3   OH227613   2.792   2.542   1.515
 9223TIP3    H127614   2.839   2.459   1.521
 9223TIP3    H227615   2.783   2.572   1.606
 9224TIP3   OH227616   6.560   1.343   0.759
 9224TIP3    H127617   6.586   1.386   0.678
 9224TIP3    H227618   6.643   1.321   0.802
 9225TIP3   OH227619   3.107   6.047   0.496
 9225TIP3    H127620   3.116   6.106   0.570
 9225TIP3    H227621   3.032   6.080   0.447
 9226TIP3   OH227622   2.589   6.175   0.314
 9226TIP3    H127623   2.610   6.206   0.226
 9226TIP3    H227624   2.504   6.130   0.304
 9227TIP3   OH227625   0.880   3.782   6.308
 9227TIP3    H127626   0.877   3.750   6.399
 9227TIP3    H227627   0.789   3.776   6.278
 9228TIP3   OH227628   1.861   0.818   1.098
 9228TIP3    H127629   1.945   0.773   1.085
 9228TIP3    H227630   1.804   0.781   1.031
 9229TIP3   OH227631   4.150   1.177   1.115
 9229TIP3    H127632   4.232   1.178   1.067
 9229TIP3    H227633   4.084   1.202   1.050
 9230TIP3   OH227634   0.619   3.779   0.054
 9230TIP3    H127635   0.542   3.787   0.109
 9230TIP3    H227636   0.677   3.851   0.081
 9231TIP3   OH227637   7.223   6.605   2.798
 9231TIP3    H127638   7.190   6.548   2.867
 9231TIP3    H227639   7.315   6.581   2.789
 9232TIP3   OH227640   3.137   2.904   4.524
 9232TIP3    H127641   3.197   2.883   4.453
 9232TIP3    H227642   3.191   2.901   4.603
 9233TIP3   OH227643   4.809   5.819   3.569
 9233TIP3    H127644   4.806   5.907   3.532
 9233TIP3    H227645   4.727   5.778   3.541
 9234TIP3   OH227646   6.651   6.131   3.561
 9234TIP3    H127647   6.561   6.150   3.588
 9234TIP3    H227648   6.699   6.211   3.583
 9235TIP3   OH227649   1.331   0.860   2.411
 9235TIP3    H127650   1.358   0.777   2.451
 9235TIP3    H227651   1.267   0.896   2.472
 9236TIP3   OH227652   6.223   4.894   4.567
 9236TIP3    H127653   6.151   4.887   4.503
 9236TIP3    H227654   6.251   4.985   4.560
 9237TIP3   OH227655   6.249   3.177   2.778
 9237TIP3    H127656   6.179   3.118   2.751
 9237TIP3    H227657   6.302   3.188   2.699
 9238TIP3   OH227658   1.946   6.772   0.477
 9238TIP3    H127659   1.997   6.846   0.511
 9238TIP3    H227660   2.006   6.698   0.484
 9239TIP3   OH227661   3.182   4.313   4.145
 9239TIP3    H127662   3.242   4.349   4.079
 9239TIP3    H227663   3.095   4.334   4.112
 9240TIP3   OH227664   7.674   3.326   5.036
 9240TIP3    H127665   7.640   3.314   4.947
 9240TIP3    H227666   7.713   3.242   5.059
 9241TIP3   OH227667   4.034   5.601   0.750
 9241TIP3    H127668   3.988   5.526   0.712
 9241TIP3    H227669   4.127   5.581   0.737
 9242TIP3   OH227670   0.456   4.376   6.721
 9242TIP3    H127671   0.451   4.463   6.761
 9242TIP3    H227672   0.519   4.386   6.650
 9243TIP3   OH227673   6.038   2.571   4.135
 9243TIP3    H127674   6.120   2.546   4.177
 9243TIP3    H227675   6.016   2.496   4.079
 9244TIP3   OH227676   4.354   1.523   3.090
 9244TIP3    H127677   4.277   1.504   3.144
 9244TIP3    H227678   4.425   1.476   3.133
 9245TIP3   OH227679   1.107   0.311   5.372
 9245TIP3    H127680   1.018   0.321   5.340
 9245TIP3    H227681   1.154   0.267   5.300
 9246TIP3   OH227682   0.377   4.612   1.137
 9246TIP3    H127683   0.378   4.620   1.233
 9246TIP3    H227684   0.340   4.525   1.121
 9247TIP3   OH227685   8.225   5.100   0.150
 9247TIP3    H127686   8.246   5.142   0.233
 9247TIP3    H227687   8.211   5.008   0.172
 9248TIP3   OH227688   4.228   7.549   1.662
 9248TIP3    H127689   4.204   7.474   1.718
 9248TIP3    H227690   4.272   7.610   1.721
 9249TIP3   OH227691   7.247   1.192   5.932
 9249TIP3    H127692   7.340   1.170   5.923
 9249TIP3    H227693   7.246   1.278   5.974
 9250TIP3   OH227694   5.204   1.020   0.027
 9250TIP3    H127695   5.175   1.056  -0.057
 9250TIP3    H227696   5.262   1.087   0.063
 9251TIP3   OH227697   7.431   0.131   4.119
 9251TIP3    H127698   7.419   0.158   4.027
 9251TIP3    H227699   7.504   0.069   4.116
 9252TIP3   OH227700   1.009   0.932   2.854
 9252TIP3    H127701   1.045   0.951   2.940
 9252TIP3    H227702   0.963   1.012   2.829
 9253TIP3   OH227703   2.496   5.777   3.428
 9253TIP3    H127704   2.438   5.737   3.492
 9253TIP3    H227705   2.578   5.790   3.475
 9254TIP3   OH227706   3.472   1.943   2.803
 9254TIP3    H127707   3.486   1.972   2.713
 9254TIP3    H227708   3.470   2.024   2.855
 9255TIP3   OH227709   6.525   2.888   6.248
 9255TIP3    H127710   6.610   2.932   6.235
 9255TIP3    H227711   6.535   2.839   6.329
 9256TIP3   OH227712   3.463   0.030   0.196
 9256TIP3    H127713   3.546  -0.014   0.217
 9256TIP3    H227714   3.474   0.060   0.106
 9257TIP3   OH227715   5.688   3.984   4.296
 9257TIP3    H127716   5.623   4.054   4.289
 9257TIP3    H227717   5.675   3.931   4.217
 9258TIP3   OH227718   1.783   4.321   5.095
 9258TIP3    H127719   1.734   4.397   5.126
 9258TIP3    H227720   1.812   4.345   5.007
 9259TIP3   OH227721   5.114   0.943   6.559
 9259TIP3    H127722   5.026   0.927   6.593
 9259TIP3    H227723   5.115   1.037   6.540
 9260TIP3   OH227724   2.831   0.643   2.474
 9260TIP3    H127725   2.909   0.697   2.489
 9260TIP3    H227726   2.842   0.569   2.534
 9261TIP3   OH227727   0.659   4.987   0.372
 9261TIP3    H127728   0.726   5.000   0.439
 9261TIP3    H227729   0.585   4.950   0.420
 9262TIP3   OH227730   3.174   3.009   4.146
 9262TIP3    H127731   3.195   2.916   4.144
 9262TIP3    H227732   3.087   3.014   4.104
 9263TIP3   OH227733   3.501   5.792   4.445
 9263TIP3    H127734   3.511   5.814   4.538
 9263TIP3    H227735   3.564   5.722   4.430
 9264TIP3   OH227736   2.400   4.375   6.553
 9264TIP3    H127737   2.376   4.343   6.466
 9264TIP3    H227738   2.475   4.321   6.578
 9265TIP3   OH227739   3.704   4.627   1.933
 9265TIP3    H127740   3.670   4.647   2.020
 9265TIP3    H227741   3.798   4.614   1.946
 9266TIP3   OH227742   5.484   6.474   4.789
 9266TIP3    H127743   5.503   6.492   4.881
 9266TIP3    H227744   5.537   6.536   4.740
 9267TIP3   OH227745   5.979   0.658   5.322
 9267TIP3    H127746   5.961   0.576   5.368
 9267TIP3    H227747   6.019   0.632   5.239
 9268TIP3   OH227748   6.375   0.384   4.675
 9268TIP3    H127749   6.407   0.295   4.663
 9268TIP3    H227750   6.319   0.401   4.599
 9269TIP3   OH227751   5.496   4.420   2.900
 9269TIP3    H127752   5.500   4.388   2.990
 9269TIP3    H227753   5.582   4.398   2.863
 9270TIP3   OH227754   7.746   6.372   3.988
 9270TIP3    H127755   7.824   6.322   3.962
 9270TIP3    H227756   7.763   6.397   4.079
 9271TIP3   OH227757   6.102   5.375   5.938
 9271TIP3    H127758   6.196   5.357   5.937
 9271TIP3    H227759   6.097   5.470   5.950
 9272TIP3   OH227760   6.605   5.753   0.251
 9272TIP3    H127761   6.552   5.731   0.328
 9272TIP3    H227762   6.545   5.741   0.177
 9273TIP3   OH227763   2.192   3.861   0.547
 9273TIP3    H127764   2.117   3.919   0.532
 9273TIP3    H227765   2.256   3.916   0.593
 9274TIP3   OH227766   7.662   4.945   5.357
 9274TIP3    H127767   7.697   5.029   5.327
 9274TIP3    H227768   7.669   4.888   5.281
 9275TIP3   OH227769   6.879   4.950   5.470
 9275TIP3    H127770   6.919   4.930   5.386
 9275TIP3    H227771   6.949   4.991   5.521
 9276TIP3   OH227772   6.575   1.684   1.123
 9276TIP3    H127773   6.551   1.601   1.083
 9276TIP3    H227774   6.492   1.722   1.153
 9277TIP3   OH227775   1.049   4.557   3.827
 9277TIP3    H127776   0.970   4.503   3.818
 9277TIP3    H227777   1.046   4.617   3.753
 9278TIP3   OH227778   6.143   1.988   5.164
 9278TIP3    H127779   6.130   1.927   5.092
 9278TIP3    H227780   6.058   1.990   5.209
 9279TIP3   OH227781   5.950   1.467   5.576
 9279TIP3    H127782   5.901   1.545   5.602
 9279TIP3    H227783   6.024   1.464   5.636
 9280TIP3   OH227784   1.867   2.302   4.058
 9280TIP3    H127785   1.959   2.280   4.075
 9280TIP3    H227786   1.842   2.361   4.129
 9281TIP3   OH227787   3.811   0.450   0.461
 9281TIP3    H127788   3.721   0.442   0.494
 9281TIP3    H227789   3.823   0.544   0.448
 9282TIP3   OH227790   1.683   5.560   3.761
 9282TIP3    H127791   1.768   5.524   3.736
 9282TIP3    H227792   1.680   5.549   3.857
 9283TIP3   OH227793   0.716   0.008   3.016
 9283TIP3    H127794   0.728  -0.031   3.102
 9283TIP3    H227795   0.800   0.048   2.995
 9284TIP3   OH227796   7.728   4.234   1.461
 9284TIP3    H127797   7.748   4.275   1.376
 9284TIP3    H227798   7.733   4.306   1.524
 9285TIP3   OH227799   3.340   6.200   3.399
 9285TIP3    H127800   3.348   6.105   3.393
 9285TIP3    H227801   3.247   6.215   3.417
 9286TIP3   OH227802   2.309   4.650   0.818
 9286TIP3    H127803   2.387   4.705   0.827
 9286TIP3    H227804   2.295   4.644   0.723
 9287TIP3   OH227805   4.421   7.363   1.913
 9287TIP3    H127806   4.327   7.382   1.922
 9287TIP3    H227807   4.461   7.448   1.897
 9288TIP3   OH227808   7.091   2.479   4.208
 9288TIP3    H127809   7.035   2.408   4.240
 9288TIP3    H227810   7.062   2.494   4.118
 9289TIP3   OH227811   2.830   4.641   2.708
 9289TIP3    H127812   2.916   4.683   2.717
 9289TIP3    H227813   2.793   4.681   2.629
 9290TIP3   OH227814   6.857   3.960   2.613
 9290TIP3    H127815   6.943   3.997   2.593
 9290TIP3    H227816   6.807   3.969   2.532
 9291TIP3   OH227817   4.109   3.649   0.270
 9291TIP3    H127818   4.036   3.589   0.255
 9291TIP3    H227819   4.187   3.595   0.259
 9292TIP3   OH227820   6.456   2.949   4.563
 9292TIP3    H127821   6.397   2.896   4.617
 9292TIP3    H227822   6.429   2.930   4.473
 9293TIP3   OH227823   7.379   7.378   2.192
 9293TIP3    H127824   7.334   7.293   2.196
 9293TIP3    H227825   7.466   7.361   2.227
 9294TIP3   OH227826   0.726   5.332   3.264
 9294TIP3    H127827   0.783   5.286   3.326
 9294TIP3    H227828   0.642   5.337   3.309
 9295TIP3   OH227829   6.100   3.210   4.834
 9295TIP3    H127830   6.022   3.155   4.840
 9295TIP3    H227831   6.170   3.156   4.871
 9296TIP3   OH227832   7.322   4.699   6.445
 9296TIP3    H127833   7.352   4.676   6.358
 9296TIP3    H227834   7.335   4.794   6.451
 9297TIP3   OH227835   1.340   2.443   2.429
 9297TIP3    H127836   1.378   2.379   2.488
 9297TIP3    H227837   1.285   2.391   2.370
 9298TIP3   OH227838   1.887   5.390   3.828
 9298TIP3    H127839   1.850   5.302   3.821
 9298TIP3    H227840   1.906   5.401   3.921
 9299TIP3   OH227841   5.508   7.556   1.969
 9299TIP3    H127842   5.450   7.482   1.953
 9299TIP3    H227843   5.450   7.631   1.980
 9300TIP3   OH227844   7.264   6.929   0.866
 9300TIP3    H127845   7.201   6.911   0.797
 9300TIP3    H227846   7.319   6.999   0.831
 9301TIP3   OH227847   3.789   1.156   1.885
 9301TIP3    H127848   3.796   1.212   1.962
 9301TIP3    H227849   3.739   1.208   1.822
 9302TIP3   OH227850   0.163   2.613   1.678
 9302TIP3    H127851   0.185   2.564   1.757
 9302TIP3    H227852   0.241   2.665   1.660
 9303TIP3   OH227853   6.370   2.615   2.861
 9303TIP3    H127854   6.355   2.553   2.789
 9303TIP3    H227855   6.294   2.605   2.918
 9304TIP3   OH227856   2.890   0.901   6.647
 9304TIP3    H127857   2.971   0.952   6.656
 9304TIP3    H227858   2.820   0.966   6.653
 9305TIP3   OH227859   4.343   0.653   3.248
 9305TIP3    H127860   4.264   0.651   3.194
 9305TIP3    H227861   4.312   0.645   3.338
 9306TIP3   OH227862   2.819   0.222   4.080
 9306TIP3    H127863   2.798   0.189   3.993
 9306TIP3    H227864   2.737   0.215   4.128
 9307TIP3   OH227865   6.461   3.844   5.138
 9307TIP3    H127866   6.392   3.893   5.094
 9307TIP3    H227867   6.525   3.911   5.162
 9308TIP3   OH227868   3.456   3.351   6.644
 9308TIP3    H127869   3.524   3.284   6.630
 9308TIP3    H227870   3.458   3.403   6.563
 9309TIP3   OH227871   5.546   5.886   0.412
 9309TIP3    H127872   5.611   5.954   0.426
 9309TIP3    H227873   5.509   5.869   0.500
 9310TIP3   OH227874   0.728   6.314   2.751
 9310TIP3    H127875   0.635   6.294   2.759
 9310TIP3    H227876   0.746   6.311   2.657
 9311TIP3   OH227877   2.921   2.848   2.445
 9311TIP3    H127878   2.981   2.858   2.371
 9311TIP3    H227879   2.934   2.927   2.497
 9312TIP3   OH227880   2.106   5.800   3.479
 9312TIP3    H127881   2.165   5.743   3.529
 9312TIP3    H227882   2.020   5.781   3.515
 9313TIP3   OH227883   6.193   4.454   2.965
 9313TIP3    H127884   6.260   4.416   2.908
 9313TIP3    H227885   6.110   4.421   2.930
 9314TIP3   OH227886   5.866   6.620   5.155
 9314TIP3    H127887   5.814   6.649   5.231
 9314TIP3    H227888   5.892   6.701   5.112
 9315TIP3   OH227889   5.705   2.481   5.001
 9315TIP3    H127890   5.704   2.403   4.945
 9315TIP3    H227891   5.777   2.465   5.062
 9316TIP3   OH227892   6.876   5.332   3.642
 9316TIP3    H127893   6.929   5.353   3.719
 9316TIP3    H227894   6.822   5.259   3.669
 9317TIP3   OH227895   1.284   1.272   0.154
 9317TIP3    H127896   1.357   1.247   0.098
 9317TIP3    H227897   1.220   1.202   0.144
 9318TIP3   OH227898   6.454   4.231   3.224
 9318TIP3    H127899   6.405   4.313   3.229
 9318TIP3    H227900   6.389   4.165   3.201
 9319TIP3   OH227901   2.944   0.350   6.525
 9319TIP3    H127902   3.030   0.365   6.563
 9319TIP3    H227903   2.938   0.255   6.517
 9320TIP3   OH227904   6.751   6.713   3.536
 9320TIP3    H127905   6.679   6.659   3.504
 9320TIP3    H227906   6.757   6.692   3.630
 9321TIP3   OH227907   5.611   2.054   0.419
 9321TIP3    H127908   5.599   2.127   0.358
 9321TIP3    H227909   5.674   2.087   0.483
 9322TIP3   OH227910   6.601   7.342   1.808
 9322TIP3    H127911   6.534   7.286   1.767
 9322TIP3    H227912   6.573   7.431   1.787
 9323TIP3   OH227913   0.479   3.298   0.550
 9323TIP3    H127914   0.537   3.308   0.474
 9323TIP3    H227915   0.497   3.374   0.604
 9324TIP3   OH227916   6.367   4.479   3.189
 9324TIP3    H127917   6.334   4.484   3.100
 9324TIP3    H227918   6.425   4.555   3.197
 9325TIP3   OH227919   7.713   1.521   4.682
 9325TIP3    H127920   7.712   1.527   4.586
 9325TIP3    H227921   7.749   1.435   4.701
 9326TIP3   OH227922   5.596   0.855   1.726
 9326TIP3    H127923   5.523   0.911   1.752
 9326TIP3    H227924   5.660   0.863   1.797
 9327TIP3   OH227925   5.916   5.515   3.517
 9327TIP3    H127926   5.968   5.480   3.589
 9327TIP3    H227927   5.909   5.609   3.536
 9328TIP3   OH227928   0.312   5.116   4.912
 9328TIP3    H127929   0.273   5.153   4.833
 9328TIP3    H227930   0.270   5.163   4.985
 9329TIP3   OH227931   0.740   1.059   1.736
 9329TIP3    H127932   0.717   1.102   1.654
 9329TIP3    H227933   0.773   0.972   1.710
 9330TIP3   OH227934   3.021   1.918   1.828
 9330TIP3    H127935   3.083   1.972   1.779
 9330TIP3    H227936   3.028   1.949   1.918
 9331TIP3   OH227937   3.081   6.264   3.463
 9331TIP3    H127938   3.068   6.179   3.505
 9331TIP3    H227939   3.037   6.255   3.379
 9332TIP3   OH227940   5.423   0.096   2.855
 9332TIP3    H127941   5.407   0.052   2.771
 9332TIP3    H227942   5.506   0.142   2.842
 9333TIP3   OH227943   0.347   0.872   1.842
 9333TIP3    H127944   0.339   0.867   1.937
 9333TIP3    H227945   0.401   0.949   1.826
 9334TIP3   OH227946   7.761   1.044   0.100
 9334TIP3    H127947   7.791   1.043   0.190
 9334TIP3    H227948   7.674   1.085   0.104
 9335TIP3   OH227949   1.943   0.040   1.922
 9335TIP3    H127950   1.999   0.082   1.857
 9335TIP3    H227951   1.992  -0.038   1.948
 9336TIP3   OH227952   5.210   4.381   5.908
 9336TIP3    H127953   5.164   4.417   5.831
 9336TIP3    H227954   5.226   4.289   5.885
 9337TIP3   OH227955   7.203   1.428   0.638
 9337TIP3    H127956   7.140   1.463   0.574
 9337TIP3    H227957   7.162   1.444   0.723
 9338TIP3   OH227958   8.015   0.585   2.026
 9338TIP3    H127959   7.924   0.559   2.040
 9338TIP3    H227960   8.011   0.651   1.957
 9339TIP3   OH227961   1.112   5.244   0.722
 9339TIP3    H127962   1.083   5.328   0.758
 9339TIP3    H227963   1.207   5.249   0.724
 9340TIP3   OH227964   1.594   2.304   2.657
 9340TIP3    H127965   1.653   2.270   2.724
 9340TIP3    H227966   1.588   2.398   2.676
 9341TIP3   OH227967   5.482   5.219   3.867
 9341TIP3    H127968   5.446   5.145   3.819
 9341TIP3    H227969   5.406   5.263   3.905
 9342TIP3   OH227970   0.128   3.339   4.511
 9342TIP3    H127971   0.108   3.424   4.551
 9342TIP3    H227972   0.121   3.354   4.417
 9343TIP3   OH227973   1.057   0.779   1.141
 9343TIP3    H127974   1.081   0.760   1.231
 9343TIP3    H227975   0.985   0.841   1.147
 9344TIP3   OH227976   8.017   7.359   6.378
 9344TIP3    H127977   8.036   7.303   6.304
 9344TIP3    H227978   7.921   7.361   6.383
 9345TIP3   OH227979   3.169   3.682   1.162
 9345TIP3    H127980   3.181   3.619   1.091
 9345TIP3    H227981   3.257   3.702   1.191
 9346TIP3   OH227982   1.345   6.241   5.792
 9346TIP3    H127983   1.334   6.329   5.828
 9346TIP3    H227984   1.439   6.231   5.779
 9347TIP3   OH227985   7.262   1.895   5.257
 9347TIP3    H127986   7.327   1.960   5.282
 9347TIP3    H227987   7.236   1.855   5.340
 9348TIP3   OH227988   2.672   3.887   0.679
 9348TIP3    H127989   2.717   3.925   0.754
 9348TIP3    H227990   2.723   3.810   0.657
 9349TIP3   OH227991   5.172   6.157   2.926
 9349TIP3    H127992   5.263   6.186   2.936
 9349TIP3    H227993   5.138   6.157   3.015
 9350TIP3   OH227994   3.282   7.560   3.754
 9350TIP3    H127995   3.298   7.652   3.777
 9350TIP3    H227996   3.279   7.560   3.659
 9351TIP3   OH227997   6.651   5.086   5.888
 9351TIP3    H127998   6.585   5.155   5.889
 9351TIP3    H227999   6.644   5.046   5.802
 9352TIP3   OH228000   5.753   1.493   5.940
 9352TIP3    H128001   5.802   1.536   6.010
 9352TIP3    H228002   5.772   1.545   5.861
 9353TIP3   OH228003   3.641   3.324   5.600
 9353TIP3    H128004   3.684   3.257   5.654
 9353TIP3    H228005   3.641   3.287   5.512
 9354TIP3   OH228006   4.574   4.387   5.101
 9354TIP3    H128007   4.631   4.455   5.136
 9354TIP3    H228008   4.608   4.369   5.014
 9355TIP3   OH228009   1.392   1.609   5.448
 9355TIP3    H128010   1.463   1.653   5.494
 9355TIP3    H228011   1.402   1.517   5.471
 9356TIP3   OH228012   5.265   0.911   5.236
 9356TIP3    H128013   5.242   0.899   5.328
 9356TIP3    H228014   5.196   0.967   5.201
 9357TIP3   OH228015   4.387   1.685   5.874
 9357TIP3    H128016   4.307   1.724   5.909
 9357TIP3    H228017   4.410   1.741   5.799
 9358TIP3   OH228018   1.748   7.061   1.327
 9358TIP3    H128019   1.764   7.134   1.266
 9358TIP3    H228020   1.745   6.984   1.271
 9359TIP3   OH228021   8.073   7.134   3.775
 9359TIP3    H128022   8.022   7.053   3.766
 9359TIP3    H228023   8.017   7.192   3.827
 9360TIP3   OH228024   4.149   2.764   1.571
 9360TIP3    H128025   4.204   2.828   1.526
 9360TIP3    H228026   4.123   2.702   1.503
 9361TIP3   OH228027   4.544   5.324   1.779
 9361TIP3    H128028   4.523   5.417   1.779
 9361TIP3    H228029   4.466   5.282   1.815
 9362TIP3   OH228030   3.780   2.215   3.005
 9362TIP3    H128031   3.693   2.198   3.039
 9362TIP3    H228032   3.827   2.258   3.077
 9363TIP3   OH228033   2.428   5.104   4.429
 9363TIP3    H128034   2.438   5.183   4.481
 9363TIP3    H228035   2.517   5.079   4.405
 9364TIP3   OH228036   7.343   6.724   1.044
 9364TIP3    H128037   7.437   6.719   1.030
 9364TIP3    H228038   7.313   6.790   0.981
 9365TIP3   OH228039   5.614   4.240   0.978
 9365TIP3    H128040   5.612   4.308   1.045
 9365TIP3    H228041   5.549   4.176   1.006
 9366TIP3   OH228042   0.295   0.736   1.380
 9366TIP3    H128043   0.339   0.819   1.399
 9366TIP3    H228044   0.203   0.752   1.401
 9367TIP3   OH228045   6.883   5.153   4.046
 9367TIP3    H128046   6.907   5.164   4.138
 9367TIP3    H228047   6.957   5.192   3.998
 9368TIP3   OH228048   3.184   5.074   0.373
 9368TIP3    H128049   3.268   5.108   0.341
 9368TIP3    H228050   3.170   4.993   0.323
 9369TIP3   OH228051   0.070   0.188   3.523
 9369TIP3    H128052   0.046   0.119   3.461
 9369TIP3    H228053  -0.013   0.225   3.552
 9370TIP3   OH228054   4.457   0.450   6.658
 9370TIP3    H128055   4.489   0.457   6.748
 9370TIP3    H228056   4.370   0.488   6.660
 9371TIP3   OH228057   1.158   2.134   5.785
 9371TIP3    H128058   1.220   2.204   5.804
 9371TIP3    H228059   1.204   2.076   5.725
 9372TIP3   OH228060   5.052   0.234   2.886
 9372TIP3    H128061   5.108   0.194   2.820
 9372TIP3    H228062   4.996   0.162   2.916
 9373TIP3   OH228063   0.930   6.434   4.626
 9373TIP3    H128064   0.866   6.431   4.697
 9373TIP3    H228065   0.892   6.379   4.557
 9374TIP3   OH228066   0.165   0.354   2.079
 9374TIP3    H128067   0.166   0.283   2.144
 9374TIP3    H228068   0.250   0.346   2.036
 9375TIP3   OH228069   4.608   2.321   1.117
 9375TIP3    H128070   4.540   2.384   1.139
 9375TIP3    H228071   4.684   2.375   1.094
 9376TIP3   OH228072   7.266   0.472   5.527
 9376TIP3    H128073   7.332   0.411   5.493
 9376TIP3    H228074   7.312   0.521   5.595
 9377TIP3   OH228075   7.740   1.815   2.851
 9377TIP3    H128076   7.795   1.755   2.902
 9377TIP3    H228077   7.653   1.806   2.890
 9378TIP3   OH228078   1.683   3.759   1.266
 9378TIP3    H128079   1.742   3.831   1.245
 9378TIP3    H228080   1.719   3.720   1.346
 9379TIP3   OH228081   5.285   0.083   3.827
 9379TIP3    H128082   5.307  -0.008   3.847
 9379TIP3    H228083   5.323   0.133   3.899
 9380TIP3   OH228084   1.232   0.845   0.902
 9380TIP3    H128085   1.165   0.909   0.877
 9380TIP3    H228086   1.204   0.814   0.988
 9381TIP3   OH228087   7.306   1.194   3.642
 9381TIP3    H128088   7.235   1.130   3.637
 9381TIP3    H228089   7.327   1.199   3.735
 9382TIP3   OH228090   3.203   2.993   4.928
 9382TIP3    H128091   3.240   3.038   5.004
 9382TIP3    H228092   3.190   3.062   4.863
 9383TIP3   OH228093   4.199   7.851   1.423
 9383TIP3    H128094   4.253   7.773   1.412
 9383TIP3    H228095   4.110   7.821   1.402
 9384TIP3   OH228096   4.318   7.582   5.111
 9384TIP3    H128097   4.311   7.488   5.093
 9384TIP3    H228098   4.403   7.592   5.154
 9385TIP3   OH228099   2.237   3.115   4.249
 9385TIP3    H128100   2.318   3.067   4.232
 9385TIP3    H228101   2.239   3.134   4.343
 9386TIP3   OH228102   3.341   4.487   5.235
 9386TIP3    H128103   3.289   4.562   5.265
 9386TIP3    H228104   3.305   4.466   5.149
 9387TIP3   OH228105   3.676   1.772   5.199
 9387TIP3    H128106   3.653   1.851   5.152
 9387TIP3    H228107   3.672   1.702   5.134
 9388TIP3   OH228108   5.218   1.147   5.482
 9388TIP3    H128109   5.304   1.167   5.444
 9388TIP3    H228110   5.180   1.233   5.500
 9389TIP3   OH228111   4.875   0.925   5.676
 9389TIP3    H128112   4.830   0.938   5.760
 9389TIP3    H228113   4.809   0.944   5.610
 9390TIP3   OH228114   6.738   0.874   2.283
 9390TIP3    H128115   6.739   0.786   2.320
 9390TIP3    H228116   6.767   0.862   2.192
 9391TIP3   OH228117   2.681   2.503   3.616
 9391TIP3    H128118   2.630   2.492   3.696
 9391TIP3    H228119   2.747   2.568   3.639
 9392TIP3   OH228120   0.504   3.804   6.338
 9392TIP3    H128121   0.437   3.813   6.271
 9392TIP3    H228122   0.563   3.878   6.324
 9393TIP3   OH228123   4.590   7.357   1.575
 9393TIP3    H128124   4.504   7.323   1.601
 9393TIP3    H228125   4.572   7.413   1.500
 9394TIP3   OH228126   3.888   2.801   5.064
 9394TIP3    H128127   3.937   2.726   5.032
 9394TIP3    H228128   3.799   2.787   5.033
 9395TIP3   OH228129   2.486   1.281   1.148
 9395TIP3    H128130   2.418   1.260   1.212
 9395TIP3    H228131   2.494   1.203   1.093
 9396TIP3   OH228132   6.051   5.138   0.061
 9396TIP3    H128133   5.968   5.103   0.093
 9396TIP3    H228134   6.032   5.166  -0.028
 9397TIP3   OH228135   1.068   5.115   3.360
 9397TIP3    H128136   1.077   5.207   3.384
 9397TIP3    H228137   0.981   5.091   3.392
 9398TIP3   OH228138   0.665   0.388   0.379
 9398TIP3    H128139   0.689   0.369   0.288
 9398TIP3    H228140   0.602   0.460   0.374
 9399TIP3   OH228141   4.980   5.212   1.566
 9399TIP3    H128142   4.892   5.190   1.594
 9399TIP3    H228143   5.031   5.133   1.581
 9400TIP3   OH228144   1.845   2.394   2.275
 9400TIP3    H128145   1.807   2.309   2.298
 9400TIP3    H228146   1.818   2.452   2.346
 9401TIP3   OH228147   4.430   4.536   3.317
 9401TIP3    H128148   4.348   4.582   3.335
 9401TIP3    H228149   4.405   4.443   3.316
 9402TIP3   OH228150   1.422   3.267   3.628
 9402TIP3    H128151   1.334   3.296   3.603
 9402TIP3    H228152   1.411   3.230   3.715
 9403TIP3   OH228153   0.963   1.897   1.316
 9403TIP3    H128154   1.049   1.892   1.276
 9403TIP3    H228155   0.973   1.851   1.399
 9404TIP3   OH228156   3.733   0.893   4.616
 9404TIP3    H128157   3.709   0.885   4.524
 9404TIP3    H228158   3.651   0.880   4.663
 9405TIP3   OH228159   7.737   3.953   5.876
 9405TIP3    H128160   7.654   3.905   5.883
 9405TIP3    H228161   7.721   4.035   5.924
 9406TIP3   OH228162   0.943   5.034   2.664
 9406TIP3    H128163   0.848   5.032   2.651
 9406TIP3    H228164   0.976   4.965   2.607
 9407TIP3   OH228165   5.007   0.485   1.904
 9407TIP3    H128166   4.969   0.402   1.934
 9407TIP3    H228167   5.096   0.462   1.877
 9408TIP3   OH228168   0.913   3.019   6.330
 9408TIP3    H128169   0.823   3.052   6.336
 9408TIP3    H228170   0.953   3.071   6.260
 9409TIP3   OH228171   5.488   0.555   4.593
 9409TIP3    H128172   5.578   0.527   4.609
 9409TIP3    H228173   5.446   0.480   4.551
 9410TIP3   OH228174   7.267   5.808   4.182
 9410TIP3    H128175   7.355   5.775   4.201
 9410TIP3    H228176   7.281   5.892   4.139
 9411TIP3   OH228177   5.146   5.410   5.668
 9411TIP3    H128178   5.206   5.467   5.716
 9411TIP3    H228179   5.070   5.466   5.648
 9412TIP3   OH228180   6.464   3.644   1.297
 9412TIP3    H128181   6.420   3.644   1.212
 9412TIP3    H228182   6.394   3.659   1.361
 9413TIP3   OH228183   4.587   5.349   2.714
 9413TIP3    H128184   4.587   5.444   2.704
 9413TIP3    H228185   4.533   5.332   2.791
 9414TIP3   OH228186   5.124   5.067   4.022
 9414TIP3    H128187   5.085   5.048   4.108
 9414TIP3    H228188   5.123   4.984   3.976
 9415TIP3   OH228189   6.010   4.890   3.541
 9415TIP3    H128190   5.932   4.846   3.575
 9415TIP3    H228191   5.990   4.908   3.450
 9416TIP3   OH228192   6.114   4.794   1.609
 9416TIP3    H128193   6.133   4.841   1.690
 9416TIP3    H228194   6.020   4.805   1.596
 9417TIP3   OH228195   6.088   3.045   1.184
 9417TIP3    H128196   5.993   3.037   1.190
 9417TIP3    H228197   6.103   3.138   1.165
 9418TIP3   OH228198   5.309   1.419   6.546
 9418TIP3    H128199   5.386   1.473   6.559
 9418TIP3    H228200   5.343   1.337   6.509
 9419TIP3   OH228201   6.022   1.795   1.535
 9419TIP3    H128202   6.110   1.775   1.566
 9419TIP3    H228203   5.972   1.814   1.615
 9420TIP3   OH228204   7.874   6.191   3.260
 9420TIP3    H128205   7.969   6.200   3.261
 9420TIP3    H228206   7.856   6.134   3.186
 9421TIP3   OH228207   2.753   6.586   1.463
 9421TIP3    H128208   2.814   6.631   1.522
 9421TIP3    H228209   2.792   6.596   1.376
 9422TIP3   OH228210   5.715   2.589   3.429
 9422TIP3    H128211   5.762   2.508   3.446
 9422TIP3    H228212   5.695   2.624   3.516
 9423TIP3   OH228213   8.261   7.031   2.105
 9423TIP3    H128214   8.166   7.030   2.111
 9423TIP3    H228215   8.284   6.942   2.078
 9424TIP3   OH228216   0.114   2.996   1.631
 9424TIP3    H128217   0.020   2.994   1.650
 9424TIP3    H228218   0.121   3.047   1.551
 9425TIP3   OH228219   0.916   4.940   6.203
 9425TIP3    H128220   0.854   4.900   6.141
 9425TIP3    H228221   1.000   4.899   6.182
 9426TIP3   OH228222   5.408   4.087   4.395
 9426TIP3    H128223   5.384   4.173   4.429
 9426TIP3    H228224   5.453   4.044   4.467
 9427TIP3   OH228225   8.183   5.532   4.680
 9427TIP3    H128226   8.116   5.509   4.615
 9427TIP3    H228227   8.158   5.484   4.759
 9428TIP3   OH228228   6.496   5.621   5.654
 9428TIP3    H128229   6.536   5.606   5.569
 9428TIP3    H228230   6.416   5.567   5.652
 9429TIP3   OH228231   1.479   2.986   3.514
 9429TIP3    H128232   1.467   3.078   3.536
 9429TIP3    H228233   1.479   2.941   3.599
 9430TIP3   OH228234   7.029   3.699   1.140
 9430TIP3    H128235   7.037   3.667   1.230
 9430TIP3    H228236   6.935   3.696   1.121
 9431TIP3   OH228237  -0.022   0.465   5.099
 9431TIP3    H128238   0.009   0.535   5.043
 9431TIP3    H228239   0.049   0.401   5.099
 9432TIP3   OH228240   6.557   6.837   4.762
 9432TIP3    H128241   6.585   6.801   4.846
 9432TIP3    H228242   6.604   6.785   4.697
 9433TIP3   OH228243   7.857   0.460   5.244
 9433TIP3    H128244   7.895   0.479   5.158
 9433TIP3    H228245   7.897   0.378   5.272
 9434TIP3   OH228246   5.451   5.526   1.006
 9434TIP3    H128247   5.436   5.564   0.920
 9434TIP3    H228248   5.535   5.561   1.034
 9435TIP3   OH228249   2.308   6.932   6.681
 9435TIP3    H128250   2.399   6.907   6.661
 9435TIP3    H228251   2.287   6.883   6.760
 9436TIP3   OH228252   8.052   2.811   6.420
 9436TIP3    H128253   7.971   2.831   6.468
 9436TIP3    H228254   8.059   2.880   6.354
 9437TIP3   OH228255   7.215   7.713   2.986
 9437TIP3    H128256   7.296   7.762   2.984
 9437TIP3    H228257   7.217   7.658   2.908
 9438TIP3   OH228258   2.219   7.464   4.906
 9438TIP3    H128259   2.167   7.395   4.948
 9438TIP3    H228260   2.179   7.545   4.937
 9439TIP3   OH228261   1.403   5.876   5.178
 9439TIP3    H128262   1.397   5.931   5.100
 9439TIP3    H228263   1.492   5.842   5.177
 9440TIP3   OH228264   6.605   2.678   2.720
 9440TIP3    H128265   6.598   2.759   2.669
 9440TIP3    H228266   6.526   2.678   2.775
 9441TIP3   OH228267   0.661   3.546   2.283
 9441TIP3    H128268   0.717   3.479   2.243
 9441TIP3    H228269   0.706   3.569   2.364
 9442TIP3   OH228270   6.346   4.144   3.613
 9442TIP3    H128271   6.326   4.213   3.550
 9442TIP3    H228272   6.378   4.191   3.690
 9443TIP3   OH228273   3.620   6.477   4.181
 9443TIP3    H128274   3.584   6.388   4.176
 9443TIP3    H228275   3.555   6.526   4.231
 9444TIP3   OH228276   6.103   7.796   5.192
 9444TIP3    H128277   6.124   7.850   5.268
 9444TIP3    H228278   6.110   7.706   5.224
 9445TIP3   OH228279   1.261   1.085   4.218
 9445TIP3    H128280   1.212   1.021   4.270
 9445TIP3    H228281   1.201   1.110   4.148
 9446TIP3   OH228282   4.650   4.959   0.558
 9446TIP3    H128283   4.696   4.995   0.634
 9446TIP3    H228284   4.696   4.878   0.538
 9447TIP3   OH228285   1.418   2.138   3.798
 9447TIP3    H128286   1.393   2.229   3.812
 9447TIP3    H228287   1.342   2.087   3.827
 9448TIP3   OH228288   0.248   3.605   3.349
 9448TIP3    H128289   0.308   3.670   3.313
 9448TIP3    H228290   0.259   3.528   3.292
 9449TIP3   OH228291   2.016   7.191   1.688
 9449TIP3    H128292   2.094   7.243   1.706
 9449TIP3    H228293   2.013   7.126   1.758
 9450TIP3   OH228294   7.303   5.783   6.315
 9450TIP3    H128295   7.291   5.702   6.266
 9450TIP3    H228296   7.363   5.759   6.386
 9451TIP3   OH228297   1.896   2.876   0.446
 9451TIP3    H128298   1.910   2.782   0.436
 9451TIP3    H228299   1.955   2.902   0.517
 9452TIP3   OH228300   1.359   4.720   0.135
 9452TIP3    H128301   1.277   4.673   0.151
 9452TIP3    H228302   1.399   4.728   0.222
 9453TIP3   OH228303   1.310   1.496   2.212
 9453TIP3    H128304   1.302   1.569   2.273
 9453TIP3    H228305   1.325   1.420   2.267
 9454TIP3   OH228306   1.884   1.248   0.092
 9454TIP3    H128307   1.948   1.261   0.022
 9454TIP3    H228308   1.828   1.326   0.089
 9455TIP3   OH228309   8.254   1.157   2.970
 9455TIP3    H128310   8.223   1.066   2.970
 9455TIP3    H228311   8.194   1.203   2.911
 9456TIP3   OH228312   5.627   1.088   0.453
 9456TIP3    H128313   5.650   1.087   0.360
 9456TIP3    H228314   5.695   1.143   0.493
 9457TIP3   OH228315   2.440   1.740   2.395
 9457TIP3    H128316   2.510   1.803   2.413
 9457TIP3    H228317   2.360   1.790   2.406
 9458TIP3   OH228318   7.637   3.737   0.837
 9458TIP3    H128319   7.640   3.739   0.932
 9458TIP3    H228320   7.690   3.812   0.810
 9459TIP3   OH228321   2.516   3.432   2.530
 9459TIP3    H128322   2.430   3.424   2.489
 9459TIP3    H228323   2.511   3.379   2.609
 9460TIP3   OH228324   4.378   3.429   3.385
 9460TIP3    H128325   4.372   3.419   3.480
 9460TIP3    H228326   4.419   3.514   3.372
 9461TIP3   OH228327   5.525   7.536   6.228
 9461TIP3    H128328   5.613   7.511   6.257
 9461TIP3    H228329   5.495   7.599   6.293
 9462TIP3   OH228330   4.691   3.208   6.368
 9462TIP3    H128331   4.683   3.117   6.399
 9462TIP3    H228332   4.721   3.257   6.445
 9463TIP3   OH228333   7.231   5.701   1.288
 9463TIP3    H128334   7.140   5.671   1.286
 9463TIP3    H228335   7.243   5.744   1.203
 9464TIP3   OH228336   7.258   4.023   1.055
 9464TIP3    H128337   7.277   3.929   1.055
 9464TIP3    H228338   7.166   4.029   1.078
 9465TIP3   OH228339   4.862   6.727   3.601
 9465TIP3    H128340   4.901   6.777   3.673
 9465TIP3    H228341   4.774   6.706   3.632
 9466TIP3   OH228342   0.644   3.644   6.697
 9466TIP3    H128343   0.567   3.589   6.686
 9466TIP3    H228344   0.688   3.608   6.775
 9467TIP3   OH228345   7.228   6.608   0.459
 9467TIP3    H128346   7.161   6.544   0.437
 9467TIP3    H228347   7.287   6.608   0.384
 9468TIP3   OH228348   3.007   0.693   4.537
 9468TIP3    H128349   3.014   0.725   4.627
 9468TIP3    H228350   3.050   0.761   4.484
 9469TIP3   OH228351   1.911   2.171   3.168
 9469TIP3    H128352   1.941   2.142   3.254
 9469TIP3    H228353   1.990   2.173   3.114
 9470TIP3   OH228354   0.032   6.315   5.948
 9470TIP3    H128355  -0.058   6.324   5.916
 9470TIP3    H228356   0.073   6.400   5.930
 9471TIP3   OH228357   7.795   7.642   4.946
 9471TIP3    H128358   7.707   7.678   4.958
 9471TIP3    H228359   7.849   7.688   5.011
 9472TIP3   OH228360   7.833   0.890   0.851
 9472TIP3    H128361   7.845   0.812   0.906
 9472TIP3    H228362   7.754   0.932   0.885
 9473TIP3   OH228363   4.165   3.086   1.067
 9473TIP3    H128364   4.120   3.004   1.090
 9473TIP3    H228365   4.133   3.108   0.980
 9474TIP3   OH228366   4.897   2.007   1.946
 9474TIP3    H128367   4.936   2.025   1.860
 9474TIP3    H228368   4.911   1.913   1.959
 9475TIP3   OH228369   7.971   4.077   1.643
 9475TIP3    H128370   7.894   4.071   1.587
 9475TIP3    H228371   7.948   4.142   1.709
 9476TIP3   OH228372   3.432   2.551   6.558
 9476TIP3    H128373   3.383   2.573   6.637
 9476TIP3    H228374   3.373   2.494   6.508
 9477TIP3   OH228375   3.576   7.587   2.116
 9477TIP3    H128376   3.511   7.518   2.103
 9477TIP3    H228377   3.638   7.575   2.044
 9478TIP3   OH228378   2.929   0.685   6.004
 9478TIP3    H128379   3.014   0.647   6.028
 9478TIP3    H228380   2.916   0.659   5.913
 9479TIP3   OH228381   4.202   2.372   3.818
 9479TIP3    H128382   4.177   2.333   3.902
 9479TIP3    H228383   4.137   2.339   3.756
 9480TIP3   OH228384   3.992   3.545   1.569
 9480TIP3    H128385   4.040   3.489   1.631
 9480TIP3    H228386   3.911   3.568   1.615
 9481TIP3   OH228387   4.895   4.490   3.437
 9481TIP3    H128388   4.891   4.409   3.488
 9481TIP3    H228389   4.834   4.477   3.365
 9482TIP3   OH228390   3.819   0.488   4.984
 9482TIP3    H128391   3.776   0.458   4.904
 9482TIP3    H228392   3.764   0.558   5.017
 9483TIP3   OH228393   8.141   5.737   2.220
 9483TIP3    H128394   8.171   5.651   2.249
 9483TIP3    H228395   8.128   5.786   2.301
 9484TIP3   OH228396   5.249   0.732   4.483
 9484TIP3    H128397   5.187   0.803   4.498
 9484TIP3    H228398   5.331   0.776   4.461
 9485TIP3   OH228399   7.920   1.177   1.198
 9485TIP3    H128400   7.962   1.153   1.115
 9485TIP3    H228401   7.933   1.101   1.254
 9486TIP3   OH228402   1.916   2.631   6.624
 9486TIP3    H128403   1.994   2.583   6.597
 9486TIP3    H228404   1.843   2.571   6.608
 9487TIP3   OH228405   1.843   2.808   4.891
 9487TIP3    H128406   1.933   2.811   4.857
 9487TIP3    H228407   1.849   2.848   4.978
 9488TIP3   OH228408   4.188   7.799   1.108
 9488TIP3    H128409   4.109   7.761   1.070
 9488TIP3    H228410   4.167   7.892   1.118
 9489TIP3   OH228411   1.917   5.071   5.437
 9489TIP3    H128412   1.909   5.152   5.488
 9489TIP3    H228413   2.011   5.056   5.431
 9490TIP3   OH228414   1.595   1.850   3.427
 9490TIP3    H128415   1.570   1.822   3.339
 9490TIP3    H228416   1.512   1.863   3.473
 9491TIP3   OH228417   1.501   5.241   6.421
 9491TIP3    H128418   1.427   5.181   6.406
 9491TIP3    H228419   1.514   5.240   6.516
 9492TIP3   OH228420   2.054   0.836   3.700
 9492TIP3    H128421   2.127   0.814   3.643
 9492TIP3    H228422   2.078   0.798   3.785
 9493TIP3   OH228423   1.487   2.986   2.523
 9493TIP3    H128424   1.443   2.901   2.527
 9493TIP3    H228425   1.449   3.036   2.595
 9494TIP3   OH228426   2.572   7.119   6.609
 9494TIP3    H128427   2.483   7.084   6.615
 9494TIP3    H228428   2.621   7.051   6.563
 9495TIP3   OH228429   4.696   5.050   3.583
 9495TIP3    H128430   4.748   4.980   3.625
 9495TIP3    H228431   4.613   5.048   3.630
 9496TIP3   OH228432   3.653   4.722   1.660
 9496TIP3    H128433   3.657   4.688   1.749
 9496TIP3    H228434   3.716   4.670   1.611
 9497TIP3   OH228435   4.665   7.072   2.775
 9497TIP3    H128436   4.596   7.134   2.800
 9497TIP3    H228437   4.646   7.051   2.683
 9498TIP3   OH228438   2.943   1.286   6.171
 9498TIP3    H128439   2.956   1.351   6.102
 9498TIP3    H228440   2.951   1.201   6.127
 9499TIP3   OH228441   1.064   1.626   3.139
 9499TIP3    H128442   0.976   1.605   3.170
 9499TIP3    H228443   1.057   1.716   3.106
 9500TIP3   OH228444   6.344   5.653   6.061
 9500TIP3    H128445   6.283   5.699   6.003
 9500TIP3    H228446   6.392   5.593   6.003
 9501TIP3   OH228447   7.175   6.177   1.558
 9501TIP3    H128448   7.216   6.215   1.481
 9501TIP3    H228449   7.248   6.159   1.618
 9502TIP3   OH228450   6.775   6.832   0.232
 9502TIP3    H128451   6.870   6.841   0.228
 9502TIP3    H228452   6.747   6.898   0.295
 9503TIP3   OH228453   4.872   2.178   5.001
 9503TIP3    H128454   4.851   2.199   5.092
 9503TIP3    H228455   4.907   2.089   5.005
 9504TIP3   OH228456   6.027   0.752   3.339
 9504TIP3    H128457   6.063   0.722   3.256
 9504TIP3    H228458   5.936   0.721   3.339
 9505TIP3   OH228459   3.072   2.199   5.968
 9505TIP3    H128460   3.060   2.243   5.884
 9505TIP3    H228461   3.160   2.222   5.996
 9506TIP3   OH228462   5.358   0.557   2.635
 9506TIP3    H128463   5.310   0.556   2.718
 9506TIP3    H228464   5.393   0.468   2.627
 9507TIP3   OH228465   5.107   7.062   5.264
 9507TIP3    H128466   5.137   7.086   5.177
 9507TIP3    H228467   5.022   7.021   5.250
 9508TIP3   OH228468   7.243   0.193   0.160
 9508TIP3    H128469   7.233   0.248   0.083
 9508TIP3    H228470   7.314   0.235   0.210
 9509TIP3   OH228471   2.737   6.850   6.283
 9509TIP3    H128472   2.650   6.890   6.289
 9509TIP3    H228473   2.733   6.775   6.343
 9510TIP3   OH228474   2.787   4.616   4.622
 9510TIP3    H128475   2.777   4.706   4.594
 9510TIP3    H228476   2.760   4.616   4.714
 9511TIP3   OH228477   5.020   6.228   1.855
 9511TIP3    H128478   5.068   6.277   1.922
 9511TIP3    H228479   4.936   6.206   1.896
 9512TIP3   OH228480   3.233   2.378   1.511
 9512TIP3    H128481   3.291   2.340   1.445
 9512TIP3    H228482   3.269   2.348   1.595
 9513TIP3   OH228483   6.158   3.970   4.751
 9513TIP3    H128484   6.219   3.938   4.684
 9513TIP3    H228485   6.089   3.904   4.754
 9514TIP3   OH228486   6.666   2.008   2.790
 9514TIP3    H128487   6.748   2.054   2.806
 9514TIP3    H228488   6.649   2.020   2.696
 9515TIP3   OH228489   1.610   1.783   3.163
 9515TIP3    H128490   1.532   1.749   3.119
 9515TIP3    H228491   1.682   1.766   3.101
 9516TIP3   OH228492   5.492   0.923   0.610
 9516TIP3    H128493   5.432   0.980   0.657
 9516TIP3    H228494   5.539   0.981   0.550
 9517TIP3   OH228495   6.643   5.353   6.137
 9517TIP3    H128496   6.594   5.277   6.105
 9517TIP3    H228497   6.604   5.427   6.091
 9518TIP3   OH228498   7.563   7.450   2.457
 9518TIP3    H128499   7.492   7.388   2.446
 9518TIP3    H228500   7.634   7.400   2.496
 9519TIP3   OH228501   0.345   4.095   3.707
 9519TIP3    H128502   0.378   4.005   3.708
 9519TIP3    H228503   0.415   4.145   3.663
 9520TIP3   OH228504   0.155   0.402   6.193
 9520TIP3    H128505   0.149   0.494   6.219
 9520TIP3    H228506   0.241   0.394   6.152
 9521TIP3   OH228507   0.855   6.885   6.439
 9521TIP3    H128508   0.872   6.936   6.518
 9521TIP3    H228509   0.829   6.949   6.373
 9522TIP3   OH228510   3.278   6.525   2.627
 9522TIP3    H128511   3.320   6.512   2.541
 9522TIP3    H228512   3.229   6.444   2.641
 9523TIP3   OH228513   4.014   7.644   0.911
 9523TIP3    H128514   4.016   7.597   0.995
 9523TIP3    H228515   3.993   7.576   0.847
 9524TIP3   OH228516   0.136   5.448   4.432
 9524TIP3    H128517   0.042   5.463   4.422
 9524TIP3    H228518   0.164   5.515   4.495
 9525TIP3   OH228519   7.261   6.281   3.388
 9525TIP3    H128520   7.300   6.238   3.464
 9525TIP3    H228521   7.264   6.374   3.409
 9526TIP3   OH228522   6.920   5.167   2.687
 9526TIP3    H128523   6.863   5.237   2.718
 9526TIP3    H228524   6.915   5.173   2.591
 9527TIP3   OH228525   3.553   4.430   0.870
 9527TIP3    H128526   3.643   4.407   0.893
 9527TIP3    H228527   3.533   4.377   0.793
 9528TIP3   OH228528   2.947   4.910   4.855
 9528TIP3    H128529   3.013   4.844   4.833
 9528TIP3    H228530   2.880   4.862   4.904
 9529TIP3   OH228531   7.263   1.744   0.855
 9529TIP3    H128532   7.301   1.703   0.933
 9529TIP3    H228533   7.294   1.834   0.856
 9530TIP3   OH228534   4.518   2.584   5.793
 9530TIP3    H128535   4.470   2.636   5.729
 9530TIP3    H228536   4.470   2.595   5.875
 9531TIP3   OH228537   7.885   3.862   3.971
 9531TIP3    H128538   7.863   3.789   4.029
 9531TIP3    H228539   7.954   3.908   4.018
 9532TIP3   OH228540   0.795   3.908   0.339
 9532TIP3    H128541   0.731   3.961   0.385
 9532TIP3    H228542   0.807   3.831   0.394
 9533TIP3   OH228543   5.985   2.647   2.343
 9533TIP3    H128544   5.944   2.563   2.322
 9533TIP3    H228545   6.051   2.626   2.410
 9534TIP3   OH228546   6.651   0.284   2.418
 9534TIP3    H128547   6.569   0.275   2.468
 9534TIP3    H228548   6.655   0.377   2.396
 9535TIP3   OH228549   1.648   6.302   2.499
 9535TIP3    H128550   1.677   6.351   2.423
 9535TIP3    H228551   1.558   6.276   2.478
 9536TIP3   OH228552   4.139   7.595   2.708
 9536TIP3    H128553   4.156   7.594   2.802
 9536TIP3    H228554   4.091   7.676   2.693
 9537TIP3   OH228555   6.226   3.647   5.205
 9537TIP3    H128556   6.272   3.648   5.121
 9537TIP3    H228557   6.163   3.576   5.197
 9538TIP3   OH228558   3.772   4.663   0.279
 9538TIP3    H128559   3.772   4.717   0.200
 9538TIP3    H228560   3.681   4.666   0.309
 9539TIP3   OH228561   5.271   1.578   6.266
 9539TIP3    H128562   5.245   1.555   6.355
 9539TIP3    H228563   5.350   1.526   6.250
 9540TIP3   OH228564   6.888   2.651   5.554
 9540TIP3    H128565   6.965   2.644   5.497
 9540TIP3    H228566   6.880   2.744   5.572
 9541TIP3   OH228567   0.863   5.982   3.665
 9541TIP3    H128568   0.897   5.987   3.575
 9541TIP3    H228569   0.839   6.073   3.686
 9542TIP3   OH228570   5.745   1.443   6.293
 9542TIP3    H128571   5.747   1.349   6.314
 9542TIP3    H228572   5.822   1.457   6.239
 9543TIP3   OH228573   6.660   1.865   4.134
 9543TIP3    H128574   6.666   1.918   4.213
 9543TIP3    H228575   6.619   1.784   4.163
 9544TIP3   OH228576  -0.002   3.707   2.391
 9544TIP3    H128577   0.040   3.695   2.476
 9544TIP3    H228578   0.009   3.623   2.347
 9545TIP3   OH228579   5.893   2.795   3.369
 9545TIP3    H128580   5.838   2.722   3.398
 9545TIP3    H228581   5.868   2.868   3.426
 9546TIP3   OH228582   3.020   2.953   5.873
 9546TIP3    H128583   2.948   2.996   5.919
 9546TIP3    H228584   3.030   2.869   5.918
 9547TIP3   OH228585   8.039   4.644   5.624
 9547TIP3    H128586   7.954   4.682   5.601
 9547TIP3    H228587   8.103   4.697   5.578
 9548TIP3   OH228588   5.231   7.620   3.962
 9548TIP3    H128589   5.312   7.668   3.976
 9548TIP3    H228590   5.198   7.602   4.050
 9549TIP3   OH228591   7.288   6.816   3.746
 9549TIP3    H128592   7.380   6.795   3.765
 9549TIP3    H228593   7.267   6.886   3.808
 9550TIP3   OH228594   2.372   3.492   5.985
 9550TIP3    H128595   2.336   3.542   6.058
 9550TIP3    H228596   2.416   3.557   5.930
 9551TIP3   OH228597   1.093   1.781   0.162
 9551TIP3    H128598   1.025   1.714   0.157
 9551TIP3    H228599   1.047   1.861   0.186
 9552TIP3   OH228600   8.195   3.616   2.717
 9552TIP3    H128601   8.160   3.544   2.665
 9552TIP3    H228602   8.287   3.622   2.691
 9553TIP3   OH228603   0.985   2.391   0.706
 9553TIP3    H128604   1.077   2.403   0.726
 9553TIP3    H228605   0.984   2.355   0.618
 9554TIP3   OH228606   0.093   3.492   0.105
 9554TIP3    H128607   0.031   3.527   0.041
 9554TIP3    H228608   0.068   3.400   0.115
 9555TIP3   OH228609   5.306   6.928   6.521
 9555TIP3    H128610   5.284   6.916   6.614
 9555TIP3    H228611   5.400   6.946   6.521
 9556TIP3   OH228612   2.047   4.289   5.428
 9556TIP3    H128613   1.994   4.249   5.497
 9556TIP3    H228614   2.033   4.383   5.438
 9557TIP3   OH228615   7.261   1.400   3.259
 9557TIP3    H128616   7.199   1.326   3.262
 9557TIP3    H228617   7.233   1.457   3.331
 9558TIP3   OH228618   0.409   7.100   1.415
 9558TIP3    H128619   0.374   7.089   1.503
 9558TIP3    H228620   0.337   7.073   1.357
 9559TIP3   OH228621   1.461   0.622   2.797
 9559TIP3    H128622   1.414   0.629   2.714
 9559TIP3    H228623   1.426   0.543   2.837
 9560TIP3   OH228624   5.756   2.711   2.864
 9560TIP3    H128625   5.665   2.719   2.837
 9560TIP3    H228626   5.804   2.698   2.782
 9561TIP3   OH228627   4.723   7.363   3.909
 9561TIP3    H128628   4.699   7.402   3.993
 9561TIP3    H228629   4.818   7.361   3.910
 9562TIP3   OH228630   2.864   3.369   3.438
 9562TIP3    H128631   2.882   3.285   3.480
 9562TIP3    H228632   2.946   3.391   3.393
 9563TIP3   OH228633   7.517   2.584   1.641
 9563TIP3    H128634   7.546   2.649   1.705
 9563TIP3    H228635   7.444   2.539   1.684
 9564TIP3   OH228636   1.016   0.747   5.590
 9564TIP3    H128637   0.999   0.672   5.532
 9564TIP3    H228638   1.042   0.818   5.530
 9565TIP3   OH228639   0.910   1.869   0.885
 9565TIP3    H128640   0.994   1.822   0.887
 9565TIP3    H228641   0.918   1.934   0.955
 9566TIP3   OH228642   5.941   7.694   3.324
 9566TIP3    H128643   5.935   7.607   3.362
 9566TIP3    H228644   5.932   7.754   3.398
 9567TIP3   OH228645   5.000   6.296   6.038
 9567TIP3    H128646   4.971   6.223   5.983
 9567TIP3    H228647   4.973   6.374   5.990
 9568TIP3   OH228648   2.823   7.653   6.148
 9568TIP3    H128649   2.877   7.579   6.177
 9568TIP3    H228650   2.882   7.707   6.095
 9569TIP3   OH228651   7.665   2.983   1.636
 9569TIP3    H128652   7.758   2.994   1.657
 9569TIP3    H228653   7.637   3.070   1.606
 9570TIP3   OH228654   7.948   3.727   3.301
 9570TIP3    H128655   7.913   3.739   3.212
 9570TIP3    H228656   8.019   3.791   3.308
 9571TIP3   OH228657   7.413   7.634   0.141
 9571TIP3    H128658   7.504   7.653   0.159
 9571TIP3    H228659   7.412   7.541   0.117
 9572TIP3   OH228660   4.787   2.093   1.151
 9572TIP3    H128661   4.741   2.010   1.133
 9572TIP3    H228662   4.735   2.159   1.106
 9573TIP3   OH228663   0.896   7.234   4.324
 9573TIP3    H128664   0.843   7.309   4.297
 9573TIP3    H228665   0.841   7.158   4.309
 9574TIP3   OH228666   5.327   0.343   1.300
 9574TIP3    H128667   5.274   0.342   1.220
 9574TIP3    H228668   5.405   0.291   1.278
 9575TIP3   OH228669   7.208   6.530   3.867
 9575TIP3    H128670   7.225   6.600   3.930
 9575TIP3    H228671   7.290   6.479   3.865
 9576TIP3   OH228672   5.602   5.297   3.189
 9576TIP3    H128673   5.687   5.287   3.232
 9576TIP3    H228674   5.557   5.364   3.241
 9577TIP3   OH228675   5.557   4.680   2.360
 9577TIP3    H128676   5.516   4.734   2.428
 9577TIP3    H228677   5.514   4.707   2.279
 9578TIP3   OH228678   0.516   3.721   2.743
 9578TIP3    H128679   0.495   3.706   2.651
 9578TIP3    H228680   0.590   3.782   2.741
 9579TIP3   OH228681   6.725   7.040   4.690
 9579TIP3    H128682   6.783   7.021   4.763
 9579TIP3    H228683   6.659   6.970   4.693
 9580TIP3   OH228684   6.352   7.180   5.538
 9580TIP3    H128685   6.384   7.090   5.545
 9580TIP3    H228686   6.420   7.225   5.489
 9581TIP3   OH228687   7.320   3.039   4.667
 9581TIP3    H128688   7.324   3.035   4.572
 9581TIP3    H228689   7.227   3.052   4.686
 9582TIP3   OH228690   6.279   1.021   4.284
 9582TIP3    H128691   6.315   1.066   4.359
 9582TIP3    H228692   6.321   0.935   4.284
 9583TIP3   OH228693   7.479   6.761   1.394
 9583TIP3    H128694   7.460   6.762   1.488
 9583TIP3    H228695   7.394   6.777   1.352
 9584TIP3   OH228696   1.628   4.432   0.407
 9584TIP3    H128697   1.720   4.437   0.433
 9584TIP3    H228698   1.614   4.340   0.387
 9585TIP3   OH228699   1.027   2.378   2.548
 9585TIP3    H128700   1.027   2.468   2.580
 9585TIP3    H228701   1.032   2.387   2.453
 9586TIP3   OH228702   1.237   3.513   0.320
 9586TIP3    H128703   1.231   3.594   0.270
 9586TIP3    H228704   1.162   3.461   0.291
 9587TIP3   OH228705   7.837   4.095   6.597
 9587TIP3    H128706   7.879   4.111   6.512
 9587TIP3    H228707   7.774   4.167   6.605
 9588TIP3   OH228708   7.259   0.843   5.409
 9588TIP3    H128709   7.330   0.783   5.431
 9588TIP3    H228710   7.242   0.826   5.316
 9589TIP3   OH228711   3.592   3.116   3.684
 9589TIP3    H128712   3.685   3.139   3.679
 9589TIP3    H228713   3.577   3.094   3.776
 9590TIP3   OH228714   0.128   4.562   5.847
 9590TIP3    H128715   0.194   4.509   5.893
 9590TIP3    H228716   0.059   4.500   5.825
 9591TIP3   OH228717   3.513   0.840   1.354
 9591TIP3    H128718   3.463   0.801   1.283
 9591TIP3    H228719   3.570   0.769   1.385
 9592TIP3   OH228720   0.476   2.542   3.445
 9592TIP3    H128721   0.440   2.488   3.374
 9592TIP3    H228722   0.535   2.483   3.493
 9593TIP3   OH228723   1.701   2.772   5.272
 9593TIP3    H128724   1.623   2.718   5.282
 9593TIP3    H228725   1.709   2.818   5.356
 9594TIP3   OH228726   0.363   5.686   4.468
 9594TIP3    H128727   0.442   5.656   4.513
 9594TIP3    H228728   0.293   5.677   4.534
 9595TIP3   OH228729   2.978   6.415   6.510
 9595TIP3    H128730   3.072   6.408   6.489
 9595TIP3    H228731   2.976   6.449   6.599
 9596TIP3   OH228732   1.157   2.649   6.579
 9596TIP3    H128733   1.115   2.602   6.651
 9596TIP3    H228734   1.225   2.702   6.622
 9597TIP3   OH228735   3.079   0.246   1.581
 9597TIP3    H128736   3.045   0.335   1.573
 9597TIP3    H228737   3.102   0.238   1.674
 9598TIP3   OH228738   7.742   7.076   3.657
 9598TIP3    H128739   7.747   7.013   3.729
 9598TIP3    H228740   7.697   7.029   3.587
 9599TIP3   OH228741   0.755   0.599   2.993
 9599TIP3    H128742   0.675   0.648   2.974
 9599TIP3    H228743   0.725   0.517   3.032
 9600TIP3   OH228744   8.091   0.699   6.186
 9600TIP3    H128745   8.109   0.770   6.124
 9600TIP3    H228746   8.009   0.660   6.153
 9601TIP3   OH228747   4.106   4.133   3.953
 9601TIP3    H128748   4.178   4.077   3.922
 9601TIP3    H228749   4.027   4.091   3.920
 9602TIP3   OH228750   4.998   6.137   0.857
 9602TIP3    H128751   5.087   6.171   0.854
 9602TIP3    H228752   4.986   6.092   0.774
 9603TIP3   OH228753   2.284   7.121   0.940
 9603TIP3    H128754   2.377   7.142   0.932
 9603TIP3    H228755   2.239   7.201   0.911
 9604TIP3   OH228756   1.572   1.671   0.422
 9604TIP3    H128757   1.589   1.652   0.330
 9604TIP3    H228758   1.476   1.666   0.431
 9605TIP3   OH228759   8.074   5.480   0.668
 9605TIP3    H128760   8.114   5.534   0.600
 9605TIP3    H228761   7.980   5.483   0.649
 9606TIP3   OH228762   5.864   4.294   0.866
 9606TIP3    H128763   5.799   4.273   0.933
 9606TIP3    H228764   5.930   4.346   0.912
 9607TIP3   OH228765   2.693   3.067   6.093
 9607TIP3    H128766   2.614   3.120   6.083
 9607TIP3    H228767   2.693   3.042   6.185
 9608TIP3   OH228768   0.899   2.921   2.602
 9608TIP3    H128769   0.903   3.012   2.631
 9608TIP3    H228770   0.908   2.870   2.683
 9609TIP3   OH228771   1.300   3.492   0.748
 9609TIP3    H128772   1.240   3.525   0.681
 9609TIP3    H228773   1.386   3.497   0.708
 9610TIP3   OH228774   5.823   1.321   1.293
 9610TIP3    H128775   5.804   1.383   1.223
 9610TIP3    H228776   5.776   1.356   1.369
 9611TIP3   OH228777   2.942   3.926   1.474
 9611TIP3    H128778   2.851   3.947   1.451
 9611TIP3    H228779   2.956   3.838   1.440
 9612TIP3   OH228780   0.262   2.367   0.302
 9612TIP3    H128781   0.253   2.279   0.340
 9612TIP3    H228782   0.291   2.351   0.212
 9613TIP3   OH228783   5.922   3.981   1.315
 9613TIP3    H128784   5.881   4.034   1.384
 9613TIP3    H228785   5.866   3.903   1.309
 9614TIP3   OH228786   4.166   1.712   3.426
 9614TIP3    H128787   4.143   1.778   3.360
 9614TIP3    H228788   4.091   1.711   3.485
 9615TIP3   OH228789   4.860   4.522   6.210
 9615TIP3    H128790   4.953   4.507   6.223
 9615TIP3    H228791   4.831   4.572   6.287
 9616TIP3   OH228792   4.609   2.026   0.913
 9616TIP3    H128793   4.681   2.015   0.851
 9616TIP3    H228794   4.533   2.043   0.857
 9617TIP3   OH228795   4.098   4.768   1.704
 9617TIP3    H128796   4.045   4.831   1.655
 9617TIP3    H228797   4.034   4.711   1.746
 9618TIP3   OH228798   7.928   3.571   0.375
 9618TIP3    H128799   7.940   3.644   0.435
 9618TIP3    H228800   8.002   3.513   0.392
 9619TIP3   OH228801   6.534   1.334   6.574
 9619TIP3    H128802   6.557   1.345   6.667
 9619TIP3    H228803   6.563   1.415   6.533
 9620TIP3   OH228804   1.120   6.890   4.613
 9620TIP3    H128805   1.043   6.885   4.556
 9620TIP3    H228806   1.089   6.857   4.698
 9621TIP3   OH228807   6.597   0.399   1.049
 9621TIP3    H128808   6.663   0.441   0.993
 9621TIP3    H228809   6.516   0.405   0.998
 9622TIP3   OH228810   2.832   1.697   1.820
 9622TIP3    H128811   2.891   1.622   1.818
 9622TIP3    H228812   2.887   1.771   1.844
 9623TIP3   OH228813   6.969   1.994   1.947
 9623TIP3    H128814   7.020   2.046   2.009
 9623TIP3    H228815   7.026   1.983   1.871
 9624TIP3   OH228816   0.594   0.585   1.791
 9624TIP3    H128817   0.651   0.611   1.719
 9624TIP3    H228818   0.546   0.510   1.757
 9625TIP3   OH228819   1.875   1.379   2.639
 9625TIP3    H128820   1.817   1.303   2.649
 9625TIP3    H228821   1.932   1.376   2.716
 9626TIP3   OH228822   4.416   7.752   5.549
 9626TIP3    H128823   4.373   7.790   5.626
 9626TIP3    H228824   4.497   7.714   5.584
 9627TIP3   OH228825   7.848   7.314   5.992
 9627TIP3    H128826   7.859   7.220   6.009
 9627TIP3    H228827   7.915   7.334   5.927
 9628TIP3   OH228828   7.049   7.040   1.239
 9628TIP3    H128829   7.081   7.130   1.249
 9628TIP3    H228830   7.030   7.032   1.146
 9629TIP3   OH228831   1.971   2.979   4.308
 9629TIP3    H128832   2.053   3.029   4.308
 9629TIP3    H228833   1.904   3.043   4.331
 9630TIP3   OH228834   1.083   3.522   0.531
 9630TIP3    H128835   1.150   3.537   0.465
 9630TIP3    H228836   1.004   3.564   0.495
 9631TIP3   OH228837   2.462   3.251   6.091
 9631TIP3    H128838   2.445   3.335   6.050
 9631TIP3    H228839   2.445   3.266   6.184
 9632TIP3   OH228840   7.921   2.824   0.089
 9632TIP3    H128841   7.996   2.815   0.148
 9632TIP3    H228842   7.914   2.738   0.046
 9633TIP3   OH228843   6.877   2.927   5.561
 9633TIP3    H128844   6.926   3.006   5.537
 9633TIP3    H228845   6.857   2.939   5.653
 9634TIP3   OH228846   1.654   4.697   6.673
 9634TIP3    H128847   1.627   4.713   6.583
 9634TIP3    H228848   1.675   4.783   6.708
 9635TIP3   OH228849   7.027   2.055   4.824
 9635TIP3    H128850   7.033   2.051   4.920
 9635TIP3    H228851   7.118   2.061   4.795
 9636TIP3   OH228852   0.101   1.656   1.538
 9636TIP3    H128853   0.079   1.576   1.490
 9636TIP3    H228854   0.104   1.724   1.471
 9637TIP3   OH228855   6.602   2.610   5.654
 9637TIP3    H128856   6.693   2.580   5.659
 9637TIP3    H228857   6.599   2.687   5.711
 9638TIP3   OH228858   7.446   5.252   2.313
 9638TIP3    H128859   7.536   5.222   2.325
 9638TIP3    H228860   7.433   5.315   2.384
 9639TIP3   OH228861   4.604   5.481   6.636
 9639TIP3    H128862   4.618   5.501   6.543
 9639TIP3    H228863   4.691   5.456   6.668
 9640TIP3   OH228864   0.394   0.292   1.926
 9640TIP3    H128865   0.430   0.324   1.843
 9640TIP3    H228866   0.455   0.225   1.955
 9641TIP3   OH228867   2.954   3.999   0.608
 9641TIP3    H128868   2.895   4.040   0.672
 9641TIP3    H228869   3.006   3.938   0.660
 9642TIP3   OH228870   6.762   1.691   3.880
 9642TIP3    H128871   6.813   1.747   3.821
 9642TIP3    H228872   6.749   1.744   3.958
 9643TIP3   OH228873   8.065   1.606   1.507
 9643TIP3    H128874   8.128   1.551   1.461
 9643TIP3    H228875   7.981   1.561   1.495
 9644TIP3   OH228876   4.741   6.243   6.805
 9644TIP3    H128877   4.788   6.162   6.787
 9644TIP3    H228878   4.706   6.271   6.720
 9645TIP3   OH228879   3.353   6.461   3.293
 9645TIP3    H128880   3.401   6.518   3.352
 9645TIP3    H228881   3.360   6.374   3.333
 9646TIP3   OH228882   2.682   4.393   4.489
 9646TIP3    H128883   2.736   4.456   4.537
 9646TIP3    H228884   2.595   4.402   4.528
 9647TIP3   OH228885   5.903   4.908   2.972
 9647TIP3    H128886   5.981   4.884   3.021
 9647TIP3    H228887   5.889   5.001   2.991
 9648TIP3   OH228888   6.671   3.865   0.330
 9648TIP3    H128889   6.607   3.933   0.349
 9648TIP3    H228890   6.724   3.901   0.258
 9649TIP3   OH228891   4.370   5.028   6.495
 9649TIP3    H128892   4.381   5.119   6.522
 9649TIP3    H228893   4.450   5.008   6.447
 9650TIP3   OH228894   7.237   0.322   1.990
 9650TIP3    H128895   7.150   0.312   2.029
 9650TIP3    H228896   7.293   0.263   2.042
 9651TIP3   OH228897   1.862   6.915   5.178
 9651TIP3    H128898   1.846   6.993   5.125
 9651TIP3    H228899   1.796   6.852   5.149
 9652TIP3   OH228900   3.109   5.315   1.402
 9652TIP3    H128901   3.089   5.255   1.331
 9652TIP3    H228902   3.031   5.315   1.457
 9653TIP3   OH228903   5.572   5.727   4.432
 9653TIP3    H128904   5.493   5.779   4.447
 9653TIP3    H228905   5.605   5.757   4.347
 9654TIP3   OH228906   6.202   5.632   1.192
 9654TIP3    H128907   6.179   5.563   1.254
 9654TIP3    H228908   6.282   5.600   1.149
 9655TIP3   OH228909   6.639   0.918   6.342
 9655TIP3    H128910   6.689   0.885   6.416
 9655TIP3    H228911   6.681   1.002   6.321
 9656TIP3   OH228912   4.771   2.487   0.189
 9656TIP3    H128913   4.859   2.493   0.153
 9656TIP3    H228914   4.714   2.489   0.112
 9657TIP3   OH228915   0.740   7.027   4.219
 9657TIP3    H128916   0.715   7.050   4.130
 9657TIP3    H228917   0.665   7.052   4.273
 9658TIP3   OH228918   5.391   2.709   5.256
 9658TIP3    H128919   5.420   2.730   5.345
 9658TIP3    H228920   5.317   2.649   5.268
 9659TIP3   OH228921   0.195   4.801   1.330
 9659TIP3    H128922   0.224   4.880   1.376
 9659TIP3    H228923   0.268   4.740   1.340
 9660TIP3   OH228924   8.246   0.587   6.393
 9660TIP3    H128925   8.331   0.622   6.367
 9660TIP3    H228926   8.184   0.626   6.331
 9661TIP3   OH228927   0.103   0.783   1.010
 9661TIP3    H128928   0.138   0.697   1.032
 9661TIP3    H228929   0.024   0.765   0.959
 9662TIP3   OH228930   1.378   0.208   3.276
 9662TIP3    H128931   1.439   0.135   3.263
 9662TIP3    H228932   1.369   0.215   3.371
 9663TIP3   OH228933   0.432   7.405   0.664
 9663TIP3    H128934   0.467   7.329   0.618
 9663TIP3    H228935   0.405   7.465   0.594
 9664TIP3   OH228936   7.311   7.041   6.395
 9664TIP3    H128937   7.360   6.970   6.353
 9664TIP3    H228938   7.322   7.025   6.489
 9665TIP3   OH228939   7.751   5.538   3.453
 9665TIP3    H128940   7.705   5.622   3.456
 9665TIP3    H228941   7.693   5.481   3.401
 9666TIP3   OH228942   0.648   1.556   3.339
 9666TIP3    H128943   0.686   1.623   3.283
 9666TIP3    H228944   0.564   1.534   3.298
 9667TIP3   OH228945   8.207   3.651   6.051
 9667TIP3    H128946   8.216   3.557   6.037
 9667TIP3    H228947   8.221   3.690   5.964
 9668TIP3   OH228948   6.556   3.037   0.138
 9668TIP3    H128949   6.555   3.098   0.212
 9668TIP3    H228950   6.649   3.016   0.126
 9669TIP3   OH228951   2.679   0.105   3.854
 9669TIP3    H128952   2.606   0.070   3.905
 9669TIP3    H228953   2.637   0.154   3.783
 9670TIP3   OH228954   7.336   3.012   5.185
 9670TIP3    H128955   7.289   2.963   5.253
 9670TIP3    H228956   7.351   3.098   5.223
 9671TIP3   OH228957   6.457   6.936   6.099
 9671TIP3    H128958   6.550   6.952   6.083
 9671TIP3    H228959   6.413   6.982   6.028
 9672TIP3   OH228960   7.472   6.576   1.952
 9672TIP3    H128961   7.387   6.538   1.975
 9672TIP3    H228962   7.450   6.656   1.904
 9673TIP3   OH228963   5.825   2.114   3.377
 9673TIP3    H128964   5.748   2.118   3.320
 9673TIP3    H228965   5.871   2.196   3.362
 9674TIP3   OH228966   5.874   7.819   5.043
 9674TIP3    H128967   5.856   7.726   5.057
 9674TIP3    H228968   5.953   7.836   5.096
 9675TIP3   OH228969   2.568   0.450   1.192
 9675TIP3    H128970   2.621   0.521   1.157
 9675TIP3    H228971   2.563   0.467   1.286
 9676TIP3   OH228972   2.732   6.971   0.562
 9676TIP3    H128973   2.700   6.981   0.472
 9676TIP3    H228974   2.752   6.878   0.570
 9677TIP3   OH228975   2.010   4.260   1.083
 9677TIP3    H128976   1.948   4.196   1.048
 9677TIP3    H228977   2.043   4.306   1.006
 9678TIP3   OH228978   0.504   2.586   0.135
 9678TIP3    H128979   0.534   2.675   0.119
 9678TIP3    H228980   0.426   2.596   0.189
 9679TIP3   OH228981   3.654   4.800   4.218
 9679TIP3    H128982   3.608   4.745   4.282
 9679TIP3    H228983   3.702   4.737   4.163
 9680TIP3   OH228984   2.510   5.552   0.908
 9680TIP3    H128985   2.492   5.462   0.935
 9680TIP3    H228986   2.604   5.552   0.886
 9681TIP3   OH228987   8.094   6.480   6.146
 9681TIP3    H128988   8.068   6.387   6.146
 9681TIP3    H228989   8.131   6.494   6.059
 9682TIP3   OH228990   3.839   5.423   0.677
 9682TIP3    H128991   3.775   5.492   0.694
 9682TIP3    H228992   3.827   5.361   0.749
 9683TIP3   OH228993   4.248   2.334   0.680
 9683TIP3    H128994   4.205   2.373   0.605
 9683TIP3    H228995   4.202   2.251   0.695
 9684TIP3   OH228996   3.845   1.128   2.550
 9684TIP3    H128997   3.807   1.125   2.462
 9684TIP3    H228998   3.769   1.133   2.608
 9685TIP3   OH228999   4.295   2.765   3.442
 9685TIP3    H129000   4.293   2.809   3.357
 9685TIP3    H229001   4.336   2.681   3.425
 9686TIP3   OH229002   8.180   4.176   1.953
 9686TIP3    H129003   8.106   4.235   1.965
 9686TIP3    H229004   8.213   4.161   2.042
 9687TIP3   OH229005   7.044   4.158   4.123
 9687TIP3    H129006   7.071   4.240   4.082
 9687TIP3    H229007   7.019   4.102   4.050
 9688TIP3   OH229008   1.586   6.113   3.870
 9688TIP3    H129009   1.525   6.187   3.873
 9688TIP3    H229010   1.555   6.059   3.797
 9689TIP3   OH229011   5.353   5.611   5.758
 9689TIP3    H129012   5.393   5.539   5.807
 9689TIP3    H229013   5.405   5.688   5.782
 9690TIP3   OH229014   2.703   7.681   4.707
 9690TIP3    H129015   2.702   7.595   4.749
 9690TIP3    H229016   2.795   7.695   4.684
 9691TIP3   OH229017   7.187   1.704   4.117
 9691TIP3    H129018   7.097   1.714   4.148
 9691TIP3    H229019   7.232   1.782   4.149
 9692TIP3   OH229020   1.308   3.951   5.386
 9692TIP3    H129021   1.324   3.922   5.476
 9692TIP3    H229022   1.297   3.870   5.336
 9693TIP3   OH229023   1.616   3.678   2.980
 9693TIP3    H129024   1.687   3.618   2.956
 9693TIP3    H229025   1.573   3.635   3.054
 9694TIP3   OH229026   1.813   2.958   1.554
 9694TIP3    H129027   1.722   2.972   1.526
 9694TIP3    H229028   1.843   3.044   1.582
 9695TIP3   OH229029   6.985   2.677   1.267
 9695TIP3    H129030   6.892   2.655   1.264
 9695TIP3    H229031   6.987   2.763   1.310
 9696TIP3   OH229032   2.995   1.914   6.681
 9696TIP3    H129033   3.020   2.006   6.687
 9696TIP3    H229034   2.904   1.916   6.651
 9697TIP3   OH229035   4.101   2.276   5.491
 9697TIP3    H129036   4.124   2.222   5.566
 9697TIP3    H229037   4.041   2.222   5.440
 9698TIP3   OH229038   6.614   6.424   4.482
 9698TIP3    H129039   6.602   6.367   4.406
 9698TIP3    H229040   6.529   6.466   4.493
 9699TIP3   OH229041   1.686   4.377   0.768
 9699TIP3    H129042   1.632   4.431   0.710
 9699TIP3    H229043   1.664   4.407   0.856
 9700TIP3   OH229044   0.756   4.210   3.905
 9700TIP3    H129045   0.737   4.157   3.983
 9700TIP3    H229046   0.799   4.288   3.939
 9701TIP3   OH229047   1.442   6.254   0.889
 9701TIP3    H129048   1.475   6.197   0.959
 9701TIP3    H229049   1.444   6.198   0.811
 9702TIP3   OH229050   4.831   6.761   4.490
 9702TIP3    H129051   4.767   6.690   4.497
 9702TIP3    H229052   4.806   6.823   4.559
 9703TIP3   OH229053   2.435   7.198   3.515
 9703TIP3    H129054   2.410   7.269   3.574
 9703TIP3    H229055   2.434   7.238   3.427
 9704TIP3   OH229056   7.197   4.514   5.613
 9704TIP3    H129057   7.119   4.469   5.583
 9704TIP3    H229058   7.267   4.449   5.607
 9705TIP3   OH229059   8.320   1.042   0.268
 9705TIP3    H129060   8.262   1.029   0.343
 9705TIP3    H229061   8.276   1.108   0.215
 9706TIP3   OH229062   5.586   1.543   1.916
 9706TIP3    H129063   5.590   1.533   1.821
 9706TIP3    H229064   5.672   1.516   1.946
 9707TIP3   OH229065   2.340   5.051   1.066
 9707TIP3    H129066   2.297   4.997   1.132
 9707TIP3    H229067   2.432   5.054   1.093
 9708TIP3   OH229068   5.880   2.388   3.331
 9708TIP3    H129069   5.966   2.418   3.361
 9708TIP3    H229070   5.858   2.447   3.259
 9709TIP3   OH229071   8.081   2.587   1.147
 9709TIP3    H129072   8.045   2.631   1.224
 9709TIP3    H229073   8.137   2.518   1.183
 9710TIP3   OH229074   7.898   2.393   0.746
 9710TIP3    H129075   7.913   2.486   0.763
 9710TIP3    H229076   7.811   2.391   0.707
 9711TIP3   OH229077   2.296   4.198   2.930
 9711TIP3    H129078   2.381   4.155   2.921
 9711TIP3    H229079   2.289   4.255   2.853
 9712TIP3   OH229080   2.790   5.075   0.790
 9712TIP3    H129081   2.745   5.087   0.873
 9712TIP3    H229082   2.802   4.980   0.782
 9713TIP3   OH229083   3.812   1.601   5.536
 9713TIP3    H129084   3.733   1.651   5.517
 9713TIP3    H229085   3.804   1.578   5.629
 9714TIP3   OH229086   3.334   5.319   0.195
 9714TIP3    H129087   3.379   5.254   0.250
 9714TIP3    H229088   3.277   5.366   0.256
 9715TIP3   OH229089   0.547   3.162   6.015
 9715TIP3    H129090   0.566   3.188   5.925
 9715TIP3    H229091   0.463   3.205   6.034
 9716TIP3   OH229092   1.746   7.307   2.620
 9716TIP3    H129093   1.667   7.284   2.669
 9716TIP3    H229094   1.766   7.230   2.568
 9717TIP3   OH229095   7.050   5.800   4.616
 9717TIP3    H129096   6.995   5.867   4.657
 9717TIP3    H229097   7.079   5.839   4.534
 9718TIP3   OH229098   0.607   5.130   2.255
 9718TIP3    H129099   0.699   5.131   2.283
 9718TIP3    H229100   0.603   5.194   2.184
 9719TIP3   OH229101   7.508   2.062   0.211
 9719TIP3    H129102   7.434   2.003   0.200
 9719TIP3    H229103   7.559   2.024   0.283
 9720TIP3   OH229104   2.445   2.222   6.204
 9720TIP3    H129105   2.408   2.236   6.291
 9720TIP3    H229106   2.381   2.259   6.144
 9721TIP3   OH229107   4.048   4.760   4.767
 9721TIP3    H129108   4.134   4.800   4.756
 9721TIP3    H229109   3.987   4.826   4.733
 9722TIP3   OH229110   5.152   6.504   2.300
 9722TIP3    H129111   5.076   6.553   2.332
 9722TIP3    H229112   5.219   6.517   2.367
 9723TIP3   OH229113   1.535   2.618   1.343
 9723TIP3    H129114   1.566   2.699   1.301
 9723TIP3    H229115   1.457   2.644   1.391
 9724TIP3   OH229116   2.036   3.084   0.668
 9724TIP3    H129117   2.120   3.097   0.712
 9724TIP3    H229118   2.039   3.144   0.593
 9725TIP3   OH229119   5.378   3.378   4.528
 9725TIP3    H129120   5.284   3.363   4.541
 9725TIP3    H229121   5.398   3.331   4.447
 9726TIP3   OH229122   6.246   4.552   3.700
 9726TIP3    H129123   6.293   4.545   3.783
 9726TIP3    H229124   6.191   4.630   3.710
 9727TIP3   OH229125   5.730   4.679   2.984
 9727TIP3    H129126   5.785   4.757   2.982
 9727TIP3    H229127   5.727   4.649   2.893
 9728TIP3   OH229128   3.313   5.032   4.074
 9728TIP3    H129129   3.262   4.969   4.124
 9728TIP3    H229130   3.319   4.995   3.986
 9729TIP3   OH229131   3.124   0.515   4.360
 9729TIP3    H129132   3.099   0.597   4.401
 9729TIP3    H229133   3.138   0.537   4.268
 9730TIP3   OH229134   6.171   4.140   3.239
 9730TIP3    H129135   6.121   4.110   3.164
 9730TIP3    H229136   6.121   4.215   3.273
 9731TIP3   OH229137   0.558   0.311   5.054
 9731TIP3    H129138   0.635   0.267   5.018
 9731TIP3    H229139   0.549   0.390   5.002
 9732TIP3   OH229140   2.756   4.382   0.815
 9732TIP3    H129141   2.688   4.392   0.883
 9732TIP3    H229142   2.716   4.419   0.736
 9733TIP3   OH229143   7.260   2.297   5.912
 9733TIP3    H129144   7.201   2.235   5.870
 9733TIP3    H229145   7.202   2.357   5.960
 9734TIP3   OH229146   2.864   7.519   2.387
 9734TIP3    H129147   2.805   7.586   2.354
 9734TIP3    H229148   2.923   7.565   2.446
 9735TIP3   OH229149   8.074   0.362   0.085
 9735TIP3    H129150   8.019   0.284   0.090
 9735TIP3    H229151   8.162   0.329   0.068
 9736TIP3   OH229152   0.134   2.427   4.540
 9736TIP3    H129153   0.082   2.376   4.478
 9736TIP3    H229154   0.106   2.518   4.526
 9737TIP3   OH229155   2.264   6.236   4.691
 9737TIP3    H129156   2.283   6.182   4.767
 9737TIP3    H229157   2.319   6.200   4.621
 9738TIP3   OH229158   1.545   0.208   2.520
 9738TIP3    H129159   1.545   0.278   2.455
 9738TIP3    H229160   1.600   0.139   2.481
 9739TIP3   OH229161   5.983   4.496   1.849
 9739TIP3    H129162   5.893   4.478   1.876
 9739TIP3    H229163   6.026   4.527   1.929
 9740TIP3   OH229164   0.526   4.746   2.480
 9740TIP3    H129165   0.446   4.761   2.430
 9740TIP3    H229166   0.597   4.767   2.419
 9741TIP3   OH229167   2.994   4.685   2.355
 9741TIP3    H129168   3.058   4.653   2.419
 9741TIP3    H229169   3.045   4.741   2.297
 9742TIP3   OH229170   5.350   2.312   1.298
 9742TIP3    H129171   5.395   2.249   1.354
 9742TIP3    H229172   5.418   2.375   1.272
 9743TIP3   OH229173   7.549   3.696   4.090
 9743TIP3    H129174   7.514   3.643   4.162
 9743TIP3    H229175   7.640   3.667   4.081
 9744TIP3   OH229176   2.089   4.393   4.500
 9744TIP3    H129177   2.046   4.472   4.465
 9744TIP3    H229178   2.016   4.334   4.520
 9745TIP3   OH229179   0.318   1.804   4.886
 9745TIP3    H129180   0.287   1.722   4.924
 9745TIP3    H229181   0.241   1.840   4.841
 9746TIP3   OH229182   1.509   2.739   6.430
 9746TIP3    H129183   1.448   2.781   6.490
 9746TIP3    H229184   1.493   2.646   6.440
 9747TIP3   OH229185   2.549   5.887   4.434
 9747TIP3    H129186   2.479   5.921   4.378
 9747TIP3    H229187   2.608   5.843   4.373
 9748TIP3   OH229188   1.977   0.638   3.131
 9748TIP3    H129189   1.956   0.680   3.048
 9748TIP3    H229190   2.073   0.635   3.133
 9749TIP3   OH229191   2.109   0.699   5.197
 9749TIP3    H129192   2.021   0.691   5.234
 9749TIP3    H229193   2.106   0.648   5.116
 9750TIP3   OH229194   5.880   0.416   3.273
 9750TIP3    H129195   5.838   0.456   3.196
 9750TIP3    H229196   5.819   0.431   3.344
 9751TIP3   OH229197   6.666   5.999   6.177
 9751TIP3    H129198   6.598   5.932   6.181
 9751TIP3    H229199   6.618   6.081   6.161
 9752TIP3   OH229200   5.414   2.244   5.463
 9752TIP3    H129201   5.437   2.184   5.534
 9752TIP3    H229202   5.320   2.235   5.453
 9753TIP3   OH229203   0.087   0.237   5.967
 9753TIP3    H129204   0.124   0.314   5.925
 9753TIP3    H229205   0.116   0.242   6.058
 9754TIP3   OH229206   8.177   3.303   1.973
 9754TIP3    H129207   8.206   3.385   2.013
 9754TIP3    H229208   8.257   3.263   1.939
 9755TIP3   OH229209   3.072   6.238   5.211
 9755TIP3    H129210   3.039   6.256   5.123
 9755TIP3    H229211   3.003   6.187   5.253
 9756TIP3   OH229212   0.071   2.528   5.225
 9756TIP3    H129213  -0.011   2.577   5.232
 9756TIP3    H229214   0.100   2.544   5.135
 9757TIP3   OH229215   0.011   3.232   0.527
 9757TIP3    H129216   0.042   3.211   0.439
 9757TIP3    H229217   0.067   3.181   0.585
 9758TIP3   OH229218   4.788   0.247   3.474
 9758TIP3    H129219   4.832   0.173   3.433
 9758TIP3    H229220   4.806   0.321   3.415
 9759TIP3   OH229221   6.933   0.963   0.383
 9759TIP3    H129222   6.965   0.899   0.319
 9759TIP3    H229223   6.978   1.044   0.360
 9760TIP3   OH229224   1.078   5.434   1.396
 9760TIP3    H129225   1.081   5.360   1.336
 9760TIP3    H229226   0.998   5.482   1.371
 9761TIP3   OH229227   1.647   0.247   2.017
 9761TIP3    H129228   1.649   0.152   2.001
 9761TIP3    H229229   1.721   0.281   1.967
 9762TIP3   OH229230   3.316   1.063   5.969
 9762TIP3    H129231   3.248   1.126   5.995
 9762TIP3    H229232   3.291   1.037   5.880
 9763TIP3   OH229233   6.134   1.089   2.583
 9763TIP3    H129234   6.174   1.136   2.510
 9763TIP3    H229235   6.040   1.102   2.571
 9764TIP3   OH229236   4.196   0.406   1.634
 9764TIP3    H129237   4.186   0.473   1.566
 9764TIP3    H229238   4.267   0.438   1.689
 9765TIP3   OH229239   6.531   2.365   6.603
 9765TIP3    H129240   6.451   2.369   6.550
 9765TIP3    H229241   6.598   2.404   6.548
 9766TIP3   OH229242   1.689   3.610   2.713
 9766TIP3    H129243   1.759   3.574   2.767
 9766TIP3    H229244   1.689   3.704   2.734
 9767TIP3   OH229245   1.806   6.800   2.942
 9767TIP3    H129246   1.761   6.731   2.991
 9767TIP3    H229247   1.893   6.763   2.924
 9768TIP3   OH229248   7.846   2.908   2.265
 9768TIP3    H129249   7.851   2.970   2.192
 9768TIP3    H229250   7.918   2.846   2.248
 9769TIP3   OH229251   8.188   5.764   0.107
 9769TIP3    H129252   8.213   5.705   0.178
 9769TIP3    H229253   8.093   5.768   0.111
 9770TIP3   OH229254   4.015   0.319   1.177
 9770TIP3    H129255   3.946   0.290   1.117
 9770TIP3    H229256   4.097   0.291   1.136
 9771TIP3   OH229257   8.121   4.153   5.444
 9771TIP3    H129258   8.214   4.161   5.467
 9771TIP3    H229259   8.094   4.242   5.421
 9772TIP3   OH229260   4.468   4.712   4.111
 9772TIP3    H129261   4.420   4.770   4.170
 9772TIP3    H229262   4.451   4.624   4.145
 9773TIP3   OH229263   0.401   3.346   0.142
 9773TIP3    H129264   0.459   3.317   0.071
 9773TIP3    H229265   0.426   3.291   0.217
 9774TIP3   OH229266   3.338   2.627   3.985
 9774TIP3    H129267   3.433   2.627   4.001
 9774TIP3    H229268   3.301   2.677   4.057
 9775TIP3   OH229269   4.540   5.342   1.479
 9775TIP3    H129270   4.609   5.311   1.538
 9775TIP3    H229271   4.519   5.266   1.425
 9776TIP3   OH229272   3.402   7.196   2.140
 9776TIP3    H129273   3.454   7.247   2.203
 9776TIP3    H229274   3.434   7.107   2.150
 9777TIP3   OH229275   0.342   4.112   6.052
 9777TIP3    H129276   0.406   4.163   6.102
 9777TIP3    H229277   0.369   4.021   6.066
 9778TIP3   OH229278   7.008   6.979   5.510
 9778TIP3    H129279   7.057   6.901   5.483
 9778TIP3    H229280   7.049   7.006   5.592
 9779TIP3   OH229281   2.271   7.321   1.832
 9779TIP3    H129282   2.199   7.291   1.889
 9779TIP3    H229283   2.342   7.259   1.849
 9780TIP3   OH229284   7.056   4.717   6.117
 9780TIP3    H129285   7.063   4.629   6.080
 9780TIP3    H229286   7.007   4.704   6.198
 9781TIP3   OH229287   3.619   6.092   6.284
 9781TIP3    H129288   3.583   6.006   6.308
 9781TIP3    H229289   3.680   6.112   6.355
 9782TIP3   OH229290   6.665   4.911   0.247
 9782TIP3    H129291   6.602   4.841   0.264
 9782TIP3    H229292   6.737   4.895   0.309
 9783TIP3   OH229293   5.868   0.885   2.622
 9783TIP3    H129294   5.798   0.937   2.585
 9783TIP3    H229295   5.870   0.805   2.569
 9784TIP3   OH229296   3.126   0.329   2.322
 9784TIP3    H129297   3.191   0.364   2.382
 9784TIP3    H229298   3.069   0.403   2.302
 9785TIP3   OH229299   3.896   6.523   5.699
 9785TIP3    H129300   3.879   6.508   5.606
 9785TIP3    H229301   3.898   6.435   5.737
 9786TIP3   OH229302   0.052   6.892   2.338
 9786TIP3    H129303   0.098   6.963   2.381
 9786TIP3    H229304   0.111   6.862   2.269
 9787TIP3   OH229305   7.836   0.449   3.658
 9787TIP3    H129306   7.801   0.537   3.641
 9787TIP3    H229307   7.896   0.433   3.585
 9788TIP3   OH229308   7.772   2.149   5.767
 9788TIP3    H129309   7.826   2.119   5.841
 9788TIP3    H229310   7.814   2.230   5.739
 9789TIP3   OH229311   5.232   4.754   4.872
 9789TIP3    H129312   5.297   4.689   4.898
 9789TIP3    H229313   5.281   4.836   4.867
 9790TIP3   OH229314   6.839   1.276   1.280
 9790TIP3    H129315   6.866   1.202   1.335
 9790TIP3    H229316   6.921   1.323   1.263
 9791TIP3   OH229317   0.796   3.248   0.937
 9791TIP3    H129318   0.748   3.224   0.859
 9791TIP3    H229319   0.831   3.166   0.971
 9792TIP3   OH229320   0.928   2.611   6.406
 9792TIP3    H129321   0.951   2.538   6.349
 9792TIP3    H229322   1.003   2.621   6.464
 9793TIP3   OH229323   7.775   3.423   2.491
 9793TIP3    H129324   7.829   3.401   2.415
 9793TIP3    H229325   7.783   3.518   2.499
 9794TIP3   OH229326   3.530   1.031   5.558
 9794TIP3    H129327   3.468   0.967   5.594
 9794TIP3    H229328   3.614   0.985   5.558
 9795TIP3   OH229329   2.593   0.069   2.177
 9795TIP3    H129330   2.657   0.105   2.239
 9795TIP3    H229331   2.632  -0.012   2.145
 9796TIP3   OH229332   0.601   0.263   1.473
 9796TIP3    H129333   0.594   0.240   1.380
 9796TIP3    H229334   0.660   0.198   1.509
 9797TIP3   OH229335   6.774   4.344   4.889
 9797TIP3    H129336   6.775   4.396   4.970
 9797TIP3    H229337   6.833   4.391   4.830
 9798TIP3   OH229338   3.515   3.571   3.979
 9798TIP3    H129339   3.580   3.573   4.049
 9798TIP3    H229340   3.446   3.514   4.012
 9799TIP3   OH229341   0.817   6.017   2.780
 9799TIP3    H129342   0.740   6.017   2.836
 9799TIP3    H229343   0.842   6.109   2.773
 9800TIP3   OH229344   2.015   4.583   2.108
 9800TIP3    H129345   2.063   4.537   2.176
 9800TIP3    H229346   1.923   4.577   2.134
 9801TIP3   OH229347   7.314   4.247   1.201
 9801TIP3    H129348   7.317   4.159   1.163
 9801TIP3    H229349   7.306   4.232   1.295
 9802TIP3   OH229350   0.101   6.702   4.733
 9802TIP3    H129351   0.137   6.790   4.733
 9802TIP3    H229352   0.066   6.690   4.822
 9803TIP3   OH229353   1.703   1.654   1.109
 9803TIP3    H129354   1.779   1.649   1.052
 9803TIP3    H229355   1.628   1.657   1.049
 9804TIP3   OH229356   3.454   3.500   3.160
 9804TIP3    H129357   3.456   3.455   3.244
 9804TIP3    H229358   3.439   3.592   3.182
 9805TIP3   OH229359   7.140   1.600   5.458
 9805TIP3    H129360   7.100   1.521   5.423
 9805TIP3    H229361   7.155   1.581   5.551
 9806TIP3   OH229362   3.673   6.924   4.675
 9806TIP3    H129363   3.700   6.871   4.750
 9806TIP3    H229364   3.661   7.011   4.712
 9807TIP3   OH229365   3.615   5.389   3.660
 9807TIP3    H129366   3.559   5.398   3.583
 9807TIP3    H229367   3.660   5.305   3.648
 9808TIP3   OH229368   5.875   2.466   5.215
 9808TIP3    H129369   5.789   2.470   5.256
 9808TIP3    H229370   5.906   2.557   5.215
 9809TIP3   OH229371   6.514   0.585   5.893
 9809TIP3    H129372   6.469   0.588   5.978
 9809TIP3    H229373   6.464   0.645   5.838
 9810TIP3   OH229374   2.325   1.525   6.226
 9810TIP3    H129375   2.264   1.459   6.192
 9810TIP3    H229376   2.371   1.480   6.297
 9811TIP3   OH229377   2.498   5.629   6.535
 9811TIP3    H129378   2.499   5.603   6.627
 9811TIP3    H229379   2.416   5.592   6.501
 9812TIP3   OH229380   7.377   2.500   0.566
 9812TIP3    H129381   7.455   2.454   0.597
 9812TIP3    H229382   7.319   2.432   0.533
 9813TIP3   OH229383   1.085   2.779   6.235
 9813TIP3    H129384   1.006   2.826   6.209
 9813TIP3    H229385   1.059   2.729   6.313
 9814TIP3   OH229386   3.989   2.317   6.167
 9814TIP3    H129387   3.908   2.326   6.217
 9814TIP3    H229388   3.985   2.388   6.102
 9815TIP3   OH229389   5.371   4.983   4.078
 9815TIP3    H129390   5.296   5.037   4.051
 9815TIP3    H229391   5.333   4.900   4.104
 9816TIP3   OH229392   4.349   2.689   5.344
 9816TIP3    H129393   4.284   2.629   5.306
 9816TIP3    H229394   4.302   2.733   5.414
 9817TIP3   OH229395   3.605   6.941   3.732
 9817TIP3    H129396   3.615   6.859   3.684
 9817TIP3    H229397   3.518   6.934   3.772
 9818TIP3   OH229398   5.248   1.612   5.707
 9818TIP3    H129399   5.185   1.580   5.772
 9818TIP3    H229400   5.198   1.676   5.656
 9819TIP3   OH229401   8.142   4.551   0.930
 9819TIP3    H129402   8.097   4.487   0.986
 9819TIP3    H229403   8.232   4.554   0.964
 9820TIP3   OH229404   4.665   2.778   1.425
 9820TIP3    H129405   4.690   2.790   1.517
 9820TIP3    H229406   4.717   2.703   1.396
 9821TIP3   OH229407   0.530   3.881   3.387
 9821TIP3    H129408   0.458   3.853   3.331
 9821TIP3    H229409   0.552   3.802   3.438
 9822TIP3   OH229410   2.443   2.355   5.560
 9822TIP3    H129411   2.475   2.345   5.650
 9822TIP3    H229412   2.415   2.267   5.535
 9823TIP3   OH229413   3.957   0.992   2.171
 9823TIP3    H129414   4.043   1.033   2.161
 9823TIP3    H229415   3.935   0.960   2.083
 9824TIP3   OH229416   0.194   3.119   1.398
 9824TIP3    H129417   0.161   3.207   1.378
 9824TIP3    H229418   0.168   3.066   1.324
 9825TIP3   OH229419   0.713   1.008   3.896
 9825TIP3    H129420   0.734   1.022   3.989
 9825TIP3    H229421   0.627   1.047   3.884
 9826TIP3   OH229422   2.285   0.497   1.536
 9826TIP3    H129423   2.279   0.532   1.625
 9826TIP3    H229424   2.371   0.455   1.533
 9827TIP3   OH229425   2.394   5.896   6.457
 9827TIP3    H129426   2.457   5.962   6.428
 9827TIP3    H229427   2.447   5.819   6.478
 9828TIP3   OH229428   0.448   2.658   5.926
 9828TIP3    H129429   0.444   2.716   6.002
 9828TIP3    H229430   0.356   2.639   5.906
 9829TIP3   OH229431   8.200   6.825   0.384
 9829TIP3    H129432   8.194   6.918   0.360
 9829TIP3    H229433   8.112   6.803   0.414
 9830TIP3   OH229434   7.075   3.343   1.327
 9830TIP3    H129435   7.033   3.270   1.372
 9830TIP3    H229436   7.134   3.301   1.264
 9831TIP3   OH229437   5.591   6.099   0.853
 9831TIP3    H129438   5.673   6.130   0.814
 9831TIP3    H229439   5.611   6.088   0.946
 9832TIP3   OH229440   6.079   6.356   1.589
 9832TIP3    H129441   6.021   6.396   1.524
 9832TIP3    H229442   6.039   6.377   1.673
 9833TIP3   OH229443   1.853   5.362   1.710
 9833TIP3    H129444   1.783   5.386   1.771
 9833TIP3    H229445   1.881   5.275   1.740
 9834TIP3   OH229446   3.981   7.797   2.670
 9834TIP3    H129447   3.920   7.772   2.740
 9834TIP3    H229448   3.979   7.893   2.670
 9835TIP3   OH229449   5.575   0.387   0.855
 9835TIP3    H129450   5.639   0.346   0.913
 9835TIP3    H229451   5.575   0.479   0.882
 9836TIP3   OH229452   1.003   6.115   1.451
 9836TIP3    H129453   0.929   6.055   1.444
 9836TIP3    H229454   1.009   6.135   1.544
 9837TIP3   OH229455   3.224   4.678   5.060
 9837TIP3    H129456   3.165   4.692   5.134
 9837TIP3    H229457   3.169   4.694   4.983
 9838TIP3   OH229458   4.154   4.522   6.225
 9838TIP3    H129459   4.195   4.438   6.206
 9838TIP3    H229460   4.071   4.500   6.266
 9839TIP3   OH229461   2.137   6.614   2.171
 9839TIP3    H129462   2.206   6.577   2.117
 9839TIP3    H229463   2.056   6.594   2.124
 9840TIP3   OH229464   3.935   3.255   5.021
 9840TIP3    H129465   4.018   3.230   4.981
 9840TIP3    H229466   3.895   3.172   5.046
 9841TIP3   OH229467   3.981   4.000   0.028
 9841TIP3    H129468   3.905   3.960   0.070
 9841TIP3    H229469   3.957   4.092   0.018
 9842TIP3   OH229470   1.804   1.934   6.135
 9842TIP3    H129471   1.832   2.025   6.133
 9842TIP3    H229472   1.876   1.888   6.179
 9843TIP3   OH229473   0.586   3.148   1.891
 9843TIP3    H129474   0.622   3.136   1.979
 9843TIP3    H229475   0.515   3.084   1.885
 9844TIP3   OH229476   3.007   4.470   6.744
 9844TIP3    H129477   3.083   4.518   6.777
 9844TIP3    H229478   2.932   4.508   6.790
 9845TIP3   OH229479   7.034   6.714   4.964
 9845TIP3    H129480   6.952   6.667   4.976
 9845TIP3    H229481   7.098   6.645   4.946
 9846TIP3   OH229482   1.684   1.977   6.601
 9846TIP3    H129483   1.618   1.912   6.578
 9846TIP3    H229484   1.759   1.956   6.545
 9847TIP3   OH229485   2.842   2.179   4.870
 9847TIP3    H129486   2.865   2.215   4.955
 9847TIP3    H229487   2.793   2.099   4.890
 9848TIP3   OH229488   2.393   6.754   3.523
 9848TIP3    H129489   2.347   6.681   3.564
 9848TIP3    H229490   2.342   6.772   3.443
 9849TIP3   OH229491   4.831   6.198   4.620
 9849TIP3    H129492   4.832   6.288   4.652
 9849TIP3    H229493   4.908   6.157   4.659
 9850TIP3   OH229494   3.581   6.867   5.939
 9850TIP3    H129495   3.655   6.886   5.881
 9850TIP3    H229496   3.621   6.821   6.013
 9851TIP3   OH229497   6.702   3.064   6.548
 9851TIP3    H129498   6.694   3.070   6.453
 9851TIP3    H229499   6.670   2.976   6.569
 9852TIP3   OH229500   2.432   1.984   6.355
 9852TIP3    H129501   2.394   1.909   6.309
 9852TIP3    H229502   2.424   2.057   6.293
 9853TIP3   OH229503   5.131   5.814   5.756
 9853TIP3    H129504   5.181   5.733   5.751
 9853TIP3    H229505   5.198   5.883   5.758
 9854TIP3   OH229506   3.832   3.346   0.405
 9854TIP3    H129507   3.818   3.322   0.496
 9854TIP3    H229508   3.899   3.285   0.374
 9855TIP3   OH229509   4.873   2.523   5.109
 9855TIP3    H129510   4.801   2.487   5.057
 9855TIP3    H229511   4.896   2.452   5.169
 9856TIP3   OH229512   2.565   4.405   5.833
 9856TIP3    H129513   2.533   4.316   5.816
 9856TIP3    H229514   2.657   4.403   5.808
 9857TIP3   OH229515   7.453   3.717   2.329
 9857TIP3    H129516   7.533   3.761   2.359
 9857TIP3    H229517   7.393   3.789   2.308
 9858TIP3   OH229518   1.249   2.524   1.151
 9858TIP3    H129519   1.267   2.549   1.241
 9858TIP3    H229520   1.332   2.539   1.105
 9859TIP3   OH229521   1.181   5.634   2.609
 9859TIP3    H129522   1.118   5.690   2.564
 9859TIP3    H229523   1.267   5.670   2.586
 9860TIP3   OH229524   3.788   6.348   3.351
 9860TIP3    H129525   3.710   6.343   3.296
 9860TIP3    H229526   3.761   6.311   3.435
 9861TIP3   OH229527   4.766   4.334   0.238
 9861TIP3    H129528   4.722   4.418   0.253
 9861TIP3    H229529   4.835   4.331   0.304
 9862TIP3   OH229530   7.656   4.869   6.723
 9862TIP3    H129531   7.680   4.778   6.708
 9862TIP3    H229532   7.719   4.919   6.671
 9863TIP3   OH229533   0.642   0.857   1.956
 9863TIP3    H129534   0.710   0.904   1.908
 9863TIP3    H229535   0.603   0.798   1.891
 9864TIP3   OH229536   2.832   0.350   6.018
 9864TIP3    H129537   2.836   0.297   5.939
 9864TIP3    H229538   2.755   0.405   6.007
 9865TIP3   OH229539   2.392   7.006   5.547
 9865TIP3    H129540   2.387   6.997   5.642
 9865TIP3    H229541   2.301   6.996   5.518
 9866TIP3   OH229542   4.453   4.457   2.944
 9866TIP3    H129543   4.455   4.420   2.856
 9866TIP3    H229544   4.544   4.451   2.974
 9867TIP3   OH229545   5.791   4.015   0.699
 9867TIP3    H129546   5.733   3.954   0.745
 9867TIP3    H229547   5.830   4.068   0.768
 9868TIP3   OH229548   0.272   1.055   1.375
 9868TIP3    H129549   0.198   1.041   1.316
 9868TIP3    H229550   0.348   1.060   1.317
 9869TIP3   OH229551   2.240   2.945   2.667
 9869TIP3    H129552   2.195   2.904   2.741
 9869TIP3    H229553   2.213   2.893   2.592
 9870TIP3   OH229554   3.021   0.468   1.001
 9870TIP3    H129555   2.938   0.452   0.957
 9870TIP3    H229556   3.014   0.417   1.083
 9871TIP3   OH229557   3.954   2.613   5.444
 9871TIP3    H129558   3.987   2.641   5.529
 9871TIP3    H229559   3.954   2.692   5.391
 9872TIP3   OH229560   7.681   2.903   2.479
 9872TIP3    H129561   7.736   2.943   2.547
 9872TIP3    H229562   7.733   2.911   2.399
 9873TIP3   OH229563   4.106   6.933   2.769
 9873TIP3    H129564   4.028   6.932   2.713
 9873TIP3    H229565   4.175   6.966   2.712
 9874TIP3   OH229566   3.558   1.150   2.668
 9874TIP3    H129567   3.481   1.196   2.703
 9874TIP3    H229568   3.533   1.126   2.579
 9875TIP3   OH229569   1.411   2.474   6.427
 9875TIP3    H129570   1.350   2.475   6.501
 9875TIP3    H229571   1.364   2.428   6.358
 9876TIP3   OH229572   2.339   4.215   1.093
 9876TIP3    H129573   2.338   4.149   1.162
 9876TIP3    H229574   2.284   4.178   1.024
 9877TIP3   OH229575   7.980   3.357   2.999
 9877TIP3    H129576   7.987   3.357   3.095
 9877TIP3    H229577   8.011   3.443   2.973
 9878TIP3   OH229578   0.662   4.460   6.234
 9878TIP3    H129579   0.744   4.433   6.192
 9878TIP3    H229580   0.675   4.554   6.252
 9879TIP3   OH229581   1.543   1.022   6.379
 9879TIP3    H129582   1.553   1.030   6.473
 9879TIP3    H229583   1.595   1.093   6.342
 9880TIP3   OH229584   1.076   2.126   6.042
 9880TIP3    H129585   1.165   2.141   6.074
 9880TIP3    H229586   1.082   2.138   5.947
 9881TIP3   OH229587   4.488   4.819   4.863
 9881TIP3    H129588   4.540   4.757   4.812
 9881TIP3    H229589   4.502   4.793   4.954
 9882TIP3   OH229590   0.964   3.741   4.033
 9882TIP3    H129591   0.913   3.759   3.954
 9882TIP3    H229592   0.979   3.647   4.031
 9883TIP3   OH229593   0.084   6.380  -0.004
 9883TIP3    H129594   0.154   6.314  -0.001
 9883TIP3    H229595   0.045   6.378   0.083
 9884TIP3   OH229596   7.791   1.054   1.756
 9884TIP3    H129597   7.715   1.103   1.725
 9884TIP3    H229598   7.865   1.114   1.746
 9885TIP3   OH229599   1.092   3.854   0.648
 9885TIP3    H129600   1.077   3.809   0.732
 9885TIP3    H229601   1.029   3.925   0.647
 9886TIP3   OH229602   2.321   4.390   3.770
 9886TIP3    H129603   2.240   4.426   3.733
 9886TIP3    H229604   2.325   4.426   3.858
 9887TIP3   OH229605   0.387   1.005   5.448
 9887TIP3    H129606   0.451   1.068   5.415
 9887TIP3    H229607   0.417   0.985   5.537
 9888TIP3   OH229608   4.204   6.173   0.000
 9888TIP3    H129609   4.240   6.090   0.029
 9888TIP3    H229610   4.207   6.229   0.077
 9889TIP3   OH229611   7.228   4.733   1.881
 9889TIP3    H129612   7.226   4.799   1.950
 9889TIP3    H229613   7.321   4.719   1.864
 9890TIP3   OH229614   5.441   6.905   1.835
 9890TIP3    H129615   5.497   6.868   1.766
 9890TIP3    H229616   5.398   6.980   1.794
 9891TIP3   OH229617   7.000   3.397   1.027
 9891TIP3    H129618   6.917   3.423   1.068
 9891TIP3    H229619   7.011   3.458   0.954
 9892TIP3   OH229620   3.861   2.132   5.973
 9892TIP3    H129621   3.781   2.168   6.011
 9892TIP3    H229622   3.931   2.170   6.025
 9893TIP3   OH229623   5.778   5.275   1.176
 9893TIP3    H129624   5.725   5.321   1.241
 9893TIP3    H229625   5.857   5.248   1.224
 9894TIP3   OH229626   7.034   3.128   6.704
 9894TIP3    H129627   7.016   3.047   6.752
 9894TIP3    H229628   7.116   3.159   6.740
 9895TIP3   OH229629   3.374   2.660   2.470
 9895TIP3    H129630   3.424   2.739   2.448
 9895TIP3    H229631   3.366   2.613   2.387
 9896TIP3   OH229632   6.012   1.347   3.596
 9896TIP3    H129633   5.969   1.429   3.573
 9896TIP3    H229634   5.978   1.325   3.683
 9897TIP3   OH229635   8.198   4.620   5.209
 9897TIP3    H129636   8.183   4.636   5.116
 9897TIP3    H229637   8.260   4.548   5.211
 9898TIP3   OH229638   4.899   7.502   6.205
 9898TIP3    H129639   4.936   7.427   6.158
 9898TIP3    H229640   4.830   7.464   6.260
 9899TIP3   OH229641   7.706   7.096   5.700
 9899TIP3    H129642   7.664   7.020   5.659
 9899TIP3    H229643   7.730   7.152   5.626
 9900TIP3   OH229644   7.558   0.630   0.130
 9900TIP3    H129645   7.561   0.605   0.037
 9900TIP3    H229646   7.637   0.682   0.143
 9901TIP3   OH229647   8.010   5.919   3.531
 9901TIP3    H129648   8.088   5.972   3.548
 9901TIP3    H229649   7.993   5.875   3.614
 9902TIP3   OH229650   7.388   5.683   3.624
 9902TIP3    H129651   7.429   5.731   3.695
 9902TIP3    H229652   7.294   5.699   3.635
 9903TIP3   OH229653   5.278   6.699   5.941
 9903TIP3    H129654   5.321   6.784   5.940
 9903TIP3    H229655   5.300   6.662   6.026
 9904TIP3   OH229656   0.773   2.070   2.528
 9904TIP3    H129657   0.837   2.002   2.506
 9904TIP3    H229658   0.824   2.137   2.575
 9905TIP3   OH229659   7.649   3.447   6.059
 9905TIP3    H129660   7.647   3.514   6.127
 9905TIP3    H229661   7.732   3.461   6.013
 9906TIP3   OH229662   3.617   0.644   4.432
 9906TIP3    H129663   3.610   0.736   4.406
 9906TIP3    H229664   3.526   0.613   4.436
 9907TIP3   OH229665   7.165   5.441   3.710
 9907TIP3    H129666   7.132   5.468   3.624
 9907TIP3    H229667   7.215   5.516   3.742
 9908TIP3   OH229668   5.807   4.952   4.624
 9908TIP3    H129669   5.799   4.959   4.529
 9908TIP3    H229670   5.886   5.001   4.645
 9909TIP3   OH229671   7.801   0.672   1.017
 9909TIP3    H129672   7.712   0.647   1.043
 9909TIP3    H229673   7.854   0.596   1.038
 9910TIP3   OH229674   3.810   6.708   2.109
 9910TIP3    H129675   3.719   6.693   2.086
 9910TIP3    H229676   3.807   6.773   2.179
 9911TIP3   OH229677   1.795   5.014   0.684
 9911TIP3    H129678   1.762   4.930   0.653
 9911TIP3    H229679   1.805   5.067   0.604
 9912TIP3   OH229680   3.569   4.600   3.923
 9912TIP3    H129681   3.612   4.517   3.902
 9912TIP3    H229682   3.601   4.621   4.010
 9913TIP3   OH229683   0.687   7.116   6.609
 9913TIP3    H129684   0.650   7.199   6.577
 9913TIP3    H229685   0.661   7.052   6.543
 9914TIP3   OH229686   5.559   7.796   5.937
 9914TIP3    H129687   5.560   7.892   5.946
 9914TIP3    H229688   5.628   7.777   5.874
 9915TIP3   OH229689   5.692   0.447   1.131
 9915TIP3    H129690   5.693   0.482   1.220
 9915TIP3    H229691   5.747   0.507   1.081
 9916TIP3   OH229692   2.939   2.090   2.501
 9916TIP3    H129693   2.885   2.048   2.434
 9916TIP3    H229694   2.880   2.149   2.546
 9917TIP3   OH229695   6.079   3.204   4.069
 9917TIP3    H129696   6.102   3.138   4.134
 9917TIP3    H229697   6.036   3.155   3.999
 9918TIP3   OH229698   7.625   5.634   1.124
 9918TIP3    H129699   7.604   5.590   1.206
 9918TIP3    H229700   7.698   5.584   1.088
 9919TIP3   OH229701   3.957   5.852   0.775
 9919TIP3    H129702   3.983   5.760   0.772
 9919TIP3    H229703   3.879   5.857   0.720
 9920TIP3   OH229704   0.657   0.717   3.800
 9920TIP3    H129705   0.603   0.759   3.868
 9920TIP3    H229706   0.650   0.776   3.725
 9921TIP3   OH229707   4.652   7.705   0.930
 9921TIP3    H129708   4.568   7.745   0.953
 9921TIP3    H229709   4.717   7.756   0.979
 9922TIP3   OH229710   7.706   5.445   1.574
 9922TIP3    H129711   7.739   5.391   1.503
 9922TIP3    H229712   7.782   5.493   1.606
 9923TIP3   OH229713   6.752   7.264   6.407
 9923TIP3    H129714   6.834   7.258   6.456
 9923TIP3    H229715   6.779   7.261   6.315
 9924TIP3   OH229716   1.273   0.829   2.001
 9924TIP3    H129717   1.268   0.924   2.003
 9924TIP3    H229718   1.346   0.810   1.942
 9925TIP3   OH229719   1.739   1.095   4.997
 9925TIP3    H129720   1.828   1.061   4.990
 9925TIP3    H229721   1.690   1.024   5.039
 9926TIP3   OH229722   2.559   0.238   4.182
 9926TIP3    H129723   2.494   0.249   4.112
 9926TIP3    H229724   2.520   0.173   4.241
 9927TIP3   OH229725   4.042   6.984   0.559
 9927TIP3    H129726   4.136   7.000   0.549
 9927TIP3    H229727   4.003   7.071   0.565
 9928TIP3   OH229728   6.910   5.462   4.858
 9928TIP3    H129729   6.822   5.427   4.842
 9928TIP3    H229730   6.967   5.385   4.858
 9929TIP3   OH229731   5.744   3.052   4.188
 9929TIP3    H129732   5.669   3.079   4.135
 9929TIP3    H229733   5.729   2.958   4.204
 9930TIP3   OH229734   0.494   3.197   4.711
 9930TIP3    H129735   0.443   3.258   4.659
 9930TIP3    H229736   0.522   3.249   4.787
 9931TIP3   OH229737   7.940   5.804   5.811
 9931TIP3    H129738   7.860   5.764   5.776
 9931TIP3    H229739   7.911   5.855   5.887
 9932TIP3   OH229740   3.810   7.497   3.870
 9932TIP3    H129741   3.831   7.540   3.788
 9932TIP3    H229742   3.726   7.534   3.897
 9933TIP3   OH229743   0.756   6.094   4.666
 9933TIP3    H129744   0.664   6.075   4.644
 9933TIP3    H229745   0.777   6.031   4.735
 9934TIP3   OH229746   3.103   1.426   5.641
 9934TIP3    H129747   3.107   1.357   5.575
 9934TIP3    H229748   3.193   1.434   5.673
 9935TIP3   OH229749   0.841   5.134   0.101
 9935TIP3    H129750   0.873   5.063   0.045
 9935TIP3    H229751   0.911   5.147   0.165
 9936TIP3   OH229752   3.464   1.307   5.040
 9936TIP3    H129753   3.392   1.244   5.052
 9936TIP3    H229754   3.424   1.392   5.059
 9937TIP3   OH229755   3.575   0.360   5.816
 9937TIP3    H129756   3.569   0.266   5.798
 9937TIP3    H229757   3.597   0.399   5.732
 9938TIP3   OH229758   0.758   2.761   1.003
 9938TIP3    H129759   0.798   2.734   0.920
 9938TIP3    H229760   0.769   2.686   1.061
 9939TIP3   OH229761   0.283   6.817   3.478
 9939TIP3    H129762   0.333   6.735   3.485
 9939TIP3    H229763   0.280   6.835   3.384
 9940TIP3   OH229764   3.013   7.666   3.227
 9940TIP3    H129765   3.072   7.679   3.302
 9940TIP3    H229766   3.071   7.638   3.156
 9941TIP3   OH229767   8.084   4.927   0.402
 9941TIP3    H129768   8.144   4.889   0.338
 9941TIP3    H229769   8.010   4.866   0.404
 9942TIP3   OH229770   6.695   6.738   2.266
 9942TIP3    H129771   6.762   6.714   2.330
 9942TIP3    H229772   6.624   6.775   2.318
 9943TIP3   OH229773   6.437   7.396   3.494
 9943TIP3    H129774   6.524   7.433   3.477
 9943TIP3    H229775   6.388   7.467   3.536
 9944TIP3   OH229776   0.896   0.489   6.629
 9944TIP3    H129777   0.891   0.583   6.609
 9944TIP3    H229778   0.911   0.485   6.723
 9945TIP3   OH229779   3.859   2.648   3.305
 9945TIP3    H129780   3.819   2.720   3.354
 9945TIP3    H229781   3.837   2.666   3.213
 9946TIP3   OH229782   4.076   0.888   1.344
 9946TIP3    H129783   3.987   0.915   1.320
 9946TIP3    H229784   4.121   0.876   1.260
 9947TIP3   OH229785   5.841   3.155   0.998
 9947TIP3    H129786   5.829   3.226   0.935
 9947TIP3    H229787   5.880   3.198   1.075
 9948TIP3   OH229788   2.675   7.262   5.097
 9948TIP3    H129789   2.611   7.225   5.036
 9948TIP3    H229790   2.759   7.228   5.068
 9949TIP3   OH229791   1.672   3.980   5.184
 9949TIP3    H129792   1.711   4.052   5.234
 9949TIP3    H229793   1.579   3.984   5.205
 9950TIP3   OH229794   8.196   5.594   2.968
 9950TIP3    H129795   8.139   5.519   2.986
 9950TIP3    H229796   8.183   5.652   3.044
 9951TIP3   OH229797   4.323   7.369   0.674
 9951TIP3    H129798   4.407   7.411   0.660
 9951TIP3    H229799   4.308   7.318   0.595
 9952TIP3   OH229800   3.633   3.234   5.339
 9952TIP3    H129801   3.689   3.271   5.271
 9952TIP3    H229802   3.552   3.211   5.294
 9953TIP3   OH229803   1.702   4.746   1.737
 9953TIP3    H129804   1.714   4.785   1.650
 9953TIP3    H229805   1.786   4.759   1.781
 9954TIP3   OH229806   5.740   3.346   0.303
 9954TIP3    H129807   5.785   3.371   0.223
 9954TIP3    H229808   5.809   3.343   0.370
 9955TIP3   OH229809   6.833   7.212   1.800
 9955TIP3    H129810   6.872   7.287   1.756
 9955TIP3    H229811   6.743   7.239   1.819
 9956TIP3   OH229812   0.635   5.204   5.932
 9956TIP3    H129813   0.678   5.158   5.860
 9956TIP3    H229814   0.705   5.253   5.974
 9957TIP3   OH229815   0.973   6.530   4.206
 9957TIP3    H129816   0.902   6.593   4.192
 9957TIP3    H229817   1.043   6.560   4.149
 9958TIP3   OH229818   7.338   3.405   6.153
 9958TIP3    H129819   7.304   3.490   6.124
 9958TIP3    H229820   7.406   3.383   6.090
 9959TIP3   OH229821   1.430   1.362   4.347
 9959TIP3    H129822   1.353   1.403   4.309
 9959TIP3    H229823   1.504   1.398   4.299
 9960TIP3   OH229824   5.399   3.944   5.546
 9960TIP3    H129825   5.327   3.949   5.608
 9960TIP3    H229826   5.413   4.034   5.518
 9961TIP3   OH229827   1.207   0.340   6.717
 9961TIP3    H129828   1.178   0.390   6.641
 9961TIP3    H229829   1.160   0.379   6.791
 9962TIP3   OH229830   5.181   1.448   3.643
 9962TIP3    H129831   5.105   1.438   3.586
 9962TIP3    H229832   5.176   1.539   3.674
 9963TIP3   OH229833   0.672   0.104   0.915
 9963TIP3    H129834   0.719   0.150   0.984
 9963TIP3    H229835   0.581   0.104   0.945
 9964TIP3   OH229836   4.820   0.233   0.920
 9964TIP3    H129837   4.839   0.327   0.927
 9964TIP3    H229838   4.764   0.214   0.995
 9965TIP3   OH229839   6.316   1.744   3.863
 9965TIP3    H129840   6.245   1.734   3.799
 9965TIP3    H229841   6.365   1.662   3.856
 9966TIP3   OH229842   7.924   5.926   1.175
 9966TIP3    H129843   7.886   5.858   1.232
 9966TIP3    H229844   7.968   5.986   1.236
 9967TIP3   OH229845   5.703   4.981   6.620
 9967TIP3    H129846   5.630   5.034   6.650
 9967TIP3    H229847   5.698   4.985   6.524
 9968TIP3   OH229848   2.034   0.634   3.411
 9968TIP3    H129849   1.992   0.601   3.332
 9968TIP3    H229850   1.977   0.705   3.441
 9969TIP3   OH229851   5.896   0.212   5.247
 9969TIP3    H129852   5.938   0.127   5.236
 9969TIP3    H229853   5.944   0.254   5.318
 9970TIP3   OH229854   1.692   0.773   4.841
 9970TIP3    H129855   1.614   0.812   4.801
 9970TIP3    H229856   1.666   0.682   4.859
 9971TIP3   OH229857   4.775   1.202   2.955
 9971TIP3    H129858   4.849   1.263   2.952
 9971TIP3    H229859   4.784   1.150   2.875
 9972TIP3   OH229860   0.627   3.557   0.408
 9972TIP3    H129861   0.552   3.616   0.416
 9972TIP3    H229862   0.697   3.601   0.456
 9973TIP3   OH229863   7.780   3.626   1.345
 9973TIP3    H129864   7.719   3.554   1.361
 9973TIP3    H229865   7.814   3.648   1.432
 9974TIP3   OH229866   7.749   6.717   4.742
 9974TIP3    H129867   7.661   6.724   4.779
 9974TIP3    H229868   7.797   6.791   4.780
 9975TIP3   OH229869   6.560   7.732   5.564
 9975TIP3    H129870   6.607   7.775   5.492
 9975TIP3    H229871   6.628   7.683   5.611
 9976TIP3   OH229872   2.195   5.831   2.217
 9976TIP3    H129873   2.187   5.752   2.163
 9976TIP3    H229874   2.227   5.898   2.157
 9977TIP3   OH229875   2.987   3.021   2.082
 9977TIP3    H129876   2.994   2.931   2.113
 9977TIP3    H229877   3.008   3.074   2.158
 9978TIP3   OH229878   4.889   6.933   5.188
 9978TIP3    H129879   4.806   6.954   5.231
 9978TIP3    H229880   4.897   6.838   5.199
 9979TIP3   OH229881   1.585   5.256   2.470
 9979TIP3    H129882   1.595   5.162   2.484
 9979TIP3    H229883   1.537   5.264   2.388
 9980TIP3   OH229884   0.088   7.397   4.374
 9980TIP3    H129885   0.103   7.307   4.403
 9980TIP3    H229886   0.060   7.389   4.283
 9981TIP3   OH229887   2.458   0.937   5.047
 9981TIP3    H129888   2.369   0.971   5.038
 9981TIP3    H229889   2.515   1.008   5.017
 9982TIP3   OH229890   2.776   4.850   1.279
 9982TIP3    H129891   2.714   4.913   1.243
 9982TIP3    H229892   2.775   4.867   1.373
 9983TIP3   OH229893   7.680   2.426   4.438
 9983TIP3    H129894   7.618   2.475   4.385
 9983TIP3    H229895   7.750   2.402   4.378
 9984TIP3   OH229896   8.072   4.813   2.450
 9984TIP3    H129897   8.008   4.775   2.391
 9984TIP3    H229898   8.156   4.804   2.404
 9985TIP3   OH229899   0.776   7.266   0.687
 9985TIP3    H129900   0.787   7.227   0.600
 9985TIP3    H229901   0.708   7.212   0.728
 9986TIP3   OH229902   5.725   6.082   0.488
 9986TIP3    H129903   5.796   6.071   0.551
 9986TIP3    H229904   5.750   6.159   0.437
 9987TIP3   OH229905   0.825   2.610   0.329
 9987TIP3    H129906   0.770   2.627   0.253
 9987TIP3    H229907   0.772   2.637   0.404
 9988TIP3   OH229908   4.657   7.246   5.594
 9988TIP3    H129909   4.619   7.160   5.613
 9988TIP3    H229910   4.586   7.295   5.553
 9989TIP3   OH229911   6.011   1.565   1.155
 9989TIP3    H129912   5.963   1.560   1.238
 9989TIP3    H229913   5.959   1.624   1.101
 9990TIP3   OH229914   4.723   1.064   2.738
 9990TIP3    H129915   4.767   0.993   2.691
 9990TIP3    H229916   4.636   1.030   2.757
 9991TIP3   OH229917   0.100   6.185   3.125
 9991TIP3    H129918   0.141   6.109   3.084
 9991TIP3    H229919   0.174   6.233   3.164
 9992TIP3   OH229920   7.503   0.723   5.513
 9992TIP3    H129921   7.574   0.772   5.471
 9992TIP3    H229922   7.541   0.693   5.595
 9993TIP3   OH229923   2.157   5.815   0.770
 9993TIP3    H129924   2.185   5.735   0.814
 9993TIP3    H229925   2.176   5.799   0.678
 9994TIP3   OH229926   6.323   2.734   1.827
 9994TIP3    H129927   6.262   2.663   1.848
 9994TIP3    H229928   6.355   2.713   1.740
 9995TIP3   OH229929   0.425   6.716   1.139
 9995TIP3    H129930   0.453   6.773   1.211
 9995TIP3    H229931   0.448   6.628   1.167
 9996TIP3   OH229932   1.362   4.364   6.447
 9996TIP3    H129933   1.361   4.305   6.371
 9996TIP3    H229934   1.337   4.307   6.520
 9997TIP3   OH229935   5.166   5.265   3.772
 9997TIP3    H129936   5.114   5.195   3.733
 9997TIP3    H229937   5.205   5.310   3.697
 9998TIP3   OH229938   0.200   2.387   3.555
 9998TIP3    H129939   0.190   2.477   3.526
 9998TIP3    H229940   0.294   2.377   3.571
 9999TIP3   OH229941   5.366   5.377   4.661
 9999TIP3    H129942   5.303   5.310   4.634
 9999TIP3    H229943   5.349   5.451   4.604
10000TIP3   OH229944   4.871   3.002   1.419
10000TIP3    H129945   4.800   3.063   1.398
10000TIP3    H229946   4.875   3.002   1.515
10001TIP3   OH229947   1.043   5.409   1.992
10001TIP3    H129948   0.969   5.462   2.024
10001TIP3    H229949   1.113   5.473   1.977
10002TIP3   OH229950   4.714   7.364   0.150
10002TIP3    H129951   4.776   7.356   0.078
10002TIP3    H229952   4.718   7.278   0.193
10003TIP3   OH229953   4.648   2.286   3.263
10003TIP3    H129954   4.685   2.321   3.343
10003TIP3    H229955   4.554   2.283   3.279
10004TIP3   OH229956   0.567   7.130   3.413
10004TIP3    H129957   0.631   7.099   3.477
10004TIP3    H229958   0.535   7.049   3.371
10005TIP3   OH229959   6.568   2.393   0.108
10005TIP3    H129960   6.595   2.438   0.028
10005TIP3    H229961   6.498   2.447   0.144
10006TIP3   OH229962   1.663   4.246   6.701
10006TIP3    H129963   1.702   4.310   6.641
10006TIP3    H229964   1.607   4.192   6.645
10007TIP3   OH229965   4.301   0.084   0.629
10007TIP3    H129966   4.355   0.140   0.574
10007TIP3    H229967   4.239   0.143   0.672
10008TIP3   OH229968   5.770   4.764   3.619
10008TIP3    H129969   5.716   4.756   3.541
10008TIP3    H229970   5.709   4.790   3.688
10009TIP3   OH229971   0.944   0.953   0.092
10009TIP3    H129972   1.035   0.979   0.104
10009TIP3    H229973   0.926   0.892   0.163
10010TIP3   OH229974   5.829   4.659   0.193
10010TIP3    H129975   5.899   4.635   0.132
10010TIP3    H229976   5.751   4.615   0.158
10011TIP3   OH229977   1.302   6.050   6.260
10011TIP3    H129978   1.286   6.005   6.177
10011TIP3    H229979   1.316   6.141   6.235
10012TIP3   OH229980   2.517   0.710   6.213
10012TIP3    H129981   2.589   0.749   6.163
10012TIP3    H229982   2.516   0.759   6.295
10013TIP3   OH229983   0.578   6.861   1.325
10013TIP3    H129984   0.580   6.820   1.412
10013TIP3    H229985   0.537   6.946   1.339
10014TIP3   OH229986   4.522   0.625   4.712
10014TIP3    H129987   4.578   0.550   4.691
10014TIP3    H229988   4.583   0.693   4.739
10015TIP3   OH229989   1.121   5.217   2.385
10015TIP3    H129990   1.188   5.156   2.417
10015TIP3    H229991   1.121   5.204   2.290
10016TIP3   OH229992   7.994   4.885   3.627
10016TIP3    H129993   8.024   4.794   3.636
10016TIP3    H229994   8.000   4.921   3.715
10017TIP3   OH229995   6.006   4.238   1.755
10017TIP3    H129996   6.030   4.200   1.840
10017TIP3    H229997   6.020   4.332   1.767
10018TIP3   OH229998   5.505   3.426   5.465
10018TIP3    H129999   5.576   3.420   5.529
10018TIP3    H230000   5.456   3.345   5.475
10019TIP3   OH230001   7.517   6.353   2.442
10019TIP3    H130002   7.502   6.269   2.485
10019TIP3    H230003   7.462   6.415   2.490
10020TIP3   OH230004   6.813   4.776   2.777
10020TIP3    H130005   6.755   4.851   2.761
10020TIP3    H230006   6.755   4.708   2.812
10021TIP3   OH230007   5.894   7.684   1.178
10021TIP3    H130008   5.986   7.663   1.192
10021TIP3    H230009   5.876   7.656   1.089
10022TIP3   OH230010   4.885   4.069   0.166
10022TIP3    H130011   4.980   4.074   0.156
10022TIP3    H230012   4.866   3.975   0.162
10023TIP3   OH230013   0.211   4.398   4.788
10023TIP3    H130014   0.267   4.436   4.856
10023TIP3    H230015   0.124   4.431   4.808
10024TIP3   OH230016   7.356   0.228   5.766
10024TIP3    H130017   7.307   0.176   5.703
10024TIP3    H230018   7.289   0.278   5.813
10025TIP3   OH230019   4.270   1.365   2.082
10025TIP3    H130020   4.327   1.294   2.111
10025TIP3    H230021   4.267   1.356   1.986
10026TIP3   OH230022   0.938   5.356   1.050
10026TIP3    H130023   0.993   5.330   1.124
10026TIP3    H230024   0.851   5.367   1.088
10027TIP3   OH230025   6.163   4.915   1.341
10027TIP3    H130026   6.130   4.825   1.346
10027TIP3    H230027   6.185   4.937   1.432
10028TIP3   OH230028   7.401   7.368   3.450
10028TIP3    H130029   7.408   7.275   3.429
10028TIP3    H230030   7.356   7.371   3.534
10029TIP3   OH230031   2.974   2.946   6.383
10029TIP3    H130032   3.042   2.925   6.447
10029TIP3    H230033   2.989   2.883   6.312
10030TIP3   OH230034   2.026   1.047   2.153
10030TIP3    H130035   1.969   0.980   2.114
10030TIP3    H230036   2.115   1.022   2.126
10031TIP3   OH230037   5.629   0.245   6.335
10031TIP3    H130038   5.568   0.230   6.263
10031TIP3    H230039   5.681   0.165   6.339
10032TIP3   OH230040   0.384   3.352   1.264
10032TIP3    H130041   0.290   3.335   1.258
10032TIP3    H230042   0.401   3.412   1.191
10033TIP3   OH230043   0.337   6.820   2.656
10033TIP3    H130044   0.389   6.809   2.576
10033TIP3    H230045   0.291   6.737   2.667
10034TIP3   OH230046   8.241   1.676   6.375
10034TIP3    H130047   8.266   1.744   6.437
10034TIP3    H230048   8.293   1.600   6.400
10035TIP3   OH230049   4.964   7.721   3.691
10035TIP3    H130050   4.967   7.817   3.685
10035TIP3    H230051   4.991   7.691   3.604
10036TIP3   OH230052   5.298   4.295   0.287
10036TIP3    H130053   5.350   4.376   0.283
10036TIP3    H230054   5.325   4.252   0.367
10037TIP3   OH230055   0.877   2.013   0.585
10037TIP3    H130056   0.802   1.958   0.565
10037TIP3    H230057   0.877   2.020   0.681
10038TIP3   OH230058   0.132   5.253   4.718
10038TIP3    H130059   0.137   5.342   4.751
10038TIP3    H230060   0.076   5.207   4.780
10039TIP3   OH230061   1.422   6.321   3.855
10039TIP3    H130062   1.469   6.355   3.931
10039TIP3    H230063   1.377   6.398   3.819
10040TIP3   OH230064   5.626   0.287   5.843
10040TIP3    H130065   5.712   0.327   5.832
10040TIP3    H230066   5.592   0.277   5.754
10041TIP3   OH230067   5.465   0.804   2.634
10041TIP3    H130068   5.395   0.869   2.636
10041TIP3    H230069   5.419   0.720   2.621
10042TIP3   OH230070   1.202   7.655   3.319
10042TIP3    H130071   1.158   7.571   3.327
10042TIP3    H230072   1.287   7.635   3.280
10043TIP3   OH230073   7.181   5.743   2.881
10043TIP3    H130074   7.138   5.823   2.852
10043TIP3    H230075   7.171   5.743   2.976
10044TIP3   OH230076   5.220   5.849   3.164
10044TIP3    H130077   5.132   5.834   3.131
10044TIP3    H230078   5.225   5.796   3.244
10045TIP3   OH230079   6.389   7.686   4.624
10045TIP3    H130080   6.384   7.597   4.590
10045TIP3    H230081   6.481   7.710   4.617
10046TIP3   OH230082   3.331   4.604   4.732
10046TIP3    H130083   3.402   4.631   4.674
10046TIP3    H230084   3.374   4.562   4.806
10047TIP3   OH230085   0.507   7.035   2.287
10047TIP3    H130086   0.431   7.069   2.333
10047TIP3    H230087   0.515   7.090   2.209
10048TIP3   OH230088   5.243   0.611   2.407
10048TIP3    H130089   5.148   0.610   2.421
10048TIP3    H230090   5.280   0.601   2.495
10049TIP3   OH230091   6.659   6.016   4.868
10049TIP3    H130092   6.673   6.058   4.953
10049TIP3    H230093   6.656   5.923   4.888
10050TIP3   OH230094   7.390   6.398   5.616
10050TIP3    H130095   7.425   6.456   5.549
10050TIP3    H230096   7.466   6.373   5.669
10051TIP3   OH230097   7.618   2.375   5.200
10051TIP3    H130098   7.568   2.312   5.148
10051TIP3    H230099   7.636   2.328   5.282
10052TIP3   OH230100   4.075   0.158   2.692
10052TIP3    H130101   4.061   0.097   2.765
10052TIP3    H230102   3.994   0.208   2.686
10053TIP3   OH230103   5.557   5.428   4.192
10053TIP3    H130104   5.554   5.335   4.167
10053TIP3    H230105   5.535   5.474   4.111
10054TIP3   OH230106   7.500   0.092   0.283
10054TIP3    H130107   7.549   0.174   0.274
10054TIP3    H230108   7.523   0.042   0.205
10055TIP3   OH230109   1.438   0.203   2.195
10055TIP3    H130110   1.514   0.211   2.138
10055TIP3    H230111   1.363   0.200   2.136
10056TIP3   OH230112   0.478   0.338   3.900
10056TIP3    H130113   0.403   0.289   3.866
10056TIP3    H230114   0.523   0.275   3.956
10057TIP3   OH230115   2.854   5.420   5.540
10057TIP3    H130116   2.776   5.433   5.594
10057TIP3    H230117   2.927   5.443   5.597
10058TIP3   OH230118   6.282   6.174   2.998
10058TIP3    H130119   6.220   6.217   2.940
10058TIP3    H230120   6.303   6.091   2.954
10059TIP3   OH230121   6.320   7.009   2.920
10059TIP3    H130122   6.297   7.035   3.009
10059TIP3    H230123   6.262   7.060   2.864
10060TIP3   OH230124   0.755   3.435   1.128
10060TIP3    H130125   0.769   3.356   1.076
10060TIP3    H230126   0.747   3.404   1.218
10061TIP3   OH230127   6.698   1.279   4.297
10061TIP3    H130128   6.707   1.365   4.256
10061TIP3    H230129   6.700   1.297   4.391
10062TIP3   OH230130   5.078   1.213   6.558
10062TIP3    H130131   4.999   1.268   6.559
10062TIP3    H230132   5.118   1.227   6.644
10063TIP3   OH230133   0.745   6.283   3.552
10063TIP3    H130134   0.788   6.364   3.525
10063TIP3    H230135   0.789   6.259   3.633
10064TIP3   OH230136   1.186   0.193   1.756
10064TIP3    H130137   1.162   0.228   1.669
10064TIP3    H230138   1.263   0.244   1.781
10065TIP3   OH230139   2.628   5.658   3.183
10065TIP3    H130140   2.628   5.562   3.187
10065TIP3    H230141   2.601   5.686   3.270
10066TIP3   OH230142   5.373   3.131   1.611
10066TIP3    H130143   5.457   3.087   1.621
10066TIP3    H230144   5.391   3.205   1.552
10067TIP3   OH230145   1.875   5.741   0.842
10067TIP3    H130146   1.960   5.766   0.807
10067TIP3    H230147   1.878   5.645   0.846
10068TIP3   OH230148   7.424   4.318   3.774
10068TIP3    H130149   7.431   4.357   3.687
10068TIP3    H230150   7.410   4.393   3.833
10069TIP3   OH230151   5.975   6.315   3.981
10069TIP3    H130152   6.033   6.242   3.959
10069TIP3    H230153   5.942   6.294   4.068
10070TIP3   OH230154   3.534   0.257   2.937
10070TIP3    H130155   3.469   0.250   2.867
10070TIP3    H230156   3.610   0.208   2.905
10071TIP3   OH230157   1.447   4.221   3.509
10071TIP3    H130158   1.401   4.302   3.488
10071TIP3    H230159   1.514   4.246   3.572
10072TIP3   OH230160   5.934   4.039   4.110
10072TIP3    H130161   5.954   4.062   4.201
10072TIP3    H230162   6.008   3.985   4.083
10073TIP3   OH230163   0.605   2.348   0.718
10073TIP3    H130164   0.512   2.331   0.707
10073TIP3    H230165   0.622   2.426   0.665
10074TIP3   OH230166   0.670   3.242   6.610
10074TIP3    H130167   0.660   3.221   6.517
10074TIP3    H230168   0.752   3.290   6.615
10075TIP3   OH230169   8.114   5.578   2.580
10075TIP3    H130170   8.186   5.560   2.641
10075TIP3    H230171   8.152   5.562   2.494
10076TIP3   OH230172   5.176   6.888   0.506
10076TIP3    H130173   5.259   6.849   0.533
10076TIP3    H230174   5.126   6.814   0.470
10077TIP3   OH230175   7.896   2.578   2.397
10077TIP3    H130176   7.823   2.574   2.336
10077TIP3    H230177   7.968   2.618   2.346
10078TIP3   OH230178   3.774   0.920   1.295
10078TIP3    H130179   3.775   0.904   1.200
10078TIP3    H230180   3.682   0.908   1.320
10079TIP3   OH230181   7.557   1.930   4.792
10079TIP3    H130182   7.649   1.936   4.766
10079TIP3    H230183   7.552   1.850   4.845
10080TIP3   OH230184   1.178   7.201   5.476
10080TIP3    H130185   1.272   7.217   5.477
10080TIP3    H230186   1.145   7.253   5.403
10081TIP3   OH230187   4.372   2.845   2.906
10081TIP3    H130188   4.376   2.763   2.857
10081TIP3    H230189   4.433   2.833   2.979
10082TIP3   OH230190   6.276   1.707   1.241
10082TIP3    H130191   6.188   1.671   1.232
10082TIP3    H230192   6.279   1.778   1.176
10083TIP3   OH230193   4.954   6.639   6.330
10083TIP3    H130194   4.954   6.585   6.251
10083TIP3    H230195   4.989   6.581   6.398
10084TIP3   OH230196   2.657   3.990   0.974
10084TIP3    H130197   2.623   4.051   1.039
10084TIP3    H230198   2.708   3.927   1.024
10085TIP3   OH230199   4.320   1.969   6.693
10085TIP3    H130200   4.250   1.915   6.656
10085TIP3    H230201   4.338   1.931   6.778
10086TIP3   OH230202   4.243   3.214   5.530
10086TIP3    H130203   4.320   3.252   5.489
10086TIP3    H230204   4.225   3.271   5.605
10087TIP3   OH230205   4.049   1.851   5.823
10087TIP3    H130206   4.033   1.757   5.814
10087TIP3    H230207   4.105   1.859   5.901
10088TIP3   OH230208   7.763   1.065   6.587
10088TIP3    H130209   7.684   1.089   6.537
10088TIP3    H230210   7.825   1.036   6.520
10089TIP3   OH230211   5.396   7.448   3.770
10089TIP3    H130212   5.405   7.353   3.757
10089TIP3    H230213   5.316   7.457   3.822
10090TIP3   OH230214   2.300   1.678   3.931
10090TIP3    H130215   2.204   1.681   3.930
10090TIP3    H230216   2.322   1.615   3.863
10091TIP3   OH230217   7.958   1.741   1.795
10091TIP3    H130218   7.944   1.793   1.716
10091TIP3    H230219   8.042   1.771   1.829
10092TIP3   OH230220   4.869   3.343   2.670
10092TIP3    H130221   4.932   3.414   2.679
10092TIP3    H230222   4.865   3.303   2.757
10093TIP3   OH230223   1.367   3.520   4.231
10093TIP3    H130224   1.354   3.466   4.153
10093TIP3    H230225   1.395   3.459   4.299
10094TIP3   OH230226   6.771   7.707   1.734
10094TIP3    H130227   6.749   7.786   1.684
10094TIP3    H230228   6.692   7.652   1.727
10095TIP3   OH230229   3.831   3.174   1.152
10095TIP3    H130230   3.889   3.138   1.219
10095TIP3    H230231   3.874   3.255   1.124
10096TIP3   OH230232   7.595   6.498   6.579
10096TIP3    H130233   7.572   6.507   6.487
10096TIP3    H230234   7.616   6.405   6.590
10097TIP3   OH230235   5.779   0.708   3.940
10097TIP3    H130236   5.867   0.721   3.905
10097TIP3    H230237   5.736   0.793   3.932
10098TIP3   OH230238   6.099   7.795   4.605
10098TIP3    H130239   6.086   7.709   4.646
10098TIP3    H230240   6.193   7.812   4.615
10099TIP3   OH230241   7.229   1.764   3.215
10099TIP3    H130242   7.224   1.694   3.281
10099TIP3    H230243   7.155   1.821   3.235
10100TIP3   OH230244   2.213   6.475   5.082
10100TIP3    H130245   2.125   6.507   5.065
10100TIP3    H230246   2.263   6.499   5.003
10101TIP3   OH230247   3.558   5.095   2.198
10101TIP3    H130248   3.511   5.050   2.268
10101TIP3    H230249   3.505   5.078   2.120
10102TIP3   OH230250   4.087   2.317   2.609
10102TIP3    H130251   4.048   2.343   2.525
10102TIP3    H230252   4.162   2.375   2.619
10103TIP3   OH230253   7.683   3.744   2.866
10103TIP3    H130254   7.592   3.722   2.850
10103TIP3    H230255   7.713   3.783   2.784
10104TIP3   OH230256   2.949   5.798   4.758
10104TIP3    H130257   2.968   5.844   4.676
10104TIP3    H230258   3.007   5.839   4.822
10105TIP3   OH230259   1.647   7.700   2.616
10105TIP3    H130260   1.584   7.767   2.587
10105TIP3    H230261   1.709   7.747   2.671
10106TIP3   OH230262   7.776   5.079   0.175
10106TIP3    H130263   7.748   4.990   0.153
10106TIP3    H230264   7.846   5.099   0.113
10107TIP3   OH230265   6.100   2.142   4.513
10107TIP3    H130266   6.086   2.209   4.446
10107TIP3    H230267   6.047   2.068   4.483
10108TIP3   OH230268   2.466   5.551   5.285
10108TIP3    H130269   2.518   5.490   5.234
10108TIP3    H230270   2.454   5.509   5.370
10109TIP3   OH230271   0.413   4.651   4.602
10109TIP3    H130272   0.396   4.558   4.590
10109TIP3    H230273   0.332   4.694   4.575
10110TIP3   OH230274   0.658   3.205   5.173
10110TIP3    H130275   0.586   3.184   5.233
10110TIP3    H230276   0.713   3.267   5.222
10111TIP3   OH230277   6.118   7.316   2.045
10111TIP3    H130278   6.173   7.293   1.971
10111TIP3    H230279   6.140   7.252   2.112
10112TIP3   OH230280   8.192   4.613   6.169
10112TIP3    H130281   8.100   4.632   6.186
10112TIP3    H230282   8.205   4.524   6.203
10113TIP3   OH230283   0.273   0.149   5.756
10113TIP3    H130284   0.250   0.231   5.800
10113TIP3    H230285   0.322   0.175   5.679
10114TIP3   OH230286   6.708   7.000   5.998
10114TIP3    H130287   6.756   7.028   5.920
10114TIP3    H230288   6.701   7.080   6.051
10115TIP3   OH230289   6.233   2.607   5.077
10115TIP3    H130290   6.167   2.662   5.119
10115TIP3    H230291   6.284   2.667   5.024
10116TIP3   OH230292   4.538   5.040   2.039
10116TIP3    H130293   4.599   5.114   2.047
10116TIP3    H230294   4.512   5.020   2.129
10117TIP3   OH230295   0.831   0.043   3.965
10117TIP3    H130296   0.817   0.108   3.897
10117TIP3    H230297   0.743   0.018   3.994
10118TIP3   OH230298   2.800   6.299   3.956
10118TIP3    H130299   2.842   6.228   4.005
10118TIP3    H230300   2.710   6.301   3.990
10119TIP3   OH230301   3.552   3.741   1.020
10119TIP3    H130302   3.626   3.742   0.960
10119TIP3    H230303   3.487   3.798   0.979
10120TIP3   OH230304   6.487   4.001   1.274
10120TIP3    H130305   6.497   3.961   1.187
10120TIP3    H230306   6.393   4.017   1.282
10121TIP3   OH230307   4.823   4.051   1.993
10121TIP3    H130308   4.880   4.115   2.036
10121TIP3    H230309   4.775   4.010   2.065
10122TIP3   OH230310   0.754   0.331   0.141
10122TIP3    H130311   0.813   0.406   0.144
10122TIP3    H230312   0.809   0.257   0.115
10123TIP3   OH230313   1.109   0.915   4.986
10123TIP3    H130314   1.156   0.997   5.003
10123TIP3    H230315   1.080   0.923   4.895
10124TIP3   OH230316   4.178   1.155   2.387
10124TIP3    H130317   4.252   1.158   2.448
10124TIP3    H230318   4.189   1.073   2.340
10125TIP3   OH230319   0.978   1.791   1.575
10125TIP3    H130320   0.897   1.769   1.622
10125TIP3    H230321   1.035   1.715   1.590
10126TIP3   OH230322   4.740   0.820   1.672
10126TIP3    H130323   4.800   0.874   1.620
10126TIP3    H230324   4.776   0.732   1.666
10127TIP3   OH230325   2.651   6.648   4.925
10127TIP3    H130326   2.647   6.569   4.871
10127TIP3    H230327   2.656   6.720   4.863
10128TIP3   OH230328   3.649   2.030   3.566
10128TIP3    H130329   3.699   2.013   3.486
10128TIP3    H230330   3.580   2.090   3.540
10129TIP3   OH230331   6.920   6.405   0.663
10129TIP3    H130332   6.951   6.399   0.573
10129TIP3    H230333   6.865   6.484   0.665
10130TIP3   OH230334   5.518   5.589   5.510
10130TIP3    H130335   5.467   5.630   5.580
10130TIP3    H230336   5.511   5.650   5.436
10131TIP3   OH230337   1.321   0.658   2.212
10131TIP3    H130338   1.335   0.736   2.266
10131TIP3    H230339   1.296   0.692   2.126
10132TIP3   OH230340   2.100   2.090   0.792
10132TIP3    H130341   2.067   2.169   0.749
10132TIP3    H230342   2.177   2.121   0.840
10133TIP3   OH230343   0.771   4.083   4.142
10133TIP3    H130344   0.746   4.120   4.227
10133TIP3    H230345   0.866   4.077   4.146
10134TIP3   OH230346   3.517   2.686   1.339
10134TIP3    H130347   3.548   2.596   1.330
10134TIP3    H230348   3.540   2.728   1.256
10135TIP3   OH230349   3.424   3.071   0.117
10135TIP3    H130350   3.347   3.074   0.174
10135TIP3    H230351   3.407   2.998   0.058
10136TIP3   OH230352   4.860   6.869   1.549
10136TIP3    H130353   4.832   6.960   1.544
10136TIP3    H230354   4.911   6.855   1.470
10137TIP3   OH230355   0.731   2.291   0.970
10137TIP3    H130356   0.696   2.284   0.880
10137TIP3    H230357   0.673   2.235   1.022
10138TIP3   OH230358   2.653   0.934   2.520
10138TIP3    H130359   2.571   0.890   2.495
10138TIP3    H230360   2.721   0.871   2.498
10139TIP3   OH230361   0.042   5.904   5.530
10139TIP3    H130362   0.106   5.973   5.545
10139TIP3    H230363   0.085   5.823   5.558
10140TIP3   OH230364   7.323   4.751   6.115
10140TIP3    H130365   7.228   4.738   6.114
10140TIP3    H230366   7.343   4.794   6.032
10141TIP3   OH230367   0.236   6.744   2.176
10141TIP3    H130368   0.252   6.664   2.226
10141TIP3    H230369   0.321   6.766   2.137
10142TIP3   OH230370   3.876   7.805   1.210
10142TIP3    H130371   3.886   7.711   1.226
10142TIP3    H230372   3.863   7.812   1.115
10143TIP3   OH230373   3.112   7.455   6.694
10143TIP3    H130374   3.189   7.501   6.660
10143TIP3    H230375   3.084   7.398   6.622
10144TIP3   OH230376   1.711   5.584   1.547
10144TIP3    H130377   1.668   5.511   1.502
10144TIP3    H230378   1.778   5.542   1.602
10145TIP3   OH230379   8.268   7.393   6.487
10145TIP3    H130380   8.282   7.300   6.507
10145TIP3    H230381   8.185   7.395   6.438
10146TIP3   OH230382   6.386   5.629   4.935
10146TIP3    H130383   6.453   5.680   4.979
10146TIP3    H230384   6.373   5.553   4.992
10147TIP3   OH230385   1.467   1.512   6.186
10147TIP3    H130386   1.384   1.549   6.155
10147TIP3    H230387   1.529   1.584   6.182
10148TIP3   OH230388   7.071   0.489   5.329
10148TIP3    H130389   7.142   0.491   5.392
10148TIP3    H230390   7.105   0.537   5.253
10149TIP3   OH230391   1.191   6.101   4.183
10149TIP3    H130392   1.285   6.085   4.177
10149TIP3    H230393   1.179   6.139   4.270
10150TIP3   OH230394   0.659   2.768   2.534
10150TIP3    H130395   0.595   2.837   2.552
10150TIP3    H230396   0.744   2.811   2.539
10151TIP3   OH230397   7.750   4.196   6.250
10151TIP3    H130398   7.696   4.201   6.172
10151TIP3    H230399   7.807   4.273   6.245
10152TIP3   OH230400   6.496   1.960   5.846
10152TIP3    H130401   6.427   1.897   5.866
10152TIP3    H230402   6.464   2.009   5.771
10153TIP3   OH230403   1.924   6.671   5.290
10153TIP3    H130404   1.934   6.603   5.224
10153TIP3    H230405   1.905   6.750   5.239
10154TIP3   OH230406   5.828   4.953   0.157
10154TIP3    H130407   5.832   4.861   0.182
10154TIP3    H230408   5.741   4.982   0.185
10155TIP3   OH230409   6.524   3.625   5.636
10155TIP3    H130410   6.474   3.561   5.584
10155TIP3    H230411   6.462   3.654   5.703
10156TIP3   OH230412   3.000   5.762   3.338
10156TIP3    H130413   2.976   5.680   3.295
10156TIP3    H230414   2.990   5.828   3.270
10157TIP3   OH230415   2.405   7.526   4.021
10157TIP3    H130416   2.435   7.446   4.064
10157TIP3    H230417   2.463   7.537   3.946
10158TIP3   OH230418   2.546   7.538   0.903
10158TIP3    H130419   2.618   7.601   0.902
10158TIP3    H230420   2.502   7.551   0.819
10159TIP3   OH230421   0.198   1.568   1.149
10159TIP3    H130422   0.127   1.584   1.087
10159TIP3    H230423   0.274   1.548   1.095
10160TIP3   OH230424   4.685   0.169   5.310
10160TIP3    H130425   4.692   0.254   5.266
10160TIP3    H230426   4.768   0.126   5.291
10161TIP3   OH230427   2.517   7.523   0.272
10161TIP3    H130428   2.479   7.603   0.233
10161TIP3    H230429   2.573   7.488   0.203
10162TIP3   OH230430   4.896   6.304   1.040
10162TIP3    H130431   4.935   6.254   0.968
10162TIP3    H230432   4.947   6.278   1.117
10163TIP3   OH230433   5.201   5.914   5.112
10163TIP3    H130434   5.203   5.865   5.194
10163TIP3    H230435   5.216   6.005   5.138
10164TIP3   OH230436   0.324   4.468   1.965
10164TIP3    H130437   0.393   4.507   2.019
10164TIP3    H230438   0.299   4.388   2.011
10165TIP3   OH230439   7.005   6.646   4.223
10165TIP3    H130440   7.011   6.680   4.312
10165TIP3    H230441   6.935   6.698   4.183
10166TIP3   OH230442   0.235   6.943   2.881
10166TIP3    H130443   0.275   6.894   2.809
10166TIP3    H230444   0.299   7.011   2.901
10167TIP3   OH230445   4.040   3.585   0.736
10167TIP3    H130446   4.083   3.508   0.700
10167TIP3    H230447   4.020   3.640   0.660
10168TIP3   OH230448   2.814   1.223   1.738
10168TIP3    H130449   2.826   1.178   1.655
10168TIP3    H230450   2.729   1.268   1.729
10169TIP3   OH230451   2.559   4.855   0.916
10169TIP3    H130452   2.533   4.780   0.969
10169TIP3    H230453   2.596   4.917   0.978
10170TIP3   OH230454   1.119   1.565   6.486
10170TIP3    H130455   1.077   1.483   6.510
10170TIP3    H230456   1.142   1.555   6.394
10171TIP3   OH230457   4.984   6.325   6.304
10171TIP3    H130458   5.007   6.293   6.217
10171TIP3    H230459   5.068   6.345   6.346
10172TIP3   OH230460   3.873   6.521   3.558
10172TIP3    H130461   3.956   6.496   3.516
10172TIP3    H230462   3.844   6.441   3.601
10173TIP3   OH230463   7.485   3.562   2.814
10173TIP3    H130464   7.436   3.602   2.742
10173TIP3    H230465   7.553   3.510   2.771
10174TIP3   OH230466   7.371   6.508   4.623
10174TIP3    H130467   7.392   6.415   4.635
10174TIP3    H230468   7.390   6.549   4.707
10175TIP3   OH230469   5.699   7.441   2.171
10175TIP3    H130470   5.664   7.497   2.102
10175TIP3    H230471   5.794   7.445   2.160
10176TIP3   OH230472   7.257   1.179   2.431
10176TIP3    H130473   7.351   1.162   2.439
10176TIP3    H230474   7.249   1.235   2.354
10177TIP3   OH230475   0.880   2.365   4.323
10177TIP3    H130476   0.888   2.461   4.318
10177TIP3    H230477   0.894   2.344   4.415
10178TIP3   OH230478   7.092   1.587   5.743
10178TIP3    H130479   7.074   1.674   5.706
10178TIP3    H230480   7.046   1.586   5.826
10179TIP3   OH230481   1.503   2.365   0.916
10179TIP3    H130482   1.531   2.281   0.954
10179TIP3    H230483   1.570   2.385   0.850
10180TIP3   OH230484   2.854   5.969   2.611
10180TIP3    H130485   2.784   5.967   2.546
10180TIP3    H230486   2.933   5.943   2.563
10181TIP3   OH230487   5.775   1.827   3.393
10181TIP3    H130488   5.814   1.839   3.480
10181TIP3    H230489   5.787   1.912   3.351
10182TIP3   OH230490   2.454   6.297   6.608
10182TIP3    H130491   2.490   6.334   6.528
10182TIP3    H230492   2.501   6.214   6.619
10183TIP3   OH230493   4.313   5.410   6.040
10183TIP3    H130494   4.374   5.360   6.095
10183TIP3    H230495   4.286   5.484   6.095
10184TIP3   OH230496   5.601   2.170   0.081
10184TIP3    H130497   5.684   2.217   0.089
10184TIP3    H230498   5.549   2.222   0.019
10185TIP3   OH230499   6.161   1.268   1.000
10185TIP3    H130500   6.245   1.222   1.004
10185TIP3    H230501   6.112   1.222   0.932
10186TIP3   OH230502   5.325   3.239   1.188
10186TIP3    H130503   5.232   3.222   1.178
10186TIP3    H230504   5.365   3.201   1.109
10187TIP3   OH230505   7.812   0.661   1.785
10187TIP3    H130506   7.776   0.700   1.706
10187TIP3    H230507   7.844   0.736   1.837
10188TIP3   OH230508   4.877   4.439   1.858
10188TIP3    H130509   4.919   4.399   1.934
10188TIP3    H230510   4.786   4.410   1.864
10189TIP3   OH230511   0.896   7.000   1.859
10189TIP3    H130512   0.946   6.942   1.917
10189TIP3    H230513   0.818   7.023   1.910
10190TIP3   OH230514   6.260   5.533   0.722
10190TIP3    H130515   6.199   5.562   0.654
10190TIP3    H230516   6.245   5.439   0.730
10191TIP3   OH230517   1.266   3.675   3.677
10191TIP3    H130518   1.228   3.591   3.702
10191TIP3    H230519   1.316   3.657   3.598
10192TIP3   OH230520   0.584   6.517   4.290
10192TIP3    H130521   0.500   6.563   4.287
10192TIP3    H230522   0.590   6.485   4.380
10193TIP3   OH230523   4.800   3.673   5.347
10193TIP3    H130524   4.835   3.684   5.259
10193TIP3    H230525   4.763   3.759   5.369
10194TIP3   OH230526   3.509   5.382   2.295
10194TIP3    H130527   3.591   5.426   2.317
10194TIP3    H230528   3.536   5.299   2.255
10195TIP3   OH230529   4.762   6.791   1.069
10195TIP3    H130530   4.743   6.703   1.103
10195TIP3    H230531   4.725   6.850   1.135
10196TIP3   OH230532   1.099   4.926   4.541
10196TIP3    H130533   1.081   4.864   4.470
10196TIP3    H230534   1.060   4.886   4.619
10197TIP3   OH230535   1.137   4.490   0.126
10197TIP3    H130536   1.117   4.476   0.033
10197TIP3    H230537   1.057   4.527   0.163
10198TIP3   OH230538   2.329   5.072   4.919
10198TIP3    H130539   2.341   4.978   4.901
10198TIP3    H230540   2.416   5.103   4.941
10199TIP3   OH230541   0.618   4.518   1.551
10199TIP3    H130542   0.645   4.445   1.607
10199TIP3    H230543   0.696   4.541   1.502
10200TIP3   OH230544   0.366   1.168   5.909
10200TIP3    H130545   0.454   1.171   5.946
10200TIP3    H230546   0.369   1.228   5.834
10201TIP3   OH230547   6.731   1.138   5.242
10201TIP3    H130548   6.714   1.048   5.271
10201TIP3    H230549   6.770   1.180   5.319
10202TIP3   OH230550   4.520   5.938   0.499
10202TIP3    H130551   4.550   6.024   0.467
10202TIP3    H230552   4.493   5.892   0.420
10203TIP3   OH230553   5.047   1.581   6.102
10203TIP3    H130554   5.134   1.591   6.141
10203TIP3    H230555   4.986   1.592   6.175
10204TIP3   OH230556   7.178   4.540   0.838
10204TIP3    H130557   7.120   4.616   0.851
10204TIP3    H230558   7.187   4.502   0.925
10205TIP3   OH230559   8.083   4.171   6.394
10205TIP3    H130560   8.044   4.234   6.455
10205TIP3    H230561   8.138   4.116   6.450
10206TIP3   OH230562   5.867   3.806   4.425
10206TIP3    H130563   5.950   3.851   4.406
10206TIP3    H230564   5.800   3.873   4.414
10207TIP3   OH230565   1.145   3.318   5.629
10207TIP3    H130566   1.218   3.344   5.573
10207TIP3    H230567   1.179   3.327   5.718
10208TIP3   OH230568   2.714   6.477   0.945
10208TIP3    H130569   2.710   6.405   0.882
10208TIP3    H230570   2.797   6.464   0.991
10209TIP3   OH230571   6.397   2.609   0.171
10209TIP3    H130572   6.461   2.668   0.131
10209TIP3    H230573   6.320   2.663   0.187
10210TIP3   OH230574   1.534   7.137   5.876
10210TIP3    H130575   1.605   7.170   5.821
10210TIP3    H230576   1.474   7.211   5.884
10211TIP3   OH230577   5.014   1.304   1.769
10211TIP3    H130578   5.055   1.258   1.695
10211TIP3    H230579   5.021   1.242   1.842
10212TIP3   OH230580   2.544   6.408   6.378
10212TIP3    H130581   2.539   6.467   6.303
10212TIP3    H230582   2.487   6.335   6.355
10213TIP3   OH230583   2.649   1.847   5.969
10213TIP3    H130584   2.592   1.820   6.042
10213TIP3    H230585   2.597   1.910   5.920
10214TIP3   OH230586   8.022   6.511   2.521
10214TIP3    H130587   7.950   6.476   2.468
10214TIP3    H230588   8.051   6.589   2.474
10215TIP3   OH230589   2.461   7.353   5.782
10215TIP3    H130590   2.546   7.321   5.749
10215TIP3    H230591   2.462   7.331   5.875
10216TIP3   OH230592   0.996   1.841   5.724
10216TIP3    H130593   0.924   1.781   5.706
10216TIP3    H230594   1.034   1.859   5.638
10217TIP3   OH230595   2.409   6.277   1.141
10217TIP3    H130596   2.424   6.186   1.114
10217TIP3    H230597   2.495   6.318   1.137
10218TIP3   OH230598   0.702   2.853   0.578
10218TIP3    H130599   0.708   2.896   0.493
10218TIP3    H230600   0.722   2.923   0.641
10219TIP3   OH230601   0.377   2.720   4.784
10219TIP3    H130602   0.291   2.703   4.744
10219TIP3    H230603   0.411   2.634   4.806
10220TIP3   OH230604   4.956   6.581   2.481
10220TIP3    H130605   4.870   6.561   2.519
10220TIP3    H230606   4.979   6.666   2.519
10221TIP3   OH230607   3.015   0.032   0.779
10221TIP3    H130608   3.091   0.059   0.727
10221TIP3    H230609   2.940   0.048   0.722
10222TIP3   OH230610   3.440   4.677   5.635
10222TIP3    H130611   3.533   4.668   5.611
10222TIP3    H230612   3.393   4.629   5.567
10223TIP3   OH230613   1.774   5.000   3.181
10223TIP3    H130614   1.852   5.038   3.220
10223TIP3    H230615   1.736   5.071   3.129
10224TIP3   OH230616   7.909   5.837   5.499
10224TIP3    H130617   7.906   5.745   5.524
10224TIP3    H230618   7.973   5.876   5.559
10225TIP3   OH230619   6.675   6.147   4.074
10225TIP3    H130620   6.672   6.052   4.065
10225TIP3    H230621   6.726   6.176   3.998
10226TIP3   OH230622   1.221   1.254   0.723
10226TIP3    H130623   1.150   1.218   0.777
10226TIP3    H230624   1.275   1.177   0.702
10227TIP3   OH230625   7.210   1.074   1.174
10227TIP3    H130626   7.149   1.085   1.247
10227TIP3    H230627   7.158   1.032   1.106
10228TIP3   OH230628   8.064   1.521   3.593
10228TIP3    H130629   8.005   1.577   3.544
10228TIP3    H230630   8.146   1.570   3.596
10229TIP3   OH230631   4.989   2.164   2.817
10229TIP3    H130632   4.929   2.097   2.849
10229TIP3    H230633   5.031   2.198   2.896
10230TIP3   OH230634   2.732   1.248   4.462
10230TIP3    H130635   2.648   1.277   4.425
10230TIP3    H230636   2.797   1.306   4.424
10231TIP3   OH230637   3.956   6.866   0.061
10231TIP3    H130638   3.892   6.912   0.008
10231TIP3    H230639   3.920   6.869   0.150
10232TIP3   OH230640   8.181   3.753   3.888
10232TIP3    H130641   8.184   3.755   3.792
10232TIP3    H230642   8.108   3.810   3.910
10233TIP3   OH230643   4.614   0.448   0.575
10233TIP3    H130644   4.638   0.530   0.532
10233TIP3    H230645   4.697   0.401   0.585
10234TIP3   OH230646   7.146   5.021   5.557
10234TIP3    H130647   7.236   5.037   5.530
10234TIP3    H230648   7.127   4.932   5.527
10235TIP3   OH230649   0.955   3.148   0.415
10235TIP3    H130650   0.998   3.072   0.453
10235TIP3    H230651   0.912   3.191   0.488
10236TIP3   OH230652   4.127   3.174   6.736
10236TIP3    H130653   4.100   3.207   6.822
10236TIP3    H230654   4.167   3.250   6.693
10237TIP3   OH230655   4.549   0.836   3.892
10237TIP3    H130656   4.614   0.765   3.883
10237TIP3    H230657   4.597   0.906   3.936
10238TIP3   OH230658   7.493   5.638   4.823
10238TIP3    H130659   7.410   5.621   4.867
10238TIP3    H230660   7.490   5.730   4.800
10239TIP3   OH230661   7.541   1.254   5.905
10239TIP3    H130662   7.595   1.324   5.940
10239TIP3    H230663   7.529   1.193   5.978
10240TIP3   OH230664   5.026   5.968   5.487
10240TIP3    H130665   4.989   5.918   5.560
10240TIP3    H230666   5.109   5.925   5.468
10241TIP3   OH230667   0.048   3.914   3.567
10241TIP3    H130668   0.067   3.821   3.569
10241TIP3    H230669   0.109   3.950   3.503
10242TIP3   OH230670   7.002   0.548   1.825
10242TIP3    H130671   7.038   0.474   1.875
10242TIP3    H230672   6.917   0.565   1.865
10243TIP3   OH230673   2.108   5.391   0.350
10243TIP3    H130674   2.200   5.394   0.324
10243TIP3    H230675   2.101   5.312   0.404
10244TIP3   OH230676   6.480   6.922   0.225
10244TIP3    H130677   6.418   6.995   0.218
10244TIP3    H230678   6.512   6.909   0.136
10245TIP3   OH230679   4.396   7.420   4.786
10245TIP3    H130680   4.405   7.515   4.783
10245TIP3    H230681   4.428   7.390   4.700
10246TIP3   OH230682   0.716   2.769   1.392
10246TIP3    H130683   0.717   2.780   1.488
10246TIP3    H230684   0.751   2.852   1.358
10247TIP3   OH230685   3.150   3.187   3.021
10247TIP3    H130686   3.219   3.128   3.051
10247TIP3    H230687   3.193   3.244   2.957
10248TIP3   OH230688   8.308   7.201   2.307
10248TIP3    H130689   8.294   7.163   2.220
10248TIP3    H230690   8.239   7.163   2.361
10249TIP3   OH230691   3.042   3.459   5.996
10249TIP3    H130692   3.042   3.525   5.926
10249TIP3    H230693   2.965   3.405   5.977
10250TIP3   OH230694   6.292   7.580   3.824
10250TIP3    H130695   6.349   7.504   3.837
10250TIP3    H230696   6.266   7.606   3.913
10251TIP3   OH230697   3.019   2.737   4.016
10251TIP3    H130698   3.093   2.745   4.077
10251TIP3    H230699   2.998   2.827   3.992
10252TIP3   OH230700   4.946   0.874   3.930
10252TIP3    H130701   4.976   0.852   4.018
10252TIP3    H230702   4.983   0.961   3.914
10253TIP3   OH230703   5.455   4.661   1.815
10253TIP3    H130704   5.434   4.708   1.735
10253TIP3    H230705   5.372   4.621   1.842
10254TIP3   OH230706   7.154   7.783   2.005
10254TIP3    H130707   7.230   7.745   2.050
10254TIP3    H230708   7.079   7.755   2.058
10255TIP3   OH230709   4.463   2.606   4.140
10255TIP3    H130710   4.465   2.583   4.047
10255TIP3    H230711   4.461   2.701   4.142
10256TIP3   OH230712   0.433   4.124   4.487
10256TIP3    H130713   0.386   4.062   4.431
10256TIP3    H230714   0.398   4.108   4.575
10257TIP3   OH230715   3.349   4.446   6.339
10257TIP3    H130716   3.265   4.486   6.362
10257TIP3    H230717   3.367   4.477   6.250
10258TIP3   OH230718   0.369   3.291   3.444
10258TIP3    H130719   0.335   3.284   3.355
10258TIP3    H230720   0.461   3.314   3.432
10259TIP3   OH230721   6.198   3.585   6.742
10259TIP3    H130722   6.192   3.562   6.835
10259TIP3    H230723   6.111   3.569   6.707
10260TIP3   OH230724   7.167   7.014   3.173
10260TIP3    H130725   7.172   6.940   3.112
10260TIP3    H230726   7.195   6.978   3.257
10261TIP3   OH230727   2.182   6.998   4.384
10261TIP3    H130728   2.204   7.004   4.291
10261TIP3    H230729   2.140   7.082   4.404
10262TIP3   OH230730   5.222   4.893   2.375
10262TIP3    H130731   5.250   4.904   2.284
10262TIP3    H230732   5.156   4.961   2.389
10263TIP3   OH230733   7.571   2.600   3.431
10263TIP3    H130734   7.543   2.569   3.344
10263TIP3    H230735   7.665   2.611   3.423
10264TIP3   OH230736   7.635   3.171   6.331
10264TIP3    H130737   7.598   3.259   6.343
10264TIP3    H230738   7.729   3.184   6.328
10265TIP3   OH230739   6.849   2.015   0.182
10265TIP3    H130740   6.832   2.059   0.099
10265TIP3    H230741   6.768   2.026   0.232
10266TIP3   OH230742   8.185   3.894   3.329
10266TIP3    H130743   8.207   3.978   3.369
10266TIP3    H230744   8.179   3.913   3.235
10267TIP3   OH230745   2.373   0.495   0.734
10267TIP3    H130746   2.405   0.431   0.797
10267TIP3    H230747   2.278   0.484   0.734
10268TIP3   OH230748   7.900   5.430   5.267
10268TIP3    H130749   7.817   5.411   5.222
10268TIP3    H230750   7.939   5.500   5.215
10269TIP3   OH230751   5.855   3.133   2.792
10269TIP3    H130752   5.796   3.178   2.731
10269TIP3    H230753   5.924   3.098   2.736
10270TIP3   OH230754   7.936   3.614   0.739
10270TIP3    H130755   7.911   3.606   0.831
10270TIP3    H230756   7.890   3.542   0.695
10271TIP3   OH230757   1.144   5.229   0.016
10271TIP3    H130758   1.209   5.214  -0.052
10271TIP3    H230759   1.114   5.141   0.041
10272TIP3   OH230760   1.048   1.546   3.977
10272TIP3    H130761   1.008   1.472   3.932
10272TIP3    H230762   0.978   1.579   4.035
10273TIP3   OH230763   0.279   2.452   2.088
10273TIP3    H130764   0.194   2.489   2.111
10273TIP3    H230765   0.333   2.467   2.166
10274TIP3   OH230766   5.271   1.437   4.889
10274TIP3    H130767   5.330   1.390   4.948
10274TIP3    H230768   5.264   1.524   4.927
10275TIP3   OH230769   1.415   7.324   1.957
10275TIP3    H130770   1.347   7.276   2.005
10275TIP3    H230771   1.479   7.257   1.933
10276TIP3   OH230772   3.502   5.450   2.783
10276TIP3    H130773   3.551   5.411   2.710
10276TIP3    H230774   3.569   5.471   2.848
10277TIP3   OH230775   4.422   5.624   3.413
10277TIP3    H130776   4.475   5.548   3.435
10277TIP3    H230777   4.462   5.659   3.333
10278TIP3   OH230778   3.991   7.638   5.891
10278TIP3    H130779   3.985   7.729   5.861
10278TIP3    H230780   3.902   7.603   5.880
10279TIP3   OH230781   0.455   6.015   6.018
10279TIP3    H130782   0.436   5.987   5.929
10279TIP3    H230783   0.526   5.958   6.047
10280TIP3   OH230784   2.508   3.015   1.136
10280TIP3    H130785   2.559   3.093   1.160
10280TIP3    H230786   2.553   2.979   1.060
10281TIP3   OH230787   0.095   4.206   3.095
10281TIP3    H130788   0.161   4.220   3.163
10281TIP3    H230789   0.136   4.236   3.014
10282TIP3   OH230790   2.718   4.438   6.548
10282TIP3    H130791   2.786   4.376   6.574
10282TIP3    H230792   2.677   4.398   6.471
10283TIP3   OH230793   7.291   5.183   3.635
10283TIP3    H130794   7.377   5.196   3.594
10283TIP3    H230795   7.258   5.271   3.651
10284TIP3   OH230796   4.662   3.062   1.603
10284TIP3    H130797   4.730   3.070   1.670
10284TIP3    H230798   4.618   3.147   1.604
10285TIP3   OH230799   8.056   1.235   2.803
10285TIP3    H130800   8.083   1.203   2.717
10285TIP3    H230801   8.033   1.327   2.788
10286TIP3   OH230802   1.090   2.323   2.288
10286TIP3    H130803   1.013   2.308   2.233
10286TIP3    H230804   1.113   2.236   2.322
10287TIP3   OH230805   7.593   0.122   1.823
10287TIP3    H130806   7.641   0.041   1.842
10287TIP3    H230807   7.528   0.096   1.757
10288TIP3   OH230808   7.969   3.452   3.243
10288TIP3    H130809   8.046   3.425   3.293
10288TIP3    H230810   7.958   3.545   3.263
10289TIP3   OH230811   1.751   1.411   4.714
10289TIP3    H130812   1.800   1.413   4.797
10289TIP3    H230813   1.745   1.318   4.693
10290TIP3   OH230814   0.557   4.109   1.187
10290TIP3    H130815   0.600   4.024   1.200
10290TIP3    H230816   0.630   4.171   1.182
10291TIP3   OH230817   0.800   2.177   4.145
10291TIP3    H130818   0.806   2.251   4.206
10291TIP3    H230819   0.816   2.100   4.200
10292TIP3   OH230820   4.422   5.426   4.359
10292TIP3    H130821   4.478   5.460   4.289
10292TIP3    H230822   4.385   5.504   4.401
10293TIP3   OH230823   2.629   5.458   2.724
10293TIP3    H130824   2.601   5.521   2.791
10293TIP3    H230825   2.613   5.503   2.641
10294TIP3   OH230826   6.248   3.886   0.240
10294TIP3    H130827   6.283   3.838   0.316
10294TIP3    H230828   6.163   3.845   0.224
10295TIP3   OH230829   4.338   3.722   5.742
10295TIP3    H130830   4.284   3.800   5.727
10295TIP3    H230831   4.293   3.675   5.812
10296TIP3   OH230832   8.163   0.875   6.565
10296TIP3    H130833   8.227   0.819   6.521
10296TIP3    H230834   8.190   0.964   6.543
10297TIP3   OH230835   7.030   0.852   6.273
10297TIP3    H130836   7.046   0.945   6.260
10297TIP3    H230837   6.951   0.849   6.327
10298TIP3   OH230838   7.384   1.330   2.659
10298TIP3    H130839   7.409   1.405   2.714
10298TIP3    H230840   7.418   1.254   2.706
10299TIP3   OH230841   5.680   1.458   1.040
10299TIP3    H130842   5.631   1.485   1.118
10299TIP3    H230843   5.613   1.426   0.980
10300TIP3   OH230844   0.599   1.617   0.370
10300TIP3    H130845   0.511   1.598   0.339
10300TIP3    H230846   0.609   1.561   0.448
10301TIP3   OH230847   4.066   3.350   5.278
10301TIP3    H130848   4.043   3.343   5.185
10301TIP3    H230849   4.068   3.260   5.309
10302TIP3   OH230850   3.669   3.829   3.731
10302TIP3    H130851   3.577   3.837   3.756
10302TIP3    H230852   3.717   3.853   3.811
10303TIP3   OH230853   7.225   0.934   2.605
10303TIP3    H130854   7.313   0.902   2.624
10303TIP3    H230855   7.238   1.002   2.539
10304TIP3   OH230856   3.548   5.821   1.558
10304TIP3    H130857   3.489   5.864   1.497
10304TIP3    H230858   3.586   5.893   1.609
10305TIP3   OH230859   6.647   5.991   2.957
10305TIP3    H130860   6.600   6.061   3.003
10305TIP3    H230861   6.629   6.008   2.864
10306TIP3   OH230862   3.725   5.653   4.973
10306TIP3    H130863   3.744   5.717   5.041
10306TIP3    H230864   3.762   5.571   5.005
10307TIP3   OH230865   7.628   2.714   2.655
10307TIP3    H130866   7.570   2.763   2.714
10307TIP3    H230867   7.644   2.775   2.583
10308TIP3   OH230868   0.895   4.869   4.185
10308TIP3    H130869   0.880   4.940   4.122
10308TIP3    H230870   0.830   4.884   4.254
10309TIP3   OH230871   6.168   3.455   0.538
10309TIP3    H130872   6.221   3.402   0.479
10309TIP3    H230873   6.231   3.493   0.599
10310TIP3   OH230874   5.157   4.251   2.330
10310TIP3    H130875   5.141   4.277   2.421
10310TIP3    H230876   5.130   4.159   2.327
10311TIP3   OH230877   2.825   2.092   2.002
10311TIP3    H130878   2.769   2.014   1.998
10311TIP3    H230879   2.913   2.058   2.017
10312TIP3   OH230880   2.726   2.219   4.283
10312TIP3    H130881   2.764   2.303   4.257
10312TIP3    H230882   2.781   2.154   4.240
10313TIP3   OH230883   2.352   3.317   4.811
10313TIP3    H130884   2.332   3.274   4.728
10313TIP3    H230885   2.378   3.406   4.786
10314TIP3   OH230886   1.048   4.360   1.419
10314TIP3    H130887   1.023   4.273   1.451
10314TIP3    H230888   1.093   4.343   1.336
10315TIP3   OH230889   3.100   1.902   6.134
10315TIP3    H130890   3.124   1.969   6.071
10315TIP3    H230891   3.087   1.823   6.082
10316TIP3   OH230892   0.405   7.774   2.865
10316TIP3    H130893   0.372   7.827   2.793
10316TIP3    H230894   0.487   7.736   2.832
10317TIP3   OH230895   2.248   5.615   0.929
10317TIP3    H130896   2.338   5.593   0.903
10317TIP3    H230897   2.223   5.544   0.988
10318TIP3   OH230898   3.737   5.260   0.902
10318TIP3    H130899   3.754   5.183   0.847
10318TIP3    H230900   3.814   5.267   0.958
10319TIP3   OH230901   3.475   0.520   1.549
10319TIP3    H130902   3.410   0.586   1.571
10319TIP3    H230903   3.548   0.538   1.608
10320TIP3   OH230904   5.736   5.393   0.233
10320TIP3    H130905   5.799   5.460   0.206
10320TIP3    H230906   5.785   5.339   0.295
10321TIP3   OH230907   7.559   1.052   2.489
10321TIP3    H130908   7.609   1.120   2.443
10321TIP3    H230909   7.578   0.972   2.441
10322TIP3   OH230910   5.895   4.123   1.539
10322TIP3    H130911   5.927   4.179   1.610
10322TIP3    H230912   5.836   4.061   1.582
10323TIP3   OH230913   1.359   6.569   3.732
10323TIP3    H130914   1.401   6.618   3.661
10323TIP3    H230915   1.388   6.613   3.812
10324TIP3   OH230916   8.311   7.647   6.666
10324TIP3    H130917   8.279   7.727   6.622
10324TIP3    H230918   8.283   7.576   6.609
10325TIP3   OH230919   5.849   5.605   3.877
10325TIP3    H130920   5.777   5.630   3.935
10325TIP3    H230921   5.926   5.647   3.915
10326TIP3   OH230922   3.026   3.519   2.109
10326TIP3    H130923   2.958   3.579   2.076
10326TIP3    H230924   3.008   3.437   2.064
10327TIP3   OH230925   7.998   3.019   2.648
10327TIP3    H130926   7.988   3.027   2.553
10327TIP3    H230927   7.973   3.105   2.683
10328TIP3   OH230928   6.500   0.692   4.039
10328TIP3    H130929   6.477   0.602   4.015
10328TIP3    H230930   6.441   0.746   3.986
10329TIP3   OH230931   2.017   1.756   2.488
10329TIP3    H130932   2.071   1.782   2.413
10329TIP3    H230933   1.970   1.836   2.511
10330TIP3   OH230934   3.593   6.429   0.764
10330TIP3    H130935   3.586   6.495   0.834
10330TIP3    H230936   3.675   6.384   0.782
10331TIP3   OH230937   4.761   1.148   4.938
10331TIP3    H130938   4.781   1.117   4.849
10331TIP3    H230939   4.743   1.069   4.988
10332TIP3   OH230940   7.126   4.046   4.376
10332TIP3    H130941   7.092   3.958   4.393
10332TIP3    H230942   7.103   4.065   4.285
10333TIP3   OH230943   3.575   5.434   5.966
10333TIP3    H130944   3.544   5.364   5.909
10333TIP3    H230945   3.577   5.512   5.911
10334TIP3   OH230946   0.848   6.064   5.264
10334TIP3    H130947   0.905   6.092   5.193
10334TIP3    H230948   0.898   6.082   5.344
10335TIP3   OH230949   1.873   3.207   3.632
10335TIP3    H130950   1.966   3.207   3.610
10335TIP3    H230951   1.853   3.115   3.649
10336TIP3   OH230952   1.328   6.599   5.191
10336TIP3    H130953   1.397   6.539   5.221
10336TIP3    H230954   1.363   6.636   5.110
10337TIP3   OH230955   0.983   4.622   4.846
10337TIP3    H130956   0.966   4.596   4.937
10337TIP3    H230957   1.009   4.541   4.802
10338TIP3   OH230958   1.639   2.534   1.570
10338TIP3    H130959   1.578   2.574   1.508
10338TIP3    H230960   1.661   2.449   1.530
10339TIP3   OH230961   6.745   3.109   3.706
10339TIP3    H130962   6.659   3.071   3.691
10339TIP3    H230963   6.743   3.193   3.661
10340TIP3   OH230964   0.297   3.756   2.888
10340TIP3    H130965   0.260   3.825   2.833
10340TIP3    H230966   0.380   3.734   2.845
10341TIP3   OH230967   5.021   7.289   3.637
10341TIP3    H130968   5.016   7.197   3.663
10341TIP3    H230969   5.024   7.337   3.720
10342TIP3   OH230970   5.927   6.008   3.760
10342TIP3    H130971   5.842   5.977   3.791
10342TIP3    H230972   5.912   6.099   3.734
10343TIP3   OH230973   5.881   3.008   0.178
10343TIP3    H130974   5.855   3.094   0.211
10343TIP3    H230975   5.967   2.992   0.217
10344TIP3   OH230976   8.057   5.894   2.443
10344TIP3    H130977   8.021   5.966   2.496
10344TIP3    H230978   8.041   5.815   2.495
10345TIP3   OH230979   7.221   1.149   2.841
10345TIP3    H130980   7.166   1.158   2.763
10345TIP3    H230981   7.296   1.097   2.812
10346TIP3   OH230982   0.758   6.993   3.539
10346TIP3    H130983   0.848   6.966   3.521
10346TIP3    H230984   0.713   6.913   3.565
10347TIP3   OH230985   4.721   1.862   1.711
10347TIP3    H130986   4.706   1.858   1.805
10347TIP3    H230987   4.672   1.788   1.675
10348TIP3   OH230988   3.463   1.253   1.099
10348TIP3    H130989   3.368   1.258   1.092
10348TIP3    H230990   3.492   1.218   1.015
10349TIP3   OH230991   6.280   6.260   1.776
10349TIP3    H130992   6.223   6.300   1.711
10349TIP3    H230993   6.220   6.222   1.840
10350TIP3   OH230994   4.590   6.328   3.771
10350TIP3    H130995   4.550   6.409   3.803
10350TIP3    H230996   4.684   6.339   3.787
10351TIP3   OH230997   2.769   4.937   0.016
10351TIP3    H130998   2.779   4.844   0.038
10351TIP3    H230999   2.834   4.953  -0.051
10352TIP3   OH231000   7.823   7.043   0.605
10352TIP3    H131001   7.845   7.044   0.512
10352TIP3    H231002   7.898   7.003   0.648
10353TIP3   OH231003   2.470   5.975   2.153
10353TIP3    H131004   2.513   5.934   2.228
10353TIP3    H231005   2.502   6.065   2.154
10354TIP3   OH231006   6.494   5.254   1.261
10354TIP3    H131007   6.523   5.342   1.286
10354TIP3    H231008   6.492   5.255   1.166
10355TIP3   OH231009   0.444   2.495   3.777
10355TIP3    H131010   0.490   2.448   3.846
10355TIP3    H231011   0.491   2.473   3.697
10356TIP3   OH231012   6.767   7.455   3.973
10356TIP3    H131013   6.859   7.470   3.952
10356TIP3    H231014   6.768   7.424   4.064
10357TIP3   OH231015   3.019   3.873   5.722
10357TIP3    H131016   3.013   3.807   5.791
10357TIP3    H231017   3.097   3.924   5.745
10358TIP3   OH231018   6.707   5.998   0.403
10358TIP3    H131019   6.791   6.002   0.358
10358TIP3    H231020   6.654   5.938   0.350
10359TIP3   OH231021   2.847   3.468   1.715
10359TIP3    H131022   2.882   3.380   1.729
10359TIP3    H231023   2.793   3.485   1.791
10360TIP3   OH231024   5.683   2.147   5.585
10360TIP3    H131025   5.715   2.147   5.675
10360TIP3    H231026   5.695   2.056   5.556
10361TIP3   OH231027   2.722   0.056   1.608
10361TIP3    H131028   2.648  -0.001   1.589
10361TIP3    H231029   2.716   0.126   1.542
10362TIP3   OH231030   2.605   5.315   5.195
10362TIP3    H131031   2.629   5.222   5.190
10362TIP3    H231032   2.686   5.359   5.223
10363TIP3   OH231033   4.392   4.024   4.792
10363TIP3    H131034   4.358   4.113   4.804
10363TIP3    H231035   4.453   4.031   4.718
10364TIP3   OH231036   7.693   2.920   6.035
10364TIP3    H131037   7.751   2.994   6.051
10364TIP3    H231038   7.627   2.924   6.105
10365TIP3   OH231039   0.993   3.194   6.106
10365TIP3    H131040   0.933   3.262   6.136
10365TIP3    H231041   1.078   3.236   6.103
10366TIP3   OH231042   8.242   7.735   1.215
10366TIP3    H131043   8.194   7.652   1.217
10366TIP3    H231044   8.274   7.742   1.125
10367TIP3   OH231045   7.062   3.107   5.438
10367TIP3    H131046   7.084   3.029   5.387
10367TIP3    H231047   7.146   3.138   5.472
10368TIP3   OH231048   3.855   1.187   3.793
10368TIP3    H131049   3.808   1.107   3.817
10368TIP3    H231050   3.865   1.235   3.875
10369TIP3   OH231051   0.931   3.456   3.972
10369TIP3    H131052   0.847   3.500   3.961
10369TIP3    H231053   0.961   3.439   3.883
10370TIP3   OH231054   6.960   6.884   2.974
10370TIP3    H131055   6.958   6.927   2.888
10370TIP3    H231056   6.971   6.956   3.036
10371TIP3   OH231057   1.321   4.597   1.039
10371TIP3    H131058   1.281   4.657   0.977
10371TIP3    H231059   1.360   4.653   1.105
10372TIP3   OH231060   3.680   7.472   0.952
10372TIP3    H131061   3.719   7.527   1.020
10372TIP3    H231062   3.667   7.531   0.878
10373TIP3   OH231063   0.293   4.149   0.573
10373TIP3    H131064   0.279   4.106   0.488
10373TIP3    H231065   0.207   4.147   0.615
10374TIP3   OH231066   5.640   7.417   1.218
10374TIP3    H131067   5.566   7.356   1.211
10374TIP3    H231068   5.716   7.366   1.191
10375TIP3   OH231069   4.346   2.393   4.271
10375TIP3    H131070   4.357   2.475   4.224
10375TIP3    H231071   4.301   2.417   4.352
10376TIP3   OH231072   5.626   0.680   6.702
10376TIP3    H131073   5.561   0.645   6.641
10376TIP3    H231074   5.579   0.692   6.784
10377TIP3   OH231075   7.186   3.189   3.857
10377TIP3    H131076   7.281   3.199   3.865
10377TIP3    H231077   7.172   3.176   3.763
10378TIP3   OH231078   7.445   4.585   0.261
10378TIP3    H131079   7.441   4.613   0.352
10378TIP3    H231080   7.524   4.532   0.256
10379TIP3   OH231081   7.169   3.583   4.730
10379TIP3    H131082   7.231   3.534   4.676
10379TIP3    H231083   7.084   3.570   4.687
10380TIP3   OH231084   1.715   1.547   4.470
10380TIP3    H131085   1.755   1.496   4.540
10380TIP3    H231086   1.632   1.578   4.507
10381TIP3   OH231087   2.679   5.596   5.977
10381TIP3    H131088   2.744   5.558   6.037
10381TIP3    H231089   2.601   5.609   6.031
10382TIP3   OH231090   7.750   3.922   1.484
10382TIP3    H131091   7.734   3.974   1.405
10382TIP3    H231092   7.773   3.835   1.451
10383TIP3   OH231093   4.590   4.219   3.555
10383TIP3    H131094   4.678   4.253   3.537
10383TIP3    H231095   4.604   4.150   3.620
10384TIP3   OH231096   5.850   0.144   4.518
10384TIP3    H131097   5.830   0.080   4.450
10384TIP3    H231098   5.946   0.146   4.521
10385TIP3   OH231099   5.876   0.567   6.662
10385TIP3    H131100   5.793   0.610   6.682
10385TIP3    H231101   5.852   0.490   6.611
10386TIP3   OH231102   4.111   0.893   4.260
10386TIP3    H131103   4.034   0.892   4.203
10386TIP3    H231104   4.108   0.809   4.305
10387TIP3   OH231105   2.402   2.418   2.226
10387TIP3    H131106   2.353   2.433   2.145
10387TIP3    H231107   2.338   2.382   2.287
10388TIP3   OH231108   1.228   1.035   1.482
10388TIP3    H131109   1.206   1.115   1.529
10388TIP3    H231110   1.200   1.053   1.392
10389TIP3   OH231111   3.574   7.440   1.759
10389TIP3    H131112   3.568   7.447   1.664
10389TIP3    H231113   3.622   7.518   1.786
10390TIP3   OH231114   7.914   0.628   4.589
10390TIP3    H131115   7.839   0.569   4.583
10390TIP3    H231116   7.881   0.712   4.557
10391TIP3   OH231117   1.556   0.554   1.578
10391TIP3    H131118   1.501   0.487   1.619
10391TIP3    H231119   1.611   0.586   1.648
10392TIP3   OH231120   0.763   7.486   5.277
10392TIP3    H131121   0.685   7.491   5.222
10392TIP3    H231122   0.836   7.481   5.215
10393TIP3   OH231123   1.711   7.358   3.073
10393TIP3    H131124   1.683   7.278   3.028
10393TIP3    H231125   1.630   7.398   3.104
10394TIP3   OH231126   5.734   4.661   5.191
10394TIP3    H131127   5.720   4.571   5.162
10394TIP3    H231128   5.816   4.687   5.148
10395TIP3   OH231129   1.593   7.102   1.806
10395TIP3    H131130   1.589   7.042   1.880
10395TIP3    H231131   1.641   7.055   1.738
10396TIP3   OH231132   5.619   2.697   6.127
10396TIP3    H131133   5.681   2.673   6.058
10396TIP3    H231134   5.549   2.744   6.082
10397TIP3   OH231135   0.823   7.480   1.135
10397TIP3    H131136   0.909   7.484   1.177
10397TIP3    H231137   0.843   7.470   1.041
10398TIP3   OH231138   7.454   3.678   6.373
10398TIP3    H131139   7.401   3.715   6.443
10398TIP3    H231140   7.538   3.723   6.381
10399TIP3   OH231141   0.573   4.598   5.806
10399TIP3    H131142   0.593   4.686   5.839
10399TIP3    H231143   0.560   4.610   5.712
10400TIP3   OH231144   5.263   5.002   0.417
10400TIP3    H131145   5.349   4.974   0.447
10400TIP3    H231146   5.246   4.951   0.338
10401TIP3   OH231147   0.779   2.386   3.715
10401TIP3    H131148   0.797   2.345   3.800
10401TIP3    H231149   0.859   2.434   3.695
10402TIP3   OH231150   0.643   6.494   6.506
10402TIP3    H131151   0.647   6.415   6.560
10402TIP3    H231152   0.728   6.497   6.463
10403TIP3   OH231153   0.099   3.985   4.522
10403TIP3    H131154   0.099   3.892   4.500
10403TIP3    H231155   0.072   4.028   4.441
10404TIP3   OH231156   3.736   0.112   2.782
10404TIP3    H131157   3.767   0.052   2.714
10404TIP3    H231158   3.797   0.186   2.778
10405TIP3   OH231159   4.588   2.752   3.109
10405TIP3    H131160   4.678   2.733   3.135
10405TIP3    H231161   4.545   2.666   3.107
10406TIP3   OH231162   5.972   0.119   2.683
10406TIP3    H131163   6.034   0.061   2.726
10406TIP3    H231164   6.013   0.205   2.688
10407TIP3   OH231165   2.064   4.874   3.086
10407TIP3    H131166   2.094   4.844   3.172
10407TIP3    H231167   2.052   4.968   3.096
10408TIP3   OH231168   5.664   1.026   2.469
10408TIP3    H131169   5.637   1.095   2.408
10408TIP3    H231170   5.585   0.976   2.486
10409TIP3   OH231171   3.452   7.428   2.611
10409TIP3    H131172   3.420   7.474   2.534
10409TIP3    H231173   3.547   7.436   2.607
10410TIP3   OH231174   0.551   0.130   4.060
10410TIP3    H131175   0.590   0.122   4.147
10410TIP3    H231176   0.457   0.131   4.075
10411TIP3   OH231177   2.966   1.219   0.432
10411TIP3    H131178   2.994   1.138   0.390
10411TIP3    H231179   2.985   1.288   0.368
10412TIP3   OH231180   2.078   0.460   0.423
10412TIP3    H131181   2.127   0.408   0.359
10412TIP3    H231182   2.139   0.528   0.451
10413TIP3   OH231183   6.934   6.937   4.816
10413TIP3    H131184   6.972   6.918   4.730
10413TIP3    H231185   6.996   6.901   4.878
10414TIP3   OH231186   6.445   5.276   0.590
10414TIP3    H131187   6.456   5.187   0.557
10414TIP3    H231188   6.350   5.291   0.586
10415TIP3   OH231189   7.039   7.317   0.507
10415TIP3    H131190   6.949   7.343   0.526
10415TIP3    H231191   7.042   7.314   0.411
10416TIP3   OH231192   5.723   1.536   2.426
10416TIP3    H131193   5.815   1.553   2.406
10416TIP3    H231194   5.715   1.558   2.519
10417TIP3   OH231195   2.452   2.879   5.136
10417TIP3    H131196   2.465   2.966   5.096
10417TIP3    H231197   2.535   2.834   5.121
10418TIP3   OH231198   0.646   5.939   3.347
10418TIP3    H131199   0.653   5.909   3.438
10418TIP3    H231200   0.721   5.997   3.336
10419TIP3   OH231201   0.582   6.478   1.188
10419TIP3    H131202   0.602   6.436   1.104
10419TIP3    H231203   0.661   6.465   1.240
10420TIP3   OH231204   1.826   7.476   0.020
10420TIP3    H131205   1.875   7.542   0.070
10420TIP3    H231206   1.757   7.526  -0.023
10421TIP3   OH231207   3.166   2.387   3.074
10421TIP3    H131208   3.117   2.461   3.108
10421TIP3    H231209   3.235   2.372   3.138
10422TIP3   OH231210   1.697   2.519   0.390
10422TIP3    H131211   1.711   2.478   0.305
10422TIP3    H231212   1.784   2.550   0.416
10423TIP3   OH231213   2.304   3.099   2.247
10423TIP3    H131214   2.365   3.065   2.312
10423TIP3    H231215   2.342   3.183   2.220
10424TIP3   OH231216   5.527   5.836   1.750
10424TIP3    H131217   5.480   5.818   1.668
10424TIP3    H231218   5.521   5.755   1.799
10425TIP3   OH231219   3.592   1.247   5.738
10425TIP3    H131220   3.569   1.193   5.662
10425TIP3    H231221   3.688   1.252   5.736
10426TIP3   OH231222   6.623   2.716   0.672
10426TIP3    H131223   6.595   2.788   0.729
10426TIP3    H231224   6.702   2.748   0.630
10427TIP3   OH231225   8.277   6.337   0.236
10427TIP3    H131226   8.365   6.323   0.271
10427TIP3    H231227   8.231   6.255   0.253
10428TIP3   OH231228   0.087   7.029   6.694
10428TIP3    H131229   0.121   7.060   6.778
10428TIP3    H231230   0.153   6.967   6.663
10429TIP3   OH231231   3.939   0.503   1.364
10429TIP3    H131232   4.011   0.552   1.403
10429TIP3    H231233   3.981   0.444   1.302
10430TIP3   OH231234   2.031   3.248   1.390
10430TIP3    H131235   2.013   3.210   1.304
10430TIP3    H231236   1.946   3.248   1.435
10431TIP3   OH231237   5.252   2.496   6.218
10431TIP3    H131238   5.266   2.522   6.127
10431TIP3    H231239   5.329   2.529   6.265
10432TIP3   OH231240   6.827   1.399   5.767
10432TIP3    H131241   6.921   1.413   5.774
10432TIP3    H231242   6.787   1.477   5.806
10433TIP3   OH231243   3.942   0.208   1.414
10433TIP3    H131244   3.912   0.285   1.462
10433TIP3    H231245   3.960   0.240   1.326
10434TIP3   OH231246   7.421   2.978   0.870
10434TIP3    H131247   7.514   2.967   0.889
10434TIP3    H231248   7.387   2.888   0.866
10435TIP3   OH231249   0.674   0.753   4.789
10435TIP3    H131250   0.638   0.831   4.830
10435TIP3    H231251   0.636   0.752   4.701
10436TIP3   OH231252   3.977   6.230   6.140
10436TIP3    H131253   4.051   6.289   6.127
10436TIP3    H231254   3.993   6.190   6.226
10437TIP3   OH231255   0.568   0.648   1.321
10437TIP3    H131256   0.487   0.686   1.355
10437TIP3    H231257   0.623   0.634   1.398
10438TIP3   OH231258   7.328   0.767   6.616
10438TIP3    H131259   7.275   0.702   6.662
10438TIP3    H231260   7.277   0.848   6.620
10439TIP3   OH231261   3.611   1.517   4.737
10439TIP3    H131262   3.674   1.587   4.722
10439TIP3    H231263   3.649   1.441   4.693
10440TIP3   OH231264   0.629   3.818   1.922
10440TIP3    H131265   0.580   3.744   1.958
10440TIP3    H231266   0.572   3.894   1.936
10441TIP3   OH231267   7.230   3.744   0.975
10441TIP3    H131268   7.231   3.677   0.906
10441TIP3    H231269   7.162   3.714   1.035
10442TIP3   OH231270   8.126   5.636   5.754
10442TIP3    H131271   8.067   5.711   5.756
10442TIP3    H231272   8.146   5.619   5.847
10443TIP3   OH231273   2.590   7.681   1.242
10443TIP3    H131274   2.558   7.591   1.229
10443TIP3    H231275   2.516   7.737   1.222
10444TIP3   OH231276   6.460   3.664   1.626
10444TIP3    H131277   6.491   3.744   1.582
10444TIP3    H231278   6.500   3.668   1.713
10445TIP3   OH231279   3.885   5.722   1.533
10445TIP3    H131280   3.916   5.633   1.514
10445TIP3    H231281   3.897   5.731   1.628
10446TIP3   OH231282   7.622   4.069   5.004
10446TIP3    H131283   7.656   4.110   4.925
10446TIP3    H231284   7.623   3.975   4.985
10447TIP3   OH231285   4.971   3.793   6.602
10447TIP3    H131286   4.893   3.848   6.610
10447TIP3    H231287   5.044   3.850   6.624
10448TIP3   OH231288   3.872   7.369   5.756
10448TIP3    H131289   3.825   7.313   5.695
10448TIP3    H231290   3.806   7.431   5.787
10449TIP3   OH231291   6.734   5.202   5.513
10449TIP3    H131292   6.790   5.134   5.477
10449TIP3    H231293   6.789   5.280   5.515
10450TIP3   OH231294   7.472   0.879   1.762
10450TIP3    H131295   7.482   0.836   1.847
10450TIP3    H231296   7.396   0.937   1.774
10451TIP3   OH231297   6.367   7.415   5.174
10451TIP3    H131298   6.435   7.348   5.174
10451TIP3    H231299   6.302   7.385   5.238
10452TIP3   OH231300   4.003   4.284   5.527
10452TIP3    H131301   4.025   4.247   5.613
10452TIP3    H231302   4.044   4.224   5.465
10453TIP3   OH231303   0.603   7.385   6.514
10453TIP3    H131304   0.592   7.428   6.430
10453TIP3    H231305   0.520   7.340   6.529
10454TIP3   OH231306   5.432   2.593   0.839
10454TIP3    H131307   5.349   2.545   0.834
10454TIP3    H231308   5.426   2.657   0.768
10455TIP3   OH231309   0.491   3.190   5.692
10455TIP3    H131310   0.501   3.285   5.689
10455TIP3    H231311   0.581   3.157   5.694
10456TIP3   OH231312   2.735   5.194   2.987
10456TIP3    H131313   2.826   5.207   3.012
10456TIP3    H231314   2.735   5.196   2.891
10457TIP3   OH231315   5.837   5.020   5.216
10457TIP3    H131316   5.742   5.006   5.226
10457TIP3    H231317   5.874   4.932   5.211
10458TIP3   OH231318   7.019   0.560   4.032
10458TIP3    H131319   7.064   0.594   3.955
10458TIP3    H231320   6.950   0.624   4.049
10459TIP3   OH231321   3.455   3.340   3.386
10459TIP3    H131322   3.419   3.324   3.473
10459TIP3    H231323   3.505   3.261   3.365
10460TIP3   OH231324   4.977   2.830   2.856
10460TIP3    H131325   4.887   2.852   2.830
10460TIP3    H231326   5.022   2.915   2.860
10461TIP3   OH231327   5.818   6.681   1.769
10461TIP3    H131328   5.733   6.711   1.801
10461TIP3    H231329   5.881   6.741   1.809
10462TIP3   OH231330   0.405   5.341   5.986
10462TIP3    H131331   0.351   5.269   6.019
10462TIP3    H231332   0.462   5.300   5.921
10463TIP3   OH231333   5.881   5.764   3.618
10463TIP3    H131334   5.923   5.850   3.624
10463TIP3    H231335   5.859   5.742   3.709
10464TIP3   OH231336   2.495   6.886   1.680
10464TIP3    H131337   2.432   6.861   1.612
10464TIP3    H231338   2.474   6.830   1.755
10465TIP3   OH231339   2.263   6.174   2.740
10465TIP3    H131340   2.344   6.164   2.691
10465TIP3    H231341   2.198   6.198   2.674
10466TIP3   OH231342   5.268   2.269   1.712
10466TIP3    H131343   5.327   2.199   1.740
10466TIP3    H231344   5.320   2.349   1.718
10467TIP3   OH231345   7.513   6.921   0.381
10467TIP3    H131346   7.583   6.861   0.408
10467TIP3    H231347   7.545   6.960   0.299
10468TIP3   OH231348   1.313   2.160   4.310
10468TIP3    H131349   1.303   2.203   4.395
10468TIP3    H231350   1.267   2.077   4.320
10469TIP3   OH231351   0.226   4.814   5.298
10469TIP3    H131352   0.166   4.858   5.238
10469TIP3    H231353   0.171   4.781   5.368
10470TIP3   OH231354   1.757   6.642   6.161
10470TIP3    H131355   1.814   6.567   6.180
10470TIP3    H231356   1.724   6.670   6.247
10471TIP3   OH231357   7.843   1.710   6.423
10471TIP3    H131358   7.834   1.650   6.496
10471TIP3    H231359   7.876   1.791   6.461
10472TIP3   OH231360   5.320   3.904   4.796
10472TIP3    H131361   5.251   3.960   4.832
10472TIP3    H231362   5.279   3.818   4.785
10473TIP3   OH231363   7.221   2.722   1.922
10473TIP3    H131364   7.307   2.756   1.945
10473TIP3    H231365   7.179   2.701   2.005
10474TIP3   OH231366   6.889   3.901   1.608
10474TIP3    H131367   6.941   3.900   1.527
10474TIP3    H231368   6.869   3.809   1.624
10475TIP3   OH231369   3.232   0.522   3.450
10475TIP3    H131370   3.317   0.495   3.417
10475TIP3    H231371   3.247   0.540   3.543
10476TIP3   OH231372   1.369   0.424   2.332
10476TIP3    H131373   1.385   0.349   2.274
10476TIP3    H231374   1.348   0.496   2.273
10477TIP3   OH231375   7.979   1.367   3.795
10477TIP3    H131376   8.024   1.405   3.720
10477TIP3    H231377   7.952   1.443   3.847
10478TIP3   OH231378   0.869   5.242   1.495
10478TIP3    H131379   0.838   5.276   1.412
10478TIP3    H231380   0.926   5.311   1.530
10479TIP3   OH231381   3.707   6.129   4.718
10479TIP3    H131382   3.676   6.206   4.671
10479TIP3    H231383   3.655   6.057   4.683
10480TIP3   OH231384   1.061   4.964   5.725
10480TIP3    H131385   1.124   4.904   5.764
10480TIP3    H231386   0.979   4.916   5.724
10481TIP3   OH231387   2.832   0.788   3.248
10481TIP3    H131388   2.849   0.769   3.156
10481TIP3    H231389   2.915   0.769   3.292
10482TIP3   OH231390   7.046   5.485   2.834
10482TIP3    H131391   6.989   5.531   2.773
10482TIP3    H231392   7.124   5.540   2.841
10483TIP3   OH231393   6.822   4.743   2.303
10483TIP3    H131394   6.911   4.709   2.299
10483TIP3    H231395   6.772   4.686   2.244
10484TIP3   OH231396   4.314   1.950   0.808
10484TIP3    H131397   4.225   1.963   0.776
10484TIP3    H231398   4.329   1.856   0.799
10485TIP3   OH231399   7.655   1.588   6.243
10485TIP3    H131400   7.581   1.551   6.291
10485TIP3    H231401   7.710   1.629   6.310
10486TIP3   OH231402   0.053   1.289   2.654
10486TIP3    H131403  -0.002   1.321   2.583
10486TIP3    H231404   0.000   1.222   2.696
10487TIP3   OH231405   2.079   2.146   4.202
10487TIP3    H131406   2.099   2.185   4.287
10487TIP3    H231407   2.049   2.058   4.223
10488TIP3   OH231408   4.375   6.127   0.954
10488TIP3    H131409   4.403   6.065   0.886
10488TIP3    H231410   4.441   6.196   0.952
10489TIP3   OH231411   5.359   7.146   1.716
10489TIP3    H131412   5.387   7.210   1.650
10489TIP3    H231413   5.264   7.139   1.704
10490TIP3   OH231414   4.703   4.007   5.614
10490TIP3    H131415   4.789   3.991   5.576
10490TIP3    H231416   4.657   3.923   5.604
10491TIP3   OH231417   3.843   5.001   0.764
10491TIP3    H131418   3.779   4.937   0.732
10491TIP3    H231419   3.919   4.990   0.706
10492TIP3   OH231420   5.258   6.552   2.572
10492TIP3    H131421   5.347   6.585   2.565
10492TIP3    H231422   5.267   6.464   2.610
10493TIP3   OH231423   1.768   4.050   1.834
10493TIP3    H131424   1.696   3.988   1.847
10493TIP3    H231425   1.739   4.104   1.760
10494TIP3   OH231426   0.918   2.105   4.529
10494TIP3    H131427   0.846   2.122   4.589
10494TIP3    H231428   0.886   2.036   4.471
10495TIP3   OH231429   8.284   1.210   3.476
10495TIP3    H131430   8.256   1.139   3.418
10495TIP3    H231431   8.300   1.284   3.417
10496TIP3   OH231432   5.385   2.568   2.152
10496TIP3    H131433   5.357   2.622   2.078
10496TIP3    H231434   5.303   2.534   2.189
10497TIP3   OH231435   3.706   4.775   0.699
10497TIP3    H131436   3.771   4.706   0.690
10497TIP3    H231437   3.634   4.734   0.747
10498TIP3   OH231438   6.795   4.958   0.005
10498TIP3    H131439   6.863   4.896   0.032
10498TIP3    H231440   6.719   4.936   0.060
10499TIP3   OH231441   8.125   0.906   5.570
10499TIP3    H131442   8.187   0.977   5.556
10499TIP3    H231443   8.040   0.942   5.545
10500TIP3   OH231444   5.099   3.560   4.075
10500TIP3    H131445   5.145   3.631   4.029
10500TIP3    H231446   5.019   3.547   4.024
10501TIP3   OH231447   7.597   3.287   3.403
10501TIP3    H131448   7.582   3.350   3.473
10501TIP3    H231449   7.573   3.333   3.323
10502TIP3   OH231450   2.367   6.548   2.610
10502TIP3    H131451   2.446   6.569   2.661
10502TIP3    H231452   2.365   6.453   2.607
10503TIP3   OH231453   6.627   1.489   1.686
10503TIP3    H131454   6.658   1.486   1.596
10503TIP3    H231455   6.670   1.566   1.724
10504TIP3   OH231456   3.594   1.613   0.790
10504TIP3    H131457   3.685   1.587   0.805
10504TIP3    H231458   3.546   1.574   0.863
10505TIP3   OH231459   0.072   7.043   4.134
10505TIP3    H131460   0.141   7.089   4.086
10505TIP3    H231461   0.117   6.970   4.176
10506TIP3   OH231462   3.836   3.006   0.930
10506TIP3    H131463   3.896   2.937   0.960
10506TIP3    H231464   3.846   3.075   0.995
10507TIP3   OH231465   7.383   2.621   5.930
10507TIP3    H131466   7.385   2.564   5.853
10507TIP3    H231467   7.296   2.662   5.926
10508TIP3   OH231468   0.654   5.304   0.227
10508TIP3    H131469   0.738   5.284   0.186
10508TIP3    H231470   0.670   5.296   0.321
10509TIP3   OH231471   8.217   6.538   1.802
10509TIP3    H131472   8.151   6.604   1.778
10509TIP3    H231473   8.298   6.572   1.763
10510TIP3   OH231474   4.230   1.359   1.629
10510TIP3    H131475   4.266   1.439   1.591
10510TIP3    H231476   4.204   1.306   1.554
10511TIP3   OH231477   8.108   1.390   3.196
10511TIP3    H131478   8.072   1.479   3.198
10511TIP3    H231479   8.111   1.368   3.103
10512TIP3   OH231480   4.772   0.984   0.521
10512TIP3    H131481   4.719   1.027   0.588
10512TIP3    H231482   4.800   0.902   0.561
10513TIP3   OH231483   2.526   2.787   2.780
10513TIP3    H131484   2.563   2.722   2.840
10513TIP3    H231485   2.464   2.736   2.727
10514TIP3   OH231486   2.044   2.095   3.415
10514TIP3    H131487   2.109   2.119   3.481
10514TIP3    H231488   1.968   2.067   3.465
10515TIP3   OH231489   6.851   1.034   3.797
10515TIP3    H131490   6.769   1.003   3.758
10515TIP3    H231491   6.824   1.101   3.859
10516TIP3   OH231492   4.420   6.661   3.300
10516TIP3    H131493   4.353   6.634   3.236
10516TIP3    H231494   4.430   6.755   3.286
10517TIP3   OH231495   3.793   6.532   0.509
10517TIP3    H131496   3.782   6.558   0.418
10517TIP3    H231497   3.785   6.437   0.509
10518TIP3   OH231498   1.554   1.701   0.130
10518TIP3    H131499   1.574   1.789   0.161
10518TIP3    H231500   1.496   1.715   0.055
10519TIP3   OH231501   2.735   2.227   3.531
10519TIP3    H131502   2.723   2.297   3.595
10519TIP3    H231503   2.772   2.270   3.455
10520TIP3   OH231504   0.425   4.260   0.313
10520TIP3    H131505   0.422   4.190   0.248
10520TIP3    H231506   0.333   4.276   0.334
10521TIP3   OH231507   2.222   6.402   1.796
10521TIP3    H131508   2.257   6.317   1.826
10521TIP3    H231509   2.223   6.457   1.874
10522TIP3   OH231510   0.792   1.715   3.123
10522TIP3    H131511   0.778   1.809   3.122
10522TIP3    H231512   0.717   1.679   3.075
10523TIP3   OH231513   4.533   0.077   6.471
10523TIP3    H131514   4.587   0.000   6.485
10523TIP3    H231515   4.482   0.086   6.551
10524TIP3   OH231516   1.796   2.078   4.328
10524TIP3    H131517   1.846   2.108   4.252
10524TIP3    H231518   1.790   1.983   4.317
10525TIP3   OH231519   0.124   3.353   3.875
10525TIP3    H131520   0.112   3.401   3.793
10525TIP3    H231521   0.042   3.365   3.922
10526TIP3   OH231522   4.239   4.147   1.433
10526TIP3    H131523   4.314   4.204   1.417
10526TIP3    H231524   4.180   4.164   1.359
10527TIP3   OH231525   2.193   0.731   3.960
10527TIP3    H131526   2.249   0.670   3.912
10527TIP3    H231527   2.254   0.779   4.017
10528TIP3   OH231528   2.640   6.051   3.152
10528TIP3    H131529   2.580   6.076   3.223
10528TIP3    H231530   2.704   6.122   3.149
10529TIP3   OH231531   6.061   5.807   4.949
10529TIP3    H131532   6.053   5.735   4.887
10529TIP3    H231533   5.983   5.861   4.933
10530TIP3   OH231534   5.617   2.406   0.928
10530TIP3    H131535   5.548   2.468   0.903
10530TIP3    H231536   5.669   2.394   0.849
10531TIP3   OH231537   6.340   7.103   0.636
10531TIP3    H131538   6.323   7.017   0.596
10531TIP3    H231539   6.422   7.132   0.595
10532TIP3   OH231540   5.506   7.097   5.603
10532TIP3    H131541   5.598   7.104   5.630
10532TIP3    H231542   5.472   7.022   5.652
10533TIP3   OH231543   5.658   1.217   4.197
10533TIP3    H131544   5.659   1.181   4.286
10533TIP3    H231545   5.607   1.154   4.147
10534TIP3   OH231546   4.422   6.926   3.205
10534TIP3    H131547   4.463   7.001   3.163
10534TIP3    H231548   4.333   6.955   3.225
10535TIP3   OH231549   6.770   2.657   1.460
10535TIP3    H131550   6.828   2.614   1.523
10535TIP3    H231551   6.709   2.589   1.434
10536TIP3   OH231552   0.939   6.602   0.051
10536TIP3    H131553   1.002   6.637   0.114
10536TIP3    H231554   0.975   6.626  -0.034
10537TIP3   OH231555   5.196   4.808   0.183
10537TIP3    H131556   5.170   4.730   0.135
10537TIP3    H231557   5.136   4.876   0.151
10538TIP3   OH231558   2.445   0.761   5.719
10538TIP3    H131559   2.435   0.768   5.624
10538TIP3    H231560   2.497   0.837   5.743
10539TIP3   OH231561   6.745   2.026   5.546
10539TIP3    H131562   6.743   2.087   5.619
10539TIP3    H231563   6.712   2.076   5.471
10540TIP3   OH231564   6.321   4.115   0.129
10540TIP3    H131565   6.396   4.134   0.185
10540TIP3    H231566   6.279   4.039   0.169
10541TIP3   OH231567   1.678   3.538   2.021
10541TIP3    H131568   1.755   3.595   2.026
10541TIP3    H231569   1.656   3.520   2.113
10542TIP3   OH231570   0.119   3.380   1.330
10542TIP3    H131571   0.151   3.466   1.360
10542TIP3    H231572   0.100   3.393   1.237
10543TIP3   OH231573   6.002   3.395   2.161
10543TIP3    H131574   6.044   3.323   2.115
10543TIP3    H231575   5.936   3.428   2.100
10544TIP3   OH231576   5.554   5.995   2.154
10544TIP3    H131577   5.508   6.066   2.110
10544TIP3    H231578   5.496   5.969   2.225
10545TIP3   OH231579   4.202   4.159   1.145
10545TIP3    H131580   4.284   4.205   1.166
10545TIP3    H231581   4.230   4.079   1.100
10546TIP3   OH231582   2.339   5.877   3.988
10546TIP3    H131583   2.375   5.819   3.922
10546TIP3    H231584   2.254   5.838   4.011
10547TIP3   OH231585   6.141   6.277   0.759
10547TIP3    H131586   6.232   6.261   0.735
10547TIP3    H231587   6.143   6.291   0.854
10548TIP3   OH231588   4.227   5.653   6.164
10548TIP3    H131589   4.159   5.661   6.231
10548TIP3    H231590   4.208   5.723   6.102
10549TIP3   OH231591   0.186   3.525   2.871
10549TIP3    H131592   0.260   3.465   2.879
10549TIP3    H231593   0.224   3.611   2.892
10550TIP3   OH231594   6.497   0.941   2.353
10550TIP3    H131595   6.590   0.957   2.336
10550TIP3    H231596   6.459   1.028   2.362
10551TIP3   OH231597   5.128   1.566   2.755
10551TIP3    H131598   5.115   1.599   2.666
10551TIP3    H231599   5.167   1.639   2.802
10552TIP3   OH231600   1.454   4.017   1.127
10552TIP3    H131601   1.415   3.983   1.208
10552TIP3    H231602   1.518   4.082   1.157
10553TIP3   OH231603   5.334   2.069   0.432
10553TIP3    H131604   5.399   2.137   0.414
10553TIP3    H231605   5.375   2.014   0.499
10554TIP3   OH231606   6.981   3.068   2.844
10554TIP3    H131607   6.918   2.999   2.866
10554TIP3    H231608   7.007   3.104   2.929
10555TIP3   OH231609   5.726   0.438   3.971
10555TIP3    H131610   5.808   0.394   3.993
10555TIP3    H231611   5.750   0.529   3.955
10556TIP3   OH231612   2.304   5.319   6.602
10556TIP3    H131613   2.299   5.375   6.524
10556TIP3    H231614   2.228   5.345   6.655
10557TIP3   OH231615   6.748   3.877   2.379
10557TIP3    H131616   6.759   3.911   2.290
10557TIP3    H231617   6.660   3.906   2.405
10558TIP3   OH231618   7.282   5.230   5.809
10558TIP3    H131619   7.235   5.284   5.873
10558TIP3    H231620   7.269   5.140   5.840
10559TIP3   OH231621   5.491   1.106   4.921
10559TIP3    H131622   5.410   1.062   4.945
10559TIP3    H231623   5.488   1.111   4.825
10560TIP3   OH231624   0.962   3.363   2.505
10560TIP3    H131625   0.938   3.295   2.568
10560TIP3    H231626   0.915   3.340   2.425
10561TIP3   OH231627   6.953   7.564   4.293
10561TIP3    H131628   6.976   7.539   4.383
10561TIP3    H231629   6.860   7.586   4.297
10562TIP3   OH231630   3.343   4.917   4.650
10562TIP3    H131631   3.275   4.929   4.584
10562TIP3    H231632   3.304   4.949   4.731
10563TIP3   OH231633   2.595   0.194   0.975
10563TIP3    H131634   2.589   0.117   0.917
10563TIP3    H231635   2.504   0.208   1.003
10564TIP3   OH231636   5.234   1.951   0.746
10564TIP3    H131637   5.253   1.857   0.736
10564TIP3    H231638   5.149   1.953   0.790
10565TIP3   OH231639   2.362   2.921   4.742
10565TIP3    H131640   2.408   2.852   4.694
10565TIP3    H231641   2.337   2.984   4.675
10566TIP3   OH231642   7.371   2.364   2.193
10566TIP3    H131643   7.301   2.416   2.155
10566TIP3    H231644   7.449   2.389   2.145
10567TIP3   OH231645   7.641   1.067   3.897
10567TIP3    H131646   7.593   1.018   3.830
10567TIP3    H231647   7.683   1.138   3.849
10568TIP3   OH231648   0.827   5.181   4.219
10568TIP3    H131649   0.879   5.254   4.186
10568TIP3    H231650   0.874   5.152   4.297
10569TIP3   OH231651   3.195   4.764   1.154
10569TIP3    H131652   3.122   4.816   1.121
10569TIP3    H231653   3.202   4.690   1.094
10570TIP3   OH231654   5.376   6.582   1.967
10570TIP3    H131655   5.453   6.533   1.994
10570TIP3    H231656   5.392   6.671   1.999
10571TIP3   OH231657   7.502   0.702   2.542
10571TIP3    H131658   7.437   0.723   2.475
10571TIP3    H231659   7.461   0.727   2.624
10572TIP3   OH231660   6.772   5.768   5.632
10572TIP3    H131661   6.766   5.797   5.723
10572TIP3    H231662   6.775   5.673   5.637
10573TIP3   OH231663   4.481   7.779   3.154
10573TIP3    H131664   4.460   7.693   3.118
10573TIP3    H231665   4.565   7.802   3.116
10574TIP3   OH231666   2.015   0.770   2.845
10574TIP3    H131667   2.065   0.689   2.851
10574TIP3    H231668   1.929   0.743   2.813
10575TIP3   OH231669   7.179   0.102   4.671
10575TIP3    H131670   7.162   0.175   4.731
10575TIP3    H231671   7.099   0.049   4.676
10576TIP3   OH231672   3.628   0.551   3.670
10576TIP3    H131673   3.700   0.544   3.733
10576TIP3    H231674   3.581   0.468   3.678
10577TIP3   OH231675   7.785   0.158   5.630
10577TIP3    H131676   7.836   0.163   5.711
10577TIP3    H231677   7.848   0.131   5.564
10578TIP3   OH231678   6.853   1.325   2.288
10578TIP3    H131679   6.843   1.323   2.193
10578TIP3    H231680   6.880   1.237   2.311
10579TIP3   OH231681   7.797   2.567   5.137
10579TIP3    H131682   7.772   2.570   5.045
10579TIP3    H231683   7.748   2.493   5.173
10580TIP3   OH231684   6.851   2.566   2.269
10580TIP3    H131685   6.823   2.481   2.303
10580TIP3    H231686   6.837   2.627   2.342
10581TIP3   OH231687   0.372   5.312   0.149
10581TIP3    H131688   0.451   5.259   0.164
10581TIP3    H231689   0.336   5.328   0.236
10582TIP3   OH231690   6.187   2.012   6.652
10582TIP3    H131691   6.167   1.920   6.636
10582TIP3    H231692   6.138   2.059   6.585
10583TIP3   OH231693   0.076   5.207   0.469
10583TIP3    H131694   0.106   5.135   0.524
10583TIP3    H231695  -0.017   5.217   0.490
10584TIP3   OH231696   4.792   6.861   6.575
10584TIP3    H131697   4.753   6.781   6.538
10584TIP3    H231698   4.884   6.838   6.589
10585TIP3   OH231699   6.448   6.319   5.267
10585TIP3    H131700   6.447   6.224   5.266
10585TIP3    H231701   6.450   6.342   5.360
10586TIP3   OH231702   0.805   5.770   1.571
10586TIP3    H131703   0.754   5.732   1.643
10586TIP3    H231704   0.837   5.853   1.606
10587TIP3   OH231705   1.310   5.883   3.328
10587TIP3    H131706   1.301   5.796   3.366
10587TIP3    H231707   1.244   5.886   3.258
10588TIP3   OH231708   0.016   1.314   1.623
10588TIP3    H131709   0.055   1.252   1.684
10588TIP3    H231710   0.084   1.328   1.556
10589TIP3   OH231711   4.609   0.713   0.411
10589TIP3    H131712   4.671   0.740   0.478
10589TIP3    H231713   4.656   0.723   0.328
10590TIP3   OH231714   4.081   5.470   1.575
10590TIP3    H131715   4.137   5.460   1.498
10590TIP3    H231716   4.132   5.526   1.634
10591TIP3   OH231717   2.416   5.308   2.799
10591TIP3    H131718   2.496   5.348   2.764
10591TIP3    H231719   2.427   5.214   2.782
10592TIP3   OH231720   0.608   7.318   5.003
10592TIP3    H131721   0.571   7.375   4.936
10592TIP3    H231722   0.697   7.351   5.017
10593TIP3   OH231723   7.865   3.166   1.687
10593TIP3    H131724   7.946   3.214   1.704
10593TIP3    H231725   7.799   3.234   1.675
10594TIP3   OH231726   0.415   0.543   2.592
10594TIP3    H131727   0.343   0.492   2.556
10594TIP3    H231728   0.382   0.573   2.677
10595TIP3   OH231729   4.680   3.958   0.811
10595TIP3    H131730   4.673   3.954   0.715
10595TIP3    H231731   4.638   3.878   0.841
10596TIP3   OH231732   3.569   4.016   3.510
10596TIP3    H131733   3.482   4.014   3.550
10596TIP3    H231734   3.596   3.924   3.507
10597TIP3   OH231735   0.797   6.800   0.732
10597TIP3    H131736   0.754   6.816   0.816
10597TIP3    H231737   0.814   6.706   0.731
10598TIP3   OH231738   1.473   4.701   0.375
10598TIP3    H131739   1.491   4.608   0.359
10598TIP3    H231740   1.556   4.736   0.408
10599TIP3   OH231741   2.153   3.233   3.645
10599TIP3    H131742   2.232   3.267   3.688
10599TIP3    H231743   2.172   3.141   3.629
10600TIP3   OH231744   2.364   6.693   1.445
10600TIP3    H131745   2.310   6.617   1.467
10600TIP3    H231746   2.302   6.765   1.435
10601TIP3   OH231747   7.956   3.362   2.283
10601TIP3    H131748   8.049   3.382   2.290
10601TIP3    H231749   7.935   3.374   2.190
10602TIP3   OH231750   1.249   3.109   5.816
10602TIP3    H131751   1.265   3.194   5.857
10602TIP3    H231752   1.326   3.094   5.761
10603TIP3   OH231753   2.336   3.879   2.564
10603TIP3    H131754   2.242   3.881   2.582
10603TIP3    H231755   2.359   3.971   2.550
10604TIP3   OH231756   2.062   4.128   0.127
10604TIP3    H131757   2.067   4.032   0.131
10604TIP3    H231758   2.033   4.155   0.214
10605TIP3   OH231759   8.131   2.556   6.214
10605TIP3    H131760   8.200   2.570   6.150
10605TIP3    H231761   8.112   2.642   6.249
10606TIP3   OH231762   8.091   7.322   2.721
10606TIP3    H131763   8.129   7.262   2.658
10606TIP3    H231764   8.006   7.284   2.742
10607TIP3   OH231765   5.722   4.250   4.453
10607TIP3    H131766   5.799   4.195   4.436
10607TIP3    H231767   5.749   4.308   4.524
10608TIP3   OH231768   7.574   5.435   4.175
10608TIP3    H131769   7.509   5.376   4.137
10608TIP3    H231770   7.658   5.402   4.144
10609TIP3   OH231771   3.841   1.649   2.484
10609TIP3    H131772   3.932   1.623   2.475
10609TIP3    H231773   3.844   1.744   2.497
10610TIP3   OH231774   3.713   0.046   0.520
10610TIP3    H131775   3.685  -0.005   0.596
10610TIP3    H231776   3.808   0.051   0.527
10611TIP3   OH231777   4.534   4.783   1.204
10611TIP3    H131778   4.616   4.740   1.180
10611TIP3    H231779   4.549   4.876   1.185
10612TIP3   OH231780   7.839   5.798   6.481
10612TIP3    H131781   7.917   5.763   6.526
10612TIP3    H231782   7.827   5.885   6.519
10613TIP3   OH231783   4.115   3.773   6.608
10613TIP3    H131784   4.150   3.861   6.601
10613TIP3    H231785   4.181   3.717   6.566
10614TIP3   OH231786   7.490   5.606   0.115
10614TIP3    H131787   7.578   5.615   0.150
10614TIP3    H231788   7.500   5.549   0.038
10615TIP3   OH231789   6.952   7.612   6.612
10615TIP3    H131790   6.888   7.544   6.632
10615TIP3    H231791   6.929   7.685   6.669
10616TIP3   OH231792   7.302   2.879   1.206
10616TIP3    H131793   7.332   2.901   1.294
10616TIP3    H231794   7.250   2.800   1.218
10617TIP3   OH231795   1.455   3.624   6.673
10617TIP3    H131796   1.537   3.593   6.635
10617TIP3    H231797   1.391   3.615   6.603
10618TIP3   OH231798   4.560   0.153   4.942
10618TIP3    H131799   4.482   0.182   4.990
10618TIP3    H231800   4.572   0.221   4.875
10619TIP3   OH231801   5.803   5.768   1.704
10619TIP3    H131802   5.728   5.816   1.740
10619TIP3    H231803   5.773   5.678   1.697
10620TIP3   OH231804   7.922   5.811   0.109
10620TIP3    H131805   7.887   5.728   0.077
10620TIP3    H231806   7.923   5.868   0.032
10621TIP3   OH231807   3.279   1.029   6.416
10621TIP3    H131808   3.222   1.020   6.492
10621TIP3    H231809   3.250   1.110   6.374
10622TIP3   OH231810   2.174   6.905   1.797
10622TIP3    H131811   2.245   6.848   1.827
10622TIP3    H231812   2.106   6.896   1.864
10623TIP3   OH231813   1.547   5.153   4.623
10623TIP3    H131814   1.550   5.235   4.671
10623TIP3    H231815   1.631   5.148   4.578
10624TIP3   OH231816   4.684   0.150   1.883
10624TIP3    H131817   4.605   0.102   1.909
10624TIP3    H231818   4.711   0.110   1.801
10625TIP3   OH231819   0.240   2.100   4.463
10625TIP3    H131820   0.155   2.099   4.508
10625TIP3    H231821   0.280   2.016   4.484
10626TIP3   OH231822   2.468   3.131   1.863
10626TIP3    H131823   2.521   3.132   1.783
10626TIP3    H231824   2.524   3.089   1.928
10627TIP3   OH231825   6.329   6.488   1.945
10627TIP3    H131826   6.354   6.434   1.870
10627TIP3    H231827   6.341   6.432   2.021
10628TIP3   OH231828   7.574   3.053   5.610
10628TIP3    H131829   7.551   2.979   5.666
10628TIP3    H231830   7.670   3.056   5.613
10629TIP3   OH231831   0.759   0.052   6.007
10629TIP3    H131832   0.723   0.006   5.931
10629TIP3    H231833   0.728   0.142   5.999
10630TIP3   OH231834   2.307   6.158   0.263
10630TIP3    H131835   2.216   6.138   0.239
10630TIP3    H231836   2.303   6.244   0.304
10631TIP3   OH231837   1.082   7.768   1.965
10631TIP3    H131838   0.997   7.805   1.990
10631TIP3    H231839   1.106   7.814   1.885
10632TIP3   OH231840   1.505   2.879   5.769
10632TIP3    H131841   1.413   2.874   5.797
10632TIP3    H231842   1.553   2.830   5.836
10633TIP3   OH231843   2.686   4.494   5.556
10633TIP3    H131844   2.649   4.409   5.534
10633TIP3    H231845   2.691   4.540   5.472
10634TIP3   OH231846   0.852   7.309   2.351
10634TIP3    H131847   0.799   7.388   2.352
10634TIP3    H231848   0.927   7.331   2.295
10635TIP3   OH231849   2.578   4.869   0.349
10635TIP3    H131850   2.654   4.926   0.335
10635TIP3    H231851   2.581   4.846   0.442
10636TIP3   OH231852   1.688   0.422   1.003
10636TIP3    H131853   1.624   0.492   1.012
10636TIP3    H231854   1.649   0.363   0.937
10637TIP3   OH231855   1.685   7.491   1.402
10637TIP3    H131856   1.710   7.499   1.310
10637TIP3    H231857   1.731   7.412   1.432
10638TIP3   OH231858   6.486   6.472   5.843
10638TIP3    H131859   6.450   6.394   5.886
10638TIP3    H231860   6.414   6.504   5.788
10639TIP3   OH231861   2.167   3.532   2.993
10639TIP3    H131862   2.222   3.609   2.976
10639TIP3    H231863   2.221   3.476   3.047
10640TIP3   OH231864   5.610   2.714   3.649
10640TIP3    H131865   5.521   2.679   3.644
10640TIP3    H231866   5.599   2.809   3.646
10641TIP3   OH231867   7.669   4.131   2.135
10641TIP3    H131868   7.731   4.194   2.173
10641TIP3    H231869   7.603   4.118   2.204
10642TIP3   OH231870   7.155   4.914   0.237
10642TIP3    H131871   7.150   4.880   0.326
10642TIP3    H231872   7.097   4.991   0.238
10643TIP3   OH231873   3.868   7.852   2.078
10643TIP3    H131874   3.947   7.834   2.128
10643TIP3    H231875   3.836   7.766   2.051
10644TIP3   OH231876   5.607   2.176   1.655
10644TIP3    H131877   5.584   2.269   1.657
10644TIP3    H231878   5.664   2.164   1.731
10645TIP3   OH231879   2.787   3.908   2.357
10645TIP3    H131880   2.776   3.819   2.389
10645TIP3    H231881   2.833   3.899   2.274
10646TIP3   OH231882   3.410   6.347   2.155
10646TIP3    H131883   3.429   6.429   2.110
10646TIP3    H231884   3.364   6.372   2.235
10647TIP3   OH231885   6.767   4.664   0.702
10647TIP3    H131886   6.756   4.606   0.627
10647TIP3    H231887   6.703   4.734   0.688
10648TIP3   OH231888   6.518   1.585   3.767
10648TIP3    H131889   6.588   1.635   3.807
10648TIP3    H231890   6.543   1.493   3.780
10649TIP3   OH231891   1.824   1.212   2.158
10649TIP3    H131892   1.828   1.222   2.253
10649TIP3    H231893   1.897   1.154   2.137
10650TIP3   OH231894   1.631   5.629   0.358
10650TIP3    H131895   1.654   5.600   0.446
10650TIP3    H231896   1.695   5.585   0.301
10651TIP3   OH231897   7.716   3.071   3.107
10651TIP3    H131898   7.758   3.132   3.167
10651TIP3    H231899   7.669   3.010   3.165
10652TIP3   OH231900   2.282   4.805   5.109
10652TIP3    H131901   2.244   4.889   5.133
10652TIP3    H231902   2.279   4.804   5.013
10653TIP3   OH231903   3.330   7.553   6.578
10653TIP3    H131904   3.345   7.608   6.655
10653TIP3    H231905   3.377   7.596   6.507
10654TIP3   OH231906   7.020   7.552   1.177
10654TIP3    H131907   7.078   7.626   1.159
10654TIP3    H231908   7.074   7.475   1.164
10655TIP3   OH231909   1.183   5.643   5.786
10655TIP3    H131910   1.093   5.662   5.761
10655TIP3    H231911   1.230   5.633   5.703
10656TIP3   OH231912   6.997   5.995   1.177
10656TIP3    H131913   6.973   6.013   1.268
10656TIP3    H231914   7.025   5.903   1.178
10657TIP3   OH231915   7.783   0.262   0.447
10657TIP3    H131916   7.760   0.257   0.540
10657TIP3    H231917   7.833   0.343   0.439
10658TIP3   OH231918   0.136   5.080   4.474
10658TIP3    H131919   0.152   5.143   4.544
10658TIP3    H231920   0.113   5.134   4.399
10659TIP3   OH231921   8.264   5.929   3.311
10659TIP3    H131922   8.210   6.007   3.297
10659TIP3    H231923   8.273   5.891   3.223
10660TIP3   OH231924   5.437   6.182   1.939
10660TIP3    H131925   5.527   6.188   1.905
10660TIP3    H231926   5.382   6.180   1.861
10661TIP3   OH231927   0.374   7.180   6.589
10661TIP3    H131928   0.313   7.178   6.515
10661TIP3    H231929   0.405   7.089   6.596
10662TIP3   OH231930   4.632   1.304   1.971
10662TIP3    H131931   4.567   1.244   1.935
10662TIP3    H231932   4.704   1.248   1.998
10663TIP3   OH231933   0.633   1.241   2.228
10663TIP3    H131934   0.700   1.232   2.161
10663TIP3    H231935   0.604   1.152   2.245
10664TIP3   OH231936   1.694   4.542   5.561
10664TIP3    H131937   1.604   4.534   5.591
10664TIP3    H231938   1.706   4.636   5.548
10665TIP3   OH231939   4.543   7.051   2.492
10665TIP3    H131940   4.613   7.109   2.461
10665TIP3    H231941   4.463   7.102   2.479
10666TIP3   OH231942   5.277   2.856   0.399
10666TIP3    H131943   5.362   2.834   0.437
10666TIP3    H231944   5.298   2.892   0.313
10667TIP3   OH231945   4.061   1.338   2.585
10667TIP3    H131946   4.113   1.296   2.516
10667TIP3    H231947   3.975   1.295   2.579
10668TIP3   OH231948   6.344   3.938   1.976
10668TIP3    H131949   6.305   3.929   1.889
10668TIP3    H231950   6.419   3.878   1.974
10669TIP3   OH231951   5.227   7.057   5.006
10669TIP3    H131952   5.281   7.052   4.927
10669TIP3    H231953   5.282   7.020   5.075
10670TIP3   OH231954   3.726   7.488   3.066
10670TIP3    H131955   3.783   7.433   3.120
10670TIP3    H231956   3.680   7.426   3.010
10671TIP3   OH231957   4.950   4.310   5.293
10671TIP3    H131958   4.955   4.334   5.386
10671TIP3    H231959   4.958   4.215   5.293
10672TIP3   OH231960   6.061   0.335   1.462
10672TIP3    H131961   6.039   0.252   1.506
10672TIP3    H231962   6.126   0.376   1.519
10673TIP3   OH231963   1.056   4.064   3.881
10673TIP3    H131964   0.998   4.082   3.955
10673TIP3    H231965   1.142   4.093   3.911
10674TIP3   OH231966   6.750   0.577   2.963
10674TIP3    H131967   6.709   0.507   3.013
10674TIP3    H231968   6.759   0.649   3.024
10675TIP3   OH231969   5.495   5.422   0.080
10675TIP3    H131970   5.449   5.393   0.158
10675TIP3    H231971   5.568   5.475   0.113
10676TIP3   OH231972   6.390   3.331   3.235
10676TIP3    H131973   6.390   3.423   3.262
10676TIP3    H231974   6.346   3.285   3.307
10677TIP3   OH231975   3.878   4.463   6.277
10677TIP3    H131976   3.800   4.459   6.332
10677TIP3    H231977   3.846   4.493   6.192
10678TIP3   OH231978   5.785   1.397   1.551
10678TIP3    H131979   5.846   1.344   1.603
10678TIP3    H231980   5.831   1.480   1.538
10679TIP3   OH231981   3.063   0.006   5.466
10679TIP3    H131982   3.138   0.014   5.524
10679TIP3    H231983   3.092   0.046   5.384
10680TIP3   OH231984   8.207   2.644   5.680
10680TIP3    H131985   8.204   2.575   5.746
10680TIP3    H231986   8.120   2.642   5.639
10681TIP3   OH231987   2.028   0.236   6.290
10681TIP3    H131988   2.043   0.331   6.288
10681TIP3    H231989   2.102   0.199   6.241
10682TIP3   OH231990   5.656   0.371   3.470
10682TIP3    H131991   5.677   0.433   3.539
10682TIP3    H231992   5.670   0.285   3.510
10683TIP3   OH231993   3.278   7.022   3.071
10683TIP3    H131994   3.359   7.069   3.056
10683TIP3    H231995   3.240   7.011   2.984
10684TIP3   OH231996   6.290   1.516   6.369
10684TIP3    H131997   6.249   1.435   6.399
10684TIP3    H231998   6.360   1.532   6.432
10685TIP3   OH231999   2.269   1.394   1.717
10685TIP3    H132000   2.324   1.391   1.639
10685TIP3    H232001   2.185   1.430   1.686
10686TIP3   OH232002   4.928   3.035   2.560
10686TIP3    H132003   4.902   3.062   2.648
10686TIP3    H232004   4.890   3.101   2.503
10687TIP3   OH232005   0.420   3.141   1.562
10687TIP3    H132006   0.385   3.054   1.582
10687TIP3    H232007   0.359   3.176   1.496
10688TIP3   OH232008   4.653   7.773   4.444
10688TIP3    H132009   4.716   7.760   4.374
10688TIP3    H232010   4.610   7.856   4.424
10689TIP3   OH232011   3.214   3.595   6.456
10689TIP3    H132012   3.304   3.572   6.430
10689TIP3    H232013   3.223   3.630   6.544
10690TIP3   OH232014   1.420   0.908   3.864
10690TIP3    H132015   1.458   0.943   3.944
10690TIP3    H232016   1.444   0.816   3.863
10691TIP3   OH232017   5.775   3.548   0.604
10691TIP3    H132018   5.799   3.549   0.512
10691TIP3    H232019   5.808   3.631   0.639
10692TIP3   OH232020   4.572   4.369   2.054
10692TIP3    H132021   4.609   4.305   1.994
10692TIP3    H232022   4.504   4.413   2.003
10693TIP3   OH232023   5.444   2.134   2.542
10693TIP3    H132024   5.377   2.170   2.600
10693TIP3    H232025   5.397   2.116   2.460
10694TIP3   OH232026   3.520   4.365   1.162
10694TIP3    H132027   3.449   4.307   1.187
10694TIP3    H232028   3.509   4.377   1.068
10695TIP3   OH232029   4.467   0.925   2.741
10695TIP3    H132030   4.484   0.837   2.773
10695TIP3    H232031   4.463   0.916   2.645
10696TIP3   OH232032   6.258   4.213   1.041
10696TIP3    H132033   6.259   4.121   1.068
10696TIP3    H232034   6.323   4.256   1.097
10697TIP3   OH232035   0.821   0.144   1.663
10697TIP3    H132036   0.757   0.122   1.731
10697TIP3    H232037   0.906   0.125   1.704
10698TIP3   OH232038   2.447   7.415   1.105
10698TIP3    H132039   2.503   7.340   1.081
10698TIP3    H232040   2.465   7.480   1.037
10699TIP3   OH232041   0.655   7.487   3.849
10699TIP3    H132042   0.656   7.392   3.835
10699TIP3    H232043   0.724   7.502   3.915
10700TIP3   OH232044   7.612   4.594   6.342
10700TIP3    H132045   7.608   4.594   6.247
10700TIP3    H232046   7.687   4.538   6.363
10701TIP3   OH232047   2.096   2.660   5.250
10701TIP3    H132048   2.122   2.707   5.171
10701TIP3    H232049   2.040   2.589   5.219
10702TIP3   OH232050   6.267   3.256   5.846
10702TIP3    H132051   6.192   3.305   5.812
10702TIP3    H232052   6.319   3.320   5.894
10703TIP3   OH232053   3.945   6.461   1.885
10703TIP3    H132054   3.949   6.553   1.909
10703TIP3    H232055   3.861   6.431   1.918
10704TIP3   OH232056   3.286   0.942   5.701
10704TIP3    H132057   3.217   0.973   5.643
10704TIP3    H232058   3.281   0.846   5.694
10705TIP3   OH232059   4.806   4.743   1.087
10705TIP3    H132060   4.832   4.833   1.070
10705TIP3    H232061   4.888   4.695   1.096
10706TIP3   OH232062   5.829   2.228   1.442
10706TIP3    H132063   5.753   2.224   1.500
10706TIP3    H232064   5.837   2.321   1.420
10707TIP3   OH232065   3.346   3.452   4.146
10707TIP3    H132066   3.396   3.439   4.227
10707TIP3    H232067   3.276   3.512   4.170
10708TIP3   OH232068   8.035   7.584   5.802
10708TIP3    H132069   7.972   7.600   5.732
10708TIP3    H232070   8.105   7.535   5.760
10709TIP3   OH232071   7.287   5.159   2.596
10709TIP3    H132072   7.249   5.201   2.674
10709TIP3    H232073   7.217   5.104   2.562
10710TIP3   OH232074   4.904   0.476   0.622
10710TIP3    H132075   4.962   0.419   0.573
10710TIP3    H232076   4.925   0.459   0.714
10711TIP3   OH232077   1.473   4.138   0.443
10711TIP3    H132078   1.384   4.104   0.435
10711TIP3    H232079   1.496   4.122   0.535
10712TIP3   OH232080   4.879   6.209   2.884
10712TIP3    H132081   4.968   6.182   2.906
10712TIP3    H232082   4.882   6.305   2.887
10713TIP3   OH232083   2.962   7.252   6.576
10713TIP3    H132084   2.879   7.299   6.564
10713TIP3    H232085   2.992   7.232   6.488
10714TIP3   OH232086   7.122   3.659   4.309
10714TIP3    H132087   7.049   3.717   4.333
10714TIP3    H232088   7.079   3.578   4.281
10715TIP3   OH232089   1.714   3.301   1.349
10715TIP3    H132090   1.654   3.288   1.275
10715TIP3    H232091   1.736   3.213   1.378
10716TIP3   OH232092   1.584   0.206   6.041
10716TIP3    H132093   1.616   0.118   6.020
10716TIP3    H232094   1.630   0.263   5.978
10717TIP3   OH232095   6.216   1.498   5.681
10717TIP3    H132096   6.282   1.533   5.622
10717TIP3    H232097   6.257   1.421   5.720
10718TIP3   OH232098   2.966   2.241   0.036
10718TIP3    H132099   2.976   2.241  -0.059
10718TIP3    H232100   2.928   2.327   0.057
10719TIP3   OH232101   7.241   4.925   1.076
10719TIP3    H132102   7.239   5.020   1.091
10719TIP3    H232103   7.149   4.899   1.073
10720TIP3   OH232104   1.560   4.888   1.004
10720TIP3    H132105   1.595   4.820   1.061
10720TIP3    H232106   1.627   4.956   1.003
10721TIP3   OH232107   2.184   4.261   0.614
10721TIP3    H132108   2.149   4.227   0.532
10721TIP3    H232109   2.107   4.283   0.666
10722TIP3   OH232110   1.060   4.865   5.128
10722TIP3    H132111   1.140   4.835   5.085
10722TIP3    H232112   1.029   4.789   5.177
10723TIP3   OH232113   1.103   6.791   1.587
10723TIP3    H132114   1.140   6.838   1.662
10723TIP3    H232115   1.010   6.780   1.610
10724TIP3   OH232116   7.048   1.754   4.933
10724TIP3    H132117   7.010   1.837   4.962
10724TIP3    H232118   7.057   1.703   5.014
10725TIP3   OH232119   5.611   0.712   6.076
10725TIP3    H132120   5.570   0.684   5.995
10725TIP3    H232121   5.637   0.803   6.059
10726TIP3   OH232122   7.394   1.012   2.130
10726TIP3    H132123   7.441   0.934   2.100
10726TIP3    H232124   7.304   1.001   2.099
10727TIP3   OH232125   0.636   1.328   4.875
10727TIP3    H132126   0.618   1.383   4.799
10727TIP3    H232127   0.568   1.261   4.874
10728TIP3   OH232128   3.953   6.577   6.070
10728TIP3    H132129   3.969   6.670   6.057
10728TIP3    H232130   4.004   6.533   6.002
10729TIP3   OH232131   0.348   7.419   2.101
10729TIP3    H132132   0.294   7.498   2.100
10729TIP3    H232133   0.292   7.351   2.063
10730TIP3   OH232134   4.950   4.928   2.655
10730TIP3    H132135   4.986   4.999   2.601
10730TIP3    H232136   4.862   4.958   2.678
10731TIP3   OH232137   2.376   5.996   4.243
10731TIP3    H132138   2.394   5.950   4.161
10731TIP3    H232139   2.364   6.088   4.216
10732TIP3   OH232140   2.055   3.998   5.371
10732TIP3    H132141   2.120   3.931   5.350
10732TIP3    H232142   2.101   4.081   5.356
10733TIP3   OH232143   0.815   4.600   2.265
10733TIP3    H132144   0.825   4.688   2.302
10733TIP3    H232145   0.759   4.612   2.188
10734TIP3   OH232146   6.532   4.701   4.354
10734TIP3    H132147   6.469   4.669   4.289
10734TIP3    H232148   6.486   4.693   4.437
10735TIP3   OH232149   3.110   6.648   2.974
10735TIP3    H132150   3.149   6.715   2.919
10735TIP3    H232151   3.151   6.566   2.946
10736TIP3   OH232152   1.394   6.895   4.362
10736TIP3    H132153   1.394   6.822   4.300
10736TIP3    H232154   1.414   6.855   4.446
10737TIP3   OH232155   0.862   3.954   5.427
10737TIP3    H132156   0.921   4.020   5.463
10737TIP3    H232157   0.845   3.894   5.499
10738TIP3   OH232158   3.564   7.794   2.492
10738TIP3    H132159   3.521   7.817   2.409
10738TIP3    H232160   3.621   7.721   2.470
10739TIP3   OH232161   6.666   2.874   1.571
10739TIP3    H132162   6.600   2.916   1.515
10739TIP3    H232163   6.713   2.815   1.513
10740TIP3   OH232164   6.579   5.333   1.689
10740TIP3    H132165   6.614   5.388   1.758
10740TIP3    H232166   6.654   5.284   1.656
10741TIP3   OH232167   2.045   3.390   3.425
10741TIP3    H132168   2.079   3.307   3.457
10741TIP3    H232169   2.056   3.451   3.498
10742TIP3   OH232170   1.963   4.902   3.505
10742TIP3    H132171   1.985   4.988   3.469
10742TIP3    H232172   1.875   4.883   3.471
10743TIP3   OH232173   1.952   4.261   0.768
10743TIP3    H132174   1.893   4.225   0.834
10743TIP3    H232175   1.911   4.342   0.739
10744TIP3   OH232176   2.665   5.411   6.340
10744TIP3    H132177   2.593   5.475   6.341
10744TIP3    H232178   2.651   5.361   6.260
10745TIP3   OH232179   2.990   6.680   6.227
10745TIP3    H132180   2.911   6.631   6.252
10745TIP3    H232181   2.982   6.763   6.274
10746TIP3   OH232182   4.708   6.537   4.560
10746TIP3    H132183   4.625   6.506   4.596
10746TIP3    H232184   4.707   6.507   4.469
10747TIP3   OH232185   4.754   0.248   5.988
10747TIP3    H132186   4.662   0.261   5.968
10747TIP3    H232187   4.754   0.198   6.070
10748TIP3   OH232188   6.447   5.853   1.943
10748TIP3    H132189   6.358   5.872   1.973
10748TIP3    H232190   6.445   5.876   1.850
10749TIP3   OH232191   3.543   2.664   3.771
10749TIP3    H132192   3.561   2.663   3.865
10749TIP3    H232193   3.626   2.689   3.730
10750TIP3   OH232194   7.904   5.464   2.708
10750TIP3    H132195   7.976   5.496   2.653
10750TIP3    H232196   7.870   5.388   2.661
10751TIP3   OH232197   3.007   4.493   0.823
10751TIP3    H132198   2.928   4.447   0.797
10751TIP3    H232199   3.053   4.512   0.741
10752TIP3   OH232200   6.341   6.169   2.575
10752TIP3    H132201   6.260   6.162   2.524
10752TIP3    H232202   6.335   6.254   2.619
10753TIP3   OH232203   0.327   4.433   5.301
10753TIP3    H132204   0.234   4.426   5.281
10753TIP3    H232205   0.367   4.359   5.254
10754TIP3   OH232206   2.028   5.979   4.220
10754TIP3    H132207   2.097   5.916   4.200
10754TIP3    H232208   2.053   6.016   4.305
10755TIP3   OH232209   6.396   5.180   0.096
10755TIP3    H132210   6.303   5.196   0.084
10755TIP3    H232211   6.416   5.109   0.035
10756TIP3   OH232212   6.686   4.563   2.930
10756TIP3    H132213   6.704   4.598   3.018
10756TIP3    H232214   6.691   4.468   2.941
10757TIP3   OH232215   6.309   1.750   6.215
10757TIP3    H132216   6.275   1.682   6.274
10757TIP3    H232217   6.373   1.797   6.267
10758TIP3   OH232218   6.843   0.807   6.500
10758TIP3    H132219   6.930   0.796   6.539
10758TIP3    H232220   6.786   0.827   6.575
10759TIP3   OH232221   3.084   5.859   0.741
10759TIP3    H132222   3.081   5.839   0.647
10759TIP3    H232223   3.005   5.819   0.776
10760TIP3   OH232224   3.133   6.301   2.656
10760TIP3    H132225   3.141   6.243   2.580
10760TIP3    H232226   3.038   6.307   2.672
10761TIP3   OH232227   0.139   1.846   2.441
10761TIP3    H132228   0.101   1.758   2.448
10761TIP3    H232229   0.171   1.851   2.351
10762TIP3   OH232230   7.072   4.109   2.107
10762TIP3    H132231   7.073   4.032   2.051
10762TIP3    H232232   7.159   4.111   2.147
10763TIP3   OH232233   8.148   3.084   1.725
10763TIP3    H132234   8.174   3.108   1.814
10763TIP3    H232235   8.072   3.027   1.737
10764TIP3   OH232236   1.907   7.342   3.890
10764TIP3    H132237   1.910   7.418   3.832
10764TIP3    H232238   1.922   7.378   3.978
10765TIP3   OH232239   1.487   7.096   2.206
10765TIP3    H132240   1.512   7.177   2.248
10765TIP3    H232241   1.394   7.107   2.186
10766TIP3   OH232242   1.958   4.638   5.942
10766TIP3    H132243   1.870   4.651   5.975
10766TIP3    H232244   2.015   4.672   6.011
10767TIP3   OH232245   5.011   3.172   4.404
10767TIP3    H132246   5.101   3.188   4.434
10767TIP3    H232247   4.989   3.249   4.351
10768TIP3   OH232248   5.867   2.082   3.860
10768TIP3    H132249   5.941   2.038   3.901
10768TIP3    H232250   5.830   2.018   3.799
10769TIP3   OH232251   6.440   4.756   3.079
10769TIP3    H132252   6.498   4.827   3.105
10769TIP3    H232253   6.451   4.750   2.984
10770TIP3   OH232254   6.776   6.187   5.952
10770TIP3    H132255   6.705   6.206   6.014
10770TIP3    H232256   6.849   6.160   6.006
10771TIP3   OH232257   3.912   1.081   1.518
10771TIP3    H132258   3.839   1.120   1.567
10771TIP3    H232259   3.872   1.012   1.465
10772TIP3   OH232260   7.040   5.969   2.848
10772TIP3    H132261   7.089   6.038   2.893
10772TIP3    H232262   6.954   5.970   2.889
10773TIP3   OH232263   4.510   1.578   2.840
10773TIP3    H132264   4.420   1.594   2.812
10773TIP3    H232265   4.506   1.577   2.936
10774TIP3   OH232266   8.156   7.671   4.760
10774TIP3    H132267   8.106   7.696   4.682
10774TIP3    H232268   8.247   7.687   4.734
10775TIP3   OH232269   4.471   6.401   0.281
10775TIP3    H132270   4.462   6.472   0.345
10775TIP3    H232271   4.506   6.444   0.203
10776TIP3   OH232272   7.378   3.340   0.360
10776TIP3    H132273   7.302   3.292   0.394
10776TIP3    H232274   7.454   3.296   0.399
10777TIP3   OH232275   4.826   7.365   1.068
10777TIP3    H132276   4.733   7.381   1.052
10777TIP3    H232277   4.863   7.354   0.980
10778TIP3   OH232278   3.907   4.566   1.586
10778TIP3    H132279   3.989   4.521   1.603
10778TIP3    H232280   3.891   4.553   1.493
10779TIP3   OH232281   3.349   7.100   1.091
10779TIP3    H132282   3.385   7.012   1.077
10779TIP3    H232283   3.277   7.106   1.029
10780TIP3   OH232284   4.003   0.148   4.011
10780TIP3    H132285   4.009   0.060   4.047
10780TIP3    H232286   4.069   0.199   4.058
10781TIP3   OH232287   3.729   5.053   0.319
10781TIP3    H132288   3.771   4.984   0.370
10781TIP3    H232289   3.693   5.008   0.243
10782TIP3   OH232290   3.698   7.762   6.495
10782TIP3    H132291   3.610   7.787   6.467
10782TIP3    H232292   3.694   7.667   6.504
10783TIP3   OH232293   6.933   2.956   2.304
10783TIP3    H132294   7.007   2.954   2.364
10783TIP3    H232295   6.956   3.022   2.239
10784TIP3   OH232296   2.386   0.694   5.180
10784TIP3    H132297   2.409   0.775   5.133
10784TIP3    H232298   2.292   0.702   5.195
10785TIP3   OH232299   5.958   6.290   3.513
10785TIP3    H132300   5.863   6.280   3.506
10785TIP3    H232301   5.989   6.283   3.422
10786TIP3   OH232302   2.953   3.482   2.637
10786TIP3    H132303   2.989   3.434   2.712
10786TIP3    H232304   2.994   3.442   2.561
10787TIP3   OH232305   6.913   1.115   4.751
10787TIP3    H132306   6.893   1.095   4.842
10787TIP3    H232307   6.829   1.139   4.712
10788TIP3   OH232308   7.556   1.671   3.933
10788TIP3    H132309   7.498   1.609   3.888
10788TIP3    H232310   7.533   1.756   3.896
10789TIP3   OH232311   4.258   0.946   1.552
10789TIP3    H132312   4.218   0.912   1.632
10789TIP3    H232313   4.191   0.937   1.485
10790TIP3   OH232314   0.880   2.307   2.126
10790TIP3    H132315   0.890   2.254   2.047
10790TIP3    H232316   0.785   2.319   2.134
10791TIP3   OH232317   3.779   5.966   1.458
10791TIP3    H132318   3.842   6.028   1.494
10791TIP3    H232319   3.814   5.880   1.481
10792TIP3   OH232320   3.596   6.715   6.454
10792TIP3    H132321   3.577   6.630   6.414
10792TIP3    H232322   3.659   6.757   6.395
10793TIP3   OH232323   1.331   4.751   4.790
10793TIP3    H132324   1.371   4.773   4.706
10793TIP3    H232325   1.240   4.783   4.781
10794TIP3   OH232326   6.099   6.605   0.541
10794TIP3    H132327   6.106   6.550   0.463
10794TIP3    H232328   6.043   6.556   0.601
10795TIP3   OH232329   4.565   4.869   5.397
10795TIP3    H132330   4.481   4.823   5.405
10795TIP3    H232331   4.577   4.910   5.483
10796TIP3   OH232332   4.538   4.109   0.985
10796TIP3    H132333   4.515   4.056   1.062
10796TIP3    H232334   4.601   4.055   0.938
10797TIP3   OH232335   0.446   4.668   5.283
10797TIP3    H132336   0.373   4.728   5.293
10797TIP3    H232337   0.406   4.581   5.283
10798TIP3   OH232338   0.478   4.265   6.233
10798TIP3    H132339   0.432   4.283   6.315
10798TIP3    H232340   0.534   4.341   6.220
10799TIP3   OH232341   0.585   0.741   0.797
10799TIP3    H132342   0.677   0.765   0.809
10799TIP3    H232343   0.551   0.732   0.886
10800TIP3   OH232344   7.243   4.154   0.825
10800TIP3    H132345   7.186   4.220   0.863
10800TIP3    H232346   7.251   4.087   0.892
10801TIP3   OH232347   6.243   5.077   3.155
10801TIP3    H132348   6.238   4.982   3.157
10801TIP3    H232349   6.245   5.099   3.062
10802TIP3   OH232350   5.024   0.272   1.670
10802TIP3    H132351   5.034   0.241   1.760
10802TIP3    H232352   5.083   0.217   1.618
10803TIP3   OH232353   6.193   0.646   4.089
10803TIP3    H132354   6.267   0.600   4.130
10803TIP3    H232355   6.217   0.654   3.997
10804TIP3   OH232356   6.852   7.757   0.630
10804TIP3    H132357   6.771   7.749   0.680
10804TIP3    H232358   6.922   7.747   0.695
10805TIP3   OH232359   8.274   5.530   5.503
10805TIP3    H132360   8.229   5.604   5.462
10805TIP3    H232361   8.228   5.517   5.586
10806TIP3   OH232362   1.465   6.001   2.135
10806TIP3    H132363   1.555   6.033   2.137
10806TIP3    H232364   1.466   5.929   2.072
10807TIP3   OH232365   5.770   2.388   0.719
10807TIP3    H132366   5.707   2.437   0.665
10807TIP3    H232367   5.855   2.425   0.695
10808TIP3   OH232368   6.676   1.284   1.055
10808TIP3    H132369   6.616   1.359   1.052
10808TIP3    H232370   6.731   1.301   1.132
10809TIP3   OH232371   3.722   1.634   3.301
10809TIP3    H132372   3.780   1.674   3.365
10809TIP3    H232373   3.781   1.595   3.237
10810TIP3   OH232374   5.549   1.833   0.595
10810TIP3    H132375   5.557   1.893   0.521
10810TIP3    H232376   5.548   1.889   0.672
10811TIP3   OH232377   6.543   7.531   1.495
10811TIP3    H132378   6.581   7.444   1.506
10811TIP3    H232379   6.542   7.568   1.583
10812TIP3   OH232380   5.967   5.111   2.147
10812TIP3    H132381   5.925   5.129   2.063
10812TIP3    H232382   6.057   5.086   2.124
10813TIP3   OH232383   1.771   4.991   4.325
10813TIP3    H132384   1.769   5.019   4.234
10813TIP3    H232385   1.863   4.976   4.344
10814TIP3   OH232386   1.104   1.619   2.580
10814TIP3    H132387   1.101   1.604   2.485
10814TIP3    H232388   1.179   1.568   2.610
10815TIP3   OH232389   7.527   5.753   5.334
10815TIP3    H132390   7.465   5.824   5.316
10815TIP3    H232391   7.574   5.740   5.252
10816TIP3   OH232392   4.520   1.581   2.430
10816TIP3    H132393   4.588   1.631   2.476
10816TIP3    H232394   4.509   1.627   2.347
10817TIP3   OH232395   2.866   2.457   6.385
10817TIP3    H132396   2.910   2.391   6.331
10817TIP3    H232397   2.804   2.499   6.326
10818TIP3   OH232398   5.645   0.700   6.336
10818TIP3    H132399   5.632   0.709   6.242
10818TIP3    H232400   5.589   0.626   6.360
10819TIP3   OH232401   0.602   1.934   5.450
10819TIP3    H132402   0.635   1.932   5.360
10819TIP3    H232403   0.514   1.972   5.442
10820TIP3   OH232404   1.351   7.346   5.874
10820TIP3    H132405   1.305   7.428   5.855
10820TIP3    H232406   1.377   7.355   5.966
10821TIP3   OH232407   3.899   3.968   0.388
10821TIP3    H132408   3.873   3.924   0.308
10821TIP3    H232409   3.856   4.054   0.384
10822TIP3   OH232410   2.420   5.273   5.795
10822TIP3    H132411   2.421   5.177   5.786
10822TIP3    H232412   2.342   5.300   5.747
10823TIP3   OH232413   5.553   1.908   3.592
10823TIP3    H132414   5.598   1.989   3.617
10823TIP3    H232415   5.581   1.892   3.501
10824TIP3   OH232416   7.238   2.788   2.340
10824TIP3    H132417   7.334   2.780   2.336
10824TIP3    H232418   7.215   2.750   2.425
10825TIP3   OH232419   5.152   4.599   0.764
10825TIP3    H132420   5.088   4.530   0.745
10825TIP3    H232421   5.100   4.679   0.767
10826TIP3   OH232422   5.118   6.892   6.241
10826TIP3    H132423   5.050   6.848   6.291
10826TIP3    H232424   5.200   6.854   6.272
10827TIP3   OH232425   2.518   4.076   6.404
10827TIP3    H132426   2.573   4.039   6.334
10827TIP3    H232427   2.530   4.016   6.477
10828TIP3   OH232428   1.776   2.538   0.115
10828TIP3    H132429   1.799   2.630   0.124
10828TIP3    H232430   1.857   2.494   0.090
10829TIP3   OH232431   5.124   4.247   2.599
10829TIP3    H132432   5.124   4.172   2.658
10829TIP3    H232433   5.041   4.290   2.615
10830TIP3   OH232434   2.637   7.345   0.702
10830TIP3    H132435   2.571   7.387   0.647
10830TIP3    H232436   2.605   7.358   0.792
10831TIP3   OH232437   7.971   5.797   3.768
10831TIP3    H132438   7.959   5.713   3.723
10831TIP3    H232439   7.893   5.805   3.824
10832TIP3   OH232440   0.556   3.331   4.959
10832TIP3    H132441   0.510   3.394   5.015
10832TIP3    H232442   0.603   3.275   5.020
10833TIP3   OH232443   7.676   2.913   6.759
10833TIP3    H132444   7.702   2.925   6.668
10833TIP3    H232445   7.758   2.906   6.807
10834TIP3   OH232446   6.973   1.403   3.290
10834TIP3    H132447   6.908   1.427   3.356
10834TIP3    H232448   6.954   1.459   3.215
10835TIP3   OH232449   3.949   0.246   3.059
10835TIP3    H132450   3.878   0.223   3.118
10835TIP3    H232451   3.968   0.165   3.011
10836TIP3   OH232452   1.655   5.417   3.131
10836TIP3    H132453   1.569   5.455   3.146
10836TIP3    H232454   1.699   5.423   3.216
10837TIP3   OH232455   7.472   0.713   1.534
10837TIP3    H132456   7.380   0.689   1.540
10837TIP3    H232457   7.484   0.778   1.603
10838TIP3   OH232458   3.155   6.558   0.835
10838TIP3    H132459   3.179   6.509   0.756
10838TIP3    H232460   3.192   6.507   0.907
10839TIP3   OH232461   1.854   7.253   5.488
10839TIP3    H132462   1.950   7.255   5.490
10839TIP3    H232463   1.828   7.344   5.500
10840TIP3   OH232464   2.823   0.436   2.992
10840TIP3    H132465   2.826   0.504   3.059
10840TIP3    H232466   2.731   0.430   2.968
10841TIP3   OH232467   3.251   7.216   0.575
10841TIP3    H132468   3.206   7.157   0.515
10841TIP3    H232469   3.286   7.159   0.643
10842TIP3   OH232470   0.540   4.271   0.550
10842TIP3    H132471   0.464   4.239   0.599
10842TIP3    H232472   0.514   4.262   0.458
10843TIP3   OH232473   4.196   3.318   2.854
10843TIP3    H132474   4.179   3.394   2.910
10843TIP3    H232475   4.264   3.269   2.900
10844TIP3   OH232476   4.167   0.238   3.483
10844TIP3    H132477   4.176   0.144   3.497
10844TIP3    H232478   4.252   0.267   3.451
10845TIP3   OH232479   0.967   3.662   1.507
10845TIP3    H132480   1.057   3.682   1.532
10845TIP3    H232481   0.975   3.611   1.427
10846TIP3   OH232482   0.186   3.133   6.673
10846TIP3    H132483   0.214   3.058   6.724
10846TIP3    H232484   0.093   3.143   6.694
10847TIP3   OH232485   5.814   2.555   3.767
10847TIP3    H132486   5.784   2.626   3.710
10847TIP3    H232487   5.899   2.530   3.731
10848TIP3   OH232488   2.654   1.889   6.748
10848TIP3    H132489   2.709   1.904   6.824
10848TIP3    H232490   2.709   1.911   6.673
10849TIP3   OH232491   0.549   5.290   4.248
10849TIP3    H132492   0.464   5.287   4.293
10849TIP3    H232493   0.606   5.338   4.309
10850TIP3   OH232494   1.606   5.803   5.931
10850TIP3    H132495   1.671   5.749   5.975
10850TIP3    H232496   1.531   5.744   5.918
10851TIP3   OH232497   6.234   6.840   4.899
10851TIP3    H132498   6.243   6.746   4.885
10851TIP3    H232499   6.307   6.879   4.850
10852TIP3   OH232500   1.523   1.522   5.893
10852TIP3    H132501   1.460   1.593   5.879
10852TIP3    H232502   1.578   1.554   5.965
10853TIP3   OH232503   3.465   5.576   5.054
10853TIP3    H132504   3.497   5.551   5.141
10853TIP3    H232505   3.543   5.607   5.007
10854TIP3   OH232506   4.999   0.817   0.807
10854TIP3    H132507   5.066   0.772   0.755
10854TIP3    H232508   4.917   0.795   0.764
10855TIP3   OH232509   0.369   2.905   6.750
10855TIP3    H132510   0.452   2.948   6.771
10855TIP3    H232511   0.388   2.812   6.759
10856TIP3   OH232512   5.515   0.111   4.332
10856TIP3    H132513   5.448   0.046   4.356
10856TIP3    H232514   5.590   0.090   4.387
10857TIP3   OH232515   0.384   4.049   4.751
10857TIP3    H132516   0.366   4.111   4.822
10857TIP3    H232517   0.310   3.987   4.755
10858TIP3   OH232518   0.423   2.631   6.718
10858TIP3    H132519   0.353   2.604   6.658
10858TIP3    H232520   0.406   2.580   6.797
10859TIP3   OH232521   1.346   2.584   2.899
10859TIP3    H132522   1.416   2.567   2.961
10859TIP3    H232523   1.290   2.506   2.903
10860TIP3   OH232524   2.208   4.070   4.333
10860TIP3    H132525   2.245   4.158   4.334
10860TIP3    H232526   2.218   4.040   4.243
10861TIP3   OH232527   5.383   6.881   5.160
10861TIP3    H132528   5.416   6.887   5.070
10861TIP3    H232529   5.334   6.799   5.161
10862TIP3   OH232530   4.803   2.037   3.587
10862TIP3    H132531   4.709   2.026   3.601
10862TIP3    H232532   4.812   2.052   3.493
10863TIP3   OH232533   4.937   0.078   5.887
10863TIP3    H132534   4.998   0.149   5.867
10863TIP3    H232535   4.864   0.122   5.931
10864TIP3   OH232536   7.890   5.068   3.823
10864TIP3    H132537   7.893   5.150   3.773
10864TIP3    H232538   7.797   5.045   3.824
10865TIP3   OH232539   6.349   7.531   5.606
10865TIP3    H132540   6.403   7.453   5.591
10865TIP3    H232541   6.410   7.604   5.597
10866TIP3   OH232542   8.167   5.345   0.886
10866TIP3    H132543   8.120   5.401   0.825
10866TIP3    H232544   8.149   5.382   0.972
10867TIP3   OH232545   1.481   2.631   3.959
10867TIP3    H132546   1.527   2.613   4.041
10867TIP3    H232547   1.524   2.575   3.894
10868TIP3   OH232548   0.662   4.413   2.403
10868TIP3    H132549   0.722   4.342   2.380
10868TIP3    H232550   0.716   4.492   2.395
10869TIP3   OH232551   2.788   0.407   6.782
10869TIP3    H132552   2.727   0.384   6.713
10869TIP3    H232553   2.791   0.503   6.781
10870TIP3   OH232554   2.046   7.277   5.768
10870TIP3    H132555   2.067   7.286   5.675
10870TIP3    H232556   2.032   7.183   5.780
10871TIP3   OH232557   3.183   4.082   1.640
10871TIP3    H132558   3.145   4.102   1.555
10871TIP3    H232559   3.150   3.995   1.661
10872TIP3   OH232560   7.908   7.500   2.169
10872TIP3    H132561   7.838   7.530   2.111
10872TIP3    H232562   7.964   7.446   2.114
10873TIP3   OH232563   7.006   5.431   4.453
10873TIP3    H132564   7.057   5.497   4.405
10873TIP3    H232565   6.947   5.482   4.509
10874TIP3   OH232566   3.213   7.024   5.379
10874TIP3    H132567   3.145   7.087   5.355
10874TIP3    H232568   3.190   6.945   5.330
10875TIP3   OH232569   5.458   7.628   6.720
10875TIP3    H132570   5.513   7.702   6.743
10875TIP3    H232571   5.386   7.630   6.783
10876TIP3   OH232572   4.614   1.498   3.456
10876TIP3    H132573   4.521   1.515   3.471
10876TIP3    H232574   4.652   1.584   3.437
10877TIP3   OH232575   8.162   0.066   0.325
10877TIP3    H132576   8.097   0.133   0.349
10877TIP3    H232577   8.232   0.115   0.283
10878TIP3   OH232578   0.482   6.652   6.356
10878TIP3    H132579   0.530   6.704   6.290
10878TIP3    H232580   0.549   6.596   6.395
10879TIP3   OH232581   1.576   3.837   1.749
10879TIP3    H132582   1.513   3.873   1.687
10879TIP3    H232583   1.527   3.829   1.831
10880TIP3   OH232584   8.000   5.327   6.657
10880TIP3    H132585   8.003   5.422   6.666
10880TIP3    H232586   8.089   5.298   6.677
10881TIP3   OH232587   1.703   1.402   3.642
10881TIP3    H132588   1.655   1.484   3.637
10881TIP3    H232589   1.791   1.428   3.670
10882TIP3   OH232590   4.004   3.715   0.503
10882TIP3    H132591   3.959   3.775   0.444
10882TIP3    H232592   4.081   3.687   0.454
10883TIP3   OH232593   4.410   5.250   6.261
10883TIP3    H132594   4.417   5.310   6.334
10883TIP3    H232595   4.354   5.179   6.293
10884TIP3   OH232596   4.517   2.916   6.498
10884TIP3    H132597   4.431   2.935   6.534
10884TIP3    H232598   4.525   2.821   6.506
10885TIP3   OH232599   4.768   7.121   0.244
10885TIP3    H132600   4.696   7.059   0.232
10885TIP3    H232601   4.845   7.067   0.255
10886TIP3   OH232602   5.132   3.168   1.465
10886TIP3    H132603   5.193   3.149   1.536
10886TIP3    H232604   5.051   3.195   1.509
10887TIP3   OH232605   1.149   1.262   1.603
10887TIP3    H132606   1.221   1.319   1.577
10887TIP3    H232607   1.071   1.299   1.561
10888TIP3   OH232608   3.620   3.993   2.946
10888TIP3    H132609   3.588   3.940   3.020
10888TIP3    H232610   3.575   4.076   2.954
10889TIP3   OH232611   4.618   2.520   0.801
10889TIP3    H132612   4.613   2.509   0.706
10889TIP3    H232613   4.712   2.512   0.821
10890TIP3   OH232614   2.176   2.883   5.090
10890TIP3    H132615   2.174   2.975   5.063
10890TIP3    H232616   2.268   2.865   5.107
10891TIP3   OH232617   1.406   6.489   5.965
10891TIP3    H132618   1.485   6.485   5.912
10891TIP3    H232619   1.377   6.580   5.956
10892TIP3   OH232620   4.432   1.014   5.917
10892TIP3    H132621   4.420   1.024   5.823
10892TIP3    H232622   4.473   1.096   5.945
10893TIP3   OH232623   2.851   3.933   6.712
10893TIP3    H132624   2.871   3.843   6.686
10893TIP3    H232625   2.910   3.950   6.786
10894TIP3   OH232626   8.235   4.153   3.362
10894TIP3    H132627   8.236   4.237   3.407
10894TIP3    H232628   8.320   4.149   3.317
10895TIP3   OH232629   2.191   0.910   4.242
10895TIP3    H132630   2.192   0.950   4.329
10895TIP3    H232631   2.269   0.856   4.240
10896TIP3   OH232632   4.865   2.886   3.825
10896TIP3    H132633   4.799   2.821   3.802
10896TIP3    H232634   4.941   2.835   3.854
10897TIP3   OH232635   6.492   1.949   3.817
10897TIP3    H132636   6.452   1.878   3.868
10897TIP3    H232637   6.507   1.911   3.730
10898TIP3   OH232638   5.584   7.440   3.395
10898TIP3    H132639   5.636   7.457   3.317
10898TIP3    H232640   5.627   7.366   3.437
10899TIP3   OH232641   4.552   0.551   4.022
10899TIP3    H132642   4.614   0.569   3.952
10899TIP3    H232643   4.587   0.472   4.065
10900TIP3   OH232644   4.536   3.515   6.444
10900TIP3    H132645   4.544   3.524   6.349
10900TIP3    H232646   4.583   3.591   6.479
10901TIP3   OH232647   1.580   0.750   3.019
10901TIP3    H132648   1.618   0.663   3.033
10901TIP3    H232649   1.521   0.739   2.944
10902TIP3   OH232650   1.082   4.708   6.339
10902TIP3    H132651   1.115   4.713   6.249
10902TIP3    H232652   1.141   4.764   6.389
10903TIP3   OH232653   4.331   5.156   0.152
10903TIP3    H132654   4.348   5.211   0.075
10903TIP3    H232655   4.407   5.171   0.208
10904TIP3   OH232656   3.715   5.157   3.576
10904TIP3    H132657   3.773   5.185   3.506
10904TIP3    H232658   3.673   5.078   3.543
10905TIP3   OH232659   1.461   1.479   4.777
10905TIP3    H132660   1.459   1.384   4.762
10905TIP3    H232661   1.555   1.499   4.785
10906TIP3   OH232662   1.480   1.732   4.453
10906TIP3    H132663   1.501   1.824   4.441
10906TIP3    H232664   1.389   1.724   4.424
10907TIP3   OH232665   3.333   4.414   3.937
10907TIP3    H132666   3.413   4.467   3.933
10907TIP3    H232667   3.279   4.448   3.865
10908TIP3   OH232668   2.389   6.177   5.380
10908TIP3    H132669   2.433   6.260   5.361
10908TIP3    H232670   2.459   6.120   5.413
10909TIP3   OH232671   7.200   6.217   4.158
10909TIP3    H132672   7.233   6.129   4.144
10909TIP3    H232673   7.279   6.272   4.162
10910TIP3   OH232674   4.117   4.749   2.695
10910TIP3    H132675   4.036   4.703   2.718
10910TIP3    H232676   4.183   4.680   2.693
10911TIP3   OH232677   1.700   3.803   6.461
10911TIP3    H132678   1.769   3.869   6.457
10911TIP3    H232679   1.657   3.818   6.546
10912TIP3   OH232680   3.789   3.842   0.152
10912TIP3    H132681   3.804   3.757   0.194
10912TIP3    H232682   3.695   3.843   0.133
10913TIP3   OH232683   1.741   0.027   4.306
10913TIP3    H132684   1.706   0.057   4.390
10913TIP3    H232685   1.822   0.077   4.295
10914TIP3   OH232686   0.772   1.579   2.557
10914TIP3    H132687   0.695   1.635   2.567
10914TIP3    H232688   0.819   1.588   2.640
10915TIP3   OH232689   7.295   5.265   4.530
10915TIP3    H132690   7.266   5.320   4.603
10915TIP3    H232691   7.331   5.327   4.466
10916TIP3   OH232692   7.180   2.816   0.748
10916TIP3    H132693   7.223   2.811   0.663
10916TIP3    H232694   7.086   2.819   0.726
10917TIP3   OH232695   7.922   6.629   3.542
10917TIP3    H132696   7.957   6.571   3.609
10917TIP3    H232697   7.988   6.628   3.473
10918TIP3   OH232698   6.201   2.240   2.391
10918TIP3    H132699   6.164   2.247   2.303
10918TIP3    H232700   6.292   2.265   2.381
10919TIP3   OH232701   1.097   3.067   3.473
10919TIP3    H132702   1.028   3.004   3.451
10919TIP3    H232703   1.103   3.123   3.396
10920TIP3   OH232704   7.232   6.841   6.587
10920TIP3    H132705   7.266   6.813   6.502
10920TIP3    H232706   7.137   6.836   6.578
10921TIP3   OH232707   2.473   7.041   6.153
10921TIP3    H132708   2.425   6.986   6.090
10921TIP3    H232709   2.459   6.999   6.237
10922TIP3   OH232710   2.317   4.743   0.350
10922TIP3    H132711   2.335   4.692   0.429
10922TIP3    H232712   2.399   4.741   0.302
10923TIP3   OH232713   5.233   1.690   0.779
10923TIP3    H132714   5.140   1.686   0.803
10923TIP3    H232715   5.246   1.618   0.718
10924TIP3   OH232716   4.892   1.737   5.663
10924TIP3    H132717   4.800   1.720   5.645
10924TIP3    H232718   4.897   1.745   5.758
10925TIP3   OH232719   1.283   5.426   2.246
10925TIP3    H132720   1.231   5.502   2.220
10925TIP3    H232721   1.227   5.378   2.307
10926TIP3   OH232722   6.072   0.289   1.888
10926TIP3    H132723   6.069   0.384   1.885
10926TIP3    H232724   6.099   0.269   1.978
10927TIP3   OH232725   7.725   0.420   4.551
10927TIP3    H132726   7.695   0.329   4.555
10927TIP3    H232727   7.720   0.442   4.458
10928TIP3   OH232728   1.529   7.371   5.592
10928TIP3    H132729   1.541   7.444   5.531
10928TIP3    H232730   1.524   7.411   5.678
10929TIP3   OH232731   4.733   1.798   0.116
10929TIP3    H132732   4.766   1.787   0.027
10929TIP3    H232733   4.811   1.813   0.169
10930TIP3   OH232734   4.730   0.132   6.271
10930TIP3    H132735   4.760   0.056   6.222
10930TIP3    H232736   4.682   0.095   6.345
10931TIP3   OH232737   2.876   2.538   4.893
10931TIP3    H132738   2.861   2.472   4.960
10931TIP3    H232739   2.872   2.621   4.940
10932TIP3   OH232740   6.833   5.202   5.111
10932TIP3    H132741   6.761   5.167   5.059
10932TIP3    H232742   6.821   5.297   5.110
10933TIP3   OH232743   7.370   5.234   1.793
10933TIP3    H132744   7.343   5.283   1.871
10933TIP3    H232745   7.454   5.195   1.817
10934TIP3   OH232746   0.568   1.856   0.188
10934TIP3    H132747   0.482   1.884   0.158
10934TIP3    H232748   0.563   1.760   0.189
10935TIP3   OH232749   2.780   3.402   2.891
10935TIP3    H132750   2.772   3.473   2.826
10935TIP3    H232751   2.735   3.328   2.851
10936TIP3   OH232752   5.898   5.429   6.615
10936TIP3    H132753   5.871   5.356   6.559
10936TIP3    H232754   5.990   5.445   6.590
10937TIP3   OH232755   6.819   2.468   2.002
10937TIP3    H132756   6.731   2.431   2.003
10937TIP3    H232757   6.835   2.496   2.092
10938TIP3   OH232758   5.004   0.315   1.240
10938TIP3    H132759   4.946   0.391   1.240
10938TIP3    H232760   5.065   0.330   1.168
10939TIP3   OH232761   5.775   3.778   1.467
10939TIP3    H132762   5.857   3.779   1.516
10939TIP3    H232763   5.794   3.727   1.389
10940TIP3   OH232764   4.190   4.482   1.114
10940TIP3    H132765   4.137   4.514   1.187
10940TIP3    H232766   4.198   4.388   1.131
10941TIP3   OH232767   0.823   2.452   5.416
10941TIP3    H132768   0.783   2.390   5.477
10941TIP3    H232769   0.916   2.428   5.414
10942TIP3   OH232770   3.690   7.742   6.167
10942TIP3    H132771   3.625   7.691   6.119
10942TIP3    H232772   3.658   7.833   6.161
10943TIP3   OH232773   0.530   1.623   3.055
10943TIP3    H132774   0.476   1.665   2.988
10943TIP3    H232775   0.467   1.591   3.119
10944TIP3   OH232776   2.466   2.790   2.305
10944TIP3    H132777   2.503   2.753   2.225
10944TIP3    H232778   2.530   2.855   2.333
10945TIP3   OH232779   4.405   5.861   4.753
10945TIP3    H132780   4.377   5.907   4.675
10945TIP3    H232781   4.495   5.834   4.735
10946TIP3   OH232782   2.313   6.164   5.688
10946TIP3    H132783   2.274   6.200   5.768
10946TIP3    H232784   2.240   6.159   5.626
10947TIP3   OH232785   5.449   5.460   2.672
10947TIP3    H132786   5.369   5.466   2.725
10947TIP3    H232787   5.485   5.549   2.673
10948TIP3   OH232788   2.106   5.451   1.144
10948TIP3    H132789   2.135   5.404   1.222
10948TIP3    H232790   2.038   5.510   1.176
10949TIP3   OH232791   4.202   3.937   0.951
10949TIP3    H132792   4.193   3.950   0.856
10949TIP3    H232793   4.203   3.842   0.962
10950TIP3   OH232794   4.613   6.798   5.344
10950TIP3    H132795   4.534   6.748   5.327
10950TIP3    H232796   4.584   6.889   5.346
10951TIP3   OH232797   0.220   7.815   3.247
10951TIP3    H132798   0.247   7.794   3.336
10951TIP3    H232799   0.125   7.816   3.250
10952TIP3   OH232800   5.576   5.111   2.788
10952TIP3    H132801   5.539   5.088   2.873
10952TIP3    H232802   5.558   5.204   2.779
10953TIP3   OH232803   1.542   6.009   3.147
10953TIP3    H132804   1.551   6.104   3.137
10953TIP3    H232805   1.482   5.997   3.220
10954TIP3   OH232806   6.396   3.837   3.856
10954TIP3    H132807   6.457   3.765   3.839
10954TIP3    H232808   6.414   3.862   3.946
10955TIP3   OH232809   4.795   1.819   6.448
10955TIP3    H132810   4.769   1.882   6.515
10955TIP3    H232811   4.835   1.872   6.379
10956TIP3   OH232812   6.741   7.553   0.282
10956TIP3    H132813   6.823   7.590   0.315
10956TIP3    H232814   6.680   7.558   0.355
10957TIP3   OH232815   1.567   4.106   0.725
10957TIP3    H132816   1.487   4.091   0.776
10957TIP3    H232817   1.601   4.189   0.759
10958TIP3   OH232818   1.145   1.854   2.131
10958TIP3    H132819   1.178   1.816   2.212
10958TIP3    H232820   1.065   1.804   2.112
10959TIP3   OH232821   6.710   0.696   6.117
10959TIP3    H132822   6.621   0.665   6.104
10959TIP3    H232823   6.730   0.671   6.208
10960TIP3   OH232824   3.870   3.407   6.353
10960TIP3    H132825   3.832   3.471   6.412
10960TIP3    H232826   3.955   3.444   6.329
10961TIP3   OH232827   4.912   6.668   1.962
10961TIP3    H132828   4.834   6.614   1.947
10961TIP3    H232829   4.967   6.614   2.018
10962TIP3   OH232830   1.019   7.280   4.032
10962TIP3    H132831   1.093   7.223   4.015
10962TIP3    H232832   0.947   7.242   3.982
10963TIP3   OH232833   1.390   2.107   0.663
10963TIP3    H132834   1.454   2.177   0.675
10963TIP3    H232835   1.380   2.069   0.750
10964TIP3   OH232836   2.550   3.726   0.438
10964TIP3    H132837   2.581   3.670   0.509
10964TIP3    H232838   2.455   3.716   0.440
10965TIP3   OH232839   0.723   1.450   5.991
10965TIP3    H132840   0.807   1.417   6.024
10965TIP3    H232841   0.734   1.545   5.987
10966TIP3   OH232842   6.140   1.626   1.930
10966TIP3    H132843   6.107   1.549   1.884
10966TIP3    H232844   6.225   1.643   1.890
10967TIP3   OH232845   2.252   4.350   3.176
10967TIP3    H132846   2.310   4.426   3.182
10967TIP3    H232847   2.255   4.325   3.083
10968TIP3   OH232848   4.272   3.352   1.534
10968TIP3    H132849   4.285   3.445   1.515
10968TIP3    H232850   4.288   3.308   1.450
10969TIP3   OH232851   5.589   6.092   2.617
10969TIP3    H132852   5.589   6.026   2.548
10969TIP3    H232853   5.608   6.174   2.571
10970TIP3   OH232854   1.842   2.723   4.125
10970TIP3    H132855   1.835   2.732   4.030
10970TIP3    H232856   1.783   2.789   4.160
10971TIP3   OH232857   7.085   0.894   3.341
10971TIP3    H132858   7.086   0.988   3.327
10971TIP3    H232859   7.124   0.857   3.262
10972TIP3   OH232860   6.607   1.051   4.173
10972TIP3    H132861   6.563   0.998   4.240
10972TIP3    H232862   6.639   1.128   4.220
10973TIP3   OH232863   3.892   5.178   4.737
10973TIP3    H132864   3.968   5.225   4.770
10973TIP3    H232865   3.828   5.247   4.717
10974TIP3   OH232866   3.724   4.614   3.353
10974TIP3    H132867   3.641   4.660   3.342
10974TIP3    H232868   3.778   4.673   3.406
10975TIP3   OH232869   7.022   2.477   1.520
10975TIP3    H132870   7.039   2.566   1.488
10975TIP3    H232871   7.096   2.459   1.579
10976TIP3   OH232872   5.850   5.302   1.776
10976TIP3    H132873   5.808   5.262   1.852
10976TIP3    H232874   5.941   5.313   1.802
10977TIP3   OH232875   0.344   6.299   3.922
10977TIP3    H132876   0.438   6.303   3.942
10977TIP3    H232877   0.303   6.280   4.007
10978TIP3   OH232878   0.170   1.517   3.935
10978TIP3    H132879   0.238   1.519   4.004
10978TIP3    H232880   0.203   1.453   3.872
10979TIP3   OH232881   1.736   3.386   3.031
10979TIP3    H132882   1.675   3.423   3.094
10979TIP3    H232883   1.724   3.291   3.039
10980TIP3   OH232884   2.772   6.338   4.490
10980TIP3    H132885   2.852   6.388   4.479
10980TIP3    H232886   2.782   6.296   4.576
10981TIP3   OH232887   3.870   4.574   2.790
10981TIP3    H132888   3.885   4.515   2.716
10981TIP3    H232889   3.871   4.517   2.866
10982TIP3   OH232890   5.461   4.785   2.145
10982TIP3    H132891   5.501   4.760   2.062
10982TIP3    H232892   5.394   4.849   2.121
10983TIP3   OH232893   2.866   7.536   1.633
10983TIP3    H132894   2.942   7.517   1.687
10983TIP3    H232895   2.858   7.632   1.636
10984TIP3   OH232896   0.215   7.708   4.805
10984TIP3    H132897   0.206   7.742   4.894
10984TIP3    H232898   0.196   7.783   4.748
10985TIP3   OH232899   3.746   3.184   5.934
10985TIP3    H132900   3.809   3.162   6.003
10985TIP3    H232901   3.779   3.140   5.856
10986TIP3   OH232902   0.063   5.696   6.621
10986TIP3    H132903   0.124   5.623   6.634
10986TIP3    H232904   0.079   5.723   6.530
10987TIP3   OH232905   4.605   4.087   3.822
10987TIP3    H132906   4.589   4.180   3.833
10987TIP3    H232907   4.602   4.052   3.911
10988TIP3   OH232908   4.016   2.555   0.500
10988TIP3    H132909   4.104   2.586   0.520
10988TIP3    H232910   4.030   2.479   0.443
10989TIP3   OH232911   2.220   7.081   2.196
10989TIP3    H132912   2.310   7.096   2.167
10989TIP3    H232913   2.229   7.020   2.269
10990TIP3   OH232914   2.429   0.970   3.835
10990TIP3    H132915   2.345   1.009   3.859
10990TIP3    H232916   2.494   1.026   3.876
10991TIP3   OH232917   1.985   6.734   6.039
10991TIP3    H132918   2.007   6.807   6.096
10991TIP3    H232919   1.905   6.697   6.078
10992TIP3   OH232920   3.273   7.205   4.018
10992TIP3    H132921   3.189   7.199   3.973
10992TIP3    H232922   3.331   7.249   3.955
10993TIP3   OH232923   2.138   4.000   6.227
10993TIP3    H132924   2.109   4.015   6.137
10993TIP3    H232925   2.220   3.952   6.218
10994TIP3   OH232926   3.491   4.091   1.952
10994TIP3    H132927   3.526   4.178   1.974
10994TIP3    H232928   3.401   4.108   1.925
10995TIP3   OH232929   0.229   5.271   3.634
10995TIP3    H132930   0.206   5.335   3.567
10995TIP3    H232931   0.177   5.295   3.710
10996TIP3   OH232932   2.578   1.073   0.708
10996TIP3    H132933   2.605   1.117   0.627
10996TIP3    H232934   2.492   1.036   0.687
10997TIP3   OH232935   5.933   2.724   1.701
10997TIP3    H132936   5.990   2.727   1.778
10997TIP3    H232937   5.846   2.709   1.738
10998TIP3   OH232938   7.080   5.978   4.388
10998TIP3    H132939   7.174   5.988   4.373
10998TIP3    H232940   7.039   6.029   4.318
10999TIP3   OH232941   5.553   1.409   5.063
10999TIP3    H132942   5.472   1.361   5.083
10999TIP3    H232943   5.527   1.501   5.065
11000TIP3   OH232944   5.689   1.134   0.763
11000TIP3    H132945   5.682   1.207   0.702
11000TIP3    H232946   5.622   1.072   0.734
11001TIP3   OH232947   7.880   3.144   6.077
11001TIP3    H132948   7.839   3.228   6.096
11001TIP3    H232949   7.937   3.160   6.002
11002TIP3   OH232950   3.566   7.819   4.419
11002TIP3    H132951   3.576   7.727   4.442
11002TIP3    H232952   3.481   7.844   4.455
11003TIP3   OH232953   2.217   5.477   5.269
11003TIP3    H132954   2.180   5.456   5.183
11003TIP3    H232955   2.299   5.522   5.250
11004TIP3   OH232956   7.195   7.548   2.728
11004TIP3    H132957   7.137   7.581   2.659
11004TIP3    H232958   7.279   7.591   2.712
11005TIP3   OH232959   3.262   6.406   1.006
11005TIP3    H132960   3.258   6.368   1.093
11005TIP3    H232961   3.353   6.396   0.979
11006TIP3   OH232962   8.086   6.265   5.246
11006TIP3    H132963   8.067   6.173   5.265
11006TIP3    H232964   8.093   6.306   5.332
11007TIP3   OH232965   6.707   3.682   1.429
11007TIP3    H132966   6.708   3.771   1.396
11007TIP3    H232967   6.616   3.653   1.418
11008TIP3   OH232968   7.591   2.663   6.706
11008TIP3    H132969   7.550   2.668   6.620
11008TIP3    H232970   7.617   2.753   6.726
11009TIP3   OH232971   5.314   3.414   4.874
11009TIP3    H132972   5.302   3.458   4.958
11009TIP3    H232973   5.387   3.353   4.889
11010TIP3   OH232974   0.035   4.669   6.649
11010TIP3    H132975  -0.018   4.654   6.727
11010TIP3    H232976   0.043   4.582   6.609
11011TIP3   OH232977   5.412   1.129   6.022
11011TIP3    H132978   5.364   1.089   6.094
11011TIP3    H232979   5.501   1.096   6.031
11012TIP3   OH232980   5.911   3.053   3.914
11012TIP3    H132981   5.940   3.004   3.837
11012TIP3    H232982   5.857   2.991   3.962
11013TIP3   OH232983   2.605   4.029   2.644
11013TIP3    H132984   2.638   4.079   2.569
11013TIP3    H232985   2.637   3.940   2.630
11014TIP3   OH232986   0.379   7.414   1.405
11014TIP3    H132987   0.383   7.501   1.367
11014TIP3    H232988   0.440   7.362   1.353
11015TIP3   OH232989   5.684   0.860   4.800
11015TIP3    H132990   5.660   0.949   4.826
11015TIP3    H232991   5.751   0.833   4.862
11016TIP3   OH232992   5.891   2.497   1.372
11016TIP3    H132993   5.977   2.520   1.409
11016TIP3    H232994   5.893   2.535   1.284
11017TIP3   OH232995   7.130   7.173   1.760
11017TIP3    H132996   7.037   7.193   1.757
11017TIP3    H232997   7.170   7.251   1.801
11018TIP3   OH232998   6.237   0.478   1.611
11018TIP3    H132999   6.281   0.548   1.562
11018TIP3    H233000   6.308   0.426   1.648
11019TIP3   OH233001   0.516   7.108   6.021
11019TIP3    H133002   0.545   7.162   5.948
11019TIP3    H233003   0.548   7.020   6.000
11020TIP3   OH233004   2.068   0.480   0.788
11020TIP3    H133005   2.063   0.386   0.805
11020TIP3    H233006   1.978   0.510   0.793
11021TIP3   OH233007   3.540   6.829   1.248
11021TIP3    H133008   3.617   6.840   1.304
11021TIP3    H233009   3.465   6.842   1.307
11022TIP3   OH233010   2.254   4.712   1.289
11022TIP3    H133011   2.327   4.739   1.344
11022TIP3    H233012   2.288   4.640   1.236
11023TIP3   OH233013   1.839   7.275   1.482
11023TIP3    H133014   1.910   7.253   1.543
11023TIP3    H233015   1.826   7.195   1.432
11024TIP3   OH233016   0.966   5.552   6.456
11024TIP3    H133017   1.059   5.575   6.451
11024TIP3    H233018   0.945   5.561   6.549
11025TIP3   OH233019   5.861   1.965   3.600
11025TIP3    H133020   5.945   1.976   3.643
11025TIP3    H233021   5.855   2.038   3.538
11026TIP3   OH233022   0.898   3.399   5.910
11026TIP3    H133023   0.848   3.373   5.987
11026TIP3    H233024   0.938   3.318   5.879
11027TIP3   OH233025   5.788   4.402   1.449
11027TIP3    H133026   5.865   4.355   1.479
11027TIP3    H233027   5.754   4.444   1.528
11028TIP3   OH233028   2.706   0.042   5.395
11028TIP3    H133029   2.782   0.013   5.345
11028TIP3    H233030   2.638  -0.023   5.376
11029TIP3   OH233031   5.596   6.128   1.120
11029TIP3    H133032   5.508   6.165   1.118
11029TIP3    H233033   5.583   6.038   1.148
11030TIP3   OH233034   0.635   2.213   4.551
11030TIP3    H133035   0.703   2.237   4.613
11030TIP3    H233036   0.553   2.239   4.593
11031TIP3   OH233037   1.294   1.090   6.044
11031TIP3    H133038   1.274   1.179   6.016
11031TIP3    H233039   1.291   1.094   6.139
11032TIP3   OH233040   8.053   7.157   5.220
11032TIP3    H133041   8.110   7.143   5.145
11032TIP3    H233042   8.022   7.069   5.244
11033TIP3   OH233043   3.069   5.534   2.465
11033TIP3    H133044   3.153   5.545   2.422
11033TIP3    H233045   3.029   5.459   2.422
11034TIP3   OH233046   2.679   0.808   1.739
11034TIP3    H133047   2.609   0.802   1.674
11034TIP3    H233048   2.759   0.812   1.687
11035TIP3   OH233049   4.708   7.429   2.606
11035TIP3    H133050   4.647   7.486   2.559
11035TIP3    H233051   4.660   7.405   2.686
11036TIP3   OH233052   3.872   0.654   2.773
11036TIP3    H133053   3.781   0.686   2.770
11036TIP3    H233054   3.916   0.701   2.702
11037TIP3   OH233055   5.604   5.736   0.198
11037TIP3    H133056   5.602   5.793   0.274
11037TIP3    H233057   5.697   5.716   0.185
11038TIP3   OH233058   1.872   6.119   4.976
11038TIP3    H133059   1.836   6.185   4.916
11038TIP3    H233060   1.955   6.157   5.006
11039TIP3   OH233061   4.543   3.018   3.829
11039TIP3    H133062   4.607   3.053   3.768
11039TIP3    H233063   4.506   2.942   3.784
11040TIP3   OH233064   8.136   7.248   4.239
11040TIP3    H133065   8.212   7.248   4.180
11040TIP3    H233066   8.173   7.261   4.326
11041TIP3   OH233067   7.227   1.769   1.922
11041TIP3    H133068   7.211   1.708   1.993
11041TIP3    H233069   7.229   1.715   1.843
11042TIP3   OH233070   4.424   0.300   3.439
11042TIP3    H133071   4.439   0.345   3.522
11042TIP3    H233072   4.473   0.350   3.374
11043TIP3   OH233073   0.274   1.247   3.512
11043TIP3    H133074   0.217   1.298   3.455
11043TIP3    H233075   0.348   1.223   3.456
11044TIP3   OH233076   3.756   6.692   2.569
11044TIP3    H133077   3.705   6.615   2.593
11044TIP3    H233078   3.800   6.717   2.650
11045TIP3   OH233079   6.561   0.338   4.360
11045TIP3    H133080   6.500   0.338   4.286
11045TIP3    H233081   6.524   0.276   4.422
11046TIP3   OH233082   7.335   4.636   6.720
11046TIP3    H133083   7.322   4.679   6.635
11046TIP3    H233084   7.314   4.544   6.703
11047TIP3   OH233085   1.783   5.856   4.216
11047TIP3    H133086   1.858   5.914   4.230
11047TIP3    H233087   1.816   5.769   4.238
11048TIP3   OH233088   1.879   6.253   3.713
11048TIP3    H133089   1.942   6.184   3.732
11048TIP3    H233090   1.806   6.208   3.671
11049TIP3   OH233091   2.265   3.224   2.933
11049TIP3    H133092   2.187   3.172   2.916
11049TIP3    H233093   2.255   3.253   3.024
11050TIP3   OH233094   3.580   2.579   0.852
11050TIP3    H133095   3.670   2.612   0.847
11050TIP3    H233096   3.588   2.485   0.838
11051TIP3   OH233097   1.787   7.508   2.831
11051TIP3    H133098   1.746   7.504   2.745
11051TIP3    H233099   1.807   7.417   2.853
11052TIP3   OH233100   0.489   2.254   3.035
11052TIP3    H133101   0.494   2.221   2.946
11052TIP3    H233102   0.444   2.185   3.084
11053TIP3   OH233103   0.120   2.507   4.946
11053TIP3    H133104   0.153   2.583   4.899
11053TIP3    H233105   0.072   2.457   4.880
11054TIP3   OH233106   1.584   1.331   0.257
11054TIP3    H133107   1.510   1.326   0.318
11054TIP3    H233108   1.596   1.241   0.228
11055TIP3   OH233109   2.923   0.965   1.048
11055TIP3    H133110   2.986   0.896   1.070
11055TIP3    H233111   2.966   1.013   0.976
11056TIP3   OH233112   7.976   3.055   3.458
11056TIP3    H133113   7.936   3.131   3.414
11056TIP3    H233114   8.044   3.094   3.514
11057TIP3   OH233115   7.417   1.203   1.502
11057TIP3    H133116   7.465   1.128   1.467
11057TIP3    H233117   7.410   1.263   1.428
11058TIP3   OH233118   1.073   2.678   2.534
11058TIP3    H133119   1.004   2.734   2.499
11058TIP3    H233120   1.109   2.728   2.607
11059TIP3   OH233121   3.037   6.007   4.582
11059TIP3    H133122   3.132   6.002   4.595
11059TIP3    H233123   3.019   6.101   4.574
11060TIP3   OH233124   3.641   0.523   4.768
11060TIP3    H133125   3.588   0.540   4.846
11060TIP3    H233126   3.589   0.557   4.696
11061TIP3   OH233127   7.572   0.749   6.765
11061TIP3    H133128   7.505   0.748   6.697
11061TIP3    H233129   7.578   0.659   6.796
11062TIP3   OH233130   4.562   2.320   3.013
11062TIP3    H133131   4.558   2.256   2.942
11062TIP3    H233132   4.613   2.276   3.082
11063TIP3   OH233133   2.305   0.647   2.019
11063TIP3    H133134   2.397   0.672   2.006
11063TIP3    H233135   2.260   0.730   2.036
11064TIP3   OH233136   3.870   3.221   1.522
11064TIP3    H133137   3.945   3.198   1.576
11064TIP3    H233138   3.884   3.175   1.440
11065TIP3   OH233139   6.705   5.209   2.046
11065TIP3    H133140   6.790   5.180   2.013
11065TIP3    H233141   6.693   5.161   2.128
11066TIP3   OH233142   1.362   6.175   2.341
11066TIP3    H133143   1.423   6.163   2.269
11066TIP3    H233144   1.316   6.256   2.320
11067TIP3   OH233145   7.749   6.598   3.834
11067TIP3    H133146   7.720   6.534   3.899
11067TIP3    H233147   7.838   6.570   3.812
11068TIP3   OH233148   0.504   5.544   0.428
11068TIP3    H133149   0.489   5.596   0.349
11068TIP3    H233150   0.425   5.490   0.437
11069TIP3   OH233151   3.835   5.620   3.177
11069TIP3    H133152   3.773   5.557   3.214
11069TIP3    H233153   3.780   5.688   3.138
11070TIP3   OH233154   6.658   7.368   3.717
11070TIP3    H133155   6.711   7.394   3.792
11070TIP3    H233156   6.568   7.377   3.747
11071TIP3   OH233157   1.550   3.950   2.128
11071TIP3    H133158   1.494   3.896   2.072
11071TIP3    H233159   1.489   4.007   2.175
11072TIP3   OH233160   7.968   2.447   3.403
11072TIP3    H133161   8.062   2.458   3.416
11072TIP3    H233162   7.958   2.355   3.377
11073TIP3   OH233163   3.522   3.994   2.665
11073TIP3    H133164   3.436   3.952   2.663
11073TIP3    H233165   3.529   4.031   2.753
11074TIP3   OH233166   7.274   3.354   5.002
11074TIP3    H133167   7.330   3.300   4.947
11074TIP3    H233168   7.316   3.440   5.003
11075TIP3   OH233169   4.410   3.833   6.292
11075TIP3    H133170   4.350   3.890   6.243
11075TIP3    H233171   4.435   3.766   6.229
11076TIP3   OH233172   4.007   0.169   5.311
11076TIP3    H133173   3.956   0.237   5.354
11076TIP3    H233174   4.090   0.167   5.358
11077TIP3   OH233175   0.653   0.115   1.905
11077TIP3    H133176   0.692   0.193   1.945
11077TIP3    H233177   0.675   0.044   1.966
11078TIP3   OH233178   6.664   2.613   4.972
11078TIP3    H133179   6.702   2.683   5.025
11078TIP3    H233180   6.598   2.572   5.028
11079TIP3   OH233181   2.262   3.414   1.980
11079TIP3    H133182   2.274   3.347   2.047
11079TIP3    H233183   2.305   3.492   2.016
11080TIP3   OH233184   1.856   7.195   3.391
11080TIP3    H133185   1.851   7.117   3.336
11080TIP3    H233186   1.883   7.264   3.331
11081TIP3   OH233187   8.242   0.822   5.222
11081TIP3    H133188   8.302   0.892   5.247
11081TIP3    H233189   8.233   0.831   5.127
11082TIP3   OH233190   0.562   6.379   5.179
11082TIP3    H133191   0.628   6.326   5.134
11082TIP3    H233192   0.546   6.331   5.261
11083TIP3   OH233193   5.159   1.341   3.905
11083TIP3    H133194   5.245   1.337   3.947
11083TIP3    H233195   5.175   1.376   3.818
11084TIP3   OH233196   4.818   1.266   5.908
11084TIP3    H133197   4.806   1.172   5.893
11084TIP3    H233198   4.883   1.271   5.978
11085TIP3   OH233199   2.324   1.282   4.840
11085TIP3    H133200   2.398   1.342   4.840
11085TIP3    H233201   2.302   1.270   4.932
11086TIP3   OH233202   5.716   2.234   2.502
11086TIP3    H133203   5.622   2.214   2.498
11086TIP3    H233204   5.734   2.246   2.596
11087TIP3   OH233205   5.164   6.644   3.918
11087TIP3    H133206   5.151   6.570   3.858
11087TIP3    H233207   5.112   6.621   3.995
11088TIP3   OH233208   1.747   5.426   3.383
11088TIP3    H133209   1.723   5.341   3.420
11088TIP3    H233210   1.678   5.486   3.411
11089TIP3   OH233211   5.822   3.412   2.400
11089TIP3    H133212   5.860   3.424   2.313
11089TIP3    H233213   5.771   3.492   2.415
11090TIP3   OH233214   7.152   6.594   1.596
11090TIP3    H133215   7.229   6.646   1.575
11090TIP3    H233216   7.163   6.513   1.547
11091TIP3   OH233217   0.993   2.737   1.876
11091TIP3    H133218   0.952   2.816   1.912
11091TIP3    H233219   0.930   2.667   1.894
11092TIP3   OH233220   1.221   4.849   0.995
11092TIP3    H133221   1.236   4.934   1.036
11092TIP3    H233222   1.129   4.830   1.013
11093TIP3   OH233223   6.477   0.089   3.561
11093TIP3    H133224   6.472   0.103   3.466
11093TIP3    H233225   6.408   0.145   3.597
11094TIP3   OH233226   7.318   4.883   5.205
11094TIP3    H133227   7.348   4.960   5.254
11094TIP3    H233228   7.377   4.813   5.233
11095TIP3   OH233229   4.124   3.930   6.310
11095TIP3    H133230   4.072   3.994   6.261
11095TIP3    H233231   4.120   3.960   6.401
11096TIP3   OH233232   1.923   2.817   4.539
11096TIP3    H133233   1.983   2.840   4.467
11096TIP3    H233234   1.870   2.896   4.551
11097TIP3   OH233235   5.843   1.249   4.657
11097TIP3    H133236   5.875   1.185   4.720
11097TIP3    H233237   5.788   1.309   4.708
11098TIP3   OH233238   0.405   2.847   3.966
11098TIP3    H133239   0.424   2.759   3.998
11098TIP3    H233240   0.325   2.873   4.013
11099TIP3   OH233241   0.639   7.770   2.685
11099TIP3    H133242   0.588   7.747   2.607
11099TIP3    H233243   0.625   7.864   2.697
11100TIP3   OH233244   7.012   4.610   1.303
11100TIP3    H133245   6.917   4.597   1.304
11100TIP3    H233246   7.024   4.698   1.339
11101TIP3   OH233247   6.670   1.459   1.409
11101TIP3    H133248   6.588   1.432   1.368
11101TIP3    H233249   6.734   1.394   1.379
11102TIP3   OH233250   2.452   5.871   5.014
11102TIP3    H133251   2.421   5.806   4.951
11102TIP3    H233252   2.454   5.823   5.097
11103TIP3   OH233253   7.782   3.382   0.706
11103TIP3    H133254   7.762   3.377   0.799
11103TIP3    H233255   7.697   3.394   0.664
11104TIP3   OH233256   0.237   6.563   2.759
11104TIP3    H133257   0.190   6.528   2.834
11104TIP3    H233258   0.177   6.625   2.719
11105TIP3   OH233259   7.218   1.831   1.580
11105TIP3    H133260   7.124   1.830   1.596
11105TIP3    H233261   7.252   1.758   1.631
11106TIP3   OH233262   3.459   4.535   4.974
11106TIP3    H133263   3.391   4.595   5.005
11106TIP3    H233264   3.540   4.584   4.980
11107TIP3   OH233265   2.304   5.793   1.209
11107TIP3    H133266   2.362   5.805   1.284
11107TIP3    H233267   2.256   5.713   1.229
11108TIP3   OH233268   2.225   3.193   6.445
11108TIP3    H133269   2.249   3.283   6.465
11108TIP3    H233270   2.193   3.157   6.528
11109TIP3   OH233271   5.192   7.371   5.876
11109TIP3    H133272   5.248   7.360   5.798
11109TIP3    H233273   5.169   7.464   5.876
11110TIP3   OH233274   6.612   2.717   1.148
11110TIP3    H133275   6.536   2.660   1.134
11110TIP3    H233276   6.687   2.664   1.120
11111TIP3   OH233277   5.094   6.798   2.645
11111TIP3    H133278   5.142   6.881   2.637
11111TIP3    H233279   5.151   6.733   2.603
11112TIP3   OH233280   2.620   4.364   2.586
11112TIP3    H133281   2.703   4.393   2.625
11112TIP3    H233282   2.640   4.278   2.550
11113TIP3   OH233283   4.830   7.090   6.729
11113TIP3    H133284   4.899   7.066   6.791
11113TIP3    H233285   4.792   7.006   6.702
11114TIP3   OH233286   5.506   7.432   5.973
11114TIP3    H133287   5.441   7.482   5.924
11114TIP3    H233288   5.511   7.474   6.058
11115TIP3   OH233289   3.359   7.291   6.475
11115TIP3    H133290   3.360   7.295   6.380
11115TIP3    H233291   3.351   7.383   6.503
11116TIP3   OH233292   5.509   0.468   6.429
11116TIP3    H133293   5.559   0.388   6.412
11116TIP3    H233294   5.417   0.439   6.423
11117TIP3   OH233295   7.658   0.804   5.268
11117TIP3    H133296   7.614   0.869   5.322
11117TIP3    H233297   7.750   0.807   5.296
11118TIP3   OH233298   6.403   1.171   1.948
11118TIP3    H133299   6.435   1.231   1.881
11118TIP3    H233300   6.462   1.184   2.022
11119TIP3   OH233301   4.703   4.686   3.545
11119TIP3    H133302   4.734   4.601   3.577
11119TIP3    H233303   4.760   4.707   3.472
11120TIP3   OH233304   6.365   5.351   6.654
11120TIP3    H133305   6.333   5.294   6.724
11120TIP3    H233306   6.286   5.390   6.617
11121TIP3   OH233307   2.534   0.582   0.526
11121TIP3    H133308   2.484   0.531   0.590
11121TIP3    H233309   2.567   0.657   0.575
11122TIP3   OH233310   7.623   4.031   1.227
11122TIP3    H133311   7.619   4.002   1.136
11122TIP3    H233312   7.610   4.126   1.223
11123TIP3   OH233313   4.103   2.028   1.778
11123TIP3    H133314   4.161   2.063   1.846
11123TIP3    H233315   4.079   1.941   1.809
11124TIP3   OH233316   4.358   6.728   4.906
11124TIP3    H133317   4.402   6.806   4.871
11124TIP3    H233318   4.283   6.716   4.848
11125TIP3   OH233319   6.660   3.052   2.728
11125TIP3    H133320   6.732   3.022   2.784
11125TIP3    H233321   6.657   3.146   2.741
11126TIP3   OH233322   5.116   7.493   0.709
11126TIP3    H133323   5.117   7.455   0.621
11126TIP3    H233324   5.156   7.579   0.699
11127TIP3   OH233325   5.946   6.682   0.867
11127TIP3    H133326   5.926   6.728   0.785
11127TIP3    H233327   5.934   6.748   0.935
11128TIP3   OH233328   7.443   1.693   6.399
11128TIP3    H133329   7.494   1.756   6.450
11128TIP3    H233330   7.355   1.730   6.397
11129TIP3   OH233331   2.826   5.223   6.449
11129TIP3    H133332   2.768   5.270   6.389
11129TIP3    H233333   2.802   5.131   6.439
11130TIP3   OH233334   5.119   0.934   2.445
11130TIP3    H133335   5.195   0.905   2.394
11130TIP3    H233336   5.140   0.908   2.535
11131TIP3   OH233337   6.044   4.575   5.127
11131TIP3    H133338   6.003   4.534   5.051
11131TIP3    H233339   6.133   4.539   5.129
11132TIP3   OH233340   2.361   5.663   4.221
11132TIP3    H133341   2.318   5.616   4.292
11132TIP3    H233342   2.290   5.687   4.161
11133TIP3   OH233343   0.810   1.132   2.834
11133TIP3    H133344   0.799   1.227   2.833
11133TIP3    H233345   0.769   1.102   2.753
11134TIP3   OH233346   1.263   2.010   0.898
11134TIP3    H133347   1.184   2.064   0.906
11134TIP3    H233348   1.229   1.920   0.891
11135TIP3   OH233349   2.446   6.410   5.633
11135TIP3    H133350   2.391   6.332   5.643
11135TIP3    H233351   2.387   6.483   5.648
11136TIP3   OH233352   2.432   4.683   1.623
11136TIP3    H133353   2.489   4.675   1.547
11136TIP3    H233354   2.490   4.716   1.692
11137TIP3   OH233355   2.317   4.646   2.784
11137TIP3    H133356   2.275   4.638   2.869
11137TIP3    H233357   2.251   4.686   2.728
11138TIP3   OH233358   1.371   4.310   2.078
11138TIP3    H133359   1.363   4.236   2.139
11138TIP3    H233360   1.280   4.331   2.055
11139TIP3   OH233361   3.339   7.244   6.186
11139TIP3    H133362   3.341   7.261   6.092
11139TIP3    H233363   3.311   7.153   6.193
11140TIP3   OH233364   2.521   1.066   1.480
11140TIP3    H133365   2.550   0.982   1.516
11140TIP3    H233366   2.528   1.127   1.553
11141TIP3   OH233367   0.366   5.302   1.809
11141TIP3    H133368   0.450   5.273   1.774
11141TIP3    H233369   0.335   5.367   1.746
11142TIP3   OH233370   2.358   5.456   2.152
11142TIP3    H133371   2.410   5.378   2.173
11142TIP3    H233372   2.412   5.529   2.183
11143TIP3   OH233373   1.982   2.399   1.877
11143TIP3    H133374   2.007   2.450   1.800
11143TIP3    H233375   1.905   2.443   1.911
11144TIP3   OH233376   2.771   1.942   3.540
11144TIP3    H133377   2.753   2.035   3.555
11144TIP3    H233378   2.867   1.936   3.540
11145TIP3   OH233379   4.094   2.498   3.314
11145TIP3    H133380   4.007   2.520   3.347
11145TIP3    H233381   4.122   2.575   3.265
11146TIP3   OH233382   2.405   0.803   6.467
11146TIP3    H133383   2.446   0.730   6.513
11146TIP3    H233384   2.458   0.879   6.490
11147TIP3   OH233385   3.954   6.538   3.205
11147TIP3    H133386   3.893   6.482   3.252
11147TIP3    H233387   3.910   6.559   3.123
11148TIP3   OH233388   1.459   2.319   2.147
11148TIP3    H133389   1.387   2.256   2.158
11148TIP3    H233390   1.519   2.299   2.219
11149TIP3   OH233391   0.450   2.897   1.314
11149TIP3    H133392   0.478   2.988   1.320
11149TIP3    H233393   0.532   2.847   1.309
11150TIP3   OH233394   4.315   1.220   2.631
11150TIP3    H133395   4.407   1.247   2.638
11150TIP3    H233396   4.266   1.302   2.635
11151TIP3   OH233397   5.243   5.572   2.497
11151TIP3    H133398   5.263   5.650   2.443
11151TIP3    H233399   5.227   5.607   2.584
11152TIP3   OH233400   8.193   5.222   1.495
11152TIP3    H133401   8.245   5.297   1.468
11152TIP3    H233402   8.160   5.185   1.413
11153TIP3   OH233403   5.439   5.800   6.363
11153TIP3    H133404   5.496   5.877   6.361
11153TIP3    H233405   5.465   5.749   6.285
11154TIP3   OH233406   6.292   3.270   5.276
11154TIP3    H133407   6.289   3.333   5.204
11154TIP3    H233408   6.222   3.208   5.255
11155TIP3   OH233409   4.416   0.327   1.816
11155TIP3    H133410   4.409   0.283   1.901
11155TIP3    H233411   4.510   0.344   1.805
11156TIP3   OH233412   0.291   2.240   2.338
11156TIP3    H133413   0.385   2.252   2.353
11156TIP3    H233414   0.265   2.315   2.285
11157TIP3   OH233415   2.307   5.028   0.368
11157TIP3    H133416   2.343   4.947   0.331
11157TIP3    H233417   2.220   5.002   0.400
11158TIP3   OH233418   5.583   5.221   6.734
11158TIP3    H133419   5.528   5.291   6.769
11158TIP3    H233420   5.577   5.231   6.639
11159TIP3   OH233421   1.071   0.616   2.633
11159TIP3    H133422   0.981   0.636   2.608
11159TIP3    H233423   1.068   0.604   2.728
11160TIP3   OH233424   5.515   0.518   5.577
11160TIP3    H133425   5.435   0.554   5.538
11160TIP3    H233426   5.494   0.427   5.594
11161TIP3   OH233427   0.651   1.909   6.274
11161TIP3    H133428   0.710   1.859   6.330
11161TIP3    H233429   0.590   1.844   6.239
11162TIP3   OH233430   4.914   0.023   3.294
11162TIP3    H133431   4.825   0.004   3.324
11162TIP3    H233432   4.971  -0.020   3.358
11163TIP3   OH233433   5.410   0.485   5.156
11163TIP3    H133434   5.466   0.440   5.219
11163TIP3    H233435   5.452   0.470   5.072
11164TIP3   OH233436   6.486   6.401   1.449
11164TIP3    H133437   6.450   6.392   1.361
11164TIP3    H233438   6.580   6.387   1.438
11165TIP3   OH233439   8.146   0.911   6.016
11165TIP3    H133440   8.193   0.869   5.945
11165TIP3    H233441   8.146   1.004   5.994
11166TIP3   OH233442   1.405   3.585   2.379
11166TIP3    H133443   1.317   3.554   2.400
11166TIP3    H233444   1.410   3.673   2.416
11167TIP3   OH233445   3.170   5.558   0.076
11167TIP3    H133446   3.115   5.506   0.134
11167TIP3    H233447   3.204   5.628   0.131
11168TIP3   OH233448   3.560   4.873   0.502
11168TIP3    H133449   3.594   4.824   0.576
11168TIP3    H233450   3.540   4.807   0.436
11169TIP3   OH233451   7.566   4.086   6.452
11169TIP3    H133452   7.541   3.998   6.423
11169TIP3    H233453   7.626   4.117   6.384
11170TIP3   OH233454   3.047   7.532   5.105
11170TIP3    H133455   3.039   7.479   5.184
11170TIP3    H233456   3.064   7.469   5.035
11171TIP3   OH233457   3.222   7.120   1.352
11171TIP3    H133458   3.242   7.212   1.335
11171TIP3    H233459   3.236   7.077   1.268
11172TIP3   OH233460   0.435   6.460   0.128
11172TIP3    H133461   0.481   6.526   0.180
11172TIP3    H233462   0.500   6.432   0.063
11173TIP3   OH233463   6.423   2.103   6.537
11173TIP3    H133464   6.500   2.068   6.582
11173TIP3    H233465   6.349   2.067   6.587
11174TIP3   OH233466   1.629   6.574   4.543
11174TIP3    H133467   1.666   6.585   4.631
11174TIP3    H233468   1.536   6.594   4.554
11175TIP3   OH233469   2.454   0.568   0.264
11175TIP3    H133470   2.497   0.564   0.349
11175TIP3    H233471   2.515   0.614   0.207
11176TIP3   OH233472   2.981   4.762   1.764
11176TIP3    H133473   3.032   4.685   1.739
11176TIP3    H233474   3.043   4.834   1.760
11177TIP3   OH233475   7.748   1.338   3.464
11177TIP3    H133476   7.708   1.375   3.386
11177TIP3    H233477   7.782   1.413   3.513
11178TIP3   OH233478   2.118   4.283   1.336
11178TIP3    H133479   2.082   4.264   1.249
11178TIP3    H233480   2.086   4.212   1.391
11179TIP3   OH233481   8.029   7.575   2.392
11179TIP3    H133482   8.117   7.546   2.366
11179TIP3    H233483   7.981   7.581   2.309
11180TIP3   OH233484   8.035   3.969   6.159
11180TIP3    H133485   8.035   3.994   6.252
11180TIP3    H233486   7.971   4.028   6.119
11181TIP3   OH233487   4.395   4.466   6.546
11181TIP3    H133488   4.301   4.445   6.544
11181TIP3    H233489   4.402   4.547   6.495
11182TIP3   OH233490   3.927   0.837   3.880
11182TIP3    H133491   3.906   0.745   3.868
11182TIP3    H233492   3.845   0.883   3.862
11183TIP3   OH233493   4.113   2.135   3.131
11183TIP3    H133494   4.049   2.199   3.162
11183TIP3    H233495   4.147   2.173   3.050
11184TIP3   OH233496   7.568   4.926   1.568
11184TIP3    H133497   7.510   4.919   1.493
11184TIP3    H233498   7.535   5.001   1.617
11185TIP3   OH233499   0.256   6.235   2.191
11185TIP3    H133500   0.286   6.252   2.102
11185TIP3    H233501   0.333   6.201   2.236
11186TIP3   OH233502   0.466   6.737   4.004
11186TIP3    H133503   0.460   6.647   3.972
11186TIP3    H233504   0.529   6.780   3.946
11187TIP3   OH233505   1.783   4.615   4.950
11187TIP3    H133506   1.751   4.693   4.995
11187TIP3    H233507   1.879   4.623   4.953
11188TIP3   OH233508   6.622   6.153   5.650
11188TIP3    H133509   6.671   6.110   5.580
11188TIP3    H233510   6.671   6.135   5.730
11189TIP3   OH233511   7.957   0.510   0.479
11189TIP3    H133512   7.917   0.588   0.516
11189TIP3    H233513   7.938   0.516   0.385
11190TIP3   OH233514   3.365   2.837   0.469
11190TIP3    H133515   3.307   2.784   0.525
11190TIP3    H233516   3.318   2.842   0.386
11191TIP3   OH233517   3.702   3.470   1.027
11191TIP3    H133518   3.720   3.503   1.115
11191TIP3    H233519   3.787   3.435   0.997
11192TIP3   OH233520   1.863   0.275   2.910
11192TIP3    H133521   1.870   0.257   2.817
11192TIP3    H233522   1.770   0.289   2.926
11193TIP3   OH233523   8.027   3.126   5.278
11193TIP3    H133524   8.121   3.140   5.267
11193TIP3    H233525   8.021   3.060   5.347
11194TIP3   OH233526   2.982   7.587   3.886
11194TIP3    H133527   3.064   7.567   3.841
11194TIP3    H233528   2.946   7.501   3.908
11195TIP3   OH233529   8.094   1.710   5.340
11195TIP3    H133530   8.074   1.803   5.337
11195TIP3    H233531   8.057   1.675   5.259
11196TIP3   OH233532   5.580   4.694   4.965
11196TIP3    H133533   5.614   4.760   4.905
11196TIP3    H233534   5.627   4.710   5.047
11197TIP3   OH233535   2.277   7.771   0.159
11197TIP3    H133536   2.339   7.797   0.228
11197TIP3    H233537   2.220   7.707   0.201
11198TIP3   OH233538   3.184   4.589   2.543
11198TIP3    H133539   3.253   4.647   2.576
11198TIP3    H233540   3.157   4.538   2.620
11199TIP3   OH233541   8.168   0.900   2.996
11199TIP3    H133542   8.249   0.858   3.027
11199TIP3    H233543   8.107   0.890   3.069
11200TIP3   OH233544   4.776   2.307   1.897
11200TIP3    H133545   4.866   2.333   1.916
11200TIP3    H233546   4.777   2.286   1.803
11201TIP3   OH233547   2.746   5.955   5.328
11201TIP3    H133548   2.839   5.971   5.347
11201TIP3    H233549   2.701   5.977   5.409
11202TIP3   OH233550   4.988   0.717   2.106
11202TIP3    H133551   4.994   0.659   2.182
11202TIP3    H233552   4.976   0.659   2.032
11203TIP3   OH233553   2.081   7.103   1.167
11203TIP3    H133554   2.143   7.126   1.098
11203TIP3    H233555   2.034   7.027   1.134
11204TIP3   OH233556   6.979   1.595   6.005
11204TIP3    H133557   6.898   1.636   6.034
11204TIP3    H233558   7.047   1.632   6.061
11205TIP3   OH233559   3.306   5.894   3.288
11205TIP3    H133560   3.223   5.863   3.250
11205TIP3    H233561   3.357   5.924   3.212
11206TIP3   OH233562   5.275   4.540   2.806
11206TIP3    H133563   5.351   4.494   2.841
11206TIP3    H233564   5.288   4.540   2.711
11207TIP3   OH233565   5.397   0.313   1.583
11207TIP3    H133566   5.448   0.393   1.595
11207TIP3    H233567   5.351   0.326   1.500
11208TIP3   OH233568   8.109   3.921   1.461
11208TIP3    H133569   8.071   3.979   1.528
11208TIP3    H233570   8.086   3.963   1.378
11209TIP3   OH233571   7.953   4.091   0.904
11209TIP3    H133572   7.957   4.120   0.813
11209TIP3    H233573   8.024   4.027   0.912
11210TIP3   OH233574   5.521   2.326   2.058
11210TIP3    H133575   5.498   2.419   2.044
11210TIP3    H233576   5.436   2.282   2.064
11211TIP3   OH233577   3.641   6.179   5.091
11211TIP3    H133578   3.609   6.115   5.027
11211TIP3    H233579   3.623   6.264   5.050
11212TIP3   OH233580   6.935   0.284   2.034
11212TIP3    H133581   6.845   0.303   2.007
11212TIP3    H233582   6.928   0.265   2.127
11213TIP3   OH233583   4.594   5.958   2.265
11213TIP3    H133584   4.595   5.949   2.361
11213TIP3    H233585   4.560   6.046   2.249
11214TIP3   OH233586   1.172   2.802   1.140
11214TIP3    H133587   1.171   2.709   1.116
11214TIP3    H233588   1.104   2.810   1.207
11215TIP3   OH233589   1.203   5.704   1.455
11215TIP3    H133590   1.268   5.643   1.490
11215TIP3    H233591   1.174   5.756   1.530
11216TIP3   OH233592   3.431   1.452   3.963
11216TIP3    H133593   3.511   1.490   3.998
11216TIP3    H233594   3.456   1.363   3.938
11217TIP3   OH233595   1.425   3.785   1.303
11217TIP3    H133596   1.380   3.700   1.298
11217TIP3    H233597   1.511   3.768   1.266
11218TIP3   OH233598   4.712   3.220   3.993
11218TIP3    H133599   4.708   3.157   3.921
11218TIP3    H233600   4.629   3.208   4.040
11219TIP3   OH233601   6.109   6.761   3.670
11219TIP3    H133602   6.119   6.725   3.758
11219TIP3    H233603   6.097   6.684   3.614
11220TIP3   OH233604   0.347   0.264   6.718
11220TIP3    H133605   0.284   0.298   6.782
11220TIP3    H233606   0.379   0.341   6.673
11221TIP3   OH233607   2.798   6.677   5.243
11221TIP3    H133608   2.831   6.707   5.327
11221TIP3    H233609   2.875   6.641   5.198
11222TIP3   OH233610   6.518   1.899   3.536
11222TIP3    H133611   6.519   1.972   3.474
11222TIP3    H233612   6.475   1.828   3.488
11223TIP3   OH233613   0.090   4.924   2.634
11223TIP3    H133614   0.078   4.918   2.728
11223TIP3    H233615   0.179   4.893   2.619
11224TIP3   OH233616   3.188   4.035   4.042
11224TIP3    H133617   3.179   4.125   4.075
11224TIP3    H233618   3.232   3.988   4.113
11225TIP3   OH233619   8.111   6.950   2.811
11225TIP3    H133620   8.071   7.014   2.869
11225TIP3    H233621   8.094   6.983   2.723
11226TIP3   OH233622   5.075   2.956   1.814
11226TIP3    H133623   5.106   2.923   1.730
11226TIP3    H233624   5.148   3.006   1.849
11227TIP3   OH233625   1.619   3.935   3.894
11227TIP3    H133626   1.636   3.956   3.986
11227TIP3    H233627   1.638   3.842   3.887
11228TIP3   OH233628   1.654   6.407   6.108
11228TIP3    H133629   1.690   6.490   6.080
11228TIP3    H233630   1.642   6.416   6.203
11229TIP3   OH233631   7.417   6.579   0.267
11229TIP3    H133632   7.405   6.502   0.211
11229TIP3    H233633   7.477   6.550   0.335
11230TIP3   OH233634   2.811   5.225   5.999
11230TIP3    H133635   2.834   5.194   5.911
11230TIP3    H233636   2.895   5.246   6.040
11231TIP3   OH233637   3.142   7.278   3.402
11231TIP3    H133638   3.207   7.243   3.463
11231TIP3    H233639   3.095   7.201   3.370
11232TIP3   OH233640   1.883   0.488   6.526
11232TIP3    H133641   1.809   0.460   6.472
11232TIP3    H233642   1.850   0.564   6.574
11233TIP3   OH233643   7.718   6.489   1.066
11233TIP3    H133644   7.807   6.474   1.097
11233TIP3    H233645   7.726   6.495   0.971
11234TIP3   OH233646   1.200   1.014   0.103
11234TIP3    H133647   1.251   1.024   0.022
11234TIP3    H233648   1.236   0.937   0.145
11235TIP3   OH233649   2.144   0.120   4.004
11235TIP3    H133650   2.048   0.124   4.006
11235TIP3    H233651   2.163   0.033   3.969
11236TIP3   OH233652   3.261   4.310   2.440
11236TIP3    H133653   3.196   4.244   2.464
11236TIP3    H233654   3.211   4.391   2.428
11237TIP3   OH233655   0.707   6.858   6.763
11237TIP3    H133656   0.720   6.940   6.717
11237TIP3    H233657   0.632   6.817   6.719
11238TIP3   OH233658   1.621   0.090   6.692
11238TIP3    H133659   1.591   0.023   6.753
11238TIP3    H233660   1.567   0.166   6.711
11239TIP3   OH233661   3.113   7.355   4.261
11239TIP3    H133662   3.153   7.291   4.203
11239TIP3    H233663   3.119   7.438   4.214
11240TIP3   OH233664   2.800   5.704   5.213
11240TIP3    H133665   2.754   5.766   5.270
11240TIP3    H233666   2.773   5.618   5.243
11241TIP3   OH233667   4.014   5.638   6.358
11241TIP3    H133668   3.979   5.719   6.395
11241TIP3    H233669   3.938   5.594   6.321
11242TIP3   OH233670   0.856   2.114   3.457
11242TIP3    H133671   0.878   2.089   3.546
11242TIP3    H233672   0.916   2.186   3.437
11243TIP3   OH233673   3.241   4.979   3.605
11243TIP3    H133674   3.308   4.912   3.623
11243TIP3    H233675   3.225   4.970   3.511
11244TIP3   OH233676   3.693   4.020   1.094
11244TIP3    H133677   3.723   4.057   1.011
11244TIP3    H233678   3.675   3.928   1.074
11245TIP3   OH233679   2.528   1.726   1.747
11245TIP3    H133680   2.512   1.731   1.653
11245TIP3    H233681   2.623   1.722   1.755
11246TIP3   OH233682   2.076   1.109   6.673
11246TIP3    H133683   2.093   1.105   6.579
11246TIP3    H233684   1.981   1.109   6.681
11247TIP3   OH233685   7.950   1.196   2.502
11247TIP3    H133686   7.930   1.115   2.549
11247TIP3    H233687   7.869   1.217   2.455
11248TIP3   OH233688   7.406   1.472   3.525
11248TIP3    H133689   7.456   1.553   3.538
11248TIP3    H233690   7.418   1.422   3.605
11249TIP3   OH233691   6.349   0.710   1.485
11249TIP3    H133692   6.325   0.794   1.447
11249TIP3    H233693   6.392   0.662   1.413
11250TIP3   OH233694   5.374   7.083   0.681
11250TIP3    H133695   5.368   7.164   0.732
11250TIP3    H233696   5.356   7.013   0.743
11251TIP3   OH233697   7.365   4.054   4.883
11251TIP3    H133698   7.445   4.055   4.936
11251TIP3    H233699   7.394   4.025   4.796
11252TIP3   OH233700   0.823   2.088   6.765
11252TIP3    H133701   0.821   2.170   6.815
11252TIP3    H233702   0.839   2.115   6.674
11253TIP3   OH233703   6.252   5.705   6.763
11253TIP3    H133704   6.337   5.666   6.782
11253TIP3    H233705   6.271   5.781   6.709
11254TIP3   OH233706   1.803   1.797   0.269
11254TIP3    H133707   1.749   1.772   0.344
11254TIP3    H233708   1.793   1.892   0.262
11255TIP3   OH233709   4.806   7.752   6.366
11255TIP3    H133710   4.877   7.688   6.367
11255TIP3    H233711   4.849   7.836   6.347
11256TIP3   OH233712   3.280   0.524   4.733
11256TIP3    H133713   3.279   0.616   4.761
11256TIP3    H233714   3.304   0.475   4.812
11257TIP3   OH233715   8.283   1.630   2.434
11257TIP3    H133716   8.222   1.639   2.361
11257TIP3    H233717   8.251   1.555   2.484
11258TIP3   OH233718   6.041   5.530   4.096
11258TIP3    H133719   6.076   5.447   4.064
11258TIP3    H233720   6.118   5.581   4.119
11259TIP3   OH233721   4.025   6.758   3.624
11259TIP3    H133722   3.979   6.791   3.701
11259TIP3    H233723   3.997   6.667   3.617
11260TIP3   OH233724   2.297   5.112   2.297
11260TIP3    H133725   2.219   5.057   2.301
11260TIP3    H233726   2.294   5.162   2.379
11261TIP3   OH233727   6.679   7.293   5.767
11261TIP3    H133728   6.694   7.198   5.765
11261TIP3    H233729   6.718   7.325   5.686
11262TIP3   OH233730   7.742   5.907   6.231
11262TIP3    H133731   7.667   5.854   6.203
11262TIP3    H233732   7.775   5.863   6.309
11263TIP3   OH233733   4.128   1.899   1.051
11263TIP3    H133734   4.160   1.981   1.089
11263TIP3    H233735   4.175   1.831   1.100
11264TIP3   OH233736   3.832   0.865   3.101
11264TIP3    H133737   3.821   0.770   3.100
11264TIP3    H233738   3.920   0.879   3.066
11265TIP3   OH233739   1.580   0.328   4.030
11265TIP3    H133740   1.539   0.408   4.063
11265TIP3    H233741   1.541   0.258   4.082
11266TIP3   OH233742   6.254   4.347   5.154
11266TIP3    H133743   6.237   4.279   5.220
11266TIP3    H233744   6.326   4.398   5.192
11267TIP3   OH233745   6.344   3.195   2.529
11267TIP3    H133746   6.416   3.149   2.486
11267TIP3    H233747   6.365   3.288   2.516
11268TIP3   OH233748   2.555   0.376   2.799
11268TIP3    H133749   2.554   0.299   2.855
11268TIP3    H233750   2.562   0.340   2.710
11269TIP3   OH233751   3.367   1.662   3.106
11269TIP3    H133752   3.441   1.602   3.096
11269TIP3    H233753   3.308   1.617   3.166
11270TIP3   OH233754   3.467   2.674   3.167
11270TIP3    H133755   3.470   2.646   3.076
11270TIP3    H233756   3.515   2.757   3.168
11271TIP3   OH233757   4.853   3.892   1.778
11271TIP3    H133758   4.945   3.868   1.786
11271TIP3    H233759   4.841   3.966   1.837
11272TIP3   OH233760   1.989   6.239   1.136
11272TIP3    H133761   2.042   6.251   1.057
11272TIP3    H233762   2.029   6.164   1.181
11273TIP3   OH233763   2.929   2.011   1.600
11273TIP3    H133764   2.951   1.946   1.533
11273TIP3    H233765   2.938   1.964   1.683
11274TIP3   OH233766   2.232   5.008   3.626
11274TIP3    H133767   2.141   4.978   3.631
11274TIP3    H233768   2.246   5.055   3.709
11275TIP3   OH233769   4.455   0.031   1.575
11275TIP3    H133770   4.496   0.117   1.563
11275TIP3    H233771   4.368   0.040   1.538
11276TIP3   OH233772   6.191   2.940   1.961
11276TIP3    H133773   6.258   2.887   1.919
11276TIP3    H233774   6.216   3.030   1.942
11277TIP3   OH233775   6.916   6.877   3.906
11277TIP3    H133776   6.942   6.879   3.814
11277TIP3    H233777   6.914   6.969   3.932
11278TIP3   OH233778   2.988   2.264   6.224
11278TIP3    H133779   2.991   2.240   6.131
11278TIP3    H233780   3.043   2.342   6.231
11279TIP3   OH233781   0.271   3.217   2.572
11279TIP3    H133782   0.287   3.151   2.640
11279TIP3    H233783   0.183   3.197   2.539
11280TIP3   OH233784   0.495   5.829   4.922
11280TIP3    H133785   0.492   5.764   4.992
11280TIP3    H233786   0.587   5.855   4.918
11281TIP3   OH233787   6.887   4.410   6.551
11281TIP3    H133788   6.854   4.404   6.461
11281TIP3    H233789   6.982   4.403   6.542
11282TIP3   OH233790   6.199   6.080   4.332
11282TIP3    H133791   6.270   6.043   4.280
11282TIP3    H233792   6.243   6.133   4.399
11283TIP3   OH233793   4.588   0.260   2.228
11283TIP3    H133794   4.533   0.191   2.189
11283TIP3    H233795   4.646   0.287   2.157
11284TIP3   OH233796   2.797   0.563   5.533
11284TIP3    H133797   2.802   0.468   5.525
11284TIP3    H233798   2.716   0.579   5.582
11285TIP3   OH233799   4.479   2.935   5.792
11285TIP3    H133800   4.546   2.940   5.859
11285TIP3    H233801   4.441   2.847   5.802
11286TIP3   OH233802   3.610   6.664   4.733
11286TIP3    H133803   3.658   6.630   4.658
11286TIP3    H233804   3.519   6.638   4.718
11287TIP3   OH233805   6.881   5.515   1.572
11287TIP3    H133806   6.906   5.482   1.658
11287TIP3    H233807   6.940   5.588   1.555
11288TIP3   OH233808   7.631   2.275   1.797
11288TIP3    H133809   7.683   2.268   1.717
11288TIP3    H233810   7.606   2.185   1.818
11289TIP3   OH233811   7.910   1.314   4.110
11289TIP3    H133812   7.969   1.266   4.052
11289TIP3    H233813   7.856   1.247   4.151
11290TIP3   OH233814   1.338   2.837   6.637
11290TIP3    H133815   1.283   2.877   6.705
11290TIP3    H233816   1.425   2.833   6.677
11291TIP3   OH233817   1.175   7.030   3.346
11291TIP3    H133818   1.230   7.104   3.370
11291TIP3    H233819   1.164   6.980   3.427
11292TIP3   OH233820   3.201   2.034   2.626
11292TIP3    H133821   3.109   2.059   2.623
11292TIP3    H233822   3.241   2.096   2.687
11293TIP3   OH233823   8.012   4.341   1.023
11293TIP3    H133824   7.943   4.350   1.089
11293TIP3    H233825   7.994   4.258   0.980
11294TIP3   OH233826   4.413   1.793   5.248
11294TIP3    H133827   4.454   1.735   5.184
11294TIP3    H233828   4.486   1.846   5.282
11295TIP3   OH233829   6.930   7.241   1.005
11295TIP3    H133830   6.915   7.221   0.912
11295TIP3    H233831   7.020   7.274   1.007
11296TIP3   OH233832   7.639   4.615   4.114
11296TIP3    H133833   7.578   4.573   4.054
11296TIP3    H233834   7.722   4.619   4.066
11297TIP3   OH233835   3.408   2.090   0.684
11297TIP3    H133836   3.453   2.038   0.750
11297TIP3    H233837   3.363   2.158   0.734
11298TIP3   OH233838   1.748   6.681   1.615
11298TIP3    H133839   1.782   6.710   1.700
11298TIP3    H233840   1.820   6.631   1.577
11299TIP3   OH233841   1.062   4.694   3.608
11299TIP3    H133842   1.087   4.638   3.535
11299TIP3    H233843   1.020   4.770   3.568
11300TIP3   OH233844   5.662   7.295   2.639
11300TIP3    H133845   5.676   7.390   2.635
11300TIP3    H233846   5.715   7.259   2.568
11301TIP3   OH233847   0.596   6.048   4.034
11301TIP3    H133848   0.579   6.137   4.005
11301TIP3    H233849   0.681   6.025   3.996
11302TIP3   OH233850   7.606   5.105   1.832
11302TIP3    H133851   7.695   5.125   1.802
11302TIP3    H233852   7.617   5.066   1.919
11303TIP3   OH233853   6.829   5.410   2.997
11303TIP3    H133854   6.895   5.470   2.961
11303TIP3    H233855   6.767   5.468   3.042
11304TIP3   OH233856   0.938   2.060   3.721
11304TIP3    H133857   0.881   1.996   3.764
11304TIP3    H233858   0.942   2.134   3.781
11305TIP3   OH233859   7.353   1.550   5.894
11305TIP3    H133860   7.425   1.514   5.842
11305TIP3    H233861   7.277   1.546   5.836
11306TIP3   OH233862   6.294   1.689   1.511
11306TIP3    H133863   6.307   1.659   1.421
11306TIP3    H233864   6.336   1.775   1.514
11307TIP3   OH233865   7.327   7.287   0.417
11307TIP3    H133866   7.259   7.308   0.352
11307TIP3    H233867   7.289   7.218   0.470
11308TIP3   OH233868   3.805   1.701   4.655
11308TIP3    H133869   3.864   1.755   4.708
11308TIP3    H233870   3.856   1.678   4.578
11309TIP3   OH233871   7.661   4.439   1.615
11309TIP3    H133872   7.664   4.529   1.647
11309TIP3    H233873   7.568   4.416   1.615
11310TIP3   OH233874   2.418   4.992   5.797
11310TIP3    H133875   2.479   4.994   5.870
11310TIP3    H233876   2.440   4.913   5.749
11311TIP3   OH233877   2.889   4.173   6.455
11311TIP3    H133878   2.945   4.137   6.386
11311TIP3    H233879   2.863   4.098   6.507
11312TIP3   OH233880   3.555   3.150   1.150
11312TIP3    H133881   3.648   3.165   1.133
11312TIP3    H233882   3.553   3.085   1.220
11313TIP3   OH233883   2.677   5.495   1.655
11313TIP3    H133884   2.641   5.485   1.742
11313TIP3    H233885   2.652   5.583   1.627
11314TIP3   OH233886   7.082   5.945   2.021
11314TIP3    H133887   7.124   5.929   1.936
11314TIP3    H233888   7.135   6.014   2.061
11315TIP3   OH233889   0.705   7.762   5.998
11315TIP3    H133890   0.757   7.755   5.917
11315TIP3    H233891   0.619   7.727   5.974
11316TIP3   OH233892   5.151   0.495   4.707
11316TIP3    H133893   5.183   0.577   4.668
11316TIP3    H233894   5.095   0.523   4.779
11317TIP3   OH233895   3.832   7.120   6.732
11317TIP3    H133896   3.852   7.172   6.653
11317TIP3    H233897   3.832   7.030   6.701
11318TIP3   OH233898   1.543   6.818   3.273
11318TIP3    H133899   1.595   6.747   3.235
11318TIP3    H233900   1.593   6.897   3.254
11319TIP3   OH233901   4.138   7.549   0.167
11319TIP3    H133902   4.129   7.549   0.072
11319TIP3    H233903   4.078   7.481   0.197
11320TIP3   OH233904   3.581   0.501   6.322
11320TIP3    H133905   3.597   0.480   6.414
11320TIP3    H233906   3.595   0.418   6.275
11321TIP3   OH233907   3.474   0.027   1.719
11321TIP3    H133908   3.492   0.103   1.664
11321TIP3    H233909   3.459  -0.045   1.657
11322TIP3   OH233910   4.863   3.114   1.770
11322TIP3    H133911   4.931   3.047   1.770
11322TIP3    H233912   4.822   3.106   1.857
11323TIP3   OH233913   5.133   0.015   1.157
11323TIP3    H133914   5.085  -0.003   1.077
11323TIP3    H233915   5.074   0.068   1.210
11324TIP3   OH233916   2.071   2.473   0.219
11324TIP3    H133917   2.079   2.563   0.187
11324TIP3    H233918   2.036   2.424   0.144
11325TIP3   OH233919   3.409   4.367   3.171
11325TIP3    H133920   3.376   4.429   3.236
11325TIP3    H233921   3.481   4.322   3.214
11326TIP3   OH233922   7.283   1.788   1.310
11326TIP3    H133923   7.253   1.866   1.264
11326TIP3    H233924   7.262   1.805   1.402
11327TIP3   OH233925   5.769   1.712   4.552
11327TIP3    H133926   5.782   1.634   4.605
11327TIP3    H233927   5.706   1.686   4.485
11328TIP3   OH233928   3.244   3.979   2.541
11328TIP3    H133929   3.262   3.973   2.447
11328TIP3    H233930   3.179   3.912   2.557
11329TIP3   OH233931   7.526   4.569   6.064
11329TIP3    H133932   7.489   4.491   6.022
11329TIP3    H233933   7.450   4.619   6.094
11330TIP3   OH233934   5.311   0.825   1.262
11330TIP3    H133935   5.316   0.736   1.296
11330TIP3    H233936   5.385   0.870   1.302
11331TIP3   OH233937   7.198   7.543   4.810
11331TIP3    H133938   7.260   7.616   4.807
11331TIP3    H233939   7.124   7.573   4.758
11332TIP3   OH233940   5.985   2.192   5.840
11332TIP3    H133941   6.042   2.214   5.914
11332TIP3    H233942   5.996   2.264   5.778
11333TIP3   OH233943   3.514   0.193   0.427
11333TIP3    H133944   3.587   0.149   0.469
11333TIP3    H233945   3.499   0.143   0.346
11334TIP3   OH233946   7.330   5.662   2.666
11334TIP3    H133947   7.288   5.669   2.751
11334TIP3    H233948   7.408   5.717   2.672
11335TIP3   OH233949   1.019   3.818   2.467
11335TIP3    H133950   1.033   3.879   2.540
11335TIP3    H233951   1.050   3.865   2.390
11336TIP3   OH233952   5.206   0.110   6.396
11336TIP3    H133953   5.115   0.087   6.379
11336TIP3    H233954   5.256   0.052   6.338
11337TIP3   OH233955   5.367   0.782   3.103
11337TIP3    H133956   5.291   0.795   3.047
11337TIP3    H233957   5.331   0.749   3.185
11338TIP3   OH233958   1.889   1.085   5.375
11338TIP3    H133959   1.921   1.066   5.287
11338TIP3    H233960   1.836   1.009   5.399
11339TIP3   OH233961   1.080   2.236   4.700
11339TIP3    H133962   1.054   2.170   4.635
11339TIP3    H233963   1.047   2.319   4.665
11340TIP3   OH233964   6.057   2.492   3.724
11340TIP3    H133965   6.112   2.552   3.775
11340TIP3    H233966   6.064   2.408   3.771
11341TIP3   OH233967   2.450   5.766   1.930
11341TIP3    H133968   2.355   5.761   1.946
11341TIP3    H233969   2.460   5.843   1.874
11342TIP3   OH233970   3.462   5.550   1.631
11342TIP3    H133971   3.428   5.555   1.721
11342TIP3    H233972   3.495   5.638   1.613
11343TIP3   OH233973   5.495   3.989   4.621
11343TIP3    H133974   5.437   3.934   4.673
11343TIP3    H233975   5.556   4.027   4.684
11344TIP3   OH233976   3.692   6.648   6.073
11344TIP3    H133977   3.646   6.578   6.119
11344TIP3    H233978   3.783   6.618   6.069
11345TIP3   OH233979   0.359   2.302   4.598
11345TIP3    H133980   0.329   2.224   4.551
11345TIP3    H233981   0.287   2.365   4.587
11346TIP3   OH233982   5.678   5.199   6.194
11346TIP3    H133983   5.724   5.155   6.123
11346TIP3    H233984   5.679   5.291   6.169
11347TIP3   OH233985   1.122   4.822   1.540
11347TIP3    H133986   1.126   4.728   1.554
11347TIP3    H233987   1.088   4.832   1.451
11348TIP3   OH233988   7.976   3.106   2.400
11348TIP3    H133989   7.972   3.188   2.352
11348TIP3    H233990   7.912   3.049   2.356
11349TIP3   OH233991   0.973   0.775   1.721
11349TIP3    H133992   0.879   0.768   1.708
11349TIP3    H233993   0.983   0.823   1.803
11350TIP3   OH233994   5.061   0.522   6.551
11350TIP3    H133995   4.983   0.481   6.514
11350TIP3    H233996   5.130   0.505   6.488
11351TIP3   OH233997   1.923   2.428   3.251
11351TIP3    H133998   1.922   2.347   3.201
11351TIP3    H233999   2.007   2.469   3.230
11352TIP3   OH234000   1.730   1.146   4.651
11352TIP3    H134001   1.663   1.138   4.583
11352TIP3    H234002   1.791   1.074   4.633
11353TIP3   OH234003   2.650   2.054   1.654
11353TIP3    H134004   2.740   2.039   1.626
11353TIP3    H234005   2.631   1.982   1.714
11354TIP3   OH234006   3.306   2.803   2.004
11354TIP3    H134007   3.389   2.769   2.036
11354TIP3    H234008   3.329   2.884   1.959
11355TIP3   OH234009   3.374   0.925   4.539
11355TIP3    H134010   3.313   0.918   4.465
11355TIP3    H234011   3.453   0.964   4.502
11356TIP3   OH234012   2.156   4.788   6.061
11356TIP3    H134013   2.169   4.883   6.051
11356TIP3    H234014   2.245   4.752   6.059
11357TIP3   OH234015   6.209   1.451   0.299
11357TIP3    H134016   6.155   1.444   0.377
11357TIP3    H234017   6.231   1.361   0.277
11358TIP3   OH234018   7.650   7.158   4.848
11358TIP3    H134019   7.622   7.248   4.860
11358TIP3    H234020   7.722   7.147   4.910
11359TIP3   OH234021   5.204   4.288   0.987
11359TIP3    H134022   5.196   4.296   0.892
11359TIP3    H234023   5.113   4.279   1.018
11360TIP3   OH234024   1.064   1.127   1.256
11360TIP3    H134025   1.003   1.066   1.216
11360TIP3    H234026   1.020   1.158   1.335
11361TIP3   OH234027   1.871   4.159   5.977
11361TIP3    H134028   1.819   4.157   5.897
11361TIP3    H234029   1.829   4.096   6.035
11362TIP3   OH234030   7.792   7.523   6.165
11362TIP3    H134031   7.748   7.497   6.246
11362TIP3    H234032   7.780   7.449   6.107
11363TIP3   OH234033   5.569   5.488   5.205
11363TIP3    H134034   5.545   5.406   5.248
11363TIP3    H234035   5.582   5.464   5.113
11364TIP3   OH234036   1.959   6.130   6.113
11364TIP3    H134037   1.935   6.064   6.047
11364TIP3    H234038   1.992   6.080   6.187
11365TIP3   OH234039   5.712   3.417   1.044
11365TIP3    H134040   5.636   3.474   1.053
11365TIP3    H234041   5.711   3.363   1.124
11366TIP3   OH234042   3.567   0.811   0.431
11366TIP3    H134043   3.495   0.764   0.389
11366TIP3    H234044   3.638   0.746   0.436
11367TIP3   OH234045   4.381   0.774   5.288
11367TIP3    H134046   4.476   0.770   5.293
11367TIP3    H234047   4.353   0.682   5.296
11368TIP3   OH234048   0.783   1.179   2.008
11368TIP3    H134049   0.831   1.112   2.056
11368TIP3    H234050   0.786   1.150   1.917
11369TIP3   OH234051   3.590   6.868   2.951
11369TIP3    H134052   3.528   6.804   2.915
11369TIP3    H234053   3.557   6.886   3.039
11370TIP3   OH234054   8.203   3.303   5.468
11370TIP3    H134055   8.240   3.283   5.382
11370TIP3    H234056   8.210   3.398   5.475
11371TIP3   OH234057   1.296   1.351   5.646
11371TIP3    H134058   1.380   1.306   5.644
11371TIP3    H234059   1.291   1.389   5.733
11372TIP3   OH234060   1.779   3.892   2.267
11372TIP3    H134061   1.705   3.901   2.206
11372TIP3    H234062   1.770   3.803   2.301
11373TIP3   OH234063   4.121   7.619   4.204
11373TIP3    H134064   4.172   7.601   4.283
11373TIP3    H234065   4.160   7.563   4.137
11374TIP3   OH234066   5.559   6.607   2.579
11374TIP3    H134067   5.555   6.668   2.506
11374TIP3    H234068   5.616   6.536   2.548
11375TIP3   OH234069   3.874   1.916   2.441
11375TIP3    H134070   3.845   1.975   2.371
11375TIP3    H234071   3.916   1.973   2.505
11376TIP3   OH234072   0.843   2.692   2.807
11376TIP3    H134073   0.772   2.756   2.795
11376TIP3    H234074   0.832   2.631   2.735
11377TIP3   OH234075   2.663   1.635   4.866
11377TIP3    H134076   2.662   1.627   4.962
11377TIP3    H234077   2.726   1.569   4.838
11378TIP3   OH234078   3.756   0.547   4.123
11378TIP3    H134079   3.660   0.547   4.130
11378TIP3    H234080   3.783   0.471   4.176
11379TIP3   OH234081   0.384   1.769   1.629
11379TIP3    H134082   0.396   1.793   1.721
11379TIP3    H234083   0.330   1.838   1.592
11380TIP3   OH234084   6.605   2.127   2.258
11380TIP3    H134085   6.549   2.204   2.248
11380TIP3    H234086   6.694   2.162   2.253
11381TIP3   OH234087   8.002   5.102   2.818
11381TIP3    H134088   7.968   5.064   2.737
11381TIP3    H234089   8.097   5.104   2.805
11382TIP3   OH234090   2.449   0.394   1.765
11382TIP3    H134091   2.474   0.319   1.711
11382TIP3    H234092   2.529   0.415   1.814
11383TIP3   OH234093   1.494   2.626   5.610
11383TIP3    H134094   1.556   2.611   5.681
11383TIP3    H234095   1.447   2.706   5.636
11384TIP3   OH234096   0.499   4.733   3.844
11384TIP3    H134097   0.534   4.702   3.761
11384TIP3    H234098   0.412   4.766   3.822
11385TIP3   OH234099   7.793   5.249   2.580
11385TIP3    H134100   7.723   5.255   2.515
11385TIP3    H234101   7.830   5.161   2.567
11386TIP3   OH234102   8.253   0.521   6.656
11386TIP3    H134103   8.177   0.470   6.684
11386TIP3    H234104   8.243   0.529   6.561
11387TIP3   OH234105   6.651   7.024   1.483
11387TIP3    H134106   6.582   7.028   1.549
11387TIP3    H234107   6.618   6.960   1.419
11388TIP3   OH234108   2.576   7.613   3.822
11388TIP3    H134109   2.604   7.661   3.744
11388TIP3    H234110   2.631   7.535   3.823
11389TIP3   OH234111   5.658   4.675   6.134
11389TIP3    H134112   5.738   4.708   6.176
11389TIP3    H234113   5.688   4.602   6.081
11390TIP3   OH234114   0.215   2.949   4.591
11390TIP3    H134115   0.264   2.953   4.509
11390TIP3    H234116   0.147   3.014   4.582
11391TIP3   OH234117   4.292   7.404   5.500
11391TIP3    H134118   4.341   7.467   5.554
11391TIP3    H234119   4.359   7.351   5.458
11392TIP3   OH234120   6.127   5.338   1.907
11392TIP3    H134121   6.094   5.249   1.921
11392TIP3    H234122   6.215   5.327   1.873
11393TIP3   OH234123   6.750   3.157   3.005
11393TIP3    H134124   6.697   3.236   3.002
11393TIP3    H234125   6.840   3.188   3.016
11394TIP3   OH234126   0.701   3.915   2.588
11394TIP3    H134127   0.729   3.914   2.680
11394TIP3    H234128   0.615   3.956   2.590
11395TIP3   OH234129   1.226   6.256   1.678
11395TIP3    H134130   1.140   6.257   1.719
11395TIP3    H234131   1.242   6.347   1.654
11396TIP3   OH234132   3.464   4.385   5.676
11396TIP3    H134133   3.457   4.364   5.583
11396TIP3    H234134   3.539   4.444   5.682
11397TIP3   OH234135   1.112   6.402   6.360
11397TIP3    H134136   1.186   6.454   6.329
11397TIP3    H234137   1.045   6.467   6.383
11398TIP3   OH234138   7.709   6.302   0.361
11398TIP3    H134139   7.670   6.371   0.414
11398TIP3    H234140   7.788   6.277   0.409
11399TIP3   OH234141   3.176   5.238   6.035
11399TIP3    H134142   3.266   5.249   6.066
11399TIP3    H234143   3.129   5.205   6.111
11400TIP3   OH234144   1.746   5.607   2.597
11400TIP3    H134145   1.752   5.512   2.589
11400TIP3    H234146   1.676   5.621   2.661
11401TIP3   OH234147   1.152   3.277   2.932
11401TIP3    H134148   1.187   3.331   2.861
11401TIP3    H234149   1.198   3.307   3.010
11402TIP3   OH234150   6.834   6.597   3.019
11402TIP3    H134151   6.826   6.595   2.924
11402TIP3    H234152   6.861   6.686   3.039
11403TIP3   OH234153   5.109   4.851   3.667
11403TIP3    H134154   5.191   4.804   3.653
11403TIP3    H234155   5.074   4.815   3.748
11404TIP3   OH234156   7.894   0.721   5.010
11404TIP3    H134157   7.833   0.675   4.952
11404TIP3    H234158   7.969   0.741   4.955
11405TIP3   OH234159   7.637   4.368   5.047
11405TIP3    H134160   7.727   4.376   5.014
11405TIP3    H234161   7.609   4.281   5.020
11406TIP3   OH234162   6.506   0.797   1.961
11406TIP3    H134163   6.480   0.887   1.941
11406TIP3    H234164   6.543   0.802   2.049
11407TIP3   OH234165   7.754   6.632   2.031
11407TIP3    H134166   7.810   6.561   2.062
11407TIP3    H234167   7.666   6.594   2.027
11408TIP3   OH234168   6.259   6.987   2.551
11408TIP3    H134169   6.289   6.922   2.613
11408TIP3    H234170   6.238   7.064   2.604
11409TIP3   OH234171   1.585   0.953   3.195
11409TIP3    H134172   1.586   0.899   3.116
11409TIP3    H234173   1.677   0.960   3.220
11410TIP3   OH234174   2.179   3.878   3.477
11410TIP3    H134175   2.235   3.941   3.431
11410TIP3    H234176   2.207   3.792   3.444
11411TIP3   OH234177   8.150   0.595   2.997
11411TIP3    H134178   8.115   0.553   2.919
11411TIP3    H234179   8.245   0.585   2.989
11412TIP3   OH234180   2.564   6.078   2.856
11412TIP3    H134181   2.532   6.044   2.772
11412TIP3    H234182   2.538   6.011   2.920
11413TIP3   OH234183   2.894   1.246   2.624
11413TIP3    H134184   2.926   1.336   2.621
11413TIP3    H234185   2.799   1.253   2.616
11414TIP3   OH234186   4.712   6.105   0.720
11414TIP3    H134187   4.769   6.106   0.797
11414TIP3    H234188   4.714   6.015   0.690
11415TIP3   OH234189   4.134   0.300   2.397
11415TIP3    H134190   4.160   0.308   2.305
11415TIP3    H234191   4.108   0.389   2.422
11416TIP3   OH234192   7.600   3.426   1.359
11416TIP3    H134193   7.598   3.341   1.315
11416TIP3    H234194   7.508   3.450   1.369
11417TIP3   OH234195   7.058   3.024   4.429
11417TIP3    H134196   7.152   3.020   4.412
11417TIP3    H234197   7.048   2.990   4.518
11418TIP3   OH234198   4.958   5.782   4.706
11418TIP3    H134199   4.958   5.833   4.787
11418TIP3    H234200   4.889   5.717   4.718
11419TIP3   OH234201   0.264   7.355   5.007
11419TIP3    H134202   0.216   7.272   5.002
11419TIP3    H234203   0.197   7.421   5.023
11420TIP3   OH234204   6.957   1.854   6.231
11420TIP3    H134205   6.883   1.842   6.171
11420TIP3    H234206   7.016   1.780   6.211
11421TIP3   OH234207   4.888   3.951   4.567
11421TIP3    H134208   4.979   3.954   4.536
11421TIP3    H234209   4.836   3.950   4.487
11422TIP3   OH234210   5.046   1.439   0.986
11422TIP3    H134211   5.031   1.345   0.990
11422TIP3    H234212   5.080   1.455   0.898
11423TIP3   OH234213   5.327   5.342   6.797
11423TIP3    H134214   5.319   5.281   6.723
11423TIP3    H234215   5.245   5.391   6.797
11424TIP3   OH234216   7.093   4.476   0.176
11424TIP3    H134217   7.172   4.428   0.149
11424TIP3    H234218   7.028   4.408   0.190
11425TIP3   OH234219   6.806   1.775   5.472
11425TIP3    H134220   6.762   1.717   5.534
11425TIP3    H234221   6.776   1.863   5.497
11426TIP3   OH234222   4.373   2.434   1.453
11426TIP3    H134223   4.344   2.393   1.372
11426TIP3    H234224   4.391   2.360   1.512
11427TIP3   OH234225   6.749   1.137   0.162
11427TIP3    H134226   6.808   1.066   0.189
11427TIP3    H234227   6.789   1.216   0.198
11428TIP3   OH234228   1.457   1.591   1.991
11428TIP3    H134229   1.548   1.567   2.010
11428TIP3    H234230   1.406   1.552   2.063
11429TIP3   OH234231   0.968   1.254   0.952
11429TIP3    H134232   0.891   1.286   0.905
11429TIP3    H234233   0.948   1.271   1.044
11430TIP3   OH234234   4.569   6.188   1.684
11430TIP3    H134235   4.617   6.268   1.703
11430TIP3    H234236   4.613   6.120   1.735
11431TIP3   OH234237   1.024   7.005   6.636
11431TIP3    H134238   1.116   7.023   6.620
11431TIP3    H234239   1.020   6.980   6.729
11432TIP3   OH234240   7.395   7.095   3.463
11432TIP3    H134241   7.310   7.049   3.462
11432TIP3    H234242   7.459   7.024   3.471
11433TIP3   OH234243   7.477   6.865   2.126
11433TIP3    H134244   7.451   6.949   2.090
11433TIP3    H234245   7.540   6.830   2.063
11434TIP3   OH234246   5.237   3.318   2.673
11434TIP3    H134247   5.273   3.291   2.757
11434TIP3    H234248   5.223   3.236   2.625
11435TIP3   OH234249   3.823   0.753   5.878
11435TIP3    H134250   3.736   0.785   5.900
11435TIP3    H234251   3.830   0.669   5.923
11436TIP3   OH234252   7.733   3.282   1.986
11436TIP3    H134253   7.690   3.322   1.910
11436TIP3    H234254   7.744   3.355   2.047
11437TIP3   OH234255   0.656   5.598   0.639
11437TIP3    H134256   0.602   5.564   0.568
11437TIP3    H234257   0.666   5.524   0.699
11438TIP3   OH234258   6.125   3.991   5.901
11438TIP3    H134259   6.144   3.996   5.995
11438TIP3    H234260   6.116   3.897   5.884
11439TIP3   OH234261   1.958   1.869   6.562
11439TIP3    H134262   2.053   1.874   6.563
11439TIP3    H234263   1.937   1.797   6.622
11440TIP3   OH234264   6.316   3.063   4.954
11440TIP3    H134265   6.254   3.065   5.026
11440TIP3    H234266   6.394   3.023   4.991
11441TIP3   OH234267   0.755   2.482   6.069
11441TIP3    H134268   0.722   2.541   6.138
11441TIP3    H234269   0.816   2.536   6.019
11442TIP3   OH234270   7.725   3.152   4.112
11442TIP3    H134271   7.691   3.065   4.088
11442TIP3    H234272   7.648   3.202   4.136
11443TIP3   OH234273   7.722   6.576   6.060
11443TIP3    H134274   7.750   6.644   5.999
11443TIP3    H234275   7.803   6.548   6.103
11444TIP3   OH234276   1.953   7.571   4.750
11444TIP3    H134277   1.922   7.613   4.670
11444TIP3    H234278   2.024   7.514   4.721
11445TIP3   OH234279   2.603   7.829   5.797
11445TIP3    H134280   2.634   7.759   5.740
11445TIP3    H234281   2.539   7.877   5.745
11446TIP3   OH234282   7.453   1.682   0.559
11446TIP3    H134283   7.413   1.682   0.646
11446TIP3    H234284   7.381   1.706   0.500
11447TIP3   OH234285   1.241   3.862   4.041
11447TIP3    H134286   1.270   3.899   3.958
11447TIP3    H234287   1.151   3.835   4.024
11448TIP3   OH234288   1.881   4.193   5.623
11448TIP3    H134289   1.925   4.122   5.671
11448TIP3    H234290   1.815   4.225   5.685
11449TIP3   OH234291   2.410   1.198   4.077
11449TIP3    H134292   2.412   1.202   4.173
11449TIP3    H234293   2.333   1.145   4.056
11450TIP3   OH234294   4.339   6.787   6.167
11450TIP3    H134295   4.280   6.733   6.219
11450TIP3    H234296   4.295   6.795   6.082
11451TIP3   OH234297   1.684   2.451   5.221
11451TIP3    H134298   1.704   2.544   5.218
11451TIP3    H234299   1.605   2.445   5.275
11452TIP3   OH234300   3.553   7.187   3.599
11452TIP3    H134301   3.566   7.094   3.618
11452TIP3    H234302   3.513   7.222   3.678
11453TIP3   OH234303   1.331   0.309   4.429
11453TIP3    H134304   1.237   0.293   4.442
11453TIP3    H234305   1.348   0.283   4.339
11454TIP3   OH234306   7.988   0.326   2.371
11454TIP3    H134307   7.965   0.252   2.428
11454TIP3    H234308   8.049   0.289   2.307
11455TIP3   OH234309   8.033   1.100   4.519
11455TIP3    H134310   8.021   1.194   4.509
11455TIP3    H234311   7.970   1.061   4.459
11456TIP3   OH234312   1.387   0.059   1.508
11456TIP3    H134313   1.422   0.046   1.596
11456TIP3    H234314   1.452   0.114   1.464
11457TIP3   OH234315   3.638   7.006   0.302
11457TIP3    H134316   3.581   6.941   0.343
11457TIP3    H234317   3.641   6.979   0.210
11458TIP3   OH234318   7.555   4.529   4.399
11458TIP3    H134319   7.601   4.583   4.334
11458TIP3    H234320   7.469   4.514   4.361
11459TIP3   OH234321   3.010   4.474   0.171
11459TIP3    H134322   3.005   4.568   0.188
11459TIP3    H234323   2.999   4.466   0.076
11460TIP3   OH234324   1.452   1.997   5.947
11460TIP3    H134325   1.474   1.904   5.952
11460TIP3    H234326   1.411   2.017   6.031
11461TIP3   OH234327   5.336   7.436   5.328
11461TIP3    H134328   5.342   7.340   5.324
11461TIP3    H234329   5.404   7.461   5.392
11462TIP3   OH234330   7.562   0.381   5.866
11462TIP3    H134331   7.486   0.326   5.848
11462TIP3    H234332   7.604   0.394   5.781
11463TIP3   OH234333   1.118   4.701   5.564
11463TIP3    H134334   1.187   4.754   5.525
11463TIP3    H234335   1.136   4.704   5.658
11464TIP3   OH234336   0.804   6.681   1.263
11464TIP3    H134337   0.899   6.684   1.259
11464TIP3    H234338   0.776   6.773   1.257
11465TIP3   OH234339   4.931   2.317   1.609
11465TIP3    H134340   4.915   2.308   1.515
11465TIP3    H234341   5.025   2.330   1.617
11466TIP3   OH234342  -0.024   4.016   6.517
11466TIP3    H134343   0.002   3.926   6.540
11466TIP3    H234344   0.030   4.037   6.441
11467TIP3   OH234345   3.461   7.577   2.920
11467TIP3    H134346   3.396   7.551   2.855
11467TIP3    H234347   3.524   7.505   2.922
11468TIP3   OH234348   1.536   6.348   3.362
11468TIP3    H134349   1.532   6.304   3.447
11468TIP3    H234350   1.628   6.373   3.352
11469TIP3   OH234351   1.640   0.424   3.162
11469TIP3    H134352   1.724   0.389   3.193
11469TIP3    H234353   1.606   0.355   3.105
11470TIP3   OH234354   5.774   6.231   5.048
11470TIP3    H134355   5.795   6.151   5.096
11470TIP3    H234356   5.785   6.207   4.956
11471TIP3   OH234357   0.872   1.586   5.000
11471TIP3    H134358   0.863   1.493   5.024
11471TIP3    H234359   0.892   1.630   5.082
11472TIP3   OH234360   4.169   4.210   0.591
11472TIP3    H134361   4.114   4.133   0.606
11472TIP3    H234362   4.248   4.192   0.643
11473TIP3   OH234363   7.070   7.677   2.500
11473TIP3    H134364   7.153   7.719   2.478
11473TIP3    H234365   7.004   7.731   2.456
11474TIP3   OH234366   0.514   4.374   5.533
11474TIP3    H134367   0.463   4.400   5.457
11474TIP3    H234368   0.451   4.332   5.591
11475TIP3   OH234369   0.556   1.893   2.421
11475TIP3    H134370   0.621   1.960   2.398
11475TIP3    H234371   0.565   1.884   2.516
11476TIP3   OH234372   0.263   6.539   0.873
11476TIP3    H134373   0.306   6.624   0.877
11476TIP3    H234374   0.331   6.476   0.899
11477TIP3   OH234375   4.680   6.944   2.129
11477TIP3    H134376   4.677   6.912   2.039
11477TIP3    H234377   4.609   7.008   2.134
11478TIP3   OH234378   0.596   5.333   2.781
11478TIP3    H134379   0.508   5.312   2.811
11478TIP3    H234380   0.602   5.428   2.790
11479TIP3   OH234381   0.720   1.728   1.769
11479TIP3    H134382   0.696   1.752   1.679
11479TIP3    H234383   0.671   1.648   1.786
11480TIP3   OH234384   7.480   6.188   1.675
11480TIP3    H134385   7.518   6.272   1.702
11480TIP3    H234386   7.541   6.154   1.610
11481TIP3   OH234387   3.819   6.339   2.482
11481TIP3    H134388   3.861   6.397   2.419
11481TIP3    H234389   3.757   6.395   2.529
11482TIP3   OH234390   0.135   7.808   5.679
11482TIP3    H134391   0.197   7.826   5.609
11482TIP3    H234392   0.182   7.750   5.739
11483TIP3   OH234393   4.826   1.993   2.986
11483TIP3    H134394   4.731   1.981   2.980
11483TIP3    H234395   4.860   1.907   3.008
11484TIP3   OH234396   2.645   3.854   4.570
11484TIP3    H134397   2.613   3.777   4.617
11484TIP3    H234398   2.709   3.820   4.509
11485TIP3   OH234399   8.067   7.800   2.559
11485TIP3    H134400   8.045   7.739   2.489
11485TIP3    H234401   8.053   7.750   2.640
11486TIP3   OH234402   1.624   7.095   2.539
11486TIP3    H134403   1.583   7.036   2.475
11486TIP3    H234404   1.551   7.127   2.592
11487TIP3   OH234405   7.250   1.709   4.762
11487TIP3    H134406   7.172   1.718   4.816
11487TIP3    H234407   7.317   1.673   4.820
11488TIP3   OH234408   3.588   1.810   4.483
11488TIP3    H134409   3.637   1.769   4.554
11488TIP3    H234410   3.534   1.739   4.447
11489TIP3   OH234411   1.654   2.506   3.759
11489TIP3    H134412   1.709   2.429   3.741
11489TIP3    H234413   1.578   2.495   3.703
11490TIP3   OH234414   5.388   6.354   2.910
11490TIP3    H134415   5.377   6.448   2.927
11490TIP3    H234416   5.341   6.339   2.827
11491TIP3   OH234417   4.034   2.963   3.434
11491TIP3    H134418   4.097   2.960   3.505
11491TIP3    H234419   4.053   2.886   3.381
11492TIP3   OH234420   5.532   3.009   4.015
11492TIP3    H134421   5.462   2.960   4.058
11492TIP3    H234422   5.592   2.942   3.984
11493TIP3   OH234423   1.053   3.261   1.952
11493TIP3    H134424   1.059   3.260   2.047
11493TIP3    H234425   1.119   3.197   1.924
11494TIP3   OH234426   3.092   5.890   1.407
11494TIP3    H134427   3.146   5.909   1.484
11494TIP3    H234428   3.048   5.807   1.428
11495TIP3   OH234429   1.353   1.048   4.730
11495TIP3    H134430   1.414   1.051   4.656
11495TIP3    H234431   1.346   0.955   4.752
11496TIP3   OH234432   1.558   3.828   0.972
11496TIP3    H134433   1.477   3.782   0.948
11496TIP3    H234434   1.536   3.871   1.055
11497TIP3   OH234435   2.651   1.931   5.165
11497TIP3    H134436   2.675   1.947   5.074
11497TIP3    H234437   2.649   2.018   5.205
11498TIP3   OH234438   1.393   3.303   5.471
11498TIP3    H134439   1.439   3.298   5.387
11498TIP3    H234440   1.439   3.242   5.528
11499TIP3   OH234441   3.731   1.445   2.308
11499TIP3    H134442   3.799   1.389   2.271
11499TIP3    H234443   3.771   1.485   2.385
11500TIP3   OH234444   1.057   7.031   1.194
11500TIP3    H134445   1.005   7.071   1.124
11500TIP3    H234446   1.148   7.046   1.168
11501TIP3   OH234447   4.341   3.268   0.938
11501TIP3    H134448   4.274   3.228   0.993
11501TIP3    H234449   4.395   3.195   0.908
11502TIP3   OH234450   3.363   0.328   3.648
11502TIP3    H134451   3.275   0.289   3.642
11502TIP3    H234452   3.396   0.327   3.558
11503TIP3   OH234453   0.960   2.098   5.583
11503TIP3    H134454   0.873   2.136   5.575
11503TIP3    H234455   0.960   2.025   5.522
11504TIP3   OH234456   8.010   2.354   0.466
11504TIP3    H134457   7.981   2.445   0.469
11504TIP3    H234458   8.105   2.359   0.478
11505TIP3   OH234459   0.790   7.078   2.187
11505TIP3    H134460   0.806   7.144   2.255
11505TIP3    H234461   0.717   7.113   2.136
11506TIP3   OH234462   6.787   2.745   3.472
11506TIP3    H134463   6.827   2.658   3.469
11506TIP3    H234464   6.758   2.754   3.563
11507TIP3   OH234465   3.788   6.521   0.210
11507TIP3    H134466   3.728   6.543   0.138
11507TIP3    H234467   3.875   6.524   0.171
11508TIP3   OH234468   6.472   0.437   0.413
11508TIP3    H134469   6.512   0.419   0.327
11508TIP3    H234470   6.378   0.437   0.396
11509TIP3   OH234471   7.231   6.235   4.534
11509TIP3    H134472   7.198   6.325   4.534
11509TIP3    H234473   7.167   6.185   4.483
11510TIP3   OH234474   5.513   1.770   2.057
11510TIP3    H134475   5.426   1.786   2.093
11510TIP3    H234476   5.502   1.692   2.003
11511TIP3   OH234477   3.203   6.722   1.555
11511TIP3    H134478   3.272   6.729   1.621
11511TIP3    H234479   3.176   6.631   1.558
11512TIP3   OH234480   7.082   1.116   4.091
11512TIP3    H134481   7.033   1.058   4.150
11512TIP3    H234482   7.063   1.082   4.003
11513TIP3   OH234483   4.552   1.740   1.029
11513TIP3    H134484   4.613   1.773   0.963
11513TIP3    H234485   4.484   1.807   1.034
11514TIP3   OH234486   7.351   4.332   0.141
11514TIP3    H134487   7.383   4.418   0.169
11514TIP3    H234488   7.417   4.271   0.173
11515TIP3   OH234489   2.133   7.619   0.382
11515TIP3    H134490   2.159   7.552   0.318
11515TIP3    H234491   2.038   7.608   0.389
11516TIP3   OH234492   1.741   6.074   2.120
11516TIP3    H134493   1.792   6.051   2.197
11516TIP3    H234494   1.798   6.054   2.046
11517TIP3   OH234495   1.105   0.885   3.720
11517TIP3    H134496   1.186   0.843   3.746
11517TIP3    H234497   1.132   0.968   3.680
11518TIP3   OH234498   2.503   2.882   5.920
11518TIP3    H134499   2.487   2.788   5.916
11518TIP3    H234500   2.442   2.914   5.987
11519TIP3   OH234501   6.842   2.038   3.779
11519TIP3    H134502   6.772   2.066   3.839
11519TIP3    H234503   6.913   2.009   3.838
11520TIP3   OH234504   5.744   6.140   6.151
11520TIP3    H134505   5.661   6.142   6.104
11520TIP3    H234506   5.806   6.183   6.092
11521TIP3   OH234507   6.514   7.147   3.377
11521TIP3    H134508   6.603   7.147   3.340
11521TIP3    H234509   6.503   7.237   3.409
11522TIP3   OH234510   5.438   6.451   5.532
11522TIP3    H134511   5.442   6.516   5.602
11522TIP3    H234512   5.452   6.502   5.451
11523TIP3   OH234513   3.075   0.741   1.126
11523TIP3    H134514   3.016   0.747   1.202
11523TIP3    H234515   3.075   0.648   1.103
11524TIP3   OH234516   5.282   0.450   2.176
11524TIP3    H134517   5.255   0.501   2.253
11524TIP3    H234518   5.200   0.432   2.129
11525TIP3   OH234519   4.687   5.958   5.604
11525TIP3    H134520   4.593   5.961   5.585
11525TIP3    H234521   4.698   6.016   5.679
11526TIP3   OH234522   7.822   5.062   1.505
11526TIP3    H134523   7.817   5.128   1.574
11526TIP3    H234524   7.743   5.009   1.516
11527TIP3   OH234525   2.951   3.527   0.251
11527TIP3    H134526   3.022   3.565   0.200
11527TIP3    H234527   2.889   3.599   0.264
11528TIP3   OH234528   2.672   5.985   0.812
11528TIP3    H134529   2.730   5.928   0.863
11528TIP3    H234530   2.586   5.974   0.851
11529TIP3   OH234531   5.320   1.112   0.732
11529TIP3    H134532   5.306   1.067   0.815
11529TIP3    H234533   5.235   1.152   0.711
11530TIP3   OH234534   6.747   4.485   5.137
11530TIP3    H134535   6.802   4.532   5.200
11530TIP3    H234536   6.703   4.418   5.189
11531TIP3   OH234537   0.837   7.629   5.783
11531TIP3    H134538   0.875   7.550   5.823
11531TIP3    H234539   0.858   7.621   5.690
11532TIP3   OH234540   7.188   3.745   1.698
11532TIP3    H134541   7.189   3.785   1.611
11532TIP3    H234542   7.172   3.652   1.681
11533TIP3   OH234543   4.614   0.061   2.654
11533TIP3    H134544   4.651   0.109   2.580
11533TIP3    H234545   4.620   0.123   2.727
11534TIP3   OH234546   2.071   2.548   2.328
11534TIP3    H134547   1.985   2.514   2.304
11534TIP3    H234548   2.119   2.472   2.361
11535TIP3   OH234549   3.404   6.910   6.556
11535TIP3    H134550   3.462   6.986   6.554
11535TIP3    H234551   3.456   6.839   6.520
11536TIP3   OH234552   7.814   0.617   5.511
11536TIP3    H134553   7.866   0.607   5.431
11536TIP3    H234554   7.781   0.529   5.529
11537TIP3   OH234555   6.400   4.911   2.460
11537TIP3    H134556   6.438   4.997   2.480
11537TIP3    H234557   6.380   4.874   2.546
11538TIP3   OH234558   6.596   0.486   1.454
11538TIP3    H134559   6.641   0.415   1.408
11538TIP3    H234560   6.634   0.486   1.542
11539TIP3   OH234561   6.546   0.390   0.151
11539TIP3    H134562   6.638   0.372   0.133
11539TIP3    H234563   6.525   0.465   0.096
11540TIP3   OH234564   3.711   5.050   4.163
11540TIP3    H134565   3.684   4.960   4.181
11540TIP3    H234566   3.707   5.058   4.067
11541TIP3   OH234567   2.289   6.291   4.279
11541TIP3    H134568   2.345   6.313   4.205
11541TIP3    H234569   2.346   6.300   4.356
11542TIP3   OH234570   6.233   7.754   0.639
11542TIP3    H134571   6.239   7.833   0.692
11542TIP3    H234572   6.142   7.752   0.609
11543TIP3   OH234573   5.977   0.171   1.663
11543TIP3    H134574   6.031   0.187   1.741
11543TIP3    H234575   5.892   0.210   1.684
11544TIP3   OH234576   3.138   6.994   0.458
11544TIP3    H134577   3.061   6.993   0.401
11544TIP3    H234578   3.212   6.983   0.398
11545TIP3   OH234579   3.188   6.181   5.771
11545TIP3    H134580   3.258   6.229   5.725
11545TIP3    H234581   3.125   6.248   5.796
11546TIP3   OH234582   3.901   6.024   2.178
11546TIP3    H134583   3.871   5.943   2.221
11546TIP3    H234584   3.820   6.073   2.163
11547TIP3   OH234585   7.749   4.816   0.075
11547TIP3    H134586   7.689   4.810   0.001
11547TIP3    H234587   7.796   4.733   0.074
11548TIP3   OH234588   2.562   1.540   1.236
11548TIP3    H134589   2.494   1.593   1.195
11548TIP3    H234590   2.547   1.451   1.203
11549TIP3   OH234591   3.619   5.234   1.616
11549TIP3    H134592   3.658   5.262   1.699
11549TIP3    H234593   3.595   5.143   1.630
11550TIP3   OH234594   1.366   4.615   6.726
11550TIP3    H134595   1.431   4.638   6.659
11550TIP3    H234596   1.283   4.649   6.692
11551TIP3   OH234597   1.071   4.014   2.242
11551TIP3    H134598   1.015   4.063   2.303
11551TIP3    H234599   1.022   4.013   2.160
11552TIP3   OH234600   1.118   2.112   2.496
11552TIP3    H134601   1.063   2.187   2.520
11552TIP3    H234602   1.058   2.038   2.496
11553TIP3   OH234603   2.464   4.634   1.061
11553TIP3    H134604   2.509   4.550   1.055
11553TIP3    H234605   2.377   4.618   1.025
11554TIP3   OH234606   8.214   2.355   2.468
11554TIP3    H134607   8.187   2.266   2.490
11554TIP3    H234608   8.250   2.390   2.550
11555TIP3   OH234609   6.833   6.289   2.954
11555TIP3    H134610   6.838   6.377   2.916
11555TIP3    H234611   6.790   6.302   3.039
11556TIP3   OH234612   0.303   0.401   4.790
11556TIP3    H134613   0.367   0.463   4.754
11556TIP3    H234614   0.347   0.316   4.786
11557TIP3   OH234615   3.049   1.002   2.618
11557TIP3    H134616   3.046   0.994   2.522
11557TIP3    H234617   2.987   1.072   2.637
11558TIP3   OH234618   1.879   5.883   1.555
11558TIP3    H134619   1.901   5.891   1.463
11558TIP3    H234620   1.797   5.931   1.565
11559TIP3   OH234621   2.767   5.293   0.625
11559TIP3    H134622   2.828   5.261   0.559
11559TIP3    H234623   2.772   5.228   0.695
11560TIP3   OH234624   4.503   5.451   5.874
11560TIP3    H134625   4.469   5.462   5.786
11560TIP3    H234626   4.426   5.432   5.928
11561TIP3   OH234627   3.444   1.980   1.960
11561TIP3    H134628   3.388   2.028   2.021
11561TIP3    H234629   3.411   1.890   1.962
11562TIP3   OH234630   1.632   3.289   6.506
11562TIP3    H134631   1.690   3.362   6.527
11562TIP3    H234632   1.679   3.240   6.438
11563TIP3   OH234633   2.003   6.813   1.054
11563TIP3    H134634   1.933   6.752   1.030
11563TIP3    H234635   2.053   6.824   0.973
11564TIP3   OH234636   0.857   2.717   5.974
11564TIP3    H134637   0.887   2.744   5.887
11564TIP3    H234638   0.830   2.798   6.017
11565TIP3   OH234639   3.138   4.184   5.929
11565TIP3    H134640   3.173   4.136   6.004
11565TIP3    H234641   3.148   4.124   5.855
11566TIP3   OH234642   0.642   1.926   5.727
11566TIP3    H134643   0.639   1.916   5.631
11566TIP3    H234644   0.585   2.002   5.744
11567TIP3   OH234645   6.113   6.696   5.642
11567TIP3    H134646   6.153   6.706   5.729
11567TIP3    H234647   6.023   6.668   5.661
11568TIP3   OH234648   0.123   7.006   5.065
11568TIP3    H134649   0.143   6.927   5.014
11568TIP3    H234650   0.191   7.009   5.132
11569TIP3   OH234651   1.685   6.333   2.053
11569TIP3    H134652   1.602   6.348   2.008
11569TIP3    H234653   1.703   6.240   2.039
11570TIP3   OH234654   5.644   2.068   4.344
11570TIP3    H134655   5.662   2.082   4.251
11570TIP3    H234656   5.598   1.983   4.347
11571TIP3   OH234657   2.962   1.592   5.141
11571TIP3    H134658   2.975   1.499   5.122
11571TIP3    H234659   3.041   1.618   5.187
11572TIP3   OH234660   6.695   2.419   0.889
11572TIP3    H134661   6.726   2.486   0.827
11572TIP3    H234662   6.771   2.403   0.945
11573TIP3   OH234663   3.948   7.268   1.960
11573TIP3    H134664   3.897   7.320   2.023
11573TIP3    H234665   3.886   7.247   1.890
11574TIP3   OH234666   7.496   1.685   1.847
11574TIP3    H134667   7.473   1.595   1.868
11574TIP3    H234668   7.509   1.684   1.752
11575TIP3   OH234669   4.968   1.516   3.482
11575TIP3    H134670   5.002   1.570   3.411
11575TIP3    H234671   4.911   1.574   3.532
11576TIP3   OH234672   1.712   0.834   0.871
11576TIP3    H134673   1.696   0.906   0.810
11576TIP3    H234674   1.635   0.778   0.864
11577TIP3   OH234675   6.124   0.176   5.966
11577TIP3    H134676   6.062   0.111   6.001
11577TIP3    H234677   6.087   0.201   5.882
11578TIP3   OH234678   1.395   6.503   1.119
11578TIP3    H134679   1.400   6.418   1.076
11578TIP3    H234680   1.482   6.517   1.157
11579TIP3   OH234681   2.244   0.268   4.601
11579TIP3    H134682   2.206   0.311   4.677
11579TIP3    H234683   2.323   0.225   4.634
11580TIP3   OH234684   0.060   2.765   2.823
11580TIP3    H134685   0.054   2.759   2.919
11580TIP3    H234686   0.142   2.812   2.807
11581TIP3   OH234687   3.794   2.420   3.472
11581TIP3    H134688   3.721   2.409   3.533
11581TIP3    H234689   3.780   2.506   3.433
11582TIP3   OH234690   0.696   1.118   6.732
11582TIP3    H134691   0.724   1.208   6.750
11582TIP3    H234692   0.602   1.118   6.751
11583TIP3   OH234693   8.171   3.840   5.458
11583TIP3    H134694   8.092   3.883   5.426
11583TIP3    H234695   8.148   3.748   5.462
11584TIP3   OH234696   3.581   2.398   3.653
11584TIP3    H134697   3.558   2.482   3.694
11584TIP3    H234698   3.577   2.335   3.725
11585TIP3   OH234699   1.182   4.872   6.108
11585TIP3    H134700   1.164   4.848   6.017
11585TIP3    H234701   1.262   4.924   6.104
11586TIP3   OH234702   6.093   7.282   3.962
11586TIP3    H134703   6.145   7.268   3.882
11586TIP3    H234704   6.009   7.314   3.931
11587TIP3   OH234705   4.542   0.913   3.371
11587TIP3    H134706   4.473   0.863   3.413
11587TIP3    H234707   4.592   0.951   3.444
11588TIP3   OH234708   2.559   7.747   4.386
11588TIP3    H134709   2.574   7.663   4.431
11588TIP3    H234710   2.515   7.801   4.451
11589TIP3   OH234711   6.053   2.066   0.382
11589TIP3    H134712   5.974   2.059   0.437
11589TIP3    H234713   6.018   2.082   0.294
11590TIP3   OH234714   0.661   3.685   6.134
11590TIP3    H134715   0.599   3.650   6.198
11590TIP3    H234716   0.629   3.774   6.116
11591TIP3   OH234717   6.527   3.590   3.763
11591TIP3    H134718   6.558   3.523   3.703
11591TIP3    H234719   6.584   3.583   3.839
11592TIP3   OH234720   3.315   5.448   1.096
11592TIP3    H134721   3.312   5.353   1.092
11592TIP3    H234722   3.365   5.474   1.018
11593TIP3   OH234723   3.933   0.569   1.690
11593TIP3    H134724   3.892   0.512   1.624
11593TIP3    H234725   3.961   0.509   1.759
11594TIP3   OH234726   0.879   1.142   3.274
11594TIP3    H134727   0.840   1.193   3.344
11594TIP3    H234728   0.874   1.199   3.197
11595TIP3   OH234729   1.077   0.077   3.493
11595TIP3    H134730   1.030   0.006   3.539
11595TIP3    H234731   1.010   0.145   3.480
11596TIP3   OH234732   7.300   2.195   5.376
11596TIP3    H134733   7.225   2.172   5.431
11596TIP3    H234734   7.271   2.270   5.325
11597TIP3   OH234735   0.303   0.856   4.712
11597TIP3    H134736   0.246   0.783   4.688
11597TIP3    H234737   0.307   0.851   4.808
11598TIP3   OH234738   4.135   2.305   0.407
11598TIP3    H134739   4.228   2.281   0.411
11598TIP3    H234740   4.090   2.223   0.389
11599TIP3   OH234741   2.824   6.886   6.585
11599TIP3    H134742   2.865   6.864   6.501
11599TIP3    H234743   2.896   6.921   6.637
11600TIP3   OH234744   2.149   7.257   1.370
11600TIP3    H134745   2.110   7.191   1.312
11600TIP3    H234746   2.218   7.210   1.416
11601TIP3   OH234747   0.874   2.561   3.364
11601TIP3    H134748   0.905   2.532   3.278
11601TIP3    H234749   0.873   2.481   3.417
11602TIP3   OH234750   6.831   2.762   6.760
11602TIP3    H134751   6.762   2.712   6.717
11602TIP3    H234752   6.909   2.746   6.706
11603TIP3   OH234753   6.152   4.714   4.817
11603TIP3    H134754   6.220   4.726   4.884
11603TIP3    H234755   6.192   4.750   4.737
11604TIP3   OH234756   3.032   5.241   4.463
11604TIP3    H134757   3.080   5.311   4.419
11604TIP3    H234758   2.973   5.206   4.396
11605TIP3   OH234759   7.012   1.388   5.289
11605TIP3    H134760   6.948   1.378   5.360
11605TIP3    H234761   7.090   1.342   5.321
11606TIP3   OH234762   6.951   4.267   3.751
11606TIP3    H134763   7.008   4.334   3.714
11606TIP3    H234764   6.865   4.283   3.711
11607TIP3   OH234765   1.152   7.099   0.509
11607TIP3    H134766   1.153   7.004   0.510
11607TIP3    H234767   1.060   7.122   0.491
11608TIP3   OH234768   3.284   0.765   4.194
11608TIP3    H134769   3.198   0.756   4.155
11608TIP3    H234770   3.280   0.847   4.244
11609TIP3   OH234771   4.795   2.716   2.615
11609TIP3    H134772   4.882   2.757   2.609
11609TIP3    H234773   4.805   2.650   2.684
11610TIP3   OH234774   3.626   1.705   5.796
11610TIP3    H134775   3.675   1.787   5.785
11610TIP3    H234776   3.543   1.721   5.751
11611TIP3   OH234777   2.830   7.305   0.996
11611TIP3    H134778   2.874   7.352   0.925
11611TIP3    H234779   2.868   7.342   1.076
11612TIP3   OH234780   4.767   4.680   3.996
11612TIP3    H134781   4.729   4.708   4.079
11612TIP3    H234782   4.753   4.585   3.993
11613TIP3   OH234783   0.797   2.798   4.740
11613TIP3    H134784   0.755   2.872   4.784
11613TIP3    H234785   0.845   2.837   4.667
11614TIP3   OH234786   4.671   7.700   3.785
11614TIP3    H134787   4.603   7.759   3.754
11614TIP3    H234788   4.744   7.713   3.723
11615TIP3   OH234789   7.267   6.779   2.264
11615TIP3    H134790   7.276   6.820   2.350
11615TIP3    H234791   7.344   6.808   2.215
11616TIP3   OH234792   1.197   1.199   6.573
11616TIP3    H134793   1.263   1.186   6.642
11616TIP3    H234794   1.134   1.261   6.610
11617TIP3   OH234795   3.683   0.916   4.359
11617TIP3    H134796   3.739   0.904   4.282
11617TIP3    H234797   3.620   0.983   4.333
11618TIP3   OH234798   0.687   1.103   4.611
11618TIP3    H134799   0.725   1.190   4.602
11618TIP3    H234800   0.758   1.043   4.593
11619TIP3   OH234801   0.450   6.258   2.902
11619TIP3    H134802   0.355   6.250   2.899
11619TIP3    H234803   0.466   6.353   2.909
11620TIP3   OH234804   4.824   0.293   1.462
11620TIP3    H134805   4.885   0.288   1.535
11620TIP3    H234806   4.878   0.279   1.384
11621TIP3   OH234807   1.263   5.589   6.478
11621TIP3    H134808   1.276   5.570   6.571
11621TIP3    H234809   1.269   5.684   6.472
11622TIP3   OH234810   7.118   0.255   4.863
11622TIP3    H134811   7.046   0.267   4.925
11622TIP3    H234812   7.180   0.198   4.909
11623TIP3   OH234813   6.962   6.371   4.209
11623TIP3    H134814   7.002   6.448   4.250
11623TIP3    H234815   7.036   6.312   4.191
11624TIP3   OH234816   4.364   0.488   2.602
11624TIP3    H134817   4.277   0.502   2.566
11624TIP3    H234818   4.382   0.566   2.655
11625TIP3   OH234819   8.098   7.433   3.964
11625TIP3    H134820   8.185   7.409   3.995
11625TIP3    H234821   8.038   7.385   4.022
11626TIP3   OH234822   5.418   0.274   2.525
11626TIP3    H134823   5.327   0.276   2.494
11626TIP3    H234824   5.470   0.249   2.449
11627TIP3   OH234825   3.006   4.417   3.208
11627TIP3    H134826   3.037   4.377   3.126
11627TIP3    H234827   2.986   4.342   3.264
11628TIP3   OH234828   2.855   4.613   3.090
11628TIP3    H134829   2.903   4.539   3.129
11628TIP3    H234830   2.780   4.572   3.048
11629TIP3   OH234831   1.414   0.776   4.742
11629TIP3    H134832   1.412   0.700   4.684
11629TIP3    H234833   1.398   0.739   4.829
11630TIP3   OH234834   7.474   1.870   2.061
11630TIP3    H134835   7.462   1.800   1.996
11630TIP3    H234836   7.396   1.865   2.116
11631TIP3   OH234837   5.715   3.255   2.601
11631TIP3    H134838   5.631   3.293   2.575
11631TIP3    H234839   5.776   3.283   2.533
11632TIP3   OH234840   6.039   3.284   0.715
11632TIP3    H134841   6.083   3.339   0.650
11632TIP3    H234842   5.946   3.308   0.708
11633TIP3   OH234843   6.010   4.702   5.772
11633TIP3    H134844   6.059   4.662   5.700
11633TIP3    H234845   5.926   4.727   5.734
11634TIP3   OH234846   3.620   1.339   6.486
11634TIP3    H134847   3.593   1.262   6.437
11634TIP3    H234848   3.649   1.305   6.571
11635TIP3   OH234849   2.958   1.551   0.847
11635TIP3    H134850   2.996   1.478   0.799
11635TIP3    H234851   2.879   1.573   0.798
11636TIP3   OH234852   5.790   5.720   0.551
11636TIP3    H134853   5.799   5.781   0.624
11636TIP3    H234854   5.808   5.774   0.473
11637TIP3   OH234855   1.707   0.979   5.698
11637TIP3    H134856   1.666   0.893   5.711
11637TIP3    H234857   1.644   1.027   5.643
11638TIP3   OH234858   4.271   1.379   6.310
11638TIP3    H134859   4.280   1.432   6.231
11638TIP3    H234860   4.222   1.302   6.281
11639TIP3   OH234861   4.775   2.057   3.313
11639TIP3    H134862   4.846   2.065   3.249
11639TIP3    H234863   4.726   2.139   3.303
11640TIP3   OH234864   1.340   2.512   0.373
11640TIP3    H134865   1.306   2.423   0.376
11640TIP3    H234866   1.267   2.565   0.341
11641TIP3   OH234867   5.481   7.150   0.129
11641TIP3    H134868   5.537   7.135   0.053
11641TIP3    H234869   5.419   7.077   0.129
11642TIP3   OH234870   5.657   6.132   3.185
11642TIP3    H134871   5.595   6.059   3.189
11642TIP3    H234872   5.661   6.154   3.092
11643TIP3   OH234873   2.760   5.488   0.838
11643TIP3    H134874   2.748   5.446   0.753
11643TIP3    H234875   2.802   5.421   0.892
11644TIP3   OH234876   6.388   0.661   6.118
11644TIP3    H134877   6.295   0.683   6.106
11644TIP3    H234878   6.411   0.701   6.202
11645TIP3   OH234879   3.022   1.032   4.617
11645TIP3    H134880   3.055   0.992   4.536
11645TIP3    H234881   3.010   0.958   4.677
11646TIP3   OH234882   3.692   0.963   5.231
11646TIP3    H134883   3.691   1.058   5.236
11646TIP3    H234884   3.692   0.935   5.323
11647TIP3   OH234885   2.604   1.777   0.406
11647TIP3    H134886   2.657   1.773   0.327
11647TIP3    H234887   2.518   1.807   0.377
11648TIP3   OH234888   3.976   3.735   5.678
11648TIP3    H134889   3.930   3.666   5.630
11648TIP3    H234890   3.923   3.813   5.662
11649TIP3   OH234891   0.398   3.787   3.160
11649TIP3    H134892   0.344   3.765   3.084
11649TIP3    H234893   0.485   3.757   3.136
11650TIP3   OH234894   2.761   4.141   3.419
11650TIP3    H134895   2.744   4.146   3.513
11650TIP3    H234896   2.855   4.157   3.411
11651TIP3   OH234897   7.092   0.263   5.572
11651TIP3    H134898   7.139   0.345   5.557
11651TIP3    H234899   7.032   0.256   5.498
11652TIP3   OH234900   3.844   2.025   1.670
11652TIP3    H134901   3.937   2.048   1.672
11652TIP3    H234902   3.834   1.961   1.740
11653TIP3   OH234903   0.562   7.327   0.989
11653TIP3    H134904   0.610   7.266   1.045
11653TIP3    H234905   0.482   7.346   1.038
11654TIP3   OH234906   5.506   6.902   4.423
11654TIP3    H134907   5.574   6.834   4.426
11654TIP3    H234908   5.523   6.949   4.341
11655TIP3   OH234909   0.627   6.845   6.187
11655TIP3    H134910   0.716   6.878   6.197
11655TIP3    H234911   0.615   6.839   6.092
11656TIP3   OH234912   1.583   1.314   1.527
11656TIP3    H134913   1.619   1.351   1.446
11656TIP3    H234914   1.496   1.354   1.534
11657TIP3   OH234915   6.722   5.958   5.467
11657TIP3    H134916   6.714   5.871   5.507
11657TIP3    H234917   6.815   5.978   5.470
11658TIP3   OH234918   3.106   1.918   3.868
11658TIP3    H134919   3.156   1.989   3.829
11658TIP3    H234920   3.169   1.847   3.879
11659TIP3   OH234921   1.963   0.206   4.338
11659TIP3    H134922   2.048   0.213   4.381
11659TIP3    H234923   1.977   0.245   4.252
11660TIP3   OH234924   2.112   6.986   0.583
11660TIP3    H134925   2.200   6.973   0.546
11660TIP3    H234926   2.094   7.079   0.571
11661TIP3   OH234927   1.995   5.196   3.403
11661TIP3    H134928   1.901   5.180   3.407
11661TIP3    H234929   2.007   5.275   3.456
11662TIP3   OH234930   6.685   4.280   3.590
11662TIP3    H134931   6.760   4.310   3.539
11662TIP3    H234932   6.640   4.218   3.532
11663TIP3   OH234933   2.598   7.703   1.653
11663TIP3    H134934   2.541   7.645   1.601
11663TIP3    H234935   2.670   7.724   1.594
11664TIP3   OH234936   7.695   7.065   3.375
11664TIP3    H134937   7.756   6.995   3.353
11664TIP3    H234938   7.746   7.146   3.362
11665TIP3   OH234939   7.491   7.799   2.904
11665TIP3    H134940   7.514   7.890   2.924
11665TIP3    H234941   7.510   7.751   2.984
11666TIP3   OH234942   5.896   1.953   4.421
11666TIP3    H134943   5.839   1.884   4.455
11666TIP3    H234944   5.835   2.019   4.387
11667TIP3   OH234945   6.198   6.918   0.915
11667TIP3    H134946   6.109   6.950   0.900
11667TIP3    H234947   6.208   6.918   1.010
11668TIP3   OH234948   1.203   5.224   4.834
11668TIP3    H134949   1.295   5.225   4.862
11668TIP3    H234950   1.153   5.213   4.915
11669TIP3   OH234951   2.016   7.788   1.689
11669TIP3    H134952   2.108   7.782   1.662
11669TIP3    H234953   1.968   7.743   1.620
11670TIP3   OH234954   0.621   0.125   5.677
11670TIP3    H134955   0.617   0.045   5.729
11670TIP3    H234956   0.569   0.189   5.726
11671TIP3   OH234957   1.987   5.150   4.151
11671TIP3    H134958   1.915   5.122   4.095
11671TIP3    H234959   2.050   5.078   4.148
11672TIP3   OH234960   3.167   1.014   2.854
11672TIP3    H134961   3.119   0.959   2.793
11672TIP3    H234962   3.188   0.956   2.927
11673TIP3   OH234963   5.257   6.194   4.335
11673TIP3    H134964   5.215   6.111   4.360
11673TIP3    H234965   5.212   6.260   4.388
11674TIP3   OH234966   2.977   4.112   1.183
11674TIP3    H134967   2.924   4.188   1.158
11674TIP3    H234968   3.012   4.134   1.269
11675TIP3   OH234969   5.379   3.236   3.996
11675TIP3    H134970   5.433   3.157   4.002
11675TIP3    H234971   5.432   3.306   4.034
11676TIP3   OH234972   5.755   4.399   1.143
11676TIP3    H134973   5.745   4.387   1.237
11676TIP3    H234974   5.696   4.471   1.122
11677TIP3   OH234975   0.198   1.404   0.593
11677TIP3    H134976   0.276   1.448   0.626
11677TIP3    H234977   0.232   1.333   0.538
11678TIP3   OH234978   8.001   7.787   3.957
11678TIP3    H134979   7.984   7.693   3.947
11678TIP3    H234980   7.961   7.810   4.041
11679TIP3   OH234981   4.066   6.316   6.725
11679TIP3    H134982   4.023   6.401   6.740
11679TIP3    H234983   4.141   6.317   6.784
11680TIP3   OH234984   4.666   7.113   1.488
11680TIP3    H134985   4.664   7.201   1.524
11680TIP3    H234986   4.594   7.067   1.531
11681TIP3   OH234987   3.263   0.059   0.622
11681TIP3    H134988   3.245   0.152   0.611
11681TIP3    H234989   3.356   0.050   0.603
11682TIP3   OH234990   6.928   6.772   4.452
11682TIP3    H134991   6.898   6.848   4.401
11682TIP3    H234992   7.000   6.806   4.505
11683TIP3   OH234993   7.674   6.563   3.433
11683TIP3    H134994   7.762   6.588   3.459
11683TIP3    H234995   7.633   6.534   3.515
11684TIP3   OH234996   7.601   7.313   1.015
11684TIP3    H134997   7.683   7.282   0.977
11684TIP3    H234998   7.579   7.247   1.080
11685TIP3   OH234999   3.904   6.873   1.852
11685TIP3    H135000   3.937   6.863   1.941
11685TIP3    H235001   3.819   6.831   1.852
11686TIP3   OH235002   0.596   2.110   1.188
11686TIP3    H135003   0.678   2.061   1.180
11686TIP3    H235004   0.551   2.095   1.105
11687TIP3   OH235005   7.653   3.337   2.719
11687TIP3    H135006   7.694   3.395   2.654
11687TIP3    H235007   7.589   3.287   2.669
11688TIP3   OH235008   7.516   7.669   3.930
11688TIP3    H135009   7.492   7.579   3.908
11688TIP3    H235010   7.553   7.663   4.018
11689TIP3   OH235011   6.835   7.029   4.429
11689TIP3    H135012   6.911   7.087   4.428
11689TIP3    H235013   6.788   7.052   4.509
11690TIP3   OH235014   2.183   4.190   4.712
11690TIP3    H135015   2.199   4.284   4.727
11690TIP3    H235016   2.095   4.186   4.675
11691TIP3   OH235017   7.020   6.782   3.633
11691TIP3    H135018   7.098   6.764   3.684
11691TIP3    H235019   6.985   6.696   3.610
11692TIP3   OH235020   7.445   2.145   3.580
11692TIP3    H135021   7.533   2.115   3.560
11692TIP3    H235022   7.388   2.089   3.528
11693TIP3   OH235023   3.907   0.056   0.124
11693TIP3    H135024   3.975  -0.007   0.100
11693TIP3    H235025   3.950   0.114   0.187
11694TIP3   OH235026   0.990   5.386   2.552
11694TIP3    H135027   0.899   5.358   2.565
11694TIP3    H235028   1.022   5.329   2.483
11695TIP3   OH235029   2.867   4.589   4.114
11695TIP3    H135030   2.797   4.544   4.161
11695TIP3    H235031   2.862   4.680   4.145
11696TIP3   OH235032   5.048   2.106   3.204
11696TIP3    H135033   5.094   2.126   3.122
11696TIP3    H235034   5.032   2.192   3.244
11697TIP3   OH235035   5.629   4.110   0.480
11697TIP3    H135036   5.613   4.015   0.475
11697TIP3    H235037   5.697   4.119   0.547
11698TIP3   OH235038   2.693   5.169   4.290
11698TIP3    H135039   2.741   5.250   4.306
11698TIP3    H235040   2.647   5.184   4.208
11699TIP3   OH235041   4.646   6.154   5.148
11699TIP3    H135042   4.699   6.101   5.207
11699TIP3    H235043   4.557   6.121   5.158
11700TIP3   OH235044   2.193   3.749   4.800
11700TIP3    H135045   2.188   3.792   4.714
11700TIP3    H235046   2.109   3.769   4.841
11701TIP3   OH235047   1.909   6.264   1.876
11701TIP3    H135048   1.925   6.170   1.869
11701TIP3    H235049   1.993   6.305   1.854
11702TIP3   OH235050   2.542   4.623   3.696
11702TIP3    H135051   2.572   4.623   3.787
11702TIP3    H235052   2.616   4.589   3.646
11703TIP3   OH235053   1.296   2.895   2.086
11703TIP3    H135054   1.378   2.927   2.049
11703TIP3    H235055   1.324   2.834   2.155
11704TIP3   OH235056   4.601   1.338   0.244
11704TIP3    H135057   4.633   1.301   0.161
11704TIP3    H235058   4.558   1.265   0.288
11705TIP3   OH235059   6.757   5.031   3.333
11705TIP3    H135060   6.716   5.013   3.418
11705TIP3    H235061   6.796   5.117   3.344
11706TIP3   OH235062   1.534   4.599   3.475
11706TIP3    H135063   1.540   4.553   3.559
11706TIP3    H235064   1.492   4.683   3.496
11707TIP3   OH235065   2.634   4.726   4.853
11707TIP3    H135066   2.691   4.790   4.895
11707TIP3    H235067   2.595   4.677   4.926
11708TIP3   OH235068   3.703   1.023   0.542
11708TIP3    H135069   3.640   0.957   0.511
11708TIP3    H235070   3.709   1.085   0.469
11709TIP3   OH235071   2.731   7.530   3.092
11709TIP3    H135072   2.806   7.566   3.139
11709TIP3    H235073   2.765   7.452   3.048
11710TIP3   OH235074   2.648   6.575   1.999
11710TIP3    H135075   2.693   6.649   1.959
11710TIP3    H235076   2.717   6.512   2.017
11711TIP3   OH235077   3.691   0.274   6.165
11711TIP3    H135078   3.644   0.191   6.168
11711TIP3    H235079   3.684   0.303   6.074
11712TIP3   OH235080   2.111   6.570   2.445
11712TIP3    H135081   2.202   6.554   2.471
11712TIP3    H235082   2.116   6.590   2.352
11713TIP3   OH235083   4.956   5.646   2.628
11713TIP3    H135084   5.017   5.599   2.686
11713TIP3    H235085   5.007   5.662   2.548
11714TIP3   OH235086   2.425   4.149   3.667
11714TIP3    H135087   2.405   4.232   3.709
11714TIP3    H235088   2.402   4.161   3.575
11715TIP3   OH235089   1.282   4.703   5.051
11715TIP3    H135090   1.220   4.632   5.067
11715TIP3    H235091   1.305   4.696   4.959
11716TIP3   OH235092   6.383   0.985   5.632
11716TIP3    H135093   6.362   1.000   5.540
11716TIP3    H235094   6.472   0.948   5.630
11717TIP3   OH235095   7.562   0.479   6.424
11717TIP3    H135096   7.498   0.513   6.487
11717TIP3    H235097   7.509   0.450   6.351
11718TIP3   OH235098   0.799   6.320   2.479
11718TIP3    H135099   0.777   6.311   2.386
11718TIP3    H235100   0.874   6.380   2.480
11719TIP3   OH235101   3.508   1.451   3.245
11719TIP3    H135102   3.569   1.519   3.275
11719TIP3    H235103   3.563   1.374   3.230
11720TIP3   OH235104   6.885   6.453   2.715
11720TIP3    H135105   6.837   6.536   2.718
11720TIP3    H235106   6.875   6.423   2.625
11721TIP3   OH235107   4.009   7.574   6.157
11721TIP3    H135108   3.987   7.602   6.069
11721TIP3    H235109   3.924   7.551   6.197
11722TIP3   OH235110   1.407   5.192   3.808
11722TIP3    H135111   1.355   5.213   3.885
11722TIP3    H235112   1.429   5.099   3.818
11723TIP3   OH235113   7.993   6.980   4.605
11723TIP3    H135114   7.959   7.068   4.622
11723TIP3    H235115   8.080   6.979   4.645
11724TIP3   OH235116   5.296   0.550   0.863
11724TIP3    H135117   5.234   0.596   0.805
11724TIP3    H235118   5.380   0.591   0.844
11725TIP3   OH235119   1.803   1.611   5.385
11725TIP3    H135120   1.769   1.637   5.299
11725TIP3    H235121   1.742   1.652   5.447
11726TIP3   OH235122   4.854   0.466   3.314
11726TIP3    H135123   4.770   0.507   3.336
11726TIP3    H235124   4.855   0.463   3.219
11727TIP3   OH235125   6.837   4.915   2.503
11727TIP3    H135126   6.819   4.853   2.432
11727TIP3    H235127   6.758   4.912   2.558
11728TIP3   OH235128   1.874   3.129   1.940
11728TIP3    H135129   1.847   3.041   1.916
11728TIP3    H235130   1.841   3.184   1.869
11729TIP3   OH235131   0.893   3.239   2.974
11729TIP3    H135132   0.986   3.262   2.977
11729TIP3    H235133   0.892   3.143   2.970
11730TIP3   OH235134   2.369   1.963   2.109
11730TIP3    H135135   2.435   1.895   2.123
11730TIP3    H235136   2.382   1.991   2.018
11731TIP3   OH235137   3.061   0.802   4.786
11731TIP3    H135138   3.156   0.792   4.786
11731TIP3    H235139   3.037   0.811   4.878
11732TIP3   OH235140   1.196   5.224   1.770
11732TIP3    H135141   1.220   5.136   1.742
11732TIP3    H235142   1.103   5.217   1.793
11733TIP3   OH235143   0.173   6.351   4.543
11733TIP3    H135144   0.166   6.256   4.549
11733TIP3    H235145   0.228   6.376   4.617
11734TIP3   OH235146   3.484   6.645   3.454
11734TIP3    H135147   3.417   6.709   3.478
11734TIP3    H235148   3.545   6.645   3.528
11735TIP3   OH235149   0.705   7.576   0.491
11735TIP3    H135150   0.759   7.498   0.495
11735TIP3    H235151   0.741   7.635   0.557
11736TIP3   OH235152   2.948   2.995   4.016
11736TIP3    H135153   2.987   3.043   3.943
11736TIP3    H235154   2.868   3.044   4.037
11737TIP3   OH235155   5.783   3.346   0.779
11737TIP3    H135156   5.776   3.396   0.698
11737TIP3    H235157   5.716   3.384   0.836
11738TIP3   OH235158   6.091   6.127   0.177
11738TIP3    H135159   6.072   6.081   0.096
11738TIP3    H235160   6.170   6.178   0.158
11739TIP3   OH235161   6.155   3.868   0.645
11739TIP3    H135162   6.168   3.955   0.684
11739TIP3    H235163   6.092   3.883   0.574
11740TIP3   OH235164   8.253   1.829   5.981
11740TIP3    H135165   8.252   1.874   6.066
11740TIP3    H235166   8.339   1.788   5.976
11741TIP3   OH235167   1.915   4.785   1.936
11741TIP3    H135168   1.954   4.707   1.977
11741TIP3    H235169   1.855   4.819   2.002
11742TIP3   OH235170   4.421   5.027   3.334
11742TIP3    H135171   4.432   4.947   3.283
11742TIP3    H235172   4.447   5.002   3.423
11743TIP3   OH235173   7.399   3.911   0.287
11743TIP3    H135174   7.315   3.957   0.281
11743TIP3    H235175   7.398   3.870   0.373
11744TIP3   OH235176   6.335   6.782   4.584
11744TIP3    H135177   6.268   6.850   4.586
11744TIP3    H235178   6.392   6.802   4.658
11745TIP3   OH235179   1.901   7.738   0.702
11745TIP3    H135180   1.958   7.665   0.678
11745TIP3    H235181   1.816   7.714   0.664
11746TIP3   OH235182   7.704   1.584   0.610
11746TIP3    H135183   7.753   1.535   0.544
11746TIP3    H235184   7.616   1.593   0.572
11747TIP3   OH235185   2.157   3.353   5.867
11747TIP3    H135186   2.114   3.302   5.936
11747TIP3    H235187   2.241   3.378   5.905
11748TIP3   OH235188   0.314   7.290   2.634
11748TIP3    H135189   0.285   7.378   2.659
11748TIP3    H235190   0.396   7.278   2.683
11749TIP3   OH235191   4.527   6.221   2.335
11749TIP3    H135192   4.527   6.301   2.387
11749TIP3    H235193   4.463   6.237   2.266
11750TIP3   OH235194   7.595   7.795   3.689
11750TIP3    H135195   7.590   7.756   3.776
11750TIP3    H235196   7.550   7.733   3.631
11751TIP3   OH235197   0.616   0.727   0.408
11751TIP3    H135198   0.579   0.673   0.478
11751TIP3    H235199   0.543   0.779   0.375
11752TIP3   OH235200   2.076   6.566   6.448
11752TIP3    H135201   1.991   6.549   6.487
11752TIP3    H235202   2.134   6.580   6.524
11753TIP3   OH235203   4.240   2.871   4.962
11753TIP3    H135204   4.295   2.900   5.034
11753TIP3    H235205   4.181   2.806   5.000
11754TIP3   OH235206   6.129   5.192   3.491
11754TIP3    H135207   6.225   5.198   3.484
11754TIP3    H235208   6.097   5.263   3.436
11755TIP3   OH235209   7.159   2.555   2.821
11755TIP3    H135210   7.074   2.595   2.802
11755TIP3    H235211   7.143   2.496   2.894
11756TIP3   OH235212   7.373   0.498   0.809
11756TIP3    H135213   7.321   0.514   0.730
11756TIP3    H235214   7.418   0.581   0.825
11757TIP3   OH235215   7.568   3.644   5.778
11757TIP3    H135216   7.542   3.555   5.801
11757TIP3    H235217   7.509   3.700   5.829
11758TIP3   OH235218   2.047   7.208   3.594
11758TIP3    H135219   2.125   7.255   3.565
11758TIP3    H235220   1.975   7.252   3.548
11759TIP3   OH235221   3.104   0.837   5.104
11759TIP3    H135222   3.121   0.745   5.122
11759TIP3    H235223   3.018   0.837   5.062
11760TIP3   OH235224   4.294   7.408   4.137
11760TIP3    H135225   4.314   7.397   4.044
11760TIP3    H235226   4.211   7.363   4.150
11761TIP3   OH235227   4.357   7.253   2.421
11761TIP3    H135228   4.310   7.288   2.346
11761TIP3    H235229   4.353   7.322   2.487
11762TIP3   OH235230   3.512   1.225   0.024
11762TIP3    H135231   3.515   1.129   0.023
11762TIP3    H235232   3.424   1.245   0.056
11763TIP3   OH235233   1.422   7.366   3.165
11763TIP3    H135234   1.388   7.400   3.081
11763TIP3    H235235   1.365   7.405   3.231
11764TIP3   OH235236   5.990   5.403   3.739
11764TIP3    H135237   5.944   5.468   3.793
11764TIP3    H235238   5.925   5.333   3.725
11765TIP3   OH235239   4.277   5.218   1.438
11765TIP3    H135240   4.363   5.177   1.432
11765TIP3    H235241   4.256   5.215   1.532
11766TIP3   OH235242   8.093   2.189   6.772
11766TIP3    H135243   8.063   2.221   6.687
11766TIP3    H235244   8.077   2.095   6.770
11767TIP3   OH235245   3.030   0.204   4.962
11767TIP3    H135246   3.108   0.157   4.932
11767TIP3    H235247   3.000   0.253   4.886
11768TIP3   OH235248   3.865   4.875   2.614
11768TIP3    H135249   3.870   4.821   2.693
11768TIP3    H235250   3.897   4.819   2.544
11769TIP3   OH235251   2.101   7.553   3.969
11769TIP3    H135252   2.064   7.557   3.881
11769TIP3    H235253   2.195   7.564   3.955
11770TIP3   OH235254   7.792   0.244   4.305
11770TIP3    H135255   7.773   0.205   4.390
11770TIP3    H235256   7.824   0.171   4.251
11771TIP3   OH235257   2.987   4.916   1.079
11771TIP3    H135258   2.913   4.892   1.135
11771TIP3    H235259   2.962   4.885   0.992
11772TIP3   OH235260   3.133   0.108   2.085
11772TIP3    H135261   3.156   0.032   2.031
11772TIP3    H235262   3.211   0.126   2.137
11773TIP3   OH235263   7.893   6.817   4.095
11773TIP3    H135264   7.960   6.783   4.155
11773TIP3    H235265   7.929   6.801   4.008
11774TIP3   OH235266   7.266   6.443   1.810
11774TIP3    H135267   7.340   6.407   1.762
11774TIP3    H235268   7.215   6.490   1.743
11775TIP3   OH235269   0.373   1.747   4.265
11775TIP3    H135270   0.426   1.827   4.267
11775TIP3    H235271   0.417   1.690   4.203
11776TIP3   OH235272   6.031   3.542   0.128
11776TIP3    H135273   6.014   3.623   0.080
11776TIP3    H235274   6.126   3.541   0.141
11777TIP3   OH235275   7.617   2.285   0.606
11777TIP3    H135276   7.581   2.264   0.692
11777TIP3    H235277   7.677   2.213   0.586
11778TIP3   OH235278   8.144   0.518   0.736
11778TIP3    H135279   8.062   0.517   0.686
11778TIP3    H235280   8.130   0.583   0.805
11779TIP3   OH235281   5.212   1.700   3.773
11779TIP3    H135282   5.266   1.777   3.791
11779TIP3    H235283   5.138   1.707   3.833
11780TIP3   OH235284   4.012   0.738   0.192
11780TIP3    H135285   3.953   0.777   0.127
11780TIP3    H235286   4.099   0.745   0.152
11781TIP3   OH235287   2.836   0.829   5.022
11781TIP3    H135288   2.778   0.830   4.945
11781TIP3    H235289   2.798   0.763   5.079
11782TIP3   OH235290   0.515   5.014   1.899
11782TIP3    H135291   0.425   4.996   1.870
11782TIP3    H235292   0.568   5.001   1.820
11783TIP3   OH235293   1.979   1.809   2.119
11783TIP3    H135294   1.986   1.715   2.136
11783TIP3    H235295   1.886   1.824   2.100
11784TIP3   OH235296   3.234   0.350   5.354
11784TIP3    H135297   3.181   0.275   5.327
11784TIP3    H235298   3.229   0.350   5.450
11785TIP3   OH235299   6.101   0.468   2.558
11785TIP3    H135300   6.173   0.495   2.615
11785TIP3    H235301   6.023   0.507   2.597
11786TIP3   OH235302   2.895   6.408   0.552
11786TIP3    H135303   2.867   6.325   0.514
11786TIP3    H235304   2.988   6.416   0.528
11787TIP3   OH235305   1.282   5.306   5.996
11787TIP3    H135306   1.243   5.325   6.081
11787TIP3    H235307   1.206   5.289   5.939
11788TIP3   OH235308   0.410   4.009   0.980
11788TIP3    H135309   0.389   4.081   0.921
11788TIP3    H235310   0.461   4.050   1.050
11789TIP3   OH235311   0.057   2.097   2.414
11789TIP3    H135312   0.120   2.147   2.363
11789TIP3    H235313   0.100   2.013   2.431
11790TIP3   OH235314   7.893   6.426   2.127
11790TIP3    H135315   7.973   6.407   2.077
11790TIP3    H235316   7.859   6.341   2.151
11791TIP3   OH235317   2.248   5.162   0.076
11791TIP3    H135318   2.275   5.216   0.151
11791TIP3    H235319   2.165   5.201   0.048
11792TIP3   OH235320   2.636   2.540   6.761
11792TIP3    H135321   2.647   2.635   6.765
11792TIP3    H235322   2.724   2.506   6.742
11793TIP3   OH235323   5.828   6.748   0.629
11793TIP3    H135324   5.813   6.740   0.535
11793TIP3    H235325   5.741   6.759   0.666
11794TIP3   OH235326   3.676   3.644   0.455
11794TIP3    H135327   3.640   3.725   0.420
11794TIP3    H235328   3.758   3.670   0.498
11795TIP3   OH235329   6.119   0.890   0.167
11795TIP3    H135330   6.154   0.817   0.116
11795TIP3    H235331   6.028   0.898   0.139
11796TIP3   OH235332   5.666   1.872   5.580
11796TIP3    H135333   5.627   1.830   5.504
11796TIP3    H235334   5.732   1.810   5.611
11797TIP3   OH235335   1.533   2.545   3.087
11797TIP3    H135336   1.626   2.546   3.067
11797TIP3    H235337   1.525   2.596   3.167
11798TIP3   OH235338   5.461   7.778   4.040
11798TIP3    H135339   5.429   7.867   4.022
11798TIP3    H235340   5.486   7.780   4.133
11799TIP3   OH235341   3.901   6.103   6.772
11799TIP3    H135342   3.962   6.039   6.736
11799TIP3    H235343   3.938   6.188   6.748
11800TIP3   OH235344   2.992   6.752   3.468
11800TIP3    H135345   3.044   6.788   3.397
11800TIP3    H235346   2.973   6.662   3.441
11801TIP3   OH235347   0.541   1.993   4.934
11801TIP3    H135348   0.636   1.986   4.947
11801TIP3    H235349   0.514   1.905   4.909
11802TIP3   OH235350   3.515   5.718   2.855
11802TIP3    H135351   3.544   5.725   2.946
11802TIP3    H235352   3.542   5.630   2.828
11803TIP3   OH235353   7.105   6.561   3.224
11803TIP3    H135354   7.029   6.614   3.249
11803TIP3    H235355   7.155   6.551   3.306
11804TIP3   OH235356   0.631   2.988   3.255
11804TIP3    H135357   0.672   2.906   3.228
11804TIP3    H235358   0.703   3.051   3.258
11805TIP3   OH235359   4.705   5.007   2.739
11805TIP3    H135360   4.658   5.005   2.822
11805TIP3    H235361   4.705   5.100   2.714
11806TIP3   OH235362   3.493   2.329   2.296
11806TIP3    H135363   3.435   2.305   2.368
11806TIP3    H235364   3.576   2.288   2.317
11807TIP3   OH235365   6.335   5.872   0.278
11807TIP3    H135366   6.373   5.819   0.348
11807TIP3    H235367   6.405   5.878   0.213
11808TIP3   OH235368   5.130   3.835   1.780
11808TIP3    H135369   5.211   3.883   1.800
11808TIP3    H235370   5.137   3.815   1.687
11809TIP3   OH235371   3.993   6.858   5.353
11809TIP3    H135372   4.072   6.889   5.398
11809TIP3    H235373   4.024   6.821   5.271
11810TIP3   OH235374   2.319   1.871   5.722
11810TIP3    H135375   2.252   1.895   5.658
11810TIP3    H235376   2.365   1.953   5.740
11811TIP3   OH235377   8.000   2.710   2.679
11811TIP3    H135378   7.981   2.684   2.589
11811TIP3    H235379   8.012   2.628   2.726
11812TIP3   OH235380   5.232   3.480   6.457
11812TIP3    H135381   5.170   3.461   6.386
11812TIP3    H235382   5.314   3.500   6.412
11813TIP3   OH235383   7.968   4.981   4.666
11813TIP3    H135384   7.920   4.900   4.648
11813TIP3    H235385   8.056   4.965   4.632
11814TIP3   OH235386   4.135   0.149   5.710
11814TIP3    H135387   4.107   0.140   5.802
11814TIP3    H235388   4.054   0.163   5.662
11815TIP3   OH235389   6.908   5.665   2.648
11815TIP3    H135390   6.881   5.754   2.669
11815TIP3    H235391   6.907   5.661   2.552
11816TIP3   OH235392   4.652   0.305   4.119
11816TIP3    H135393   4.675   0.336   4.207
11816TIP3    H235394   4.724   0.246   4.095
11817TIP3   OH235395   0.938   7.393   6.181
11817TIP3    H135396   0.862   7.427   6.228
11817TIP3    H235397   1.007   7.458   6.197
11818TIP3   OH235398   2.288   1.227   2.821
11818TIP3    H135399   2.274   1.281   2.743
11818TIP3    H235400   2.323   1.145   2.787
11819TIP3   OH235401   0.174   0.451   5.573
11819TIP3    H135402   0.100   0.486   5.523
11819TIP3    H235403   0.241   0.520   5.567
11820TIP3   OH235404   5.579   4.954   5.311
11820TIP3    H135405   5.577   4.871   5.264
11820TIP3    H235406   5.507   5.004   5.272
11821TIP3   OH235407   6.959   7.604   1.457
11821TIP3    H135408   6.995   7.588   1.369
11821TIP3    H235409   6.940   7.698   1.458
11822TIP3   OH235410   4.096   1.512   2.274
11822TIP3    H135411   4.168   1.480   2.220
11822TIP3    H235412   4.040   1.435   2.288
11823TIP3   OH235413   2.482   2.728   4.549
11823TIP3    H135414   2.423   2.665   4.590
11823TIP3    H235415   2.565   2.681   4.542
11824TIP3   OH235416   3.318   0.351   4.125
11824TIP3    H135417   3.254   0.290   4.087
11824TIP3    H235418   3.380   0.294   4.171
11825TIP3   OH235419   4.150   4.436   0.180
11825TIP3    H135420   4.185   4.352   0.151
11825TIP3    H235421   4.162   4.435   0.275
11826TIP3   OH235422   1.021   5.413   4.707
11826TIP3    H135423   1.048   5.422   4.616
11826TIP3    H235424   1.076   5.343   4.741
11827TIP3   OH235425   4.323   3.206   3.893
11827TIP3    H135426   4.252   3.141   3.902
11827TIP3    H235427   4.400   3.153   3.872
11828TIP3   OH235428   5.981   3.322   5.707
11828TIP3    H135429   6.014   3.390   5.766
11828TIP3    H235430   5.903   3.360   5.667
11829TIP3   OH235431   7.342   6.027   4.037
11829TIP3    H135432   7.427   6.064   4.014
11829TIP3    H235433   7.294   6.024   3.954
11830TIP3   OH235434   5.198   6.792   3.153
11830TIP3    H135435   5.201   6.888   3.158
11830TIP3    H235436   5.137   6.767   3.223
11831TIP3   OH235437   5.790   5.071   4.329
11831TIP3    H135438   5.716   5.015   4.308
11831TIP3    H235439   5.763   5.159   4.301
11832TIP3   OH235440   6.021   4.811   5.269
11832TIP3    H135441   6.017   4.727   5.223
11832TIP3    H235442   6.099   4.805   5.324
11833TIP3   OH235443   3.682   0.609   1.383
11833TIP3    H135444   3.622   0.552   1.432
11833TIP3    H235445   3.768   0.569   1.395
11834TIP3   OH235446   6.445   6.913   2.319
11834TIP3    H135447   6.437   6.995   2.271
11834TIP3    H235448   6.374   6.914   2.382
11835TIP3   OH235449   6.594   4.269   5.218
11835TIP3    H135450   6.567   4.240   5.131
11835TIP3    H235451   6.619   4.189   5.264
11836TIP3   OH235452   1.024   4.399   5.452
11836TIP3    H135453   0.932   4.372   5.462
11836TIP3    H235454   1.039   4.460   5.524
11837TIP3   OH235455   0.076   5.760   6.362
11837TIP3    H135456   0.064   5.677   6.316
11837TIP3    H235457   0.133   5.812   6.305
11838TIP3   OH235458   7.926   3.837   1.817
11838TIP3    H135459   7.982   3.909   1.789
11838TIP3    H235460   7.891   3.801   1.736
11839TIP3   OH235461   1.938   1.673   6.753
11839TIP3    H135462   2.028   1.685   6.783
11839TIP3    H235463   1.925   1.578   6.754
11840TIP3   OH235464   4.685   1.684   2.639
11840TIP3    H135465   4.644   1.650   2.718
11840TIP3    H235466   4.761   1.628   2.625
11841TIP3   OH235467   7.076   7.078   2.822
11841TIP3    H135468   7.038   7.043   2.742
11841TIP3    H235469   7.058   7.172   2.818
11842TIP3   OH235470   8.073   5.013   0.838
11842TIP3    H135471   8.038   4.945   0.895
11842TIP3    H235472   8.037   5.094   0.874
11843TIP3   OH235473   3.193   7.723   2.226
11843TIP3    H135474   3.138   7.763   2.293
11843TIP3    H235475   3.150   7.640   2.205
11844TIP3   OH235476   2.286   4.227   6.339
11844TIP3    H135477   2.355   4.167   6.365
11844TIP3    H235478   2.250   4.190   6.259
11845TIP3   OH235479   1.748   5.791   3.955
11845TIP3    H135480   1.689   5.719   3.980
11845TIP3    H235481   1.784   5.821   4.039
11846TIP3   OH235482   2.190   3.698   1.802
11846TIP3    H135483   2.230   3.623   1.757
11846TIP3    H235484   2.253   3.721   1.871
11847TIP3   OH235485   1.209   1.134   1.034
11847TIP3    H135486   1.122   1.148   0.995
11847TIP3    H235487   1.198   1.156   1.126
11848TIP3   OH235488   8.282   6.056   2.616
11848TIP3    H135489   8.243   5.969   2.629
11848TIP3    H235490   8.245   6.086   2.533
11849TIP3   OH235491   1.955   0.508   4.204
11849TIP3    H135492   2.051   0.501   4.212
11849TIP3    H235493   1.939   0.602   4.199
11850TIP3   OH235494   4.855   4.857   0.272
11850TIP3    H135495   4.853   4.857   0.368
11850TIP3    H235496   4.945   4.881   0.250
11851TIP3   OH235497   1.725   1.860   4.604
11851TIP3    H135498   1.674   1.935   4.572
11851TIP3    H235499   1.705   1.789   4.543
11852TIP3   OH235500   6.471   3.866   3.116
11852TIP3    H135501   6.386   3.873   3.158
11852TIP3    H235502   6.483   3.772   3.102
11853TIP3   OH235503   1.003   6.908   4.068
11853TIP3    H135504   0.911   6.887   4.078
11853TIP3    H235505   1.048   6.823   4.073
11854TIP3   OH235506   2.313   2.842   4.346
11854TIP3    H135507   2.361   2.903   4.291
11854TIP3    H235508   2.372   2.826   4.420
11855TIP3   OH235509   1.173   4.053   3.119
11855TIP3    H135510   1.196   3.960   3.120
11855TIP3    H235511   1.080   4.055   3.142
11856TIP3   OH235512   3.448   7.738   6.384
11856TIP3    H135513   3.466   7.674   6.315
11856TIP3    H235514   3.367   7.781   6.357
11857TIP3   OH235515   0.530   7.349   4.499
11857TIP3    H135516   0.575   7.381   4.421
11857TIP3    H235517   0.556   7.409   4.569
11858TIP3   OH235518   2.650   1.161   3.945
11858TIP3    H135519   2.713   1.231   3.962
11858TIP3    H235520   2.570   1.189   3.989
11859TIP3   OH235521   2.854   3.983   0.351
11859TIP3    H135522   2.873   3.980   0.445
11859TIP3    H235523   2.933   4.020   0.313
11860TIP3   OH235524   0.099   3.986   5.408
11860TIP3    H135525   0.018   3.942   5.436
11860TIP3    H235526   0.158   3.915   5.382
11861TIP3   OH235527   6.923   5.874   5.160
11861TIP3    H135528   6.996   5.930   5.186
11861TIP3    H235529   6.953   5.829   5.082
11862TIP3   OH235530   2.458   6.292   2.546
11862TIP3    H135531   2.527   6.305   2.611
11862TIP3    H235532   2.498   6.317   2.463
11863TIP3   OH235533   1.788   1.867   3.799
11863TIP3    H135534   1.789   1.905   3.887
11863TIP3    H235535   1.697   1.837   3.788
11864TIP3   OH235536   7.403   4.315   5.570
11864TIP3    H135537   7.433   4.224   5.573
11864TIP3    H235538   7.432   4.347   5.484
11865TIP3   OH235539   2.490   6.071   3.877
11865TIP3    H135540   2.443   5.997   3.915
11865TIP3    H235541   2.490   6.137   3.947
11866TIP3   OH235542   7.542   6.466   6.287
11866TIP3    H135543   7.515   6.386   6.242
11866TIP3    H235544   7.624   6.491   6.245
11867TIP3   OH235545   3.895   2.443   1.013
11867TIP3    H135546   3.813   2.397   1.027
11867TIP3    H235547   3.956   2.374   0.985
11868TIP3   OH235548   7.186   0.033   0.916
11868TIP3    H135549   7.163   0.122   0.943
11868TIP3    H235550   7.113  -0.021   0.948
11869TIP3   OH235551   1.788   6.705   3.917
11869TIP3    H135552   1.877   6.741   3.907
11869TIP3    H235553   1.801   6.624   3.967
11870TIP3   OH235554   0.319   3.651   4.046
11870TIP3    H135555   0.363   3.725   4.003
11870TIP3    H235556   0.346   3.575   3.995
11871TIP3   OH235557   5.502   4.231   3.942
11871TIP3    H135558   5.477   4.138   3.940
11871TIP3    H235559   5.594   4.231   3.969
11872TIP3   OH235560   0.632   0.441   4.693
11872TIP3    H135561   0.705   0.471   4.747
11872TIP3    H235562   0.673   0.397   4.619
11873TIP3   OH235563   3.072   4.480   1.211
11873TIP3    H135564   3.083   4.417   1.283
11873TIP3    H235565   2.999   4.445   1.160
11874TIP3   OH235566   1.553   6.483   4.951
11874TIP3    H135567   1.615   6.449   4.887
11874TIP3    H235568   1.468   6.446   4.924
11875TIP3   OH235569   3.500   1.179   6.267
11875TIP3    H135570   3.528   1.177   6.176
11875TIP3    H235571   3.421   1.232   6.267
11876TIP3   OH235572   5.085   4.765   6.679
11876TIP3    H135573   5.003   4.789   6.723
11876TIP3    H235574   5.113   4.846   6.635
11877TIP3   OH235575   4.718   5.343   4.514
11877TIP3    H135576   4.700   5.290   4.437
11877TIP3    H235577   4.632   5.379   4.539
11878TIP3   OH235578   0.463   7.183   5.206
11878TIP3    H135579   0.479   7.227   5.123
11878TIP3    H235580   0.465   7.089   5.184
11879TIP3   OH235581   6.024   3.352   1.075
11879TIP3    H135582   5.970   3.417   1.031
11879TIP3    H235583   6.113   3.386   1.069
11880TIP3   OH235584   8.142   4.799   5.419
11880TIP3    H135585   8.139   4.773   5.327
11880TIP3    H235586   8.228   4.772   5.450
11881TIP3   OH235587   4.088   0.608   0.647
11881TIP3    H135588   4.101   0.637   0.556
11881TIP3    H235589   3.994   0.594   0.654
11882TIP3   OH235590   5.423   0.573   4.014
11882TIP3    H135591   5.443   0.524   4.094
11882TIP3    H235592   5.327   0.576   4.011
11883TIP3   OH235593   1.676   7.471   0.861
11883TIP3    H135594   1.729   7.420   0.798
11883TIP3    H235595   1.654   7.551   0.813
11884TIP3   OH235596   3.019   7.803   6.664
11884TIP3    H135597   2.978   7.889   6.653
11884TIP3    H235598   2.959   7.742   6.623
11885TIP3   OH235599   3.639   1.791   3.724
11885TIP3    H135600   3.669   1.860   3.664
11885TIP3    H235601   3.613   1.838   3.804
11886TIP3   OH235602   8.105   0.015   6.118
11886TIP3    H135603   8.114   0.012   6.214
11886TIP3    H235604   8.194   0.011   6.086
11887TIP3   OH235605   6.686   7.691   3.851
11887TIP3    H135606   6.717   7.616   3.903
11887TIP3    H235607   6.639   7.745   3.913
11888TIP3   OH235608   6.027   3.672   4.674
11888TIP3    H135609   5.953   3.707   4.624
11888TIP3    H235610   6.017   3.577   4.667
11889TIP3   OH235611   7.730   1.253   0.575
11889TIP3    H135612   7.702   1.341   0.600
11889TIP3    H235613   7.648   1.207   0.555
11890TIP3   OH235614   8.081   2.131   2.599
11890TIP3    H135615   8.162   2.091   2.631
11890TIP3    H235616   8.011   2.081   2.640
11891TIP3   OH235617   4.741   3.919   2.225
11891TIP3    H135618   4.661   3.937   2.275
11891TIP3    H235619   4.769   3.832   2.255
11892TIP3   OH235620   1.435   3.637   4.652
11892TIP3    H135621   1.467   3.562   4.702
11892TIP3    H235622   1.432   3.708   4.715
11893TIP3   OH235623   6.841   1.474   0.731
11893TIP3    H135624   6.867   1.492   0.641
11893TIP3    H235625   6.886   1.541   0.782
11894TIP3   OH235626   4.726   4.637   6.470
11894TIP3    H135627   4.654   4.595   6.519
11894TIP3    H235628   4.804   4.591   6.500
11895TIP3   OH235629   2.312   6.057   4.892
11895TIP3    H135630   2.357   6.008   4.961
11895TIP3    H235631   2.255   5.992   4.850
11896TIP3   OH235632   3.070   5.173   4.150
11896TIP3    H135633   3.162   5.171   4.124
11896TIP3    H235634   3.056   5.262   4.182
11897TIP3   OH235635   7.279   1.054   6.508
11897TIP3    H135636   7.191   1.063   6.471
11897TIP3    H235637   7.280   1.115   6.582
11898TIP3   OH235638   6.942   1.799   1.644
11898TIP3    H135639   6.933   1.770   1.553
11898TIP3    H235640   6.852   1.811   1.674
11899TIP3   OH235641   4.204   7.126   6.743
11899TIP3    H135642   4.211   7.031   6.738
11899TIP3    H235643   4.273   7.151   6.805
11900TIP3   OH235644   1.988   1.775   6.304
11900TIP3    H135645   2.026   1.695   6.270
11900TIP3    H235646   2.022   1.782   6.393
11901TIP3   OH235647   2.599   3.558   5.139
11901TIP3    H135648   2.511   3.520   5.150
11901TIP3    H235649   2.623   3.536   5.049
11902TIP3   OH235650   6.930   4.572   1.983
11902TIP3    H135651   6.878   4.648   1.955
11902TIP3    H235652   6.899   4.500   1.929
11903TIP3   OH235653   4.517   4.484   4.280
11903TIP3    H135654   4.535   4.569   4.320
11903TIP3    H235655   4.549   4.420   4.343
11904TIP3   OH235656   0.205   2.983   4.103
11904TIP3    H135657   0.156   3.030   4.036
11904TIP3    H235658   0.139   2.945   4.160
11905TIP3   OH235659   5.637   6.669   4.597
11905TIP3    H135660   5.688   6.729   4.652
11905TIP3    H235661   5.680   6.672   4.511
11906TIP3   OH235662   5.139   6.321   1.383
11906TIP3    H135663   5.117   6.254   1.319
11906TIP3    H235664   5.110   6.403   1.344
11907TIP3   OH235665   7.785   5.154   2.973
11907TIP3    H135666   7.830   5.157   3.058
11907TIP3    H235667   7.854   5.130   2.911
11908TIP3   OH235668   1.632   6.338   4.330
11908TIP3    H135669   1.695   6.405   4.357
11908TIP3    H235670   1.634   6.273   4.400
11909TIP3   OH235671   4.112   1.220   3.379
11909TIP3    H135672   4.135   1.238   3.470
11909TIP3    H235673   4.033   1.166   3.384
11910TIP3   OH235674   4.730   3.430   0.303
11910TIP3    H135675   4.698   3.402   0.389
11910TIP3    H235676   4.660   3.485   0.268
11911TIP3   OH235677   1.240   4.425   2.941
11911TIP3    H135678   1.234   4.381   3.026
11911TIP3    H235679   1.293   4.503   2.957
11912TIP3   OH235680   5.592   4.592   0.008
11912TIP3    H135681   5.602   4.666  -0.052
11912TIP3    H235682   5.533   4.623   0.076
11913TIP3   OH235683   1.221   0.841   6.680
11913TIP3    H135684   1.277   0.862   6.605
11913TIP3    H235685   1.137   0.817   6.642
11914TIP3   OH235686   0.314   4.791   2.728
11914TIP3    H135687   0.355   4.839   2.799
11914TIP3    H235688   0.384   4.774   2.665
11915TIP3   OH235689   6.362   3.287   4.312
11915TIP3    H135690   6.322   3.355   4.259
11915TIP3    H235691   6.397   3.333   4.389
11916TIP3   OH235692   4.410   1.038   2.994
11916TIP3    H135693   4.372   1.126   2.996
11916TIP3    H235694   4.424   1.020   2.901
11917TIP3   OH235695   8.181   5.393   3.556
11917TIP3    H135696   8.169   5.301   3.530
11917TIP3    H235697   8.226   5.388   3.640
11918TIP3   OH235698   6.884   7.441   1.665
11918TIP3    H135699   6.918   7.473   1.582
11918TIP3    H235700   6.838   7.515   1.703
11919TIP3   OH235701   1.714   3.949   3.052
11919TIP3    H135702   1.725   3.860   3.020
11919TIP3    H235703   1.644   3.942   3.118
11920TIP3   OH235704   0.978   0.900   1.967
11920TIP3    H135705   0.938   0.926   2.050
11920TIP3    H235706   1.060   0.857   1.993
11921TIP3   OH235707   4.017   4.576   1.316
11921TIP3    H135708   4.093   4.605   1.367
11921TIP3    H235709   3.963   4.655   1.307
11922TIP3   OH235710   4.497   4.181   2.517
11922TIP3    H135711   4.443   4.103   2.533
11922TIP3    H235712   4.467   4.213   2.432
11923TIP3   OH235713   2.486   7.599   2.401
11923TIP3    H135714   2.507   7.508   2.419
11923TIP3    H235715   2.394   7.608   2.425
11924TIP3   OH235716   3.121   3.798   0.411
11924TIP3    H135717   3.045   3.805   0.468
11924TIP3    H235718   3.085   3.774   0.326
11925TIP3   OH235719   1.045   5.595   0.300
11925TIP3    H135720   1.028   5.555   0.385
11925TIP3    H235721   0.995   5.677   0.301
11926TIP3   OH235722   7.802   6.413   4.256
11926TIP3    H135723   7.798   6.318   4.266
11926TIP3    H235724   7.762   6.447   4.336
11927TIP3   OH235725   2.833   5.124   1.774
11927TIP3    H135726   2.753   5.072   1.773
11927TIP3    H235727   2.842   5.157   1.685
11928TIP3   OH235728   7.266   2.168   3.066
11928TIP3    H135729   7.274   2.241   3.004
11928TIP3    H235730   7.274   2.209   3.152
11929TIP3   OH235731   2.640   0.491   3.683
11929TIP3    H135732   2.686   0.535   3.611
11929TIP3    H235733   2.686   0.521   3.762
11930TIP3   OH235734   6.562   4.188   6.406
11930TIP3    H135735   6.541   4.222   6.493
11930TIP3    H235736   6.604   4.261   6.361
11931TIP3   OH235737   2.846   5.895   1.599
11931TIP3    H135738   2.899   5.871   1.675
11931TIP3    H235739   2.830   5.989   1.609
11932TIP3   OH235740   2.436   1.844   2.989
11932TIP3    H135741   2.347   1.811   2.998
11932TIP3    H235742   2.491   1.775   3.026
11933TIP3   OH235743   4.237   1.720   2.744
11933TIP3    H135744   4.230   1.814   2.726
11933TIP3    H235745   4.253   1.681   2.658
11934TIP3   OH235746   6.071   7.266   4.667
11934TIP3    H135747   6.051   7.172   4.670
11934TIP3    H235748   6.150   7.275   4.720
11935TIP3   OH235749   6.524   2.759   5.912
11935TIP3    H135750   6.446   2.704   5.900
11935TIP3    H235751   6.491   2.836   5.960
11936TIP3   OH235752   3.122   5.588   4.634
11936TIP3    H135753   3.033   5.598   4.601
11936TIP3    H235754   3.112   5.560   4.725
11937TIP3   OH235755   1.265   6.311   2.037
11937TIP3    H135756   1.178   6.293   2.002
11937TIP3    H235757   1.254   6.313   2.132
11938TIP3   OH235758   5.626   2.217   6.270
11938TIP3    H135759   5.665   2.285   6.324
11938TIP3    H235760   5.697   2.154   6.256
11939TIP3   OH235761   3.405   4.836   6.521
11939TIP3    H135762   3.374   4.911   6.470
11939TIP3    H235763   3.486   4.810   6.478
11940TIP3   OH235764   1.376   7.455   3.652
11940TIP3    H135765   1.301   7.508   3.624
11940TIP3    H235766   1.337   7.375   3.686
11941TIP3   OH235767   4.789   7.795   5.236
11941TIP3    H135768   4.797   7.750   5.152
11941TIP3    H235769   4.829   7.735   5.299
11942TIP3   OH235770   4.250   6.212   2.604
11942TIP3    H135771   4.310   6.263   2.549
11942TIP3    H235772   4.208   6.277   2.660
11943TIP3   OH235773   1.194   5.191   5.628
11943TIP3    H135774   1.136   5.135   5.680
11943TIP3    H235775   1.275   5.195   5.679
11944TIP3   OH235776   7.994   3.219   4.036
11944TIP3    H135777   8.011   3.156   3.965
11944TIP3    H235778   7.901   3.209   4.056
11945TIP3   OH235779   3.023   2.725   0.710
11945TIP3    H135780   3.006   2.663   0.780
11945TIP3    H235781   3.073   2.675   0.645
11946TIP3   OH235782   6.621   6.614   0.148
11946TIP3    H135783   6.560   6.619   0.221
11946TIP3    H235784   6.671   6.696   0.152
11947TIP3   OH235785   1.166   3.734   5.023
11947TIP3    H135786   1.087   3.747   5.074
11947TIP3    H235787   1.157   3.794   4.949
11948TIP3   OH235788   1.282   6.055   4.975
11948TIP3    H135789   1.358   6.036   4.920
11948TIP3    H235790   1.300   6.141   5.012
11949TIP3   OH235791   3.263   4.447   5.895
11949TIP3    H135792   3.199   4.375   5.893
11949TIP3    H235793   3.333   4.420   5.837
11950TIP3   OH235794   8.080   6.952   3.406
11950TIP3    H135795   8.162   6.982   3.447
11950TIP3    H235796   8.097   6.861   3.381
11951TIP3   OH235797   1.177   2.511   2.001
11951TIP3    H135798   1.122   2.488   1.926
11951TIP3    H235799   1.215   2.427   2.028
11952TIP3   OH235800   5.225   2.581   0.511
11952TIP3    H135801   5.301   2.561   0.456
11952TIP3    H235802   5.202   2.671   0.488
11953TIP3   OH235803   8.160   1.176   4.232
11953TIP3    H135804   8.102   1.220   4.294
11953TIP3    H235805   8.228   1.240   4.213
11954TIP3   OH235806   5.656   6.266   4.749
11954TIP3    H135807   5.605   6.204   4.697
11954TIP3    H235808   5.612   6.350   4.736
11955TIP3   OH235809   2.845   5.386   3.637
11955TIP3    H135810   2.937   5.415   3.631
11955TIP3    H235811   2.825   5.394   3.730
11956TIP3   OH235812   1.212   5.346   3.686
11956TIP3    H135813   1.232   5.433   3.720
11956TIP3    H235814   1.266   5.287   3.739
11957TIP3   OH235815   4.799   0.790   4.569
11957TIP3    H135816   4.859   0.849   4.523
11957TIP3    H235817   4.855   0.741   4.630
11958TIP3   OH235818   0.457   7.132   4.084
11958TIP3    H135819   0.380   7.184   4.061
11958TIP3    H235820   0.424   7.062   4.140
11959TIP3   OH235821   3.546   2.175   1.444
11959TIP3    H135822   3.522   2.152   1.534
11959TIP3    H235823   3.465   2.163   1.394
11960TIP3   OH235824   7.381   3.691   3.713
11960TIP3    H135825   7.352   3.712   3.801
11960TIP3    H235826   7.435   3.765   3.686
11961TIP3   OH235827   3.983   5.671   2.675
11961TIP3    H135828   4.014   5.735   2.740
11961TIP3    H235829   4.053   5.666   2.610
11962TIP3   OH235830   6.212   1.959   1.152
11962TIP3    H135831   6.140   2.017   1.125
11962TIP3    H235832   6.282   1.975   1.089
11963TIP3   OH235833   3.674   5.095   4.432
11963TIP3    H135834   3.684   5.079   4.338
11963TIP3    H235835   3.655   5.188   4.440
11964TIP3   OH235836   1.129   3.294   6.687
11964TIP3    H135837   1.108   3.211   6.643
11964TIP3    H235838   1.216   3.280   6.725
11965TIP3   OH235839   1.498   3.389   2.622
11965TIP3    H135840   1.566   3.443   2.662
11965TIP3    H235841   1.417   3.420   2.661
11966TIP3   OH235842   1.597   0.601   5.404
11966TIP3    H135843   1.611   0.696   5.405
11966TIP3    H235844   1.502   0.591   5.409
11967TIP3   OH235845   1.309   4.298   0.188
11967TIP3    H135846   1.256   4.250   0.252
11967TIP3    H235847   1.263   4.381   0.176
11968TIP3   OH235848   6.125   5.829   1.787
11968TIP3    H135849   6.095   5.859   1.701
11968TIP3    H235850   6.101   5.736   1.790
11969TIP3   OH235851   0.529   7.081   0.772
11969TIP3    H135852   0.585   7.058   0.846
11969TIP3    H235853   0.466   7.144   0.808
11970TIP3   OH235854   1.404   7.793   1.198
11970TIP3    H135855   1.418   7.750   1.282
11970TIP3    H235856   1.308   7.794   1.188
11971TIP3   OH235857   6.850   2.250   2.316
11971TIP3    H135858   6.843   2.173   2.372
11971TIP3    H235859   6.930   2.236   2.265
11972TIP3   OH235860   1.867   4.235   4.577
11972TIP3    H135861   1.864   4.226   4.673
11972TIP3    H235862   1.811   4.165   4.544
11973TIP3   OH235863   3.684   1.677   1.153
11973TIP3    H135864   3.614   1.634   1.104
11973TIP3    H235865   3.673   1.770   1.134
11974TIP3   OH235866   5.364   7.147   3.810
11974TIP3    H135867   5.307   7.191   3.872
11974TIP3    H235868   5.323   7.061   3.796
11975TIP3   OH235869   2.547   6.662   2.792
11975TIP3    H135870   2.560   6.693   2.882
11975TIP3    H235871   2.568   6.737   2.737
11976TIP3   OH235872   5.890   5.223   2.855
11976TIP3    H135873   5.834   5.246   2.781
11976TIP3    H235874   5.949   5.156   2.820
11977TIP3   OH235875   0.197   6.508   2.293
11977TIP3    H135876   0.127   6.452   2.329
11977TIP3    H235877   0.275   6.452   2.294
11978TIP3   OH235878   6.338   2.142   3.726
11978TIP3    H135879   6.400   2.085   3.772
11978TIP3    H235880   6.391   2.186   3.660
11979TIP3   OH235881   4.012   4.194   3.259
11979TIP3    H135882   3.959   4.116   3.245
11979TIP3    H235883   3.972   4.236   3.336
11980TIP3   OH235884   1.469   5.551   4.263
11980TIP3    H135885   1.432   5.604   4.334
11980TIP3    H235886   1.466   5.461   4.297
11981TIP3   OH235887   7.121   2.131   5.717
11981TIP3    H135888   7.169   2.057   5.678
11981TIP3    H235889   7.098   2.186   5.642
11982TIP3   OH235890   3.167   1.748   1.464
11982TIP3    H135891   3.102   1.684   1.494
11982TIP3    H235892   3.149   1.827   1.515
11983TIP3   OH235893   4.420   6.917   1.162
11983TIP3    H135894   4.498   6.971   1.145
11983TIP3    H235895   4.356   6.946   1.097
11984TIP3   OH235896   6.626   0.116   6.343
11984TIP3    H135897   6.610   0.150   6.255
11984TIP3    H235898   6.560   0.048   6.355
11985TIP3   OH235899   2.988   6.038   0.124
11985TIP3    H135900   2.938   5.961   0.150
11985TIP3    H235901   3.026   6.015   0.039
11986TIP3   OH235902   5.300   6.926   0.216
11986TIP3    H135903   5.251   6.846   0.197
11986TIP3    H235904   5.344   6.908   0.299
11987TIP3   OH235905   7.685   5.994   4.716
11987TIP3    H135906   7.597   5.970   4.746
11987TIP3    H235907   7.742   5.928   4.755
11988TIP3   OH235908   3.567   7.407   5.769
11988TIP3    H135909   3.492   7.395   5.711
11988TIP3    H235910   3.597   7.318   5.788
11989TIP3   OH235911   1.676   1.976   5.161
11989TIP3    H135912   1.698   1.883   5.162
11989TIP3    H235913   1.582   1.979   5.180
11990TIP3   OH235914   4.892   0.533   0.911
11990TIP3    H135915   4.967   0.592   0.918
11990TIP3    H235916   4.818   0.584   0.945
11991TIP3   OH235917   6.320   5.897   5.465
11991TIP3    H135918   6.388   5.927   5.404
11991TIP3    H235919   6.356   5.916   5.552
11992TIP3   OH235920   4.816   4.010   6.620
11992TIP3    H135921   4.780   4.086   6.574
11992TIP3    H235922   4.838   4.042   6.707
11993TIP3   OH235923   7.377   4.617   5.333
11993TIP3    H135924   7.313   4.621   5.262
11993TIP3    H235925   7.418   4.531   5.325
11994TIP3   OH235926   5.534   0.900   1.476
11994TIP3    H135927   5.552   0.856   1.559
11994TIP3    H235928   5.612   0.884   1.422
11995TIP3   OH235929   4.425   3.511   4.518
11995TIP3    H135930   4.509   3.466   4.525
11995TIP3    H235931   4.448   3.604   4.513
11996TIP3   OH235932   0.517   0.162   0.187
11996TIP3    H135933   0.598   0.186   0.142
11996TIP3    H235934   0.520   0.067   0.192
11997TIP3   OH235935   1.444   4.415   5.593
11997TIP3    H135936   1.401   4.428   5.509
11997TIP3    H235937   1.441   4.321   5.608
11998TIP3   OH235938   4.733   2.571   4.559
11998TIP3    H135939   4.744   2.603   4.648
11998TIP3    H235940   4.817   2.530   4.537
11999TIP3   OH235941   4.806   1.155   5.291
11999TIP3    H135942   4.872   1.104   5.244
11999TIP3    H235943   4.854   1.230   5.327
12000TIP3   OH235944   2.366   2.307   1.008
12000TIP3    H135945   2.442   2.366   1.007
12000TIP3    H235946   2.296   2.358   0.966
12001TIP3   OH235947   5.150   6.079   6.425
12001TIP3    H135948   5.069   6.116   6.457
12001TIP3    H235949   5.124   5.999   6.379
12002TIP3   OH235950   3.695   0.722   1.727
12002TIP3    H135951   3.775   0.682   1.693
12002TIP3    H235952   3.660   0.658   1.789
12003TIP3   OH235953   1.061   1.986   2.764
12003TIP3    H135954   1.145   1.946   2.788
12003TIP3    H235955   1.077   2.080   2.768
12004TIP3   OH235956   1.382   1.871   2.621
12004TIP3    H135957   1.373   1.859   2.716
12004TIP3    H235958   1.428   1.792   2.592
12005TIP3   OH235959   6.612   1.504   4.807
12005TIP3    H135960   6.703   1.524   4.831
12005TIP3    H235961   6.580   1.585   4.766
12006TIP3   OH235962   3.895   5.967   6.106
12006TIP3    H135963   3.906   6.062   6.097
12006TIP3    H235964   3.966   5.930   6.055
12007TIP3   OH235965   1.945   6.433   5.830
12007TIP3    H135966   1.966   6.446   5.738
12007TIP3    H235967   1.869   6.490   5.846
12008TIP3   OH235968   3.320   7.114   0.232
12008TIP3    H135969   3.344   7.047   0.167
12008TIP3    H235970   3.383   7.102   0.303
12009TIP3   OH235971   4.051   5.142   4.465
12009TIP3    H135972   3.987   5.194   4.512
12009TIP3    H235973   4.136   5.175   4.495
12010TIP3   OH235974   5.249   6.303   4.758
12010TIP3    H135975   5.315   6.368   4.736
12010TIP3    H235976   5.180   6.315   4.693
12011TIP3   OH235977   0.600   2.398   3.974
12011TIP3    H135978   0.531   2.384   4.040
12011TIP3    H235979   0.631   2.311   3.952
12012TIP3   OH235980   5.197   0.568   1.358
12012TIP3    H135981   5.252   0.490   1.348
12012TIP3    H235982   5.195   0.584   1.452
12013TIP3   OH235983   0.871   3.720   0.555
12013TIP3    H135984   0.856   3.652   0.620
12013TIP3    H235985   0.958   3.754   0.577
12014TIP3   OH235986   0.414   1.007   2.801
12014TIP3    H135987   0.451   1.000   2.713
12014TIP3    H235988   0.374   1.094   2.803
12015TIP3   OH235989   1.387   2.549   3.595
12015TIP3    H135990   1.343   2.629   3.567
12015TIP3    H235991   1.374   2.488   3.521
12016TIP3   OH235992   6.264   6.703   2.197
12016TIP3    H135993   6.347   6.741   2.224
12016TIP3    H235994   6.221   6.772   2.146
12017TIP3   OH235995   0.781   5.542   2.051
12017TIP3    H135996   0.708   5.487   2.079
12017TIP3    H235997   0.794   5.604   2.122
12018TIP3   OH235998   2.314   2.556   1.935
12018TIP3    H135999   2.281   2.467   1.948
12018TIP3    H236000   2.247   2.612   1.975
12019TIP3   OH236001   4.222   2.981   2.139
12019TIP3    H136002   4.288   3.021   2.082
12019TIP3    H236003   4.255   2.893   2.156
12020TIP3   OH236004   4.088   2.650   4.173
12020TIP3    H136005   4.172   2.698   4.174
12020TIP3    H236006   4.044   2.678   4.254
12021TIP3   OH236007   5.057   1.927   4.158
12021TIP3    H136008   5.045   2.014   4.195
12021TIP3    H236009   5.098   1.943   4.072
12022TIP3   OH236010   8.111   1.938   3.180
12022TIP3    H136011   8.030   1.979   3.209
12022TIP3    H236012   8.084   1.866   3.123
12023TIP3   OH236013   4.091   0.421   3.847
12023TIP3    H136014   4.099   0.329   3.873
12023TIP3    H236015   4.170   0.463   3.884
12024TIP3   OH236016   6.092   5.704   3.345
12024TIP3    H136017   6.112   5.612   3.362
12024TIP3    H236018   5.998   5.711   3.363
12025TIP3   OH236019   3.835   7.223   2.858
12025TIP3    H136020   3.756   7.273   2.836
12025TIP3    H236021   3.883   7.218   2.776
12026TIP3   OH236022   1.524   1.979   0.174
12026TIP3    H136023   1.533   1.992   0.080
12026TIP3    H236024   1.435   2.008   0.194
12027TIP3   OH236025   6.029   7.106   3.410
12027TIP3    H136026   6.081   7.071   3.482
12027TIP3    H236027   6.092   7.152   3.355
12028TIP3   OH236028   0.360   2.457   3.193
12028TIP3    H136029   0.411   2.393   3.143
12028TIP3    H236030   0.321   2.406   3.264
12029TIP3   OH236031   0.926   6.261   3.759
12029TIP3    H136032   0.967   6.220   3.835
12029TIP3    H236033   0.988   6.328   3.732
12030TIP3   OH236034   4.946   4.812   0.783
12030TIP3    H136035   4.949   4.908   0.788
12030TIP3    H236036   4.922   4.793   0.693
12031TIP3   OH236037   4.961   5.544   6.092
12031TIP3    H136038   4.982   5.481   6.023
12031TIP3    H236039   4.950   5.627   6.046
12032TIP3   OH236040   5.314   4.760   2.975
12032TIP3    H136041   5.297   4.700   2.902
12032TIP3    H236042   5.310   4.847   2.936
12033TIP3   OH236043   1.138   0.470   3.633
12033TIP3    H136044   1.100   0.519   3.561
12033TIP3    H236045   1.066   0.415   3.666
12034TIP3   OH236046   2.364   4.138   5.389
12034TIP3    H136047   2.365   4.232   5.408
12034TIP3    H236048   2.443   4.123   5.336
12035TIP3   OH236049   1.629   4.361   6.200
12035TIP3    H136050   1.658   4.354   6.291
12035TIP3    H236051   1.535   4.344   6.204
12036TIP3   OH236052   6.335   7.015   3.212
12036TIP3    H136053   6.350   7.066   3.291
12036TIP3    H236054   6.285   6.939   3.242
12037TIP3   OH236055   2.355   3.921   4.935
12037TIP3    H136056   2.311   4.001   4.963
12037TIP3    H236057   2.296   3.881   4.871
12038TIP3   OH236058   6.298   5.825   4.716
12038TIP3    H136059   6.221   5.790   4.672
12038TIP3    H236060   6.296   5.786   4.803
12039TIP3   OH236061   4.652   1.445   4.046
12039TIP3    H136062   4.637   1.454   3.952
12039TIP3    H236063   4.746   1.457   4.057
12040TIP3   OH236064   7.146   5.647   0.662
12040TIP3    H136065   7.144   5.638   0.758
12040TIP3    H236066   7.054   5.643   0.636
12041TIP3   OH236067   0.944   1.399   4.715
12041TIP3    H136068   0.929   1.489   4.687
12041TIP3    H236069   0.897   1.392   4.799
12042TIP3   OH236070   3.329   7.500   5.379
12042TIP3    H136071   3.320   7.529   5.470
12042TIP3    H236072   3.246   7.456   5.360
12043TIP3   OH236073   7.390   1.447   1.929
12043TIP3    H136074   7.409   1.384   1.860
12043TIP3    H236075   7.403   1.399   2.010
12044TIP3   OH236076   0.224   0.944   3.905
12044TIP3    H136077   0.273   0.983   3.832
12044TIP3    H236078   0.289   0.890   3.951
12045TIP3   OH236079   1.053   5.879   1.267
12045TIP3    H136080   1.114   5.952   1.278
12045TIP3    H236081   0.967   5.915   1.289
12046TIP3   OH236082   4.110   7.734   2.134
12046TIP3    H136083   4.170   7.785   2.189
12046TIP3    H236084   4.152   7.731   2.048
12047TIP3   OH236085   7.922   1.860   5.856
12047TIP3    H136086   7.891   1.921   5.923
12047TIP3    H236087   8.006   1.896   5.828
12048TIP3   OH236088   7.300   5.850   2.225
12048TIP3    H136089   7.258   5.883   2.305
12048TIP3    H236090   7.296   5.923   2.164
12049TIP3   OH236091   8.119   6.074   3.940
12049TIP3    H136092   8.133   6.167   3.961
12049TIP3    H236093   8.104   6.032   4.025
12050TIP3   OH236094   6.106   1.819   4.583
12050TIP3    H136095   6.015   1.849   4.585
12050TIP3    H236096   6.105   1.736   4.631
12051TIP3   OH236097   1.985   4.408   3.280
12051TIP3    H136098   2.038   4.472   3.328
12051TIP3    H236099   2.044   4.374   3.213
12052TIP3   OH236100   2.948   2.333   1.503
12052TIP3    H136101   2.943   2.251   1.552
12052TIP3    H236102   3.039   2.360   1.510
12053TIP3   OH236103   7.306   0.704   0.517
12053TIP3    H136104   7.316   0.727   0.425
12053TIP3    H236105   7.384   0.740   0.559
12054TIP3   OH236106   0.717   2.711   4.148
12054TIP3    H136107   0.744   2.793   4.106
12054TIP3    H236108   0.756   2.642   4.094
12055TIP3   OH236109   3.177   5.043   4.862
12055TIP3    H136110   3.097   4.999   4.891
12055TIP3    H236111   3.147   5.123   4.820
12056TIP3   OH236112   4.093   6.381   3.433
12056TIP3    H136113   4.024   6.401   3.370
12056TIP3    H236114   4.142   6.309   3.394
12057TIP3   OH236115   6.766   3.914   6.316
12057TIP3    H136116   6.768   3.907   6.221
12057TIP3    H236117   6.722   3.997   6.333
12058TIP3   OH236118   8.271   4.542   0.184
12058TIP3    H136119   8.356   4.524   0.223
12058TIP3    H236120   8.217   4.466   0.208
12059TIP3   OH236121   2.333  -0.004   4.205
12059TIP3    H136122   2.256  -0.060   4.215
12059TIP3    H236123   2.302   0.084   4.226
12060TIP3   OH236124   6.502   3.922   1.542
12060TIP3    H136125   6.508   3.959   1.454
12060TIP3    H236126   6.550   3.984   1.597
12061TIP3   OH236127   0.497   0.368   5.771
12061TIP3    H136128   0.510   0.426   5.696
12061TIP3    H236129   0.416   0.399   5.812
12062TIP3   OH236130   3.269   4.079   3.786
12062TIP3    H136131   3.237   4.160   3.746
12062TIP3    H236132   3.264   4.095   3.880
12063TIP3   OH236133   4.441   5.443   4.956
12063TIP3    H136134   4.470   5.507   5.021
12063TIP3    H236135   4.412   5.368   5.007
12064TIP3   OH236136   7.958   4.656   4.021
12064TIP3    H136137   7.988   4.746   4.006
12064TIP3    H236138   7.967   4.613   3.936
12065TIP3   OH236139   7.656   0.149   4.539
12065TIP3    H136140   7.572   0.193   4.552
12065TIP3    H236141   7.639   0.057   4.559
12066TIP3   OH236142   5.022   7.119   1.427
12066TIP3    H136143   5.043   7.133   1.519
12066TIP3    H236144   4.995   7.205   1.394
12067TIP3   OH236145   6.494   7.009   0.862
12067TIP3    H136146   6.449   6.973   0.938
12067TIP3    H236147   6.424   7.047   0.808
12068TIP3   OH236148   1.547   5.963   6.137
12068TIP3    H136149   1.585   6.041   6.096
12068TIP3    H236150   1.559   5.894   6.072
12069TIP3   OH236151   2.448   5.217   6.797
12069TIP3    H136152   2.490   5.132   6.811
12069TIP3    H236153   2.402   5.208   6.714
12070TIP3   OH236154   3.140   0.291   0.290
12070TIP3    H136155   3.046   0.277   0.308
12070TIP3    H236156   3.146   0.383   0.266
12071TIP3   OH236157   1.597   1.399   3.056
12071TIP3    H136158   1.689   1.380   3.077
12071TIP3    H236159   1.547   1.346   3.118
12072TIP3   OH236160   4.853   4.876   6.402
12072TIP3    H136161   4.802   4.803   6.437
12072TIP3    H236162   4.933   4.836   6.368
12073TIP3   OH236163   5.721   5.192   1.559
12073TIP3    H136164   5.769   5.230   1.631
12073TIP3    H236165   5.708   5.264   1.497
12074TIP3   OH236166   3.403   5.615   1.889
12074TIP3    H136167   3.493   5.641   1.911
12074TIP3    H236168   3.348   5.668   1.947
12075TIP3   OH236169   4.671   3.628   4.120
12075TIP3    H136170   4.695   3.690   4.189
12075TIP3    H236171   4.612   3.566   4.163
12076TIP3   OH236172   7.825   5.145   6.208
12076TIP3    H136173   7.921   5.138   6.209
12076TIP3    H236174   7.798   5.132   6.299
12077TIP3   OH236175   0.628   5.671   5.532
12077TIP3    H136176   0.716   5.641   5.553
12077TIP3    H236177   0.576   5.646   5.608
12078TIP3   OH236178   3.464   6.246   4.145
12078TIP3    H136179   3.383   6.288   4.174
12078TIP3    H236180   3.473   6.169   4.201
12079TIP3   OH236181   6.324   4.029   4.972
12079TIP3    H136182   6.278   4.057   4.893
12079TIP3    H236183   6.413   4.063   4.961
12080TIP3   OH236184   5.003   7.496   3.888
12080TIP3    H136185   5.081   7.529   3.934
12080TIP3    H236186   4.997   7.550   3.809
12081TIP3   OH236187   0.194   4.641   1.799
12081TIP3    H136188   0.115   4.612   1.754
12081TIP3    H236189   0.210   4.574   1.866
12082TIP3   OH236190   1.172   5.086   2.798
12082TIP3    H136191   1.147   5.156   2.859
12082TIP3    H236192   1.094   5.073   2.744
12083TIP3   OH236193   6.401   2.406   0.918
12083TIP3    H136194   6.496   2.407   0.925
12083TIP3    H236195   6.383   2.366   0.833
12084TIP3   OH236196   1.878   2.287   3.773
12084TIP3    H136197   1.967   2.253   3.771
12084TIP3    H236198   1.852   2.283   3.865
12085TIP3   OH236199   5.457   4.991   0.008
12085TIP3    H136200   5.498   5.041   0.078
12085TIP3    H236201   5.457   4.900   0.040
12086TIP3   OH236202   2.116   6.811   5.500
12086TIP3    H136203   2.198   6.805   5.450
12086TIP3    H236204   2.068   6.882   5.459
12087TIP3   OH236205   0.009   7.169   0.712
12087TIP3    H136206   0.011   7.078   0.683
12087TIP3    H236207   0.009   7.221   0.632
12088TIP3   OH236208   4.395   4.146   0.751
12088TIP3    H136209   4.418   4.133   0.843
12088TIP3    H236210   4.428   4.234   0.730
12089TIP3   OH236211   5.666   3.575   2.155
12089TIP3    H136212   5.573   3.555   2.149
12089TIP3    H236213   5.706   3.527   2.083
12090TIP3   OH236214   5.152   3.362   3.415
12090TIP3    H136215   5.236   3.330   3.448
12090TIP3    H236216   5.168   3.455   3.397
12091TIP3   OH236217   8.030   1.108   0.910
12091TIP3    H136218   8.106   1.068   0.867
12091TIP3    H236219   7.958   1.093   0.849
12092TIP3   OH236220   6.456   5.076   6.163
12092TIP3    H136221   6.484   5.110   6.078
12092TIP3    H236222   6.445   5.153   6.217
12093TIP3   OH236223   1.253   2.593   4.220
12093TIP3    H136224   1.196   2.668   4.239
12093TIP3    H236225   1.337   2.616   4.261
12094TIP3   OH236226   4.891   6.679   4.885
12094TIP3    H136227   4.910   6.611   4.950
12094TIP3    H236228   4.796   6.679   4.877
12095TIP3   OH236229   1.170   1.255   5.385
12095TIP3    H136230   1.202   1.293   5.467
12095TIP3    H236231   1.089   1.302   5.367
12096TIP3   OH236232   3.851   4.428   0.147
12096TIP3    H136233   3.767   4.474   0.155
12096TIP3    H236234   3.916   4.494   0.169
12097TIP3   OH236235   5.168   4.480   3.537
12097TIP3    H136236   5.121   4.470   3.620
12097TIP3    H236237   5.099   4.487   3.471
12098TIP3   OH236238   1.724   5.226   0.436
12098TIP3    H136239   1.819   5.213   0.441
12098TIP3    H236240   1.708   5.302   0.492
12099TIP3   OH236241   1.682   4.033   6.169
12099TIP3    H136242   1.757   4.021   6.228
12099TIP3    H236243   1.608   4.048   6.227
12100TIP3   OH236244   6.777   2.360   6.005
12100TIP3    H136245   6.705   2.386   6.062
12100TIP3    H236246   6.831   2.439   5.997
12101TIP3   OH236247   5.399   4.682   6.233
12101TIP3    H136248   5.493   4.670   6.217
12101TIP3    H236249   5.357   4.643   6.156
12102TIP3   OH236250   2.760   5.035   1.524
12102TIP3    H136251   2.682   5.078   1.488
12102TIP3    H236252   2.734   5.007   1.611
12103TIP3   OH236253   2.542   3.093   3.490
12103TIP3    H136254   2.623   3.099   3.540
12103TIP3    H236255   2.558   3.147   3.412
12104TIP3   OH236256   1.637   4.489   4.744
12104TIP3    H136257   1.545   4.495   4.767
12104TIP3    H236258   1.684   4.530   4.817
12105TIP3   OH236259   6.089   0.967   1.834
12105TIP3    H136260   6.169   0.956   1.782
12105TIP3    H236261   6.022   0.920   1.785
12106TIP3   OH236262   6.404   5.464   4.125
12106TIP3    H136263   6.435   5.376   4.101
12106TIP3    H236264   6.364   5.453   4.211
12107TIP3   OH236265   2.567   6.842   6.638
12107TIP3    H136266   2.580   6.760   6.686
12107TIP3    H236267   2.654   6.863   6.605
12108TIP3   OH236268   4.693   4.558   0.713
12108TIP3    H136269   4.788   4.541   0.715
12108TIP3    H236270   4.677   4.608   0.793
12109TIP3   OH236271   5.771   3.689   1.750
12109TIP3    H136272   5.694   3.710   1.697
12109TIP3    H236273   5.783   3.594   1.739
12110TIP3   OH236274   1.665   5.783   5.139
12110TIP3    H136275   1.719   5.759   5.064
12110TIP3    H236276   1.666   5.707   5.196
12111TIP3   OH236277   7.579   3.635   0.577
12111TIP3    H136278   7.604   3.681   0.657
12111TIP3    H236279   7.486   3.655   0.566
12112TIP3   OH236280   6.619   0.408   4.809
12112TIP3    H136281   6.639   0.487   4.858
12112TIP3    H236282   6.532   0.423   4.773
12113TIP3   OH236283   0.395   0.156   2.778
12113TIP3    H136284   0.459   0.214   2.737
12113TIP3    H236285   0.435   0.131   2.862
12114TIP3   OH236286   7.524   6.495   2.220
12114TIP3    H136287   7.501   6.423   2.279
12114TIP3    H236288   7.441   6.520   2.179
12115TIP3   OH236289   0.620   3.185   2.997
12115TIP3    H136290   0.708   3.214   2.975
12115TIP3    H236291   0.627   3.091   3.007
12116TIP3   OH236292   2.498   4.591   0.153
12116TIP3    H136293   2.510   4.502   0.121
12116TIP3    H236294   2.451   4.635   0.082
12117TIP3   OH236295   6.087   0.558   6.353
12117TIP3    H136296   5.996   0.530   6.361
12117TIP3    H236297   6.115   0.526   6.268
12118TIP3   OH236298   3.578   0.968   1.736
12118TIP3    H136299   3.616   0.881   1.726
12118TIP3    H236300   3.574   0.982   1.831
12119TIP3   OH236301   2.814   1.887   5.484
12119TIP3    H136302   2.804   1.831   5.561
12119TIP3    H236303   2.733   1.874   5.434
12120TIP3   OH236304   7.493   5.672   6.501
12120TIP3    H136305   7.427   5.604   6.512
12120TIP3    H236306   7.576   5.625   6.494
12121TIP3   OH236307   1.157   1.198   4.458
12121TIP3    H136308   1.194   1.162   4.377
12121TIP3    H236309   1.233   1.216   4.513
12122TIP3   OH236310   1.122   7.080   4.229
12122TIP3    H136311   1.060   7.143   4.266
12122TIP3    H236312   1.074   7.037   4.159
12123TIP3   OH236313   2.058   2.006   2.839
12123TIP3    H136314   1.969   2.037   2.857
12123TIP3    H236315   2.050   1.910   2.838
12124TIP3   OH236316   7.234   2.325   4.699
12124TIP3    H136317   7.328   2.311   4.693
12124TIP3    H236318   7.205   2.331   4.608
12125TIP3   OH236319   7.039   0.827   5.208
12125TIP3    H136320   6.950   0.804   5.183
12125TIP3    H236321   7.093   0.755   5.174
12126TIP3   OH236322   5.386   3.675   4.051
12126TIP3    H136323   5.470   3.629   4.060
12126TIP3    H236324   5.360   3.693   4.141
12127TIP3   OH236325   2.304   4.660   3.560
12127TIP3    H136326   2.370   4.601   3.524
12127TIP3    H236327   2.337   4.682   3.648
12128TIP3   OH236328   6.724   7.637   3.582
12128TIP3    H136329   6.709   7.670   3.671
12128TIP3    H236330   6.744   7.714   3.530
12129TIP3   OH236331   1.953   0.914   6.323
12129TIP3    H136332   1.867   0.877   6.343
12129TIP3    H236333   2.011   0.838   6.320
12130TIP3   OH236334   6.395   3.171   1.933
12130TIP3    H136335   6.450   3.135   1.864
12130TIP3    H236336   6.457   3.203   1.999
12131TIP3   OH236337   3.568   4.591   2.703
12131TIP3    H136338   3.492   4.536   2.725
12131TIP3    H236339   3.622   4.590   2.782
12132TIP3   OH236340   7.641   6.362   3.235
12132TIP3    H136341   7.624   6.417   3.312
12132TIP3    H236342   7.712   6.304   3.262
12133TIP3   OH236343   0.776   4.844   2.336
12133TIP3    H136344   0.744   4.914   2.278
12133TIP3    H236345   0.814   4.890   2.411
12134TIP3   OH236346   4.139   6.941   2.375
12134TIP3    H136347   4.223   6.894   2.379
12134TIP3    H236348   4.112   6.935   2.284
12135TIP3   OH236349   1.902   7.765   3.398
12135TIP3    H136350   1.847   7.804   3.467
12135TIP3    H236351   1.903   7.672   3.419
12136TIP3   OH236352   5.796   0.849   0.527
12136TIP3    H136353   5.736   0.860   0.601
12136TIP3    H236354   5.864   0.915   0.541
12137TIP3   OH236355   4.677   6.815   1.868
12137TIP3    H136356   4.770   6.793   1.864
12137TIP3    H236357   4.642   6.785   1.784
12138TIP3   OH236358   4.977   0.278   2.253
12138TIP3    H136359   5.017   0.227   2.323
12138TIP3    H236360   4.982   0.221   2.176
12139TIP3   OH236361   1.421   5.154   5.775
12139TIP3    H136362   1.402   5.061   5.782
12139TIP3    H236363   1.455   5.179   5.861
12140TIP3   OH236364   1.370   4.375   1.352
12140TIP3    H136365   1.294   4.430   1.374
12140TIP3    H236366   1.381   4.318   1.428
12141TIP3   OH236367   8.138   1.417   5.818
12141TIP3    H136368   8.128   1.340   5.874
12141TIP3    H236369   8.076   1.481   5.853
12142TIP3   OH236370   0.985   1.540   5.868
12142TIP3    H136371   0.934   1.619   5.887
12142TIP3    H236372   0.963   1.520   5.777
12143TIP3   OH236373   6.589   6.892   3.843
12143TIP3    H136374   6.608   6.799   3.828
12143TIP3    H236375   6.673   6.936   3.828
12144TIP3   OH236376   3.592   4.804   0.010
12144TIP3    H136377   3.551   4.771   0.090
12144TIP3    H236378   3.543   4.883  -0.012
12145TIP3   OH236379   4.519   0.708   3.599
12145TIP3    H136380   4.541   0.634   3.656
12145TIP3    H236381   4.453   0.757   3.647
12146TIP3   OH236382   3.122   3.814   0.753
12146TIP3    H136383   3.214   3.796   0.730
12146TIP3    H236384   3.127   3.877   0.825
12147TIP3   OH236385   2.684   3.459   1.952
12147TIP3    H136386   2.716   3.411   2.029
12147TIP3    H236387   2.668   3.548   1.985
12148TIP3   OH236388   1.863   3.725   0.224
12148TIP3    H136389   1.913   3.803   0.199
12148TIP3    H236390   1.790   3.759   0.275
12149TIP3   OH236391   7.539   5.831   2.721
12149TIP3    H136392   7.620   5.787   2.747
12149TIP3    H236393   7.568   5.904   2.666
12150TIP3   OH236394   6.161   4.825   3.141
12150TIP3    H136395   6.175   4.806   3.234
12150TIP3    H236396   6.240   4.792   3.098
12151TIP3   OH236397   4.127   0.031   6.499
12151TIP3    H136398   4.204   0.014   6.553
12151TIP3    H236399   4.053   0.005   6.554
12152TIP3   OH236400   1.718   6.849   3.669
12152TIP3    H136401   1.809   6.871   3.649
12152TIP3    H236402   1.722   6.795   3.748
12153TIP3   OH236403   7.982   0.850   1.121
12153TIP3    H136404   7.947   0.879   1.205
12153TIP3    H236405   7.921   0.782   1.092
12154TIP3   OH236406   3.073   1.832   0.933
12154TIP3    H136407   3.036   1.745   0.914
12154TIP3    H236408   3.039   1.888   0.863
12155TIP3   OH236409   6.010   0.778   3.805
12155TIP3    H136410   6.055   0.830   3.871
12155TIP3    H236411   6.035   0.817   3.721
12156TIP3   OH236412   2.148   4.220   6.013
12156TIP3    H136413   2.056   4.215   5.987
12156TIP3    H236414   2.161   4.311   6.038
12157TIP3   OH236415   6.567   1.403   0.459
12157TIP3    H136416   6.524   1.368   0.382
12157TIP3    H236417   6.532   1.492   0.468
12158TIP3   OH236418   4.393   2.077  -0.002
12158TIP3    H136419   4.478   2.070  -0.045
12158TIP3    H236420   4.405   2.038   0.084
12159TIP3   OH236421   3.650   6.166   6.625
12159TIP3    H136422   3.713   6.213   6.570
12159TIP3    H236423   3.700   6.140   6.702
12160TIP3   OH236424   3.034   4.961   1.473
12160TIP3    H136425   3.057   5.035   1.416
12160TIP3    H236426   2.939   4.965   1.480
12161TIP3   OH236427   2.434   1.821   3.749
12161TIP3    H136428   2.457   1.779   3.832
12161TIP3    H236429   2.481   1.771   3.683
12162TIP3   OH236430   5.236   5.521   4.868
12162TIP3    H136431   5.266   5.575   4.795
12162TIP3    H236432   5.279   5.437   4.854
12163TIP3   OH236433   4.929   5.411   4.938
12163TIP3    H136434   4.951   5.443   4.850
12163TIP3    H236435   5.013   5.406   4.984
12164TIP3   OH236436   5.316   1.736   4.653
12164TIP3    H136437   5.334   1.789   4.575
12164TIP3    H236438   5.382   1.666   4.649
12165TIP3   OH236439   0.045   7.438   2.899
12165TIP3    H136440   0.040   7.342   2.896
12165TIP3    H236441   0.128   7.455   2.944
12166TIP3   OH236442   4.548   5.255   0.355
12166TIP3    H136443   4.632   5.299   0.353
12166TIP3    H236444   4.530   5.242   0.448
12167TIP3   OH236445   2.066   3.924   2.835
12167TIP3    H136446   2.015   3.892   2.910
12167TIP3    H236447   2.154   3.889   2.850
12168TIP3   OH236448   7.722   2.734   6.270
12168TIP3    H136449   7.650   2.682   6.233
12168TIP3    H236450   7.758   2.781   6.196
12169TIP3   OH236451   0.814   2.898   2.007
12169TIP3    H136452   0.782   2.834   2.071
12169TIP3    H236453   0.807   2.982   2.052
12170TIP3   OH236454   7.531   0.305   0.920
12170TIP3    H136455   7.472   0.377   0.897
12170TIP3    H236456   7.513   0.237   0.856
12171TIP3   OH236457   6.447   3.082   1.517
12171TIP3    H136458   6.375   3.072   1.578
12171TIP3    H236459   6.406   3.073   1.430
12172TIP3   OH236460   4.098   5.645   6.758
12172TIP3    H136461   4.026   5.655   6.821
12172TIP3    H236462   4.064   5.583   6.694
12173TIP3   OH236463   1.898   2.826   2.525
12173TIP3    H136464   1.986   2.798   2.501
12173TIP3    H236465   1.911   2.904   2.579
12174TIP3   OH236466   1.610   7.271   4.068
12174TIP3    H136467   1.588   7.299   3.980
12174TIP3    H236468   1.660   7.190   4.056
12175TIP3   OH236469   6.803   3.783   5.498
12175TIP3    H136470   6.810   3.816   5.587
12175TIP3    H236471   6.711   3.760   5.487
12176TIP3   OH236472   3.305   1.735   2.825
12176TIP3    H136473   3.371   1.804   2.827
12176TIP3    H236474   3.310   1.695   2.912
12177TIP3   OH236475   1.820   4.402   1.229
12177TIP3    H136476   1.885   4.335   1.207
12177TIP3    H236477   1.743   4.352   1.257
12178TIP3   OH236478   6.522   0.943   5.056
12178TIP3    H136479   6.494   1.017   5.111
12178TIP3    H236480   6.575   0.888   5.114
12179TIP3   OH236481   5.038   5.659   5.305
12179TIP3    H136482   5.056   5.582   5.252
12179TIP3    H236483   4.957   5.695   5.268
12180TIP3   OH236484   5.164   1.579   4.292
12180TIP3    H136485   5.128   1.527   4.365
12180TIP3    H236486   5.113   1.551   4.216
12181TIP3   OH236487   3.848   6.473   1.010
12181TIP3    H136488   3.810   6.540   1.067
12181TIP3    H236489   3.839   6.508   0.922
12182TIP3   OH236490   0.048   6.930   0.611
12182TIP3    H136491   0.117   6.908   0.674
12182TIP3    H236492   0.051   6.859   0.547
12183TIP3   OH236493   5.269   0.039   3.067
12183TIP3    H136494   5.329   0.064   2.997
12183TIP3    H236495   5.212  -0.026   3.027
12184TIP3   OH236496   2.187   0.011   1.468
12184TIP3    H136497   2.195  -0.021   1.377
12184TIP3    H236498   2.132   0.089   1.461
12185TIP3   OH236499   1.321   6.046   4.666
12185TIP3    H136500   1.346   6.110   4.600
12185TIP3    H236501   1.226   6.055   4.674
12186TIP3   OH236502   8.118   1.468   4.686
12186TIP3    H136503   8.204   1.456   4.726
12186TIP3    H236504   8.088   1.554   4.717
12187TIP3   OH236505   4.369   6.044   1.912
12187TIP3    H136506   4.328   6.085   1.836
12187TIP3    H236507   4.414   5.968   1.877
12188TIP3   OH236508   6.391   7.015   1.642
12188TIP3    H136509   6.321   6.960   1.608
12188TIP3    H236510   6.403   6.985   1.733
12189TIP3   OH236511   7.058   5.449   3.444
12189TIP3    H136512   6.992   5.386   3.474
12189TIP3    H236513   7.079   5.420   3.355
12190TIP3   OH236514   4.982   3.734   0.587
12190TIP3    H136515   4.902   3.699   0.627
12190TIP3    H236516   5.004   3.670   0.519
12191TIP3   OH236517   6.462   1.276   1.687
12191TIP3    H136518   6.529   1.345   1.678
12191TIP3    H236519   6.431   1.262   1.598
12192TIP3   OH236520   1.140   6.668   4.035
12192TIP3    H136521   1.156   6.577   4.012
12192TIP3    H236522   1.219   6.696   4.081
12193TIP3   OH236523   0.886   4.525   5.095
12193TIP3    H136524   0.921   4.563   5.175
12193TIP3    H236525   0.792   4.517   5.111
12194TIP3   OH236526   5.170   5.919   0.416
12194TIP3    H136527   5.183   5.850   0.350
12194TIP3    H236528   5.239   5.983   0.397
12195TIP3   OH236529   4.307   3.856   0.522
12195TIP3    H136530   4.338   3.776   0.479
12195TIP3    H236531   4.382   3.916   0.517
12196TIP3   OH236532   4.998   6.754   2.891
12196TIP3    H136533   5.030   6.754   2.801
12196TIP3    H236534   5.042   6.828   2.932
12197TIP3   OH236535   7.818   3.719   4.835
12197TIP3    H136536   7.909   3.748   4.844
12197TIP3    H236537   7.813   3.683   4.747
12198TIP3   OH236538   1.859   0.232   0.578
12198TIP3    H136539   1.780   0.282   0.601
12198TIP3    H236540   1.928   0.298   0.577
12199TIP3   OH236541   0.468   0.092   3.031
12199TIP3    H136542   0.413   0.034   3.082
12199TIP3    H236543   0.558   0.069   3.056
12200TIP3   OH236544   5.614   3.393   5.175
12200TIP3    H136545   5.572   3.416   5.257
12200TIP3    H236546   5.586   3.461   5.113
12201TIP3   OH236547   5.200   2.597   1.233
12201TIP3    H136548   5.295   2.586   1.227
12201TIP3    H236549   5.188   2.690   1.255
12202TIP3   OH236550   7.886   2.738   5.937
12202TIP3    H136551   7.839   2.666   5.979
12202TIP3    H236552   7.828   2.814   5.947
12203TIP3   OH236553   6.060   4.431   2.203
12203TIP3    H136554   5.974   4.392   2.214
12203TIP3    H236555   6.044   4.512   2.154
12204TIP3   OH236556   6.997   6.361   1.442
12204TIP3    H136557   7.034   6.305   1.510
12204TIP3    H236558   6.935   6.417   1.488
12205TIP3   OH236559   0.173   5.144   6.344
12205TIP3    H136560   0.166   5.049   6.355
12205TIP3    H236561   0.265   5.159   6.321
12206TIP3   OH236562   6.490   0.070   3.250
12206TIP3    H136563   6.563   0.117   3.209
12206TIP3    H236564   6.428   0.056   3.178
12207TIP3   OH236565   0.838   7.518   4.990
12207TIP3    H136566   0.843   7.536   4.896
12207TIP3    H236567   0.929   7.507   5.017
12208TIP3   OH236568   2.661   3.096   1.675
12208TIP3    H136569   2.735   3.131   1.627
12208TIP3    H236570   2.695   3.018   1.719
12209TIP3   OH236571   5.237   0.416   6.153
12209TIP3    H136572   5.215   0.485   6.089
12209TIP3    H236573   5.158   0.361   6.156
12210TIP3   OH236574   7.531   6.059   1.039
12210TIP3    H136575   7.475   5.992   1.079
12210TIP3    H236576   7.504   6.060   0.947
12211TIP3   OH236577   5.203   3.145   4.991
12211TIP3    H136578   5.150   3.225   4.994
12211TIP3    H236579   5.281   3.166   5.043
12212TIP3   OH236580   7.065   1.258   2.631
12212TIP3    H136581   7.133   1.266   2.564
12212TIP3    H236582   7.023   1.174   2.612
12213TIP3   OH236583   6.071   0.584   4.473
12213TIP3    H136584   6.086   0.659   4.530
12213TIP3    H236585   6.035   0.621   4.392
12214TIP3   OH236586   0.167   5.273   2.304
12214TIP3    H136587   0.243   5.231   2.344
12214TIP3    H236588   0.181   5.263   2.209
12215TIP3   OH236589   7.282   5.199   1.140
12215TIP3    H136590   7.364   5.184   1.188
12215TIP3    H236591   7.286   5.292   1.115
12216TIP3   OH236592   3.796   3.723   1.707
12216TIP3    H136593   3.836   3.802   1.742
12216TIP3    H236594   3.721   3.753   1.655
12217TIP3   OH236595   3.950   1.396   4.291
12217TIP3    H136596   3.929   1.310   4.255
12217TIP3    H236597   3.985   1.378   4.378
12218TIP3   OH236598   4.120   3.420   6.211
12218TIP3    H136599   4.081   3.412   6.124
12218TIP3    H236600   4.140   3.513   6.220
12219TIP3   OH236601   1.692   2.440   3.404
12219TIP3    H136602   1.760   2.432   3.338
12219TIP3    H236603   1.715   2.519   3.453
12220TIP3   OH236604   7.574   5.173   4.444
12220TIP3    H136605   7.480   5.188   4.447
12220TIP3    H236606   7.588   5.099   4.503
12221TIP3   OH236607   3.717   1.953   4.931
12221TIP3    H136608   3.759   1.868   4.913
12221TIP3    H236609   3.787   2.006   4.969
12222TIP3   OH236610   3.300   4.915   0.610
12222TIP3    H136611   3.252   4.984   0.564
12222TIP3    H236612   3.379   4.901   0.557
12223TIP3   OH236613   1.706   1.688   4.857
12223TIP3    H136614   1.779   1.628   4.840
12223TIP3    H236615   1.710   1.752   4.786
12224TIP3   OH236616   0.856   2.507   4.059
12224TIP3    H136617   0.779   2.455   4.034
12224TIP3    H236618   0.898   2.456   4.128
12225TIP3   OH236619   0.195   6.077   2.815
12225TIP3    H136620   0.194   5.995   2.864
12225TIP3    H236621   0.140   6.061   2.738
12226TIP3   OH236622   1.154   7.547   6.298
12226TIP3    H136623   1.134   7.639   6.311
12226TIP3    H236624   1.170   7.512   6.385
12227TIP3   OH236625   1.699   0.823   6.270
12227TIP3    H136626   1.675   0.808   6.178
12227TIP3    H236627   1.643   0.896   6.297
12228TIP3   OH236628   2.011   3.099   2.885
12228TIP3    H136629   1.944   3.048   2.930
12228TIP3    H236630   1.994   3.085   2.792
12229TIP3   OH236631   4.180   1.983   0.493
12229TIP3    H136632   4.239   1.907   0.489
12229TIP3    H236633   4.113   1.964   0.426
12230TIP3   OH236634   2.284   1.357   2.559
12230TIP3    H136635   2.329   1.437   2.586
12230TIP3    H236636   2.202   1.387   2.520
12231TIP3   OH236637   7.399   3.589   4.328
12231TIP3    H136638   7.307   3.617   4.326
12231TIP3    H236639   7.399   3.514   4.388
12232TIP3   OH236640   0.292   4.763   5.688
12232TIP3    H136641   0.302   4.853   5.719
12232TIP3    H236642   0.240   4.720   5.756
12233TIP3   OH236643   3.079   5.801   2.572
12233TIP3    H136644   3.137   5.730   2.599
12233TIP3    H236645   3.037   5.769   2.492
12234TIP3   OH236646   4.269   6.190   6.368
12234TIP3    H136647   4.316   6.238   6.436
12234TIP3    H236648   4.326   6.196   6.291
12235TIP3   OH236649   5.102   4.067   4.833
12235TIP3    H136650   5.120   4.153   4.795
12235TIP3    H236651   5.044   4.025   4.770
12236TIP3   OH236652   7.965   2.321   2.227
12236TIP3    H136653   7.934   2.336   2.316
12236TIP3    H236654   8.060   2.329   2.233
12237TIP3   OH236655   7.213   1.488   4.438
12237TIP3    H136656   7.201   1.583   4.428
12237TIP3    H236657   7.147   1.450   4.381
12238TIP3   OH236658   6.682   6.609   5.417
12238TIP3    H136659   6.623   6.538   5.441
12238TIP3    H236660   6.738   6.620   5.494
12239TIP3   OH236661   2.088   5.286   0.919
12239TIP3    H136662   2.060   5.197   0.938
12239TIP3    H236663   2.102   5.327   1.004
12240TIP3   OH236664   5.270   4.898   5.700
12240TIP3    H136665   5.332   4.904   5.627
12240TIP3    H236666   5.208   4.970   5.684
12241TIP3   OH236667   5.110   0.961   3.207
12241TIP3    H136668   5.067   0.877   3.195
12241TIP3    H236669   5.070   0.998   3.285
12242TIP3   OH236670   2.080   3.540   0.337
12242TIP3    H136671   2.005   3.598   0.328
12242TIP3    H236672   2.067   3.473   0.270
12243TIP3   OH236673   4.395   6.260   6.142
12243TIP3    H136674   4.481   6.297   6.158
12243TIP3    H236675   4.396   6.234   6.050
12244TIP3   OH236676   1.352   6.671   5.710
12244TIP3    H136677   1.396   6.603   5.658
12244TIP3    H236678   1.383   6.753   5.672
12245TIP3   OH236679   7.819   3.633   4.166
12245TIP3    H136680   7.904   3.594   4.184
12245TIP3    H236681   7.784   3.656   4.253
12246TIP3   OH236682   7.089   4.398   3.992
12246TIP3    H136683   7.049   4.484   4.005
12246TIP3    H236684   7.038   4.357   3.922
12247TIP3   OH236685   5.945   0.635   0.424
12247TIP3    H136686   5.914   0.558   0.471
12247TIP3    H236687   5.901   0.709   0.467
12248TIP3   OH236688   5.922   0.913   1.101
12248TIP3    H136689   5.856   0.956   1.156
12248TIP3    H236690   6.005   0.950   1.131
12249TIP3   OH236691   3.763   4.493   5.757
12249TIP3    H136692   3.719   4.481   5.672
12249TIP3    H236693   3.835   4.552   5.738
12250TIP3   OH236694   4.865   7.492   3.455
12250TIP3    H136695   4.855   7.438   3.534
12250TIP3    H236696   4.944   7.543   3.471
12251TIP3   OH236697   6.475   2.027   2.040
12251TIP3    H136698   6.518   2.036   2.125
12251TIP3    H236699   6.548   2.025   1.977
12252TIP3   OH236700   2.853   0.371   3.347
12252TIP3    H136701   2.848   0.459   3.384
12252TIP3    H236702   2.940   0.368   3.306
12253TIP3   OH236703   2.244   4.347   4.257
12253TIP3    H136704   2.164   4.327   4.209
12253TIP3    H236705   2.214   4.378   4.343
12254TIP3   OH236706   1.534   7.327   6.366
12254TIP3    H136707   1.539   7.379   6.286
12254TIP3    H236708   1.623   7.327   6.401
12255TIP3   OH236709   4.407   7.721   0.624
12255TIP3    H136710   4.425   7.644   0.678
12255TIP3    H236711   4.486   7.732   0.570
12256TIP3   OH236712   2.150   0.498   6.424
12256TIP3    H136713   2.059   0.489   6.452
12256TIP3    H236714   2.147   0.563   6.354
12257TIP3   OH236715   5.809   7.306   5.190
12257TIP3    H136716   5.866   7.264   5.125
12257TIP3    H236717   5.837   7.269   5.274
12258TIP3   OH236718   4.869   7.806   3.985
12258TIP3    H136719   4.830   7.868   3.924
12258TIP3    H236720   4.866   7.722   3.940
12259TIP3   OH236721   6.179   6.343   3.747
12259TIP3    H136722   6.180   6.266   3.804
12259TIP3    H236723   6.183   6.307   3.658
12260TIP3   OH236724   0.891   5.903   6.481
12260TIP3    H136725   0.954   5.877   6.548
12260TIP3    H236726   0.928   5.983   6.444
12261TIP3   OH236727   4.240   6.725   0.931
12261TIP3    H136728   4.335   6.722   0.921
12261TIP3    H236729   4.214   6.633   0.936
12262TIP3   OH236730   3.306   2.318   0.841
12262TIP3    H136731   3.220   2.333   0.803
12262TIP3    H236732   3.313   2.381   0.912
12263TIP3   OH236733   7.516   2.729   2.367
12263TIP3    H136734   7.578   2.801   2.375
12263TIP3    H236735   7.551   2.674   2.297
12264TIP3   OH236736   2.609   3.235   4.981
12264TIP3    H136737   2.601   3.285   4.901
12264TIP3    H236738   2.523   3.194   4.992
12265TIP3   OH236739   5.951   7.442   3.424
12265TIP3    H136740   5.996   7.445   3.508
12265TIP3    H236741   5.923   7.351   3.415
12266TIP3   OH236742   3.681   7.497   4.190
12266TIP3    H136743   3.681   7.555   4.113
12266TIP3    H236744   3.726   7.548   4.258
12267TIP3   OH236745   4.288   2.560   0.495
12267TIP3    H136746   4.315   2.484   0.546
12267TIP3    H236747   4.361   2.621   0.502
12268TIP3   OH236748   8.277   5.953   2.128
12268TIP3    H136749   8.228   5.875   2.155
12268TIP3    H236750   8.327   5.978   2.206
12269TIP3   OH236751   6.241   3.879   3.291
12269TIP3    H136752   6.196   3.962   3.276
12269TIP3    H236753   6.229   3.862   3.384
12270TIP3   OH236754   6.476   7.585   2.529
12270TIP3    H136755   6.553   7.633   2.496
12270TIP3    H236756   6.418   7.654   2.562
12271TIP3   OH236757   8.274   3.195   4.280
12271TIP3    H136758   8.301   3.267   4.223
12271TIP3    H236759   8.241   3.128   4.220
12272TIP3   OH236760   5.005   5.761   4.975
12272TIP3    H136761   5.025   5.679   5.020
12272TIP3    H236762   5.045   5.828   5.030
12273TIP3   OH236763   3.763   5.787   6.591
12273TIP3    H136764   3.768   5.813   6.499
12273TIP3    H236765   3.847   5.812   6.628
12274TIP3   OH236766   2.291   6.896   4.608
12274TIP3    H136767   2.263   6.927   4.522
12274TIP3    H236768   2.334   6.812   4.590
12275TIP3   OH236769   5.472   1.365   6.227
12275TIP3    H136770   5.558   1.394   6.258
12275TIP3    H236771   5.454   1.285   6.276
12276TIP3   OH236772   3.755   1.008   6.118
12276TIP3    H136773   3.682   0.952   6.093
12276TIP3    H236774   3.725   1.097   6.096
12277TIP3   OH236775   8.213   0.802   1.351
12277TIP3    H136776   8.138   0.790   1.292
12277TIP3    H236777   8.173   0.819   1.437
12278TIP3   OH236778   6.431   0.799   2.984
12278TIP3    H136779   6.457   0.782   3.074
12278TIP3    H236780   6.443   0.715   2.939
12279TIP3   OH236781   3.455   6.492   0.244
12279TIP3    H136782   3.431   6.404   0.215
12279TIP3    H236783   3.526   6.479   0.307
12280TIP3   OH236784   8.276   5.722   3.500
12280TIP3    H136785   8.298   5.776   3.425
12280TIP3    H236786   8.194   5.759   3.533
12281TIP3   OH236787   0.964   2.516   1.187
12281TIP3    H136788   0.941   2.511   1.094
12281TIP3    H236789   1.057   2.541   1.188
12282TIP3   OH236790   1.392   0.753   3.262
12282TIP3    H136791   1.465   0.810   3.240
12282TIP3    H236792   1.428   0.691   3.325
12283TIP3   OH236793   3.084   3.684   1.698
12283TIP3    H136794   3.131   3.664   1.617
12283TIP3    H236795   2.998   3.643   1.686
12284TIP3   OH236796   5.734   0.858   3.562
12284TIP3    H136797   5.795   0.926   3.593
12284TIP3    H236798   5.652   0.905   3.547
12285TIP3   OH236799   6.902   7.041   2.601
12285TIP3    H136800   6.957   7.045   2.523
12285TIP3    H236801   6.832   6.979   2.578
12286TIP3   OH236802   6.909   5.747   3.958
12286TIP3    H136803   6.854   5.791   3.893
12286TIP3    H236804   6.879   5.656   3.958
12287TIP3   OH236805   3.303   3.516   1.519
12287TIP3    H136806   3.381   3.478   1.478
12287TIP3    H236807   3.302   3.607   1.491
12288TIP3   OH236808   1.217   3.659   4.461
12288TIP3    H136809   1.287   3.658   4.527
12288TIP3    H236810   1.263   3.659   4.377
12289TIP3   OH236811   2.292   4.051   2.258
12289TIP3    H136812   2.210   4.010   2.233
12289TIP3    H236813   2.289   4.055   2.354
12290TIP3   OH236814   3.285   5.882   0.956
12290TIP3    H136815   3.303   5.806   1.012
12290TIP3    H236816   3.217   5.852   0.896
12291TIP3   OH236817   3.450   5.557   0.293
12291TIP3    H136818   3.520   5.606   0.249
12291TIP3    H236819   3.414   5.500   0.225
12292TIP3   OH236820   5.331   4.730   1.305
12292TIP3    H136821   5.255   4.761   1.256
12292TIP3    H236822   5.406   4.773   1.263
12293TIP3   OH236823   4.155   4.115   0.286
12293TIP3    H136824   4.093   4.049   0.318
12293TIP3    H236825   4.207   4.138   0.363
12294TIP3   OH236826   6.855   7.815   0.986
12294TIP3    H136827   6.934   7.822   1.041
12294TIP3    H236828   6.837   7.721   0.983
12295TIP3   OH236829   6.512   6.486   6.172
12295TIP3    H136830   6.539   6.545   6.102
12295TIP3    H236831   6.465   6.541   6.233
12296TIP3   OH236832   4.415   2.063   3.076
12296TIP3    H136833   4.365   1.989   3.040
12296TIP3    H236834   4.350   2.114   3.124
12297TIP3   OH236835   7.059   0.355   4.430
12297TIP3    H136836   6.992   0.423   4.424
12297TIP3    H236837   7.122   0.389   4.494
12298TIP3   OH236838   5.532   4.676   3.935
12298TIP3    H136839   5.562   4.765   3.917
12298TIP3    H236840   5.461   4.661   3.873
12299TIP3   OH236841   1.277   7.090   1.470
12299TIP3    H136842   1.321   7.120   1.550
12299TIP3    H236843   1.323   7.134   1.399
12300TIP3   OH236844   3.867   5.389   5.049
12300TIP3    H136845   3.936   5.344   5.001
12300TIP3    H236846   3.811   5.319   5.083
12301TIP3   OH236847   8.016   3.795   0.532
12301TIP3    H136848   7.975   3.755   0.609
12301TIP3    H236849   8.038   3.884   0.561
12302TIP3   OH236850   1.625   4.969   2.773
12302TIP3    H136851   1.712   4.930   2.782
12302TIP3    H236852   1.607   5.008   2.859
12303TIP3   OH236853   4.052   3.059   5.326
12303TIP3    H136854   4.109   3.024   5.394
12303TIP3    H236855   3.976   3.001   5.325
12304TIP3   OH236856   4.745   2.022   5.881
12304TIP3    H136857   4.705   2.015   5.968
12304TIP3    H236858   4.806   1.949   5.876
12305TIP3   OH236859   1.711   2.782   3.744
12305TIP3    H136860   1.629   2.833   3.742
12305TIP3    H236861   1.683   2.693   3.722
12306TIP3   OH236862   2.881   5.616   2.655
12306TIP3    H136863   2.924   5.613   2.570
12306TIP3    H236864   2.820   5.690   2.648
12307TIP3   OH236865   6.939   4.901   3.718
12307TIP3    H136866   6.994   4.855   3.655
12307TIP3    H236867   6.985   4.892   3.802
12308TIP3   OH236868   0.199   2.198   4.202
12308TIP3    H136869   0.235   2.154   4.279
12308TIP3    H236870   0.134   2.138   4.167
12309TIP3   OH236871   6.718   2.053   1.883
12309TIP3    H136872   6.808   2.043   1.913
12309TIP3    H236873   6.718   2.132   1.830
12310TIP3   OH236874   3.212   3.667   4.422
12310TIP3    H136875   3.267   3.745   4.413
12310TIP3    H236876   3.228   3.636   4.510
12311TIP3   OH236877   5.601   1.393   0.158
12311TIP3    H136878   5.607   1.306   0.197
12311TIP3    H236879   5.639   1.382   0.071
12312TIP3   OH236880   6.962   2.212   6.788
12312TIP3    H136881   6.942   2.218   6.695
12312TIP3    H236882   7.053   2.242   6.795
12313TIP3   OH236883   2.468   2.393   2.599
12313TIP3    H136884   2.511   2.432   2.522
12313TIP3    H236885   2.524   2.319   2.623
12314TIP3   OH236886   0.812   6.900   5.675
12314TIP3    H136887   0.896   6.900   5.631
12314TIP3    H236888   0.808   6.984   5.721
12315TIP3   OH236889   3.218   1.647   0.245
12315TIP3    H136890   3.268   1.705   0.302
12315TIP3    H236891   3.214   1.692   0.161
12316TIP3   OH236892   5.948   7.041   2.964
12316TIP3    H136893   5.953   6.946   2.978
12316TIP3    H236894   5.956   7.052   2.869
12317TIP3   OH236895   0.393   2.359   6.143
12317TIP3    H136896   0.434   2.273   6.160
12317TIP3    H236897   0.467   2.420   6.139
12318TIP3   OH236898   5.454   5.487   1.627
12318TIP3    H136899   5.548   5.504   1.636
12318TIP3    H236900   5.429   5.447   1.710
12319TIP3   OH236901   5.853   5.031   5.782
12319TIP3    H136902   5.834   4.939   5.795
12319TIP3    H236903   5.875   5.064   5.869
12320TIP3   OH236904   6.389   5.376   3.004
12320TIP3    H136905   6.303   5.382   2.964
12320TIP3    H236906   6.372   5.369   3.098
12321TIP3   OH236907   7.092   7.361   2.375
12321TIP3    H136908   7.096   7.454   2.395
12321TIP3    H236909   7.005   7.348   2.338
12322TIP3   OH236910   4.172   5.845   3.127
12322TIP3    H136911   4.221   5.810   3.053
12322TIP3    H236912   4.122   5.918   3.089
12323TIP3   OH236913   6.955   6.723   5.363
12323TIP3    H136914   6.981   6.631   5.352
12323TIP3    H236915   6.921   6.728   5.452
12324TIP3   OH236916   4.490   2.097   4.707
12324TIP3    H136917   4.569   2.127   4.751
12324TIP3    H236918   4.433   2.065   4.777
12325TIP3   OH236919   2.283   0.240   4.317
12325TIP3    H136920   2.276   0.248   4.412
12325TIP3    H236921   2.276   0.329   4.284
12326TIP3   OH236922   7.083   3.697   2.388
12326TIP3    H136923   7.126   3.622   2.430
12326TIP3    H236924   6.995   3.697   2.425
12327TIP3   OH236925   6.395   5.492   3.510
12327TIP3    H136926   6.378   5.478   3.417
12327TIP3    H236927   6.395   5.588   3.519
12328TIP3   OH236928   2.922   3.427   6.657
12328TIP3    H136929   2.922   3.358   6.590
12328TIP3    H236930   2.996   3.405   6.713
12329TIP3   OH236931   5.841   5.442   5.405
12329TIP3    H136932   5.799   5.360   5.432
12329TIP3    H236933   5.934   5.422   5.403
12330TIP3   OH236934   4.826   0.430   3.728
12330TIP3    H136935   4.787   0.367   3.668
12330TIP3    H236936   4.911   0.450   3.690
12331TIP3   OH236937   7.480   2.703   4.423
12331TIP3    H136938   7.386   2.703   4.405
12331TIP3    H236939   7.520   2.662   4.346
12332TIP3   OH236940   3.687   3.574   5.404
12332TIP3    H136941   3.675   3.502   5.466
12332TIP3    H236942   3.689   3.531   5.318
12333TIP3   OH236943   1.497   0.845   4.287
12333TIP3    H136944   1.505   0.889   4.203
12333TIP3    H236945   1.406   0.861   4.314
12334TIP3   OH236946   2.816   6.142   6.205
12334TIP3    H136947   2.906   6.119   6.182
12334TIP3    H236948   2.803   6.229   6.168
12335TIP3   OH236949   6.695   6.989   6.414
12335TIP3    H136950   6.682   7.083   6.425
12335TIP3    H236951   6.607   6.951   6.424
12336TIP3   OH236952   7.845   6.530   1.508
12336TIP3    H136953   7.871   6.442   1.535
12336TIP3    H236954   7.840   6.579   1.590
12337TIP3   OH236955   8.145   2.024   5.797
12337TIP3    H136956   8.173   1.968   5.869
12337TIP3    H236957   8.226   2.059   5.761
12338TIP3   OH236958   0.945   0.702   4.746
12338TIP3    H136959   0.978   0.731   4.661
12338TIP3    H236960   0.854   0.730   4.748
12339TIP3   OH236961   4.131   7.232   3.678
12339TIP3    H136962   4.104   7.152   3.633
12339TIP3    H236963   4.098   7.303   3.623
12340TIP3   OH236964   5.040   2.770   2.527
12340TIP3    H136965   5.019   2.860   2.552
12340TIP3    H236966   5.100   2.780   2.453
12341TIP3   OH236967   0.681   3.249   1.630
12341TIP3    H136968   0.669   3.237   1.724
12341TIP3    H236969   0.596   3.226   1.592
12342TIP3   OH236970   4.432   4.120   4.345
12342TIP3    H136971   4.472   4.115   4.258
12342TIP3    H236972   4.505   4.110   4.406
12343TIP3   OH236973   3.155   7.801   5.923
12343TIP3    H136974   3.175   7.806   5.830
12343TIP3    H236975   3.060   7.807   5.928
12344TIP3   OH236976   4.561   4.860   5.695
12344TIP3    H136977   4.518   4.944   5.708
12344TIP3    H236978   4.519   4.802   5.758
12345TIP3   OH236979   5.766   7.732   3.130
12345TIP3    H136980   5.813   7.752   3.211
12345TIP3    H236981   5.705   7.806   3.119
12346TIP3   OH236982   3.063   1.086   0.850
12346TIP3    H136983   3.146   1.079   0.802
12346TIP3    H236984   3.022   1.166   0.817
12347TIP3   OH236985   2.521   3.034   4.233
12347TIP3    H136986   2.573   3.079   4.300
12347TIP3    H236987   2.566   3.053   4.151
12348TIP3   OH236988   7.845   0.249   1.448
12348TIP3    H136989   7.819   0.341   1.454
12348TIP3    H236990   7.931   0.250   1.408
12349TIP3   OH236991   6.001   3.898   5.568
12349TIP3    H136992   6.072   3.884   5.505
12349TIP3    H236993   5.923   3.911   5.515
12350TIP3   OH236994   4.085   3.094   3.100
12350TIP3    H136995   4.109   3.065   3.012
12350TIP3    H236996   4.166   3.131   3.136
12351TIP3   OH236997   5.796   0.346   2.823
12351TIP3    H136998   5.735   0.397   2.876
12351TIP3    H236999   5.744   0.272   2.792
12352TIP3   OH237000   2.683   7.695   3.559
12352TIP3    H137001   2.650   7.621   3.508
12352TIP3    H237002   2.777   7.676   3.570
12353TIP3   OH237003   2.614   5.879   6.181
12353TIP3    H137004   2.632   5.955   6.237
12353TIP3    H237005   2.631   5.910   6.092
12354TIP3   OH237006   6.921   2.265   4.175
12354TIP3    H137007   6.830   2.268   4.205
12354TIP3    H237008   6.918   2.297   4.085
12355TIP3   OH237009   0.089   2.202   0.763
12355TIP3    H137010   0.050   2.273   0.713
12355TIP3    H237011   0.094   2.236   0.853
12356TIP3   OH237012   3.167   1.521   5.305
12356TIP3    H137013   3.230   1.529   5.377
12356TIP3    H237014   3.143   1.428   5.306
12357TIP3   OH237015   8.119   5.496   3.944
12357TIP3    H137016   8.155   5.515   3.857
12357TIP3    H237017   8.024   5.491   3.930
12358TIP3   OH237018   3.250   2.724   5.662
12358TIP3    H137019   3.338   2.720   5.627
12358TIP3    H237020   3.222   2.815   5.648
12359TIP3   OH237021   4.658   2.800   0.053
12359TIP3    H137022   4.646   2.711   0.019
12359TIP3    H237023   4.638   2.794   0.146
12360TIP3   OH237024   2.856   5.046   5.762
12360TIP3    H137025   2.806   5.033   5.681
12360TIP3    H237026   2.875   4.957   5.793
12361TIP3   OH237027   0.717   2.019   1.883
12361TIP3    H137028   0.709   1.925   1.868
12361TIP3    H237029   0.709   2.058   1.796
12362TIP3   OH237030   2.555   0.812   0.077
12362TIP3    H137031   2.567   0.896   0.121
12362TIP3    H237032   2.462   0.811   0.054
12363TIP3   OH237033   5.020   3.176   1.204
12363TIP3    H137034   4.933   3.215   1.217
12363TIP3    H237035   5.050   3.153   1.291
12364TIP3   OH237036   1.499   5.472   6.294
12364TIP3    H137037   1.488   5.388   6.338
12364TIP3    H237038   1.438   5.531   6.339
12365TIP3   OH237039   3.113   2.584   2.376
12365TIP3    H137040   3.078   2.495   2.386
12365TIP3    H237041   3.096   2.626   2.460
12366TIP3   OH237042   7.074   5.190   1.780
12366TIP3    H137043   7.029   5.198   1.864
12366TIP3    H237044   7.167   5.188   1.803
12367TIP3   OH237045   4.218   6.303   2.189
12367TIP3    H137046   4.127   6.325   2.167
12367TIP3    H237047   4.264   6.307   2.105
12368TIP3   OH237048   3.881   7.653   2.900
12368TIP3    H137049   3.800   7.641   2.949
12368TIP3    H237050   3.947   7.604   2.950
12369TIP3   OH237051   1.479   6.884   5.295
12369TIP3    H137052   1.492   6.978   5.302
12369TIP3    H237053   1.467   6.854   5.385
12370TIP3   OH237054   2.583   6.012   5.531
12370TIP3    H137055   2.637   6.061   5.594
12370TIP3    H237056   2.606   5.920   5.547
12371TIP3   OH237057   0.198   2.502   5.885
12371TIP3    H137058   0.259   2.451   5.832
12371TIP3    H237059   0.175   2.444   5.958
12372TIP3   OH237060   1.362   7.330   5.042
12372TIP3    H137061   1.421   7.258   5.019
12372TIP3    H237062   1.287   7.319   4.984
12373TIP3   OH237063   6.160   5.417   2.882
12373TIP3    H137064   6.073   5.427   2.922
12373TIP3    H237065   6.157   5.473   2.804
12374TIP3   OH237066   7.472   2.376   6.763
12374TIP3    H137067   7.544   2.337   6.714
12374TIP3    H237068   7.485   2.470   6.756
12375TIP3   OH237069   7.254   0.434   4.115
12375TIP3    H137070   7.222   0.347   4.091
12375TIP3    H237071   7.178   0.492   4.104
12376TIP3   OH237072   0.008   2.182   2.963
12376TIP3    H137073   0.091   2.138   2.942
12376TIP3    H237074   0.025   2.274   2.947
12377TIP3   OH237075   1.451   6.737   6.258
12377TIP3    H137076   1.435   6.828   6.281
12377TIP3    H237077   1.515   6.741   6.187
12378TIP3   OH237078   4.709   4.528   2.218
12378TIP3    H137079   4.624   4.569   2.236
12378TIP3    H237080   4.691   4.469   2.145
12379TIP3   OH237081   4.875   7.695   4.649
12379TIP3    H137082   4.958   7.700   4.602
12379TIP3    H237083   4.894   7.642   4.726
12380TIP3   OH237084   1.557   7.601   2.999
12380TIP3    H137085   1.489   7.613   2.932
12380TIP3    H237086   1.630   7.560   2.953
12381TIP3   OH237087   1.587   3.250   2.084
12381TIP3    H137088   1.515   3.269   2.144
12381TIP3    H237089   1.640   3.329   2.084
12382TIP3   OH237090   5.402   2.614   4.529
12382TIP3    H137091   5.489   2.654   4.536
12382TIP3    H237092   5.348   2.664   4.590
12383TIP3   OH237093   1.823   1.861   1.256
12383TIP3    H137094   1.779   1.888   1.336
12383TIP3    H237095   1.757   1.812   1.207
12384TIP3   OH237096   5.705   3.891   4.041
12384TIP3    H137097   5.780   3.951   4.040
12384TIP3    H237098   5.743   3.804   4.031
12385TIP3   OH237099   2.638   3.307   4.708
12385TIP3    H137100   2.589   3.226   4.689
12385TIP3    H237101   2.729   3.284   4.691
12386TIP3   OH237102   5.772   6.463   0.889
12386TIP3    H137103   5.768   6.451   0.983
12386TIP3    H237104   5.813   6.549   0.877
12387TIP3   OH237105   6.914   6.711   3.321
12387TIP3    H137106   6.933   6.803   3.300
12387TIP3    H237107   6.851   6.716   3.393
12388TIP3   OH237108   2.720   2.097   6.302
12388TIP3    H137109   2.628   2.098   6.274
12388TIP3    H237110   2.769   2.073   6.223
12389TIP3   OH237111   7.395   4.770   3.891
12389TIP3    H137112   7.455   4.770   3.816
12389TIP3    H237113   7.370   4.678   3.901
12390TIP3   OH237114   5.804   6.886   3.603
12390TIP3    H137115   5.805   6.975   3.568
12390TIP3    H237116   5.876   6.883   3.666
12391TIP3   OH237117   7.818   2.638   3.570
12391TIP3    H137118   7.841   2.729   3.550
12391TIP3    H237119   7.864   2.587   3.503
12392TIP3   OH237120   3.853   0.591   3.452
12392TIP3    H137121   3.918   0.538   3.499
12392TIP3    H237122   3.778   0.592   3.511
12393TIP3   OH237123   8.197   2.286   6.274
12393TIP3    H137124   8.134   2.214   6.267
12393TIP3    H237125   8.144   2.365   6.274
12394TIP3   OH237126   7.182   0.590   0.105
12394TIP3    H137127   7.177   0.665   0.046
12394TIP3    H237128   7.134   0.521   0.060
12395TIP3   OH237129   3.881   2.715   0.661
12395TIP3    H137130   3.902   2.642   0.603
12395TIP3    H237131   3.805   2.756   0.621
12396TIP3   OH237132   1.507   3.000   5.332
12396TIP3    H137133   1.581   3.020   5.390
12396TIP3    H237134   1.440   2.964   5.390
12397TIP3   OH237135   4.073   2.101   0.706
12397TIP3    H137136   4.121   2.066   0.631
12397TIP3    H237137   3.982   2.107   0.676
12398TIP3   OH237138   3.355   5.112   6.420
12398TIP3    H137139   3.405   5.180   6.375
12398TIP3    H237140   3.274   5.103   6.368
12399TIP3   OH237141   1.588   5.114   3.008
12399TIP3    H137142   1.660   5.144   2.953
12399TIP3    H237143   1.517   5.176   2.990
12400TIP3   OH237144   0.166   6.603   1.703
12400TIP3    H137145   0.186   6.695   1.718
12400TIP3    H237146   0.252   6.560   1.701
12401TIP3   OH237147   1.413   1.735   1.658
12401TIP3    H137148   1.441   1.820   1.692
12401TIP3    H237149   1.494   1.683   1.654
12402TIP3   OH237150   6.839   5.562   6.427
12402TIP3    H137151   6.817   5.500   6.357
12402TIP3    H237152   6.874   5.507   6.497
12403TIP3   OH237153   4.566   4.167   0.076
12403TIP3    H137154   4.534   4.113   0.004
12403TIP3    H237155   4.509   4.245   0.074
12404TIP3   OH237156   5.244   1.565   1.148
12404TIP3    H137157   5.190   1.619   1.206
12404TIP3    H237158   5.182   1.531   1.083
12405TIP3   OH237159   3.629   2.914   5.947
12405TIP3    H137160   3.658   2.981   6.009
12405TIP3    H237161   3.675   2.936   5.865
12406TIP3   OH237162   0.636   6.317   2.252
12406TIP3    H137163   0.584   6.387   2.214
12406TIP3    H237164   0.572   6.253   2.283
12407TIP3   OH237165   1.704   6.736   4.276
12407TIP3    H137166   1.689   6.684   4.356
12407TIP3    H237167   1.765   6.684   4.224
12408TIP3   OH237168   3.722   6.143   0.367
12408TIP3    H137169   3.817   6.142   0.354
12408TIP3    H237170   3.711   6.152   0.462
12409TIP3   OH237171   0.778   1.005   6.250
12409TIP3    H137172   0.763   0.980   6.159
12409TIP3    H237173   0.705   0.966   6.298
12410TIP3   OH237174   2.441   6.831   0.399
12410TIP3    H137175   2.484   6.776   0.465
12410TIP3    H237176   2.436   6.917   0.440
12411TIP3   OH237177   4.501   2.669   1.072
12411TIP3    H137178   4.475   2.708   1.155
12411TIP3    H237179   4.435   2.601   1.056
12412TIP3   OH237180   2.098   5.015   4.633
12412TIP3    H137181   2.155   5.090   4.649
12412TIP3    H237182   2.085   4.975   4.719
12413TIP3   OH237183   1.037   0.237   4.685
12413TIP3    H137184   1.026   0.181   4.608
12413TIP3    H237185   1.049   0.325   4.648
12414TIP3   OH237186   1.324   2.863   5.491
12414TIP3    H137187   1.279   2.780   5.504
12414TIP3    H237188   1.256   2.929   5.507
12415TIP3   OH237189   3.130   0.115   5.225
12415TIP3    H137190   3.201   0.063   5.187
12415TIP3    H237191   3.089   0.159   5.150
12416TIP3   OH237192   7.046   1.234   0.359
12416TIP3    H137193   7.072   1.325   0.346
12416TIP3    H237194   6.965   1.239   0.410
12417TIP3   OH237195   6.143   4.292   0.668
12417TIP3    H137196   6.129   4.244   0.586
12417TIP3    H237197   6.111   4.232   0.736
12418TIP3   OH237198   2.507   3.014   2.553
12418TIP3    H137199   2.415   3.034   2.570
12418TIP3    H237200   2.539   2.973   2.633
12419TIP3   OH237201   4.574   2.980   5.528
12419TIP3    H137202   4.527   2.977   5.612
12419TIP3    H237203   4.662   3.007   5.552
12420TIP3   OH237204   6.664   2.698   4.323
12420TIP3    H137205   6.581   2.665   4.358
12420TIP3    H237206   6.699   2.754   4.392
12421TIP3   OH237207   2.016   5.598   2.852
12421TIP3    H137208   1.987   5.547   2.928
12421TIP3    H237209   2.010   5.689   2.880
12422TIP3   OH237210   2.227   4.803   1.985
12422TIP3    H137211   2.210   4.867   2.054
12422TIP3    H237212   2.172   4.728   2.008
12423TIP3   OH237213   0.544   3.052   2.609
12423TIP3    H137214   0.572   3.131   2.655
12423TIP3    H237215   0.461   3.028   2.650
12424TIP3   OH237216   3.881   2.401   5.744
12424TIP3    H137217   3.833   2.422   5.664
12424TIP3    H237218   3.973   2.398   5.717
12425TIP3   OH237219   7.324   5.044   3.870
12425TIP3    H137220   7.285   5.082   3.791
12425TIP3    H237221   7.331   4.951   3.851
12426TIP3   OH237222   6.268   3.460   2.516
12426TIP3    H137223   6.239   3.549   2.497
12426TIP3    H237224   6.199   3.424   2.572
12427TIP3   OH237225   1.299   1.547   0.277
12427TIP3    H137226   1.381   1.564   0.231
12427TIP3    H237227   1.267   1.464   0.239
12428TIP3   OH237228   6.430   4.941   0.830
12428TIP3    H137229   6.508   4.963   0.778
12428TIP3    H237230   6.453   4.858   0.873
12429TIP3   OH237231   5.876   3.806   5.908
12429TIP3    H137232   5.857   3.841   5.995
12429TIP3    H237233   5.892   3.883   5.854
12430TIP3   OH237234   4.403   4.700   1.661
12430TIP3    H137235   4.449   4.710   1.578
12430TIP3    H237236   4.409   4.786   1.703
12431TIP3   OH237237   7.691   2.089   3.467
12431TIP3    H137238   7.709   2.004   3.426
12431TIP3    H237239   7.641   2.137   3.400
12432TIP3   OH237240   5.714   4.729   1.859
12432TIP3    H137241   5.623   4.706   1.843
12432TIP3    H237242   5.741   4.672   1.931
12433TIP3   OH237243   5.586   6.981   6.054
12433TIP3    H137244   5.672   6.991   6.013
12433TIP3    H237245   5.588   7.040   6.129
12434TIP3   OH237246   1.358   4.484   5.843
12434TIP3    H137247   1.434   4.476   5.901
12434TIP3    H237248   1.393   4.464   5.756
12435TIP3   OH237249   1.723   4.134   0.347
12435TIP3    H137250   1.761   4.048   0.364
12435TIP3    H237251   1.645   4.137   0.402
12436TIP3   OH237252   2.064   6.170   2.127
12436TIP3    H137253   2.064   6.213   2.212
12436TIP3    H237254   1.982   6.197   2.085
12437TIP3   OH237255   4.448   4.547   1.315
12437TIP3    H137256   4.377   4.581   1.369
12437TIP3    H237257   4.479   4.623   1.266
12438TIP3   OH237258   1.266   3.501   2.717
12438TIP3    H137259   1.197   3.478   2.655
12438TIP3    H237260   1.274   3.596   2.709
12439TIP3   OH237261   3.473   0.380   2.340
12439TIP3    H137262   3.562   0.383   2.375
12439TIP3    H237263   3.424   0.443   2.392
12440TIP3   OH237264   5.187   6.855   5.450
12440TIP3    H137265   5.186   6.922   5.382
12440TIP3    H237266   5.210   6.774   5.404
12441TIP3   OH237267   1.427   3.944   6.299
12441TIP3    H137268   1.394   3.923   6.211
12441TIP3    H237269   1.370   3.896   6.358
12442TIP3   OH237270   2.291   0.764   6.035
12442TIP3    H137271   2.278   0.707   5.959
12442TIP3    H237272   2.384   0.788   6.031
12443TIP3   OH237273   7.053   7.199   6.631
12443TIP3    H137274   7.011   7.142   6.695
12443TIP3    H237275   7.050   7.149   6.549
12444TIP3   OH237276   4.106   0.578   5.319
12444TIP3    H137277   4.197   0.551   5.334
12444TIP3    H237278   4.100   0.590   5.224
12445TIP3   OH237279   1.685   3.884   0.628
12445TIP3    H137280   1.699   3.821   0.699
12445TIP3    H237281   1.634   3.955   0.669
12446TIP3   OH237282   1.393   7.352   2.347
12446TIP3    H137283   1.476   7.386   2.379
12446TIP3    H237284   1.338   7.430   2.336
12447TIP3   OH237285   2.366   0.010   5.095
12447TIP3    H137286   2.419   0.063   5.035
12447TIP3    H237287   2.395   0.037   5.182
12448TIP3   OH237288   3.843   3.632   6.517
12448TIP3    H137289   3.870   3.724   6.509
12448TIP3    H237290   3.861   3.611   6.609
12449TIP3   OH237291   6.029   2.934   4.208
12449TIP3    H137292   6.042   2.847   4.169
12449TIP3    H237293   5.936   2.953   4.193
12450TIP3   OH237294   5.462   5.068   3.049
12450TIP3    H137295   5.411   5.028   3.119
12450TIP3    H237296   5.488   5.153   3.083
12451TIP3   OH237297   3.216   3.358   1.740
12451TIP3    H137298   3.245   3.292   1.678
12451TIP3    H237299   3.212   3.439   1.688
12452TIP3   OH237300   0.111   1.890   3.084
12452TIP3    H137301   0.112   1.916   2.991
12452TIP3    H237302   0.049   1.951   3.124
12453TIP3   OH237303   5.130   1.769   3.490
12453TIP3    H137304   5.191   1.726   3.550
12453TIP3    H237305   5.111   1.853   3.531
12454TIP3   OH237306   6.359   1.129   6.466
12454TIP3    H137307   6.379   1.064   6.533
12454TIP3    H237308   6.419   1.202   6.485
12455TIP3   OH237309   2.820   3.743   5.962
12455TIP3    H137310   2.788   3.809   5.900
12455TIP3    H237311   2.808   3.660   5.917
12456TIP3   OH237312   6.001   4.964   0.689
12456TIP3    H137313   6.059   4.971   0.613
12456TIP3    H237314   6.048   4.906   0.749
12457TIP3   OH237315   1.553   5.971   5.536
12457TIP3    H137316   1.627   5.973   5.475
12457TIP3    H237317   1.593   5.981   5.622
12458TIP3   OH237318   5.394   1.927   5.620
12458TIP3    H137319   5.476   1.878   5.623
12458TIP3    H237320   5.407   2.000   5.680
12459TIP3   OH237321   0.210   5.168   6.045
12459TIP3    H137322   0.166   5.192   5.963
12459TIP3    H237323   0.148   5.191   6.114
12460TIP3   OH237324   5.798   1.702   5.231
12460TIP3    H137325   5.763   1.765   5.169
12460TIP3    H237326   5.830   1.755   5.304
12461TIP3   OH237327   6.099   7.738   1.455
12461TIP3    H137328   6.029   7.682   1.420
12461TIP3    H237329   6.067   7.767   1.540
12462TIP3   OH237330   2.055   7.794   1.273
12462TIP3    H137331   2.013   7.753   1.348
12462TIP3    H237332   2.060   7.725   1.207
12463TIP3   OH237333   3.217   5.935   4.059
12463TIP3    H137334   3.276   5.899   3.992
12463TIP3    H237335   3.130   5.933   4.018
12464TIP3   OH237336   0.214   6.486   1.285
12464TIP3    H137337   0.187   6.433   1.360
12464TIP3    H237338   0.156   6.457   1.214
12465TIP3   OH237339   0.928   2.643   4.366
12465TIP3    H137340   0.841   2.675   4.341
12465TIP3    H237341   0.989   2.706   4.329
12466TIP3   OH237342   6.244   2.815   4.678
12466TIP3    H137343   6.204   2.898   4.705
12466TIP3    H237344   6.180   2.749   4.703
12467TIP3   OH237345   7.439   3.887   1.404
12467TIP3    H137346   7.450   3.833   1.326
12467TIP3    H237347   7.480   3.971   1.381
12468TIP3   OH237348   8.125   4.361   3.675
12468TIP3    H137349   8.133   4.379   3.581
12468TIP3    H237350   8.154   4.270   3.684
12469TIP3   OH237351   6.893   4.277   4.569
12469TIP3    H137352   6.812   4.225   4.565
12469TIP3    H237353   6.864   4.363   4.599
12470TIP3   OH237354   8.209   3.356   5.980
12470TIP3    H137355   8.124   3.313   5.987
12470TIP3    H237356   8.270   3.285   5.962
12471TIP3   OH237357   4.180   1.084   2.065
12471TIP3    H137358   4.269   1.064   2.093
12471TIP3    H237359   4.187   1.104   1.972
12472TIP3   OH237360   7.880   2.859   1.511
12472TIP3    H137361   7.897   2.953   1.506
12472TIP3    H237362   7.785   2.852   1.520
12473TIP3   OH237363   5.278   5.260   3.489
12473TIP3    H137364   5.215   5.200   3.449
12473TIP3    H237365   5.362   5.236   3.449
12474TIP3   OH237366   3.377   1.778   1.685
12474TIP3    H137367   3.353   1.686   1.685
12474TIP3    H237368   3.469   1.779   1.656
12475TIP3   OH237369   2.526   5.995   6.722
12475TIP3    H137370   2.567   5.913   6.750
12475TIP3    H237371   2.463   6.015   6.791
12476TIP3   OH237372   2.879   6.742   3.092
12476TIP3    H137373   2.963   6.704   3.066
12476TIP3    H237374   2.857   6.701   3.175
12477TIP3   OH237375   3.421   4.970   5.361
12477TIP3    H137376   3.444   4.920   5.283
12477TIP3    H237377   3.505   5.002   5.394
12478TIP3   OH237378   0.287   0.549   1.013
12478TIP3    H137379   0.299   0.514   1.101
12478TIP3    H237380   0.363   0.517   0.964
12479TIP3   OH237381   4.897   3.788   1.522
12479TIP3    H137382   4.842   3.711   1.505
12479TIP3    H237383   4.854   3.833   1.594
12480TIP3   OH237384   3.118   4.558   2.076
12480TIP3    H137385   3.027   4.579   2.098
12480TIP3    H237386   3.161   4.643   2.066
12481TIP3   OH237387   4.613   1.338   3.165
12481TIP3    H137388   4.629   1.273   3.096
12481TIP3    H237389   4.582   1.286   3.240
12482TIP3   OH237390   4.842   3.296   4.735
12482TIP3    H137391   4.796   3.212   4.729
12482TIP3    H237392   4.772   3.360   4.750
12483TIP3   OH237393   0.115   7.030   2.611
12483TIP3    H137394   0.189   6.973   2.633
12483TIP3    H237395   0.107   7.089   2.686
12484TIP3   OH237396   7.894   0.903   5.838
12484TIP3    H137397   7.894   0.975   5.775
12484TIP3    H237398   7.985   0.871   5.837
12485TIP3   OH237399   2.068   1.310   5.438
12485TIP3    H137400   2.037   1.364   5.510
12485TIP3    H237401   2.014   1.231   5.443
12486TIP3   OH237402   0.889   3.003   1.745
12486TIP3    H137403   0.826   2.935   1.770
12486TIP3    H237404   0.866   3.078   1.799
12487TIP3   OH237405   5.312   4.262   6.416
12487TIP3    H137406   5.398   4.220   6.410
12487TIP3    H237407   5.252   4.198   6.378
12488TIP3   OH237408   5.165   6.630   5.098
12488TIP3    H137409   5.083   6.612   5.145
12488TIP3    H237410   5.137   6.671   5.016
12489TIP3   OH237411   7.614   1.882   0.426
12489TIP3    H137412   7.693   1.894   0.479
12489TIP3    H237413   7.562   1.818   0.475
12490TIP3   OH237414   4.577   1.850   0.447
12490TIP3    H137415   4.505   1.792   0.473
12490TIP3    H237416   4.651   1.791   0.433
12491TIP3   OH237417   7.506   1.056   6.093
12491TIP3    H137418   7.485   1.087   6.181
12491TIP3    H237419   7.573   0.989   6.107
12492TIP3   OH237420   0.611   5.806   3.636
12492TIP3    H137421   0.551   5.774   3.703
12492TIP3    H237422   0.605   5.901   3.642
12493TIP3   OH237423   6.047   3.451   4.974
12493TIP3    H137424   6.055   3.374   4.918
12493TIP3    H237425   5.955   3.477   4.965
12494TIP3   OH237426   1.276   5.625   0.655
12494TIP3    H137427   1.196   5.676   0.644
12494TIP3    H237428   1.347   5.686   0.635
12495TIP3   OH237429   4.357   2.735   2.164
12495TIP3    H137430   4.359   2.639   2.167
12495TIP3    H237431   4.441   2.759   2.125
12496TIP3   OH237432   4.463   3.630   4.897
12496TIP3    H137433   4.487   3.722   4.905
12496TIP3    H237434   4.377   3.623   4.938
12497TIP3   OH237435   8.103   2.492   2.813
12497TIP3    H137436   8.194   2.499   2.843
12497TIP3    H237437   8.086   2.398   2.811
12498TIP3   OH237438   1.444   0.684   6.708
12498TIP3    H137439   1.372   0.743   6.732
12498TIP3    H237440   1.439   0.613   6.772
12499TIP3   OH237441   3.455   7.330   5.152
12499TIP3    H137442   3.456   7.311   5.246
12499TIP3    H237443   3.363   7.320   5.127
12500TIP3   OH237444   7.041   1.022   5.007
12500TIP3    H137445   7.001   0.964   5.072
12500TIP3    H237446   7.131   0.991   4.997
12501TIP3   OH237447   1.341   4.736   5.343
12501TIP3    H137448   1.311   4.646   5.330
12501TIP3    H237449   1.373   4.763   5.257
12502TIP3   OH237450   4.309   4.200   3.028
12502TIP3    H137451   4.225   4.160   3.050
12502TIP3    H237452   4.306   4.286   3.069
12503TIP3   OH237453   0.362   0.551   3.703
12503TIP3    H137454   0.424   0.619   3.729
12503TIP3    H237455   0.389   0.474   3.752
12504TIP3   OH237456   7.242   3.767   4.527
12504TIP3    H137457   7.192   3.725   4.597
12504TIP3    H237458   7.207   3.728   4.447
12505TIP3   OH237459   5.270   0.242   0.054
12505TIP3    H137460   5.186   0.203   0.031
12505TIP3    H237461   5.260   0.335   0.031
12506TIP3   OH237462   7.911   0.409   4.114
12506TIP3    H137463   7.846   0.405   4.044
12506TIP3    H237464   7.862   0.388   4.193
12507TIP3   OH237465   3.592   5.494   0.973
12507TIP3    H137466   3.656   5.425   0.960
12507TIP3    H237467   3.567   5.520   0.885
12508TIP3   OH237468   0.366   2.160   3.941
12508TIP3    H137469   0.462   2.158   3.938
12508TIP3    H237470   0.346   2.229   4.004
12509TIP3   OH237471   6.309   5.626   6.321
12509TIP3    H137472   6.323   5.629   6.227
12509TIP3    H237473   6.386   5.582   6.356
12510TIP3   OH237474   6.958   1.711   0.237
12510TIP3    H137475   6.890   1.778   0.230
12510TIP3    H237476   7.028   1.753   0.287
12511TIP3   OH237477   6.530   4.085   2.416
12511TIP3    H137478   6.452   4.031   2.429
12511TIP3    H237479   6.536   4.096   2.321
12512TIP3   OH237480   6.516   2.999   0.602
12512TIP3    H137481   6.486   3.062   0.667
12512TIP3    H237482   6.435   2.964   0.563
12513TIP3   OH237483   2.818   1.687   6.328
12513TIP3    H137484   2.780   1.599   6.324
12513TIP3    H237485   2.909   1.674   6.303
12514TIP3   OH237486   5.635   4.400   5.676
12514TIP3    H137487   5.713   4.447   5.707
12514TIP3    H237488   5.653   4.381   5.584
12515TIP3   OH237489   2.479   6.152   4.517
12515TIP3    H137490   2.509   6.061   4.518
12515TIP3    H237491   2.558   6.204   4.531
12516TIP3   OH237492   2.240   6.493   6.230
12516TIP3    H137493   2.202   6.548   6.299
12516TIP3    H237494   2.165   6.447   6.192
12517TIP3   OH237495   0.986   3.020   4.764
12517TIP3    H137496   0.985   2.925   4.773
12517TIP3    H237497   0.968   3.053   4.852
12518TIP3   OH237498   5.938   5.941   3.170
12518TIP3    H137499   6.004   5.889   3.124
12518TIP3    H237500   5.856   5.921   3.124
12519TIP3   OH237501   7.356   0.420   0.287
12519TIP3    H137502   7.286   0.470   0.244
12519TIP3    H237503   7.434   0.439   0.235
12520TIP3   OH237504   4.021   0.821   2.609
12520TIP3    H137505   4.053   0.889   2.669
12520TIP3    H237506   3.999   0.869   2.529
12521TIP3   OH237507   4.024   5.801   4.572
12521TIP3    H137508   3.957   5.755   4.623
12521TIP3    H237509   4.104   5.750   4.588
12522TIP3   OH237510   4.217   3.268   1.265
12522TIP3    H137511   4.193   3.214   1.191
12522TIP3    H237512   4.135   3.313   1.289
12523TIP3   OH237513   4.950   0.953   2.224
12523TIP3    H137514   5.015   0.935   2.292
12523TIP3    H237515   4.953   0.876   2.166
12524TIP3   OH237516   1.746   3.170   5.166
12524TIP3    H137517   1.812   3.110   5.201
12524TIP3    H237518   1.666   3.117   5.163
12525TIP3   OH237519   4.088   5.546   3.114
12525TIP3    H137520   4.131   5.499   3.185
12525TIP3    H237521   4.024   5.603   3.158
12526TIP3   OH237522   7.370   4.073   2.892
12526TIP3    H137523   7.341   4.086   2.982
12526TIP3    H237524   7.290   4.078   2.840
12527TIP3   OH237525   4.260   5.280   5.244
12527TIP3    H137526   4.268   5.368   5.280
12527TIP3    H237527   4.186   5.242   5.291
12528TIP3   OH237528   3.667   5.110   1.154
12528TIP3    H137529   3.748   5.144   1.115
12528TIP3    H237530   3.651   5.029   1.106
12529TIP3   OH237531   1.917   5.348   4.343
12529TIP3    H137532   1.880   5.320   4.427
12529TIP3    H237533   1.946   5.267   4.301
12530TIP3   OH237534   3.205   7.837   5.656
12530TIP3    H137535   3.286   7.843   5.605
12530TIP3    H237536   3.149   7.779   5.605
12531TIP3   OH237537   3.057   7.460   1.809
12531TIP3    H137538   3.108   7.418   1.740
12531TIP3    H237539   3.107   7.538   1.832
12532TIP3   OH237540   3.994   3.141   0.326
12532TIP3    H137541   4.021   3.055   0.358
12532TIP3    H237542   3.962   3.124   0.238
12533TIP3   OH237543   4.046   6.497   4.408
12533TIP3    H137544   4.018   6.528   4.322
12533TIP3    H237545   4.139   6.519   4.412
12534TIP3   OH237546   8.165   6.514   0.437
12534TIP3    H137547   8.231   6.501   0.505
12534TIP3    H237548   8.190   6.453   0.367
12535TIP3   OH237549   0.272   1.155   1.629
12535TIP3    H137550   0.278   1.127   1.538
12535TIP3    H237551   0.209   1.094   1.668
12536TIP3   OH237552   6.768   0.577   1.957
12536TIP3    H137553   6.691   0.619   1.918
12536TIP3    H237554   6.739   0.551   2.045
12537TIP3   OH237555   1.306   2.911   0.902
12537TIP3    H137556   1.298   2.908   0.997
12537TIP3    H237557   1.216   2.917   0.870
12538TIP3   OH237558   2.076   4.469   2.875
12538TIP3    H137559   2.127   4.530   2.927
12538TIP3    H237560   1.989   4.508   2.869
12539TIP3   OH237561   2.473   4.649   5.737
12539TIP3    H137562   2.562   4.616   5.729
12539TIP3    H237563   2.423   4.576   5.774
12540TIP3   OH237564   4.514   6.780   1.378
12540TIP3    H137565   4.492   6.841   1.450
12540TIP3    H237566   4.464   6.813   1.304
12541TIP3   OH237567   6.298   2.754   2.298
12541TIP3    H137568   6.219   2.773   2.247
12541TIP3    H237569   6.358   2.714   2.235
12542TIP3   OH237570   0.064   7.206   4.755
12542TIP3    H137571   0.011   7.201   4.675
12542TIP3    H237572   0.108   7.291   4.749
12543TIP3   OH237573   0.301   4.916   6.097
12543TIP3    H137574   0.283   5.010   6.095
12543TIP3    H237575   0.219   4.876   6.126
12544TIP3   OH237576   2.064   7.245   2.018
12544TIP3    H137577   2.095   7.197   2.095
12544TIP3    H237578   1.975   7.273   2.041
12545TIP3   OH237579   3.937   7.351   0.179
12545TIP3    H137580   3.915   7.304   0.259
12545TIP3    H237581   3.930   7.286   0.110
12546TIP3   OH237582   4.352   2.118   4.208
12546TIP3    H137583   4.359   2.087   4.298
12546TIP3    H237584   4.374   2.211   4.213
12547TIP3   OH237585   4.334   1.911   2.408
12547TIP3    H137586   4.327   1.843   2.341
12547TIP3    H237587   4.428   1.931   2.411
12548TIP3   OH237588   5.524   4.976   0.508
12548TIP3    H137589   5.544   4.889   0.543
12548TIP3    H237590   5.555   5.036   0.576
12549TIP3   OH237591   0.166   0.197   0.785
12549TIP3    H137592   0.079   0.186   0.821
12549TIP3    H237593   0.166   0.287   0.750
12550TIP3   OH237594   0.904   3.757   6.595
12550TIP3    H137595   0.860   3.841   6.580
12550TIP3    H237596   0.836   3.701   6.632
12551TIP3   OH237597   4.686   0.903   0.118
12551TIP3    H137598   4.654   0.840   0.054
12551TIP3    H237599   4.764   0.940   0.077
12552TIP3   OH237600   7.534   5.969   5.067
12552TIP3    H137601   7.449   5.926   5.078
12552TIP3    H237602   7.549   6.016   5.148
12553TIP3   OH237603   6.278   7.653   0.203
12553TIP3    H137604   6.295   7.738   0.243
12553TIP3    H237605   6.362   7.625   0.167
12554TIP3   OH237606   1.141   7.781   1.126
12554TIP3    H137607   1.052   7.817   1.121
12554TIP3    H237608   1.149   7.725   1.049
12555TIP3   OH237609   6.043   1.843   4.189
12555TIP3    H137610   6.016   1.751   4.184
12555TIP3    H237611   6.015   1.871   4.276
12556TIP3   OH237612   1.029   7.454   5.898
12556TIP3    H137613   1.034   7.380   5.838
12556TIP3    H237614   0.995   7.417   5.980
12557TIP3   OH237615   0.183   3.835   6.416
12557TIP3    H137616   0.179   3.844   6.321
12557TIP3    H237617   0.191   3.741   6.431
12558TIP3   OH237618   0.465   2.899   4.991
12558TIP3    H137619   0.549   2.920   4.949
12558TIP3    H237620   0.425   2.835   4.932
12559TIP3   OH237621   7.103   2.565   2.189
12559TIP3    H137622   7.148   2.628   2.245
12559TIP3    H237623   7.017   2.555   2.229
12560TIP3   OH237624   4.643   5.640   6.374
12560TIP3    H137625   4.631   5.601   6.287
12560TIP3    H237626   4.738   5.651   6.382
12561TIP3   OH237627   0.868   5.112   2.366
12561TIP3    H137628   0.961   5.121   2.345
12561TIP3    H237629   0.862   5.134   2.459
12562TIP3   OH237630   1.830   7.423   4.177
12562TIP3    H137631   1.827   7.414   4.272
12562TIP3    H237632   1.755   7.373   4.145
12563TIP3   OH237633   1.662   1.779   2.130
12563TIP3    H137634   1.579   1.795   2.086
12563TIP3    H237635   1.674   1.854   2.188
12564TIP3   OH237636   6.038   7.541   5.278
12564TIP3    H137637   5.954   7.531   5.322
12564TIP3    H237638   6.096   7.481   5.323
12565TIP3   OH237639   8.014   1.445   0.641
12565TIP3    H137640   8.107   1.425   0.648
12565TIP3    H237641   8.002   1.474   0.550
12566TIP3   OH237642   4.200   3.884   4.433
12566TIP3    H137643   4.293   3.904   4.432
12566TIP3    H237644   4.194   3.799   4.476
12567TIP3   OH237645   2.364   1.087   6.289
12567TIP3    H137646   2.410   1.134   6.357
12567TIP3    H237647   2.416   1.102   6.210
12568TIP3   OH237648   4.933   2.788   2.218
12568TIP3    H137649   4.857   2.817   2.269
12568TIP3    H237650   4.928   2.840   2.137
12569TIP3   OH237651   3.224   4.607   3.740
12569TIP3    H137652   3.186   4.656   3.813
12569TIP3    H237653   3.150   4.586   3.684
12570TIP3   OH237654   6.596   2.319   3.640
12570TIP3    H137655   6.564   2.400   3.680
12570TIP3    H237656   6.544   2.310   3.560
12571TIP3   OH237657   0.714   0.954   3.081
12571TIP3    H137658   0.721   1.034   3.029
12571TIP3    H237659   0.804   0.932   3.105
12572TIP3   OH237660   4.672   5.921   1.779
12572TIP3    H137661   4.664   5.853   1.712
12572TIP3    H237662   4.736   5.887   1.841
12573TIP3   OH237663   1.307   2.344   3.053
12573TIP3    H137664   1.357   2.263   3.048
12573TIP3    H237665   1.348   2.394   3.123
12574TIP3   OH237666   4.901   1.199   2.520
12574TIP3    H137667   4.857   1.176   2.603
12574TIP3    H237668   4.994   1.186   2.538
12575TIP3   OH237669   7.877   0.149   0.046
12575TIP3    H137670   7.848   0.122   0.133
12575TIP3    H237671   7.796   0.163  -0.003
12576TIP3   OH237672   5.418   3.072   3.308
12576TIP3    H137673   5.502   3.110   3.280
12576TIP3    H237674   5.393   3.122   3.385
12577TIP3   OH237675   5.376   7.151   4.767
12577TIP3    H137676   5.285   7.181   4.762
12577TIP3    H237677   5.371   7.058   4.742
12578TIP3   OH237678   5.789   3.507   4.955
12578TIP3    H137679   5.748   3.535   4.873
12578TIP3    H237680   5.780   3.582   5.013
12579TIP3   OH237681   5.690   3.611   4.359
12579TIP3    H137682   5.753   3.681   4.375
12579TIP3    H237683   5.743   3.531   4.357
12580TIP3   OH237684   8.011   4.235   2.677
12580TIP3    H137685   7.957   4.198   2.607
12580TIP3    H237686   8.096   4.253   2.635
12581TIP3   OH237687   4.934   2.695   1.728
12581TIP3    H137688   4.897   2.611   1.697
12581TIP3    H237689   4.859   2.754   1.731
12582TIP3   OH237690   4.079   2.606   6.404
12582TIP3    H137691   4.118   2.657   6.475
12582TIP3    H237692   4.150   2.548   6.375
12583TIP3   OH237693   1.116   5.640   2.210
12583TIP3    H137694   1.036   5.652   2.262
12583TIP3    H237695   1.169   5.717   2.230
12584TIP3   OH237696   2.129   2.187   2.635
12584TIP3    H137697   2.113   2.094   2.643
12584TIP3    H237698   2.177   2.211   2.714
12585TIP3   OH237699   8.166   6.510   1.430
12585TIP3    H137700   8.131   6.576   1.491
12585TIP3    H237701   8.152   6.548   1.343
12586TIP3   OH237702   6.539   1.581   2.765
12586TIP3    H137703   6.473   1.514   2.747
12586TIP3    H237704   6.558   1.620   2.680
12587TIP3   OH237705   1.285   1.462   5.243
12587TIP3    H137706   1.316   1.393   5.303
12587TIP3    H237707   1.338   1.538   5.267
12588TIP3   OH237708   6.715   3.427   4.495
12588TIP3    H137709   6.644   3.369   4.523
12588TIP3    H237710   6.685   3.465   4.413
12589TIP3   OH237711   3.463   4.135   0.015
12589TIP3    H137712   3.430   4.125   0.104
12589TIP3    H237713   3.441   4.225  -0.010
12590TIP3   OH237714   2.245   6.454   0.077
12590TIP3    H137715   2.208   6.432   0.162
12590TIP3    H237716   2.170   6.484   0.025
12591TIP3   OH237717   7.126   4.899   1.693
12591TIP3    H137718   7.172   4.836   1.747
12591TIP3    H237719   7.135   4.982   1.740
12592TIP3   OH237720   7.429   4.221   4.195
12592TIP3    H137721   7.411   4.130   4.221
12592TIP3    H237722   7.516   4.219   4.157
12593TIP3   OH237723   0.372   0.335   4.508
12593TIP3    H137724   0.360   0.245   4.480
12593TIP3    H237725   0.446   0.332   4.569
12594TIP3   OH237726   5.873   1.975   1.352
12594TIP3    H137727   5.936   1.927   1.406
12594TIP3    H237728   5.864   2.059   1.395
12595TIP3   OH237729   3.717   6.179   5.695
12595TIP3    H137730   3.770   6.146   5.622
12595TIP3    H237731   3.780   6.221   5.753
12596TIP3   OH237732   1.031   3.394   4.745
12596TIP3    H137733   1.051   3.487   4.743
12596TIP3    H237734   0.942   3.389   4.782
12597TIP3   OH237735   0.573   3.927   6.031
12597TIP3    H137736   0.576   3.923   5.936
12597TIP3    H237737   0.625   4.004   6.054
12598TIP3   OH237738   6.564   3.984   5.383
12598TIP3    H137739   6.563   3.955   5.474
12598TIP3    H237740   6.657   4.000   5.365
12599TIP3   OH237741   6.740   7.322   2.564
12599TIP3    H137742   6.763   7.350   2.475
12599TIP3    H237743   6.793   7.244   2.579
12600TIP3   OH237744   5.905   4.025   0.969
12600TIP3    H137745   5.813   4.035   0.993
12600TIP3    H237746   5.938   3.961   1.032
12601TIP3   OH237747   4.270   3.146   6.061
12601TIP3    H137748   4.251   3.234   6.093
12601TIP3    H237749   4.324   3.106   6.130
12602TIP3   OH237750   2.973   4.234   1.971
12602TIP3    H137751   2.957   4.311   1.917
12602TIP3    H237752   2.922   4.248   2.050
12603TIP3   OH237753   3.037   3.306   1.939
12603TIP3    H137754   3.000   3.226   1.902
12603TIP3    H237755   3.108   3.329   1.880
12604TIP3   OH237756   6.944   1.334   5.044
12604TIP3    H137757   6.962   1.354   5.136
12604TIP3    H237758   6.967   1.241   5.035
12605TIP3   OH237759   2.397   6.417   5.278
12605TIP3    H137760   2.325   6.425   5.216
12605TIP3    H237761   2.463   6.480   5.248
12606TIP3   OH237762   4.211   6.272   4.526
12606TIP3    H137763   4.196   6.356   4.483
12606TIP3    H237764   4.131   6.254   4.574
12607TIP3   OH237765   0.689   7.545   6.266
12607TIP3    H137766   0.635   7.596   6.327
12607TIP3    H237767   0.641   7.549   6.183
12608TIP3   OH237768   2.252   5.579   2.691
12608TIP3    H137769   2.168   5.575   2.737
12608TIP3    H237770   2.317   5.566   2.759
12609TIP3   OH237771   4.218   2.192   2.877
12609TIP3    H137772   4.210   2.119   2.817
12609TIP3    H237773   4.299   2.237   2.850
12610TIP3   OH237774   6.422   4.588   5.991
12610TIP3    H137775   6.518   4.583   5.988
12610TIP3    H237776   6.403   4.671   6.034
12611TIP3   OH237777   6.227   5.927   3.278
12611TIP3    H137778   6.162   5.997   3.284
12611TIP3    H237779   6.175   5.847   3.267
12612TIP3   OH237780   2.701   5.735   4.632
12612TIP3    H137781   2.650   5.810   4.604
12612TIP3    H237782   2.775   5.773   4.679
12613TIP3   OH237783   7.451   0.558   3.972
12613TIP3    H137784   7.381   0.501   4.003
12613TIP3    H237785   7.431   0.643   4.011
12614TIP3   OH237786   6.199   2.436   6.249
12614TIP3    H137787   6.279   2.484   6.268
12614TIP3    H237788   6.129   2.491   6.286
12615TIP3   OH237789   3.371   7.751   4.088
12615TIP3    H137790   3.375   7.835   4.134
12615TIP3    H237791   3.371   7.774   3.996
12616TIP3   OH237792   0.494   7.051   2.925
12616TIP3    H137793   0.549   7.129   2.925
12616TIP3    H237794   0.543   6.986   2.976
12617TIP3   OH237795   7.587   2.269   1.088
12617TIP3    H137796   7.636   2.351   1.083
12617TIP3    H237797   7.643   2.211   1.140
12618TIP3   OH237798   4.587   4.546   6.723
12618TIP3    H137799   4.534   4.475   6.688
12618TIP3    H237800   4.614   4.516   6.810
12619TIP3   OH237801   2.836   5.424   5.267
12619TIP3    H137802   2.915   5.462   5.229
12619TIP3    H237803   2.846   5.437   5.362
12620TIP3   OH237804   7.502   3.152   2.901
12620TIP3    H137805   7.583   3.135   2.949
12620TIP3    H237806   7.529   3.213   2.831
12621TIP3   OH237807   5.890   4.784   6.296
12621TIP3    H137808   5.972   4.761   6.253
12621TIP3    H237809   5.906   4.770   6.389
12622TIP3   OH237810   1.877   6.416   1.295
12622TIP3    H137811   1.893   6.360   1.219
12622TIP3    H237812   1.920   6.371   1.368
12623TIP3   OH237813   1.852   6.045   3.912
12623TIP3    H137814   1.771   6.094   3.908
12623TIP3    H237815   1.824   5.953   3.916
12624TIP3   OH237816   5.160   6.134   0.026
12624TIP3    H137817   5.252   6.110   0.026
12624TIP3    H237818   5.116   6.061  -0.018
12625TIP3   OH237819   0.310   1.118   0.167
12625TIP3    H137820   0.356   1.107   0.083
12625TIP3    H237821   0.219   1.133   0.143
12626TIP3   OH237822   4.900   6.513   5.704
12626TIP3    H137823   4.834   6.568   5.662
12626TIP3    H237824   4.862   6.425   5.705
12627TIP3   OH237825   7.848   3.589   3.535
12627TIP3    H137826   7.874   3.631   3.454
12627TIP3    H237827   7.898   3.634   3.603
12628TIP3   OH237828   8.002   5.449   4.890
12628TIP3    H137829   7.913   5.468   4.861
12628TIP3    H237830   8.027   5.525   4.943
12629TIP3   OH237831   1.720   6.248   0.334
12629TIP3    H137832   1.764   6.164   0.348
12629TIP3    H237833   1.627   6.225   0.326
12630TIP3   OH237834   1.156   1.355   6.275
12630TIP3    H137835   1.191   1.268   6.259
12630TIP3    H237836   1.062   1.346   6.260
12631TIP3   OH237837   3.345   7.367   5.944
12631TIP3    H137838   3.319   7.317   5.866
12631TIP3    H237839   3.438   7.386   5.930
12632TIP3   OH237840   2.104   5.743   4.044
12632TIP3    H137841   2.074   5.737   3.953
12632TIP3    H237842   2.062   5.669   4.088
12633TIP3   OH237843   2.547   0.295   0.436
12633TIP3    H137844   2.596   0.329   0.511
12633TIP3    H237845   2.552   0.200   0.446
12634TIP3   OH237846   4.518   1.310   2.406
12634TIP3    H137847   4.525   1.405   2.399
12634TIP3    H237848   4.524   1.292   2.499
12635TIP3   OH237849   3.178   1.129   1.700
12635TIP3    H137850   3.239   1.079   1.646
12635TIP3    H237851   3.160   1.208   1.648
12636TIP3   OH237852   1.173   4.455   2.414
12636TIP3    H137853   1.127   4.419   2.338
12636TIP3    H237854   1.174   4.550   2.399
12637TIP3   OH237855   0.818   0.031   0.402
12637TIP3    H137856   0.796   0.119   0.432
12637TIP3    H237857   0.770  -0.027   0.461
12638TIP3   OH237858   8.088   3.759   4.806
12638TIP3    H137859   8.147   3.749   4.732
12638TIP3    H237860   8.090   3.854   4.824
12639TIP3   OH237861   0.975   7.528   5.534
12639TIP3    H137862   1.070   7.515   5.544
12639TIP3    H237863   0.946   7.456   5.479
12640TIP3   OH237864   4.372   3.697   6.585
12640TIP3    H137865   4.452   3.673   6.537
12640TIP3    H237866   4.394   3.779   6.628
12641TIP3   OH237867   6.769   3.032   0.835
12641TIP3    H137868   6.811   3.046   0.920
12641TIP3    H237869   6.691   2.979   0.856
12642TIP3   OH237870   6.394   3.746   5.873
12642TIP3    H137871   6.306   3.727   5.906
12642TIP3    H237872   6.437   3.794   5.944
12643TIP3   OH237873   4.076   2.241   6.431
12643TIP3    H137874   4.074   2.150   6.400
12643TIP3    H237875   4.051   2.293   6.354
12644TIP3   OH237876   8.090   1.172   1.484
12644TIP3    H137877   8.016   1.232   1.476
12644TIP3    H237878   8.151   1.216   1.544
12645TIP3   OH237879   6.948   1.053   1.412
12645TIP3    H137880   6.914   0.964   1.414
12645TIP3    H237881   7.018   1.053   1.478
12646TIP3   OH237882   4.402   1.662   0.797
12646TIP3    H137883   4.384   1.594   0.862
12646TIP3    H237884   4.497   1.669   0.794
12647TIP3   OH237885   2.197   3.852   4.541
12647TIP3    H137886   2.222   3.774   4.492
12647TIP3    H237887   2.184   3.919   4.474
12648TIP3   OH237888   2.471   3.538   3.377
12648TIP3    H137889   2.501   3.449   3.397
12648TIP3    H237890   2.539   3.595   3.414
12649TIP3   OH237891   6.657   5.526   4.431
12649TIP3    H137892   6.653   5.431   4.443
12649TIP3    H237893   6.727   5.554   4.489
12650TIP3   OH237894   6.313   2.723   3.675
12650TIP3    H137895   6.269   2.695   3.755
12650TIP3    H237896   6.264   2.799   3.645
12651TIP3   OH237897   1.926   0.903   4.874
12651TIP3    H137898   1.845   0.857   4.850
12651TIP3    H237899   1.946   0.958   4.798
12652TIP3   OH237900   3.073   1.778   5.680
12652TIP3    H137901   3.081   1.785   5.585
12652TIP3    H237902   2.982   1.750   5.694
12653TIP3   OH237903   1.497   0.483   6.231
12653TIP3    H137904   1.507   0.528   6.315
12653TIP3    H237905   1.426   0.530   6.188
12654TIP3   OH237906   6.861   0.757   1.436
12654TIP3    H137907   6.781   0.766   1.488
12654TIP3    H237908   6.833   0.711   1.357
12655TIP3   OH237909   4.518   4.712   2.312
12655TIP3    H137910   4.441   4.704   2.368
12655TIP3    H237911   4.575   4.774   2.358
12656TIP3   OH237912   0.302   0.121   4.195
12656TIP3    H137913   0.228   0.179   4.211
12656TIP3    H237914   0.343   0.110   4.280
12657TIP3   OH237915   3.765   4.416   5.467
12657TIP3    H137916   3.741   4.337   5.419
12657TIP3    H237917   3.848   4.394   5.509
12658TIP3   OH237918   3.958   7.020   1.291
12658TIP3    H137919   3.929   6.995   1.204
12658TIP3    H237920   4.046   6.985   1.299
12659TIP3   OH237921   5.625   6.603   3.440
12659TIP3    H137922   5.616   6.695   3.464
12659TIP3    H237923   5.691   6.568   3.499
12660TIP3   OH237924   7.411   5.951   6.665
12660TIP3    H137925   7.492   5.983   6.705
12660TIP3    H237926   7.439   5.875   6.613
12661TIP3   OH237927   2.274   3.614   5.417
12661TIP3    H137928   2.196   3.558   5.418
12661TIP3    H237929   2.251   3.686   5.359
12662TIP3   OH237930   4.744   1.258   5.542
12662TIP3    H137931   4.669   1.223   5.590
12662TIP3    H237932   4.729   1.231   5.451
12663TIP3   OH237933   7.579   0.399   4.204
12663TIP3    H137934   7.648   0.332   4.201
12663TIP3    H237935   7.529   0.385   4.123
12664TIP3   OH237936   2.234   3.233   2.603
12664TIP3    H137937   2.253   3.163   2.666
12664TIP3    H237938   2.190   3.188   2.530
12665TIP3   OH237939   1.515   2.252   5.582
12665TIP3    H137940   1.469   2.238   5.500
12665TIP3    H237941   1.447   2.283   5.642
12666TIP3   OH237942   5.405   4.250   0.525
12666TIP3    H137943   5.442   4.307   0.592
12666TIP3    H237944   5.481   4.206   0.487
12667TIP3   OH237945   4.671   1.057   3.171
12667TIP3    H137946   4.725   1.081   3.096
12667TIP3    H237947   4.733   1.030   3.239
12668TIP3   OH237948   2.467   7.429   4.767
12668TIP3    H137949   2.389   7.422   4.822
12668TIP3    H237950   2.540   7.431   4.829
12669TIP3   OH237951   4.609   1.364   5.000
12669TIP3    H137952   4.646   1.416   4.929
12669TIP3    H237953   4.661   1.283   5.000
12670TIP3   OH237954   3.996   7.661   1.780
12670TIP3    H137955   4.026   7.636   1.693
12670TIP3    H237956   3.974   7.754   1.772
12671TIP3   OH237957   2.176   2.115   3.068
12671TIP3    H137958   2.221   2.195   3.041
12671TIP3    H237959   2.161   2.068   2.986
12672TIP3   OH237960   0.847   3.584   0.054
12672TIP3    H137961   0.756   3.609   0.065
12672TIP3    H237962   0.846   3.489   0.048
12673TIP3   OH237963   6.925   5.803   1.759
12673TIP3    H137964   6.885   5.882   1.795
12673TIP3    H237965   6.853   5.758   1.715
12674TIP3   OH237966   5.529   5.948   1.314
12674TIP3    H137967   5.505   5.995   1.394
12674TIP3    H237968   5.622   5.927   1.325
12675TIP3   OH237969   6.802   7.603   4.832
12675TIP3    H137970   6.757   7.519   4.837
12675TIP3    H237971   6.877   7.594   4.891
12676TIP3   OH237972   6.281   4.629   1.077
12676TIP3    H137973   6.187   4.614   1.071
12676TIP3    H237974   6.297   4.645   1.170
12677TIP3   OH237975   0.628   4.529   4.805
12677TIP3    H137976   0.655   4.581   4.880
12677TIP3    H237977   0.637   4.589   4.730
12678TIP3   OH237978   0.776   2.720   5.589
12678TIP3    H137979   0.714   2.679   5.650
12678TIP3    H237980   0.745   2.696   5.502
12679TIP3   OH237981   2.252   4.163   4.968
12679TIP3    H137982   2.187   4.169   5.038
12679TIP3    H237983   2.202   4.171   4.887
12680TIP3   OH237984   3.173   6.778   2.216
12680TIP3    H137985   3.160   6.823   2.300
12680TIP3    H237986   3.253   6.817   2.181
12681TIP3   OH237987   0.216   1.676   3.200
12681TIP3    H137988   0.148   1.725   3.154
12681TIP3    H237989   0.263   1.742   3.251
12682TIP3   OH237990   2.778   6.834   5.671
12682TIP3    H137991   2.771   6.741   5.649
12682TIP3    H237992   2.688   6.860   5.692
12683TIP3   OH237993   2.814   1.007   1.899
12683TIP3    H137994   2.805   0.935   1.836
12683TIP3    H237995   2.829   1.085   1.845
12684TIP3   OH237996   4.996   6.248   5.088
12684TIP3    H137997   5.048   6.241   5.168
12684TIP3    H237998   4.961   6.338   5.089
12685TIP3   OH237999   5.572   6.559   5.070
12685TIP3    H138000   5.646   6.612   5.041
12685TIP3    H238001   5.609   6.497   5.133
12686TIP3   OH238002   2.988   0.309   5.678
12686TIP3    H138003   3.041   0.259   5.740
12686TIP3    H238004   2.905   0.260   5.673
12687TIP3   OH238005   5.955   2.818   0.483
12687TIP3    H138006   5.872   2.859   0.458
12687TIP3    H238007   5.931   2.729   0.507
12688TIP3   OH238008   7.980   3.620   2.949
12688TIP3    H138009   7.982   3.715   2.960
12688TIP3    H238010   7.983   3.607   2.854
12689TIP3   OH238011   4.143   1.073   4.489
12689TIP3    H138012   4.100   1.024   4.418
12689TIP3    H238013   4.209   1.126   4.444
12690TIP3   OH238014   0.131   1.090   2.219
12690TIP3    H138015   0.173   1.127   2.296
12690TIP3    H238016   0.044   1.128   2.217
12691TIP3   OH238017   8.219   3.387   2.316
12691TIP3    H138018   8.297   3.425   2.275
12691TIP3    H238019   8.250   3.350   2.398
12692TIP3   OH238020   7.175   7.323   1.053
12692TIP3    H138021   7.233   7.299   1.126
12692TIP3    H238022   7.228   7.308   0.975
12693TIP3   OH238023   2.180   5.531   5.530
12693TIP3    H138024   2.190   5.626   5.531
12693TIP3    H238025   2.174   5.509   5.437
12694TIP3   OH238026   3.312   4.316   1.807
12694TIP3    H138027   3.256   4.284   1.878
12694TIP3    H238028   3.288   4.261   1.732
12695TIP3   OH238029   7.233   4.499   5.124
12695TIP3    H138030   7.245   4.425   5.064
12695TIP3    H238031   7.201   4.570   5.068
12696TIP3   OH238032   0.196   2.186   6.319
12696TIP3    H138033   0.141   2.188   6.240
12696TIP3    H238034   0.235   2.098   6.319
12697TIP3   OH238035   0.853   1.266   6.268
12697TIP3    H138036   0.849   1.171   6.266
12697TIP3    H238037   0.774   1.292   6.316
12698TIP3   OH238038   6.675   5.250   4.450
12698TIP3    H138039   6.598   5.206   4.486
12698TIP3    H238040   6.710   5.189   4.385
12699TIP3   OH238041   4.939   3.401   2.229
12699TIP3    H138042   5.028   3.430   2.251
12699TIP3    H238043   4.936   3.400   2.134
12700TIP3   OH238044   7.180   7.724   6.120
12700TIP3    H138045   7.141   7.726   6.208
12700TIP3    H238046   7.119   7.672   6.068
12701TIP3   OH238047   7.734   6.611   2.332
12701TIP3    H138048   7.755   6.544   2.397
12701TIP3    H238049   7.650   6.582   2.295
12702TIP3   OH238050   1.743   5.077   4.041
12702TIP3    H138051   1.738   5.061   3.947
12702TIP3    H238052   1.652   5.069   4.071
12703TIP3   OH238053   3.619   6.457   2.666
12703TIP3    H138054   3.569   6.379   2.637
12703TIP3    H238055   3.655   6.432   2.751
12704TIP3   OH238056   4.781   1.476   4.442
12704TIP3    H138057   4.694   1.476   4.403
12704TIP3    H238058   4.767   1.445   4.531
12705TIP3   OH238059   7.810   2.777   4.625
12705TIP3    H138060   7.835   2.767   4.717
12705TIP3    H238061   7.846   2.699   4.582
12706TIP3   OH238062   5.347   1.307   1.432
12706TIP3    H138063   5.410   1.372   1.400
12706TIP3    H238064   5.264   1.331   1.392
12707TIP3   OH238065   0.193   0.274   5.092
12707TIP3    H138066   0.266   0.326   5.124
12707TIP3    H238067   0.233   0.189   5.070
12708TIP3   OH238068   7.459   7.359   0.062
12708TIP3    H138069   7.491   7.338  -0.026
12708TIP3    H238070   7.417   7.279   0.093
12709TIP3   OH238071   2.039   5.631   6.457
12709TIP3    H138072   2.083   5.699   6.509
12709TIP3    H238073   2.006   5.569   6.521
12710TIP3   OH238074   2.695   0.187   4.493
12710TIP3    H138075   2.602   0.178   4.515
12710TIP3    H238076   2.700   0.268   4.441
12711TIP3   OH238077   5.212   2.194   0.063
12711TIP3    H138078   5.299   2.225   0.037
12711TIP3    H238079   5.197   2.235   0.149
12712TIP3   OH238080   3.160   2.495   6.225
12712TIP3    H138081   3.142   2.522   6.136
12712TIP3    H238082   3.132   2.569   6.279
12713TIP3   OH238083   8.186   6.456   2.065
12713TIP3    H138084   8.280   6.443   2.052
12713TIP3    H238085   8.156   6.492   1.982
12714TIP3   OH238086   7.109   5.178   0.181
12714TIP3    H138087   7.190   5.217   0.148
12714TIP3    H238088   7.057   5.252   0.211
12715TIP3   OH238089   7.275   3.545   0.817
12715TIP3    H138090   7.189   3.545   0.774
12715TIP3    H238091   7.326   3.481   0.768
12716TIP3   OH238092   1.653   3.215   0.127
12716TIP3    H138093   1.639   3.219   0.222
12716TIP3    H238094   1.666   3.307   0.101
12717TIP3   OH238095   6.064   3.546   5.518
12717TIP3    H138096   5.974   3.576   5.529
12717TIP3    H238097   6.089   3.576   5.430
12718TIP3   OH238098   3.839   2.086   4.645
12718TIP3    H138099   3.796   2.067   4.561
12718TIP3    H238100   3.778   2.053   4.711
12719TIP3   OH238101   1.566   6.151   4.892
12719TIP3    H138102   1.558   6.166   4.986
12719TIP3    H238103   1.632   6.215   4.863
12720TIP3   OH238104   6.968   1.213   3.543
12720TIP3    H138105   6.906   1.172   3.604
12720TIP3    H238106   6.996   1.293   3.588
12721TIP3   OH238107   1.110   0.698   0.650
12721TIP3    H138108   1.149   0.761   0.711
12721TIP3    H238109   1.085   0.750   0.574
12722TIP3   OH238110   6.556   0.523   2.207
12722TIP3    H138111   6.508   0.473   2.141
12722TIP3    H238112   6.491   0.585   2.241
12723TIP3   OH238113   5.521   4.857   5.564
12723TIP3    H138114   5.512   4.878   5.472
12723TIP3    H238115   5.498   4.764   5.570
12724TIP3   OH238116   7.680   4.793   2.576
12724TIP3    H138117   7.670   4.754   2.662
12724TIP3    H238118   7.628   4.874   2.580
12725TIP3   OH238119   4.961   3.451   5.647
12725TIP3    H138120   4.871   3.484   5.650
12725TIP3    H238121   4.967   3.391   5.721
12726TIP3   OH238122   2.096   4.689   4.654
12726TIP3    H138123   2.102   4.757   4.587
12726TIP3    H238124   2.007   4.653   4.644
12727TIP3   OH238125   6.697   2.874   5.325
12727TIP3    H138126   6.662   2.950   5.279
12727TIP3    H238127   6.702   2.901   5.416
12728TIP3   OH238128   6.347   5.366   1.514
12728TIP3    H138129   6.436   5.381   1.483
12728TIP3    H238130   6.339   5.423   1.591
12729TIP3   OH238131   5.193   4.770   3.210
12729TIP3    H138132   5.178   4.676   3.223
12729TIP3    H238133   5.209   4.779   3.116
12730TIP3   OH238134   6.483   5.042   3.646
12730TIP3    H138135   6.526   4.984   3.583
12730TIP3    H238136   6.395   5.005   3.655
12731TIP3   OH238137   7.297   6.710   5.599
12731TIP3    H138138   7.380   6.758   5.594
12731TIP3    H238139   7.256   6.740   5.680
12732TIP3   OH238140   2.514   4.346   2.052
12732TIP3    H138141   2.491   4.323   1.963
12732TIP3    H238142   2.432   4.340   2.101
12733TIP3   OH238143   5.864   5.555   5.061
12733TIP3    H138144   5.786   5.586   5.016
12733TIP3    H238145   5.835   5.480   5.112
12734TIP3   OH238146   1.943   7.123   6.346
12734TIP3    H138147   1.923   7.210   6.312
12734TIP3    H238148   1.978   7.139   6.433
12735TIP3   OH238149   6.095   1.956   3.938
12735TIP3    H138150   6.068   1.915   4.020
12735TIP3    H238151   6.150   1.891   3.895
12736TIP3   OH238152   3.603   3.854   1.918
12736TIP3    H138153   3.569   3.944   1.915
12736TIP3    H238154   3.580   3.818   1.832
12737TIP3   OH238155   7.399   1.437   6.497
12737TIP3    H138156   7.310   1.437   6.461
12737TIP3    H238157   7.438   1.518   6.464
12738TIP3   OH238158   6.167   6.770   6.710
12738TIP3    H138159   6.164   6.675   6.702
12738TIP3    H238160   6.174   6.801   6.619
12739TIP3   OH238161   6.646   2.625   6.135
12739TIP3    H138162   6.632   2.628   6.041
12739TIP3    H238163   6.575   2.679   6.171
12740TIP3   OH238164   6.851   2.781   6.393
12740TIP3    H138165   6.908   2.838   6.443
12740TIP3    H238166   6.772   2.772   6.446
12741TIP3   OH238167   3.284   6.987   4.565
12741TIP3    H138168   3.201   6.969   4.608
12741TIP3    H238169   3.260   7.028   4.482
12742TIP3   OH238170   6.509   4.705   2.299
12742TIP3    H138171   6.442   4.641   2.323
12742TIP3    H238172   6.467   4.790   2.310
12743TIP3   OH238173   6.597   4.107   4.125
12743TIP3    H138174   6.641   4.092   4.041
12743TIP3    H238175   6.657   4.164   4.173
12744TIP3   OH238176   2.352   4.538   0.530
12744TIP3    H138177   2.374   4.471   0.595
12744TIP3    H238178   2.270   4.509   0.492
12745TIP3   OH238179   3.505   1.180   3.951
12745TIP3    H138180   3.429   1.150   4.001
12745TIP3    H238181   3.505   1.126   3.872
12746TIP3   OH238182   3.534   0.863   5.935
12746TIP3    H138183   3.510   0.810   6.011
12746TIP3    H238184   3.466   0.930   5.930
12747TIP3   OH238185   2.981   4.402   4.849
12747TIP3    H138186   2.911   4.349   4.888
12747TIP3    H238187   3.062   4.360   4.876
12748TIP3   OH238188   3.570   1.572   0.246
12748TIP3    H138189   3.607   1.609   0.166
12748TIP3    H238190   3.477   1.562   0.227
12749TIP3   OH238191   3.504   4.934   2.435
12749TIP3    H138192   3.559   4.856   2.430
12749TIP3    H238193   3.562   5.002   2.468
12750TIP3   OH238194   7.462   2.000   2.664
12750TIP3    H138195   7.495   1.970   2.748
12750TIP3    H238196   7.416   2.082   2.683
12751TIP3   OH238197   7.828   3.985   0.378
12751TIP3    H138198   7.787   3.900   0.359
12751TIP3    H238199   7.922   3.967   0.374
12752TIP3   OH238200   0.245   5.854   4.041
12752TIP3    H138201   0.197   5.772   4.049
12752TIP3    H238202   0.189   5.909   3.986
12753TIP3   OH238203   6.737   2.231   5.768
12753TIP3    H138204   6.772   2.293   5.703
12753TIP3    H238205   6.761   2.270   5.852
12754TIP3   OH238206   7.193   3.988   1.550
12754TIP3    H138207   7.215   4.032   1.633
12754TIP3    H238208   7.277   3.966   1.511
12755TIP3   OH238209   2.000   1.659   0.531
12755TIP3    H138210   2.034   1.587   0.585
12755TIP3    H238211   1.964   1.721   0.594
12756TIP3   OH238212   6.959   1.819   3.328
12756TIP3    H138213   6.918   1.904   3.308
12756TIP3    H238214   6.917   1.790   3.409
12757TIP3   OH238215   7.538   5.070   2.595
12757TIP3    H138216   7.574   5.056   2.683
12757TIP3    H238217   7.451   5.105   2.611
12758TIP3   OH238218   1.308   3.208   3.878
12758TIP3    H138219   1.283   3.230   3.968
12758TIP3    H238220   1.238   3.152   3.846
12759TIP3   OH238221   7.229   7.376   3.659
12759TIP3    H138222   7.230   7.282   3.673
12759TIP3    H238223   7.145   7.405   3.695
12760TIP3   OH238224   4.840   3.504   3.958
12760TIP3    H138225   4.854   3.418   3.998
12760TIP3    H238226   4.788   3.552   4.022
12761TIP3   OH238227   1.517   7.627   3.301
12761TIP3    H138228   1.540   7.636   3.209
12761TIP3    H238229   1.567   7.551   3.331
12762TIP3   OH238230   5.426   7.353   2.201
12762TIP3    H138231   5.460   7.311   2.122
12762TIP3    H238232   5.491   7.420   2.223
12763TIP3   OH238233   0.046   0.087   5.290
12763TIP3    H138234   0.039   0.138   5.210
12763TIP3    H238235   0.107   0.136   5.345
12764TIP3   OH238236   3.594   0.280   0.805
12764TIP3    H138237   3.500   0.292   0.820
12764TIP3    H238238   3.617   0.346   0.740
12765TIP3   OH238239   3.912   0.403   5.434
12765TIP3    H138240   3.856   0.404   5.356
12765TIP3    H238241   3.987   0.457   5.410
12766TIP3   OH238242   7.587   6.517   0.510
12766TIP3    H138243   7.555   6.490   0.596
12766TIP3    H238244   7.648   6.588   0.529
12767TIP3   OH238245   4.942   0.798   5.334
12767TIP3    H138246   4.924   0.889   5.310
12767TIP3    H238247   5.034   0.798   5.359
12768TIP3   OH238248   1.696   4.894   3.789
12768TIP3    H138249   1.726   4.871   3.877
12768TIP3    H238250   1.600   4.885   3.794
12769TIP3   OH238251   0.136   4.682   4.507
12769TIP3    H138252   0.066   4.626   4.539
12769TIP3    H238253   0.104   4.771   4.521
12770TIP3   OH238254   1.155   3.400   3.617
12770TIP3    H138255   1.100   3.340   3.667
12770TIP3    H238256   1.094   3.450   3.564
12771TIP3   OH238257   3.973   2.349   3.663
12771TIP3    H138258   3.927   2.361   3.746
12771TIP3    H238259   3.908   2.372   3.596
12772TIP3   OH238260   7.195   0.683   2.528
12772TIP3    H138261   7.253   0.730   2.467
12772TIP3    H238262   7.181   0.744   2.600
12773TIP3   OH238263   7.033   4.041   3.058
12773TIP3    H138264   6.944   4.032   3.024
12773TIP3    H238265   7.047   4.136   3.064
12774TIP3   OH238266   2.737   6.553   5.632
12774TIP3    H138267   2.666   6.584   5.575
12774TIP3    H238268   2.704   6.472   5.670
12775TIP3   OH238269   5.011   2.332   3.814
12775TIP3    H138270   4.938   2.269   3.820
12775TIP3    H238271   5.022   2.363   3.904
12776TIP3   OH238272   5.288   3.944   2.992
12776TIP3    H138273   5.363   3.896   3.028
12776TIP3    H238274   5.322   4.032   2.975
12777TIP3   OH238275   7.166   6.021   5.048
12777TIP3    H138276   7.196   6.022   4.957
12777TIP3    H238277   7.172   6.112   5.076
12778TIP3   OH238278   1.536   2.996   2.014
12778TIP3    H138279   1.587   3.075   2.032
12778TIP3    H238280   1.593   2.942   1.961
12779TIP3   OH238281   0.788   5.945   5.765
12779TIP3    H138282   0.826   5.997   5.835
12779TIP3    H238283   0.803   5.997   5.686
12780TIP3   OH238284   4.880   4.266   6.494
12780TIP3    H138285   4.784   4.263   6.502
12780TIP3    H238286   4.905   4.350   6.532
12781TIP3   OH238287   6.789   2.762   0.463
12781TIP3    H138288   6.739   2.838   0.431
12781TIP3    H238289   6.829   2.725   0.384
12782TIP3   OH238290   0.646   4.256   4.757
12782TIP3    H138291   0.643   4.351   4.769
12782TIP3    H238292   0.568   4.236   4.706
12783TIP3   OH238293   2.332   4.831   3.808
12783TIP3    H138294   2.298   4.868   3.726
12783TIP3    H238295   2.427   4.840   3.800
12784TIP3   OH238296   7.043   1.221   3.030
12784TIP3    H138297   7.100   1.188   2.960
12784TIP3    H238298   6.955   1.212   2.995
12785TIP3   OH238299   5.401   4.453   3.212
12785TIP3    H138300   5.313   4.485   3.231
12785TIP3    H238301   5.449   4.531   3.183
12786TIP3   OH238302   2.432   3.318   2.191
12786TIP3    H138303   2.420   3.394   2.247
12786TIP3    H238304   2.521   3.326   2.157
12787TIP3   OH238305   7.439   3.720   1.185
12787TIP3    H138306   7.416   3.641   1.235
12787TIP3    H238307   7.363   3.735   1.128
12788TIP3   OH238308   0.064   4.828   6.185
12788TIP3    H138309  -0.001   4.761   6.167
12788TIP3    H238310   0.032   4.906   6.138
12789TIP3   OH238311   6.281   7.258   6.128
12789TIP3    H138312   6.368   7.231   6.099
12789TIP3    H238313   6.265   7.341   6.083
12790TIP3   OH238314   1.221   1.100   6.307
12790TIP3    H138315   1.178   1.131   6.387
12790TIP3    H238316   1.265   1.019   6.334
12791TIP3   OH238317   4.715   1.897   3.950
12791TIP3    H138318   4.649   1.832   3.924
12791TIP3    H238319   4.693   1.917   4.041
12792TIP3   OH238320   0.895   5.764   2.686
12792TIP3    H138321   0.869   5.851   2.714
12792TIP3    H238322   0.940   5.777   2.602
12793TIP3   OH238323   7.012   7.542   3.065
12793TIP3    H138324   7.032   7.490   3.142
12793TIP3    H238325   7.093   7.590   3.047
12794TIP3   OH238326   7.754   4.046   5.623
12794TIP3    H138327   7.771   4.009   5.709
12794TIP3    H238328   7.810   3.996   5.564
12795TIP3   OH238329   3.280   6.605   6.032
12795TIP3    H138330   3.352   6.551   5.998
12795TIP3    H238331   3.228   6.544   6.084
12796TIP3   OH238332   7.096   0.547   0.572
12796TIP3    H138333   7.033   0.618   0.578
12796TIP3    H238334   7.177   0.588   0.542
12797TIP3   OH238335   1.757   1.525   2.180
12797TIP3    H138336   1.738   1.617   2.165
12797TIP3    H238337   1.740   1.512   2.273
12798TIP3   OH238338   7.410   5.212   4.064
12798TIP3    H138339   7.374   5.162   3.991
12798TIP3    H238340   7.347   5.198   4.135
12799TIP3   OH238341   7.208   5.038   4.370
12799TIP3    H138342   7.285   4.981   4.366
12799TIP3    H238343   7.230   5.101   4.439
12800TIP3   OH238344   1.483   5.287   4.376
12800TIP3    H138345   1.447   5.298   4.464
12800TIP3    H238346   1.459   5.198   4.352
12801TIP3   OH238347   6.827   3.994   2.127
12801TIP3    H138348   6.766   4.057   2.089
12801TIP3    H238349   6.900   4.047   2.158
12802TIP3   OH238350   4.203   7.051   3.315
12802TIP3    H138351   4.167   7.013   3.396
12802TIP3    H238352   4.126   7.071   3.262
12803TIP3   OH238353   3.091   1.614   6.303
12803TIP3    H138354   3.054   1.573   6.381
12803TIP3    H238355   3.149   1.682   6.336
12804TIP3   OH238356   7.666   5.715   5.104
12804TIP3    H138357   7.757   5.699   5.079
12804TIP3    H238358   7.653   5.808   5.086
12805TIP3   OH238359   5.098   5.189   4.753
12805TIP3    H138360   5.011   5.200   4.715
12805TIP3    H238361   5.153   5.160   4.680
12806TIP3   OH238362   3.884   5.267   4.224
12806TIP3    H138363   3.839   5.195   4.180
12806TIP3    H238364   3.973   5.234   4.237
12807TIP3   OH238365   7.672   3.097   0.867
12807TIP3    H138366   7.763   3.102   0.839
12807TIP3    H238367   7.622   3.140   0.797
12808TIP3   OH238368   2.008   3.661   2.079
12808TIP3    H138369   2.054   3.742   2.100
12808TIP3    H238370   1.982   3.670   1.987
12809TIP3   OH238371   1.555   1.997   0.461
12809TIP3    H138372   1.532   1.975   0.371
12809TIP3    H238373   1.471   2.005   0.507
12810TIP3   OH238374   7.767   2.846   0.921
12810TIP3    H138375   7.761   2.940   0.904
12810TIP3    H238376   7.698   2.828   0.984
12811TIP3   OH238377   2.265   0.257   5.486
12811TIP3    H138378   2.264   0.352   5.471
12811TIP3    H238379   2.241   0.248   5.578
12812TIP3   OH238380   8.231   4.655   4.222
12812TIP3    H138381   8.233   4.694   4.135
12812TIP3    H238382   8.323   4.634   4.241
12813TIP3   OH238383   5.318   1.455   2.384
12813TIP3    H138384   5.264   1.376   2.376
12813TIP3    H238385   5.376   1.452   2.308
12814TIP3   OH238386   1.994   7.263   4.838
12814TIP3    H138387   1.952   7.299   4.760
12814TIP3    H238388   2.049   7.192   4.806
12815TIP3   OH238389   5.910   0.377   4.942
12815TIP3    H138390   5.839   0.320   4.969
12815TIP3    H238391   5.898   0.389   4.848
12816TIP3   OH238392   6.228   5.512   5.668
12816TIP3    H138393   6.223   5.423   5.705
12816TIP3    H238394   6.144   5.552   5.691
12817TIP3   OH238395   3.593   7.142   5.854
12817TIP3    H138396   3.552   7.066   5.895
12817TIP3    H238397   3.672   7.157   5.906
12818TIP3   OH238398   7.714   0.329   3.374
12818TIP3    H138399   7.674   0.273   3.307
12818TIP3    H238400   7.808   0.324   3.356
12819TIP3   OH238401   1.274   5.845   2.296
12819TIP3    H138402   1.316   5.898   2.229
12819TIP3    H238403   1.344   5.824   2.358
12820TIP3   OH238404   6.129   6.514   5.978
12820TIP3    H138405   6.036   6.495   5.992
12820TIP3    H238406   6.145   6.592   6.032
12821TIP3   OH238407   3.409   4.808   3.923
12821TIP3    H138408   3.455   4.724   3.925
12821TIP3    H238409   3.320   4.787   3.950
12822TIP3   OH238410   2.498   3.394   5.656
12822TIP3    H138411   2.513   3.307   5.693
12822TIP3    H238412   2.454   3.378   5.573
12823TIP3   OH238413   7.499   3.327   4.147
12823TIP3    H138414   7.499   3.272   4.069
12823TIP3    H238415   7.412   3.365   4.150
12824TIP3   OH238416   1.569   5.024   1.571
12824TIP3    H138417   1.648   4.972   1.581
12824TIP3    H238418   1.525   5.019   1.655
12825TIP3   OH238419   2.511   4.368   0.951
12825TIP3    H138420   2.480   4.359   0.861
12825TIP3    H238421   2.463   4.302   1.000
12826TIP3   OH238422   7.270   2.772   6.596
12826TIP3    H138423   7.187   2.809   6.566
12826TIP3    H238424   7.277   2.687   6.552
12827TIP3   OH238425   7.317   7.131   2.947
12827TIP3    H138426   7.238   7.114   2.896
12827TIP3    H238427   7.297   7.099   3.035
12828TIP3   OH238428   5.020   6.346   2.640
12828TIP3    H138429   4.941   6.361   2.692
12828TIP3    H238430   5.010   6.402   2.563
12829TIP3   OH238431   5.060   4.125   3.335
12829TIP3    H138432   5.142   4.086   3.305
12829TIP3    H238433   5.042   4.195   3.273
12830TIP3   OH238434   5.646   3.964   1.154
12830TIP3    H138435   5.559   3.969   1.116
12830TIP3    H238436   5.640   4.015   1.235
12831TIP3   OH238437   0.733   0.023   2.305
12831TIP3    H138438   0.774   0.026   2.392
12831TIP3    H238439   0.701   0.112   2.291
12832TIP3   OH238440   4.843   1.528   2.218
12832TIP3    H138441   4.831   1.433   2.208
12832TIP3    H238442   4.785   1.566   2.153
12833TIP3   OH238443   7.495   2.025   1.199
12833TIP3    H138444   7.485   2.120   1.186
12833TIP3    H238445   7.462   2.009   1.287
12834TIP3   OH238446   0.306   4.942   0.042
12834TIP3    H138447   0.323   4.854   0.011
12834TIP3    H238448   0.391   4.986   0.040
12835TIP3   OH238449   2.088   0.982   3.150
12835TIP3    H138450   2.008   0.947   3.190
12835TIP3    H238451   2.114   0.915   3.087
12836TIP3   OH238452   2.000   4.351   2.377
12836TIP3    H138453   2.035   4.319   2.293
12836TIP3    H238454   1.958   4.275   2.416
12837TIP3   OH238455   2.490   1.686   2.131
12837TIP3    H138456   2.450   1.609   2.091
12837TIP3    H238457   2.459   1.686   2.221
12838TIP3   OH238458   4.425   5.525   0.970
12838TIP3    H138459   4.344   5.500   1.015
12838TIP3    H238460   4.476   5.571   1.036
12839TIP3   OH238461   3.978   1.537   0.162
12839TIP3    H138462   4.062   1.494   0.177
12839TIP3    H238463   3.932   1.478   0.101
12840TIP3   OH238464   4.086   0.569   5.030
12840TIP3    H138465   4.094   0.626   4.953
12840TIP3    H238466   3.999   0.530   5.022
12841TIP3   OH238467   6.302   0.723   3.839
12841TIP3    H138468   6.325   0.662   3.769
12841TIP3    H238469   6.220   0.763   3.811
12842TIP3   OH238470   1.992   2.333   2.869
12842TIP3    H138471   2.086   2.351   2.881
12842TIP3    H238472   1.956   2.415   2.835
12843TIP3   OH238473   2.526   4.418   1.315
12843TIP3    H138474   2.524   4.332   1.355
12843TIP3    H238475   2.444   4.423   1.265
12844TIP3   OH238476   5.963   7.732   0.631
12844TIP3    H138477   5.931   7.806   0.683
12844TIP3    H238478   5.887   7.675   0.620
12845TIP3   OH238479   3.527   2.653   6.304
12845TIP3    H138480   3.522   2.574   6.250
12845TIP3    H238481   3.488   2.721   6.250
12846TIP3   OH238482   0.525   2.732   4.523
12846TIP3    H138483   0.479   2.730   4.607
12846TIP3    H238484   0.596   2.669   4.533
12847TIP3   OH238485   1.918   6.244   6.580
12847TIP3    H138486   1.903   6.155   6.612
12847TIP3    H238487   2.009   6.243   6.550
12848TIP3   OH238488   4.079   2.700   3.599
12848TIP3    H138489   4.058   2.614   3.562
12848TIP3    H238490   4.156   2.729   3.552
12849TIP3   OH238491   4.994   3.465   5.336
12849TIP3    H138492   4.956   3.551   5.351
12849TIP3    H238493   4.962   3.412   5.410
12850TIP3   OH238494   4.109   5.887   5.926
12850TIP3    H138495   4.065   5.805   5.906
12850TIP3    H238496   4.127   5.927   5.841
12851TIP3   OH238497   5.003   5.734   6.625
12851TIP3    H138498   5.030   5.755   6.536
12851TIP3    H238499   5.050   5.797   6.680
12852TIP3   OH238500   3.749   0.052   0.806
12852TIP3    H138501   3.815   0.072   0.738
12852TIP3    H238502   3.710   0.137   0.826
12853TIP3   OH238503   3.238   0.955   0.484
12853TIP3    H138504   3.143   0.945   0.476
12853TIP3    H238505   3.274   0.882   0.433
12854TIP3   OH238506   4.432   2.991   6.214
12854TIP3    H138507   4.367   2.926   6.238
12854TIP3    H238508   4.485   3.004   6.293
12855TIP3   OH238509   3.981   2.971   4.882
12855TIP3    H138510   4.076   2.980   4.896
12855TIP3    H238511   3.951   2.916   4.955
12856TIP3   OH238512   0.410   0.082   3.509
12856TIP3    H138513   0.421   0.052   3.599
12856TIP3    H238514   0.499   0.102   3.479
12857TIP3   OH238515   7.475   6.950   1.814
12857TIP3    H138516   7.557   6.916   1.780
12857TIP3    H238517   7.500   7.025   1.868
12858TIP3   OH238518   3.275   5.058   5.796
12858TIP3    H138519   3.264   4.993   5.866
12858TIP3    H238520   3.259   5.009   5.715
12859TIP3   OH238521   1.471   0.387   4.697
12859TIP3    H138522   1.387   0.417   4.733
12859TIP3    H238523   1.446   0.322   4.631
12860TIP3   OH238524   5.846   1.655   3.008
12860TIP3    H138525   5.798   1.612   3.078
12860TIP3    H238526   5.879   1.583   2.954
12861TIP3   OH238527   5.923   3.126   5.898
12861TIP3    H138528   5.933   3.202   5.840
12861TIP3    H238529   5.836   3.136   5.936
12862TIP3   OH238530   5.755   7.029   1.461
12862TIP3    H138531   5.845   7.012   1.431
12862TIP3    H238532   5.748   7.124   1.464
12863TIP3   OH238533   2.032   3.393   0.119
12863TIP3    H138534   2.068   3.313   0.080
12863TIP3    H238535   1.939   3.390   0.097
12864TIP3   OH238536   8.078   3.133   5.890
12864TIP3    H138537   8.102   3.043   5.869
12864TIP3    H238538   8.112   3.185   5.817
12865TIP3   OH238539   6.893   0.218   2.286
12865TIP3    H138540   6.948   0.246   2.360
12865TIP3    H238541   6.806   0.205   2.324
12866TIP3   OH238542   5.340   5.230   1.646
12866TIP3    H138543   5.315   5.315   1.610
12866TIP3    H238544   5.347   5.173   1.569
12867TIP3   OH238545   6.930   5.216   4.319
12867TIP3    H138546   6.999   5.155   4.347
12867TIP3    H238547   6.957   5.301   4.353
12868TIP3   OH238548   4.585   3.485   1.109
12868TIP3    H138549   4.509   3.523   1.065
12868TIP3    H238550   4.567   3.391   1.112
12869TIP3   OH238551   2.331   0.280   3.355
12869TIP3    H138552   2.418   0.290   3.316
12869TIP3    H238553   2.307   0.189   3.338
12870TIP3   OH238554   1.211   1.310   4.793
12870TIP3    H138555   1.233   1.227   4.753
12870TIP3    H238556   1.117   1.320   4.778
12871TIP3   OH238557   2.012   1.782   1.532
12871TIP3    H138558   1.929   1.771   1.487
12871TIP3    H238559   2.013   1.874   1.559
12872TIP3   OH238560   4.414   4.175   6.680
12872TIP3    H138561   4.501   4.202   6.651
12872TIP3    H238562   4.408   4.082   6.658
12873TIP3   OH238563   7.770   3.533   6.514
12873TIP3    H138564   7.774   3.614   6.464
12873TIP3    H238565   7.677   3.512   6.519
12874TIP3   OH238566   4.982   4.653   1.510
12874TIP3    H138567   4.984   4.732   1.457
12874TIP3    H238568   5.074   4.633   1.528
12875TIP3   OH238569   5.828   2.115   0.634
12875TIP3    H138570   5.840   2.059   0.711
12875TIP3    H238571   5.841   2.204   0.667
12876TIP3   OH238572   4.893   7.365   5.664
12876TIP3    H138573   4.828   7.316   5.613
12876TIP3    H238574   4.934   7.423   5.600
12877TIP3   OH238575   2.763   4.131   4.588
12877TIP3    H138576   2.762   4.216   4.544
12877TIP3    H238577   2.851   4.123   4.624
12878TIP3   OH238578   6.923   1.068   2.350
12878TIP3    H138579   6.900   0.985   2.308
12878TIP3    H238580   6.921   1.048   2.444
12879TIP3   OH238581   3.634   3.432   6.008
12879TIP3    H138582   3.674   3.345   5.999
12879TIP3    H238583   3.551   3.425   5.962
12880TIP3   OH238584   5.545   4.924   6.019
12880TIP3    H138585   5.494   4.860   5.970
12880TIP3    H238586   5.605   4.872   6.073
12881TIP3   OH238587   3.215   7.721   0.279
12881TIP3    H138588   3.310   7.719   0.271
12881TIP3    H238589   3.186   7.640   0.237
12882TIP3   OH238590   1.584   4.972   2.499
12882TIP3    H138591   1.517   4.908   2.478
12882TIP3    H238592   1.592   4.970   2.594
12883TIP3   OH238593   8.283   0.218   6.301
12883TIP3    H138594   8.326   0.292   6.258
12883TIP3    H238595   8.190   0.234   6.290
12884TIP3   OH238596   4.848   5.039   4.763
12884TIP3    H138597   4.865   4.973   4.830
12884TIP3    H238598   4.756   5.063   4.775
12885TIP3   OH238599   7.974   2.699   0.382
12885TIP3    H138600   7.999   2.716   0.473
12885TIP3    H238601   8.035   2.753   0.331
12886TIP3   OH238602   2.636   4.293   0.280
12886TIP3    H138603   2.705   4.243   0.237
12886TIP3    H238604   2.572   4.226   0.307
12887TIP3   OH238605   7.588   6.388   5.927
12887TIP3    H138606   7.509   6.438   5.908
12887TIP3    H238607   7.642   6.446   5.980
12888TIP3   OH238608   2.432   0.718   1.287
12888TIP3    H138609   2.427   0.625   1.308
12888TIP3    H238610   2.360   0.732   1.225
12889TIP3   OH238611   5.502   5.991   3.545
12889TIP3    H138612   5.451   6.023   3.471
12889TIP3    H238613   5.588   5.969   3.509
12890TIP3   OH238614   5.920   2.161   6.513
12890TIP3    H138615   5.986   2.162   6.444
12890TIP3    H238616   5.900   2.069   6.526
12891TIP3   OH238617   5.901   1.172   4.924
12891TIP3    H138618   5.965   1.189   4.993
12891TIP3    H238619   5.828   1.231   4.945
12892TIP3   OH238620   5.053   1.532   6.540
12892TIP3    H138621   5.149   1.522   6.540
12892TIP3    H238622   5.025   1.492   6.458
12893TIP3   OH238623   7.670   7.704   0.192
12893TIP3    H138624   7.680   7.667   0.279
12893TIP3    H238625   7.760   7.717   0.161
12894TIP3   OH238626   7.866   7.646   1.242
12894TIP3    H138627   7.782   7.600   1.242
12894TIP3    H238628   7.928   7.583   1.206
12895TIP3   OH238629   0.626   2.654   6.272
12895TIP3    H138630   0.688   2.621   6.338
12895TIP3    H238631   0.574   2.720   6.319
12896TIP3   OH238632   4.761   4.183   4.357
12896TIP3    H138633   4.716   4.203   4.274
12896TIP3    H238634   4.762   4.088   4.362
12897TIP3   OH238635   5.213   7.174   2.064
12897TIP3    H138636   5.178   7.153   2.151
12897TIP3    H238637   5.284   7.236   2.082
12898TIP3   OH238638   3.551   6.644   3.178
12898TIP3    H138639   3.460   6.613   3.173
12898TIP3    H238640   3.563   6.670   3.269
12899TIP3   OH238641   5.523   0.479   0.597
12899TIP3    H138642   5.510   0.449   0.687
12899TIP3    H238643   5.599   0.538   0.602
12900TIP3   OH238644   2.566   2.390   3.816
12900TIP3    H138645   2.562   2.451   3.890
12900TIP3    H238646   2.589   2.306   3.855
12901TIP3   OH238647   1.544   5.606   3.374
12901TIP3    H138648   1.537   5.630   3.466
12901TIP3    H238649   1.563   5.688   3.329
12902TIP3   OH238650   0.787   3.801   5.657
12902TIP3    H138651   0.762   3.715   5.693
12902TIP3    H238652   0.865   3.826   5.707
12903TIP3   OH238653   4.585   6.025   2.803
12903TIP3    H138654   4.498   5.990   2.785
12903TIP3    H238655   4.644   5.950   2.792
12904TIP3   OH238656   5.977   1.516   6.479
12904TIP3    H138657   5.899   1.492   6.529
12904TIP3    H238658   6.029   1.435   6.475
12905TIP3   OH238659   0.510   5.546   3.400
12905TIP3    H138660   0.527   5.561   3.493
12905TIP3    H238661   0.481   5.455   3.395
12906TIP3   OH238662   0.052   3.710   3.055
12906TIP3    H138663   0.106   3.722   2.977
12906TIP3    H238664   0.029   3.799   3.082
12907TIP3   OH238665   5.029   6.021   3.994
12907TIP3    H138666   5.110   6.045   4.038
12907TIP3    H238667   5.049   6.027   3.900
12908TIP3   OH238668   6.491   2.356   5.859
12908TIP3    H138669   6.504   2.263   5.843
12908TIP3    H238670   6.535   2.400   5.786
12909TIP3   OH238671   1.974   3.673   4.046
12909TIP3    H138672   1.897   3.625   4.015
12909TIP3    H238673   2.041   3.606   4.056
12910TIP3   OH238674   8.064   6.374   5.478
12910TIP3    H138675   7.988   6.430   5.460
12910TIP3    H238676   8.080   6.385   5.571
12911TIP3   OH238677   6.884   5.322   0.219
12911TIP3    H138678   6.797   5.286   0.204
12911TIP3    H238679   6.911   5.360   0.136
12912TIP3   OH238680   5.015   1.352   5.574
12912TIP3    H138681   4.932   1.310   5.551
12912TIP3    H238682   5.000   1.389   5.661
12913TIP3   OH238683   1.542   6.004   6.627
12913TIP3    H138684   1.610   5.992   6.694
12913TIP3    H238685   1.591   6.020   6.547
12914TIP3   OH238686   2.747   1.585   4.531
12914TIP3    H138687   2.828   1.551   4.495
12914TIP3    H238688   2.678   1.549   4.474
12915TIP3   OH238689   0.477   5.170   1.106
12915TIP3    H138690   0.448   5.079   1.092
12915TIP3    H238691   0.570   5.169   1.082
12916TIP3   OH238692   0.851   6.701   0.417
12916TIP3    H138693   0.874   6.610   0.431
12916TIP3    H238694   0.927   6.751   0.447
12917TIP3   OH238695   0.443   0.779   4.034
12917TIP3    H138696   0.414   0.693   4.065
12917TIP3    H238697   0.469   0.826   4.113
12918TIP3   OH238698   2.591   3.813   4.949
12918TIP3    H138699   2.572   3.725   4.918
12918TIP3    H238700   2.506   3.854   4.962
12919TIP3   OH238701   5.426   2.052   1.354
12919TIP3    H138702   5.346   2.012   1.320
12919TIP3    H238703   5.426   2.029   1.447
12920TIP3   OH238704   1.518   0.904   2.674
12920TIP3    H138705   1.510   0.947   2.589
12920TIP3    H238706   1.466   0.824   2.665
12921TIP3   OH238707   2.039   3.945   2.198
12921TIP3    H138708   2.026   4.031   2.159
12921TIP3    H238709   1.951   3.917   2.224
12922TIP3   OH238710   1.591   6.386   5.505
12922TIP3    H138711   1.608   6.480   5.492
12922TIP3    H238712   1.664   6.342   5.462
12923TIP3   OH238713   6.245   5.115   2.199
12923TIP3    H138714   6.258   5.021   2.182
12923TIP3    H238715   6.324   5.157   2.164
12924TIP3   OH238716   5.097   6.143   3.188
12924TIP3    H138717   5.077   6.074   3.251
12924TIP3    H238718   5.095   6.224   3.239
12925TIP3   OH238719   8.188   1.238   2.227
12925TIP3    H138720   8.115   1.244   2.165
12925TIP3    H238721   8.152   1.272   2.309
12926TIP3   OH238722   1.511   7.807   0.127
12926TIP3    H138723   1.463   7.888   0.145
12926TIP3    H238724   1.444   7.745   0.098
12927TIP3   OH238725   2.406   1.978   6.639
12927TIP3    H138726   2.410   1.985   6.543
12927TIP3    H238727   2.497   1.968   6.666
12928TIP3   OH238728   1.007   0.852   6.323
12928TIP3    H138729   1.098   0.862   6.295
12928TIP3    H238730   0.963   0.930   6.291
12929TIP3   OH238731   6.797   1.606   4.999
12929TIP3    H138732   6.782   1.623   5.092
12929TIP3    H238733   6.801   1.511   4.992
12930TIP3   OH238734   6.542   4.747   5.715
12930TIP3    H138735   6.527   4.835   5.680
12930TIP3    H238736   6.483   4.741   5.791
12931TIP3   OH238737   3.396   0.441   0.439
12931TIP3    H138738   3.451   0.363   0.442
12931TIP3    H238739   3.324   0.422   0.499
12932TIP3   OH238740   1.121   6.799   2.418
12932TIP3    H138741   1.109   6.844   2.502
12932TIP3    H238742   1.080   6.858   2.354
12933TIP3   OH238743   3.544   0.239   1.572
12933TIP3    H138744   3.500   0.323   1.588
12933TIP3    H238745   3.531   0.223   1.478
12934TIP3   OH238746   7.610   7.279   0.261
12934TIP3    H138747   7.579   7.352   0.207
12934TIP3    H238748   7.535   7.257   0.316
12935TIP3   OH238749   5.717   0.155   2.182
12935TIP3    H138750   5.751   0.136   2.270
12935TIP3    H238751   5.624   0.169   2.195
12936TIP3   OH238752   0.763   2.239   3.140
12936TIP3    H138753   0.801   2.323   3.115
12936TIP3    H238754   0.678   2.237   3.098
12937TIP3   OH238755   7.731   7.781   5.446
12937TIP3    H138756   7.765   7.867   5.419
12937TIP3    H238757   7.647   7.774   5.401
12938TIP3   OH238758   8.252   0.257   2.687
12938TIP3    H138759   8.277   0.208   2.608
12938TIP3    H238760   8.244   0.190   2.754
12939TIP3   OH238761   6.935   3.313   6.539
12939TIP3    H138762   6.976   3.250   6.599
12939TIP3    H238763   6.842   3.292   6.544
12940TIP3   OH238764   4.207   2.863   3.214
12940TIP3    H138765   4.177   2.793   3.156
12940TIP3    H238766   4.145   2.935   3.199
12941TIP3   OH238767   3.129   2.756   5.375
12941TIP3    H138768   3.100   2.792   5.459
12941TIP3    H238769   3.169   2.830   5.329
12942TIP3   OH238770   0.885   3.410   2.133
12942TIP3    H138771   0.947   3.403   2.061
12942TIP3    H238772   0.928   3.468   2.196
12943TIP3   OH238773   0.661   2.814   0.172
12943TIP3    H138774   0.678   2.875   0.243
12943TIP3    H238775   0.733   2.828   0.110
12944TIP3   OH238776   6.692   2.496   6.807
12944TIP3    H138777   6.736   2.425   6.761
12944TIP3    H238778   6.612   2.512   6.756
12945TIP3   OH238779   4.764   5.350   6.160
12945TIP3    H138780   4.809   5.349   6.076
12945TIP3    H238781   4.708   5.428   6.156
12946TIP3   OH238782   3.856   0.811   4.155
12946TIP3    H138783   3.822   0.721   4.157
12946TIP3    H238784   3.907   0.815   4.074
12947TIP3   OH238785   6.616   0.817   6.650
12947TIP3    H138786   6.527   0.845   6.628
12947TIP3    H238787   6.612   0.722   6.655
12948TIP3   OH238788   6.207   1.110   5.431
12948TIP3    H138789   6.199   1.205   5.430
12948TIP3    H238790   6.121   1.079   5.459
12949TIP3   OH238791   5.949   6.417   2.590
12949TIP3    H138792   6.004   6.477   2.640
12949TIP3    H238793   5.936   6.342   2.647
12950TIP3   OH238794   7.533   0.256   2.060
12950TIP3    H138795   7.539   0.350   2.041
12950TIP3    H238796   7.564   0.213   1.980
12951TIP3   OH238797   2.988   5.794   2.279
12951TIP3    H138798   2.897   5.822   2.294
12951TIP3    H238799   2.981   5.704   2.247
12952TIP3   OH238800   5.373   7.284   1.121
12952TIP3    H138801   5.439   7.215   1.130
12952TIP3    H238802   5.369   7.302   1.027
12953TIP3   OH238803   4.781   4.721   6.063
12953TIP3    H138804   4.827   4.654   6.114
12953TIP3    H238805   4.699   4.680   6.037
12954TIP3   OH238806   5.097   2.865   1.546
12954TIP3    H138807   5.039   2.788   1.551
12954TIP3    H238808   5.063   2.916   1.473
12955TIP3   OH238809   0.228   1.843   0.445
12955TIP3    H138810   0.250   1.750   0.438
12955TIP3    H238811   0.187   1.850   0.531
12956TIP3   OH238812   0.335   6.443   6.478
12956TIP3    H138813   0.392   6.518   6.459
12956TIP3    H238814   0.395   6.372   6.500
12957TIP3   OH238815   0.184   3.031   0.688
12957TIP3    H138816   0.224   3.075   0.763
12957TIP3    H238817   0.226   2.945   0.686
12958TIP3   OH238818   2.550   0.492   1.462
12958TIP3    H138819   2.608   0.555   1.504
12958TIP3    H238820   2.591   0.406   1.478
12959TIP3   OH238821   0.680   0.424   3.700
12959TIP3    H138822   0.675   0.516   3.671
12959TIP3    H238823   0.656   0.427   3.792
12960TIP3   OH238824   3.849   0.551   3.851
12960TIP3    H138825   3.943   0.532   3.852
12960TIP3    H238826   3.822   0.543   3.943
12961TIP3   OH238827   4.177   6.600   2.495
12961TIP3    H138828   4.093   6.580   2.453
12961TIP3    H238829   4.227   6.647   2.428
12962TIP3   OH238830   4.907   4.149   6.213
12962TIP3    H138831   4.825   4.151   6.164
12962TIP3    H238832   4.885   4.190   6.297
12963TIP3   OH238833   6.776   5.563   4.200
12963TIP3    H138834   6.869   5.578   4.217
12963TIP3    H238835   6.740   5.538   4.285
12964TIP3   OH238836   7.141   4.415   2.747
12964TIP3    H138837   7.125   4.506   2.720
12964TIP3    H238838   7.057   4.371   2.735
12965TIP3   OH238839   0.295   0.901   2.113
12965TIP3    H138840   0.383   0.913   2.151
12965TIP3    H238841   0.251   0.984   2.130
12966TIP3   OH238842   6.289   7.375   4.293
12966TIP3    H138843   6.229   7.322   4.241
12966TIP3    H238844   6.327   7.436   4.230
12967TIP3   OH238845   1.598   2.847   4.231
12967TIP3    H138846   1.578   2.888   4.315
12967TIP3    H238847   1.568   2.756   4.241
12968TIP3   OH238848   3.914   6.887   3.840
12968TIP3    H138849   3.917   6.840   3.923
12968TIP3    H238850   3.821   6.907   3.827
12969TIP3   OH238851   2.217   3.612   6.202
12969TIP3    H138852   2.199   3.622   6.296
12969TIP3    H238853   2.266   3.691   6.179
12970TIP3   OH238854   4.911   0.562   1.300
12970TIP3    H138855   4.884   0.561   1.392
12970TIP3    H238856   4.999   0.597   1.301
12971TIP3   OH238857   3.807   5.558   0.141
12971TIP3    H138858   3.851   5.641   0.163
12971TIP3    H238859   3.823   5.502   0.216
12972TIP3   OH238860   2.482   5.328   4.563
12972TIP3    H138861   2.563   5.303   4.607
12972TIP3    H238862   2.471   5.420   4.584
12973TIP3   OH238863   0.989   2.159   1.916
12973TIP3    H138864   1.052   2.104   1.870
12973TIP3    H238865   0.904   2.118   1.900
12974TIP3   OH238866   7.571   3.366   5.669
12974TIP3    H138867   7.498   3.406   5.622
12974TIP3    H238868   7.551   3.272   5.669
12975TIP3   OH238869   2.895   1.334   2.346
12975TIP3    H138870   2.905   1.270   2.417
12975TIP3    H238871   2.808   1.371   2.359
12976TIP3   OH238872   0.390   3.421   2.437
12976TIP3    H138873   0.379   3.411   2.343
12976TIP3    H238874   0.338   3.350   2.475
12977TIP3   OH238875   1.775   6.825   5.682
12977TIP3    H138876   1.766   6.889   5.753
12977TIP3    H238877   1.810   6.875   5.609
12978TIP3   OH238878   6.265   2.057   4.792
12978TIP3    H138879   6.296   1.967   4.797
12978TIP3    H238880   6.294   2.097   4.874
12979TIP3   OH238881   7.300   7.128   4.660
12979TIP3    H138882   7.239   7.156   4.728
12979TIP3    H238883   7.250   7.069   4.605
12980TIP3   OH238884   1.163   6.529   4.676
12980TIP3    H138885   1.189   6.505   4.765
12980TIP3    H238886   1.073   6.495   4.668
12981TIP3   OH238887   8.126   3.495   1.541
12981TIP3    H138888   8.159   3.519   1.454
12981TIP3    H238889   8.121   3.399   1.539
12982TIP3   OH238890   6.561   2.889   0.925
12982TIP3    H138891   6.566   2.819   0.989
12982TIP3    H238892   6.471   2.921   0.929
12983TIP3   OH238893   3.172   6.411   0.473
12983TIP3    H138894   3.201   6.342   0.414
12983TIP3    H238895   3.226   6.399   0.551
12984TIP3   OH238896   4.180   7.025   1.057
12984TIP3    H138897   4.193   7.091   0.989
12984TIP3    H238898   4.125   6.958   1.016
12985TIP3   OH238899   3.729   3.186   1.779
12985TIP3    H138900   3.776   3.216   1.701
12985TIP3    H238901   3.639   3.176   1.750
12986TIP3   OH238902   3.607   2.070   2.580
12986TIP3    H138903   3.675   2.007   2.606
12986TIP3    H238904   3.645   2.117   2.506
12987TIP3   OH238905   5.954   1.052   0.560
12987TIP3    H138906   5.908   1.107   0.496
12987TIP3    H238907   5.978   1.112   0.630
12988TIP3   OH238908   6.975   1.770   5.252
12988TIP3    H138909   7.026   1.696   5.284
12988TIP3    H238910   6.913   1.788   5.323
12989TIP3   OH238911   0.456   3.550   1.421
12989TIP3    H138912   0.447   3.476   1.361
12989TIP3    H238913   0.550   3.570   1.420
12990TIP3   OH238914   5.289   2.259   1.052
12990TIP3    H138915   5.307   2.288   1.141
12990TIP3    H238916   5.354   2.191   1.035
12991TIP3   OH238917   8.204   0.048   1.964
12991TIP3    H138918   8.127   0.021   1.916
12991TIP3    H238919   8.275   0.044   1.900
12992TIP3   OH238920   4.158   6.828   6.470
12992TIP3    H138921   4.223   6.858   6.533
12992TIP3    H238922   4.151   6.900   6.406
12993TIP3   OH238923   3.743   4.564   6.066
12993TIP3    H138924   3.790   4.521   5.995
12993TIP3    H238925   3.652   4.538   6.055
12994TIP3   OH238926   4.806   6.481   2.765
12994TIP3    H138927   4.759   6.520   2.692
12994TIP3    H238928   4.809   6.550   2.832
12995TIP3   OH238929   0.850   5.816   0.711
12995TIP3    H138930   0.813   5.743   0.660
12995TIP3    H238931   0.796   5.819   0.790
12996TIP3   OH238932   5.739   5.645   2.810
12996TIP3    H138933   5.736   5.705   2.736
12996TIP3    H238934   5.693   5.692   2.880
12997TIP3   OH238935   5.508   6.934   2.114
12997TIP3    H138936   5.574   7.003   2.119
12997TIP3    H238937   5.492   6.923   2.021
12998TIP3   OH238938   3.656   5.367   6.444
12998TIP3    H138939   3.679   5.296   6.385
12998TIP3    H238940   3.665   5.446   6.391
12999TIP3   OH238941   0.468   3.125   3.937
12999TIP3    H138942   0.456   3.034   3.965
12999TIP3    H238943   0.411   3.175   3.995
13000TIP3   OH238944   1.375   7.798   2.057
13000TIP3    H138945   1.430   7.770   1.984
13000TIP3    H238946   1.310   7.856   2.017
13001TIP3   OH238947   7.769   2.471   6.053
13001TIP3    H138948   7.762   2.376   6.050
13001TIP3    H238949   7.680   2.502   6.068
13002TIP3   OH238950   0.782   0.348   0.980
13002TIP3    H138951   0.813   0.406   1.050
13002TIP3    H238952   0.842   0.365   0.907
13003TIP3   OH238953   1.546   3.484   3.198
13003TIP3    H138954   1.455   3.453   3.196
13003TIP3    H238955   1.557   3.520   3.286
13004TIP3   OH238956   2.012   2.743   0.126
13004TIP3    H138957   2.077   2.777   0.188
13004TIP3    H238958   1.961   2.820   0.101
13005TIP3   OH238959   7.794   1.580   1.283
13005TIP3    H138960   7.753   1.494   1.276
13005TIP3    H238961   7.725   1.641   1.255
13006TIP3   OH238962   2.067   4.646   1.490
13006TIP3    H138963   2.158   4.646   1.461
13006TIP3    H238964   2.070   4.685   1.577
13007TIP3   OH238965   1.046   0.574   3.413
13007TIP3    H138966   0.972   0.634   3.402
13007TIP3    H238967   1.106   0.597   3.342
13008TIP3   OH238968   7.890   4.185   0.618
13008TIP3    H138969   7.809   4.140   0.640
13008TIP3    H238970   7.862   4.260   0.565
13009TIP3   OH238971   3.991   7.166   3.938
13009TIP3    H138972   4.075   7.185   3.897
13009TIP3    H238973   3.956   7.092   3.888
13010TIP3   OH238974   4.498   3.140   4.184
13010TIP3    H138975   4.407   3.156   4.208
13010TIP3    H238976   4.525   3.067   4.240
13011TIP3   OH238977   4.710   6.623   1.266
13011TIP3    H138978   4.644   6.558   1.242
13011TIP3    H238979   4.665   6.685   1.323
13012TIP3   OH238980   3.370   0.970   1.566
13012TIP3    H138981   3.440   0.957   1.501
13012TIP3    H238982   3.415   0.970   1.650
13013TIP3   OH238983   3.666   4.935   4.647
13013TIP3    H138984   3.668   5.007   4.584
13013TIP3    H238985   3.582   4.893   4.633
13014TIP3   OH238986   7.976   3.721   1.015
13014TIP3    H138987   7.882   3.714   1.031
13014TIP3    H238988   7.997   3.813   1.035
13015TIP3   OH238989   1.268   4.230   4.731
13015TIP3    H138990   1.355   4.268   4.740
13015TIP3    H238991   1.268   4.188   4.645
13016TIP3   OH238992   5.441   7.227   4.338
13016TIP3    H138993   5.361   7.184   4.308
13016TIP3    H238994   5.473   7.170   4.408
13017TIP3   OH238995   4.608   4.152   5.260
13017TIP3    H138996   4.593   4.216   5.190
13017TIP3    H238997   4.575   4.069   5.224
13018TIP3   OH238998   5.133   0.901   3.630
13018TIP3    H138999   5.174   0.979   3.592
13018TIP3    H239000   5.074   0.935   3.697
13019TIP3   OH239001   1.789   6.320   5.318
13019TIP3    H139002   1.855   6.380   5.282
13019TIP3    H239003   1.839   6.247   5.352
13020TIP3   OH239004   5.207   0.343   1.044
13020TIP3    H139005   5.215   0.426   0.998
13020TIP3    H239006   5.267   0.284   0.997
13021TIP3   OH239007   3.447   6.852   0.423
13021TIP3    H139008   3.392   6.785   0.382
13021TIP3    H239009   3.493   6.806   0.493
13022TIP3   OH239010   3.522   4.037   6.409
13022TIP3    H139011   3.481   3.959   6.372
13022TIP3    H239012   3.457   4.072   6.470
13023TIP3   OH239013   7.033   0.317   6.286
13023TIP3    H139014   6.974   0.329   6.360
13023TIP3    H239015   6.978   0.329   6.209
13024TIP3   OH239016   6.207   5.062   5.884
13024TIP3    H139017   6.172   5.026   5.966
13024TIP3    H239018   6.259   5.137   5.912
13025TIP3   OH239019   4.918   1.856   2.701
13025TIP3    H139020   4.831   1.822   2.680
13025TIP3    H239021   4.963   1.859   2.616
13026TIP3   OH239022   0.985   3.703   2.774
13026TIP3    H139023   1.078   3.702   2.754
13026TIP3    H239024   0.942   3.686   2.690
13027TIP3   OH239025   4.712   0.220   1.178
13027TIP3    H139026   4.766   0.151   1.217
13027TIP3    H239027   4.626   0.179   1.165
13028TIP3   OH239028   2.077   3.575   1.353
13028TIP3    H139029   2.083   3.518   1.276
13028TIP3    H239030   2.136   3.534   1.417
13029TIP3   OH239031   7.750   5.020   1.087
13029TIP3    H139032   7.773   4.964   1.161
13029TIP3    H239033   7.692   4.966   1.033
13030TIP3   OH239034   7.066   3.071   4.742
13030TIP3    H139035   6.971   3.059   4.739
13030TIP3    H239036   7.086   3.087   4.835
13031TIP3   OH239037   6.570   1.944   6.713
13031TIP3    H139038   6.630   2.018   6.713
13031TIP3    H239039   6.616   1.875   6.760
13032TIP3   OH239040   7.420   6.977   4.161
13032TIP3    H139041   7.491   7.039   4.144
13032TIP3    H239042   7.465   6.894   4.177
13033TIP3   OH239043   0.204   7.645   2.215
13033TIP3    H139044   0.203   7.703   2.138
13033TIP3    H239045   0.240   7.699   2.285
13034TIP3   OH239046   1.667   4.682   0.705
13034TIP3    H139047   1.693   4.667   0.796
13034TIP3    H239048   1.572   4.687   0.708
13035TIP3   OH239049   2.932   4.448   5.170
13035TIP3    H139050   2.908   4.398   5.249
13035TIP3    H239051   2.997   4.394   5.127
13036TIP3   OH239052   0.782   7.835   6.539
13036TIP3    H139053   0.746   7.823   6.451
13036TIP3    H239054   0.780   7.747   6.577
13037TIP3   OH239055   1.416   4.844   3.519
13037TIP3    H139056   1.362   4.901   3.465
13037TIP3    H239057   1.448   4.900   3.590
13038TIP3   OH239058   2.644   6.438   3.208
13038TIP3    H139059   2.600   6.449   3.124
13038TIP3    H239060   2.627   6.520   3.255
13039TIP3   OH239061   2.781   7.140   6.795
13039TIP3    H139062   2.856   7.153   6.737
13039TIP3    H239063   2.709   7.117   6.736
13040TIP3   OH239064   3.523   4.583   2.999
13040TIP3    H139065   3.509   4.656   3.059
13040TIP3    H239066   3.485   4.507   3.044
13041TIP3   OH239067   0.450   6.917   5.153
13041TIP3    H139068   0.415   6.867   5.079
13041TIP3    H239069   0.431   6.862   5.230
13042TIP3   OH239070   3.675   1.077   6.680
13042TIP3    H139071   3.689   1.061   6.587
13042TIP3    H239072   3.654   0.990   6.716
13043TIP3   OH239073   7.400   1.486   4.106
13043TIP3    H139074   7.321   1.536   4.123
13043TIP3    H239075   7.461   1.549   4.068
13044TIP3   OH239076   6.329   2.936   3.346
13044TIP3    H139077   6.290   2.920   3.260
13044TIP3    H239078   6.416   2.972   3.326
13045TIP3   OH239079   5.329   0.945   0.302
13045TIP3    H139080   5.234   0.949   0.295
13045TIP3    H239081   5.354   1.032   0.334
13046TIP3   OH239082   5.625   5.149   5.615
13046TIP3    H139083   5.712   5.140   5.655
13046TIP3    H239084   5.592   5.059   5.611
13047TIP3   OH239085   5.409   2.029   0.972
13047TIP3    H139086   5.322   2.016   0.934
13047TIP3    H239087   5.431   1.944   1.010
13048TIP3   OH239088   2.856   4.926   4.239
13048TIP3    H139089   2.866   4.917   4.144
13048TIP3    H239090   2.807   5.007   4.251
13049TIP3   OH239091   7.855   0.607   6.080
13049TIP3    H139092   7.793   0.535   6.092
13049TIP3    H239093   7.914   0.577   6.012
13050TIP3   OH239094   6.207   1.359   1.270
13050TIP3    H139095   6.173   1.368   1.181
13050TIP3    H239096   6.165   1.430   1.319
13051TIP3   OH239097   4.393   0.895   1.881
13051TIP3    H139098   4.393   0.965   1.815
13051TIP3    H239099   4.392   0.814   1.830
13052TIP3   OH239100   2.494   0.788   3.487
13052TIP3    H139101   2.403   0.785   3.515
13052TIP3    H239102   2.498   0.728   3.413
13053TIP3   OH239103   5.753   6.858   4.777
13053TIP3    H139104   5.771   6.931   4.717
13053TIP3    H239105   5.829   6.855   4.834
13054TIP3   OH239106   6.260   4.817   5.799
13054TIP3    H139107   6.176   4.772   5.808
13054TIP3    H239108   6.242   4.907   5.824
13055TIP3   OH239109   5.492   7.460   0.577
13055TIP3    H139110   5.539   7.467   0.494
13055TIP3    H239111   5.447   7.544   0.587
13056TIP3   OH239112   2.809   6.202   6.738
13056TIP3    H139113   2.737   6.212   6.800
13056TIP3    H239114   2.819   6.289   6.699
13057TIP3   OH239115   2.021   6.020   5.704
13057TIP3    H139116   1.966   5.942   5.697
13057TIP3    H239117   1.982   6.071   5.775
13058TIP3   OH239118   8.321   3.952   2.284
13058TIP3    H139119   8.250   3.969   2.223
13058TIP3    H239120   8.317   3.858   2.300
13059TIP3   OH239121   4.951   7.465   4.317
13059TIP3    H139122   5.033   7.472   4.366
13059TIP3    H239123   4.887   7.437   4.382
13060TIP3   OH239124   4.538   6.438   1.193
13060TIP3    H139125   4.569   6.394   1.273
13060TIP3    H239126   4.450   6.467   1.214
13061TIP3   OH239127   7.531   2.588   6.142
13061TIP3    H139128   7.484   2.629   6.070
13061TIP3    H239129   7.499   2.634   6.220
13062TIP3   OH239130   0.054   3.862   1.613
13062TIP3    H139131   0.040   3.794   1.678
13062TIP3    H239132  -0.024   3.860   1.558
13063TIP3   OH239133   2.124   2.245   3.663
13063TIP3    H139134   2.194   2.309   3.675
13063TIP3    H239135   2.114   2.204   3.748
13064TIP3   OH239136   2.322   2.082   3.775
13064TIP3    H139137   2.355   2.145   3.712
13064TIP3    H239138   2.369   2.001   3.755
13065TIP3   OH239139   3.558   7.312   2.944
13065TIP3    H139140   3.503   7.265   2.881
13065TIP3    H239141   3.554   7.259   3.023
13066TIP3   OH239142   4.865   2.407   6.626
13066TIP3    H139143   4.827   2.494   6.636
13066TIP3    H239144   4.931   2.417   6.558
13067TIP3   OH239145   5.483   4.179   5.784
13067TIP3    H139146   5.543   4.250   5.761
13067TIP3    H239147   5.520   4.142   5.864
13068TIP3   OH239148   1.616   6.938   4.093
13068TIP3    H139149   1.674   6.891   4.033
13068TIP3    H239150   1.640   6.905   4.179
13069TIP3   OH239151   6.949   6.642   0.860
13069TIP3    H139152   6.910   6.555   0.852
13069TIP3    H239153   7.042   6.626   0.872
13070TIP3   OH239154   8.212   6.380   5.057
13070TIP3    H139155   8.283   6.323   5.028
13070TIP3    H239156   8.153   6.323   5.105
13071TIP3   OH239157   0.970   4.823   0.484
13071TIP3    H139158   0.925   4.757   0.536
13071TIP3    H239159   1.001   4.887   0.549
13072TIP3   OH239160   6.985   2.569   5.042
13072TIP3    H139161   6.900   2.585   5.000
13072TIP3    H239162   7.046   2.558   4.969
13073TIP3   OH239163   2.954   3.694   1.323
13073TIP3    H139164   3.040   3.714   1.286
13073TIP3    H239165   2.944   3.600   1.311
13074TIP3   OH239166   4.344   7.283   1.558
13074TIP3    H139167   4.314   7.242   1.477
13074TIP3    H239168   4.280   7.352   1.576
13075TIP3   OH239169   5.907   7.140   4.331
13075TIP3    H139170   5.986   7.151   4.278
13075TIP3    H239171   5.857   7.220   4.316
13076TIP3   OH239172   0.431   5.761   0.731
13076TIP3    H139173   0.448   5.752   0.825
13076TIP3    H239174   0.504   5.716   0.689
13077TIP3   OH239175   2.914   4.332   2.727
13077TIP3    H139176   2.994   4.282   2.711
13077TIP3    H239177   2.944   4.421   2.744
13078TIP3   OH239178   3.631   4.833   6.264
13078TIP3    H139179   3.703   4.815   6.203
13078TIP3    H239180   3.555   4.792   6.224
13079TIP3   OH239181   3.572   6.363   4.628
13079TIP3    H139182   3.513   6.327   4.562
13079TIP3    H239183   3.619   6.432   4.582
13080TIP3   OH239184   2.146   6.572   0.554
13080TIP3    H139185   2.189   6.584   0.639
13080TIP3    H239186   2.205   6.514   0.505
13081TIP3   OH239187   4.463   0.784   2.486
13081TIP3    H139188   4.434   0.843   2.418
13081TIP3    H239189   4.448   0.696   2.451
13082TIP3   OH239190   7.381   5.487   3.403
13082TIP3    H139191   7.321   5.519   3.336
13082TIP3    H239192   7.402   5.563   3.456
13083TIP3   OH239193   7.063   1.617   2.157
13083TIP3    H139194   7.126   1.665   2.211
13083TIP3    H239195   6.992   1.679   2.142
13084TIP3   OH239196   4.337   1.435   0.637
13084TIP3    H139197   4.330   1.514   0.692
13084TIP3    H239198   4.261   1.441   0.578
13085TIP3   OH239199   8.029   5.394   1.825
13085TIP3    H139200   8.075   5.324   1.871
13085TIP3    H239201   8.063   5.475   1.864
13086TIP3   OH239202   3.109   7.239   2.792
13086TIP3    H139203   3.104   7.249   2.697
13086TIP3    H239204   3.120   7.145   2.806
13087TIP3   OH239205   3.734   6.675   1.116
13087TIP3    H139206   3.666   6.732   1.152
13087TIP3    H239207   3.809   6.733   1.105
13088TIP3   OH239208   6.410   5.890   6.216
13088TIP3    H139209   6.383   5.808   6.174
13088TIP3    H239210   6.328   5.934   6.238
13089TIP3   OH239211   3.354   6.204   6.158
13089TIP3    H139212   3.351   6.235   6.248
13089TIP3    H239213   3.396   6.118   6.164
13090TIP3   OH239214   3.502   6.440   6.656
13090TIP3    H139215   3.525   6.348   6.673
13090TIP3    H239216   3.415   6.435   6.616
13091TIP3   OH239217   6.255   1.970   2.432
13091TIP3    H139218   6.191   2.040   2.419
13091TIP3    H239219   6.249   1.917   2.353
13092TIP3   OH239220   3.625   3.526   3.713
13092TIP3    H139221   3.573   3.531   3.793
13092TIP3    H239222   3.628   3.616   3.681
13093TIP3   OH239223   5.931   6.208   2.747
13093TIP3    H139224   5.929   6.112   2.749
13093TIP3    H239225   5.971   6.233   2.830
13094TIP3   OH239226   5.919   5.950   2.808
13094TIP3    H139227   5.952   5.897   2.880
13094TIP3    H239228   5.881   5.886   2.747
13095TIP3   OH239229   4.829   3.051   2.054
13095TIP3    H139230   4.801   3.076   2.142
13095TIP3    H239231   4.922   3.074   2.051
13096TIP3   OH239232   1.486   6.824   0.138
13096TIP3    H139233   1.405   6.778   0.116
13096TIP3    H239234   1.555   6.759   0.123
13097TIP3   OH239235   7.983   5.174   0.013
13097TIP3    H139236   8.030   5.226  -0.052
13097TIP3    H239237   8.051   5.134   0.067
13098TIP3   OH239238   3.140   4.129   4.371
13098TIP3    H139239   3.180   4.194   4.314
13098TIP3    H239240   3.076   4.177   4.423
13099TIP3   OH239241   6.802   7.676   5.672
13099TIP3    H139242   6.850   7.725   5.605
13099TIP3    H239243   6.801   7.734   5.748
13100TIP3   OH239244   7.379   4.971   6.471
13100TIP3    H139245   7.350   5.045   6.417
13100TIP3    H239246   7.474   4.976   6.470
13101TIP3   OH239247   7.235   5.577   0.004
13101TIP3    H139248   7.308   5.628   0.038
13101TIP3    H239249   7.243   5.492   0.046
13102TIP3   OH239250   5.193   0.335   5.347
13102TIP3    H139251   5.262   0.401   5.346
13102TIP3    H239252   5.119   0.378   5.390
13103TIP3   OH239253   3.918   3.720   2.281
13103TIP3    H139254   3.991   3.680   2.234
13103TIP3    H239255   3.878   3.780   2.217
13104TIP3   OH239256   6.711   3.956   0.686
13104TIP3    H139257   6.746   3.868   0.700
13104TIP3    H239258   6.677   3.982   0.772
13105TIP3   OH239259   2.281   2.013   1.486
13105TIP3    H139260   2.225   2.020   1.564
13105TIP3    H239261   2.297   2.103   1.460
13106TIP3   OH239262   7.132   2.733   6.000
13106TIP3    H139263   7.055   2.737   6.057
13106TIP3    H239264   7.207   2.737   6.059
13107TIP3   OH239265   1.634   2.097   5.762
13107TIP3    H139266   1.565   2.078   5.826
13107TIP3    H239267   1.593   2.157   5.700
13108TIP3   OH239268   5.199   2.050   4.678
13108TIP3    H139269   5.202   1.981   4.612
13108TIP3    H239270   5.108   2.054   4.706
13109TIP3   OH239271   1.862   0.980   1.518
13109TIP3    H139272   1.939   0.985   1.461
13109TIP3    H239273   1.802   0.922   1.471
13110TIP3   OH239274   2.125   1.838   0.946
13110TIP3    H139275   2.142   1.825   1.039
13110TIP3    H239276   2.122   1.934   0.935
13111TIP3   OH239277   6.535   3.101   3.320
13111TIP3    H139278   6.512   3.182   3.274
13111TIP3    H239279   6.617   3.073   3.279
13112TIP3   OH239280   0.577   1.002   4.870
13112TIP3    H139281   0.492   1.046   4.857
13112TIP3    H239282   0.626   1.020   4.790
13113TIP3   OH239283   5.066   2.062   5.652
13113TIP3    H139284   5.134   2.038   5.715
13113TIP3    H239285   5.004   2.114   5.702
13114TIP3   OH239286   7.726   1.313   2.400
13114TIP3    H139287   7.775   1.392   2.378
13114TIP3    H239288   7.634   1.339   2.393
13115TIP3   OH239289   3.394   0.253   1.910
13115TIP3    H139290   3.417   0.220   1.996
13115TIP3    H239291   3.410   0.180   1.850
13116TIP3   OH239292   1.429   4.912   3.826
13116TIP3    H139293   1.371   4.840   3.803
13116TIP3    H239294   1.427   4.915   3.922
13117TIP3   OH239295   6.572   4.896   3.872
13117TIP3    H139296   6.586   4.956   3.799
13117TIP3    H239297   6.534   4.950   3.941
13118TIP3   OH239298   2.110   7.474   6.500
13118TIP3    H139299   2.033   7.452   6.447
13118TIP3    H239300   2.178   7.497   6.436
13119TIP3   OH239301   7.944   2.134   3.295
13119TIP3    H139302   8.029   2.168   3.268
13119TIP3    H239303   7.882   2.173   3.233
13120TIP3   OH239304   5.228   3.020   5.620
13120TIP3    H139305   5.189   2.969   5.549
13120TIP3    H239306   5.214   3.111   5.595
13121TIP3   OH239307   1.405   5.630   5.941
13121TIP3    H139308   1.381   5.644   6.033
13121TIP3    H239309   1.322   5.627   5.894
13122TIP3   OH239310   6.223   0.365   3.635
13122TIP3    H139311   6.267   0.403   3.559
13122TIP3    H239312   6.145   0.420   3.648
13123TIP3   OH239313   6.673   6.701   4.524
13123TIP3    H139314   6.661   6.608   4.505
13123TIP3    H239315   6.761   6.721   4.493
13124TIP3   OH239316   4.154   2.289   2.112
13124TIP3    H139317   4.209   2.350   2.161
13124TIP3    H239318   4.089   2.344   2.070
13125TIP3   OH239319   6.012   7.243   2.497
13125TIP3    H139320   5.944   7.299   2.534
13125TIP3    H239321   6.086   7.302   2.481
13126TIP3   OH239322   5.685   3.604   4.080
13126TIP3    H139323   5.696   3.622   4.174
13126TIP3    H239324   5.717   3.515   4.069
13127TIP3   OH239325   6.653   3.673   5.029
13127TIP3    H139326   6.631   3.660   4.937
13127TIP3    H239327   6.573   3.707   5.069
13128TIP3   OH239328   6.665   4.956   0.663
13128TIP3    H139329   6.725   4.900   0.614
13128TIP3    H239330   6.609   4.995   0.595
13129TIP3   OH239331   4.906   5.379   4.154
13129TIP3    H139332   4.926   5.349   4.066
13129TIP3    H239333   4.832   5.326   4.182
13130TIP3   OH239334   3.653   7.704   1.725
13130TIP3    H139335   3.720   7.721   1.659
13130TIP3    H239336   3.570   7.716   1.679
13131TIP3   OH239337   5.348   7.173   5.394
13131TIP3    H139338   5.407   7.145   5.464
13131TIP3    H239339   5.396   7.154   5.314
13132TIP3   OH239340   7.640   6.251   6.528
13132TIP3    H139341   7.709   6.187   6.548
13132TIP3    H239342   7.625   6.241   6.434
13133TIP3   OH239343   0.034   7.149   3.808
13133TIP3    H139344  -0.062   7.143   3.803
13133TIP3    H239345   0.063   7.148   3.716
13134TIP3   OH239346   0.625   4.156   3.664
13134TIP3    H139347   0.641   4.206   3.584
13134TIP3    H239348   0.695   4.184   3.724
13135TIP3   OH239349   4.320   3.157   5.209
13135TIP3    H139350   4.230   3.135   5.234
13135TIP3    H239351   4.346   3.227   5.269
13136TIP3   OH239352   6.571   2.595   2.421
13136TIP3    H139353   6.547   2.639   2.339
13136TIP3    H239354   6.565   2.664   2.488
13137TIP3   OH239355   7.738   6.167   2.654
13137TIP3    H139356   7.697   6.196   2.735
13137TIP3    H239357   7.671   6.115   2.610
13138TIP3   OH239358   6.221   0.988   4.944
13138TIP3    H139359   6.232   0.964   4.852
13138TIP3    H239360   6.295   0.946   4.989
13139TIP3   OH239361   6.222   6.859   1.270
13139TIP3    H139362   6.318   6.859   1.274
13139TIP3    H239363   6.199   6.772   1.237
13140TIP3   OH239364   2.334   3.853   2.882
13140TIP3    H139365   2.402   3.921   2.887
13140TIP3    H239366   2.381   3.773   2.860
13141TIP3   OH239367   6.202   3.681   6.045
13141TIP3    H139368   6.293   3.704   6.063
13141TIP3    H239369   6.150   3.745   6.095
13142TIP3   OH239370   0.232   0.985   3.640
13142TIP3    H139371   0.138   0.966   3.637
13142TIP3    H239372   0.241   1.066   3.590
13143TIP3   OH239373   0.603   7.000   5.519
13143TIP3    H139374   0.681   6.964   5.561
13143TIP3    H239375   0.620   7.094   5.515
13144TIP3   OH239376   2.411   4.212   5.696
13144TIP3    H139377   2.335   4.259   5.731
13144TIP3    H239378   2.381   4.121   5.686
13145TIP3   OH239379   6.248   4.232   1.593
13145TIP3    H139380   6.159   4.213   1.622
13145TIP3    H239381   6.236   4.285   1.513
13146TIP3   OH239382   0.346   5.150   3.248
13146TIP3    H139383   0.317   5.195   3.168
13146TIP3    H239384   0.275   5.088   3.266
13147TIP3   OH239385   7.107   1.603   0.032
13147TIP3    H139386   7.180   1.645  -0.014
13147TIP3    H239387   7.085   1.665   0.102
13148TIP3   OH239388   3.876   0.031   5.531
13148TIP3    H139389   3.801   0.030   5.471
13148TIP3    H239390   3.837   0.034   5.618
13149TIP3   OH239391   4.264   4.345   4.031
13149TIP3    H139392   4.301   4.360   4.118
13149TIP3    H239393   4.197   4.279   4.044
13150TIP3   OH239394   2.094   6.655   4.854
13150TIP3    H139395   2.151   6.694   4.921
13150TIP3    H239396   2.153   6.637   4.781
13151TIP3   OH239397   1.510   4.424   3.261
13151TIP3    H139398   1.534   4.482   3.333
13151TIP3    H239399   1.589   4.371   3.245
13152TIP3   OH239400   4.119   5.248   5.519
13152TIP3    H139401   4.030   5.213   5.522
13152TIP3    H239402   4.112   5.325   5.462
13153TIP3   OH239403   8.325   2.062   3.340
13153TIP3    H139404   8.249   2.023   3.296
13153TIP3    H239405   8.309   2.156   3.336
13154TIP3   OH239406   1.492   6.860   6.713
13154TIP3    H139407   1.574   6.821   6.744
13154TIP3    H239408   1.515   6.950   6.690
13155TIP3   OH239409   4.996   3.792   5.839
13155TIP3    H139410   4.950   3.803   5.755
13155TIP3    H239411   5.070   3.852   5.834
13156TIP3   OH239412   1.290   0.597   6.100
13156TIP3    H139413   1.214   0.539   6.095
13156TIP3    H239414   1.254   0.685   6.090
13157TIP3   OH239415   3.532   0.129   5.622
13157TIP3    H139416   3.559   0.072   5.550
13157TIP3    H239417   3.545   0.218   5.588
13158TIP3   OH239418   8.288   6.165   0.509
13158TIP3    H139419   8.319   6.182   0.598
13158TIP3    H239420   8.195   6.145   0.519
13159TIP3   OH239421   0.395   0.935   6.247
13159TIP3    H139422   0.430   0.994   6.180
13159TIP3    H239423   0.329   0.883   6.201
13160TIP3   OH239424   3.971   4.658   5.656
13160TIP3    H139425   3.966   4.727   5.722
13160TIP3    H239426   4.063   4.657   5.629
13161TIP3   OH239427   2.860   3.476   3.156
13161TIP3    H139428   2.857   3.457   3.062
13161TIP3    H239429   2.912   3.405   3.193
13162TIP3   OH239430   7.074   5.335   3.953
13162TIP3    H139431   7.128   5.343   3.874
13162TIP3    H239432   7.115   5.394   4.016
13163TIP3   OH239433   6.458   0.021   4.923
13163TIP3    H139434   6.413  -0.058   4.892
13163TIP3    H239435   6.389   0.075   4.961
13164TIP3   OH239436   3.682   3.175   4.161
13164TIP3    H139437   3.754   3.187   4.224
13164TIP3    H239438   3.604   3.204   4.208
13165TIP3   OH239439   1.900   6.057   0.178
13165TIP3    H139440   1.810   6.083   0.197
13165TIP3    H239441   1.914   6.083   0.086
13166TIP3   OH239442   4.713   5.378   1.149
13166TIP3    H139443   4.645   5.313   1.137
13166TIP3    H239444   4.669   5.451   1.193
13167TIP3   OH239445   6.334   7.569   2.305
13167TIP3    H139446   6.282   7.650   2.311
13167TIP3    H239447   6.393   7.573   2.380
13168TIP3   OH239448   5.859   0.075   1.944
13168TIP3    H139449   5.828   0.096   2.032
13168TIP3    H239450   5.919   0.146   1.922
13169TIP3   OH239451   0.634   5.739   2.473
13169TIP3    H139452   0.703   5.725   2.539
13169TIP3    H239453   0.632   5.834   2.461
13170TIP3   OH239454   2.999   7.739   4.371
13170TIP3    H139455   3.075   7.702   4.417
13170TIP3    H239456   3.009   7.708   4.281
13171TIP3   OH239457   6.649   5.720   4.816
13171TIP3    H139458   6.616   5.632   4.838
13171TIP3    H239459   6.604   5.743   4.735
13172TIP3   OH239460   5.007   4.311   5.555
13172TIP3    H139461   5.083   4.265   5.593
13172TIP3    H239462   4.957   4.340   5.631
13173TIP3   OH239463   2.579   5.989   4.783
13173TIP3    H139464   2.548   6.051   4.848
13173TIP3    H239465   2.552   5.903   4.817
13174TIP3   OH239466   6.149   6.929   2.015
13174TIP3    H139467   6.231   6.974   1.994
13174TIP3    H239468   6.101   6.991   2.070
13175TIP3   OH239469   2.715   4.955   6.471
13175TIP3    H139470   2.627   4.974   6.438
13175TIP3    H239471   2.712   4.864   6.500
13176TIP3   OH239472   1.657   4.721   4.401
13176TIP3    H139473   1.662   4.790   4.335
13176TIP3    H239474   1.570   4.683   4.390
13177TIP3   OH239475   0.200   2.112   0.406
13177TIP3    H139476   0.252   2.032   0.396
13177TIP3    H239477   0.117   2.092   0.362
13178TIP3   OH239478   3.165   3.768   6.011
13178TIP3    H139479   3.073   3.749   6.029
13178TIP3    H239480   3.203   3.789   6.097
13179TIP3   OH239481   3.597   6.409   4.906
13179TIP3    H139482   3.532   6.479   4.900
13179TIP3    H239483   3.590   6.363   4.822
13180TIP3   OH239484   2.345   7.756   3.459
13180TIP3    H139485   2.325   7.740   3.551
13180TIP3    H239486   2.439   7.738   3.451
13181TIP3   OH239487   4.749   6.222   3.317
13181TIP3    H139488   4.813   6.289   3.291
13181TIP3    H239489   4.782   6.189   3.401
13182TIP3   OH239490   6.896   4.605   4.019
13182TIP3    H139491   6.820   4.547   4.024
13182TIP3    H239492   6.859   4.693   4.019
13183TIP3   OH239493   2.437   7.571   5.120
13183TIP3    H139494   2.472   7.537   5.203
13183TIP3    H239495   2.347   7.539   5.117
13184TIP3   OH239496   2.293   6.692   3.934
13184TIP3    H139497   2.262   6.604   3.953
13184TIP3    H239498   2.348   6.682   3.856
13185TIP3   OH239499   3.086   4.963   4.533
13185TIP3    H139500   3.079   5.052   4.500
13185TIP3    H239501   3.021   4.959   4.604
13186TIP3   OH239502   3.535   1.577   3.593
13186TIP3    H139503   3.591   1.504   3.565
13186TIP3    H239504   3.596   1.638   3.635
13187TIP3   OH239505   2.365   1.142   0.069
13187TIP3    H139506   2.310   1.065   0.085
13187TIP3    H239507   2.395   1.132  -0.022
13188TIP3   OH239508   1.911   3.653   1.598
13188TIP3    H139509   1.991   3.643   1.546
13188TIP3    H239510   1.842   3.618   1.542
13189TIP3   OH239511   4.771   2.045   5.545
13189TIP3    H139512   4.820   2.123   5.571
13189TIP3    H239513   4.834   1.973   5.551
13190TIP3   OH239514   2.008   5.179   3.090
13190TIP3    H139515   2.059   5.218   3.019
13190TIP3    H239516   1.998   5.250   3.154
13191TIP3   OH239517   6.934   4.085   1.787
13191TIP3    H139518   6.989   4.032   1.844
13191TIP3    H239519   6.921   4.031   1.709
13192TIP3   OH239520   1.507   1.225   4.876
13192TIP3    H139521   1.594   1.191   4.855
13192TIP3    H239522   1.448   1.172   4.822
13193TIP3   OH239523   2.865   5.795   0.111
13193TIP3    H139524   2.827   5.740   0.042
13193TIP3    H239525   2.795   5.805   0.175
13194TIP3   OH239526   4.863   3.929   3.116
13194TIP3    H139527   4.827   3.960   3.199
13194TIP3    H239528   4.943   3.883   3.141
13195TIP3   OH239529   7.299   5.494   6.609
13195TIP3    H139530   7.215   5.521   6.646
13195TIP3    H239531   7.298   5.398   6.613
13196TIP3   OH239532   1.658   0.158   5.695
13196TIP3    H139533   1.701   0.229   5.744
13196TIP3    H239534   1.694   0.078   5.733
13197TIP3   OH239535   7.473   3.549   2.106
13197TIP3    H139536   7.451   3.611   2.036
13197TIP3    H239537   7.453   3.597   2.187
13198TIP3   OH239538   4.845   4.187   5.772
13198TIP3    H139539   4.769   4.173   5.715
13198TIP3    H239540   4.904   4.114   5.752
13199TIP3   OH239541   6.532   6.433   0.762
13199TIP3    H139542   6.566   6.442   0.672
13199TIP3    H239543   6.490   6.347   0.762
13200TIP3   OH239544   0.494   1.274   1.979
13200TIP3    H139545   0.505   1.274   2.074
13200TIP3    H239546   0.562   1.215   1.947
13201TIP3   OH239547   1.983   1.485   5.627
13201TIP3    H139548   2.071   1.504   5.660
13201TIP3    H239549   1.926   1.546   5.673
13202TIP3   OH239550   5.958   1.514   5.053
13202TIP3    H139551   5.972   1.434   5.103
13202TIP3    H239552   5.900   1.567   5.108
13203TIP3   OH239553   7.947   7.770   1.738
13203TIP3    H139554   7.994   7.712   1.679
13203TIP3    H239555   7.945   7.854   1.693
13204TIP3   OH239556   2.243   3.409   0.522
13204TIP3    H139557   2.176   3.455   0.471
13204TIP3    H239558   2.263   3.331   0.470
13205TIP3   OH239559   0.539   6.984   6.416
13205TIP3    H139560   0.456   6.996   6.369
13205TIP3    H239561   0.588   6.923   6.361
13206TIP3   OH239562   2.742   1.206   4.734
13206TIP3    H139563   2.732   1.195   4.640
13206TIP3    H239564   2.735   1.300   4.749
13207TIP3   OH239565   3.930   5.797   3.446
13207TIP3    H139566   3.968   5.737   3.511
13207TIP3    H239567   3.932   5.748   3.364
13208TIP3   OH239568   8.009   0.464   1.050
13208TIP3    H139569   8.066   0.409   1.104
13208TIP3    H239570   8.002   0.416   0.967
13209TIP3   OH239571   5.679   6.135   6.530
13209TIP3    H139572   5.681   6.212   6.473
13209TIP3    H239573   5.591   6.099   6.518
13210TIP3   OH239574   2.101   6.557   1.126
13210TIP3    H139575   2.027   6.525   1.177
13210TIP3    H239576   2.077   6.647   1.103
13211TIP3   OH239577   0.190   1.363   1.409
13211TIP3    H139578   0.215   1.273   1.389
13211TIP3    H239579   0.266   1.416   1.385
13212TIP3   OH239580   6.159   0.755   0.604
13212TIP3    H139581   6.113   0.723   0.526
13212TIP3    H239582   6.185   0.845   0.582
13213TIP3   OH239583   2.078   3.262   5.276
13213TIP3    H139584   2.112   3.198   5.338
13213TIP3    H239585   2.014   3.312   5.326
13214TIP3   OH239586   4.873   4.982   4.484
13214TIP3    H139587   4.871   5.026   4.569
13214TIP3    H239588   4.952   5.015   4.442
13215TIP3   OH239589   3.912   4.389   2.600
13215TIP3    H139590   3.917   4.293   2.596
13215TIP3    H239591   3.991   4.419   2.554
13216TIP3   OH239592   6.420   7.356   3.890
13216TIP3    H139593   6.352   7.303   3.848
13216TIP3    H239594   6.463   7.295   3.950
13217TIP3   OH239595   1.406   5.441   0.812
13217TIP3    H139596   1.344   5.498   0.767
13217TIP3    H239597   1.419   5.368   0.752
13218TIP3   OH239598   8.291   5.944   4.693
13218TIP3    H139599   8.369   5.951   4.749
13218TIP3    H239600   8.217   5.948   4.754
13219TIP3   OH239601   1.895   7.503   3.487
13219TIP3    H139602   1.800   7.497   3.500
13219TIP3    H239603   1.908   7.473   3.397
13220TIP3   OH239604   6.473   5.291   2.619
13220TIP3    H139605   6.528   5.328   2.688
13220TIP3    H239606   6.395   5.347   2.618
13221TIP3   OH239607   2.047   4.248   2.137
13221TIP3    H139608   2.080   4.242   2.047
13221TIP3    H239609   1.952   4.238   2.128
13222TIP3   OH239610   0.813   1.327   5.525
13222TIP3    H139611   0.872   1.390   5.569
13222TIP3    H239612   0.773   1.377   5.454
13223TIP3   OH239613   5.162   2.830   5.444
13223TIP3    H139614   5.069   2.835   5.421
13223TIP3    H239615   5.171   2.750   5.496
13224TIP3   OH239616   8.199   2.299   4.427
13224TIP3    H139617   8.139   2.270   4.496
13224TIP3    H239618   8.187   2.235   4.357
13225TIP3   OH239619   4.236   1.459   4.144
13225TIP3    H139620   4.155   1.476   4.098
13225TIP3    H239621   4.295   1.424   4.077
13226TIP3   OH239622   2.010   7.605   1.908
13226TIP3    H139623   2.104   7.596   1.897
13226TIP3    H239624   1.983   7.667   1.841
13227TIP3   OH239625   8.239   4.834   0.224
13227TIP3    H139626   8.333   4.847   0.239
13227TIP3    H239627   8.231   4.743   0.196
13228TIP3   OH239628   6.834   7.509   0.916
13228TIP3    H139629   6.908   7.490   0.975
13228TIP3    H239630   6.784   7.427   0.914
13229TIP3   OH239631   2.171   4.973   1.265
13229TIP3    H139632   2.245   4.991   1.322
13229TIP3    H239633   2.162   4.878   1.265
13230TIP3   OH239634   3.534   5.044   3.816
13230TIP3    H139635   3.628   5.027   3.808
13230TIP3    H239636   3.502   4.972   3.870
13231TIP3   OH239637   2.778   1.188   1.064
13231TIP3    H139638   2.819   1.105   1.038
13231TIP3    H239639   2.693   1.162   1.100
13232TIP3   OH239640   7.942   6.345   1.130
13232TIP3    H139641   8.027   6.301   1.138
13232TIP3    H239642   7.883   6.277   1.097
13233TIP3   OH239643   6.064   6.927   4.552
13233TIP3    H139644   5.987   6.973   4.585
13233TIP3    H239645   6.044   6.834   4.563
13234TIP3   OH239646   1.268   6.902   1.774
13234TIP3    H139647   1.308   6.982   1.742
13234TIP3    H239648   1.334   6.834   1.758
13235TIP3   OH239649   5.891   4.392   6.239
13235TIP3    H139650   5.848   4.391   6.153
13235TIP3    H239651   5.822   4.367   6.301
13236TIP3   OH239652   2.645   0.191   0.207
13236TIP3    H139653   2.595   0.245   0.270
13236TIP3    H239654   2.710   0.251   0.172
13237TIP3   OH239655   5.289   1.725   2.500
13237TIP3    H139656   5.312   1.636   2.472
13237TIP3    H239657   5.372   1.773   2.497
13238TIP3   OH239658   3.139   5.414   3.789
13238TIP3    H139659   3.132   5.464   3.708
13238TIP3    H239660   3.195   5.339   3.766
13239TIP3   OH239661   6.525   2.243   0.362
13239TIP3    H139662   6.447   2.297   0.378
13239TIP3    H239663   6.549   2.262   0.271
13240TIP3   OH239664   7.528   2.138   4.111
13240TIP3    H139665   7.454   2.190   4.081
13240TIP3    H239666   7.600   2.162   4.052
13241TIP3   OH239667   2.215   3.449   4.360
13241TIP3    H139668   2.247   3.394   4.432
13241TIP3    H239669   2.120   3.453   4.374
13242TIP3   OH239670   5.341   5.052   5.209
13242TIP3    H139671   5.300   5.096   5.135
13242TIP3    H239672   5.368   5.123   5.268
13243TIP3   OH239673   0.164   1.689   4.403
13243TIP3    H139674   0.084   1.707   4.353
13243TIP3    H239675   0.232   1.737   4.356
13244TIP3   OH239676   4.101   7.557   5.311
13244TIP3    H139677   4.050   7.633   5.281
13244TIP3    H239678   4.167   7.545   5.242
13245TIP3   OH239679   0.856   3.014   2.335
13245TIP3    H139680   0.859   3.002   2.430
13245TIP3    H239681   0.943   3.045   2.312
13246TIP3   OH239682   6.693   3.795   4.613
13246TIP3    H139683   6.608   3.768   4.576
13246TIP3    H239684   6.671   3.866   4.674
13247TIP3   OH239685   4.815   5.887   2.881
13247TIP3    H139686   4.813   5.842   2.965
13247TIP3    H239687   4.907   5.889   2.856
13248TIP3   OH239688   1.131   1.224   2.867
13248TIP3    H139689   1.210   1.181   2.899
13248TIP3    H239690   1.135   1.215   2.772
13249TIP3   OH239691   7.929   0.544   1.559
13249TIP3    H139692   7.914   0.611   1.626
13249TIP3    H239693   7.859   0.479   1.573
13250TIP3   OH239694   5.466   7.825   3.359
13250TIP3    H139695   5.377   7.794   3.346
13250TIP3    H239696   5.499   7.773   3.432
13251TIP3   OH239697   1.992   6.519   5.567
13251TIP3    H139698   1.991   6.596   5.510
13251TIP3    H239699   2.030   6.450   5.513
13252TIP3   OH239700   7.286   0.737   6.344
13252TIP3    H139701   7.201   0.777   6.324
13252TIP3    H239702   7.292   0.739   6.439
13253TIP3   OH239703   1.702   0.584   1.833
13253TIP3    H139704   1.615   0.548   1.851
13253TIP3    H239705   1.748   0.579   1.916
13254TIP3   OH239706   6.727   7.510   2.776
13254TIP3    H139707   6.736   7.452   2.701
13254TIP3    H239708   6.697   7.453   2.847
13255TIP3   OH239709   7.669   2.544   0.204
13255TIP3    H139710   7.610   2.476   0.234
13255TIP3    H239711   7.656   2.617   0.265
13256TIP3   OH239712   5.375   6.724   0.513
13256TIP3    H139713   5.389   6.650   0.453
13256TIP3    H239714   5.446   6.717   0.577
13257TIP3   OH239715   3.784   6.347   3.748
13257TIP3    H139716   3.720   6.373   3.815
13257TIP3    H239717   3.814   6.261   3.776
13258TIP3   OH239718   1.255   5.652   5.499
13258TIP3    H139719   1.348   5.664   5.517
13258TIP3    H239720   1.232   5.724   5.440
13259TIP3   OH239721   2.227   0.532   5.478
13259TIP3    H139722   2.270   0.607   5.436
13259TIP3    H239723   2.238   0.548   5.572
13260TIP3   OH239724   0.476   1.295   1.298
13260TIP3    H139725   0.444   1.269   1.211
13260TIP3    H239726   0.475   1.391   1.296
13261TIP3   OH239727   7.284   4.118   3.840
13261TIP3    H139728   7.337   4.195   3.821
13261TIP3    H239729   7.201   4.153   3.873
13262TIP3   OH239730   0.206   4.805   3.440
13262TIP3    H139731   0.252   4.738   3.491
13262TIP3    H239732   0.253   4.886   3.459
13263TIP3   OH239733   6.080   3.127   2.369
13263TIP3    H139734   6.034   3.100   2.290
13263TIP3    H239735   6.170   3.141   2.341
13264TIP3   OH239736   6.785   3.521   0.803
13264TIP3    H139737   6.799   3.576   0.727
13264TIP3    H239738   6.795   3.432   0.771
13265TIP3   OH239739   4.011   1.577   5.785
13265TIP3    H139740   4.053   1.511   5.729
13265TIP3    H239741   3.951   1.526   5.840
13266TIP3   OH239742   5.517   1.110   4.639
13266TIP3    H139743   5.576   1.087   4.567
13266TIP3    H239744   5.493   1.201   4.623
13267TIP3   OH239745   0.080   2.683   6.032
13267TIP3    H139746   0.095   2.777   6.022
13267TIP3    H239747   0.111   2.645   5.950
13268TIP3   OH239748   0.514   3.614   2.053
13268TIP3    H139749   0.556   3.590   2.135
13268TIP3    H239750   0.499   3.531   2.008
13269TIP3   OH239751   7.323   1.420   6.145
13269TIP3    H139752   7.360   1.462   6.068
13269TIP3    H239753   7.397   1.381   6.190
13270TIP3   OH239754   5.366   2.239   6.148
13270TIP3    H139755   5.460   2.233   6.164
13270TIP3    H239756   5.344   2.331   6.166
13271TIP3   OH239757   1.298   5.673   4.984
13271TIP3    H139758   1.344   5.714   5.057
13271TIP3    H239759   1.210   5.710   4.986
13272TIP3   OH239760   3.348   1.698   5.778
13272TIP3    H139761   3.292   1.724   5.705
13272TIP3    H239762   3.288   1.690   5.852
13273TIP3   OH239763   1.780   1.426   0.460
13273TIP3    H139764   1.723   1.386   0.395
13273TIP3    H239765   1.780   1.519   0.438
13274TIP3   OH239766   1.613   1.652   5.619
13274TIP3    H139767   1.551   1.611   5.680
13274TIP3    H239768   1.692   1.666   5.671
13275TIP3   OH239769   0.351   4.607   4.074
13275TIP3    H139770   0.270   4.583   4.029
13275TIP3    H239771   0.409   4.638   4.004
13276TIP3   OH239772   8.087   5.390   2.130
13276TIP3    H139773   8.067   5.336   2.206
13276TIP3    H239774   8.004   5.431   2.107
13277TIP3   OH239775   0.684   0.975   4.188
13277TIP3    H139776   0.725   0.919   4.255
13277TIP3    H239777   0.591   0.974   4.209
13278TIP3   OH239778   1.379   3.283   6.762
13278TIP3    H139779   1.418   3.199   6.787
13278TIP3    H239780   1.453   3.342   6.752
13279TIP3   OH239781   1.458   0.748   0.758
13279TIP3    H139782   1.384   0.775   0.811
13279TIP3    H239783   1.433   0.662   0.724
13280TIP3   OH239784   6.722   1.746   2.597
13280TIP3    H139785   6.737   1.716   2.507
13280TIP3    H239786   6.640   1.796   2.592
13281TIP3   OH239787   5.072   7.148   0.588
13281TIP3    H139788   5.036   7.120   0.672
13281TIP3    H239789   5.130   7.076   0.563
13282TIP3   OH239790   1.235   2.432   0.791
13282TIP3    H139791   1.287   2.476   0.723
13282TIP3    H239792   1.298   2.412   0.860
13283TIP3   OH239793   4.736   2.463   6.295
13283TIP3    H139794   4.822   2.470   6.338
13283TIP3    H239795   4.730   2.371   6.268
13284TIP3   OH239796   7.621   4.912   4.119
13284TIP3    H139797   7.595   4.877   4.034
13284TIP3    H239798   7.621   4.837   4.178
13285TIP3   OH239799   5.067   0.921   4.512
13285TIP3    H139800   5.092   0.979   4.584
13285TIP3    H239801   5.040   0.980   4.442
13286TIP3   OH239802   7.153   5.897   0.810
13286TIP3    H139803   7.065   5.933   0.817
13286TIP3    H239804   7.149   5.839   0.733
13287TIP3   OH239805   0.475   5.691   0.186
13287TIP3    H139806   0.520   5.770   0.217
13287TIP3    H239807   0.481   5.696   0.091
13288TIP3   OH239808   7.358   7.042   5.950
13288TIP3    H139809   7.283   7.004   5.997
13288TIP3    H239810   7.424   6.972   5.952
13289TIP3   OH239811   0.318   1.074   5.165
13289TIP3    H139812   0.346   1.114   5.247
13289TIP3    H239813   0.326   1.144   5.100
13290TIP3   OH239814   7.843   7.779   2.009
13290TIP3    H139815   7.875   7.862   2.044
13290TIP3    H239816   7.865   7.784   1.916
13291TIP3   OH239817   1.509   7.551   1.841
13291TIP3    H139818   1.474   7.485   1.901
13291TIP3    H239819   1.547   7.499   1.769
13292TIP3   OH239820   2.526   3.948   6.638
13292TIP3    H139821   2.480   4.009   6.696
13292TIP3    H239822   2.588   3.903   6.695
13293TIP3   OH239823   2.389   2.094   5.190
13293TIP3    H139824   2.402   2.042   5.111
13293TIP3    H239825   2.366   2.031   5.257
13294TIP3   OH239826   4.518   1.940   4.964
13294TIP3    H139827   4.498   1.888   5.041
13294TIP3    H239828   4.438   1.988   4.945
13295TIP3   OH239829   4.901   3.277   1.562
13295TIP3    H139830   4.930   3.363   1.592
13295TIP3    H239831   4.884   3.228   1.642
13296TIP3   OH239832   6.651   5.642   3.087
13296TIP3    H139833   6.658   5.717   3.146
13296TIP3    H239834   6.607   5.676   3.010
13297TIP3   OH239835   4.178   7.236   0.857
13297TIP3    H139836   4.240   7.282   0.800
13297TIP3    H239837   4.092   7.251   0.817
13298TIP3   OH239838   8.195   0.030   3.752
13298TIP3    H139839   8.283   0.064   3.735
13298TIP3    H239840   8.198  -0.061   3.721
13299TIP3   OH239841   0.249   4.037   2.414
13299TIP3    H139842   0.199   4.107   2.371
13299TIP3    H239843   0.195   3.959   2.402
13300TIP3   OH239844   5.409   4.556   0.831
13300TIP3    H139845   5.459   4.486   0.789
13300TIP3    H239846   5.319   4.540   0.804
13301TIP3   OH239847   8.252   6.465   4.674
13301TIP3    H139848   8.280   6.549   4.711
13301TIP3    H239849   8.318   6.445   4.608
13302TIP3   OH239850   8.188   0.373   4.360
13302TIP3    H139851   8.189   0.468   4.374
13302TIP3    H239852   8.125   0.340   4.425
13303TIP3   OH239853   1.035   2.394   6.275
13303TIP3    H139854   1.104   2.329   6.286
13303TIP3    H239855   1.049   2.431   6.188
13304TIP3   OH239856   1.739   3.197   0.444
13304TIP3    H139857   1.706   3.115   0.481
13304TIP3    H239858   1.685   3.265   0.484
13305TIP3   OH239859   3.379   3.059   6.432
13305TIP3    H139860   3.464   3.103   6.427
13305TIP3    H239861   3.315   3.130   6.421
13306TIP3   OH239862   4.826   0.363   6.417
13306TIP3    H139863   4.785   0.293   6.366
13306TIP3    H239864   4.755   0.425   6.433
13307TIP3   OH239865   5.786   0.751   5.088
13307TIP3    H139866   5.861   0.792   5.131
13307TIP3    H239867   5.737   0.709   5.159
13308TIP3   OH239868   6.055   3.042   0.843
13308TIP3    H139869   6.058   3.126   0.796
13308TIP3    H239870   6.021   3.064   0.929
13309TIP3   OH239871   2.622   6.447   2.340
13309TIP3    H139872   2.658   6.506   2.274
13309TIP3    H239873   2.681   6.456   2.415
13310TIP3   OH239874   1.331   3.020   1.271
13310TIP3    H139875   1.265   2.963   1.233
13310TIP3    H239876   1.412   2.969   1.269
13311TIP3   OH239877   0.562   7.565   3.301
13311TIP3    H139878   0.613   7.511   3.361
13311TIP3    H239879   0.585   7.655   3.325
13312TIP3   OH239880   5.036   4.735   4.668
13312TIP3    H139881   5.063   4.649   4.636
13312TIP3    H239882   5.094   4.753   4.741
13313TIP3   OH239883   3.795   5.734   4.686
13313TIP3    H139884   3.784   5.681   4.766
13313TIP3    H239885   3.721   5.794   4.687
13314TIP3   OH239886   3.068   0.938   5.521
13314TIP3    H139887   3.025   0.856   5.495
13314TIP3    H239888   3.079   0.987   5.440
13315TIP3   OH239889   3.730   0.799   5.484
13315TIP3    H139890   3.655   0.791   5.543
13315TIP3    H239891   3.804   0.767   5.535
13316TIP3   OH239892   0.215   0.469   1.333
13316TIP3    H139893   0.242   0.561   1.337
13316TIP3    H239894   0.196   0.446   1.424
13317TIP3   OH239895   2.537   3.945   1.671
13317TIP3    H139896   2.571   3.880   1.732
13317TIP3    H239897   2.543   4.028   1.718
13318TIP3   OH239898   3.864   2.854   5.335
13318TIP3    H139899   3.878   2.848   5.240
13318TIP3    H239900   3.771   2.834   5.347
13319TIP3   OH239901   2.819   0.493   4.607
13319TIP3    H139902   2.874   0.571   4.594
13319TIP3    H239903   2.773   0.482   4.525
13320TIP3   OH239904   8.012   6.896   5.271
13320TIP3    H139905   8.000   6.906   5.366
13320TIP3    H239906   8.105   6.875   5.261
13321TIP3   OH239907   5.835   6.164   1.955
13321TIP3    H139908   5.786   6.124   1.883
13321TIP3    H239909   5.836   6.097   2.023
13322TIP3   OH239910   6.496   0.128   2.921
13322TIP3    H139911   6.559   0.191   2.957
13322TIP3    H239912   6.443   0.179   2.860
13323TIP3   OH239913   0.881   2.333   1.563
13323TIP3    H139914   0.813   2.385   1.520
13323TIP3    H239915   0.938   2.397   1.605
13324TIP3   OH239916   2.024   3.693   0.707
13324TIP3    H139917   2.049   3.738   0.626
13324TIP3    H239918   1.929   3.692   0.705
13325TIP3   OH239919   7.466   5.666   0.895
13325TIP3    H139920   7.533   5.661   0.963
13325TIP3    H239921   7.511   5.639   0.815
13326TIP3   OH239922   4.579   0.767   3.094
13326TIP3    H139923   4.581   0.674   3.116
13326TIP3    H239924   4.558   0.769   3.000
13327TIP3   OH239925   7.901   1.054   0.635
13327TIP3    H139926   7.850   1.134   0.623
13327TIP3    H239927   7.857   1.007   0.706
13328TIP3   OH239928   2.518   1.693   0.966
13328TIP3    H139929   2.497   1.610   0.925
13328TIP3    H239930   2.459   1.698   1.041
13329TIP3   OH239931   5.376   1.360   5.620
13329TIP3    H139932   5.345   1.379   5.531
13329TIP3    H239933   5.404   1.445   5.654
13330TIP3   OH239934   4.426   5.490   2.465
13330TIP3    H139935   4.432   5.435   2.387
13330TIP3    H239936   4.484   5.564   2.447
13331TIP3   OH239937   6.032   5.979   4.539
13331TIP3    H139938   5.964   5.940   4.483
13331TIP3    H239939   6.099   6.009   4.477
13332TIP3   OH239940   2.817   2.769   6.740
13332TIP3    H139941   2.835   2.757   6.833
13332TIP3    H239942   2.815   2.864   6.727
13333TIP3   OH239943   3.469   1.495   2.260
13333TIP3    H139944   3.441   1.582   2.290
13333TIP3    H239945   3.565   1.496   2.270
13334TIP3   OH239946   8.105   3.351   0.178
13334TIP3    H139947   8.122   3.345   0.272
13334TIP3    H239948   8.180   3.306   0.138
13335TIP3   OH239949   3.587   3.657   2.843
13335TIP3    H139950   3.625   3.708   2.915
13335TIP3    H239951   3.661   3.613   2.802
13336TIP3   OH239952   6.424   6.008   1.705
13336TIP3    H139953   6.351   6.069   1.714
13336TIP3    H239954   6.444   6.009   1.611
13337TIP3   OH239955   2.416   3.811   0.712
13337TIP3    H139956   2.390   3.839   0.800
13337TIP3    H239957   2.500   3.854   0.697
13338TIP3   OH239958   3.503   2.628   0.275
13338TIP3    H139959   3.545   2.642   0.360
13338TIP3    H239960   3.429   2.571   0.294
13339TIP3   OH239961   7.639   7.472   3.294
13339TIP3    H139962   7.648   7.515   3.379
13339TIP3    H239963   7.545   7.476   3.275
13340TIP3   OH239964   7.517   7.403   3.929
13340TIP3    H139965   7.500   7.349   3.852
13340TIP3    H239966   7.468   7.361   4.000
13341TIP3   OH239967   5.404   6.466   3.618
13341TIP3    H139968   5.408   6.539   3.680
13341TIP3    H239969   5.434   6.503   3.535
13342TIP3   OH239970   1.964   2.824   1.129
13342TIP3    H139971   1.972   2.832   1.224
13342TIP3    H239972   2.012   2.900   1.094
13343TIP3   OH239973   1.734   5.311   2.898
13343TIP3    H139974   1.826   5.336   2.903
13343TIP3    H239975   1.694   5.354   2.974
13344TIP3   OH239976   1.303   0.074   1.971
13344TIP3    H139977   1.231   0.129   2.001
13344TIP3    H239978   1.273   0.039   1.887
13345TIP3   OH239979   2.192   2.397   4.717
13345TIP3    H139980   2.116   2.444   4.683
13345TIP3    H239981   2.260   2.464   4.724
13346TIP3   OH239982   4.075   4.961   6.629
13346TIP3    H139983   4.012   5.016   6.583
13346TIP3    H239984   4.145   5.022   6.654
13347TIP3   OH239985   3.806   1.932   0.645
13347TIP3    H139986   3.752   1.858   0.619
13347TIP3    H239987   3.872   1.895   0.703
13348TIP3   OH239988   6.508   0.682   3.217
13348TIP3    H139989   6.536   0.758   3.268
13348TIP3    H239990   6.513   0.609   3.278
13349TIP3   OH239991   8.102   3.380   1.225
13349TIP3    H139992   8.094   3.475   1.238
13349TIP3    H239993   8.179   3.355   1.275
13350TIP3   OH239994   2.265   5.495   6.389
13350TIP3    H139995   2.185   5.547   6.399
13350TIP3    H239996   2.270   5.478   6.295
13351TIP3   OH239997   6.683   6.977   2.113
13351TIP3    H139998   6.722   6.894   2.141
13351TIP3    H239999   6.615   6.995   2.178
13352TIP3   OH240000   0.633   5.351   6.577
13352TIP3    H140001   0.706   5.301   6.539
13352TIP3    H240002   0.669   5.389   6.657
13353TIP3   OH240003   6.023   0.244   2.944
13353TIP3    H140004   5.937   0.246   2.902
13353TIP3    H240005   6.010   0.191   3.023
13354TIP3   OH240006   7.246   6.526   6.281
13354TIP3    H140007   7.242   6.431   6.290
13354TIP3    H240008   7.275   6.540   6.191
13355TIP3   OH240009   4.590   1.073   0.727
13355TIP3    H140010   4.514   1.024   0.758
13355TIP3    H240011   4.626   1.113   0.806
13356TIP3   OH240012   7.048   0.092   4.351
13356TIP3    H140013   7.064   0.180   4.384
13356TIP3    H240014   7.026   0.041   4.428
13357TIP3   OH240015   0.273   4.367   1.544
13357TIP3    H140016   0.217   4.294   1.570
13357TIP3    H240017   0.321   4.336   1.467
13358TIP3   OH240018   1.274   5.012   0.338
13358TIP3    H140019   1.347   5.007   0.401
13358TIP3    H240020   1.241   4.922   0.334
13359TIP3   OH240021   2.912   2.516   6.660
13359TIP3    H140022   2.895   2.609   6.669
13359TIP3    H240023   2.901   2.498   6.567
13360TIP3   OH240024   6.222   3.648   4.933
13360TIP3    H140025   6.150   3.698   4.894
13360TIP3    H240026   6.190   3.558   4.935
13361TIP3   OH240027   1.703   6.945   1.083
13361TIP3    H140028   1.717   6.867   1.028
13361TIP3    H240029   1.684   7.015   1.020
13362TIP3   OH240030   7.465   2.020   1.467
13362TIP3    H140031   7.412   1.970   1.529
13362TIP3    H240032   7.432   2.109   1.473
13363TIP3   OH240033   1.027   6.472   6.675
13363TIP3    H140034   0.954   6.454   6.615
13363TIP3    H240035   1.017   6.564   6.698
13364TIP3   OH240036   6.758   2.745   3.755
13364TIP3    H140037   6.738   2.743   3.848
13364TIP3    H240038   6.836   2.800   3.748
13365TIP3   OH240039   2.276   2.612   5.907
13365TIP3    H140040   2.267   2.681   5.974
13365TIP3    H240041   2.305   2.535   5.956
13366TIP3   OH240042   6.552   6.795   5.271
13366TIP3    H140043   6.618   6.744   5.318
13366TIP3    H240044   6.471   6.746   5.282
13367TIP3   OH240045   2.073   4.065   2.498
13367TIP3    H140046   2.060   3.971   2.484
13367TIP3    H240047   2.060   4.077   2.592
13368TIP3   OH240048   3.658   5.095   5.416
13368TIP3    H140049   3.734   5.098   5.475
13368TIP3    H240050   3.607   5.172   5.439
13369TIP3   OH240051   3.143   4.768   3.949
13369TIP3    H140052   3.119   4.792   4.038
13369TIP3    H240053   3.104   4.836   3.895
13370TIP3   OH240054   3.908   3.467   2.429
13370TIP3    H140055   3.964   3.425   2.364
13370TIP3    H240056   3.899   3.557   2.397
13371TIP3   OH240057   4.237   3.210   6.413
13371TIP3    H140058   4.239   3.269   6.489
13371TIP3    H240059   4.195   3.260   6.344
13372TIP3   OH240060   1.802   3.886   2.699
13372TIP3    H140061   1.761   3.971   2.687
13372TIP3    H240062   1.883   3.905   2.745
13373TIP3   OH240063   2.812   6.993   2.628
13373TIP3    H140064   2.811   7.065   2.691
13373TIP3    H240065   2.815   6.914   2.682
13374TIP3   OH240066   7.476   7.428   5.342
13374TIP3    H140067   7.563   7.396   5.317
13374TIP3    H240068   7.488   7.467   5.428
13375TIP3   OH240069   0.103   7.221   6.112
13375TIP3    H140070   0.158   7.296   6.136
13375TIP3    H240071   0.164   7.149   6.099
13376TIP3   OH240072   6.452   3.202   0.796
13376TIP3    H140073   6.487   3.286   0.765
13376TIP3    H240074   6.409   3.224   0.879
13377TIP3   OH240075   1.381   1.853   3.602
13377TIP3    H140076   1.370   1.940   3.641
13377TIP3    H240077   1.311   1.847   3.537
13378TIP3   OH240078   3.076   4.093   6.276
13378TIP3    H140079   3.071   4.000   6.300
13378TIP3    H240080   3.166   4.106   6.246
13379TIP3   OH240081   8.241   5.388   3.246
13379TIP3    H140082   8.252   5.399   3.340
13379TIP3    H240083   8.217   5.475   3.214
13380TIP3   OH240084   4.689   5.319   2.008
13380TIP3    H140085   4.659   5.311   1.917
13380TIP3    H240086   4.687   5.413   2.025
13381TIP3   OH240087   4.941   4.406   0.769
13381TIP3    H140088   4.854   4.369   0.783
13381TIP3    H240089   5.001   4.332   0.782
13382TIP3   OH240090   2.975   6.776   0.984
13382TIP3    H140091   2.890   6.784   1.026
13382TIP3    H240092   3.038   6.786   1.055
13383TIP3   OH240093   1.229   1.373   5.920
13383TIP3    H140094   1.301   1.433   5.938
13383TIP3    H240095   1.152   1.415   5.960
13384TIP3   OH240096   6.862   3.584   5.851
13384TIP3    H140097   6.920   3.577   5.927
13384TIP3    H240098   6.918   3.565   5.776
13385TIP3   OH240099   0.125   2.336   1.010
13385TIP3    H140100   0.158   2.259   1.056
13385TIP3    H240101   0.064   2.377   1.071
13386TIP3   OH240102   7.411   0.224   1.479
13386TIP3    H140103   7.350   0.251   1.547
13386TIP3    H240104   7.362   0.230   1.398
13387TIP3   OH240105   4.452   0.358   5.988
13387TIP3    H140106   4.431   0.429   6.050
13387TIP3    H240107   4.442   0.398   5.902
13388TIP3   OH240108   7.371   7.298   6.328
13388TIP3    H140109   7.334   7.335   6.248
13388TIP3    H240110   7.336   7.209   6.332
13389TIP3   OH240111   1.932   3.379   2.564
13389TIP3    H140112   1.931   3.418   2.477
13389TIP3    H240113   1.968   3.447   2.621
13390TIP3   OH240114   3.679   4.717   3.664
13390TIP3    H140115   3.767   4.749   3.644
13390TIP3    H240116   3.682   4.697   3.758
13391TIP3   OH240117   3.209   1.547   1.980
13391TIP3    H140118   3.193   1.463   2.023
13391TIP3    H240119   3.134   1.559   1.922
13392TIP3   OH240120   3.150   7.795   3.578
13392TIP3    H140121   3.155   7.875   3.525
13392TIP3    H240122   3.183   7.726   3.520
13393TIP3   OH240123   8.072   6.117   4.492
13393TIP3    H140124   8.145   6.119   4.554
13393TIP3    H240125   7.996   6.145   4.543
13394TIP3   OH240126   0.401   4.944   0.516
13394TIP3    H140127   0.400   5.037   0.539
13394TIP3    H240128   0.341   4.938   0.441
13395TIP3   OH240129   1.278   1.746   2.345
13395TIP3    H140130   1.350   1.709   2.396
13395TIP3    H240131   1.249   1.821   2.396
13396TIP3   OH240132   5.169   4.637   2.441
13396TIP3    H140133   5.195   4.729   2.434
13396TIP3    H240134   5.096   4.628   2.380
13397TIP3   OH240135   7.225   1.834   2.251
13397TIP3    H140136   7.212   1.921   2.214
13397TIP3    H240137   7.155   1.824   2.316
13398TIP3   OH240138   1.262   6.743   1.097
13398TIP3    H140139   1.307   6.661   1.118
13398TIP3    H240140   1.221   6.769   1.179
13399TIP3   OH240141   5.997   0.838   4.142
13399TIP3    H140142   6.042   0.922   4.151
13399TIP3    H240143   6.065   0.779   4.107
13400TIP3   OH240144   6.235   3.881   5.390
13400TIP3    H140145   6.235   3.820   5.316
13400TIP3    H240146   6.313   3.857   5.440
13401TIP3   OH240147   0.477   2.542   2.581
13401TIP3    H140148   0.571   2.559   2.581
13401TIP3    H240149   0.446   2.578   2.665
13402TIP3   OH240150   7.404   6.277   3.136
13402TIP3    H140151   7.346   6.256   3.209
13402TIP3    H240152   7.491   6.282   3.176
13403TIP3   OH240153   5.021   6.556   1.245
13403TIP3    H140154   5.016   6.645   1.280
13403TIP3    H240155   4.931   6.523   1.251
13404TIP3   OH240156   5.713   5.888   2.994
13404TIP3    H140157   5.631   5.922   3.031
13404TIP3    H240158   5.726   5.940   2.914
13405TIP3   OH240159   6.807   5.189   1.392
13405TIP3    H140160   6.794   5.280   1.368
13405TIP3    H240161   6.891   5.165   1.353
13406TIP3   OH240162   6.037   5.392   3.311
13406TIP3    H140163   6.004   5.366   3.225
13406TIP3    H240164   5.957   5.406   3.363
13407TIP3   OH240165   8.100   4.110   2.894
13407TIP3    H140166   8.075   4.026   2.855
13407TIP3    H240167   8.065   4.176   2.835
13408TIP3   OH240168   1.493   4.145   5.554
13408TIP3    H140169   1.530   4.062   5.583
13408TIP3    H240170   1.469   4.131   5.462
13409TIP3   OH240171   2.398   6.735   1.897
13409TIP3    H140172   2.431   6.780   1.975
13409TIP3    H240173   2.397   6.643   1.922
13410TIP3   OH240174   0.146   0.123   6.499
13410TIP3    H140175   0.227   0.173   6.483
13410TIP3    H240176   0.085   0.155   6.433
13411TIP3   OH240177   1.808   0.698   6.669
13411TIP3    H140178   1.760   0.761   6.722
13411TIP3    H240179   1.900   0.712   6.691
13412TIP3   OH240180   4.087   6.044   1.835
13412TIP3    H140181   4.105   6.116   1.896
13412TIP3    H240182   4.148   6.058   1.763
13413TIP3   OH240183   2.355   2.387   1.613
13413TIP3    H140184   2.275   2.437   1.630
13413TIP3    H240185   2.356   2.375   1.519
13414TIP3   OH240186   6.244   0.390   4.430
13414TIP3    H140187   6.171   0.449   4.448
13414TIP3    H240188   6.268   0.408   4.339
13415TIP3   OH240189   1.724   6.121   1.283
13415TIP3    H140190   1.677   6.133   1.200
13415TIP3    H240191   1.655   6.110   1.348
13416TIP3   OH240192   5.237   7.760   1.833
13416TIP3    H140193   5.208   7.788   1.746
13416TIP3    H240194   5.268   7.670   1.820
13417TIP3   OH240195   6.198   6.179   1.402
13417TIP3    H140196   6.218   6.260   1.449
13417TIP3    H240197   6.105   6.165   1.417
13418TIP3   OH240198   1.577   0.948   3.612
13418TIP3    H140199   1.561   0.936   3.705
13418TIP3    H240200   1.499   0.913   3.569
13419TIP3   OH240201   6.211   6.737   6.173
13419TIP3    H140202   6.278   6.727   6.240
13419TIP3    H240203   6.199   6.832   6.164
13420TIP3   OH240204   3.042   5.519   2.110
13420TIP3    H140205   2.952   5.499   2.086
13420TIP3    H240206   3.077   5.436   2.143
13421TIP3   OH240207   2.839   5.669   2.000
13421TIP3    H140208   2.750   5.673   2.032
13421TIP3    H240209   2.860   5.759   1.973
13422TIP3   OH240210   3.874   2.703   0.929
13422TIP3    H140211   3.868   2.614   0.964
13422TIP3    H240212   3.909   2.693   0.841
13423TIP3   OH240213   6.642   3.862   6.574
13423TIP3    H140214   6.579   3.928   6.604
13423TIP3    H240215   6.700   3.909   6.515
13424TIP3   OH240216   6.003   3.806   5.111
13424TIP3    H140217   6.050   3.726   5.135
13424TIP3    H240218   5.912   3.787   5.133
13425TIP3   OH240219   2.523   6.889   2.127
13425TIP3    H140220   2.595   6.947   2.101
13425TIP3    H240221   2.512   6.907   2.221
13426TIP3   OH240222   0.117   6.229   0.747
13426TIP3    H140223   0.165   6.177   0.811
13426TIP3    H240224   0.184   6.260   0.686
13427TIP3   OH240225   1.004   3.694   3.084
13427TIP3    H140226   1.009   3.674   2.991
13427TIP3    H240227   1.084   3.743   3.103
13428TIP3   OH240228   2.009   4.237   0.369
13428TIP3    H140229   1.965   4.321   0.358
13428TIP3    H240230   1.938   4.175   0.389
13429TIP3   OH240231   3.058   4.848   2.755
13429TIP3    H140232   3.081   4.893   2.674
13429TIP3    H240233   3.131   4.787   2.769
13430TIP3   OH240234   0.187   3.092   2.249
13430TIP3    H140235   0.134   3.119   2.324
13430TIP3    H240236   0.243   3.023   2.282
13431TIP3   OH240237   0.915   5.275   6.495
13431TIP3    H140238   1.006   5.258   6.521
13431TIP3    H240239   0.917   5.363   6.457
13432TIP3   OH240240   4.062   5.487   5.399
13432TIP3    H140241   3.973   5.522   5.403
13432TIP3    H240242   4.111   5.554   5.352
13433TIP3   OH240243   3.238   0.845   2.104
13433TIP3    H140244   3.266   0.803   2.022
13433TIP3    H240245   3.143   0.837   2.103
13434TIP3   OH240246   6.855   3.635   0.160
13434TIP3    H140247   6.830   3.727   0.164
13434TIP3    H240248   6.772   3.588   0.152
13435TIP3   OH240249   4.200   1.979   5.474
13435TIP3    H140250   4.237   1.904   5.520
13435TIP3    H240251   4.106   1.973   5.490
13436TIP3   OH240252   6.334   3.759   0.463
13436TIP3    H140253   6.256   3.773   0.517
13436TIP3    H240254   6.405   3.746   0.526
13437TIP3   OH240255   0.892   1.143   4.405
13437TIP3    H140256   0.966   1.204   4.405
13437TIP3    H240257   0.845   1.163   4.325
13438TIP3   OH240258   3.604   0.977   3.014
13438TIP3    H140259   3.617   1.072   3.017
13438TIP3    H240260   3.691   0.940   3.030
13439TIP3   OH240261   3.154   0.265   4.458
13439TIP3    H140262   3.150   0.360   4.446
13439TIP3    H240263   3.107   0.229   4.383
13440TIP3   OH240264   6.806   5.627   3.512
13440TIP3    H140265   6.857   5.699   3.548
13440TIP3    H240266   6.866   5.553   3.509
13441TIP3   OH240267   4.738   0.373   4.357
13441TIP3    H140268   4.823   0.354   4.397
13441TIP3    H240269   4.689   0.417   4.426
13442TIP3   OH240270   7.641   7.279   2.251
13442TIP3    H140271   7.696   7.211   2.290
13442TIP3    H240272   7.648   7.353   2.312
13443TIP3   OH240273   0.731   5.727   5.099
13443TIP3    H140274   0.707   5.770   5.181
13443TIP3    H240275   0.754   5.638   5.124
13444TIP3   OH240276   0.555   4.372   4.352
13444TIP3    H140277   0.545   4.281   4.379
13444TIP3    H240278   0.480   4.417   4.392
13445TIP3   OH240279   0.494   4.465   0.120
13445TIP3    H140280   0.447   4.394   0.163
13445TIP3    H240281   0.447   4.479   0.038
13446TIP3   OH240282   4.864   2.112   0.030
13446TIP3    H140283   4.893   2.062   0.106
13446TIP3    H240284   4.944   2.150  -0.006
13447TIP3   OH240285   2.668   2.827   1.778
13447TIP3    H140286   2.591   2.776   1.753
13447TIP3    H240287   2.704   2.781   1.854
13448TIP3   OH240288   7.521   5.374   6.304
13448TIP3    H140289   7.574   5.388   6.225
13448TIP3    H240290   7.581   5.391   6.377
13449TIP3   OH240291   0.607   6.864   5.914
13449TIP3    H140292   0.549   6.797   5.878
13449TIP3    H240293   0.692   6.845   5.874
13450TIP3   OH240294   3.075   7.809   0.826
13450TIP3    H140295   3.127   7.757   0.887
13450TIP3    H240296   3.070   7.755   0.747
13451TIP3   OH240297   1.358   0.614   2.544
13451TIP3    H140298   1.273   0.583   2.576
13451TIP3    H240299   1.384   0.550   2.478
13452TIP3   OH240300   7.273   6.371   2.265
13452TIP3    H140301   7.256   6.392   2.357
13452TIP3    H240302   7.188   6.383   2.222
13453TIP3   OH240303   7.190   6.186   1.180
13453TIP3    H140304   7.252   6.162   1.249
13453TIP3    H240305   7.126   6.115   1.179
13454TIP3   OH240306   7.774   7.281   5.518
13454TIP3    H140307   7.743   7.284   5.427
13454TIP3    H240308   7.857   7.328   5.517
13455TIP3   OH240309   2.607   4.974   1.762
13455TIP3    H140310   2.604   4.891   1.810
13455TIP3    H240311   2.517   5.007   1.768
13456TIP3   OH240312   4.291   2.838   0.072
13456TIP3    H140313   4.380   2.870   0.087
13456TIP3    H240314   4.291   2.750   0.111
13457TIP3   OH240315   1.817   5.041   5.071
13457TIP3    H140316   1.786   4.975   5.132
13457TIP3    H240317   1.795   5.125   5.112
13458TIP3   OH240318   1.844   0.797   3.524
13458TIP3    H140319   1.898   0.782   3.602
13458TIP3    H240320   1.759   0.823   3.558
13459TIP3   OH240321   0.044   4.723   2.410
13459TIP3    H140322   0.046   4.777   2.488
13459TIP3    H240323   0.026   4.635   2.442
13460TIP3   OH240324   2.017   1.846   3.145
13460TIP3    H140325   2.015   1.941   3.133
13460TIP3    H240326   1.925   1.820   3.138
13461TIP3   OH240327   7.020   3.512   5.613
13461TIP3    H140328   7.056   3.427   5.640
13461TIP3    H240329   6.992   3.499   5.523
13462TIP3   OH240330   2.236   2.043   6.023
13462TIP3    H140331   2.201   2.066   6.109
13462TIP3    H240332   2.196   1.958   6.003
13463TIP3   OH240333   2.169   7.786   4.620
13463TIP3    H140334   2.249   7.788   4.673
13463TIP3    H240335   2.155   7.694   4.601
13464TIP3   OH240336   7.133   7.288   5.766
13464TIP3    H140337   7.208   7.286   5.825
13464TIP3    H240338   7.165   7.333   5.688
13465TIP3   OH240339   1.637   3.482   2.273
13465TIP3    H140340   1.566   3.527   2.319
13465TIP3    H240341   1.717   3.509   2.317
13466TIP3   OH240342   3.864   1.990   2.893
13466TIP3    H140343   3.834   2.068   2.940
13466TIP3    H240344   3.918   2.024   2.822
13467TIP3   OH240345   3.393   3.080   3.170
13467TIP3    H140346   3.459   3.121   3.114
13467TIP3    H240347   3.439   3.007   3.213
13468TIP3   OH240348   3.290   0.676   6.795
13468TIP3    H140349   3.303   0.679   6.700
13468TIP3    H240350   3.320   0.589   6.820
13469TIP3   OH240351   7.885   2.057   2.782
13469TIP3    H140352   7.846   1.976   2.813
13469TIP3    H240353   7.813   2.105   2.740
13470TIP3   OH240354   6.033   1.102   5.780
13470TIP3    H140355   6.061   1.011   5.781
13470TIP3    H240356   6.113   1.152   5.799
13471TIP3   OH240357   1.058   3.297   0.712
13471TIP3    H140358   1.137   3.256   0.745
13471TIP3    H240359   1.089   3.360   0.646
13472TIP3   OH240360   4.493   2.733   0.550
13472TIP3    H140361   4.539   2.705   0.471
13472TIP3    H240362   4.561   2.768   0.607
13473TIP3   OH240363   6.368   5.826   3.053
13473TIP3    H140364   6.325   5.857   3.132
13473TIP3    H240365   6.444   5.883   3.043
13474TIP3   OH240366   0.786   7.127   3.954
13474TIP3    H140367   0.761   7.034   3.947
13474TIP3    H240368   0.770   7.162   3.866
13475TIP3   OH240369   7.202   7.809  -0.017
13475TIP3    H140370   7.170   7.838   0.068
13475TIP3    H240371   7.273   7.748   0.004
13476TIP3   OH240372   1.100   2.120   5.167
13476TIP3    H140373   1.118   2.028   5.184
13476TIP3    H240374   1.009   2.132   5.194
13477TIP3   OH240375   2.993   5.492   4.042
13477TIP3    H140376   3.032   5.567   4.086
13477TIP3    H240377   3.058   5.466   3.977
13478TIP3   OH240378   0.059   7.415   4.092
13478TIP3    H140379   0.067   7.509   4.073
13478TIP3    H240380   0.129   7.375   4.041
13479TIP3   OH240381   6.066   5.650   5.212
13479TIP3    H140382   5.991   5.605   5.172
13479TIP3    H240383   6.084   5.724   5.155
13480TIP3   OH240384   0.063   5.358   5.329
13480TIP3    H140385   0.035   5.421   5.395
13480TIP3    H240386  -0.012   5.300   5.317
13481TIP3   OH240387   5.627   2.185   5.283
13481TIP3    H140388   5.579   2.151   5.208
13481TIP3    H240389   5.559   2.211   5.346
13482TIP3   OH240390   1.902   5.773   5.625
13482TIP3    H140391   1.991   5.786   5.593
13482TIP3    H240392   1.855   5.735   5.551
13483TIP3   OH240393   5.143   0.746   2.950
13483TIP3    H140394   5.079   0.804   2.992
13483TIP3    H240395   5.097   0.662   2.942
13484TIP3   OH240396   5.979   3.328   4.580
13484TIP3    H140397   6.070   3.300   4.591
13484TIP3    H240398   5.938   3.309   4.664
13485TIP3   OH240399   5.000   7.710   0.505
13485TIP3    H140400   4.954   7.740   0.584
13485TIP3    H240401   4.959   7.626   0.484
13486TIP3   OH240402   8.122   0.244   1.393
13486TIP3    H140403   8.130   0.254   1.488
13486TIP3    H240404   8.139   0.152   1.377
13487TIP3   OH240405   3.951   2.929   2.181
13487TIP3    H140406   3.941   2.944   2.275
13487TIP3    H240407   4.042   2.951   2.162
13488TIP3   OH240408   0.334   7.258   1.149
13488TIP3    H140409   0.247   7.298   1.159
13488TIP3    H240410   0.322   7.192   1.080
13489TIP3   OH240411   4.471   0.090   5.880
13489TIP3    H140412   4.423   0.147   5.940
13489TIP3    H240413   4.472   0.138   5.797
13490TIP3   OH240414   2.495   0.195   4.938
13490TIP3    H140415   2.522   0.265   4.879
13490TIP3    H240416   2.550   0.207   5.015
13491TIP3   OH240417   2.402   4.615   6.082
13491TIP3    H140418   2.432   4.652   6.165
13491TIP3    H240419   2.479   4.570   6.046
13492TIP3   OH240420   4.113   1.057   5.372
13492TIP3    H140421   4.202   1.073   5.404
13492TIP3    H240422   4.100   0.963   5.386
13493TIP3   OH240423   4.412   6.438   2.481
13493TIP3    H140424   4.332   6.490   2.480
13493TIP3    H240425   4.477   6.496   2.520
13494TIP3   OH240426   1.534   0.347   0.368
13494TIP3    H140427   1.526   0.441   0.350
13494TIP3    H240428   1.535   0.342   0.464
13495TIP3   OH240429   4.599   3.145   2.263
13495TIP3    H140430   4.665   3.186   2.319
13495TIP3    H240431   4.516   3.158   2.310
13496TIP3   OH240432   6.741  -0.007   0.203
13496TIP3    H140433   6.806   0.057   0.232
13496TIP3    H240434   6.774  -0.038   0.119
13497TIP3   OH240435   1.600   4.892   4.709
13497TIP3    H140436   1.611   4.844   4.627
13497TIP3    H240437   1.572   4.979   4.682
13498TIP3   OH240438   5.202   1.110   4.692
13498TIP3    H140439   5.296   1.100   4.683
13498TIP3    H240440   5.184   1.087   4.783
13499TIP3   OH240441   2.834   4.215   0.105
13499TIP3    H140442   2.923   4.230   0.135
13499TIP3    H240443   2.817   4.284   0.041
13500TIP3   OH240444   7.988   1.974   5.002
13500TIP3    H140445   7.955   2.038   5.065
13500TIP3    H240446   8.082   1.968   5.021
13501TIP3   OH240447   5.735   4.464   5.420
13501TIP3    H140448   5.762   4.551   5.450
13501TIP3    H240449   5.793   4.446   5.345
13502TIP3   OH240450   4.742   5.124   1.723
13502TIP3    H140451   4.734   5.057   1.790
13502TIP3    H240452   4.673   5.187   1.744
13503TIP3   OH240453   4.753   3.590   0.720
13503TIP3    H140454   4.689   3.652   0.755
13503TIP3    H240455   4.702   3.534   0.661
13504TIP3   OH240456   2.590   0.235   3.642
13504TIP3    H140457   2.615   0.327   3.631
13504TIP3    H240458   2.496   0.234   3.628
13505TIP3   OH240459   3.387   4.846   3.034
13505TIP3    H140460   3.431   4.869   3.116
13505TIP3    H240461   3.294   4.861   3.052
13506TIP3   OH240462   5.033   0.614   2.653
13506TIP3    H140463   4.983   0.656   2.583
13506TIP3    H240464   4.988   0.641   2.733
13507TIP3   OH240465   6.427   2.267   4.163
13507TIP3    H140466   6.387   2.190   4.204
13507TIP3    H240467   6.371   2.287   4.089
13508TIP3   OH240468   1.295   0.140   3.735
13508TIP3    H140469   1.373   0.085   3.738
13508TIP3    H240470   1.237   0.095   3.673
13509TIP3   OH240471   6.561   1.907   3.199
13509TIP3    H140472   6.653   1.908   3.225
13509TIP3    H240473   6.559   1.849   3.123
13510TIP3   OH240474   4.365   2.164   1.004
13510TIP3    H140475   4.342   2.091   0.947
13510TIP3    H240476   4.461   2.163   1.007
13511TIP3   OH240477   6.082   0.376   2.302
13511TIP3    H140478   5.989   0.393   2.286
13511TIP3    H240479   6.099   0.416   2.387
13512TIP3   OH240480   1.497   3.906   2.752
13512TIP3    H140481   1.553   3.845   2.800
13512TIP3    H240482   1.539   3.992   2.763
13513TIP3   OH240483   2.341   6.383   0.472
13513TIP3    H140484   2.400   6.434   0.415
13513TIP3    H240485   2.393   6.367   0.551
13514TIP3   OH240486   1.493   7.553   4.282
13514TIP3    H140487   1.412   7.601   4.300
13514TIP3    H240488   1.498   7.550   4.186
13515TIP3   OH240489   6.811   2.481   3.307
13515TIP3    H140490   6.718   2.460   3.306
13515TIP3    H240491   6.823   2.541   3.234
13516TIP3   OH240492   4.612   0.572   3.370
13516TIP3    H140493   4.597   0.638   3.438
13516TIP3    H240494   4.549   0.593   3.302
13517TIP3   OH240495   7.460   6.706   3.145
13517TIP3    H140496   7.432   6.746   3.228
13517TIP3    H240497   7.515   6.632   3.171
13518TIP3   OH240498   8.190   1.022   6.280
13518TIP3    H140499   8.159   0.994   6.194
13518TIP3    H240500   8.269   0.971   6.295
13519TIP3   OH240501   4.259   5.098   6.757
13519TIP3    H140502   4.298   5.179   6.723
13519TIP3    H240503   4.328   5.059   6.811
13520TIP3   OH240504   6.855   5.785   1.450
13520TIP3    H140505   6.800   5.745   1.517
13520TIP3    H240506   6.871   5.874   1.482
13521TIP3   OH240507   8.091   4.621   3.760
13521TIP3    H140508   8.112   4.528   3.759
13521TIP3    H240509   8.147   4.659   3.692
13522TIP3   OH240510   1.494   5.209   4.109
13522TIP3    H140511   1.472   5.261   4.031
13522TIP3    H240512   1.471   5.266   4.183
13523TIP3   OH240513   8.005   3.855   2.515
13523TIP3    H140514   7.985   3.940   2.475
13523TIP3    H240515   8.092   3.833   2.483
13524TIP3   OH240516   0.265   5.474   1.612
13524TIP3    H140517   0.202   5.545   1.623
13524TIP3    H240518   0.343   5.517   1.577
13525TIP3   OH240519   6.768   7.134   2.828
13525TIP3    H140520   6.828   7.128   2.754
13525TIP3    H240521   6.681   7.135   2.789
13526TIP3   OH240522   0.199   3.866   5.918
13526TIP3    H140523   0.206   3.936   5.854
13526TIP3    H240524   0.106   3.847   5.923
13527TIP3   OH240525   0.545   3.222   4.324
13527TIP3    H140526   0.508   3.147   4.371
13527TIP3    H240527   0.617   3.185   4.273
13528TIP3   OH240528   0.122   1.783   3.811
13528TIP3    H140529   0.173   1.703   3.798
13528TIP3    H240530   0.054   1.779   3.743
13529TIP3   OH240531   4.107   1.339   3.616
13529TIP3    H140532   4.043   1.319   3.684
13529TIP3    H240533   4.172   1.394   3.659
13530TIP3   OH240534   2.536   0.141   6.034
13530TIP3    H140535   2.471   0.196   6.076
13530TIP3    H240536   2.493   0.056   6.024
13531TIP3   OH240537   2.373   0.249   3.938
13531TIP3    H140538   2.298   0.220   3.990
13531TIP3    H240539   2.380   0.184   3.868
13532TIP3   OH240540   1.234   3.674   1.608
13532TIP3    H140541   1.311   3.627   1.575
13532TIP3    H240542   1.188   3.610   1.662
13533TIP3   OH240543   7.359   5.543   5.473
13533TIP3    H140544   7.344   5.468   5.416
13533TIP3    H240545   7.436   5.587   5.435
13534TIP3   OH240546   4.567   5.166   6.051
13534TIP3    H140547   4.635   5.217   6.096
13534TIP3    H240548   4.490   5.177   6.106
13535TIP3   OH240549   7.049   7.750   6.356
13535TIP3    H140550   6.978   7.709   6.406
13535TIP3    H240551   7.122   7.756   6.418
13536TIP3   OH240552   3.731   1.359   6.240
13536TIP3    H140553   3.661   1.360   6.175
13536TIP3    H240554   3.695   1.407   6.314
13537TIP3   OH240555   4.970   2.010   5.308
13537TIP3    H140556   5.022   1.950   5.362
13537TIP3    H240557   4.949   1.959   5.229
13538TIP3   OH240558   5.343   2.652   3.632
13538TIP3    H140559   5.346   2.580   3.569
13538TIP3    H240560   5.297   2.723   3.587
13539TIP3   OH240561   5.896   4.475   3.518
13539TIP3    H140562   5.809   4.466   3.478
13539TIP3    H240563   5.896   4.563   3.554
13540TIP3   OH240564   5.149   0.654   6.797
13540TIP3    H140565   5.211   0.719   6.766
13540TIP3    H240566   5.127   0.603   6.720
13541TIP3   OH240567   8.204   3.224   3.282
13541TIP3    H140568   8.269   3.293   3.265
13541TIP3    H240569   8.224   3.194   3.371
13542TIP3   OH240570   5.423   1.966   2.867
13542TIP3    H140571   5.450   2.057   2.851
13542TIP3    H240572   5.496   1.913   2.835
13543TIP3   OH240573   6.859   6.783   6.479
13543TIP3    H140574   6.802   6.707   6.467
13543TIP3    H240575   6.803   6.858   6.459
13544TIP3   OH240576   7.831   5.002   4.913
13544TIP3    H140577   7.853   4.976   4.824
13544TIP3    H240578   7.806   4.920   4.956
13545TIP3   OH240579   0.891   2.107   5.845
13545TIP3    H140580   0.962   2.119   5.782
13545TIP3    H240581   0.862   2.017   5.830
13546TIP3   OH240582   0.108   2.619   3.734
13546TIP3    H140583   0.138   2.550   3.794
13546TIP3    H240584   0.189   2.657   3.700
13547TIP3   OH240585   7.405   2.905   6.811
13547TIP3    H140586   7.490   2.925   6.772
13547TIP3    H240587   7.351   2.879   6.737
13548TIP3   OH240588   7.461   2.571   2.883
13548TIP3    H140589   7.452   2.665   2.866
13548TIP3    H240590   7.393   2.530   2.829
13549TIP3   OH240591   8.151   7.528   0.072
13549TIP3    H140592   8.065   7.494   0.048
13549TIP3    H240593   8.203   7.449   0.090
13550TIP3   OH240594   4.449   5.502   4.699
13550TIP3    H140595   4.437   5.489   4.793
13550TIP3    H240596   4.364   5.535   4.668
13551TIP3   OH240597   0.106   1.746   5.195
13551TIP3    H140598   0.135   1.681   5.130
13551TIP3    H240599   0.178   1.753   5.256
13552TIP3   OH240600   4.708   4.379   6.030
13552TIP3    H140601   4.754   4.406   5.951
13552TIP3    H240602   4.756   4.422   6.101
13553TIP3   OH240603   7.878   6.205   5.615
13553TIP3    H140604   7.875   6.285   5.562
13553TIP3    H240605   7.947   6.153   5.574
13554TIP3   OH240606   1.232   2.132   4.875
13554TIP3    H140607   1.179   2.174   4.807
13554TIP3    H240608   1.193   2.161   4.958
13555TIP3   OH240609   4.421   3.423   2.361
13555TIP3    H140610   4.516   3.413   2.348
13555TIP3    H240611   4.412   3.508   2.404
13556TIP3   OH240612   2.034   2.461   3.535
13556TIP3    H140613   2.050   2.380   3.583
13556TIP3    H240614   2.015   2.433   3.445
13557TIP3   OH240615   5.557   4.603   1.057
13557TIP3    H140616   5.500   4.572   0.987
13557TIP3    H240617   5.604   4.678   1.019
13558TIP3   OH240618   4.455   5.097   5.803
13558TIP3    H140619   4.486   5.141   5.882
13558TIP3    H240620   4.365   5.072   5.823
13559TIP3   OH240621   6.376   2.912   5.606
13559TIP3    H140622   6.437   2.971   5.651
13559TIP3    H240623   6.297   2.914   5.660
13560TIP3   OH240624   0.317   6.306   1.916
13560TIP3    H140625   0.337   6.259   1.836
13560TIP3    H240626   0.326   6.399   1.894
13561TIP3   OH240627   7.053   7.797   3.790
13561TIP3    H140628   7.145   7.770   3.781
13561TIP3    H240629   7.036   7.793   3.884
13562TIP3   OH240630   3.824   3.968   5.664
13562TIP3    H140631   3.732   3.996   5.660
13562TIP3    H240632   3.867   4.016   5.593
13563TIP3   OH240633   7.573   1.880   5.092
13563TIP3    H140634   7.580   1.911   5.182
13563TIP3    H240635   7.662   1.851   5.070
13564TIP3   OH240636   3.255   1.260   2.952
13564TIP3    H140637   3.238   1.172   2.919
13564TIP3    H240638   3.255   1.315   2.874
13565TIP3   OH240639   2.579   3.731   2.579
13565TIP3    H140640   2.514   3.801   2.579
13565TIP3    H240641   2.530   3.652   2.602
13566TIP3   OH240642   6.475   4.214   0.329
13566TIP3    H140643   6.493   4.307   0.345
13566TIP3    H240644   6.437   4.183   0.411
13567TIP3   OH240645   1.737   2.506   1.216
13567TIP3    H140646   1.775   2.452   1.286
13567TIP3    H240647   1.674   2.562   1.261
13568TIP3   OH240648   2.388   7.054   0.566
13568TIP3    H140649   2.432   7.129   0.526
13568TIP3    H240650   2.421   7.052   0.656
13569TIP3   OH240651   5.012   5.371   0.507
13569TIP3    H140652   5.102   5.354   0.534
13569TIP3    H240653   4.976   5.284   0.486
13570TIP3   OH240654   3.402   5.604   5.583
13570TIP3    H140655   3.489   5.572   5.609
13570TIP3    H240656   3.421   5.678   5.525
13571TIP3   OH240657   1.118   3.054   3.745
13571TIP3    H140658   1.151   2.968   3.771
13571TIP3    H240659   1.117   3.052   3.649
13572TIP3   OH240660   3.972   4.344   5.919
13572TIP3    H140661   4.014   4.285   5.857
13572TIP3    H240662   4.042   4.403   5.947
13573TIP3   OH240663   3.931   2.290   3.925
13573TIP3    H140664   3.985   2.294   4.004
13573TIP3    H240665   3.867   2.221   3.944
13574TIP3   OH240666   2.086   4.116   6.731
13574TIP3    H140667   2.092   4.206   6.761
13574TIP3    H240668   2.015   4.117   6.666
13575TIP3   OH240669   0.196   4.788   6.423
13575TIP3    H140670   0.165   4.777   6.333
13575TIP3    H240671   0.117   4.795   6.476
13576TIP3   OH240672   4.163   7.025   5.506
13576TIP3    H140673   4.112   7.018   5.586
13576TIP3    H240674   4.253   7.040   5.537
13577TIP3   OH240675   4.171   5.265   0.874
13577TIP3    H140676   4.236   5.289   0.940
13577TIP3    H240677   4.112   5.205   0.919
13578TIP3   OH240678   4.404   0.455   4.381
13578TIP3    H140679   4.460   0.493   4.449
13578TIP3    H240680   4.426   0.362   4.381
13579TIP3   OH240681   1.783   0.571   1.423
13579TIP3    H140682   1.708   0.558   1.482
13579TIP3    H240683   1.764   0.654   1.379
13580TIP3   OH240684   2.655   2.524   3.335
13580TIP3    H140685   2.671   2.484   3.421
13580TIP3    H240686   2.649   2.618   3.352
13581TIP3   OH240687   4.237   0.657   4.344
13581TIP3    H140688   4.300   0.584   4.342
13581TIP3    H240689   4.292   0.735   4.348
13582TIP3   OH240690   3.655   2.661   6.713
13582TIP3    H140691   3.588   2.614   6.762
13582TIP3    H240692   3.730   2.664   6.772
13583TIP3   OH240693   0.913   7.112   0.974
13583TIP3    H140694   0.957   7.136   0.893
13583TIP3    H240695   0.827   7.079   0.947
13584TIP3   OH240696   6.755   4.808   1.401
13584TIP3    H140697   6.822   4.814   1.469
13584TIP3    H240698   6.789   4.860   1.329
13585TIP3   OH240699   6.808   6.350   5.137
13585TIP3    H140700   6.858   6.356   5.055
13585TIP3    H240701   6.723   6.387   5.116
13586TIP3   OH240702   3.498   0.040   1.386
13586TIP3    H140703   3.491  -0.042   1.436
13586TIP3    H240704   3.410   0.076   1.387
13587TIP3   OH240705   6.817   1.652   6.421
13587TIP3    H140706   6.848   1.703   6.346
13587TIP3    H240707   6.841   1.706   6.497
13588TIP3   OH240708   2.592   2.801   3.361
13588TIP3    H140709   2.547   2.864   3.305
13588TIP3    H240710   2.684   2.826   3.356
13589TIP3   OH240711   5.829   7.545   2.909
13589TIP3    H140712   5.824   7.606   2.983
13589TIP3    H240713   5.805   7.599   2.833
13590TIP3   OH240714   7.188   1.178   4.440
13590TIP3    H140715   7.167   1.104   4.496
13590TIP3    H240716   7.280   1.167   4.418
13591TIP3   OH240717   5.742   1.131   0.188
13591TIP3    H140718   5.732   1.049   0.140
13591TIP3    H240719   5.816   1.175   0.147
13592TIP3   OH240720   7.778   1.592   3.566
13592TIP3    H140721   7.710   1.658   3.558
13592TIP3    H240722   7.796   1.587   3.660
13593TIP3   OH240723   0.120   1.815   1.304
13593TIP3    H140724   0.207   1.785   1.275
13593TIP3    H240725   0.076   1.841   1.224
13594TIP3   OH240726   2.344   6.871   5.789
13594TIP3    H140727   2.299   6.926   5.853
13594TIP3    H240728   2.342   6.783   5.828
13595TIP3   OH240729   3.211   2.430   2.758
13595TIP3    H140730   3.239   2.481   2.835
13595TIP3    H240731   3.200   2.496   2.690
13596TIP3   OH240732   0.334   5.351   0.728
13596TIP3    H140733   0.256   5.405   0.744
13596TIP3    H240734   0.302   5.280   0.671
13597TIP3   OH240735   1.154   6.180   5.995
13597TIP3    H140736   1.187   6.196   5.907
13597TIP3    H240737   1.226   6.206   6.053
13598TIP3   OH240738   2.364   3.330   3.788
13598TIP3    H140739   2.383   3.343   3.881
13598TIP3    H240740   2.428   3.385   3.743
13599TIP3   OH240741   1.623   0.331   0.658
13599TIP3    H140742   1.567   0.396   0.700
13599TIP3    H240743   1.619   0.255   0.716
13600TIP3   OH240744   5.627   2.892   5.679
13600TIP3    H140745   5.698   2.830   5.699
13600TIP3    H240746   5.638   2.962   5.743
13601TIP3   OH240747   2.644   3.084   5.313
13601TIP3    H140748   2.733   3.065   5.343
13601TIP3    H240749   2.594   3.004   5.332
13602TIP3   OH240750   3.224   6.234   2.947
13602TIP3    H140751   3.211   6.185   2.866
13602TIP3    H240752   3.161   6.195   3.009
13603TIP3   OH240753   3.782   2.070   6.716
13603TIP3    H140754   3.876   2.079   6.695
13603TIP3    H240755   3.771   1.977   6.735
13604TIP3   OH240756   6.265   7.510   1.851
13604TIP3    H140757   6.207   7.464   1.791
13604TIP3    H240758   6.209   7.536   1.924
13605TIP3   OH240759   4.576   2.612   1.898
13605TIP3    H140760   4.489   2.610   1.859
13605TIP3    H240761   4.602   2.520   1.904
13606TIP3   OH240762   4.171   6.279   1.926
13606TIP3    H140763   4.090   6.322   1.953
13606TIP3    H240764   4.225   6.350   1.891
13607TIP3   OH240765   6.384   2.222   4.521
13607TIP3    H140766   6.304   2.273   4.540
13607TIP3    H240767   6.363   2.133   4.548
13608TIP3   OH240768   0.557   0.468  -0.028
13608TIP3    H140769   0.618   0.416   0.024
13608TIP3    H240770   0.533   0.542   0.028
13609TIP3   OH240771   6.621   6.705   1.645
13609TIP3    H140772   6.654   6.762   1.714
13609TIP3    H240773   6.688   6.709   1.576
13610TIP3   OH240774   3.525   6.812   2.444
13610TIP3    H140775   3.614   6.806   2.479
13610TIP3    H240776   3.499   6.720   2.430
13611TIP3   OH240777   3.867   5.402   1.341
13611TIP3    H140778   3.826   5.487   1.328
13611TIP3    H240779   3.872   5.392   1.436
13612TIP3   OH240780   4.649   7.186   4.883
13612TIP3    H140781   4.714   7.118   4.901
13612TIP3    H240782   4.690   7.240   4.815
13613TIP3   OH240783   5.235   7.439   1.769
13613TIP3    H140784   5.299   7.403   1.707
13613TIP3    H240785   5.167   7.478   1.714
13614TIP3   OH240786   0.303   5.916   4.299
13614TIP3    H140787   0.292   5.891   4.207
13614TIP3    H240788   0.346   5.842   4.340
13615TIP3   OH240789   2.709   4.721   6.608
13615TIP3    H140790   2.701   4.625   6.610
13615TIP3    H240791   2.800   4.737   6.632
13616TIP3   OH240792   5.976   4.141   4.394
13616TIP3    H140793   5.979   4.231   4.362
13616TIP3    H240794   6.053   4.133   4.451
13617TIP3   OH240795   3.763   3.771   3.399
13617TIP3    H140796   3.683   3.719   3.410
13617TIP3    H240797   3.834   3.709   3.413
13618TIP3   OH240798   5.082   1.386   5.188
13618TIP3    H140799   5.027   1.455   5.151
13618TIP3    H240800   5.122   1.426   5.265
13619TIP3   OH240801   5.378   0.277   0.349
13619TIP3    H140802   5.455   0.235   0.387
13619TIP3    H240803   5.406   0.306   0.262
13620TIP3   OH240804   3.825   5.597   5.407
13620TIP3    H140805   3.817   5.693   5.404
13620TIP3    H240806   3.747   5.566   5.360
13621TIP3   OH240807   2.416   3.298   5.327
13621TIP3    H140808   2.367   3.219   5.353
13621TIP3    H240809   2.493   3.264   5.281
13622TIP3   OH240810   6.312   4.713   0.054
13622TIP3    H140811   6.217   4.718   0.053
13622TIP3    H240812   6.333   4.634   0.004
13623TIP3   OH240813   7.747   1.266   5.226
13623TIP3    H140814   7.774   1.190   5.174
13623TIP3    H240815   7.657   1.248   5.251
13624TIP3   OH240816   0.852   0.182   3.235
13624TIP3    H140817   0.940   0.219   3.222
13624TIP3    H240818   0.804   0.208   3.156
13625TIP3   OH240819   4.014   2.061   2.685
13625TIP3    H140820   4.102   2.023   2.683
13625TIP3    H240821   4.027   2.151   2.655
13626TIP3   OH240822   1.106   1.907   3.080
13626TIP3    H140823   1.148   1.929   3.164
13626TIP3    H240824   1.030   1.964   3.076
13627TIP3   OH240825   5.287   2.016   4.002
13627TIP3    H140826   5.324   2.007   3.914
13627TIP3    H240827   5.293   2.110   4.020
13628TIP3   OH240828   5.998   5.506   0.551
13628TIP3    H140829   5.968   5.575   0.492
13628TIP3    H240830   5.929   5.439   0.547
13629TIP3   OH240831   1.045   4.041   6.509
13629TIP3    H140832   1.003   4.072   6.588
13629TIP3    H240833   0.973   4.014   6.452
13630TIP3   OH240834   5.963   3.567   0.401
13630TIP3    H140835   5.999   3.554   0.313
13630TIP3    H240836   6.023   3.519   0.459
13631TIP3   OH240837   7.645   6.230   3.675
13631TIP3    H140838   7.650   6.196   3.764
13631TIP3    H240839   7.731   6.210   3.637
13632TIP3   OH240840   2.662   3.700   4.215
13632TIP3    H140841   2.678   3.778   4.163
13632TIP3    H240842   2.712   3.631   4.171
13633TIP3   OH240843   2.791   6.658   4.332
13633TIP3    H140844   2.710   6.645   4.281
13633TIP3    H240845   2.801   6.753   4.337
13634TIP3   OH240846   7.360   6.206   2.705
13634TIP3    H140847   7.266   6.216   2.696
13634TIP3    H240848   7.372   6.159   2.787
13635TIP3   OH240849   8.028   3.003   3.852
13635TIP3    H140850   7.975   2.923   3.850
13635TIP3    H240851   8.088   2.993   3.778
13636TIP3   OH240852   0.189   6.596   3.974
13636TIP3    H140853   0.105   6.585   4.018
13636TIP3    H240854   0.190   6.688   3.946
13637TIP3   OH240855   2.699   2.339   2.021
13637TIP3    H140856   2.616   2.319   1.978
13637TIP3    H240857   2.745   2.255   2.024
13638TIP3   OH240858   2.113   4.939   3.995
13638TIP3    H140859   2.146   4.856   3.961
13638TIP3    H240860   2.169   5.006   3.955
13639TIP3   OH240861   7.164   4.472   6.502
13639TIP3    H140862   7.201   4.418   6.432
13639TIP3    H240863   7.203   4.558   6.488
13640TIP3   OH240864   7.454   0.758   2.048
13640TIP3    H140865   7.372   0.709   2.054
13640TIP3    H240866   7.520   0.692   2.029
13641TIP3   OH240867   7.241   4.938   2.097
13641TIP3    H140868   7.297   4.921   2.173
13641TIP3    H240869   7.200   5.021   2.116
13642TIP3   OH240870   4.748   5.721   4.359
13642TIP3    H140871   4.732   5.721   4.265
13642TIP3    H240872   4.817   5.656   4.372
13643TIP3   OH240873   5.678   2.777   0.899
13643TIP3    H140874   5.633   2.692   0.905
13643TIP3    H240875   5.736   2.767   0.824
13644TIP3   OH240876   0.117   2.442   5.515
13644TIP3    H140877   0.077   2.507   5.573
13644TIP3    H240878   0.070   2.452   5.432
13645TIP3   OH240879   0.342   2.797   3.675
13645TIP3    H140880   0.364   2.855   3.602
13645TIP3    H240881   0.368   2.846   3.753
13646TIP3   OH240882   5.228   0.949   4.926
13646TIP3    H140883   5.208   0.992   5.008
13646TIP3    H240884   5.276   0.870   4.951
13647TIP3   OH240885   3.101   5.119   1.214
13647TIP3    H140886   3.192   5.148   1.211
13647TIP3    H240887   3.096   5.046   1.152
13648TIP3   OH240888   2.378   7.816   2.715
13648TIP3    H140889   2.292   7.789   2.747
13648TIP3    H240890   2.436   7.743   2.739
13649TIP3   OH240891   0.092   0.427   0.654
13649TIP3    H140892   0.009   0.456   0.693
13649TIP3    H240893   0.154   0.498   0.673
13650TIP3   OH240894   0.881   3.010   1.010
13650TIP3    H140895   0.807   2.956   1.039
13650TIP3    H240896   0.947   2.948   0.980
13651TIP3   OH240897   6.472   6.702   1.961
13651TIP3    H140898   6.545   6.676   2.018
13651TIP3    H240899   6.426   6.620   1.943
13652TIP3   OH240900   8.132   2.067   2.253
13652TIP3    H140901   8.191   2.082   2.327
13652TIP3    H240902   8.051   2.111   2.278
13653TIP3   OH240903   1.906   3.799   5.489
13653TIP3    H140904   1.978   3.860   5.473
13653TIP3    H240905   1.851   3.806   5.411
13654TIP3   OH240906   7.030   3.247   3.059
13654TIP3    H140907   7.032   3.319   2.996
13654TIP3    H240908   7.108   3.260   3.114
13655TIP3   OH240909   8.264   7.199   3.232
13655TIP3    H140910   8.204   7.265   3.265
13655TIP3    H240911   8.343   7.207   3.285
13656TIP3   OH240912   6.339   7.042   4.707
13656TIP3    H140913   6.412   7.087   4.750
13656TIP3    H240914   6.329   7.086   4.623
13657TIP3   OH240915   2.526   2.401   0.630
13657TIP3    H140916   2.505   2.318   0.674
13657TIP3    H240917   2.587   2.445   0.689
13658TIP3   OH240918   3.603   0.992   1.074
13658TIP3    H140919   3.513   0.993   1.107
13658TIP3    H240920   3.594   0.973   0.980
13659TIP3   OH240921   3.300   1.279   2.649
13659TIP3    H140922   3.237   1.292   2.578
13659TIP3    H240923   3.331   1.368   2.669
13660TIP3   OH240924   5.179   5.267   5.995
13660TIP3    H140925   5.203   5.198   5.933
13660TIP3    H240926   5.248   5.264   6.061
13661TIP3   OH240927   0.210   3.647   0.580
13661TIP3    H140928   0.244   3.736   0.571
13661TIP3    H240929   0.128   3.647   0.530
13662TIP3   OH240930   6.937   3.393   2.174
13662TIP3    H140931   6.878   3.366   2.244
13662TIP3    H240932   7.011   3.434   2.220
13663TIP3   OH240933   4.701   2.277   4.821
13663TIP3    H140934   4.759   2.240   4.887
13663TIP3    H240935   4.653   2.346   4.867
13664TIP3   OH240936   0.127   6.704   0.436
13664TIP3    H140937   0.121   6.651   0.516
13664TIP3    H240938   0.039   6.737   0.423
13665TIP3   OH240939   6.538   6.214   0.467
13665TIP3    H140940   6.623   6.175   0.449
13665TIP3    H240941   6.552   6.308   0.461
13666TIP3   OH240942   5.968   6.736   6.327
13666TIP3    H140943   6.025   6.706   6.257
13666TIP3    H240944   6.015   6.809   6.367
13667TIP3   OH240945   4.084   1.819   6.649
13667TIP3    H140946   4.079   1.736   6.602
13667TIP3    H240947   4.068   1.796   6.740
13668TIP3   OH240948   0.507   6.612   5.359
13668TIP3    H140949   0.547   6.538   5.313
13668TIP3    H240950   0.546   6.610   5.446
13669TIP3   OH240951   4.945   5.753   3.799
13669TIP3    H140952   4.888   5.815   3.844
13669TIP3    H240953   4.929   5.770   3.706
13670TIP3   OH240954   4.623   0.975   6.158
13670TIP3    H140955   4.622   1.025   6.239
13670TIP3    H240956   4.564   1.023   6.100
13671TIP3   OH240957   2.209   2.489   5.437
13671TIP3    H140958   2.244   2.542   5.508
13671TIP3    H240959   2.170   2.552   5.377
13672TIP3   OH240960   8.025   1.872   2.070
13672TIP3    H140961   8.059   1.955   2.103
13672TIP3    H240962   7.950   1.897   2.016
13673TIP3   OH240963   3.016   1.144   1.289
13673TIP3    H140964   3.038   1.232   1.257
13673TIP3    H240965   2.939   1.119   1.238
13674TIP3   OH240966   6.939   5.111   6.390
13674TIP3    H140967   6.971   5.067   6.312
13674TIP3    H240968   6.959   5.051   6.462
13675TIP3   OH240969   2.041   6.979   5.781
13675TIP3    H140970   2.036   6.916   5.709
13675TIP3    H240971   1.955   6.972   5.825
13676TIP3   OH240972   5.471   3.299   1.410
13676TIP3    H140973   5.565   3.285   1.400
13676TIP3    H240974   5.432   3.251   1.337
13677TIP3   OH240975   1.728   7.077   0.475
13677TIP3    H140976   1.766   7.014   0.413
13677TIP3    H240977   1.635   7.078   0.453
13678TIP3   OH240978   7.292   3.678   6.149
13678TIP3    H140979   7.290   3.774   6.141
13678TIP3    H240980   7.343   3.662   6.228
13679TIP3   OH240981   1.846   5.478   0.903
13679TIP3    H140982   1.797   5.491   0.984
13679TIP3    H240983   1.901   5.402   0.920
13680TIP3   OH240984   0.175   6.908   5.909
13680TIP3    H140985   0.101   6.880   5.854
13680TIP3    H240986   0.229   6.961   5.851
13681TIP3   OH240987   1.152   0.217   0.892
13681TIP3    H140988   1.206   0.151   0.935
13681TIP3    H240989   1.188   0.224   0.803
13682TIP3   OH240990   1.740   5.719   3.033
13682TIP3    H140991   1.701   5.754   3.114
13682TIP3    H240992   1.832   5.748   3.037
13683TIP3   OH240993   1.289   4.228   2.523
13683TIP3    H140994   1.253   4.308   2.485
13683TIP3    H240995   1.359   4.258   2.581
13684TIP3   OH240996   1.927   3.538   2.849
13684TIP3    H140997   1.893   3.460   2.893
13684TIP3    H240998   1.994   3.572   2.908
13685TIP3   OH240999   7.865   0.398   2.873
13685TIP3    H141000   7.792   0.395   2.812
13685TIP3    H241001   7.868   0.489   2.903
13686TIP3   OH241002   7.797   1.302   4.840
13686TIP3    H141003   7.878   1.282   4.888
13686TIP3    H241004   7.755   1.370   4.892
13687TIP3   OH241005   3.128   0.569   3.023
13687TIP3    H141006   3.093   0.496   3.074
13687TIP3    H241007   3.119   0.541   2.932
13688TIP3   OH241008   0.530   5.368   5.581
13688TIP3    H141009   0.538   5.418   5.662
13688TIP3    H241010   0.489   5.286   5.609
13689TIP3   OH241011   4.331   2.471   2.576
13689TIP3    H141012   4.293   2.548   2.536
13689TIP3    H241013   4.397   2.441   2.513
13690TIP3   OH241014   3.230   3.044   6.103
13690TIP3    H141015   3.283   3.114   6.141
13690TIP3    H241016   3.140   3.071   6.117
13691TIP3   OH241017   7.658   5.750   5.696
13691TIP3    H141018   7.581   5.718   5.743
13691TIP3    H241019   7.648   5.716   5.607
13692TIP3   OH241020   1.484   5.831   6.389
13692TIP3    H141021   1.446   5.870   6.467
13692TIP3    H241022   1.463   5.892   6.319
13693TIP3   OH241023   1.583   0.139   0.828
13693TIP3    H141024   1.662   0.132   0.881
13693TIP3    H241025   1.557   0.048   0.813
13694TIP3   OH241026   2.459   0.794   1.590
13694TIP3    H141027   2.454   0.787   1.495
13694TIP3    H241028   2.386   0.741   1.622
13695TIP3   OH241029   3.641   6.412   1.604
13695TIP3    H141030   3.597   6.497   1.595
13695TIP3    H241031   3.730   6.435   1.630
13696TIP3   OH241032   6.224   1.406   6.121
13696TIP3    H141033   6.253   1.325   6.079
13696TIP3    H241034   6.302   1.441   6.163
13697TIP3   OH241035   7.114   4.800   3.902
13697TIP3    H141036   7.199   4.836   3.925
13697TIP3    H241037   7.107   4.720   3.954
13698TIP3   OH241038   5.496   1.032   2.003
13698TIP3    H141039   5.536   1.035   2.090
13698TIP3    H241040   5.462   0.943   1.995
13699TIP3   OH241041   4.348   4.943   2.682
13699TIP3    H141042   4.268   4.963   2.730
13699TIP3    H241043   4.380   4.862   2.720
13700TIP3   OH241044   3.304   6.995   6.281
13700TIP3    H141045   3.338   6.909   6.256
13700TIP3    H241046   3.336   7.009   6.370
13701TIP3   OH241047   8.123   6.215   6.426
13701TIP3    H141048   8.161   6.300   6.404
13701TIP3    H241049   8.187   6.151   6.396
13702TIP3   OH241050   7.104   7.619   5.284
13702TIP3    H141051   7.063   7.533   5.292
13702TIP3    H241052   7.043   7.678   5.329
13703TIP3   OH241053   5.224   2.602   5.978
13703TIP3    H141054   5.158   2.668   6.000
13703TIP3    H241055   5.277   2.643   5.910
13704TIP3   OH241056   4.094   4.594   4.530
13704TIP3    H141057   4.047   4.655   4.587
13704TIP3    H241058   4.052   4.604   4.445
13705TIP3   OH241059   0.671   0.624   3.363
13705TIP3    H141060   0.757   0.664   3.349
13705TIP3    H241061   0.673   0.542   3.314
13706TIP3   OH241062   1.117   6.462   3.666
13706TIP3    H141063   1.211   6.478   3.678
13706TIP3    H241064   1.112   6.410   3.586
13707TIP3   OH241065   6.956   1.474   2.949
13707TIP3    H141066   6.865   1.497   2.970
13707TIP3    H241067   6.968   1.387   2.987
13708TIP3   OH241068   3.091   3.943   3.139
13708TIP3    H141069   3.000   3.956   3.168
13708TIP3    H241070   3.085   3.879   3.068
13709TIP3   OH241071   5.128   1.015   1.232
13709TIP3    H141072   5.197   0.952   1.251
13709TIP3    H241073   5.063   0.965   1.183
13710TIP3   OH241074   2.371   0.296   6.388
13710TIP3    H141075   2.441   0.343   6.343
13710TIP3    H241076   2.302   0.361   6.399
13711TIP3   OH241077   8.203   1.056   2.611
13711TIP3    H141078   8.157   0.996   2.551
13711TIP3    H241079   8.265   0.999   2.657
13712TIP3   OH241080   7.717   6.169   4.976
13712TIP3    H141081   7.785   6.106   5.001
13712TIP3    H241082   7.635   6.120   4.979
13713TIP3   OH241083   1.500   0.276   1.754
13713TIP3    H141084   1.490   0.181   1.757
13713TIP3    H241085   1.486   0.305   1.844
13714TIP3   OH241086   3.908   4.171   6.165
13714TIP3    H141087   3.931   4.241   6.104
13714TIP3    H241088   3.886   4.216   6.246
13715TIP3   OH241089   5.544   1.484   1.622
13715TIP3    H141090   5.474   1.421   1.636
13715TIP3    H241091   5.621   1.430   1.603
13716TIP3   OH241092   7.672   5.347   4.644
13716TIP3    H141093   7.646   5.286   4.574
13716TIP3    H241094   7.696   5.291   4.717
13717TIP3   OH241095   1.382   5.741   4.449
13717TIP3    H141096   1.367   5.739   4.543
13717TIP3    H241097   1.447   5.810   4.436
13718TIP3   OH241098   4.034   1.506   1.041
13718TIP3    H141099   4.110   1.556   1.069
13718TIP3    H241100   3.991   1.480   1.123
13719TIP3   OH241101   6.640   4.763   6.068
13719TIP3    H141102   6.557   4.794   6.102
13719TIP3    H241103   6.663   4.824   5.998
13720TIP3   OH241104   4.344   6.717   5.207
13720TIP3    H141105   4.353   6.698   5.114
13720TIP3    H241106   4.268   6.666   5.235
13721TIP3   OH241107   2.347   2.857   3.210
13721TIP3    H141108   2.386   2.911   3.141
13721TIP3    H241109   2.373   2.768   3.188
13722TIP3   OH241110   0.977   1.230   0.213
13722TIP3    H141111   0.911   1.161   0.209
13722TIP3    H241112   0.998   1.238   0.306
13723TIP3   OH241113   3.182   2.602   0.525
13723TIP3    H141114   3.158   2.515   0.556
13723TIP3    H241115   3.264   2.588   0.476
13724TIP3   OH241116   1.795   3.895   1.571
13724TIP3    H141117   1.846   3.816   1.588
13724TIP3    H241118   1.715   3.884   1.622
13725TIP3   OH241119   4.183   0.303   3.208
13725TIP3    H141120   4.117   0.251   3.163
13725TIP3    H241121   4.211   0.248   3.282
13726TIP3   OH241122   1.710   4.973   6.038
13726TIP3    H141123   1.633   4.993   6.091
13726TIP3    H241124   1.697   4.883   6.008
13727TIP3   OH241125   4.065   1.521   2.856
13727TIP3    H141126   4.051   1.480   2.770
13727TIP3    H241127   4.111   1.603   2.835
13728TIP3   OH241128   2.126   0.508   6.109
13728TIP3    H141129   2.032   0.512   6.122
13728TIP3    H241130   2.155   0.599   6.123
13729TIP3   OH241131   2.687   7.117   1.261
13729TIP3    H141132   2.652   7.106   1.173
13729TIP3    H241133   2.687   7.211   1.275
13730TIP3   OH241134   7.463   3.054   3.408
13730TIP3    H141135   7.473   3.031   3.500
13730TIP3    H241136   7.504   3.140   3.400
13731TIP3   OH241137   0.068   4.558   1.088
13731TIP3    H141138   0.081   4.541   1.181
13731TIP3    H241139   0.104   4.646   1.074
13732TIP3   OH241140   0.079   2.502   2.639
13732TIP3    H141141   0.052   2.591   2.663
13732TIP3    H241142   0.136   2.475   2.710
13733TIP3   OH241143   2.225   5.299   0.687
13733TIP3    H141144   2.287   5.370   0.705
13733TIP3    H241145   2.189   5.277   0.772
13734TIP3   OH241146   4.839   3.526   3.191
13734TIP3    H141147   4.826   3.526   3.286
13734TIP3    H241148   4.783   3.456   3.158
13735TIP3   OH241149   0.461   5.739   3.843
13735TIP3    H141150   0.387   5.799   3.856
13735TIP3    H241151   0.461   5.683   3.920
13736TIP3   OH241152   0.771   7.839   6.254
13736TIP3    H141153   0.746   7.818   6.164
13736TIP3    H241154   0.800   7.755   6.291
13737TIP3   OH241155   4.699   5.704   0.945
13737TIP3    H141156   4.625   5.748   0.987
13737TIP3    H241157   4.720   5.631   1.004
13738TIP3   OH241158   2.907   4.734   5.781
13738TIP3    H141159   2.965   4.759   5.853
13738TIP3    H241160   2.927   4.641   5.765
13739TIP3   OH241161   5.026   6.850   1.012
13739TIP3    H141162   5.058   6.930   1.054
13739TIP3    H241163   4.933   6.846   1.035
13740TIP3   OH241164   3.888   1.550   3.115
13740TIP3    H141165   3.894   1.537   3.020
13740TIP3    H241166   3.966   1.508   3.150
13741TIP3   OH241167   0.201   1.393   2.084
13741TIP3    H141168   0.247   1.352   2.011
13741TIP3    H241169   0.127   1.335   2.102
13742TIP3   OH241170   1.292   4.043   5.740
13742TIP3    H141171   1.249   4.085   5.666
13742TIP3    H241172   1.382   4.027   5.709
13743TIP3   OH241173   7.052   3.595   1.408
13743TIP3    H141174   7.043   3.501   1.390
13743TIP3    H241175   7.010   3.607   1.493
13744TIP3   OH241176   3.918   5.448   5.748
13744TIP3    H141177   3.975   5.522   5.725
13744TIP3    H241178   3.972   5.391   5.802
13745TIP3   OH241179   3.218   5.763   4.428
13745TIP3    H141180   3.199   5.716   4.509
13745TIP3    H241181   3.312   5.783   4.434
13746TIP3   OH241182   3.268   7.407   1.354
13746TIP3    H141183   3.227   7.394   1.440
13746TIP3    H241184   3.238   7.493   1.326
13747TIP3   OH241185   5.722   3.164   4.946
13747TIP3    H141186   5.704   3.193   5.036
13747TIP3    H241187   5.683   3.232   4.891
13748TIP3   OH241188   6.147   1.225   3.396
13748TIP3    H141189   6.138   1.298   3.334
13748TIP3    H241190   6.127   1.263   3.481
13749TIP3   OH241191   7.151   1.688   6.189
13749TIP3    H141192   7.241   1.699   6.157
13749TIP3    H241193   7.159   1.687   6.284
13750TIP3   OH241194   7.418   5.039   5.443
13750TIP3    H141195   7.507   5.010   5.463
13750TIP3    H241196   7.431   5.123   5.399
13751TIP3   OH241197   1.883   0.628   5.333
13751TIP3    H141198   1.812   0.692   5.321
13751TIP3    H241199   1.837   0.546   5.354
13752TIP3   OH241200   2.839   2.209   0.582
13752TIP3    H141201   2.881   2.157   0.514
13752TIP3    H241202   2.774   2.151   0.621
13753TIP3   OH241203   3.336   2.272   5.934
13753TIP3    H141204   3.297   2.352   5.902
13753TIP3    H241205   3.430   2.284   5.922
13754TIP3   OH241206   6.565   7.553   0.547
13754TIP3    H141207   6.560   7.600   0.631
13754TIP3    H241208   6.474   7.545   0.519
13755TIP3   OH241209   5.384   3.292   6.593
13755TIP3    H141210   5.420   3.237   6.523
13755TIP3    H241211   5.334   3.360   6.547
13756TIP3   OH241212   8.194   1.475   5.109
13756TIP3    H141213   8.143   1.555   5.115
13756TIP3    H241214   8.285   1.505   5.108
13757TIP3   OH241215   2.154   6.856   1.340
13757TIP3    H141216   2.072   6.807   1.334
13757TIP3    H241217   2.166   6.893   1.252
13758TIP3   OH241218   4.031   0.824   3.435
13758TIP3    H141219   3.967   0.761   3.404
13758TIP3    H241220   4.109   0.772   3.453
13759TIP3   OH241221   3.613   2.758   2.917
13759TIP3    H141222   3.591   2.665   2.913
13759TIP3    H241223   3.533   2.803   2.890
13760TIP3   OH241224   6.226   1.043   0.757
13760TIP3    H141225   6.183   0.968   0.798
13760TIP3    H241226   6.299   1.005   0.708
13761TIP3   OH241227   2.076   7.625   0.998
13761TIP3    H141228   2.126   7.578   1.065
13761TIP3    H241229   2.134   7.695   0.969
13762TIP3   OH241230   1.988   2.759   6.013
13762TIP3    H141231   1.955   2.672   6.037
13762TIP3    H241232   2.067   2.770   6.066
13763TIP3   OH241233   3.678   2.232   5.429
13763TIP3    H141234   3.588   2.211   5.401
13763TIP3    H241235   3.691   2.322   5.402
13764TIP3   OH241236   4.605   7.471   2.875
13764TIP3    H141237   4.523   7.492   2.919
13764TIP3    H241238   4.656   7.423   2.940
13765TIP3   OH241239   3.719   5.107   2.518
13765TIP3    H141240   3.781   5.176   2.494
13765TIP3    H241241   3.769   5.047   2.574
13766TIP3   OH241242   4.417   1.977   3.340
13766TIP3    H141243   4.355   1.942   3.277
13766TIP3    H241244   4.490   2.010   3.287
13767TIP3   OH241245   1.816   2.024   4.026
13767TIP3    H141246   1.726   2.032   4.059
13767TIP3    H241247   1.850   2.113   4.026
13768TIP3   OH241248   3.712   2.753   5.677
13768TIP3    H141249   3.629   2.708   5.664
13768TIP3    H241250   3.771   2.715   5.612
13769TIP3   OH241251   3.864   4.111   2.606
13769TIP3    H141252   3.843   4.074   2.692
13769TIP3    H241253   3.894   4.036   2.554
13770TIP3   OH241254   6.500   0.558   1.818
13770TIP3    H141255   6.435   0.497   1.852
13770TIP3    H241256   6.496   0.633   1.878
13771TIP3   OH241257   7.442   3.245   5.264
13771TIP3    H141258   7.401   3.316   5.214
13771TIP3    H241259   7.534   3.245   5.236
13772TIP3   OH241260   5.453   2.323   4.710
13772TIP3    H141261   5.400   2.284   4.779
13772TIP3    H241262   5.525   2.367   4.756
13773TIP3   OH241263   1.058   6.840   2.692
13773TIP3    H141264   1.067   6.836   2.787
13773TIP3    H241265   0.980   6.787   2.674
13774TIP3   OH241266   0.585   5.013   4.041
13774TIP3    H141267   0.556   5.024   3.951
13774TIP3    H241268   0.560   4.923   4.064
13775TIP3   OH241269   2.986   2.343   2.294
13775TIP3    H141270   3.026   2.257   2.291
13775TIP3    H241271   2.989   2.375   2.204
13776TIP3   OH241272   2.282   1.705   4.822
13776TIP3    H141273   2.347   1.646   4.783
13776TIP3    H241274   2.242   1.653   4.891
13777TIP3   OH241275   4.243   4.754   3.261
13777TIP3    H141276   4.187   4.692   3.214
13777TIP3    H241277   4.315   4.771   3.201
13778TIP3   OH241278   6.715   6.550   6.385
13778TIP3    H141279   6.667   6.500   6.319
13778TIP3    H241280   6.673   6.526   6.468
13779TIP3   OH241281   1.322   1.361   3.599
13779TIP3    H141282   1.252   1.384   3.537
13779TIP3    H241283   1.303   1.271   3.624
13780TIP3   OH241284   5.319   3.920   0.872
13780TIP3    H141285   5.275   3.956   0.795
13780TIP3    H241286   5.257   3.857   0.908
13781TIP3   OH241287   1.567   3.078   1.511
13781TIP3    H141288   1.539   3.111   1.596
13781TIP3    H241289   1.493   3.025   1.481
13782TIP3   OH241290   7.236   4.817   4.745
13782TIP3    H141291   7.236   4.743   4.684
13782TIP3    H241292   7.159   4.868   4.721
13783TIP3   OH241293   2.168   2.468   0.876
13783TIP3    H141294   2.173   2.488   0.782
13783TIP3    H241295   2.075   2.474   0.897
13784TIP3   OH241296   2.898   2.507   0.092
13784TIP3    H141297   2.977   2.552   0.063
13784TIP3    H241298   2.883   2.539   0.181
13785TIP3   OH241299   7.329   4.462   4.264
13785TIP3    H141300   7.248   4.430   4.303
13785TIP3    H241301   7.382   4.384   4.250
13786TIP3   OH241302   1.071   2.637   2.226
13786TIP3    H141303   1.099   2.560   2.274
13786TIP3    H241304   1.094   2.619   2.135
13787TIP3   OH241305   7.810   1.865   4.157
13787TIP3    H141306   7.720   1.897   4.146
13787TIP3    H241307   7.802   1.770   4.153
13788TIP3   OH241308   3.742   2.452   6.246
13788TIP3    H141309   3.674   2.477   6.183
13788TIP3    H241310   3.705   2.378   6.294
13789TIP3   OH241311   7.446   1.384   0.503
13789TIP3    H141312   7.431   1.437   0.425
13789TIP3    H241313   7.380   1.413   0.566
13790TIP3   OH241314   7.467   0.496   1.720
13790TIP3    H141315   7.481   0.582   1.680
13790TIP3    H241316   7.514   0.500   1.804
13791TIP3   OH241317   4.392   4.988   5.178
13791TIP3    H141318   4.438   5.072   5.182
13791TIP3    H241319   4.462   4.924   5.167
13792TIP3   OH241320   8.069   7.121   3.035
13792TIP3    H141321   8.126   7.130   3.111
13792TIP3    H241322   8.011   7.047   3.056
13793TIP3   OH241323   2.525   1.043   1.002
13793TIP3    H141324   2.558   1.058   0.914
13793TIP3    H241325   2.458   0.975   0.991
13794TIP3   OH241326   7.447   4.094   3.170
13794TIP3    H141327   7.521   4.049   3.131
13794TIP3    H241328   7.433   4.051   3.254
13795TIP3   OH241329   6.947   1.741   6.662
13795TIP3    H141330   7.039   1.721   6.681
13795TIP3    H241331   6.916   1.786   6.741
13796TIP3   OH241332   1.975   5.803   5.244
13796TIP3    H141333   1.975   5.723   5.296
13796TIP3    H241334   2.050   5.853   5.277
13797TIP3   OH241335   1.358   4.069   0.883
13797TIP3    H141336   1.365   3.974   0.879
13797TIP3    H241337   1.357   4.090   0.976
13798TIP3   OH241338   5.546   1.577   3.607
13798TIP3    H141339   5.519   1.665   3.581
13798TIP3    H241340   5.570   1.534   3.524
13799TIP3   OH241341   0.869   5.672   3.571
13799TIP3    H141342   0.786   5.710   3.598
13799TIP3    H241343   0.855   5.577   3.575
13800TIP3   OH241344   5.474   3.456   3.745
13800TIP3    H141345   5.539   3.404   3.791
13800TIP3    H241346   5.514   3.543   3.737
13801TIP3   OH241347   1.268   6.283   1.382
13801TIP3    H141348   1.290   6.269   1.474
13801TIP3    H241349   1.210   6.359   1.382
13802TIP3   OH241350   3.440   5.285   6.181
13802TIP3    H141351   3.434   5.357   6.242
13802TIP3    H241352   3.502   5.314   6.114
13803TIP3   OH241353   1.268   4.720   1.784
13803TIP3    H141354   1.253   4.681   1.698
13803TIP3    H241355   1.208   4.674   1.843
13804TIP3   OH241356   8.124   6.297   1.756
13804TIP3    H141357   8.157   6.372   1.805
13804TIP3    H241358   8.192   6.231   1.763
13805TIP3   OH241359   8.128   1.856   0.725
13805TIP3    H141360   8.044   1.811   0.735
13805TIP3    H241361   8.173   1.806   0.658
13806TIP3   OH241362   6.217   0.806   2.606
13806TIP3    H141363   6.161   0.884   2.600
13806TIP3    H241364   6.195   0.768   2.691
13807TIP3   OH241365   8.009   7.463   4.894
13807TIP3    H141366   7.933   7.491   4.946
13807TIP3    H241367   8.047   7.545   4.862
13808TIP3   OH241368   5.685   4.943   6.353
13808TIP3    H141369   5.671   5.030   6.315
13808TIP3    H241370   5.762   4.909   6.307
13809TIP3   OH241371   7.272   0.831   4.023
13809TIP3    H141372   7.218   0.834   3.944
13809TIP3    H241373   7.211   0.844   4.095
13810TIP3   OH241374   0.202   4.955   0.302
13810TIP3    H141375   0.244   4.964   0.216
13810TIP3    H241376   0.145   5.032   0.308
13811TIP3   OH241377   2.712   6.519   0.124
13811TIP3    H141378   2.623   6.519   0.159
13811TIP3    H241379   2.732   6.426   0.111
13812TIP3   OH241380   1.475   3.723   3.517
13812TIP3    H141381   1.530   3.645   3.505
13812TIP3    H241382   1.535   3.789   3.552
13813TIP3   OH241383   5.688   0.164   3.656
13813TIP3    H141384   5.643   0.209   3.727
13813TIP3    H241385   5.707   0.077   3.691
13814TIP3   OH241386   4.112   1.832   4.558
13814TIP3    H141387   4.142   1.769   4.624
13814TIP3    H241388   4.130   1.917   4.598
13815TIP3   OH241389   7.255   3.922   2.332
13815TIP3    H141390   7.192   3.852   2.348
13815TIP3    H241391   7.219   3.998   2.378
13816TIP3   OH241392   3.674   5.116   6.261
13816TIP3    H141393   3.687   5.022   6.248
13816TIP3    H241394   3.597   5.137   6.208
13817TIP3   OH241395   2.616   1.646   3.052
13817TIP3    H141396   2.549   1.649   3.121
13817TIP3    H241397   2.697   1.628   3.099
13818TIP3   OH241398  -0.003   2.653   1.382
13818TIP3    H141399   0.056   2.704   1.327
13818TIP3    H241400   0.048   2.576   1.407
13819TIP3   OH241401   2.571   4.646   3.977
13819TIP3    H141402   2.490   4.595   3.974
13819TIP3    H241403   2.619   4.610   4.052
13820TIP3   OH241404   1.736   5.149   3.460
13820TIP3    H141405   1.662   5.181   3.511
13820TIP3    H241406   1.713   5.059   3.438
13821TIP3   OH241407   3.336   6.947   5.953
13821TIP3    H141408   3.358   6.956   6.046
13821TIP3    H241409   3.397   6.881   5.920
13822TIP3   OH241410   6.925   6.030   1.512
13822TIP3    H141411   6.864   6.056   1.581
13822TIP3    H241412   7.005   6.078   1.531
13823TIP3   OH241413   2.308   7.669   3.725
13823TIP3    H141414   2.399   7.654   3.751
13823TIP3    H241415   2.289   7.759   3.752
13824TIP3   OH241416   3.891   1.080   2.848
13824TIP3    H141417   3.868   1.173   2.842
13824TIP3    H241418   3.978   1.074   2.810
13825TIP3   OH241419   4.613   1.886   2.481
13825TIP3    H141420   4.658   1.957   2.526
13825TIP3    H241421   4.624   1.810   2.539
13826TIP3   OH241422   4.297   3.351   4.685
13826TIP3    H141423   4.243   3.373   4.609
13826TIP3    H241424   4.384   3.383   4.662
13827TIP3   OH241425   0.217   3.817   1.110
13827TIP3    H141426   0.299   3.840   1.067
13827TIP3    H241427   0.162   3.782   1.040
13828TIP3   OH241428   4.896   6.672   5.313
13828TIP3    H141429   4.964   6.639   5.371
13828TIP3    H241430   4.814   6.657   5.361
13829TIP3   OH241431   6.315   7.739   1.153
13829TIP3    H141432   6.325   7.801   1.225
13829TIP3    H241433   6.394   7.750   1.100
13830TIP3   OH241434   7.731   0.343   0.724
13830TIP3    H141435   7.685   0.401   0.663
13830TIP3    H241436   7.677   0.343   0.803
13831TIP3   OH241437   7.381   4.302   6.374
13831TIP3    H141438   7.439   4.227   6.388
13831TIP3    H241439   7.375   4.311   6.279
13832TIP3   OH241440   3.106   4.221   3.016
13832TIP3    H141441   3.161   4.192   2.943
13832TIP3    H241442   3.098   4.144   3.072
13833TIP3   OH241443   7.656   0.055   1.394
13833TIP3    H141444   7.570   0.091   1.417
13833TIP3    H241445   7.711   0.132   1.378
13834TIP3   OH241446   3.711   0.475   6.582
13834TIP3    H141447   3.690   0.504   6.672
13834TIP3    H241448   3.788   0.526   6.559
13835TIP3   OH241449   8.039   0.797   0.032
13835TIP3    H141450   8.046   0.779   0.126
13835TIP3    H241451   8.110   0.746  -0.008
13836TIP3   OH241452   2.476   6.891   6.381
13836TIP3    H141453   2.385   6.862   6.385
13836TIP3    H241454   2.512   6.868   6.467
13837TIP3   OH241455   7.662   4.823   5.105
13837TIP3    H141456   7.597   4.759   5.077
13837TIP3    H241457   7.741   4.772   5.123
13838TIP3   OH241458   1.368   0.752   5.342
13838TIP3    H141459   1.395   0.801   5.265
13838TIP3    H241460   1.273   0.750   5.337
13839TIP3   OH241461   2.084   0.343   5.850
13839TIP3    H141462   2.062   0.429   5.886
13839TIP3    H241463   2.158   0.359   5.792
13840TIP3   OH241464   4.000   2.803   0.068
13840TIP3    H141465   4.092   2.786   0.084
13840TIP3    H241466   3.956   2.722   0.093
13841TIP3   OH241467   0.198   3.868   4.823
13841TIP3    H141468   0.112   3.893   4.856
13841TIP3    H241469   0.179   3.814   4.745
13842TIP3   OH241470   3.011   5.980   4.320
13842TIP3    H141471   3.105   5.961   4.319
13842TIP3    H241472   2.987   5.978   4.413
13843TIP3   OH241473   1.256   1.870   4.619
13843TIP3    H141474   1.202   1.883   4.697
13843TIP3    H241475   1.339   1.836   4.653
13844TIP3   OH241476   6.071   4.242   5.824
13844TIP3    H141477   6.130   4.303   5.867
13844TIP3    H241478   6.099   4.156   5.854
13845TIP3   OH241479   6.191   5.396   5.335
13845TIP3    H141480   6.268   5.378   5.389
13845TIP3    H241481   6.190   5.491   5.325
13846TIP3   OH241482   7.947   5.846   3.278
13846TIP3    H141483   7.855   5.821   3.290
13846TIP3    H241484   7.978   5.868   3.366
13847TIP3   OH241485   3.057   1.920   3.608
13847TIP3    H141486   3.153   1.919   3.605
13847TIP3    H241487   3.036   1.920   3.702
13848TIP3   OH241488   0.423   1.856   3.306
13848TIP3    H141489   0.458   1.793   3.369
13848TIP3    H241490   0.475   1.936   3.321
13849TIP3   OH241491   8.043   6.911   0.720
13849TIP3    H141492   8.089   6.860   0.786
13849TIP3    H241493   8.111   6.966   0.680
13850TIP3   OH241494   4.930   3.343   0.137
13850TIP3    H141495   4.940   3.432   0.105
13850TIP3    H241496   4.865   3.350   0.208
13851TIP3   OH241497   7.529   2.747   1.119
13851TIP3    H141498   7.498   2.724   1.032
13851TIP3    H241499   7.456   2.795   1.159
13852TIP3   OH241500   5.013   6.661   1.707
13852TIP3    H141501   4.987   6.748   1.676
13852TIP3    H241502   5.005   6.667   1.802
13853TIP3   OH241503   5.863   2.386   1.073
13853TIP3    H141504   5.915   2.465   1.063
13853TIP3    H241505   5.782   2.404   1.025
13854TIP3   OH241506   5.026   7.304   6.062
13854TIP3    H141507   5.022   7.208   6.061
13854TIP3    H241508   5.102   7.325   6.008
13855TIP3   OH241509   6.855   2.440   5.278
13855TIP3    H141510   6.853   2.534   5.261
13855TIP3    H241511   6.922   2.407   5.219
13856TIP3   OH241512   3.262   6.163   3.870
13856TIP3    H141513   3.179   6.153   3.823
13856TIP3    H241514   3.244   6.134   3.959
13857TIP3   OH241515   4.062   6.613   2.761
13857TIP3    H141516   4.081   6.701   2.793
13857TIP3    H241517   4.099   6.611   2.672
13858TIP3   OH241518   2.538   2.622   5.787
13858TIP3    H141519   2.450   2.653   5.766
13858TIP3    H241520   2.526   2.529   5.807
13859TIP3   OH241521   1.945   5.370   6.058
13859TIP3    H141522   1.894   5.425   6.118
13859TIP3    H241523   1.981   5.430   5.994
13860TIP3   OH241524   7.422   4.218   1.982
13860TIP3    H141525   7.503   4.169   1.964
13860TIP3    H241526   7.441   4.307   1.952
13861TIP3   OH241527   8.103   3.860   2.786
13861TIP3    H141528   8.075   3.887   2.699
13861TIP3    H241529   8.129   3.768   2.776
13862TIP3   OH241530   0.242   7.249   3.978
13862TIP3    H141531   0.185   7.203   3.916
13862TIP3    H241532   0.287   7.315   3.925
13863TIP3   OH241533   6.249   4.559   4.269
13863TIP3    H141534   6.296   4.477   4.283
13863TIP3    H241535   6.178   4.537   4.209
13864TIP3   OH241536   1.135   7.801   3.788
13864TIP3    H141537   1.203   7.848   3.838
13864TIP3    H241538   1.069   7.779   3.854
13865TIP3   OH241539   7.291   7.798   0.637
13865TIP3    H141540   7.315   7.754   0.556
13865TIP3    H241541   7.329   7.885   0.630
13866TIP3   OH241542   6.556   6.249   4.307
13866TIP3    H141543   6.505   6.170   4.327
13866TIP3    H241544   6.613   6.223   4.235
13867TIP3   OH241545   7.551   6.782   0.790
13867TIP3    H141546   7.534   6.690   0.770
13867TIP3    H241547   7.593   6.781   0.876
13868TIP3   OH241548   1.933   7.808   2.167
13868TIP3    H141549   1.910   7.778   2.255
13868TIP3    H241550   1.854   7.794   2.116
13869TIP3   OH241551   2.072   1.929   5.621
13869TIP3    H141552   2.012   1.973   5.682
13869TIP3    H241553   2.014   1.880   5.562
13870TIP3   OH241554   3.602   4.931   3.438
13870TIP3    H141555   3.567   4.992   3.373
13870TIP3    H241556   3.529   4.918   3.499
13871TIP3   OH241557   4.344   4.718   0.705
13871TIP3    H141558   4.367   4.657   0.775
13871TIP3    H241559   4.269   4.767   0.739
13872TIP3   OH241560   3.272   2.059   3.520
13872TIP3    H141561   3.319   2.072   3.438
13872TIP3    H241562   3.227   2.142   3.536
13873TIP3   OH241563   6.431   1.993   0.634
13873TIP3    H141564   6.387   1.982   0.550
13873TIP3    H241565   6.522   1.966   0.618
13874TIP3   OH241566   4.594   1.439   0.532
13874TIP3    H141567   4.512   1.413   0.574
13874TIP3    H241568   4.582   1.415   0.440
13875TIP3   OH241569   3.771   2.484   1.876
13875TIP3    H141570   3.865   2.492   1.895
13875TIP3    H241571   3.728   2.496   1.960
13876TIP3   OH241572   4.303   2.746   6.240
13876TIP3    H141573   4.312   2.652   6.253
13876TIP3    H241574   4.208   2.760   6.240
13877TIP3   OH241575  -0.002   0.086   2.904
13877TIP3    H141576   0.023   0.085   2.997
13877TIP3    H241577   0.064   0.033   2.860
13878TIP3   OH241578   7.269   7.059   1.546
13878TIP3    H141579   7.191   7.066   1.602
13878TIP3    H241580   7.319   7.139   1.565
13879TIP3   OH241581   5.485   3.830   3.147
13879TIP3    H141582   5.562   3.787   3.110
13879TIP3    H241583   5.519   3.906   3.194
13880TIP3   OH241584   2.000   7.349   1.023
13880TIP3    H141585   2.077   7.359   1.079
13880TIP3    H241586   1.933   7.311   1.080
13881TIP3   OH241587   7.223   4.639   1.107
13881TIP3    H141588   7.133   4.644   1.138
13881TIP3    H241589   7.255   4.729   1.110
13882TIP3   OH241590   6.605   3.478   0.167
13882TIP3    H141591   6.581   3.401   0.115
13882TIP3    H241592   6.640   3.442   0.248
13883TIP3   OH241593   8.065   2.656   4.002
13883TIP3    H141594   8.155   2.688   4.015
13883TIP3    H241595   8.071   2.562   4.017
13884TIP3   OH241596  -0.017   5.329   6.322
13884TIP3    H141597   0.015   5.415   6.294
13884TIP3    H241598   0.060   5.272   6.319
13885TIP3   OH241599   7.356   0.809   2.333
13885TIP3    H141600   7.375   0.898   2.304
13885TIP3    H241601   7.351   0.758   2.252
13886TIP3   OH241602   6.115   0.171   4.519
13886TIP3    H141603   6.133   0.118   4.596
13886TIP3    H241604   6.177   0.243   4.523
13887TIP3   OH241605   4.134   5.204   0.345
13887TIP3    H141606   4.174   5.268   0.403
13887TIP3    H241607   4.183   5.211   0.264
13888TIP3   OH241608   5.365   5.912   4.590
13888TIP3    H141609   5.274   5.936   4.573
13888TIP3    H241610   5.367   5.887   4.682
13889TIP3   OH241611   5.257   5.477   4.261
13889TIP3    H141612   5.345   5.448   4.284
13889TIP3    H241613   5.242   5.440   4.173
13890TIP3   OH241614   3.444   3.238   6.148
13890TIP3    H141615   3.536   3.229   6.125
13890TIP3    H241616   3.428   3.333   6.147
13891TIP3   OH241617   5.955   5.024   3.224
13891TIP3    H141618   6.050   5.031   3.220
13891TIP3    H241619   5.936   4.934   3.199
13892TIP3   OH241620   2.902   2.915   1.573
13892TIP3    H141621   2.845   2.856   1.621
13892TIP3    H241622   2.981   2.922   1.626
13893TIP3   OH241623   2.365   2.151   4.672
13893TIP3    H141624   2.424   2.214   4.712
13893TIP3    H241625   2.302   2.204   4.624
13894TIP3   OH241626   1.091   6.172   4.758
13894TIP3    H141627   0.999   6.173   4.730
13894TIP3    H241628   1.090   6.213   4.845
13895TIP3   OH241629   1.704   2.941   3.345
13895TIP3    H141630   1.783   2.942   3.399
13895TIP3    H241631   1.636   2.977   3.403
13896TIP3   OH241632   2.385   5.909   5.781
13896TIP3    H141633   2.477   5.893   5.802
13896TIP3    H241634   2.384   5.996   5.742
13897TIP3   OH241635   2.414   2.530   6.595
13897TIP3    H141636   2.457   2.492   6.672
13897TIP3    H241637   2.452   2.617   6.588
13898TIP3   OH241638   5.750   1.952   6.283
13898TIP3    H141639   5.823   1.939   6.344
13898TIP3    H241640   5.705   1.868   6.281
13899TIP3   OH241641   2.768   4.294   2.159
13899TIP3    H141642   2.775   4.378   2.204
13899TIP3    H241643   2.691   4.303   2.103
13900TIP3   OH241644   6.252   0.341   0.911
13900TIP3    H141645   6.244   0.436   0.917
13900TIP3    H241646   6.285   0.314   0.997
13901TIP3   OH241647   3.526   4.884   5.924
13901TIP3    H141648   3.595   4.818   5.916
13901TIP3    H241649   3.469   4.850   5.993
13902TIP3   OH241650   8.069   4.410   2.321
13902TIP3    H141651   8.153   4.435   2.359
13902TIP3    H241652   8.058   4.318   2.346
13903TIP3   OH241653   4.467   0.439   4.907
13903TIP3    H141654   4.409   0.505   4.868
13903TIP3    H241655   4.541   0.434   4.846
13904TIP3   OH241656   6.674   7.840   5.292
13904TIP3    H141657   6.682   7.758   5.242
13904TIP3    H241658   6.581   7.864   5.285
13905TIP3   OH241659   0.903   7.754   3.965
13905TIP3    H141660   0.838   7.780   3.899
13905TIP3    H241661   0.872   7.670   3.998
13906TIP3   OH241662   0.881   7.576   1.714
13906TIP3    H141663   0.950   7.639   1.734
13906TIP3    H241664   0.800   7.624   1.729
13907TIP3   OH241665   2.404   7.157   1.466
13907TIP3    H141666   2.478   7.132   1.411
13907TIP3    H241667   2.420   7.113   1.549
13908TIP3   OH241668   1.677   1.000   2.916
13908TIP3    H141669   1.639   0.914   2.899
13908TIP3    H241670   1.726   1.021   2.837
13909TIP3   OH241671   2.548   4.036   2.918
13909TIP3    H141672   2.585   4.048   2.830
13909TIP3    H241673   2.607   4.085   2.975
13910TIP3   OH241674   7.981   5.878   3.015
13910TIP3    H141675   8.056   5.935   3.001
13910TIP3    H241676   7.977   5.865   3.109
13911TIP3   OH241677   1.475   7.785   4.015
13911TIP3    H141678   1.450   7.836   3.938
13911TIP3    H241679   1.435   7.699   4.002
13912TIP3   OH241680   1.828   1.320   1.663
13912TIP3    H141681   1.901   1.333   1.603
13912TIP3    H241682   1.750   1.317   1.607
13913TIP3   OH241683   0.781   1.713   6.426
13913TIP3    H141684   0.849   1.706   6.492
13913TIP3    H241685   0.716   1.647   6.451
13914TIP3   OH241686   5.689   2.183   5.870
13914TIP3    H141687   5.782   2.162   5.877
13914TIP3    H241688   5.648   2.134   5.941
13915TIP3   OH241689   5.581   7.003   3.320
13915TIP3    H141690   5.486   6.991   3.310
13915TIP3    H241691   5.618   6.916   3.305
13916TIP3   OH241692   2.537   2.791   6.581
13916TIP3    H141693   2.628   2.797   6.551
13916TIP3    H241694   2.490   2.855   6.528
13917TIP3   OH241695   4.176   4.735   0.243
13917TIP3    H141696   4.124   4.804   0.283
13917TIP3    H241697   4.112   4.671   0.211
13918TIP3   OH241698   0.074   6.414   1.029
13918TIP3    H141699   0.100   6.471   0.957
13918TIP3    H241700   0.127   6.335   1.017
13919TIP3   OH241701   3.713   3.532   4.185
13919TIP3    H141702   3.753   3.513   4.100
13919TIP3    H241703   3.787   3.529   4.247
13920TIP3   OH241704   0.892   2.100   1.156
13920TIP3    H141705   0.918   2.022   1.206
13920TIP3    H241706   0.914   2.173   1.213
13921TIP3   OH241707   2.123   4.904   2.302
13921TIP3    H141708   2.172   4.828   2.334
13921TIP3    H241709   2.035   4.870   2.284
13922TIP3   OH241710   4.260   5.884   3.377
13922TIP3    H141711   4.235   5.866   3.286
13922TIP3    H241712   4.328   5.820   3.396
13923TIP3   OH241713   0.178   0.081   4.717
13923TIP3    H141714   0.263   0.101   4.756
13923TIP3    H241715   0.129   0.038   4.786
13924TIP3   OH241716   1.129   1.369   3.232
13924TIP3    H141717   1.127   1.454   3.189
13924TIP3    H241718   1.039   1.338   3.230
13925TIP3   OH241719   2.257   7.700   5.290
13925TIP3    H141720   2.243   7.743   5.206
13925TIP3    H241721   2.170   7.667   5.315
13926TIP3   OH241722   1.387   6.893   0.399
13926TIP3    H141723   1.428   6.900   0.313
13926TIP3    H241724   1.315   6.831   0.386
13927TIP3   OH241725   0.748   5.826   3.902
13927TIP3    H141726   0.660   5.797   3.878
13927TIP3    H241727   0.797   5.823   3.819
13928TIP3   OH241728   4.152   5.345   0.614
13928TIP3    H141729   4.058   5.359   0.603
13928TIP3    H241730   4.159   5.291   0.693
13929TIP3   OH241731   7.581   5.746   2.407
13929TIP3    H141732   7.505   5.776   2.357
13929TIP3    H241733   7.646   5.814   2.394
13930TIP3   OH241734  -0.005   6.597   3.142
13930TIP3    H141735   0.041   6.528   3.092
13930TIP3    H241736  -0.024   6.664   3.077
13931TIP3   OH241737   2.990   2.300   3.813
13931TIP3    H141738   2.968   2.390   3.836
13931TIP3    H241739   2.950   2.247   3.883
13932TIP3   OH241740   3.298   5.917   6.108
13932TIP3    H141741   3.332   5.900   6.195
13932TIP3    H241742   3.212   5.876   6.106
13933TIP3   OH241743   0.332   3.817   1.574
13933TIP3    H141744   0.244   3.853   1.587
13933TIP3    H241745   0.327   3.768   1.492
13934TIP3   OH241746   1.713   6.733   6.432
13934TIP3    H141747   1.720   6.663   6.496
13934TIP3    H241748   1.635   6.782   6.458
13935TIP3   OH241749   1.197   0.299   2.057
13935TIP3    H141750   1.136   0.256   2.117
13935TIP3    H241751   1.148   0.374   2.022
13936TIP3   OH241752   7.203   2.229   6.195
13936TIP3    H141753   7.293   2.226   6.228
13936TIP3    H241754   7.194   2.150   6.142
13937TIP3   OH241755   6.355   6.267   0.240
13937TIP3    H141756   6.421   6.252   0.173
13937TIP3    H241757   6.385   6.216   0.315
13938TIP3   OH241758   4.445   5.138   2.523
13938TIP3    H141759   4.496   5.182   2.591
13938TIP3    H241760   4.409   5.061   2.566
13939TIP3   OH241761   1.735   3.479   4.408
13939TIP3    H141762   1.710   3.530   4.331
13939TIP3    H241763   1.827   3.501   4.423
13940TIP3   OH241764   6.545   2.691   3.326
13940TIP3    H141765   6.634   2.714   3.354
13940TIP3    H241766   6.553   2.674   3.232
13941TIP3   OH241767   3.399   4.329   2.680
13941TIP3    H141768   3.487   4.315   2.645
13941TIP3    H241769   3.345   4.351   2.604
13942TIP3   OH241770   3.666   3.362   1.395
13942TIP3    H141771   3.709   3.440   1.362
13942TIP3    H241772   3.731   3.319   1.450
13943TIP3   OH241773   4.858   0.218   4.767
13943TIP3    H141774   4.846   0.147   4.704
13943TIP3    H241775   4.911   0.179   4.837
13944TIP3   OH241776   2.090   4.633   4.042
13944TIP3    H141777   2.068   4.671   4.127
13944TIP3    H241778   2.039   4.552   4.039
13945TIP3   OH241779   5.650   6.083   4.013
13945TIP3    H141780   5.584   6.110   4.077
13945TIP3    H241781   5.678   6.164   3.973
13946TIP3   OH241782   3.693   6.252   5.340
13946TIP3    H141783   3.660   6.208   5.262
13946TIP3    H241784   3.638   6.329   5.350
13947TIP3   OH241785   8.176   0.210   5.746
13947TIP3    H141786   8.248   0.253   5.793
13947TIP3    H241787   8.159   0.267   5.671
13948TIP3   OH241788   4.690   2.539   4.266
13948TIP3    H141789   4.598   2.546   4.241
13948TIP3    H241790   4.690   2.540   4.361
13949TIP3   OH241791   7.818   5.281   0.619
13949TIP3    H141792   7.836   5.228   0.542
13949TIP3    H241793   7.795   5.367   0.585
13950TIP3   OH241794   5.667   5.344   2.012
13950TIP3    H141795   5.574   5.356   2.031
13950TIP3    H241796   5.711   5.368   2.093
13951TIP3   OH241797   0.206   2.777   1.240
13951TIP3    H141798   0.272   2.836   1.277
13951TIP3    H241799   0.257   2.708   1.197
13952TIP3   OH241800   6.455   0.354   6.523
13952TIP3    H141801   6.385   0.380   6.581
13952TIP3    H241802   6.499   0.282   6.569
13953TIP3   OH241803   5.621   2.808   4.564
13953TIP3    H141804   5.609   2.894   4.604
13953TIP3    H241805   5.668   2.757   4.630
13954TIP3   OH241806   3.234   4.999   6.696
13954TIP3    H141807   3.232   5.021   6.603
13954TIP3    H241808   3.291   4.922   6.702
13955TIP3   OH241809   5.575   3.805   4.944
13955TIP3    H141810   5.528   3.869   4.889
13955TIP3    H241811   5.507   3.743   4.971
13956TIP3   OH241812   3.490   7.746   0.298
13956TIP3    H141813   3.559   7.739   0.231
13956TIP3    H241814   3.502   7.833   0.336
13957TIP3   OH241815   0.254   6.072   6.425
13957TIP3    H141816   0.313   6.133   6.470
13957TIP3    H241817   0.301   5.989   6.425
13958TIP3   OH241818   3.350   5.640   0.690
13958TIP3    H141819   3.270   5.673   0.732
13958TIP3    H241820   3.347   5.545   0.704
13959TIP3   OH241821   7.487   3.242   5.968
13959TIP3    H141822   7.562   3.293   5.999
13959TIP3    H241823   7.458   3.288   5.889
13960TIP3   OH241824   6.450   4.650   5.200
13960TIP3    H141825   6.537   4.664   5.238
13960TIP3    H241826   6.467   4.594   5.124
13961TIP3   OH241827   2.812   0.926   3.942
13961TIP3    H141828   2.764   1.008   3.926
13961TIP3    H241829   2.776   0.894   4.025
13962TIP3   OH241830   6.823   0.518   4.397
13962TIP3    H141831   6.759   0.543   4.330
13962TIP3    H241832   6.796   0.567   4.474
13963TIP3   OH241833   5.870   4.704   3.304
13963TIP3    H141834   5.794   4.649   3.285
13963TIP3    H241835   5.944   4.655   3.268
13964TIP3   OH241836   2.089   4.955   6.601
13964TIP3    H141837   2.152   4.938   6.671
13964TIP3    H241838   2.143   4.974   6.524
13965TIP3   OH241839   7.121   2.698   4.593
13965TIP3    H141840   7.065   2.684   4.669
13965TIP3    H241841   7.210   2.699   4.628
13966TIP3   OH241842   1.432   3.265   2.366
13966TIP3    H141843   1.511   3.212   2.359
13966TIP3    H241844   1.463   3.352   2.390
13967TIP3   OH241845   0.135   3.467   1.870
13967TIP3    H141846   0.224   3.442   1.895
13967TIP3    H241847   0.097   3.387   1.833
13968TIP3   OH241848   0.341   5.874   2.554
13968TIP3    H141849   0.385   5.811   2.612
13968TIP3    H241850   0.386   5.957   2.571
13969TIP3   OH241851   1.708   1.046   1.123
13969TIP3    H141852   1.773   0.976   1.123
13969TIP3    H241853   1.639   1.016   1.064
13970TIP3   OH241854   7.119   2.345   1.969
13970TIP3    H141855   7.146   2.277   2.031
13970TIP3    H241856   7.064   2.404   2.021
13971TIP3   OH241857   4.070   5.322   4.872
13971TIP3    H141858   4.151   5.272   4.888
13971TIP3    H241859   4.100   5.401   4.827
13972TIP3   OH241860   1.889   6.219   1.484
13972TIP3    H141861   1.832   6.254   1.553
13972TIP3    H241862   1.829   6.185   1.418
13973TIP3   OH241863   5.107   4.819   6.296
13973TIP3    H141864   5.160   4.805   6.374
13973TIP3    H241865   5.168   4.810   6.223
13974TIP3   OH241866   6.530   6.225   0.057
13974TIP3    H141867   6.575   6.293   0.008
13974TIP3    H241868   6.506   6.160  -0.009
13975TIP3   OH241869   6.613   5.586   3.708
13975TIP3    H141870   6.675   5.632   3.652
13975TIP3    H241871   6.666   5.558   3.784
13976TIP3   OH241872   6.210   4.310   6.556
13976TIP3    H141873   6.201   4.355   6.472
13976TIP3    H241874   6.148   4.238   6.552
13977TIP3   OH241875   1.720   7.651   3.801
13977TIP3    H141876   1.712   7.731   3.748
13977TIP3    H241877   1.715   7.682   3.891
13978TIP3   OH241878   2.464   2.082   2.862
13978TIP3    H141879   2.547   2.109   2.823
13978TIP3    H241880   2.476   1.989   2.883
13979TIP3   OH241881   4.091   7.061   5.801
13979TIP3    H141882   4.168   7.118   5.797
13979TIP3    H241883   4.025   7.114   5.846
13980TIP3   OH241884   7.941   7.057   5.893
13980TIP3    H141885   7.983   7.132   5.852
13980TIP3    H241886   7.887   7.019   5.824
13981TIP3   OH241887   4.748   1.612   1.556
13981TIP3    H141888   4.700   1.544   1.508
13981TIP3    H241889   4.779   1.671   1.488
13982TIP3   OH241890   6.897   1.411   6.475
13982TIP3    H141891   6.862   1.499   6.457
13982TIP3    H241892   6.972   1.402   6.417
13983TIP3   OH241893   7.629   6.246   1.207
13983TIP3    H141894   7.626   6.183   1.135
13983TIP3    H241895   7.661   6.327   1.166
13984TIP3   OH241896   6.732   3.254   1.832
13984TIP3    H141897   6.697   3.277   1.747
13984TIP3    H241898   6.685   3.310   1.894
13985TIP3   OH241899   2.555   7.338   2.776
13985TIP3    H141900   2.474   7.286   2.786
13985TIP3    H241901   2.625   7.273   2.781
13986TIP3   OH241902   7.218   2.350   3.773
13986TIP3    H141903   7.285   2.412   3.801
13986TIP3    H241904   7.251   2.265   3.803
13987TIP3   OH241905   2.286   3.738   0.334
13987TIP3    H141906   2.244   3.652   0.344
13987TIP3    H241907   2.266   3.784   0.415
13988TIP3   OH241908   4.677   1.971   6.654
13988TIP3    H141909   4.655   1.983   6.746
13988TIP3    H241910   4.708   2.057   6.625
13989TIP3   OH241911   4.225   0.546   5.819
13989TIP3    H141912   4.226   0.628   5.869
13989TIP3    H241913   4.232   0.573   5.728
13990TIP3   OH241914   7.526   1.109   2.749
13990TIP3    H141915   7.551   1.077   2.663
13990TIP3    H241916   7.591   1.073   2.809
13991TIP3   OH241917   0.106   0.675   5.935
13991TIP3    H141918   0.033   0.705   5.880
13991TIP3    H241919   0.184   0.699   5.886
13992TIP3   OH241920   7.187   1.977   2.861
13992TIP3    H141921   7.216   2.035   2.790
13992TIP3    H241922   7.218   2.020   2.941
13993TIP3   OH241923   3.055   5.241   3.314
13993TIP3    H141924   3.053   5.149   3.289
13993TIP3    H241925   3.068   5.239   3.409
13994TIP3   OH241926   1.543   4.452   0.993
13994TIP3    H141927   1.524   4.380   1.052
13994TIP3    H241928   1.462   4.505   0.993
13995TIP3   OH241929   5.973   7.830   3.763
13995TIP3    H141930   6.007   7.746   3.732
13995TIP3    H241931   5.925   7.808   3.843
13996TIP3   OH241932   3.337   7.448   0.282
13996TIP3    H141933   3.288   7.368   0.263
13996TIP3    H241934   3.421   7.436   0.237
13997TIP3   OH241935   4.186   2.458   5.688
13997TIP3    H141936   4.178   2.418   5.601
13997TIP3    H241937   4.248   2.402   5.734
13998TIP3   OH241938   0.533   2.534   5.474
13998TIP3    H141939   0.569   2.555   5.560
13998TIP3    H241940   0.515   2.619   5.434
13999TIP3   OH241941   3.662   4.577   6.649
13999TIP3    H141942   3.739   4.632   6.641
13999TIP3    H241943   3.621   4.603   6.731
14000TIP3   OH241944   4.572   7.268   3.445
14000TIP3    H141945   4.530   7.197   3.493
14000TIP3    H241946   4.584   7.337   3.509
14001TIP3   OH241947   5.482  -0.019   1.443
14001TIP3    H141948   5.440  -0.043   1.360
14001TIP3    H241949   5.478   0.077   1.446
14002TIP3   OH241950   6.203   1.991   2.854
14002TIP3    H141951   6.179   2.019   2.766
14002TIP3    H241952   6.120   1.963   2.894
14003TIP3   OH241953   0.605   0.858   5.093
14003TIP3    H141954   0.593   0.910   5.172
14003TIP3    H241955   0.603   0.922   5.022
14004TIP3   OH241956   3.201   0.111   3.526
14004TIP3    H141957   3.261   0.040   3.503
14004TIP3    H241958   3.114   0.075   3.508
14005TIP3   OH241959   7.444   2.063   2.307
14005TIP3    H141960   7.454   1.973   2.337
14005TIP3    H241961   7.518   2.077   2.248
14006TIP3   OH241962   7.100   0.846   4.243
14006TIP3    H141963   7.009   0.817   4.248
14006TIP3    H241964   7.141   0.810   4.321
14007TIP3   OH241965   1.061   3.557   1.253
14007TIP3    H141966   1.152   3.558   1.285
14007TIP3    H241967   1.035   3.465   1.258
14008TIP3   OH241968   0.653   3.156   6.329
14008TIP3    H141969   0.664   3.115   6.243
14008TIP3    H241970   0.577   3.213   6.319
14009TIP3   OH241971   6.975   6.369   6.138
14009TIP3    H141972   7.017   6.313   6.074
14009TIP3    H241973   6.919   6.427   6.087
14010TIP3   OH241974   6.682   6.521   2.066
14010TIP3    H141975   6.711   6.577   2.138
14010TIP3    H241976   6.732   6.550   1.990
14011TIP3   OH241977   0.419   6.508   1.769
14011TIP3    H141978   0.471   6.569   1.821
14011TIP3    H241979   0.463   6.506   1.684
14012TIP3   OH241980   4.560   7.421   1.036
14012TIP3    H141981   4.558   7.402   0.943
14012TIP3    H241982   4.468   7.433   1.060
14013TIP3   OH241983   7.532   1.544   2.875
14013TIP3    H141984   7.591   1.484   2.919
14013TIP3    H241985   7.488   1.591   2.945
14014TIP3   OH241986   1.056   7.547   4.347
14014TIP3    H141987   1.082   7.499   4.426
14014TIP3    H241988   1.019   7.629   4.380
14015TIP3   OH241989   7.137   0.150   3.004
14015TIP3    H141990   7.069   0.176   3.066
14015TIP3    H241991   7.182   0.077   3.048
14016TIP3   OH241992   0.762   1.825   5.194
14016TIP3    H141993   0.706   1.752   5.168
14016TIP3    H241994   0.771   1.879   5.115
14017TIP3   OH241995   6.508   2.510   3.829
14017TIP3    H141996   6.543   2.537   3.914
14017TIP3    H241997   6.493   2.592   3.782
14018TIP3   OH241998   4.476   3.896   2.328
14018TIP3    H141999   4.396   3.904   2.277
14018TIP3    H242000   4.476   3.806   2.360
14019TIP3   OH242001   0.808   1.030   5.520
14019TIP3    H142002   0.795   1.117   5.557
14019TIP3    H242003   0.900   1.028   5.495
14020TIP3   OH242004   6.218   7.284   3.663
14020TIP3    H142005   6.298   7.281   3.610
14020TIP3    H242006   6.158   7.223   3.619
14021TIP3   OH242007   1.924   3.849   4.387
14021TIP3    H142008   1.956   3.902   4.313
14021TIP3    H242009   1.829   3.858   4.382
14022TIP3   OH242010   2.153   6.041   1.265
14022TIP3    H142011   2.223   5.990   1.224
14022TIP3    H242012   2.198   6.096   1.330
14023TIP3   OH242013   2.760   7.161   2.865
14023TIP3    H142014   2.826   7.227   2.886
14023TIP3    H242015   2.773   7.092   2.931
14024TIP3   OH242016   7.532   2.050   5.301
14024TIP3    H142017   7.559   2.130   5.347
14024TIP3    H242018   7.531   1.982   5.368
14025TIP3   OH242019   6.885   3.602   5.134
14025TIP3    H142020   6.805   3.615   5.084
14025TIP3    H242021   6.859   3.542   5.204
14026TIP3   OH242022   4.543   0.486   2.381
14026TIP3    H142023   4.497   0.468   2.463
14026TIP3    H242024   4.533   0.405   2.330
14027TIP3   OH242025   3.653   7.306   3.961
14027TIP3    H142026   3.729   7.342   3.915
14027TIP3    H242027   3.655   7.345   4.048
14028TIP3   OH242028   3.940   1.760   1.825
14028TIP3    H142029   3.908   1.672   1.804
14028TIP3    H242030   3.865   1.803   1.866
14029TIP3   OH242031   3.388   6.896   2.685
14029TIP3    H142032   3.415   6.877   2.595
14029TIP3    H242033   3.398   6.813   2.732
14030TIP3   OH242034   7.876   6.615   3.196
14030TIP3    H142035   7.878   6.568   3.113
14030TIP3    H242036   7.786   6.604   3.228
14031TIP3   OH242037   0.094   3.434   0.789
14031TIP3    H142038   0.049   3.494   0.729
14031TIP3    H242039   0.032   3.363   0.803
14032TIP3   OH242040   4.189   4.457   0.470
14032TIP3    H142041   4.172   4.384   0.530
14032TIP3    H242042   4.131   4.527   0.499
14033TIP3   OH242043   0.591   2.360   6.786
14033TIP3    H142044   0.678   2.369   6.824
14033TIP3    H242045   0.607   2.333   6.696
14034TIP3   OH242046   1.255   0.160   6.472
14034TIP3    H142047   1.220   0.245   6.448
14034TIP3    H242048   1.261   0.162   6.567
14035TIP3   OH242049   1.890   5.635   1.942
14035TIP3    H142050   1.809   5.588   1.921
14035TIP3    H242051   1.907   5.689   1.865
14036TIP3   OH242052   3.084   5.978   3.510
14036TIP3    H142053   3.177   5.967   3.528
14036TIP3    H242054   3.062   5.905   3.452
14037TIP3   OH242055   6.985   1.759   4.652
14037TIP3    H142056   7.072   1.748   4.614
14037TIP3    H242057   7.002   1.771   4.746
14038TIP3   OH242058   5.508   4.762   3.188
14038TIP3    H142059   5.578   4.739   3.128
14038TIP3    H242060   5.431   4.773   3.132
14039TIP3   OH242061   1.833   2.657   3.472
14039TIP3    H142062   1.914   2.609   3.490
14039TIP3    H242063   1.862   2.748   3.464
14040TIP3   OH242064   3.109   0.262   1.848
14040TIP3    H142065   3.087   0.190   1.906
14040TIP3    H242066   3.201   0.282   1.868
14041TIP3   OH242067   3.231   6.404   6.623
14041TIP3    H142068   3.207   6.458   6.698
14041TIP3    H242069   3.234   6.315   6.658
14042TIP3   OH242070   2.900   5.908   5.046
14042TIP3    H142071   2.833   5.976   5.042
14042TIP3    H242072   2.854   5.832   5.083
14043TIP3   OH242073   5.993   7.718   0.287
14043TIP3    H142074   6.081   7.680   0.284
14043TIP3    H242075   5.967   7.710   0.379
14044TIP3   OH242076   7.158   3.786   2.953
14044TIP3    H142077   7.122   3.864   2.996
14044TIP3    H242078   7.239   3.768   3.000
14045TIP3   OH242079   1.435   7.741   3.554
14045TIP3    H142080   1.454   7.712   3.464
14045TIP3    H242081   1.364   7.684   3.583
14046TIP3   OH242082   7.511   4.601   5.007
14046TIP3    H142083   7.567   4.524   5.019
14046TIP3    H242084   7.422   4.567   5.017
14047TIP3   OH242085   4.603   2.242   4.283
14047TIP3    H142086   4.653   2.236   4.365
14047TIP3    H242087   4.539   2.311   4.300
14048TIP3   OH242088   3.577   3.013   1.393
14048TIP3    H142089   3.544   2.924   1.389
14048TIP3    H242090   3.668   3.004   1.421
14049TIP3   OH242091   1.567   7.109   6.635
14049TIP3    H142092   1.651   7.145   6.666
14049TIP3    H242093   1.506   7.182   6.642
14050TIP3   OH242094   2.253   4.660   2.390
14050TIP3    H142095   2.205   4.639   2.469
14050TIP3    H242096   2.329   4.601   2.391
14051TIP3   OH242097   2.895   2.030   4.019
14051TIP3    H142098   2.958   1.993   3.957
14051TIP3    H242099   2.904   1.977   4.098
14052TIP3   OH242100   6.506   7.572   0.075
14052TIP3    H142101   6.597   7.587   0.098
14052TIP3    H242102   6.507   7.493   0.022
14053TIP3   OH242103   0.310   4.399   4.496
14053TIP3    H142104   0.243   4.388   4.563
14053TIP3    H242105   0.334   4.310   4.471
14054TIP3   OH242106   4.298   4.911   4.702
14054TIP3    H142107   4.301   5.007   4.702
14054TIP3    H242108   4.369   4.884   4.760
14055TIP3   OH242109   1.362   5.396   4.618
14055TIP3    H142110   1.335   5.349   4.697
14055TIP3    H242111   1.394   5.480   4.651
14056TIP3   OH242112   0.863   6.668   1.698
14056TIP3    H142113   0.939   6.629   1.741
14056TIP3    H242114   0.817   6.594   1.659
14057TIP3   OH242115   7.207   2.587   1.175
14057TIP3    H142116   7.240   2.550   1.257
14057TIP3    H242117   7.118   2.615   1.195
14058TIP3   OH242118   3.695   4.741   5.588
14058TIP3    H142119   3.787   4.723   5.606
14058TIP3    H242120   3.683   4.832   5.616
14059TIP3   OH242121   1.365   5.822   0.870
14059TIP3    H142122   1.356   5.857   0.959
14059TIP3    H242123   1.454   5.786   0.867
14060TIP3   OH242124   5.489   7.624   3.596
14060TIP3    H142125   5.535   7.580   3.524
14060TIP3    H242126   5.453   7.552   3.649
14061TIP3   OH242127   6.977   6.731   1.236
14061TIP3    H142128   6.979   6.755   1.328
14061TIP3    H242129   6.993   6.813   1.189
14062TIP3   OH242130   4.175   0.644   1.443
14062TIP3    H142131   4.249   0.622   1.386
14062TIP3    H242132   4.145   0.729   1.412
14063TIP3   OH242133   1.783   2.583   2.472
14063TIP3    H142134   1.697   2.586   2.513
14063TIP3    H242135   1.812   2.674   2.471
14064TIP3   OH242136   6.080   0.786   4.650
14064TIP3    H142137   6.110   0.872   4.677
14064TIP3    H242138   6.039   0.749   4.728
14065TIP3   OH242139   1.013   5.217   5.935
14065TIP3    H142140   0.965   5.239   6.015
14065TIP3    H242141   0.946   5.201   5.869
14066TIP3   OH242142   0.276   6.025   4.846
14066TIP3    H142143   0.316   5.937   4.844
14066TIP3    H242144   0.225   6.026   4.927
14067TIP3   OH242145   0.978   6.351   5.199
14067TIP3    H142146   1.005   6.342   5.291
14067TIP3    H242147   0.891   6.390   5.204
14068TIP3   OH242148   0.816   4.781   3.918
14068TIP3    H142149   0.727   4.746   3.907
14068TIP3    H242150   0.841   4.756   4.007
14069TIP3   OH242151   0.988   0.199   5.965
14069TIP3    H142152   1.015   0.187   5.874
14069TIP3    H242153   0.930   0.124   5.983
14070TIP3   OH242154   1.610   2.888   4.757
14070TIP3    H142155   1.686   2.854   4.804
14070TIP3    H242156   1.647   2.937   4.684
14071TIP3   OH242157   8.221   7.777   3.215
14071TIP3    H142158   8.197   7.718   3.143
14071TIP3    H242159   8.183   7.737   3.293
14072TIP3   OH242160   4.267   1.668   5.438
14072TIP3    H142161   4.304   1.714   5.513
14072TIP3    H242162   4.315   1.701   5.362
14073TIP3   OH242163   2.176   2.491   3.255
14073TIP3    H142164   2.249   2.548   3.230
14073TIP3    H242165   2.216   2.404   3.266
14074TIP3   OH242166   3.617   4.848   2.805
14074TIP3    H142167   3.578   4.840   2.892
14074TIP3    H242168   3.588   4.770   2.758
14075TIP3   OH242169   1.237   7.182   2.118
14075TIP3    H142170   1.178   7.107   2.128
14075TIP3    H242171   1.187   7.257   2.148
14076TIP3   OH242172   3.921   3.128   3.950
14076TIP3    H142173   3.990   3.085   4.000
14076TIP3    H242174   3.882   3.190   4.012
14077TIP3   OH242175   6.594   4.477   5.664
14077TIP3    H142176   6.512   4.491   5.710
14077TIP3    H242177   6.639   4.562   5.667
14078TIP3   OH242178   2.616   0.217   3.270
14078TIP3    H142179   2.695   0.270   3.285
14078TIP3    H242180   2.647   0.127   3.272
14079TIP3   OH242181   5.694   2.248   4.861
14079TIP3    H142182   5.729   2.170   4.904
14079TIP3    H242183   5.705   2.230   4.768
14080TIP3   OH242184   2.410   7.326   3.259
14080TIP3    H142185   2.325   7.288   3.236
14080TIP3    H242186   2.413   7.409   3.213
14081TIP3   OH242187   3.087   6.863   0.705
14081TIP3    H142188   3.079   6.954   0.734
14081TIP3    H242189   3.135   6.868   0.622
14082TIP3   OH242190   7.996   5.973   4.158
14082TIP3    H142191   7.938   6.025   4.215
14082TIP3    H242192   7.937   5.934   4.093
14083TIP3   OH242193   2.803   3.617   5.310
14083TIP3    H142194   2.862   3.545   5.334
14083TIP3    H242195   2.742   3.578   5.247
14084TIP3   OH242196   2.290   2.558   0.014
14084TIP3    H142197   2.307   2.548   0.108
14084TIP3    H242198   2.331   2.482  -0.026
14085TIP3   OH242199   1.095   6.696   3.343
14085TIP3    H142200   1.082   6.725   3.434
14085TIP3    H242201   1.169   6.636   3.347
14086TIP3   OH242202   6.120   1.273   4.562
14086TIP3    H142203   6.026   1.291   4.562
14086TIP3    H242204   6.159   1.349   4.519
14087TIP3   OH242205   4.242   4.823   4.440
14087TIP3    H142206   4.150   4.796   4.440
14087TIP3    H242207   4.252   4.873   4.521
14088TIP3   OH242208   3.404   2.602   0.030
14088TIP3    H142209   3.383   2.509   0.042
14088TIP3    H242210   3.441   2.630   0.113
14089TIP3   OH242211   5.595   1.876   1.701
14089TIP3    H142212   5.633   1.963   1.690
14089TIP3    H242213   5.635   1.842   1.781
14090TIP3   OH242214   2.051   2.791   0.680
14090TIP3    H142215   2.059   2.874   0.728
14090TIP3    H242216   1.997   2.735   0.736
14091TIP3   OH242217   0.480   2.809   0.943
14091TIP3    H142218   0.572   2.833   0.956
14091TIP3    H242219   0.472   2.722   0.981
14092TIP3   OH242220   2.556   3.994   2.141
14092TIP3    H142221   2.469   4.005   2.179
14092TIP3    H242222   2.613   3.980   2.216
14093TIP3   OH242223   0.096   5.478   0.749
14093TIP3    H142224   0.022   5.419   0.735
14093TIP3    H242225   0.076   5.523   0.831
14094TIP3   OH242226   3.763   3.782   0.851
14094TIP3    H142227   3.751   3.812   0.761
14094TIP3    H242228   3.846   3.735   0.850
14095TIP3   OH242229   3.429   1.505   2.738
14095TIP3    H142230   3.407   1.589   2.779
14095TIP3    H242231   3.522   1.513   2.717
14096TIP3   OH242232   4.498   2.448   5.226
14096TIP3    H142233   4.415   2.483   5.257
14096TIP3    H242234   4.563   2.487   5.285
14097TIP3   OH242235   1.539   0.750   6.034
14097TIP3    H142236   1.521   0.746   5.940
14097TIP3    H242237   1.495   0.674   6.070
14098TIP3   OH242238   6.539   1.496   2.422
14098TIP3    H142239   6.599   1.539   2.362
14098TIP3    H242240   6.480   1.566   2.451
14099TIP3   OH242241   3.026   6.925   6.354
14099TIP3    H142242   3.118   6.902   6.366
14099TIP3    H242243   3.028   7.019   6.334
14100TIP3   OH242244   8.129   7.449   3.217
14100TIP3    H142245   8.036   7.427   3.224
14100TIP3    H242246   8.138   7.487   3.130
14101TIP3   OH242247   5.948   6.449   4.944
14101TIP3    H142248   5.898   6.376   4.979
14101TIP3    H242249   5.942   6.517   5.011
14102TIP3   OH242250   5.609   0.515   3.216
14102TIP3    H142251   5.678   0.565   3.261
14102TIP3    H242252   5.593   0.440   3.274
14103TIP3   OH242253   8.072   6.717   1.642
14103TIP3    H142254   8.101   6.788   1.585
14103TIP3    H242255   8.014   6.759   1.705
14104TIP3   OH242256   1.088   6.280   4.384
14104TIP3    H142257   1.131   6.313   4.463
14104TIP3    H242258   1.095   6.352   4.321
14105TIP3   OH242259   0.816   7.592   4.727
14105TIP3    H142260   0.909   7.570   4.728
14105TIP3    H242261   0.813   7.680   4.689
14106TIP3   OH242262   3.142   0.191   3.968
14106TIP3    H142263   3.073   0.130   3.941
14106TIP3    H242264   3.127   0.270   3.916
14107TIP3   OH242265   5.862   7.460   0.453
14107TIP3    H142266   5.894   7.394   0.392
14107TIP3    H242267   5.783   7.494   0.411
14108TIP3   OH242268   2.279   6.847   2.809
14108TIP3    H142269   2.258   6.754   2.800
14108TIP3    H242270   2.334   6.867   2.733
14109TIP3   OH242271   7.883   1.053   5.082
14109TIP3    H142272   7.915   1.056   4.992
14109TIP3    H242273   7.936   0.985   5.124
14110TIP3   OH242274   2.813   2.917   3.239
14110TIP3    H142275   2.880   2.849   3.242
14110TIP3    H242276   2.783   2.918   3.148
14111TIP3   OH242277   0.612   3.379   3.370
14111TIP3    H142278   0.637   3.464   3.335
14111TIP3    H242279   0.671   3.317   3.327
14112TIP3   OH242280   7.231   3.396   0.118
14112TIP3    H142281   7.286   3.392   0.197
14112TIP3    H242282   7.283   3.352   0.051
14113TIP3   OH242283   1.740   2.936   2.941
14113TIP3    H142284   1.686   2.859   2.961
14113TIP3    H242285   1.686   3.011   2.968
14114TIP3   OH242286   1.355   0.361   2.854
14114TIP3    H142287   1.296   0.334   2.924
14114TIP3    H242288   1.333   0.303   2.780
14115TIP3   OH242289   7.678   6.117   5.320
14115TIP3    H142290   7.667   6.093   5.412
14115TIP3    H242291   7.770   6.098   5.301
14116TIP3   OH242292   7.540   1.301   0.987
14116TIP3    H142293   7.606   1.315   1.054
14116TIP3    H242294   7.553   1.372   0.925
14117TIP3   OH242295   0.714   2.912   6.071
14117TIP3    H142296   0.679   2.849   6.134
14117TIP3    H242297   0.639   2.966   6.046
14118TIP3   OH242298   2.713   6.016   3.718
14118TIP3    H142299   2.654   6.051   3.784
14118TIP3    H242300   2.721   5.923   3.739
14119TIP3   OH242301   5.123   4.767   5.345
14119TIP3    H142302   5.113   4.747   5.252
14119TIP3    H242303   5.106   4.861   5.351
14120TIP3   OH242304   6.380   0.256   2.539
14120TIP3    H142305   6.302   0.312   2.542
14120TIP3    H242306   6.346   0.169   2.519
14121TIP3   OH242307   2.109   7.276   6.058
14121TIP3    H142308   2.091   7.298   5.967
14121TIP3    H242309   2.053   7.336   6.109
14122TIP3   OH242310   4.315   1.471   0.967
14122TIP3    H142311   4.229   1.430   0.954
14122TIP3    H242312   4.348   1.433   1.048
14123TIP3   OH242313   7.058   6.480   6.642
14123TIP3    H142314   7.125   6.531   6.688
14123TIP3    H242315   7.033   6.411   6.704
14124TIP3   OH242316   4.895   2.313   0.839
14124TIP3    H142317   4.885   2.362   0.921
14124TIP3    H242318   4.918   2.380   0.774
14125TIP3   OH242319   4.989   5.006   5.304
14125TIP3    H142320   5.068   5.057   5.288
14125TIP3    H242321   4.921   5.071   5.323
14126TIP3   OH242322   7.905   2.296   5.387
14126TIP3    H142323   7.949   2.256   5.462
14126TIP3    H242324   7.879   2.383   5.417
14127TIP3   OH242325   2.449   6.894   4.034
14127TIP3    H142326   2.515   6.921   3.970
14127TIP3    H242327   2.390   6.838   3.984
14128TIP3   OH242328   2.074   1.437   2.855
14128TIP3    H142329   2.162   1.401   2.862
14128TIP3    H242330   2.022   1.385   2.917
14129TIP3   OH242331   2.886   0.237   0.391
14129TIP3    H142332   2.856   0.166   0.448
14129TIP3    H242333   2.827   0.310   0.411
14130TIP3   OH242334   4.134   7.783   0.691
14130TIP3    H142335   4.113   7.728   0.767
14130TIP3    H242336   4.229   7.779   0.684
14131TIP3   OH242337   2.580   1.967   1.158
14131TIP3    H142338   2.609   1.887   1.201
14131TIP3    H242339   2.643   1.981   1.087
14132TIP3   OH242340   5.721   4.404   6.009
14132TIP3    H142341   5.626   4.415   6.006
14132TIP3    H242342   5.748   4.412   5.918
14133TIP3   OH242343   6.749   6.620   0.649
14133TIP3    H142344   6.679   6.680   0.625
14133TIP3    H242345   6.797   6.667   0.718
14134TIP3   OH242346   3.110   2.602   3.515
14134TIP3    H142347   3.147   2.572   3.598
14134TIP3    H242348   3.187   2.623   3.461
14135TIP3   OH242349   3.799   5.490   4.058
14135TIP3    H142350   3.795   5.448   3.972
14135TIP3    H242351   3.805   5.417   4.119
14136TIP3   OH242352   6.852   2.835   4.960
14136TIP3    H142353   6.778   2.894   4.949
14136TIP3    H242354   6.927   2.893   4.977
14137TIP3   OH242355   7.815   1.098   2.835
14137TIP3    H142356   7.889   1.155   2.815
14137TIP3    H242357   7.768   1.144   2.905
14138TIP3   OH242358   4.324   7.212   5.815
14138TIP3    H142359   4.330   7.193   5.908
14138TIP3    H242360   4.297   7.304   5.810
14139TIP3   OH242361   4.180   3.836   0.078
14139TIP3    H142362   4.119   3.910   0.075
14139TIP3    H242363   4.142   3.777   0.143
14140TIP3   OH242364   4.725   5.310   5.781
14140TIP3    H142365   4.800   5.277   5.829
14140TIP3    H242366   4.671   5.354   5.847
14141TIP3   OH242367   1.315   1.095   3.694
14141TIP3    H142368   1.314   1.044   3.613
14141TIP3    H242369   1.356   1.037   3.759
14142TIP3   OH242370   5.294   3.560   3.181
14142TIP3    H142371   5.243   3.593   3.254
14142TIP3    H242372   5.382   3.596   3.194
14143TIP3   OH242373   6.260   7.353   2.988
14143TIP3    H142374   6.252   7.431   2.932
14143TIP3    H242375   6.349   7.358   3.023
14144TIP3   OH242376   7.323   6.051   2.914
14144TIP3    H142377   7.351   5.964   2.943
14144TIP3    H242378   7.350   6.109   2.985
14145TIP3   OH242379   1.839   3.724   1.847
14145TIP3    H142380   1.751   3.691   1.830
14145TIP3    H242381   1.891   3.693   1.772
14146TIP3   OH242382   4.149   0.645   2.861
14146TIP3    H142383   4.060   0.624   2.833
14146TIP3    H242384   4.155   0.612   2.950
14147TIP3   OH242385   5.970   2.769   0.837
14147TIP3    H142386   5.996   2.861   0.828
14147TIP3    H242387   6.025   2.723   0.773
14148TIP3   OH242388   0.816   4.597   5.561
14148TIP3    H142389   0.728   4.612   5.526
14148TIP3    H242390   0.815   4.507   5.592
14149TIP3   OH242391   1.309   0.855   6.379
14149TIP3    H142392   1.397   0.890   6.364
14149TIP3    H242393   1.321   0.760   6.374
14150TIP3   OH242394   7.145   3.242   1.861
14150TIP3    H142395   7.224   3.281   1.899
14150TIP3    H242396   7.144   3.153   1.895
14151TIP3   OH242397   2.741   4.496   3.555
14151TIP3    H142398   2.773   4.413   3.592
14151TIP3    H242399   2.700   4.471   3.472
14152TIP3   OH242400   4.380   5.825   4.038
14152TIP3    H142401   4.384   5.880   4.116
14152TIP3    H242402   4.379   5.887   3.965
14153TIP3   OH242403   3.648   0.063   1.148
14153TIP3    H142404   3.621   0.077   1.239
14153TIP3    H242405   3.574   0.018   1.108
14154TIP3   OH242406   2.768   3.538   1.119
14154TIP3    H142407   2.719   3.566   1.196
14154TIP3    H242408   2.701   3.511   1.056
14155TIP3   OH242409   3.541  -0.010   4.575
14155TIP3    H142410   3.603   0.004   4.504
14155TIP3    H242411   3.464   0.043   4.551
14156TIP3   OH242412   3.639   1.585   4.125
14156TIP3    H142413   3.593   1.661   4.089
14156TIP3    H242414   3.700   1.622   4.188
14157TIP3   OH242415   0.761   7.590   6.681
14157TIP3    H142416   0.748   7.530   6.608
14157TIP3    H242417   0.679   7.585   6.731
14158TIP3   OH242418   7.291   5.839   1.046
14158TIP3    H142419   7.369   5.813   0.996
14158TIP3    H242420   7.227   5.863   0.979
14159TIP3   OH242421   6.788   6.780   4.119
14159TIP3    H142422   6.841   6.824   4.053
14159TIP3    H242423   6.709   6.833   4.127
14160TIP3   OH242424   7.606   3.359   3.146
14160TIP3    H142425   7.644   3.445   3.129
14160TIP3    H242426   7.657   3.299   3.092
14161TIP3   OH242427   3.642   6.148   4.416
14161TIP3    H142428   3.709   6.101   4.366
14161TIP3    H242429   3.561   6.133   4.369
14162TIP3   OH242430   3.093   7.096   0.997
14162TIP3    H142431   3.023   7.086   0.932
14162TIP3    H242432   3.075   7.181   1.038
14163TIP3   OH242433   1.591   0.122   4.524
14163TIP3    H142434   1.583   0.207   4.479
14163TIP3    H242435   1.511   0.116   4.576
14164TIP3   OH242436   7.905   1.134   5.679
14164TIP3    H142437   7.955   1.182   5.613
14164TIP3    H242438   7.814   1.160   5.662
14165TIP3   OH242439   4.859   4.672   3.066
14165TIP3    H142440   4.947   4.676   3.028
14165TIP3    H242441   4.801   4.660   2.991
14166TIP3   OH242442   0.715   5.058   1.011
14166TIP3    H142443   0.706   4.988   1.076
14166TIP3    H242444   0.809   5.062   0.993
14167TIP3   OH242445   1.587   6.916   2.020
14167TIP3    H142446   1.569   6.990   2.078
14167TIP3    H242447   1.564   6.839   2.073
14168TIP3   OH242448   7.130   4.332   4.395
14168TIP3    H142449   7.041   4.307   4.422
14168TIP3    H242450   7.171   4.249   4.371
14169TIP3   OH242451   7.196   4.462   2.281
14169TIP3    H142452   7.291   4.473   2.274
14169TIP3    H242453   7.160   4.542   2.241
14170TIP3   OH242454   7.117   1.309   4.807
14170TIP3    H142455   7.058   1.354   4.867
14170TIP3    H242456   7.066   1.237   4.771
14171TIP3   OH242457   6.622   5.234   4.018
14171TIP3    H142458   6.700   5.194   4.056
14171TIP3    H242459   6.550   5.177   4.047
14172TIP3   OH242460   2.021   2.315   0.642
14172TIP3    H142461   2.076   2.387   0.614
14172TIP3    H242462   2.003   2.266   0.561
14173TIP3   OH242463   2.630   6.159   3.495
14173TIP3    H142464   2.550   6.140   3.447
14173TIP3    H242465   2.655   6.075   3.533
14174TIP3   OH242466   4.153   1.036   2.756
14174TIP3    H142467   4.187   1.111   2.707
14174TIP3    H242468   4.230   0.983   2.775
14175TIP3   OH242469   1.130   3.088   2.211
14175TIP3    H142470   1.205   3.145   2.227
14175TIP3    H242471   1.165   3.016   2.159
14176TIP3   OH242472   6.199   2.467   4.818
14176TIP3    H142473   6.233   2.467   4.907
14176TIP3    H242474   6.147   2.387   4.812
14177TIP3   OH242475   4.492   6.904   5.829
14177TIP3    H142476   4.554   6.955   5.880
14177TIP3    H242477   4.526   6.814   5.833
14178TIP3   OH242478   3.200   1.680   2.228
14178TIP3    H142479   3.231   1.649   2.143
14178TIP3    H242480   3.126   1.737   2.207
14179TIP3   OH242481   8.000   2.457   6.744
14179TIP3    H142482   8.016   2.370   6.781
14179TIP3    H242483   7.916   2.484   6.783
14180TIP3   OH242484   1.263   7.228   6.282
14180TIP3    H142485   1.213   7.308   6.298
14180TIP3    H242486   1.354   7.252   6.299
14181TIP3   OH242487   8.178   2.106   1.858
14181TIP3    H142488   8.129   2.166   1.914
14181TIP3    H242489   8.269   2.136   1.865
14182TIP3   OH242490   6.717   0.094   1.695
14182TIP3    H142491   6.661   0.077   1.619
14182TIP3    H242492   6.691   0.182   1.724
14183TIP3   OH242493   4.766   0.715   0.677
14183TIP3    H142494   4.710   0.702   0.753
14183TIP3    H242495   4.806   0.630   0.661
14184TIP3   OH242496   6.550   2.329   2.913
14184TIP3    H142497   6.479   2.342   2.976
14184TIP3    H242498   6.514   2.269   2.848
14185TIP3   OH242499   0.094   2.459   2.925
14185TIP3    H142500   0.107   2.553   2.939
14185TIP3    H242501   0.167   2.418   2.972
14186TIP3   OH242502   4.878   4.006   3.708
14186TIP3    H142503   4.903   4.036   3.795
14186TIP3    H242504   4.794   3.962   3.722
14187TIP3   OH242505   4.309   6.568   4.380
14187TIP3    H142506   4.285   6.625   4.306
14187TIP3    H242507   4.380   6.513   4.345
14188TIP3   OH242508   6.843   0.958   6.049
14188TIP3    H142509   6.909   0.956   6.118
14188TIP3    H242510   6.797   0.875   6.056
14189TIP3   OH242511   0.139   5.792   2.742
14189TIP3    H142512   0.196   5.788   2.819
14189TIP3    H242513   0.188   5.841   2.677
14190TIP3   OH242514   5.126   2.321   4.702
14190TIP3    H142515   5.127   2.344   4.795
14190TIP3    H242516   5.117   2.226   4.701
14191TIP3   OH242517   7.610   6.272   2.926
14191TIP3    H142518   7.654   6.357   2.933
14191TIP3    H242519   7.551   6.270   3.001
14192TIP3   OH242520   3.122   2.669   1.750
14192TIP3    H142521   3.067   2.592   1.769
14192TIP3    H242522   3.157   2.696   1.835
14193TIP3   OH242523   4.543   1.342   2.702
14193TIP3    H142524   4.546   1.436   2.720
14193TIP3    H242525   4.608   1.304   2.761
14194TIP3   OH242526   3.578   0.502   0.634
14194TIP3    H142527   3.485   0.525   0.622
14194TIP3    H242528   3.611   0.567   0.696
14195TIP3   OH242529   6.678   4.500   4.459
14195TIP3    H142530   6.632   4.575   4.422
14195TIP3    H242531   6.761   4.497   4.412
14196TIP3   OH242532   6.055   6.332   2.959
14196TIP3    H142533   5.969   6.357   2.994
14196TIP3    H242534   6.110   6.408   2.974
14197TIP3   OH242535   5.933   1.407   2.864
14197TIP3    H142536   5.983   1.410   2.782
14197TIP3    H242537   5.883   1.326   2.858
14198TIP3   OH242538   1.941   1.317   5.937
14198TIP3    H142539   1.937   1.267   5.855
14198TIP3    H242540   1.982   1.258   5.999
14199TIP3   OH242541   7.522   1.264   4.935
14199TIP3    H142542   7.514   1.178   4.977
14199TIP3    H242543   7.613   1.288   4.947
14200TIP3   OH242544   3.265   6.413   4.879
14200TIP3    H142545   3.171   6.421   4.896
14200TIP3    H242546   3.291   6.331   4.921
14201TIP3   OH242547   5.018   7.637   0.061
14201TIP3    H142548   5.029   7.543   0.080
14201TIP3    H242549   5.041   7.645  -0.031
14202TIP3   OH242550   5.669   7.705   0.671
14202TIP3    H142551   5.615   7.782   0.686
14202TIP3    H242552   5.648   7.677   0.582
14203TIP3   OH242553   4.352   3.438   3.656
14203TIP3    H142554   4.331   3.514   3.709
14203TIP3    H242555   4.442   3.415   3.679
14204TIP3   OH242556   6.618   1.978   6.081
14204TIP3    H142557   6.569   2.019   6.009
14204TIP3    H242558   6.705   2.016   6.075
14205TIP3   OH242559   0.208   1.893   3.558
14205TIP3    H142560   0.158   1.915   3.479
14205TIP3    H242561   0.210   1.974   3.609
14206TIP3   OH242562   1.065   3.742   0.895
14206TIP3    H142563   1.065   3.646   0.896
14206TIP3    H242564   0.988   3.766   0.946
14207TIP3   OH242565   0.413   0.308   6.130
14207TIP3    H142566   0.461   0.231   6.098
14207TIP3    H242567   0.430   0.310   6.224
14208TIP3   OH242568   7.464   2.878   1.835
14208TIP3    H142569   7.548   2.889   1.791
14208TIP3    H242570   7.466   2.940   1.908
14209TIP3   OH242571   3.284   0.480   6.239
14209TIP3    H142572   3.377   0.501   6.250
14209TIP3    H242573   3.259   0.522   6.156
14210TIP3   OH242574   1.461   1.301   0.932
14210TIP3    H142575   1.522   1.357   0.883
14210TIP3    H242576   1.382   1.300   0.878
14211TIP3   OH242577   3.680   3.963   5.126
14211TIP3    H142578   3.728   3.901   5.180
14211TIP3    H242579   3.588   3.937   5.136
14212TIP3   OH242580   3.507   3.137   2.923
14212TIP3    H142581   3.454   3.202   2.877
14212TIP3    H242582   3.593   3.178   2.932
14213TIP3   OH242583   3.510   6.859   4.470
14213TIP3    H142584   3.568   6.910   4.526
14213TIP3    H242585   3.430   6.910   4.464
14214TIP3   OH242586   0.346   7.182   1.687
14214TIP3    H142587   0.254   7.206   1.684
14214TIP3    H242588   0.392   7.265   1.691
14215TIP3   OH242589   5.007   3.766   1.221
14215TIP3    H142590   5.034   3.803   1.305
14215TIP3    H242591   4.974   3.678   1.244
14216TIP3   OH242592   5.074   4.701   5.793
14216TIP3    H142593   4.995   4.755   5.779
14216TIP3    H242594   5.138   4.737   5.732
14217TIP3   OH242595   7.283   6.859   0.545
14217TIP3    H142596   7.259   6.770   0.518
14217TIP3    H242597   7.371   6.871   0.511
14218TIP3   OH242598   5.862   0.135   0.352
14218TIP3    H142599   5.864   0.173   0.264
14218TIP3    H242600   5.894   0.046   0.340
14219TIP3   OH242601   6.153   6.866   1.538
14219TIP3    H142602   6.147   6.868   1.443
14219TIP3    H242603   6.230   6.812   1.557
14220TIP3   OH242604   7.616   7.169   4.103
14220TIP3    H142605   7.640   7.123   4.183
14220TIP3    H242606   7.683   7.237   4.094
14221TIP3   OH242607   2.192   5.965   1.844
14221TIP3    H142608   2.284   5.982   1.862
14221TIP3    H242609   2.169   6.029   1.776
14222TIP3   OH242610   6.699   4.014   3.886
14222TIP3    H142611   6.692   3.972   3.801
14222TIP3    H242612   6.793   4.030   3.898
14223TIP3   OH242613   5.438   4.201   2.650
14223TIP3    H142614   5.427   4.296   2.655
14223TIP3    H242615   5.400   4.177   2.565
14224TIP3   OH242616   7.716   2.494   5.568
14224TIP3    H142617   7.766   2.462   5.642
14224TIP3    H242618   7.766   2.569   5.536
14225TIP3   OH242619   3.345   0.858   1.100
14225TIP3    H142620   3.370   0.787   1.041
14225TIP3    H242621   3.251   0.848   1.111
14226TIP3   OH242622   2.483   7.009   3.715
14226TIP3    H142623   2.465   6.924   3.673
14226TIP3    H242624   2.454   7.074   3.651
14227TIP3   OH242625   0.870   4.404   4.042
14227TIP3    H142626   0.964   4.422   4.052
14227TIP3    H242627   0.830   4.442   4.120
14228TIP3   OH242628   3.002   6.582   5.758
14228TIP3    H142629   2.912   6.570   5.728
14228TIP3    H242630   3.003   6.671   5.795
14229TIP3   OH242631   4.911   5.333   0.855
14229TIP3    H142632   4.998   5.372   0.847
14229TIP3    H242633   4.871   5.378   0.929
14230TIP3   OH242634   2.594   7.796   6.189
14230TIP3    H142635   2.616   7.872   6.135
14230TIP3    H242636   2.662   7.732   6.169
14231TIP3   OH242637   0.461   5.634   5.745
14231TIP3    H142638   0.380   5.584   5.757
14231TIP3    H242639   0.478   5.672   5.831
14232TIP3   OH242640   5.900   4.281   3.185
14232TIP3    H142641   5.948   4.364   3.193
14232TIP3    H242642   5.896   4.265   3.090
14233TIP3   OH242643   4.850   5.693   3.223
14233TIP3    H142644   4.903   5.699   3.143
14233TIP3    H242645   4.901   5.637   3.281
14234TIP3   OH242646   4.294   3.610   5.992
14234TIP3    H142647   4.229   3.618   6.061
14234TIP3    H242648   4.376   3.638   6.033
14235TIP3   OH242649   4.767   3.685   2.356
14235TIP3    H142650   4.752   3.718   2.445
14235TIP3    H242651   4.760   3.590   2.364
14236TIP3   OH242652   7.505   6.291   4.711
14236TIP3    H142653   7.595   6.310   4.738
14236TIP3    H242654   7.452   6.307   4.789
14237TIP3   OH242655   0.358   7.321   5.604
14237TIP3    H142656   0.324   7.388   5.544
14237TIP3    H242657   0.446   7.302   5.570
14238TIP3   OH242658   7.518   1.122   5.684
14238TIP3    H142659   7.538   1.162   5.769
14238TIP3    H242660   7.487   1.034   5.707
14239TIP3   OH242661   4.974   4.670   4.231
14239TIP3    H142662   4.909   4.741   4.229
14239TIP3    H242663   5.058   4.715   4.242
14240TIP3   OH242664   0.735   2.223   5.575
14240TIP3    H142665   0.664   2.179   5.529
14240TIP3    H242666   0.695   2.258   5.654
14241TIP3   OH242667   0.199   5.545   2.165
14241TIP3    H142668   0.158   5.612   2.109
14241TIP3    H242669   0.166   5.462   2.130
14242TIP3   OH242670   1.129   6.271   3.438
14242TIP3    H142671   1.047   6.237   3.402
14242TIP3    H242672   1.179   6.193   3.462
14243TIP3   OH242673   6.734   5.902   5.859
14243TIP3    H142674   6.755   5.859   5.942
14243TIP3    H242675   6.744   5.995   5.877
14244TIP3   OH242676   6.121   0.072   0.881
14244TIP3    H142677   6.134   0.166   0.876
14244TIP3    H242678   6.067   0.051   0.805
14245TIP3   OH242679   5.857   0.374   4.661
14245TIP3    H142680   5.832   0.290   4.623
14245TIP3    H242681   5.861   0.434   4.586
14246TIP3   OH242682   0.084   7.708   0.973
14246TIP3    H142683   0.064   7.626   0.927
14246TIP3    H242684   0.153   7.749   0.920
14247TIP3   OH242685   5.771   5.852   1.444
14247TIP3    H142686   5.799   5.944   1.446
14247TIP3    H242687   5.816   5.812   1.518
14248TIP3   OH242688   6.253   3.436   4.103
14248TIP3    H142689   6.213   3.350   4.087
14248TIP3    H242690   6.212   3.494   4.040
14249TIP3   OH242691   4.591   3.668   3.677
14249TIP3    H142692   4.656   3.722   3.631
14249TIP3    H242693   4.632   3.582   3.683
14250TIP3   OH242694   1.156   2.590   5.477
14250TIP3    H142695   1.146   2.497   5.496
14250TIP3    H242696   1.186   2.592   5.386
14251TIP3   OH242697   3.538   5.270   5.563
14251TIP3    H142698   3.497   5.353   5.536
14251TIP3    H242699   3.511   5.259   5.654
14252TIP3   OH242700   5.362   3.263   3.562
14252TIP3    H142701   5.418   3.334   3.592
14252TIP3    H242702   5.350   3.208   3.639
14253TIP3   OH242703   5.692   6.971   3.902
14253TIP3    H142704   5.777   6.932   3.882
14253TIP3    H242705   5.629   6.900   3.886
14254TIP3   OH242706   6.610   7.145   3.985
14254TIP3    H142707   6.669   7.123   3.913
14254TIP3    H242708   6.655   7.113   4.063
14255TIP3   OH242709   0.240   4.916   1.856
14255TIP3    H142710   0.193   4.974   1.796
14255TIP3    H242711   0.204   4.829   1.838
14256TIP3   OH242712   7.975   7.106   6.700
14256TIP3    H142713   8.070   7.101   6.706
14256TIP3    H242714   7.951   7.034   6.641
14257TIP3   OH242715   1.789   0.209   1.683
14257TIP3    H142716   1.806   0.249   1.768
14257TIP3    H242717   1.705   0.245   1.656
14258TIP3   OH242718   3.365   5.194   1.082
14258TIP3    H142719   3.461   5.196   1.087
14258TIP3    H242720   3.345   5.114   1.034
14259TIP3   OH242721   7.997   4.390   5.670
14259TIP3    H142722   8.087   4.361   5.655
14259TIP3    H242723   8.000   4.485   5.655
14260TIP3   OH242724   6.141   2.844   1.359
14260TIP3    H142725   6.223   2.873   1.399
14260TIP3    H242726   6.133   2.898   1.280
14261TIP3   OH242727   7.682   1.483   0.859
14261TIP3    H142728   7.769   1.445   0.849
14261TIP3    H242729   7.663   1.522   0.773
14262TIP3   OH242730   1.807   0.917   2.563
14262TIP3    H142731   1.770   0.894   2.478
14262TIP3    H242732   1.800   0.837   2.615
14263TIP3   OH242733   3.401   4.750   3.587
14263TIP3    H142734   3.486   4.712   3.607
14263TIP3    H242735   3.337   4.688   3.623
14264TIP3   OH242736   7.433   0.064   2.903
14264TIP3    H142737   7.381   0.135   2.866
14264TIP3    H242738   7.440  -0.001   2.833
14265TIP3   OH242739   6.154   0.491   3.377
14265TIP3    H142740   6.092   0.452   3.316
14265TIP3    H242741   6.140   0.585   3.370
14266TIP3   OH242742   7.646   2.316   2.390
14266TIP3    H142743   7.715   2.325   2.456
14266TIP3    H242744   7.666   2.235   2.344
14267TIP3   OH242745   0.626   6.832   2.772
14267TIP3    H142746   0.537   6.867   2.768
14267TIP3    H242747   0.645   6.825   2.866
14268TIP3   OH242748   7.062   4.042   5.879
14268TIP3    H142749   7.004   3.988   5.826
14268TIP3    H242750   7.148   4.001   5.870
14269TIP3   OH242751   2.526   2.896  -0.013
14269TIP3    H142752   2.548   2.803  -0.004
14269TIP3    H242753   2.542   2.933   0.074
14270TIP3   OH242754   0.320   5.971   1.684
14270TIP3    H142755   0.352   6.061   1.683
14270TIP3    H242756   0.313   5.949   1.777
14271TIP3   OH242757   4.674   7.048   1.201
14271TIP3    H142758   4.666   7.067   1.294
14271TIP3    H242759   4.728   7.119   1.166
14272TIP3   OH242760   5.320   7.713   0.080
14272TIP3    H142761   5.343   7.773   0.151
14272TIP3    H242762   5.224   7.714   0.079
14273TIP3   OH242763   6.216   4.787   2.285
14273TIP3    H142764   6.279   4.819   2.349
14273TIP3    H242765   6.134   4.831   2.308
14274TIP3   OH242766   4.805   2.192   2.309
14274TIP3    H142767   4.894   2.170   2.284
14274TIP3    H242768   4.765   2.229   2.230
14275TIP3   OH242769   5.633   6.193   2.888
14275TIP3    H142770   5.559   6.253   2.884
14275TIP3    H242771   5.643   6.161   2.799
14276TIP3   OH242772   3.783   7.518   6.283
14276TIP3    H142773   3.741   7.496   6.366
14276TIP3    H242774   3.769   7.612   6.273
14277TIP3   OH242775   0.304   7.045   6.176
14277TIP3    H142776   0.379   7.075   6.125
14277TIP3    H242777   0.289   6.955   6.147
14278TIP3   OH242778   0.481   0.554   0.599
14278TIP3    H142779   0.516   0.479   0.646
14278TIP3    H242780   0.495   0.629   0.658
14279TIP3   OH242781   4.046   2.146   6.683
14279TIP3    H142782   4.136   2.114   6.685
14279TIP3    H242783   4.035   2.180   6.594
14280TIP3   OH242784   4.636   3.718   1.766
14280TIP3    H142785   4.698   3.790   1.777
14280TIP3    H242786   4.576   3.727   1.840
14281TIP3   OH242787   3.755   0.180   6.558
14281TIP3    H142788   3.670   0.137   6.549
14281TIP3    H242789   3.734   0.273   6.570
14282TIP3   OH242790   1.090   2.672   0.633
14282TIP3    H142791   1.157   2.609   0.607
14282TIP3    H242792   1.026   2.620   0.681
14283TIP3   OH242793   0.157   0.818   1.670
14283TIP3    H142794   0.116   0.738   1.701
14283TIP3    H242795   0.216   0.844   1.742
14284TIP3   OH242796   5.398   5.132   6.161
14284TIP3    H142797   5.491   5.153   6.159
14284TIP3    H242798   5.394   5.040   6.136
14285TIP3   OH242799   0.947   7.672   0.165
14285TIP3    H142800   0.990   7.589   0.145
14285TIP3    H242801   1.016   7.738   0.151
14286TIP3   OH242802   3.816   5.858   1.076
14286TIP3    H142803   3.740   5.800   1.080
14286TIP3    H242804   3.846   5.852   0.985
14287TIP3   OH242805   1.652   6.756   5.134
14287TIP3    H142806   1.584   6.812   5.171
14287TIP3    H242807   1.641   6.672   5.177
14288TIP3   OH242808   6.186   4.780   3.885
14288TIP3    H142809   6.112   4.721   3.893
14288TIP3    H242810   6.212   4.798   3.975
14289TIP3   OH242811   2.161   6.067   3.436
14289TIP3    H142812   2.180   6.116   3.516
14289TIP3    H242813   2.140   5.979   3.466
14290TIP3   OH242814   3.313   2.709   5.098
14290TIP3    H142815   3.309   2.791   5.146
14290TIP3    H242816   3.222   2.677   5.096
14291TIP3   OH242817   4.222   1.484   4.464
14291TIP3    H142818   4.226   1.457   4.372
14291TIP3    H242819   4.136   1.456   4.494
14292TIP3   OH242820   7.084   4.068   6.674
14292TIP3    H142821   6.995   4.104   6.676
14292TIP3    H242822   7.097   4.031   6.761
14293TIP3   OH242823   7.220   6.426   3.005
14293TIP3    H142824   7.285   6.376   3.053
14293TIP3    H242825   7.168   6.470   3.073
14294TIP3   OH242826   1.858   3.887   1.033
14294TIP3    H142827   1.807   3.816   0.993
14294TIP3    H242828   1.946   3.852   1.040
14295TIP3   OH242829   8.067   6.688   4.307
14295TIP3    H142830   7.989   6.662   4.356
14295TIP3    H242831   8.106   6.758   4.360
14296TIP3   OH242832   0.389   3.552   1.706
14296TIP3    H142833   0.354   3.638   1.729
14296TIP3    H242834   0.391   3.552   1.610
14297TIP3   OH242835   2.605   3.998   4.123
14297TIP3    H142836   2.591   3.954   4.039
14297TIP3    H242837   2.682   4.054   4.108
14298TIP3   OH242838   3.829   6.824   6.318
14298TIP3    H142839   3.853   6.732   6.329
14298TIP3    H242840   3.866   6.848   6.233
14299TIP3   OH242841   6.676   6.158   2.730
14299TIP3    H142842   6.746   6.156   2.796
14299TIP3    H242843   6.646   6.249   2.730
14300TIP3   OH242844   1.251   2.818   5.834
14300TIP3    H142845   1.186   2.767   5.785
14300TIP3    H242846   1.219   2.908   5.831
14301TIP3   OH242847   1.703   4.870   3.403
14301TIP3    H142848   1.626   4.813   3.395
14301TIP3    H242849   1.731   4.885   3.313
14302TIP3   OH242850   1.208   6.113   2.564
14302TIP3    H142851   1.273   6.123   2.495
14302TIP3    H242852   1.258   6.101   2.644
14303TIP3   OH242853   7.020   0.293   3.813
14303TIP3    H142854   7.094   0.353   3.821
14303TIP3    H242855   6.967   0.330   3.741
14304TIP3   OH242856   1.491   6.871   5.597
14304TIP3    H142857   1.528   6.959   5.586
14304TIP3    H242858   1.568   6.814   5.600
14305TIP3   OH242859   1.440   5.818   0.520
14305TIP3    H142860   1.491   5.852   0.446
14305TIP3    H242861   1.504   5.801   0.588
14306TIP3   OH242862   2.858   2.998   5.488
14306TIP3    H142863   2.812   2.937   5.546
14306TIP3    H242864   2.869   3.077   5.540
14307TIP3   OH242865   0.720   7.242   2.829
14307TIP3    H142866   0.778   7.318   2.826
14307TIP3    H242867   0.717   7.210   2.738
14308TIP3   OH242868   7.140   3.553   5.232
14308TIP3    H142869   7.094   3.479   5.270
14308TIP3    H242870   7.102   3.564   5.145
14309TIP3   OH242871   7.631   3.819   3.256
14309TIP3    H142872   7.539   3.799   3.239
14309TIP3    H242873   7.679   3.743   3.221
14310TIP3   OH242874   4.841   5.212   6.664
14310TIP3    H142875   4.880   5.299   6.671
14310TIP3    H242876   4.803   5.210   6.577
14311TIP3   OH242877   0.650   2.340   0.173
14311TIP3    H142878   0.627   2.325   0.264
14311TIP3    H242879   0.587   2.406   0.143
14312TIP3   OH242880   4.774   0.403   5.200
14312TIP3    H142881   4.790   0.479   5.144
14312TIP3    H242882   4.843   0.407   5.266
14313TIP3   OH242883   1.822   6.916   0.286
14313TIP3    H142884   1.865   6.850   0.341
14313TIP3    H242885   1.846   6.892   0.196
14314TIP3   OH242886   0.256   6.910   0.221
14314TIP3    H142887   0.238   6.816   0.218
14314TIP3    H242888   0.348   6.918   0.197
14315TIP3   OH242889   8.118   6.977   4.275
14315TIP3    H142890   8.107   7.072   4.273
14315TIP3    H242891   8.203   6.961   4.233
14316TIP3   OH242892   5.967   7.480   4.521
14316TIP3    H142893   6.000   7.392   4.542
14316TIP3    H242894   5.994   7.534   4.595
14317TIP3   OH242895   4.309   5.619   2.957
14317TIP3    H142896   4.243   5.575   3.011
14317TIP3    H242897   4.286   5.594   2.868
14318TIP3   OH242898   4.228   0.238   0.822
14318TIP3    H142899   4.186   0.154   0.843
14318TIP3    H242900   4.164   0.304   0.849
14319TIP3   OH242901   5.639   1.246   2.299
14319TIP3    H142902   5.688   1.322   2.329
14319TIP3    H242903   5.576   1.281   2.237
14320TIP3   OH242904   0.093   6.714   1.121
14320TIP3    H142905   0.144   6.637   1.096
14320TIP3    H242906   0.112   6.726   1.214
14321TIP3   OH242907   0.789   3.183   4.172
14321TIP3    H142908   0.832   3.153   4.252
14321TIP3    H242909   0.800   3.278   4.172
14322TIP3   OH242910   6.234   7.295   3.295
14322TIP3    H142911   6.295   7.268   3.226
14322TIP3    H242912   6.284   7.357   3.348
14323TIP3   OH242913   4.609   4.925   4.410
14323TIP3    H142914   4.552   5.000   4.427
14323TIP3    H242915   4.694   4.951   4.445
14324TIP3   OH242916   6.094   2.089   3.145
14324TIP3    H142917   6.046   2.007   3.127
14324TIP3    H242918   6.175   2.080   3.096
14325TIP3   OH242919   5.425   3.144   0.953
14325TIP3    H142920   5.480   3.086   1.005
14325TIP3    H242921   5.448   3.123   0.862
14326TIP3   OH242922   0.245   3.128   5.761
14326TIP3    H142923   0.219   3.201   5.704
14326TIP3    H242924   0.338   3.117   5.745
14327TIP3   OH242925   5.230   7.289   4.015
14327TIP3    H142926   5.267   7.356   4.072
14327TIP3    H242927   5.135   7.297   4.027
14328TIP3   OH242928   6.967   1.013   2.617
14328TIP3    H142929   6.932   0.982   2.701
14328TIP3    H242930   7.039   0.953   2.597
14329TIP3   OH242931   2.435   4.085   0.083
14329TIP3    H142932   2.362   4.075   0.144
14329TIP3    H242933   2.511   4.056   0.132
14330TIP3   OH242934   4.111   0.900   2.976
14330TIP3    H142935   4.134   0.817   2.935
14330TIP3    H242936   4.130   0.966   2.910
14331TIP3   OH242937   6.186   2.176   6.403
14331TIP3    H142938   6.195   2.262   6.363
14331TIP3    H242939   6.274   2.153   6.432
14332TIP3   OH242940   3.246   0.155   1.352
14332TIP3    H142941   3.206   0.193   1.275
14332TIP3    H242942   3.198   0.193   1.426
14333TIP3   OH242943   4.761   5.454   0.428
14333TIP3    H142944   4.721   5.489   0.507
14333TIP3    H242945   4.847   5.423   0.457
14334TIP3   OH242946   0.867   4.158   5.669
14334TIP3    H142947   0.844   4.212   5.744
14334TIP3    H242948   0.960   4.175   5.654
14335TIP3   OH242949   2.112   6.231   5.000
14335TIP3    H142950   2.166   6.288   5.054
14335TIP3    H242951   2.173   6.165   4.967
14336TIP3   OH242952   3.837   4.044   3.944
14336TIP3    H142953   3.850   3.949   3.947
14336TIP3    H242954   3.746   4.057   3.968
14337TIP3   OH242955   0.803   2.261   2.738
14337TIP3    H142956   0.746   2.194   2.775
14337TIP3    H242957   0.889   2.244   2.778
14338TIP3   OH242958   2.326   1.795   6.192
14338TIP3    H142959   2.314   1.704   6.221
14338TIP3    H242960   2.286   1.798   6.106
14339TIP3   OH242961   7.774   2.162   4.534
14339TIP3    H142962   7.715   2.169   4.458
14339TIP3    H242963   7.801   2.253   4.551
14340TIP3   OH242964   7.253   7.331   5.224
14340TIP3    H142965   7.335   7.373   5.248
14340TIP3    H242966   7.256   7.245   5.266
14341TIP3   OH242967   3.235   1.145   5.044
14341TIP3    H142968   3.142   1.128   5.061
14341TIP3    H242969   3.247   1.119   4.952
14342TIP3   OH242970   6.063   2.259   1.682
14342TIP3    H142971   6.062   2.166   1.705
14342TIP3    H242972   5.993   2.298   1.734
14343TIP3   OH242973   4.983   7.302   5.368
14343TIP3    H142974   5.043   7.246   5.319
14343TIP3    H242975   4.946   7.244   5.435
14344TIP3   OH242976   5.243   0.377   6.412
14344TIP3    H142977   5.266   0.378   6.319
14344TIP3    H242978   5.214   0.287   6.429
14345TIP3   OH242979   2.187   5.047   2.690
14345TIP3    H142980   2.169   4.953   2.697
14345TIP3    H242981   2.269   5.052   2.640
14346TIP3   OH242982   2.212   1.067   0.459
14346TIP3    H142983   2.184   1.154   0.431
14346TIP3    H242984   2.169   1.007   0.398
14347TIP3   OH242985   0.550   4.922   3.461
14347TIP3    H142986   0.476   4.966   3.501
14347TIP3    H242987   0.566   4.845   3.515
14348TIP3   OH242988   3.788   3.858   4.827
14348TIP3    H142989   3.799   3.891   4.738
14348TIP3    H242990   3.712   3.800   4.822
14349TIP3   OH242991   4.721   4.898   1.886
14349TIP3    H142992   4.644   4.872   1.935
14349TIP3    H242993   4.747   4.819   1.837
14350TIP3   OH242994   5.594   2.854   0.199
14350TIP3    H142995   5.560   2.943   0.206
14350TIP3    H242996   5.666   2.851   0.262
14351TIP3   OH242997   8.222   2.425   3.939
14351TIP3    H142998   8.223   2.455   3.848
14351TIP3    H242999   8.314   2.418   3.963
14352TIP3   OH243000   5.083   2.068   1.001
14352TIP3    H143001   4.991   2.084   1.019
14352TIP3    H243002   5.126   2.153   1.013
14353TIP3   OH243003   7.128   5.735   3.410
14353TIP3    H143004   7.059   5.768   3.467
14353TIP3    H243005   7.112   5.641   3.404
14354TIP3   OH243006   3.161   0.990   6.665
14354TIP3    H143007   3.129   1.027   6.747
14354TIP3    H243008   3.225   0.924   6.692
14355TIP3   OH243009   5.684   6.353   4.362
14355TIP3    H143010   5.758   6.368   4.420
14355TIP3    H243011   5.611   6.399   4.402
14356TIP3   OH243012   3.890   4.979   2.944
14356TIP3    H143013   3.848   4.915   3.001
14356TIP3    H243014   3.818   5.018   2.894
14357TIP3   OH243015   0.754   1.716   5.914
14357TIP3    H143016   0.782   1.799   5.951
14357TIP3    H243017   0.700   1.740   5.839
14358TIP3   OH243018   1.753   7.073   2.943
14358TIP3    H143019   1.772   6.979   2.941
14358TIP3    H243020   1.670   7.080   2.990
14359TIP3   OH243021   3.502   2.142   3.103
14359TIP3    H143022   3.407   2.141   3.109
14359TIP3    H243023   3.529   2.055   3.132
14360TIP3   OH243024   2.625   3.660   3.052
14360TIP3    H143025   2.673   3.605   3.114
14360TIP3    H243026   2.557   3.702   3.105
14361TIP3   OH243027   1.958   6.689   4.168
14361TIP3    H143028   1.968   6.595   4.185
14361TIP3    H243029   2.005   6.732   4.239
14362TIP3   OH243030   2.285   0.421   3.600
14362TIP3    H143031   2.285   0.364   3.523
14362TIP3    H243032   2.239   0.371   3.667
14363TIP3   OH243033   2.973   6.596   2.202
14363TIP3    H143034   3.052   6.650   2.202
14363TIP3    H243035   2.910   6.646   2.253
14364TIP3   OH243036   7.706   1.333   1.261
14364TIP3    H143037   7.636   1.271   1.281
14364TIP3    H243038   7.785   1.278   1.255
14365TIP3   OH243039   1.978   3.583   4.477
14365TIP3    H143040   1.977   3.678   4.490
14365TIP3    H243041   2.003   3.548   4.563
14366TIP3   OH243042   7.183   1.303   5.526
14366TIP3    H143043   7.170   1.232   5.590
14366TIP3    H243044   7.276   1.301   5.506
14367TIP3   OH243045   4.927   7.686   2.263
14367TIP3    H143046   4.901   7.594   2.259
14367TIP3    H243047   4.884   7.720   2.341
14368TIP3   OH243048   7.892   2.415   5.768
14368TIP3    H143049   7.858   2.466   5.842
14368TIP3    H243050   7.982   2.393   5.793
14369TIP3   OH243051   1.490   4.476   3.712
14369TIP3    H143052   1.415   4.527   3.743
14369TIP3    H243053   1.558   4.492   3.777
14370TIP3   OH243054   8.233   0.210   0.943
14370TIP3    H143055   8.146   0.243   0.923
14370TIP3    H243056   8.267   0.269   1.009
14371TIP3   OH243057   0.610   6.771   1.595
14371TIP3    H143058   0.684   6.829   1.613
14371TIP3    H243059   0.649   6.695   1.552
14372TIP3   OH243060   6.862   7.160   4.992
14372TIP3    H143061   6.924   7.098   4.952
14372TIP3    H243062   6.913   7.239   5.007
14373TIP3   OH243063   0.497   0.057   6.276
14373TIP3    H143064   0.499   0.086   6.367
14373TIP3    H243065   0.589   0.057   6.249
14374TIP3   OH243066   1.937   1.396   6.697
14374TIP3    H143067   1.972   1.413   6.609
14374TIP3    H243068   1.895   1.310   6.689
14375TIP3   OH243069   3.358   0.227   4.655
14375TIP3    H143070   3.448   0.254   4.638
14375TIP3    H243071   3.313   0.239   4.571
14376TIP3   OH243072   3.689   3.876   0.615
14376TIP3    H143073   3.617   3.936   0.635
14376TIP3    H243074   3.710   3.893   0.523
14377TIP3   OH243075   7.016   2.297   3.318
14377TIP3    H143076   6.990   2.243   3.393
14377TIP3    H243077   6.973   2.381   3.332
14378TIP3   OH243078   2.753   1.209   6.395
14378TIP3    H143079   2.767   1.287   6.450
14378TIP3    H243080   2.825   1.211   6.332
14379TIP3   OH243081   1.929   1.608   3.460
14379TIP3    H143082   1.846   1.574   3.427
14379TIP3    H243083   1.921   1.703   3.449
14380TIP3   OH243084   4.982   0.013   0.925
14380TIP3    H143085   4.929   0.092   0.934
14380TIP3    H243086   5.016   0.017   0.836
14381TIP3   OH243087   7.516   3.676   4.701
14381TIP3    H143088   7.606   3.659   4.672
14381TIP3    H243089   7.464   3.674   4.621
14382TIP3   OH243090   3.658   6.666   3.678
14382TIP3    H143091   3.730   6.610   3.648
14382TIP3    H243092   3.630   6.627   3.760
14383TIP3   OH243093   4.179   6.335   0.247
14383TIP3    H143094   4.235   6.394   0.297
14383TIP3    H243095   4.186   6.251   0.293
14384TIP3   OH243096   2.769   3.734   2.790
14384TIP3    H143097   2.700   3.741   2.857
14384TIP3    H243098   2.722   3.712   2.710
14385TIP3   OH243099   0.865   6.493   3.426
14385TIP3    H143100   0.895   6.560   3.488
14385TIP3    H243101   0.915   6.511   3.347
14386TIP3   OH243102   5.886   0.785   6.188
14386TIP3    H143103   5.805   0.825   6.158
14386TIP3    H243104   5.861   0.741   6.270
14387TIP3   OH243105   4.943   1.604   5.116
14387TIP3    H143106   4.965   1.697   5.104
14387TIP3    H243107   4.954   1.566   5.029
14388TIP3   OH243108   5.695   4.633   2.690
14388TIP3    H143109   5.602   4.628   2.711
14388TIP3    H243110   5.713   4.727   2.685
14389TIP3   OH243111   5.877   5.213   0.434
14389TIP3    H143112   5.963   5.230   0.395
14389TIP3    H243113   5.865   5.119   0.425
14390TIP3   OH243114   0.865   4.572   1.399
14390TIP3    H143115   0.923   4.633   1.355
14390TIP3    H243116   0.924   4.510   1.442
14391TIP3   OH243117   6.861   7.149   5.313
14391TIP3    H143118   6.894   7.118   5.397
14391TIP3    H243119   6.889   7.083   5.250
14392TIP3   OH243120   6.929   2.079   1.483
14392TIP3    H143121   6.898   2.167   1.502
14392TIP3    H243122   7.011   2.071   1.533
14393TIP3   OH243123   6.720   0.864   0.832
14393TIP3    H143124   6.757   0.945   0.868
14393TIP3    H243125   6.786   0.797   0.850
14394TIP3   OH243126   2.714   1.930   3.269
14394TIP3    H143127   2.697   1.939   3.363
14394TIP3    H243128   2.766   1.850   3.262
14395TIP3   OH243129   2.414   3.794   3.179
14395TIP3    H143130   2.372   3.865   3.130
14395TIP3    H243131   2.343   3.755   3.230
14396TIP3   OH243132   0.787   7.162   2.572
14396TIP3    H143133   0.746   7.082   2.540
14396TIP3    H243134   0.819   7.206   2.493
14397TIP3   OH243135   4.890   4.427   4.161
14397TIP3    H143136   4.924   4.516   4.165
14397TIP3    H243137   4.821   4.425   4.228
14398TIP3   OH243138   3.868   1.808   3.453
14398TIP3    H143139   3.921   1.834   3.377
14398TIP3    H243140   3.922   1.831   3.529
14399TIP3   OH243141   6.194   6.587   4.230
14399TIP3    H143142   6.287   6.606   4.235
14399TIP3    H243143   6.189   6.493   4.212
14400TIP3   OH243144   0.275   7.625   5.266
14400TIP3    H143145   0.369   7.618   5.251
14400TIP3    H243146   0.266   7.696   5.330
14401TIP3   OH243147   4.966   1.137   6.315
14401TIP3    H143148   4.990   1.145   6.407
14401TIP3    H243149   4.871   1.151   6.313
14402TIP3   OH243150   3.263   5.732   0.457
14402TIP3    H143151   3.300   5.665   0.399
14402TIP3    H243152   3.298   5.711   0.543
14403TIP3   OH243153   3.708   1.468   5.293
14403TIP3    H143154   3.780   1.486   5.353
14403TIP3    H243155   3.717   1.536   5.225
14404TIP3   OH243156   4.655   0.995   2.193
14404TIP3    H143157   4.626   0.905   2.178
14404TIP3    H243158   4.741   0.986   2.234
14405TIP3   OH243159   1.793   2.585   3.020
14405TIP3    H143160   1.827   2.561   2.933
14405TIP3    H243161   1.871   2.590   3.075
14406TIP3   OH243162   2.023   0.287   3.125
14406TIP3    H143163   1.965   0.303   3.051
14406TIP3    H243164   2.107   0.266   3.085
14407TIP3   OH243165   5.571   1.148   1.109
14407TIP3    H143166   5.478   1.171   1.110
14407TIP3    H243167   5.602   1.177   1.023
14408TIP3   OH243168   6.508   3.664   2.685
14408TIP3    H143169   6.531   3.739   2.739
14408TIP3    H243170   6.421   3.638   2.716
14409TIP3   OH243171   7.616   3.801   4.974
14409TIP3    H143172   7.636   3.783   4.882
14409TIP3    H243173   7.692   3.770   5.022
14410TIP3   OH243174   8.148   2.875   0.255
14410TIP3    H143175   8.168   2.904   0.344
14410TIP3    H243176   8.194   2.937   0.198
14411TIP3   OH243177   5.830   3.337   4.057
14411TIP3    H143178   5.768   3.298   4.117
14411TIP3    H243179   5.914   3.295   4.078
14412TIP3   OH243180   6.592   7.765   3.249
14412TIP3    H143181   6.670   7.783   3.197
14412TIP3    H243182   6.605   7.813   3.331
14413TIP3   OH243183   0.673   4.274   5.183
14413TIP3    H143184   0.696   4.312   5.267
14413TIP3    H243185   0.742   4.210   5.166
14414TIP3   OH243186   8.095   4.966   1.475
14414TIP3    H143187   8.006   4.998   1.484
14414TIP3    H243188   8.118   4.981   1.383
14415TIP3   OH243189   8.069   1.521   4.246
14415TIP3    H143190   8.012   1.486   4.177
14415TIP3    H243191   8.154   1.530   4.204
14416TIP3   OH243192   5.440   4.838   2.547
14416TIP3    H143193   5.421   4.873   2.634
14416TIP3    H243194   5.363   4.860   2.495
14417TIP3   OH243195   6.064   5.011   2.725
14417TIP3    H143196   6.065   4.915   2.724
14417TIP3    H243197   6.034   5.035   2.637
14418TIP3   OH243198   0.477   7.290   3.623
14418TIP3    H143199   0.466   7.218   3.562
14418TIP3    H243200   0.388   7.314   3.648
14419TIP3   OH243201   6.579   2.590   1.710
14419TIP3    H143202   6.556   2.597   1.617
14419TIP3    H243203   6.675   2.598   1.712
14420TIP3   OH243204   2.225   1.466   1.038
14420TIP3    H143205   2.300   1.477   0.980
14420TIP3    H243206   2.230   1.375   1.067
14421TIP3   OH243207   7.237   0.476   2.869
14421TIP3    H143208   7.142   0.468   2.867
14421TIP3    H243209   7.258   0.493   2.960
14422TIP3   OH243210   1.244   3.078   4.933
14422TIP3    H143211   1.338   3.066   4.937
14422TIP3    H243212   1.219   3.049   4.845
14423TIP3   OH243213   5.056   1.519   4.573
14423TIP3    H143214   4.983   1.559   4.526
14423TIP3    H243215   5.071   1.577   4.648
14424TIP3   OH243216   4.476   3.771   4.540
14424TIP3    H143217   4.495   3.843   4.601
14424TIP3    H243218   4.530   3.790   4.464
14425TIP3   OH243219   7.516   3.506   5.141
14425TIP3    H143220   7.483   3.559   5.068
14425TIP3    H243221   7.583   3.451   5.101
14426TIP3   OH243222   1.109   2.632   0.266
14426TIP3    H143223   1.019   2.599   0.271
14426TIP3    H243224   1.106   2.698   0.196
14427TIP3   OH243225   0.875   7.843   2.113
14427TIP3    H143226   0.811   7.787   2.069
14427TIP3    H243227   0.861   7.826   2.206
14428TIP3   OH243228   6.431   2.160   3.402
14428TIP3    H143229   6.484   2.169   3.323
14428TIP3    H243230   6.347   2.127   3.372
14429TIP3   OH243231   7.337   1.741   5.048
14429TIP3    H143232   7.424   1.774   5.067
14429TIP3    H243233   7.278   1.807   5.085
14430TIP3   OH243234   0.267   6.068   5.625
14430TIP3    H143235   0.333   6.006   5.657
14430TIP3    H243236   0.240   6.117   5.703
14431TIP3   OH243237   1.302   6.451   0.758
14431TIP3    H143238   1.327   6.368   0.800
14431TIP3    H243239   1.383   6.483   0.718
14432TIP3   OH243240   5.815   6.952   1.938
14432TIP3    H143241   5.820   7.044   1.964
14432TIP3    H243242   5.799   6.905   2.020
14433TIP3   OH243243   3.543   3.305   4.881
14433TIP3    H143244   3.537   3.383   4.935
14433TIP3    H243245   3.491   3.240   4.928
14434TIP3   OH243246   3.395   2.907   2.840
14434TIP3    H143247   3.429   2.985   2.884
14434TIP3    H243248   3.358   2.941   2.758
14435TIP3   OH243249   2.812   6.414   6.131
14435TIP3    H143250   2.718   6.426   6.144
14435TIP3    H243251   2.852   6.454   6.207
14436TIP3   OH243252   6.082   3.026   6.521
14436TIP3    H143253   6.013   2.960   6.528
14436TIP3    H243254   6.087   3.064   6.609
14437TIP3   OH243255   6.918   6.384   6.435
14437TIP3    H143256   6.842   6.440   6.418
14437TIP3    H243257   6.970   6.433   6.499
14438TIP3   OH243258   1.324   3.689   0.919
14438TIP3    H143259   1.313   3.614   0.860
14438TIP3    H243260   1.236   3.707   0.952
14439TIP3   OH243261   3.594   3.823   2.484
14439TIP3    H143262   3.582   3.889   2.552
14439TIP3    H243263   3.644   3.868   2.416
14440TIP3   OH243264   1.040   2.524   3.621
14440TIP3    H143265   1.089   2.528   3.703
14440TIP3    H243266   1.032   2.615   3.592
14441TIP3   OH243267   1.266   7.812   2.917
14441TIP3    H143268   1.266   7.756   2.994
14441TIP3    H243269   1.225   7.759   2.848
14442TIP3   OH243270   5.686   6.309   3.413
14442TIP3    H143271   5.661   6.287   3.323
14442TIP3    H243272   5.670   6.403   3.420
14443TIP3   OH243273   7.657   5.478   6.018
14443TIP3    H143274   7.746   5.442   6.020
14443TIP3    H243275   7.629   5.469   5.927
14444TIP3   OH243276   7.792   5.258   6.465
14444TIP3    H143277   7.853   5.277   6.537
14444TIP3    H243278   7.788   5.340   6.416
14445TIP3   OH243279   0.056   5.407   1.390
14445TIP3    H143280   0.128   5.401   1.453
14445TIP3    H243281   0.089   5.465   1.322
14446TIP3   OH243282   8.194   3.352   2.614
14446TIP3    H143283   8.245   3.335   2.693
14446TIP3    H243284   8.105   3.324   2.636
14447TIP3   OH243285   3.060   6.523   5.247
14447TIP3    H143286   3.061   6.459   5.175
14447TIP3    H243287   3.077   6.471   5.325
14448TIP3   OH243288   2.637   2.161   3.971
14448TIP3    H143289   2.706   2.094   3.974
14448TIP3    H243290   2.639   2.200   4.059
14449TIP3   OH243291   2.580   4.996   6.008
14449TIP3    H143292   2.650   5.056   5.983
14449TIP3    H243293   2.619   4.939   6.075
14450TIP3   OH243294   3.227   3.489   0.976
14450TIP3    H143295   3.175   3.476   0.897
14450TIP3    H243296   3.302   3.430   0.965
14451TIP3   OH243297   6.060   5.628   5.955
14451TIP3    H143298   6.071   5.720   5.975
14451TIP3    H243299   6.005   5.627   5.876
14452TIP3   OH243300   4.620   4.752   2.626
14452TIP3    H143301   4.536   4.782   2.660
14452TIP3    H243302   4.669   4.833   2.609
14453TIP3   OH243303   2.069   5.428   4.734
14453TIP3    H143304   2.138   5.362   4.750
14453TIP3    H243305   2.017   5.427   4.815
14454TIP3   OH243306   1.528   5.693   5.500
14454TIP3    H143307   1.522   5.788   5.512
14454TIP3    H243308   1.525   5.680   5.405
14455TIP3   OH243309   6.549   1.524   6.119
14455TIP3    H143310   6.485   1.560   6.180
14455TIP3    H243311   6.529   1.431   6.114
14456TIP3   OH243312   4.684   1.462   5.777
14456TIP3    H143313   4.690   1.501   5.864
14456TIP3    H243314   4.711   1.371   5.790
14457TIP3   OH243315   1.693   0.903   2.327
14457TIP3    H143316   1.660   0.830   2.275
14457TIP3    H243317   1.738   0.959   2.265
14458TIP3   OH243318   8.289   2.005   6.564
14458TIP3    H143319   8.253   2.000   6.653
14458TIP3    H243320   8.233   2.068   6.519
14459TIP3   OH243321   1.030   7.818   5.791
14459TIP3    H143322   1.033   7.859   5.878
14459TIP3    H243323   0.955   7.759   5.794
14460TIP3   OH243324   8.226   4.198   2.472
14460TIP3    H143325   8.249   4.152   2.391
14460TIP3    H243326   8.256   4.140   2.542
14461TIP3   OH243327   6.057   3.733   3.482
14461TIP3    H143328   6.146   3.701   3.467
14461TIP3    H243329   6.017   3.668   3.540
14462TIP3   OH243330   5.489   0.255   5.571
14462TIP3    H143331   5.540   0.203   5.508
14462TIP3    H243332   5.419   0.196   5.599
14463TIP3   OH243333   4.555   1.031   0.319
14463TIP3    H143334   4.606   0.990   0.249
14463TIP3    H243335   4.602   1.007   0.399
14464TIP3   OH243336   4.982   3.327   4.987
14464TIP3    H143337   4.921   3.300   5.056
14464TIP3    H243338   4.935   3.309   4.905
14465TIP3   OH243339   3.829   1.356   4.004
14465TIP3    H143340   3.851   1.312   4.086
14465TIP3    H243341   3.768   1.425   4.030
14466TIP3   OH243342   6.358   7.720   3.582
14466TIP3    H143343   6.358   7.656   3.653
14466TIP3    H243344   6.333   7.802   3.623
14467TIP3   OH243345   7.630   4.082   4.060
14467TIP3    H143346   7.590   4.014   4.006
14467TIP3    H243347   7.622   4.162   4.008
14468TIP3   OH243348   7.926   3.415   5.984
14468TIP3    H143349   7.975   3.494   6.006
14468TIP3    H243350   7.924   3.414   5.888
14469TIP3   OH243351   2.968   3.138   6.104
14469TIP3    H143352   2.877   3.113   6.122
14469TIP3    H243353   2.961   3.220   6.056
14470TIP3   OH243354   0.156   4.407   0.830
14470TIP3    H143355   0.116   4.405   0.917
14470TIP3    H243356   0.133   4.492   0.795
14471TIP3   OH243357   7.286   0.433   2.597
14471TIP3    H143358   7.242   0.511   2.562
14471TIP3    H243359   7.279   0.443   2.692
14472TIP3   OH243360   5.888   6.563   6.795
14472TIP3    H143361   5.980   6.570   6.821
14472TIP3    H243362   5.890   6.548   6.700
14473TIP3   OH243363   5.120   6.237   0.329
14473TIP3    H143364   5.065   6.175   0.377
14473TIP3    H243365   5.199   6.189   0.309
14474TIP3   OH243366   5.280   0.681   4.970
14474TIP3    H143367   5.330   0.613   5.015
14474TIP3    H243368   5.337   0.708   4.898
14475TIP3   OH243369   4.040   7.256   5.373
14475TIP3    H143370   3.965   7.221   5.324
14475TIP3    H243371   4.088   7.178   5.402
14476TIP3   OH243372   2.467   7.161   4.879
14476TIP3    H143373   2.440   7.183   4.790
14476TIP3    H243374   2.454   7.066   4.885
14477TIP3   OH243375   5.219   1.518   1.850
14477TIP3    H143376   5.180   1.533   1.935
14477TIP3    H243377   5.151   1.475   1.799
14478TIP3   OH243378   8.038   3.425   5.194
14478TIP3    H143379   8.011   3.335   5.210
14478TIP3    H243380   8.029   3.437   5.100
14479TIP3   OH243381   6.566   5.606   2.062
14479TIP3    H143382   6.616   5.554   1.999
14479TIP3    H243383   6.497   5.648   2.010
14480TIP3   OH243384   2.293   0.505   4.209
14480TIP3    H143385   2.303   0.530   4.117
14480TIP3    H243386   2.369   0.542   4.253
14481TIP3   OH243387   4.707   6.357   0.524
14481TIP3    H143388   4.743   6.286   0.577
14481TIP3    H243389   4.693   6.428   0.586
14482TIP3   OH243390   4.897   5.683   1.810
14482TIP3    H143391   4.806   5.663   1.786
14482TIP3    H243392   4.946   5.604   1.785
14483TIP3   OH243393   5.027   7.132   5.714
14483TIP3    H143394   5.106   7.140   5.767
14483TIP3    H243395   4.984   7.218   5.722
14484TIP3   OH243396   0.058   1.390   4.803
14484TIP3    H143397   0.074   1.296   4.800
14484TIP3    H243398   0.123   1.424   4.864
14485TIP3   OH243399   2.068   0.573   2.592
14485TIP3    H143400   1.992   0.535   2.635
14485TIP3    H243401   2.041   0.583   2.501
14486TIP3   OH243402   6.773   2.942   4.480
14486TIP3    H143403   6.858   2.978   4.453
14486TIP3    H243404   6.710   2.984   4.422
14487TIP3   OH243405   7.217   3.040   6.279
14487TIP3    H143406   7.176   3.126   6.267
14487TIP3    H243407   7.298   3.045   6.228
14488TIP3   OH243408   7.217   2.061   1.249
14488TIP3    H143409   7.208   2.108   1.331
14488TIP3    H243410   7.130   2.065   1.209
14489TIP3   OH243411   6.622   3.562   4.271
14489TIP3    H143412   6.594   3.497   4.206
14489TIP3    H243413   6.576   3.642   4.247
14490TIP3   OH243414   6.741   7.732   6.429
14490TIP3    H143415   6.778   7.674   6.495
14490TIP3    H243416   6.772   7.819   6.454
14491TIP3   OH243417   1.773   2.293   4.903
14491TIP3    H143418   1.682   2.270   4.923
14491TIP3    H243419   1.777   2.388   4.913
14492TIP3   OH243420   0.715   5.183   4.559
14492TIP3    H143421   0.659   5.209   4.633
14492TIP3    H243422   0.704   5.253   4.495
14493TIP3   OH243423   8.256   6.627   4.126
14493TIP3    H143424   8.320   6.589   4.186
14493TIP3    H243425   8.187   6.660   4.182
14494TIP3   OH243426   5.462   4.776   0.200
14494TIP3    H143427   5.368   4.779   0.185
14494TIP3    H243428   5.471   4.778   0.296
14495TIP3   OH243429   6.246   4.815   5.057
14495TIP3    H143430   6.157   4.789   5.081
14495TIP3    H243431   6.287   4.841   5.139
14496TIP3   OH243432   5.884   7.142   6.192
14496TIP3    H143433   5.805   7.146   6.246
14496TIP3    H243434   5.860   7.186   6.111
14497TIP3   OH243435   0.487   5.740   2.746
14497TIP3    H143436   0.575   5.710   2.765
14497TIP3    H243437   0.445   5.749   2.832
14498TIP3   OH243438   6.238   5.796   5.819
14498TIP3    H143439   6.256   5.709   5.783
14498TIP3    H243440   6.309   5.851   5.784
14499TIP3   OH243441   5.770   3.444   3.527
14499TIP3    H143442   5.824   3.496   3.468
14499TIP3    H243443   5.742   3.505   3.595
14500TIP3   OH243444   7.649   1.837   5.839
14500TIP3    H143445   7.685   1.759   5.879
14500TIP3    H243446   7.720   1.872   5.785
14501TIP3   OH243447   4.914   7.490   5.171
14501TIP3    H143448   4.908   7.438   5.251
14501TIP3    H243449   4.990   7.547   5.185
14502TIP3   OH243450   5.758   1.315   0.548
14502TIP3    H143451   5.701   1.391   0.558
14502TIP3    H243452   5.843   1.352   0.523
14503TIP3   OH243453   8.254   4.041   4.941
14503TIP3    H143454   8.297   4.081   4.865
14503TIP3    H243455   8.167   4.017   4.910
14504TIP3   OH243456   4.904   7.725   6.647
14504TIP3    H143457   4.931   7.814   6.627
14504TIP3    H243458   4.949   7.671   6.582
14505TIP3   OH243459   8.051   6.366   4.821
14505TIP3    H143460   8.076   6.389   4.910
14505TIP3    H243461   8.120   6.403   4.766
14506TIP3   OH243462   5.389   1.166   6.470
14506TIP3    H143463   5.458   1.105   6.497
14506TIP3    H243464   5.351   1.126   6.392
14507TIP3   OH243465   1.260   4.898   3.296
14507TIP3    H143466   1.236   4.806   3.307
14507TIP3    H243467   1.185   4.947   3.331
14508TIP3   OH243468   6.289   0.191   1.715
14508TIP3    H143469   6.227   0.243   1.766
14508TIP3    H243470   6.327   0.130   1.779
14509TIP3   OH243471   3.210   4.861   0.210
14509TIP3    H143472   3.295   4.817   0.215
14509TIP3    H243473   3.153   4.798   0.166
14510TIP3   OH243474   3.664   6.873   0.760
14510TIP3    H143475   3.653   6.931   0.685
14510TIP3    H243476   3.602   6.802   0.744
14511TIP3   OH243477   3.039   2.754   6.198
14511TIP3    H143478   3.093   2.797   6.132
14511TIP3    H243479   2.960   2.729   6.152
14512TIP3   OH243480   2.740   7.619   5.656
14512TIP3    H143481   2.820   7.587   5.700
14512TIP3    H243482   2.714   7.546   5.600
14513TIP3   OH243483   1.820   3.100   6.360
14513TIP3    H143484   1.842   3.020   6.406
14513TIP3    H243485   1.785   3.070   6.275
14514TIP3   OH243486   7.328   5.742   0.505
14514TIP3    H143487   7.280   5.713   0.428
14514TIP3    H243488   7.293   5.689   0.577
14515TIP3   OH243489   6.533   6.538   3.487
14515TIP3    H143490   6.487   6.516   3.568
14515TIP3    H243491   6.506   6.471   3.424
14516TIP3   OH243492   7.837   1.794   5.590
14516TIP3    H143493   7.904   1.799   5.521
14516TIP3    H243494   7.884   1.818   5.670
14517TIP3   OH243495   6.904   2.110   4.552
14517TIP3    H143496   6.925   2.077   4.640
14517TIP3    H243497   6.810   2.127   4.555
14518TIP3   OH243498   6.858   2.440   0.148
14518TIP3    H143499   6.775   2.408   0.181
14518TIP3    H243500   6.846   2.444   0.053
14519TIP3   OH243501   0.855   7.085   3.003
14519TIP3    H143502   0.792   7.081   3.075
14519TIP3    H243503   0.807   7.127   2.932
14520TIP3   OH243504   1.270   5.352   2.640
14520TIP3    H143505   1.279   5.258   2.629
14520TIP3    H243506   1.359   5.383   2.654
14521TIP3   OH243507   0.438   4.727   1.671
14521TIP3    H143508   0.503   4.658   1.656
14521TIP3    H243509   0.369   4.684   1.722
14522TIP3   OH243510   2.438   5.402   3.511
14522TIP3    H143511   2.495   5.424   3.437
14522TIP3    H243512   2.366   5.352   3.471
14523TIP3   OH243513   5.986   3.699   3.995
14523TIP3    H143514   6.073   3.697   3.957
14523TIP3    H243515   5.932   3.745   3.931
14524TIP3   OH243516   5.689   5.429   6.047
14524TIP3    H143517   5.777   5.418   6.011
14524TIP3    H243518   5.631   5.427   5.970
14525TIP3   OH243519   0.467   0.357   5.298
14525TIP3    H143520   0.488   0.449   5.309
14525TIP3    H243521   0.475   0.341   5.204
14526TIP3   OH243522   4.528   0.784   4.160
14526TIP3    H143523   4.480   0.854   4.115
14526TIP3    H243524   4.514   0.707   4.105
14527TIP3   OH243525   3.914   6.560   6.358
14527TIP3    H143526   4.007   6.538   6.356
14527TIP3    H243527   3.884   6.546   6.268
14528TIP3   OH243528   7.872   0.747   3.381
14528TIP3    H143529   7.939   0.684   3.353
14528TIP3    H243530   7.890   0.825   3.329
14529TIP3   OH243531   5.134   2.992   6.569
14529TIP3    H143532   5.203   2.929   6.589
14529TIP3    H243533   5.129   3.048   6.647
14530TIP3   OH243534   6.409   4.363   2.778
14530TIP3    H143535   6.424   4.335   2.688
14530TIP3    H243536   6.487   4.333   2.826
14531TIP3   OH243537   0.941   6.754   5.397
14531TIP3    H143538   0.958   6.681   5.456
14531TIP3    H243539   0.988   6.828   5.436
14532TIP3   OH243540   1.106   4.060   4.536
14532TIP3    H143541   1.018   4.090   4.515
14532TIP3    H243542   1.164   4.117   4.485
14533TIP3   OH243543   5.369   0.364   4.477
14533TIP3    H143544   5.425   0.308   4.423
14533TIP3    H243545   5.312   0.303   4.524
14534TIP3   OH243546   4.942   2.192   6.384
14534TIP3    H143547   4.991   2.166   6.462
14534TIP3    H243548   4.994   2.263   6.346
14535TIP3   OH243549   0.817   6.729   2.608
14535TIP3    H143550   0.760   6.760   2.678
14535TIP3    H243551   0.800   6.788   2.535
14536TIP3   OH243552   0.895   1.018   2.209
14536TIP3    H143553   0.853   0.934   2.222
14536TIP3    H243554   0.956   1.027   2.282
14537TIP3   OH243555   3.778   5.938   4.288
14537TIP3    H143556   3.871   5.916   4.290
14537TIP3    H243557   3.734   5.855   4.307
14538TIP3   OH243558   1.725   3.547   6.542
14538TIP3    H143559   1.754   3.638   6.547
14538TIP3    H243560   1.786   3.505   6.481
14539TIP3   OH243561   6.930   3.884   3.685
14539TIP3    H143562   6.843   3.885   3.644
14539TIP3    H243563   6.939   3.795   3.719
14540TIP3   OH243564   5.672   0.025   3.936
14540TIP3    H143565   5.747   0.073   3.970
14540TIP3    H243566   5.699  -0.067   3.939
14541TIP3   OH243567   4.659   7.063   6.422
14541TIP3    H143568   4.740   7.080   6.373
14541TIP3    H243569   4.681   6.989   6.479
14542TIP3   OH243570   1.888   1.663   0.928
14542TIP3    H143571   1.954   1.732   0.920
14542TIP3    H243572   1.840   1.665   0.846
14543TIP3   OH243573   2.944   0.739   5.389
14543TIP3    H143574   2.926   0.665   5.448
14543TIP3    H243575   2.894   0.719   5.310
14544TIP3   OH243576   3.036   5.024   2.549
14544TIP3    H143577   2.984   5.099   2.522
14544TIP3    H243578   3.097   5.010   2.477
14545TIP3   OH243579   4.548   5.582   1.220
14545TIP3    H143580   4.468   5.554   1.265
14545TIP3    H243581   4.552   5.677   1.236
14546TIP3   OH243582   0.752   0.287   4.497
14546TIP3    H143583   0.841   0.262   4.475
14546TIP3    H243584   0.697   0.222   4.453
14547TIP3   OH243585   2.131   6.142   1.628
14547TIP3    H143586   2.041   6.125   1.601
14547TIP3    H243587   2.151   6.228   1.592
14548TIP3   OH243588   1.926   3.100   2.602
14548TIP3    H143589   1.986   3.119   2.530
14548TIP3    H243590   1.893   3.186   2.628
14549TIP3   OH243591   6.197   7.698   5.827
14549TIP3    H143592   6.103   7.693   5.809
14549TIP3    H243593   6.236   7.635   5.767
14550TIP3   OH243594   1.415   0.131   4.152
14550TIP3    H143595   1.334   0.090   4.181
14550TIP3    H243596   1.414   0.119   4.057
14551TIP3   OH243597   4.759   3.284   1.301
14551TIP3    H143598   4.775   3.297   1.395
14551TIP3    H243599   4.664   3.294   1.292
14552TIP3   OH243600   4.737   1.880   4.806
14552TIP3    H143601   4.662   1.918   4.850
14552TIP3    H243602   4.806   1.876   4.872
14553TIP3   OH243603   7.531   5.272   5.350
14553TIP3    H143604   7.609   5.269   5.295
14553TIP3    H243605   7.476   5.339   5.310
14554TIP3   OH243606   3.475   2.119   6.471
14554TIP3    H143607   3.517   2.034   6.477
14554TIP3    H243608   3.406   2.117   6.538
14555TIP3   OH243609   5.880   2.859   6.664
14555TIP3    H143610   5.967   2.833   6.694
14555TIP3    H243611   5.821   2.828   6.733
14556TIP3   OH243612   6.610   0.063   0.945
14556TIP3    H143613   6.674   0.008   0.900
14556TIP3    H243614   6.592   0.134   0.882
14557TIP3   OH243615   2.621   0.748   4.863
14557TIP3    H143616   2.529   0.740   4.841
14557TIP3    H243617   2.640   0.673   4.919
14558TIP3   OH243618   4.326   5.530   1.413
14558TIP3    H143619   4.346   5.594   1.481
14558TIP3    H243620   4.368   5.449   1.443
14559TIP3   OH243621   7.671   4.327   4.520
14559TIP3    H143622   7.623   4.400   4.479
14559TIP3    H243623   7.664   4.255   4.457
14560TIP3   OH243624   8.203   6.631   6.540
14560TIP3    H143625   8.253   6.572   6.484
14560TIP3    H243626   8.253   6.636   6.621
14561TIP3   OH243627   5.412   3.787   6.632
14561TIP3    H143628   5.375   3.713   6.679
14561TIP3    H243629   5.395   3.862   6.688
14562TIP3   OH243630   2.019   4.149   3.420
14562TIP3    H143631   1.967   4.108   3.351
14562TIP3    H243632   2.051   4.230   3.380
14563TIP3   OH243633   1.101   4.469   0.608
14563TIP3    H143634   1.178   4.413   0.616
14563TIP3    H243635   1.137   4.557   0.597
14564TIP3   OH243636   2.955   7.014   5.785
14564TIP3    H143637   2.878   6.975   5.743
14564TIP3    H243638   2.989   6.944   5.841
14565TIP3   OH243639   4.862   4.881   5.027
14565TIP3    H143640   4.791   4.843   5.078
14565TIP3    H243641   4.869   4.971   5.059
14566TIP3   OH243642   6.978   2.969   3.693
14566TIP3    H143643   6.985   2.943   3.785
14566TIP3    H243644   6.887   3.000   3.684
14567TIP3   OH243645   2.549   7.070   3.121
14567TIP3    H143646   2.486   7.140   3.106
14567TIP3    H243647   2.541   7.049   3.214
14568TIP3   OH243648   2.680   7.296   5.359
14568TIP3    H143649   2.650   7.327   5.273
14568TIP3    H243650   2.776   7.304   5.355
14569TIP3   OH243651   0.741   5.547   4.005
14569TIP3    H143652   0.762   5.639   4.022
14569TIP3    H243653   0.645   5.546   4.000
14570TIP3   OH243654   7.078   7.307   0.240
14570TIP3    H143655   7.021   7.350   0.176
14570TIP3    H243656   7.113   7.232   0.193
14571TIP3   OH243657   2.843   4.181   5.807
14571TIP3    H143658   2.853   4.240   5.732
14571TIP3    H243659   2.927   4.187   5.853
14572TIP3   OH243660   3.323   4.025   2.218
14572TIP3    H143661   3.386   4.078   2.267
14572TIP3    H243662   3.333   4.053   2.127
14573TIP3   OH243663   6.162   4.379   6.293
14573TIP3    H143664   6.183   4.347   6.205
14573TIP3    H243665   6.072   4.412   6.285
14574TIP3   OH243666   8.081   3.743   3.595
14574TIP3    H143667   8.145   3.721   3.527
14574TIP3    H243668   8.074   3.839   3.590
14575TIP3   OH243669   6.819   1.425   4.001
14575TIP3    H143670   6.777   1.490   3.945
14575TIP3    H243671   6.841   1.473   4.081
14576TIP3   OH243672   7.129   4.122   2.812
14576TIP3    H143673   7.099   4.211   2.825
14576TIP3    H243674   7.081   4.070   2.876
14577TIP3   OH243675   4.624   1.456   3.773
14577TIP3    H143676   4.577   1.540   3.768
14577TIP3    H243677   4.648   1.438   3.683
14578TIP3   OH243678   1.979   4.541   5.600
14578TIP3    H143679   1.888   4.551   5.571
14578TIP3    H243680   1.995   4.617   5.657
14579TIP3   OH243681   4.423   1.088   1.397
14579TIP3    H143682   4.349   1.081   1.457
14579TIP3    H243683   4.496   1.117   1.452
14580TIP3   OH243684   7.483   7.080   0.107
14580TIP3    H143685   7.496   7.049   0.017
14580TIP3    H243686   7.571   7.102   0.138
14581TIP3   OH243687   7.489   7.766   5.355
14581TIP3    H143688   7.434   7.733   5.283
14581TIP3    H243689   7.432   7.824   5.405
14582TIP3   OH243690   0.196   2.574   6.267
14582TIP3    H143691   0.276   2.527   6.245
14582TIP3    H243692   0.149   2.583   6.184
14583TIP3   OH243693   6.759   0.468   5.780
14583TIP3    H143694   6.668   0.499   5.784
14583TIP3    H243695   6.765   0.402   5.849
14584TIP3   OH243696   7.121   6.934   6.037
14584TIP3    H143697   7.182   6.861   6.052
14584TIP3    H243698   7.035   6.897   6.053
14585TIP3   OH243699   7.862   3.089   4.863
14585TIP3    H143700   7.818   3.107   4.780
14585TIP3    H243701   7.954   3.076   4.839
14586TIP3   OH243702   4.188   4.681   5.999
14586TIP3    H143703   4.239   4.613   5.956
14586TIP3    H243704   4.158   4.641   6.081
14587TIP3   OH243705   7.621   5.944   5.945
14587TIP3    H143706   7.607   5.872   6.008
14587TIP3    H243707   7.575   5.915   5.866
14588TIP3   OH243708   6.437   5.701   0.458
14588TIP3    H143709   6.436   5.723   0.551
14588TIP3    H243710   6.378   5.625   0.451
14589TIP3   OH243711   2.689   4.118   1.454
14589TIP3    H143712   2.742   4.138   1.531
14589TIP3    H243713   2.626   4.053   1.485
14590TIP3   OH243714   7.623   4.670   1.318
14590TIP3    H143715   7.559   4.668   1.389
14590TIP3    H243716   7.578   4.629   1.244
14591TIP3   OH243717   4.580   2.849   2.046
14591TIP3    H143718   4.664   2.894   2.043
14591TIP3    H243719   4.589   2.776   1.986
14592TIP3   OH243720   7.036   0.042   1.936
14592TIP3    H143721   7.002   0.118   1.984
14592TIP3    H243722   7.059   0.077   1.850
14593TIP3   OH243723   0.351   1.875   5.773
14593TIP3    H143724   0.319   1.880   5.683
14593TIP3    H243725   0.343   1.965   5.806
14594TIP3   OH243726   0.460   3.508   6.175
14594TIP3    H143727   0.429   3.434   6.227
14594TIP3    H243728   0.439   3.483   6.085
14595TIP3   OH243729   7.753   0.458   1.228
14595TIP3    H143730   7.689   0.414   1.284
14595TIP3    H243731   7.783   0.390   1.168
14596TIP3   OH243732   6.516   6.376   4.752
14596TIP3    H143733   6.498   6.282   4.750
14596TIP3    H243734   6.555   6.395   4.667
14597TIP3   OH243735   2.042   3.417   1.784
14597TIP3    H143736   2.051   3.508   1.755
14597TIP3    H243737   2.088   3.413   1.868
14598TIP3   OH243738   5.302   7.623   4.936
14598TIP3    H143739   5.317   7.683   5.009
14598TIP3    H243740   5.353   7.545   4.958
14599TIP3   OH243741   2.419   0.264   2.047
14599TIP3    H143742   2.456   0.322   1.981
14599TIP3    H243743   2.494   0.225   2.091
14600TIP3   OH243744   0.103   3.545   5.051
14600TIP3    H143745   0.052   3.544   5.131
14600TIP3    H243746   0.062   3.479   4.995
14601TIP3   OH243747   1.184   0.144   5.621
14601TIP3    H143748   1.184   0.182   5.533
14601TIP3    H243749   1.093   0.116   5.635
14602TIP3   OH243750   3.045   7.354   4.535
14602TIP3    H143751   3.057   7.373   4.441
14602TIP3    H243752   2.951   7.355   4.548
14603TIP3   OH243753   3.170   1.956   5.855
14603TIP3    H143754   3.124   1.887   5.809
14603TIP3    H243755   3.177   2.028   5.792
14604TIP3   OH243756   4.586   6.696   6.343
14604TIP3    H143757   4.538   6.741   6.273
14604TIP3    H243758   4.657   6.651   6.297
14605TIP3   OH243759   5.867   2.343   4.600
14605TIP3    H143760   5.932   2.303   4.658
14605TIP3    H243761   5.805   2.273   4.581
14606TIP3   OH243762   2.354   3.849   6.173
14606TIP3    H143763   2.366   3.888   6.087
14606TIP3    H243764   2.420   3.890   6.228
14607TIP3   OH243765   5.830   7.051   4.593
14607TIP3    H143766   5.764   7.116   4.619
14607TIP3    H243767   5.855   7.077   4.504
14608TIP3   OH243768   8.052   2.582   4.649
14608TIP3    H143769   8.077   2.498   4.688
14608TIP3    H243770   8.052   2.643   4.722
14609TIP3   OH243771   0.078   4.192   5.948
14609TIP3    H143772   0.172   4.196   5.967
14609TIP3    H243773   0.050   4.108   5.986
14610TIP3   OH243774   1.461   4.303   2.710
14610TIP3    H143775   1.498   4.214   2.709
14610TIP3    H243776   1.429   4.315   2.800
14611TIP3   OH243777   6.637   7.321   0.841
14611TIP3    H143778   6.612   7.235   0.875
14611TIP3    H243779   6.564   7.378   0.865
14612TIP3   OH243780   0.165   6.866   4.324
14612TIP3    H143781   0.120   6.883   4.406
14612TIP3    H243782   0.159   6.771   4.313
14613TIP3   OH243783   0.038   5.402   3.780
14613TIP3    H143784   0.019   5.362   3.864
14613TIP3    H243785   0.094   5.476   3.800
14614TIP3   OH243786   4.329   3.658   2.503
14614TIP3    H143787   4.370   3.651   2.589
14614TIP3    H243788   4.235   3.655   2.521
14615TIP3   OH243789   2.682   5.691   3.615
14615TIP3    H143790   2.688   5.618   3.553
14615TIP3    H243791   2.759   5.680   3.671
14616TIP3   OH243792   7.063   2.926   6.493
14616TIP3    H143793   7.135   2.961   6.441
14616TIP3    H243794   7.029   3.002   6.540
14617TIP3   OH243795   6.861   3.059   1.683
14617TIP3    H143796   6.794   2.991   1.669
14617TIP3    H243797   6.817   3.124   1.738
14618TIP3   OH243798   6.791   7.722   3.028
14618TIP3    H143799   6.861   7.658   3.042
14618TIP3    H243800   6.787   7.734   2.933
14619TIP3   OH243801   1.694   1.553   3.298
14619TIP3    H143802   1.611   1.534   3.343
14619TIP3    H243803   1.683   1.642   3.265
14620TIP3   OH243804   7.901   2.760   5.673
14620TIP3    H143805   7.817   2.778   5.631
14620TIP3    H243806   7.880   2.752   5.766
14621TIP3   OH243807   4.131   0.215   0.279
14621TIP3    H143808   4.112   0.234   0.371
14621TIP3    H243809   4.128   0.300   0.236
14622TIP3   OH243810   7.368   6.657   4.852
14622TIP3    H143811   7.403   6.624   4.934
14622TIP3    H243812   7.402   6.746   4.845
14623TIP3   OH243813   6.933   0.200   0.206
14623TIP3    H143814   6.913   0.289   0.176
14623TIP3    H243815   7.028   0.201   0.221
14624TIP3   OH243816   0.959   4.267   2.676
14624TIP3    H143817   0.991   4.220   2.753
14624TIP3    H243818   1.000   4.353   2.683
14625TIP3   OH243819   7.810   0.074   6.325
14625TIP3    H143820   7.843   0.006   6.266
14625TIP3    H243821   7.840   0.047   6.412
14626TIP3   OH243822   8.020   1.209   1.787
14626TIP3    H143823   8.014   1.301   1.763
14626TIP3    H243824   8.046   1.210   1.879
14627TIP3   OH243825   1.258   4.213   0.669
14627TIP3    H143826   1.204   4.162   0.609
14627TIP3    H243827   1.286   4.149   0.735
14628TIP3   OH243828   5.748   7.285   2.933
14628TIP3    H143829   5.704   7.252   2.854
14628TIP3    H243830   5.790   7.366   2.904
14629TIP3   OH243831   6.494   2.442   0.620
14629TIP3    H143832   6.530   2.530   0.628
14629TIP3    H243833   6.571   2.386   0.608
14630TIP3   OH243834   5.726   4.712   6.609
14630TIP3    H143835   5.676   4.678   6.683
14630TIP3    H243836   5.709   4.806   6.608
14631TIP3   OH243837   1.486   6.033   0.713
14631TIP3    H143838   1.577   6.025   0.686
14631TIP3    H243839   1.474   5.965   0.779
14632TIP3   OH243840   5.488   1.622   3.010
14632TIP3    H143841   5.543   1.666   2.945
14632TIP3    H243842   5.535   1.634   3.093
14633TIP3   OH243843   6.583   3.285   1.595
14633TIP3    H143844   6.553   3.199   1.564
14633TIP3    H243845   6.506   3.341   1.585
14634TIP3   OH243846   4.857   1.047   4.706
14634TIP3    H143847   4.771   1.066   4.668
14634TIP3    H243848   4.911   1.122   4.682
14635TIP3   OH243849   3.124   4.293   0.493
14635TIP3    H143850   3.134   4.375   0.446
14635TIP3    H243851   3.034   4.295   0.527
14636TIP3   OH243852   4.685   6.658   1.622
14636TIP3    H143853   4.755   6.717   1.592
14636TIP3    H243854   4.730   6.576   1.642
14637TIP3   OH243855   2.194   1.288   6.183
14637TIP3    H143856   2.157   1.219   6.128
14637TIP3    H243857   2.174   1.261   6.272
14638TIP3   OH243858   6.623   1.246   4.711
14638TIP3    H143859   6.645   1.190   4.785
14638TIP3    H243860   6.603   1.331   4.751
14639TIP3   OH243861   5.278   6.785   4.290
14639TIP3    H143862   5.358   6.796   4.341
14639TIP3    H243863   5.307   6.788   4.199
14640TIP3   OH243864   1.675   5.710   2.351
14640TIP3    H143865   1.708   5.798   2.336
14640TIP3    H243866   1.688   5.694   2.445
14641TIP3   OH243867   5.896   0.412   5.782
14641TIP3    H143868   5.855   0.497   5.764
14641TIP3    H243869   5.983   0.435   5.815
14642TIP3   OH243870   2.298   4.414   5.477
14642TIP3    H143871   2.336   4.451   5.556
14642TIP3    H243872   2.233   4.351   5.509
14643TIP3   OH243873   7.209   0.538   4.807
14643TIP3    H143874   7.192   0.543   4.713
14643TIP3    H243875   7.276   0.470   4.816
14644TIP3   OH243876   7.477   4.044   5.592
14644TIP3    H143877   7.568   4.057   5.619
14644TIP3    H243878   7.477   3.960   5.547
14645TIP3   OH243879   4.316   5.575   4.025
14645TIP3    H143880   4.324   5.667   4.049
14645TIP3    H243881   4.222   5.557   4.030
14646TIP3   OH243882   0.253   0.214   5.470
14646TIP3    H143883   0.320   0.236   5.405
14646TIP3    H243884   0.220   0.299   5.501
14647TIP3   OH243885   2.583   6.725   0.907
14647TIP3    H143886   2.560   6.754   0.995
14647TIP3    H243887   2.617   6.637   0.919
14648TIP3   OH243888   8.022   2.315   1.953
14648TIP3    H143889   7.991   2.313   2.043
14648TIP3    H243890   7.950   2.278   1.902
14649TIP3   OH243891   4.623   7.380   5.074
14649TIP3    H143892   4.647   7.322   5.001
14649TIP3    H243893   4.653   7.467   5.045
14650TIP3   OH243894   4.264   3.984   5.633
14650TIP3    H143895   4.222   4.069   5.617
14650TIP3    H243896   4.293   3.955   5.546
14651TIP3   OH243897   2.247   0.683   1.731
14651TIP3    H143898   2.152   0.685   1.718
14651TIP3    H243899   2.260   0.702   1.823
14652TIP3   OH243900   1.191   3.591   3.284
14652TIP3    H143901   1.232   3.669   3.322
14652TIP3    H243902   1.118   3.625   3.233
14653TIP3   OH243903   3.217   7.499   2.763
14653TIP3    H143904   3.268   7.475   2.685
14653TIP3    H243905   3.191   7.415   2.801
14654TIP3   OH243906   5.140   5.174   3.105
14654TIP3    H143907   5.115   5.163   3.197
14654TIP3    H243908   5.090   5.107   3.058
14655TIP3   OH243909   2.696   2.559   4.557
14655TIP3    H143910   2.771   2.604   4.596
14655TIP3    H243911   2.712   2.466   4.575
14656TIP3   OH243912   6.683   4.321   2.029
14656TIP3    H143913   6.690   4.377   2.106
14656TIP3    H243914   6.744   4.359   1.965
14657TIP3   OH243915   1.900   3.115   4.066
14657TIP3    H143916   1.939   3.062   4.135
14657TIP3    H243917   1.974   3.155   4.020
14658TIP3   OH243918   6.925   4.370   3.436
14658TIP3    H143919   6.965   4.408   3.514
14658TIP3    H243920   6.984   4.299   3.410
14659TIP3   OH243921   2.122   1.894   1.225
14659TIP3    H143922   2.030   1.872   1.237
14659TIP3    H243923   2.152   1.922   1.312
14660TIP3   OH243924   1.816   6.616   1.039
14660TIP3    H143925   1.779   6.529   1.050
14660TIP3    H243926   1.768   6.653   0.965
14661TIP3   OH243927   4.686   1.926   5.255
14661TIP3    H143928   4.617   1.979   5.215
14661TIP3    H243929   4.733   1.987   5.312
14662TIP3   OH243930   5.894   2.654   1.087
14662TIP3    H143931   5.826   2.721   1.082
14662TIP3    H243932   5.938   2.657   1.003
14663TIP3   OH243933   4.435   7.846   4.982
14663TIP3    H143934   4.522   7.814   4.960
14663TIP3    H243935   4.385   7.767   5.003
14664TIP3   OH243936   4.644   4.878   1.582
14664TIP3    H143937   4.718   4.829   1.617
14664TIP3    H243938   4.594   4.903   1.660
14665TIP3   OH243939   6.876   0.739   3.410
14665TIP3    H143940   6.958   0.789   3.407
14665TIP3    H243941   6.893   0.660   3.358
14666TIP3   OH243942   3.583   6.168   1.534
14666TIP3    H143943   3.622   6.250   1.564
14666TIP3    H243944   3.656   6.108   1.526
14667TIP3   OH243945   5.718   7.517   4.409
14667TIP3    H143946   5.717   7.443   4.349
14667TIP3    H243947   5.805   7.513   4.450
14668TIP3   OH243948   7.506   7.194   3.720
14668TIP3    H143949   7.587   7.144   3.707
14668TIP3    H243950   7.470   7.206   3.632
14669TIP3   OH243951   5.010   7.315   0.887
14669TIP3    H143952   5.029   7.353   0.973
14669TIP3    H243953   5.053   7.374   0.825
14670TIP3   OH243954   2.239   3.497   2.653
14670TIP3    H143955   2.225   3.404   2.671
14670TIP3    H243956   2.322   3.518   2.694
14671TIP3   OH243957   7.037   7.206   4.375
14671TIP3    H143958   6.984   7.263   4.320
14671TIP3    H243959   7.099   7.264   4.418
14672TIP3   OH243960   7.523   0.878   4.079
14672TIP3    H143961   7.530   0.963   4.036
14672TIP3    H243962   7.440   0.843   4.048
14673TIP3   OH243963   7.584   1.813   6.613
14673TIP3    H143964   7.571   1.847   6.702
14673TIP3    H243965   7.649   1.744   6.623
14674TIP3   OH243966   4.665   6.700   3.131
14674TIP3    H143967   4.678   6.737   3.043
14674TIP3    H243968   4.577   6.662   3.128
14675TIP3   OH243969   6.234   2.846   2.544
14675TIP3    H143970   6.316   2.848   2.593
14675TIP3    H243971   6.249   2.785   2.472
14676TIP3   OH243972   0.681   6.508   1.910
14676TIP3    H143973   0.762   6.484   1.956
14676TIP3    H243974   0.675   6.446   1.837
14677TIP3   OH243975   5.887   6.110   1.449
14677TIP3    H143976   5.894   6.127   1.355
14677TIP3    H243977   5.852   6.192   1.486
14678TIP3   OH243978   2.527   1.405   5.112
14678TIP3    H143979   2.454   1.416   5.173
14678TIP3    H243980   2.574   1.488   5.114
14679TIP3   OH243981   2.665   2.175   6.799
14679TIP3    H143982   2.641   2.200   6.710
14679TIP3    H243983   2.758   2.152   6.794
14680TIP3   OH243984   0.023   4.637   3.255
14680TIP3    H143985   0.067   4.595   3.181
14680TIP3    H243986   0.093   4.680   3.303
14681TIP3   OH243987   5.349   3.421   0.611
14681TIP3    H143988   5.290   3.379   0.548
14681TIP3    H243989   5.318   3.390   0.696
14682TIP3   OH243990   8.078   7.332   2.008
14682TIP3    H143991   8.060   7.321   1.915
14682TIP3    H243992   8.168   7.365   2.010
14683TIP3   OH243993   5.660   0.034   5.953
14683TIP3    H143994   5.573   0.012   5.921
14683TIP3    H243995   5.668   0.128   5.939
14684TIP3   OH243996   7.129   5.273   4.896
14684TIP3    H143997   7.175   5.200   4.936
14684TIP3    H243998   7.197   5.323   4.851
14685TIP3   OH243999   3.671   1.229   0.375
14685TIP3    H144000   3.579   1.250   0.359
14685TIP3    H244001   3.715   1.314   0.377
14686TIP3   OH244002   3.657   6.762   4.217
14686TIP3    H144003   3.590   6.754   4.285
14686TIP3    H244004   3.736   6.791   4.264
14687TIP3   OH244005   5.304   0.026   6.630
14687TIP3    H144006   5.234  -0.039   6.642
14687TIP3    H244007   5.271   0.085   6.562
14688TIP3   OH244008   1.714   3.552   1.450
14688TIP3    H144009   1.621   3.556   1.474
14688TIP3    H244010   1.726   3.463   1.415
14689TIP3   OH244011   1.178   0.954   2.627
14689TIP3    H144012   1.114   0.991   2.566
14689TIP3    H244013   1.126   0.926   2.703
14690TIP3   OH244014   4.095   0.561   3.097
14690TIP3    H144015   4.118   0.480   3.143
14690TIP3    H244016   4.009   0.586   3.132
14691TIP3   OH244017   4.382   3.143   2.953
14691TIP3    H144018   4.412   3.054   2.933
14691TIP3    H244019   4.394   3.151   3.048
14692TIP3   OH244020   4.969   4.445   1.319
14692TIP3    H144021   4.954   4.527   1.366
14692TIP3    H244022   4.996   4.382   1.386
14693TIP3   OH244023   8.069   7.686   4.467
14693TIP3    H144024   7.998   7.668   4.529
14693TIP3    H244025   8.027   7.683   4.381
14694TIP3   OH244026   7.340   3.478   5.841
14694TIP3    H144027   7.280   3.405   5.828
14694TIP3    H244028   7.336   3.527   5.759
14695TIP3   OH244029   7.453   6.927   4.812
14695TIP3    H144030   7.382   6.991   4.811
14695TIP3    H244031   7.531   6.979   4.836
14696TIP3   OH244032   3.551   1.746   5.440
14696TIP3    H144033   3.503   1.826   5.462
14696TIP3    H244034   3.584   1.762   5.352
14697TIP3   OH244035   7.070   6.482   3.642
14697TIP3    H144036   7.115   6.504   3.724
14697TIP3    H244037   7.138   6.492   3.575
14698TIP3   OH244038   0.174   1.029   0.905
14698TIP3    H144039   0.137   0.952   0.948
14698TIP3    H244040   0.256   0.998   0.866
14699TIP3   OH244041   1.782   4.147   5.365
14699TIP3    H144042   1.863   4.181   5.328
14699TIP3    H244043   1.792   4.158   5.459
14700TIP3   OH244044   8.205   5.026   6.045
14700TIP3    H144045   8.149   5.007   5.969
14700TIP3    H244046   8.146   5.065   6.109
14701TIP3   OH244047   4.699   1.194   6.316
14701TIP3    H144048   4.644   1.262   6.278
14701TIP3    H244049   4.717   1.223   6.405
14702TIP3   OH244050   4.774   6.558   0.308
14702TIP3    H144051   4.741   6.505   0.380
14702TIP3    H244052   4.817   6.496   0.249
14703TIP3   OH244053   4.937   5.808   1.200
14703TIP3    H144054   4.920   5.790   1.293
14703TIP3    H244055   4.882   5.745   1.153
14704TIP3   OH244056   2.974   7.842   1.103
14704TIP3    H144057   2.960   7.748   1.112
14704TIP3    H244058   3.028   7.851   1.025
14705TIP3   OH244059   2.511   5.442   4.894
14705TIP3    H144060   2.542   5.356   4.868
14705TIP3    H244061   2.590   5.494   4.905
14706TIP3   OH244062   1.605   7.591   5.896
14706TIP3    H144063   1.537   7.638   5.848
14706TIP3    H244064   1.675   7.656   5.907
14707TIP3   OH244065   5.835   1.548   0.149
14707TIP3    H144066   5.859   1.618   0.211
14707TIP3    H244067   5.746   1.524   0.174
14708TIP3   OH244068   2.491   6.635   0.586
14708TIP3    H144069   2.430   6.653   0.658
14708TIP3    H244070   2.508   6.541   0.593
14709TIP3   OH244071   1.529   3.069   4.952
14709TIP3    H144072   1.555   2.988   4.909
14709TIP3    H244073   1.583   3.136   4.911
14710TIP3   OH244074   2.274   7.777   0.652
14710TIP3    H144075   2.232   7.730   0.580
14710TIP3    H244076   2.312   7.854   0.611
14711TIP3   OH244077   0.384   1.458   3.287
14711TIP3    H144078   0.306   1.499   3.248
14711TIP3    H244079   0.395   1.376   3.239
14712TIP3   OH244080   0.629   1.777   1.023
14712TIP3    H144081   0.690   1.799   0.952
14712TIP3    H244082   0.686   1.758   1.097
14713TIP3   OH244083   7.647   0.419   1.513
14713TIP3    H144084   7.580   0.350   1.512
14713TIP3    H244085   7.637   0.460   1.599
14714TIP3   OH244086   0.666   5.284   1.697
14714TIP3    H144087   0.739   5.295   1.635
14714TIP3    H244088   0.650   5.190   1.697
14715TIP3   OH244089   4.869   0.598   2.867
14715TIP3    H144090   4.806   0.554   2.809
14715TIP3    H244091   4.877   0.540   2.942
14716TIP3   OH244092   6.914   4.842   4.276
14716TIP3    H144093   6.874   4.859   4.190
14716TIP3    H244094   7.008   4.841   4.258
14717TIP3   OH244095   4.753   5.626   2.047
14717TIP3    H144096   4.759   5.672   2.131
14717TIP3    H244097   4.832   5.651   2.000
14718TIP3   OH244098   7.716   6.699   6.731
14718TIP3    H144099   7.683   6.621   6.687
14718TIP3    H244100   7.727   6.674   6.822
14719TIP3   OH244101   7.592   0.340   3.016
14719TIP3    H144102   7.685   0.363   3.027
14719TIP3    H244103   7.575   0.355   2.923
14720TIP3   OH244104   4.620   0.347   5.531
14720TIP3    H144105   4.662   0.280   5.477
14720TIP3    H244106   4.564   0.299   5.591
14721TIP3   OH244107   5.529   3.612   0.719
14721TIP3    H144108   5.458   3.574   0.667
14721TIP3    H244109   5.608   3.599   0.666
14722TIP3   OH244110   0.842   0.395   2.739
14722TIP3    H144111   0.824   0.471   2.685
14722TIP3    H244112   0.916   0.420   2.793
14723TIP3   OH244113   7.658   2.107  -0.030
14723TIP3    H144114   7.611   2.096   0.052
14723TIP3    H244115   7.747   2.078  -0.011
14724TIP3   OH244116   1.240   3.338   5.000
14724TIP3    H144117   1.212   3.247   4.989
14724TIP3    H244118   1.182   3.388   4.943
14725TIP3   OH244119   5.665   2.832   1.502
14725TIP3    H144120   5.591   2.814   1.445
14725TIP3    H244121   5.679   2.750   1.550
14726TIP3   OH244122   3.380   6.550   5.357
14726TIP3    H144123   3.347   6.473   5.311
14726TIP3    H244124   3.458   6.519   5.402
14727TIP3   OH244125   7.555   5.177   1.226
14727TIP3    H144126   7.605   5.244   1.273
14727TIP3    H244127   7.621   5.118   1.190
14728TIP3   OH244128   8.209   0.958   3.331
14728TIP3    H144129   8.146   0.891   3.304
14728TIP3    H244130   8.218   0.945   3.426
14729TIP3   OH244131   3.744   7.208   1.777
14729TIP3    H144132   3.674   7.273   1.783
14729TIP3    H244133   3.724   7.157   1.698
14730TIP3   OH244134   7.091   2.975   1.980
14730TIP3    H144135   7.030   3.046   1.999
14730TIP3    H244136   7.036   2.902   1.952
14731TIP3   OH244137   6.554   4.254   3.817
14731TIP3    H144138   6.582   4.163   3.830
14731TIP3    H244139   6.591   4.278   3.732
14732TIP3   OH244140   6.780   0.095   5.262
14732TIP3    H144141   6.847   0.161   5.282
14732TIP3    H244142   6.735   0.080   5.345
14733TIP3   OH244143   2.414   7.440   4.500
14733TIP3    H144144   2.440   7.438   4.592
14733TIP3    H244145   2.331   7.489   4.500
14734TIP3   OH244146   1.653   2.275   0.008
14734TIP3    H144147   1.661   2.344   0.073
14734TIP3    H244148   1.649   2.321  -0.076
14735TIP3   OH244149   3.178   6.447   2.348
14735TIP3    H144150   3.133   6.458   2.264
14735TIP3    H244151   3.119   6.487   2.412
14736TIP3   OH244152   4.086   3.896   5.941
14736TIP3    H144153   4.093   3.810   5.900
14736TIP3    H244154   4.005   3.892   5.992
14737TIP3   OH244155   0.572   4.959   3.085
14737TIP3    H144156   0.546   4.871   3.057
14737TIP3    H244157   0.516   4.978   3.160
14738TIP3   OH244158   3.628   2.465   2.956
14738TIP3    H144159   3.723   2.464   2.945
14738TIP3    H244160   3.597   2.389   2.907
14739TIP3   OH244161   2.967   2.658   0.349
14739TIP3    H144162   2.946   2.741   0.305
14739TIP3    H244163   3.032   2.681   0.415
14740TIP3   OH244164   8.286   5.548   1.774
14740TIP3    H144165   8.317   5.595   1.852
14740TIP3    H244166   8.285   5.614   1.705
14741TIP3   OH244167   7.000   4.941   6.574
14741TIP3    H144168   7.081   4.892   6.590
14741TIP3    H244169   6.931   4.887   6.612
14742TIP3   OH244170   0.436   0.595   6.126
14742TIP3    H144171   0.434   0.499   6.120
14742TIP3    H244172   0.387   0.614   6.206
14743TIP3   OH244173   7.134   5.523   2.084
14743TIP3    H144174   7.224   5.493   2.066
14743TIP3    H244175   7.141   5.572   2.166
14744TIP3   OH244176   1.611   6.522   5.218
14744TIP3    H144177   1.583   6.499   5.129
14744TIP3    H244178   1.662   6.447   5.248
14745TIP3   OH244179   3.228   5.001   2.364
14745TIP3    H144180   3.216   4.956   2.280
14745TIP3    H244181   3.316   4.977   2.392
14746TIP3   OH244182   8.062   2.226   4.685
14746TIP3    H144183   8.037   2.142   4.647
14746TIP3    H244184   8.113   2.203   4.762
14747TIP3   OH244185   0.884   3.095   0.674
14747TIP3    H144186   0.955   3.151   0.707
14747TIP3    H244187   0.810   3.155   0.663
14748TIP3   OH244188   5.044   0.634   3.641
14748TIP3    H144189   4.955   0.669   3.649
14748TIP3    H244190   5.096   0.710   3.614
14749TIP3   OH244191   1.780   3.189   4.342
14749TIP3    H144192   1.686   3.176   4.332
14749TIP3    H244193   1.789   3.276   4.379
14750TIP3   OH244194   6.488   3.630   6.586
14750TIP3    H144195   6.393   3.636   6.580
14750TIP3    H244196   6.516   3.715   6.621
14751TIP3   OH244197   4.421   6.470   5.665
14751TIP3    H144198   4.371   6.548   5.642
14751TIP3    H244199   4.482   6.458   5.592
14752TIP3   OH244200   7.561   6.853   3.584
14752TIP3    H144201   7.551   6.811   3.670
14752TIP3    H244202   7.606   6.788   3.531
14753TIP3   OH244203   0.202   2.607   6.546
14753TIP3    H144204   0.131   2.545   6.564
14753TIP3    H244205   0.225   2.592   6.454
14754TIP3   OH244206   5.538   1.556   6.513
14754TIP3    H144207   5.568   1.611   6.440
14754TIP3    H244208   5.616   1.510   6.542
14755TIP3   OH244209   2.138   4.889   0.107
14755TIP3    H144210   2.128   4.859   0.197
14755TIP3    H244211   2.102   4.819   0.053
14756TIP3   OH244212   7.841   7.191   0.954
14756TIP3    H144213   7.815   7.103   0.927
14756TIP3    H244214   7.896   7.178   1.031
14757TIP3   OH244215   1.264   4.663   0.576
14757TIP3    H144216   1.310   4.735   0.620
14757TIP3    H244217   1.325   4.589   0.580
14758TIP3   OH244218   6.390   7.012   6.352
14758TIP3    H144219   6.429   6.977   6.271
14758TIP3    H244220   6.379   7.106   6.334
14759TIP3   OH244221   2.769   3.522   4.886
14759TIP3    H144222   2.756   3.428   4.874
14759TIP3    H244223   2.820   3.549   4.811
14760TIP3   OH244224   2.558   1.046   5.615
14760TIP3    H144225   2.639   1.066   5.569
14760TIP3    H244226   2.489   1.070   5.553
14761TIP3   OH244227   2.936   3.853   2.138
14761TIP3    H144228   3.029   3.873   2.150
14761TIP3    H244229   2.915   3.885   2.051
14762TIP3   OH244230   2.196   1.713   3.594
14762TIP3    H144231   2.265   1.757   3.644
14762TIP3    H244232   2.199   1.755   3.508
14763TIP3   OH244233   7.832   5.567   0.009
14763TIP3    H144234   7.797   5.510   0.077
14763TIP3    H244235   7.839   5.511  -0.068
14764TIP3   OH244236   3.085   5.510   5.648
14764TIP3    H144237   3.125   5.569   5.712
14764TIP3    H244238   3.084   5.425   5.692
14765TIP3   OH244239   0.570   3.147   1.286
14765TIP3    H144240   0.522   3.229   1.300
14765TIP3    H244241   0.541   3.117   1.200
14766TIP3   OH244242   0.116   3.650   3.639
14766TIP3    H144243   0.154   3.698   3.712
14766TIP3    H244244   0.191   3.605   3.598
14767TIP3   OH244245   8.267   0.347   1.205
14767TIP3    H144246   8.338   0.407   1.228
14767TIP3    H244247   8.225   0.327   1.289
14768TIP3   OH244248   2.707   1.323   0.809
14768TIP3    H144249   2.710   1.270   0.889
14768TIP3    H244250   2.720   1.260   0.738
14769TIP3   OH244251   3.982   4.377   4.677
14769TIP3    H144252   4.041   4.447   4.648
14769TIP3    H244253   3.896   4.403   4.644
14770TIP3   OH244254   3.813   5.886   3.979
14770TIP3    H144255   3.907   5.873   3.963
14770TIP3    H244256   3.809   5.926   4.067
14771TIP3   OH244257   3.393   6.728   4.078
14771TIP3    H144258   3.478   6.707   4.116
14771TIP3    H244259   3.354   6.643   4.058
14772TIP3   OH244260   2.258   0.033   2.482
14772TIP3    H144261   2.239   0.126   2.478
14772TIP3    H244262   2.348   0.027   2.513
14773TIP3   OH244263   5.076   2.168   0.565
14773TIP3    H144264   5.084   2.256   0.602
14773TIP3    H244265   5.166   2.137   0.557
14774TIP3   OH244266   1.274   0.524   0.949
14774TIP3    H144267   1.335   0.566   1.010
14774TIP3    H244268   1.216   0.472   1.005
14775TIP3   OH244269   2.597   5.803   2.702
14775TIP3    H144270   2.685   5.818   2.737
14775TIP3    H244271   2.611   5.788   2.609
14776TIP3   OH244272   1.761   3.499   0.072
14776TIP3    H144273   1.778   3.576   0.127
14776TIP3    H244274   1.738   3.536  -0.013
14777TIP3   OH244275   2.767   5.365   4.683
14777TIP3    H144276   2.770   5.431   4.752
14777TIP3    H244277   2.803   5.286   4.723
14778TIP3   OH244278   0.845   4.830   0.233
14778TIP3    H144279   0.774   4.889   0.256
14778TIP3    H244280   0.899   4.826   0.312
14779TIP3   OH244281   0.487   3.507   5.681
14779TIP3    H144282   0.574   3.512   5.642
14779TIP3    H244283   0.490   3.568   5.755
14780TIP3   OH244284   0.185   7.470   0.376
14780TIP3    H144285   0.168   7.541   0.315
14780TIP3    H244286   0.279   7.476   0.394
14781TIP3   OH244287   1.889   1.989   5.834
14781TIP3    H144288   1.809   2.036   5.811
14781TIP3    H244289   1.918   2.029   5.916
14782TIP3   OH244290   3.752   1.329   2.845
14782TIP3    H144291   3.760   1.413   2.800
14782TIP3    H244292   3.697   1.276   2.787
14783TIP3   OH244293   4.510   3.942   1.507
14783TIP3    H144294   4.470   3.882   1.571
14783TIP3    H244295   4.537   4.018   1.559
14784TIP3   OH244296   7.020   0.637   3.738
14784TIP3    H144297   6.941   0.691   3.734
14784TIP3    H244298   7.008   0.571   3.670
14785TIP3   OH244299   4.177   4.967   6.040
14785TIP3    H144300   4.186   4.874   6.023
14785TIP3    H244301   4.262   4.995   6.073
14786TIP3   OH244302   1.490   4.790   4.152
14786TIP3    H144303   1.543   4.714   4.127
14786TIP3    H244304   1.400   4.758   4.152
14787TIP3   OH244305   7.697   6.891   2.647
14787TIP3    H144306   7.633   6.891   2.576
14787TIP3    H244307   7.652   6.846   2.719
14788TIP3   OH244308   2.328   0.169   0.699
14788TIP3    H144309   2.413   0.147   0.660
14788TIP3    H244310   2.349   0.196   0.788
14789TIP3   OH244311   7.879   0.521   0.207
14789TIP3    H144312   7.838   0.591   0.156
14789TIP3    H244313   7.949   0.487   0.151
14790TIP3   OH244314   7.384   0.739   2.787
14790TIP3    H144315   7.390   0.785   2.871
14790TIP3    H244316   7.326   0.665   2.804
14791TIP3   OH244317   7.749   5.539   6.407
14791TIP3    H144318   7.838   5.512   6.384
14791TIP3    H244319   7.759   5.630   6.435
14792TIP3   OH244320   0.507   7.646   5.778
14792TIP3    H144321   0.548   7.585   5.717
14792TIP3    H244322   0.523   7.732   5.741
14793TIP3   OH244323   5.927   3.982   2.065
14793TIP3    H144324   5.962   4.056   2.016
14793TIP3    H244325   6.004   3.936   2.097
14794TIP3   OH244326   2.581   4.817   0.650
14794TIP3    H144327   2.573   4.830   0.745
14794TIP3    H244328   2.569   4.905   0.613
14795TIP3   OH244329   5.914   7.721   5.809
14795TIP3    H144330   5.874   7.644   5.849
14795TIP3    H244331   5.843   7.785   5.805
14796TIP3   OH244332   4.978   1.152   2.039
14796TIP3    H144333   5.061   1.106   2.030
14796TIP3    H244334   4.941   1.120   2.121
14797TIP3   OH244335   8.041   6.198   5.874
14797TIP3    H144336   7.991   6.243   5.805
14797TIP3    H244337   7.985   6.126   5.901
14798TIP3   OH244338   1.028   5.139   5.046
14798TIP3    H144339   1.055   5.062   5.096
14798TIP3    H244340   0.984   5.195   5.110
14799TIP3   OH244341   1.815   6.894   2.322
14799TIP3    H144342   1.874   6.902   2.397
14799TIP3    H244343   1.802   6.984   2.292
14800TIP3   OH244344   3.969   5.093   1.798
14800TIP3    H144345   3.929   5.064   1.880
14800TIP3    H244346   3.929   5.037   1.731
14801TIP3   OH244347   1.190   7.718   4.159
14801TIP3    H144348   1.220   7.666   4.085
14801TIP3    H244349   1.147   7.656   4.217
14802TIP3   OH244350   3.650   3.978   2.262
14802TIP3    H144351   3.591   4.046   2.295
14802TIP3    H244352   3.592   3.906   2.238
14803TIP3   OH244353   3.486   5.265   4.134
14803TIP3    H144354   3.468   5.304   4.049
14803TIP3    H244355   3.467   5.172   4.122
14804TIP3   OH244356   7.387   3.992   6.201
14804TIP3    H144357   7.378   4.087   6.187
14804TIP3    H244358   7.321   3.971   6.266
14805TIP3   OH244359   8.004   6.043   6.269
14805TIP3    H144360   7.982   6.112   6.332
14805TIP3    H244361   8.099   6.046   6.262
14806TIP3   OH244362   1.665   4.275   5.802
14806TIP3    H144363   1.609   4.217   5.853
14806TIP3    H244364   1.626   4.275   5.714
14807TIP3   OH244365   3.926   2.101   0.368
14807TIP3    H144366   3.927   2.006   0.361
14807TIP3    H244367   3.863   2.119   0.438
14808TIP3   OH244368   4.011   4.336   4.954
14808TIP3    H144369   4.004   4.426   4.986
14808TIP3    H244370   4.019   4.345   4.859
14809TIP3   OH244371   5.497   1.695   5.121
14809TIP3    H144372   5.417   1.735   5.087
14809TIP3    H244373   5.486   1.696   5.216
14810TIP3   OH244374   1.341   1.302   1.879
14810TIP3    H144375   1.368   1.305   1.787
14810TIP3    H244376   1.329   1.393   1.904
14811TIP3   OH244377   8.140   3.180   6.239
14811TIP3    H144378   8.165   3.259   6.285
14811TIP3    H244379   8.047   3.193   6.218
14812TIP3   OH244380   1.223   1.126   3.134
14812TIP3    H144381   1.319   1.132   3.143
14812TIP3    H244382   1.191   1.210   3.167
14813TIP3   OH244383   4.760   6.566   6.031
14813TIP3    H144384   4.783   6.654   6.001
14813TIP3    H244385   4.690   6.538   5.972
14814TIP3   OH244386   5.713   3.703   3.094
14814TIP3    H144387   5.727   3.754   3.014
14814TIP3    H244388   5.740   3.614   3.071
14815TIP3   OH244389   7.043   1.962   1.030
14815TIP3    H144390   6.959   1.917   1.026
14815TIP3    H244391   7.057   1.996   0.942
14816TIP3   OH244392   3.264   2.667   4.761
14816TIP3    H144393   3.234   2.577   4.747
14816TIP3    H244394   3.215   2.696   4.839
14817TIP3   OH244395   0.334   7.653   3.461
14817TIP3    H144396   0.405   7.614   3.410
14817TIP3    H244397   0.259   7.596   3.445
14818TIP3   OH244398   2.446   2.592   0.263
14818TIP3    H144399   2.522   2.633   0.305
14818TIP3    H244400   2.416   2.527   0.326
14819TIP3   OH244401   5.363   3.451   4.216
14819TIP3    H144402   5.355   3.532   4.266
14819TIP3    H244403   5.294   3.457   4.150
14820TIP3   OH244404   6.873   1.833   2.152
14820TIP3    H144405   6.907   1.893   2.085
14820TIP3    H244406   6.810   1.886   2.201
14821TIP3   OH244407   7.291   4.041   4.581
14821TIP3    H144408   7.280   3.948   4.602
14821TIP3    H244409   7.257   4.050   4.492
14822TIP3   OH244410   8.280   3.645   3.385
14822TIP3    H144411   8.229   3.723   3.365
14822TIP3    H244412   8.369   3.677   3.398
14823TIP3   OH244413   4.049   4.451   4.215
14823TIP3    H144414   4.102   4.517   4.172
14823TIP3    H244415   4.112   4.393   4.259
14824TIP3   OH244416   6.016   5.717   0.890
14824TIP3    H144417   6.095   5.724   0.944
14824TIP3    H244418   5.999   5.623   0.886
14825TIP3   OH244419   5.856   1.951   2.652
14825TIP3    H144420   5.854   1.941   2.556
14825TIP3    H244421   5.886   1.866   2.684
14826TIP3   OH244422   7.083   5.028   5.829
14826TIP3    H144423   7.075   4.933   5.825
14826TIP3    H244424   7.103   5.054   5.739
14827TIP3   OH244425   8.239   1.200   3.746
14827TIP3    H144426   8.166   1.258   3.767
14827TIP3    H244427   8.249   1.208   3.651
14828TIP3   OH244428   3.294   2.780   3.741
14828TIP3    H144429   3.249   2.741   3.816
14828TIP3    H244430   3.386   2.753   3.753
14829TIP3   OH244431   3.860   1.727   6.082
14829TIP3    H144432   3.865   1.672   6.004
14829TIP3    H244433   3.854   1.665   6.155
14830TIP3   OH244434   7.537   6.277   2.052
14830TIP3    H144435   7.529   6.362   2.097
14830TIP3    H244436   7.559   6.300   1.961
14831TIP3   OH244437   1.014   4.652   4.514
14831TIP3    H144438   0.946   4.692   4.568
14831TIP3    H244439   1.066   4.600   4.575
14832TIP3   OH244440   1.784   6.227   2.714
14832TIP3    H144441   1.727   6.160   2.751
14832TIP3    H244442   1.736   6.259   2.637
14833TIP3   OH244443   4.351   3.917   5.375
14833TIP3    H144444   4.276   3.916   5.315
14833TIP3    H244445   4.426   3.898   5.320
14834TIP3   OH244446   2.775   3.050   1.362
14834TIP3    H144447   2.810   2.984   1.302
14834TIP3    H244448   2.822   3.035   1.444
14835TIP3   OH244449   1.130   3.934   4.777
14835TIP3    H144450   1.170   3.997   4.837
14835TIP3    H244451   1.106   3.986   4.700
14836TIP3   OH244452   0.293   7.578   4.372
14836TIP3    H144453   0.336   7.526   4.303
14836TIP3    H244454   0.211   7.532   4.388
14837TIP3   OH244455   3.190   1.047   0.036
14837TIP3    H144456   3.256   0.982   0.012
14837TIP3    H244457   3.108   1.011   0.003
14838TIP3   OH244458   0.182   2.572   0.898
14838TIP3    H144459   0.095   2.602   0.924
14838TIP3    H244460   0.190   2.484   0.936
14839TIP3   OH244461   1.718   7.016   4.868
14839TIP3    H144462   1.678   7.103   4.870
14839TIP3    H244463   1.647   6.957   4.893
   8.29729   7.82277   6.77471   0.00000   0.00000  -2.76576   0.00000  -2.76576  -3.91138
