Title
29212
    1ASP      N    1   2.129   1.130   2.722  0.4599  0.3141  0.5482
    1ASP    HT1    2   2.188   1.045   2.729 -0.8189 -0.6182  0.2399
    1ASP    HT2    3   2.132   1.167   2.625 -0.7101 -1.7136 -0.3308
    1ASP    HT3    4   2.033   1.091   2.721  0.5496  0.1001  0.1258
    1ASP     CA    5   2.166   1.226   2.822  0.2581  0.2370 -0.6003
    1ASP     HA    6   2.132   1.188   2.917  1.1568 -0.2824 -0.4778
    1ASP     CB    7   2.322   1.238   2.823  0.2193  0.5576  0.5568
    1ASP    HB1    8   2.361   1.324   2.881 -0.4199  1.4580 -0.3223
    1ASP    HB2    9   2.367   1.243   2.722  0.3957  1.3072  0.6640
    1ASP     CG   10   2.379   1.114   2.883  0.4748 -0.2145 -0.3071
    1ASP    OD1   11   2.322   1.057   2.981 -0.2117 -0.0519 -0.8714
    1ASP    OD2   12   2.500   1.083   2.855  0.0887 -1.1015  0.1542
    1ASP      C   13   2.097   1.371   2.807 -0.2438  0.4440  0.9847
    1ASP      O   14   2.034   1.391   2.702  0.0878 -0.4576  0.2341
    2GLY      N   15   2.108   1.462   2.909 -0.4311  0.6563  0.8603
    2GLY     HN   16   2.147   1.430   2.995  0.6762  0.2848  0.2456
    2GLY     CA   17   2.040   1.588   2.918  0.4171  0.2652 -0.4162
    2GLY    HA1   18   2.087   1.647   2.841 -0.7755 -0.6157 -1.8828
    2GLY    HA2   19   2.046   1.617   3.022 -1.0343 -2.7486  0.6176
    2GLY      C   20   1.895   1.579   2.885 -0.1812 -0.0022 -0.0832
    2GLY      O   21   1.813   1.509   2.951  0.2096  0.5485 -0.0234
    3ASP      N   22   1.856   1.674   2.797  0.5533 -0.1521 -0.4578
    3ASP     HN   23   1.921   1.735   2.753 -1.1805  2.7386  0.7189
    3ASP     CA   24   1.713   1.703   2.775  0.4635  0.0128  0.8181
    3ASP     HA   25   1.657   1.618   2.811  1.7118 -0.8499  0.7679
    3ASP     CB   26   1.667   1.838   2.848  0.2212 -0.2161  0.5009
    3ASP    HB1   27   1.580   1.884   2.795  0.9778  2.6013  1.5642
    3ASP    HB2   28   1.757   1.903   2.851 -0.5183  0.7970  1.2141
    3ASP     CG   29   1.623   1.809   2.989 -0.7823 -0.0370 -0.5140
    3ASP    OD1   30   1.657   1.894   3.078  0.2603  0.5712  0.0047
    3ASP    OD2   31   1.549   1.718   3.021 -0.2120 -0.3215  0.5863
    3ASP      C   32   1.687   1.702   2.618 -0.2899  0.4510  0.2769
    3ASP      O   33   1.769   1.748   2.540  0.3391  0.4661 -0.1240
    4GLY      N   34   1.561   1.666   2.565 -0.3780 -0.2161  0.3419
    4GLY     HN   35   1.497   1.622   2.628 -0.7372  0.4192  0.4327
    4GLY     CA   36   1.527   1.682   2.425  0.9854 -0.3373 -0.6847
    4GLY    HA1   37   1.435   1.627   2.413  1.6020 -2.1949  2.2081
    4GLY    HA2   38   1.611   1.645   2.368  1.7695  3.1307 -2.1009
    4GLY      C   39   1.508   1.823   2.379 -0.8394  0.2342 -0.1654
    4GLY      O   40   1.518   1.915   2.458 -0.2355 -0.4171 -0.1954
    5PRO      N   41   1.471   1.847   2.255 -0.0537 -0.3660  0.0892
    5PRO     CD   42   1.468   1.745   2.155  0.3066 -0.1044 -0.0459
    5PRO    HD1   43   1.393   1.673   2.195 -1.8494  1.5365 -0.9177
    5PRO    HD2   44   1.568   1.697   2.148 -1.2321 -3.3475 -1.7995
    5PRO     CA   45   1.434   1.984   2.200 -0.4472 -0.7047 -0.3873
    5PRO     HA   46   1.510   2.057   2.221 -2.8946  1.2818  2.3530
    5PRO     CB   47   1.438   1.955   2.050 -0.1481  0.2078 -0.6277
    5PRO    HB1   48   1.541   1.969   2.011 -0.1542  0.8791 -0.4067
    5PRO    HB2   49   1.370   2.022   1.993  0.6654  0.6841 -1.0708
    5PRO     CG   50   1.408   1.808   2.035  0.0316 -0.1650  0.8976
    5PRO    HG1   51   1.298   1.792   2.039  0.1244 -0.7492  1.2979
    5PRO    HG2   52   1.424   1.772   1.931  0.8965  0.7850  0.6867
    5PRO      C   53   1.304   2.038   2.248 -0.4976  0.0771  0.0169
    5PRO      O   54   1.293   2.153   2.281  0.1296 -0.0567  0.2049
    6GLY      N   55   1.193   1.958   2.241  0.5799  0.3164 -0.0804
    6GLY     HN   56   1.195   1.866   2.202  0.9315 -0.0572  0.7919
    6GLY     CA   57   1.065   1.995   2.300  0.2403  0.0018  0.2937
    6GLY    HA1   58   1.015   1.899   2.298 -2.3294  1.2437  0.8597
    6GLY    HA2   59   1.019   2.075   2.244 -0.5562 -0.5104  0.1922
    6GLY      C   60   1.075   2.040   2.444 -0.0975  0.3454 -0.6149
    6GLY      O   61   1.169   2.018   2.526  0.4612  0.2189  0.0544
    7ASP      N   62   0.964   2.096   2.499 -0.0010 -0.7880 -0.7944
    7ASP     HN   63   0.881   2.103   2.445 -0.4761  1.0423  0.1023
    7ASP     CA   64   0.960   2.156   2.630  0.7184 -0.1846 -0.1888
    7ASP     HA   65   1.051   2.213   2.635  1.6158 -1.6513  1.0348
    7ASP     CB   66   0.839   2.241   2.655 -0.0596  0.0276 -0.1089
    7ASP    HB1   67   0.825   2.273   2.761  1.9504 -0.5610  0.3783
    7ASP    HB2   68   0.740   2.200   2.626 -1.4176  2.8487  0.1543
    7ASP     CG   69   0.848   2.374   2.581  0.5327 -0.5784 -0.4686
    7ASP    OD1   70   0.959   2.436   2.581  0.5551 -0.2205 -0.2549
    7ASP    OD2   71   0.732   2.422   2.553 -0.3278  0.3978  0.2088
    7ASP      C   72   0.959   2.046   2.739 -0.4955  0.2994 -0.8826
    7ASP      O   73   0.905   1.938   2.714 -0.4313  0.1718 -0.0582
    8PRO      N   74   1.007   2.071   2.867 -0.6711 -0.3318  0.0125
    8PRO     CD   75   1.075   2.192   2.913 -0.1981 -0.6121  0.5997
    8PRO    HD1   76   0.995   2.266   2.931  0.3856  0.3578 -0.6343
    8PRO    HD2   77   1.142   2.234   2.834 -1.6131 -0.1175 -0.3817
    8PRO     CA   78   0.991   1.969   2.977 -0.6225  0.0486  0.2951
    8PRO     HA   79   1.061   1.890   2.957 -0.4183  0.3570 -0.2214
    8PRO     CB   80   1.035   2.042   3.107 -0.5584 -0.0395 -0.3413
    8PRO    HB1   81   1.088   1.977   3.179 -3.8523  0.6973  3.0972
    8PRO    HB2   82   0.953   2.097   3.159 -0.7454 -0.5637 -0.0767
    8PRO     CG   83   1.134   2.147   3.042 -0.6469 -0.1259 -0.2845
    8PRO    HG1   84   1.155   2.232   3.111 -1.8709  0.4427 -0.5805
    8PRO    HG2   85   1.227   2.090   3.024 -0.9671 -1.0434  0.8456
    8PRO      C   86   0.849   1.907   2.994  0.6245  0.0830  0.9281
    8PRO      O   87   0.757   1.978   2.956 -0.5845  0.4711  0.2946
    9GLY      N   88   0.836   1.786   3.052 -0.3729  0.7757  0.3706
    9GLY     HN   89   0.907   1.735   3.098 -0.9507 -0.0861  0.3203
    9GLY     CA   90   0.709   1.731   3.073  0.2932  0.0799 -0.5946
    9GLY    HA1   91   0.636   1.809   3.085 -0.7658 -0.8026 -1.2041
    9GLY    HA2   92   0.717   1.671   3.162  0.3910  1.9912  0.7486
    9GLY      C   93   0.659   1.643   2.972 -0.5099 -0.3421 -0.0554
    9GLY      O   94   0.716   1.636   2.863 -0.0890 -0.7191  0.3194
   10ASP      N   95   0.545   1.583   2.991 -0.1474 -0.4364  0.2426
   10ASP     HN   96   0.489   1.616   3.066  0.7819  0.3156  0.6236
   10ASP     CA   97   0.486   1.472   2.924  0.1261  0.8664  0.0529
   10ASP     HA   98   0.556   1.392   2.940  1.5169  1.9375 -0.5393
   10ASP     CB   99   0.340   1.431   2.979  0.1583 -0.3124  0.2966
   10ASP    HB1  100   0.303   1.351   2.911  0.6384 -1.0894  0.9164
   10ASP    HB2  101   0.273   1.519   2.990  2.9011  1.9485 -0.0278
   10ASP     CG  102   0.354   1.368   3.116 -0.0053 -0.3771 -0.0864
   10ASP    OD1  103   0.459   1.373   3.185 -0.2345  0.2170 -0.2495
   10ASP    OD2  104   0.257   1.309   3.167 -0.2133  0.4039 -0.0885
   10ASP      C  105   0.474   1.498   2.775 -0.3686  0.7600 -0.4257
   10ASP      O  106   0.440   1.601   2.723 -0.0029  0.3623  0.0743
   11GLY      N  107   0.508   1.391   2.689  0.6143 -0.0730 -0.2026
   11GLY     HN  108   0.549   1.304   2.716 -0.3564 -0.6441 -0.5215
   11GLY     CA  109   0.511   1.399   2.544  0.0631  0.1493 -0.5161
   11GLY    HA1  110   0.500   1.499   2.506 -1.1838 -0.1493 -0.9931
   11GLY    HA2  111   0.423   1.344   2.514  1.2288 -2.1663  0.0392
   11GLY      C  112   0.633   1.326   2.489 -0.2668 -0.1701 -0.5731
   11GLY    OT1  113   0.683   1.362   2.375 -0.3742  0.5958  0.2590
   11GLY    OT2  114   0.691   1.231   2.547 -0.1785  0.3837  0.0106
   12LIT    LIT  115   4.758   4.939   2.025 -0.5175  0.3365  0.2939
   13LIT    LIT  116   5.748   5.621   1.501 -0.9201 -0.5452  0.2570
   14LIT    LIT  117   5.654   0.848   0.453  0.6354  0.2025  0.6597
   15LIT    LIT  118   3.287   1.870   0.596 -0.1529  0.0780 -0.1242
   16LIT    LIT  119   0.833   1.265   2.414 -0.6508 -0.2366  0.1463
   17LIT    LIT  120   0.754   1.780   0.562 -0.0942  0.2729 -0.4679
   18LIT    LIT  121   4.887   5.286   0.537  0.1104  0.2896  0.5593
   19LIT    LIT  122   3.460   1.164   2.379 -0.5916 -0.8678  0.0389
   20LIT    LIT  123   0.646   3.246   3.401 -0.0721 -0.3881 -0.6884
   21LIT    LIT  124   1.367   5.675   0.961  0.7307  0.6360  0.3484
   22LIT    LIT  125   3.934   5.379   0.129  0.7961  0.1719  0.4905
   23LIT    LIT  126   6.571   6.339   1.449 -0.0872  0.5070  0.5543
   24LIT    LIT  127   6.077   5.054   3.338  0.3038  0.1717 -0.0605
   25LIT    LIT  128   6.229   0.959   3.791 -0.4959 -0.4299 -0.5490
   26LIT    LIT  129   0.375   1.272   3.321  0.2372  0.0901  0.8611
   27LIT    LIT  130   3.489   2.085   2.721  0.7056  0.1715  0.2944
   28LIT    LIT  131   0.438   4.556   4.834  0.5643  1.6873  0.2260
   29LIT    LIT  132   1.774   2.019   3.152  0.8178 -0.9182 -0.3807
   30LIT    LIT  133   6.761   3.704   1.560  0.5043 -0.0194 -0.4504
   31LIT    LIT  134   4.489   2.286   3.012  0.0242 -0.0772  0.2714
   32LIT    LIT  135   5.894   2.665   1.208  0.6346  0.8796  1.1761
   33LIT    LIT  136   3.818   4.342   3.189  0.3772 -1.0853  0.0470
   34LIT    LIT  137   5.289   2.499   5.648  0.3899 -0.0935 -0.2907
   35LIT    LIT  138   6.983   1.570   2.485 -1.0377 -0.2130 -0.4119
   36LIT    LIT  139   3.964   3.485   4.754  0.7165 -0.1684 -0.8868
   37LIT    LIT  140   3.446   5.234   1.752  0.2204  0.0899 -0.1853
   38LIT    LIT  141   2.141   5.322   1.219 -1.0134 -0.1064  0.7188
   39LIT    LIT  142   2.551   0.970   2.992 -0.6635 -0.8855  0.5586
   40LIT    LIT  143   2.677   6.772   1.145 -0.3053 -1.1564 -1.2695
   41LIT    LIT  144   1.889   6.440   5.359 -0.6528 -0.0880  0.2403
   42LIT    LIT  145   1.534   1.757   3.210  0.9480 -1.8655  0.0726
   43CLA    CLA  146   4.687   0.225   1.201 -0.2125  0.0202 -0.2083
   44CLA    CLA  147   6.632   1.988   4.394  0.0670  0.2414  0.0314
   45CLA    CLA  148   2.598   6.759   5.027 -0.0430 -0.1900  0.0042
   46CLA    CLA  149   0.886   4.721   1.293  0.3455  0.0508 -0.0952
   47CLA    CLA  150   6.740   0.659   0.168 -0.0305  0.1760  0.0863
   48CLA    CLA  151   2.625   3.312   4.073  0.2391 -0.3144 -0.1505
   49CLA    CLA  152   6.649   0.059   0.166  0.4362  0.1739  0.0161
   50CLA    CLA  153   4.498   5.975   0.468  0.1057  0.3406  0.0418
   51CLA    CLA  154   0.904   1.267   1.039 -0.1898 -0.1784  0.1994
   52CLA    CLA  155   5.512   1.450   5.754 -0.2463 -0.4309  0.2058
   53CLA    CLA  156   4.021   1.873   3.517  0.0115 -0.1569 -0.3512
   54CLA    CLA  157   5.157   2.474   2.676 -0.2066  0.1989  0.3500
   55CLA    CLA  158   1.205   5.122   4.876  0.3238  0.1221 -0.4572
   56CLA    CLA  159   4.782   4.278   3.059 -0.0650  0.3227 -0.4227
   57CLA    CLA  160   6.708   0.229   3.808 -0.4624  0.2413 -0.3983
   58CLA    CLA  161   5.174   4.619   2.547 -0.1929 -0.2261 -0.0948
   59CLA    CLA  162   5.037   3.243   4.698  0.2955 -0.2249  0.0302
   60CLA    CLA  163   0.187   5.147   0.709 -0.1575 -0.7561  0.2839
   61CLA    CLA  164   6.692   6.571   1.064  0.2256  0.1562  0.0881
   62CLA    CLA  165   2.764   0.063   3.488  0.0612 -0.1961  0.3741
   63CLA    CLA  166   1.406   2.300   4.241  0.2670  0.3267  0.1617
   64CLA    CLA  167   5.189   3.583   1.526  0.2434 -0.3660 -0.0243
   65CLA    CLA  168   5.834   5.823   2.834  0.1509  0.2756 -0.1407
   66CLA    CLA  169   3.660   0.357   5.208  0.2837 -0.6289 -0.4286
   67CLA    CLA  170   2.686   5.658   0.213 -0.3673 -0.0780  0.0347
   68CLA    CLA  171   1.360   3.197   1.265  0.4504  0.2243 -0.1546
   69CLA    CLA  172   6.296   6.089   2.668 -0.0173  0.1292 -0.0928
   70TIP3   OH2  173   0.368   2.743   2.188 -0.4460  0.0497  0.5215
   70TIP3    H1  174   0.408   2.656   2.187  0.1082  0.2782  1.6975
   70TIP3    H2  175   0.317   2.745   2.268  0.4442  1.1883  1.0933
   71TIP3   OH2  176   5.716   2.383   3.618 -0.4763  0.1403  0.2524
   71TIP3    H1  177   5.708   2.357   3.710  1.9739 -0.1077  0.4586
   71TIP3    H2  178   5.795   2.338   3.587  0.3270  2.3819 -1.1709
   72TIP3   OH2  179   3.939   0.667   5.391 -0.3284  0.2484  0.6533
   72TIP3    H1  180   3.874   0.734   5.368  0.2130  0.6550  0.2731
   72TIP3    H2  181   4.017   0.717   5.416  0.3611 -0.2323 -0.4367
   73TIP3   OH2  182   6.212   4.871   1.092 -0.5907 -0.1549 -0.2366
   73TIP3    H1  183   6.288   4.902   1.141 -0.5295 -2.0855  1.0065
   73TIP3    H2  184   6.247   4.846   1.006 -0.2940  1.1710 -0.5263
   74TIP3   OH2  185   1.442   0.048   1.378 -0.0511 -0.0691  0.1031
   74TIP3    H1  186   1.409   0.136   1.396  2.2983  0.8260  0.4114
   74TIP3    H2  187   1.450   0.045   1.283  1.7590  0.8760  0.1729
   75TIP3   OH2  188   1.983   3.394   1.142  0.0322  0.6356  0.5506
   75TIP3    H1  189   1.950   3.340   1.070 -0.7968  2.3194 -0.3902
   75TIP3    H2  190   1.904   3.427   1.185  0.4579 -1.3420  3.1342
   76TIP3   OH2  191   1.394   0.622   4.520 -0.1422 -0.1879  0.3657
   76TIP3    H1  192   1.442   0.547   4.554 -1.0819 -0.6928  0.5797
   76TIP3    H2  193   1.314   0.586   4.482 -1.2860  0.8202  1.7082
   77TIP3   OH2  194   2.145   4.195   2.968  0.3297  0.3222  0.7180
   77TIP3    H1  195   2.218   4.178   3.027  0.3795 -4.1122 -0.3074
   77TIP3    H2  196   2.186   4.202   2.881 -0.3227 -0.7161  0.3155
   78TIP3   OH2  197   2.765   6.075   3.601  0.3905  0.2538 -0.2019
   78TIP3    H1  198   2.759   5.981   3.617  0.7023  0.4054  0.8857
   78TIP3    H2  199   2.707   6.114   3.666  0.5628  0.8321 -0.3925
   79TIP3   OH2  200   3.872   5.876   2.421 -0.0836  0.1930  0.3105
   79TIP3    H1  201   3.925   5.873   2.500 -1.5721 -3.1108  1.4017
   79TIP3    H2  202   3.922   5.825   2.357  0.5007  1.7251 -0.4899
   80TIP3   OH2  203   3.124   2.054   1.804 -0.2490  0.6687  0.0433
   80TIP3    H1  204   3.209   2.016   1.782 -0.4971  0.5658 -0.7896
   80TIP3    H2  205   3.139   2.148   1.802  0.3346  0.6529  1.9753
   81TIP3   OH2  206   0.959   5.165   3.557  0.0008  0.6053 -0.2683
   81TIP3    H1  207   0.998   5.171   3.644 -0.3684  0.0742 -0.0578
   81TIP3    H2  208   0.988   5.079   3.525 -3.6093 -1.3865  1.2295
   82TIP3   OH2  209   5.379   5.170   5.242  0.2664 -0.7343  0.4942
   82TIP3    H1  210   5.409   5.151   5.331  1.7173  0.2701  0.2603
   82TIP3    H2  211   5.378   5.265   5.237 -1.2803 -0.7591 -0.1181
   83TIP3   OH2  212   3.294   6.624   3.145  0.1954  0.3082  0.0250
   83TIP3    H1  213   3.371   6.630   3.089 -0.7269 -0.5330 -1.3989
   83TIP3    H2  214   3.315   6.556   3.209  0.6911  0.1970 -0.2548
   84TIP3   OH2  215   3.655   4.887   2.441  0.1309  0.2389 -0.8095
   84TIP3    H1  216   3.601   4.964   2.458 -1.3881 -0.9097 -0.2297
   84TIP3    H2  217   3.732   4.921   2.395 -0.5872  2.0605 -0.7263
   85TIP3   OH2  218   5.443   3.267   2.480 -0.4750  0.7356 -0.0308
   85TIP3    H1  219   5.484   3.229   2.558  0.0128  0.6327 -0.3353
   85TIP3    H2  220   5.368   3.210   2.462  1.8496 -1.8827 -2.1836
   86TIP3   OH2  221   0.065   2.168   2.562  0.2052 -0.1867 -0.1389
   86TIP3    H1  222   0.136   2.231   2.573  1.4297 -1.1377 -2.0320
   86TIP3    H2  223   0.107   2.082   2.566 -1.4180 -0.9814  2.3462
   87TIP3   OH2  224   4.797   1.524   2.366 -0.1967 -0.0781  0.0963
   87TIP3    H1  225   4.728   1.587   2.345 -0.2252  0.3351  1.3141
   87TIP3    H2  226   4.768   1.482   2.447  0.7757 -0.1934  0.4045
   88TIP3   OH2  227   3.825   3.044   0.543 -0.3009  0.4674 -0.0244
   88TIP3    H1  228   3.781   3.096   0.474 -2.7369 -1.9693 -0.4834
   88TIP3    H2  229   3.807   3.092   0.624  0.6759  2.1971 -0.7666
   89TIP3   OH2  230   3.920   4.266   3.042 -0.1852 -0.4959  0.0141
   89TIP3    H1  231   4.013   4.281   3.031  0.1489 -2.0939  0.4106
   89TIP3    H2  232   3.890   4.235   2.957 -0.6125  1.0630 -0.4381
   90TIP3   OH2  233   3.480   0.611   4.728  0.4525  0.2940  0.2551
   90TIP3    H1  234   3.476   0.606   4.823 -0.5341  1.0686  0.2717
   90TIP3    H2  235   3.432   0.534   4.698 -0.8800  1.0344  0.4129
   91TIP3   OH2  236   5.794   4.304   2.235  0.1118  0.3174 -0.1689
   91TIP3    H1  237   5.845   4.259   2.302 -1.1987 -2.0770 -0.6756
   91TIP3    H2  238   5.711   4.324   2.277 -0.6809 -1.1120 -0.9981
   92TIP3   OH2  239   1.012   5.548   1.184 -0.2802  0.0661 -0.0332
   92TIP3    H1  240   0.933   5.559   1.237 -0.6124 -0.7703 -0.3309
   92TIP3    H2  241   1.024   5.453   1.179  0.2107  0.1586 -0.7701
   93TIP3   OH2  242   5.265   2.028   5.621 -0.1533 -0.2054 -0.1335
   93TIP3    H1  243   5.223   2.029   5.707  2.9621 -0.4805  1.5196
   93TIP3    H2  244   5.264   1.935   5.595 -0.7162 -0.1790 -0.2273
   94TIP3   OH2  245   0.563   2.960   4.982  0.1778 -0.6247  0.0714
   94TIP3    H1  246   0.488   3.017   4.966 -0.2050 -1.1287  0.0202
   94TIP3    H2  247   0.618   3.008   5.043 -0.6546 -0.6455  0.8634
   95TIP3   OH2  248   0.875   0.556   1.441  0.2474 -0.3624  0.2062
   95TIP3    H1  249   0.865   0.641   1.485  3.0032  0.7014 -1.0534
   95TIP3    H2  250   0.817   0.562   1.365  1.3194  0.9389 -0.5515
   96TIP3   OH2  251   5.994   3.387   4.479  0.2800 -0.1622 -0.3238
   96TIP3    H1  252   5.907   3.348   4.472  0.9725 -1.7178 -0.7882
   96TIP3    H2  253   6.040   3.332   4.542  1.3921 -0.3194 -1.2349
   97TIP3   OH2  254   0.721   3.045   2.163  0.2903  0.0710 -0.4795
   97TIP3    H1  255   0.728   3.111   2.232  0.1422  0.0863 -0.4806
   97TIP3    H2  256   0.806   3.001   2.164  0.2331 -0.0307 -0.1847
   98TIP3   OH2  257   6.643   6.599   1.837  0.5522  0.1100 -0.7635
   98TIP3    H1  258   6.722   6.566   1.794  1.5570  1.1551  0.2327
   98TIP3    H2  259   6.607   6.523   1.883  1.1472 -0.3085 -0.9788
   99TIP3   OH2  260   5.484   6.344   3.236 -0.5074 -0.1303 -0.6339
   99TIP3    H1  261   5.396   6.380   3.240 -0.8233 -1.0006  1.0345
   99TIP3    H2  262   5.534   6.397   3.299 -0.1178 -0.3621 -0.7460
  100TIP3   OH2  263   3.963   6.236   3.107  0.2540  0.1228 -0.0438
  100TIP3    H1  264   3.906   6.309   3.084 -0.5811 -0.7330 -0.7731
  100TIP3    H2  265   3.938   6.165   3.048  0.3636 -1.0821  1.2790
  101TIP3   OH2  266   2.206   4.361   4.179  0.0107  0.6680 -0.3201
  101TIP3    H1  267   2.276   4.296   4.184 -0.3430  0.1171 -1.8555
  101TIP3    H2  268   2.164   4.359   4.265  0.5223 -0.5432 -0.0808
  102TIP3   OH2  269   2.617   6.531   1.826  0.5557 -0.7118  0.1326
  102TIP3    H1  270   2.552   6.566   1.887 -0.8952 -1.4178 -0.9506
  102TIP3    H2  271   2.692   6.508   1.881 -0.7215 -1.3842  1.6703
  103TIP3   OH2  272   5.764   6.179   2.048 -0.1588 -0.0561 -0.1428
  103TIP3    H1  273   5.801   6.212   1.966 -1.0240  1.5668  0.0925
  103TIP3    H2  274   5.675   6.154   2.026  0.5142 -2.5832 -0.3609
  104TIP3   OH2  275   6.949   1.532   5.636 -0.2186 -0.2278  1.3238
  104TIP3    H1  276   6.959   1.620   5.599  0.5971 -0.8433 -0.0042
  104TIP3    H2  277   6.861   1.505   5.611 -0.0708 -0.2126  0.7889
  105TIP3   OH2  278   0.769   5.197   1.334 -0.3802  0.2526  0.5908
  105TIP3    H1  279   0.846   5.202   1.277 -0.1629  1.6823  0.9803
  105TIP3    H2  280   0.744   5.105   1.332 -0.7378  0.3054 -2.2866
  106TIP3   OH2  281   0.092   2.235   0.120 -0.0104  0.2283 -0.3579
  106TIP3    H1  282   0.165   2.258   0.177  0.2952  0.1978 -0.7333
  106TIP3    H2  283   0.100   2.294   0.045 -1.5248  1.5919  0.4923
  107TIP3   OH2  284   0.592   4.175   1.437 -0.9034 -0.3444  0.3482
  107TIP3    H1  285   0.620   4.230   1.510  0.0502 -0.4499  0.0682
  107TIP3    H2  286   0.673   4.149   1.393 -1.2507 -2.7521  0.9990
  108TIP3   OH2  287   0.073   6.473   2.348 -0.1883 -0.1258  0.2745
  108TIP3    H1  288   0.026   6.486   2.431 -1.3841 -0.5322 -0.3057
  108TIP3    H2  289   0.125   6.552   2.336 -0.5687  0.2510  1.0599
  109TIP3   OH2  290   5.458   6.597   0.654 -0.8528  0.6174 -0.6271
  109TIP3    H1  291   5.537   6.612   0.707 -1.2995  1.6415 -0.2255
  109TIP3    H2  292   5.421   6.684   0.642 -2.6419  0.0393  0.3000
  110TIP3   OH2  293   0.916   6.797   1.438  0.0085 -0.5231  0.1915
  110TIP3    H1  294   1.011   6.801   1.451 -0.1351  1.5098  0.8445
  110TIP3    H2  295   0.880   6.798   1.527 -0.6833  2.3209 -0.0530
  111TIP3   OH2  296   2.936   1.196   4.584  0.3088  0.0424 -0.0569
  111TIP3    H1  297   3.019   1.241   4.598  0.1706  0.1248  0.4979
  111TIP3    H2  298   2.944   1.113   4.631 -0.3046  0.4933  0.8669
  112TIP3   OH2  299   3.253   1.349   3.127 -0.3470 -0.0781  0.0606
  112TIP3    H1  300   3.281   1.301   3.205  0.8070  0.1377 -0.2040
  112TIP3    H2  301   3.243   1.440   3.157  0.7522  0.1326 -0.1753
  113TIP3   OH2  302   4.909   6.239   4.642  0.0175  0.1106  0.1225
  113TIP3    H1  303   4.995   6.269   4.672 -0.4098  1.2638  0.2448
  113TIP3    H2  304   4.847   6.276   4.706 -0.5594 -0.8934  0.1704
  114TIP3   OH2  305   7.081   1.673   0.454  0.0593 -0.6182  0.4627
  114TIP3    H1  306   7.091   1.579   0.467  1.4568 -0.4081  1.1351
  114TIP3    H2  307   7.021   1.702   0.522 -1.8306 -1.2683 -0.8601
  115TIP3   OH2  308   4.097   0.170   4.926 -0.1369 -0.4222  0.2147
  115TIP3    H1  309   4.095   0.219   5.008 -0.3841  0.1177 -0.1125
  115TIP3    H2  310   4.153   0.221   4.868 -0.6045 -0.3799 -0.2130
  116TIP3   OH2  311   4.097   1.216   4.927  0.0277  0.4409  0.2727
  116TIP3    H1  312   4.092   1.233   5.021  0.7543  0.4938  0.3110
  116TIP3    H2  313   4.143   1.132   4.920 -2.3029 -0.8868  0.0316
  117TIP3   OH2  314   4.003   0.540   0.267 -0.2180  0.3815  0.0182
  117TIP3    H1  315   4.040   0.486   0.336 -0.8395 -1.5888 -1.1349
  117TIP3    H2  316   4.075   0.599   0.242  1.3529 -1.6304 -0.4273
  118TIP3   OH2  317   6.871   1.944   3.222  0.6415  0.6493 -0.1529
  118TIP3    H1  318   6.862   1.972   3.131  1.5309 -1.3335 -0.9031
  118TIP3    H2  319   6.863   1.848   3.219 -0.3472  0.5982  2.0079
  119TIP3   OH2  320   1.199   5.581   0.898 -0.2056 -0.2549  0.6349
  119TIP3    H1  321   1.160   5.518   0.838  0.2089 -0.3766  0.4942
  119TIP3    H2  322   1.137   5.585   0.971 -1.4167  0.8943 -0.3838
  120TIP3   OH2  323   2.732   0.423   1.945  0.1354  0.1411  0.3412
  120TIP3    H1  324   2.683   0.349   1.981 -0.3062 -0.0777 -0.6748
  120TIP3    H2  325   2.705   0.497   1.998  1.0771 -0.5257  1.8013
  121TIP3   OH2  326   3.948   0.733   2.347  0.2477 -0.0605  0.0449
  121TIP3    H1  327   3.946   0.644   2.382  0.3194 -0.1353 -0.1411
  121TIP3    H2  328   3.876   0.735   2.283 -1.1864  0.6553  1.5911
  122TIP3   OH2  329   3.130   0.930   1.811 -0.2971 -0.2266 -0.6253
  122TIP3    H1  330   3.039   0.930   1.780 -0.2850  0.1013 -0.6618
  122TIP3    H2  331   3.158   0.839   1.801 -0.8059 -0.4543 -0.0661
  123TIP3   OH2  332   4.016   6.700   5.707 -0.6133 -0.5145  0.3785
  123TIP3    H1  333   4.046   6.668   5.622  0.6631 -0.5521  0.8294
  123TIP3    H2  334   3.967   6.780   5.686 -1.1013 -1.0159 -0.4579
  124TIP3   OH2  335   3.026   6.709   5.301 -0.2178  0.1458  0.2679
  124TIP3    H1  336   2.967   6.743   5.367  0.2726  1.2781  0.1465
  124TIP3    H2  337   2.998   6.750   5.219 -0.0373 -0.2728 -0.0104
  125TIP3   OH2  338   2.039   2.200   2.400  1.0238 -0.0421 -0.1695
  125TIP3    H1  339   2.122   2.249   2.398  0.9648  0.0267 -1.2748
  125TIP3    H2  340   1.985   2.248   2.463  1.1464  1.0345 -0.8614
  126TIP3   OH2  341   4.627   1.440   0.530 -0.3016  0.8874 -0.5825
  126TIP3    H1  342   4.640   1.534   0.517 -2.1400  1.5218  1.5001
  126TIP3    H2  343   4.538   1.433   0.563 -1.1553 -1.9047 -3.0792
  127TIP3   OH2  344   3.545   5.446   5.877 -0.1670 -0.1483  0.3935
  127TIP3    H1  345   3.504   5.479   5.797  0.9022 -0.0788 -0.1297
  127TIP3    H2  346   3.524   5.353   5.878  0.7522 -0.3790 -0.5546
  128TIP3   OH2  347   2.403   1.738   5.336 -0.3328 -0.1590  0.2827
  128TIP3    H1  348   2.437   1.669   5.278 -1.1193  1.0291 -1.6950
  128TIP3    H2  349   2.435   1.714   5.423  1.9469 -1.3856 -0.8062
  129TIP3   OH2  350   0.872   1.084   2.344  0.0499  0.3517  0.0237
  129TIP3    H1  351   0.831   0.998   2.355 -1.0853  0.9562  0.6872
  129TIP3    H2  352   0.902   1.085   2.253 -0.2062 -0.6271 -0.0823
  130TIP3   OH2  353   0.660   5.627   0.911  0.2372  0.5205  0.3125
  130TIP3    H1  354   0.652   5.549   0.965  0.4047 -0.2304 -0.7187
  130TIP3    H2  355   0.707   5.598   0.833 -1.9207  1.0020 -1.2790
  131TIP3   OH2  356   0.643   4.627   0.168  0.0524  0.1361 -0.5633
  131TIP3    H1  357   0.612   4.711   0.135  1.2048  1.2498  1.0336
  131TIP3    H2  358   0.683   4.585   0.092 -0.7830  0.8901 -1.4477
  132TIP3   OH2  359   0.681   1.736   1.181  0.2099  0.0382  0.3733
  132TIP3    H1  360   0.774   1.728   1.201  0.2202  0.5102  0.5302
  132TIP3    H2  361   0.645   1.788   1.253 -0.0491  0.4236 -0.0243
  133TIP3   OH2  362   1.261   3.590   1.515 -0.0722  0.0483  0.0277
  133TIP3    H1  363   1.171   3.560   1.523 -0.1539  0.3869  0.4489
  133TIP3    H2  364   1.260   3.650   1.441 -0.3679  0.6623  0.5176
  134TIP3   OH2  365   6.095   2.728   2.559  0.2139 -0.3320  0.5147
  134TIP3    H1  366   6.106   2.751   2.651 -0.2979 -0.0591  0.5091
  134TIP3    H2  367   6.050   2.803   2.520  1.7263  0.2117 -0.2876
  135TIP3   OH2  368   6.751   4.780   4.059  0.6431  0.1682 -0.8583
  135TIP3    H1  369   6.680   4.844   4.069 -0.2266 -0.8339 -0.4548
  135TIP3    H2  370   6.791   4.774   4.145  0.4620 -0.1437 -0.7982
  136TIP3   OH2  371   4.683   3.135   5.656  0.1211  0.0734  0.1172
  136TIP3    H1  372   4.681   3.052   5.609 -0.0328 -0.9187  1.8003
  136TIP3    H2  373   4.602   3.135   5.708 -0.4850  1.8431 -0.7438
  137TIP3   OH2  374   0.453   3.910   3.761  0.2240  0.4857  0.1655
  137TIP3    H1  375   0.435   3.974   3.829 -0.9384 -1.8494  2.2463
  137TIP3    H2  376   0.501   3.840   3.806  0.4058 -0.6529 -1.6794
  138TIP3   OH2  377   1.213   1.023   1.722 -0.3303  0.2517 -0.1938
  138TIP3    H1  378   1.142   1.020   1.658 -0.5001 -4.3118 -0.1184
  138TIP3    H2  379   1.291   1.040   1.670 -1.0789  2.4790 -0.6750
  139TIP3   OH2  380   4.621   0.202   2.885 -0.5569  1.1260 -0.0382
  139TIP3    H1  381   4.713   0.192   2.859 -1.2177  0.4606 -2.3855
  139TIP3    H2  382   4.619   0.282   2.937  1.1595  1.8470 -0.9990
  140TIP3   OH2  383   2.130   4.146   2.088  0.5324  0.2028  0.4214
  140TIP3    H1  384   2.098   4.140   2.178 -0.0091  1.0386  0.2940
  140TIP3    H2  385   2.053   4.173   2.037  0.3267 -2.0707 -0.6056
  141TIP3   OH2  386   1.852   2.489   4.528 -0.5449  0.0675  0.5446
  141TIP3    H1  387   1.821   2.403   4.554 -2.5292 -0.5933 -3.2249
  141TIP3    H2  388   1.773   2.537   4.503  0.7390  1.9079 -0.2731
  142TIP3   OH2  389   5.700   0.894   5.008  0.3064  0.7589  0.1388
  142TIP3    H1  390   5.661   0.973   5.046 -0.3289  1.0159 -1.0098
  142TIP3    H2  391   5.675   0.896   4.916 -1.4205 -1.7739  0.4454
  143TIP3   OH2  392   6.323   6.073   2.185  0.1501  0.4398 -0.0615
  143TIP3    H1  393   6.332   6.031   2.271 -2.4942  1.3386  0.7749
  143TIP3    H2  394   6.412   6.094   2.158  1.4905 -3.7866  0.3608
  144TIP3   OH2  395   0.730   4.123   2.594  1.0413 -0.2786  0.0508
  144TIP3    H1  396   0.800   4.075   2.550  2.9079  1.8425  0.5125
  144TIP3    H2  397   0.654   4.113   2.536  2.2914 -0.9144 -1.5643
  145TIP3   OH2  398   0.881   1.707   0.432 -0.0695  0.5428  0.4736
  145TIP3    H1  399   0.914   1.624   0.398  1.3192  1.0228  0.5635
  145TIP3    H2  400   0.927   1.773   0.380 -3.1616  1.3284 -1.5119
  146TIP3   OH2  401   3.086   3.844   3.994 -0.3062 -0.2946 -0.3598
  146TIP3    H1  402   3.165   3.790   3.990  0.5230  0.8354  0.2988
  146TIP3    H2  403   3.025   3.794   4.048 -0.2466 -1.3972 -1.2682
  147TIP3   OH2  404   1.473   6.482   0.159 -0.3141  0.5681  0.0199
  147TIP3    H1  405   1.476   6.496   0.254 -0.7495  0.4235  0.0553
  147TIP3    H2  406   1.452   6.390   0.149  1.2511  0.2062 -0.2226
  148TIP3   OH2  407   2.544   3.623   3.401  0.1003  0.1118  0.9776
  148TIP3    H1  408   2.620   3.636   3.459  0.3394 -2.4646  1.3715
  148TIP3    H2  409   2.516   3.533   3.419 -1.8127  0.3277 -0.6408
  149TIP3   OH2  410   5.680   0.592   3.836  0.4197  0.4562 -0.1710
  149TIP3    H1  411   5.674   0.513   3.782 -3.3110  1.3316 -1.2679
  149TIP3    H2  412   5.591   0.610   3.863  0.9809  4.5890 -0.3979
  150TIP3   OH2  413   6.843   2.963   3.596  0.0333 -0.1587  0.0255
  150TIP3    H1  414   6.768   2.988   3.650  0.2657  1.4792 -0.3790
  150TIP3    H2  415   6.803   2.932   3.514 -0.3370 -2.9780  1.1565
  151TIP3   OH2  416   2.213   5.782   4.562  0.0274  0.0732  0.6053
  151TIP3    H1  417   2.123   5.749   4.570 -1.0436  2.0027 -2.0117
  151TIP3    H2  418   2.252   5.729   4.493 -0.1484  1.1622 -0.3548
  152TIP3   OH2  419   3.677   2.132   5.826  0.1554 -0.2111 -0.0029
  152TIP3    H1  420   3.705   2.206   5.772  0.2455 -1.5011 -1.8335
  152TIP3    H2  421   3.751   2.071   5.823 -1.4785 -2.2986 -2.3286
  153TIP3   OH2  422   3.172   1.307   4.484 -0.3016 -0.1145 -0.5651
  153TIP3    H1  423   3.257   1.351   4.488 -1.4081  2.1322  0.9954
  153TIP3    H2  424   3.170   1.264   4.399  3.7250 -3.2641  0.6369
  154TIP3   OH2  425   2.770   2.312   4.777 -0.1185  0.0375 -0.0860
  154TIP3    H1  426   2.703   2.311   4.708 -0.2834  3.4963 -0.1444
  154TIP3    H2  427   2.723   2.337   4.856  0.7397  0.2951  0.3566
  155TIP3   OH2  428   7.171   0.384   5.675 -0.0651  0.0555  0.2557
  155TIP3    H1  429   7.175   0.455   5.738 -1.4744 -0.5537  1.0783
  155TIP3    H2  430   7.262   0.371   5.648  0.3342  1.4978  0.8210
  156TIP3   OH2  431   2.666   2.060   3.509 -0.0133 -0.2037 -0.2221
  156TIP3    H1  432   2.742   2.004   3.522  0.1998  0.0823 -0.2460
  156TIP3    H2  433   2.595   2.015   3.555  0.0738 -0.6761 -0.5452
  157TIP3   OH2  434   0.745   5.845   1.812 -0.3869 -0.3741 -0.4287
  157TIP3    H1  435   0.673   5.845   1.875  1.0359  1.2287  1.3208
  157TIP3    H2  436   0.742   5.931   1.771 -0.1473 -0.7259 -1.2094
  158TIP3   OH2  437   2.707   4.994   2.511  0.6206 -0.3887  0.4201
  158TIP3    H1  438   2.787   5.024   2.554  1.1535 -0.9743 -0.1416
  158TIP3    H2  439   2.728   4.993   2.417 -0.1337 -0.2797  0.2389
  159TIP3   OH2  440   4.020   5.022   1.844 -0.2263 -0.3319 -0.2969
  159TIP3    H1  441   4.008   5.057   1.932  0.9043 -1.2591  0.2476
  159TIP3    H2  442   3.964   4.944   1.841  1.8679 -1.9958  0.6659
  160TIP3   OH2  443   1.351   4.840   2.257  0.3178  0.0096 -0.7701
  160TIP3    H1  444   1.419   4.787   2.300 -0.1611 -1.1198 -1.3515
  160TIP3    H2  445   1.302   4.879   2.329  1.3163  0.5135 -0.3337
  161TIP3   OH2  446   5.669   0.422   5.542 -0.3863  0.6517 -0.3869
  161TIP3    H1  447   5.748   0.463   5.507  0.2253 -0.9572 -0.9927
  161TIP3    H2  448   5.665   0.450   5.633  2.1419 -0.9333  0.3194
  162TIP3   OH2  449   5.323   0.007   5.074 -0.6189 -0.2639  0.2470
  162TIP3    H1  450   5.237  -0.034   5.065 -1.0488  0.7668 -0.5069
  162TIP3    H2  451   5.305   0.098   5.096  0.3283 -0.5675  2.5158
  163TIP3   OH2  452   3.538   1.301   2.501  0.3966  0.2146 -0.1282
  163TIP3    H1  453   3.519   1.324   2.592  1.4950  1.3465 -0.1494
  163TIP3    H2  454   3.593   1.373   2.469 -0.7416  0.3380 -1.9873
  164TIP3   OH2  455   3.296   2.831   0.758  0.8802  0.2041 -0.0068
  164TIP3    H1  456   3.267   2.914   0.721  0.6681  0.5830  0.9960
  164TIP3    H2  457   3.386   2.847   0.786  0.9531 -0.0108 -0.1083
  165TIP3   OH2  458   3.690   1.795   3.088  0.1081 -0.1127  0.0246
  165TIP3    H1  459   3.729   1.726   3.143  0.0381  0.5859  0.9866
  165TIP3    H2  460   3.758   1.862   3.083  0.9122 -1.0151 -2.4933
  166TIP3   OH2  461   2.287   4.083   3.818  0.2155 -0.2541 -0.3829
  166TIP3    H1  462   2.225   4.079   3.891  0.5289  1.6104  0.0434
  166TIP3    H2  463   2.371   4.058   3.856  0.1766 -0.3544 -0.3634
  167TIP3   OH2  464   0.915   3.327   3.725 -0.7228  0.3314 -0.3280
  167TIP3    H1  465   0.956   3.407   3.757  1.1253 -0.5957 -0.2160
  167TIP3    H2  466   0.871   3.290   3.802  1.3476 -0.4707  0.5375
  168TIP3   OH2  467   6.230   1.419   1.299  0.3888 -0.0726  1.0019
  168TIP3    H1  468   6.243   1.471   1.378  0.7923  2.3415 -0.5540
  168TIP3    H2  469   6.144   1.445   1.267  0.5621 -0.4230  0.2296
  169TIP3   OH2  470   6.461   3.451   1.386 -0.1196 -0.2076  0.1377
  169TIP3    H1  471   6.437   3.464   1.294 -1.9097 -1.3125  0.3994
  169TIP3    H2  472   6.440   3.360   1.403  2.3697 -0.6918  1.0712
  170TIP3   OH2  473   5.018   4.288   4.919  0.6858  0.3964  0.5097
  170TIP3    H1  474   4.957   4.221   4.951  0.5917  0.9582  1.5382
  170TIP3    H2  475   5.094   4.238   4.889  0.0043 -0.2699 -0.1607
  171TIP3   OH2  476   3.181   1.267   5.073 -0.2424 -0.2262  0.0455
  171TIP3    H1  477   3.220   1.202   5.132  0.1680  0.1303  0.1768
  171TIP3    H2  478   3.226   1.253   4.990 -2.0085 -1.8512 -0.6751
  172TIP3   OH2  479   0.972   5.359   1.966 -0.6172  0.0581 -0.0379
  172TIP3    H1  480   0.878   5.368   1.954 -0.6633 -1.7443 -1.4462
  172TIP3    H2  481   1.000   5.297   1.898  1.7330  1.2056 -0.2482
  173TIP3   OH2  482   0.761   1.260   0.576 -0.2238  0.5301 -0.1002
  173TIP3    H1  483   0.832   1.321   0.596  0.8403 -0.1613 -1.6571
  173TIP3    H2  484   0.805   1.181   0.546 -1.5367 -1.2834  2.3565
  174TIP3   OH2  485   3.581   0.232   3.011  0.2648  0.6639 -0.3128
  174TIP3    H1  486   3.618   0.191   3.089  3.0498 -0.2681 -1.9761
  174TIP3    H2  487   3.497   0.187   2.999  0.8221 -0.8181  0.8696
  175TIP3   OH2  488   0.726   0.720   3.301  0.3380  0.7320  0.0295
  175TIP3    H1  489   0.811   0.754   3.331  0.7379  0.5837 -0.8946
  175TIP3    H2  490   0.749   0.651   3.239 -0.4700 -0.3799  0.9181
  176TIP3   OH2  491   6.648   5.194   2.887 -0.2890 -0.5011 -0.3905
  176TIP3    H1  492   6.685   5.273   2.926  0.2660 -0.5355 -0.8292
  176TIP3    H2  493   6.650   5.211   2.793 -0.1547 -1.0331 -0.4861
  177TIP3   OH2  494   2.688   5.308   2.541  0.0335 -0.1333  0.3541
  177TIP3    H1  495   2.676   5.215   2.520 -1.2477 -0.2786  1.6081
  177TIP3    H2  496   2.761   5.335   2.485  0.4189 -1.8755 -0.0660
  178TIP3   OH2  497   1.323   0.542   1.845 -0.1778  0.3800  0.0713
  178TIP3    H1  498   1.316   0.636   1.859  1.0695  0.2157  2.2457
  178TIP3    H2  499   1.407   0.530   1.801  0.3965  0.1888  1.1987
  179TIP3   OH2  500   5.659   5.239   2.082 -0.0982  0.1592 -0.1752
  179TIP3    H1  501   5.712   5.243   2.003  0.7296 -1.3065  0.2535
  179TIP3    H2  502   5.617   5.324   2.088 -1.0891 -0.0542 -2.7955
  180TIP3   OH2  503   3.828   0.404   4.885  0.0091 -0.8099  0.2564
  180TIP3    H1  504   3.838   0.499   4.877 -1.3234 -0.7511 -1.2792
  180TIP3    H2  505   3.822   0.388   4.979 -2.2458  0.9321  0.4837
  181TIP3   OH2  506   5.188   3.404   2.209  0.5796  0.2416  0.1888
  181TIP3    H1  507   5.105   3.427   2.251 -0.1683 -1.5284 -0.2235
  181TIP3    H2  508   5.254   3.452   2.259 -0.6472  1.4959  0.6857
  182TIP3   OH2  509   1.630   3.361   3.716 -0.0227 -0.0263  0.0573
  182TIP3    H1  510   1.631   3.395   3.805  0.1071  0.2215 -0.0372
  182TIP3    H2  511   1.547   3.391   3.680 -0.8208 -1.5050  0.6169
  183TIP3   OH2  512   2.084   0.732   1.506  0.2783 -0.4112  0.4927
  183TIP3    H1  513   2.090   0.637   1.495 -1.2416 -0.4691 -0.0219
  183TIP3    H2  514   2.008   0.758   1.455  1.1524  1.2225 -0.0523
  184TIP3   OH2  515   0.623   1.838   4.617 -0.7256 -0.1225 -0.0001
  184TIP3    H1  516   0.532   1.839   4.646 -0.1286  0.2967  1.9837
  184TIP3    H2  517   0.624   1.779   4.542 -2.5942 -0.2332  0.0310
  185TIP3   OH2  518   4.275   0.733   0.051  0.1920  0.6514 -0.0704
  185TIP3    H1  519   4.204   0.791   0.026  0.8680  0.4577 -2.7457
  185TIP3    H2  520   4.265   0.656  -0.006  1.3497 -0.2845  0.9313
  186TIP3   OH2  521   3.451   1.430   5.327  0.3302  0.5474  0.1308
  186TIP3    H1  522   3.371   1.480   5.313 -0.5166 -0.5025  1.0139
  186TIP3    H2  523   3.513   1.492   5.364 -0.4651  1.0988  0.5585
  187TIP3   OH2  524   1.507   1.596   1.089 -0.0147  0.3803  0.1508
  187TIP3    H1  525   1.524   1.648   1.168  0.0651  0.3271  0.1681
  187TIP3    H2  526   1.594   1.574   1.055  0.0085  2.2689 -1.1941
  188TIP3   OH2  527   3.670   0.430   0.338 -0.2183  0.5401 -0.0921
  188TIP3    H1  528   3.615   0.352   0.346  0.8190 -0.5368 -2.3254
  188TIP3    H2  529   3.735   0.421   0.408 -1.0186  0.2240  0.6262
  189TIP3   OH2  530   7.027   3.469   4.850 -0.0753 -0.1998  0.1706
  189TIP3    H1  531   7.088   3.408   4.891 -0.5164  0.0610  1.2477
  189TIP3    H2  532   6.942   3.425   4.856  0.0290 -0.7252 -1.6510
  190TIP3   OH2  533   0.836   6.735   5.321  0.3069 -0.2877  0.2430
  190TIP3    H1  534   0.835   6.640   5.310  1.5082 -0.4644  1.4224
  190TIP3    H2  535   0.767   6.753   5.385 -1.2322 -0.1125 -1.3748
  191TIP3   OH2  536   4.567   3.472   5.053  0.3875  0.6602  0.1002
  191TIP3    H1  537   4.567   3.461   5.148 -1.6276  1.2508  0.2389
  191TIP3    H2  538   4.536   3.388   5.019 -0.3289  0.9062  0.1070
  192TIP3   OH2  539   0.339   3.956   2.834 -0.0342 -0.3142 -0.3386
  192TIP3    H1  540   0.259   3.943   2.783  0.2597  2.3243 -1.6480
  192TIP3    H2  541   0.401   3.893   2.796 -0.6566 -0.3666 -1.3185
  193TIP3   OH2  542   3.331   5.247   0.742 -0.1598 -0.8302  0.1410
  193TIP3    H1  543   3.304   5.184   0.676  0.3408 -1.7714  0.8146
  193TIP3    H2  544   3.415   5.282   0.709 -1.4484  1.1333 -1.3021
  194TIP3   OH2  545   2.650   1.829   5.171 -0.0560 -0.7014  0.7181
  194TIP3    H1  546   2.603   1.756   5.129  0.3297 -0.1944 -0.6560
  194TIP3    H2  547   2.734   1.831   5.125  0.1108  0.3162  1.0664
  195TIP3   OH2  548   4.898   6.657   4.563  0.3764 -0.0551  0.2004
  195TIP3    H1  549   4.981   6.624   4.527  0.7845  0.6351  0.4932
  195TIP3    H2  550   4.833   6.591   4.537  0.8774 -0.2189 -0.6917
  196TIP3   OH2  551   3.266   1.791   1.461  0.3351 -0.6486 -0.3683
  196TIP3    H1  552   3.255   1.707   1.415 -2.7422  0.3557 -1.7335
  196TIP3    H2  553   3.181   1.806   1.502  0.0716  2.7079 -1.8655
  197TIP3   OH2  554   3.370   5.820   0.765  0.3419  0.2304  0.0278
  197TIP3    H1  555   3.365   5.736   0.809  0.6457 -0.1858 -0.7097
  197TIP3    H2  556   3.464   5.835   0.753  0.2503  0.0542 -0.9853
  198TIP3   OH2  557   6.603   4.398   4.601 -0.4595 -0.0728 -0.1661
  198TIP3    H1  558   6.641   4.486   4.607 -1.3849  0.3981 -0.8253
  198TIP3    H2  559   6.556   4.387   4.684 -1.1361  0.4610 -0.4638
  199TIP3   OH2  560   1.225   1.283   2.896 -0.1774 -0.2222  0.1753
  199TIP3    H1  561   1.296   1.264   2.834 -1.0077 -2.0141 -0.2969
  199TIP3    H2  562   1.220   1.379   2.897  0.4770 -0.1017 -1.8396
  200TIP3   OH2  563   0.472   3.851   0.756 -0.0014 -0.1402 -0.2736
  200TIP3    H1  564   0.474   3.779   0.693  0.2304 -1.1112  0.8086
  200TIP3    H2  565   0.470   3.930   0.703  2.1989 -0.8509 -1.5148
  201TIP3   OH2  566   4.688   6.044   2.419 -0.0227  0.0558 -0.2237
  201TIP3    H1  567   4.649   6.131   2.427  2.4013  1.1903 -0.0750
  201TIP3    H2  568   4.639   5.991   2.482 -2.1533  1.0236 -0.9531
  202TIP3   OH2  569   5.556   3.082   5.521 -0.0572  0.3592 -0.0965
  202TIP3    H1  570   5.566   3.138   5.598  0.3441  2.1005 -1.3574
  202TIP3    H2  571   5.474   3.111   5.481  0.6782  0.7890 -1.3269
  203TIP3   OH2  572   7.113   3.243   3.971 -0.0001 -0.0786 -0.0670
  203TIP3    H1  573   7.035   3.211   4.016  0.2855 -0.1174  0.4024
  203TIP3    H2  574   7.101   3.338   3.967 -0.8107 -0.1971 -1.3925
  204TIP3   OH2  575   0.688   4.411   3.601 -0.5552  0.1328 -0.0052
  204TIP3    H1  576   0.739   4.486   3.632 -1.0510  0.2343  0.5815
  204TIP3    H2  577   0.613   4.407   3.660 -2.0174  0.8676 -1.7591
  205TIP3   OH2  578   4.604   3.007   4.199 -0.2820 -0.1376  0.2535
  205TIP3    H1  579   4.518   2.981   4.165 -0.8368  2.9190 -0.9401
  205TIP3    H2  580   4.624   3.089   4.154  2.9795 -0.3937  1.0314
  206TIP3   OH2  581   4.068   4.226   2.016  0.0735 -0.5464 -0.5443
  206TIP3    H1  582   4.143   4.250   2.071  0.7466  0.5207 -1.8455
  206TIP3    H2  583   4.011   4.176   2.074  0.1022  1.6027  1.5121
  207TIP3   OH2  584   3.135   1.365   0.049 -0.6594  0.1405 -0.6642
  207TIP3    H1  585   3.105   1.340  -0.038  0.5303 -2.2299 -0.4696
  207TIP3    H2  586   3.118   1.459   0.054 -0.4574  0.4299 -3.5708
  208TIP3   OH2  587   4.858   6.061   1.928 -0.3005 -0.3528  0.3286
  208TIP3    H1  588   4.770   6.052   1.965 -0.9832  1.2217 -0.7761
  208TIP3    H2  589   4.910   5.996   1.974 -1.1315  1.1810  3.7872
  209TIP3   OH2  590   6.108   5.786   2.258  0.0726  0.2944  0.5459
  209TIP3    H1  591   6.130   5.720   2.324  1.0836 -0.9926 -1.0296
  209TIP3    H2  592   6.077   5.861   2.310 -1.8773 -1.6206  2.3770
  210TIP3   OH2  593   5.753   5.904   2.241 -0.3612 -0.0125  0.4930
  210TIP3    H1  594   5.778   5.924   2.331 -0.8820  2.0014  0.2283
  210TIP3    H2  595   5.758   5.987   2.195 -2.6851 -0.4519 -0.7047
  211TIP3   OH2  596   1.858   6.390   0.496 -0.4391  0.0782  0.0159
  211TIP3    H1  597   1.924   6.321   0.502  1.0956  1.4606 -0.2487
  211TIP3    H2  598   1.875   6.446   0.571 -0.2437  1.3501 -0.9534
  212TIP3   OH2  599   6.592   4.377   1.521  0.5587 -0.5426  0.1072
  212TIP3    H1  600   6.680   4.351   1.551  0.7096 -0.1526  0.0066
  212TIP3    H2  601   6.598   4.471   1.510 -0.0068 -0.4533  0.5192
  213TIP3   OH2  602   6.139   3.949   3.429 -0.5491 -0.1839 -0.4153
  213TIP3    H1  603   6.187   4.017   3.476 -0.4116  2.0506 -3.4800
  213TIP3    H2  604   6.178   3.867   3.459  1.3182  1.2072  1.2806
  214TIP3   OH2  605   7.078   3.060   2.093 -0.3766  0.0585 -0.0013
  214TIP3    H1  606   7.014   2.994   2.069  0.9569 -1.0660 -0.5692
  214TIP3    H2  607   7.025   3.138   2.113 -1.8196 -0.1371 -2.5764
  215TIP3   OH2  608   4.364   0.614   4.343 -0.1121 -0.0005  0.0223
  215TIP3    H1  609   4.451   0.598   4.379  0.2385  0.8511 -0.4237
  215TIP3    H2  610   4.304   0.582   4.411  0.4998 -2.4730 -0.4940
  216TIP3   OH2  611   1.749   3.207   2.362  0.2716  0.1607 -0.2683
  216TIP3    H1  612   1.752   3.113   2.380 -1.2202 -0.4766 -2.8673
  216TIP3    H2  613   1.717   3.246   2.444 -1.2947 -1.8572  0.1565
  217TIP3   OH2  614   4.870   1.123   4.421  0.2218 -0.4181 -0.3018
  217TIP3    H1  615   4.941   1.058   4.422  0.4991 -0.1172 -0.4253
  217TIP3    H2  616   4.801   1.082   4.369  0.7729 -0.2161 -1.2143
  218TIP3   OH2  617   3.881   1.910   4.996 -0.4660 -0.0904 -0.5304
  218TIP3    H1  618   3.947   1.842   4.999 -2.1553 -1.7594  0.7704
  218TIP3    H2  619   3.854   1.914   4.904  0.5163 -0.2706 -0.8329
  219TIP3   OH2  620   2.925   4.184   0.222  0.3065  0.8323  0.8293
  219TIP3    H1  621   2.893   4.154   0.137  1.0146  1.9213  0.1479
  219TIP3    H2  622   3.014   4.149   0.228  0.9608  2.2856  0.2396
  220TIP3   OH2  623   4.191   4.466   2.225  0.5431  0.2376  0.6335
  220TIP3    H1  624   4.106   4.434   2.256  0.8866 -0.5529  0.7836
  220TIP3    H2  625   4.235   4.498   2.303  0.1455  1.2217  0.4622
  221TIP3   OH2  626   5.398   2.800   2.558  0.8642 -0.2314 -0.2497
  221TIP3    H1  627   5.374   2.769   2.646  1.1717  0.3612  0.0498
  221TIP3    H2  628   5.388   2.723   2.502 -0.9405 -0.2344  0.0074
  222TIP3   OH2  629   4.771   0.610   3.484 -0.5815 -0.1163  0.0148
  222TIP3    H1  630   4.678   0.605   3.460 -0.5640  1.8146 -0.6828
  222TIP3    H2  631   4.815   0.553   3.421 -1.1857 -0.1835 -0.3537
  223TIP3   OH2  632   2.633   2.549   2.848  0.2082 -0.0062 -0.2455
  223TIP3    H1  633   2.570   2.616   2.819 -0.5664 -1.0164 -0.9792
  223TIP3    H2  634   2.718   2.583   2.820 -0.0463  1.0952  0.2201
  224TIP3   OH2  635   2.313   4.545   0.542 -0.3099  0.2189  0.0132
  224TIP3    H1  636   2.293   4.536   0.449  0.9860  1.2120 -0.3838
  224TIP3    H2  637   2.384   4.483   0.557 -0.2124  0.3880  0.2442
  225TIP3   OH2  638   7.033   0.515   3.410  0.7995  0.2118  0.0211
  225TIP3    H1  639   6.994   0.453   3.348 -1.1468  0.1202  1.2881
  225TIP3    H2  640   7.117   0.475   3.434  0.0635 -1.4102 -0.0156
  226TIP3   OH2  641   0.949   2.387   1.188  0.2144  0.6559  0.4822
  226TIP3    H1  642   0.955   2.386   1.283  1.0741 -0.5706  0.4351
  226TIP3    H2  643   1.033   2.425   1.159  0.7373 -0.6364  0.2018
  227TIP3   OH2  644   3.099   2.995   4.287 -0.1920  0.4064 -0.1874
  227TIP3    H1  645   3.069   2.906   4.305  0.2686 -0.2022 -2.1923
  227TIP3    H2  646   3.019   3.045   4.274 -0.4505  0.2587  0.7548
  228TIP3   OH2  647   0.063   1.129  -0.016  0.1791 -0.1229 -0.1760
  228TIP3    H1  648   0.091   1.156   0.071  1.2444  1.2238 -0.8947
  228TIP3    H2  649   0.014   1.048  -0.002 -0.9989  0.8636  1.8273
  229TIP3   OH2  650   5.466   3.648   3.210 -0.0497  0.3200 -0.1972
  229TIP3    H1  651   5.522   3.628   3.134 -0.1433  0.0238 -0.1881
  229TIP3    H2  652   5.400   3.708   3.175  0.4046  0.8589 -0.1572
  230TIP3   OH2  653   6.482   3.764   3.745 -0.0482  0.1493  0.4561
  230TIP3    H1  654   6.514   3.695   3.802 -1.1542  1.6834  3.1439
  230TIP3    H2  655   6.390   3.744   3.730  0.2678 -0.3401 -1.0593
  231TIP3   OH2  656   5.115   2.500   0.944 -0.1176 -0.0088  0.0931
  231TIP3    H1  657   5.136   2.417   0.903 -0.0297 -0.4608  1.0329
  231TIP3    H2  658   5.028   2.523   0.909 -0.4924 -0.8901  0.4296
  232TIP3   OH2  659   4.864   0.233   2.737 -0.4973  0.2734 -0.4765
  232TIP3    H1  660   4.932   0.185   2.785 -0.1887 -0.7758 -1.8993
  232TIP3    H2  661   4.896   0.323   2.734  0.1345  0.0739  0.1090
  233TIP3   OH2  662   6.876   1.507   3.113 -0.1729 -0.0948  0.3335
  233TIP3    H1  663   6.809   1.439   3.106 -0.4817  0.2016  0.3966
  233TIP3    H2  664   6.848   1.574   3.051  0.3008 -0.1669  0.0381
  234TIP3   OH2  665   4.051   2.784   2.603 -0.1085  0.3626  0.3855
  234TIP3    H1  666   4.127   2.737   2.569 -0.4608  0.5933 -0.7821
  234TIP3    H2  667   4.065   2.789   2.698  0.1412 -1.7001  0.4941
  235TIP3   OH2  668   4.173   3.244   0.999 -0.2978  0.1516  0.0708
  235TIP3    H1  669   4.125   3.325   1.020  0.7665  0.6052  0.8562
  235TIP3    H2  670   4.159   3.232   0.905 -1.5059  0.5472  0.1711
  236TIP3   OH2  671   0.047   4.756   3.437  0.2981  0.4094 -0.3855
  236TIP3    H1  672  -0.033   4.783   3.482  1.7522  0.9861  1.9952
  236TIP3    H2  673   0.086   4.838   3.405  0.0983  0.1605 -1.2870
  237TIP3   OH2  674   3.985   5.988   1.531  0.1544 -0.2461 -0.6803
  237TIP3    H1  675   4.063   6.023   1.574 -0.5169 -1.1293  1.3654
  237TIP3    H2  676   3.956   6.059   1.473  1.3023  0.8692  0.0556
  238TIP3   OH2  677   1.867   3.042   0.510  0.4551 -0.3230  0.1305
  238TIP3    H1  678   1.870   3.133   0.480  2.0114 -0.1219  0.7681
  238TIP3    H2  679   1.796   3.040   0.574 -1.6077 -0.3050 -2.0446
  239TIP3   OH2  680   1.665   0.433   0.613  0.7649  0.3724  0.4277
  239TIP3    H1  681   1.587   0.381   0.595  0.3769  0.6154  1.3515
  239TIP3    H2  682   1.717   0.378   0.671  0.3170  1.0269  1.4713
  240TIP3   OH2  683   6.381   1.903   0.741  0.7966  0.4712 -0.0704
  240TIP3    H1  684   6.300   1.855   0.754  1.5727 -0.3332  2.1806
  240TIP3    H2  685   6.448   1.835   0.733  1.5845  1.1347  0.7232
  241TIP3   OH2  686   1.451   5.492   1.496  0.1624 -0.0001 -0.7014
  241TIP3    H1  687   1.456   5.429   1.568 -0.4730 -0.4511 -1.0472
  241TIP3    H2  688   1.369   5.473   1.452 -0.7549  1.9873  0.0187
  242TIP3   OH2  689   6.757   3.273   4.300 -0.4438 -0.6980  0.5960
  242TIP3    H1  690   6.670   3.251   4.334  0.2043 -2.2553  1.3666
  242TIP3    H2  691   6.775   3.206   4.234  0.8841 -1.5071  1.7337
  243TIP3   OH2  692   1.274   3.457   4.400  0.0645 -0.5353 -0.3157
  243TIP3    H1  693   1.286   3.365   4.374  1.5918 -0.1461 -1.0455
  243TIP3    H2  694   1.359   3.483   4.434 -0.0787  0.9014 -1.0142
  244TIP3   OH2  695   0.172   5.723   3.541 -0.5507  0.4044  0.1319
  244TIP3    H1  696   0.223   5.712   3.621 -1.3750  0.9683  0.7573
  244TIP3    H2  697   0.237   5.726   3.471  0.4205  2.5592  1.0322
  245TIP3   OH2  698   5.735   5.830   3.130  0.1581 -0.0803 -0.3016
  245TIP3    H1  699   5.767   5.919   3.144  0.8102 -0.5050  1.1231
  245TIP3    H2  700   5.751   5.812   3.037  1.0956  0.8690 -0.3342
  246TIP3   OH2  701   2.573   0.659   0.522 -0.6469  0.0710 -0.5156
  246TIP3    H1  702   2.544   0.750   0.522 -1.4548 -0.1560  1.0443
  246TIP3    H2  703   2.639   0.654   0.591 -0.2829 -0.4313 -0.8890
  247TIP3   OH2  704   4.473   5.247   2.796 -0.8209  0.1639  0.1884
  247TIP3    H1  705   4.385   5.262   2.832  0.8503  0.1611  4.9453
  247TIP3    H2  706   4.515   5.333   2.799  0.2111 -0.3433  0.7990
  248TIP3   OH2  707   1.119   1.827   1.052 -0.7031  0.6370  0.4749
  248TIP3    H1  708   1.132   1.885   0.976  0.2369 -0.4056 -0.1919
  248TIP3    H2  709   1.205   1.824   1.094 -1.0527  0.6668  1.1942
  249TIP3   OH2  710   1.778   5.744   2.176 -0.4257  0.0587  0.2982
  249TIP3    H1  711   1.818   5.728   2.091 -0.4915  1.3315  0.0041
  249TIP3    H2  712   1.686   5.763   2.156 -0.4677  0.2446  0.6635
  250TIP3   OH2  713   3.601   2.099   2.550 -0.0667  0.4260 -0.2334
  250TIP3    H1  714   3.591   2.146   2.468 -1.1656 -2.4319 -1.8766
  250TIP3    H2  715   3.650   2.020   2.527  0.0152 -0.2436  1.9602
  251TIP3   OH2  716   3.731   2.833   5.281  0.0582 -0.1428  0.3649
  251TIP3    H1  717   3.767   2.882   5.207 -0.3871  0.7425  0.7201
  251TIP3    H2  718   3.715   2.745   5.247  2.7020 -0.6417  0.2333
  252TIP3   OH2  719   7.137   1.812   3.497 -0.4843 -0.7754 -0.2319
  252TIP3    H1  720   7.178   1.816   3.584 -1.9484 -1.4540  0.5272
  252TIP3    H2  721   7.067   1.748   3.507 -2.2262  0.9029 -1.2593
  253TIP3   OH2  722   5.408   6.167   1.421 -0.1067 -0.4263  0.0857
  253TIP3    H1  723   5.353   6.095   1.390  0.3260 -0.8102  0.1933
  253TIP3    H2  724   5.350   6.221   1.475 -0.7703  0.0505 -1.0792
  254TIP3   OH2  725   5.534   4.885   1.279  0.2367  0.1182  0.2153
  254TIP3    H1  726   5.565   4.969   1.314  0.3443  0.1406  0.0680
  254TIP3    H2  727   5.488   4.844   1.352  0.6889  0.0434  0.4598
  255TIP3   OH2  728   5.687   3.287   0.860  0.2900  0.4658  0.2057
  255TIP3    H1  729   5.722   3.371   0.890  0.3439  0.0910  1.2401
  255TIP3    H2  730   5.714   3.281   0.769 -1.6476  2.5847 -0.5918
  256TIP3   OH2  731   2.252   5.427   4.525 -0.5501  0.8613 -0.9014
  256TIP3    H1  732   2.314   5.488   4.486  1.3497 -0.9681 -0.9354
  256TIP3    H2  733   2.280   5.341   4.492 -0.8223 -0.4253  1.9710
  257TIP3   OH2  734   5.176   4.687   1.161  0.4515 -0.2416  0.3209
  257TIP3    H1  735   5.109   4.663   1.096  2.0269 -1.2216 -1.0312
  257TIP3    H2  736   5.139   4.761   1.208 -1.9385 -1.3028  0.2355
  258TIP3   OH2  737   4.247   2.035   4.789 -0.5610 -0.4460 -0.5245
  258TIP3    H1  738   4.176   2.077   4.837 -2.2453 -0.2336 -3.0134
  258TIP3    H2  739   4.287   2.105   4.737  0.3446 -0.8928 -0.4597
  259TIP3   OH2  740   2.291   5.608   4.963 -0.2079 -0.3057 -0.2567
  259TIP3    H1  741   2.209   5.622   5.011  0.1490 -0.2881  0.3628
  259TIP3    H2  742   2.264   5.568   4.880 -0.7309 -2.1238  0.7257
  260TIP3   OH2  743   2.236   4.288   0.389  0.3811 -0.6535 -0.8551
  260TIP3    H1  744   2.222   4.205   0.342 -0.7063  0.2048 -2.1260
  260TIP3    H2  745   2.326   4.282   0.421  0.1243 -2.5739 -0.3845
  261TIP3   OH2  746   6.882   2.660   2.894 -0.3050  0.3263 -0.2697
  261TIP3    H1  747   6.864   2.753   2.883 -1.1801  0.3416  1.1067
  261TIP3    H2  748   6.796   2.618   2.892  0.0624 -0.4414 -0.6622
  262TIP3   OH2  749   3.585   3.856   0.788 -0.2235 -0.2612 -0.5722
  262TIP3    H1  750   3.598   3.951   0.785  0.5041 -0.3626 -0.7021
  262TIP3    H2  751   3.495   3.846   0.821  0.0027  0.4534  0.3179
  263TIP3   OH2  752   0.643   1.681   4.386 -0.3549 -0.2237  0.0629
  263TIP3    H1  753   0.713   1.731   4.345 -0.9851  0.2136 -0.4953
  263TIP3    H2  754   0.688   1.618   4.442  0.4689  0.4250  0.1450
  264TIP3   OH2  755   2.629   3.798   0.501 -0.0516  0.6745  0.0172
  264TIP3    H1  756   2.646   3.704   0.496  1.7082  0.9704 -0.1196
  264TIP3    H2  757   2.577   3.809   0.581  0.4715 -0.3160  0.5026
  265TIP3   OH2  758   3.902   3.805   0.098 -0.4818 -0.6573  0.3530
  265TIP3    H1  759   3.995   3.790   0.080 -0.4127 -0.3249  0.4165
  265TIP3    H2  760   3.881   3.741   0.167 -0.4289 -1.0700 -0.0107
  266TIP3   OH2  761   6.970   3.889   0.235  0.1130 -0.4045  0.5981
  266TIP3    H1  762   6.949   3.811   0.184  0.4019 -0.2423  0.2271
  266TIP3    H2  763   6.976   3.959   0.171  0.5395 -0.2100  0.8471
  267TIP3   OH2  764   5.818   3.523   0.909 -0.1261 -0.2911 -0.1614
  267TIP3    H1  765   5.809   3.529   1.004 -2.4309 -1.0312 -0.2832
  267TIP3    H2  766   5.878   3.594   0.886 -1.0886  1.1753  1.6244
  268TIP3   OH2  767   3.457   1.537   4.782 -0.0876  0.3423 -0.1245
  268TIP3    H1  768   3.469   1.618   4.733 -1.4968  0.5293 -0.2073
  268TIP3    H2  769   3.545   1.513   4.811  0.1825  2.7990  1.3595
  269TIP3   OH2  770   4.077   4.420   2.521  0.6675 -0.4021  0.3247
  269TIP3    H1  771   4.082   4.516   2.517  1.0253 -0.4017  0.7225
  269TIP3    H2  772   4.016   4.397   2.450  0.1915  0.1491  0.5367
  270TIP3   OH2  773   3.200   6.153   2.914 -0.4392 -0.0451 -0.1776
  270TIP3    H1  774   3.172   6.232   2.960 -0.3928  1.3464 -2.3573
  270TIP3    H2  775   3.205   6.180   2.822  1.0911 -2.1985 -0.8015
  271TIP3   OH2  776   3.805   1.952   4.215  0.0876  0.3808 -0.1493
  271TIP3    H1  777   3.878   1.892   4.233 -0.6137 -1.0450 -1.7934
  271TIP3    H2  778   3.771   1.923   4.130 -0.6198  2.8146 -0.7598
  272TIP3   OH2  779   5.775   6.462   1.525  0.3112 -0.1452  0.1529
  272TIP3    H1  780   5.731   6.547   1.524 -0.4637 -0.5137 -1.9707
  272TIP3    H2  781   5.863   6.481   1.559 -0.1637  1.3062  0.6484
  273TIP3   OH2  782   6.949   0.395   0.070 -0.7557 -0.0657 -0.1980
  273TIP3    H1  783   6.886   0.323   0.078 -0.1801 -0.5319  0.2310
  273TIP3    H2  784   6.905   0.470   0.109 -0.9148 -0.4798  0.4361
  274TIP3   OH2  785   3.293   0.922   3.442  0.2253  0.1725  0.0329
  274TIP3    H1  786   3.207   0.950   3.414  0.0399 -0.1624  0.2567
  274TIP3    H2  787   3.276   0.849   3.502  0.6474  0.3284  0.3476
  275TIP3   OH2  788   3.295   4.249   5.178 -0.4682 -0.0708  0.7339
  275TIP3    H1  789   3.386   4.250   5.147 -0.2001  0.1529  1.5122
  275TIP3    H2  790   3.244   4.223   5.101  0.1049  1.2053 -0.1138
  276TIP3   OH2  791   3.906   0.823   4.138  0.0269  0.8612  0.2304
  276TIP3    H1  792   3.957   0.898   4.107 -0.0769  1.0578  0.5261
  276TIP3    H2  793   3.864   0.789   4.060  2.5770 -0.8716 -0.5150
  277TIP3   OH2  794   6.713   2.289   4.493  0.0140  0.0344 -0.4177
  277TIP3    H1  795   6.632   2.338   4.503  0.3384  0.2947  1.1352
  277TIP3    H2  796   6.685   2.203   4.460 -1.0416 -0.3312  1.3325
  278TIP3   OH2  797   6.389   0.088   1.136 -0.0620 -0.0476  0.3948
  278TIP3    H1  798   6.348   0.167   1.104  0.7333  0.8996  1.6157
  278TIP3    H2  799   6.483   0.101   1.120  0.2595  0.0415  2.1397
  279TIP3   OH2  800   1.566   4.632   5.326  0.4025 -0.0028  0.0068
  279TIP3    H1  801   1.541   4.658   5.414 -2.2177  0.5892 -0.8144
  279TIP3    H2  802   1.623   4.703   5.295  0.3854  0.3645  0.8056
  280TIP3   OH2  803   6.418   4.994   1.616 -0.3812  0.0561 -0.1975
  280TIP3    H1  804   6.494   5.051   1.624  0.1424 -0.4941 -1.1610
  280TIP3    H2  805   6.423   4.937   1.693  0.1429  0.0777 -0.2107
  281TIP3   OH2  806   0.285   6.245   2.391 -0.3422 -0.2178 -0.1866
  281TIP3    H1  807   0.250   6.333   2.375  0.7876 -0.1271 -2.6100
  281TIP3    H2  808   0.221   6.187   2.351 -0.5077 -0.4470  0.3972
  282TIP3   OH2  809   5.038   4.499   4.658 -0.5100  0.5317  0.4211
  282TIP3    H1  810   4.971   4.553   4.614 -0.1700  1.4171  0.9640
  282TIP3    H2  811   5.039   4.532   4.748  1.6030  1.4782  0.1006
  283TIP3   OH2  812   4.836   5.127   1.914  0.1365  0.4894  0.2104
  283TIP3    H1  813   4.888   5.149   1.992  2.1375 -2.3474 -0.1651
  283TIP3    H2  814   4.899   5.130   1.842 -1.0912  0.4746 -0.8975
  284TIP3   OH2  815   4.764   1.651   2.776  0.3843  0.3209  0.2537
  284TIP3    H1  816   4.839   1.683   2.825  1.0565  0.1252 -0.6336
  284TIP3    H2  817   4.710   1.606   2.841 -0.8174  3.4820  1.6737
  285TIP3   OH2  818   3.154   0.093   4.752 -0.7831 -0.2880 -0.7110
  285TIP3    H1  819   3.083   0.105   4.815 -2.1669 -2.0843 -1.8204
  285TIP3    H2  820   3.119   0.128   4.670 -0.3547 -1.0429 -1.2324
  286TIP3   OH2  821   6.303   0.077   2.538 -0.0078  0.2395  0.1634
  286TIP3    H1  822   6.272   0.022   2.466  1.2381  1.1644 -1.1479
  286TIP3    H2  823   6.353   0.147   2.494  1.7400  0.2013  1.9887
  287TIP3   OH2  824   4.811   0.947   3.766  0.1838 -0.0533 -0.3342
  287TIP3    H1  825   4.765   0.923   3.847  0.1968 -1.0732 -0.6084
  287TIP3    H2  826   4.752   0.917   3.696 -1.1739  3.3289 -0.7897
  288TIP3   OH2  827   2.002   4.902   4.700 -0.3213  0.4916  0.7583
  288TIP3    H1  828   2.058   4.839   4.745 -0.1729 -0.3705 -0.5975
  288TIP3    H2  829   1.956   4.947   4.771  0.1136 -0.6235  1.7859
  289TIP3   OH2  830   5.284   6.048   2.246  0.2214  0.1466 -0.0314
  289TIP3    H1  831   5.297   6.112   2.317  0.5819  0.8896 -0.7560
  289TIP3    H2  832   5.244   5.973   2.289 -1.3414  1.3185  0.6401
  290TIP3   OH2  833   2.668   6.273   4.211  0.3490  0.3407  0.3776
  290TIP3    H1  834   2.606   6.281   4.283  0.1664 -1.8197  0.5257
  290TIP3    H2  835   2.626   6.315   4.137 -1.0252 -0.4997  0.6508
  291TIP3   OH2  836   2.161   4.937   3.911  0.2975 -0.3257 -0.5560
  291TIP3    H1  837   2.204   4.985   3.983 -0.6521 -0.5584  0.1900
  291TIP3    H2  838   2.077   4.982   3.900  1.5401  1.5665 -3.5137
  292TIP3   OH2  839   4.628   5.531   2.191 -0.0789  0.0057 -0.4016
  292TIP3    H1  840   4.566   5.492   2.253 -0.4706  0.7591 -0.3075
  292TIP3    H2  841   4.660   5.609   2.236  0.0894  0.2294 -0.9068
  293TIP3   OH2  842   5.450   0.629   3.952 -0.7005  0.4933 -0.1440
  293TIP3    H1  843   5.405   0.675   3.881 -1.3486  0.4739  0.2421
  293TIP3    H2  844   5.423   0.675   4.032 -0.6164  0.0262  0.1609
  294TIP3   OH2  845   2.701   1.320   4.636  0.0457 -0.5666  0.0040
  294TIP3    H1  846   2.790   1.286   4.630 -0.4587 -2.4444  1.8672
  294TIP3    H2  847   2.698   1.392   4.573  2.5669 -1.0811 -0.8073
  295TIP3   OH2  848   2.066   0.580   0.666  0.0421  0.0352 -0.4946
  295TIP3    H1  849   2.078   0.485   0.668 -2.8100 -0.3778  0.8570
  295TIP3    H2  850   2.143   0.615   0.710 -0.4858 -1.9172  2.1801
  296TIP3   OH2  851   5.068   0.567   5.734 -0.0999 -0.0545  0.0168
  296TIP3    H1  852   5.065   0.556   5.829  0.3436  1.7203  0.2757
  296TIP3    H2  853   5.136   0.507   5.704  1.9574  1.5462  1.2386
  297TIP3   OH2  854   2.092   0.951   4.203  0.0845  0.8400  0.2767
  297TIP3    H1  855   2.085   1.042   4.231 -2.0760  1.0721 -0.8045
  297TIP3    H2  856   2.010   0.933   4.158 -0.7572 -2.4462  2.6949
  298TIP3   OH2  857   4.409   5.592   4.962  0.9175 -0.1138  0.5035
  298TIP3    H1  858   4.395   5.680   4.996 -0.3061 -0.2537  0.4042
  298TIP3    H2  859   4.322   5.552   4.961  1.1955 -0.7609 -0.9942
  299TIP3   OH2  860   3.777   4.230   1.913 -0.0835  0.4517 -0.0140
  299TIP3    H1  861   3.830   4.307   1.894  0.6563 -0.0720 -0.0988
  299TIP3    H2  862   3.829   4.179   1.974 -1.1626  0.6693  1.1342
  300TIP3   OH2  863   4.519   2.090   0.862  0.7388 -0.0555  0.1958
  300TIP3    H1  864   4.599   2.139   0.879  1.6939 -0.6109 -2.2555
  300TIP3    H2  865   4.546   1.998   0.867  0.3698 -0.2430 -1.0255
  301TIP3   OH2  866   0.746   2.955   1.083  0.0623  0.1143 -0.2575
  301TIP3    H1  867   0.688   2.945   1.007 -1.5971 -1.1195  1.0652
  301TIP3    H2  868   0.786   2.869   1.095  1.2511  0.6251 -0.4216
  302TIP3   OH2  869   1.817   4.807   5.707 -0.2690 -0.0358 -0.4679
  302TIP3    H1  870   1.810   4.717   5.674 -0.7339 -0.1581 -0.0499
  302TIP3    H2  871   1.811   4.798   5.802 -3.4648  0.6687 -0.5062
  303TIP3   OH2  872   1.001   1.163   3.597  0.2774  0.2290 -0.2900
  303TIP3    H1  873   1.051   1.090   3.633  1.5976  0.4948 -1.5176
  303TIP3    H2  874   0.917   1.125   3.573  0.4195 -0.5651  0.4246
  304TIP3   OH2  875   6.953   5.245   5.243 -0.5387 -0.0850  0.5644
  304TIP3    H1  876   6.928   5.169   5.190  0.5852 -0.5823  0.7195
  304TIP3    H2  877   6.872   5.270   5.288 -1.1258 -0.6556 -0.1469
  305TIP3   OH2  878   6.120   5.532   3.221 -0.0788 -0.4883 -0.0268
  305TIP3    H1  879   6.027   5.512   3.230 -0.3672  0.3515 -1.0234
  305TIP3    H2  880   6.123   5.607   3.162  1.0946  1.0782  1.8888
  306TIP3   OH2  881   1.423   5.509   4.409 -0.3631  0.1643  0.4037
  306TIP3    H1  882   1.490   5.495   4.476 -0.0553 -0.2215  0.0202
  306TIP3    H2  883   1.360   5.568   4.450  1.3608  2.4058  0.0062
  307TIP3   OH2  884   4.004   2.586   3.892 -0.0176  0.2870 -0.1355
  307TIP3    H1  885   4.020   2.642   3.968 -1.0966 -1.6422  1.6164
  307TIP3    H2  886   3.969   2.505   3.929 -3.1097  0.1815 -2.8783
  308TIP3   OH2  887   0.241   4.300   5.372 -0.0529  0.3217 -0.9969
  308TIP3    H1  888   0.171   4.307   5.437 -2.0678  0.0574 -3.0183
  308TIP3    H2  889   0.283   4.216   5.391 -0.4561  0.3438  0.0640
  309TIP3   OH2  890   1.565   0.344   1.011  0.3258  0.4665  0.3867
  309TIP3    H1  891   1.635   0.395   0.969  0.2587 -1.5038 -2.3524
  309TIP3    H2  892   1.488   0.360   0.956 -0.4761 -0.1880  1.2922
  310TIP3   OH2  893   3.118   0.475   4.863  0.3304  0.4548  0.2404
  310TIP3    H1  894   3.150   0.410   4.926  0.5334  1.5826  1.3534
  310TIP3    H2  895   3.027   0.489   4.887 -0.5366 -1.3078 -1.6856
  311TIP3   OH2  896   6.815   6.610   2.569  0.2303  0.0891  0.0775
  311TIP3    H1  897   6.789   6.642   2.483 -0.8463 -0.5861  0.1257
  311TIP3    H2  898   6.794   6.682   2.629  0.5188  0.3692 -0.1511
  312TIP3   OH2  899   0.631   5.546   2.532 -0.4462  0.1389 -0.1154
  312TIP3    H1  900   0.599   5.465   2.573 -0.3985  0.1067 -0.1422
  312TIP3    H2  901   0.720   5.556   2.566 -0.7989  0.7036  0.6580
  313TIP3   OH2  902   0.236   2.847   0.506 -0.4563  0.5725 -0.3562
  313TIP3    H1  903   0.200   2.887   0.427 -0.7090  2.2685  0.5777
  313TIP3    H2  904   0.253   2.756   0.481 -0.6257  1.0372 -2.3138
  314TIP3   OH2  905   2.694   3.432   0.328  0.0895  0.4634  0.7902
  314TIP3    H1  906   2.629   3.437   0.398  0.5549 -0.0566  1.2629
  314TIP3    H2  907   2.686   3.342   0.295  0.3812  0.4803  0.6728
  315TIP3   OH2  908   0.089   4.507   2.159 -0.2120  0.5146 -0.1308
  315TIP3    H1  909   0.111   4.556   2.080  0.3522 -0.2689 -0.4815
  315TIP3    H2  910   0.026   4.561   2.205  0.6348  1.7186 -0.3376
  316TIP3   OH2  911   3.360   4.924   0.919  0.2447 -0.0174  0.4164
  316TIP3    H1  912   3.278   4.883   0.947 -0.2734  0.8590  0.2167
  316TIP3    H2  913   3.376   4.887   0.833  0.8655 -1.3219  1.0564
  317TIP3   OH2  914   0.160   1.207   4.061 -0.2327  0.1105  0.6685
  317TIP3    H1  915   0.117   1.122   4.058  0.1269 -0.0506 -0.5447
  317TIP3    H2  916   0.155   1.241   3.971  0.7638  0.7797  0.8358
  318TIP3   OH2  917   6.560   4.334   5.323  0.1688  0.5777  0.0854
  318TIP3    H1  918   6.493   4.265   5.326  1.9011 -1.3181 -1.8267
  318TIP3    H2  919   6.545   4.378   5.240  0.9360  0.4868 -0.1086
  319TIP3   OH2  920   5.924   0.875   0.761 -0.2059  0.8872  0.0607
  319TIP3    H1  921   5.903   0.825   0.682 -0.7730  0.1706  0.6561
  319TIP3    H2  922   5.839   0.891   0.803  0.2675 -2.2032  2.6039
  320TIP3   OH2  923   5.884   3.986   1.464 -0.4259  0.4074  0.2440
  320TIP3    H1  924   5.852   4.024   1.382 -0.5062 -0.2261 -0.0237
  320TIP3    H2  925   5.979   4.000   1.462 -0.6479  2.2634  1.0260
  321TIP3   OH2  926   3.522   4.852   1.564 -0.4365  0.1559 -0.1051
  321TIP3    H1  927   3.571   4.781   1.605 -1.4489 -0.2083  0.5201
  321TIP3    H2  928   3.577   4.881   1.491  0.8399 -0.0030  0.7656
  322TIP3   OH2  929   2.631   4.232   4.951  0.0661  0.0341 -0.1476
  322TIP3    H1  930   2.666   4.277   5.027 -1.5960  0.8130  0.2046
  322TIP3    H2  931   2.566   4.172   4.986  0.3089 -0.6646 -0.8495
  323TIP3   OH2  932   0.465   1.070   2.049 -0.3851  0.5104  0.1005
  323TIP3    H1  933   0.462   1.153   2.097 -2.5056  0.4880  0.0822
  323TIP3    H2  934   0.481   1.004   2.116  1.8846  0.9282  0.0471
  324TIP3   OH2  935   6.746   1.924   1.792 -0.3027  0.0942  0.6566
  324TIP3    H1  936   6.832   1.967   1.782 -0.1305 -0.3562  0.1498
  324TIP3    H2  937   6.745   1.895   1.883  0.6728 -1.0899  0.3372
  325TIP3   OH2  938   2.638   5.399   3.082  1.0884  0.1708 -0.0364
  325TIP3    H1  939   2.582   5.339   3.131 -0.1388  0.8022 -0.6079
  325TIP3    H2  940   2.650   5.358   2.997  0.7994  0.4037 -0.1951
  326TIP3   OH2  941   6.963   4.285   3.921 -0.1463  0.6436  0.1464
  326TIP3    H1  942   6.932   4.212   3.868  1.6865  0.0882 -0.2102
  326TIP3    H2  943   6.884   4.317   3.965 -1.1933 -0.7706 -0.6090
  327TIP3   OH2  944   1.936   3.966   2.761  0.1445  0.0140  0.7911
  327TIP3    H1  945   2.023   3.934   2.785  0.1460 -0.8195 -0.2755
  327TIP3    H2  946   1.944   4.062   2.766  1.3104 -0.0283  0.1131
  328TIP3   OH2  947   2.603   1.497   4.015 -0.1833 -0.1692 -0.6246
  328TIP3    H1  948   2.688   1.538   4.032  0.3378  0.4293 -3.8549
  328TIP3    H2  949   2.615   1.453   3.930 -2.9167 -0.6553 -0.8430
  329TIP3   OH2  950   0.170   6.079   1.328  0.1576 -0.0710  0.3169
  329TIP3    H1  951   0.174   6.103   1.235  0.9705  1.9368  0.8284
  329TIP3    H2  952   0.259   6.088   1.359  0.0556 -1.6038  1.1271
  330TIP3   OH2  953   5.171   0.420   1.955  0.3052  0.5695 -0.5893
  330TIP3    H1  954   5.093   0.475   1.939  1.0562  1.9205  0.2049
  330TIP3    H2  955   5.146   0.364   2.028 -0.0125  0.8374 -0.4862
  331TIP3   OH2  956   4.439   1.061   1.992  0.2220  0.1842 -0.3879
  331TIP3    H1  957   4.362   1.066   2.049 -0.0503  1.1019 -0.8123
  331TIP3    H2  958   4.510   1.097   2.045  0.1048  0.4303 -0.3927
  332TIP3   OH2  959   4.530   2.380   3.729 -0.0042  0.0834  0.4596
  332TIP3    H1  960   4.457   2.336   3.684 -0.2562  1.8750 -1.0163
  332TIP3    H2  961   4.606   2.361   3.674  0.4047 -0.6277  1.2461
  333TIP3   OH2  962   4.814   6.461   1.558  0.1339 -0.7048 -0.3790
  333TIP3    H1  963   4.840   6.453   1.650 -1.8245  1.0593  0.4158
  333TIP3    H2  964   4.754   6.388   1.544 -0.2138 -0.4991  0.0128
  334TIP3   OH2  965   4.502   2.080   1.771  0.4432 -0.0101 -0.0531
  334TIP3    H1  966   4.502   2.023   1.848  1.8572 -1.5684 -1.1368
  334TIP3    H2  967   4.585   2.127   1.776  0.6863 -0.3578 -0.7870
  335TIP3   OH2  968   3.196   1.748   5.849  0.2075 -0.3651  0.3695
  335TIP3    H1  969   3.276   1.699   5.835  0.2330 -0.0854 -0.4742
  335TIP3    H2  970   3.221   1.818   5.909  0.3323 -0.9261  0.9936
  336TIP3   OH2  971   0.429   6.136   4.265  0.1999  0.1864 -0.1903
  336TIP3    H1  972   0.496   6.188   4.220  0.9901  0.2822  1.0435
  336TIP3    H2  973   0.372   6.202   4.305 -0.0462  0.1012 -0.4014
  337TIP3   OH2  974   1.819   0.301   0.771  0.0265 -0.1652 -0.6462
  337TIP3    H1  975   1.808   0.207   0.785  0.3247 -0.1120 -0.0513
  337TIP3    H2  976   1.827   0.338   0.859 -1.5439  0.6033 -0.8081
  338TIP3   OH2  977   5.146   5.928   4.650  0.2196 -0.0684 -0.2292
  338TIP3    H1  978   5.065   5.929   4.701 -0.8207 -0.1113 -1.8069
  338TIP3    H2  979   5.195   5.853   4.684 -0.9884 -0.8183 -0.0951
  339TIP3   OH2  980   4.599   2.183   0.229 -0.3234 -0.2640 -0.5754
  339TIP3    H1  981   4.534   2.217   0.168 -1.3343 -0.3337  0.4432
  339TIP3    H2  982   4.654   2.258   0.251 -0.8836  0.1020 -0.4181
  340TIP3   OH2  983   6.011   1.809   1.124 -0.0628 -0.2417 -0.3036
  340TIP3    H1  984   5.932   1.755   1.128  0.8589 -1.6498 -0.3553
  340TIP3    H2  985   6.068   1.773   1.192  2.2822 -2.2100 -3.0768
  341TIP3   OH2  986   3.739   6.765   3.411  0.2710 -0.3502  0.1007
  341TIP3    H1  987   3.662   6.777   3.467 -1.1446 -3.0203 -1.0600
  341TIP3    H2  988   3.811   6.749   3.472  0.0371  2.3360  1.2268
  342TIP3   OH2  989   1.850   2.007   1.325 -0.0348  0.5832 -0.2730
  342TIP3    H1  990   1.946   2.009   1.317  0.1546  0.1273  1.3237
  342TIP3    H2  991   1.818   2.063   1.255  1.3238 -0.5709 -1.8762
  343TIP3   OH2  992   3.845   0.472   2.408 -0.0536 -0.0012 -0.3392
  343TIP3    H1  993   3.751   0.486   2.402 -0.0074  0.2349 -0.5546
  343TIP3    H2  994   3.860   0.389   2.362 -0.0780  0.2865 -0.8722
  344TIP3   OH2  995   0.200   6.733   2.346 -0.6919  0.6481 -0.6333
  344TIP3    H1  996   0.230   6.815   2.307 -0.9485  0.4182 -1.3254
  344TIP3    H2  997   0.257   6.720   2.422 -1.5205  2.1545  0.2974
  345TIP3   OH2  998   0.490   2.692   5.040 -0.0691 -0.4714  0.1572
  345TIP3    H1  999   0.532   2.777   5.030 -1.1772  0.1395  0.5128
  345TIP3    H2 1000   0.409   2.711   5.086 -0.9745 -1.5484 -0.9305
  346TIP3   OH2 1001   4.416   6.177   3.014  0.2244 -0.5974  0.1556
  346TIP3    H1 1002   4.358   6.251   3.031  0.4525 -0.4307  0.2143
  346TIP3    H2 1003   4.490   6.190   3.073  0.1478 -1.0090  0.3465
  347TIP3   OH2 1004   0.319   6.013   1.911  0.7718 -0.2797 -0.0918
  347TIP3    H1 1005   0.346   5.993   2.000 -1.3161 -1.4426  0.3273
  347TIP3    H2 1006   0.385   6.076   1.880  1.1843  0.6545  2.4475
  348TIP3   OH2 1007   5.651   4.393   0.726 -0.0181  0.3144  0.0400
  348TIP3    H1 1008   5.583   4.326   0.720 -0.5661  0.4739  2.8736
  348TIP3    H2 1009   5.608   4.467   0.769  0.7724  2.2704 -2.3326
  349TIP3   OH2 1010   1.087   4.977   1.240 -0.3169 -0.1246 -0.3584
  349TIP3    H1 1011   1.165   4.922   1.238 -0.4269 -0.2782 -0.3650
  349TIP3    H2 1012   1.016   4.918   1.264 -0.0652  0.4213  2.0198
  350TIP3   OH2 1013   3.420   4.404   0.173  0.5671 -0.5599  0.2001
  350TIP3    H1 1014   3.361   4.333   0.195 -0.2033  0.7946  2.8480
  350TIP3    H2 1015   3.447   4.386   0.083 -1.4170 -2.8925 -0.0056
  351TIP3   OH2 1016   4.615   4.927   4.691 -0.5837 -0.1152 -0.0949
  351TIP3    H1 1017   4.602   5.009   4.644  1.1558  0.1917 -0.1202
  351TIP3    H2 1018   4.684   4.882   4.642  1.1994  0.1615  2.0023
  352TIP3   OH2 1019   2.728   6.024   4.511  0.2218 -0.2322 -0.0804
  352TIP3    H1 1020   2.674   5.984   4.443 -0.0704  1.1015 -0.6640
  352TIP3    H2 1021   2.672   6.094   4.547  0.1624 -1.2275  1.9053
  353TIP3   OH2 1022   2.418   2.108   5.585  0.2185  0.3943  0.5422
  353TIP3    H1 1023   2.381   2.085   5.501  0.1392 -1.0299  0.9480
  353TIP3    H2 1024   2.458   2.194   5.571 -1.1563  0.8860 -0.5136
  354TIP3   OH2 1025   5.998   6.534   5.682 -0.0265 -0.7565 -0.1927
  354TIP3    H1 1026   6.057   6.590   5.733 -0.0227  0.6620 -1.6671
  354TIP3    H2 1027   6.052   6.503   5.609 -1.0013  0.3928 -1.4460
  355TIP3   OH2 1028   4.925   3.885   3.241  0.0011  0.0715 -0.1271
  355TIP3    H1 1029   4.997   3.841   3.285  1.0571  0.8090 -1.0514
  355TIP3    H2 1030   4.949   3.978   3.241 -2.4012  0.8301  2.2505
  356TIP3   OH2 1031   1.089   5.366   3.769  0.3348  0.2721  0.2553
  356TIP3    H1 1032   1.073   5.454   3.735  1.4345  1.0084  1.5436
  356TIP3    H2 1033   1.028   5.357   3.842  0.2117 -0.0499  0.1135
  357TIP3   OH2 1034   1.250   3.487   3.821 -0.5371 -0.5318  0.8654
  357TIP3    H1 1035   1.174   3.543   3.805  0.0581 -0.2089 -1.1408
  357TIP3    H2 1036   1.229   3.404   3.778  0.6674 -0.0426 -0.7876
  358TIP3   OH2 1037   3.420   5.501   0.152 -0.3237 -0.1298 -0.0042
  358TIP3    H1 1038   3.400   5.539   0.238 -0.1355  0.7568 -0.3480
  358TIP3    H2 1039   3.357   5.542   0.092  0.2390  0.0599 -0.4765
  359TIP3   OH2 1040   3.710   1.428   4.529  0.4502  0.0565  0.0540
  359TIP3    H1 1041   3.759   1.362   4.578 -1.6850 -2.0144 -0.3809
  359TIP3    H2 1042   3.718   1.400   4.438 -0.7937  0.1403 -0.0947
  360TIP3   OH2 1043   0.324   0.026   4.248 -0.6102 -0.0038 -0.3256
  360TIP3    H1 1044   0.249   0.043   4.305 -0.3880 -1.2820  0.3951
  360TIP3    H2 1045   0.399   0.061   4.297 -0.7356  1.4168 -1.1165
  361TIP3   OH2 1046   3.782   4.081   1.677  0.0371 -0.3151 -0.5336
  361TIP3    H1 1047   3.688   4.066   1.684  0.0348 -0.3935 -0.7545
  361TIP3    H2 1048   3.801   4.146   1.745  0.0313 -1.2167  0.3619
  362TIP3   OH2 1049   3.923   2.986   4.703 -0.3426  0.3150 -0.2697
  362TIP3    H1 1050   3.986   2.986   4.631 -1.3007  1.1648 -1.1473
  362TIP3    H2 1051   3.974   2.959   4.779  0.7969 -0.2030 -1.1762
  363TIP3   OH2 1052   3.446   5.596   2.015  0.2124  0.1675 -0.7572
  363TIP3    H1 1053   3.463   5.690   2.017  4.9016 -0.4552  0.7561
  363TIP3    H2 1054   3.429   5.572   2.106  0.1541 -0.5589 -0.9529
  364TIP3   OH2 1055   4.593   6.194   4.019 -0.0735  0.2537 -0.3767
  364TIP3    H1 1056   4.635   6.185   3.933  1.9771  0.1371  0.5723
  364TIP3    H2 1057   4.576   6.288   4.028 -0.0869  0.2954 -0.8189
  365TIP3   OH2 1058   2.392   3.160   0.524 -0.0357 -0.0664 -0.2405
  365TIP3    H1 1059   2.391   3.076   0.478 -1.0916 -0.8698  1.1821
  365TIP3    H2 1060   2.304   3.169   0.559  0.0506  1.6686 -0.3702
  366TIP3   OH2 1061   5.394   3.149   3.666 -0.0326 -0.2308 -0.4040
  366TIP3    H1 1062   5.480   3.150   3.708 -0.0658  0.0719 -0.3429
  366TIP3    H2 1063   5.413   3.138   3.573 -0.0289 -3.5112 -0.1326
  367TIP3   OH2 1064   6.085   6.184   3.228  0.0739 -0.2029 -0.7012
  367TIP3    H1 1065   6.111   6.195   3.136  2.5229  0.2932 -0.0140
  367TIP3    H2 1066   6.071   6.089   3.237 -0.7043 -0.1942 -1.6988
  368TIP3   OH2 1067   4.311   6.729   1.088 -0.3010  0.0723  0.7502
  368TIP3    H1 1068   4.280   6.815   1.060  1.2794  0.5243  0.3091
  368TIP3    H2 1069   4.317   6.679   1.007  1.7359  0.5505  0.5494
  369TIP3   OH2 1070   2.355   2.516   5.221  0.5632 -0.7013 -0.2483
  369TIP3    H1 1071   2.304   2.527   5.300  0.5655  1.7608 -0.5029
  369TIP3    H2 1072   2.319   2.438   5.179 -3.0668  0.8591 -0.4184
  370TIP3   OH2 1073   7.178   3.396   3.633  0.0632  0.5170 -0.1425
  370TIP3    H1 1074   7.149   3.305   3.625 -2.7400  1.3030 -0.2016
  370TIP3    H2 1075   7.157   3.419   3.723  1.5002  0.9066  0.1086
  371TIP3   OH2 1076   1.172   3.887   2.320 -0.3212  0.3797 -0.5628
  371TIP3    H1 1077   1.175   3.810   2.263  1.3292 -0.9780  1.2115
  371TIP3    H2 1078   1.252   3.935   2.299 -0.2161  0.4052 -0.1227
  372TIP3   OH2 1079   0.949   4.153   0.921 -0.0760  0.2867  0.3932
  372TIP3    H1 1080   1.031   4.130   0.966 -0.9495 -0.1475  1.8397
  372TIP3    H2 1081   0.972   4.228   0.866  1.8448 -1.3077 -1.1224
  373TIP3   OH2 1082   0.980   5.830   4.159  0.0829 -0.0044  0.3632
  373TIP3    H1 1083   1.009   5.741   4.177 -1.7902 -0.9051 -0.6773
  373TIP3    H2 1084   0.991   5.877   4.242 -0.2791 -1.6133  1.3628
  374TIP3   OH2 1085   3.616   0.093   4.676  0.8040 -0.2514  0.2813
  374TIP3    H1 1086   3.626   0.078   4.770 -1.0625 -0.2680  0.5197
  374TIP3    H2 1087   3.669   0.171   4.659 -0.2196  0.8431  1.7458
  375TIP3   OH2 1088   0.735   0.829   1.943  0.0802 -0.1534  0.1437
  375TIP3    H1 1089   0.650   0.870   1.931  0.0100 -0.9499 -2.7317
  375TIP3    H2 1090   0.715   0.738   1.966  0.1450 -0.2843 -0.3089
  376TIP3   OH2 1091   5.242   5.627   5.352  0.6184  0.2883  0.7174
  376TIP3    H1 1092   5.216   5.562   5.418  2.5764 -0.4614  0.8093
  376TIP3    H2 1093   5.159   5.656   5.313 -0.3675 -2.2682  0.6894
  377TIP3   OH2 1094   0.872   3.695   2.872 -0.0064 -0.2240  0.2203
  377TIP3    H1 1095   0.908   3.775   2.835  0.0306 -1.0240 -1.5960
  377TIP3    H2 1096   0.936   3.667   2.937  1.6667 -0.4938 -1.4523
  378TIP3   OH2 1097   5.093   3.144   4.192  0.0332 -0.2313 -0.5870
  378TIP3    H1 1098   5.113   3.192   4.112 -1.5766  0.5811 -0.5388
  378TIP3    H2 1099   5.178   3.118   4.226  0.7644 -0.4351 -2.4528
  379TIP3   OH2 1100   2.524   6.698   0.760 -0.2436  0.2283  0.0020
  379TIP3    H1 1101   2.556   6.647   0.685  2.2099  1.6666 -0.0188
  379TIP3    H2 1102   2.541   6.789   0.736 -2.3196  0.9678  1.0516
  380TIP3   OH2 1103   1.253   2.539   4.473 -0.3146  0.3301 -0.8168
  380TIP3    H1 1104   1.346   2.560   4.485 -0.6336  0.9925  0.8050
  380TIP3    H2 1105   1.251   2.443   4.464  0.3847  0.0667  1.2722
  381TIP3   OH2 1106   0.524   1.564   4.833  0.3201  0.3646 -0.7552
  381TIP3    H1 1107   0.570   1.488   4.868  0.8334  0.1299 -1.8917
  381TIP3    H2 1108   0.487   1.534   4.750  0.4555  1.3187 -1.1751
  382TIP3   OH2 1109   4.371   5.448   3.134  0.3389  0.4557 -0.3601
  382TIP3    H1 1110   4.318   5.526   3.150 -0.1143 -0.2820  2.3111
  382TIP3    H2 1111   4.452   5.481   3.096 -0.8676  1.8991 -1.8563
  383TIP3   OH2 1112   6.172   2.519   2.803 -0.2172  0.1789  0.0222
  383TIP3    H1 1113   6.169   2.606   2.763  1.5393 -0.5963 -1.9662
  383TIP3    H2 1114   6.264   2.507   2.827  0.0892 -2.0161 -1.9247
  384TIP3   OH2 1115   1.056   3.661   4.889 -0.3863  0.2676  0.1992
  384TIP3    H1 1116   1.049   3.588   4.828  0.1302  0.4632 -0.1017
  384TIP3    H2 1117   0.973   3.707   4.881 -0.4603  0.0859 -0.0903
  385TIP3   OH2 1118   0.013   6.531   3.991  0.3486  0.0175  0.2295
  385TIP3    H1 1119  -0.072   6.487   3.985 -0.1157  0.5959  2.0428
  385TIP3    H2 1120   0.073   6.472   3.946 -0.7596 -1.0914  0.1319
  386TIP3   OH2 1121   6.654   4.564   3.922 -0.4004  0.3930  0.1162
  386TIP3    H1 1122   6.688   4.638   3.973  1.5971  0.0135 -0.5685
  386TIP3    H2 1123   6.674   4.588   3.831  0.3120 -0.9859 -0.1084
  387TIP3   OH2 1124   6.172   1.416   0.486 -0.0766  0.4577 -0.3330
  387TIP3    H1 1125   6.123   1.433   0.406  2.0986 -0.5781 -1.9976
  387TIP3    H2 1126   6.261   1.394   0.456  1.6356  2.7408  2.5016
  388TIP3   OH2 1127   2.234   1.424   5.779  0.0893  0.2922  0.0919
  388TIP3    H1 1128   2.298   1.457   5.841  0.2286 -0.9236  0.6214
  388TIP3    H2 1129   2.149   1.446   5.818  0.1583  1.6124 -0.4534
  389TIP3   OH2 1130   6.327   5.696   3.358  0.0330 -0.0625  0.2019
  389TIP3    H1 1131   6.383   5.647   3.299 -1.4626  0.3172 -1.6253
  389TIP3    H2 1132   6.240   5.661   3.344 -0.7094  1.5293  0.5471
  390TIP3   OH2 1133   5.407   1.963   0.799  0.2177  0.0038  0.4451
  390TIP3    H1 1134   5.373   1.914   0.874 -1.3351  3.5695  2.3029
  390TIP3    H2 1135   5.467   2.027   0.837  0.8123  0.7530 -1.6012
  391TIP3   OH2 1136   2.274   4.963   4.898  0.1131  0.1523  0.2235
  391TIP3    H1 1137   2.227   4.884   4.870  2.4085 -0.9711 -0.7294
  391TIP3    H2 1138   2.304   4.944   4.987 -0.4072  0.4875  0.4756
  392TIP3   OH2 1139   2.068   6.582   3.053 -0.2109  0.6500  0.3709
  392TIP3    H1 1140   2.131   6.516   3.082  1.8366  2.9028  1.3961
  392TIP3    H2 1141   1.983   6.548   3.080  0.6004 -1.9992 -0.0817
  393TIP3   OH2 1142   3.627   4.658   5.471 -0.2467  0.4584 -0.1838
  393TIP3    H1 1143   3.612   4.623   5.383  2.0724 -1.8388  0.2324
  393TIP3    H2 1144   3.721   4.673   5.476 -0.4952  1.7579  1.5318
  394TIP3   OH2 1145  -0.023   5.235   4.572  0.0236 -0.5320  0.4957
  394TIP3    H1 1146   0.049   5.208   4.629 -0.0283  0.3916  1.0223
  394TIP3    H2 1147   0.001   5.203   4.485  0.8745 -0.5824  0.7417
  395TIP3   OH2 1148   7.192   0.244   0.535  0.7040  0.3221 -0.1183
  395TIP3    H1 1149   7.211   0.161   0.577  1.1336  1.5893  2.4035
  395TIP3    H2 1150   7.240   0.241   0.452  1.5400 -1.5112  0.3876
  396TIP3   OH2 1151   1.391   4.194   5.015 -0.0406  0.0288 -0.0773
  396TIP3    H1 1152   1.476   4.185   5.057 -0.3817  1.1091  0.8847
  396TIP3    H2 1153   1.380   4.112   4.966  0.9250 -0.7244  0.9051
  397TIP3   OH2 1154   1.783   5.691   3.754  0.9497 -0.6708 -0.2062
  397TIP3    H1 1155   1.731   5.677   3.833 -2.3401  0.3913 -1.9967
  397TIP3    H2 1156   1.775   5.608   3.706  0.4186 -0.3228 -0.7273
  398TIP3   OH2 1157   0.828   6.364   1.877 -0.3897 -0.1392 -0.4903
  398TIP3    H1 1158   0.847   6.425   1.949 -0.6850 -0.8946  0.2409
  398TIP3    H2 1159   0.851   6.413   1.798 -0.6824  0.9447  0.0766
  399TIP3   OH2 1160   6.996   6.052   2.841  0.5459  0.1884 -0.1527
  399TIP3    H1 1161   6.929   6.093   2.896 -1.5665 -1.4195 -1.3424
  399TIP3    H2 1162   7.015   6.117   2.773  1.0641  1.1037  0.8542
  400TIP3   OH2 1163   6.724   2.616   2.522 -0.0152  0.5644  0.8175
  400TIP3    H1 1164   6.767   2.645   2.442 -0.0105  1.2919  1.0792
  400TIP3    H2 1165   6.791   2.621   2.590 -0.4715  1.6488  1.2138
  401TIP3   OH2 1166   0.458   0.712   3.915 -0.6244 -0.3517 -0.5617
  401TIP3    H1 1167   0.448   0.695   4.008  1.7307 -0.9166 -0.3416
  401TIP3    H2 1168   0.440   0.628   3.873 -0.1626 -0.4989 -0.4697
  402TIP3   OH2 1169   2.686   3.433   5.845  0.1948  0.3318  0.1036
  402TIP3    H1 1170   2.652   3.345   5.831 -1.9419  1.2327 -0.7023
  402TIP3    H2 1171   2.668   3.452   5.937 -1.2786  0.6903 -0.2431
  403TIP3   OH2 1172   2.166   6.422   4.451 -0.0385  0.0175  0.2035
  403TIP3    H1 1173   2.237   6.423   4.516 -0.1255 -0.5537  0.3127
  403TIP3    H2 1174   2.152   6.514   4.430  0.6139  0.1493  0.3148
  404TIP3   OH2 1175   0.261   3.182   0.659  0.4112  0.2898  0.8364
  404TIP3    H1 1176   0.181   3.227   0.684  0.3756  1.6445 -1.4928
  404TIP3    H2 1177   0.246   3.090   0.682 -0.8294  0.8968  2.6095
  405TIP3   OH2 1178   4.312   0.792   3.917  0.0588  0.1179  0.1917
  405TIP3    H1 1179   4.344   0.872   3.876 -0.6371 -0.9397 -2.6588
  405TIP3    H2 1180   4.273   0.742   3.846 -1.2342 -1.9536  2.1889
  406TIP3   OH2 1181   2.744   3.517   5.167  0.3555  0.0150 -0.3710
  406TIP3    H1 1182   2.770   3.477   5.249 -1.1821  0.0480  0.1575
  406TIP3    H2 1183   2.658   3.480   5.148 -0.6559  2.2247 -0.4114
  407TIP3   OH2 1184   3.595   5.254   3.543  0.4012 -0.1072  0.1314
  407TIP3    H1 1185   3.544   5.295   3.612  1.7246  0.3161  0.8955
  407TIP3    H2 1186   3.645   5.325   3.504 -0.2348 -0.3549 -1.2192
  408TIP3   OH2 1187   5.116   2.572   4.425 -0.1072  0.0214 -0.5596
  408TIP3    H1 1188   5.143   2.589   4.515 -1.5529 -0.1483 -0.0697
  408TIP3    H2 1189   5.172   2.630   4.373  1.8546 -1.0101  0.2641
  409TIP3   OH2 1190   7.219   4.835   5.852  0.0258 -0.6650 -0.7074
  409TIP3    H1 1191   7.201   4.923   5.885  0.4589 -0.8616  0.0821
  409TIP3    H2 1192   7.191   4.837   5.761 -3.1899 -0.6959  0.1280
  410TIP3   OH2 1193   4.724   5.834   4.395 -0.2051 -0.0779  0.1838
  410TIP3    H1 1194   4.717   5.929   4.409 -1.2146  0.0602 -1.0471
  410TIP3    H2 1195   4.774   5.827   4.313 -2.1784 -0.5034 -1.0265
  411TIP3   OH2 1196   3.063   0.094   1.299  0.0813  0.0873 -0.0136
  411TIP3    H1 1197   2.997   0.034   1.266  0.1684 -0.4740  0.7964
  411TIP3    H2 1198   3.144   0.043   1.298  0.1646  0.1937  0.6397
  412TIP3   OH2 1199   6.932   2.737   3.777 -0.7926  0.1553  0.2164
  412TIP3    H1 1200   6.846   2.695   3.784 -0.9535  0.5599  0.6785
  412TIP3    H2 1201   6.923   2.798   3.704 -1.4496  1.4734  1.3470
  413TIP3   OH2 1202   6.535   2.867   4.229 -0.0518 -0.2731  0.0379
  413TIP3    H1 1203   6.511   2.843   4.319  0.5679  0.7420  0.5003
  413TIP3    H2 1204   6.575   2.789   4.192  1.0132 -0.2780  1.1487
  414TIP3   OH2 1205   4.781   2.505   1.960 -0.1427 -0.4667 -0.3687
  414TIP3    H1 1206   4.743   2.501   1.873  1.2157 -1.7338 -0.9542
  414TIP3    H2 1207   4.823   2.591   1.964 -0.7188 -0.1643 -0.7352
  415TIP3   OH2 1208   2.672   0.756   2.674 -0.4772  0.1152  0.3691
  415TIP3    H1 1209   2.639   0.827   2.619 -2.5185 -0.4963  0.7490
  415TIP3    H2 1210   2.709   0.800   2.750 -0.8813  0.8157  0.1676
  416TIP3   OH2 1211   6.006   2.327   1.505  0.2657 -0.2974  0.3164
  416TIP3    H1 1212   5.918   2.306   1.475  0.0143 -0.3005  1.0455
  416TIP3    H2 1213   6.061   2.317   1.427 -0.3740 -0.2894 -0.1420
  417TIP3   OH2 1214   1.692   5.501   0.047 -0.8346 -0.3280  0.0225
  417TIP3    H1 1215   1.714   5.573  -0.013 -1.3123  0.1001  0.3488
  417TIP3    H2 1216   1.763   5.438   0.036 -1.9168 -1.2152 -2.4746
  418TIP3   OH2 1217   4.514   1.366   5.247  0.1928 -0.7923 -0.3170
  418TIP3    H1 1218   4.606   1.367   5.223  0.5197 -0.2449  0.8775
  418TIP3    H2 1219   4.467   1.369   5.163  1.2497  2.3970 -0.9382
  419TIP3   OH2 1220   6.642   6.816   2.040  0.3874  0.1998 -0.2843
  419TIP3    H1 1221   6.662   6.745   1.979  0.0167 -0.3798  0.2524
  419TIP3    H2 1222   6.610   6.772   2.119  1.1485  0.9108  0.4520
  420TIP3   OH2 1223   5.783   3.282   3.517 -0.1141  0.3024 -0.2987
  420TIP3    H1 1224   5.788   3.376   3.501 -0.7708  0.6123  1.2032
  420TIP3    H2 1225   5.832   3.268   3.598 -0.0368 -0.6475 -0.4955
  421TIP3   OH2 1226   6.696   1.396   2.783  0.5378 -0.1064  0.2040
  421TIP3    H1 1227   6.669   1.328   2.845  0.3969  0.8923  1.2634
  421TIP3    H2 1228   6.660   1.367   2.698  0.6008 -1.4099  0.6042
  422TIP3   OH2 1229   5.332   3.974   3.574 -0.7967  0.2784 -0.0401
  422TIP3    H1 1230   5.327   3.888   3.533  0.6666 -0.6749  1.6335
  422TIP3    H2 1231   5.254   4.020   3.543 -0.4565 -0.8076 -2.7624
  423TIP3   OH2 1232   6.966   4.126   2.663 -0.2323  0.2393  0.1352
  423TIP3    H1 1233   6.914   4.084   2.731 -1.5109  2.8166  0.8891
  423TIP3    H2 1234   6.980   4.058   2.598  1.9350 -2.6998  3.3039
  424TIP3   OH2 1235   1.958   2.844   5.670 -0.2596  0.2845 -0.2859
  424TIP3    H1 1236   1.977   2.886   5.754 -0.6123 -2.6196  1.4065
  424TIP3    H2 1237   1.863   2.846   5.663 -0.7800 -3.8118  2.1237
  425TIP3   OH2 1238   4.641   6.308   5.345  0.0377  0.4537 -0.2430
  425TIP3    H1 1239   4.602   6.223   5.364  0.2096  0.0697 -1.5443
  425TIP3    H2 1240   4.569   6.359   5.307  0.3991  0.2411 -1.2436
  426TIP3   OH2 1241   5.360   0.063   4.618  0.3302 -0.8214  0.0618
  426TIP3    H1 1242   5.389   0.034   4.704 -1.9423 -1.0087  0.8148
  426TIP3    H2 1243   5.357  -0.017   4.565  0.8030 -0.8535  0.0810
  427TIP3   OH2 1244   6.836   2.792   5.073 -0.1108  0.4841 -0.5601
  427TIP3    H1 1245   6.795   2.814   4.990  1.5853  0.8226 -1.3704
  427TIP3    H2 1246   6.857   2.877   5.112 -1.9938  0.3592  0.8491
  428TIP3   OH2 1247   6.572   0.952   3.507  0.2008  0.4169 -0.2528
  428TIP3    H1 1248   6.613   1.005   3.575  0.1159 -0.7158  0.7193
  428TIP3    H2 1249   6.646   0.908   3.464  0.1751  0.3105 -0.1865
  429TIP3   OH2 1250   1.996   5.724   2.605  0.4000  0.6941 -0.2071
  429TIP3    H1 1251   2.027   5.648   2.655 -2.1367  0.8118  1.7496
  429TIP3    H2 1252   1.931   5.688   2.545 -1.9408  1.3137  1.7574
  430TIP3   OH2 1253   5.875   3.145   3.277  0.2230 -0.3261 -0.7520
  430TIP3    H1 1254   5.852   3.216   3.338  0.5046  0.0721 -1.0970
  430TIP3    H2 1255   5.962   3.169   3.245  1.0200 -1.6435  0.3015
  431TIP3   OH2 1256   3.300   6.550   0.973  0.3602  0.6205 -0.5367
  431TIP3    H1 1257   3.259   6.630   0.938  1.2039  1.0473 -0.5754
  431TIP3    H2 1258   3.281   6.483   0.908 -0.7069  0.6815 -0.3140
  432TIP3   OH2 1259   0.114   1.098   3.190 -0.1783  0.5849  0.0030
  432TIP3    H1 1260   0.168   1.169   3.156  2.4599 -1.1972  0.1544
  432TIP3    H2 1261   0.110   1.113   3.284 -0.5598  1.1076 -0.0946
  433TIP3   OH2 1262   0.678   5.439   4.174  0.1261  0.6104  0.0728
  433TIP3    H1 1263   0.670   5.424   4.079 -2.1907  2.4546 -0.1021
  433TIP3    H2 1264   0.760   5.395   4.197  0.0696 -1.1309 -2.4978
  434TIP3   OH2 1265   7.137   5.339   3.435  0.2028  0.6386 -0.4772
  434TIP3    H1 1266   7.108   5.429   3.452 -0.2766  0.3120  0.5525
  434TIP3    H2 1267   7.072   5.284   3.480 -0.4405 -0.2884 -2.4350
  435TIP3   OH2 1268   2.472   5.247   4.752  0.2133 -0.0828 -0.2322
  435TIP3    H1 1269   2.457   5.162   4.793  0.1964 -1.6591 -3.2201
  435TIP3    H2 1270   2.385   5.283   4.736  0.2205  0.5231  1.0195
  436TIP3   OH2 1271   0.592   4.637   1.203 -0.4049 -0.3373 -0.3309
  436TIP3    H1 1272   0.574   4.555   1.250  0.1045  0.3043  1.0207
  436TIP3    H2 1273   0.685   4.653   1.217 -0.2596 -0.0588 -1.4955
  437TIP3   OH2 1274   3.500   0.437   3.160  0.7565  0.2994  0.0824
  437TIP3    H1 1275   3.565   0.435   3.231 -0.3824 -0.7681  1.1299
  437TIP3    H2 1276   3.530   0.371   3.098 -0.0873 -1.2516  1.2823
  438TIP3   OH2 1277   2.348   1.182   1.674 -0.3848  0.2798  0.1220
  438TIP3    H1 1278   2.340   1.105   1.731  1.1237 -0.7833 -0.9980
  438TIP3    H2 1279   2.280   1.169   1.607  0.1221 -0.3125 -0.2904
  439TIP3   OH2 1280   0.118   4.536   4.495 -0.0671 -0.0009 -0.4227
  439TIP3    H1 1281   0.126   4.444   4.520  0.7232 -0.0457 -0.7826
  439TIP3    H2 1282   0.185   4.547   4.427 -1.3752  0.3836 -1.6942
  440TIP3   OH2 1283   4.002   5.998   3.946 -0.3129 -0.3071  0.0039
  440TIP3    H1 1284   4.066   5.997   4.017  1.2335 -1.5849 -1.3169
  440TIP3    H2 1285   3.927   5.949   3.981  0.6255 -1.3712  0.6106
  441TIP3   OH2 1286   2.933   4.112   2.313 -0.1629  0.2859  0.5906
  441TIP3    H1 1287   2.992   4.187   2.325  0.4325 -0.2552  1.1432
  441TIP3    H2 1288   2.863   4.125   2.377 -1.4525  1.6603 -0.9979
  442TIP3   OH2 1289   4.863   4.049   3.823 -0.0647 -0.8043 -0.2933
  442TIP3    H1 1290   4.940   4.091   3.860  0.7403 -0.5285 -2.1922
  442TIP3    H2 1291   4.894   4.005   3.744 -1.3763 -2.8905  0.2676
  443TIP3   OH2 1292   4.247   3.659   3.385  0.2034  0.2445 -0.2590
  443TIP3    H1 1293   4.281   3.673   3.296  0.8001 -0.0112 -0.0746
  443TIP3    H2 1294   4.233   3.747   3.419  1.7025  0.4028  0.0397
  444TIP3   OH2 1295   3.173   5.353   1.990 -0.3373 -0.1923 -0.0216
  444TIP3    H1 1296   3.151   5.376   2.080  1.5205 -0.2610  0.4899
  444TIP3    H2 1297   3.213   5.432   1.954  0.6387 -0.7387 -0.1705
  445TIP3   OH2 1298   5.757   0.418   2.913 -0.4959 -0.3698  0.1246
  445TIP3    H1 1299   5.795   0.392   2.997 -0.1360  0.5866  0.2746
  445TIP3    H2 1300   5.830   0.410   2.851  0.1004  1.8290  0.4816
  446TIP3   OH2 1301   5.169   1.235   4.950 -0.4122 -0.2657 -0.4520
  446TIP3    H1 1302   5.078   1.258   4.931 -0.5822  0.9456  1.5787
  446TIP3    H2 1303   5.177   1.245   5.045  1.5629 -1.4295 -0.4468
  447TIP3   OH2 1304   4.303   6.582   5.217 -0.0290  0.0119  0.1506
  447TIP3    H1 1305   4.397   6.597   5.209  0.0789 -0.9737 -0.6823
  447TIP3    H2 1306   4.295   6.512   5.282  0.0472 -1.9337 -1.8216
  448TIP3   OH2 1307   5.028   0.579   4.099  0.5176 -0.6779 -0.1010
  448TIP3    H1 1308   5.055   0.568   4.008 -0.9109  0.8934 -0.7527
  448TIP3    H2 1309   4.966   0.651   4.098  0.7091 -0.3884  2.1817
  449TIP3   OH2 1310   2.703   2.367   4.237  0.3040  0.2793 -0.0032
  449TIP3    H1 1311   2.726   2.321   4.317  0.9520 -0.8705 -0.8227
  449TIP3    H2 1312   2.618   2.331   4.212  1.0586 -0.9663 -0.9434
  450TIP3   OH2 1313   7.001   4.686   3.772 -0.5013  0.1880 -0.1420
  450TIP3    H1 1314   7.037   4.643   3.849  0.2173  0.5943 -0.2377
  450TIP3    H2 1315   7.077   4.716   3.723 -0.9713  1.5739 -0.0699
  451TIP3   OH2 1316   4.119   4.156   3.262  0.4449  0.2950 -0.1982
  451TIP3    H1 1317   4.131   4.195   3.349 -0.7148 -0.9889  0.5783
  451TIP3    H2 1318   4.062   4.217   3.216 -1.2858 -0.3569  0.9681
  452TIP3   OH2 1319   5.754   0.832   1.425 -0.2925  0.1604 -0.0066
  452TIP3    H1 1320   5.679   0.812   1.481 -0.3522  0.3292 -0.0236
  452TIP3    H2 1321   5.820   0.766   1.448 -0.4115  0.0696  0.0760
  453TIP3   OH2 1322   1.987   0.335   5.281  0.8334  0.4225  0.3258
  453TIP3    H1 1323   1.943   0.313   5.364 -0.3427  0.6883 -0.1957
  453TIP3    H2 1324   2.029   0.419   5.298  1.3859  0.0285  0.9298
  454TIP3   OH2 1325   6.539   1.661   0.765 -0.2855  0.1706  0.4163
  454TIP3    H1 1326   6.590   1.625   0.837 -0.5054  0.7540  0.8734
  454TIP3    H2 1327   6.561   1.606   0.690 -0.5677 -0.8633  1.0727
  455TIP3   OH2 1328   0.139   3.298   1.586  0.1340 -0.2905 -0.0361
  455TIP3    H1 1329   0.211   3.344   1.543  0.9265 -0.4253  1.0860
  455TIP3    H2 1330   0.171   3.208   1.595  0.0911 -0.2155  1.0075
  456TIP3   OH2 1331   6.164   1.822   2.848  0.1785 -0.1734  0.2281
  456TIP3    H1 1332   6.128   1.853   2.765 -0.5513  0.6059  0.8175
  456TIP3    H2 1333   6.102   1.756   2.878  0.2250 -0.1591  0.3563
  457TIP3   OH2 1334   2.682   4.667   0.487  0.3359 -0.0545  0.3429
  457TIP3    H1 1335   2.682   4.697   0.578  1.1664 -0.3416  0.4407
  457TIP3    H2 1336   2.736   4.588   0.488 -1.5912 -1.4452  0.0518
  458TIP3   OH2 1337   6.382   3.345   0.805  0.2098 -0.0701  0.2168
  458TIP3    H1 1338   6.383   3.250   0.817  0.0202 -0.1831 -0.5625
  458TIP3    H2 1339   6.303   3.361   0.753  2.1375  0.0596 -2.9233
  459TIP3   OH2 1340   0.368   1.807   4.691 -0.4695 -0.8475 -0.3048
  459TIP3    H1 1341   0.279   1.829   4.664  0.1608  0.5529 -1.3648
  459TIP3    H2 1342   0.376   1.714   4.671 -1.6812 -0.9923 -0.2083
  460TIP3   OH2 1343   4.374   5.642   0.232 -0.0176 -0.3135  0.1963
  460TIP3    H1 1344   4.305   5.667   0.170  0.2985  1.2501  0.4087
  460TIP3    H2 1345   4.454   5.681   0.194  0.5891 -1.3123  0.4187
  461TIP3   OH2 1346   4.374   0.618   1.865 -0.0236 -0.2481 -0.3709
  461TIP3    H1 1347   4.447   0.648   1.919 -0.9038 -1.6719  1.7265
  461TIP3    H2 1348   4.333   0.698   1.833  0.3915  0.6799  1.3217
  462TIP3   OH2 1349   1.505   6.675   5.894  0.4956 -0.4834  0.2596
  462TIP3    H1 1350   1.514   6.765   5.863 -0.8096 -0.6649 -0.6999
  462TIP3    H2 1351   1.541   6.621   5.824 -0.2150 -0.7765  0.1128
  463TIP3   OH2 1352   2.145   1.705   1.221 -0.4565 -0.2538  0.3622
  463TIP3    H1 1353   2.101   1.746   1.146 -1.9860 -1.1445  0.7313
  463TIP3    H2 1354   2.115   1.614   1.219 -1.2777 -0.0864  2.5854
  464TIP3   OH2 1355   2.152   1.927   4.320  0.0025 -0.4473 -0.1164
  464TIP3    H1 1356   2.217   1.942   4.388 -0.4549  0.1593  0.1980
  464TIP3    H2 1357   2.191   1.861   4.263  0.3935 -0.9575  0.7282
  465TIP3   OH2 1358   0.581   6.713   5.513  0.0153 -0.5915 -0.6715
  465TIP3    H1 1359   0.568   6.621   5.537 -1.1448 -0.4061 -0.5633
  465TIP3    H2 1360   0.587   6.759   5.597 -1.2049 -0.3351 -0.7047
  466TIP3   OH2 1361   1.929   5.648   5.794 -0.0337  0.1077 -0.4462
  466TIP3    H1 1362   1.923   5.553   5.789 -1.2826  0.2124 -1.2757
  466TIP3    H2 1363   1.910   5.679   5.706 -1.7458  1.1996  0.2413
  467TIP3   OH2 1364   3.541   2.585   2.161  0.3409  0.0255  0.3802
  467TIP3    H1 1365   3.566   2.658   2.217  0.1549  0.7316 -0.4353
  467TIP3    H2 1366   3.515   2.626   2.078  0.4824 -0.9791 -0.1786
  468TIP3   OH2 1367   0.077   0.259   5.402 -0.1749 -0.4765 -0.1062
  468TIP3    H1 1368   0.117   0.328   5.455 -1.5989  1.0994 -0.9709
  468TIP3    H2 1369   0.079   0.181   5.458  1.2755  0.2989  0.9874
  469TIP3   OH2 1370   5.212   0.379   4.159  0.2877 -0.9366  0.7310
  469TIP3    H1 1371   5.295   0.417   4.132  0.7480 -2.3978 -0.0245
  469TIP3    H2 1372   5.152   0.453   4.166  0.9533 -0.1604 -1.3077
  470TIP3   OH2 1373   4.709   3.052   1.574 -0.2514  0.3344 -0.0628
  470TIP3    H1 1374   4.756   3.079   1.653 -0.6518  1.0279 -0.0622
  470TIP3    H2 1375   4.617   3.073   1.592 -0.7281 -1.8119  0.2931
  471TIP3   OH2 1376   3.446   1.973   0.518  0.1863 -0.3523  0.0824
  471TIP3    H1 1377   3.422   2.023   0.440  0.0098 -0.3673  0.1283
  471TIP3    H2 1378   3.541   1.960   0.509  0.3806  0.6808  0.4644
  472TIP3   OH2 1379   1.720   2.231   5.173  0.2876 -0.2276 -0.3810
  472TIP3    H1 1380   1.795   2.252   5.229  0.4237 -2.6274  0.4376
  472TIP3    H2 1381   1.709   2.136   5.181 -1.9416 -0.1543 -1.6332
  473TIP3   OH2 1382   3.039   3.376   2.289 -0.2130 -0.0146 -0.0439
  473TIP3    H1 1383   3.051   3.378   2.384 -0.5167 -0.6070  0.0133
  473TIP3    H2 1384   3.117   3.418   2.253  0.3565 -0.6620  0.4364
  474TIP3   OH2 1385   5.768   3.100   4.707 -0.3883  0.0907 -0.2761
  474TIP3    H1 1386   5.842   3.041   4.694 -0.8992 -0.5240 -0.4604
  474TIP3    H2 1387   5.766   3.117   4.801  0.7771  1.1720 -0.4294
  475TIP3   OH2 1388   2.720   2.578   0.583 -0.5166  0.1371 -0.5080
  475TIP3    H1 1389   2.797   2.585   0.640 -0.2240  1.2967 -1.0119
  475TIP3    H2 1390   2.674   2.500   0.615 -0.0883  0.4520  0.9728
  476TIP3   OH2 1391   3.327   5.889   2.514 -0.0832 -0.4113 -0.1988
  476TIP3    H1 1392   3.345   5.819   2.576  0.9878  0.7422  0.8534
  476TIP3    H2 1393   3.234   5.882   2.496  0.0264 -2.1795 -0.2398
  477TIP3   OH2 1394   5.811   1.671   5.213  0.0351  0.3016  0.0561
  477TIP3    H1 1395   5.884   1.617   5.183 -0.6908 -0.7168  0.0698
  477TIP3    H2 1396   5.810   1.746   5.153 -0.7247 -1.1523 -1.8545
  478TIP3   OH2 1397   1.532   6.254   3.820  0.0046  0.5971  0.2343
  478TIP3    H1 1398   1.605   6.254   3.883  0.4243  1.6771 -0.2321
  478TIP3    H2 1399   1.509   6.346   3.810  0.0488  0.4678 -1.2950
  479TIP3   OH2 1400   0.222   1.771   4.952 -0.1287  0.2164  0.2198
  479TIP3    H1 1401   0.263   1.839   5.006  0.6793 -0.1069  0.0200
  479TIP3    H2 1402   0.221   1.808   4.864 -2.8405  1.3879  0.6437
  480TIP3   OH2 1403   1.023   4.954   0.637 -0.2822 -0.3338 -0.2296
  480TIP3    H1 1404   1.031   4.991   0.549  2.3667  0.0358  0.0882
  480TIP3    H2 1405   1.003   4.862   0.622 -0.0964 -0.2260 -1.2243
  481TIP3   OH2 1406   6.617   2.334   5.819 -0.9223  0.2086 -0.6517
  481TIP3    H1 1407   6.708   2.307   5.805 -0.3855  1.3790  0.3877
  481TIP3    H2 1408   6.619   2.429   5.806 -1.8351  0.3446  0.1473
  482TIP3   OH2 1409   4.812   4.571   2.004  0.5477  0.1543 -0.4262
  482TIP3    H1 1410   4.875   4.600   1.938  1.8276  1.8211  1.4342
  482TIP3    H2 1411   4.768   4.496   1.963  0.6702  1.5866 -3.4964
  483TIP3   OH2 1412   1.493   3.410   0.792  0.3653 -0.0303 -0.2274
  483TIP3    H1 1413   1.482   3.324   0.833 -0.3484 -2.0659 -4.2181
  483TIP3    H2 1414   1.586   3.415   0.771  0.6585  0.8464  1.1288
  484TIP3   OH2 1415   5.740   3.576   4.574  0.2217 -0.5762  0.1638
  484TIP3    H1 1416   5.742   3.527   4.492 -3.0557 -0.0996 -0.3215
  484TIP3    H2 1417   5.804   3.646   4.561 -0.4953 -0.2686 -2.2009
  485TIP3   OH2 1418   5.610   4.274   1.970  0.3920  0.7252 -0.3861
  485TIP3    H1 1419   5.628   4.312   1.884  2.6553 -1.4411 -0.9808
  485TIP3    H2 1420   5.693   4.278   2.017 -0.2142 -0.1684  0.8451
  486TIP3   OH2 1421   3.778   2.198   0.785 -0.0497 -0.1780  0.5601
  486TIP3    H1 1422   3.695   2.176   0.827  0.3318 -3.2682 -0.0249
  486TIP3    H2 1423   3.754   2.234   0.700 -0.8186 -0.8344  0.4893
  487TIP3   OH2 1424   0.778   0.216   5.354  0.2947 -0.0833 -0.0938
  487TIP3    H1 1425   0.838   0.285   5.384 -0.1997  0.1556  0.3551
  487TIP3    H2 1426   0.713   0.262   5.301  1.1622 -0.4992 -1.5963
  488TIP3   OH2 1427   0.406   3.310   4.718  0.7479  0.4355  0.3800
  488TIP3    H1 1428   0.457   3.343   4.792  0.9965  0.4259  0.2124
  488TIP3    H2 1429   0.430   3.218   4.712  0.2618  0.2875  0.6747
  489TIP3   OH2 1430   5.214   2.685   3.734  0.2967  0.0336  0.1272
  489TIP3    H1 1431   5.182   2.690   3.644  0.7070 -0.5993 -0.0606
  489TIP3    H2 1432   5.308   2.705   3.727  0.2505  0.3758  0.4685
  490TIP3   OH2 1433   5.310   0.755   3.142  0.3810 -0.1483  0.2066
  490TIP3    H1 1434   5.291   0.846   3.165  2.1012  0.0983  0.7980
  490TIP3    H2 1435   5.291   0.705   3.221  2.7176  0.1986  1.0525
  491TIP3   OH2 1436   4.058   1.530   1.088  0.3253  0.4059 -0.2529
  491TIP3    H1 1437   3.998   1.531   1.014  0.9247  1.3425 -0.7453
  491TIP3    H2 1438   4.028   1.602   1.144 -1.3855 -1.4965  1.5139
  492TIP3   OH2 1439   4.412   3.396   0.875 -0.3688  0.4295 -0.2633
  492TIP3    H1 1440   4.419   3.305   0.904  2.1133  0.9636  1.1308
  492TIP3    H2 1441   4.318   3.410   0.862 -0.8576 -2.1719 -0.0819
  493TIP3   OH2 1442   2.891   0.851   1.686 -0.1024 -0.3499  0.2546
  493TIP3    H1 1443   2.896   0.847   1.590  0.7223 -1.8850  0.3229
  493TIP3    H2 1444   2.824   0.786   1.709  1.5878 -1.9673  0.8083
  494TIP3   OH2 1445   0.623   1.013   5.207  0.0178  0.1251  0.7536
  494TIP3    H1 1446   0.658   1.037   5.293 -0.0240  1.3140  0.4455
  494TIP3    H2 1447   0.531   1.041   5.210 -0.8449 -2.4744  1.3573
  495TIP3   OH2 1448   1.527   2.769   2.134  0.4651 -0.7497 -0.4632
  495TIP3    H1 1449   1.475   2.692   2.158 -2.7564  1.3394 -0.2627
  495TIP3    H2 1450   1.567   2.796   2.217  0.1451 -1.1651 -0.1660
  496TIP3   OH2 1451   3.651   6.395   5.371 -0.1466  0.1873  0.3277
  496TIP3    H1 1452   3.556   6.384   5.380 -0.1954  0.6693  0.4419
  496TIP3    H2 1453   3.684   6.386   5.461 -0.1867  0.9098  0.4227
  497TIP3   OH2 1454   0.970   4.828   1.573  0.6102  0.6357 -0.2554
  497TIP3    H1 1455   0.909   4.901   1.588 -0.7070 -0.4121 -0.3425
  497TIP3    H2 1456   0.962   4.809   1.480  1.0428  0.4580 -0.2565
  498TIP3   OH2 1457   2.177   3.099   1.821 -0.2111 -0.1971  0.5299
  498TIP3    H1 1458   2.199   3.090   1.728 -1.4278 -0.2417  0.2238
  498TIP3    H2 1459   2.254   3.141   1.860  0.3201 -0.1834 -0.4961
  499TIP3   OH2 1460   0.354   4.847   3.231  0.4779  0.4940  0.0960
  499TIP3    H1 1461   0.424   4.907   3.206  1.9988 -0.9320  0.7249
  499TIP3    H2 1462   0.371   4.827   3.323  0.0791 -0.9585 -0.1152
  500TIP3   OH2 1463   1.036   1.974   1.933  0.4599 -0.1466  0.0016
  500TIP3    H1 1464   1.090   2.053   1.939  0.7995 -0.2780 -1.1666
  500TIP3    H2 1465   1.076   1.923   1.863 -2.5182  0.8291 -2.6450
  501TIP3   OH2 1466   6.728   0.871   1.024  0.2223  0.7626  0.1824
  501TIP3    H1 1467   6.755   0.868   1.115  0.6844 -2.6420  0.0449
  501TIP3    H2 1468   6.632   0.863   1.026  0.3598 -1.2748  0.3939
  502TIP3   OH2 1469   0.202   3.294   2.249 -0.5014  0.0323 -0.0382
  502TIP3    H1 1470   0.159   3.229   2.195  1.3845  0.1768 -1.8441
  502TIP3    H2 1471   0.165   3.378   2.221 -1.0149 -0.0441  0.3977
  503TIP3   OH2 1472   6.372   6.685   1.555 -0.5415  0.9310  0.3647
  503TIP3    H1 1473   6.298   6.729   1.513  0.0123  1.6932  0.1736
  503TIP3    H2 1474   6.332   6.613   1.605 -1.2515  0.3173 -1.0415
  504TIP3   OH2 1475   4.405   2.492   2.723 -0.2844  0.2327 -0.1349
  504TIP3    H1 1476   4.484   2.529   2.684 -0.9750  1.4510 -0.4067
  504TIP3    H2 1477   4.434   2.408   2.760  1.5405  1.4340  1.3212
  505TIP3   OH2 1478   2.235   3.337   2.083  1.0343 -0.3988 -0.0199
  505TIP3    H1 1479   2.297   3.279   2.126  0.4884 -2.0695 -1.3859
  505TIP3    H2 1480   2.161   3.281   2.060  1.0749  0.4803 -2.6084
  506TIP3   OH2 1481   0.233   0.385   3.975  0.3692 -0.6676 -0.3731
  506TIP3    H1 1482   0.314   0.398   4.023  0.3185  0.3639 -0.5525
  506TIP3    H2 1483   0.170   0.358   4.041  0.0814  1.5545  0.3450
  507TIP3   OH2 1484   3.253   0.341   2.728 -0.1102  0.5213  0.3618
  507TIP3    H1 1485   3.167   0.346   2.771 -0.7074  3.5791 -0.8803
  507TIP3    H2 1486   3.313   0.381   2.791  0.4451 -1.4453  1.1507
  508TIP3   OH2 1487   1.299   0.373   5.627 -0.4465  0.1258 -0.1375
  508TIP3    H1 1488   1.275   0.365   5.535 -1.0080 -0.6590  0.0610
  508TIP3    H2 1489   1.393   0.356   5.629  0.2170  3.1192 -0.9096
  509TIP3   OH2 1490   6.801   2.725   4.588  0.1502  0.1385  0.4649
  509TIP3    H1 1491   6.849   2.800   4.552 -1.2244  0.9106  0.1691
  509TIP3    H2 1492   6.827   2.651   4.532  0.3420  0.7032 -0.2109
  510TIP3   OH2 1493   2.893   2.862   2.281 -0.0607  0.5669 -0.2476
  510TIP3    H1 1494   2.881   2.953   2.306  0.6495  0.3677  0.9238
  510TIP3    H2 1495   2.962   2.830   2.340 -2.0054 -1.4141  1.1377
  511TIP3   OH2 1496   1.195   4.281   3.286  0.1764 -0.0450  0.3171
  511TIP3    H1 1497   1.129   4.281   3.217 -0.0671 -1.5923  0.4991
  511TIP3    H2 1498   1.267   4.229   3.249  1.5287  1.9897 -0.0605
  512TIP3   OH2 1499   0.865   4.175   4.273 -0.8343  0.4711  0.8840
  512TIP3    H1 1500   0.890   4.264   4.300 -0.1372  0.9303 -1.0464
  512TIP3    H2 1501   0.927   4.154   4.203 -1.3183 -1.3480  0.9677
  513TIP3   OH2 1502   3.812   3.170   0.273  0.4382  0.1118  0.3922
  513TIP3    H1 1503   3.727   3.184   0.231  0.6433  0.5429  0.1015
  513TIP3    H2 1504   3.836   3.081   0.249  0.3461  0.2006 -0.0414
  514TIP3   OH2 1505   4.122   3.286   1.378  0.1568 -0.1165 -0.0576
  514TIP3    H1 1506   4.213   3.262   1.397  1.0909  1.6690 -1.9045
  514TIP3    H2 1507   4.092   3.217   1.319  0.8661  0.1321 -0.7265
  515TIP3   OH2 1508   0.744   0.152   1.019  0.6182 -0.2853 -0.2732
  515TIP3    H1 1509   0.657   0.111   1.020  0.9616 -1.0425  1.2470
  515TIP3    H2 1510   0.801   0.085   0.983  1.3780 -1.7315  3.2228
  516TIP3   OH2 1511   3.770   6.687   2.083  0.3711  0.5073 -0.1439
  516TIP3    H1 1512   3.714   6.609   2.070 -0.5691  1.1505 -0.0785
  516TIP3    H2 1513   3.849   6.653   2.125 -0.7070 -0.2083  1.4071
  517TIP3   OH2 1514   6.293   6.346   0.751 -0.0503  0.4669 -0.0895
  517TIP3    H1 1515   6.310   6.428   0.705 -1.1503 -0.0262 -1.4496
  517TIP3    H2 1516   6.378   6.321   0.788  0.1655  2.5402  0.9738
  518TIP3   OH2 1517   0.765   0.339   0.823 -0.2987 -0.2648 -0.1980
  518TIP3    H1 1518   0.747   0.295   0.906  2.8628 -0.0104  0.7770
  518TIP3    H2 1519   0.841   0.292   0.787 -0.5692  0.6721 -2.1483
  519TIP3   OH2 1520   5.165   5.807   5.561 -0.1792 -0.0203 -0.4877
  519TIP3    H1 1521   5.207   5.778   5.480 -1.1327 -0.8709 -0.7036
  519TIP3    H2 1522   5.079   5.766   5.559 -0.1565 -0.2011  1.0464
  520TIP3   OH2 1523   5.340   6.043   5.225 -0.2019 -0.2168  0.0061
  520TIP3    H1 1524   5.367   6.005   5.141 -0.2970 -1.6616  0.6105
  520TIP3    H2 1525   5.362   6.136   5.217  0.6545 -0.5051 -1.2657
  521TIP3   OH2 1526   0.502   2.537   1.874 -0.2199 -0.0176 -0.1577
  521TIP3    H1 1527   0.479   2.507   1.962  0.0089 -0.5859 -0.2841
  521TIP3    H2 1528   0.418   2.553   1.831 -0.5463 -3.1441 -0.9862
  522TIP3   OH2 1529   6.454   2.897   4.819  0.0707  0.1772  0.4692
  522TIP3    H1 1530   6.427   2.964   4.881 -0.4733 -0.0904  0.5324
  522TIP3    H2 1531   6.405   2.819   4.845 -0.5565  0.1925 -0.5992
  523TIP3   OH2 1532   5.616   3.422   4.756 -0.4892  1.1787  0.3133
  523TIP3    H1 1533   5.690   3.404   4.815 -0.5886  1.6858  0.6029
  523TIP3    H2 1534   5.657   3.456   4.676 -0.3487  0.4106  0.0590
  524TIP3   OH2 1535   3.116   3.345   1.077  0.3934 -0.0452 -0.1642
  524TIP3    H1 1536   3.030   3.363   1.114  0.1604  0.7079 -1.0333
  524TIP3    H2 1537   3.177   3.389   1.136  0.0407  0.9816 -0.5376
  525TIP3   OH2 1538   0.930   1.397   2.258 -0.0461 -0.0429  0.0617
  525TIP3    H1 1539   1.009   1.444   2.284  0.5842 -0.4463 -1.0610
  525TIP3    H2 1540   0.922   1.414   2.164 -1.2010 -0.1588  0.1233
  526TIP3   OH2 1541   6.584   2.092   5.469  0.7075  0.0803 -0.7060
  526TIP3    H1 1542   6.648   2.069   5.401  0.6485 -1.3413 -0.3179
  526TIP3    H2 1543   6.571   2.010   5.518 -1.1589  0.4133 -0.5660
  527TIP3   OH2 1544   1.833   1.876   1.707 -0.0814  0.0067  0.3868
  527TIP3    H1 1545   1.786   1.937   1.764 -0.1814  1.4614 -1.1835
  527TIP3    H2 1546   1.786   1.793   1.716 -1.3541  0.7518  0.8089
  528TIP3   OH2 1547   6.691   6.085   0.283  0.2703  0.2331  0.4049
  528TIP3    H1 1548   6.717   5.993   0.288  0.2376  0.2206  0.3416
  528TIP3    H2 1549   6.677   6.110   0.374 -4.9416 -1.3061  0.3414
  529TIP3   OH2 1550   1.947   4.330   5.273 -0.1255 -0.1262 -0.3945
  529TIP3    H1 1551   1.920   4.340   5.182 -1.2678  1.4746  0.0538
  529TIP3    H2 1552   1.931   4.417   5.312  0.8928 -0.5997  1.1809
  530TIP3   OH2 1553   1.594   4.146   0.727  0.0817  0.5530  0.3321
  530TIP3    H1 1554   1.558   4.230   0.700  0.9584  1.2782  1.3201
  530TIP3    H2 1555   1.639   4.112   0.649 -1.5407  0.2532 -0.5183
  531TIP3   OH2 1556   1.139   0.540   4.916  0.4635 -0.6662 -0.3162
  531TIP3    H1 1557   1.083   0.617   4.930  4.9390  3.2272 -1.3991
  531TIP3    H2 1558   1.141   0.498   5.002 -1.1138  1.1902  0.7431
  532TIP3   OH2 1559   5.668   5.472   3.520  0.1656 -0.8003  0.3129
  532TIP3    H1 1560   5.688   5.558   3.484 -0.1515  0.4438  2.8905
  532TIP3    H2 1561   5.654   5.417   3.443 -0.9347  1.7416 -1.4568
  533TIP3   OH2 1562   2.705   5.866   3.334  0.2548 -0.1178 -0.3973
  533TIP3    H1 1563   2.634   5.854   3.397  0.0710  1.2707 -0.3043
  533TIP3    H2 1564   2.713   5.781   3.290 -1.0160 -0.4909  0.0526
  534TIP3   OH2 1565   3.104   6.071   1.151  0.0359  0.1188  0.5977
  534TIP3    H1 1566   3.151   6.038   1.075  0.6982 -0.2659  1.1603
  534TIP3    H2 1567   3.168   6.066   1.223  0.1657  2.5607  0.7450
  535TIP3   OH2 1568   2.351   2.244   2.972  0.0950 -0.3709 -0.0608
  535TIP3    H1 1569   2.436   2.210   3.000  0.0666 -0.1207  0.3247
  535TIP3    H2 1570   2.356   2.243   2.876  0.9466  0.6507 -0.0511
  536TIP3   OH2 1571   5.911   1.580   1.975  0.3442 -0.8611  0.2020
  536TIP3    H1 1572   5.836   1.540   2.019 -0.1501  2.0709  2.3671
  536TIP3    H2 1573   5.871   1.639   1.910  0.7516  0.1055  0.8019
  537TIP3   OH2 1574   4.918   0.053   4.258  0.4642  0.5630 -0.1773
  537TIP3    H1 1575   4.938   0.060   4.164 -0.3288  1.9253 -0.2709
  537TIP3    H2 1576   4.842   0.110   4.270  1.1755  1.2262  1.4761
  538TIP3   OH2 1577   3.300   3.975   3.180 -0.4101  0.4178  0.2489
  538TIP3    H1 1578   3.295   4.068   3.159  1.9334  0.1450 -1.9232
  538TIP3    H2 1579   3.380   3.966   3.232 -1.7962 -0.1499  2.4332
  539TIP3   OH2 1580   1.726   3.095   4.488  0.0789  0.4019  0.2067
  539TIP3    H1 1581   1.706   3.183   4.455  2.3808  0.8044 -0.3429
  539TIP3    H2 1582   1.761   3.048   4.412  1.4104 -0.0785  1.0735
  540TIP3   OH2 1583   2.675   4.517   3.758  0.2991  0.4563  0.0988
  540TIP3    H1 1584   2.622   4.532   3.837  0.5003  0.0484  0.3170
  540TIP3    H2 1585   2.623   4.456   3.706 -0.5788  1.9382 -0.8482
  541TIP3   OH2 1586   1.437   6.317   3.012  0.0477  0.2053 -0.5279
  541TIP3    H1 1587   1.361   6.352   2.966 -0.6502  1.1484  1.2477
  541TIP3    H2 1588   1.437   6.362   3.097  0.1953 -2.7354  1.1507
  542TIP3   OH2 1589   0.670   5.798   1.125 -0.3253 -0.1963 -0.3583
  542TIP3    H1 1590   0.612   5.729   1.156 -1.5625  0.8151 -0.3366
  542TIP3    H2 1591   0.685   5.777   1.033  1.0802 -1.6456  0.1372
  543TIP3   OH2 1592   1.177   1.689   0.526 -0.0476  0.5004  0.2875
  543TIP3    H1 1593   1.149   1.780   0.512 -0.5755  0.1388 -1.2540
  543TIP3    H2 1594   1.183   1.653   0.438  0.3577 -0.9131  0.8757
  544TIP3   OH2 1595   3.407   2.297   4.958  0.1002 -0.1928 -0.0897
  544TIP3    H1 1596   3.398   2.211   4.998 -1.0135  0.1513  0.4288
  544TIP3    H2 1597   3.450   2.350   5.025 -1.1847  0.2158  0.4255
  545TIP3   OH2 1598   0.730   0.797   5.838  0.4021 -0.2362 -0.1312
  545TIP3    H1 1599   0.682   0.717   5.858 -0.0227 -0.5103 -2.0287
  545TIP3    H2 1600   0.759   0.830   5.923 -0.9136 -1.4574  0.8330
  546TIP3   OH2 1601   5.669   5.225   4.873  0.6967  0.7709  0.3138
  546TIP3    H1 1602   5.636   5.314   4.888 -3.7275 -0.4258 -1.0318
  546TIP3    H2 1603   5.622   5.171   4.936  1.5234 -0.9180 -0.4535
  547TIP3   OH2 1604   5.904   1.053   5.239  0.0033  0.2982 -0.5973
  547TIP3    H1 1605   5.928   1.048   5.147  0.3688 -0.3946 -0.4661
  547TIP3    H2 1606   5.925   1.144   5.264 -0.9900  0.7764 -1.4243
  548TIP3   OH2 1607   7.229   4.830   0.234  0.3994 -1.3753  0.4517
  548TIP3    H1 1608   7.152   4.865   0.190  0.1130 -0.9226  1.2992
  548TIP3    H2 1609   7.202   4.743   0.265  0.4177 -1.4520  0.2570
  549TIP3   OH2 1610   2.816   1.865   0.166  0.1197  0.4616 -0.2366
  549TIP3    H1 1611   2.776   1.851   0.252  0.6720 -0.5772 -0.1332
  549TIP3    H2 1612   2.910   1.869   0.183  0.1426  2.3702 -0.5428
  550TIP3   OH2 1613   0.699   2.939   1.460 -0.3829 -0.2134  0.3955
  550TIP3    H1 1614   0.698   2.914   1.553  1.1533 -0.1032  0.4740
  550TIP3    H2 1615   0.757   2.874   1.419 -0.9004 -0.1474 -0.4563
  551TIP3   OH2 1616   1.115   4.924   2.418  0.0692  0.0942 -0.2901
  551TIP3    H1 1617   1.151   4.982   2.486  1.2552  0.4466 -1.1807
  551TIP3    H2 1618   1.088   4.846   2.466 -1.8685  1.4528  1.0035
  552TIP3   OH2 1619   1.002   3.257   2.498 -0.0559  0.4751  0.9446
  552TIP3    H1 1620   1.036   3.217   2.578 -0.6727  0.5574  1.2500
  552TIP3    H2 1621   1.019   3.350   2.509  0.1760  0.4471  0.8239
  553TIP3   OH2 1622   4.999   6.711   3.497  0.9969 -0.0649 -0.5918
  553TIP3    H1 1623   5.047   6.629   3.490  1.7712  0.0788  1.9524
  553TIP3    H2 1624   4.949   6.703   3.578  0.1461  1.5177 -0.9148
  554TIP3   OH2 1625   6.048   1.714   0.619  0.2372  0.0449 -0.4945
  554TIP3    H1 1626   5.971   1.658   0.629 -0.9837  1.1228 -2.9835
  554TIP3    H2 1627   6.105   1.689   0.692 -1.9516 -1.5870  0.7984
  555TIP3   OH2 1628   6.077   0.836   3.808 -0.0450  0.2376 -0.0962
  555TIP3    H1 1629   5.990   0.873   3.822 -0.2297  0.1591 -0.9627
  555TIP3    H2 1630   6.066   0.743   3.826 -0.0861  0.2648  0.0207
  556TIP3   OH2 1631   0.779   0.372   2.763  0.3538  0.3524 -0.2408
  556TIP3    H1 1632   0.715   0.302   2.777  0.0338  0.5469 -0.6931
  556TIP3    H2 1633   0.767   0.397   2.671  0.2184  1.2324  0.0065
  557TIP3   OH2 1634   5.991   0.233   4.637  0.7497 -0.9863 -0.3870
  557TIP3    H1 1635   6.026   0.316   4.605 -1.5952 -0.2583 -1.2626
  557TIP3    H2 1636   6.019   0.229   4.729  0.0050  1.3225  0.0121
  558TIP3   OH2 1637   2.139   4.324   5.598 -0.3236  0.1050  0.0509
  558TIP3    H1 1638   2.156   4.394   5.662  0.1098 -0.3720  0.4741
  558TIP3    H2 1639   2.127   4.245   5.652  0.3625 -0.3667 -0.4661
  559TIP3   OH2 1640   3.421   1.048   0.980 -0.3765 -0.1227 -0.2870
  559TIP3    H1 1641   3.503   1.092   1.001 -1.1232  1.0806  0.2111
  559TIP3    H2 1642   3.446   0.958   0.960  0.8333 -0.3434  1.9845
  560TIP3   OH2 1643   4.053   0.656   4.455 -0.2801 -0.0735  0.0830
  560TIP3    H1 1644   4.112   0.731   4.464 -0.7999  0.4043 -0.4121
  560TIP3    H2 1645   3.965   0.694   4.457 -0.6300 -0.9096  2.0971
  561TIP3   OH2 1646   3.674   2.681   5.007  0.1009  0.0916 -0.0555
  561TIP3    H1 1647   3.581   2.697   5.025 -0.0316 -1.3296  0.7138
  561TIP3    H2 1648   3.684   2.702   4.914 -1.4662 -1.5398 -0.6698
  562TIP3   OH2 1649   2.392   1.075   0.550 -0.0066  0.4844 -0.6907
  562TIP3    H1 1650   2.400   1.026   0.468 -1.0651  0.4271 -0.7759
  562TIP3    H2 1651   2.480   1.075   0.587 -0.0173 -1.7391 -0.5336
  563TIP3   OH2 1652   0.928   4.453   1.415  0.0628  0.1167  0.0867
  563TIP3    H1 1653   0.908   4.543   1.388 -0.2418  0.2707  0.7917
  563TIP3    H2 1654   0.951   4.408   1.334 -1.4807  0.3860 -0.5421
  564TIP3   OH2 1655   4.855   1.303   1.451 -0.4675  0.3492  0.0956
  564TIP3    H1 1656   4.942   1.278   1.419  0.1910  1.3672  1.0262
  564TIP3    H2 1657   4.810   1.219   1.465 -0.4353 -0.1668 -2.3893
  565TIP3   OH2 1658   5.011   0.723   4.811  0.8209 -0.4862 -0.1040
  565TIP3    H1 1659   5.030   0.632   4.833  0.7103 -0.2263  1.0899
  565TIP3    H2 1660   5.083   0.748   4.753  1.7769 -0.8295  0.9001
  566TIP3   OH2 1661   4.687   1.081   2.200  0.0568  0.6500  0.3144
  566TIP3    H1 1662   4.663   1.169   2.231 -0.0674  0.2085  1.5091
  566TIP3    H2 1663   4.656   1.022   2.269 -0.8539 -0.4331 -0.9752
  567TIP3   OH2 1664   1.995   4.325   3.789 -0.2967  0.3659  0.8124
  567TIP3    H1 1665   2.032   4.250   3.743 -0.0758  0.7027  0.4346
  567TIP3    H2 1666   2.069   4.364   3.836 -0.4912  0.1073  1.3506
  568TIP3   OH2 1667   2.691   0.380   4.731 -0.0620 -0.0969 -0.4784
  568TIP3    H1 1668   2.604   0.363   4.768 -0.9190  0.4165 -2.1859
  568TIP3    H2 1669   2.700   0.315   4.661  1.1523 -0.4516 -0.0236
  569TIP3   OH2 1670   2.542   3.241   2.735  0.1214 -0.4248 -0.4692
  569TIP3    H1 1671   2.613   3.282   2.685  0.3253 -0.3149 -0.0936
  569TIP3    H2 1672   2.536   3.293   2.815  0.2084 -0.9676 -0.1012
  570TIP3   OH2 1673   5.744   6.159   3.379 -0.3877 -0.1473 -0.4286
  570TIP3    H1 1674   5.752   6.253   3.394 -0.9441 -0.3169  1.1999
  570TIP3    H2 1675   5.749   6.148   3.284 -3.8299  1.9286 -1.0067
  571TIP3   OH2 1676   4.488   6.291   0.042  0.3209  0.8536 -0.8686
  571TIP3    H1 1677   4.541   6.358   0.084  0.2571  0.6849 -0.5158
  571TIP3    H2 1678   4.509   6.211   0.089  0.1879  0.6783 -1.1070
  572TIP3   OH2 1679   4.332   3.142   3.255  0.0398  0.2991  0.0896
  572TIP3    H1 1680   4.239   3.163   3.248 -0.0105  0.2455  0.5582
  572TIP3    H2 1681   4.372   3.221   3.290  0.3556  0.7166 -1.1596
  573TIP3   OH2 1682   6.761   6.667   3.806 -0.1722  0.5616  0.1331
  573TIP3    H1 1683   6.791   6.758   3.812 -0.8330  0.9562 -1.8649
  573TIP3    H2 1684   6.696   6.658   3.875 -0.2154  1.6556  0.2490
  574TIP3   OH2 1685   6.003   2.892   0.857 -0.3575  0.0543 -0.6012
  574TIP3    H1 1686   5.941   2.873   0.786  0.9709  0.3708 -1.9051
  574TIP3    H2 1687   6.061   2.959   0.820  0.0338  0.6328  1.0051
  575TIP3   OH2 1688   4.486   1.755   3.635 -0.4027  0.2923  0.4349
  575TIP3    H1 1689   4.530   1.831   3.674  1.1312 -0.1329 -0.4048
  575TIP3    H2 1690   4.537   1.680   3.667 -0.2956 -0.1905 -0.8469
  576TIP3   OH2 1691   2.285   0.478   0.044 -0.0552  0.3452 -0.2683
  576TIP3    H1 1692   2.336   0.442  -0.030 -0.1044 -0.4916  0.0886
  576TIP3    H2 1693   2.251   0.400   0.088 -2.8873  0.8806 -1.3271
  577TIP3   OH2 1694   5.045   2.209   3.215  0.7140  0.6758  0.2343
  577TIP3    H1 1695   5.054   2.297   3.177  0.7614 -0.1066 -1.6442
  577TIP3    H2 1696   5.125   2.198   3.267  3.1003  0.0574 -3.2110
  578TIP3   OH2 1697   6.842   5.759   1.529  0.2468 -0.4448  0.1201
  578TIP3    H1 1698   6.935   5.778   1.522  0.0948  0.1668 -0.3066
  578TIP3    H2 1699   6.808   5.825   1.589  0.1015 -0.7284  0.3530
  579TIP3   OH2 1700   2.691   0.889   0.042  0.4917  0.0809 -0.2445
  579TIP3    H1 1701   2.646   0.828  -0.016  1.3847  0.1015 -0.9753
  579TIP3    H2 1702   2.737   0.834   0.105 -0.5338  0.0598  0.5138
  580TIP3   OH2 1703   3.805   0.890   1.857  0.5821  0.0823  0.5062
  580TIP3    H1 1704   3.733   0.883   1.919 -1.0778  1.0789 -1.2072
  580TIP3    H2 1705   3.769   0.941   1.783  2.5866 -0.6273 -1.0638
  581TIP3   OH2 1706   6.879   5.235   4.165 -0.5111 -0.1330 -0.0971
  581TIP3    H1 1707   6.788   5.235   4.137 -0.0240  0.5201 -1.8406
  581TIP3    H2 1708   6.888   5.314   4.218 -0.6000  0.7945 -1.3979
  582TIP3   OH2 1709   0.099   4.834   2.625  0.2292 -0.0876 -0.0399
  582TIP3    H1 1710   0.029   4.846   2.560  0.3133  1.8734  0.1692
  582TIP3    H2 1711   0.055   4.840   2.709  0.3381 -1.1964  0.1146
  583TIP3   OH2 1712   3.276   2.637   0.546  0.3598 -0.1300 -0.1120
  583TIP3    H1 1713   3.241   2.701   0.608 -0.1998  1.0551 -1.5719
  583TIP3    H2 1714   3.310   2.566   0.600  0.5230  1.1651  1.5508
  584TIP3   OH2 1715   0.331   4.908   1.910  0.2573 -0.0297  0.0309
  584TIP3    H1 1716   0.377   4.991   1.925  0.8154 -0.3808  0.2716
  584TIP3    H2 1717   0.383   4.843   1.956  0.7746 -0.7882 -1.5650
  585TIP3   OH2 1718   4.869   2.994   3.107  0.3348 -0.0914  0.2159
  585TIP3    H1 1719   4.892   3.047   3.183  0.4686  1.2709 -0.7290
  585TIP3    H2 1720   4.834   2.913   3.143  0.3691  0.5342  1.7166
  586TIP3   OH2 1721   4.639   3.880   1.941 -0.1658  0.2304 -0.4827
  586TIP3    H1 1722   4.622   3.925   2.024  0.7383  0.6197 -0.4944
  586TIP3    H2 1723   4.733   3.890   1.927 -0.2208 -0.2787 -1.3024
  587TIP3   OH2 1724   6.546   2.778   2.877 -0.1090 -0.4704 -0.2692
  587TIP3    H1 1725   6.478   2.789   2.811  1.2405  0.2233 -1.5969
  587TIP3    H2 1726   6.616   2.837   2.850  0.3482  0.1264  2.0026
  588TIP3   OH2 1727   4.682   3.650   1.734  0.0294 -0.0585 -0.0862
  588TIP3    H1 1728   4.680   3.721   1.798 -1.3973  1.3574 -1.6076
  588TIP3    H2 1729   4.765   3.663   1.687 -0.1179  0.4738 -0.2045
  589TIP3   OH2 1730   6.547   3.380   2.527 -0.1043 -0.3048  0.0744
  589TIP3    H1 1731   6.460   3.375   2.568 -1.4894 -1.7981 -2.7129
  589TIP3    H2 1732   6.603   3.329   2.585 -1.0286  0.7186  1.9732
  590TIP3   OH2 1733   0.763   4.994   4.744  0.1570  0.4375  0.9633
  590TIP3    H1 1734   0.806   4.909   4.754  0.2775  0.3939  0.0802
  590TIP3    H2 1735   0.732   5.015   4.833 -1.5178 -1.3819  0.8911
  591TIP3   OH2 1736   6.628   4.743   4.361 -0.3767 -0.2358  0.0848
  591TIP3    H1 1737   6.722   4.743   4.344 -0.8445 -1.0489 -3.2614
  591TIP3    H2 1738   6.596   4.665   4.317 -2.3354 -1.7944  3.8423
  592TIP3   OH2 1739   0.469   0.537   3.170  0.4466 -0.0978  0.2263
  592TIP3    H1 1740   0.410   0.470   3.137  1.7073 -0.9084 -0.4761
  592TIP3    H2 1741   0.528   0.556   3.097  1.6460 -0.0281  1.1680
  593TIP3   OH2 1742   5.657   2.077   0.862 -0.1379  0.0834  0.5384
  593TIP3    H1 1743   5.733   2.075   0.921 -1.5380 -1.0943  2.4178
  593TIP3    H2 1744   5.622   2.165   0.873 -0.5170 -0.1897  1.7127
  594TIP3   OH2 1745   5.014   2.292   2.884 -0.2005  0.1261 -0.5354
  594TIP3    H1 1746   5.024   2.371   2.830 -0.0254  0.0260 -0.6493
  594TIP3    H2 1747   5.063   2.225   2.837  2.0587  0.6157  0.9806
  595TIP3   OH2 1748   2.685   3.176   0.178  0.4813  0.1599  0.0553
  595TIP3    H1 1749   2.721   3.201   0.093  0.9882  0.2377  0.2928
  595TIP3    H2 1750   2.630   3.099   0.159  0.9860 -0.1252 -0.2627
  596TIP3   OH2 1751   0.517   3.265   1.203 -0.8060  0.2629  0.1169
  596TIP3    H1 1752   0.470   3.183   1.187 -0.6021  0.0467  0.6192
  596TIP3    H2 1753   0.607   3.239   1.220 -0.7661  0.5771  0.4052
  597TIP3   OH2 1754   2.065   4.322   2.577  0.0570 -0.7621 -0.3430
  597TIP3    H1 1755   2.048   4.416   2.567 -0.0594 -0.8165 -0.6801
  597TIP3    H2 1756   2.013   4.296   2.652  1.3652 -0.2285  0.7882
  598TIP3   OH2 1757   0.511   4.421   2.021 -0.4774  0.2841  0.3615
  598TIP3    H1 1758   0.541   4.377   2.101 -0.5772  0.0609  0.2741
  598TIP3    H2 1759   0.588   4.420   1.964  0.1358  1.9131  1.0642
  599TIP3   OH2 1760   0.972   3.296   4.417  0.2990 -0.1381  0.4496
  599TIP3    H1 1761   0.929   3.375   4.384 -0.8679 -1.7426 -2.2880
  599TIP3    H2 1762   1.045   3.328   4.470 -1.5615  2.7124  1.5068
  600TIP3   OH2 1763   3.642   2.339   4.154 -0.2738 -0.8736 -0.5374
  600TIP3    H1 1764   3.578   2.373   4.216 -0.5778 -0.7430 -0.9237
  600TIP3    H2 1765   3.684   2.266   4.201 -0.0085 -0.3260  0.0825
  601TIP3   OH2 1766   2.006   5.624   0.277  0.2295 -0.1120  0.7254
  601TIP3    H1 1767   1.966   5.539   0.292 -2.7006  0.6480 -1.6303
  601TIP3    H2 1768   2.044   5.649   0.361 -0.8584 -2.6978  2.0871
  602TIP3   OH2 1769   2.171   3.892   1.942  0.3139  0.2831 -0.7223
  602TIP3    H1 1770   2.180   3.980   1.978  2.1996 -1.2582  3.1056
  602TIP3    H2 1771   2.097   3.853   1.989  0.5322 -0.7008 -1.1515
  603TIP3   OH2 1772   0.676   1.358   4.960 -0.1233  0.2198  0.7915
  603TIP3    H1 1773   0.704   1.281   4.910 -1.6618  0.0791  0.0817
  603TIP3    H2 1774   0.678   1.329   5.051 -0.5792 -0.6482  0.5382
  604TIP3   OH2 1775   6.862   1.236   1.282  0.1070 -0.0022  0.1199
  604TIP3    H1 1776   6.794   1.175   1.311 -0.0352  0.3358  0.5076
  604TIP3    H2 1777   6.824   1.323   1.296  1.0500  0.2282  1.5099
  605TIP3   OH2 1778   0.481   4.801   3.690 -0.7556 -0.4030  0.4351
  605TIP3    H1 1779   0.431   4.788   3.771  0.3661  0.4905  1.3228
  605TIP3    H2 1780   0.474   4.895   3.672  1.1693 -0.0829  1.0365
  606TIP3   OH2 1781   6.347   4.099   1.304  0.2928 -0.0721 -0.4112
  606TIP3    H1 1782   6.400   4.178   1.313  0.7529 -0.3765 -0.4305
  606TIP3    H2 1783   6.408   4.032   1.276 -0.3745 -0.0857 -1.9072
  607TIP3   OH2 1784   6.685   4.611   1.416  0.4554  0.4085  0.1726
  607TIP3    H1 1785   6.777   4.585   1.421  0.2250 -2.0755 -4.0858
  607TIP3    H2 1786   6.687   4.701   1.383  1.2820  0.6415  0.8162
  608TIP3   OH2 1787   1.322   0.559   3.910  0.2018 -0.5984  0.3717
  608TIP3    H1 1788   1.328   0.476   3.862  1.8912  0.5434 -1.5598
  608TIP3    H2 1789   1.412   0.589   3.918 -0.4169  1.4955  0.1728
  609TIP3   OH2 1790   3.911   3.232   5.339  0.2340  0.1073  0.2650
  609TIP3    H1 1791   3.885   3.246   5.248  0.2075 -1.5026 -0.0184
  609TIP3    H2 1792   4.005   3.217   5.335 -0.1658 -3.2676 -0.0557
  610TIP3   OH2 1793   0.015   5.041   5.560 -0.2618  0.2728 -0.3654
  610TIP3    H1 1794   0.095   4.994   5.537 -0.6727 -0.3735 -0.5003
  610TIP3    H2 1795   0.022   5.125   5.516 -1.4062 -1.2034 -3.6461
  611TIP3   OH2 1796   6.277   3.534   4.080  0.1351  0.1845  0.6272
  611TIP3    H1 1797   6.310   3.515   4.167  0.9879  1.1210  0.5281
  611TIP3    H2 1798   6.185   3.509   4.083 -0.2101  1.4483  2.2189
  612TIP3   OH2 1799   7.024   2.619   4.979 -0.2691 -0.0506 -0.3475
  612TIP3    H1 1800   6.969   2.566   4.920 -1.4936  0.9177 -0.1296
  612TIP3    H2 1801   6.963   2.681   5.019  0.7442  0.0447  1.1070
  613TIP3   OH2 1802   5.609   0.177   2.429 -0.3375  0.2635  0.5114
  613TIP3    H1 1803   5.581   0.137   2.347  0.1916 -0.2922  0.5971
  613TIP3    H2 1804   5.588   0.112   2.497  0.5434  0.1126  0.6480
  614TIP3   OH2 1805   2.683   1.341   2.796 -0.1304  0.1204 -0.3755
  614TIP3    H1 1806   2.631   1.267   2.827  0.2777 -0.5595 -1.2756
  614TIP3    H2 1807   2.623   1.416   2.800 -0.7051 -0.3519  0.0601
  615TIP3   OH2 1808   5.236   4.179   0.978 -0.2658 -0.2992  0.0589
  615TIP3    H1 1809   5.205   4.245   0.916  1.1634 -1.1824 -1.7212
  615TIP3    H2 1810   5.314   4.217   1.017 -0.5128 -0.2051  0.4690
  616TIP3   OH2 1811   1.800   2.985   4.255  0.0080  0.6469  0.2162
  616TIP3    H1 1812   1.838   3.042   4.188  3.0412 -0.2173  1.0893
  616TIP3    H2 1813   1.845   2.901   4.244 -2.6418 -0.9286  0.5097
  617TIP3   OH2 1814   3.748   4.734   0.676 -0.7480  0.2237 -0.3965
  617TIP3    H1 1815   3.726   4.670   0.608 -1.1966  1.1835 -1.1815
  617TIP3    H2 1816   3.690   4.808   0.659  1.2614  1.7815 -0.9133
  618TIP3   OH2 1817   1.928   6.585   5.227 -0.4466  0.2209 -0.1794
  618TIP3    H1 1818   1.892   6.614   5.143 -0.0595 -0.1572 -0.4728
  618TIP3    H2 1819   2.021   6.607   5.222 -0.6172  1.2129  0.5880
  619TIP3   OH2 1820   2.712   3.308   2.500  0.4626 -0.4881 -0.0799
  619TIP3    H1 1821   2.751   3.396   2.505 -1.3356  0.3079  3.2612
  619TIP3    H2 1822   2.777   3.251   2.539  1.1701 -0.4872 -1.2127
  620TIP3   OH2 1823   6.456   4.113   4.929  0.0734  0.0571 -0.3258
  620TIP3    H1 1824   6.407   4.168   4.869  1.3908  1.3120 -0.3162
  620TIP3    H2 1825   6.547   4.143   4.921  0.9037 -2.2665 -0.4623
  621TIP3   OH2 1826   1.573   4.435   0.625 -0.0409 -0.0718  0.2731
  621TIP3    H1 1827   1.482   4.464   0.629 -0.0699 -0.1866  0.4141
  621TIP3    H2 1828   1.597   4.446   0.532 -0.1689  0.0444  0.2533
  622TIP3   OH2 1829   3.959   5.594   5.693 -0.5706 -0.1593 -0.6712
  622TIP3    H1 1830   3.975   5.644   5.773  0.3349 -0.3091 -0.7433
  622TIP3    H2 1831   3.971   5.503   5.720  0.4778 -0.1730 -1.1230
  623TIP3   OH2 1832   2.247   2.171   1.640 -0.2134  0.6805 -0.5552
  623TIP3    H1 1833   2.205   2.242   1.689 -1.9564 -0.5727 -0.1406
  623TIP3    H2 1834   2.177   2.110   1.622  0.8500  0.0249 -2.7327
  624TIP3   OH2 1835   4.375   0.337   1.944  0.2759  0.0024 -0.4006
  624TIP3    H1 1836   4.284   0.311   1.928  0.2060  0.6989 -1.2216
  624TIP3    H2 1837   4.383   0.422   1.901  1.2595  0.0460 -0.1470
  625TIP3   OH2 1838   5.170   3.355   5.582  0.3641 -0.5760 -0.1652
  625TIP3    H1 1839   5.080   3.324   5.584  0.3286 -0.4649 -0.0574
  625TIP3    H2 1840   5.190   3.379   5.673 -0.7143  2.9171 -0.7083
  626TIP3   OH2 1841   1.873   5.271   3.024 -0.1325  0.2368 -0.6401
  626TIP3    H1 1842   1.931   5.346   3.037 -0.8382  0.8310 -0.8492
  626TIP3    H2 1843   1.916   5.220   2.955  0.0857  0.7168 -0.8638
  627TIP3   OH2 1844   0.796   5.167   4.524 -0.7489  0.0183 -0.3657
  627TIP3    H1 1845   0.791   5.115   4.604  0.3556  0.9492  0.3473
  627TIP3    H2 1846   0.705   5.183   4.499 -1.1046 -0.2630  0.7293
  628TIP3   OH2 1847   5.238   1.892   3.207 -0.7077 -0.3944  0.1549
  628TIP3    H1 1848   5.185   1.911   3.129 -2.5184 -1.4363  1.0594
  628TIP3    H2 1849   5.269   1.802   3.193  0.4888  0.0512 -0.1573
  629TIP3   OH2 1850   2.725   4.814   1.217 -0.4265  0.2765  0.1493
  629TIP3    H1 1851   2.664   4.747   1.185 -0.2924  0.4278 -0.4516
  629TIP3    H2 1852   2.670   4.887   1.243 -0.5867 -0.1389  1.0011
  630TIP3   OH2 1853   4.363  -0.009   4.703 -0.3819  0.4937 -0.5268
  630TIP3    H1 1854   4.284  -0.004   4.648  0.4533  0.5243 -1.7703
  630TIP3    H2 1855   4.424   0.052   4.661 -0.6616  2.7875  2.1286
  631TIP3   OH2 1856   5.877   3.755   2.943 -0.3936  0.0869 -0.0731
  631TIP3    H1 1857   5.799   3.740   2.890 -0.0528  2.2914 -1.3287
  631TIP3    H2 1858   5.943   3.785   2.881  2.9342 -5.4379  0.1713
  632TIP3   OH2 1859   2.253   2.981   3.695 -0.5110 -0.3588  0.3851
  632TIP3    H1 1860   2.246   2.886   3.689 -0.0318 -0.3942  0.3533
  632TIP3    H2 1861   2.241   3.012   3.605 -0.3726 -0.4089  0.3495
  633TIP3   OH2 1862   4.976   3.961   2.588 -0.2574 -0.0311 -0.9143
  633TIP3    H1 1863   4.947   4.049   2.563  0.5869  0.2631 -0.9004
  633TIP3    H2 1864   5.071   3.965   2.582 -0.2163 -0.9906 -1.0430
  634TIP3   OH2 1865   3.650   1.878   3.587 -0.3265  0.4158 -0.7966
  634TIP3    H1 1866   3.672   1.949   3.527  2.0128 -0.7005 -1.3604
  634TIP3    H2 1867   3.670   1.913   3.674 -1.4560  1.2156 -0.8352
  635TIP3   OH2 1868   7.151   2.953   0.840 -0.4311 -0.3193  0.2672
  635TIP3    H1 1869   7.070   2.915   0.875 -0.1607 -0.6060  0.5935
  635TIP3    H2 1870   7.156   3.040   0.879 -1.4893  0.4194 -1.1406
  636TIP3   OH2 1871   5.989   4.596   3.432 -0.2297  0.5308 -0.0168
  636TIP3    H1 1872   5.983   4.508   3.394 -0.1904  0.5565 -0.0826
  636TIP3    H2 1873   6.001   4.654   3.356 -1.4255  0.7153 -0.0838
  637TIP3   OH2 1874   1.460   5.057   4.745  0.0691  0.4474 -0.3379
  637TIP3    H1 1875   1.384   5.067   4.802  0.1285 -1.0094  0.0586
  637TIP3    H2 1876   1.464   4.962   4.728  1.4035  0.5814 -0.8810
  638TIP3   OH2 1877   6.640   6.560   0.084 -0.1143 -0.2896 -0.1247
  638TIP3    H1 1878   6.687   6.532   0.162 -1.7667 -1.0628  0.6429
  638TIP3    H2 1879   6.653   6.654   0.080  0.8063 -0.3782  0.5071
  639TIP3   OH2 1880   4.908   1.498   1.269 -0.5618 -0.0731  0.5578
  639TIP3    H1 1881   4.853   1.574   1.253  0.3283  0.8867  1.8943
  639TIP3    H2 1882   4.862   1.450   1.338 -0.6261 -0.2276  0.4082
  640TIP3   OH2 1883   2.367   1.982   1.411 -0.0548 -0.4132  0.2052
  640TIP3    H1 1884   2.437   2.044   1.435 -0.2547 -0.1314  0.0626
  640TIP3    H2 1885   2.357   1.927   1.488 -1.8495  1.5267  1.4700
  641TIP3   OH2 1886   3.333   0.351   1.393  0.0215  0.2206  0.1509
  641TIP3    H1 1887   3.259   0.339   1.454 -0.2371 -0.1852 -0.2354
  641TIP3    H2 1888   3.406   0.305   1.435 -0.3257 -0.6297 -0.1444
  642TIP3   OH2 1889   4.272   1.838   2.561 -0.1734 -0.5053  0.1923
  642TIP3    H1 1890   4.323   1.856   2.640  0.4976 -2.6367  0.2895
  642TIP3    H2 1891   4.283   1.745   2.545 -1.1539 -0.3348 -1.8464
  643TIP3   OH2 1892   6.493   1.737   1.463  0.6882  0.5812 -0.1146
  643TIP3    H1 1893   6.399   1.716   1.467  0.6334  0.9558  0.7778
  643TIP3    H2 1894   6.523   1.728   1.554  1.8294 -0.8934 -0.5884
  644TIP3   OH2 1895   5.837   0.423   2.159  0.4307 -0.0873  0.1697
  644TIP3    H1 1896   5.771   0.401   2.093  0.4315  1.3324 -0.3488
  644TIP3    H2 1897   5.789   0.477   2.222  1.3530  2.3117 -1.0313
  645TIP3   OH2 1898   0.502   6.057   5.405  0.2545 -0.4013 -0.8052
  645TIP3    H1 1899   0.522   6.101   5.488 -0.3074 -0.5696 -0.5728
  645TIP3    H2 1900   0.563   5.983   5.402  0.4964 -0.2068 -0.6985
  646TIP3   OH2 1901   2.724   3.574   0.086  0.3110  0.4605  0.7018
  646TIP3    H1 1902   2.739   3.540   0.175  0.6635  0.8819  0.8062
  646TIP3    H2 1903   2.635   3.610   0.090  1.0022  2.1907  1.4463
  647TIP3   OH2 1904   3.891   5.535   1.111  0.1669 -0.4748 -0.4159
  647TIP3    H1 1905   3.875   5.618   1.066  0.6263  0.0118  0.2862
  647TIP3    H2 1906   3.985   5.536   1.129  0.1001 -0.9513 -0.0174
  648TIP3   OH2 1907   0.851   0.087   3.881  0.8797  0.0448  0.1259
  648TIP3    H1 1908   0.876   0.086   3.974  0.3525  0.4915  0.2846
  648TIP3    H2 1909   0.934   0.090   3.834  1.2283 -2.1113  0.5143
  649TIP3   OH2 1910   4.173   3.943   3.994  0.6168 -0.0901  0.9430
  649TIP3    H1 1911   4.108   3.882   4.027  0.1853 -0.2732 -0.2329
  649TIP3    H2 1912   4.246   3.888   3.966 -0.2789 -0.2074 -1.3008
  650TIP3   OH2 1913   5.133   6.455   4.752  0.6137  0.2415  0.1972
  650TIP3    H1 1914   5.205   6.457   4.690 -0.0372  1.8236 -0.5670
  650TIP3    H2 1915   5.126   6.545   4.783 -1.4401  0.2943 -0.2805
  651TIP3   OH2 1916   3.991   3.432   3.870 -0.0146  0.3569  0.2940
  651TIP3    H1 1917   3.945   3.348   3.862  1.6142 -0.6794  1.1546
  651TIP3    H2 1918   4.028   3.430   3.958 -1.3796  2.7867  1.0130
  652TIP3   OH2 1919   6.927   4.818   0.374 -0.1056  0.1069  0.0690
  652TIP3    H1 1920   6.908   4.798   0.282 -1.4817  1.0978  0.1014
  652TIP3    H2 1921   7.004   4.766   0.395 -1.0355 -1.8083 -1.0267
  653TIP3   OH2 1922   6.252   5.355   2.987  0.5561 -0.9729  0.3053
  653TIP3    H1 1923   6.334   5.380   2.945  0.2782  0.8963  0.7819
  653TIP3    H2 1924   6.254   5.400   3.072 -1.9874  1.1671 -0.6484
  654TIP3   OH2 1925   0.965   4.821   2.940 -0.1870  0.2859  0.0064
  654TIP3    H1 1926   0.950   4.794   3.031 -2.1358  0.9520 -0.0746
  654TIP3    H2 1927   0.948   4.742   2.888  0.4494  0.0307  0.1789
  655TIP3   OH2 1928   1.200   0.374   0.977 -0.4611  0.1623  0.4358
  655TIP3    H1 1929   1.250   0.366   0.896 -0.4856 -1.1917  0.5377
  655TIP3    H2 1930   1.153   0.457   0.968 -1.3995 -0.5170 -1.4692
  656TIP3   OH2 1931   6.896   2.908   1.991 -1.1676  0.2086  0.2907
  656TIP3    H1 1932   6.918   2.815   1.998  0.7391  0.4796 -1.0654
  656TIP3    H2 1933   6.881   2.922   1.897 -1.7544  1.2057  0.5161
  657TIP3   OH2 1934   2.349   5.550   0.200 -0.2273  0.1033  0.1709
  657TIP3    H1 1935   2.444   5.559   0.186 -0.5153  1.4023 -1.2211
  657TIP3    H2 1936   2.322   5.636   0.233 -1.1297  0.2419 -0.8899
  658TIP3   OH2 1937   4.224   5.526   0.658 -0.3534  0.1974  0.0559
  658TIP3    H1 1938   4.157   5.501   0.594  0.1749 -1.3298  0.0442
  658TIP3    H2 1939   4.282   5.586   0.611  0.7265 -1.8335 -1.3572
  659TIP3   OH2 1940   4.880   0.084   1.761  0.2175  0.4167  0.4146
  659TIP3    H1 1941   4.863   0.051   1.673 -0.0429  2.8880 -0.5566
  659TIP3    H2 1942   4.793   0.108   1.795  0.1434 -1.7405  1.9572
  660TIP3   OH2 1943   0.794   5.028   1.643 -0.5412 -0.1735  0.5754
  660TIP3    H1 1944   0.728   4.975   1.686  0.5541 -0.9490  1.3671
  660TIP3    H2 1945   0.770   5.027   1.551 -1.6419 -0.4037  0.8580
  661TIP3   OH2 1946   1.459   3.929   0.778  0.1718 -0.1095 -0.2630
  661TIP3    H1 1947   1.515   4.002   0.753  0.3727  0.5441  1.9521
  661TIP3    H2 1948   1.370   3.964   0.776 -0.0205 -0.5925 -1.7954
  662TIP3   OH2 1949   5.990   0.066   2.528  0.2447  0.1435  0.3198
  662TIP3    H1 1950   6.057  -0.002   2.529  0.7707  0.6464  1.3759
  662TIP3    H2 1951   6.032   0.140   2.484  0.6932  0.7172  1.6382
  663TIP3   OH2 1952   0.509   3.034   4.707 -0.2385  0.0142  0.5694
  663TIP3    H1 1953   0.450   2.959   4.716  0.4166 -0.6418 -0.5146
  663TIP3    H2 1954   0.557   3.036   4.789  0.0794 -1.0524  0.4206
  664TIP3   OH2 1955   5.260   0.822   4.694  0.2346  0.6361 -0.2057
  664TIP3    H1 1956   5.306   0.833   4.611  2.3532 -0.0886  0.7677
  664TIP3    H2 1957   5.279   0.902   4.743  0.5162  0.3216  0.2146
  665TIP3   OH2 1958   6.707   3.004   1.745 -0.3758 -0.2229 -0.0356
  665TIP3    H1 1959   6.760   2.964   1.676 -2.1108 -1.5585 -0.6545
  665TIP3    H2 1960   6.667   3.080   1.704 -1.1653 -0.8438 -0.4376
  666TIP3   OH2 1961   6.011   4.820   4.142  0.0767  0.1433 -0.0635
  666TIP3    H1 1962   5.966   4.755   4.089 -0.5895 -1.3367  2.1683
  666TIP3    H2 1963   5.940   4.872   4.180  0.4565  0.3353  0.3906
  667TIP3   OH2 1964   2.607   0.181   2.573 -0.0986 -0.1662 -0.0057
  667TIP3    H1 1965   2.549   0.188   2.649 -0.5339  1.7032 -0.4426
  667TIP3    H2 1966   2.666   0.108   2.593  0.0166  0.4929  2.2737
  668TIP3   OH2 1967   6.732   2.160   1.555 -0.6526 -0.2862  0.1748
  668TIP3    H1 1968   6.772   2.244   1.578  0.6885 -1.0670  0.8743
  668TIP3    H2 1969   6.799   2.116   1.502 -0.2493 -1.8976  1.9103
  669TIP3   OH2 1970   2.608   0.247   1.662  0.1623  0.5114  0.2419
  669TIP3    H1 1971   2.699   0.237   1.691  1.1298  3.3992 -1.3481
  669TIP3    H2 1972   2.608   0.329   1.612 -3.1502  0.1326 -0.6105
  670TIP3   OH2 1973   0.000   4.649   2.993 -0.2053 -0.0085  0.4164
  670TIP3    H1 1974   0.089   4.654   3.029  0.3838 -0.4635 -0.9243
  670TIP3    H2 1975  -0.019   4.739   2.965  0.5910 -0.2612 -1.0066
  671TIP3   OH2 1976   4.438   3.003   0.133 -0.0825  0.4250  0.1993
  671TIP3    H1 1977   4.504   3.067   0.160  0.7824 -0.2029 -0.3681
  671TIP3    H2 1978   4.474   2.919   0.160 -0.4135  0.0218 -0.5775
  672TIP3   OH2 1979   2.885   1.925   3.565 -0.1805  0.5641 -0.0037
  672TIP3    H1 1980   2.968   1.962   3.595  0.1406 -0.2009  0.0792
  672TIP3    H2 1981   2.902   1.831   3.558 -0.3943  0.6287 -2.0615
  673TIP3   OH2 1982   5.223   3.107   2.408  0.1091 -0.0650 -0.4170
  673TIP3    H1 1983   5.136   3.136   2.433  0.0860 -0.4363 -0.0559
  673TIP3    H2 1984   5.219   3.100   2.312 -0.4283 -0.6143 -0.3612
  674TIP3   OH2 1985   5.300   3.142   5.434  0.3312 -0.3006  0.7225
  674TIP3    H1 1986   5.249   3.195   5.496  0.0758 -1.1877  1.2868
  674TIP3    H2 1987   5.275   3.176   5.348 -2.8129 -1.9845  0.8102
  675TIP3   OH2 1988   1.624   1.056   2.955  0.2833  0.5741 -0.0938
  675TIP3    H1 1989   1.701   1.098   2.993 -0.1699  0.8357  0.5606
  675TIP3    H2 1990   1.610   0.978   3.008  0.5511  0.1032 -0.7017
  676TIP3   OH2 1991   5.476   1.961   0.492  0.1324 -0.3242 -0.2488
  676TIP3    H1 1992   5.449   1.932   0.579  0.0405  2.1477  0.6441
  676TIP3    H2 1993   5.562   1.922   0.479 -0.2377 -1.4564  0.5399
  677TIP3   OH2 1994   1.862   4.975   4.444  0.2844  0.1227 -0.1834
  677TIP3    H1 1995   1.791   5.025   4.482 -0.3624  0.1807 -1.4197
  677TIP3    H2 1996   1.897   4.923   4.517 -1.3501 -0.2974  0.3325
  678TIP3   OH2 1997   0.198   5.006   3.507  0.0505 -0.8685 -0.0083
  678TIP3    H1 1998   0.168   5.096   3.496 -1.0928 -1.2509 -0.1451
  678TIP3    H2 1999   0.272   5.012   3.567  1.0419  0.3346 -1.2795
  679TIP3   OH2 2000   3.237   5.371   4.731 -0.1009 -0.0835 -0.0069
  679TIP3    H1 2001   3.182   5.443   4.703  0.3925  0.1996 -0.2676
  679TIP3    H2 2002   3.276   5.401   4.814 -0.1497 -0.1818  0.0515
  680TIP3   OH2 2003   6.808   6.159   5.030 -0.3098  0.2040  0.1024
  680TIP3    H1 2004   6.811   6.169   5.125  0.2739 -0.1071  0.1248
  680TIP3    H2 2005   6.782   6.245   4.998  2.5515  1.2953  0.3956
  681TIP3   OH2 2006   1.889   2.856   3.365  0.4516  0.2863 -0.3362
  681TIP3    H1 2007   1.971   2.880   3.323 -0.1757 -1.4460 -2.7574
  681TIP3    H2 2008   1.840   2.938   3.371  1.4030  0.9238 -1.1209
  682TIP3   OH2 2009   5.525   0.315   1.318  0.2051 -0.2453 -0.6236
  682TIP3    H1 2010   5.588   0.251   1.352 -1.0924 -2.0517 -1.4495
  682TIP3    H2 2011   5.579   0.390   1.292  1.6034 -0.3195  1.8209
  683TIP3   OH2 2012   4.309   0.350   4.750  0.2521  0.3930 -0.3603
  683TIP3    H1 2013   4.389   0.356   4.803  0.0432  1.7606 -0.1634
  683TIP3    H2 2014   4.331   0.290   4.679  0.5690 -1.4468  1.2036
  684TIP3   OH2 2015   0.093   4.580   5.763 -0.3768  0.0768  0.3557
  684TIP3    H1 2016   0.052   4.568   5.849 -1.1832  2.0984  0.2865
  684TIP3    H2 2017   0.063   4.665   5.733 -0.0219 -0.5293 -1.9119
  685TIP3   OH2 2018   2.426   4.510   1.697 -0.3770 -0.1493  0.1806
  685TIP3    H1 2019   2.414   4.417   1.679  2.0704 -0.9345  2.0445
  685TIP3    H2 2020   2.362   4.529   1.767 -1.6428 -0.0845 -0.9482
  686TIP3   OH2 2021   0.638   2.590   0.806 -0.1952  0.2098  0.3242
  686TIP3    H1 2022   0.673   2.532   0.873  0.1020 -0.3118 -0.2733
  686TIP3    H2 2023   0.581   2.535   0.753  1.2689  0.0595 -1.1803
  687TIP3   OH2 2024   2.695   0.377   3.988 -0.1313  0.1687 -0.2461
  687TIP3    H1 2025   2.727   0.321   3.917  0.2319 -0.6498  0.5362
  687TIP3    H2 2026   2.773   0.397   4.039 -0.5599 -0.2312  0.5779
  688TIP3   OH2 2027   2.250   5.888   3.007  0.1825 -0.5886 -0.1157
  688TIP3    H1 2028   2.264   5.955   2.940  0.7575 -1.9231 -1.3725
  688TIP3    H2 2029   2.163   5.908   3.043  0.4697  0.9972 -0.2324
  689TIP3   OH2 2030   0.743   2.412   0.983  0.3046  0.6546 -0.0942
  689TIP3    H1 2031   0.809   2.405   1.052  0.0663  0.4626  0.1148
  689TIP3    H2 2032   0.660   2.418   1.030  0.2909  2.8214 -0.2705
  690TIP3   OH2 2033   3.132   2.177   3.854  0.5350 -0.6511  0.6350
  690TIP3    H1 2034   3.044   2.149   3.877  0.6171 -1.3194  0.1673
  690TIP3    H2 2035   3.158   2.235   3.925 -0.0224 -0.9783  1.1184
  691TIP3   OH2 2036   5.462   5.641   4.623 -0.5605  0.2436 -0.4236
  691TIP3    H1 2037   5.431   5.558   4.588 -1.2836  0.3890 -0.1546
  691TIP3    H2 2038   5.551   5.650   4.589 -0.5380 -0.5539 -0.5938
  692TIP3   OH2 2039   6.770   1.962   4.720 -0.2765  0.0069 -0.4263
  692TIP3    H1 2040   6.819   1.887   4.753  0.6123  0.7991  0.0954
  692TIP3    H2 2041   6.735   1.933   4.636  0.1776 -0.9383 -0.2983
  693TIP3   OH2 2042   2.640   3.996   3.458  0.1984  0.3182  0.3000
  693TIP3    H1 2043   2.692   4.072   3.484  0.9156 -0.5733  1.5396
  693TIP3    H2 2044   2.685   3.921   3.496 -0.1679 -0.8163 -1.3809
  694TIP3   OH2 2045   5.382   0.142   3.274 -0.0767  0.7457 -0.2370
  694TIP3    H1 2046   5.474   0.163   3.292  0.1677 -1.7611  2.0236
  694TIP3    H2 2047   5.386   0.071   3.210 -0.3021 -0.4137  0.9869
  695TIP3   OH2 2048   0.971   0.604   4.676 -0.6307 -0.2884  0.4401
  695TIP3    H1 2049   1.013   0.540   4.732 -0.2262  1.2869  2.0246
  695TIP3    H2 2050   0.917   0.657   4.735  1.2859  2.6520 -0.2310
  696TIP3   OH2 2051   6.095   4.033   4.822 -0.0270  0.5621 -0.3801
  696TIP3    H1 2052   6.109   3.940   4.838  0.2449  0.0903 -2.9867
  696TIP3    H2 2053   6.028   4.058   4.885 -0.0880 -1.3791  0.3971
  697TIP3   OH2 2054   0.146   2.617   3.504 -0.2210 -0.0157  0.4220
  697TIP3    H1 2055   0.133   2.626   3.598 -1.3524  1.7743  0.1491
  697TIP3    H2 2056   0.189   2.699   3.478 -0.0293 -0.4390 -0.6392
  698TIP3   OH2 2057   5.340   2.363   3.749 -0.0850  0.1253 -0.1882
  698TIP3    H1 2058   5.431   2.337   3.737  0.0410  1.1296 -1.8288
  698TIP3    H2 2059   5.290   2.282   3.745  0.6800 -0.3732  0.1698
  699TIP3   OH2 2060   5.951   6.491   5.063  0.5604 -0.0528 -0.3061
  699TIP3    H1 2061   6.012   6.452   5.125 -0.0167 -1.4944 -0.6235
  699TIP3    H2 2062   5.945   6.583   5.090  2.0223 -0.1291  0.3841
  700TIP3   OH2 2063   3.933   3.637   2.990  0.5384  0.4463  0.3975
  700TIP3    H1 2064   3.998   3.596   2.933  1.2334 -2.3885  3.0122
  700TIP3    H2 2065   3.981   3.704   3.037  1.2310 -0.5676  1.1744
  701TIP3   OH2 2066   3.692   6.489   3.906 -0.1260 -0.8737 -0.2162
  701TIP3    H1 2067   3.766   6.549   3.897  0.0509 -1.2528 -1.5477
  701TIP3    H2 2068   3.700   6.453   3.995 -0.0237  0.7556  0.4695
  702TIP3   OH2 2069   2.592   6.141   3.318 -0.0817  0.4179 -0.6053
  702TIP3    H1 2070   2.502   6.110   3.321 -0.6188  1.9706  1.6308
  702TIP3    H2 2071   2.644   6.061   3.304 -1.7342 -0.5640 -1.4569
  703TIP3   OH2 2072   2.739   3.188   1.671 -0.4165 -0.2484 -0.5097
  703TIP3    H1 2073   2.688   3.157   1.596 -0.4641 -0.0353 -0.5662
  703TIP3    H2 2074   2.760   3.279   1.650 -0.6723 -0.1008 -0.1349
  704TIP3   OH2 2075   3.357   6.082   1.665  0.0919 -0.0753  0.0642
  704TIP3    H1 2076   3.292   6.022   1.703 -0.8210  1.2485  0.6668
  704TIP3    H2 2077   3.341   6.165   1.709  2.8027  0.0988  0.8777
  705TIP3   OH2 2078   6.921   3.274   1.728 -0.2598 -0.5601 -0.0118
  705TIP3    H1 2079   6.956   3.189   1.700  1.3680  0.4421 -1.1604
  705TIP3    H2 2080   6.960   3.337   1.668  0.5270  1.3217  2.3419
  706TIP3   OH2 2081   4.119   2.941   0.231 -0.4236  0.1301  0.7884
  706TIP3    H1 2082   4.132   2.851   0.201  2.2312  0.1752  1.5196
  706TIP3    H2 2083   4.096   2.932   0.323  0.2703  0.1994  0.9709
  707TIP3   OH2 2084   6.942   2.782   1.729 -0.0244 -0.2750 -0.0172
  707TIP3    H1 2085   6.863   2.756   1.681  0.0579  1.1812 -1.0161
  707TIP3    H2 2086   7.008   2.716   1.705 -0.2264 -0.0494 -1.2525
  708TIP3   OH2 2087   7.142   1.085   0.375 -0.1498  0.6233  0.6323
  708TIP3    H1 2088   7.125   1.103   0.467 -3.3443 -0.4384  0.3767
  708TIP3    H2 2089   7.108   0.997   0.361  0.8263  0.5113 -1.4291
  709TIP3   OH2 2090   3.186   3.980   1.304 -0.0490 -0.1562  0.3382
  709TIP3    H1 2091   3.180   4.063   1.258 -0.7237 -0.1646  0.3970
  709TIP3    H2 2092   3.243   3.998   1.379  1.6605 -0.3280 -0.8593
  710TIP3   OH2 2093   6.700   0.587   4.671  0.6211 -0.3907  0.8422
  710TIP3    H1 2094   6.621   0.562   4.719  0.5510  0.6712  1.3145
  710TIP3    H2 2095   6.695   0.539   4.588 -0.4601 -0.4130  0.9156
  711TIP3   OH2 2096   3.223   3.052   5.078 -0.2048  0.5444 -0.0958
  711TIP3    H1 2097   3.245   2.997   5.002  1.0571 -0.5814  1.0482
  711TIP3    H2 2098   3.128   3.065   5.071 -0.3318 -0.7317 -1.0888
  712TIP3   OH2 2099   0.675   1.592   3.426  0.0126  0.4013  0.0424
  712TIP3    H1 2100   0.629   1.658   3.477 -0.6610 -1.5378  2.0773
  712TIP3    H2 2101   0.713   1.533   3.491  1.3470 -0.7425 -1.6742
  713TIP3   OH2 2102   2.172   0.188   3.274  0.3485 -0.2766  0.1967
  713TIP3    H1 2103   2.106   0.205   3.207  1.4382 -1.3264 -1.1888
  713TIP3    H2 2104   2.133   0.120   3.330 -0.3867  0.2943  0.4007
  714TIP3   OH2 2105   4.924   0.657   0.837 -0.7042  0.3345  0.3081
  714TIP3    H1 2106   4.904   0.743   0.799 -0.4987 -0.3485 -1.4538
  714TIP3    H2 2107   4.841   0.609   0.832 -0.7294  0.2985  0.9604
  715TIP3   OH2 2108   1.506   5.203   4.354  0.0305 -0.0343  0.4005
  715TIP3    H1 2109   1.522   5.109   4.348  1.6091  0.2752 -0.7739
  715TIP3    H2 2110   1.472   5.227   4.268 -1.2239  0.3563  0.9723
  716TIP3   OH2 2111   0.713   1.900   2.229  0.4173 -0.5031  0.1663
  716TIP3    H1 2112   0.676   1.981   2.263  1.2775  0.1752 -0.4882
  716TIP3    H2 2113   0.679   1.832   2.287 -2.7302 -0.0802 -0.9957
  717TIP3   OH2 2114   3.056   6.056   1.716 -0.1212  0.1169 -0.0257
  717TIP3    H1 2115   2.975   6.026   1.675 -0.6547  1.8183 -0.2950
  717TIP3    H2 2116   3.039   6.147   1.739  1.3701  0.2047  0.8648
  718TIP3   OH2 2117   6.880   0.301   2.915  0.3233  0.2886 -0.1024
  718TIP3    H1 2118   6.870   0.206   2.914 -0.9658  0.4045 -0.3634
  718TIP3    H2 2119   6.817   0.332   2.850  0.2091  1.3598  0.4972
  719TIP3   OH2 2120   6.890   1.721   4.837 -0.2694  0.3187  0.2659
  719TIP3    H1 2121   6.858   1.684   4.919 -0.4526  1.5810  0.7809
  719TIP3    H2 2122   6.984   1.733   4.851 -0.2493  0.2733  0.1770
  720TIP3   OH2 2123   1.282   3.221   2.313 -0.1261  0.4081 -0.1642
  720TIP3    H1 2124   1.352   3.166   2.279  0.4995  1.1476 -0.1194
  720TIP3    H2 2125   1.310   3.242   2.403 -0.6342  0.3291  0.0143
  721TIP3   OH2 2126   7.076   4.129   1.454  0.6584  0.0354  0.1622
  721TIP3    H1 2127   7.147   4.066   1.438  1.7919  1.1061  0.7765
  721TIP3    H2 2128   6.999   4.089   1.415  1.0240 -2.4003  1.7240
  722TIP3   OH2 2129   4.156   5.397   4.419 -0.6197 -0.0229 -0.0239
  722TIP3    H1 2130   4.166   5.492   4.423 -0.5366 -0.0121 -0.4441
  722TIP3    H2 2131   4.213   5.370   4.348  0.2404 -0.5204  0.8383
  723TIP3   OH2 2132   4.275   1.371   0.314 -0.1721 -0.3519 -0.2813
  723TIP3    H1 2133   4.247   1.284   0.342  1.2875  0.0983  3.0632
  723TIP3    H2 2134   4.239   1.431   0.379  1.0538  1.2116 -0.9632
  724TIP3   OH2 2135   4.052   4.328   0.983  0.2687 -0.5713  0.4849
  724TIP3    H1 2136   4.030   4.419   1.003  0.2094 -0.8548  1.7744
  724TIP3    H2 2137   3.968   4.288   0.959  0.3759 -0.1742 -0.6188
  725TIP3   OH2 2138   4.649   0.656   5.359  0.0133 -0.3675  0.1791
  725TIP3    H1 2139   4.703   0.731   5.385  0.5983  0.8863 -3.8906
  725TIP3    H2 2140   4.672   0.587   5.421  1.1667  2.1075  2.7354
  726TIP3   OH2 2141   4.565   2.499   5.566 -0.6009  0.3921  0.3456
  726TIP3    H1 2142   4.594   2.526   5.479 -0.2691 -0.6581  0.1180
  726TIP3    H2 2143   4.644   2.503   5.620 -0.5837  0.0409  0.3482
  727TIP3   OH2 2144   2.599   6.142   1.583 -0.3330 -0.0111  0.3930
  727TIP3    H1 2145   2.535   6.197   1.628 -1.1056  0.1006 -0.8057
  727TIP3    H2 2146   2.616   6.188   1.501 -0.5812 -1.2956 -0.3875
  728TIP3   OH2 2147   5.734   6.544   4.105 -0.2548 -0.0401 -0.1064
  728TIP3    H1 2148   5.735   6.495   4.188  1.3186 -0.3464 -0.2839
  728TIP3    H2 2149   5.646   6.530   4.071 -0.1399 -2.0560  0.2771
  729TIP3   OH2 2150   5.751   3.576   3.955 -0.0718 -0.3263  0.4766
  729TIP3    H1 2151   5.759   3.639   4.026 -1.3338  0.8816 -0.3903
  729TIP3    H2 2152   5.795   3.618   3.881 -2.5824  0.5370 -0.6685
  730TIP3   OH2 2153   1.212   0.703   2.924 -0.0174  0.4251 -0.1317
  730TIP3    H1 2154   1.167   0.765   2.982  1.2306 -0.5600  1.9828
  730TIP3    H2 2155   1.284   0.753   2.887  0.0994  0.6474  0.3917
  731TIP3   OH2 2156   3.923   2.340   4.566  0.4464  0.5764 -0.0953
  731TIP3    H1 2157   4.015   2.331   4.594  0.0722 -3.0661  0.4920
  731TIP3    H2 2158   3.929   2.375   4.477  2.2969  1.6644  0.3832
  732TIP3   OH2 2159   0.931   1.726   3.726  0.0482  0.3569  0.2213
  732TIP3    H1 2160   0.894   1.811   3.701 -1.0532  0.1716  1.1426
  732TIP3    H2 2161   0.977   1.742   3.808  0.5861  0.2236 -0.0447
  733TIP3   OH2 2162   6.463   1.823   4.633  0.1327 -0.6087  0.1400
  733TIP3    H1 2163   6.515   1.771   4.694 -0.4883  0.1886  1.3815
  733TIP3    H2 2164   6.525   1.887   4.598  0.0866  0.1601  1.4058
  734TIP3   OH2 2165   6.311   3.095   4.230 -0.1454 -0.3378  0.0777
  734TIP3    H1 2166   6.261   3.103   4.149  0.2867  0.7609 -0.0848
  734TIP3    H2 2167   6.394   3.056   4.203 -0.7931 -1.9802  0.3203
  735TIP3   OH2 2168   5.259   3.303   4.501 -0.3263  0.2031 -0.1425
  735TIP3    H1 2169   5.179   3.283   4.549 -0.1995 -0.4742 -0.1906
  735TIP3    H2 2170   5.255   3.397   4.485 -1.4911  0.0548 -0.8330
  736TIP3   OH2 2171   3.931   0.288   4.188  0.1394  0.5269  0.0038
  736TIP3    H1 2172   3.977   0.298   4.272  1.6333 -0.6657 -0.6118
  736TIP3    H2 2173   3.839   0.305   4.209  0.4762  0.3325  1.8748
  737TIP3   OH2 2174   3.614   3.262   1.751  0.4225  0.1840  0.0609
  737TIP3    H1 2175   3.619   3.307   1.667  0.9666  0.1139  0.0534
  737TIP3    H2 2176   3.663   3.318   1.811  4.1150 -1.9706 -0.6442
  738TIP3   OH2 2177   4.234   6.364   3.074  0.0188  0.4686 -0.5764
  738TIP3    H1 2178   4.177   6.327   3.140 -0.9026  0.5991 -1.2739
  738TIP3    H2 2179   4.175   6.406   3.012  0.9692  2.4160 -0.2438
  739TIP3   OH2 2180   2.488   2.383   2.376  0.1752  0.2069 -0.4198
  739TIP3    H1 2181   2.523   2.411   2.291 -1.9858  0.2537 -1.3475
  739TIP3    H2 2182   2.441   2.301   2.357 -1.9392  1.1889  0.3141
  740TIP3   OH2 2183   5.275   3.135   5.836 -0.0036  0.2134 -0.0208
  740TIP3    H1 2184   5.361   3.095   5.845  1.2706  3.0028  1.4652
  740TIP3    H2 2185   5.214   3.070   5.870  1.8131 -0.8717  1.3281
  741TIP3   OH2 2186   0.225   0.329   2.784  0.2594 -0.0257 -0.4234
  741TIP3    H1 2187   0.303   0.346   2.837  0.3853  1.0918 -0.9366
  741TIP3    H2 2188   0.163   0.289   2.845  1.4421 -1.5449 -0.1681
  742TIP3   OH2 2189   5.602   4.574   2.831  0.3859  0.3826 -0.3124
  742TIP3    H1 2190   5.667   4.507   2.809  0.8492  0.4440  0.7620
  742TIP3    H2 2191   5.654   4.644   2.871 -0.2506  0.8044 -0.2152
  743TIP3   OH2 2192   4.118   0.708   4.760  0.3185 -0.6957 -0.1718
  743TIP3    H1 2193   4.143   0.673   4.846  1.8030 -0.5942 -0.5469
  743TIP3    H2 2194   4.199   0.712   4.710  0.2340  2.8127 -0.3239
  744TIP3   OH2 2195   6.584   5.443   1.969  0.1851 -0.2997 -0.0428
  744TIP3    H1 2196   6.642   5.519   1.967 -0.3036  0.1412  1.4803
  744TIP3    H2 2197   6.631   5.378   2.020 -0.1778 -0.3388  0.2476
  745TIP3   OH2 2198   2.802   1.594   0.968 -0.2749  0.7055 -0.4398
  745TIP3    H1 2199   2.745   1.657   1.012 -0.3865  0.6709 -0.5327
  745TIP3    H2 2200   2.853   1.554   1.039 -0.0396  1.0657 -0.4079
  746TIP3   OH2 2201   6.532   3.696   5.287  0.1597 -0.4484 -0.1731
  746TIP3    H1 2202   6.449   3.664   5.323 -0.0382 -0.2455 -0.4517
  746TIP3    H2 2203   6.547   3.641   5.210  0.2408 -0.4286 -0.1709
  747TIP3   OH2 2204   1.618   3.775   5.602 -0.4073 -0.1422  0.1993
  747TIP3    H1 2205   1.673   3.780   5.523  0.2542 -0.2624  0.6448
  747TIP3    H2 2206   1.529   3.762   5.568  0.0140 -1.3819 -0.5216
  748TIP3   OH2 2207   4.306   2.888   1.716 -0.1566  0.1199  0.0781
  748TIP3    H1 2208   4.289   2.822   1.648  1.1657  1.5259 -1.7118
  748TIP3    H2 2209   4.288   2.842   1.798 -2.0556 -1.5913 -1.1813
  749TIP3   OH2 2210   5.840   0.950   3.842 -0.1239 -0.2359  0.3570
  749TIP3    H1 2211   5.746   0.934   3.849  0.0725 -2.2466 -0.9840
  749TIP3    H2 2212   5.847   1.045   3.829 -2.1771 -0.3481 -2.3285
  750TIP3   OH2 2213   1.738   4.412   1.868 -0.0806 -0.3358 -0.2819
  750TIP3    H1 2214   1.665   4.387   1.811  0.5437 -1.6296 -0.5439
  750TIP3    H2 2215   1.778   4.487   1.824  1.0658 -1.9784 -2.2150
  751TIP3   OH2 2216   4.624   6.232   2.140 -0.7634  0.5550  0.6204
  751TIP3    H1 2217   4.531   6.252   2.134 -1.2730 -1.8205 -0.5695
  751TIP3    H2 2218   4.632   6.143   2.107  2.0657  0.9517 -0.0514
  752TIP3   OH2 2219   0.391   4.687   2.054 -0.0933  0.0504  0.0117
  752TIP3    H1 2220   0.410   4.593   2.046 -1.8571 -0.2261 -1.6635
  752TIP3    H2 2221   0.478   4.728   2.059  0.7181 -1.6726  1.4201
  753TIP3   OH2 2222   7.034   4.412   1.218  0.2007 -0.3237  0.2614
  753TIP3    H1 2223   7.091   4.338   1.241 -0.1154 -0.5426  0.3386
  753TIP3    H2 2224   7.095   4.478   1.185  0.4387 -0.7932 -0.2685
  754TIP3   OH2 2225   5.775   4.353   4.784  0.4812 -0.3258  0.3137
  754TIP3    H1 2226   5.796   4.356   4.877 -2.3368  0.1685  1.0443
  754TIP3    H2 2227   5.682   4.329   4.781  0.5374 -0.5590 -2.3903
  755TIP3   OH2 2228   6.088   0.804   1.211  0.1833 -0.5183  0.3438
  755TIP3    H1 2229   6.105   0.802   1.117  0.4071 -2.1135  0.3967
  755TIP3    H2 2230   6.137   0.880   1.243  1.1674 -0.7252 -0.6248
  756TIP3   OH2 2231   2.543   5.846   1.799 -0.2139 -0.3492  0.3182
  756TIP3    H1 2232   2.539   5.862   1.704 -0.2097 -0.9058  0.2234
  756TIP3    H2 2233   2.523   5.753   1.808 -1.1425 -0.1011  0.9375
  757TIP3   OH2 2234   0.619   5.204   2.146  0.2869 -0.4311  0.1264
  757TIP3    H1 2235   0.561   5.163   2.210 -0.0766  0.9289  0.7182
  757TIP3    H2 2236   0.679   5.257   2.198  0.4981  0.0691 -0.6010
  758TIP3   OH2 2237   3.986   2.047   2.725  0.0292 -0.0668 -0.1804
  758TIP3    H1 2238   3.963   1.959   2.695  0.5468  0.2803 -1.6951
  758TIP3    H2 2239   4.034   2.085   2.651  1.3182  0.8794  1.1022
  759TIP3   OH2 2240   6.713   1.759   4.075  1.0097  0.5126  0.5354
  759TIP3    H1 2241   6.752   1.709   4.147  0.2793  0.5836  0.9843
  759TIP3    H2 2242   6.740   1.850   4.092  1.3270  0.4463  0.3908
  760TIP3   OH2 2243   6.738   6.090   3.352 -0.3059 -0.6663 -0.4140
  760TIP3    H1 2244   6.725   6.011   3.300 -2.2095  0.4911 -1.8376
  760TIP3    H2 2245   6.700   6.069   3.438  0.1283 -1.6000 -0.4354
  761TIP3   OH2 2246   6.318   0.187   4.562  0.3387  0.3111 -0.0679
  761TIP3    H1 2247   6.291   0.270   4.602  0.2746 -0.3159  1.2254
  761TIP3    H2 2248   6.242   0.130   4.570 -0.2503  0.6310 -2.5560
  762TIP3   OH2 2249   2.537   0.208   1.952 -0.4651 -0.1438 -0.2682
  762TIP3    H1 2250   2.470   0.266   1.916 -0.8215  0.2860  1.0413
  762TIP3    H2 2251   2.561   0.152   1.878 -1.9497 -0.0203 -0.8996
  763TIP3   OH2 2252   4.139   4.489   4.240  0.0568 -0.1918 -0.4107
  763TIP3    H1 2253   4.135   4.411   4.295  0.7905  1.8414  2.7732
  763TIP3    H2 2254   4.216   4.475   4.184  1.5748 -0.8633  1.7203
  764TIP3   OH2 2255   7.018   3.909   2.486 -0.5474 -0.0251  0.2174
  764TIP3    H1 2256   6.961   3.834   2.505 -0.6603  0.2729  1.0825
  764TIP3    H2 2257   7.030   3.906   2.391  0.7946 -2.1063  0.3993
  765TIP3   OH2 2258   2.464   2.948   1.730  0.0184  0.3666  0.0390
  765TIP3    H1 2259   2.385   2.985   1.688 -0.5754  1.8107  2.2687
  765TIP3    H2 2260   2.488   3.012   1.797  3.1359 -0.0444 -0.5401
  766TIP3   OH2 2261   4.840   4.273   0.780  0.0125  0.3717  0.1180
  766TIP3    H1 2262   4.791   4.328   0.719  0.6475 -1.0234 -1.7504
  766TIP3    H2 2263   4.777   4.205   0.807 -0.1692  0.7908  0.7624
  767TIP3   OH2 2264   0.337   2.273   3.074  0.0046 -0.5829 -0.4432
  767TIP3    H1 2265   0.398   2.208   3.038 -1.6617 -1.9403 -0.9239
  767TIP3    H2 2266   0.352   2.351   3.021  1.4070 -0.8252 -0.4556
  768TIP3   OH2 2267   6.209   0.451   0.854 -0.1895 -0.1614  0.5752
  768TIP3    H1 2268   6.272   0.473   0.785 -0.0961 -0.8359  0.4448
  768TIP3    H2 2269   6.137   0.513   0.841 -0.5562 -0.8302 -0.6565
  769TIP3   OH2 2270   6.518   0.628   0.550  0.1129  0.1379  0.3905
  769TIP3    H1 2271   6.601   0.597   0.588  0.2675  0.4536  0.3175
  769TIP3    H2 2272   6.521   0.723   0.562  0.6873  0.3944 -1.4430
  770TIP3   OH2 2273   6.867   5.459   4.941 -0.3407  0.1883  0.3824
  770TIP3    H1 2274   6.890   5.383   4.887 -1.9582 -0.7580  0.9402
  770TIP3    H2 2275   6.915   5.446   5.022  0.4998  0.5241 -0.0579
  771TIP3   OH2 2276   1.865   2.189   3.957  0.1437  0.0041  0.0242
  771TIP3    H1 2277   1.780   2.195   4.000 -0.7739 -1.0784 -1.5050
  771TIP3    H2 2278   1.927   2.174   4.028 -1.3032 -1.7652  1.0050
  772TIP3   OH2 2279   0.348   2.099   4.513  0.3053 -0.5667  0.1189
  772TIP3    H1 2280   0.299   2.136   4.440  1.2095 -0.8622 -0.6546
  772TIP3    H2 2281   0.308   2.013   4.527 -0.3301 -0.2253  0.4509
  773TIP3   OH2 2282   5.056   0.281   4.393  0.4205  0.0377 -0.0127
  773TIP3    H1 2283   5.002   0.203   4.388 -0.7918  0.8512  0.1669
  773TIP3    H2 2284   5.069   0.307   4.301  0.0991  0.1145 -0.0375
  774TIP3   OH2 2285   0.307   4.452   5.678 -0.2900 -0.5387  0.3626
  774TIP3    H1 2286   0.227   4.503   5.690 -1.4857 -1.9376 -1.1449
  774TIP3    H2 2287   0.299   4.380   5.741 -0.4910 -0.9545 -0.1262
  775TIP3   OH2 2288   6.001   4.712   0.951  0.0707 -0.1616 -0.3525
  775TIP3    H1 2289   6.056   4.766   1.009 -0.8744 -1.3057  1.7332
  775TIP3    H2 2290   5.919   4.760   0.946  0.0639 -0.1928 -0.5249
  776TIP3   OH2 2291   2.208   4.358   5.327 -0.1730  0.7004  0.0441
  776TIP3    H1 2292   2.226   4.347   5.420  0.6503  1.8317  0.0296
  776TIP3    H2 2293   2.118   4.327   5.317  0.6661 -2.2883  0.6462
  777TIP3   OH2 2294   0.793   0.544   5.528  0.4389 -0.4852  0.0180
  777TIP3    H1 2295   0.704   0.548   5.493  0.2669 -1.3089  0.3155
  777TIP3    H2 2296   0.780   0.530   5.622  0.8891  0.3479  0.2111
  778TIP3   OH2 2297   2.973   3.516   1.973 -0.3920 -0.2520 -0.2894
  778TIP3    H1 2298   2.906   3.525   2.041 -0.6202 -0.0689 -0.5346
  778TIP3    H2 2299   3.032   3.447   2.005 -0.6079 -0.2996  0.0025
  779TIP3   OH2 2300   3.152   0.914   0.085 -0.8920 -0.0927 -0.0358
  779TIP3    H1 2301   3.205   0.838   0.110 -1.1804 -0.0773  0.6322
  779TIP3    H2 2302   3.165   0.921  -0.010 -0.6483 -0.8112 -0.0654
  780TIP3   OH2 2303   4.647   2.037   3.256 -0.3920  0.2705 -0.2145
  780TIP3    H1 2304   4.601   2.062   3.336 -0.9315  0.0269 -0.4430
  780TIP3    H2 2305   4.738   2.060   3.273 -0.5207  0.3400  0.4198
  781TIP3   OH2 2306   1.886   1.481   0.475  0.2554 -0.3817  0.2693
  781TIP3    H1 2307   1.889   1.446   0.564 -0.9214  0.2320  0.5748
  781TIP3    H2 2308   1.793   1.476   0.451  0.4536  0.1612 -0.6353
  782TIP3   OH2 2309   2.221   5.718   5.720  0.2789 -0.6060 -0.3120
  782TIP3    H1 2310   2.133   5.681   5.720  0.6946 -1.6944  1.0875
  782TIP3    H2 2311   2.279   5.643   5.735  1.2823  0.3355  0.7986
  783TIP3   OH2 2312   3.226   4.182   4.903  0.3433 -0.4165  0.0485
  783TIP3    H1 2313   3.217   4.262   4.850  0.4233 -0.4556 -0.0243
  783TIP3    H2 2314   3.309   4.144   4.876  0.9411  0.1637  1.0278
  784TIP3   OH2 2315   0.605   3.951   2.019  0.0805  0.3241 -0.3860
  784TIP3    H1 2316   0.549   3.969   2.094  0.8060  1.5148 -0.1019
  784TIP3    H2 2317   0.681   3.906   2.056 -0.3778 -0.7326 -0.6852
  785TIP3   OH2 2318   4.495   5.508   3.595  0.2743  0.6481 -0.2510
  785TIP3    H1 2319   4.460   5.445   3.531 -0.7435  1.7037 -0.7890
  785TIP3    H2 2320   4.572   5.546   3.552  0.1320  0.6898 -0.4724
  786TIP3   OH2 2321   3.026   5.103   0.247  0.1479  0.0733  0.4356
  786TIP3    H1 2322   2.957   5.141   0.302 -0.7380 -0.1141 -0.5224
  786TIP3    H2 2323   3.067   5.179   0.205 -0.6380  0.0836 -0.3330
  787TIP3   OH2 2324   6.081   4.997   2.965 -0.3171 -0.1376 -0.3075
  787TIP3    H1 2325   5.997   5.029   2.934  0.3514  0.1710 -1.9242
  787TIP3    H2 2326   6.146   5.051   2.919  0.7699  0.2110  1.5340
  788TIP3   OH2 2327   2.620   2.487   4.972 -0.0748  0.1506 -0.6577
  788TIP3    H1 2328   2.616   2.510   5.065 -0.7345  0.6036 -0.7904
  788TIP3    H2 2329   2.548   2.536   4.932  0.8835  0.8168 -1.6043
  789TIP3   OH2 2330   5.866   4.344   1.006 -0.4860 -0.0967  0.5066
  789TIP3    H1 2331   5.860   4.366   0.913 -2.0802 -0.6578  0.4343
  789TIP3    H2 2332   5.782   4.371   1.042  0.3219  0.6122  1.9150
  790TIP3   OH2 2333   1.652   5.893   2.465 -0.2802 -1.0403  0.1238
  790TIP3    H1 2334   1.589   5.916   2.396 -0.7812 -1.9770  0.2477
  790TIP3    H2 2335   1.702   5.820   2.428  1.2613  0.1789 -0.2576
  791TIP3   OH2 2336   0.076   6.423   4.324 -0.6593  0.2232  0.1880
  791TIP3    H1 2337   0.129   6.373   4.386 -2.1517 -0.3059  1.0828
  791TIP3    H2 2338   0.038   6.356   4.267 -2.0245  0.3678  0.8876
  792TIP3   OH2 2339   3.577   3.825   2.418  0.6312 -0.7100 -0.0450
  792TIP3    H1 2340   3.618   3.747   2.382  1.1212  0.0329 -1.1766
  792TIP3    H2 2341   3.572   3.809   2.512 -0.0072 -2.4215 -0.3315
  793TIP3   OH2 2342   3.625   5.681   3.098  0.5793  0.1784  0.1938
  793TIP3    H1 2343   3.652   5.607   3.043 -0.7345 -0.2946  0.1499
  793TIP3    H2 2344   3.536   5.700   3.071  0.0801  0.2903  1.7936
  794TIP3   OH2 2345   5.448   5.340   0.888  0.0063 -0.1781 -0.1337
  794TIP3    H1 2346   5.476   5.422   0.929 -2.4569  0.1701  1.0204
  794TIP3    H2 2347   5.390   5.367   0.817 -0.6559 -0.9061  0.1180
  795TIP3   OH2 2348   0.412   0.103   5.293  0.1944  0.2966 -0.3882
  795TIP3    H1 2349   0.326   0.092   5.253 -0.4808  1.5583  0.6076
  795TIP3    H2 2350   0.422   0.198   5.303  1.2212  0.1205  0.5061
  796TIP3   OH2 2351   4.338   1.168   3.279 -0.2322  0.3207  0.1324
  796TIP3    H1 2352   4.282   1.244   3.291  0.3301  0.8655 -0.5984
  796TIP3    H2 2353   4.299   1.121   3.205  0.7122  1.1457 -0.9284
  797TIP3   OH2 2354   2.366   3.534   2.558 -0.3906 -0.3330  0.1221
  797TIP3    H1 2355   2.450   3.558   2.596 -0.7623  0.3689  0.5169
  797TIP3    H2 2356   2.358   3.589   2.480 -0.3934 -0.5380 -0.0216
  798TIP3   OH2 2357   6.696   0.702   1.684  0.3396 -0.2549  0.4733
  798TIP3    H1 2358   6.705   0.795   1.662  1.6851 -0.7993 -1.4744
  798TIP3    H2 2359   6.761   0.687   1.753  0.7101  0.0520  0.1884
  799TIP3   OH2 2360   0.374   0.440   2.586  0.0925  0.6642  0.3138
  799TIP3    H1 2361   0.447   0.471   2.638 -0.0723  1.2877  0.1785
  799TIP3    H2 2362   0.320   0.389   2.647  0.7376  0.0284  0.3633
  800TIP3   OH2 2363   0.442   4.738   5.343 -0.4560 -0.4771 -0.3919
  800TIP3    H1 2364   0.424   4.702   5.256 -0.2476 -0.6831 -0.3531
  800TIP3    H2 2365   0.451   4.661   5.399 -1.9946 -0.3224  0.1144
  801TIP3   OH2 2366   5.953   0.046   0.642  0.1619 -0.3126 -1.1083
  801TIP3    H1 2367   5.958   0.129   0.688 -0.5848 -2.1255  2.5613
  801TIP3    H2 2368   6.037   0.004   0.658 -0.8579 -1.8495  0.6188
  802TIP3   OH2 2369   5.025   4.647   0.890 -0.1957 -0.4600  0.4879
  802TIP3    H1 2370   4.941   4.637   0.845 -0.9428  0.9167  1.5089
  802TIP3    H2 2371   5.041   4.742   0.890  0.6702 -0.5874  1.5233
  803TIP3   OH2 2372   1.652   0.665   0.766  0.0854 -0.3765  0.6816
  803TIP3    H1 2373   1.665   0.579   0.726 -2.2971 -0.1878 -0.7210
  803TIP3    H2 2374   1.726   0.718   0.734  1.8172 -1.9253  1.9067
  804TIP3   OH2 2375   6.694   6.104   4.034  0.0641 -0.1452  0.4278
  804TIP3    H1 2376   6.731   6.042   3.971 -1.1751 -1.0501  0.5649
  804TIP3    H2 2377   6.757   6.106   4.106 -0.2539 -1.8773  0.7908
  805TIP3   OH2 2378   4.623   1.981   2.022  0.4398  0.2650  0.3915
  805TIP3    H1 2379   4.638   1.902   2.073  0.4649 -0.3716 -0.5735
  805TIP3    H2 2380   4.703   2.033   2.034  0.7718 -0.2330  0.3847
  806TIP3   OH2 2381   1.438   6.322   4.208 -0.0531 -0.1682  0.4302
  806TIP3    H1 2382   1.476   6.245   4.166 -2.3018 -1.7213  1.0381
  806TIP3    H2 2383   1.478   6.323   4.295  0.9585  0.1666 -0.0185
  807TIP3   OH2 2384   2.932   0.155   0.035  0.6024  0.2542  0.4015
  807TIP3    H1 2385   2.852   0.105   0.019  0.1698  1.6011 -2.0603
  807TIP3    H2 2386   2.929   0.175   0.128 -2.4696  1.1212  0.2234
  808TIP3   OH2 2387   3.014   2.092   5.552 -0.5467  0.3337 -0.4687
  808TIP3    H1 2388   2.966   2.147   5.491 -0.6468 -0.3823 -1.0507
  808TIP3    H2 2389   2.950   2.069   5.620 -0.2884  1.5807  0.2262
  809TIP3   OH2 2390   0.880   1.829   5.097 -0.3972  0.0077 -0.1160
  809TIP3    H1 2391   0.866   1.742   5.133  0.2335 -0.2388 -0.4391
  809TIP3    H2 2392   0.819   1.835   5.023 -1.7088  0.5245  0.9659
  810TIP3   OH2 2393   3.689   5.124   4.703  0.2823  0.2836 -0.1094
  810TIP3    H1 2394   3.618   5.162   4.651  0.0682  0.6828  0.4724
  810TIP3    H2 2395   3.767   5.138   4.650 -0.0874 -0.2926 -0.8241
  811TIP3   OH2 2396   6.220   0.707   4.573  0.0470  0.5592  0.0160
  811TIP3    H1 2397   6.154   0.756   4.523  0.7285  0.9224 -0.5487
  811TIP3    H2 2398   6.291   0.770   4.587 -0.6517  0.9124  2.6285
  812TIP3   OH2 2399   4.998   1.963   3.091  0.3345 -0.1497 -0.5466
  812TIP3    H1 2400   4.969   1.985   3.003  0.0434 -0.8649 -0.6395
  812TIP3    H2 2401   5.000   2.046   3.138 -0.7559  0.0732 -0.8648
  813TIP3   OH2 2402   5.845   1.841   2.327 -0.3343 -0.1580 -0.4103
  813TIP3    H1 2403   5.872   1.893   2.403  2.2652 -0.2769 -1.1563
  813TIP3    H2 2404   5.789   1.773   2.364  0.6067 -0.0231  1.4050
  814TIP3   OH2 2405   6.819   0.232   4.674  0.3471 -0.6641 -0.1406
  814TIP3    H1 2406   6.812   0.143   4.707 -2.6356  0.1041  1.7284
  814TIP3    H2 2407   6.787   0.227   4.584 -0.0648 -1.4763  0.0405
  815TIP3   OH2 2408   5.516   2.249   4.146 -0.4596 -0.4549  0.2163
  815TIP3    H1 2409   5.472   2.188   4.087 -0.6066  0.2702 -0.4459
  815TIP3    H2 2410   5.446   2.303   4.182 -0.2670 -0.2652  0.3134
  816TIP3   OH2 2411   0.896   0.255   2.450 -0.1390 -0.4506 -0.4635
  816TIP3    H1 2412   0.891   0.325   2.514 -1.2794 -1.6194  0.7850
  816TIP3    H2 2413   0.856   0.180   2.493  0.8813 -1.8350 -1.8217
  817TIP3   OH2 2414   5.635   3.462   2.513 -0.1026 -0.3016  0.1061
  817TIP3    H1 2415   5.554   3.413   2.497 -1.3241  0.9986  1.8875
  817TIP3    H2 2416   5.684   3.407   2.574 -0.5014 -0.2709  0.4616
  818TIP3   OH2 2417   5.283   1.933   1.651 -0.6459 -0.0079 -0.0830
  818TIP3    H1 2418   5.235   1.983   1.717 -1.3901  2.1945 -2.1368
  818TIP3    H2 2419   5.215   1.894   1.596 -0.0465 -1.1223 -0.0633
  819TIP3   OH2 2420   1.393   6.540   3.790 -0.2517  0.7600  0.2423
  819TIP3    H1 2421   1.319   6.549   3.730 -1.2635 -2.0622  0.9018
  819TIP3    H2 2422   1.355   6.553   3.877 -0.1596 -1.0810  0.6126
  820TIP3   OH2 2423   6.485   0.667   4.841  0.4690  0.4709 -0.2063
  820TIP3    H1 2424   6.486   0.610   4.917  0.2307  1.0069  0.2102
  820TIP3    H2 2425   6.401   0.713   4.847 -0.8352 -1.3948 -2.2421
  821TIP3   OH2 2426   2.229   4.895   5.758  0.1424 -0.0397 -0.1340
  821TIP3    H1 2427   2.262   4.877   5.847  1.9822  1.3367 -0.4900
  821TIP3    H2 2428   2.144   4.935   5.773  1.0236  1.4885  1.1219
  822TIP3   OH2 2429   3.873   0.295   1.957  0.4431 -0.0196  0.3229
  822TIP3    H1 2430   3.960   0.333   1.960  0.6894 -0.5129 -0.4716
  822TIP3    H2 2431   3.815   0.367   1.932  0.9049 -0.1407 -1.1704
  823TIP3   OH2 2432   5.818   4.397   2.738 -0.1646  0.1262 -0.2496
  823TIP3    H1 2433   5.833   4.305   2.761 -0.3034 -0.4054 -2.0836
  823TIP3    H2 2434   5.896   4.443   2.768 -0.7369 -0.2919  2.0444
  824TIP3   OH2 2435   3.595   1.328   3.117  0.0688 -0.5668 -0.0717
  824TIP3    H1 2436   3.660   1.373   3.063 -1.4075  2.3035  0.3667
  824TIP3    H2 2437   3.605   1.365   3.204 -1.4850 -0.7919  0.2413
  825TIP3   OH2 2438   1.761   5.088   5.856 -0.0971 -0.0377  0.0431
  825TIP3    H1 2439   1.742   5.152   5.926  0.5026 -0.7660  0.8933
  825TIP3    H2 2440   1.675   5.053   5.832 -0.2195 -0.6146  1.2445
  826TIP3   OH2 2441   4.810   3.161   3.955  0.2976  0.3988 -0.5590
  826TIP3    H1 2442   4.873   3.177   4.025 -0.2117  2.6564 -0.5313
  826TIP3    H2 2443   4.857   3.184   3.875 -0.6154  2.9300 -0.4777
  827TIP3   OH2 2444   2.506   3.722   0.113  0.2730  0.2006 -0.1919
  827TIP3    H1 2445   2.494   3.656   0.181  0.0572 -0.1843 -0.6035
  827TIP3    H2 2446   2.418   3.753   0.093  0.3754  0.6403  0.0244
  828TIP3   OH2 2447   2.137   1.151   1.454  0.0766  0.5039 -0.2690
  828TIP3    H1 2448   2.089   1.082   1.499 -0.4115  1.7075  1.1246
  828TIP3    H2 2449   2.086   1.231   1.471  0.9644  1.3211 -1.2938
  829TIP3   OH2 2450   5.036   4.602   1.485 -0.2107  0.2199 -1.0569
  829TIP3    H1 2451   5.090   4.666   1.438 -0.9511  1.8752  0.2457
  829TIP3    H2 2452   4.968   4.578   1.422  1.4893 -1.3132 -2.4502
  830TIP3   OH2 2453   6.006   3.597   3.184 -0.0317  0.3568  0.0476
  830TIP3    H1 2454   6.069   3.667   3.199  1.8676 -1.3849  0.7102
  830TIP3    H2 2455   5.957   3.624   3.106  1.4673  1.8162 -0.4399
  831TIP3   OH2 2456   0.919   2.818   2.990  0.3998 -0.3930  0.2276
  831TIP3    H1 2457   0.889   2.848   3.076 -2.0370  0.1130 -0.6943
  831TIP3    H2 2458   0.882   2.730   2.981 -0.8317  0.1906 -0.9016
  832TIP3   OH2 2459   3.493   5.175   5.705 -0.6116 -0.2111 -0.1189
  832TIP3    H1 2460   3.461   5.135   5.624 -1.3184 -0.7033  0.3958
  832TIP3    H2 2461   3.580   5.137   5.717 -0.2452  0.3364 -0.9698
  833TIP3   OH2 2462   2.005   1.225   3.602  0.3354  0.1623  0.1824
  833TIP3    H1 2463   1.963   1.191   3.523 -0.5789  0.9248  0.3226
  833TIP3    H2 2464   1.934   1.266   3.652  1.0506  0.4725  0.9824
  834TIP3   OH2 2465   2.650   1.431   2.519  0.1522  0.0893 -0.5251
  834TIP3    H1 2466   2.693   1.369   2.461  1.3103 -0.2514  0.6490
  834TIP3    H2 2467   2.656   1.390   2.606 -2.8122 -0.1111 -0.3212
  835TIP3   OH2 2468   4.560   0.411   4.463  0.1473  0.1234 -0.1374
  835TIP3    H1 2469   4.618   0.391   4.389  0.8805  0.0471  0.4491
  835TIP3    H2 2470   4.619   0.436   4.534 -0.4775 -0.8216  0.7474
  836TIP3   OH2 2471   1.969   6.678   3.452 -0.4979  0.0110  0.6958
  836TIP3    H1 2472   1.897   6.614   3.445  0.4490 -1.1220  1.0463
  836TIP3    H2 2473   1.993   6.678   3.544 -0.7207  1.1818  0.7751
  837TIP3   OH2 2474   0.784   3.203   4.882  0.1159 -0.0484  0.5189
  837TIP3    H1 2475   0.843   3.127   4.875 -0.5974 -0.7517  1.8597
  837TIP3    H2 2476   0.776   3.234   4.792  1.0955 -1.0444  0.0528
  838TIP3   OH2 2477   3.713   0.469   1.823  0.0942 -0.0636 -0.3049
  838TIP3    H1 2478   3.691   0.446   1.732 -0.6167 -1.6013  0.2209
  838TIP3    H2 2479   3.772   0.544   1.815  0.7794 -0.7390 -2.0656
  839TIP3   OH2 2480   3.899   6.115   0.024  0.2854 -0.1638 -0.2438
  839TIP3    H1 2481   3.810   6.126  -0.012 -0.1565 -2.4336 -0.0330
  839TIP3    H2 2482   3.907   6.184   0.090 -0.6263  1.1916 -1.4808
  840TIP3   OH2 2483   4.159   0.227   3.383  0.3156 -0.0763  0.4608
  840TIP3    H1 2484   4.082   0.183   3.348  0.0576 -0.1769  1.1452
  840TIP3    H2 2485   4.152   0.216   3.478  2.5876 -2.5740  0.4730
  841TIP3   OH2 2486   2.205   2.348   2.050 -0.0850 -0.0735 -0.1598
  841TIP3    H1 2487   2.160   2.396   1.981 -0.1549 -0.8300 -0.6492
  841TIP3    H2 2488   2.298   2.357   2.029  0.0308  1.5616  0.8985
  842TIP3   OH2 2489   0.459   2.728   2.627  0.3272  0.3445  0.0420
  842TIP3    H1 2490   0.534   2.740   2.685  0.1711  0.7553  0.1621
  842TIP3    H2 2491   0.412   2.812   2.629  0.7738  0.6584 -1.3269
  843TIP3   OH2 2492   1.910   2.855   0.132  0.4541 -0.5755  0.2984
  843TIP3    H1 2493   1.917   2.950   0.133  0.7430 -0.5952  0.9903
  843TIP3    H2 2494   1.834   2.836   0.186  0.9777 -0.7669  0.9893
  844TIP3   OH2 2495   2.433   1.843   1.648  0.3124 -0.1696 -0.2477
  844TIP3    H1 2496   2.451   1.760   1.605 -2.0900 -0.9564  0.0845
  844TIP3    H2 2497   2.474   1.836   1.734 -2.3518 -2.4002  1.0107
  845TIP3   OH2 2498   6.088  -0.003   4.509  0.2120 -0.2186  0.2468
  845TIP3    H1 2499   6.022  -0.070   4.525  0.3635  0.0391  2.2465
  845TIP3    H2 2500   6.040   0.079   4.510  0.4071 -0.1078  0.5435
  846TIP3   OH2 2501   0.901   3.588   5.646 -0.4196 -0.1984  0.1064
  846TIP3    H1 2502   0.993   3.576   5.667 -0.7770 -1.9880  0.8302
  846TIP3    H2 2503   0.868   3.645   5.716 -0.1474 -0.6968  0.6491
  847TIP3   OH2 2504   1.066   2.499   3.152 -0.1520  0.3049  0.1389
  847TIP3    H1 2505   1.126   2.548   3.207 -0.8288  1.0176  0.2616
  847TIP3    H2 2506   1.103   2.504   3.064 -0.0773  0.8055  0.2015
  848TIP3   OH2 2507   5.695   3.028   1.374  0.6282 -0.0022  0.3522
  848TIP3    H1 2508   5.687   3.103   1.433  0.0088  0.9483 -0.8894
  848TIP3    H2 2509   5.622   3.038   1.312  0.7255 -1.4588 -0.0335
  849TIP3   OH2 2510   6.714   1.493   0.115  0.1875  0.0346  0.3455
  849TIP3    H1 2511   6.797   1.540   0.115 -0.6764  1.6623  1.1550
  849TIP3    H2 2512   6.652   1.553   0.074 -1.0136 -0.2409  1.6522
  850TIP3   OH2 2513   3.085   5.277   4.963 -0.2683  0.3623  0.3506
  850TIP3    H1 2514   2.992   5.297   4.962 -0.3801 -0.0657 -1.8025
  850TIP3    H2 2515   3.100   5.224   4.885  1.7298  0.1151  0.8243
  851TIP3   OH2 2516   6.533   2.839   4.522  0.8976  0.3986 -0.7115
  851TIP3    H1 2517   6.466   2.835   4.590 -0.6227 -2.7415 -2.1815
  851TIP3    H2 2518   6.612   2.806   4.564  0.1071 -1.0204 -0.2569
  852TIP3   OH2 2519   2.372   6.415   4.908 -0.0509 -0.2227 -0.3990
  852TIP3    H1 2520   2.399   6.333   4.867  1.5685  0.8552 -1.6601
  852TIP3    H2 2521   2.336   6.390   4.992  1.8251 -2.1343 -0.0975
  853TIP3   OH2 2522   0.686   3.688   0.720  0.6446  0.5307  0.2383
  853TIP3    H1 2523   0.652   3.775   0.740  0.2149  0.3145  0.4583
  853TIP3    H2 2524   0.673   3.638   0.800  0.1879  0.0506 -0.1301
  854TIP3   OH2 2525   1.357   0.750   3.502  0.2320  0.3025  0.3435
  854TIP3    H1 2526   1.413   0.813   3.457  0.4064  0.0673  0.2292
  854TIP3    H2 2527   1.417   0.689   3.545  0.0654  0.3635  0.6685
  855TIP3   OH2 2528   6.513   0.754   1.353  0.1961  0.0637 -0.3377
  855TIP3    H1 2529   6.518   0.705   1.272 -1.2627  1.7220 -1.5213
  855TIP3    H2 2530   6.582   0.821   1.345  0.7412 -0.4093  0.2847
  856TIP3   OH2 2531   5.272   6.719   5.570 -0.1901  0.0263  0.1219
  856TIP3    H1 2532   5.310   6.635   5.545 -0.2148  0.1671 -0.3918
  856TIP3    H2 2533   5.218   6.744   5.495  1.3231  1.4286 -0.5395
  857TIP3   OH2 2534   2.031   3.495   0.340 -0.6910  0.1827 -0.2748
  857TIP3    H1 2535   1.964   3.555   0.371  0.1932  1.0949 -0.0565
  857TIP3    H2 2536   2.111   3.523   0.385  0.8333  2.0125 -3.7505
  858TIP3   OH2 2537   5.156   3.279   5.241  0.1111  0.6580 -0.0411
  858TIP3    H1 2538   5.063   3.287   5.264  0.0800  0.3313 -0.0489
  858TIP3    H2 2539   5.158   3.284   5.145  0.0524  0.1956 -0.0675
  859TIP3   OH2 2540   6.967   1.121   0.636 -0.1736 -0.9347  0.4438
  859TIP3    H1 2541   7.018   1.040   0.636  0.1107 -0.7735  1.9042
  859TIP3    H2 2542   6.902   1.109   0.704  0.0378  0.1604  0.8568
  860TIP3   OH2 2543   2.051   1.569   3.605 -0.0221 -0.1243  0.0680
  860TIP3    H1 2544   2.010   1.509   3.542 -0.9636 -2.1496  2.4688
  860TIP3    H2 2545   1.983   1.583   3.671  2.0791 -1.0511  2.5534
  861TIP3   OH2 2546   1.748   6.653   0.650  0.7350  0.3593 -0.0073
  861TIP3    H1 2547   1.841   6.640   0.632  0.7974  1.2041 -0.3587
  861TIP3    H2 2548   1.719   6.572   0.692  1.9985  0.6980  1.6084
  862TIP3   OH2 2549   5.023   2.919   2.073 -0.2781  0.1525 -0.0042
  862TIP3    H1 2550   5.010   3.014   2.081 -1.4097  0.0322 -0.2764
  862TIP3    H2 2551   5.117   2.910   2.054 -0.0657  1.1858  0.4688
  863TIP3   OH2 2552   3.212   5.849   1.754 -0.5032 -0.4206  0.0515
  863TIP3    H1 2553   3.224   5.823   1.846 -1.2084 -0.6282  0.0850
  863TIP3    H2 2554   3.138   5.909   1.756 -1.1144 -1.1570 -0.5156
  864TIP3   OH2 2555   6.571   6.119   0.045 -0.5257 -0.1662 -0.2755
  864TIP3    H1 2556   6.608   6.042   0.001  0.4415  0.9327 -1.4496
  864TIP3    H2 2557   6.610   6.118   0.132 -0.7702 -1.1631 -0.1559
  865TIP3   OH2 2558   5.498   3.227   4.375 -0.0491  0.7002  1.1840
  865TIP3    H1 2559   5.482   3.172   4.299  0.0636  0.9482  0.9811
  865TIP3    H2 2560   5.411   3.249   4.408 -0.1178 -1.0197  2.3054
  866TIP3   OH2 2561   1.672   4.495   0.871  0.4251  0.3889 -0.2902
  866TIP3    H1 2562   1.593   4.536   0.905 -0.0959 -2.0448  1.7133
  866TIP3    H2 2563   1.649   4.468   0.782 -0.5579  0.8381 -0.1789
  867TIP3   OH2 2564   2.308   5.899   1.088  0.3721  0.3822 -0.0466
  867TIP3    H1 2565   2.284   5.987   1.118  1.2988  0.6396 -0.0243
  867TIP3    H2 2566   2.225   5.853   1.080 -0.0646  1.0078  0.7348
  868TIP3   OH2 2567   3.517   3.534   0.854  1.0289 -0.0793 -0.2637
  868TIP3    H1 2568   3.427   3.526   0.822  0.8679  0.2408  0.1094
  868TIP3    H2 2569   3.555   3.447   0.840  0.7530 -0.1348 -0.6897
  869TIP3   OH2 2570   0.692   0.457   2.524 -0.1409  0.7854 -0.1455
  869TIP3    H1 2571   0.613   0.510   2.522  0.6316  1.9650 -0.1410
  869TIP3    H2 2572   0.739   0.481   2.444  0.4161  0.4191  0.0682
  870TIP3   OH2 2573   2.825   6.756   5.494  0.3632  0.1287 -0.1039
  870TIP3    H1 2574   2.778   6.735   5.414 -1.3185 -2.1720  1.3706
  870TIP3    H2 2575   2.771   6.822   5.538 -0.4063 -0.9168  0.5644
  871TIP3   OH2 2576   5.461   2.784   3.705 -0.2267  0.3750 -0.3805
  871TIP3    H1 2577   5.505   2.713   3.658 -1.1370  0.8539 -2.0417
  871TIP3    H2 2578   5.520   2.859   3.695  0.1861  0.1643  0.3809
  872TIP3   OH2 2579   0.507   3.625   5.174  0.4994  1.0972  0.2522
  872TIP3    H1 2580   0.441   3.610   5.106 -0.3004  0.4818  1.1352
  872TIP3    H2 2581   0.591   3.612   5.129 -0.0152  0.6068 -0.5982
  873TIP3   OH2 2582   0.296   6.362   0.086 -0.1350  0.2798 -0.1481
  873TIP3    H1 2583   0.262   6.273   0.078 -0.9273  0.6229 -0.6902
  873TIP3    H2 2584   0.351   6.360   0.164 -0.8417 -0.4654  0.3402
  874TIP3   OH2 2585   6.281   1.816   0.470  0.3624  0.3110  0.6343
  874TIP3    H1 2586   6.210   1.816   0.534  0.7911  0.8062  1.1181
  874TIP3    H2 2587   6.241   1.780   0.391 -0.0058 -0.9671  1.3596
  875TIP3   OH2 2588   6.694   3.834   3.148  0.0955  0.0484  0.2103
  875TIP3    H1 2589   6.719   3.924   3.127 -1.1100  0.0221 -1.5442
  875TIP3    H2 2590   6.777   3.788   3.159  0.7305  1.2765  0.7609
  876TIP3   OH2 2591   1.174   2.962   1.266  0.5909 -0.4132  0.8455
  876TIP3    H1 2592   1.241   3.030   1.257  0.7166 -0.6735 -0.2622
  876TIP3    H2 2593   1.109   3.001   1.326  1.0944  0.3317  0.9234
  877TIP3   OH2 2594   3.825   5.067   0.650 -0.2300  0.0683  0.1967
  877TIP3    H1 2595   3.751   5.032   0.600 -0.3672  0.5208  0.0808
  877TIP3    H2 2596   3.902   5.037   0.602 -0.3526  0.1108 -0.0329
  878TIP3   OH2 2597   3.926   5.035   3.367 -0.3109 -0.9051 -0.1612
  878TIP3    H1 2598   3.835   5.060   3.347 -1.3169 -2.1706  2.3909
  878TIP3    H2 2599   3.934   5.050   3.462  2.7073  0.7121 -0.5635
  879TIP3   OH2 2600  -0.007   0.142   2.524 -0.2743  0.0126 -0.0076
  879TIP3    H1 2601   0.037   0.214   2.479 -0.2520 -0.0152 -0.0300
  879TIP3    H2 2602   0.059   0.073   2.530 -0.0288  0.3108  0.7846
  880TIP3   OH2 2603   1.053   2.803   5.861 -0.2912  0.1198  0.4419
  880TIP3    H1 2604   1.034   2.738   5.929 -0.4072  0.0035  0.2978
  880TIP3    H2 2605   1.126   2.765   5.812 -0.0131  0.3377  0.6841
  881TIP3   OH2 2606   1.005   0.735   3.414 -0.4417  0.1787  0.0456
  881TIP3    H1 2607   1.069   0.712   3.347  1.0801  1.0430  1.1513
  881TIP3    H2 2608   0.982   0.651   3.454  0.7981 -0.0622  0.3094
  882TIP3   OH2 2609   0.167   0.110   4.459 -0.0389  0.5897 -0.2785
  882TIP3    H1 2610   0.149   0.165   4.535 -0.6672 -1.0217  0.7983
  882TIP3    H2 2611   0.151   0.021   4.490  0.4871 -0.1756 -2.0831
  883TIP3   OH2 2612   2.763   0.224   1.052 -0.1184 -0.0141  0.2716
  883TIP3    H1 2613   2.768   0.308   1.007 -0.5012 -0.3217 -0.3680
  883TIP3    H2 2614   2.754   0.160   0.981 -2.3102 -0.3918  0.8065
  884TIP3   OH2 2615   3.838   2.531   5.154 -0.3710  0.0216 -0.2155
  884TIP3    H1 2616   3.781   2.600   5.119 -1.1467 -1.1024 -1.2241
  884TIP3    H2 2617   3.882   2.495   5.077 -0.9731 -1.4990  0.1233
  885TIP3   OH2 2618   5.958   2.943   5.826  0.1864  0.0898  0.3243
  885TIP3    H1 2619   5.976   3.032   5.796 -0.2422  0.0601 -0.0306
  885TIP3    H2 2620   5.999   2.886   5.761 -0.0152  0.0278  0.2499
  886TIP3   OH2 2621   0.277   6.386   1.975 -0.5511 -0.1332 -0.4401
  886TIP3    H1 2622   0.206   6.364   2.035 -1.7444  1.4161 -1.2219
  886TIP3    H2 2623   0.239   6.448   1.913  1.4477  0.6566 -0.9826
  887TIP3   OH2 2624   6.750   0.478   1.952  0.0921  0.0140  0.0255
  887TIP3    H1 2625   6.799   0.555   1.924  1.6448 -0.1960  1.9150
  887TIP3    H2 2626   6.659   0.504   1.949  0.5770  1.8712  0.4705
  888TIP3   OH2 2627   3.815   4.205   0.993  0.2233 -0.2875 -0.3826
  888TIP3    H1 2628   3.747   4.264   0.962  0.8267 -0.6996 -2.6795
  888TIP3    H2 2629   3.768   4.132   1.033 -0.5503  1.0932  1.3847
  889TIP3   OH2 2630   7.133   3.649   1.485 -0.6023 -0.2373  0.1278
  889TIP3    H1 2631   7.113   3.650   1.392 -0.4493 -0.2979  0.0943
  889TIP3    H2 2632   7.216   3.697   1.492 -0.9089  0.2755  0.3000
  890TIP3   OH2 2633   0.754   3.132   1.280  0.4767  0.3996 -0.1642
  890TIP3    H1 2634   0.707   3.083   1.347 -1.3560  0.9660 -0.9765
  890TIP3    H2 2635   0.749   3.076   1.202  0.7903  0.6545 -0.3669
  891TIP3   OH2 2636   0.667   4.935   1.368 -0.5228 -0.4597 -0.1550
  891TIP3    H1 2637   0.598   4.872   1.390 -0.5633 -0.4859 -0.3556
  891TIP3    H2 2638   0.742   4.880   1.342 -0.4918 -0.4291 -0.1288
  892TIP3   OH2 2639   0.815   3.383   2.743  0.7495  0.1764 -0.2640
  892TIP3    H1 2640   0.753   3.408   2.812 -0.6748 -1.0096 -1.0514
  892TIP3    H2 2641   0.790   3.293   2.721  1.0966  0.5688 -2.4136
  893TIP3   OH2 2642   3.368   3.731   5.788  0.4514  0.0744 -0.1048
  893TIP3    H1 2643   3.409   3.758   5.870 -0.4087  0.4093  0.2253
  893TIP3    H2 2644   3.420   3.656   5.759  0.3403 -0.4973  1.1165
  894TIP3   OH2 2645   3.803   1.207   0.156  0.1661 -0.2959 -0.0878
  894TIP3    H1 2646   3.837   1.208   0.066  0.0699 -0.5635 -0.1289
  894TIP3    H2 2647   3.779   1.297   0.174  0.2779 -0.2243 -0.2983
  895TIP3   OH2 2648   7.116   2.951   0.548  0.0798  0.1113  0.2655
  895TIP3    H1 2649   7.120   2.970   0.642 -0.0981 -1.0003  0.5051
  895TIP3    H2 2650   7.115   2.856   0.542 -1.0712  0.1582 -0.8182
  896TIP3   OH2 2651   6.837   2.654   1.301 -0.3335  0.3847 -0.0272
  896TIP3    H1 2652   6.870   2.567   1.323 -0.0602  0.1411 -1.2975
  896TIP3    H2 2653   6.742   2.645   1.302 -0.3243  0.2970  0.6604
  897TIP3   OH2 2654   3.760   4.657   1.681  0.6518  0.2299 -0.2788
  897TIP3    H1 2655   3.741   4.732   1.737  0.6274  0.1530 -0.1840
  897TIP3    H2 2656   3.837   4.683   1.631  0.9417  0.1288  0.1085
  898TIP3   OH2 2657   0.228   1.140   4.594 -0.4460 -0.0994  0.3932
  898TIP3    H1 2658   0.184   1.203   4.537 -0.1843 -0.3413 -0.0854
  898TIP3    H2 2659   0.204   1.054   4.558  0.5278 -0.2327  0.0244
  899TIP3   OH2 2660   2.396   5.292   0.348  0.0511 -0.1092  0.5194
  899TIP3    H1 2661   2.368   5.381   0.324 -1.2109 -0.3887  0.8896
  899TIP3    H2 2662   2.371   5.238   0.273  0.0558 -0.2848  0.6444
  900TIP3   OH2 2663   6.011   4.307   4.625  0.4302 -0.1160 -0.3170
  900TIP3    H1 2664   5.932   4.323   4.676  0.0282 -1.4072 -0.4849
  900TIP3    H2 2665   6.002   4.216   4.595  0.6841  0.5396 -2.5818
  901TIP3   OH2 2666   0.913   1.508   4.922  0.3230  0.2750 -0.2049
  901TIP3    H1 2667   0.819   1.493   4.934  0.2435  0.0506 -1.0805
  901TIP3    H2 2668   0.952   1.484   5.006 -0.3441 -0.1247 -0.0060
  902TIP3   OH2 2669   1.586   1.503   1.960  0.3342 -0.1752 -0.1226
  902TIP3    H1 2670   1.663   1.519   2.014 -1.1360  0.5561  1.9222
  902TIP3    H2 2671   1.546   1.425   1.999 -0.3239 -0.1306 -0.6969
  903TIP3   OH2 2672   0.683   4.192   0.773  0.1402  0.1478 -0.4905
  903TIP3    H1 2673   0.741   4.175   0.846 -0.8049  1.7092  0.7031
  903TIP3    H2 2674   0.678   4.288   0.768  1.9311  0.2123 -4.0658
  904TIP3   OH2 2675   3.335   2.344   5.595  0.1992 -0.3133 -0.1295
  904TIP3    H1 2676   3.429   2.342   5.574  0.9279  1.0948  2.5297
  904TIP3    H2 2677   3.328   2.294   5.677 -1.1826  0.5307  0.2943
  905TIP3   OH2 2678   0.616   6.424   5.503 -0.4936 -0.3201  0.3896
  905TIP3    H1 2679   0.525   6.399   5.485 -1.3368  1.4701  1.7674
  905TIP3    H2 2680   0.621   6.427   5.599  0.0171  2.6730  0.3665
  906TIP3   OH2 2681   4.947   0.057   1.475 -0.1153 -0.1646  0.2348
  906TIP3    H1 2682   5.022   0.005   1.505 -1.0405 -0.9997  1.1967
  906TIP3    H2 2683   4.984   0.141   1.450  1.1325 -0.5411  0.7362
  907TIP3   OH2 2684   5.211   6.569   5.015 -0.0088  0.2165 -0.0418
  907TIP3    H1 2685   5.165   6.642   4.973  0.3782  2.0123  2.3961
  907TIP3    H2 2686   5.141   6.517   5.055 -0.2455 -0.4504 -1.2806
  908TIP3   OH2 2687   1.824   5.346   2.294 -0.0388 -0.3702 -0.4482
  908TIP3    H1 2688   1.919   5.335   2.284 -0.0552 -0.9919  0.0453
  908TIP3    H2 2689   1.797   5.393   2.214  0.6480 -0.3812 -0.6930
  909TIP3   OH2 2690   2.978   0.650   5.562  0.6821  0.0456  0.0797
  909TIP3    H1 2691   2.999   0.683   5.474 -1.0388  0.5223 -0.1905
  909TIP3    H2 2692   2.918   0.577   5.547 -0.2138  0.5967  0.8637
  910TIP3   OH2 2693   0.535   5.392   0.173 -0.1973  0.2171  0.4398
  910TIP3    H1 2694   0.570   5.375   0.261  0.8070 -0.1437 -0.0156
  910TIP3    H2 2695   0.603   5.361   0.114 -1.2977 -0.5043 -0.4910
  911TIP3   OH2 2696   5.236   2.730   4.200 -0.4266 -0.1755 -0.2243
  911TIP3    H1 2697   5.202   2.643   4.182 -0.6813  0.0159 -0.6692
  911TIP3    H2 2698   5.246   2.771   4.114  0.0570  0.0992 -0.0460
  912TIP3   OH2 2699   3.148   0.545   3.390  0.2786 -0.0395 -0.4084
  912TIP3    H1 2700   3.098   0.617   3.354 -0.1624 -1.3033 -2.4916
  912TIP3    H2 2701   3.204   0.585   3.457 -2.4285  1.6225  1.0186
  913TIP3   OH2 2702   4.295   2.711   1.493  0.1491 -0.3090  0.0648
  913TIP3    H1 2703   4.321   2.625   1.525 -0.1036 -0.3411  0.1856
  913TIP3    H2 2704   4.261   2.695   1.405 -0.7569 -0.4675  0.4350
  914TIP3   OH2 2705   4.856   2.727   4.743 -0.1879  0.0478  0.3915
  914TIP3    H1 2706   4.830   2.646   4.787 -0.4334 -0.5465 -0.7969
  914TIP3    H2 2707   4.781   2.750   4.689  0.1206  0.7310  0.2408
  915TIP3   OH2 2708   5.153   5.439   3.682  0.0674 -0.0481 -0.0152
  915TIP3    H1 2709   5.187   5.411   3.597  0.6757  1.6658 -0.3612
  915TIP3    H2 2710   5.210   5.396   3.746  0.7373  0.0934 -0.5129
  916TIP3   OH2 2711   4.827   1.363   5.607  0.1928  0.0037  0.0984
  916TIP3    H1 2712   4.739   1.325   5.602  1.7419 -4.0836  0.2228
  916TIP3    H2 2713   4.840   1.381   5.700 -0.1353 -0.4029  0.2290
  917TIP3   OH2 2714   1.212   0.869   5.082  0.2179 -0.3320  0.6779
  917TIP3    H1 2715   1.193   0.961   5.068 -1.1410 -0.8373 -1.1071
  917TIP3    H2 2716   1.131   0.823   5.061  1.6468 -2.1491 -1.4737
  918TIP3   OH2 2717   4.302   1.546   4.097  0.5125 -0.4138 -0.2448
  918TIP3    H1 2718   4.241   1.477   4.125  0.1865 -0.1654 -0.3310
  918TIP3    H2 2719   4.373   1.500   4.053 -0.1111 -0.6348 -1.0363
  919TIP3   OH2 2720   0.278   0.078   3.963  0.0755 -0.2931  0.1657
  919TIP3    H1 2721   0.281   0.073   4.059 -0.0285 -0.1741  0.1756
  919TIP3    H2 2722   0.186   0.094   3.943  0.1245 -0.1490  0.0541
  920TIP3   OH2 2723   2.670   1.637   1.404  0.3193  0.8372 -0.1262
  920TIP3    H1 2724   2.722   1.714   1.430 -0.3532  1.3802 -0.3473
  920TIP3    H2 2725   2.590   1.644   1.456  0.1827  0.3717 -0.2708
  921TIP3   OH2 2726   5.564   6.606   2.206 -0.4976  0.6637  0.6615
  921TIP3    H1 2727   5.620   6.554   2.264 -1.9443 -0.6671  0.9261
  921TIP3    H2 2728   5.590   6.697   2.222  0.7843  0.1490  1.6078
  922TIP3   OH2 2729   7.010   4.194   3.235 -0.0520  0.3555  0.2932
  922TIP3    H1 2730   7.071   4.264   3.211  0.7986 -0.6733 -0.6953
  922TIP3    H2 2731   7.055   4.114   3.208 -0.8679 -0.5935  1.6732
  923TIP3   OH2 2732   6.370   2.441   1.824  0.3221 -0.2696 -0.1453
  923TIP3    H1 2733   6.421   2.429   1.744  1.4125  2.3028  0.0863
  923TIP3    H2 2734   6.307   2.368   1.824  1.4192 -1.2909 -2.4330
  924TIP3   OH2 2735   1.676   6.678   0.057 -0.2689  0.4767  0.3308
  924TIP3    H1 2736   1.747   6.630   0.101  1.6149 -0.4036 -3.2325
  924TIP3    H2 2737   1.597   6.626   0.075  0.7366 -0.8835  1.0753
  925TIP3   OH2 2738   3.730   6.656   1.638  0.9012  0.0445 -0.0755
  925TIP3    H1 2739   3.721   6.704   1.556  0.7189 -1.0103 -0.6946
  925TIP3    H2 2740   3.683   6.708   1.702 -0.0264  0.2581 -0.9121
  926TIP3   OH2 2741   6.659   0.192   1.057  0.1557  0.0132 -0.2550
  926TIP3    H1 2742   6.695   0.206   0.969  0.8715  1.1698  0.2028
  926TIP3    H2 2743   6.672   0.276   1.102  0.1836 -0.6863  1.0879
  927TIP3   OH2 2744   6.526   4.757   4.976  0.0958  0.0099 -0.6091
  927TIP3    H1 2745   6.522   4.835   4.921 -0.1059  0.2815 -0.2214
  927TIP3    H2 2746   6.445   4.760   5.028  1.8628  1.8252  2.3922
  928TIP3   OH2 2747   2.080   3.091   5.593 -0.1008  0.1441  0.0025
  928TIP3    H1 2748   2.051   3.004   5.619 -1.4396  0.9720  1.4515
  928TIP3    H2 2749   2.060   3.147   5.668  3.2122  1.2718  0.2253
  929TIP3   OH2 2750   6.337   0.184   4.893  0.1362  0.1006  0.5492
  929TIP3    H1 2751   6.318   0.090   4.882 -0.6531  0.2951  0.1287
  929TIP3    H2 2752   6.406   0.202   4.829 -0.5305  0.0394 -0.2110
  930TIP3   OH2 2753   5.441   1.470   0.327 -1.2120 -0.0807 -0.1712
  930TIP3    H1 2754   5.459   1.383   0.361 -0.4475 -0.2954 -1.0899
  930TIP3    H2 2755   5.426   1.458   0.234 -0.4371  0.8444 -0.4363
  931TIP3   OH2 2756   3.727   5.054   5.735  0.2431 -0.3975 -0.1469
  931TIP3    H1 2757   3.775   5.068   5.654 -0.4179 -0.4871 -0.5598
  931TIP3    H2 2758   3.792   5.071   5.804  0.8000 -0.2862 -0.6841
  932TIP3   OH2 2759   3.803   0.040   1.345 -0.5105 -0.2674  0.7316
  932TIP3    H1 2760   3.781   0.034   1.252  1.2073 -0.4981  0.3054
  932TIP3    H2 2761   3.891   0.003   1.351 -0.3053  0.4025  2.3425
  933TIP3   OH2 2762   3.588   2.430   3.669 -0.0399  0.1858  0.2442
  933TIP3    H1 2763   3.529   2.362   3.638  1.2330 -0.4245 -0.9380
  933TIP3    H2 2764   3.592   2.418   3.764 -1.4962  0.0072  0.2981
  934TIP3   OH2 2765   5.760   0.837   3.564 -0.4886 -0.4115 -0.3295
  934TIP3    H1 2766   5.787   0.795   3.646 -3.3943 -0.2875  0.8245
  934TIP3    H2 2767   5.753   0.765   3.502  3.1059 -0.3421 -1.0226
  935TIP3   OH2 2768   0.813   5.466   3.389  0.3824  0.1595 -0.4521
  935TIP3    H1 2769   0.731   5.487   3.345  1.3416  1.6971 -1.6079
  935TIP3    H2 2770   0.844   5.388   3.345  1.1139  1.4314 -2.3168
  936TIP3   OH2 2771   4.544   3.745   5.214 -0.5535 -0.4921 -0.0988
  936TIP3    H1 2772   4.577   3.661   5.245  0.1969 -0.0968  0.1884
  936TIP3    H2 2773   4.523   3.730   5.121 -0.2596 -0.9437 -0.0929
  937TIP3   OH2 2774   5.313   1.682   0.737  0.4461  0.5699  0.4449
  937TIP3    H1 2775   5.341   1.744   0.806  0.5822  0.2757  0.6550
  937TIP3    H2 2776   5.220   1.700   0.726  0.0362 -0.5111  1.8949
  938TIP3   OH2 2777   4.182   6.276   3.375  0.1984  0.4525  0.3893
  938TIP3    H1 2778   4.101   6.225   3.381  1.6007 -1.9647  0.1757
  938TIP3    H2 2779   4.176   6.340   3.446 -1.3849 -0.4261  1.0907
  939TIP3   OH2 2780   3.294   6.835   3.807 -0.8792 -0.3167  0.3593
  939TIP3    H1 2781   3.382   6.805   3.831  0.1427  1.7907 -0.5587
  939TIP3    H2 2782   3.254   6.759   3.763  0.7204 -1.1136  0.2180
  940TIP3   OH2 2783   2.931   2.757   5.889 -0.3302 -0.0493  0.4858
  940TIP3    H1 2784   3.006   2.764   5.948  0.7934 -1.5539 -0.6485
  940TIP3    H2 2785   2.967   2.777   5.802 -0.8853 -2.0649 -0.2735
  941TIP3   OH2 2786   2.529   6.159   5.366 -0.3916 -0.1390 -0.6526
  941TIP3    H1 2787   2.566   6.089   5.312 -1.2073  0.0185 -1.4454
  941TIP3    H2 2788   2.592   6.230   5.360 -0.4884 -0.1097 -1.4553
  942TIP3   OH2 2789   2.245   2.660   5.453 -0.0255 -0.1488  0.2526
  942TIP3    H1 2790   2.198   2.719   5.394  1.0382 -0.0099 -0.4893
  942TIP3    H2 2791   2.323   2.709   5.479  0.6559 -1.0435 -0.0332
  943TIP3   OH2 2792   5.539   5.963   0.115  0.8318 -0.5172 -0.1506
  943TIP3    H1 2793   5.538   5.944   0.022 -0.2928  1.6891 -0.6726
  943TIP3    H2 2794   5.528   5.878   0.157 -1.0981 -1.3374 -2.1124
  944TIP3   OH2 2795   3.695   2.822   4.747 -0.1168  0.0912  0.2679
  944TIP3    H1 2796   3.765   2.886   4.737  0.0361  0.5351  3.3384
  944TIP3    H2 2797   3.627   2.850   4.685  1.7380  0.5150 -1.6907
  945TIP3   OH2 2798   1.479   4.138   2.657  0.0646 -0.0851 -0.1053
  945TIP3    H1 2799   1.467   4.072   2.589 -1.6785  0.4716 -0.4069
  945TIP3    H2 2800   1.413   4.205   2.636 -0.0731  0.4047  1.7733
  946TIP3   OH2 2801   5.622   3.138   3.817 -0.1288 -0.3018  0.2725
  946TIP3    H1 2802   5.711   3.128   3.782 -0.9755 -1.5960 -1.7095
  946TIP3    H2 2803   5.633   3.190   3.897  2.4026 -0.5066  0.1378
  947TIP3   OH2 2804   0.060   6.222   3.037  0.1950  0.7012 -0.0577
  947TIP3    H1 2805   0.108   6.285   3.091  0.4435 -0.3049  0.9354
  947TIP3    H2 2806   0.128   6.167   2.999 -0.0354  0.8600 -0.7140
  948TIP3   OH2 2807   2.897   5.558   2.036 -0.7676  0.1967  0.0300
  948TIP3    H1 2808   2.965   5.602   2.087  0.4431 -0.1387 -1.2307
  948TIP3    H2 2809   2.876   5.618   1.965  0.9693 -1.1808 -1.7628
  949TIP3   OH2 2810   3.128   2.783   4.884 -0.0781 -0.0181  0.0077
  949TIP3    H1 2811   3.101   2.830   4.805 -0.2537 -0.6612 -0.3230
  949TIP3    H2 2812   3.051   2.732   4.909  0.6041 -1.4255 -0.6150
  950TIP3   OH2 2813   4.007   1.663   0.072 -0.1209 -0.5129 -0.1166
  950TIP3    H1 2814   3.944   1.608   0.026  0.7551 -1.1907 -0.5503
  950TIP3    H2 2815   4.093   1.630   0.043  0.4323  0.9224 -0.2092
  951TIP3   OH2 2816   7.061   1.410   2.430  0.4701  0.2026  0.6164
  951TIP3    H1 2817   7.143   1.367   2.456 -0.4713 -0.5295  2.5521
  951TIP3    H2 2818   7.004   1.338   2.402  0.2330  0.6469 -0.0758
  952TIP3   OH2 2819   0.434   1.670   5.793  0.4904  0.6476 -0.5132
  952TIP3    H1 2820   0.352   1.647   5.751  0.8431 -0.3784 -0.6742
  952TIP3    H2 2821   0.408   1.722   5.869 -0.2716  0.7369 -0.8240
  953TIP3   OH2 2822   5.416   1.416   4.335  0.6192 -0.0738  0.2046
  953TIP3    H1 2823   5.494   1.385   4.381  0.2953  0.5985  1.2389
  953TIP3    H2 2824   5.440   1.504   4.306  0.3076  0.0607  0.3606
  954TIP3   OH2 2825   3.303   2.742   2.511 -0.3465 -0.0247 -0.0439
  954TIP3    H1 2826   3.375   2.680   2.520  0.6783  1.1058 -0.0905
  954TIP3    H2 2827   3.263   2.745   2.597 -0.9382 -1.3421 -0.2531
  955TIP3   OH2 2828   2.268   5.926   4.225  0.8306  0.2952  0.0542
  955TIP3    H1 2829   2.292   5.944   4.316  0.6955 -2.0856  0.6374
  955TIP3    H2 2830   2.325   5.854   4.199  0.4558  0.5496 -1.5484
  956TIP3   OH2 2831   5.051   5.142   1.316  0.1040  0.0219 -0.1604
  956TIP3    H1 2832   5.015   5.192   1.242  1.1962  1.1702  0.0570
  956TIP3    H2 2833   4.974   5.111   1.363 -0.6054  0.0841 -1.2380
  957TIP3   OH2 2834   6.544   3.808   2.797 -0.5434  0.4307 -0.3764
  957TIP3    H1 2835   6.497   3.749   2.856 -0.4344  2.3059  1.7492
  957TIP3    H2 2836   6.476   3.842   2.739 -1.0878  0.1281  0.0721
  958TIP3   OH2 2837   0.795   3.968   0.505  0.5056  0.0281 -0.1172
  958TIP3    H1 2838   0.715   3.959   0.454  1.0032 -0.5850 -0.8124
  958TIP3    H2 2839   0.777   4.039   0.567 -0.6568 -0.2773 -0.0926
  959TIP3   OH2 2840   6.663   5.989   4.757  0.1154 -0.4359 -0.4663
  959TIP3    H1 2841   6.616   5.938   4.690 -1.3406  1.8905 -1.3500
  959TIP3    H2 2842   6.708   6.057   4.707  2.0521 -0.8345  0.6620
  960TIP3   OH2 2843   0.564   0.748   0.124 -0.2930 -0.6314 -0.7799
  960TIP3    H1 2844   0.569   0.762   0.030  0.8017  1.2472 -0.4935
  960TIP3    H2 2845   0.637   0.800   0.160 -0.0194 -2.1512  1.0235
  961TIP3   OH2 2846   1.402   1.979   5.319 -0.4254 -0.1184 -0.1427
  961TIP3    H1 2847   1.423   2.047   5.383  2.0370 -0.5917 -0.3517
  961TIP3    H2 2848   1.337   1.923   5.363 -2.7800  2.4440 -0.0971
  962TIP3   OH2 2849   6.300   1.325   0.856 -0.1603  0.1582  0.0234
  962TIP3    H1 2850   6.257   1.240   0.863 -0.1872  0.0341 -1.3554
  962TIP3    H2 2851   6.236   1.388   0.888 -0.4812 -0.2499  0.1877
  963TIP3   OH2 2852   3.844   6.157   3.452 -0.1514  0.8423 -0.3331
  963TIP3    H1 2853   3.817   6.164   3.543 -0.4588  1.0155 -0.4366
  963TIP3    H2 2854   3.787   6.218   3.405 -0.0319  0.7127 -0.6492
  964TIP3   OH2 2855   7.037   4.167   5.773  0.0312 -0.2910 -0.1103
  964TIP3    H1 2856   6.969   4.129   5.717 -0.6376  1.3031 -0.4127
  964TIP3    H2 2857   7.000   4.249   5.805  2.1634  1.1219 -1.0555
  965TIP3   OH2 2858   1.003   1.285   4.008 -0.2151 -0.2715 -0.0007
  965TIP3    H1 2859   0.918   1.251   3.979  0.4506 -2.6375  0.6224
  965TIP3    H2 2860   0.981   1.365   4.057 -1.9442 -0.1520 -0.8829
  966TIP3   OH2 2861   6.438   5.735   3.607 -0.2714  0.7773 -0.1832
  966TIP3    H1 2862   6.392   5.722   3.523  0.2066  0.9258 -0.4683
  966TIP3    H2 2863   6.367   5.741   3.672 -0.6162 -0.5197 -0.4045
  967TIP3   OH2 2864   5.792   1.349   5.019  0.2934  0.0801  0.2277
  967TIP3    H1 2865   5.816   1.258   5.001 -2.3209 -0.5114 -0.7604
  967TIP3    H2 2866   5.772   1.351   5.112 -0.9242 -0.7307  0.0055
  968TIP3   OH2 2867   2.354   2.194   4.801  0.0921  0.0335  0.3357
  968TIP3    H1 2868   2.259   2.204   4.790 -0.3727 -2.7440  0.9552
  968TIP3    H2 2869   2.389   2.202   4.712 -0.8305  0.3405 -0.0141
  969TIP3   OH2 2870   1.325   1.237   3.425  0.2856  0.4384  0.6263
  969TIP3    H1 2871   1.287   1.227   3.337  1.0107 -0.5242  0.4019
  969TIP3    H2 2872   1.335   1.331   3.436 -1.4489  0.6891  0.4032
  970TIP3   OH2 2873   4.805   5.725   2.570  0.2431 -0.8191  0.3242
  970TIP3    H1 2874   4.752   5.750   2.646 -0.7170 -0.1832 -0.5206
  970TIP3    H2 2875   4.891   5.765   2.586 -0.2350  0.1199  0.6299
  971TIP3   OH2 2876   5.685   2.631   0.570 -0.1319 -0.4813  0.4178
  971TIP3    H1 2877   5.708   2.644   0.478  0.7629 -4.0789 -0.0325
  971TIP3    H2 2878   5.763   2.658   0.619  0.1055 -0.3583 -0.0284
  972TIP3   OH2 2879   0.445   3.011   1.112  0.0557 -0.7661  0.3201
  972TIP3    H1 2880   0.444   2.938   1.173  0.8153 -0.7604  0.3451
  972TIP3    H2 2881   0.456   2.970   1.026  2.5282 -0.6284  0.4831
  973TIP3   OH2 2882   4.937   1.362   3.482 -0.5477 -0.4132  0.1749
  973TIP3    H1 2883   4.908   1.275   3.507 -1.9783  0.1733  0.6951
  973TIP3    H2 2884   4.971   1.401   3.563  3.7177 -1.7100 -0.7278
  974TIP3   OH2 2885   3.684   4.095   2.651 -0.6602 -0.1369  0.1473
  974TIP3    H1 2886   3.677   4.000   2.665 -0.8003 -0.0217  0.8662
  974TIP3    H2 2887   3.629   4.134   2.719  0.4022  0.5011  0.6683
  975TIP3   OH2 2888   1.516   0.792   2.583  0.7341  0.3160 -0.1204
  975TIP3    H1 2889   1.610   0.775   2.571  0.3214 -1.2242 -1.5482
  975TIP3    H2 2890   1.486   0.720   2.638  0.4165  0.9477  0.5476
  976TIP3   OH2 2891   0.427   0.851   2.865  0.1940  0.2145  0.1339
  976TIP3    H1 2892   0.354   0.790   2.877 -2.7553  3.5146  0.3872
  976TIP3    H2 2893   0.482   0.838   2.942 -0.0180 -2.3701 -0.0619
  977TIP3   OH2 2894   2.678   1.432   0.470  0.0583  0.3603 -0.0865
  977TIP3    H1 2895   2.618   1.507   0.472  1.8415  1.8710 -0.2835
  977TIP3    H2 2896   2.685   1.409   0.378  0.6124  0.9094 -0.1875
  978TIP3   OH2 2897   0.506   6.567   1.751  0.0522 -0.2652 -0.3760
  978TIP3    H1 2898   0.440   6.542   1.814  1.3719 -0.5405  0.9554
  978TIP3    H2 2899   0.547   6.485   1.725  0.2922 -0.0453 -0.7050
  979TIP3   OH2 2900   0.760   3.898   3.155 -0.1515  0.0547 -0.0685
  979TIP3    H1 2901   0.728   3.900   3.064 -2.6432 -0.8412  0.7068
  979TIP3    H2 2902   0.738   3.985   3.189 -1.2034 -0.3180  0.2522
  980TIP3   OH2 2903   2.913   5.111   2.635  0.2873 -0.1171  0.0407
  980TIP3    H1 2904   3.002   5.080   2.651  1.1030  1.1189 -1.7257
  980TIP3    H2 2905   2.918   5.206   2.651 -0.2439  0.2387 -1.7309
  981TIP3   OH2 2906   1.252   3.837   1.035  0.5301 -0.2616  0.9399
  981TIP3    H1 2907   1.209   3.837   1.121 -0.0523 -0.0602  0.6548
  981TIP3    H2 2908   1.202   3.775   0.983  1.3923 -1.0077  0.9830
  982TIP3   OH2 2909   3.056   4.698   3.701  0.0873  0.1277 -0.0664
  982TIP3    H1 2910   3.111   4.621   3.716  0.6662  0.5525  0.0606
  982TIP3    H2 2911   3.113   4.758   3.652  0.7794  1.7860  2.5950
  983TIP3   OH2 2912   6.308   5.074   2.827 -0.2065  0.3824 -0.5475
  983TIP3    H1 2913   6.339   5.144   2.769  0.5954 -0.1943 -0.8427
  983TIP3    H2 2914   6.354   5.088   2.909  1.5402 -0.9277 -1.2261
  984TIP3   OH2 2915   6.896   1.668   3.374  0.5850  0.2677  0.4283
  984TIP3    H1 2916   6.861   1.608   3.309 -0.7523  2.6991 -1.2745
  984TIP3    H2 2917   6.964   1.618   3.419 -0.2021 -2.3492 -1.0785
  985TIP3   OH2 2918   7.041   3.148   0.384 -0.0440 -0.2418  0.3882
  985TIP3    H1 2919   6.947   3.168   0.388 -0.3172 -1.4823  0.5330
  985TIP3    H2 2920   7.057   3.091   0.459  1.1134  0.9682  1.1185
  986TIP3   OH2 2921   3.547   2.971   5.054 -0.3115 -0.1395 -0.4065
  986TIP3    H1 2922   3.634   2.942   5.027  0.2218  0.1690  0.8973
  986TIP3    H2 2923   3.559   2.999   5.145 -2.0346 -1.2396  0.1905
  987TIP3   OH2 2924   2.302   5.871   5.511 -0.3462 -0.5682  0.0146
  987TIP3    H1 2925   2.367   5.812   5.473 -0.4059 -1.0932  0.7078
  987TIP3    H2 2926   2.245   5.814   5.563  1.0217  0.3330  2.7109
  988TIP3   OH2 2927   5.049   0.052   5.684 -0.1236  0.4104 -0.1708
  988TIP3    H1 2928   5.091   0.136   5.706  1.5244 -1.2043  3.6287
  988TIP3    H2 2929   5.033   0.010   5.768 -1.2281 -2.9858 -1.8917
  989TIP3   OH2 2930   0.995   3.031   0.617 -0.6561 -0.0677 -0.1766
  989TIP3    H1 2931   1.009   2.999   0.706 -0.3162  0.4495 -0.0354
  989TIP3    H2 2932   0.914   3.083   0.623 -0.2439  0.5704  0.0043
  990TIP3   OH2 2933   3.104   5.745   3.838  0.5560 -0.4027 -0.2433
  990TIP3    H1 2934   3.033   5.715   3.781  0.5666  0.8364 -0.9434
  990TIP3    H2 2935   3.075   5.831   3.869  0.4051 -1.1881  1.9241
  991TIP3   OH2 2936   1.215   5.285   0.298 -0.3864 -0.2811  0.3600
  991TIP3    H1 2937   1.309   5.295   0.313 -0.5234  0.0478  1.0557
  991TIP3    H2 2938   1.186   5.371   0.269 -0.3038 -0.6504 -0.8506
  992TIP3   OH2 2939   6.368   0.438   4.980  0.0476 -0.0078 -0.2328
  992TIP3    H1 2940   6.322   0.366   4.938 -1.0440  0.8255 -0.5376
  992TIP3    H2 2941   6.441   0.397   5.025 -0.9646 -1.3891  0.2217
  993TIP3   OH2 2942   3.533   0.241   1.522  0.2668 -0.2027  0.4812
  993TIP3    H1 2943   3.523   0.146   1.524  1.2955 -0.3188  1.2903
  993TIP3    H2 2944   3.627   0.255   1.506 -0.1412  0.7014 -1.4396
  994TIP3   OH2 2945   5.968   1.009   3.069  0.2391  0.4630  0.4296
  994TIP3    H1 2946   5.917   0.931   3.046 -0.0818  0.3502  1.5085
  994TIP3    H2 2947   5.953   1.069   2.995 -0.9934  0.2090  0.4429
  995TIP3   OH2 2948   5.408   2.838   0.057 -0.1566  0.2496 -0.1866
  995TIP3    H1 2949   5.432   2.777   0.127  1.6705 -0.6632 -1.5318
  995TIP3    H2 2950   5.314   2.826   0.047 -0.3362 -0.1379  1.6046
  996TIP3   OH2 2951   2.130   0.928   4.965 -0.2130 -1.1549  0.4867
  996TIP3    H1 2952   2.036   0.946   4.960 -0.1857 -0.6773  1.4545
  996TIP3    H2 2953   2.162   0.984   5.036  0.8939 -0.9516 -0.1451
  997TIP3   OH2 2954   2.812   4.646   4.194 -0.0731  0.4206  0.1199
  997TIP3    H1 2955   2.824   4.693   4.112 -1.3725 -0.5798 -0.6958
  997TIP3    H2 2956   2.791   4.556   4.167  0.1993 -0.1135  1.5711
  998TIP3   OH2 2957   3.868   4.708   5.252  0.4836  0.6421  0.3081
  998TIP3    H1 2958   3.807   4.709   5.179  1.1788  0.4192 -0.2868
  998TIP3    H2 2959   3.840   4.781   5.308 -1.1164 -0.2344  0.7252
  999TIP3   OH2 2960   7.185   5.356   3.131 -0.3163  0.2857  0.4064
  999TIP3    H1 2961   7.187   5.313   3.216  0.3093 -1.3813 -0.4036
  999TIP3    H2 2962   7.241   5.433   3.141  0.7465 -0.5696  1.1771
 1000TIP3   OH2 2963   6.703   2.029   2.979  0.0859 -0.0378 -0.4725
 1000TIP3    H1 2964   6.650   1.956   3.012 -0.4415  0.9004  0.8328
 1000TIP3    H2 2965   6.677   2.104   3.033  1.0200  0.9977 -1.4097
 1001TIP3   OH2 2966   0.692   5.370   1.933 -0.8354  0.0648  0.8287
 1001TIP3    H1 2967   0.663   5.314   2.005 -0.8231  0.1269  0.8824
 1001TIP3    H2 2968   0.636   5.447   1.939 -1.1733 -0.1487  0.4639
 1002TIP3   OH2 2969   0.145   2.153   4.336 -0.1097  0.5214  0.1075
 1002TIP3    H1 2970   0.101   2.069   4.345  0.1591  0.3805  0.1177
 1002TIP3    H2 2971   0.102   2.210   4.401  0.8544 -0.0882  1.3285
 1003TIP3   OH2 2972   6.162   5.777   5.822  0.3905 -0.2413 -0.0707
 1003TIP3    H1 2973   6.126   5.796   5.735  0.7056 -1.5702 -0.5278
 1003TIP3    H2 2974   6.115   5.835   5.881  1.1695  1.7214 -1.2894
 1004TIP3   OH2 2975   2.858   4.007   3.960 -0.4651 -0.2019 -0.2015
 1004TIP3    H1 2976   2.903   3.963   4.032  0.0583  0.2483 -0.2483
 1004TIP3    H2 2977   2.921   4.007   3.888  0.0322  1.6925  0.1702
 1005TIP3   OH2 2978   0.169   1.317   4.358 -0.1998 -0.4340 -0.4366
 1005TIP3    H1 2979   0.100   1.379   4.383  2.2734  2.7561 -0.8915
 1005TIP3    H2 2980   0.140   1.281   4.275 -1.2200  1.0042 -0.7376
 1006TIP3   OH2 2981   1.230   1.800   4.289  0.4944  0.2622 -0.3883
 1006TIP3    H1 2982   1.279   1.749   4.225  0.8535  1.2558 -0.9216
 1006TIP3    H2 2983   1.198   1.735   4.351  2.2482 -0.4508 -0.1714
 1007TIP3   OH2 2984   1.055   4.904   0.156  0.3202 -0.2377 -0.5341
 1007TIP3    H1 2985   1.126   4.899   0.220 -0.2330 -0.2149  0.0917
 1007TIP3    H2 2986   1.076   4.980   0.103  0.7017 -0.1599 -0.2762
 1008TIP3   OH2 2987   2.874   6.225   1.136  0.4044  0.6604  0.3263
 1008TIP3    H1 2988   2.954   6.173   1.144  0.6383  0.9079 -0.3292
 1008TIP3    H2 2989   2.871   6.250   1.044 -1.5127 -1.0730 -0.1509
 1009TIP3   OH2 2990   5.371   6.691   5.215 -0.0520  0.3884 -0.6713
 1009TIP3    H1 2991   5.315   6.643   5.154 -2.5036 -0.1330  1.7811
 1009TIP3    H2 2992   5.317   6.765   5.244  0.5040 -0.0259  1.6467
 1010TIP3   OH2 2993   5.942   6.673   0.052 -0.8546 -0.1864  0.2339
 1010TIP3    H1 2994   5.940   6.745  -0.012 -1.0767 -0.8119 -0.4738
 1010TIP3    H2 2995   5.921   6.595   0.001  0.7210 -0.9688  0.7349
 1011TIP3   OH2 2996   6.537   4.920   4.018  0.4257 -0.1255 -0.2024
 1011TIP3    H1 2997   6.537   4.947   3.926  0.9475  1.5762  0.2583
 1011TIP3    H2 2998   6.445   4.920   4.043  0.2113 -1.3030 -0.8784
 1012TIP3   OH2 2999   4.746   3.033   4.444 -0.0036 -0.3954  0.3173
 1012TIP3    H1 3000   4.735   2.952   4.493  0.6544  0.1560  1.4100
 1012TIP3    H2 3001   4.670   3.036   4.385  0.0319 -1.8426  0.1835
 1013TIP3   OH2 3002   2.350   5.996   2.737  0.8792 -0.2267  0.5117
 1013TIP3    H1 3003   2.418   6.051   2.699 -0.0008  0.0362 -0.7546
 1013TIP3    H2 3004   2.307   5.956   2.662 -0.5147 -0.2152  1.2704
 1014TIP3   OH2 3005   4.996   0.705   3.623 -0.3909 -0.7060 -0.5697
 1014TIP3    H1 3006   4.919   0.658   3.592 -0.2449 -1.4375  0.1398
 1014TIP3    H2 3007   4.963   0.791   3.648 -0.9409 -0.9498 -0.4473
 1015TIP3   OH2 3008   0.974   6.525   5.052 -0.0350 -0.0719 -0.0732
 1015TIP3    H1 3009   1.015   6.519   5.138  3.6015  1.5054 -1.5124
 1015TIP3    H2 3010   0.972   6.435   5.020 -0.4306 -0.5352  1.1676
 1016TIP3   OH2 3011   3.194   1.986   2.116 -0.0169 -0.3648  0.0521
 1016TIP3    H1 3012   3.236   2.066   2.148  0.2612 -0.1748 -0.7468
 1016TIP3    H2 3013   3.127   2.017   2.055 -0.0219 -0.7267 -0.1325
 1017TIP3   OH2 3014   4.839   0.207   5.586  0.2004 -0.0535 -0.4162
 1017TIP3    H1 3015   4.887   0.129   5.613 -1.0228 -1.0335 -0.9863
 1017TIP3    H2 3016   4.837   0.202   5.490  0.2810  0.7988 -0.4742
 1018TIP3   OH2 3017   0.495   5.128   5.492 -0.3609  0.3253  1.1101
 1018TIP3    H1 3018   0.522   5.115   5.583  0.8577  0.5553  0.7899
 1018TIP3    H2 3019   0.404   5.156   5.499 -0.6021 -0.6140  2.2089
 1019TIP3   OH2 3020   4.935   4.662   1.745 -0.4444 -0.4601 -0.8097
 1019TIP3    H1 3021   4.928   4.650   1.650 -0.9487  1.1386 -1.0044
 1019TIP3    H2 3022   5.028   4.655   1.763 -0.2674 -0.1369 -1.5337
 1020TIP3   OH2 3023   0.470   1.866   2.508  0.4944 -0.2269  0.1438
 1020TIP3    H1 3024   0.546   1.817   2.539  1.3691  0.9570 -0.0805
 1020TIP3    H2 3025   0.506   1.943   2.464 -0.8037 -0.1297 -0.8485
 1021TIP3   OH2 3026   4.909   0.379   0.410  0.0500  0.5769 -0.3270
 1021TIP3    H1 3027   4.960   0.413   0.483 -0.6118 -1.1618  1.0031
 1021TIP3    H2 3028   4.974   0.350   0.347  0.6696  0.3495  0.4069
 1022TIP3   OH2 3029   6.378   5.432   4.650  0.0920 -0.1220 -0.3363
 1022TIP3    H1 3030   6.291   5.424   4.690 -0.3315 -0.8147 -1.3601
 1022TIP3    H2 3031   6.361   5.465   4.562  0.9009  0.0053 -0.4534
 1023TIP3   OH2 3032   3.147   6.787   2.242  0.0215  0.3854  0.0720
 1023TIP3    H1 3033   3.065   6.747   2.212  0.3828 -0.4310  0.1643
 1023TIP3    H2 3034   3.213   6.719   2.230  0.4974  0.6623  1.0280
 1024TIP3   OH2 3035   3.469   4.126   2.860 -0.1384 -0.4550 -0.5273
 1024TIP3    H1 3036   3.531   4.198   2.855  1.1713 -1.6195 -2.0580
 1024TIP3    H2 3037   3.388   4.161   2.824  0.5525  0.1899 -1.4713
 1025TIP3   OH2 3038   0.705   5.690   0.412  0.0502  0.0536 -0.2919
 1025TIP3    H1 3039   0.792   5.705   0.374 -0.1410  1.0331 -0.3697
 1025TIP3    H2 3040   0.723   5.662   0.502  0.4583  0.2486 -0.3094
 1026TIP3   OH2 3041   1.149   2.980   0.186  0.2806  0.3743  0.0136
 1026TIP3    H1 3042   1.151   2.933   0.270 -1.2443 -1.6299 -0.9822
 1026TIP3    H2 3043   1.070   2.948   0.143  2.5474 -1.0084 -3.4674
 1027TIP3   OH2 3044   4.244   2.012   0.872  0.4218 -0.7111 -0.2189
 1027TIP3    H1 3045   4.324   2.063   0.858  0.5813 -0.3891  1.6417
 1027TIP3    H2 3046   4.217   2.033   0.961 -2.0605 -0.4035 -0.9776
 1028TIP3   OH2 3047   0.563   4.849   0.880 -0.4291  0.5728 -0.2915
 1028TIP3    H1 3048   0.512   4.835   0.959  0.2515 -1.4354 -0.1574
 1028TIP3    H2 3049   0.500   4.843   0.808 -0.4605 -1.9007 -0.1325
 1029TIP3   OH2 3050   1.820   5.959   0.561 -0.5514  0.1689 -0.0844
 1029TIP3    H1 3051   1.832   6.001   0.646  0.5684 -2.1701  1.0158
 1029TIP3    H2 3052   1.890   5.995   0.506 -1.2332  1.6335 -0.0203
 1030TIP3   OH2 3053   0.669   2.319   0.484  0.2696 -0.4976  0.1048
 1030TIP3    H1 3054   0.589   2.359   0.449 -0.1056 -0.5955  0.8271
 1030TIP3    H2 3055   0.740   2.365   0.440 -0.0860 -3.3601 -4.0457
 1031TIP3   OH2 3056   5.999   0.021   1.786 -0.2311  0.3059 -0.6192
 1031TIP3    H1 3057   6.004   0.036   1.880 -0.6543  1.0553 -0.7060
 1031TIP3    H2 3058   6.038   0.099   1.747  1.4699 -0.7198 -1.0684
 1032TIP3   OH2 3059   0.840   3.802   3.952  0.1423 -0.1200  0.4116
 1032TIP3    H1 3060   0.869   3.811   4.043 -1.8054  1.6799  0.9297
 1032TIP3    H2 3061   0.877   3.878   3.907  0.0965 -0.3529 -0.0211
 1033TIP3   OH2 3062   0.997   5.527   5.821 -0.2062  0.3762  0.0126
 1033TIP3    H1 3063   1.077   5.480   5.844 -0.5085 -0.2276 -0.1457
 1033TIP3    H2 3064   0.979   5.501   5.731 -0.4148  0.7515 -0.0569
 1034TIP3   OH2 3065   5.528   3.520   3.761  0.1319  0.2652 -0.3435
 1034TIP3    H1 3066   5.580   3.506   3.840 -1.0551 -0.2239  0.3829
 1034TIP3    H2 3067   5.591   3.548   3.695  1.3115 -0.3525  0.4877
 1035TIP3   OH2 3068   1.724   6.219   3.179 -0.3670 -0.5636 -0.0626
 1035TIP3    H1 3069   1.637   6.181   3.181 -1.0953  1.0155  0.1498
 1035TIP3    H2 3070   1.771   6.177   3.251 -1.6332  0.0349  1.1693
 1036TIP3   OH2 3071   4.352   3.605   4.284 -0.3941  0.0088  0.0650
 1036TIP3    H1 3072   4.279   3.665   4.297 -0.3404 -0.3127  2.2258
 1036TIP3    H2 3073   4.425   3.662   4.258 -0.5988  0.7706  1.1059
 1037TIP3   OH2 3074   5.446   3.148   0.583 -0.8231 -0.3726  0.0457
 1037TIP3    H1 3075   5.522   3.091   0.594  0.6472  1.8562  2.6550
 1037TIP3    H2 3076   5.387   3.123   0.654 -0.4182  0.8840  0.8579
 1038TIP3   OH2 3077   2.888   4.932   1.721  0.0469  0.1344  0.6486
 1038TIP3    H1 3078   2.960   4.994   1.710  0.7517 -1.0275 -2.0250
 1038TIP3    H2 3079   2.810   4.986   1.733  0.9448  1.4794  0.5190
 1039TIP3   OH2 3080   5.222   3.112   3.869 -0.4037 -0.4524  0.2226
 1039TIP3    H1 3081   5.169   3.191   3.865 -0.9001 -0.7280  1.1073
 1039TIP3    H2 3082   5.279   3.117   3.792  0.3761  1.3303  0.8534
 1040TIP3   OH2 3083   1.976   5.406   1.317 -0.1109  0.5448  0.4548
 1040TIP3    H1 3084   1.903   5.468   1.309 -0.2511  0.3419  0.1483
 1040TIP3    H2 3085   1.976   5.382   1.410 -1.1826 -0.3464  0.2428
 1041TIP3   OH2 3086   4.935   3.873   0.918  0.1992  0.2785  0.0639
 1041TIP3    H1 3087   4.923   3.782   0.892 -0.7989  0.4127  0.0281
 1041TIP3    H2 3088   4.849   3.913   0.909  0.4968  1.0881  0.6284
 1042TIP3   OH2 3089   1.190   2.639   4.744 -0.3088  0.1948 -0.1178
 1042TIP3    H1 3090   1.216   2.607   4.658  0.6965  1.6372 -0.3885
 1042TIP3    H2 3091   1.156   2.562   4.789 -2.3785 -0.2880 -2.3287
 1043TIP3   OH2 3092   6.274   6.751   2.287 -0.0572 -0.3655 -0.3336
 1043TIP3    H1 3093   6.216   6.678   2.310  1.3103 -1.3310  0.2123
 1043TIP3    H2 3094   6.216   6.817   2.250 -1.3765 -1.6590 -0.6861
 1044TIP3   OH2 3095   2.026   0.903   1.867  0.4050 -0.2826  0.0025
 1044TIP3    H1 3096   1.974   0.909   1.947 -3.1310  0.9836 -2.1642
 1044TIP3    H2 3097   2.054   0.812   1.863 -1.4874 -0.9932  1.4778
 1045TIP3   OH2 3098   3.945   0.200   5.479  0.2985  0.0303  0.1278
 1045TIP3    H1 3099   3.938   0.181   5.386  0.3141  4.0223 -0.8642
 1045TIP3    H2 3100   4.039   0.206   5.495  0.2700  0.8365  0.0140
 1046TIP3   OH2 3101   0.791   1.151   3.903  0.3019  0.0184 -0.4060
 1046TIP3    H1 3102   0.762   1.068   3.939  0.3580  0.5037  0.7930
 1046TIP3    H2 3103   0.746   1.157   3.818  0.7087 -1.4565 -0.7491
 1047TIP3   OH2 3104   4.701   3.627   2.710 -0.7204 -0.2443 -0.1084
 1047TIP3    H1 3105   4.682   3.714   2.674  2.1978  0.7082  0.3626
 1047TIP3    H2 3106   4.690   3.568   2.635 -1.1123  0.7704 -0.8821
 1048TIP3   OH2 3107   6.447   0.220   3.618  0.0257  0.6443 -0.1357
 1048TIP3    H1 3108   6.368   0.204   3.668  0.6885 -0.9340  0.4799
 1048TIP3    H2 3109   6.516   0.230   3.684  0.6198  0.2806 -0.6854
 1049TIP3   OH2 3110   0.167   0.476   1.652  0.2592  0.6154  0.4703
 1049TIP3    H1 3111   0.108   0.551   1.656 -0.6050 -0.0011 -0.4405
 1049TIP3    H2 3112   0.249   0.512   1.617 -0.6491  0.8548 -1.5177
 1050TIP3   OH2 3113   1.491   2.176   2.894 -0.1607  0.4057  0.4299
 1050TIP3    H1 3114   1.461   2.266   2.883  0.9039  0.7833  0.5304
 1050TIP3    H2 3115   1.438   2.126   2.832  0.4480  1.3577 -0.8971
 1051TIP3   OH2 3116   2.617   2.604   5.255 -0.2709  0.1466 -0.1469
 1051TIP3    H1 3117   2.527   2.574   5.241 -0.0147 -0.3570 -0.7347
 1051TIP3    H2 3118   2.609   2.669   5.325 -1.1034  0.1710 -0.2486
 1052TIP3   OH2 3119   0.421   0.091   3.216  0.0515  0.1995  0.1855
 1052TIP3    H1 3120   0.456   0.138   3.293 -0.5233 -0.2696  0.7459
 1052TIP3    H2 3121   0.494   0.038   3.186  0.9255  1.8886 -0.8455
 1053TIP3   OH2 3122   6.453   4.323   2.199  0.9263 -0.2093  0.0498
 1053TIP3    H1 3123   6.504   4.395   2.237  2.3357 -0.4397 -1.3154
 1053TIP3    H2 3124   6.370   4.363   2.173  1.0352  0.5463  0.8291
 1054TIP3   OH2 3125   3.050   1.422   2.690  0.6053 -0.0395 -0.1456
 1054TIP3    H1 3126   3.021   1.481   2.759  0.7049  0.1395 -0.2576
 1054TIP3    H2 3127   3.107   1.359   2.735  0.3723 -0.1478  0.0010
 1055TIP3   OH2 3128   1.163   4.315   1.513  0.0640  0.1370  0.0520
 1055TIP3    H1 3129   1.071   4.343   1.514 -0.0527 -0.2336 -0.0858
 1055TIP3    H2 3130   1.204   4.367   1.582 -0.5689 -0.7406  1.1192
 1056TIP3   OH2 3131   5.399   0.275   2.737 -0.0956 -0.4382 -0.1136
 1056TIP3    H1 3132   5.461   0.305   2.670 -0.6388  0.4041 -0.2547
 1056TIP3    H2 3133   5.372   0.188   2.707  2.0701 -1.4761  0.6902
 1057TIP3   OH2 3134   1.876   0.687   5.484  0.1473 -0.1351  0.0688
 1057TIP3    H1 3135   1.824   0.759   5.448 -1.2731 -1.0067  0.2921
 1057TIP3    H2 3136   1.937   0.664   5.413 -0.3916  0.3122 -0.5572
 1058TIP3   OH2 3137   2.315   2.812   0.738  0.1773  1.2420  0.2633
 1058TIP3    H1 3138   2.329   2.791   0.645 -1.6180 -1.3896  0.4855
 1058TIP3    H2 3139   2.368   2.748   0.786 -0.6325  1.1263  1.0312
 1059TIP3   OH2 3140   5.373   1.681   5.317  0.0275 -0.4184 -0.0457
 1059TIP3    H1 3141   5.436   1.658   5.249  0.1682  0.8294 -0.3597
 1059TIP3    H2 3142   5.288   1.655   5.281  0.3987 -3.3926  0.9319
 1060TIP3   OH2 3143   1.288   1.205   5.847  0.0480 -0.4581  0.1032
 1060TIP3    H1 3144   1.229   1.269   5.807 -0.6546 -0.3006  1.3406
 1060TIP3    H2 3145   1.363   1.258   5.876  0.5397 -0.5666 -0.9213
 1061TIP3   OH2 3146   6.166   2.843   1.461 -0.0687 -0.6126  0.3530
 1061TIP3    H1 3147   6.099   2.912   1.465 -0.2450 -0.6653 -1.3336
 1061TIP3    H2 3148   6.194   2.833   1.552 -1.4175  0.3282  0.9126
 1062TIP3   OH2 3149   7.225   6.570   4.646 -0.2385  0.5218  0.4504
 1062TIP3    H1 3150   7.254   6.484   4.675 -0.6271 -0.3451 -1.5470
 1062TIP3    H2 3151   7.150   6.552   4.589 -1.4362  2.3261  1.3409
 1063TIP3   OH2 3152   7.049   1.928   3.801 -0.3054 -0.1292  0.2632
 1063TIP3    H1 3153   7.116   1.894   3.861 -0.4433  1.5176  1.4000
 1063TIP3    H2 3154   7.095   1.992   3.747 -0.6536 -0.0536  0.0534
 1064TIP3   OH2 3155   6.539   0.319   0.641 -0.3326  0.2308  0.3131
 1064TIP3    H1 3156   6.550   0.306   0.547 -1.2304 -0.6484  0.3081
 1064TIP3    H2 3157   6.592   0.395   0.661 -0.0242  0.3563 -0.8858
 1065TIP3   OH2 3158   0.485   5.233   3.382 -0.2753  0.3184  0.1846
 1065TIP3    H1 3159   0.397   5.211   3.414  0.0445 -2.3996 -0.5165
 1065TIP3    H2 3160   0.544   5.191   3.445  0.4174 -0.6247 -1.0410
 1066TIP3   OH2 3161   2.409   3.678   3.150 -0.0690 -0.1907  0.1433
 1066TIP3    H1 3162   2.458   3.679   3.232  2.1767 -2.8186 -0.9719
 1066TIP3    H2 3163   2.475   3.695   3.082 -1.7642  1.4526 -1.1850
 1067TIP3   OH2 3164   3.165   6.561   1.979 -0.0304  0.0983 -0.0906
 1067TIP3    H1 3165   3.112   6.498   2.029 -1.4787 -0.0298 -1.6773
 1067TIP3    H2 3166   3.230   6.593   2.042  0.0196 -2.1024  1.0796
 1068TIP3   OH2 3167   1.958   0.865   0.434 -0.0569 -0.6036  0.2661
 1068TIP3    H1 3168   1.888   0.863   0.369  0.5013 -1.5962 -0.3312
 1068TIP3    H2 3169   1.981   0.958   0.442 -0.9516 -0.3475 -0.0530
 1069TIP3   OH2 3170   0.142   5.519   4.180 -0.1003 -0.3167 -0.2561
 1069TIP3    H1 3171   0.088   5.471   4.118  1.0281 -0.2787 -1.2949
 1069TIP3    H2 3172   0.229   5.520   4.141  0.5247  0.1535  1.0901
 1070TIP3   OH2 3173   1.053   1.934   0.382 -0.3733 -0.3576 -0.1943
 1070TIP3    H1 3174   1.112   1.997   0.422  0.0488 -0.1399 -1.1378
 1070TIP3    H2 3175   0.976   1.985   0.356  0.3339 -0.0375 -1.7487
 1071TIP3   OH2 3176   1.707   1.262   0.938  0.2216 -0.6484 -0.3216
 1071TIP3    H1 3177   1.636   1.250   1.001  1.6759 -0.8161  1.3360
 1071TIP3    H2 3178   1.733   1.173   0.914  0.2671 -0.5901 -0.4952
 1072TIP3   OH2 3179   7.054   5.653   4.037  0.5606  0.3519 -0.6798
 1072TIP3    H1 3180   7.098   5.601   3.970 -0.9469 -0.6130 -0.9545
 1072TIP3    H2 3181   7.118   5.658   4.109  1.0883 -1.0886 -1.0198
 1073TIP3   OH2 3182   3.704   4.152   1.361 -0.2557 -0.5869  0.7926
 1073TIP3    H1 3183   3.708   4.213   1.434  0.3092 -0.9903  1.1069
 1073TIP3    H2 3184   3.783   4.169   1.311 -1.9244  1.6274 -1.3499
 1074TIP3   OH2 3185   1.580   3.049   5.261  0.1358 -0.2818 -0.1266
 1074TIP3    H1 3186   1.569   3.102   5.340 -0.9460 -0.9415  0.2023
 1074TIP3    H2 3187   1.503   2.992   5.261 -0.4501  0.4362 -2.2300
 1075TIP3   OH2 3188   6.998   3.361   5.653  0.6968  0.2156 -0.2675
 1075TIP3    H1 3189   6.944   3.439   5.669 -0.8933 -1.0393  0.8115
 1075TIP3    H2 3190   6.958   3.320   5.577  2.4087  1.1346 -1.7382
 1076TIP3   OH2 3191   0.548   5.366   1.306 -0.3350 -0.4128 -0.3295
 1076TIP3    H1 3192   0.570   5.365   1.213 -1.2749 -1.6924 -0.5623
 1076TIP3    H2 3193   0.624   5.326   1.349  0.5427  1.0872 -0.4015
 1077TIP3   OH2 3194   2.934   2.503   0.758  0.0830  0.2878 -0.4576
 1077TIP3    H1 3195   2.957   2.515   0.666 -1.2254 -0.4207 -0.9061
 1077TIP3    H2 3196   2.964   2.583   0.802 -0.8422  1.4221 -1.8081
 1078TIP3   OH2 3197   3.150   3.439   0.814 -0.7758 -0.5959 -0.4059
 1078TIP3    H1 3198   3.124   3.414   0.903  0.3970 -1.4427 -0.2800
 1078TIP3    H2 3199   3.068   3.439   0.764 -1.3251 -0.9781  0.4718
 1079TIP3   OH2 3200   5.992   3.683   4.119  0.2771 -0.7878  0.4275
 1079TIP3    H1 3201   6.053   3.728   4.178  1.0951 -1.5283  0.1744
 1079TIP3    H2 3202   5.905   3.709   4.149  0.7136  0.5117  0.6306
 1080TIP3   OH2 3203   2.758   0.685   4.023  0.5536  0.2221  0.1760
 1080TIP3    H1 3204   2.799   0.760   4.068 -0.2746  1.1562 -0.5859
 1080TIP3    H2 3205   2.735   0.625   4.094 -0.5056  1.5579  1.0227
 1081TIP3   OH2 3206   4.876   6.756   5.458 -0.0116 -0.1516  0.0013
 1081TIP3    H1 3207   4.868   6.785   5.549  0.1822  0.0347 -0.0381
 1081TIP3    H2 3208   4.865   6.661   5.462 -0.3075 -0.1126  0.1792
 1082TIP3   OH2 3209   1.911   4.252   3.545  0.0938  0.0176  0.3830
 1082TIP3    H1 3210   1.898   4.288   3.633  1.0512 -0.7656  0.8534
 1082TIP3    H2 3211   1.981   4.305   3.508  0.7795 -0.6575  0.6886
 1083TIP3   OH2 3212   1.556   2.331   0.042 -0.1619 -0.0439 -0.4036
 1083TIP3    H1 3213   1.501   2.258   0.069 -0.0414 -0.6742 -1.7665
 1083TIP3    H2 3214   1.520   2.407   0.088 -1.4383 -0.6490 -0.3601
 1084TIP3   OH2 3215   1.164   6.727   3.724 -0.4473  0.2345  0.3350
 1084TIP3    H1 3216   1.187   6.804   3.777  0.5496 -0.5538  1.1065
 1084TIP3    H2 3217   1.074   6.706   3.749  0.0733 -0.2478  1.9369
 1085TIP3   OH2 3218   2.766   5.594   4.093  0.1551  0.2929 -0.2089
 1085TIP3    H1 3219   2.717   5.548   4.026  1.4544 -2.2781  0.4754
 1085TIP3    H2 3220   2.721   5.573   4.175  1.7713 -1.3159  0.3135
 1086TIP3   OH2 3221   2.273   4.025   2.512  0.3487 -0.3635 -0.1122
 1086TIP3    H1 3222   2.236   3.951   2.463  1.1457  0.0135 -1.3060
 1086TIP3    H2 3223   2.329   3.984   2.578 -0.1320 -0.8460  0.0084
 1087TIP3   OH2 3224   1.723   6.298   0.010  0.5746 -0.1326  0.7233
 1087TIP3    H1 3225   1.644   6.351   0.018  0.0615 -0.9377  1.1076
 1087TIP3    H2 3226   1.790   6.360  -0.018  0.0903  0.7996  1.5376
 1088TIP3   OH2 3227   6.705   2.778   4.824  0.4280 -0.9759 -0.6598
 1088TIP3    H1 3228   6.750   2.751   4.744  0.1570 -1.1111 -0.7665
 1088TIP3    H2 3229   6.621   2.813   4.793 -0.2353 -2.2439 -0.3344
 1089TIP3   OH2 3230   0.199   1.405   1.812  0.3968  0.1415  0.0653
 1089TIP3    H1 3231   0.188   1.487   1.764 -1.4603 -0.0187  0.1369
 1089TIP3    H2 3232   0.209   1.432   1.903 -1.9003  0.3171  0.3422
 1090TIP3   OH2 3233   2.838   1.906   2.655 -0.3024 -0.5505  0.5636
 1090TIP3    H1 3234   2.810   1.840   2.591  1.5651 -0.1121 -0.7812
 1090TIP3    H2 3235   2.911   1.866   2.701  0.4730  0.3351  0.1370
 1091TIP3   OH2 3236   5.488   6.292   0.669 -0.1411 -0.3076 -0.0613
 1091TIP3    H1 3237   5.472   6.381   0.638  0.2659 -0.5633 -1.0322
 1091TIP3    H2 3238   5.447   6.236   0.603 -0.3180 -0.8536  0.4972
 1092TIP3   OH2 3239   0.473   4.548   0.968  0.1924  0.5010 -0.1687
 1092TIP3    H1 3240   0.398   4.499   1.001  0.0848  0.3239 -0.6632
 1092TIP3    H2 3241   0.520   4.576   1.046  0.1703 -0.2689  0.1235
 1093TIP3   OH2 3242   1.540   2.910   3.086  0.2259 -0.5808  0.0154
 1093TIP3    H1 3243   1.628   2.931   3.055 -0.2555  0.9355 -0.4372
 1093TIP3    H2 3244   1.513   2.834   3.034  1.1096 -0.8120 -0.1138
 1094TIP3   OH2 3245   3.864   6.017   2.948  0.0046  0.3759 -0.3757
 1094TIP3    H1 3246   3.940   5.959   2.939 -0.4482 -0.0950 -1.4276
 1094TIP3    H2 3247   3.820   5.986   3.026  0.4464  0.1120 -0.2242
 1095TIP3   OH2 3248   1.179   2.033   5.058  0.3029  0.0192  0.1630
 1095TIP3    H1 3249   1.271   2.010   5.069 -0.2153 -1.6063  1.3815
 1095TIP3    H2 3250   1.175   2.072   4.971  1.6403 -2.7265 -1.2666
 1096TIP3   OH2 3251   3.586   0.118   3.360  0.0854  0.0083  0.0394
 1096TIP3    H1 3252   3.575   0.181   3.431 -0.3969  1.7591 -1.5008
 1096TIP3    H2 3253   3.521   0.050   3.378 -1.0558  1.1790  0.4962
 1097TIP3   OH2 3254   4.295   1.829   0.096  0.3544  0.6041  0.0213
 1097TIP3    H1 3255   4.352   1.798   0.167 -0.2321  0.9440  0.6490
 1097TIP3    H2 3256   4.353   1.835   0.020  0.9361 -0.0155  0.4017
 1098TIP3   OH2 3257   1.053   6.014   4.512  0.0074  0.2456 -0.2810
 1098TIP3    H1 3258   1.066   6.017   4.607 -0.0282  2.8743 -0.3133
 1098TIP3    H2 3259   1.140   6.001   4.476  0.3142  1.2663  0.0679
 1099TIP3   OH2 3260   3.168   5.136   3.680  0.0898  0.0596 -0.4095
 1099TIP3    H1 3261   3.171   5.041   3.690 -1.4187 -0.0367 -0.6473
 1099TIP3    H2 3262   3.224   5.170   3.750  1.9814 -1.0260 -1.3181
 1100TIP3   OH2 3263   6.874   6.757   4.903 -1.0049  0.9096 -0.1712
 1100TIP3    H1 3264   6.856   6.810   4.980 -0.5224 -1.3057  1.5801
 1100TIP3    H2 3265   6.950   6.798   4.862 -0.4763  1.3909  1.2662
 1101TIP3   OH2 3266   6.288   2.091   5.062  0.0616 -0.2940 -0.1484
 1101TIP3    H1 3267   6.295   2.172   5.112  0.8102  1.4496 -2.8320
 1101TIP3    H2 3268   6.371   2.045   5.079  0.5713  0.5615 -0.2453
 1102TIP3   OH2 3269   2.506  -0.012   1.594 -0.2565 -0.8784 -0.2493
 1102TIP3    H1 3270   2.542   0.072   1.623 -2.0584 -0.1157 -0.0893
 1102TIP3    H2 3271   2.556  -0.034   1.516 -1.4873  1.7211 -1.8855
 1103TIP3   OH2 3272   3.868   0.881   5.758  0.0482  0.3084  0.3814
 1103TIP3    H1 3273   3.817   0.801   5.775 -0.8045  0.3430 -1.7056
 1103TIP3    H2 3274   3.959   0.852   5.759 -0.1263 -0.2947  1.4708
 1104TIP3   OH2 3275   0.379   1.592   4.312 -0.3511 -0.2155  0.5013
 1104TIP3    H1 3276   0.470   1.574   4.290 -0.5669  0.5352 -1.1053
 1104TIP3    H2 3277   0.373   1.574   4.406  2.0175  2.0337  1.1715
 1105TIP3   OH2 3278   0.371   2.792   1.804 -0.2863 -0.2976  0.1065
 1105TIP3    H1 3279   0.302   2.728   1.824 -0.0359 -1.4515 -2.3259
 1105TIP3    H2 3280   0.329   2.854   1.745 -0.0124  0.7854  1.0100
 1106TIP3   OH2 3281   1.542   0.857   5.157 -0.1743  0.5790 -0.3278
 1106TIP3    H1 3282   1.557   0.928   5.096 -0.7600  1.9102  1.0171
 1106TIP3    H2 3283   1.498   0.790   5.106 -0.5125  1.5909 -1.3920
 1107TIP3   OH2 3284   4.710   3.129   4.692 -0.3518 -0.4971 -0.1912
 1107TIP3    H1 3285   4.795   3.157   4.726 -1.3372  1.5386  0.8440
 1107TIP3    H2 3286   4.719   3.133   4.597  0.7587 -0.4600 -0.0904
 1108TIP3   OH2 3287   1.617   3.452   3.977 -0.6885 -0.2152 -0.0040
 1108TIP3    H1 3288   1.539   3.411   4.014 -2.0603  2.2066  0.0475
 1108TIP3    H2 3289   1.602   3.546   3.988  1.4528  0.4078 -1.6094
 1109TIP3   OH2 3290   4.091   3.621   1.003 -0.1023  0.1198  0.1875
 1109TIP3    H1 3291   4.008   3.629   1.050  0.2038  0.7937  0.6329
 1109TIP3    H2 3292   4.152   3.584   1.067  0.1223  0.3012  0.0811
 1110TIP3   OH2 3293   5.123   6.479   3.455  0.6750  0.6141 -0.0004
 1110TIP3    H1 3294   5.086   6.396   3.484  0.0998  1.3993  1.5804
 1110TIP3    H2 3295   5.209   6.482   3.497  0.3605  1.1823  0.6051
 1111TIP3   OH2 3296   0.457   6.243   1.070 -0.1557  1.4322  0.4111
 1111TIP3    H1 3297   0.500   6.319   1.109  1.1222  0.6283  0.6141
 1111TIP3    H2 3298   0.517   6.170   1.086 -0.7544  0.6090 -0.9097
 1112TIP3   OH2 3299   1.150   3.911   2.945  0.1306  0.1595  0.1300
 1112TIP3    H1 3300   1.119   3.935   3.032  0.5245 -0.3910  0.4268
 1112TIP3    H2 3301   1.173   3.994   2.904 -1.1044  0.5293  0.1349
 1113TIP3   OH2 3302   0.172   6.566   1.733 -0.8501 -0.4711 -0.7082
 1113TIP3    H1 3303   0.190   6.656   1.706  1.3576 -0.1913  1.3333
 1113TIP3    H2 3304   0.107   6.575   1.803  0.1832 -0.2987  0.2643
 1114TIP3   OH2 3305   1.434   6.431   5.657  0.3958  0.4568  0.3001
 1114TIP3    H1 3306   1.360   6.463   5.709 -0.1145  0.1280 -0.2163
 1114TIP3    H2 3307   1.463   6.507   5.608 -0.3153  0.3346 -0.3309
 1115TIP3   OH2 3308   1.769   5.424   3.700 -0.3110 -0.3096  0.2151
 1115TIP3    H1 3309   1.718   5.410   3.779  0.8291  0.1491  1.0726
 1115TIP3    H2 3310   1.792   5.336   3.669 -0.4793 -0.4867  0.5958
 1116TIP3   OH2 3311   1.536   4.759   2.007  0.0162 -0.6575 -0.3996
 1116TIP3    H1 3312   1.464   4.794   1.954  0.3711 -0.9275 -1.0669
 1116TIP3    H2 3313   1.498   4.747   2.094 -1.1974 -2.2686 -1.1049
 1117TIP3   OH2 3314   6.560   5.992   3.586  0.3966 -0.2759 -0.7614
 1117TIP3    H1 3315   6.517   5.907   3.586 -1.1039  0.4424 -0.3170
 1117TIP3    H2 3316   6.507   6.046   3.645  2.1372  0.5816  0.1128
 1118TIP3   OH2 3317   2.446   2.727   3.831  0.2817 -0.3711  0.4736
 1118TIP3    H1 3318   2.445   2.647   3.883 -1.0871 -1.2395 -0.8026
 1118TIP3    H2 3319   2.357   2.734   3.797  0.5763  1.3132 -0.0231
 1119TIP3   OH2 3320   4.726   6.229   1.457  0.0693 -0.7780  0.5543
 1119TIP3    H1 3321   4.699   6.167   1.389  0.9517  0.4871 -1.0114
 1119TIP3    H2 3322   4.804   6.188   1.496  0.4660 -0.8248 -0.2584
 1120TIP3   OH2 3323   2.886   0.093   4.595  0.2043  0.5043  0.0918
 1120TIP3    H1 3324   2.922   0.009   4.622  1.7998  1.5225  1.3030
 1120TIP3    H2 3325   2.815   0.109   4.657 -0.9336 -0.4539 -0.8955
 1121TIP3   OH2 3326   7.078   6.685   5.784  0.1370  0.2690  0.0141
 1121TIP3    H1 3327   7.007   6.747   5.801 -1.4901 -2.0942  2.8212
 1121TIP3    H2 3328   7.050   6.635   5.708 -0.6387  0.1650  0.3615
 1122TIP3   OH2 3329   0.057   5.749   4.722 -0.6240 -0.2593 -0.8318
 1122TIP3    H1 3330   0.089   5.673   4.770  4.3376  1.0205 -1.4944
 1122TIP3    H2 3331   0.024   5.714   4.640  1.2491 -1.8285 -0.9925
 1123TIP3   OH2 3332   4.903   3.023   4.994 -0.2076 -0.4460 -0.2591
 1123TIP3    H1 3333   4.959   3.100   4.988  1.8475 -1.7890  0.5492
 1123TIP3    H2 3334   4.931   2.967   4.921 -0.5494 -1.1273  0.1195
 1124TIP3   OH2 3335   0.043   0.719   0.299  0.6297  0.4678 -0.4126
 1124TIP3    H1 3336   0.029   0.729   0.394 -0.3187 -1.6851 -0.2652
 1124TIP3    H2 3337   0.136   0.740   0.286  1.1762 -0.6323  1.2802
 1125TIP3   OH2 3338   6.706   1.235   4.514 -0.0658 -0.2547  0.3946
 1125TIP3    H1 3339   6.710   1.176   4.439  0.7352  0.9130 -0.5298
 1125TIP3    H2 3340   6.785   1.215   4.565 -1.5980 -2.4460  2.1011
 1126TIP3   OH2 3341   6.070   6.209   2.458  0.2992 -0.4515 -0.2308
 1126TIP3    H1 3342   6.063   6.166   2.373 -2.3315 -2.4653  0.8457
 1126TIP3    H2 3343   6.135   6.156   2.506  1.7754  0.6786 -0.9087
 1127TIP3   OH2 3344   7.170   1.834   5.693 -0.3801  0.4271  0.6858
 1127TIP3    H1 3345   7.165   1.927   5.716  0.4667  0.7867 -0.4426
 1127TIP3    H2 3346   7.105   1.824   5.623  0.1056  0.3732  0.2358
 1128TIP3   OH2 3347   0.778   0.482   4.480 -0.4748  0.1955 -0.9906
 1128TIP3    H1 3348   0.842   0.410   4.486 -1.4028 -0.6586 -1.1226
 1128TIP3    H2 3349   0.809   0.546   4.543  0.4609 -0.2489 -0.9723
 1129TIP3   OH2 3350   3.376   2.014   4.691  0.0733  0.0030  0.7486
 1129TIP3    H1 3351   3.406   2.103   4.711  0.3083  0.3516 -0.9963
 1129TIP3    H2 3352   3.399   2.002   4.599 -0.9650 -1.4650  0.6603
 1130TIP3   OH2 3353   3.809   5.726   2.816 -0.5033 -0.0298  0.5808
 1130TIP3    H1 3354   3.769   5.681   2.890 -0.8940  1.7055  1.4673
 1130TIP3    H2 3355   3.902   5.733   2.840 -0.9598  2.3857  1.9774
 1131TIP3   OH2 3356   6.904   6.165   1.290  0.2294 -0.2138  0.4323
 1131TIP3    H1 3357   6.916   6.224   1.215  1.4225 -2.2487 -1.0471
 1131TIP3    H2 3358   6.818   6.125   1.276 -0.9397  1.5850  1.8451
 1132TIP3   OH2 3359   5.703   3.998   4.733 -0.4713  0.0686 -0.3807
 1132TIP3    H1 3360   5.633   3.957   4.783  0.5596 -2.1074 -0.6184
 1132TIP3    H2 3361   5.751   4.051   4.797 -0.2247 -1.2695  0.5738
 1133TIP3   OH2 3362   2.465   0.484   1.066 -0.2920  0.2123  0.2084
 1133TIP3    H1 3363   2.454   0.403   1.117 -2.6782 -0.5604 -1.3585
 1133TIP3    H2 3364   2.527   0.461   0.997  0.2136  0.1988  0.6599
 1134TIP3   OH2 3365   1.031   2.414   1.743 -0.8008 -0.2285 -0.4902
 1134TIP3    H1 3366   1.056   2.336   1.793  2.6199  0.7719 -0.4063
 1134TIP3    H2 3367   0.973   2.463   1.801 -0.1171 -1.0026  0.8964
 1135TIP3   OH2 3368   1.863   6.354   3.487  0.9264 -0.3807 -0.3594
 1135TIP3    H1 3369   1.854   6.347   3.582 -1.9768  1.5713 -0.3538
 1135TIP3    H2 3370   1.783   6.315   3.452  0.9456  0.8143 -1.8587
 1136TIP3   OH2 3371   4.284   4.060   0.483 -0.0612 -0.2997  0.8158
 1136TIP3    H1 3372   4.251   4.040   0.395  0.6278 -2.1516  0.9397
 1136TIP3    H2 3373   4.317   4.149   0.476 -1.3520  0.1334 -0.4010
 1137TIP3   OH2 3374   4.457   4.173   0.740  0.2702  0.0852  0.1029
 1137TIP3    H1 3375   4.441   4.242   0.804  1.7670  0.1044  0.4948
 1137TIP3    H2 3376   4.427   4.209   0.657  1.1921  1.2953  0.2735
 1138TIP3   OH2 3377   4.903   3.110   1.123 -0.4810  0.7421  0.5729
 1138TIP3    H1 3378   4.817   3.082   1.157 -0.5058  0.8205  0.5762
 1138TIP3    H2 3379   4.939   3.164   1.194 -0.1613  0.1990  0.8248
 1139TIP3   OH2 3380   5.049   1.689   0.730 -0.5879 -0.0081 -0.3010
 1139TIP3    H1 3381   4.987   1.758   0.752 -1.4404 -0.6753 -0.5220
 1139TIP3    H2 3382   5.002   1.635   0.665  0.7750  0.2939 -1.5802
 1140TIP3   OH2 3383   4.374   2.080   1.351  0.3306 -0.3720 -0.0351
 1140TIP3    H1 3384   4.425   2.151   1.389  0.7331  0.3783 -1.9045
 1140TIP3    H2 3385   4.356   2.022   1.425  2.0619  0.4267  1.0759
 1141TIP3   OH2 3386   5.174   6.772   1.388 -0.3035 -0.1413 -0.4111
 1141TIP3    H1 3387   5.232   6.696   1.396  1.5664  1.2827  0.3504
 1141TIP3    H2 3388   5.096   6.749   1.439 -0.4196 -2.0791 -1.3916
 1142TIP3   OH2 3389   0.729   0.413   3.492  0.2052 -0.4463  0.1805
 1142TIP3    H1 3390   0.744   0.336   3.547  0.4650 -0.1503  0.5280
 1142TIP3    H2 3391   0.813   0.459   3.490  0.5665 -1.0975 -1.4939
 1143TIP3   OH2 3392   3.563   5.524   4.413 -0.1464  0.2498  0.5266
 1143TIP3    H1 3393   3.527   5.533   4.502 -0.4432 -0.0645  0.4386
 1143TIP3    H2 3394   3.593   5.434   4.408  2.1507  0.9217  1.1417
 1144TIP3   OH2 3395   2.338   6.633   2.902  0.4058 -0.3644 -0.9240
 1144TIP3    H1 3396   2.248   6.603   2.914 -0.2348  1.3864 -1.1158
 1144TIP3    H2 3397   2.351   6.698   2.970  1.2811 -0.0893 -1.3421
 1145TIP3   OH2 3398   1.762   4.616   1.689  0.0369 -0.1955 -0.9163
 1145TIP3    H1 3399   1.668   4.633   1.697 -0.0926 -1.2985  0.2465
 1145TIP3    H2 3400   1.780   4.623   1.596 -1.5128 -1.4708 -1.3528
 1146TIP3   OH2 3401   6.618   0.581   2.512  0.6452  0.2002  0.0034
 1146TIP3    H1 3402   6.523   0.582   2.499  0.3636 -2.1910  1.3219
 1146TIP3    H2 3403   6.638   0.490   2.534  3.2059  0.7345  0.1852
 1147TIP3   OH2 3404   7.145   6.758   2.497 -0.3239 -0.1704 -0.4379
 1147TIP3    H1 3405   7.170   6.740   2.587 -0.8077 -0.6425 -0.3941
 1147TIP3    H2 3406   7.228   6.765   2.449 -0.0825 -2.5303 -0.4750
 1148TIP3   OH2 3407   2.221   0.185   0.343 -0.0967  0.5919  0.1922
 1148TIP3    H1 3408   2.133   0.203   0.312  0.1819  1.4370 -0.1172
 1148TIP3    H2 3409   2.212   0.181   0.439 -0.2880  1.7137  0.2264
 1149TIP3   OH2 3410   6.233   3.715   3.505 -0.2844 -0.2119  0.4800
 1149TIP3    H1 3411   6.196   3.657   3.571  2.3125 -2.1670  0.3782
 1149TIP3    H2 3412   6.298   3.661   3.460  3.4919  3.1203  1.3831
 1150TIP3   OH2 3413   1.471   6.128   3.317 -0.0333 -0.7799  0.2143
 1150TIP3    H1 3414   1.517   6.184   3.380  1.8348  0.7456 -2.2833
 1150TIP3    H2 3415   1.382   6.122   3.351  0.7617  0.2712  2.7509
 1151TIP3   OH2 3416   6.153   4.164   1.140  0.1454  0.3591  0.3571
 1151TIP3    H1 3417   6.200   4.119   1.210  0.3012 -1.5963 -0.9123
 1151TIP3    H2 3418   6.067   4.183   1.176  0.3437 -0.2725  1.1884
 1152TIP3   OH2 3419   4.058   5.529   1.536 -0.2556 -0.0995  0.3057
 1152TIP3    H1 3420   4.152   5.535   1.518 -0.4569  2.0434 -0.2464
 1152TIP3    H2 3421   4.022   5.477   1.464  0.5692 -1.7268  0.9932
 1153TIP3   OH2 3422   4.369   4.285   5.027 -0.7414  0.3020 -0.0810
 1153TIP3    H1 3423   4.339   4.268   5.116  1.0830  0.3781  0.5861
 1153TIP3    H2 3424   4.464   4.278   5.032 -0.5118  1.6784 -1.7324
 1154TIP3   OH2 3425   3.768   1.570   5.700 -0.0585 -0.2776 -0.3768
 1154TIP3    H1 3426   3.828   1.569   5.626  2.2254 -0.4812  1.3680
 1154TIP3    H2 3427   3.808   1.511   5.764 -1.1222  1.0643  1.6412
 1155TIP3   OH2 3428   0.137   6.477   2.865 -0.4029 -0.1788  0.3448
 1155TIP3    H1 3429   0.222   6.520   2.868 -0.7947  0.6893 -0.4504
 1155TIP3    H2 3430   0.120   6.451   2.956  0.4551  0.1437  0.6049
 1156TIP3   OH2 3431   4.993   1.653   4.347  0.0521 -0.2739 -0.1060
 1156TIP3    H1 3432   4.975   1.604   4.427 -0.4544 -0.1695 -0.1492
 1156TIP3    H2 3433   5.048   1.726   4.375 -2.0619  1.1531  0.6061
 1157TIP3   OH2 3434   3.953   0.553   2.843  0.0516  0.3517  0.4403
 1157TIP3    H1 3435   3.879   0.509   2.802 -1.2025  0.6995  2.2375
 1157TIP3    H2 3436   4.029   0.520   2.795 -1.0545 -1.6963 -0.0465
 1158TIP3   OH2 3437   2.309   0.638   2.813  0.3904  0.3640 -0.0008
 1158TIP3    H1 3438   2.228   0.619   2.861  0.3134 -0.5214 -0.4731
 1158TIP3    H2 3439   2.339   0.554   2.780 -0.3354  1.0953 -2.7589
 1159TIP3   OH2 3440   5.991   2.308   5.689 -0.2333  0.0923  0.1596
 1159TIP3    H1 3441   6.030   2.296   5.602 -0.9545 -0.2787 -0.1204
 1159TIP3    H2 3442   6.043   2.251   5.746  1.1820  1.4177  0.2778
 1160TIP3   OH2 3443   4.084   5.926   1.853  0.2736  0.0744  1.0460
 1160TIP3    H1 3444   3.995   5.898   1.836  0.3940  0.0749  0.4140
 1160TIP3    H2 3445   4.087   5.939   1.948 -0.7407  1.2593  0.9451
 1161TIP3   OH2 3446   6.978   4.440   4.167 -0.6038 -0.0010 -0.1635
 1161TIP3    H1 3447   6.993   4.403   4.080 -1.8454 -0.2611 -0.2730
 1161TIP3    H2 3448   7.012   4.374   4.227  1.9786  0.9400 -0.4164
 1162TIP3   OH2 3449   0.049   3.325   0.750  0.4522 -0.0445  0.0944
 1162TIP3    H1 3450  -0.039   3.328   0.712 -0.5640 -0.2942  2.2652
 1162TIP3    H2 3451   0.081   3.416   0.745 -1.3731  0.8144  2.3052
 1163TIP3   OH2 3452   3.369   3.279   4.180 -0.0428 -0.4931  0.2274
 1163TIP3    H1 3453   3.352   3.365   4.220 -3.3389 -0.5184 -0.8145
 1163TIP3    H2 3454   3.350   3.216   4.249 -1.4011 -0.4290 -0.0635
 1164TIP3   OH2 3455   1.037   2.013   5.566 -0.0966 -0.0577 -0.1893
 1164TIP3    H1 3456   1.011   2.099   5.533  0.2594 -1.0015 -3.2402
 1164TIP3    H2 3457   1.045   1.958   5.487  0.2763 -2.7415  1.5781
 1165TIP3   OH2 3458   7.124   5.790   0.239  0.2812  0.0358 -0.2016
 1165TIP3    H1 3459   7.082   5.845   0.305  1.6495 -0.0875  0.8135
 1165TIP3    H2 3460   7.162   5.718   0.290  0.4417 -0.6385 -1.2585
 1166TIP3   OH2 3461   5.236   2.118   3.724 -0.0491  0.3386 -0.1144
 1166TIP3    H1 3462   5.257   2.095   3.634  0.0381  1.1672 -0.3133
 1166TIP3    H2 3463   5.141   2.128   3.725 -0.1788 -0.7321  0.1526
 1167TIP3   OH2 3464   3.391   2.654   4.952  0.3309  0.0749  0.3163
 1167TIP3    H1 3465   3.424   2.645   4.863 -1.2014  1.8591 -0.5000
 1167TIP3    H2 3466   3.299   2.679   4.942 -0.0646 -0.3001  2.4130
 1168TIP3   OH2 3467   0.873   0.697   3.034  0.5399  0.1685  0.1583
 1168TIP3    H1 3468   0.859   0.732   2.945 -0.7217  0.3322  0.3987
 1168TIP3    H2 3469   0.945   0.750   3.069  0.7892  0.3668 -0.6279
 1169TIP3   OH2 3470   5.706   6.029   4.038  0.2590 -0.3312 -0.0592
 1169TIP3    H1 3471   5.680   5.988   3.955  0.3600 -0.6378  0.0603
 1169TIP3    H2 3472   5.697   5.960   4.103 -0.6063  0.1249  0.3268
 1170TIP3   OH2 3473   2.392   2.134   2.263 -0.1305  0.1996 -0.1376
 1170TIP3    H1 3474   2.326   2.099   2.203  0.5605 -1.5962  0.0878
 1170TIP3    H2 3475   2.475   2.102   2.227  0.9407  4.0792 -1.6108
 1171TIP3   OH2 3476   5.069   1.484   2.682 -0.6190 -0.0277  0.0887
 1171TIP3    H1 3477   5.047   1.559   2.738 -0.4125  0.4716 -0.4819
 1171TIP3    H2 3478   4.992   1.428   2.685 -1.3285  0.8831 -0.5600
 1172TIP3   OH2 3479   2.838   2.691   2.719  0.1077  0.5571 -0.4220
 1172TIP3    H1 3480   2.920   2.694   2.671  0.0518 -0.7091 -0.6262
 1172TIP3    H2 3481   2.771   2.672   2.653 -0.1261 -0.0330 -0.0267
 1173TIP3   OH2 3482   2.366   5.131   5.160  0.2238 -0.6523 -0.4639
 1173TIP3    H1 3483   2.387   5.220   5.134 -0.1273 -0.6857 -0.8603
 1173TIP3    H2 3484   2.383   5.129   5.254  3.8773 -1.1923 -0.9708
 1174TIP3   OH2 3485   3.899   0.980   5.026  0.2368  0.4570  0.0150
 1174TIP3    H1 3486   3.848   1.016   4.953  0.4878  0.1602 -0.3170
 1174TIP3    H2 3487   3.866   1.024   5.104 -0.1348  0.6767 -0.2651
 1175TIP3   OH2 3488   1.026   1.337   5.224 -0.1875  0.0628  0.6596
 1175TIP3    H1 3489   1.083   1.278   5.272  1.6575  1.2216 -0.0165
 1175TIP3    H2 3490   1.064   1.424   5.238 -1.1985  0.7528 -0.6408
 1176TIP3   OH2 3491   2.796   3.308   3.380  0.5081  0.0253  0.3058
 1176TIP3    H1 3492   2.793   3.264   3.465  2.1700  0.4998  0.6513
 1176TIP3    H2 3493   2.725   3.373   3.384  0.2065 -0.3351  1.1076
 1177TIP3   OH2 3494   2.369   0.980   4.265  0.3054  0.7371 -0.8041
 1177TIP3    H1 3495   2.273   0.971   4.268  0.2665  1.1125 -0.9820
 1177TIP3    H2 3496   2.401   0.900   4.308 -0.0692  0.1314 -1.6252
 1178TIP3   OH2 3497   1.517   1.226   3.866  0.0018 -0.1039 -0.2286
 1178TIP3    H1 3498   1.435   1.233   3.815 -0.1036 -0.8812 -0.1770
 1178TIP3    H2 3499   1.527   1.313   3.905 -0.9226 -0.0585 -0.0523
 1179TIP3   OH2 3500   3.206   0.833   5.428  0.5167  0.1116  0.3419
 1179TIP3    H1 3501   3.220   0.864   5.517  0.6240 -1.3135  0.8552
 1179TIP3    H2 3502   3.288   0.790   5.405  0.2219 -0.2001 -0.1430
 1180TIP3   OH2 3503   2.015   6.077   4.347  0.3429  0.0900  0.2210
 1180TIP3    H1 3504   2.097   6.033   4.324  0.1215 -0.3878  0.3314
 1180TIP3    H2 3505   2.024   6.165   4.310  1.3996  0.4437  1.2434
 1181TIP3   OH2 3506   1.995   4.154   0.800 -0.7306  0.1348  0.0088
 1181TIP3    H1 3507   2.022   4.234   0.846 -3.0389  0.7748  0.4102
 1181TIP3    H2 3508   1.946   4.186   0.724  0.0586 -0.9293 -0.9813
 1182TIP3   OH2 3509   0.310   0.781   0.303  0.1211 -0.2630  0.1225
 1182TIP3    H1 3510   0.339   0.719   0.369  0.9820 -0.8373 -0.7566
 1182TIP3    H2 3511   0.370   0.767   0.229 -0.4715  0.7249 -0.5745
 1183TIP3   OH2 3512   1.018   1.769   4.861  0.2555  0.1605  0.0744
 1183TIP3    H1 3513   1.026   1.820   4.942  0.9356 -0.2202  0.2548
 1183TIP3    H2 3514   0.972   1.689   4.888 -0.0874  0.3141 -0.0475
 1184TIP3   OH2 3515   6.459   2.145   4.081  0.1611  0.1953  0.4437
 1184TIP3    H1 3516   6.553   2.136   4.098  0.0791 -2.7943 -0.0527
 1184TIP3    H2 3517   6.417   2.129   4.165  0.0689 -0.1925  0.3262
 1185TIP3   OH2 3518   5.336   5.215   0.507  0.0154 -0.3339 -0.0293
 1185TIP3    H1 3519   5.373   5.134   0.541 -1.9872 -0.6467  1.6388
 1185TIP3    H2 3520   5.410   5.276   0.504  1.1764 -1.6495  0.5599
 1186TIP3   OH2 3521   5.373   3.965   3.268  0.9370 -0.2758 -0.5226
 1186TIP3    H1 3522   5.377   4.058   3.245 -3.2435  0.7029  1.6842
 1186TIP3    H2 3523   5.311   3.927   3.206  1.2042 -1.2038 -0.2431
 1187TIP3   OH2 3524   5.556   1.467   2.373  0.3258 -0.5808  0.2789
 1187TIP3    H1 3525   5.530   1.375   2.380  0.3480 -0.6147 -0.0640
 1187TIP3    H2 3526   5.517   1.496   2.291 -0.2225 -0.1026  0.7003
 1188TIP3   OH2 3527   6.730   6.501   0.327  0.3203  0.3021 -0.2590
 1188TIP3    H1 3528   6.757   6.570   0.388  2.4860  1.2468 -2.1373
 1188TIP3    H2 3529   6.656   6.459   0.370 -0.6517  3.3127  1.2896
 1189TIP3   OH2 3530   6.610   6.039   2.078  0.2383  0.7231 -0.0820
 1189TIP3    H1 3531   6.615   6.048   2.173  0.4473 -1.7578  0.2061
 1189TIP3    H2 3532   6.701   6.024   2.051  0.2785  2.0636 -0.8063
 1190TIP3   OH2 3533   3.485   0.639   0.338 -0.8682 -0.1041 -0.8927
 1190TIP3    H1 3534   3.538   0.562   0.316  1.7924  0.1173  3.5149
 1190TIP3    H2 3535   3.406   0.603   0.379 -1.2866 -0.4323 -1.9584
 1191TIP3   OH2 3536   7.130   6.584   0.876 -0.1692  0.0086  0.5161
 1191TIP3    H1 3537   7.045   6.555   0.844  0.8700 -1.6113 -0.9040
 1191TIP3    H2 3538   7.109   6.646   0.947 -2.4958 -0.8596  0.6618
 1192TIP3   OH2 3539   6.006   0.272   0.785 -0.5918 -0.5582 -0.8848
 1192TIP3    H1 3540   6.089   0.312   0.811 -1.4495  1.8922 -1.6431
 1192TIP3    H2 3541   5.986   0.210   0.855  1.1028 -0.0722  0.0859
 1193TIP3   OH2 3542   4.544   4.334   2.415 -0.0485  0.3213  0.2853
 1193TIP3    H1 3543   4.516   4.361   2.502  0.0290  0.8899  0.1402
 1193TIP3    H2 3544   4.468   4.290   2.377  0.6960 -2.2888  1.5795
 1194TIP3   OH2 3545   5.913   4.826   2.012  0.0481  0.7388  0.2378
 1194TIP3    H1 3546   5.826   4.822   1.973  0.5325  0.9120 -0.9093
 1194TIP3    H2 3547   5.922   4.744   2.060 -0.4573  0.3705 -0.2821
 1195TIP3   OH2 3548   7.094   3.922   1.731  0.1856 -0.3109  0.1166
 1195TIP3    H1 3549   7.125   3.995   1.785 -0.1256 -1.6657  2.2854
 1195TIP3    H2 3550   7.165   3.857   1.735 -0.6702 -1.2549  0.6613
 1196TIP3   OH2 3551   3.671   5.487   2.936 -0.4628  0.9955 -0.1181
 1196TIP3    H1 3552   3.695   5.422   2.869 -0.6251  0.0938  0.6803
 1196TIP3    H2 3553   3.609   5.441   2.992  1.7386  0.7741  2.2996
 1197TIP3   OH2 3554   4.059   2.591   4.404 -0.0279 -0.4039 -0.4209
 1197TIP3    H1 3555   4.036   2.604   4.495  0.0827  1.0407 -0.5809
 1197TIP3    H2 3556   3.976   2.601   4.356 -0.1322 -1.4009 -0.4789
 1198TIP3   OH2 3557   1.545   3.211   0.996  0.0811  0.0925 -0.0743
 1198TIP3    H1 3558   1.507   3.217   1.084 -1.5758 -1.1853 -0.6574
 1198TIP3    H2 3559   1.636   3.184   1.011 -0.5036 -1.2673  1.2174
 1199TIP3   OH2 3560   3.702   0.925   0.769  0.2191  0.0166 -0.8680
 1199TIP3    H1 3561   3.728   0.837   0.797 -1.7640 -0.6933 -1.0837
 1199TIP3    H2 3562   3.778   0.980   0.789  1.8700 -1.8833 -1.5829
 1200TIP3   OH2 3563   0.353   3.618   3.642  0.1533 -0.4761 -0.2053
 1200TIP3    H1 3564   0.293   3.678   3.598  0.6400 -0.9569 -1.5646
 1200TIP3    H2 3565   0.421   3.675   3.678  0.3358 -0.1557 -1.0359
 1201TIP3   OH2 3566   6.166   5.040   4.272 -0.7665  0.1788 -0.3856
 1201TIP3    H1 3567   6.075   5.012   4.286 -0.3152 -0.8524  0.6515
 1201TIP3    H2 3568   6.203   4.974   4.213 -0.3209 -0.1969  0.2947
 1202TIP3   OH2 3569   1.537   0.391   4.914  0.1099 -0.1229  0.6980
 1202TIP3    H1 3570   1.502   0.479   4.928 -0.7949 -0.2679 -0.4574
 1202TIP3    H2 3571   1.631   0.399   4.930  0.0509  1.0762  0.4879
 1203TIP3   OH2 3572   7.037   5.442   4.291  0.3486  0.7915  0.5585
 1203TIP3    H1 3573   6.980   5.519   4.298 -1.0969 -0.2880  1.3307
 1203TIP3    H2 3574   7.077   5.434   4.378  2.7007  2.2077 -0.2890
 1204TIP3   OH2 3575   2.782   4.153   4.468  0.3016  0.1568  0.0246
 1204TIP3    H1 3576   2.725   4.095   4.418  1.4336  0.6660 -1.9594
 1204TIP3    H2 3577   2.772   4.124   4.559 -2.3310 -0.3796 -0.3646
 1205TIP3   OH2 3578   4.352   4.871   3.442  0.4300 -0.0387 -0.0005
 1205TIP3    H1 3579   4.332   4.933   3.372  0.1188  1.0180  0.9900
 1205TIP3    H2 3580   4.434   4.902   3.480 -0.0997  0.2051  0.9748
 1206TIP3   OH2 3581   3.054   4.330   1.033  0.4286 -0.0236 -0.0962
 1206TIP3    H1 3582   3.115   4.341   1.106  1.1306  0.6375 -0.7503
 1206TIP3    H2 3583   3.003   4.252   1.055  2.2821 -1.3125 -0.0255
 1207TIP3   OH2 3584   3.554   4.797   3.576 -0.5760 -0.0949 -0.1016
 1207TIP3    H1 3585   3.619   4.866   3.579 -1.1051  0.4025  0.2334
 1207TIP3    H2 3586   3.556   4.765   3.485 -0.1153  0.1451 -0.1753
 1208TIP3   OH2 3587   2.407   0.881   4.673 -0.0811  0.0327 -0.2425
 1208TIP3    H1 3588   2.323   0.838   4.688  0.0896 -0.0027  0.6802
 1208TIP3    H2 3589   2.442   0.896   4.761 -0.0207  1.8168 -0.5323
 1209TIP3   OH2 3590   3.996   5.031   2.702 -0.1395  0.0427 -0.1824
 1209TIP3    H1 3591   4.013   4.950   2.748 -0.8183  0.1076  0.2023
 1209TIP3    H2 3592   3.979   5.005   2.611  0.3693 -0.1648 -0.2203
 1210TIP3   OH2 3593   4.246   2.195   5.837 -0.3240 -0.6000  0.5765
 1210TIP3    H1 3594   4.321   2.137   5.824 -0.5722 -0.7021 -0.5184
 1210TIP3    H2 3595   4.192   2.151   5.902  0.4016 -0.6805  1.1360
 1211TIP3   OH2 3596   1.296   2.524   3.781 -0.1282 -0.0742  0.4915
 1211TIP3    H1 3597   1.382   2.509   3.741  0.1983  1.2182  0.6531
 1211TIP3    H2 3598   1.236   2.467   3.732  0.2589  1.4137 -1.8960
 1212TIP3   OH2 3599   5.065   2.612   3.509  0.1109  0.3381 -0.1655
 1212TIP3    H1 3600   5.014   2.536   3.539 -1.1516  1.3211  0.2651
 1212TIP3    H2 3601   5.115   2.579   3.434 -0.8107 -0.7880 -0.3208
 1213TIP3   OH2 3602   2.223   4.386   1.398 -0.4317  0.6679 -0.1425
 1213TIP3    H1 3603   2.186   4.299   1.381  0.3610  0.3202 -0.1590
 1213TIP3    H2 3604   2.317   4.370   1.406 -0.4192  1.2904  1.3939
 1214TIP3   OH2 3605   0.136   2.978   5.770  0.4451 -0.1029  0.0985
 1214TIP3    H1 3606   0.085   3.053   5.800  0.6752 -0.3081  1.0241
 1214TIP3    H2 3607   0.166   3.003   5.682 -0.5134  0.3703 -0.1125
 1215TIP3   OH2 3608   4.031   1.578   1.936 -0.1685 -0.4227 -0.0940
 1215TIP3    H1 3609   3.988   1.661   1.912 -0.0059 -0.7003 -1.3875
 1215TIP3    H2 3610   4.008   1.566   2.028 -2.2902 -0.2004 -0.5470
 1216TIP3   OH2 3611   4.261   1.513   0.067  0.2339  0.2048 -0.5252
 1216TIP3    H1 3612   4.338   1.564   0.092  0.4914 -0.3677 -0.1549
 1216TIP3    H2 3613   4.223   1.483   0.150 -0.2778  0.3150 -0.7128
 1217TIP3   OH2 3614   2.758   3.436   4.716 -0.1243  0.0443 -0.2687
 1217TIP3    H1 3615   2.743   3.353   4.670 -1.4861 -0.0075  0.2171
 1217TIP3    H2 3616   2.764   3.501   4.646 -0.8089 -0.2296 -0.6010
 1218TIP3   OH2 3617   1.535   5.439   1.231  0.2748  0.2998 -0.0629
 1218TIP3    H1 3618   1.530   5.497   1.307  0.7545  1.3304 -0.7844
 1218TIP3    H2 3619   1.586   5.364   1.261  2.4764  1.7461  0.0306
 1219TIP3   OH2 3620   7.084   6.321   2.845  0.5783  0.0713 -0.2558
 1219TIP3    H1 3621   7.140   6.286   2.914  0.4802 -2.3271 -1.3043
 1219TIP3    H2 3622   7.015   6.368   2.892  0.2355 -1.8989  1.3618
 1220TIP3   OH2 3623   0.943   3.706   0.547  0.0742 -0.7537  0.2469
 1220TIP3    H1 3624   0.857   3.711   0.586  0.2685 -1.6950  0.8423
 1220TIP3    H2 3625   0.967   3.796   0.528 -2.0189 -0.5814 -2.1516
 1221TIP3   OH2 3626   5.487   5.627   2.768 -0.1182  0.3286 -0.3128
 1221TIP3    H1 3627   5.572   5.615   2.810  0.0432  2.4947  0.1164
 1221TIP3    H2 3628   5.498   5.590   2.680  2.1505  2.7818 -1.1971
 1222TIP3   OH2 3629   4.480   5.667   5.755  0.1792 -0.0257 -0.1445
 1222TIP3    H1 3630   4.514   5.728   5.821 -0.5150  2.4433 -1.9371
 1222TIP3    H2 3631   4.394   5.702   5.732 -0.3910 -1.8930 -1.0407
 1223TIP3   OH2 3632   4.097   4.246   3.515 -0.0507  0.2417  0.0043
 1223TIP3    H1 3633   4.046   4.191   3.575  0.6270  0.2293  0.5890
 1223TIP3    H2 3634   4.177   4.266   3.564 -0.3304  1.8477 -0.1426
 1224TIP3   OH2 3635   1.476   5.843   4.652 -0.4465 -0.5813 -0.3765
 1224TIP3    H1 3636   1.398   5.850   4.597 -0.4485  0.7190 -0.2531
 1224TIP3    H2 3637   1.526   5.770   4.615 -0.5788  0.0738 -1.9480
 1225TIP3   OH2 3638   4.698   2.166   4.763 -0.1126  0.3659  0.0859
 1225TIP3    H1 3639   4.772   2.200   4.713  1.1431  2.0822  2.8555
 1225TIP3    H2 3640   4.719   2.073   4.777  1.0798  0.6082  0.0383
 1226TIP3   OH2 3641   0.196   3.859   5.510  0.4486  0.3268 -0.6104
 1226TIP3    H1 3642   0.208   3.770   5.479 -0.0671 -0.4949  1.4480
 1226TIP3    H2 3643   0.108   3.883   5.480 -0.7343 -1.0768  1.5321
 1227TIP3   OH2 3644   3.528   6.419   2.138 -0.1173 -0.1786 -0.1196
 1227TIP3    H1 3645   3.481   6.337   2.119 -0.0943 -0.2782  0.2490
 1227TIP3    H2 3646   3.587   6.396   2.210 -0.0883  0.1580 -0.0377
 1228TIP3   OH2 3647   4.031   4.108   5.567  0.3810 -0.2252  0.4959
 1228TIP3    H1 3648   3.963   4.043   5.551  1.0630 -0.6798 -0.6638
 1228TIP3    H2 3649   4.098   4.062   5.617  0.7650 -0.3599 -0.1367
 1229TIP3   OH2 3650   5.643   4.242   3.711 -0.4468 -0.1675  0.2026
 1229TIP3    H1 3651   5.657   4.320   3.658 -1.0821 -0.5116 -0.4869
 1229TIP3    H2 3652   5.721   4.188   3.697 -0.0954  0.2506  0.5275
 1230TIP3   OH2 3653   3.792   1.036   1.617  0.0849 -0.7709 -0.3580
 1230TIP3    H1 3654   3.724   1.098   1.643  1.1835  0.5613 -0.5330
 1230TIP3    H2 3655   3.844   1.083   1.552 -0.1953 -2.5883 -2.0102
 1231TIP3   OH2 3656   2.088   2.620   5.067  0.2039  0.1950 -0.0141
 1231TIP3    H1 3657   2.043   2.704   5.065 -0.8882 -0.3963 -0.7882
 1231TIP3    H2 3658   2.109   2.606   5.160 -0.0337  1.0841  0.1774
 1232TIP3   OH2 3659   1.304   4.574   2.515  0.7736  0.1951  0.1154
 1232TIP3    H1 3660   1.233   4.633   2.488 -0.8081 -0.3867  2.6692
 1232TIP3    H2 3661   1.341   4.616   2.593  2.2343 -0.3044 -0.2756
 1233TIP3   OH2 3662   6.578   0.740   3.898 -0.1339  0.0718  0.1090
 1233TIP3    H1 3663   6.578   0.683   3.975 -2.6562  0.7513  0.7191
 1233TIP3    H2 3664   6.581   0.679   3.824 -1.6046 -0.8763  0.7648
 1234TIP3   OH2 3665   7.169   1.916   5.379 -0.0556  0.0917 -0.7499
 1234TIP3    H1 3666   7.243   1.940   5.435 -0.3333 -1.5403  0.4117
 1234TIP3    H2 3667   7.141   1.998   5.339 -0.1320  1.4867  1.9165
 1235TIP3   OH2 3668   3.937   3.811   3.559 -0.1101 -0.3502 -0.2751
 1235TIP3    H1 3669   4.019   3.843   3.521  0.2377 -0.7637  0.1088
 1235TIP3    H2 3670   3.965   3.752   3.630 -0.7205  0.9620  1.1082
 1236TIP3   OH2 3671   7.019   2.563   0.959 -0.1711  0.0049 -0.2257
 1236TIP3    H1 3672   7.048   2.649   0.990 -0.9329  0.3992 -0.5630
 1236TIP3    H2 3673   6.999   2.576   0.866  1.2804 -0.9527 -0.7020
 1237TIP3   OH2 3674   4.281   2.668   2.542 -1.0282 -0.0868  0.1066
 1237TIP3    H1 3675   4.363   2.646   2.585 -1.0136 -0.4532 -0.1030
 1237TIP3    H2 3676   4.248   2.585   2.509 -0.2343  0.3610 -2.0028
 1238TIP3   OH2 3677   1.356   5.091   1.236 -0.7189 -0.1027  0.6352
 1238TIP3    H1 3678   1.436   5.143   1.237 -0.4421 -0.5283  1.2509
 1238TIP3    H2 3679   1.315   5.112   1.152  1.1670 -1.5854 -0.7421
 1239TIP3   OH2 3680   5.909   0.287   3.115 -0.1762 -0.5683 -0.3388
 1239TIP3    H1 3681   5.864   0.230   3.177 -0.5765 -0.4025 -0.4746
 1239TIP3    H2 3682   6.001   0.285   3.143 -0.7752  2.0090  2.2266
 1240TIP3   OH2 3683   2.143   6.190   3.240  0.4422  0.0734 -0.1552
 1240TIP3    H1 3684   2.213   6.165   3.301 -0.2909  0.0753  0.7188
 1240TIP3    H2 3685   2.167   6.278   3.212 -0.7239  1.3741  2.5342
 1241TIP3   OH2 3686   4.834   6.000   5.710 -0.8043 -0.2368 -0.0299
 1241TIP3    H1 3687   4.739   6.013   5.706 -0.7023  0.3039 -2.2584
 1241TIP3    H2 3688   4.858   5.971   5.621  1.1369 -0.1648  0.4230
 1242TIP3   OH2 3689   2.136   6.625   2.596 -0.2042 -0.2246  0.5403
 1242TIP3    H1 3690   2.171   6.648   2.510  0.2081 -1.6844  0.2768
 1242TIP3    H2 3691   2.165   6.534   2.609 -2.8602 -1.1179  0.8366
 1243TIP3   OH2 3692   3.262   1.575   4.337 -1.1052  0.3502 -0.1138
 1243TIP3    H1 3693   3.277   1.494   4.288  0.3950  0.7487 -0.3746
 1243TIP3    H2 3694   3.303   1.559   4.423 -4.0592 -0.4971  1.2621
 1244TIP3   OH2 3695   7.059   6.534   5.561  0.0528  0.3909 -0.2539
 1244TIP3    H1 3696   7.154   6.519   5.557  0.0418  0.3043 -0.1938
 1244TIP3    H2 3697   7.021   6.447   5.552 -0.0999  0.6254 -2.6523
 1245TIP3   OH2 3698   3.830   6.638   0.274  0.5484  0.0458 -0.2004
 1245TIP3    H1 3699   3.814   6.696   0.200  2.4355 -0.6867 -1.2559
 1245TIP3    H2 3700   3.902   6.679   0.323  0.9273 -0.6607 -0.1478
 1246TIP3   OH2 3701   1.126   1.562   1.465 -0.9290  0.2595 -0.9338
 1246TIP3    H1 3702   1.137   1.489   1.405  1.9558 -1.4553  1.4135
 1246TIP3    H2 3703   1.061   1.531   1.529 -0.3362  0.0156 -0.4289
 1247TIP3   OH2 3704   2.836   2.271   0.358 -0.4622 -0.3855  0.2544
 1247TIP3    H1 3705   2.836   2.227   0.272 -0.2742  0.8811 -0.4165
 1247TIP3    H2 3706   2.778   2.346   0.346 -0.5132 -0.2524  1.2798
 1248TIP3   OH2 3707   2.590   6.301   3.556 -0.0069 -0.2967  0.2237
 1248TIP3    H1 3708   2.531   6.371   3.530  0.6571  0.1324 -0.1730
 1248TIP3    H2 3709   2.592   6.242   3.481  0.6694  0.1051 -0.0863
 1249TIP3   OH2 3710   7.130   1.040   3.001 -0.8892 -0.1732  0.2726
 1249TIP3    H1 3711   7.081   0.963   3.031  1.2681 -1.9332 -0.4335
 1249TIP3    H2 3712   7.186   1.062   3.076  0.2799 -0.9081 -0.3494
 1250TIP3   OH2 3713   5.247   5.225   2.389  0.2075 -0.4393 -0.0887
 1250TIP3    H1 3714   5.209   5.193   2.471 -0.3607  2.1655  0.7412
 1250TIP3    H2 3715   5.273   5.145   2.342  2.2851 -2.0475  3.3982
 1251TIP3   OH2 3716   1.080   6.675   4.865 -0.2896  0.0852  0.2049
 1251TIP3    H1 3717   1.045   6.622   4.937  0.2348  1.0535  1.2034
 1251TIP3    H2 3718   1.050   6.764   4.884 -1.2331  0.1722 -1.4871
 1252TIP3   OH2 3719   6.867   4.059   1.157 -0.8189 -0.0481 -0.6688
 1252TIP3    H1 3720   6.838   3.968   1.147  0.0281 -0.2507 -1.4898
 1252TIP3    H2 3721   6.934   4.070   1.088  1.5800  0.1451  1.5418
 1253TIP3   OH2 3722   4.365   4.514   0.193  0.2138  0.2506  0.1741
 1253TIP3    H1 3723   4.457   4.494   0.177 -0.0863 -0.0458 -1.3569
 1253TIP3    H2 3724   4.321   4.493   0.111 -1.2770  0.0982  0.9693
 1254TIP3   OH2 3725   1.714   4.115   0.476 -0.1653  0.4510 -0.2742
 1254TIP3    H1 3726   1.767   4.195   0.477  0.8522 -0.1925  1.4332
 1254TIP3    H2 3727   1.778   4.044   0.473 -0.9085 -0.3319  1.2281
 1255TIP3   OH2 3728   1.628   5.803   4.271 -0.1467  0.5320  0.2288
 1255TIP3    H1 3729   1.721   5.786   4.258 -0.0524  1.0923  0.1510
 1255TIP3    H2 3730   1.611   5.781   4.363 -0.2025 -0.7202 -0.0589
 1256TIP3   OH2 3731   2.299   6.105   2.189 -0.3219  0.4610 -0.6230
 1256TIP3    H1 3732   2.256   6.190   2.178 -0.1753  0.4212 -1.5928
 1256TIP3    H2 3733   2.227   6.042   2.188 -0.4484  0.5721  0.2873
 1257TIP3   OH2 3734   4.510   1.473   0.883  0.6162 -0.1400  0.5174
 1257TIP3    H1 3735   4.431   1.525   0.893 -0.2361 -0.4741 -3.1219
 1257TIP3    H2 3736   4.578   1.536   0.860  1.4480  0.0984  3.2727
 1258TIP3   OH2 3737   6.673   4.571   0.595 -0.3113  0.3559 -0.0123
 1258TIP3    H1 3738   6.586   4.577   0.556  0.1569 -1.5939 -1.5339
 1258TIP3    H2 3739   6.671   4.632   0.669 -2.5919  1.1573 -0.6585
 1259TIP3   OH2 3740   1.643   6.108   2.042 -0.1163  0.5335  0.5382
 1259TIP3    H1 3741   1.704   6.180   2.058  0.0337  1.3328 -2.8496
 1259TIP3    H2 3742   1.699   6.035   2.014 -0.5184  0.5025 -0.2155
 1260TIP3   OH2 3743   2.354   5.317   2.502  0.7529 -0.0278 -0.8348
 1260TIP3    H1 3744   2.419   5.379   2.468 -1.5194  2.3323 -1.2420
 1260TIP3    H2 3745   2.300   5.370   2.560  0.6652 -2.5092  1.5150
 1261TIP3   OH2 3746   2.220   3.541   1.102 -0.8502  0.2938  0.0153
 1261TIP3    H1 3747   2.155   3.478   1.131 -0.3625  0.6212  1.9385
 1261TIP3    H2 3748   2.235   3.598   1.178  1.3019  0.5333 -0.5114
 1262TIP3   OH2 3749   3.645   5.936   0.750  0.1328  0.2513 -0.1649
 1262TIP3    H1 3750   3.713   5.894   0.697 -1.3962  0.5960 -2.5438
 1262TIP3    H2 3751   3.658   6.030   0.736 -1.1238  0.3161 -1.1460
 1263TIP3   OH2 3752   1.580   0.129   2.905  0.0074 -0.2921  0.7322
 1263TIP3    H1 3753   1.627   0.121   2.988 -1.5400  0.3295  1.7104
 1263TIP3    H2 3754   1.488   0.136   2.929 -0.4934 -0.0736 -1.0395
 1264TIP3   OH2 3755   1.342   0.944   5.807  0.0944 -0.0145 -0.0976
 1264TIP3    H1 3756   1.389   0.931   5.724  1.2180 -0.3453  0.5657
 1264TIP3    H2 3757   1.309   1.034   5.802 -0.5988 -0.3163 -1.2569
 1265TIP3   OH2 3758   6.229   3.205   1.357  0.0175 -0.5806 -0.5286
 1265TIP3    H1 3759   6.256   3.113   1.360  0.7771 -0.3395  0.8260
 1265TIP3    H2 3760   6.276   3.246   1.429  0.2384  1.0334 -1.5352
 1266TIP3   OH2 3761   4.334   3.306   3.981 -0.2689  0.1836 -0.1230
 1266TIP3    H1 3762   4.393   3.380   3.995  0.0430 -0.1013  0.1125
 1266TIP3    H2 3763   4.254   3.329   4.028 -0.1612  0.3561 -0.0260
 1267TIP3   OH2 3764   5.015   2.217   5.517  0.2304  0.0206  0.3918
 1267TIP3    H1 3765   4.990   2.125   5.506  0.4073  0.1960 -2.1033
 1267TIP3    H2 3766   5.027   2.227   5.612  1.4878 -2.8493  0.6529
 1268TIP3   OH2 3767   5.246   4.727   3.580  0.6167 -0.4413 -0.2266
 1268TIP3    H1 3768   5.247   4.634   3.554 -2.5656 -0.5186 -0.4407
 1268TIP3    H2 3769   5.288   4.773   3.507 -0.6032 -1.4484 -1.6161
 1269TIP3   OH2 3770   2.733   1.249   0.651  0.5616 -0.1838  0.1136
 1269TIP3    H1 3771   2.708   1.303   0.577  0.7235 -1.2100 -0.7057
 1269TIP3    H2 3772   2.796   1.303   0.700 -1.2636  1.4211  0.8254
 1270TIP3   OH2 3773   3.960   2.969   3.277  0.0279  0.3651  0.2293
 1270TIP3    H1 3774   4.002   2.885   3.262 -0.4518  0.0602  0.5683
 1270TIP3    H2 3775   3.871   2.958   3.243 -0.6960  0.0490  2.1056
 1271TIP3   OH2 3776   3.629   3.212   2.762  0.1313  0.3430  0.4173
 1271TIP3    H1 3777   3.671   3.275   2.820 -0.2646  0.3071  0.7500
 1271TIP3    H2 3778   3.536   3.235   2.765 -0.1903 -0.9527  1.4594
 1272TIP3   OH2 3779   3.242   5.781   5.319  0.4796  0.7446  0.3120
 1272TIP3    H1 3780   3.209   5.700   5.357 -1.3611  0.4424 -1.6877
 1272TIP3    H2 3781   3.243   5.843   5.392  0.6958 -0.7187  1.6086
 1273TIP3   OH2 3782   1.203   1.231   3.168 -0.1572 -0.3004  0.2313
 1273TIP3    H1 3783   1.161   1.312   3.197 -0.5301 -1.1337  2.2046
 1273TIP3    H2 3784   1.231   1.249   3.079  1.6253  2.7338  1.2403
 1274TIP3   OH2 3785   0.244   4.460   1.063  0.4634  0.1709 -0.2209
 1274TIP3    H1 3786   0.234   4.500   1.149  1.0967  0.6000 -0.3425
 1274TIP3    H2 3787   0.282   4.374   1.080 -2.5705 -1.2516  0.2072
 1275TIP3   OH2 3788   3.712   5.657   0.612 -0.2624  0.7690 -0.1167
 1275TIP3    H1 3789   3.644   5.676   0.677  0.0767 -0.3082  0.5814
 1275TIP3    H2 3790   3.790   5.637   0.664 -0.4712 -2.0630 -0.7142
 1276TIP3   OH2 3791   5.132   0.744   2.709 -0.0353 -0.0156 -0.2690
 1276TIP3    H1 3792   5.157   0.836   2.701 -0.7089  0.0514 -2.2263
 1276TIP3    H2 3793   5.093   0.722   2.624 -2.5988 -1.2968  1.1247
 1277TIP3   OH2 3794   4.770   2.308   1.316 -0.5362 -0.2513 -0.0366
 1277TIP3    H1 3795   4.745   2.391   1.357  1.5864 -0.5206  2.0154
 1277TIP3    H2 3796   4.834   2.331   1.249 -2.6754  0.0173 -2.1166
 1278TIP3   OH2 3797   7.183   5.621   3.360 -0.2417 -0.0849  0.3584
 1278TIP3    H1 3798   7.198   5.703   3.408 -1.0870 -0.9274  2.1570
 1278TIP3    H2 3799   7.248   5.623   3.290  1.9782  0.6539  2.2906
 1279TIP3   OH2 3800   7.149   4.014   4.173  0.7052  0.4349 -0.8004
 1279TIP3    H1 3801   7.063   3.975   4.160  0.3332  1.0107 -0.1340
 1279TIP3    H2 3802   7.131   4.100   4.210  1.5689  0.6073 -0.7584
 1280TIP3   OH2 3803   0.374   6.753   2.574 -0.0112  0.5930  0.0554
 1280TIP3    H1 3804   0.385   6.725   2.665 -1.6551  0.7761  0.3439
 1280TIP3    H2 3805   0.460   6.739   2.534  0.2369 -1.3072  1.1391
 1281TIP3   OH2 3806   6.614   4.657   1.904 -0.5783 -0.1134  0.2325
 1281TIP3    H1 3807   6.683   4.591   1.910 -0.8038 -0.6082 -1.8336
 1281TIP3    H2 3808   6.613   4.699   1.990  1.1564 -1.2137  0.8353
 1282TIP3   OH2 3809   5.158   1.808   3.791 -0.3684 -0.5219 -0.2174
 1282TIP3    H1 3810   5.252   1.814   3.774 -0.7388 -0.4591 -2.7626
 1282TIP3    H2 3811   5.118   1.822   3.705 -2.6936 -1.1332  0.6890
 1283TIP3   OH2 3812   4.867   3.820   4.142 -0.1483  0.2530  0.1556
 1283TIP3    H1 3813   4.955   3.812   4.106  0.2262  2.5028  0.4228
 1283TIP3    H2 3814   4.810   3.827   4.065  0.2091  1.2137 -0.0359
 1284TIP3   OH2 3815   1.144   2.390   4.846 -0.3191  0.1002 -0.3156
 1284TIP3    H1 3816   1.088   2.314   4.832  1.0753 -0.8625 -0.9194
 1284TIP3    H2 3817   1.230   2.362   4.814  0.4324  1.6296  0.2900
 1285TIP3   OH2 3818   5.533   3.151   3.425  0.2861  0.2026 -0.4088
 1285TIP3    H1 3819   5.554   3.066   3.463  0.9694  1.0085  1.1186
 1285TIP3    H2 3820   5.609   3.206   3.447 -0.1067  1.1877 -1.4261
 1286TIP3   OH2 3821   2.500   5.791   1.514  0.1523  0.6388  0.2279
 1286TIP3    H1 3822   2.566   5.823   1.453  0.3598  0.1743  0.1966
 1286TIP3    H2 3823   2.499   5.696   1.500  0.2508  0.5132  0.9865
 1287TIP3   OH2 3824   3.995   6.516   4.311 -0.3854 -0.0048 -0.5681
 1287TIP3    H1 3825   3.970   6.444   4.369 -0.1142 -0.0430 -0.4973
 1287TIP3    H2 3826   3.913   6.563   4.294 -0.5125 -0.1563 -0.3766
 1288TIP3   OH2 3827   3.501   1.380   3.694  0.4540  0.0267 -0.4143
 1288TIP3    H1 3828   3.443   1.317   3.737  0.7807  0.3075  0.4434
 1288TIP3    H2 3829   3.551   1.328   3.632 -0.9844 -0.1704 -1.4766
 1289TIP3   OH2 3830   5.872   1.202   2.258  0.3339 -0.1769 -0.1901
 1289TIP3    H1 3831   5.866   1.222   2.165  0.3270 -0.9010 -0.3549
 1289TIP3    H2 3832   5.962   1.173   2.270  0.5068  0.4978  0.1514
 1290TIP3   OH2 3833   3.873   2.814   2.406 -0.2101 -0.5217  1.3629
 1290TIP3    H1 3834   3.943   2.804   2.471 -0.7910 -2.3771  1.7447
 1290TIP3    H2 3835   3.889   2.746   2.341  0.0540  0.9644 -0.2328
 1291TIP3   OH2 3836   3.075   3.539   5.730 -0.2521 -0.7078  0.3854
 1291TIP3    H1 3837   3.005   3.604   5.729  0.8885  0.6420 -1.9349
 1291TIP3    H2 3838   3.055   3.482   5.804 -2.1775  1.3524  1.5620
 1292TIP3   OH2 3839   0.072   3.371   5.553 -0.1756  0.2408  0.0108
 1292TIP3    H1 3840   0.106   3.288   5.521 -0.9881  0.6332 -2.0423
 1292TIP3    H2 3841  -0.012   3.348   5.594 -0.0964 -0.0231  0.0276
 1293TIP3   OH2 3842   3.519   0.760   4.375  0.0342  0.2519 -0.0547
 1293TIP3    H1 3843   3.577   0.703   4.325 -1.0311  0.4951 -1.6574
 1293TIP3    H2 3844   3.564   0.845   4.374  0.4500  0.0388  0.1902
 1294TIP3   OH2 3845   1.757   1.501   1.059  0.0330  0.3302  0.2133
 1294TIP3    H1 3846   1.781   1.477   1.148 -0.3573  1.3317  0.6076
 1294TIP3    H2 3847   1.744   1.418   1.014  2.7632 -0.2527  0.3507
 1295TIP3   OH2 3848   1.852   6.696   2.441 -0.0653 -0.8733 -0.0785
 1295TIP3    H1 3849   1.939   6.733   2.455 -0.4214  0.0207 -0.1573
 1295TIP3    H2 3850   1.866   6.621   2.384  0.6352 -0.6345 -0.2225
 1296TIP3   OH2 3851   5.833   2.080   4.469 -0.0694  0.0626  0.2717
 1296TIP3    H1 3852   5.766   2.144   4.446  0.2541  0.1946 -0.3099
 1296TIP3    H2 3853   5.784   2.007   4.508 -0.7776 -0.7165 -1.9500
 1297TIP3   OH2 3854   6.757   5.826   0.484 -0.1789 -0.5648  0.1471
 1297TIP3    H1 3855   6.836   5.867   0.447 -1.5264  1.0211 -1.1637
 1297TIP3    H2 3856   6.772   5.828   0.579  1.4212 -0.4685 -0.0713
 1298TIP3   OH2 3857   4.630   1.011   5.492  0.5444 -0.3775  0.0416
 1298TIP3    H1 3858   4.563   1.003   5.425  0.2380 -0.7871  0.3915
 1298TIP3    H2 3859   4.685   0.934   5.480  1.6991  0.5754 -1.0432
 1299TIP3   OH2 3860   0.427   0.318   3.014 -0.0377 -0.0078  0.4198
 1299TIP3    H1 3861   0.420   0.240   3.069 -1.3139  1.1915  2.0504
 1299TIP3    H2 3862   0.460   0.285   2.930  1.4319 -1.9979  1.6793
 1300TIP3   OH2 3863   6.207   4.464   3.928 -0.2530  0.4248  0.0270
 1300TIP3    H1 3864   6.118   4.469   3.893  0.0507  0.0818 -0.8111
 1300TIP3    H2 3865   6.198   4.490   4.020 -1.0579  1.4005 -0.3121
 1301TIP3   OH2 3866   1.304   0.322   2.561  0.0878  0.0929 -0.1770
 1301TIP3    H1 3867   1.275   0.380   2.631  1.0149 -1.1119  1.2667
 1301TIP3    H2 3868   1.247   0.343   2.487 -0.1197  2.2340  0.5429
 1302TIP3   OH2 3869   5.779   3.628   2.333  0.5414  0.0677  0.4005
 1302TIP3    H1 3870   5.734   3.563   2.388 -0.1410 -0.4573 -0.7399
 1302TIP3    H2 3871   5.810   3.694   2.395  2.1156 -1.8015  1.7208
 1303TIP3   OH2 3872   5.216   3.289   4.953  0.1286  0.5161 -0.4233
 1303TIP3    H1 3873   5.280   3.240   4.902  1.3678  2.0469 -0.3842
 1303TIP3    H2 3874   5.136   3.287   4.899 -0.0062 -1.8219 -0.2453
 1304TIP3   OH2 3875   3.250   4.278   1.248 -0.2221 -0.4992 -0.1700
 1304TIP3    H1 3876   3.257   4.265   1.342  2.4257 -3.0453 -0.5882
 1304TIP3    H2 3877   3.339   4.298   1.219 -0.9653  0.2014 -2.1519
 1305TIP3   OH2 3878   1.267   0.189   1.783  0.8284 -0.1541 -0.5735
 1305TIP3    H1 3879   1.349   0.232   1.758  0.8728 -0.9071 -1.7795
 1305TIP3    H2 3880   1.199   0.247   1.750  0.8635  0.1788 -0.0802
 1306TIP3   OH2 3881   3.843   3.854   0.899  0.6860  0.0177  0.1890
 1306TIP3    H1 3882   3.875   3.895   0.819  1.5527 -0.5591  0.2320
 1306TIP3    H2 3883   3.756   3.823   0.877  1.4323 -1.3763 -0.9805
 1307TIP3   OH2 3884   1.031   5.130   5.885  0.1617  0.5747 -0.0864
 1307TIP3    H1 3885   1.012   5.184   5.809  0.0582  1.0922  0.2959
 1307TIP3    H2 3886   1.005   5.041   5.860  1.5944  0.4489 -1.2067
 1308TIP3   OH2 3887   3.850   1.785   1.871 -0.4432 -0.1116  0.0196
 1308TIP3    H1 3888   3.877   1.809   1.783  0.0323 -1.6301 -0.2840
 1308TIP3    H2 3889   3.785   1.851   1.896 -0.6145  0.3097 -1.4749
 1309TIP3   OH2 3890   5.815   6.679   4.357  0.6710  0.0639  0.4362
 1309TIP3    H1 3891   5.878   6.608   4.342  2.3282  1.3386  0.9457
 1309TIP3    H2 3892   5.863   6.758   4.332 -0.9344  1.0485  0.3885
 1310TIP3   OH2 3893   6.747   0.198   0.790  0.3083  0.0060 -0.4551
 1310TIP3    H1 3894   6.654   0.191   0.769  0.4265 -0.4044 -0.8454
 1310TIP3    H2 3895   6.780   0.267   0.733 -0.1493  1.5460  1.0434
 1311TIP3   OH2 3896   6.321   5.752   2.034 -0.1352 -0.1156 -0.3738
 1311TIP3    H1 3897   6.337   5.842   2.005  0.7691 -0.0898  0.1589
 1311TIP3    H2 3898   6.248   5.759   2.095  3.0063  1.1360  3.6782
 1312TIP3   OH2 3899   6.134   0.852   5.221  0.1017  0.4725 -0.0060
 1312TIP3    H1 3900   6.075   0.855   5.145  0.0381  0.0082  0.0233
 1312TIP3    H2 3901   6.189   0.775   5.205  0.1286  0.4120  0.3856
 1313TIP3   OH2 3902   7.196   5.697   2.834  0.1758 -0.1992 -0.3950
 1313TIP3    H1 3903   7.146   5.615   2.828 -0.4061  0.2538 -2.0082
 1313TIP3    H2 3904   7.143   5.752   2.892  0.3319 -0.7628  0.3141
 1314TIP3   OH2 3905   3.236   0.436   1.153 -0.0690  0.2426  1.0277
 1314TIP3    H1 3906   3.306   0.484   1.109 -0.9855  1.4239  0.8036
 1314TIP3    H2 3907   3.277   0.399   1.231  0.9566  0.3542  0.5517
 1315TIP3   OH2 3908   1.333   5.179   5.315  0.4357 -1.0772 -1.0519
 1315TIP3    H1 3909   1.313   5.226   5.235  1.9841  0.6959 -0.4646
 1315TIP3    H2 3910   1.247   5.152   5.349 -1.0573  4.1145  0.1970
 1316TIP3   OH2 3911   0.573   2.951   0.570 -0.2208 -0.4448 -0.0692
 1316TIP3    H1 3912   0.554   2.860   0.548 -1.9999 -0.6927  2.0959
 1316TIP3    H2 3913   0.631   2.946   0.646 -0.0602  0.2328 -0.1414
 1317TIP3   OH2 3914   1.797   4.826   2.588  0.7975  0.2829 -0.9592
 1317TIP3    H1 3915   1.880   4.873   2.600  0.0656  1.3558  0.2011
 1317TIP3    H2 3916   1.782   4.783   2.672 -0.2523  0.8409 -0.8451
 1318TIP3   OH2 3917   0.235   1.492   2.070  0.0742 -0.0886  0.1941
 1318TIP3    H1 3918   0.312   1.546   2.091  0.5460 -0.3591 -0.7803
 1318TIP3    H2 3919   0.237   1.421   2.135  0.7319 -0.1707  0.0894
 1319TIP3   OH2 3920   5.850   4.226   3.052 -0.0150 -0.4507  0.3613
 1319TIP3    H1 3921   5.856   4.143   3.100  2.2441 -1.3310 -1.2572
 1319TIP3    H2 3922   5.899   4.210   2.972 -0.1421  2.2536 -0.3341
 1320TIP3   OH2 3923   1.741   0.805   2.753 -0.0567 -0.5649  0.0657
 1320TIP3    H1 3924   1.734   0.761   2.837  0.8639  1.9733  1.5647
 1320TIP3    H2 3925   1.828   0.780   2.720 -0.3069 -1.3409 -0.0316
 1321TIP3   OH2 3926   3.909   1.164   5.751 -0.2900 -0.4004 -0.1634
 1321TIP3    H1 3927   3.883   1.074   5.769 -0.8931  0.0181  1.1381
 1321TIP3    H2 3928   4.002   1.159   5.732  0.1970 -1.0500  2.1072
 1322TIP3   OH2 3929   3.822   5.652   4.463  0.1733 -0.0227  0.0619
 1322TIP3    H1 3930   3.895   5.613   4.416 -0.5860  0.2810 -1.4060
 1322TIP3    H2 3931   3.745   5.604   4.433 -0.3762  0.3766  0.7775
 1323TIP3   OH2 3932   4.200   4.619   1.996  0.3052 -0.0539  0.0703
 1323TIP3    H1 3933   4.286   4.577   2.002  0.1313 -0.6523 -1.1940
 1323TIP3    H2 3934   4.148   4.576   2.064  0.0883 -2.0884 -1.2837
 1324TIP3   OH2 3935   1.235   1.060   4.761  0.4407 -0.3193  0.1905
 1324TIP3    H1 3936   1.221   0.966   4.747  0.8722 -0.6580  1.8767
 1324TIP3    H2 3937   1.214   1.074   4.853 -1.4804  1.6178 -0.4549
 1325TIP3   OH2 3938   3.462   5.605   5.612  0.2018  0.0376 -0.1145
 1325TIP3    H1 3939   3.541   5.604   5.559 -0.3966 -1.5288 -1.0549
 1325TIP3    H2 3940   3.406   5.537   5.573 -2.1642  1.9591 -0.3422
 1326TIP3   OH2 3941   6.235   1.587   1.521  0.1132  0.4724  0.0905
 1326TIP3    H1 3942   6.277   1.519   1.574 -0.3154 -0.0183 -0.2046
 1326TIP3    H2 3943   6.163   1.618   1.575 -0.7709 -0.5301 -0.4885
 1327TIP3   OH2 3944   1.323   3.811   4.836 -0.6911  1.1216 -0.0315
 1327TIP3    H1 3945   1.293   3.803   4.746  0.0127 -1.6445 -0.0869
 1327TIP3    H2 3946   1.246   3.791   4.889 -0.3203 -0.6163 -0.1041
 1328TIP3   OH2 3947   6.087   5.917   3.246 -0.1097  0.5193  0.3133
 1328TIP3    H1 3948   6.065   5.846   3.306  0.2448  1.8734  2.1393
 1328TIP3    H2 3949   6.089   5.876   3.159  1.7914 -2.0490  1.4600
 1329TIP3   OH2 3950   3.482   6.020   3.412  0.3030  0.0393 -0.0573
 1329TIP3    H1 3951   3.511   6.050   3.498 -2.3815 -1.1246  1.3880
 1329TIP3    H2 3952   3.436   5.938   3.430 -3.9591  1.7204 -1.9230
 1330TIP3   OH2 3953   6.631   2.773   0.403 -0.0892  0.1055 -0.2924
 1330TIP3    H1 3954   6.555   2.818   0.367  0.0778  1.1262  0.5655
 1330TIP3    H2 3955   6.647   2.816   0.487  0.9021 -0.6789 -0.0543
 1331TIP3   OH2 3956   1.134   4.405   1.801 -0.0995  0.5877  0.3146
 1331TIP3    H1 3957   1.168   4.447   1.879 -2.9068 -0.1576  2.0897
 1331TIP3    H2 3958   1.065   4.464   1.770  1.8382  1.5882 -2.5852
 1332TIP3   OH2 3959   5.486   5.645   3.118  0.1954 -0.2428 -0.0788
 1332TIP3    H1 3960   5.557   5.708   3.128 -0.1660 -0.0182  1.1292
 1332TIP3    H2 3961   5.508   5.598   3.037  1.9797 -0.5127  0.5228
 1333TIP3   OH2 3962   1.288   4.431   2.854 -0.3576  0.2462 -0.0372
 1333TIP3    H1 3963   1.371   4.418   2.899 -0.3661 -0.5075 -0.2144
 1333TIP3    H2 3964   1.307   4.494   2.785  0.2136 -0.3453 -0.4387
 1334TIP3   OH2 3965   6.578   3.811   2.382  0.5862 -0.9269  0.4914
 1334TIP3    H1 3966   6.543   3.726   2.355 -0.3782 -0.5762  0.6305
 1334TIP3    H2 3967   6.574   3.864   2.303  0.1183 -0.6686  0.6843
 1335TIP3   OH2 3968   1.634   6.623   4.232 -0.6057  0.1550  0.0188
 1335TIP3    H1 3969   1.618   6.571   4.153  0.2136 -1.0053  0.6043
 1335TIP3    H2 3970   1.547   6.644   4.265 -0.9428 -0.5356 -0.4166
 1336TIP3   OH2 3971   5.051   2.120   3.520 -0.0685 -0.1781 -0.4008
 1336TIP3    H1 3972   5.001   2.041   3.499  1.1189 -0.5927 -1.9056
 1336TIP3    H2 3973   5.138   2.104   3.483  0.3433  1.6507 -0.3428
 1337TIP3   OH2 3974   2.124   1.600   0.073 -0.0712 -0.1136 -0.3494
 1337TIP3    H1 3975   2.080   1.649   0.143  0.4385 -0.4799  0.2445
 1337TIP3    H2 3976   2.055   1.548   0.032 -0.4592  0.4628 -0.4269
 1338TIP3   OH2 3977   2.155   2.058   3.748 -0.3496  0.0983 -0.1370
 1338TIP3    H1 3978   2.174   1.987   3.686 -0.2564 -0.7149  0.7850
 1338TIP3    H2 3979   2.194   2.136   3.709 -1.5459 -0.0735 -1.7959
 1339TIP3   OH2 3980   4.675   0.114   3.793  0.4087  0.2079 -0.0638
 1339TIP3    H1 3981   4.633   0.199   3.779  1.0861  0.5197 -0.2256
 1339TIP3    H2 3982   4.617   0.068   3.853  0.0666  0.8059  0.0679
 1340TIP3   OH2 3983   4.328   0.862   0.338  0.1160  0.1439 -0.3332
 1340TIP3    H1 3984   4.274   0.800   0.289 -1.7887 -1.2512  3.1950
 1340TIP3    H2 3985   4.406   0.811   0.363 -0.9913 -0.6653  1.7182
 1341TIP3   OH2 3986   2.394   0.304   2.439  0.6122  0.5178  0.0098
 1341TIP3    H1 3987   2.403   0.392   2.476  0.6258 -0.1211  1.6241
 1341TIP3    H2 3988   2.469   0.256   2.475  1.5895  0.2680 -2.2384
 1342TIP3   OH2 3989   4.631   4.356   1.383 -0.3229  0.5094 -1.0649
 1342TIP3    H1 3990   4.555   4.396   1.426 -1.4816 -2.2189 -0.3231
 1342TIP3    H2 3991   4.597   4.318   1.303 -0.2438 -2.2254  0.0831
 1343TIP3   OH2 3992   5.615   1.429   0.666  0.3951  0.0602 -0.2425
 1343TIP3    H1 3993   5.552   1.391   0.606  1.6539  0.5129 -1.9328
 1343TIP3    H2 3994   5.656   1.500   0.616  1.8556  0.1111  0.9514
 1344TIP3   OH2 3995   4.876   2.996   0.689 -0.4068 -0.2492 -0.5907
 1344TIP3    H1 3996   4.833   3.081   0.699  2.4077  1.1177  1.3005
 1344TIP3    H2 3997   4.913   2.977   0.776 -0.0200 -2.8941 -1.2446
 1345TIP3   OH2 3998   1.567   0.925   4.648  0.4713 -0.1013 -0.1425
 1345TIP3    H1 3999   1.566   0.909   4.553  1.4393  0.4409 -0.2618
 1345TIP3    H2 4000   1.475   0.920   4.674  0.2131 -0.4552 -1.0792
 1346TIP3   OH2 4001   0.035   1.333   2.985  1.1032  0.6378  0.2212
 1346TIP3    H1 4002  -0.042   1.287   3.016  1.9736 -1.7310 -0.8964
 1346TIP3    H2 4003   0.100   1.320   3.053  1.7259 -0.9442 -0.6271
 1347TIP3   OH2 4004   5.723   2.111   1.826 -0.1921 -0.3229  0.3514
 1347TIP3    H1 4005   5.758   2.062   1.900 -0.6684 -0.2705  0.6131
 1347TIP3    H2 4006   5.752   2.201   1.840 -0.0546 -0.3636  0.3298
 1348TIP3   OH2 4007   2.026   4.709   2.979  0.9387  0.6352  0.3991
 1348TIP3    H1 4008   1.944   4.746   2.947  0.6538 -2.3208 -2.7241
 1348TIP3    H2 4009   2.000   4.638   3.037  1.3806  0.7905  0.8053
 1349TIP3   OH2 4010   1.623   3.827   4.753  0.4265  0.6901  0.1151
 1349TIP3    H1 4011   1.530   3.806   4.761  0.5592  0.2651  0.6217
 1349TIP3    H2 4012   1.655   3.770   4.684  0.1288  1.4671 -0.6764
 1350TIP3   OH2 4013   4.026   0.192   1.218  0.0176  0.3337 -0.3108
 1350TIP3    H1 4014   4.078   0.240   1.153 -1.5294  0.2974 -1.6259
 1350TIP3    H2 4015   3.946   0.243   1.228 -1.1997 -1.3803 -0.9202
 1351TIP3   OH2 4016   2.685   0.466   3.574 -0.1345 -0.0176  0.1890
 1351TIP3    H1 4017   2.768   0.458   3.621  0.0430  2.6162  0.4814
 1351TIP3    H2 4018   2.626   0.506   3.638 -1.9354 -2.6050  0.2478
 1352TIP3   OH2 4019   4.917   1.115   1.245  0.0667  0.1077 -0.8671
 1352TIP3    H1 4020   4.981   1.078   1.184  0.0603  0.9820 -1.4239
 1352TIP3    H2 4021   4.833   1.079   1.217  0.4274 -2.3083  0.8297
 1353TIP3   OH2 4022   1.138   4.304  -0.023 -0.3786 -0.0210  0.3102
 1353TIP3    H1 4023   1.189   4.379   0.009 -1.1317  0.1946  1.0160
 1353TIP3    H2 4024   1.134   4.244   0.051  0.4318 -0.8988 -0.3234
 1354TIP3   OH2 4025   3.129   3.731   4.324 -0.2264 -0.0030  0.7088
 1354TIP3    H1 4026   3.208   3.777   4.296  0.1396 -1.3856 -0.6521
 1354TIP3    H2 4027   3.117   3.757   4.416  1.2045  1.0231  0.6355
 1355TIP3   OH2 4028   3.770   4.327   4.225  0.0064 -0.6326  0.6700
 1355TIP3    H1 4029   3.792   4.419   4.239 -0.6219  0.0715 -2.2499
 1355TIP3    H2 4030   3.681   4.329   4.190  0.8484 -2.0796 -1.7496
 1356TIP3   OH2 4031   0.916   3.420   1.249  0.4241  0.0238 -0.3766
 1356TIP3    H1 4032   0.840   3.362   1.255  0.5545 -0.6665 -3.5251
 1356TIP3    H2 4033   0.887   3.490   1.190  2.5202 -0.9942 -2.8029
 1357TIP3   OH2 4034   5.809   0.704   4.159  0.2118 -0.1373 -0.6445
 1357TIP3    H1 4035   5.758   0.750   4.092 -0.9590  1.2974  1.1226
 1357TIP3    H2 4036   5.756   0.627   4.180 -1.0092  1.0113  0.7259
 1358TIP3   OH2 4037   0.913   2.892   0.095 -0.1263 -0.2983  0.0371
 1358TIP3    H1 4038   0.829   2.884   0.049 -0.6821 -1.5558  1.2332
 1358TIP3    H2 4039   0.940   2.802   0.113  1.0963  0.1177  0.3634
 1359TIP3   OH2 4040   0.591   6.109   5.665 -0.7984  0.0106 -0.0506
 1359TIP3    H1 4041   0.612   6.185   5.718  0.0248 -0.9701  1.0910
 1359TIP3    H2 4042   0.509   6.075   5.703 -0.3010 -0.5911  0.5138
 1360TIP3   OH2 4043   4.653   2.321   2.233  0.7764 -0.3236  0.6837
 1360TIP3    H1 4044   4.653   2.298   2.326 -0.3165 -1.7038  0.3855
 1360TIP3    H2 4045   4.743   2.348   2.215  2.0824 -3.7057  1.3229
 1361TIP3   OH2 4046   5.874   3.299   2.580  0.5827  0.1445  0.0076
 1361TIP3    H1 4047   5.935   3.366   2.611  1.0683 -0.4300  0.2951
 1361TIP3    H2 4048   5.902   3.280   2.491  1.4572 -0.8440  0.4811
 1362TIP3   OH2 4049   6.749   0.979   1.708  0.1621 -0.2903  0.2388
 1362TIP3    H1 4050   6.675   1.032   1.738 -0.9373 -0.8413 -1.3749
 1362TIP3    H2 4051   6.816   0.992   1.775 -1.4935 -0.0253  1.9260
 1363TIP3   OH2 4052   3.790   3.514   5.226  0.2182 -0.4156 -0.0677
 1363TIP3    H1 4053   3.698   3.499   5.205 -0.0899  0.0086  0.9106
 1363TIP3    H2 4054   3.798   3.492   5.318  0.6124  1.5387  0.4250
 1364TIP3   OH2 4055   1.694   6.597   1.571 -0.5271  0.4428 -0.2280
 1364TIP3    H1 4056   1.627   6.544   1.527 -0.6756  1.7657 -1.6883
 1364TIP3    H2 4057   1.733   6.649   1.501 -0.1756  2.0487  1.1034
 1365TIP3   OH2 4058   1.283   1.497   3.425 -0.0409  0.1027  0.2323
 1365TIP3    H1 4059   1.334   1.551   3.365 -0.0637 -2.1962 -1.9953
 1365TIP3    H2 4060   1.192   1.521   3.408  0.0150  2.7523  2.7887
 1366TIP3   OH2 4061   3.716   0.163   1.126  0.1549  0.2264 -0.2934
 1366TIP3    H1 4062   3.681   0.187   1.040  2.4816  1.8750 -0.8911
 1366TIP3    H2 4063   3.726   0.247   1.172  1.2861 -0.3681  0.5983
 1367TIP3   OH2 4064   4.840   1.214   3.928 -0.0463 -0.2262  0.2928
 1367TIP3    H1 4065   4.773   1.227   3.861 -2.3499 -0.9002  2.3404
 1367TIP3    H2 4066   4.814   1.272   3.999  2.1054  0.1693  0.8110
 1368TIP3   OH2 4067   5.878   5.837   1.723  0.4841 -0.5959  0.1740
 1368TIP3    H1 4068   5.873   5.828   1.818  0.5942 -0.9697  0.1454
 1368TIP3    H2 4069   5.947   5.777   1.696  2.1547  1.2934  0.0859
 1369TIP3   OH2 4070   3.211   6.207   2.257 -0.1360 -0.0087 -0.0764
 1369TIP3    H1 4071   3.262   6.243   2.330  2.4185  1.2010 -2.2755
 1369TIP3    H2 4072   3.170   6.283   2.217  0.1010 -0.3823 -1.0426
 1370TIP3   OH2 4073   1.590   1.727   4.742 -0.1197  0.4450 -0.4826
 1370TIP3    H1 4074   1.511   1.678   4.761  0.5236 -0.5978 -0.4128
 1370TIP3    H2 4075   1.563   1.793   4.677 -1.1229  0.4046 -0.1124
 1371TIP3   OH2 4076   2.760   4.441   3.230  0.4372 -0.1133  0.5558
 1371TIP3    H1 4077   2.670   4.468   3.246  0.3570 -0.2557  0.3495
 1371TIP3    H2 4078   2.772   4.449   3.135 -0.3271 -2.9726  0.1121
 1372TIP3   OH2 4079   3.308   3.928   4.338 -0.5081  0.2035 -0.0808
 1372TIP3    H1 4080   3.333   3.905   4.428  0.1199  0.1014 -0.2740
 1372TIP3    H2 4081   3.359   4.007   4.319 -2.2505  1.4884  0.3929
 1373TIP3   OH2 4082   6.692   1.321   3.092  0.2303 -0.4306 -0.0555
 1373TIP3    H1 4083   6.611   1.321   3.143  0.5062 -0.2827  0.3942
 1373TIP3    H2 4084   6.680   1.252   3.027  0.1595 -1.1361  0.6872
 1374TIP3   OH2 4085   2.063   6.058   0.345 -0.4770 -0.1841 -0.1059
 1374TIP3    H1 4086   2.078   6.020   0.259  1.2760  0.5002 -0.1516
 1374TIP3    H2 4087   1.977   6.100   0.338 -0.7999 -0.9695 -1.1913
 1375TIP3   OH2 4088   4.466   0.170   5.361 -0.4903  0.0872 -0.3157
 1375TIP3    H1 4089   4.495   0.256   5.390 -1.8375  0.7350 -0.8139
 1375TIP3    H2 4090   4.539   0.112   5.381  0.8082  1.5018 -0.7999
 1376TIP3   OH2 4091   0.060   0.507   2.662 -0.2655  0.2637 -0.0336
 1376TIP3    H1 4092   0.116   0.584   2.654 -0.1561  0.0027 -3.4706
 1376TIP3    H2 4093   0.118   0.439   2.696  1.0432  0.5416 -1.5402
 1377TIP3   OH2 4094   5.637   4.773   3.259  0.0872 -0.0237 -0.2287
 1377TIP3    H1 4095   5.563   4.724   3.294  1.1863 -0.8413  1.0775
 1377TIP3    H2 4096   5.599   4.833   3.195 -1.4799 -1.5592 -0.7949
 1378TIP3   OH2 4097   6.289   6.013   5.355  0.4702 -0.3027  0.4082
 1378TIP3    H1 4098   6.228   5.961   5.406 -0.1480 -0.5400 -0.5521
 1378TIP3    H2 4099   6.312   5.957   5.281  1.0073  0.2058  0.1833
 1379TIP3   OH2 4100   4.653   2.474   4.168  0.4762 -0.4783 -0.0515
 1379TIP3    H1 4101   4.693   2.525   4.238  0.9849  0.6160 -1.0843
 1379TIP3    H2 4102   4.682   2.518   4.088 -1.7236 -0.4518 -0.8863
 1380TIP3   OH2 4103   2.037   6.159   1.447  0.1989  0.4156 -0.4519
 1380TIP3    H1 4104   1.954   6.207   1.449  0.0565  0.1542  0.6408
 1380TIP3    H2 4105   2.015   6.073   1.484  0.6726 -0.1253 -1.4136
 1381TIP3   OH2 4106   4.017   4.945   3.701 -0.0446 -0.2084  0.5594
 1381TIP3    H1 4107   4.013   4.851   3.683  1.4275  0.1065 -1.7228
 1381TIP3    H2 4108   3.925   4.970   3.713 -0.4683 -1.9005  1.1902
 1382TIP3   OH2 4109   0.437   3.595   5.587  0.3267 -0.5754 -0.4111
 1382TIP3    H1 4110   0.527   3.609   5.557  0.2054  1.3218 -0.0266
 1382TIP3    H2 4111   0.432   3.645   5.669 -0.8378 -1.3563  0.0132
 1383TIP3   OH2 4112   2.544   0.038   1.131  0.7070  0.9148 -0.4424
 1383TIP3    H1 4113   2.467   0.090   1.111 -1.0678 -1.4394 -0.2771
 1383TIP3    H2 4114   2.618   0.095   1.112 -0.9490  2.1378 -4.1729
 1384TIP3   OH2 4115   2.937   4.656   1.315  0.4607  0.1735  0.0879
 1384TIP3    H1 4116   2.871   4.708   1.268  0.2685  1.4103  1.6130
 1384TIP3    H2 4117   3.021   4.685   1.279  0.2469 -0.0664 -0.6020
 1385TIP3   OH2 4118   3.793   2.071   5.201  0.3032  0.6477 -0.0297
 1385TIP3    H1 4119   3.820   1.994   5.150  1.0942  1.0602 -0.2509
 1385TIP3    H2 4120   3.756   2.131   5.137 -0.9802  0.1804  0.2424
 1386TIP3   OH2 4121   1.704   1.801   0.657 -0.0519  0.2080  0.0447
 1386TIP3    H1 4122   1.661   1.877   0.695  0.1801 -0.2331  1.2404
 1386TIP3    H2 4123   1.643   1.769   0.590 -0.9964  0.3567  0.8162
 1387TIP3   OH2 4124   2.041   6.368   0.117 -0.2900 -0.8057 -0.2463
 1387TIP3    H1 4125   2.047   6.392   0.025 -0.0089 -1.0222 -0.2869
 1387TIP3    H2 4126   2.046   6.273   0.118 -1.4858 -0.8748 -0.0904
 1388TIP3   OH2 4127   6.108   2.784   2.832  1.0291 -0.4575  0.2408
 1388TIP3    H1 4128   6.156   2.767   2.913 -0.6257 -1.3612  1.0775
 1388TIP3    H2 4129   6.016   2.781   2.857  0.4854  0.8775 -1.3800
 1389TIP3   OH2 4130   0.344   1.533   0.585 -0.5216 -0.0389 -0.2420
 1389TIP3    H1 4131   0.390   1.454   0.613 -1.7499 -0.9944 -0.8556
 1389TIP3    H2 4132   0.403   1.605   0.609  0.9498 -1.1715 -0.3539
 1390TIP3   OH2 4133   7.220   1.522   1.449  0.2179  1.1779 -0.2575
 1390TIP3    H1 4134   7.197   1.541   1.358 -0.2696  1.5107 -0.0698
 1390TIP3    H2 4135   7.160   1.576   1.500  0.5617  1.0713  0.2609
 1391TIP3   OH2 4136   3.476   3.291   1.054  0.0430  0.0868 -0.3080
 1391TIP3    H1 4137   3.411   3.223   1.071  0.1899 -0.3467 -1.4013
 1391TIP3    H2 4138   3.491   3.287   0.960  0.8207  0.9441 -0.2355
 1392TIP3   OH2 4139   6.858   2.725   2.287  0.0412 -0.2027 -0.0615
 1392TIP3    H1 4140   6.939   2.732   2.339 -0.3250 -0.0387  0.4991
 1392TIP3    H2 4141   6.888   2.700   2.200  0.6428 -0.9691  0.3485
 1393TIP3   OH2 4142   1.097   6.390   2.039 -0.1360  0.5585  0.1160
 1393TIP3    H1 4143   1.184   6.414   2.072 -0.2863  1.1273  0.1035
 1393TIP3    H2 4144   1.037   6.418   2.108 -0.5396  2.5644 -0.9745
 1394TIP3   OH2 4145   1.759   2.598   0.847 -0.2349  0.5671  0.4422
 1394TIP3    H1 4146   1.796   2.663   0.787 -0.9972  1.0065  0.4462
 1394TIP3    H2 4147   1.792   2.624   0.933  0.5717  0.1405  0.2783
 1395TIP3   OH2 4148   6.055   6.035   1.486  0.4567  0.3763  0.4323
 1395TIP3    H1 4149   5.972   6.070   1.519  0.3877  3.0630 -2.2237
 1395TIP3    H2 4150   6.063   6.071   1.398  2.5247 -3.1212 -0.9922
 1396TIP3   OH2 4151   4.205   6.681   2.253  0.1190 -0.4690  0.4524
 1396TIP3    H1 4152   4.181   6.710   2.165  1.1824  0.0274  0.3039
 1396TIP3    H2 4153   4.236   6.761   2.297 -0.1586 -0.7550  1.1888
 1397TIP3   OH2 4154   2.422   0.302   1.270 -0.3669  0.4275  0.5755
 1397TIP3    H1 4155   2.488   0.350   1.319 -0.6691  3.2787 -1.5232
 1397TIP3    H2 4156   2.365   0.264   1.336  2.6472 -1.1936  2.4354
 1398TIP3   OH2 4157   6.782   0.826   1.270 -0.1642  0.5316 -0.2394
 1398TIP3    H1 4158   6.820   0.904   1.311  0.5284 -0.9101  2.0445
 1398TIP3    H2 4159   6.825   0.753   1.314 -3.3846 -1.1843  0.3605
 1399TIP3   OH2 4160   1.278   3.793   3.828 -0.3997  0.3595  0.5079
 1399TIP3    H1 4161   1.214   3.755   3.768 -0.8416  0.8495  0.6591
 1399TIP3    H2 4162   1.327   3.856   3.775 -0.7680  0.7681  0.6398
 1400TIP3   OH2 4163   2.068   6.214   1.872 -0.0396 -0.2040 -0.0282
 1400TIP3    H1 4164   1.980   6.209   1.910 -0.4371  0.1605 -0.8604
 1400TIP3    H2 4165   2.126   6.179   1.940 -1.1198 -3.3749 -0.6051
 1401TIP3   OH2 4166   1.122   4.621   4.880  0.0435 -0.0642 -0.7690
 1401TIP3    H1 4167   1.153   4.689   4.820 -0.4144  0.6208 -0.2393
 1401TIP3    H2 4168   1.193   4.556   4.881  0.4385  0.3501 -1.3620
 1402TIP3   OH2 4169   2.384   6.586   4.241 -0.1204  0.4794  0.3463
 1402TIP3    H1 4170   2.395   6.678   4.215 -1.3444  1.1310  1.9503
 1402TIP3    H2 4171   2.302   6.585   4.290  0.0744 -1.4197  0.7053
 1403TIP3   OH2 4172   6.755   5.584   1.207  0.0034  0.1386 -0.0473
 1403TIP3    H1 4173   6.842   5.581   1.247 -0.2892  1.2678  0.7031
 1403TIP3    H2 4174   6.694   5.590   1.281 -0.5494  2.4924 -0.6217
 1404TIP3   OH2 4175   1.415   2.579   0.025 -0.1675 -0.2999  0.3287
 1404TIP3    H1 4176   1.407   2.573   0.120  0.4801  0.3236  0.4280
 1404TIP3    H2 4177   1.432   2.671   0.008 -0.4195 -0.3849 -0.4042
 1405TIP3   OH2 4178   5.435   1.875   4.414  0.1013 -0.0375 -0.6811
 1405TIP3    H1 4179   5.444   1.966   4.384 -0.9928  0.3597  0.1131
 1405TIP3    H2 4180   5.509   1.863   4.474  0.5239  0.1752 -1.1545
 1406TIP3   OH2 4181   4.205   2.648   1.224  0.0263  0.4872  0.4092
 1406TIP3    H1 4182   4.247   2.713   1.168 -0.9113 -0.5677 -1.6285
 1406TIP3    H2 4183   4.240   2.564   1.193  0.8801 -0.0680  2.6934
 1407TIP3   OH2 4184   0.624   5.383   3.886  0.2666  0.0491 -0.0776
 1407TIP3    H1 4185   0.625   5.304   3.833  0.6333  0.1665 -0.2490
 1407TIP3    H2 4186   0.672   5.448   3.834 -0.8049  0.6508 -0.3532
 1408TIP3   OH2 4187   0.818   2.590   3.908 -0.1981 -0.0507  0.4184
 1408TIP3    H1 4188   0.907   2.563   3.931  0.0778 -0.2538 -0.8380
 1408TIP3    H2 4189   0.826   2.637   3.826 -1.0096  1.7967  1.3211
 1409TIP3   OH2 4190   4.034   5.415   2.923  0.3922  0.1165 -0.2723
 1409TIP3    H1 4191   4.015   5.432   2.831 -3.0819 -0.4846  0.1920
 1409TIP3    H2 4192   4.014   5.497   2.968 -1.2073 -0.5281  0.2551
 1410TIP3   OH2 4193   4.281   1.834   4.367  0.1161 -0.1508  0.5412
 1410TIP3    H1 4194   4.358   1.875   4.407 -0.9265  1.0655  1.4002
 1410TIP3    H2 4195   4.210   1.898   4.381 -0.4107  0.2165 -3.0359
 1411TIP3   OH2 4196   0.297   4.003   4.335  0.1077  0.2216 -0.4022
 1411TIP3    H1 4197   0.361   3.967   4.397  0.6156  1.4307 -0.1892
 1411TIP3    H2 4198   0.219   3.949   4.347  0.2003  0.3906  1.2834
 1412TIP3   OH2 4199   4.078   5.723   2.963  0.7662  0.1934 -0.2087
 1412TIP3    H1 4200   4.158   5.678   2.935  0.4990 -1.0204  0.9147
 1412TIP3    H2 4201   4.106   5.775   3.039  0.8669  1.2462 -0.9372
 1413TIP3   OH2 4202   2.440   0.928   3.656 -0.4895  0.1866  0.0652
 1413TIP3    H1 4203   2.530   0.958   3.657 -0.4166 -0.0440  0.3832
 1413TIP3    H2 4204   2.408   0.940   3.745 -0.8734  0.5663 -0.1188
 1414TIP3   OH2 4205   6.130   4.895   1.796  0.0323  0.3718 -0.3822
 1414TIP3    H1 4206   6.070   4.895   1.871 -0.4788 -0.3719 -0.7864
 1414TIP3    H2 4207   6.090   4.836   1.733  2.5411 -2.4426  0.4499
 1415TIP3   OH2 4208   1.823   2.585   5.287  0.0360 -0.3950  0.2556
 1415TIP3    H1 4209   1.871   2.507   5.257  1.5635 -0.1882  2.0015
 1415TIP3    H2 4210   1.863   2.607   5.371 -1.7886  1.0454  0.8149
 1416TIP3   OH2 4211   0.452   4.174   2.944  0.8812 -0.1426 -0.0343
 1416TIP3    H1 4212   0.414   4.097   2.901  1.0699  0.5841 -1.5444
 1416TIP3    H2 4213   0.378   4.234   2.955  0.7441 -0.5039  1.0966
 1417TIP3   OH2 4214   3.323   3.306   1.753 -0.7146 -0.1204  0.3137
 1417TIP3    H1 4215   3.280   3.224   1.731  0.4466 -0.5712 -0.3511
 1417TIP3    H2 4216   3.414   3.283   1.767 -0.2381  1.1279 -0.4815
 1418TIP3   OH2 4217   4.504   5.126   5.051  0.0439 -0.3648  0.3583
 1418TIP3    H1 4218   4.469   5.043   5.018 -0.9413 -0.3833  1.3902
 1418TIP3    H2 4219   4.502   5.184   4.975  0.4074 -1.1776 -0.2873
 1419TIP3   OH2 4220   0.994   2.271   5.473 -0.8785  0.0431 -0.1359
 1419TIP3    H1 4221   1.003   2.265   5.378 -2.8713 -0.3487 -0.3560
 1419TIP3    H2 4222   0.997   2.365   5.492 -0.4379  0.1201 -0.5822
 1420TIP3   OH2 4223   5.242   6.511   3.214 -0.4831 -0.6015 -0.3437
 1420TIP3    H1 4224   5.188   6.498   3.291 -0.0882  0.5668  0.1582
 1420TIP3    H2 4225   5.184   6.491   3.140 -1.2098 -0.6075  0.2214
 1421TIP3   OH2 4226   1.054   0.360   1.320 -0.1334 -0.2005 -0.1876
 1421TIP3    H1 4227   1.094   0.402   1.244 -0.0177  0.7512  0.3875
 1421TIP3    H2 4228   1.014   0.431   1.369 -1.2945 -0.9568  0.0137
 1422TIP3   OH2 4229   6.531   4.658   3.512 -0.1097 -0.4526  0.2281
 1422TIP3    H1 4230   6.472   4.611   3.571  0.9128  0.7246  2.2894
 1422TIP3    H2 4231   6.612   4.670   3.562  0.2006  2.1325 -0.7221
 1423TIP3   OH2 4232   3.102   3.409   3.205  0.1166 -0.0594  0.1345
 1423TIP3    H1 4233   3.100   3.486   3.148 -2.4589  0.4747  0.8104
 1423TIP3    H2 4234   3.073   3.442   3.290  1.4437 -1.3336  1.1476
 1424TIP3   OH2 4235   7.120   3.808   1.037  0.5742  0.2808  0.3475
 1424TIP3    H1 4236   7.026   3.816   1.017  0.5504  1.8825  0.9572
 1424TIP3    H2 4237   7.123   3.743   1.107 -0.2614  1.2312  1.3120
 1425TIP3   OH2 4238   6.539   4.601   5.671 -0.1099 -0.7349 -0.3221
 1425TIP3    H1 4239   6.558   4.511   5.644 -0.6043 -1.5419  1.8047
 1425TIP3    H2 4240   6.570   4.607   5.761  2.3298  2.0900 -1.1832
 1426TIP3   OH2 4241   6.612   1.430   3.481 -0.3276  0.3038  0.2305
 1426TIP3    H1 4242   6.665   1.499   3.522 -1.6542  0.4868  1.7507
 1426TIP3    H2 4243   6.673   1.384   3.424  1.2565  1.0725  1.2213
 1427TIP3   OH2 4244   6.049   1.592   4.502 -0.0758  0.2579  0.0010
 1427TIP3    H1 4245   5.971   1.539   4.484  0.3146 -0.4317  0.3136
 1427TIP3    H2 4246   6.076   1.624   4.416 -0.6087  0.3753 -0.1295
 1428TIP3   OH2 4247   2.288   0.347   5.633  0.0755 -0.1797  0.6553
 1428TIP3    H1 4248   2.337   0.295   5.697 -0.2053 -1.3493 -0.0447
 1428TIP3    H2 4249   2.227   0.399   5.686  0.8848  0.0055  1.4194
 1429TIP3   OH2 4250   3.577   0.790   5.920  0.2103  0.1859 -0.1994
 1429TIP3    H1 4251   3.614   0.712   5.879 -1.0388 -1.3825  1.4806
 1429TIP3    H2 4252   3.523   0.830   5.851 -0.3849 -1.3504 -0.6717
 1430TIP3   OH2 4253   4.823   3.934   4.525 -0.4260  0.2649 -0.2244
 1430TIP3    H1 4254   4.913   3.965   4.529 -0.6907  0.9571  1.1779
 1430TIP3    H2 4255   4.777   3.984   4.593 -1.9008  0.0306 -0.9894
 1431TIP3   OH2 4256   2.326   0.920   5.837 -0.3950 -0.3455  0.1795
 1431TIP3    H1 4257   2.389   0.932   5.908 -1.0163 -0.5319  0.7759
 1431TIP3    H2 4258   2.371   0.864   5.774  0.0252 -0.4853  0.5999
 1432TIP3   OH2 4259   1.894   4.579   0.511  0.6269  0.0629  0.3306
 1432TIP3    H1 4260   1.930   4.648   0.457  0.5024  0.4170  0.6947
 1432TIP3    H2 4261   1.871   4.622   0.594 -1.9141  0.1798 -0.3519
 1433TIP3   OH2 4262   1.912   5.197   4.792  0.1130  0.3688 -0.1118
 1433TIP3    H1 4263   1.848   5.214   4.723  0.2811  1.5854  0.0171
 1433TIP3    H2 4264   1.860   5.158   4.863 -0.5612  1.6055  0.0996
 1434TIP3   OH2 4265   1.805   2.571   3.682  0.9110 -0.1906  0.1247
 1434TIP3    H1 4266   1.754   2.623   3.620 -0.0477 -1.5093 -0.2365
 1434TIP3    H2 4267   1.749   2.566   3.760  0.9236 -0.7650  0.1038
 1435TIP3   OH2 4268   1.177   3.480   2.362  0.1720  0.2934 -0.1436
 1435TIP3    H1 4269   1.138   3.498   2.448 -2.4381 -1.5645 -0.7934
 1435TIP3    H2 4270   1.201   3.387   2.366 -3.7474 -1.0796 -2.5283
 1436TIP3   OH2 4271   2.783   3.110   1.066  0.0167  0.4685 -0.0855
 1436TIP3    H1 4272   2.865   3.117   1.016  0.7393  0.5656  1.0679
 1436TIP3    H2 4273   2.715   3.132   1.004  0.3646 -3.9192 -2.4173
 1437TIP3   OH2 4274   5.101   0.665   3.348 -0.2218 -0.5980 -0.7263
 1437TIP3    H1 4275   5.144   0.581   3.366 -0.7059 -0.7654 -0.3158
 1437TIP3    H2 4276   5.075   0.697   3.435 -0.2113 -0.1159 -0.8981
 1438TIP3   OH2 4277   1.823   5.324   5.253  0.0698  0.7759  0.6988
 1438TIP3    H1 4278   1.743   5.280   5.281  0.1148  1.3472  1.8107
 1438TIP3    H2 4279   1.876   5.256   5.213 -1.9324  0.8000 -2.3638
 1439TIP3   OH2 4280   2.068   2.068   0.203  0.1963 -0.1439  0.1273
 1439TIP3    H1 4281   2.091   1.979   0.229  1.7843 -0.6781 -2.6962
 1439TIP3    H2 4282   2.153   2.111   0.185 -0.5214  1.9619  1.3691
 1440TIP3   OH2 4283   4.715   2.258   0.946  0.1799 -0.5063  0.2260
 1440TIP3    H1 4284   4.699   2.231   1.036  0.3250 -0.4024  0.2823
 1440TIP3    H2 4285   4.808   2.238   0.931 -0.3388 -2.5282 -0.5779
 1441TIP3   OH2 4286   1.292   4.091   5.737 -0.6582  0.2054 -0.1186
 1441TIP3    H1 4287   1.298   4.059   5.647 -3.2404  0.3147 -0.4083
 1441TIP3    H2 4288   1.260   4.016   5.787 -1.8572  0.8812  0.1618
 1442TIP3   OH2 4289   0.393   5.557  -0.019  0.9349 -0.4646 -0.0251
 1442TIP3    H1 4290   0.439   5.497   0.040  1.5195 -0.3560 -0.3562
 1442TIP3    H2 4291   0.358   5.625   0.038  0.0495 -1.2473  0.3842
 1443TIP3   OH2 4292   2.279   3.355   5.910  0.0288 -0.0456  0.3588
 1443TIP3    H1 4293   2.196   3.373   5.866  0.8042  0.5366 -0.9297
 1443TIP3    H2 4294   2.345   3.373   5.843  1.1271 -2.3202  0.7700
 1444TIP3   OH2 4295   6.653   4.533   2.273  0.3445 -0.2756  0.3876
 1444TIP3    H1 4296   6.595   4.530   2.349  1.0043 -0.5888  0.8869
 1444TIP3    H2 4297   6.633   4.616   2.231 -1.4238 -0.9481 -0.2214
 1445TIP3   OH2 4298   1.432   5.913   3.603  0.2349  0.0895 -0.8912
 1445TIP3    H1 4299   1.365   5.928   3.536 -1.2244 -1.8939  0.0214
 1445TIP3    H2 4300   1.403   5.964   3.678 -0.9374 -1.5859 -0.1330
 1446TIP3   OH2 4301   4.933   6.428   2.428 -0.0700  0.3406 -1.0467
 1446TIP3    H1 4302   4.922   6.345   2.475 -0.1332  1.0138  0.1949
 1446TIP3    H2 4303   4.937   6.404   2.336  2.5129 -1.3171 -0.6044
 1447TIP3   OH2 4304   3.841   4.974   3.950  0.7340  0.1403  0.3867
 1447TIP3    H1 4305   3.809   5.050   3.901 -0.2349  1.1224  2.4101
 1447TIP3    H2 4306   3.928   4.999   3.980  1.5820 -0.7020 -1.2676
 1448TIP3   OH2 4307   2.221   3.760   0.160  0.2401  0.5991  0.0181
 1448TIP3    H1 4308   2.195   3.694   0.224  1.4175 -0.2999 -0.3984
 1448TIP3    H2 4309   2.156   3.752   0.090 -0.3969  0.8137  0.5745
 1449TIP3   OH2 4310   3.288   3.191   3.922  0.1395  0.2601 -0.0093
 1449TIP3    H1 4311   3.324   3.104   3.906  1.2728  0.8435 -0.7727
 1449TIP3    H2 4312   3.307   3.209   4.014 -0.1172 -0.2940  0.1579
 1450TIP3   OH2 4313   5.006   0.830   0.479  0.2576  0.1187 -0.6688
 1450TIP3    H1 4314   4.935   0.838   0.543 -1.4933 -0.2176 -2.4648
 1450TIP3    H2 4315   4.974   0.766   0.416  2.7794 -1.0855 -0.8347
 1451TIP3   OH2 4316   1.390   4.351   5.358  0.2832  0.4246  0.4410
 1451TIP3    H1 4317   1.446   4.397   5.295  0.9694  0.3311  0.9684
 1451TIP3    H2 4318   1.402   4.399   5.440 -2.3192  1.9222  0.0517
 1452TIP3   OH2 4319   6.885   5.879   4.523 -0.0595 -0.3992 -0.0172
 1452TIP3    H1 4320   6.881   5.967   4.561 -0.2110  0.0744 -1.0664
 1452TIP3    H2 4321   6.855   5.821   4.593 -0.8261  0.4829  0.4195
 1453TIP3   OH2 4322   3.141   0.031   2.709  0.2522  0.1524  0.1109
 1453TIP3    H1 4323   3.206  -0.008   2.650  0.1715  1.6118 -1.0066
 1453TIP3    H2 4324   3.064   0.044   2.653  0.7679  3.2449 -0.0295
 1454TIP3   OH2 4325   4.099   2.494   0.876 -0.4213  0.0509  0.6901
 1454TIP3    H1 4326   4.113   2.588   0.886  1.8335 -0.0808 -0.6077
 1454TIP3    H2 4327   4.174   2.453   0.919 -0.5110 -1.0770 -0.1794
 1455TIP3   OH2 4328   2.112   3.302   0.553 -0.5105 -0.0899 -0.1524
 1455TIP3    H1 4329   2.021   3.330   0.553 -0.4430  0.1459  0.2562
 1455TIP3    H2 4330   2.125   3.259   0.469 -0.5127  1.4529 -0.9864
 1456TIP3   OH2 4331   2.700   5.486   5.429  0.0162 -0.1964 -0.8753
 1456TIP3    H1 4332   2.620   5.469   5.479  0.5333  0.3298  0.1668
 1456TIP3    H2 4333   2.669   5.517   5.344 -0.9946  3.3741  0.5781
 1457TIP3   OH2 4334   3.563   3.519   4.892  0.3053 -0.0546 -0.6278
 1457TIP3    H1 4335   3.554   3.433   4.852 -2.0446  0.7256 -1.9624
 1457TIP3    H2 4336   3.558   3.503   4.986 -0.4371 -1.3359 -0.8664
 1458TIP3   OH2 4337   5.728   6.455   2.443 -0.6666 -0.3029  0.6982
 1458TIP3    H1 4338   5.765   6.374   2.407  0.8361  0.2478  0.9065
 1458TIP3    H2 4339   5.655   6.426   2.497 -1.1413 -1.3795 -0.4588
 1459TIP3   OH2 4340   4.252   6.093   0.932  0.6500 -0.2547 -0.1186
 1459TIP3    H1 4341   4.342   6.123   0.942  0.4162  0.0939  1.2053
 1459TIP3    H2 4342   4.198   6.166   0.964  0.0121 -1.3260  1.3990
 1460TIP3   OH2 4343   6.678   1.800   1.282  0.2831 -0.3991 -0.3167
 1460TIP3    H1 4344   6.749   1.799   1.346 -0.3583 -1.6277  0.4164
 1460TIP3    H2 4345   6.599   1.785   1.334 -0.4522  0.3736 -1.1862
 1461TIP3   OH2 4346   4.128   4.347   1.496 -0.0056  0.2479 -0.2062
 1461TIP3    H1 4347   4.105   4.366   1.587 -0.5555  0.5176 -0.4013
 1461TIP3    H2 4348   4.128   4.252   1.491 -1.5572  0.2352 -0.3169
 1462TIP3   OH2 4349   6.796   3.657   5.409 -0.0802  0.7152 -0.1332
 1462TIP3    H1 4350   6.845   3.627   5.333 -1.7821 -1.8405 -0.3556
 1462TIP3    H2 4351   6.752   3.737   5.381 -0.5812 -0.1218 -1.8126
 1463TIP3   OH2 4352   0.988   3.417   3.997 -0.0772  0.0900  0.6688
 1463TIP3    H1 4353   1.031   3.334   4.017 -2.1019 -1.4444 -0.9252
 1463TIP3    H2 4354   0.911   3.418   4.055 -1.2037 -0.2106 -0.7677
 1464TIP3   OH2 4355   6.995   4.941   0.782  0.0675  0.4772  0.3828
 1464TIP3    H1 4356   7.085   4.908   0.779  0.0712  0.5476 -1.4466
 1464TIP3    H2 4357   6.969   4.933   0.874  1.3795 -1.0693  0.6596
 1465TIP3   OH2 4358   6.207   2.791   3.083 -0.3706 -0.1219  0.4822
 1465TIP3    H1 4359   6.286   2.784   3.136  0.1619 -0.9521 -0.4027
 1465TIP3    H2 4360   6.135   2.778   3.146  0.2694 -2.1868  0.8673
 1466TIP3   OH2 4361   0.468   5.021   0.377 -0.1841 -0.6806  0.1150
 1466TIP3    H1 4362   0.488   5.016   0.283 -1.2565  0.2344 -0.1748
 1466TIP3    H2 4363   0.532   5.082   0.412 -0.6502  0.0490 -0.2877
 1467TIP3   OH2 4364   1.265   1.396   2.527 -0.7434 -0.0117 -0.0173
 1467TIP3    H1 4365   1.254   1.313   2.480  1.3429  0.3764 -1.2995
 1467TIP3    H2 4366   1.358   1.401   2.546 -0.6864  2.3660 -0.6372
 1468TIP3   OH2 4367   3.853   6.299   1.048  0.5736  0.2622  0.0851
 1468TIP3    H1 4368   3.830   6.207   1.058 -0.1554  0.5540  1.3331
 1468TIP3    H2 4369   3.858   6.332   1.138  0.0116  1.6214 -0.3594
 1469TIP3   OH2 4370   0.818   1.057   0.825 -0.1593  0.2776 -0.5081
 1469TIP3    H1 4371   0.727   1.071   0.852  0.3592  1.5901  0.6666
 1469TIP3    H2 4372   0.868   1.122   0.874  1.8941 -2.6490  1.7213
 1470TIP3   OH2 4373   0.353   1.662   1.480 -0.2124 -0.1179  0.5377
 1470TIP3    H1 4374   0.286   1.691   1.418  1.6267  0.5994 -1.2286
 1470TIP3    H2 4375   0.431   1.713   1.457  0.7349 -0.2648  3.0905
 1471TIP3   OH2 4376   6.464   2.072   1.004 -0.4995  0.3210  0.4432
 1471TIP3    H1 4377   6.432   2.062   0.915 -2.1758 -0.0106  1.0611
 1471TIP3    H2 4378   6.447   1.988   1.046  2.0749 -0.2339  0.5936
 1472TIP3   OH2 4379   0.525   4.721   3.430  0.4628 -0.7309 -0.2746
 1472TIP3    H1 4380   0.618   4.741   3.440  0.8119 -1.8460 -0.9882
 1472TIP3    H2 4381   0.483   4.763   3.504  1.2689  1.3616 -0.9264
 1473TIP3   OH2 4382   1.175   6.743   1.486  0.0773  0.1932 -0.4362
 1473TIP3    H1 4383   1.203   6.668   1.538 -0.6581  0.8647  0.9641
 1473TIP3    H2 4384   1.252   6.765   1.434  0.5064 -1.1253 -0.4007
 1474TIP3   OH2 4385   6.871   3.148   1.330 -0.8391  0.0350  0.4976
 1474TIP3    H1 4386   6.903   3.173   1.417  1.4358  1.5993 -0.6907
 1474TIP3    H2 4387   6.808   3.217   1.308 -0.7709  0.1165  0.5560
 1475TIP3   OH2 4388   2.242   3.927   5.238 -0.7115 -0.7231  0.2998
 1475TIP3    H1 4389   2.149   3.944   5.250 -0.8591  0.0962 -1.5862
 1475TIP3    H2 4390   2.246   3.853   5.178 -0.1291 -0.8501  0.4840
 1476TIP3   OH2 4391   2.600   5.338   4.468  0.2281 -0.1575  0.4728
 1476TIP3    H1 4392   2.655   5.386   4.529  0.5729 -0.2930  0.2770
 1476TIP3    H2 4393   2.524   5.310   4.519 -0.3752  1.2663  0.3946
 1477TIP3   OH2 4394   0.199   5.038   1.026  0.2979  0.1978 -0.2252
 1477TIP3    H1 4395   0.275   4.980   1.017 -0.9254 -1.5268 -0.0055
 1477TIP3    H2 4396   0.201   5.093   0.947  1.9703  0.4686 -0.0287
 1478TIP3   OH2 4397   4.264   6.513   4.926 -0.5109 -0.1614 -0.2403
 1478TIP3    H1 4398   4.359   6.523   4.918 -0.7978  1.6684 -2.5361
 1478TIP3    H2 4399   4.245   6.526   5.019  1.4016  0.1691  0.1274
 1479TIP3   OH2 4400   6.674   5.587   3.661 -0.2683  0.0526 -0.3940
 1479TIP3    H1 4401   6.712   5.574   3.574 -1.5795 -2.3241 -0.7120
 1479TIP3    H2 4402   6.605   5.651   3.648 -1.1339 -1.0267 -1.3847
 1480TIP3   OH2 4403   5.660   5.888   4.532 -0.0986  0.3161  0.0990
 1480TIP3    H1 4404   5.731   5.830   4.505  0.4607  1.8238 -1.9168
 1480TIP3    H2 4405   5.621   5.918   4.450 -0.1584  2.9779  0.9984
 1481TIP3   OH2 4406   1.774   1.169   3.969  0.6025 -0.3107 -0.2287
 1481TIP3    H1 4407   1.726   1.220   3.904  0.3522 -0.1073  0.1075
 1481TIP3    H2 4408   1.859   1.151   3.929  0.3930 -0.3216 -0.6695
 1482TIP3   OH2 4409   5.792   5.748   1.337 -0.0128  0.7117  0.7111
 1482TIP3    H1 4410   5.878   5.742   1.295  0.7745 -0.7863  2.4033
 1482TIP3    H2 4411   5.753   5.827   1.299  0.5268 -0.5678 -2.8730
 1483TIP3   OH2 4412   2.095   0.253   1.694  0.2240  0.3399 -0.2738
 1483TIP3    H1 4413   2.102   0.268   1.788 -0.9935 -1.4468  0.1538
 1483TIP3    H2 4414   2.014   0.298   1.669  0.5578  0.8323 -0.4906
 1484TIP3   OH2 4415   3.312   2.352   4.050 -0.2669  0.8080  0.0889
 1484TIP3    H1 4416   3.295   2.264   4.084  1.3542  0.5170  0.2265
 1484TIP3    H2 4417   3.341   2.402   4.127  0.5581  0.9520 -0.3044
 1485TIP3   OH2 4418   0.157   1.482   2.495  0.2552 -0.1954 -0.2416
 1485TIP3    H1 4419   0.222   1.518   2.434  1.7442 -1.6409  0.4238
 1485TIP3    H2 4420   0.165   1.537   2.573  1.7613 -1.2050  0.3711
 1486TIP3   OH2 4421   0.390   6.391   3.489  0.4183 -0.0696  0.0192
 1486TIP3    H1 4422   0.400   6.458   3.557  0.6676  0.3379 -0.4064
 1486TIP3    H2 4423   0.297   6.390   3.469  0.4512  0.3583 -0.1687
 1487TIP3   OH2 4424   2.090   5.886   5.124 -0.0958 -0.3658  0.1389
 1487TIP3    H1 4425   1.995   5.892   5.134 -0.1141  0.0171 -0.2122
 1487TIP3    H2 4426   2.105   5.905   5.031  0.3709  0.1397  0.3158
 1488TIP3   OH2 4427   4.453   4.500   2.638  0.1107  0.0695 -0.4288
 1488TIP3    H1 4428   4.546   4.481   2.648  0.5088  2.1609  0.3213
 1488TIP3    H2 4429   4.411   4.445   2.705  0.9602  0.2139  0.2487
 1489TIP3   OH2 4430   0.435   3.623   2.935 -0.1314  0.1287 -0.4006
 1489TIP3    H1 4431   0.342   3.629   2.913 -0.3910 -0.9703  0.3113
 1489TIP3    H2 4432   0.449   3.692   2.999 -0.8195 -0.6532  0.6228
 1490TIP3   OH2 4433   3.429   6.191   3.198 -0.4127  0.1484  0.0078
 1490TIP3    H1 4434   3.395   6.128   3.134 -0.5196 -0.0803  0.2849
 1490TIP3    H2 4435   3.436   6.141   3.279  1.3566 -0.0336 -0.2158
 1491TIP3   OH2 4436   4.578   5.017   2.025 -0.9482 -0.6116  0.3369
 1491TIP3    H1 4437   4.562   5.077   2.098  0.7004  1.7339 -1.0820
 1491TIP3    H2 4438   4.496   5.017   1.976 -0.6957  1.3495 -0.1695
 1492TIP3   OH2 4439   3.533   0.351   1.990  0.4156  0.7641 -0.6491
 1492TIP3    H1 4440   3.477   0.290   1.941 -0.0311  2.1053 -1.8633
 1492TIP3    H2 4441   3.587   0.393   1.923  2.5455 -0.0805  0.4200
 1493TIP3   OH2 4442   6.889   2.853   0.940 -0.6969 -0.2263 -0.3914
 1493TIP3    H1 4443   6.793   2.847   0.940 -0.7227 -0.2652 -1.8264
 1493TIP3    H2 4444   6.912   2.878   1.029 -1.8291 -3.1393  0.8352
 1494TIP3   OH2 4445   0.473   1.349   3.775  0.3422 -0.2807  0.2334
 1494TIP3    H1 4446   0.558   1.377   3.809  0.8796 -1.6579  0.0857
 1494TIP3    H2 4447   0.428   1.431   3.754  1.4160  0.4925  0.8099
 1495TIP3   OH2 4448   3.332   3.527   4.236 -0.2670  0.0194 -0.0138
 1495TIP3    H1 4449   3.345   3.573   4.154  1.1943  0.0480  0.2023
 1495TIP3    H2 4450   3.241   3.543   4.259 -0.6486  0.1307 -1.5422
 1496TIP3   OH2 4451   3.393   0.246   4.689  0.5842 -0.2543 -0.5454
 1496TIP3    H1 4452   3.321   0.196   4.727 -1.6505  1.3816 -2.3495
 1496TIP3    H2 4453   3.460   0.181   4.670 -1.2499 -2.2251 -0.6941
 1497TIP3   OH2 4454   3.738   3.494   1.907  0.3134  0.0586 -0.2298
 1497TIP3    H1 4455   3.746   3.558   1.836  0.2755  1.0240  0.6082
 1497TIP3    H2 4456   3.826   3.457   1.917  0.8218  1.4156  0.5638
 1498TIP3   OH2 4457   1.712   2.227   4.873  0.0152  0.0415  0.7186
 1498TIP3    H1 4458   1.710   2.320   4.850  0.1222 -0.0915  0.1656
 1498TIP3    H2 4459   1.711   2.227   4.969  0.4074  0.6243  0.7338
 1499TIP3   OH2 4460   6.006   4.672   0.011  0.5227  0.6673 -0.2431
 1499TIP3    H1 4461   6.012   4.623   0.092 -0.5716 -0.5314 -0.8535
 1499TIP3    H2 4462   6.095   4.703  -0.005  0.9385  0.1110  0.9036
 1500TIP3   OH2 4463   5.206   3.765   0.042 -0.0679 -0.0631 -0.0658
 1500TIP3    H1 4464   5.188   3.830   0.111  0.0458 -0.5285  0.4093
 1500TIP3    H2 4465   5.292   3.730   0.064 -0.6274 -1.2325  0.3878
 1501TIP3   OH2 4466   5.158   2.528   5.224 -0.0462 -0.1681  0.0125
 1501TIP3    H1 4467   5.209   2.550   5.146 -1.4611  1.8841 -0.3886
 1501TIP3    H2 4468   5.093   2.465   5.192  0.1870 -0.3197 -0.1727
 1502TIP3   OH2 4469   4.274   5.927   3.646  0.2304 -0.4447  0.4048
 1502TIP3    H1 4470   4.338   5.935   3.717 -0.8556 -1.0009  1.4806
 1502TIP3    H2 4471   4.304   5.851   3.596  1.3109  0.2733 -0.0868
 1503TIP3   OH2 4472   6.246   5.214   5.617 -0.3743  0.4368  0.1905
 1503TIP3    H1 4473   6.217   5.304   5.632  0.4082  0.7462 -0.0947
 1503TIP3    H2 4474   6.166   5.162   5.625 -0.4096  0.7526  3.5750
 1504TIP3   OH2 4475   1.084   1.596   0.260  0.2220 -0.0690  0.0647
 1504TIP3    H1 4476   1.054   1.663   0.199 -2.7425  0.3451  1.7890
 1504TIP3    H2 4477   1.040   1.516   0.232 -0.1359 -0.1612  0.8519
 1505TIP3   OH2 4478   3.831   2.219   2.957 -0.5772  0.0061  0.2196
 1505TIP3    H1 4479   3.895   2.246   2.892 -1.2633 -0.4988 -0.6758
 1505TIP3    H2 4480   3.814   2.299   3.008  1.1605  0.0221  0.8570
 1506TIP3   OH2 4481   2.297   4.241   2.701 -0.5362  0.1292 -0.0581
 1506TIP3    H1 4482   2.227   4.302   2.676  0.6490  1.4740 -0.2562
 1506TIP3    H2 4483   2.289   4.169   2.639 -1.2254  0.6741 -0.6230
 1507TIP3   OH2 4484   7.191   4.458   1.906 -0.4208 -0.0529  0.0062
 1507TIP3    H1 4485   7.251   4.528   1.878 -0.5856 -0.3302 -1.0814
 1507TIP3    H2 4486   7.160   4.487   1.992  0.5871  0.5272  0.1934
 1508TIP3   OH2 4487   4.428   4.548   3.579 -0.2298 -0.0051 -0.8839
 1508TIP3    H1 4488   4.463   4.552   3.489 -1.3034  0.3311 -1.2978
 1508TIP3    H2 4489   4.335   4.567   3.569 -1.0160 -2.9352 -0.0594
 1509TIP3   OH2 4490   2.017   4.510   1.500  0.2389 -0.7469  0.0148
 1509TIP3    H1 4491   2.044   4.541   1.586 -0.4788 -1.4889  0.5195
 1509TIP3    H2 4492   2.094   4.466   1.465 -0.0469 -2.2019  1.1255
 1510TIP3   OH2 4493   3.789   5.795   3.588 -0.1752 -1.1276 -0.0267
 1510TIP3    H1 4494   3.879   5.827   3.589 -1.0316  1.4546  0.6651
 1510TIP3    H2 4495   3.774   5.769   3.497  0.7579  0.0392 -0.5433
 1511TIP3   OH2 4496   3.886   1.182   3.148 -0.0278 -0.0454  0.2178
 1511TIP3    H1 4497   3.945   1.124   3.099  1.0213 -0.0479  1.4283
 1511TIP3    H2 4498   3.862   1.132   3.226 -2.0914 -0.2377 -0.4884
 1512TIP3   OH2 4499   0.823   5.944   1.319 -0.3495  0.3818  0.3715
 1512TIP3    H1 4500   0.766   5.880   1.278 -0.4005  0.6592 -0.0009
 1512TIP3    H2 4501   0.911   5.918   1.293 -0.3274  0.0985  0.7389
 1513TIP3   OH2 4502   4.266   6.562   0.894 -1.2091 -0.0569  0.2955
 1513TIP3    H1 4503   4.300   6.597   0.812 -1.3188  0.2531  0.3817
 1513TIP3    H2 4504   4.226   6.478   0.870  0.5459 -0.9681  0.3543
 1514TIP3   OH2 4505   2.597   3.837   1.403  0.2826  0.1735  0.0255
 1514TIP3    H1 4506   2.657   3.780   1.452  1.5039  1.6088  0.2842
 1514TIP3    H2 4507   2.527   3.856   1.464 -0.4842 -1.5118 -0.2681
 1515TIP3   OH2 4508   3.262   0.214   1.936 -0.5378 -0.0592 -0.2884
 1515TIP3    H1 4509   3.168   0.207   1.952 -0.4235 -0.6845  0.2013
 1515TIP3    H2 4510   3.301   0.203   2.023 -0.0461  1.2546 -0.3227
 1516TIP3   OH2 4511   3.017   1.803   1.255  0.0415 -0.3730  0.1224
 1516TIP3    H1 4512   3.103   1.776   1.224 -0.8520 -1.0897 -1.8782
 1516TIP3    H2 4513   3.000   1.748   1.331  1.2078 -0.4446  0.3457
 1517TIP3   OH2 4514   3.036   5.068   4.331  0.2513 -0.8026 -0.3794
 1517TIP3    H1 4515   3.058   4.989   4.282  0.9234 -0.6419 -0.3482
 1517TIP3    H2 4516   3.065   5.140   4.275 -0.7531 -0.5566 -0.6003
 1518TIP3   OH2 4517   3.984   3.947   3.100  0.0692  0.0491 -0.3553
 1518TIP3    H1 4518   3.999   3.979   3.011 -1.0664 -0.9673 -0.9416
 1518TIP3    H2 4519   4.008   4.020   3.157  0.8273  0.7094 -1.4844
 1519TIP3   OH2 4520   2.711   3.383   0.693  0.5373 -0.1494  0.3399
 1519TIP3    H1 4521   2.677   3.295   0.673  1.6007 -0.1988 -1.4113
 1519TIP3    H2 4522   2.646   3.442   0.655  0.7069 -0.1982 -0.0254
 1520TIP3   OH2 4523   0.469   0.265   3.837  0.1362  0.0283  0.0355
 1520TIP3    H1 4524   0.464   0.349   3.791  0.2700 -1.0235 -1.9693
 1520TIP3    H2 4525   0.378   0.245   3.858 -0.0715 -0.0728 -0.9145
 1521TIP3   OH2 4526   1.027   0.668   4.186  0.3355 -0.1964 -0.2375
 1521TIP3    H1 4527   1.027   0.738   4.251 -1.1840  1.3883 -1.8636
 1521TIP3    H2 4528   0.937   0.636   4.184  0.3807 -0.2947 -1.4634
 1522TIP3   OH2 4529   2.660   0.979   0.709 -0.3046  0.0982  0.6860
 1522TIP3    H1 4530   2.685   1.071   0.697 -1.5560  0.7438  2.6190
 1522TIP3    H2 4531   2.743   0.932   0.711  0.3448  1.1095 -0.7029
 1523TIP3   OH2 4532   3.810   6.024   0.514 -0.2769  0.4464 -0.1742
 1523TIP3    H1 4533   3.879   5.959   0.527 -1.5494 -0.6973  1.2499
 1523TIP3    H2 4534   3.834   6.097   0.571  0.5251  0.7196 -0.8490
 1524TIP3   OH2 4535   0.339   4.226   1.126 -0.2377 -0.1456  0.5395
 1524TIP3    H1 4536   0.279   4.177   1.070  1.5364 -2.1798  0.2639
 1524TIP3    H2 4537   0.402   4.160   1.157  1.4941  1.7378  1.2588
 1525TIP3   OH2 4538   4.558   0.651   2.966 -0.1724  0.1241  0.0044
 1525TIP3    H1 4539   4.629   0.596   2.933  1.4324  1.7699  0.5304
 1525TIP3    H2 4540   4.548   0.720   2.900 -2.7169 -1.1460 -1.0639
 1526TIP3   OH2 4541   4.308   3.387   2.155  0.1501 -0.4414  0.5046
 1526TIP3    H1 4542   4.346   3.303   2.180  1.9114  0.1667  0.0693
 1526TIP3    H2 4543   4.334   3.447   2.225 -0.1784 -0.0351  0.2836
 1527TIP3   OH2 4544   6.934   2.211   0.424  0.3955  0.6431  0.2995
 1527TIP3    H1 4545   6.936   2.150   0.498 -1.8766 -1.5882 -1.3396
 1527TIP3    H2 4546   7.020   2.203   0.384  0.3540 -1.0845  0.4739
 1528TIP3   OH2 4547   5.614   6.788   5.757 -0.4840 -0.4074 -0.3761
 1528TIP3    H1 4548   5.620   6.734   5.836 -3.2047 -1.0939 -0.5229
 1528TIP3    H2 4549   5.585   6.874   5.789 -5.6931 -1.7090 -0.6370
 1529TIP3   OH2 4550   2.553   1.356   5.427 -0.1071 -0.4258  0.7655
 1529TIP3    H1 4551   2.573   1.428   5.487 -0.2479  1.0213 -0.8371
 1529TIP3    H2 4552   2.637   1.314   5.411  1.1091  2.6766 -2.2488
 1530TIP3   OH2 4553   6.525   1.970   5.094 -0.7229 -0.0465 -0.1156
 1530TIP3    H1 4554   6.492   1.887   5.127  0.1469 -0.4032 -0.1176
 1530TIP3    H2 4555   6.611   1.980   5.135 -1.4322  1.5888  1.0691
 1531TIP3   OH2 4556   7.106   5.512   3.795  0.1235 -0.1768 -0.0964
 1531TIP3    H1 4557   7.043   5.443   3.819 -0.6761  0.6130  0.1052
 1531TIP3    H2 4558   7.185   5.464   3.771 -0.8057 -1.2449 -1.1595
 1532TIP3   OH2 4559   0.255   0.114   1.209  0.2827 -0.1742 -0.2679
 1532TIP3    H1 4560   0.279   0.040   1.266  0.3491  0.2893  0.3068
 1532TIP3    H2 4561   0.165   0.135   1.233 -0.3492 -1.1699 -1.6335
 1533TIP3   OH2 4562   5.816   6.702   3.511 -0.2499 -0.0376  0.2000
 1533TIP3    H1 4563   5.815   6.783   3.562  0.9342  0.3481 -0.3648
 1533TIP3    H2 4564   5.846   6.635   3.572  3.9948  0.9074 -0.5495
 1534TIP3   OH2 4565   4.716   4.755   1.358  0.3514  0.2537  0.7198
 1534TIP3    H1 4566   4.779   4.687   1.336 -0.1487 -0.5838  1.7645
 1534TIP3    H2 4567   4.631   4.714   1.346  0.0398  0.7343  1.2332
 1535TIP3   OH2 4568   3.891   2.154   2.368 -0.7791  0.1312  0.4342
 1535TIP3    H1 4569   3.799   2.166   2.344 -0.8009 -0.8257  0.0004
 1535TIP3    H2 4570   3.938   2.221   2.319 -1.1199 -0.1339 -0.2611
 1536TIP3   OH2 4571   2.852   2.876   4.825  0.0057  0.3986  0.3197
 1536TIP3    H1 4572   2.762   2.842   4.826 -0.1354  0.6797 -0.9899
 1536TIP3    H2 4573   2.863   2.917   4.911 -1.0327  0.1485  0.5902
 1537TIP3   OH2 4574  -0.012   4.522   0.766  0.1419 -0.0765 -0.2052
 1537TIP3    H1 4575   0.078   4.550   0.780 -0.1180  0.5603  0.2278
 1537TIP3    H2 4576  -0.049   4.588   0.707  0.9725 -2.2512 -3.4136
 1538TIP3   OH2 4577   1.062   0.670   3.902 -0.1428  0.1755 -0.1728
 1538TIP3    H1 4578   1.142   0.628   3.871  0.1054 -0.5995  1.4256
 1538TIP3    H2 4579   1.053   0.641   3.993 -0.0948  3.3327  0.9875
 1539TIP3   OH2 4580   5.230   3.067   3.418 -0.2321 -0.8384 -0.0452
 1539TIP3    H1 4581   5.144   3.076   3.376  0.4206 -0.6337 -1.3607
 1539TIP3    H2 4582   5.292   3.062   3.346  0.8322 -1.4834  0.8896
 1540TIP3   OH2 4583   3.088   6.544   1.177 -0.4912  0.2550 -0.0093
 1540TIP3    H1 4584   3.170   6.524   1.132 -0.2609 -0.0751  0.5416
 1540TIP3    H2 4585   3.027   6.569   1.108 -0.2522 -0.6010 -0.5455
 1541TIP3   OH2 4586   0.159   1.642   1.682  0.5311  0.3329 -0.5203
 1541TIP3    H1 4587   0.176   1.735   1.690 -0.9378  0.5978 -0.1895
 1541TIP3    H2 4588   0.162   1.624   1.588  0.3676  0.8127 -0.6176
 1542TIP3   OH2 4589   0.158   0.264   0.348  0.0113  0.9549  0.3530
 1542TIP3    H1 4590   0.230   0.255   0.411  0.5653  0.8318 -0.2842
 1542TIP3    H2 4591   0.191   0.327   0.284 -0.9022  1.7727  0.6682
 1543TIP3   OH2 4592   6.691   4.325   3.406  0.2869  0.4741  0.2305
 1543TIP3    H1 4593   6.654   4.290   3.325  0.4850 -0.4125  0.5128
 1543TIP3    H2 4594   6.740   4.403   3.378  2.9268 -1.4746 -1.0030
 1544TIP3   OH2 4595   0.365   6.542   5.744 -0.2195 -0.6047 -0.0215
 1544TIP3    H1 4596   0.283   6.591   5.734  0.8081  1.2324  0.0238
 1544TIP3    H2 4597   0.382   6.545   5.838 -0.1790 -1.1361 -0.0098
 1545TIP3   OH2 4598   4.716   0.553   1.159  0.2230 -0.1359 -0.1956
 1545TIP3    H1 4599   4.754   0.469   1.186 -0.6612 -0.9126 -1.3048
 1545TIP3    H2 4600   4.644   0.568   1.221  1.3238  0.5973  0.9658
 1546TIP3   OH2 4601   4.857   5.957   5.178  0.7545  0.0248  0.1118
 1546TIP3    H1 4602   4.821   5.938   5.091  1.1047  0.3986 -0.1143
 1546TIP3    H2 4603   4.944   5.919   5.177  1.0973  0.8016 -0.0092
 1547TIP3   OH2 4604   0.450   1.179   0.184  0.3229  0.3958 -0.4613
 1547TIP3    H1 4605   0.417   1.125   0.256 -3.5005  0.5627 -1.8878
 1547TIP3    H2 4606   0.436   1.269   0.213  1.6945  0.5670 -0.2478
 1548TIP3   OH2 4607   3.399   6.132   1.406  0.1139  0.2166  0.2355
 1548TIP3    H1 4608   3.401   6.050   1.357 -0.6111  0.2091  0.2085
 1548TIP3    H2 4609   3.394   6.105   1.498  2.2383  0.2243  0.3914
 1549TIP3   OH2 4610   5.425   1.152   4.049 -0.6367  0.4612  0.6394
 1549TIP3    H1 4611   5.383   1.237   4.035 -0.9595 -0.0552 -2.1056
 1549TIP3    H2 4612   5.365   1.088   4.010  0.4318 -0.8576  1.0389
 1550TIP3   OH2 4613   2.607   5.687   4.497  0.2286  0.0398 -0.5673
 1550TIP3    H1 4614   2.632   5.774   4.465  0.2036  0.6049  0.8648
 1550TIP3    H2 4615   2.519   5.673   4.463 -0.3464  1.2227  0.3567
 1551TIP3   OH2 4616   6.266   3.128   4.905  0.5236 -0.6278  0.3213
 1551TIP3    H1 4617   6.185   3.159   4.946 -0.0572 -0.4072 -0.9477
 1551TIP3    H2 4618   6.330   3.129   4.976 -0.6574 -1.1606  1.4511
 1552TIP3   OH2 4619   1.811   3.314   5.279  0.2721 -0.5588  0.4268
 1552TIP3    H1 4620   1.793   3.243   5.340 -1.3522  0.8346  1.6931
 1552TIP3    H2 4621   1.811   3.393   5.334  1.1381  0.5194 -1.0409
 1553TIP3   OH2 4622   0.848   3.977   4.686 -0.0312  0.1359  0.5528
 1553TIP3    H1 4623   0.903   4.030   4.743 -0.9766  1.4195  0.3029
 1553TIP3    H2 4624   0.800   4.040   4.632 -0.6067 -0.9903 -0.3063
 1554TIP3   OH2 4625   2.643   4.114   1.505  0.2467  0.1568 -0.2752
 1554TIP3    H1 4626   2.721   4.139   1.555  0.4254 -1.0590  0.0816
 1554TIP3    H2 4627   2.591   4.063   1.566 -0.8200  0.9066 -0.5377
 1555TIP3   OH2 4628   2.373   4.526   2.928 -0.1673  0.3718 -0.6533
 1555TIP3    H1 4629   2.385   4.440   2.969  0.8177 -0.5288 -2.6746
 1555TIP3    H2 4630   2.451   4.537   2.873 -1.3658  1.4931 -2.2367
 1556TIP3   OH2 4631   6.675   0.235   0.414 -0.0481 -0.1377 -0.2228
 1556TIP3    H1 4632   6.684   0.198   0.326 -0.2895  1.0006 -0.7421
 1556TIP3    H2 4633   6.762   0.229   0.452  0.3531  0.4882 -1.0147
 1557TIP3   OH2 4634   4.583   5.423   0.635 -0.4912  0.3041 -0.1154
 1557TIP3    H1 4635   4.602   5.333   0.661 -2.8727 -0.2781 -0.1701
 1557TIP3    H2 4636   4.537   5.414   0.551 -0.1533  1.6396 -0.4711
 1558TIP3   OH2 4637   2.794   2.224   2.722  0.4645  0.7598 -0.3388
 1558TIP3    H1 4638   2.822   2.132   2.725  0.1565  0.6887  0.4420
 1558TIP3    H2 4639   2.875   2.273   2.714  0.6297  0.4178 -0.8193
 1559TIP3   OH2 4640   5.248   0.162   3.499  0.2191  0.2145 -0.7547
 1559TIP3    H1 4641   5.258   0.084   3.555  0.9427  0.9660  0.1955
 1559TIP3    H2 4642   5.314   0.151   3.430 -1.2558 -1.1446 -2.0279
 1560TIP3   OH2 4643   0.221   1.946   2.584 -0.1661 -0.2737 -0.0540
 1560TIP3    H1 4644   0.310   1.914   2.574  0.3276  1.3607 -1.3439
 1560TIP3    H2 4645   0.193   1.913   2.670  2.4433  0.8885  1.3636
 1561TIP3   OH2 4646   4.910   1.842   0.513 -0.1442  0.3433 -0.7737
 1561TIP3    H1 4647   4.986   1.884   0.473  0.1898  0.4543 -0.0292
 1561TIP3    H2 4648   4.894   1.891   0.593  0.5100 -1.1877  0.3375
 1562TIP3   OH2 4649   0.003   1.391   3.359  0.0782  0.0897 -0.9752
 1562TIP3    H1 4650  -0.035   1.377   3.272  1.5545  0.4970 -1.7122
 1562TIP3    H2 4651   0.051   1.473   3.351  0.0114  0.2745  0.3211
 1563TIP3   OH2 4652   2.956   5.696   0.637 -0.2979 -0.4107  0.6691
 1563TIP3    H1 4653   2.990   5.783   0.615  3.0212 -1.5696  0.7030
 1563TIP3    H2 4654   2.975   5.686   0.731  0.1085 -1.4509  0.4898
 1564TIP3   OH2 4655   4.470   1.330   1.741  0.8127  0.0317 -0.4934
 1564TIP3    H1 4656   4.388   1.368   1.709  1.0001  0.3516 -0.5919
 1564TIP3    H2 4657   4.524   1.405   1.765  0.2006 -0.1894  1.8200
 1565TIP3   OH2 4658   4.578   5.588   2.516 -0.3083 -0.3764 -0.5261
 1565TIP3    H1 4659   4.579   5.495   2.492 -0.6898 -0.2709 -0.9636
 1565TIP3    H2 4660   4.668   5.606   2.543  0.6486 -0.1341 -3.4340
 1566TIP3   OH2 4661   6.049   3.572   3.653 -0.0396 -0.4842  0.2882
 1566TIP3    H1 4662   6.057   3.515   3.576 -0.6197 -1.9984  1.3132
 1566TIP3    H2 4663   5.976   3.630   3.631  1.2681  0.6992 -1.2322
 1567TIP3   OH2 4664   3.647   1.202   2.031 -0.0739  0.1542  0.2364
 1567TIP3    H1 4665   3.735   1.164   2.039  0.0417  0.5295  0.8873
 1567TIP3    H2 4666   3.626   1.196   1.938  0.7919  0.3857  0.0212
 1568TIP3   OH2 4667   3.200   4.500   5.045 -0.5707  0.4554 -0.0962
 1568TIP3    H1 4668   3.113   4.473   5.015 -0.6137 -0.4103  0.7580
 1568TIP3    H2 4669   3.230   4.427   5.100 -0.3618  1.8096  1.6738
 1569TIP3   OH2 4670   5.790   0.395   0.620 -0.1359 -0.4941  0.1495
 1569TIP3    H1 4671   5.856   0.363   0.558 -0.1565 -2.0760  0.8921
 1569TIP3    H2 4672   5.840   0.415   0.700  0.1664  3.2055 -0.8002
 1570TIP3   OH2 4673   5.411   5.256   3.033 -0.1522 -0.0619 -0.3332
 1570TIP3    H1 4674   5.347   5.284   2.967  0.7310  1.6473 -0.5208
 1570TIP3    H2 4675   5.359   5.207   3.097 -1.7342  1.4905 -0.3398
 1571TIP3   OH2 4676   3.255   6.233   4.936 -0.0379  0.0831 -0.2738
 1571TIP3    H1 4677   3.318   6.290   4.982  0.5577 -0.6732 -0.1293
 1571TIP3    H2 4678   3.176   6.286   4.929 -0.4442 -0.0298  2.3668
 1572TIP3   OH2 4679   3.004   5.381   0.855 -0.2077 -0.4422  0.3713
 1572TIP3    H1 4680   3.059   5.303   0.868  0.5369 -0.2359 -1.2210
 1572TIP3    H2 4681   2.935   5.351   0.795  0.4976  0.2782 -0.8286
 1573TIP3   OH2 4682   2.815   0.772   4.720  0.0708  0.3055  0.2592
 1573TIP3    H1 4683   2.865   0.729   4.789 -0.7942 -0.0270  0.6828
 1573TIP3    H2 4684   2.732   0.796   4.760 -0.7196 -0.4949 -0.8269
 1574TIP3   OH2 4685   3.515   6.026   5.200 -0.5868  0.5298 -0.1164
 1574TIP3    H1 4686   3.465   5.944   5.199  1.1264 -0.5760 -0.4500
 1574TIP3    H2 4687   3.599   6.003   5.159 -0.4224  2.7158 -1.1728
 1575TIP3   OH2 4688   2.197   6.605   5.195 -0.4992  0.2744 -0.4862
 1575TIP3    H1 4689   2.227   6.647   5.114  0.2185  2.0550  0.6392
 1575TIP3    H2 4690   2.276   6.563   5.230 -0.4763  0.6656 -0.0555
 1576TIP3   OH2 4691   1.802   5.512   4.392  0.1719 -0.1828 -0.3339
 1576TIP3    H1 4692   1.888   5.488   4.426 -0.3817 -1.0615  0.5160
 1576TIP3    H2 4693   1.793   5.461   4.311  0.4849 -0.0279 -0.4656
 1577TIP3   OH2 4694   2.368   2.111   0.841 -0.4958  0.5090  0.0436
 1577TIP3    H1 4695   2.400   2.025   0.868  0.3526  0.7162 -0.2727
 1577TIP3    H2 4696   2.383   2.113   0.746 -2.0856  0.3520 -0.2375
 1578TIP3   OH2 4697   1.325   3.449   4.075 -0.1000  0.2510  0.1542
 1578TIP3    H1 4698   1.275   3.376   4.110 -0.2241  1.0392  1.6669
 1578TIP3    H2 4699   1.301   3.452   3.982 -0.2047 -1.5157  0.0956
 1579TIP3   OH2 4700   2.903   2.977   5.074 -0.3598  0.2249  0.0133
 1579TIP3    H1 4701   2.873   3.058   5.117  0.9289  2.1571 -2.4488
 1579TIP3    H2 4702   2.921   2.917   5.146 -1.0595  2.2328  1.9875
 1580TIP3   OH2 4703   6.917   3.654   0.074  0.6586 -0.5410  0.0472
 1580TIP3    H1 4704   6.942   3.576   0.123  0.5188 -0.1110  0.8091
 1580TIP3    H2 4705   6.824   3.665   0.092 -0.0144 -1.7833 -2.2927
 1581TIP3   OH2 4706   5.393   0.335   2.178  0.2144  0.3147 -0.5954
 1581TIP3    H1 4707   5.308   0.318   2.218 -0.1674  1.4057 -0.9062
 1581TIP3    H2 4708   5.436   0.250   2.175 -0.9415 -0.2833 -0.6215
 1582TIP3   OH2 4709   2.061   6.788   3.231  0.0817  0.2114  0.3606
 1582TIP3    H1 4710   2.029   6.759   3.316  0.8624 -0.5227  0.4162
 1582TIP3    H2 4711   2.054   6.711   3.175 -2.2210  1.1752 -0.7938
 1583TIP3   OH2 4712   0.400   5.587   5.127 -0.0157  0.5044 -0.0897
 1583TIP3    H1 4713   0.419   5.537   5.048  1.0518 -0.9847  1.0701
 1583TIP3    H2 4714   0.414   5.678   5.101  1.3722 -0.0188 -1.3340
 1584TIP3   OH2 4715   6.926   3.905   2.100  0.0401  0.1164  0.2932
 1584TIP3    H1 4716   6.922   3.977   2.163  2.5606  0.0166  0.6463
 1584TIP3    H2 4717   6.893   3.943   2.018 -1.9563  0.6379  1.2861
 1585TIP3   OH2 4718   3.880   5.655   5.458 -0.8108 -0.3056  0.2749
 1585TIP3    H1 4719   3.787   5.635   5.448 -1.1494  0.4882  1.5378
 1585TIP3    H2 4720   3.905   5.612   5.541  0.3541 -1.7835 -0.7761
 1586TIP3   OH2 4721   0.248   4.263   1.701 -0.9357 -0.2805  0.1203
 1586TIP3    H1 4722   0.312   4.222   1.760 -0.7404 -1.2990 -0.7737
 1586TIP3    H2 4723   0.182   4.300   1.760  1.2689  2.3111  1.1697
 1587TIP3   OH2 4724   6.422   0.841   0.039  0.6871  0.5883 -0.0786
 1587TIP3    H1 4725   6.483   0.792  -0.015 -0.7150  0.2905 -1.4764
 1587TIP3    H2 4726   6.358   0.776   0.068 -0.1882  1.2518 -0.4698
 1588TIP3   OH2 4727   1.080   6.135   3.748 -0.1850 -0.4472 -0.1440
 1588TIP3    H1 4728   1.001   6.171   3.708  0.1570  0.0220 -0.4227
 1588TIP3    H2 4729   1.062   6.134   3.842 -1.5099 -2.8123 -0.3442
 1589TIP3   OH2 4730   1.555   5.159   2.637 -0.2048 -0.3231 -0.1539
 1589TIP3    H1 4731   1.603   5.232   2.675 -1.4188 -0.0924  1.0231
 1589TIP3    H2 4732   1.551   5.178   2.543 -1.9890  2.0811  0.3125
 1590TIP3   OH2 4733   3.701   3.627   2.295  0.8673 -0.1554 -0.0234
 1590TIP3    H1 4734   3.772   3.618   2.232  1.1924 -1.1171  0.4627
 1590TIP3    H2 4735   3.726   3.570   2.368 -0.6280 -0.9015 -0.0510
 1591TIP3   OH2 4736   1.610   1.209   1.974 -0.0108  0.0825 -0.7872
 1591TIP3    H1 4737   1.665   1.203   1.896  0.5895 -2.2677 -0.2386
 1591TIP3    H2 4738   1.526   1.170   1.948  0.5938 -1.8522  0.0391
 1592TIP3   OH2 4739   3.453   3.915   4.063 -0.8271  0.0494 -0.7033
 1592TIP3    H1 4740   3.490   3.959   4.139 -1.9702 -1.4467  0.8011
 1592TIP3    H2 4741   3.386   3.975   4.030 -0.5407  0.5672 -0.3569
 1593TIP3   OH2 4742   2.293   6.339   0.754 -0.1413  0.3469 -0.4839
 1593TIP3    H1 4743   2.326   6.388   0.678  1.5924  0.2061  0.1315
 1593TIP3    H2 4744   2.290   6.404   0.825 -1.4713  0.4087 -0.5705
 1594TIP3   OH2 4745   2.391   5.881   2.038  0.4146  0.2076 -0.0935
 1594TIP3    H1 4746   2.374   5.976   2.040  2.0415  0.5205  0.6590
 1594TIP3    H2 4747   2.428   5.865   1.951 -0.9670  0.0300 -0.6670
 1595TIP3   OH2 4748   4.868   1.734   5.021 -0.3082  0.6179 -0.5672
 1595TIP3    H1 4749   4.917   1.654   5.006  0.7353  1.5008 -2.1763
 1595TIP3    H2 4750   4.915   1.779   5.092 -1.0555 -0.2785  0.5276
 1596TIP3   OH2 4751   5.219   3.647   2.520 -0.1312  0.5899 -0.0507
 1596TIP3    H1 4752   5.185   3.734   2.496  0.9224  0.9774 -0.2155
 1596TIP3    H2 4753   5.280   3.625   2.450 -0.6645 -0.4691 -0.1994
 1597TIP3   OH2 4754   6.780   5.595   5.660  0.7023  0.1234 -0.6071
 1597TIP3    H1 4755   6.727   5.673   5.645  0.5635 -0.2512 -2.2086
 1597TIP3    H2 4756   6.716   5.524   5.671  0.8496  0.0488 -0.1970
 1598TIP3   OH2 4757   4.384   4.885   5.029 -0.7231  0.3360 -0.4757
 1598TIP3    H1 4758   4.291   4.884   5.050 -0.5880 -0.2958  0.1322
 1598TIP3    H2 4759   4.412   4.794   5.039 -0.3337  0.2599 -2.0251
 1599TIP3   OH2 4760   7.065   1.949   2.232 -0.5277 -0.4363 -0.2026
 1599TIP3    H1 4761   7.016   1.964   2.313 -0.4788  0.1306 -0.2735
 1599TIP3    H2 4762   7.147   1.907   2.261 -0.4497 -0.1100  0.0596
 1600TIP3   OH2 4763   2.945   6.067   5.546 -0.6310  0.9359  0.0931
 1600TIP3    H1 4764   2.961   6.161   5.555 -1.6606  1.0921  0.3783
 1600TIP3    H2 4765   3.033   6.028   5.542 -0.1979  1.9081 -0.0934
 1601TIP3   OH2 4766   0.168   0.572   1.130 -0.2217 -0.3825  0.5321
 1601TIP3    H1 4767   0.152   0.665   1.150  1.4489  0.2822 -0.9679
 1601TIP3    H2 4768   0.229   0.543   1.197  2.2163  0.7253 -1.0456
 1602TIP3   OH2 4769   2.856   6.401   5.825 -0.9406  0.6853  0.1847
 1602TIP3    H1 4770   2.906   6.479   5.850  1.1163  0.2786 -2.2255
 1602TIP3    H2 4771   2.831   6.361   5.908  1.4293  1.7727  1.5371
 1603TIP3   OH2 4772   0.252   0.714   3.031 -0.1135  0.3440  0.3508
 1603TIP3    H1 4773   0.281   0.670   3.111 -1.3140  1.3468  1.4066
 1603TIP3    H2 4774   0.157   0.702   3.031 -0.1006  0.1075 -1.1115
 1604TIP3   OH2 4775   0.388   2.439   4.878 -0.3203 -0.2980 -0.2595
 1604TIP3    H1 4776   0.377   2.513   4.818 -1.0985 -0.6187 -0.5073
 1604TIP3    H2 4777   0.320   2.377   4.854 -1.6295  0.2018  1.9046
 1605TIP3   OH2 4778   4.567   2.358   0.448  0.1600 -0.0791 -0.3026
 1605TIP3    H1 4779   4.580   2.270   0.484 -0.9792  0.0696  0.5443
 1605TIP3    H2 4780   4.500   2.397   0.505 -0.0049  1.0148 -1.2130
 1606TIP3   OH2 4781   7.101   4.198   5.022 -0.2768 -0.2520 -0.1941
 1606TIP3    H1 4782   7.043   4.268   4.990 -1.4671 -0.9695  0.3037
 1606TIP3    H2 4783   7.175   4.198   4.962 -0.2029  1.4880 -0.1649
 1607TIP3   OH2 4784   1.674   3.175   0.696 -0.0649  0.2300 -0.4955
 1607TIP3    H1 4785   1.682   3.122   0.775  0.3546  0.4559 -0.3858
 1607TIP3    H2 4786   1.591   3.147   0.657 -1.1991  1.3723  0.9589
 1608TIP3   OH2 4787   6.914   2.633   2.032 -0.3184 -0.1231 -0.1095
 1608TIP3    H1 4788   6.975   2.561   2.017 -1.3142 -0.8646 -0.6933
 1608TIP3    H2 4789   6.827   2.594   2.023 -0.8815  1.2447 -0.9151
 1609TIP3   OH2 4790   6.910   2.001   0.631 -0.4409 -0.4296 -0.5871
 1609TIP3    H1 4791   6.854   1.924   0.628 -0.0225 -0.9152  1.7793
 1609TIP3    H2 4792   6.998   1.967   0.646 -0.5600  0.4429  2.9163
 1610TIP3   OH2 4793   2.488   6.163   3.031 -0.4502 -0.3601  0.0927
 1610TIP3    H1 4794   2.458   6.106   2.961 -0.0542 -0.9842  0.4145
 1610TIP3    H2 4795   2.583   6.157   3.028 -0.4358 -1.4176  1.4766
 1611TIP3   OH2 4796   5.566   2.257   0.245  0.3336  0.1553 -0.0939
 1611TIP3    H1 4797   5.486   2.297   0.211  0.5544  1.0917  0.4556
 1611TIP3    H2 4798   5.629   2.328   0.246  1.5359 -0.8258 -1.5819
 1612TIP3   OH2 4799   4.701   4.912   2.554  0.5761  0.1490  0.0618
 1612TIP3    H1 4800   4.774   4.882   2.500  1.1917 -0.7306  1.3157
 1612TIP3    H2 4801   4.680   4.837   2.610  0.1252  1.0734  1.1903
 1613TIP3   OH2 4802   1.003   1.094   3.282 -0.8247  0.2798 -0.8821
 1613TIP3    H1 4803   1.096   1.094   3.257 -0.9012  0.8802 -1.1736
 1613TIP3    H2 4804   1.003   1.125   3.372 -0.6506 -0.7907 -0.4991
 1614TIP3   OH2 4805   2.337   3.750   4.110 -0.7383 -0.1150  0.3050
 1614TIP3    H1 4806   2.417   3.699   4.097 -1.0801 -0.3470 -0.9128
 1614TIP3    H2 4807   2.266   3.688   4.097 -1.1667 -0.2183  2.6163
 1615TIP3   OH2 4808   2.730   5.056   0.559  1.3312 -0.8153  0.2174
 1615TIP3    H1 4809   2.662   4.999   0.523  1.1451 -0.8713  0.6447
 1615TIP3    H2 4810   2.766   5.006   0.633 -0.7234  0.6913  2.3859
 1616TIP3   OH2 4811   6.289   3.353   5.258  0.0625  0.1084 -0.0128
 1616TIP3    H1 4812   6.274   3.427   5.317 -0.9158  0.5302 -0.7473
 1616TIP3    H2 4813   6.201   3.327   5.229  0.4639 -0.6629 -0.5756
 1617TIP3   OH2 4814   0.749   0.157   4.308  0.0751 -0.2855 -0.3017
 1617TIP3    H1 4815   0.698   0.147   4.227  0.7560  3.0835 -1.3034
 1617TIP3    H2 4816   0.839   0.169   4.278  0.6279 -0.7762  1.0938
 1618TIP3   OH2 4817   4.981   2.633   3.891 -0.1441 -0.1862 -0.6984
 1618TIP3    H1 4818   5.045   2.682   3.840  0.0302  1.1312  0.7356
 1618TIP3    H2 4819   4.931   2.699   3.938  0.0566 -1.3365  1.2468
 1619TIP3   OH2 4820   5.301   5.423   4.805 -0.2349 -0.5901  0.4308
 1619TIP3    H1 4821   5.350   5.402   4.726  0.4211 -0.2542  0.7432
 1619TIP3    H2 4822   5.365   5.415   4.876 -0.9859 -1.6229  1.0228
 1620TIP3   OH2 4823   5.682   4.440   4.508  0.5090  0.0841 -0.0373
 1620TIP3    H1 4824   5.731   4.363   4.478  0.9459 -0.6626  2.3623
 1620TIP3    H2 4825   5.687   4.436   4.604 -1.6194  1.7282  0.2238
 1621TIP3   OH2 4826   5.308   2.869   2.299 -0.1611 -0.1556 -0.2529
 1621TIP3    H1 4827   5.322   2.944   2.241  0.1010  0.9328  1.1717
 1621TIP3    H2 4828   5.288   2.908   2.384  1.2862 -1.6884  0.8472
 1622TIP3   OH2 4829   6.847   4.585   3.356 -0.0678 -0.5198 -0.6640
 1622TIP3    H1 4830   6.883   4.636   3.428 -1.3570 -1.0790  0.4091
 1622TIP3    H2 4831   6.861   4.641   3.279  0.2189  0.6414  0.1909
 1623TIP3   OH2 4832   5.467   5.618   1.785  0.5614  0.0463  0.1837
 1623TIP3    H1 4833   5.433   5.532   1.807  0.2186 -0.0763 -0.7784
 1623TIP3    H2 4834   5.406   5.679   1.826  1.3496 -0.1344  1.7051
 1624TIP3   OH2 4835   3.656   1.166   1.071  0.5839 -0.2485  0.1109
 1624TIP3    H1 4836   3.661   1.148   1.165  0.8978  2.9315  0.8182
 1624TIP3    H2 4837   3.747   1.174   1.043  0.4827 -0.7028 -0.3622
 1625TIP3   OH2 4838   3.907   3.297   4.756 -0.4718  0.0570 -0.3115
 1625TIP3    H1 4839   3.957   3.216   4.766 -0.1638  0.3106  0.2309
 1625TIP3    H2 4840   3.835   3.273   4.697  0.2742 -0.3071 -1.1023
 1626TIP3   OH2 4841   0.478   1.334   1.632 -0.1567  0.2040 -0.0079
 1626TIP3    H1 4842   0.498   1.400   1.565 -2.3504  0.6483 -0.2963
 1626TIP3    H2 4843   0.383   1.338   1.642 -0.1083 -1.4117  1.5595
 1627TIP3   OH2 4844   5.514   4.060   2.605 -0.1664 -0.2207 -0.5273
 1627TIP3    H1 4845   5.523   4.156   2.604  1.1749 -0.2965  0.8547
 1627TIP3    H2 4846   5.600   4.028   2.575  0.1299 -0.9737  1.0454
 1628TIP3   OH2 4847   5.703   6.261   1.102 -0.1460  0.3213  0.4712
 1628TIP3    H1 4848   5.770   6.326   1.125  1.4305 -1.4726  1.3220
 1628TIP3    H2 4849   5.745   6.206   1.035  0.2827 -2.2780  2.6715
 1629TIP3   OH2 4850   1.641   1.459   5.157  0.4353  0.3666 -0.2514
 1629TIP3    H1 4851   1.568   1.456   5.219 -0.2999 -0.5096 -1.1136
 1629TIP3    H2 4852   1.710   1.505   5.203 -0.1226 -0.1592  1.1710
 1630TIP3   OH2 4853   4.604   5.044   2.915 -0.2724  0.1394 -0.2648
 1630TIP3    H1 4854   4.546   4.974   2.943  0.4602  0.2507  1.7072
 1630TIP3    H2 4855   4.546   5.114   2.886 -1.0668 -0.3795  0.0555
 1631TIP3   OH2 4856   1.733   3.246   1.587  0.0696 -0.7777 -0.4451
 1631TIP3    H1 4857   1.692   3.220   1.670 -0.3006  0.3526 -0.2540
 1631TIP3    H2 4858   1.667   3.301   1.544  1.1614  0.6600 -0.3589
 1632TIP3   OH2 4859   1.408   0.355   4.683 -0.0422  0.3559  0.4880
 1632TIP3    H1 4860   1.463   0.352   4.762 -2.4894  1.9664  2.4055
 1632TIP3    H2 4861   1.321   0.327   4.713 -0.8929  0.3103 -1.8418
 1633TIP3   OH2 4862   1.582   6.721   4.769 -0.2429 -0.3829  0.2367
 1633TIP3    H1 4863   1.585   6.806   4.813  0.5261 -0.3691  0.1673
 1633TIP3    H2 4864   1.535   6.738   4.688  1.2167  0.3359 -0.5079
 1634TIP3   OH2 4865   2.739   5.497   3.486 -0.2018 -0.4330  0.3950
 1634TIP3    H1 4866   2.708   5.539   3.406  0.0572 -0.0919  0.4715
 1634TIP3    H2 4867   2.670   5.434   3.508 -0.0343 -0.8989 -0.3762
 1635TIP3   OH2 4868   5.465   1.139   3.731 -0.4726 -0.0046 -0.0350
 1635TIP3    H1 4869   5.414   1.191   3.793  0.2049  0.0999  0.4440
 1635TIP3    H2 4870   5.485   1.200   3.660 -1.4223 -0.1790 -0.4705
 1636TIP3   OH2 4871   1.360   0.944   2.832 -0.3210  0.1111 -0.1956
 1636TIP3    H1 4872   1.402   1.009   2.890 -0.9965 -0.6257  1.1519
 1636TIP3    H2 4873   1.406   0.955   2.748  0.1717  1.7295  0.2348
 1637TIP3   OH2 4874   2.800   1.183   4.065  0.0940 -0.4921 -0.1414
 1637TIP3    H1 4875   2.800   1.235   4.145 -2.0617 -0.2249 -0.2412
 1637TIP3    H2 4876   2.751   1.104   4.087  0.4631 -0.9415 -0.8858
 1638TIP3   OH2 4877   5.614   3.248   5.731  0.3854  0.3644 -0.5786
 1638TIP3    H1 4878   5.587   3.334   5.763 -0.0510 -0.4296  1.3461
 1638TIP3    H2 4879   5.684   3.221   5.791  0.1124 -0.8634 -0.7806
 1639TIP3   OH2 4880   0.045   6.711   2.745 -0.3708  0.1040  0.0143
 1639TIP3    H1 4881   0.056   6.620   2.770 -1.4185  0.3397  1.5120
 1639TIP3    H2 4882   0.093   6.760   2.811 -2.4354  0.7246  1.1474
 1640TIP3   OH2 4883   6.489   6.342   3.218  0.0386  0.2600 -0.4609
 1640TIP3    H1 4884   6.438   6.317   3.295 -1.3180  0.2724 -1.3303
 1640TIP3    H2 4885   6.548   6.411   3.250  0.9500 -1.1156  1.0093
 1641TIP3   OH2 4886   2.831   4.435   0.570 -0.3513  0.2777  0.4821
 1641TIP3    H1 4887   2.890   4.410   0.641  0.5637 -0.0444 -0.3656
 1641TIP3    H2 4888   2.788   4.353   0.545  2.6467 -0.6759 -2.2954
 1642TIP3   OH2 4889   2.271   6.549   1.793 -0.1166  0.0551 -0.4929
 1642TIP3    H1 4890   2.223   6.471   1.767 -0.3255 -0.2963  0.8715
 1642TIP3    H2 4891   2.338   6.518   1.853 -1.2420  1.0633  1.3817
 1643TIP3   OH2 4892   2.207   6.074   5.284  0.0462 -0.4693 -0.4528
 1643TIP3    H1 4893   2.251   6.021   5.349  0.8229 -1.1051 -1.4742
 1643TIP3    H2 4894   2.142   6.016   5.244 -2.0190  0.5283  1.2327
 1644TIP3   OH2 4895   7.164   5.519   4.568  0.4110 -0.0643 -0.5728
 1644TIP3    H1 4896   7.194   5.430   4.588  0.1410  0.1715  1.0110
 1644TIP3    H2 4897   7.070   5.517   4.582  0.6545  0.9422  1.5028
 1645TIP3   OH2 4898   2.548   4.879   2.698 -0.2136  0.4111  0.0520
 1645TIP3    H1 4899   2.621   4.889   2.637  1.0698  0.0803  1.4521
 1645TIP3    H2 4900   2.539   4.965   2.740  1.0482 -0.1500  1.6057
 1646TIP3   OH2 4901   4.357   4.558   3.204  0.5475  0.7252 -0.3929
 1646TIP3    H1 4902   4.401   4.476   3.182  0.6021  0.6904 -0.1527
 1646TIP3    H2 4903   4.349   4.604   3.120 -1.2811 -0.3983 -0.8972
 1647TIP3   OH2 4904   2.228   1.693   0.797  0.2337 -0.3020 -0.2578
 1647TIP3    H1 4905   2.257   1.610   0.761  0.1042  0.2553 -1.7230
 1647TIP3    H2 4906   2.132   1.691   0.790  0.2734  0.3263 -1.1748
 1648TIP3   OH2 4907   5.819   3.761   3.739  0.3827 -0.6564  0.5534
 1648TIP3    H1 4908   5.841   3.807   3.658  0.4603 -2.4919 -0.5312
 1648TIP3    H2 4909   5.779   3.827   3.794  1.1232  0.8541 -0.6371
 1649TIP3   OH2 4910   7.127   3.110   4.602  0.7072  0.0770  0.3118
 1649TIP3    H1 4911   7.098   3.195   4.570  0.8869  0.7638  1.8896
 1649TIP3    H2 4912   7.223   3.113   4.593  0.6292 -0.6013 -1.0816
 1650TIP3   OH2 4913   6.672   3.508   5.081 -0.1050  0.1138  0.0500
 1650TIP3    H1 4914   6.728   3.553   5.017  0.3300 -0.8401 -0.2624
 1650TIP3    H2 4915   6.583   3.517   5.045  0.1295 -0.3557 -0.6593
 1651TIP3   OH2 4916   6.137   0.873   1.640  0.0311  0.4527 -0.3499
 1651TIP3    H1 4917   6.107   0.817   1.569  1.6976  0.0153 -0.7745
 1651TIP3    H2 4918   6.187   0.814   1.697 -2.7661  0.3804  2.2626
 1652TIP3   OH2 4919   0.386   6.707   4.079  0.0912  0.3728  0.0682
 1652TIP3    H1 4920   0.354   6.629   4.124 -1.1722  1.9709  2.1005
 1652TIP3    H2 4921   0.339   6.707   3.995 -0.1303 -0.8419  0.1727
 1653TIP3   OH2 4922   4.725   5.615   3.474 -0.0324 -0.0091 -0.2954
 1653TIP3    H1 4923   4.704   5.693   3.423 -0.1331  0.3265  0.2557
 1653TIP3    H2 4924   4.800   5.576   3.428 -2.0651 -1.5253 -2.6159
 1654TIP3   OH2 4925   1.647   4.704   4.444 -0.4268  0.1328  0.1429
 1654TIP3    H1 4926   1.603   4.619   4.448 -0.2594  0.0637  0.5218
 1654TIP3    H2 4927   1.740   4.683   4.444 -0.3830  0.2651 -0.8983
 1655TIP3   OH2 4928   2.966   4.058   4.923  0.3694  0.2379 -0.2065
 1655TIP3    H1 4929   3.054   4.087   4.945  1.0925 -2.3313  0.6631
 1655TIP3    H2 4930   2.925   4.039   5.007  0.4287 -2.2982 -0.6688
 1656TIP3   OH2 4931   7.043   5.905   5.787  0.3566 -0.4751  0.2887
 1656TIP3    H1 4932   6.976   5.973   5.779 -0.1563 -0.8501  1.2828
 1656TIP3    H2 4933   7.067   5.885   5.696  0.5524  1.0470 -0.0209
 1657TIP3   OH2 4934   6.116   1.533   5.689 -0.3199 -0.0605 -0.3530
 1657TIP3    H1 4935   6.021   1.527   5.683 -0.4840  0.5057  1.1308
 1657TIP3    H2 4936   6.141   1.597   5.623 -0.6824 -1.8729 -2.3623
 1658TIP3   OH2 4937   2.489   0.250   3.669  0.1818  0.1026  0.4664
 1658TIP3    H1 4938   2.497   0.313   3.599 -0.4098 -0.8363 -0.4816
 1658TIP3    H2 4939   2.574   0.249   3.712  1.4515 -1.1963 -1.9056
 1659TIP3   OH2 4940   5.886   6.610   2.708 -0.4808 -0.3872 -0.1226
 1659TIP3    H1 4941   5.936   6.692   2.705 -3.2512  1.4173 -0.0965
 1659TIP3    H2 4942   5.953   6.542   2.706  1.9735  1.8449  0.1144
 1660TIP3   OH2 4943   7.142   4.589   0.426 -0.4437  0.4878  0.0353
 1660TIP3    H1 4944   7.089   4.585   0.506  1.4290 -3.2119  1.2905
 1660TIP3    H2 4945   7.232   4.598   0.458  0.4349 -1.9390 -1.4956
 1661TIP3   OH2 4946   6.072   2.534   3.647  0.3800  0.3878  0.7323
 1661TIP3    H1 4947   6.088   2.581   3.565  1.3143 -0.8022  0.2014
 1661TIP3    H2 4948   6.152   2.549   3.698 -0.3224  1.3836  1.5838
 1662TIP3   OH2 4949   0.420   0.082   1.846  0.2059  0.0274 -0.1698
 1662TIP3    H1 4950   0.508   0.078   1.809 -0.2083  1.0796 -1.3207
 1662TIP3    H2 4951   0.392   0.172   1.832 -0.3328  0.2340  1.9287
 1663TIP3   OH2 4952   1.886   1.060   4.397  0.3127  0.1757  0.4543
 1663TIP3    H1 4953   1.835   1.131   4.434 -0.6506  0.0269 -0.5395
 1663TIP3    H2 4954   1.934   1.024   4.472  0.5023  1.5890  1.0402
 1664TIP3   OH2 4955   4.170   1.101   0.347 -0.0928 -0.1576 -0.3759
 1664TIP3    H1 4956   4.193   1.009   0.337 -0.4913 -0.4693  1.2703
 1664TIP3    H2 4957   4.129   1.106   0.434 -1.9691  1.1916 -1.2674
 1665TIP3   OH2 4958   6.343   3.495   3.805  0.7071 -0.2364  0.4717
 1665TIP3    H1 4959   6.334   3.502   3.900 -1.0469 -1.4529  0.4408
 1665TIP3    H2 4960   6.410   3.428   3.792  1.9756  0.9248  0.8128
 1666TIP3   OH2 4961   0.927   3.700   3.241 -0.0114  0.0186  0.1403
 1666TIP3    H1 4962   0.926   3.791   3.209  1.4839 -0.3866 -1.2036
 1666TIP3    H2 4963   0.836   3.680   3.260 -0.6601  1.1334 -1.5901
 1667TIP3   OH2 4964   5.657   1.165   5.877  0.4503 -0.0684  0.0806
 1667TIP3    H1 4965   5.748   1.139   5.861  0.5100 -0.3308  0.7766
 1667TIP3    H2 4966   5.653   1.256   5.850  0.8799 -0.1057 -0.1271
 1668TIP3   OH2 4967   4.517   0.274   3.443 -0.1179  0.1126 -0.1652
 1668TIP3    H1 4968   4.577   0.234   3.380  0.6005  1.9942 -0.7507
 1668TIP3    H2 4969   4.448   0.209   3.456 -0.7169 -0.0973 -3.4860
 1669TIP3   OH2 4970   0.459   6.079   0.445  0.0738 -0.3742  0.3736
 1669TIP3    H1 4971   0.464   6.009   0.510 -0.3692 -1.3649 -0.6153
 1669TIP3    H2 4972   0.502   6.043   0.368 -2.8505 -0.8147 -1.1924
 1670TIP3   OH2 4973   0.042   5.594   0.387  0.4685 -0.2568 -0.1191
 1670TIP3    H1 4974  -0.024   5.565   0.449  1.7667  0.0624  1.4750
 1670TIP3    H2 4975   0.069   5.514   0.341  1.5583 -1.0818  1.8177
 1671TIP3   OH2 4976   5.757   1.484   0.268  0.2060  0.0027 -0.2578
 1671TIP3    H1 4977   5.711   1.565   0.288  0.6912 -0.1787  1.7577
 1671TIP3    H2 4978   5.689   1.425   0.235 -0.4280  0.7262 -0.2634
 1672TIP3   OH2 4979   1.534   3.000   0.401 -0.3953  0.6317 -0.1584
 1672TIP3    H1 4980   1.542   2.940   0.476 -1.3265  1.4492  0.6233
 1672TIP3    H2 4981   1.447   3.040   0.411 -0.2065  1.3527 -1.2332
 1673TIP3   OH2 4982   2.428   6.451   3.338 -0.7740  0.2518  0.4910
 1673TIP3    H1 4983   2.514   6.447   3.297 -0.5413 -0.3452  1.0364
 1673TIP3    H2 4984   2.367   6.439   3.266 -0.3449 -2.4968  0.4861
 1674TIP3   OH2 4985   1.338   0.008   5.588  0.3311  0.4440 -0.3882
 1674TIP3    H1 4986   1.251   0.031   5.620  0.1253 -1.8526  0.9752
 1674TIP3    H2 4987   1.397   0.029   5.660  0.6524  0.3868 -0.6329
 1675TIP3   OH2 4988   3.921   0.680   0.672  0.6241 -0.4271  0.1949
 1675TIP3    H1 4989   3.975   0.603   0.685  1.5371  0.2908  0.8016
 1675TIP3    H2 4990   3.932   0.702   0.580  2.2976  0.3532  0.5406
 1676TIP3   OH2 4991   0.708   6.386   0.932 -0.2242 -0.1086 -0.4245
 1676TIP3    H1 4992   0.730   6.323   0.863  1.5681 -0.5182  0.4672
 1676TIP3    H2 4993   0.635   6.436   0.895 -1.4107 -2.3612 -1.3551
 1677TIP3   OH2 4994   2.800   2.460   1.947  0.2332  0.2925 -0.4932
 1677TIP3    H1 4995   2.814   2.521   2.019 -4.5847 -0.7238  1.7515
 1677TIP3    H2 4996   2.847   2.381   1.973 -0.2142  0.4431  0.8436
 1678TIP3   OH2 4997   0.873   6.704   3.600 -0.2373  0.0744 -0.1093
 1678TIP3    H1 4998   0.792   6.675   3.642 -0.3186  2.4114  1.4978
 1678TIP3    H2 4999   0.850   6.785   3.555  0.6714 -0.5714 -1.8837
 1679TIP3   OH2 5000   4.489   2.035   5.168 -0.7999 -0.1108 -0.2710
 1679TIP3    H1 5001   4.475   1.993   5.083 -0.4316 -0.4503 -0.1657
 1679TIP3    H2 5002   4.439   2.116   5.163 -2.3722 -1.0409 -0.0874
 1680TIP3   OH2 5003   0.904   5.299   4.281 -0.0467 -0.4572 -0.4748
 1680TIP3    H1 5004   0.867   5.273   4.365 -0.7238  2.3143  0.1980
 1680TIP3    H2 5005   0.999   5.300   4.296 -0.2425  2.4267  1.1567
 1681TIP3   OH2 5006   3.907   6.698   3.666  0.0027 -0.0804 -0.6826
 1681TIP3    H1 5007   3.875   6.776   3.712 -2.0729 -2.5102  2.3569
 1681TIP3    H2 5008   3.991   6.679   3.707 -0.6026 -0.7242  0.3035
 1682TIP3   OH2 5009   5.279   3.369   3.777 -0.6025 -0.1773 -0.3281
 1682TIP3    H1 5010   5.315   3.284   3.752 -0.6625 -0.6914  1.2028
 1682TIP3    H2 5011   5.349   3.432   3.758  0.4112 -0.9101  0.8510
 1683TIP3   OH2 5012   2.644   4.175   0.738 -0.1666 -0.2804 -0.3465
 1683TIP3    H1 5013   2.703   4.101   0.756  0.5819  0.1996 -0.7706
 1683TIP3    H2 5014   2.580   4.172   0.809  2.4932  1.3628  2.3237
 1684TIP3   OH2 5015   7.011   0.603   2.319 -0.4716  0.1938 -0.0297
 1684TIP3    H1 5016   6.920   0.578   2.308 -0.2599 -1.6029  1.5862
 1684TIP3    H2 5017   7.011   0.663   2.394 -0.3056 -0.1873  0.2825
 1685TIP3   OH2 5018   4.481   0.559   3.486 -0.1182  0.3521 -0.4458
 1685TIP3    H1 5019   4.410   0.594   3.432 -1.4845  0.1303  1.1328
 1685TIP3    H2 5020   4.461   0.466   3.495  0.3604  0.2889  0.0556
 1686TIP3   OH2 5021   0.801   3.393   0.324 -0.4391  0.1666  0.2184
 1686TIP3    H1 5022   0.764   3.421   0.408 -1.9542  0.0723 -0.3691
 1686TIP3    H2 5023   0.825   3.301   0.336  0.2677  0.4254  0.8213
 1687TIP3   OH2 5024   6.100   2.579   5.279  0.1018  0.1904 -0.0594
 1687TIP3    H1 5025   6.045   2.606   5.353 -0.8774 -1.5836 -0.0641
 1687TIP3    H2 5026   6.037   2.552   5.212  0.9876  0.4353 -1.0064
 1688TIP3   OH2 5027   6.817   4.460   1.949  0.4128  0.3703  0.0040
 1688TIP3    H1 5028   6.808   4.489   2.040  1.6092 -0.3069  0.3569
 1688TIP3    H2 5029   6.911   4.443   1.938  0.1895 -0.2222 -1.1548
 1689TIP3   OH2 5030   2.948   0.248   3.346  0.7907 -0.1072 -0.3480
 1689TIP3    H1 5031   2.878   0.203   3.394 -1.2640 -0.2718 -3.1965
 1689TIP3    H2 5032   2.983   0.311   3.408 -0.2470 -1.6437  1.9436
 1690TIP3   OH2 5033   4.708   3.842   3.931  0.4272 -0.0687  0.4779
 1690TIP3    H1 5034   4.752   3.920   3.897 -1.3930  0.6676 -0.3481
 1690TIP3    H2 5035   4.709   3.780   3.858 -0.2578  0.1188  0.3020
 1691TIP3   OH2 5036   1.235   0.488   4.171 -0.2552 -0.2342  0.3377
 1691TIP3    H1 5037   1.267   0.502   4.082 -1.3892  0.1481 -0.0355
 1691TIP3    H2 5038   1.160   0.548   4.179  0.3899  0.4150  1.8699
 1692TIP3   OH2 5039   5.022   3.023   1.493  0.6315  0.4510  0.7473
 1692TIP3    H1 5040   4.968   2.996   1.567  0.8361 -0.9934  0.3872
 1692TIP3    H2 5041   5.108   3.039   1.531  1.0574 -1.4481  0.6895
 1693TIP3   OH2 5042   3.291   6.385   1.502 -0.2691  0.1234  0.2146
 1693TIP3    H1 5043   3.207   6.395   1.457  0.4591  0.6718 -1.1130
 1693TIP3    H2 5044   3.325   6.301   1.472 -1.1256 -0.9870  2.1873
 1694TIP3   OH2 5045   6.727   6.633   5.394  0.4382 -0.1497 -0.3486
 1694TIP3    H1 5046   6.750   6.611   5.304 -0.6089  0.4449 -0.7906
 1694TIP3    H2 5047   6.687   6.553   5.429 -2.1210  0.5010 -1.5052
 1695TIP3   OH2 5048   6.754   0.043   4.909 -0.0343  0.0452  0.0389
 1695TIP3    H1 5049   6.661   0.020   4.903 -0.6829  2.5351 -1.1756
 1695TIP3    H2 5050   6.765   0.074   4.999  0.7486 -4.0065  1.5492
 1696TIP3   OH2 5051   6.312   3.569   5.430  0.3387 -0.1284 -1.1300
 1696TIP3    H1 5052   6.270   3.622   5.362  0.9182  1.1222 -0.5355
 1696TIP3    H2 5053   6.292   3.614   5.512 -0.1483 -1.4879 -0.4659
 1697TIP3   OH2 5054   6.924   4.126   0.094  0.0745 -0.2088 -0.0116
 1697TIP3    H1 5055   6.908   4.185   0.167 -1.4054  1.3313 -1.4653
 1697TIP3    H2 5056   7.013   4.148   0.064 -0.4293  1.3328 -0.4941
 1698TIP3   OH2 5057   4.537   2.077   2.638 -0.4807 -0.6986  0.4623
 1698TIP3    H1 5058   4.519   2.029   2.557  1.1777 -0.4827 -0.0785
 1698TIP3    H2 5059   4.619   2.040   2.669  2.7164  3.6880 -1.6781
 1699TIP3   OH2 5060   3.481   6.286   0.732  0.1582 -0.1466  0.4852
 1699TIP3    H1 5061   3.564   6.245   0.757  0.1828  0.4800  1.5315
 1699TIP3    H2 5062   3.506   6.362   0.680  0.2662  0.2128  1.0538
 1700TIP3   OH2 5063   2.816   6.529   5.034 -0.7045  0.0473 -0.0678
 1700TIP3    H1 5064   2.773   6.443   5.033 -1.3250  0.3141  1.1352
 1700TIP3    H2 5065   2.745   6.591   5.050 -0.1811  0.7268 -0.3418
 1701TIP3   OH2 5066   4.128   0.393   0.443 -0.6295 -0.2832 -0.7176
 1701TIP3    H1 5067   4.214   0.391   0.402 -0.7798 -0.9211 -1.0138
 1701TIP3    H2 5068   4.122   0.310   0.491 -0.4163  0.4754  0.6951
 1702TIP3   OH2 5069   4.516   3.081   3.641  0.6937 -0.2253  0.2198
 1702TIP3    H1 5070   4.592   3.051   3.690  1.6805  1.9196  0.1311
 1702TIP3    H2 5071   4.518   3.031   3.559  2.9873  0.8801 -0.4802
 1703TIP3   OH2 5072   6.632   4.575   3.000 -0.6127  0.4721  0.0229
 1703TIP3    H1 5073   6.715   4.607   3.035 -0.9499 -0.7868  2.1150
 1703TIP3    H2 5074   6.574   4.651   3.001  0.3304  1.2510 -1.0328
 1704TIP3   OH2 5075   3.777   2.875   0.063 -0.1366  0.0372 -0.3284
 1704TIP3    H1 5076   3.855   2.842   0.019 -0.4614 -0.9727 -0.1761
 1704TIP3    H2 5077   3.800   2.880   0.155 -0.2125 -0.1486 -0.2989
 1705TIP3   OH2 5078   5.725   0.048   5.140  0.5212  0.2526 -0.0486
 1705TIP3    H1 5079   5.763   0.130   5.172  1.6291  0.2189 -1.1941
 1705TIP3    H2 5080   5.741  -0.015   5.210  2.0079  0.4174 -0.1991
 1706TIP3   OH2 5081   6.163   5.696   5.474  0.4249  0.3726 -0.1839
 1706TIP3    H1 5082   6.133   5.744   5.397 -0.6926  1.9943  1.1810
 1706TIP3    H2 5083   6.084   5.654   5.508  0.1266  2.2819  1.7898
 1707TIP3   OH2 5084   1.212   2.699   1.983  0.3574  0.1862 -0.0171
 1707TIP3    H1 5085   1.217   2.695   1.888  1.5129  1.3254 -0.0248
 1707TIP3    H2 5086   1.275   2.634   2.014  1.4689  1.1938 -0.0690
 1708TIP3   OH2 5087   4.271   3.999   3.713  0.4575 -0.3258  0.9865
 1708TIP3    H1 5088   4.215   3.990   3.789  0.0189  0.9247  0.8404
 1708TIP3    H2 5089   4.284   4.094   3.703  0.1831 -0.4183 -0.6999
 1709TIP3   OH2 5090   3.670   5.827   1.224  0.1065  0.1123  0.4566
 1709TIP3    H1 5091   3.762   5.814   1.247  0.2199  0.8325  0.4319
 1709TIP3    H2 5092   3.637   5.740   1.205  1.3646  0.0497 -1.7502
 1710TIP3   OH2 5093   4.234   4.887   0.689 -0.0719 -0.2843 -0.2090
 1710TIP3    H1 5094   4.244   4.798   0.723  1.0352  0.1381  0.6145
 1710TIP3    H2 5095   4.259   4.943   0.761 -1.6246  0.7506 -0.4167
 1711TIP3   OH2 5096   6.019   5.093   1.047 -0.1741 -0.0865  0.1465
 1711TIP3    H1 5097   6.050   5.010   1.084  0.4302 -0.7302 -1.7039
 1711TIP3    H2 5098   5.940   5.070   0.999 -0.8041  0.6862  0.7869
 1712TIP3   OH2 5099   3.564   4.192   5.113  0.3627 -1.0747 -0.0418
 1712TIP3    H1 5100   3.573   4.184   5.018  0.2552 -1.1361 -0.0466
 1712TIP3    H2 5101   3.637   4.248   5.139 -0.4072  0.1137 -0.3411
 1713TIP3   OH2 5102   2.846   0.594   4.469 -0.7049 -0.2412 -0.0915
 1713TIP3    H1 5103   2.799   0.542   4.533 -1.6793  1.2566  0.4711
 1713TIP3    H2 5104   2.874   0.672   4.517 -0.0371  0.1754 -1.1067
 1714TIP3   OH2 5105   4.857   5.101   3.663  0.4423  0.1778  0.0636
 1714TIP3    H1 5106   4.927   5.036   3.667  1.3283  1.1441  1.8859
 1714TIP3    H2 5107   4.812   5.092   3.747 -0.4217  0.8533 -0.3164
 1715TIP3   OH2 5108   0.207   6.596   0.173  0.3519  0.9447  0.2439
 1715TIP3    H1 5109   0.226   6.508   0.140 -1.9842  1.3450 -2.6044
 1715TIP3    H2 5110   0.138   6.583   0.238  0.4280  0.6194  0.2618
 1716TIP3   OH2 5111   6.134   1.730   0.240 -0.2399 -0.4274  0.2899
 1716TIP3    H1 5112   6.054   1.781   0.255 -0.7348 -1.7675  2.7095
 1716TIP3    H2 5113   6.103   1.651   0.195  0.2478  0.4323 -1.6688
 1717TIP3   OH2 5114   5.770   6.676   0.653  0.3396 -0.0831  0.2326
 1717TIP3    H1 5115   5.763   6.691   0.747  1.0624 -0.0662  0.2869
 1717TIP3    H2 5116   5.798   6.584   0.646  0.5177 -0.0128  0.0384
 1718TIP3   OH2 5117   5.759   4.102   1.233  0.3161 -0.0777 -0.6469
 1718TIP3    H1 5118   5.669   4.081   1.254  0.4454 -0.6782 -0.6890
 1718TIP3    H2 5119   5.754   4.188   1.191 -0.1277  0.3372  0.2193
 1719TIP3   OH2 5120   3.708   4.008   0.238 -0.4191  0.2100  0.2616
 1719TIP3    H1 5121   3.721   3.913   0.247  2.0550  0.5709  1.4945
 1719TIP3    H2 5122   3.711   4.024   0.144 -3.1888 -1.1353 -0.1516
 1720TIP3   OH2 5123   6.466   4.309   4.241 -0.0270 -0.6402  0.5338
 1720TIP3    H1 5124   6.445   4.258   4.163 -2.2218  1.6213 -0.4977
 1720TIP3    H2 5125   6.389   4.299   4.297  0.0050  0.5578  0.8127
 1721TIP3   OH2 5126   0.077   3.980   1.175  0.0308 -0.1556 -0.5838
 1721TIP3    H1 5127   0.026   3.901   1.157 -1.4124  0.3021  1.1418
 1721TIP3    H2 5128   0.046   4.043   1.109  0.1506 -0.5996 -1.0720
 1722TIP3   OH2 5129   2.517   4.923   4.134 -0.0539  0.2080 -0.0029
 1722TIP3    H1 5130   2.539   4.876   4.053 -2.1924  0.5758 -0.8633
 1722TIP3    H2 5131   2.599   4.925   4.183  0.8067 -1.9456 -1.1770
 1723TIP3   OH2 5132   3.575   0.896   1.979 -0.0162  0.9403  0.2312
 1723TIP3    H1 5133   3.519   0.823   2.007 -0.2051  0.3940 -1.4353
 1723TIP3    H2 5134   3.517   0.972   1.980 -0.6440  0.4968 -0.8712
 1724TIP3   OH2 5135   2.396   3.393   0.898  0.3169  0.4881 -0.1482
 1724TIP3    H1 5136   2.397   3.457   0.827  3.6010  1.7333  0.8568
 1724TIP3    H2 5137   2.334   3.428   0.961  0.6123  1.6577 -0.4903
 1725TIP3   OH2 5138   5.406   5.361   4.540 -0.2741  0.1211 -1.1912
 1725TIP3    H1 5139   5.325   5.336   4.495 -1.6193  3.0406 -0.5735
 1725TIP3    H2 5140   5.459   5.281   4.537 -2.3809 -1.3704 -3.2659
 1726TIP3   OH2 5141   6.197   5.009   2.277  0.4824  0.4495 -0.4118
 1726TIP3    H1 5142   6.239   5.094   2.264  1.6694 -0.0696 -0.1317
 1726TIP3    H2 5143   6.112   5.029   2.314 -0.2196  1.6352 -2.4740
 1727TIP3   OH2 5144   1.384   5.653   3.608 -0.4100  0.3929 -0.4079
 1727TIP3    H1 5145   1.384   5.747   3.590 -2.7297  0.4848 -0.2563
 1727TIP3    H2 5146   1.382   5.611   3.522  0.9931  0.4540 -0.4810
 1728TIP3   OH2 5147   6.115   5.265   4.410  0.0216 -0.0976 -0.2557
 1728TIP3    H1 5148   6.181   5.246   4.477  0.5781  1.5796 -0.3071
 1728TIP3    H2 5149   6.104   5.182   4.363 -0.4262 -1.3559  1.9151
 1729TIP3   OH2 5150   1.256   3.209   0.935 -0.1323 -0.0930 -0.0635
 1729TIP3    H1 5151   1.257   3.304   0.923 -0.2753 -0.3229 -2.3337
 1729TIP3    H2 5152   1.325   3.193   1.000  1.2294  1.4332 -1.0296
 1730TIP3   OH2 5153   6.086   4.319   1.714 -0.3552 -0.4740 -0.1789
 1730TIP3    H1 5154   6.087   4.307   1.619  0.8647 -1.0723 -0.1179
 1730TIP3    H2 5155   6.176   4.298   1.741 -0.5891  0.0557  1.0617
 1731TIP3   OH2 5156   5.288   4.629   4.478  0.1711 -0.5446 -0.3174
 1731TIP3    H1 5157   5.273   4.594   4.390 -1.3859 -0.1319 -0.2507
 1731TIP3    H2 5158   5.203   4.664   4.504  0.5620 -0.8369  1.4449
 1732TIP3   OH2 5159   4.233   2.314   0.337  0.1732 -0.0260  0.0043
 1732TIP3    H1 5160   4.259   2.243   0.396  0.4572  1.3124  1.5448
 1732TIP3    H2 5161   4.241   2.276   0.250  1.4285 -1.5393  0.7235
 1733TIP3   OH2 5162   2.900   1.039   0.421 -0.4692  0.0828  0.0681
 1733TIP3    H1 5163   2.864   1.113   0.469  1.7017  1.4705 -0.3317
 1733TIP3    H2 5164   2.950   1.078   0.350 -0.9053 -1.8431 -1.3941
 1734TIP3   OH2 5165   5.190   2.917   5.054  0.0805  0.2906 -0.4584
 1734TIP3    H1 5166   5.260   2.852   5.049 -1.6892 -1.7389 -0.8846
 1734TIP3    H2 5167   5.152   2.918   4.966 -0.5067  1.2550 -0.2129
 1735TIP3   OH2 5168   1.242   3.028   4.894 -0.4217 -0.3566  0.5387
 1735TIP3    H1 5169   1.261   3.096   4.829  1.4921 -1.3319  0.0218
 1735TIP3    H2 5170   1.147   3.026   4.899 -0.6700 -0.4752 -2.4967
 1736TIP3   OH2 5171   6.150   6.261   2.964 -0.9210  0.0743  0.3389
 1736TIP3    H1 5172   6.218   6.251   2.898 -1.1691 -0.4701  0.1627
 1736TIP3    H2 5173   6.070   6.276   2.915 -0.7433  2.0689  0.5637
 1737TIP3   OH2 5174   3.819   3.601   4.840  0.1200  0.3330  0.1368
 1737TIP3    H1 5175   3.822   3.694   4.859 -0.3874  0.6373 -1.1653
 1737TIP3    H2 5176   3.745   3.568   4.890  0.6286  0.5129  1.0218
 1738TIP3   OH2 5177   0.977   6.205   0.462 -0.1111 -0.0920 -0.0337
 1738TIP3    H1 5178   1.063   6.221   0.422  0.2688 -0.6395  0.5415
 1738TIP3    H2 5179   0.966   6.110   0.456 -1.0997  0.0688 -0.9470
 1739TIP3   OH2 5180   6.592   6.349   1.258  0.1258 -0.0015  0.1825
 1739TIP3    H1 5181   6.630   6.433   1.232 -0.4642  0.4729  0.8182
 1739TIP3    H2 5182   6.539   6.322   1.183 -1.7673  1.4807  0.9207
 1740TIP3   OH2 5183   2.487   1.346   1.889 -0.8735 -0.5112  0.3731
 1740TIP3    H1 5184   2.472   1.278   1.823 -0.8108 -0.6611  0.5120
 1740TIP3    H2 5185   2.414   1.407   1.877 -2.3676 -1.9189  1.8950
 1741TIP3   OH2 5186   0.659   6.780   0.423  1.0053  0.1551 -0.4920
 1741TIP3    H1 5187   0.681   6.802   0.332  0.5841 -3.5796 -1.6861
 1741TIP3    H2 5188   0.653   6.684   0.423  1.4149 -0.0275  3.6263
 1742TIP3   OH2 5189   2.768   2.198   4.439  1.0604 -0.2198 -0.4581
 1742TIP3    H1 5190   2.774   2.124   4.379  1.5315 -1.4955  1.0714
 1742TIP3    H2 5191   2.842   2.186   4.499  1.0569  1.4138 -0.0688
 1743TIP3   OH2 5192   4.380   3.834   1.739 -0.1414  0.2681 -0.3921
 1743TIP3    H1 5193   4.329   3.773   1.793  1.6931 -0.2942  0.7883
 1743TIP3    H2 5194   4.393   3.911   1.795  0.4041  0.3547 -0.6307
 1744TIP3   OH2 5195   0.514   4.063   0.587  0.4958 -0.4264 -0.5989
 1744TIP3    H1 5196   0.478   4.126   0.525 -0.3719  1.4714  1.6329
 1744TIP3    H2 5197   0.576   4.114   0.639  0.1757 -1.5403  0.9549
 1745TIP3   OH2 5198   4.657   1.685   5.753 -0.5085 -0.3859  0.8072
 1745TIP3    H1 5199   4.589   1.746   5.723 -0.9090 -1.3795 -0.3918
 1745TIP3    H2 5200   4.632   1.601   5.715  0.9585 -0.9538  1.0320
 1746TIP3   OH2 5201   5.302   6.286   2.434  0.3996  0.2989  0.0503
 1746TIP3    H1 5202   5.289   6.365   2.381 -1.7645 -0.0761 -0.1006
 1746TIP3    H2 5203   5.355   6.315   2.508 -1.8446  2.4019  0.9665
 1747TIP3   OH2 5204   0.994   2.049   1.504 -0.3552  0.1961  0.2288
 1747TIP3    H1 5205   1.083   2.082   1.496 -0.1326 -0.2376  0.7726
 1747TIP3    H2 5206   0.948   2.083   1.428  0.1125  0.9446  0.2739
 1748TIP3   OH2 5207   7.154   2.091   5.815 -0.0197 -0.0310  0.5336
 1748TIP3    H1 5208   7.108   2.110   5.897  0.0204  2.0192  0.1249
 1748TIP3    H2 5209   7.242   2.126   5.828  0.5873 -1.3933  0.2722
 1749TIP3   OH2 5210   5.666   2.471   2.217  0.1472  0.1261 -0.3501
 1749TIP3    H1 5211   5.710   2.493   2.135  1.3437 -0.8214  0.0187
 1749TIP3    H2 5212   5.737   2.455   2.279 -0.7347 -0.2122  0.5967
 1750TIP3   OH2 5213   0.603   6.365   1.623  0.0101  0.6849  0.2856
 1750TIP3    H1 5214   0.545   6.366   1.547 -0.2576  1.2391  0.4857
 1750TIP3    H2 5215   0.691   6.361   1.587 -0.1384  0.1813 -0.0307
 1751TIP3   OH2 5216   3.683   0.160   2.121 -0.3890 -0.2360  0.5507
 1751TIP3    H1 5217   3.754   0.158   2.056 -1.5620  0.4452 -0.7969
 1751TIP3    H2 5218   3.633   0.239   2.099 -0.9497 -0.1074  2.1733
 1752TIP3   OH2 5219   2.418   6.273   3.928 -0.0681  0.0670 -0.6681
 1752TIP3    H1 5220   2.443   6.363   3.950 -0.3416 -0.2695  1.2630
 1752TIP3    H2 5221   2.500   6.231   3.901  1.0623 -0.2392  2.7489
 1753TIP3   OH2 5222   2.969   1.517   4.337  0.3449 -0.5979 -0.0392
 1753TIP3    H1 5223   2.962   1.561   4.421  2.3243  0.2556 -0.2505
 1753TIP3    H2 5224   3.059   1.536   4.308 -0.5224 -0.1355 -2.7333
 1754TIP3   OH2 5225   3.751   6.816   5.074 -0.2949  0.2751 -0.4852
 1754TIP3    H1 5226   3.716   6.735   5.112  0.7500 -0.5975 -1.3007
 1754TIP3    H2 5227   3.834   6.829   5.121 -1.0202  1.5776  0.4962
 1755TIP3   OH2 5228   5.415   1.024   0.564 -0.4274 -0.4315 -0.3506
 1755TIP3    H1 5229   5.402   1.012   0.658 -0.3827 -1.2923 -0.4446
 1755TIP3    H2 5230   5.330   1.053   0.531 -0.8155 -1.3860 -0.2329
 1756TIP3   OH2 5231   0.968   4.233   3.127  0.2628  0.3674  0.3350
 1756TIP3    H1 5232   0.877   4.204   3.123  0.2627  0.4898 -1.4544
 1756TIP3    H2 5233   0.989   4.259   3.037  1.2651  2.8543  1.1912
 1757TIP3   OH2 5234   1.715   0.556   1.530  0.0917  0.1049  0.0266
 1757TIP3    H1 5235   1.715   0.550   1.435  0.0396 -0.0792  0.0374
 1757TIP3    H2 5236   1.637   0.507   1.557  0.6325 -0.6798  0.2135
 1758TIP3   OH2 5237   7.201   1.172   2.103  0.3976 -0.0995  0.7103
 1758TIP3    H1 5238   7.138   1.243   2.119  0.0957 -0.5835  1.7965
 1758TIP3    H2 5239   7.284   1.206   2.135  0.2417 -0.2410  1.2827
 1759TIP3   OH2 5240   6.925   0.159   0.529 -0.0060 -0.0426 -0.0472
 1759TIP3    H1 5241   6.948   0.103   0.455 -0.6509 -1.3405  0.6937
 1759TIP3    H2 5242   7.008   0.195   0.560  0.6334 -1.8113  0.3944
 1760TIP3   OH2 5243   2.476   1.115   4.925  0.2124  0.4327 -0.3847
 1760TIP3    H1 5244   2.529   1.073   4.857 -0.8428  0.3334 -1.1767
 1760TIP3    H2 5245   2.472   1.052   4.996 -1.4524 -0.9304 -1.6007
 1761TIP3   OH2 5246   6.155   4.895   2.628 -0.2249  0.2250  0.4679
 1761TIP3    H1 5247   6.205   4.904   2.547 -2.9790 -0.1363 -1.3953
 1761TIP3    H2 5248   6.143   4.985   2.659  0.7627  0.3702  0.4874
 1762TIP3   OH2 5249   2.769   1.701   2.219 -0.0844 -0.0400 -0.1783
 1762TIP3    H1 5250   2.864   1.691   2.218  0.2226  2.2773 -1.3709
 1762TIP3    H2 5251   2.746   1.720   2.128 -1.7030 -0.5386  0.0952
 1763TIP3   OH2 5252   5.576   4.991   2.204  0.1634  0.1042 -0.2572
 1763TIP3    H1 5253   5.580   4.940   2.123 -1.1175 -0.7135  0.1623
 1763TIP3    H2 5254   5.632   5.067   2.187 -1.3771  0.8506 -2.5387
 1764TIP3   OH2 5255   2.246   0.058   1.939 -0.4121 -0.0772 -0.0136
 1764TIP3    H1 5256   2.161   0.098   1.958 -0.1418  0.3190  0.3580
 1764TIP3    H2 5257   2.309   0.129   1.946 -0.1984 -0.0470 -1.7227
 1765TIP3   OH2 5258   3.198   5.092   2.645  0.1034 -0.6483  0.5677
 1765TIP3    H1 5259   3.251   5.026   2.688  0.7105 -0.0067  0.8304
 1765TIP3    H2 5260   3.261   5.161   2.621 -0.1231 -1.1490 -1.7130
 1766TIP3   OH2 5261   1.207   1.830   1.719 -0.3756 -0.8479 -0.3474
 1766TIP3    H1 5262   1.273   1.763   1.733  0.5531  0.5143  2.6029
 1766TIP3    H2 5263   1.255   1.904   1.680 -0.6481 -0.6682 -0.3475
 1767TIP3   OH2 5264   2.679   3.005   3.577 -0.4808  0.0763  0.2392
 1767TIP3    H1 5265   2.763   2.983   3.537  0.1316  0.7207  1.1306
 1767TIP3    H2 5266   2.698   3.082   3.631 -2.1126  1.5664 -1.1990
 1768TIP3   OH2 5267   4.632   4.851   1.604 -0.0694  0.0722 -0.0381
 1768TIP3    H1 5268   4.595   4.764   1.622  1.5795 -0.6953 -0.1964
 1768TIP3    H2 5269   4.684   4.839   1.525  2.4070  0.4866  1.4123
 1769TIP3   OH2 5270   4.309   4.952   0.331  0.5236 -0.3373  0.1760
 1769TIP3    H1 5271   4.352   4.935   0.248  0.1540 -0.8588  0.0845
 1769TIP3    H2 5272   4.258   4.873   0.348 -1.9413  0.9609 -0.6672
 1770TIP3   OH2 5273   5.839   5.919   5.016  0.4088  0.3864  0.4980
 1770TIP3    H1 5274   5.884   5.841   4.984  1.3417  0.9570  0.3577
 1770TIP3    H2 5275   5.909   5.971   5.058 -0.3099  0.8372  1.1703
 1771TIP3   OH2 5276   0.380   3.938   2.230  0.1302 -0.4890  0.1446
 1771TIP3    H1 5277   0.380   3.851   2.190  0.0927  0.1949 -1.4064
 1771TIP3    H2 5278   0.290   3.969   2.221  0.0885 -0.3565  0.8965
 1772TIP3   OH2 5279   4.580   0.798   5.146 -0.0276  0.0648 -0.3165
 1772TIP3    H1 5280   4.604   0.737   5.216  0.9811  0.4386 -0.3235
 1772TIP3    H2 5281   4.635   0.773   5.072  0.2579  0.8619 -0.3772
 1773TIP3   OH2 5282   4.539   4.079   2.148 -0.5260  0.4131  0.6788
 1773TIP3    H1 5283   4.466   4.018   2.147 -0.6639  0.5744 -0.4138
 1773TIP3    H2 5284   4.503   4.160   2.186 -0.7647  0.3247  0.6401
 1774TIP3   OH2 5285   6.352   1.844   2.490  0.1146  0.6426  0.2329
 1774TIP3    H1 5286   6.284   1.778   2.505  0.8692 -0.1885  0.0583
 1774TIP3    H2 5287   6.367   1.842   2.395  0.8142  0.3909  0.3493
 1775TIP3   OH2 5288   5.496   1.634   2.080  0.1514  0.6852 -0.1351
 1775TIP3    H1 5289   5.587   1.608   2.068  0.2665  1.2865 -0.6057
 1775TIP3    H2 5290   5.494   1.728   2.059 -0.2551  1.0764  1.4674
 1776TIP3   OH2 5291   6.543   1.704   0.274 -0.3115 -0.0494 -0.0645
 1776TIP3    H1 5292   6.462   1.713   0.324  0.6818 -0.8797  1.7791
 1776TIP3    H2 5293   6.602   1.768   0.313  0.1609  0.0437 -0.9142
 1777TIP3   OH2 5294   0.690   6.653   5.032 -0.3761  0.3994 -0.4357
 1777TIP3    H1 5295   0.707   6.677   4.941 -0.9148 -0.6474 -0.8368
 1777TIP3    H2 5296   0.774   6.665   5.076  0.1589 -0.0199 -1.2968
 1778TIP3   OH2 5297   4.863   3.574   2.927 -0.3091  0.2300  0.1874
 1778TIP3    H1 5298   4.904   3.656   2.898  1.2384 -0.8684 -0.8993
 1778TIP3    H2 5299   4.794   3.558   2.864  0.1621  0.1128 -0.3081
 1779TIP3   OH2 5300   5.040   5.861   2.038  0.2851  0.0332  0.2140
 1779TIP3    H1 5301   5.008   5.912   2.112 -0.4952 -0.1972  0.0393
 1779TIP3    H2 5302   5.026   5.770   2.064  1.1984 -0.0968  0.3088
 1780TIP3   OH2 5303   3.143   2.341   3.612 -0.1522 -0.1279 -0.3278
 1780TIP3    H1 5304   3.198   2.390   3.673 -0.1424 -0.3514 -0.1551
 1780TIP3    H2 5305   3.079   2.297   3.668  0.2224 -0.8114 -0.4243
 1781TIP3   OH2 5306   3.226   2.665   2.106  0.4023  0.3958  0.2546
 1781TIP3    H1 5307   3.160   2.638   2.170  0.2130  0.9908  0.3178
 1781TIP3    H2 5308   3.282   2.726   2.154 -0.4649  1.8036 -0.4679
 1782TIP3   OH2 5309   6.382   4.844   1.851  0.2139  0.7688  0.5377
 1782TIP3    H1 5310   6.407   4.752   1.850  1.5530  1.0508  2.4100
 1782TIP3    H2 5311   6.288   4.844   1.867  0.1143 -0.2594  0.0178
 1783TIP3   OH2 5312   3.891   1.438   3.240 -0.0288 -0.2011 -0.0679
 1783TIP3    H1 5313   3.940   1.444   3.323  0.9770  1.4422 -0.7219
 1783TIP3    H2 5314   3.889   1.345   3.220  0.9845 -0.4987  1.0783
 1784TIP3   OH2 5315   6.167   2.148   0.187 -0.1750  0.0150  0.0917
 1784TIP3    H1 5316   6.115   2.096   0.125  0.8000  0.3761 -1.0611
 1784TIP3    H2 5317   6.247   2.096   0.200  0.7120  1.0822 -0.9039
 1785TIP3   OH2 5318   1.917   5.998   5.541  0.0980  0.1384  0.3212
 1785TIP3    H1 5319   1.981   5.944   5.587  0.5933  0.1325 -0.3635
 1785TIP3    H2 5320   1.887   5.944   5.468  1.0543  0.9916 -0.7311
 1786TIP3   OH2 5321   4.881   3.870   2.952  0.1744 -0.3164  0.0541
 1786TIP3    H1 5322   4.816   3.927   2.911 -1.1731 -2.7994 -1.5184
 1786TIP3    H2 5323   4.874   3.890   3.046 -0.4358  1.8186 -0.3998
 1787TIP3   OH2 5324   5.408   0.543   0.692 -0.1275 -0.1138 -0.2286
 1787TIP3    H1 5325   5.326   0.587   0.716 -0.2244 -0.4718  0.1161
 1787TIP3    H2 5326   5.391   0.450   0.707  0.0483 -0.2784 -1.0366
 1788TIP3   OH2 5327   1.928   0.187   1.164  0.3937  0.5155  0.0354
 1788TIP3    H1 5328   2.004   0.160   1.216  0.4080  0.1105 -0.1945
 1788TIP3    H2 5329   1.853   0.165   1.219  0.4451  1.0770  0.3374
 1789TIP3   OH2 5330   1.556   0.950   3.827  0.1948 -0.2223  0.4555
 1789TIP3    H1 5331   1.564   1.034   3.873 -0.8523  0.5331 -0.6525
 1789TIP3    H2 5332   1.464   0.947   3.800  0.9081 -0.1520 -2.3393
 1790TIP3   OH2 5333   5.538   1.679   0.569  0.1307  0.3076  0.2340
 1790TIP3    H1 5334   5.451   1.673   0.608  1.4537  1.8939  3.9268
 1790TIP3    H2 5335   5.522   1.694   0.476 -3.5430  0.9907  0.8140
 1791TIP3   OH2 5336   0.082   3.915   2.208  0.0540 -0.0853 -0.0837
 1791TIP3    H1 5337   0.073   3.931   2.302  1.5140 -0.6130  0.1611
 1791TIP3    H2 5338   0.109   3.823   2.201  0.2056  0.0172 -0.9988
 1792TIP3   OH2 5339   2.554   4.886   5.408  0.4258 -0.2038  0.3156
 1792TIP3    H1 5340   2.513   4.831   5.474  1.5625  0.0201  1.2330
 1792TIP3    H2 5341   2.635   4.917   5.448  0.1759  1.5773 -0.4343
 1793TIP3   OH2 5342   2.111   6.082  -0.013 -0.1642 -0.4571  0.3433
 1793TIP3    H1 5343   2.070   6.016   0.044 -0.5626  1.9791  3.1215
 1793TIP3    H2 5344   2.205   6.067  -0.005 -0.2044 -0.0253  1.9198
 1794TIP3   OH2 5345   1.392   2.460   0.645  0.4721 -0.1524  0.1763
 1794TIP3    H1 5346   1.483   2.489   0.644 -0.1583  2.1086  0.5378
 1794TIP3    H2 5347   1.351   2.515   0.712 -1.4453 -0.0600 -0.9903
 1795TIP3   OH2 5348   0.577   6.015   2.777  0.6041  0.0120  0.2632
 1795TIP3    H1 5349   0.604   5.946   2.716 -0.0192 -0.2516  0.2760
 1795TIP3    H2 5350   0.635   6.003   2.853 -0.3443 -1.3434  0.8157
 1796TIP3   OH2 5351   1.315   2.401   5.676  0.8047 -0.4945 -0.4131
 1796TIP3    H1 5352   1.345   2.388   5.766 -0.7577  0.4663  0.2928
 1796TIP3    H2 5353   1.248   2.334   5.663  0.9209 -0.5368 -0.8066
 1797TIP3   OH2 5354   6.874   6.567   0.790 -0.1485 -0.1322 -0.0653
 1797TIP3    H1 5355   6.826   6.637   0.745 -0.2474  1.7772  2.7225
 1797TIP3    H2 5356   6.837   6.567   0.878  1.9447 -1.6705  0.8834
 1798TIP3   OH2 5357   0.656   4.799   5.662  0.4537  0.2429 -0.4919
 1798TIP3    H1 5358   0.679   4.883   5.621 -0.6146 -0.1530 -1.9870
 1798TIP3    H2 5359   0.704   4.734   5.612 -0.8474 -0.2505 -1.1363
 1799TIP3   OH2 5360   5.244   5.326   4.204  0.5406  0.0924 -0.2855
 1799TIP3    H1 5361   5.202   5.351   4.286  1.8299  0.4118  0.2932
 1799TIP3    H2 5362   5.262   5.409   4.160 -0.0375 -0.0722 -0.8574
 1800TIP3   OH2 5363   5.386   0.869   3.714  0.0258  0.0157 -0.2086
 1800TIP3    H1 5364   5.471   0.904   3.690 -0.7859  1.4911 -1.0294
 1800TIP3    H2 5365   5.368   0.907   3.800 -0.8238  1.6477 -1.0685
 1801TIP3   OH2 5366   3.079   5.089   5.755  0.2771  0.1937 -0.0305
 1801TIP3    H1 5367   3.097   5.126   5.668  0.9308 -1.2332 -0.5292
 1801TIP3    H2 5368   3.141   5.016   5.763 -0.3842 -0.2451  1.2713
 1802TIP3   OH2 5369   4.048   2.819   2.880 -0.3927  0.1471 -0.2258
 1802TIP3    H1 5370   4.058   2.913   2.893  2.6865 -0.2144  0.8065
 1802TIP3    H2 5371   4.049   2.782   2.968 -1.8379 -0.8787 -0.6066
 1803TIP3   OH2 5372   0.288   2.219   0.672  0.2728  0.4569  0.4651
 1803TIP3    H1 5373   0.284   2.159   0.747 -0.0006 -0.9093 -0.6085
 1803TIP3    H2 5374   0.197   2.228   0.644  0.5463 -0.6061 -0.8673
 1804TIP3   OH2 5375   4.756   2.219   5.266  0.0500  0.1122  0.7202
 1804TIP3    H1 5376   4.701   2.272   5.324  0.0380  0.0219  0.7917
 1804TIP3    H2 5377   4.819   2.177   5.324 -0.4004 -0.5329  0.7653
 1805TIP3   OH2 5378   5.271   3.885   1.467 -0.2122 -0.3261 -0.9411
 1805TIP3    H1 5379   5.217   3.918   1.538 -0.3412  0.7552 -1.5194
 1805TIP3    H2 5380   5.262   3.790   1.472 -1.1456 -0.2113 -0.2402
 1806TIP3   OH2 5381   1.674   2.292   2.036 -0.8933 -0.6426  0.0095
 1806TIP3    H1 5382   1.635   2.310   2.122 -2.4222 -0.3073 -0.7125
 1806TIP3    H2 5383   1.701   2.378   2.004 -0.5422 -0.7366  0.0528
 1807TIP3   OH2 5384   2.154   6.744   1.946  0.2572 -0.1868 -0.4316
 1807TIP3    H1 5385   2.150   6.817   1.886 -1.1097 -0.2942 -0.5018
 1807TIP3    H2 5386   2.186   6.671   1.893 -0.3575 -0.1320 -0.8986
 1808TIP3   OH2 5387   1.752   1.218   2.561 -0.2311 -0.1159 -0.0997
 1808TIP3    H1 5388   1.788   1.190   2.645  1.9810 -0.8510 -1.2172
 1808TIP3    H2 5389   1.800   1.299   2.541  1.4392 -1.4530 -1.9188
 1809TIP3   OH2 5390   1.856   3.983   4.599  0.0646  0.2431  0.3044
 1809TIP3    H1 5391   1.814   3.916   4.543  0.5914 -0.9083  1.2393
 1809TIP3    H2 5392   1.946   3.952   4.608  0.5107  1.4784  0.1958
 1810TIP3   OH2 5393   4.941   6.536   0.496  0.0223  0.2057  0.1313
 1810TIP3    H1 5394   5.032   6.506   0.503 -0.1707 -0.1979  1.0872
 1810TIP3    H2 5395   4.938   6.584   0.413  1.5230  1.6473  0.8518
 1811TIP3   OH2 5396   2.388   1.755   3.397  0.5114  0.1337 -0.1254
 1811TIP3    H1 5397   2.384   1.669   3.354 -0.8272  1.2262 -2.4043
 1811TIP3    H2 5398   2.465   1.796   3.360  0.6779  0.2330  0.3278
 1812TIP3   OH2 5399   4.293   1.861   0.615  0.2995  0.0428  0.3832
 1812TIP3    H1 5400   4.332   1.869   0.702  0.4468  0.2753  0.2969
 1812TIP3    H2 5401   4.265   1.950   0.593  0.1771 -0.0321  0.2323
 1813TIP3   OH2 5402   4.105   2.018   4.514  0.1674 -0.1444 -0.1795
 1813TIP3    H1 5403   4.012   2.039   4.518 -0.2530 -2.0455  2.3105
 1813TIP3    H2 5404   4.131   2.005   4.605  3.2514  1.6080 -0.6611
 1814TIP3   OH2 5405   1.645   4.514   2.568 -0.5439 -0.3696 -1.0668
 1814TIP3    H1 5406   1.730   4.559   2.559  0.3598 -1.5678  0.8458
 1814TIP3    H2 5407   1.593   4.572   2.623 -0.1849 -0.5901 -0.4830
 1815TIP3   OH2 5408   4.302   4.710   4.443 -0.1884  0.0138  0.2714
 1815TIP3    H1 5409   4.246   4.756   4.381 -2.2107 -1.1602  1.1238
 1815TIP3    H2 5410   4.264   4.622   4.449  0.4897 -0.1827  2.4622
 1816TIP3   OH2 5411   2.410   5.233   1.117  0.3223 -0.1084 -0.4621
 1816TIP3    H1 5412   2.503   5.235   1.139  0.3021  2.2030 -0.3505
 1816TIP3    H2 5413   2.400   5.301   1.050 -1.3429 -0.0474 -0.1829
 1817TIP3   OH2 5414   4.612   3.514   0.709  0.4651 -0.6111 -0.0553
 1817TIP3    H1 5415   4.543   3.459   0.747 -0.2940  0.1586 -0.3031
 1817TIP3    H2 5416   4.568   3.565   0.642  0.9665  0.9684  0.7834
 1818TIP3   OH2 5417   2.888   2.255   5.044  0.0670 -0.5549  0.6246
 1818TIP3    H1 5418   2.979   2.226   5.050  0.4513 -0.0911 -1.7533
 1818TIP3    H2 5419   2.874   2.269   4.950 -2.2098  0.1997  1.0187
 1819TIP3   OH2 5420   0.734   5.504   3.662 -0.7179 -0.9204 -0.2237
 1819TIP3    H1 5421   0.748   5.486   3.569 -0.5161 -0.3511 -0.3097
 1819TIP3    H2 5422   0.715   5.598   3.665  1.8605 -0.3395  0.5593
 1820TIP3   OH2 5423   3.475   2.927   2.760  0.6045 -0.0888 -0.6372
 1820TIP3    H1 5424   3.486   2.846   2.809 -0.2763 -0.5118 -1.0993
 1820TIP3    H2 5425   3.554   2.934   2.706  0.1469 -1.3313 -1.5340
 1821TIP3   OH2 5426   5.018   2.737   2.301  0.1255 -0.0961  0.0714
 1821TIP3    H1 5427   5.023   2.789   2.221  0.3489 -1.2965 -0.7292
 1821TIP3    H2 5428   5.107   2.739   2.336  0.8414 -2.0556 -1.4046
 1822TIP3   OH2 5429   4.405   3.271   1.866  0.8615 -0.1066  0.1395
 1822TIP3    H1 5430   4.351   3.218   1.924  0.8913 -0.5213 -0.2132
 1822TIP3    H2 5431   4.378   3.361   1.884  1.9734 -0.0692  1.9680
 1823TIP3   OH2 5432   4.069   1.255   5.311  0.0908  0.5349  0.2950
 1823TIP3    H1 5433   4.061   1.330   5.252  0.9884 -0.3876 -1.0951
 1823TIP3    H2 5434   4.151   1.271   5.359 -0.5234  1.1770  1.1577
 1824TIP3   OH2 5435   6.331   4.516   0.961 -0.1403  0.0173 -0.2577
 1824TIP3    H1 5436   6.254   4.473   0.997  0.9092 -1.4804  0.3528
 1824TIP3    H2 5437   6.396   4.511   1.032  1.7509 -2.3220 -1.9605
 1825TIP3   OH2 5438   5.559   4.230   5.503 -0.2602 -0.2490 -0.2283
 1825TIP3    H1 5439   5.512   4.270   5.577  1.7491 -0.0974  1.0226
 1825TIP3    H2 5440   5.489   4.191   5.450 -2.0960  2.4449 -0.0394
 1826TIP3   OH2 5441   6.320   1.386   2.636 -0.0486 -0.0625  0.3051
 1826TIP3    H1 5442   6.242   1.413   2.683 -0.6963 -1.8681  0.3618
 1826TIP3    H2 5443   6.351   1.308   2.684  0.1294 -1.0672 -1.3468
 1827TIP3   OH2 5444   5.075   3.725   0.642 -0.2000  0.1990  0.0602
 1827TIP3    H1 5445   5.170   3.711   0.642  0.5069  3.8552  0.8075
 1827TIP3    H2 5446   5.045   3.683   0.723  1.0090 -0.0421  0.4077
 1828TIP3   OH2 5447   0.634   5.199   2.507  0.1884 -0.0866  0.3220
 1828TIP3    H1 5448   0.675   5.112   2.514  0.7404  0.1167 -0.3077
 1828TIP3    H2 5449   0.690   5.247   2.446 -0.6840  0.3794 -0.1215
 1829TIP3   OH2 5450   6.512   0.062   4.015 -0.1911 -0.1476 -0.2114
 1829TIP3    H1 5451   6.439   0.116   4.046  0.7791  0.5447  0.9737
 1829TIP3    H2 5452   6.559   0.119   3.954 -0.3988 -0.4321 -0.6341
 1830TIP3   OH2 5453   1.833   6.348   5.773 -0.1185  0.4958  0.5370
 1830TIP3    H1 5454   1.910   6.355   5.829 -1.1512 -2.5848  2.5843
 1830TIP3    H2 5455   1.866   6.312   5.691  0.8625  1.2662  0.5676
 1831TIP3   OH2 5456   1.627   3.670   2.525 -0.0934 -0.4717 -0.0760
 1831TIP3    H1 5457   1.550   3.635   2.481  0.3010 -1.6412  0.1147
 1831TIP3    H2 5458   1.655   3.599   2.583  0.7792  0.1558  0.2911
 1832TIP3   OH2 5459   2.920   5.726   0.062  0.6221 -0.3778 -0.1011
 1832TIP3    H1 5460   2.856   5.718   0.133 -1.1260  0.0323 -1.5619
 1832TIP3    H2 5461   2.948   5.637   0.045 -2.1700 -1.0768 -1.6521
 1833TIP3   OH2 5462   4.792   2.291   3.606 -0.2909 -0.4281 -0.2955
 1833TIP3    H1 5463   4.862   2.328   3.660 -1.3671  1.9989 -0.4335
 1833TIP3    H2 5464   4.804   2.196   3.614  2.4100 -0.1261  0.4111
 1834TIP3   OH2 5465   2.068   2.062   2.677  0.1910 -0.1717 -0.1535
 1834TIP3    H1 5466   2.007   2.136   2.668 -0.5950 -0.6735  0.8120
 1834TIP3    H2 5467   2.138   2.082   2.615  1.1142  2.4779  1.5721
 1835TIP3   OH2 5468   1.112   6.445   4.239  0.4913 -0.3648 -0.1175
 1835TIP3    H1 5469   1.134   6.515   4.300  1.5344 -0.8183  0.0421
 1835TIP3    H2 5470   1.047   6.393   4.286  0.0784  0.2072 -0.0418
 1836TIP3   OH2 5471   1.460   4.642   0.447  0.1872  0.2079 -0.2142
 1836TIP3    H1 5472   1.380   4.623   0.398  0.4698  0.8260 -0.9225
 1836TIP3    H2 5473   1.531   4.612   0.390  0.4975  0.3809  0.0757
 1837TIP3   OH2 5474   5.306   1.014   3.272 -0.0460 -0.6591  0.6159
 1837TIP3    H1 5475   5.246   1.088   3.267 -0.1013 -0.6277  1.6389
 1837TIP3    H2 5476   5.311   0.992   3.365  0.7221 -1.3241  0.4351
 1838TIP3   OH2 5477   4.155   0.359   1.035  0.2168 -0.1785  0.1818
 1838TIP3    H1 5478   4.228   0.389   1.090  0.1724  0.9619 -0.3622
 1838TIP3    H2 5479   4.196   0.336   0.951  0.0787 -0.4676  0.1914
 1839TIP3   OH2 5480   2.162   5.505   1.570 -1.0176 -0.4688 -0.2383
 1839TIP3    H1 5481   2.248   5.484   1.608  0.7669  1.2707 -2.9279
 1839TIP3    H2 5482   2.131   5.579   1.623  0.4810  0.6233 -0.7789
 1840TIP3   OH2 5483   5.559   5.291   2.359 -0.3533  0.1859  0.1125
 1840TIP3    H1 5484   5.612   5.269   2.283 -3.7174 -0.4899 -2.2741
 1840TIP3    H2 5485   5.524   5.207   2.389  1.3522  0.3591  2.9037
 1841TIP3   OH2 5486   3.597   4.856   4.295 -0.3151  0.1855 -0.0705
 1841TIP3    H1 5487   3.575   4.765   4.315  1.1027  0.4218  3.1329
 1841TIP3    H2 5488   3.681   4.852   4.251 -0.5964 -0.0686 -0.5927
 1842TIP3   OH2 5489   5.581   3.719   2.109  0.4783 -0.0383 -0.2672
 1842TIP3    H1 5490   5.650   3.785   2.102 -0.9147  1.5631  0.2026
 1842TIP3    H2 5491   5.526   3.734   2.033 -1.4765  1.4101  1.3042
 1843TIP3   OH2 5492   6.316   3.010   5.673  0.3819  0.1850 -0.4705
 1843TIP3    H1 5493   6.282   2.947   5.736 -1.2925  0.3276 -1.1789
 1843TIP3    H2 5494   6.286   3.095   5.706 -0.7543  0.2340 -1.5741
 1844TIP3   OH2 5495   3.105   5.858   3.463 -0.7785 -0.0523  0.2350
 1844TIP3    H1 5496   3.030   5.914   3.443 -1.3844 -1.4686 -1.7673
 1844TIP3    H2 5497   3.130   5.881   3.552 -4.5662 -0.5569  1.5921
 1845TIP3   OH2 5498   6.026   3.710   0.983 -0.7367  0.0430  0.4407
 1845TIP3    H1 5499   6.006   3.751   0.899 -0.3121 -0.9545 -0.1664
 1845TIP3    H2 5500   6.000   3.775   1.048 -0.0658  1.2704 -0.4812
 1846TIP3   OH2 5501   6.020   3.392   1.965 -0.2026 -0.0736  0.0141
 1846TIP3    H1 5502   5.939   3.420   2.006  0.9530  0.5579  1.9656
 1846TIP3    H2 5503   6.039   3.460   1.900 -0.0296  1.0219  1.1916
 1847TIP3   OH2 5504   5.907   4.491   1.857  1.0510 -0.4338  0.3154
 1847TIP3    H1 5505   5.865   4.524   1.778  0.6528  1.1775  1.1590
 1847TIP3    H2 5506   5.956   4.415   1.828  0.3277 -0.3071 -1.3409
 1848TIP3   OH2 5507   3.404   2.425   2.337 -0.1947 -0.8385  0.4580
 1848TIP3    H1 5508   3.452   2.454   2.415  0.2977 -0.7564  0.1283
 1848TIP3    H2 5509   3.444   2.474   2.265  0.2890 -1.9317 -0.0320
 1849TIP3   OH2 5510   0.336   0.980   4.967 -0.4443  0.1923 -0.0059
 1849TIP3    H1 5511   0.351   1.053   4.908  0.9957  0.5106  0.6844
 1849TIP3    H2 5512   0.362   1.013   5.053  1.2506 -1.3908  0.1661
 1850TIP3   OH2 5513   4.733   1.144   0.106 -0.5138  0.4758  0.0720
 1850TIP3    H1 5514   4.773   1.170   0.189 -0.5652  0.4252  0.1129
 1850TIP3    H2 5515   4.667   1.212   0.089 -0.4429  0.5330  0.0294
 1851TIP3   OH2 5516   3.395   3.788   3.460 -0.3780  0.2412 -0.3754
 1851TIP3    H1 5517   3.317   3.750   3.418  0.2140 -1.2203 -0.2196
 1851TIP3    H2 5518   3.360   3.854   3.520 -1.4358  0.1769 -0.8844
 1852TIP3   OH2 5519   0.361   3.139   1.792 -0.5633  0.6167 -0.1941
 1852TIP3    H1 5520   0.448   3.104   1.810 -0.4840  1.2964  0.8200
 1852TIP3    H2 5521   0.339   3.191   1.870 -1.7169  0.7606 -0.5909
 1853TIP3   OH2 5522   6.951   5.219   4.696 -0.5809 -0.0429  0.2620
 1853TIP3    H1 5523   6.893   5.276   4.647  0.1921  0.2029 -0.3902
 1853TIP3    H2 5524   7.038   5.237   4.661 -0.0574 -0.1854  1.4177
 1854TIP3   OH2 5525   4.314   4.612   2.434 -0.1516 -0.1954  0.2251
 1854TIP3    H1 5526   4.354   4.574   2.511 -0.0660 -0.1473  0.2043
 1854TIP3    H2 5527   4.328   4.706   2.443  1.1007 -0.2916 -0.5495
 1855TIP3   OH2 5528   6.619   0.952   0.190  0.0694 -0.2126 -0.2807
 1855TIP3    H1 5529   6.550   0.972   0.127  0.5469  0.3419 -0.6305
 1855TIP3    H2 5530   6.625   0.856   0.189 -2.4252 -0.4953  1.6164
 1856TIP3   OH2 5531   0.570   0.404   2.202  0.4142 -0.0242  0.4292
 1856TIP3    H1 5532   0.504   0.335   2.213  0.9370 -0.5830  0.0842
 1856TIP3    H2 5533   0.523   0.485   2.223 -0.2934 -0.4489  0.5197
 1857TIP3   OH2 5534   6.309   1.099   0.639 -0.3790  0.0616  0.7396
 1857TIP3    H1 5535   6.233   1.149   0.667 -0.3489  1.3618 -1.3006
 1857TIP3    H2 5536   6.366   1.163   0.597  1.1758 -1.1470  0.9040
 1858TIP3   OH2 5537   1.153   2.635   5.332 -0.3920  0.1669 -0.0029
 1858TIP3    H1 5538   1.103   2.614   5.253 -1.7312  1.3985  0.4756
 1858TIP3    H2 5539   1.098   2.606   5.405  0.2712  0.1665  0.5121
 1859TIP3   OH2 5540   6.454   6.100   1.806 -0.5889  0.5185 -0.0485
 1859TIP3    H1 5541   6.507   6.086   1.885 -0.5215  0.4629 -0.1032
 1859TIP3    H2 5542   6.399   6.175   1.827  0.2331  1.2244 -0.3530
 1860TIP3   OH2 5543   1.218   5.545   0.174  0.1840 -0.2196  0.0036
 1860TIP3    H1 5544   1.226   5.577   0.084  1.1710  2.2767  0.8914
 1860TIP3    H2 5545   1.285   5.593   0.223  1.6036 -3.5641  1.6087
 1861TIP3   OH2 5546   0.233   2.509   1.776 -0.4965  0.2340  0.2682
 1861TIP3    H1 5547   0.144   2.544   1.777 -0.4681  0.2870  1.0005
 1861TIP3    H2 5548   0.252   2.497   1.683 -0.0489  3.3801 -0.1628
 1862TIP3   OH2 5549   2.667   6.050   5.856  0.0003 -0.3782  0.4530
 1862TIP3    H1 5550   2.611   5.975   5.836  0.9723 -0.9722 -0.1642
 1862TIP3    H2 5551   2.674   6.097   5.773 -2.4964  1.7913  1.3320
 1863TIP3   OH2 5552   3.815   5.584   2.142  0.3174 -0.1920 -0.3579
 1863TIP3    H1 5553   3.871   5.631   2.204 -0.0706 -2.7614  2.1601
 1863TIP3    H2 5554   3.728   5.620   2.157  0.4207  0.0375 -0.2998
 1864TIP3   OH2 5555   2.843   6.148   2.571 -0.0593 -0.6657  0.5514
 1864TIP3    H1 5556   2.910   6.166   2.636 -0.1184 -0.4072  0.5414
 1864TIP3    H2 5557   2.803   6.065   2.600 -0.0178 -0.6037  0.7862
 1865TIP3   OH2 5558   6.575   0.597   4.129 -0.4570 -0.0498  0.5258
 1865TIP3    H1 5559   6.629   0.644   4.192  2.0471  0.4060 -1.7241
 1865TIP3    H2 5560   6.623   0.515   4.113 -1.4304 -0.4978 -0.2282
 1866TIP3   OH2 5561   6.833   0.328   3.524  0.0925 -0.3037  0.1838
 1866TIP3    H1 5562   6.773   0.298   3.592 -0.4883 -1.2142 -0.7165
 1866TIP3    H2 5563   6.782   0.326   3.443  1.3944 -1.3612 -0.6490
 1867TIP3   OH2 5564   3.566   4.622   3.995  0.3024  0.6217 -0.1005
 1867TIP3    H1 5565   3.531   4.617   3.906 -0.7791 -0.8931  0.3600
 1867TIP3    H2 5566   3.656   4.652   3.984  0.2018  0.4252 -1.7114
 1868TIP3   OH2 5567   1.334   3.717   3.311  0.2212  0.0729  0.0387
 1868TIP3    H1 5568   1.358   3.745   3.223 -1.3879  0.9551 -0.1441
 1868TIP3    H2 5569   1.363   3.790   3.368  3.0168 -1.2894  0.5668
 1869TIP3   OH2 5570   3.185   3.001   0.504  0.0255  0.1248  0.0164
 1869TIP3    H1 5571   3.197   2.936   0.434  0.1050  1.2674 -1.0755
 1869TIP3    H2 5572   3.090   3.005   0.517 -0.1146  0.9496 -1.0927
 1870TIP3   OH2 5573   4.941   2.465   5.743  0.1912  0.0119 -0.0396
 1870TIP3    H1 5574   4.910   2.485   5.654  0.5568 -1.0503 -0.4205
 1870TIP3    H2 5575   4.993   2.541   5.768 -1.2834  1.0647 -0.0691
 1871TIP3   OH2 5576   2.258   0.896   2.702 -0.0295  0.1622  0.3174
 1871TIP3    H1 5577   2.300   0.869   2.621 -0.0845  0.3071  0.2412
 1871TIP3    H2 5578   2.266   0.820   2.760  1.1283  0.4749  0.6064
 1872TIP3   OH2 5579   0.515   2.436   1.099  0.7629  0.6298 -0.1756
 1872TIP3    H1 5580   0.491   2.469   1.185  1.3936  0.4785  0.0649
 1872TIP3    H2 5581   0.437   2.448   1.045 -0.8552 -2.3243  1.2470
 1873TIP3   OH2 5582   6.954   4.730   1.734  0.1705 -0.3968  0.5186
 1873TIP3    H1 5583   7.032   4.743   1.680  0.3304  1.6615  1.1531
 1873TIP3    H2 5584   6.988   4.714   1.822  0.0065  2.8840  1.3153
 1874TIP3   OH2 5585   4.449   5.095   3.755 -0.0419 -0.2141 -0.0863
 1874TIP3    H1 5586   4.427   5.121   3.665 -2.3836 -1.0834  0.1472
 1874TIP3    H2 5587   4.381   5.031   3.778 -0.9177  1.6454  3.0766
 1875TIP3   OH2 5588   3.637   2.514   0.140 -0.2911  0.8742 -0.3893
 1875TIP3    H1 5589   3.591   2.562   0.208 -1.3317  1.7162 -1.6297
 1875TIP3    H2 5590   3.607   2.554   0.058  0.9781 -0.0377 -1.3456
 1876TIP3   OH2 5591   5.137   6.191   4.914 -0.2107 -0.7324 -0.2455
 1876TIP3    H1 5592   5.104   6.210   5.002  0.3922 -1.0358  0.0513
 1876TIP3    H2 5593   5.190   6.268   4.892 -0.2842 -0.6988 -0.3041
 1877TIP3   OH2 5594   5.363   5.661   2.153  0.1924  0.2733 -0.7253
 1877TIP3    H1 5595   5.353   5.701   2.240  0.2218  0.9013 -1.0059
 1877TIP3    H2 5596   5.352   5.734   2.092  2.3810  0.2846 -1.1901
 1878TIP3   OH2 5597   4.971   6.160   1.668  0.0554 -0.3180 -0.7616
 1878TIP3    H1 5598   4.990   6.096   1.736 -1.1095 -0.4969 -0.5972
 1878TIP3    H2 5599   4.967   6.244   1.714  2.7993  0.1340 -1.1391
 1879TIP3   OH2 5600   5.296   1.978   0.150  0.1978  0.0502  0.5871
 1879TIP3    H1 5601   5.371   1.919   0.147 -0.6899 -1.0907 -0.1961
 1879TIP3    H2 5602   5.248   1.960   0.069 -0.8172  0.8946  0.9761
 1880TIP3   OH2 5603   4.530   2.131   3.473  0.6179 -0.2841 -0.1592
 1880TIP3    H1 5604   4.585   2.165   3.545 -0.2304  0.7387  0.0320
 1880TIP3    H2 5605   4.447   2.111   3.515  0.0172  0.5985 -0.8940
 1881TIP3   OH2 5606   1.340   2.643   2.645  0.1887  0.1659 -0.4845
 1881TIP3    H1 5607   1.431   2.615   2.655 -0.0531 -0.7494 -0.7421
 1881TIP3    H2 5608   1.330   2.660   2.551  0.3019  1.0627 -0.3497
 1882TIP3   OH2 5609   4.921   4.526   4.301 -0.6364  0.0193 -0.5765
 1882TIP3    H1 5610   4.870   4.455   4.262  0.2560 -2.4139  2.3342
 1882TIP3    H2 5611   5.006   4.486   4.320  0.5438  2.4293 -0.4370
 1883TIP3   OH2 5612   6.522   3.892   1.881  0.0030 -0.2538  0.4164
 1883TIP3    H1 5613   6.447   3.921   1.933  0.3616  0.1428  0.7178
 1883TIP3    H2 5614   6.531   3.958   1.813  1.0875  0.6170  1.3606
 1884TIP3   OH2 5615   5.324   1.117   0.281  0.0040 -0.0755 -0.2042
 1884TIP3    H1 5616   5.262   1.109   0.354  1.2909  1.7591  1.1659
 1884TIP3    H2 5617   5.294   1.051   0.217 -1.1824 -1.7425  1.9341
 1885TIP3   OH2 5618   0.148   3.121   3.199  0.4078 -0.0620  0.1424
 1885TIP3    H1 5619   0.148   3.217   3.201 -0.3946 -0.0148 -1.1916
 1885TIP3    H2 5620   0.215   3.098   3.135 -1.0196 -0.2962 -1.3284
 1886TIP3   OH2 5621   1.336   2.883   0.676  0.3601 -0.2884  0.0137
 1886TIP3    H1 5622   1.327   2.950   0.607  1.4065 -0.5016 -0.3417
 1886TIP3    H2 5623   1.275   2.911   0.744 -2.0374 -1.0083 -1.7080
 1887TIP3   OH2 5624   3.981   5.475   1.780  0.1690 -0.2038  0.0578
 1887TIP3    H1 5625   3.991   5.493   1.686  0.9342  0.2651  0.2237
 1887TIP3    H2 5626   3.930   5.548   1.813 -0.4595 -0.5787 -0.0567
 1888TIP3   OH2 5627   1.822   3.813   5.863 -0.7254  0.1195  0.0123
 1888TIP3    H1 5628   1.835   3.874   5.791  0.2100 -0.1983 -0.0986
 1888TIP3    H2 5629   1.813   3.868   5.940 -1.4551  0.4512 -0.2976
 1889TIP3   OH2 5630   1.997   1.175   5.010  0.1372  0.3653  0.1240
 1889TIP3    H1 5631   2.079   1.218   4.988 -0.0426  0.2509 -0.8330
 1889TIP3    H2 5632   1.989   1.185   5.105  1.4900 -0.0549  0.3006
 1890TIP3   OH2 5633   0.064   6.317   5.550  0.0464  0.7860 -0.1123
 1890TIP3    H1 5634  -0.016   6.307   5.499  0.3160  0.4045 -0.4762
 1890TIP3    H2 5635   0.084   6.228   5.581  0.2940  0.8857  0.0215
 1891TIP3   OH2 5636   5.365   1.014   1.401 -0.1828 -0.1922 -0.4898
 1891TIP3    H1 5637   5.416   0.975   1.472 -1.3672 -1.6158 -0.3762
 1891TIP3    H2 5638   5.378   0.956   1.327  2.4938  2.2269 -2.1233
 1892TIP3   OH2 5639   3.335   5.323   0.404  0.0446 -0.1097  0.2027
 1892TIP3    H1 5640   3.273   5.305   0.476  0.6759 -2.3358  0.2606
 1892TIP3    H2 5641   3.420   5.327   0.447  0.1293  1.6899 -0.0542
 1893TIP3   OH2 5642   3.483   3.002   0.919 -0.4577  0.2248 -0.3986
 1893TIP3    H1 5643   3.524   2.964   0.997  1.0250 -0.4890 -1.4739
 1893TIP3    H2 5644   3.403   3.043   0.951 -0.5736 -1.2199  1.2851
 1894TIP3   OH2 5645   0.095   1.846   0.322 -0.3256  0.2223 -0.6836
 1894TIP3    H1 5646   0.032   1.784   0.358 -0.2124  1.3063  1.4998
 1894TIP3    H2 5647   0.175   1.831   0.372  0.9300 -0.4694 -2.7669
 1895TIP3   OH2 5648   3.156   2.439   4.408 -0.0610 -0.3475 -0.2005
 1895TIP3    H1 5649   3.113   2.384   4.344 -0.4743 -0.1203 -0.1226
 1895TIP3    H2 5650   3.207   2.379   4.463 -0.7708 -0.6843  0.0921
 1896TIP3   OH2 5651   5.994   5.098   5.587 -0.0461  0.0836  0.2717
 1896TIP3    H1 5652   6.015   5.006   5.574 -2.4674 -0.3992 -0.7553
 1896TIP3    H2 5653   5.972   5.131   5.500 -1.3052  1.0379  0.9100
 1897TIP3   OH2 5654   6.695   6.135   0.841  0.0387 -0.4623 -0.5165
 1897TIP3    H1 5655   6.672   6.074   0.911 -1.4897 -0.6837 -1.1759
 1897TIP3    H2 5656   6.635   6.208   0.853  0.3763 -0.0927 -1.0597
 1898TIP3   OH2 5657   1.278   1.695   4.768 -0.0523 -0.0373 -0.4586
 1898TIP3    H1 5658   1.286   1.685   4.863  0.2285  1.6887 -0.2706
 1898TIP3    H2 5659   1.184   1.684   4.751 -0.0556 -0.7385 -0.0551
 1899TIP3   OH2 5660   0.997   1.448   0.597  0.5823 -0.2122  0.0937
 1899TIP3    H1 5661   1.044   1.395   0.661  0.1728 -0.4755  0.1849
 1899TIP3    H2 5662   1.061   1.511   0.565  0.5321  0.5925  1.5058
 1900TIP3   OH2 5663   7.048   0.060   3.531  0.2981  0.0657  0.5128
 1900TIP3    H1 5664   7.045   0.109   3.613  2.8422 -0.1551  0.8415
 1900TIP3    H2 5665   7.072  -0.029   3.557 -0.4076 -0.3909 -0.3597
 1901TIP3   OH2 5666   1.516   3.731   4.309 -0.0330 -0.4721  0.0789
 1901TIP3    H1 5667   1.427   3.767   4.312  0.7961  1.8478 -1.0928
 1901TIP3    H2 5668   1.522   3.689   4.223  0.7246  1.5232 -0.8874
 1902TIP3   OH2 5669   3.607   4.028   3.082  0.0720  0.4951  0.2674
 1902TIP3    H1 5670   3.653   3.945   3.065 -1.5409 -0.6196  1.0888
 1902TIP3    H2 5671   3.553   4.042   3.004 -0.8408 -0.0779  0.7831
 1903TIP3   OH2 5672   0.434   3.833   3.096 -0.0826 -0.3522 -0.4025
 1903TIP3    H1 5673   0.391   3.918   3.084 -2.1668 -1.0764  1.3648
 1903TIP3    H2 5674   0.516   3.854   3.142 -1.0667  0.6500  0.9763
 1904TIP3   OH2 5675   1.862   3.571   5.727  0.3277  0.0491  0.5890
 1904TIP3    H1 5676   1.832   3.662   5.736  1.7563  0.4389  1.8278
 1904TIP3    H2 5677   1.851   3.534   5.814  2.4360 -0.0827  0.8303
 1905TIP3   OH2 5678   6.350   3.085   3.433 -0.0837 -0.4948  0.3450
 1905TIP3    H1 5679   6.410   3.147   3.475  1.5490 -1.4226 -0.5268
 1905TIP3    H2 5680   6.283   3.141   3.393  1.6086  0.8024 -0.8608
 1906TIP3   OH2 5681   0.610   0.308   0.601  0.2099 -0.1165  0.0853
 1906TIP3    H1 5682   0.661   0.338   0.676 -0.1218 -0.8084  0.5937
 1906TIP3    H2 5683   0.636   0.367   0.530  1.7323 -0.4655  0.3169
 1907TIP3   OH2 5684   0.589   5.375   1.034  0.0007  0.7286  0.1627
 1907TIP3    H1 5685   0.619   5.297   0.987 -0.5040 -0.1706  1.2899
 1907TIP3    H2 5686   0.511   5.403   0.987 -1.7848 -1.4437  1.6091
 1908TIP3   OH2 5687   3.383   4.924   5.546  0.1318 -0.4215 -0.4857
 1908TIP3    H1 5688   3.449   4.854   5.543  0.0162 -0.4931 -1.7109
 1908TIP3    H2 5689   3.344   4.923   5.459  2.1030  3.0766 -1.5930
 1909TIP3   OH2 5690   0.827   5.036   2.000 -0.0948 -0.0587  0.0095
 1909TIP3    H1 5691   0.780   5.115   1.972 -1.0117 -0.1385  1.2191
 1909TIP3    H2 5692   0.883   5.067   2.072  1.4389 -0.0463 -1.1464
 1910TIP3   OH2 5693   6.547   1.236   0.800  0.1279  0.2806 -0.0920
 1910TIP3    H1 5694   6.473   1.285   0.835 -0.1765  0.5100 -1.0358
 1910TIP3    H2 5695   6.538   1.242   0.705  0.8608 -0.4392 -0.2237
 1911TIP3   OH2 5696   2.320   2.656   0.218  0.4832 -0.2200 -0.3054
 1911TIP3    H1 5697   2.260   2.711   0.166  0.2186  1.4400  1.6440
 1911TIP3    H2 5698   2.398   2.648   0.163 -0.6369 -0.5631 -1.9546
 1912TIP3   OH2 5699   3.640   4.119   0.750 -0.0581  0.2391  0.6306
 1912TIP3    H1 5700   3.655   4.095   0.658  2.1581  1.5892  0.5788
 1912TIP3    H2 5701   3.628   4.214   0.749 -2.2028  0.0475  1.5612
 1913TIP3   OH2 5702   6.436   4.827   5.421  0.1685  0.1389 -0.1078
 1913TIP3    H1 5703   6.480   4.782   5.494  1.5575  0.5607 -0.6438
 1913TIP3    H2 5704   6.506   4.877   5.378 -0.7411  0.3975 -1.3524
 1914TIP3   OH2 5705   5.028   4.584   0.007 -0.2805 -0.0069  0.4052
 1914TIP3    H1 5706   4.933   4.597   0.012 -0.3791 -0.6062  0.2120
 1914TIP3    H2 5707   5.064   4.643   0.072 -0.8022  0.1122  0.5915
 1915TIP3   OH2 5708   1.849   2.349   5.516 -0.3060  0.0202 -0.2541
 1915TIP3    H1 5709   1.883   2.362   5.428 -0.2209 -0.0282 -0.2279
 1915TIP3    H2 5710   1.895   2.414   5.569  2.0880 -2.0454  0.4031
 1916TIP3   OH2 5711   5.042   4.360   1.626 -0.2753 -0.5570 -0.0894
 1916TIP3    H1 5712   5.056   4.446   1.587  0.1059 -0.5223  0.1231
 1916TIP3    H2 5713   5.128   4.318   1.622 -0.5733 -1.1369 -0.6982
 1917TIP3   OH2 5714   2.136   4.969   4.358 -0.1389  0.2453 -0.4748
 1917TIP3    H1 5715   2.182   5.014   4.429  1.9802 -2.3780 -0.0087
 1917TIP3    H2 5716   2.047   4.957   4.392 -0.3871  2.6851 -0.0686
 1918TIP3   OH2 5717   4.336   2.901   3.840  0.0559 -0.2217  0.3714
 1918TIP3    H1 5718   4.372   2.848   3.769  1.5179 -0.0475  0.9319
 1918TIP3    H2 5719   4.397   2.976   3.846  0.1380 -0.3876  1.9798
 1919TIP3   OH2 5720   1.919   0.747   1.277  0.4035 -0.1663  0.1065
 1919TIP3    H1 5721   1.968   0.758   1.196  0.1535  0.0772 -0.0141
 1919TIP3    H2 5722   1.855   0.679   1.258  0.4592 -0.2315  0.1525
 1920TIP3   OH2 5723   0.741   5.039   5.015  0.1679  0.1383 -0.2361
 1920TIP3    H1 5724   0.669   5.066   5.072  0.9515 -0.1662  0.9208
 1920TIP3    H2 5725   0.817   5.036   5.072  0.7834 -1.1764 -1.0844
 1921TIP3   OH2 5726   6.299   5.095   4.571  0.1525 -0.3090  0.4280
 1921TIP3    H1 5727   6.363   5.060   4.509  2.6342  0.9726  2.0385
 1921TIP3    H2 5728   6.240   5.022   4.589  2.6223 -2.4467  0.5750
 1922TIP3   OH2 5729   0.733   3.563   5.035 -0.2488 -0.7352  0.1481
 1922TIP3    H1 5730   0.788   3.619   4.980 -0.4595 -0.9759 -0.3109
 1922TIP3    H2 5731   0.795   3.505   5.078 -0.0680 -0.4418  0.2871
 1923TIP3   OH2 5732   1.803   3.709   0.184 -0.3109 -0.1660  0.5383
 1923TIP3    H1 5733   1.890   3.746   0.169 -0.7952  0.6238 -0.4975
 1923TIP3    H2 5734   1.811   3.617   0.160 -0.0416  0.1743 -0.7225
 1924TIP3   OH2 5735   0.524   2.424   2.709  0.2340  0.4637 -0.1020
 1924TIP3    H1 5736   0.580   2.423   2.631 -2.2235 -0.3472 -2.0089
 1924TIP3    H2 5737   0.497   2.515   2.719  2.4229  1.0339  1.3624
 1925TIP3   OH2 5738   5.184   2.645   5.717  0.1971 -0.0937 -0.2757
 1925TIP3    H1 5739   5.156   2.649   5.809 -0.4861 -0.3070 -0.4674
 1925TIP3    H2 5740   5.145   2.722   5.676  1.1622  0.4373 -0.2220
 1926TIP3   OH2 5741   0.267   4.634   1.660 -0.5518  0.9652 -0.2283
 1926TIP3    H1 5742   0.289   4.650   1.752 -3.3986 -0.2772  0.7981
 1926TIP3    H2 5743   0.289   4.716   1.616  0.8344  1.6271  1.5489
 1927TIP3   OH2 5744   5.334   0.578   1.809  0.2897 -0.2291 -0.2133
 1927TIP3    H1 5745   5.322   0.658   1.859  0.1355 -0.0602 -0.5189
 1927TIP3    H2 5746   5.277   0.513   1.851  0.6396 -0.2639  0.2175
 1928TIP3   OH2 5747   3.805   6.704   2.753 -0.7859 -0.5312 -0.0828
 1928TIP3    H1 5748   3.771   6.729   2.839 -3.5993 -1.8262 -0.6930
 1928TIP3    H2 5749   3.812   6.787   2.705  0.2945  0.1414  1.1824
 1929TIP3   OH2 5750   3.055   0.513   3.881 -0.9709  0.5072 -0.2979
 1929TIP3    H1 5751   3.133   0.527   3.933 -1.2671  2.5116 -0.3259
 1929TIP3    H2 5752   2.995   0.467   3.940  0.9079 -3.2256 -0.9679
 1930TIP3   OH2 5753   7.218   0.676   1.695 -1.1467 -0.1246 -0.1762
 1930TIP3    H1 5754   7.196   0.720   1.777 -0.5721 -1.2624  0.6069
 1930TIP3    H2 5755   7.167   0.723   1.629 -1.1812  1.1713  0.7389
 1931TIP3   OH2 5756   0.904   5.587   2.923  0.1267 -0.3227  0.1800
 1931TIP3    H1 5757   0.923   5.608   2.832 -1.4414  1.4722  0.2093
 1931TIP3    H2 5758   0.864   5.500   2.919 -1.2084  0.3083 -1.0461
 1932TIP3   OH2 5759   6.230   6.424   1.318  0.2202  0.1000 -0.4513
 1932TIP3    H1 5760   6.315   6.455   1.286  1.1502 -2.1486 -0.3784
 1932TIP3    H2 5761   6.176   6.503   1.324  1.9395  1.4411 -1.5847
 1933TIP3   OH2 5762   1.688   2.561   1.967 -0.7142 -0.0037 -0.1492
 1933TIP3    H1 5763   1.634   2.614   2.026 -3.1392 -1.6281 -0.7388
 1933TIP3    H2 5764   1.777   2.595   1.979 -1.4484  1.2677  2.6565
 1934TIP3   OH2 5765   4.837   4.529   1.297  0.0664  0.4468  0.1633
 1934TIP3    H1 5766   4.788   4.461   1.345  0.5842  0.2527  0.4251
 1934TIP3    H2 5767   4.831   4.502   1.205 -1.0584  0.8992  0.0832
 1935TIP3   OH2 5768   5.549  -0.023   2.849  0.1550 -0.3695  0.2662
 1935TIP3    H1 5769   5.480  -0.021   2.783  1.0607 -0.8817 -0.7126
 1935TIP3    H2 5770   5.537   0.058   2.899 -0.2387  0.2745 -0.8427
 1936TIP3   OH2 5771   1.212   5.826   3.401  0.0576  0.2143 -0.1735
 1936TIP3    H1 5772   1.239   5.891   3.336 -2.3868  0.3925 -1.1411
 1936TIP3    H2 5773   1.155   5.766   3.352 -0.6319 -0.5401  1.4779
 1937TIP3   OH2 5774   2.152   3.556   4.067 -0.1277 -0.1990  0.5103
 1937TIP3    H1 5775   2.083   3.503   4.026  0.2627  0.7533 -1.4924
 1937TIP3    H2 5776   2.229   3.499   4.067 -0.0447 -0.0917 -0.4129
 1938TIP3   OH2 5777   3.221   5.878   2.023 -0.2201  0.7502 -0.0790
 1938TIP3    H1 5778   3.156   5.939   1.987 -0.6012  0.2807 -0.1991
 1938TIP3    H2 5779   3.266   5.928   2.091 -0.6004  1.1343 -0.1036
 1939TIP3   OH2 5780   6.365   1.493   4.303  0.0923  0.1234 -0.1214
 1939TIP3    H1 5781   6.355   1.588   4.310  1.3039  0.3223 -0.7441
 1939TIP3    H2 5782   6.411   1.468   4.383  1.4316  0.3584 -0.7829
 1940TIP3   OH2 5783   5.567   5.485   2.091  0.3308 -0.4083 -0.0454
 1940TIP3    H1 5784   5.593   5.574   2.066 -1.5425  0.9251  2.2102
 1940TIP3    H2 5785   5.477   5.495   2.123  0.1686 -3.0787  0.5656
 1941TIP3   OH2 5786   5.013   1.193   5.792 -0.0699 -0.0256 -0.4459
 1941TIP3    H1 5787   5.008   1.268   5.732  0.7561 -1.4537 -2.4398
 1941TIP3    H2 5788   5.105   1.166   5.789 -0.3935 -1.2653  0.0022
 1942TIP3   OH2 5789   6.054   0.210   4.902  0.0179  0.6679 -0.1912
 1942TIP3    H1 5790   6.026   0.129   4.945 -1.1542  0.9606 -0.3652
 1942TIP3    H2 5791   6.148   0.216   4.921  0.2142 -0.9210 -0.4883
 1943TIP3   OH2 5792   4.468   6.460   4.659  0.0591  0.0293 -0.3368
 1943TIP3    H1 5793   4.380   6.439   4.628  1.0322  0.0507 -3.3781
 1943TIP3    H2 5794   4.510   6.375   4.671 -0.4370  0.0046  1.5181
 1944TIP3   OH2 5795   6.592   2.501   0.466  0.2582 -0.0786  0.1437
 1944TIP3    H1 5796   6.627   2.451   0.393  0.7499  0.0474  0.2877
 1944TIP3    H2 5797   6.613   2.592   0.446 -1.1570  0.1491 -0.4073
 1945TIP3   OH2 5798   0.263   4.472   4.779 -0.0473  0.2210  0.2526
 1945TIP3    H1 5799   0.202   4.481   4.853 -0.6909  0.8891 -0.3371
 1945TIP3    H2 5800   0.209   4.442   4.707 -0.0587  2.4132 -0.7285
 1946TIP3   OH2 5801   0.152   0.722   0.891 -0.0193 -0.2007 -0.2360
 1946TIP3    H1 5802   0.068   0.762   0.916 -0.6266 -1.6442  0.1334
 1946TIP3    H2 5803   0.172   0.662   0.963  0.6776 -0.8224 -0.9299
 1947TIP3   OH2 5804   0.135   0.333   4.673 -0.6863  0.0840  0.5253
 1947TIP3    H1 5805   0.051   0.330   4.628 -0.3008 -0.9969 -0.1715
 1947TIP3    H2 5806   0.114   0.335   4.766 -1.4970 -1.9694  0.4364
 1948TIP3   OH2 5807   5.668   3.073   3.090 -0.7029  0.9585  0.0029
 1948TIP3    H1 5808   5.719   3.099   3.166 -0.0048  1.1683 -0.5222
 1948TIP3    H2 5809   5.606   3.008   3.123  0.1546  0.4254  0.5966
 1949TIP3   OH2 5810   1.766   2.510   4.822  0.6803 -0.2745  0.5751
 1949TIP3    H1 5811   1.678   2.525   4.855  0.3520 -2.4108  0.7855
 1949TIP3    H2 5812   1.767   2.553   4.737 -0.6468 -0.4245  0.4604
 1950TIP3   OH2 5813   5.675   0.163   2.011  0.1190  0.0102 -0.2539
 1950TIP3    H1 5814   5.606   0.229   2.005 -2.0486 -2.0195  0.6176
 1950TIP3    H2 5815   5.707   0.168   2.101  1.6355  1.3727 -0.8290
 1951TIP3   OH2 5816   4.561   3.745   2.383 -0.4210 -0.4235  0.7321
 1951TIP3    H1 5817   4.575   3.806   2.456  2.3809  0.0049 -0.0378
 1951TIP3    H2 5818   4.648   3.710   2.365 -0.7189  0.4402 -3.2186
 1952TIP3   OH2 5819   0.295   1.122   1.464 -0.6119  0.0103 -0.6156
 1952TIP3    H1 5820   0.384   1.111   1.430 -1.0405 -0.2555 -1.6907
 1952TIP3    H2 5821   0.278   1.216   1.459 -0.5574  0.0087 -0.8630
 1953TIP3   OH2 5822   4.119   5.396   1.130  0.0166  0.0411 -0.5929
 1953TIP3    H1 5823   4.114   5.302   1.143  0.4648  0.1329  0.3068
 1953TIP3    H2 5824   4.207   5.412   1.096  0.6259  0.3145  1.0457
 1954TIP3   OH2 5825   3.804   0.094   0.251  0.1875 -0.3085 -0.0000
 1954TIP3    H1 5826   3.851   0.158   0.196 -0.3186  1.8742  1.9301
 1954TIP3    H2 5827   3.861   0.082   0.327 -1.0111  0.0672  0.9812
 1955TIP3   OH2 5828   3.250   1.717   3.728 -0.1828  0.3579  0.2038
 1955TIP3    H1 5829   3.329   1.713   3.782 -0.5993 -0.5971  0.7749
 1955TIP3    H2 5830   3.231   1.810   3.721  1.8775  0.7205 -1.2920
 1956TIP3   OH2 5831   3.520   3.804   1.832 -0.1884 -0.4420  0.1661
 1956TIP3    H1 5832   3.454   3.851   1.883  0.0477  0.1241 -0.0326
 1956TIP3    H2 5833   3.471   3.738   1.784 -0.6099 -0.0377  0.0328
 1957TIP3   OH2 5834   1.721   0.970   1.492 -0.3687 -0.2666  0.8038
 1957TIP3    H1 5835   1.810   0.969   1.529  0.0418 -1.3539 -0.1389
 1957TIP3    H2 5836   1.684   1.053   1.521  0.6489 -0.1751  1.9324
 1958TIP3   OH2 5837   6.940   2.175   4.644  0.7606 -0.6240  0.2374
 1958TIP3    H1 5838   6.886   2.105   4.681  1.3470 -0.8092  0.7597
 1958TIP3    H2 5839   6.878   2.231   4.599  0.2981 -1.5953 -0.3798
 1959TIP3   OH2 5840   3.374   3.519   2.564  0.1389 -0.1001 -0.6431
 1959TIP3    H1 5841   3.362   3.445   2.624  2.2258 -0.4890 -0.6237
 1959TIP3    H2 5842   3.318   3.499   2.489 -0.0546 -1.2245 -0.2189
 1960TIP3   OH2 5843   1.586   6.679   0.389 -0.5505 -0.3496 -0.7188
 1960TIP3    H1 5844   1.654   6.698   0.325  0.3879  0.1494  0.3953
 1960TIP3    H2 5845   1.633   6.652   0.468 -1.6693 -0.7824 -0.1796
 1961TIP3   OH2 5846   5.423   5.112   3.499  0.3112  0.3603 -0.0032
 1961TIP3    H1 5847   5.386   5.037   3.453  2.9075 -1.6285  0.9079
 1961TIP3    H2 5848   5.404   5.094   3.591  2.6926 -0.3395  0.4133
 1962TIP3   OH2 5849   1.936   2.739   0.686  0.0986  0.4646  0.1506
 1962TIP3    H1 5850   1.984   2.819   0.705  0.4229 -0.2161  2.6519
 1962TIP3    H2 5851   1.957   2.719   0.595  2.6248  1.4902  0.4208
 1963TIP3   OH2 5852   3.990   2.649   1.982  0.2981 -0.2154  0.1890
 1963TIP3    H1 5853   4.025   2.674   1.896  2.7531  1.0980  1.4483
 1963TIP3    H2 5854   3.904   2.692   1.986  0.2787 -0.0220 -1.4699
 1964TIP3   OH2 5855   3.768   4.074   4.024 -0.7301 -0.1732  0.2216
 1964TIP3    H1 5856   3.752   4.147   4.084  0.9627  1.1927 -0.9100
 1964TIP3    H2 5857   3.829   4.017   4.070 -1.7701 -0.7105  0.9626
 1965TIP3   OH2 5858   0.611   4.691   0.487  0.0858 -0.8713 -0.3488
 1965TIP3    H1 5859   0.635   4.677   0.396  2.2719  0.4817 -0.0629
 1965TIP3    H2 5860   0.659   4.770   0.513 -3.1547  0.8198  1.0403
 1966TIP3   OH2 5861   1.346   6.633   0.531  0.0398 -0.1781 -0.0188
 1966TIP3    H1 5862   1.412   6.702   0.521 -1.8991  1.7231 -0.5103
 1966TIP3    H2 5863   1.341   6.618   0.626 -0.3708  1.3376  0.2404
 1967TIP3   OH2 5864   4.818   2.442   0.090 -0.7891  0.5043 -0.1344
 1967TIP3    H1 5865   4.743   2.433   0.032  0.8466 -0.5972 -2.1891
 1967TIP3    H2 5866   4.866   2.517   0.056  0.5689 -0.5900 -0.7414
 1968TIP3   OH2 5867   1.807   6.152   0.257  0.8618  0.1926 -0.2383
 1968TIP3    H1 5868   1.729   6.101   0.280  1.1857  0.0569  0.6179
 1968TIP3    H2 5869   1.784   6.196   0.175  0.2160 -0.5566 -0.4772
 1969TIP3   OH2 5870   3.800   2.035   3.373 -0.0505  0.1275  0.7193
 1969TIP3    H1 5871   3.854   1.958   3.391  1.3914  0.5979 -1.2040
 1969TIP3    H2 5872   3.855   2.109   3.401 -0.8376  0.5197  1.2444
 1970TIP3   OH2 5873   1.304   3.325   5.525  0.1868  0.3624  0.7523
 1970TIP3    H1 5874   1.294   3.338   5.431 -0.8413 -0.1053  0.7807
 1970TIP3    H2 5875   1.399   3.320   5.539  0.3422  0.2362 -0.2862
 1971TIP3   OH2 5876   1.241   0.047   4.325  0.0133  0.0093  0.1351
 1971TIP3    H1 5877   1.263  -0.046   4.324 -1.8092 -0.5132  1.4378
 1971TIP3    H2 5878   1.298   0.085   4.391  1.1412 -0.0578 -0.7845
 1972TIP3   OH2 5879   1.462   5.311   5.757  0.7410  0.1479  0.1952
 1972TIP3    H1 5880   1.473   5.219   5.735 -0.7899  0.1714 -0.9079
 1972TIP3    H2 5881   1.427   5.350   5.677 -2.1804  0.9036  1.6809
 1973TIP3   OH2 5882   1.108   2.324   4.162  0.0788 -0.6169 -0.4500
 1973TIP3    H1 5883   1.056   2.380   4.219  0.3645 -0.2065 -0.5915
 1973TIP3    H2 5884   1.196   2.327   4.198  0.0415 -1.2018 -0.2950
 1974TIP3   OH2 5885   0.481   0.690   4.180  0.1582 -0.7940 -0.0908
 1974TIP3    H1 5886   0.473   0.634   4.258 -0.4375 -0.0712  0.3825
 1974TIP3    H2 5887   0.475   0.779   4.214  3.4777 -0.2758 -0.5170
 1975TIP3   OH2 5888   1.479   4.694   5.577  0.5526  0.2126  0.7227
 1975TIP3    H1 5889   1.391   4.657   5.570  0.8135 -0.2623 -0.1424
 1975TIP3    H2 5890   1.517   4.652   5.654  0.2571 -0.0786  0.7116
 1976TIP3   OH2 5891   0.967   4.779   3.212 -0.1277  0.1335 -0.2336
 1976TIP3    H1 5892   0.993   4.829   3.290 -0.0481 -0.6499  0.2588
 1976TIP3    H2 5893   1.048   4.736   3.183 -0.0464  0.8196 -1.0621
 1977TIP3   OH2 5894   2.772   1.090   5.205  0.0408  0.4585  0.4942
 1977TIP3    H1 5895   2.806   1.000   5.211  0.0785  0.3384 -0.9804
 1977TIP3    H2 5896   2.803   1.121   5.120  1.0540  2.3238  1.4707
 1978TIP3   OH2 5897   0.404   6.781   1.620  0.8329 -0.2271  0.0495
 1978TIP3    H1 5898   0.438   6.704   1.664 -0.5728 -0.2441  1.1745
 1978TIP3    H2 5899   0.345   6.747   1.553 -0.0581 -0.1462  0.7767
 1979TIP3   OH2 5900   6.025   5.940   0.957 -0.2125  0.4940 -0.4624
 1979TIP3    H1 5901   6.007   5.857   1.002  1.3245 -0.0533 -0.7825
 1979TIP3    H2 5902   6.063   5.914   0.873 -0.2844  1.5237 -0.8234
 1980TIP3   OH2 5903   3.640   2.569   5.334 -0.3499 -0.5982 -0.2336
 1980TIP3    H1 5904   3.723   2.531   5.306  0.3522  1.2800 -0.8904
 1980TIP3    H2 5905   3.648   2.576   5.429  1.0494  1.1901 -0.4254
 1981TIP3   OH2 5906   6.951   3.479   4.309 -0.2936 -0.0798 -0.1108
 1981TIP3    H1 5907   7.003   3.446   4.383 -0.4551 -2.6287 -1.0329
 1981TIP3    H2 5908   6.885   3.412   4.294  0.5544 -0.3637 -3.3758
 1982TIP3   OH2 5909   0.371   6.357   5.221  0.1341  0.0808 -0.4958
 1982TIP3    H1 5910   0.445   6.394   5.174  0.3087 -0.2674 -0.5005
 1982TIP3    H2 5911   0.370   6.403   5.305 -0.3105  0.8552 -0.9129
 1983TIP3   OH2 5912   6.181   3.706   5.635  0.0447 -0.0577  0.4901
 1983TIP3    H1 5913   6.094   3.692   5.671 -0.1811 -0.1153 -0.0765
 1983TIP3    H2 5914   6.236   3.726   5.712 -0.6374  0.8259  0.7636
 1984TIP3   OH2 5915   2.783   1.756   3.077 -0.1840  0.0344  0.1321
 1984TIP3    H1 5916   2.852   1.793   3.132  0.5624 -1.6295  0.3997
 1984TIP3    H2 5917   2.711   1.737   3.139  0.6334 -1.7833  0.5900
 1985TIP3   OH2 5918   0.294   5.853   0.606  0.4199 -0.1050  0.6304
 1985TIP3    H1 5919   0.213   5.896   0.631  1.2697  2.7178 -0.9845
 1985TIP3    H2 5920   0.352   5.865   0.681  0.2242  0.4782  0.6937
 1986TIP3   OH2 5921   2.241   4.565   2.684  0.0566 -0.6230  0.6817
 1986TIP3    H1 5922   2.258   4.528   2.771  0.2938 -1.2295  0.3809
 1986TIP3    H2 5923   2.299   4.516   2.625  1.0840  0.8815  0.4008
 1987TIP3   OH2 5924   5.283   2.825   3.306 -0.9725  0.1466  0.2286
 1987TIP3    H1 5925   5.248   2.887   3.369 -3.2103 -0.7253 -0.0715
 1987TIP3    H2 5926   5.223   2.829   3.231 -1.5781 -2.7281  0.4290
 1988TIP3   OH2 5927   5.101   0.473   4.947  0.1310 -0.2199 -0.0225
 1988TIP3    H1 5928   5.043   0.411   4.992 -0.6592  2.3381  2.8473
 1988TIP3    H2 5929   5.171   0.490   5.010 -0.5339  2.9127  0.0218
 1989TIP3   OH2 5930   3.256   4.761   4.531  0.6299  0.6124  0.7430
 1989TIP3    H1 5931   3.160   4.768   4.535  0.7199  1.6524  1.4493
 1989TIP3    H2 5932   3.272   4.707   4.454 -0.5306  0.2966  0.6927
 1990TIP3   OH2 5933   6.741   0.880   5.842 -0.1473  0.0286 -0.2108
 1990TIP3    H1 5934   6.646   0.881   5.854 -0.3484 -1.7836 -1.2303
 1990TIP3    H2 5935   6.761   0.965   5.803 -1.2484  0.7052  0.6435
 1991TIP3   OH2 5936   2.442   0.298   4.844 -0.2878  0.5421  0.2104
 1991TIP3    H1 5937   2.407   0.209   4.846  0.1757  0.3025 -1.1188
 1991TIP3    H2 5938   2.428   0.332   4.933  1.0623 -1.4498  1.2716
 1992TIP3   OH2 5939   4.651   3.356   1.585  0.3269  1.2022 -0.0879
 1992TIP3    H1 5940   4.713   3.291   1.551  1.7818  1.3929  2.0130
 1992TIP3    H2 5941   4.705   3.433   1.604 -1.0654  2.3956 -0.8179
 1993TIP3   OH2 5942   5.765   0.571   4.687 -0.3765 -0.3306 -0.7227
 1993TIP3    H1 5943   5.684   0.531   4.657 -0.4879  0.7166 -1.8881
 1993TIP3    H2 5944   5.776   0.537   4.776 -2.0769 -0.5026 -0.5331
 1994TIP3   OH2 5945   0.646   2.402   1.362  0.4046  0.2965 -0.3551
 1994TIP3    H1 5946   0.612   2.440   1.443  1.4958  0.4870  0.0230
 1994TIP3    H2 5947   0.727   2.359   1.388  1.3371  1.2756 -1.5415
 1995TIP3   OH2 5948   5.112   3.796   4.037  0.0586  0.2248  0.0327
 1995TIP3    H1 5949   5.138   3.857   3.969 -0.5368  2.7897  1.9283
 1995TIP3    H2 5950   5.192   3.779   4.087 -0.1882  1.2496  0.7981
 1996TIP3   OH2 5951   2.600   0.550   5.820  0.1142 -0.4641  0.3110
 1996TIP3    H1 5952   2.651   0.521   5.895  0.9257 -0.7320 -0.3324
 1996TIP3    H2 5953   2.584   0.471   5.769  0.0240 -0.2022 -0.0752
 1997TIP3   OH2 5954   2.349   3.107   5.748 -0.2842 -0.0779  0.1786
 1997TIP3    H1 5955   2.314   3.193   5.771  1.3494  0.6146  0.2445
 1997TIP3    H2 5956   2.273   3.049   5.746 -1.6207  1.6162 -1.0745
 1998TIP3   OH2 5957   1.911   3.921   5.625 -0.2471  0.4839  0.0394
 1998TIP3    H1 5958   1.959   3.947   5.547  1.1829  0.6630  0.9359
 1998TIP3    H2 5959   1.961   3.846   5.659 -0.5392  0.7324  1.0414
 1999TIP3   OH2 5960   4.811   5.056   1.407 -0.6020  0.0675  0.6954
 1999TIP3    H1 5961   4.727   5.075   1.448 -0.8502  0.1485  0.1646
 1999TIP3    H2 5962   4.788   5.004   1.329 -0.4319  2.2475 -0.9199
 2000TIP3   OH2 5963   1.508   4.304   1.726 -0.6079 -0.0413 -0.3309
 2000TIP3    H1 5964   1.415   4.291   1.746 -0.1852  0.6161  2.5924
 2000TIP3    H2 5965   1.534   4.223   1.682 -2.3176 -0.6959 -0.2534
 2001TIP3   OH2 5966   4.217   5.670   4.517  0.2457  0.0937 -0.2188
 2001TIP3    H1 5967   4.135   5.698   4.558  0.6065  1.0764 -0.1440
 2001TIP3    H2 5968   4.283   5.683   4.584  0.3623 -1.4992  0.0106
 2002TIP3   OH2 5969   3.183   3.471   0.320 -0.5380 -0.0286 -0.0779
 2002TIP3    H1 5970   3.184   3.482   0.415 -1.5305  0.9139 -0.1529
 2002TIP3    H2 5971   3.172   3.377   0.307 -1.6940 -0.0398  0.7709
 2003TIP3   OH2 5972   0.082   0.894   3.780 -0.0489  0.1848 -0.4666
 2003TIP3    H1 5973   0.052   0.943   3.856  0.9513  1.4926 -0.8684
 2003TIP3    H2 5974   0.062   0.802   3.801 -0.7146  0.6118  0.9103
 2004TIP3   OH2 5975   1.149   0.572   4.442  0.3445 -0.0426 -0.3002
 2004TIP3    H1 5976   1.139   0.664   4.418  2.0862  0.0023 -1.0347
 2004TIP3    H2 5977   1.075   0.554   4.500  0.4928  2.0926  0.6783
 2005TIP3   OH2 5978   0.616   1.937   0.990 -0.5580  0.0008  0.7929
 2005TIP3    H1 5979   0.620   1.842   0.982 -1.2350 -0.0484  0.9852
 2005TIP3    H2 5980   0.696   1.961   1.037  0.4118 -0.3016 -0.6486
 2006TIP3   OH2 5981   5.707   5.877   3.786  0.2091  0.2936  0.1647
 2006TIP3    H1 5982   5.640   5.896   3.721  1.3894 -1.4960 -1.7048
 2006TIP3    H2 5983   5.667   5.813   3.845  0.1961 -0.7628 -0.9397
 2007TIP3   OH2 5984   3.741   6.473   2.961 -0.0227  0.3071 -0.1549
 2007TIP3    H1 5985   3.760   6.480   2.867 -1.9492  0.9255 -0.5457
 2007TIP3    H2 5986   3.704   6.386   2.972  0.3755  0.1640  0.0770
 2008TIP3   OH2 5987   3.820   6.074   2.238  0.4803 -0.1247  0.5225
 2008TIP3    H1 5988   3.809   5.994   2.288  1.6136  0.4565  1.7407
 2008TIP3    H2 5989   3.814   6.046   2.146 -2.2993 -1.1147  0.8911
 2009TIP3   OH2 5990   4.828   3.554   1.099  0.1123  0.5447  0.0563
 2009TIP3    H1 5991   4.805   3.647   1.091  1.0915  0.8852  0.9290
 2009TIP3    H2 5992   4.904   3.553   1.157  1.5100 -0.6273 -1.6887
 2010TIP3   OH2 5993   1.312   4.852   0.272  0.0227  0.0028  0.8138
 2010TIP3    H1 5994   1.368   4.923   0.240 -1.4648  0.3957 -1.1246
 2010TIP3    H2 5995   1.300   4.871   0.365  2.2469  0.4485  1.0689
 2011TIP3   OH2 5996   6.685   5.260   2.422  0.3916  0.4305  0.1454
 2011TIP3    H1 5997   6.668   5.270   2.516 -2.5588 -0.2262 -0.2150
 2011TIP3    H2 5998   6.780   5.273   2.413  0.6675  1.1648  3.0947
 2012TIP3   OH2 5999   2.200   4.838   5.344 -0.0704 -0.3281 -0.0442
 2012TIP3    H1 6000   2.227   4.765   5.400  0.9390  0.7376  0.9147
 2012TIP3    H2 6001   2.254   4.829   5.266  0.7554 -0.0848  0.4792
 2013TIP3   OH2 6002   6.629   5.010   5.326  0.0774 -0.3699 -0.2538
 2013TIP3    H1 6003   6.553   5.067   5.339  0.3815 -0.2385  1.0977
 2013TIP3    H2 6004   6.691   5.035   5.395  0.5933 -1.7202 -0.1816
 2014TIP3   OH2 6005   4.515   5.188   2.228 -0.2440  0.2444  0.1698
 2014TIP3    H1 6006   4.571   5.202   2.303 -0.7998 -2.5949  1.2479
 2014TIP3    H2 6007   4.441   5.248   2.241  0.4062  0.8735  1.0381
 2015TIP3   OH2 6008   4.862   1.497   5.842 -0.0710 -1.0900  0.1272
 2015TIP3    H1 6009   4.842   1.496   5.936  0.6510  1.3497  0.3817
 2015TIP3    H2 6010   4.810   1.569   5.807  1.2327 -0.6015 -0.9131
 2016TIP3   OH2 6011   3.779   1.470   2.051  0.5003  0.7438  0.2149
 2016TIP3    H1 6012   3.843   1.464   1.981  1.0598 -1.5105  0.8481
 2016TIP3    H2 6013   3.726   1.391   2.042  0.4839  0.4796  2.1918
 2017TIP3   OH2 6014   3.640   6.372   3.474  0.1125  0.9854  0.0638
 2017TIP3    H1 6015   3.673   6.432   3.407  2.4428  1.1488  1.2488
 2017TIP3    H2 6016   3.705   6.377   3.545  0.6654 -3.1489  0.1293
 2018TIP3   OH2 6017   3.214   4.935   2.015  0.1650  0.0734  0.5009
 2018TIP3    H1 6018   3.199   4.881   1.938  2.3544  0.3029 -0.1507
 2018TIP3    H2 6019   3.219   4.873   2.088  0.8636 -0.4407  0.0248
 2019TIP3   OH2 6020   2.925   2.232   3.396 -0.2582  0.1191  0.2081
 2019TIP3    H1 6021   2.850   2.292   3.403  0.5355  1.0254  1.2318
 2019TIP3    H2 6022   2.952   2.216   3.486  0.9519  0.0171 -0.1529
 2020TIP3   OH2 6023   4.563   1.450   3.394  0.1017  0.5161  0.1478
 2020TIP3    H1 6024   4.609   1.370   3.369  0.1183  0.1120  1.4155
 2020TIP3    H2 6025   4.481   1.419   3.433 -1.5200  1.2137 -2.3833
 2021TIP3   OH2 6026   6.433   3.377   4.550 -0.6517 -0.0730  0.1165
 2021TIP3    H1 6027   6.373   3.402   4.480 -0.2446  2.1630  0.5178
 2021TIP3    H2 6028   6.480   3.301   4.515 -2.2067 -0.5738 -1.0139
 2022TIP3   OH2 6029   5.397   4.741   2.716 -0.4369 -0.2028 -0.2243
 2022TIP3    H1 6030   5.467   4.675   2.716 -1.0290 -0.9729  2.4882
 2022TIP3    H2 6031   5.332   4.708   2.654  0.4058 -0.8773 -0.7563
 2023TIP3   OH2 6032   4.784   0.814   4.627  0.2030  0.6775 -0.1520
 2023TIP3    H1 6033   4.704   0.836   4.675  0.8906  0.6647  1.0415
 2023TIP3    H2 6034   4.804   0.724   4.652  1.5861  1.2773  1.0478
 2024TIP3   OH2 6035   3.276   6.511   0.100  0.8167 -0.2725 -0.2282
 2024TIP3    H1 6036   3.320   6.528   0.016  0.1251 -0.0353 -0.5562
 2024TIP3    H2 6037   3.215   6.440   0.080  1.1360 -0.6860  0.2518
 2025TIP3   OH2 6038   5.667   1.090   2.803 -0.1614  0.0736  0.0065
 2025TIP3    H1 6039   5.598   1.024   2.797 -0.7236  0.6931 -0.5915
 2025TIP3    H2 6040   5.676   1.107   2.897 -0.5950 -0.2598  0.1098
 2026TIP3   OH2 6041   5.283   3.058   1.618  0.0953  0.4305 -0.2555
 2026TIP3    H1 6042   5.345   3.099   1.557 -1.7743 -0.6495 -3.0823
 2026TIP3    H2 6043   5.307   2.966   1.618 -0.5986  0.2432 -0.2607
 2027TIP3   OH2 6044   4.483   4.802   2.971  0.4598 -0.7120  0.4407
 2027TIP3    H1 6045   4.527   4.805   3.056  1.8149  0.0485 -0.2514
 2027TIP3    H2 6046   4.531   4.735   2.922  0.1059 -0.6907  0.0650
 2028TIP3   OH2 6047   4.820   3.179   2.370  0.4968 -0.5826  0.0959
 2028TIP3    H1 6048   4.780   3.104   2.414  0.8023 -0.7051  0.1721
 2028TIP3    H2 6049   4.882   3.214   2.435  0.0562 -0.0074  0.2157
 2029TIP3   OH2 6050   6.120   2.398   2.187 -0.0776 -0.7579  0.0153
 2029TIP3    H1 6051   6.144   2.450   2.264 -1.0768  0.7182 -0.6297
 2029TIP3    H2 6052   6.111   2.309   2.220  0.6639 -0.3589  1.3667
 2030TIP3   OH2 6053   0.364   3.895   5.147  0.5208  0.1446  0.3295
 2030TIP3    H1 6054   0.419   3.897   5.225 -0.4368 -0.1589  1.0206
 2030TIP3    H2 6055   0.291   3.837   5.169 -0.0316  0.4544 -0.6029
 2031TIP3   OH2 6056   3.537   4.055   4.660 -0.4407  0.0939 -0.5347
 2031TIP3    H1 6057   3.600   3.994   4.699 -2.3503  0.6324  4.0033
 2031TIP3    H2 6058   3.461   4.001   4.639 -0.9508  0.4095  0.4649
 2032TIP3   OH2 6059   5.713   2.945   5.337  0.4720 -0.5534  0.3831
 2032TIP3    H1 6060   5.792   2.994   5.361  1.0091 -1.0222 -0.4020
 2032TIP3    H2 6061   5.644   2.983   5.392  1.2080 -0.0420  0.9781
 2033TIP3   OH2 6062   6.461   1.435   1.166 -0.2613 -0.9866 -0.4520
 2033TIP3    H1 6063   6.426   1.372   1.103  0.2612 -0.2834 -1.4765
 2033TIP3    H2 6064   6.409   1.422   1.245 -1.2998 -1.5094 -1.2035
 2034TIP3   OH2 6065   6.644   5.751   0.211  0.4961  0.3042  0.7863
 2034TIP3    H1 6066   6.680   5.738   0.123  0.3811  0.4663  0.7132
 2034TIP3    H2 6067   6.707   5.710   0.270  1.3887  1.5965  0.7495
 2035TIP3   OH2 6068   3.604   0.171   3.855  0.4080 -0.0393 -0.5836
 2035TIP3    H1 6069   3.686   0.133   3.886  1.1623  1.0360 -1.1868
 2035TIP3    H2 6070   3.559   0.201   3.934 -0.1130 -1.9431 -0.1126
 2036TIP3   OH2 6071   6.983   5.831   2.979  0.3012  0.3846 -0.3531
 2036TIP3    H1 6072   7.004   5.908   2.925 -1.3761 -0.4089 -2.2966
 2036TIP3    H2 6073   6.895   5.805   2.949 -0.4356 -0.5497  2.3373
 2037TIP3   OH2 6074   0.458   5.587   4.297 -0.2731 -0.3109  0.1208
 2037TIP3    H1 6075   0.435   5.617   4.209  0.7683 -0.7869 -0.3364
 2037TIP3    H2 6076   0.523   5.518   4.282  0.6034  0.2221  1.2954
 2038TIP3   OH2 6077   4.694   4.078   2.826 -0.2902 -0.6669 -0.0270
 2038TIP3    H1 6078   4.602   4.067   2.851 -0.1437 -1.7421  0.0889
 2038TIP3    H2 6079   4.728   4.142   2.888 -0.7819 -0.7945  0.3794
 2039TIP3   OH2 6080   3.076   0.753   0.870 -0.6576  0.1319 -0.2593
 2039TIP3    H1 6081   3.164   0.741   0.834 -0.2282 -0.3264  0.8907
 2039TIP3    H2 6082   3.027   0.798   0.801 -0.2301 -1.7968 -1.8808
 2040TIP3   OH2 6083   4.876   0.362   1.561 -0.0385 -0.2430 -0.0008
 2040TIP3    H1 6084   4.877   0.302   1.635 -0.7464 -0.4839 -0.1758
 2040TIP3    H2 6085   4.963   0.354   1.522  0.3477 -0.0925  0.8127
 2041TIP3   OH2 6086   1.769   2.280   4.308  0.4526 -0.6863  0.2801
 2041TIP3    H1 6087   1.811   2.254   4.390 -0.9373 -0.7711  0.9853
 2041TIP3    H2 6088   1.705   2.211   4.290 -2.0734  1.2753  1.2612
 2042TIP3   OH2 6089   1.752   2.188   3.029  0.4038 -0.1285 -0.1632
 2042TIP3    H1 6090   1.807   2.258   2.995 -0.5921 -0.0393 -1.6932
 2042TIP3    H2 6091   1.667   2.200   2.986 -0.0688 -1.7266  0.2176
 2043TIP3   OH2 6092   2.346   6.289   1.398  0.3054 -0.0262  0.2800
 2043TIP3    H1 6093   2.416   6.301   1.333  0.1419  2.5818  0.4513
 2043TIP3    H2 6094   2.280   6.355   1.374 -1.7084 -1.7940  0.6658
 2044TIP3   OH2 6095   7.047   0.377   4.195 -0.0079  0.5463  0.1703
 2044TIP3    H1 6096   6.998   0.296   4.184  1.0108  0.0023 -0.4312
 2044TIP3    H2 6097   7.138   0.350   4.203  0.2329  1.5521  1.1410
 2045TIP3   OH2 6098   1.677   4.152   5.052 -0.1584  0.3181 -0.0866
 2045TIP3    H1 6099   1.717   4.239   5.057  1.7574 -0.5602  0.4254
 2045TIP3    H2 6100   1.725   4.107   4.982  0.8715 -1.2952  1.5862
 2046TIP3   OH2 6101  -0.015   5.755   3.724 -0.2466  0.0226 -0.4777
 2046TIP3    H1 6102   0.057   5.745   3.662  0.1203  1.3780 -0.2931
 2046TIP3    H2 6103  -0.031   5.666   3.757  0.6410 -0.4534 -1.2909
 2047TIP3   OH2 6104   1.647   2.200   5.642  0.3893  0.0135  0.0593
 2047TIP3    H1 6105   1.716   2.228   5.583  1.1333  2.5785  1.9869
 2047TIP3    H2 6106   1.568   2.243   5.608 -0.0058 -1.5535 -1.1491
 2048TIP3   OH2 6107   5.946   5.654   5.670  0.2916  0.2261 -0.3432
 2048TIP3    H1 6108   5.873   5.600   5.641  1.7866 -2.6876  0.8599
 2048TIP3    H2 6109   5.909   5.711   5.737 -1.1319 -0.1920 -0.7504
 2049TIP3   OH2 6110   6.205   6.708   4.004 -0.8733 -0.4169 -0.2187
 2049TIP3    H1 6111   6.162   6.633   3.964  1.4205 -0.3873 -3.0982
 2049TIP3    H2 6112   6.271   6.670   4.062 -2.0607 -0.5034  1.1238
 2050TIP3   OH2 6113   7.015   4.204   4.311  0.8693 -0.1478 -0.3583
 2050TIP3    H1 6114   7.052   4.158   4.386 -0.1855 -1.3908 -0.5550
 2050TIP3    H2 6115   6.928   4.233   4.341  1.3708  1.4735 -0.3507
 2051TIP3   OH2 6116   5.222   2.094   1.234  0.1813 -0.2983 -0.4343
 2051TIP3    H1 6117   5.264   2.118   1.152 -2.7688 -0.9678 -2.2793
 2051TIP3    H2 6118   5.170   2.171   1.257 -2.0482 -1.4295 -1.3885
 2052TIP3   OH2 6119   5.108   0.061   2.567 -0.1223 -0.0008  0.6967
 2052TIP3    H1 6120   5.024   0.059   2.614  0.0783 -0.6211  1.0368
 2052TIP3    H2 6121   5.089   0.017   2.484 -0.3415  0.6164  0.4129
 2053TIP3   OH2 6122   3.122   4.487   1.690 -0.3570 -0.5187 -0.5381
 2053TIP3    H1 6123   3.085   4.399   1.694 -0.0182 -0.6488 -0.0998
 2053TIP3    H2 6124   3.064   4.540   1.745 -1.8172  0.0261 -2.5050
 2054TIP3   OH2 6125   6.407   2.190   0.677 -0.6393  0.1571 -0.9246
 2054TIP3    H1 6126   6.441   2.174   0.589  1.5493 -1.3204  0.1100
 2054TIP3    H2 6127   6.375   2.105   0.706  0.6521  0.1294  0.4897
 2055TIP3   OH2 6128   0.861   2.964   5.712 -0.1153 -0.2488 -0.1188
 2055TIP3    H1 6129   0.931   2.929   5.767 -0.3466 -0.0506  0.3031
 2055TIP3    H2 6130   0.891   2.948   5.622 -0.1568 -1.3942  0.0626
 2056TIP3   OH2 6131   6.595   2.537   1.043 -0.1510  0.1594  0.4846
 2056TIP3    H1 6132   6.582   2.472   0.973 -0.8670  1.0932 -0.2626
 2056TIP3    H2 6133   6.679   2.512   1.082  0.5632 -0.0524 -1.0906
 2057TIP3   OH2 6134   4.956   4.602   5.278  0.2767 -0.1970 -0.5544
 2057TIP3    H1 6135   4.925   4.577   5.365 -4.1493  0.7428 -1.6025
 2057TIP3    H2 6136   4.928   4.531   5.220 -1.6969  1.4907 -1.8338
 2058TIP3   OH2 6137   0.503   3.200   4.458  0.5415 -0.1544  0.5106
 2058TIP3    H1 6138   0.480   3.263   4.526  0.7251  1.0237 -0.4848
 2058TIP3    H2 6139   0.561   3.137   4.502  2.6051  1.9203  0.9224
 2059TIP3   OH2 6140   3.918   2.521   1.367 -0.4985 -0.0139  0.0793
 2059TIP3    H1 6141   3.891   2.450   1.310 -2.0497  0.5830  0.0234
 2059TIP3    H2 6142   4.012   2.530   1.351 -0.3450 -1.7514 -0.2071
 2060TIP3   OH2 6143   0.755   1.045   3.232 -0.7266 -0.1146  0.3907
 2060TIP3    H1 6144   0.845   1.049   3.266 -0.7964 -2.1111  0.9179
 2060TIP3    H2 6145   0.745   1.127   3.183  1.5035  0.0218  0.0416
 2061TIP3   OH2 6146   5.541   1.363   3.523  0.2661  0.3630  0.1435
 2061TIP3    H1 6147   5.531   1.457   3.511 -0.7553  0.3694  0.8816
 2061TIP3    H2 6148   5.609   1.337   3.461  0.1877  1.4958 -0.4289
 2062TIP3   OH2 6149   0.604   6.357   4.171 -0.1956  0.0565  0.0219
 2062TIP3    H1 6150   0.514   6.389   4.164 -0.2103  0.5457  1.9446
 2062TIP3    H2 6151   0.656   6.437   4.184  0.1284 -0.4115  1.8857
 2063TIP3   OH2 6152   7.096   0.773   1.486  0.2564  0.4534  0.6200
 2063TIP3    H1 6153   7.026   0.838   1.480  0.0232  0.0527 -1.8051
 2063TIP3    H2 6154   7.177   0.823   1.473  0.4042  0.7741  2.5073
 2064TIP3   OH2 6155   5.461   4.062   4.148 -0.4361  0.1439  0.5066
 2064TIP3    H1 6156   5.542   4.108   4.123 -0.0987 -0.5651  0.2515
 2064TIP3    H2 6157   5.422   4.036   4.064  1.3460 -3.3754  0.5662
 2065TIP3   OH2 6158   6.214   0.170   3.761  0.2379  0.3894 -0.3640
 2065TIP3    H1 6159   6.129   0.168   3.718  0.0800  0.8198 -0.0763
 2065TIP3    H2 6160   6.193   0.183   3.854  0.5836 -0.2548 -0.1929
 2066TIP3   OH2 6161   5.971   5.054   2.441  0.1024 -0.2674 -0.4083
 2066TIP3    H1 6162   5.904   4.987   2.457 -1.6522  1.3830 -0.5201
 2066TIP3    H2 6163   5.935   5.107   2.370  0.4779  1.9810  0.9826
 2067TIP3   OH2 6164   2.928   6.054   3.381 -0.3464 -0.4331 -0.7258
 2067TIP3    H1 6165   2.866   5.986   3.357 -1.7140  0.5692 -0.1991
 2067TIP3    H2 6166   2.884   6.103   3.451  1.3069 -0.0597  0.1052
 2068TIP3   OH2 6167   4.871   0.826   1.354 -0.0573 -0.1398 -0.2595
 2068TIP3    H1 6168   4.860   0.783   1.269 -0.9614 -0.5509  0.0481
 2068TIP3    H2 6169   4.880   0.919   1.334 -0.8526 -0.1705 -0.7767
 2069TIP3   OH2 6170   3.902   2.588   2.245 -0.8939 -0.5014  0.0785
 2069TIP3    H1 6171   3.923   2.618   2.157  0.0153 -2.2602 -0.3454
 2069TIP3    H2 6172   3.939   2.500   2.250 -2.9311 -1.3643  1.4257
 2070TIP3   OH2 6173   0.082   0.270   4.230  0.1440  0.0075  0.1200
 2070TIP3    H1 6174   0.049   0.204   4.291 -0.2460  1.0507  1.0851
 2070TIP3    H2 6175   0.158   0.308   4.275  1.6351 -1.1144 -1.2906
 2071TIP3   OH2 6176   7.079   0.289   3.675 -0.1104  0.5568 -0.3292
 2071TIP3    H1 6177   7.119   0.339   3.603 -0.8440  0.4340 -0.8381
 2071TIP3    H2 6178   6.985   0.305   3.666 -0.3257 -0.5569 -0.2325
 2072TIP3   OH2 6179   5.948   0.595   3.831 -0.3004 -0.5088 -0.0169
 2072TIP3    H1 6180   5.977   0.537   3.901  0.9243  0.5161  0.3363
 2072TIP3    H2 6181   5.853   0.599   3.842 -0.2132 -1.0372  1.0418
 2073TIP3   OH2 6182   4.809   3.820   0.641 -0.2803 -0.6123  0.4534
 2073TIP3    H1 6183   4.797   3.742   0.695  1.5706 -2.6807 -1.8768
 2073TIP3    H2 6184   4.890   3.804   0.593 -0.9126  1.8395 -1.6747
 2074TIP3   OH2 6185   2.055   4.897   0.881  0.3704 -0.2173 -0.1148
 2074TIP3    H1 6186   1.970   4.879   0.921  1.9689  0.1417  3.9120
 2074TIP3    H2 6187   2.072   4.821   0.825 -1.3278 -1.7295  1.3003
 2075TIP3   OH2 6188   5.606   2.188   1.190  0.1124 -0.3377  0.2968
 2075TIP3    H1 6189   5.641   2.244   1.121 -0.7292  1.0820  0.9937
 2075TIP3    H2 6190   5.667   2.114   1.193  1.0918  0.3793 -0.8331
 2076TIP3   OH2 6191   6.747   4.111   1.498  0.4067  0.1953  0.0064
 2076TIP3    H1 6192   6.734   4.180   1.433 -1.1889  0.5124  0.6162
 2076TIP3    H2 6193   6.791   4.155   1.571 -0.9177  0.6815  0.5363
 2077TIP3   OH2 6194   1.148   4.396   4.078 -0.5634  0.4634 -0.3346
 2077TIP3    H1 6195   1.174   4.474   4.029 -1.2887  0.9724  0.0759
 2077TIP3    H2 6196   1.208   4.328   4.048 -0.4016  0.9927 -1.2483
 2078TIP3   OH2 6197   1.957   2.590   5.847  0.4037  0.3239 -0.5689
 2078TIP3    H1 6198   1.870   2.587   5.808  0.2681 -0.3460 -0.2274
 2078TIP3    H2 6199   2.001   2.663   5.802  0.1828 -0.2893 -1.8230
 2079TIP3   OH2 6200   2.962   6.823   2.643  0.0761  0.3545  0.3993
 2079TIP3    H1 6201   2.874   6.836   2.608  1.3075  0.9661 -2.8220
 2079TIP3    H2 6202   2.984   6.732   2.620  0.2060  0.0962  1.4812
 2080TIP3   OH2 6203   6.698   1.542   0.485  0.2620 -0.0298  0.2438
 2080TIP3    H1 6204   6.627   1.566   0.425  0.3869  0.6736  0.3603
 2080TIP3    H2 6205   6.753   1.483   0.434 -0.2781 -0.3912  0.0732
 2081TIP3   OH2 6206   4.632   0.839   0.887 -0.4835 -0.4183  0.0752
 2081TIP3    H1 6207   4.633   0.861   0.980  0.4489 -0.6426  0.1248
 2081TIP3    H2 6208   4.618   0.745   0.884 -0.1780 -0.4630  0.0029
 2082TIP3   OH2 6209   2.509   1.353   5.141 -0.2385 -0.2244  0.0981
 2082TIP3    H1 6210   2.502   1.348   5.236 -0.0359 -0.7491  0.0926
 2082TIP3    H2 6211   2.603   1.346   5.123 -0.1454  1.2499 -0.0816
 2083TIP3   OH2 6212   2.511   0.596   5.260  0.0845 -0.3464  0.6210
 2083TIP3    H1 6213   2.455   0.609   5.183  0.9343 -0.3280 -0.0024
 2083TIP3    H2 6214   2.459   0.630   5.333 -1.0407 -1.0259  0.1745
 2084TIP3   OH2 6215   1.452   5.462   3.379 -0.4993 -0.0584  0.4521
 2084TIP3    H1 6216   1.364   5.438   3.408 -0.4379 -0.0655  0.6385
 2084TIP3    H2 6217   1.486   5.382   3.338 -0.3895 -0.2177  0.8455
 2085TIP3   OH2 6218   0.625   4.665   1.535  0.1826 -0.5386  0.0518
 2085TIP3    H1 6219   0.623   4.579   1.578  1.7295 -0.0703  1.1877
 2085TIP3    H2 6220   0.681   4.652   1.458 -0.9920 -0.9282 -0.7526
 2086TIP3   OH2 6221   3.887   0.022   3.860  0.1275 -0.5472  0.4058
 2086TIP3    H1 6222   3.939   0.025   3.780  1.2495  4.3306  1.0047
 2086TIP3    H2 6223   3.951   0.012   3.931 -0.5276 -1.7042  0.8552
 2087TIP3   OH2 6224   1.799   5.326   5.683 -0.1753 -0.2491 -0.4826
 2087TIP3    H1 6225   1.752   5.250   5.647 -0.1329 -0.7443  0.4737
 2087TIP3    H2 6226   1.800   5.389   5.612 -1.7065 -0.4926 -0.7591
 2088TIP3   OH2 6227   0.065   2.881   1.232 -0.1583 -0.0690 -0.1078
 2088TIP3    H1 6228  -0.026   2.899   1.210 -0.3531  0.6229  1.1498
 2088TIP3    H2 6229   0.092   2.813   1.171 -1.3773  0.0349 -0.7921
 2089TIP3   OH2 6230   4.964   2.378   0.307 -0.0696  0.0991 -0.3315
 2089TIP3    H1 6231   4.984   2.468   0.331 -0.8435 -0.1563  1.4969
 2089TIP3    H2 6232   4.915   2.384   0.225 -1.4059  1.4739  0.5225
 2090TIP3   OH2 6233   2.042   5.044   3.131  0.2287 -0.1896 -0.1804
 2090TIP3    H1 6234   2.036   5.008   3.043 -0.5944 -0.9981  0.1981
 2090TIP3    H2 6235   2.020   4.972   3.189  0.3064  0.4560  0.6780
 2091TIP3   OH2 6236   1.313   0.272   1.453  0.1526  0.1272  0.2671
 2091TIP3    H1 6237   1.359   0.344   1.410 -0.9367  2.7492  3.1862
 2091TIP3    H2 6238   1.220   0.288   1.436 -0.0674 -1.6754 -0.5012
 2092TIP3   OH2 6239   0.948   5.582   0.232  0.6930 -0.3461  0.2665
 2092TIP3    H1 6240   1.029   5.558   0.188  2.0420  0.4602  2.1715
 2092TIP3    H2 6241   0.972   5.589   0.324 -1.9424 -1.7247  1.1613
 2093TIP3   OH2 6242   2.725   2.438   3.459 -0.0162  0.1133  0.8311
 2093TIP3    H1 6243   2.651   2.464   3.404  0.7885  0.8967  0.0705
 2093TIP3    H2 6244   2.688   2.425   3.546 -1.0184  0.6526  0.4984
 2094TIP3   OH2 6245   6.375   5.805   0.185 -0.7486 -0.0543  0.7118
 2094TIP3    H1 6246   6.470   5.811   0.176 -0.8608 -0.8636 -1.7782
 2094TIP3    H2 6247   6.362   5.738   0.252  0.5073 -1.9749 -0.8420
 2095TIP3   OH2 6248   4.970   2.959   5.602  0.3665 -0.1633 -0.4943
 2095TIP3    H1 6249   4.963   3.053   5.623  2.7750 -0.3360  1.5866
 2095TIP3    H2 6250   5.004   2.957   5.513 -1.2460  0.8734 -1.1804
 2096TIP3   OH2 6251   5.428   6.447   2.045 -0.3371 -0.0881  0.5785
 2096TIP3    H1 6252   5.464   6.359   2.035 -0.2836 -0.0711  0.6228
 2096TIP3    H2 6253   5.480   6.486   2.115  0.8905  0.6301 -0.6790
 2097TIP3   OH2 6254   2.865   3.587   4.506 -0.2703 -0.5291  0.3919
 2097TIP3    H1 6255   2.914   3.668   4.493 -1.0863 -0.0278  0.3422
 2097TIP3    H2 6256   2.776   3.609   4.480 -0.6075 -1.3059  0.8508
 2098TIP3   OH2 6257   2.272   5.654   0.784  0.0845  0.4051 -0.1948
 2098TIP3    H1 6258   2.334   5.715   0.744  0.5269  0.2800  0.2882
 2098TIP3    H2 6259   2.323   5.575   0.800  0.3083  0.9051  1.8776
 2099TIP3   OH2 6260   1.050   1.933   5.299 -0.3821  0.2864  0.7403
 2099TIP3    H1 6261   1.135   1.934   5.256 -0.5257 -0.5231  0.4115
 2099TIP3    H2 6262   0.990   1.898   5.232 -1.0318  1.1441  0.8593
 2100TIP3   OH2 6263   5.535   6.005   4.308 -0.0665  0.1813 -0.1100
 2100TIP3    H1 6264   5.497   6.088   4.279  0.5579  0.4119 -0.2799
 2100TIP3    H2 6265   5.480   5.938   4.268 -0.8937  0.5111  0.4520
 2101TIP3   OH2 6266   2.886   5.027   0.785 -0.1342  0.4416 -0.5544
 2101TIP3    H1 6267   2.947   5.088   0.827 -1.5799  1.7191 -0.2261
 2101TIP3    H2 6268   2.882   4.952   0.844  0.5529  0.6590 -0.2202
 2102TIP3   OH2 6269   5.864   0.569   3.220  1.0518 -0.2723 -0.4927
 2102TIP3    H1 6270   5.951   0.599   3.193  1.1050  0.1812  0.1500
 2102TIP3    H2 6271   5.858   0.594   3.312  1.6958 -3.5941  0.5792
 2103TIP3   OH2 6272   6.662   4.665   4.628  0.3869  0.1135  0.0961
 2103TIP3    H1 6273   6.648   4.710   4.545 -1.7985 -1.4056 -0.4592
 2103TIP3    H2 6274   6.580   4.680   4.677  1.1250 -0.0871  1.4497
 2104TIP3   OH2 6275   3.898   1.559   0.865  0.1331  1.1517 -0.0903
 2104TIP3    H1 6276   3.860   1.630   0.814  2.4127  0.6831 -2.6699
 2104TIP3    H2 6277   3.902   1.485   0.804  2.6531  0.4259  0.8319
 2105TIP3   OH2 6278   5.448   5.988   0.693 -0.1198  0.5828 -0.6976
 2105TIP3    H1 6279   5.463   6.064   0.749 -0.7817 -0.0075  0.2893
 2105TIP3    H2 6280   5.380   5.938   0.737  0.7218 -0.9027 -1.0211
 2106TIP3   OH2 6281   3.214   1.054   4.367  0.1051 -0.4579 -0.3977
 2106TIP3    H1 6282   3.216   1.076   4.460 -0.6532  0.0925 -0.5003
 2106TIP3    H2 6283   3.188   0.962   4.364 -0.4898 -0.3043 -0.0825
 2107TIP3   OH2 6284   3.298   5.907   1.013  0.1224 -0.0076  0.0408
 2107TIP3    H1 6285   3.362   5.978   1.023  1.2270 -0.9980  0.1488
 2107TIP3    H2 6286   3.304   5.882   0.921 -1.4215  1.0707 -0.3972
 2108TIP3   OH2 6287   3.082   2.698   0.889 -0.2504 -0.3928  0.1938
 2108TIP3    H1 6288   3.161   2.731   0.846 -0.5928  1.2025  0.7298
 2108TIP3    H2 6289   3.010   2.744   0.846 -0.7562 -0.4686  0.9364
 2109TIP3   OH2 6290   2.128   3.363   4.870 -0.2200 -0.6408  0.5353
 2109TIP3    H1 6291   2.054   3.326   4.822  0.1481 -0.5510 -0.1022
 2109TIP3    H2 6292   2.203   3.312   4.841  0.2719  0.5006 -0.2482
 2110TIP3   OH2 6293   5.954   6.411   0.917  0.0484 -0.1006  0.2811
 2110TIP3    H1 6294   5.945   6.348   0.988  0.5745 -0.7693 -0.2337
 2110TIP3    H2 6295   6.010   6.480   0.954  0.5334 -0.5724  0.4352
 2111TIP3   OH2 6296   7.105   1.801   1.847  0.1335  0.3991  0.0567
 2111TIP3    H1 6297   7.102   1.836   1.936 -1.1357  1.6109 -0.4252
 2111TIP3    H2 6298   7.175   1.850   1.804  0.3337  0.2521  0.2170
 2112TIP3   OH2 6299   2.403   2.909   4.449  0.2568  0.0571  0.8338
 2112TIP3    H1 6300   2.436   2.878   4.364 -3.0147  0.6721 -0.8152
 2112TIP3    H2 6301   2.452   2.990   4.465 -0.3312  0.9917 -1.5237
 2113TIP3   OH2 6302   2.485   4.316   0.539  0.1937 -0.2004 -0.1851
 2113TIP3    H1 6303   2.563   4.275   0.575  0.7433 -0.2975 -1.4489
 2113TIP3    H2 6304   2.516   4.365   0.463 -0.5419  2.0234  0.8586
 2114TIP3   OH2 6305   2.591   1.012   2.621  0.0027 -0.0519 -0.0079
 2114TIP3    H1 6306   2.563   1.013   2.712 -1.9878  1.5691 -0.5461
 2114TIP3    H2 6307   2.509   1.015   2.571  1.0151  2.9735 -1.7581
 2115TIP3   OH2 6308   2.906   6.688   0.712  0.4085 -0.6508 -0.0566
 2115TIP3    H1 6309   2.935   6.599   0.694  0.9359 -0.1761 -1.7413
 2115TIP3    H2 6310   2.837   6.705   0.649 -0.8596 -0.3998  1.3415
 2116TIP3   OH2 6311   4.281   0.122   3.923  0.7073 -0.4289  0.8606
 2116TIP3    H1 6312   4.212   0.082   3.975  2.0332 -0.0148  3.0636
 2116TIP3    H2 6313   4.292   0.209   3.960  1.8685 -0.1889  0.0140
 2117TIP3   OH2 6314   6.169   4.775   0.356  0.4757  0.4937 -0.3048
 2117TIP3    H1 6315   6.213   4.840   0.302  0.1107 -0.3911 -1.7153
 2117TIP3    H2 6316   6.207   4.787   0.443  2.9030  0.3482 -1.2521
 2118TIP3   OH2 6317   4.637   4.328   2.009 -0.1688 -0.0172 -0.4314
 2118TIP3    H1 6318   4.687   4.318   1.928  1.3212  1.1032  0.2888
 2118TIP3    H2 6319   4.666   4.256   2.065  0.2082  0.2786 -0.2377
 2119TIP3   OH2 6320   3.910   1.102   4.265  0.0213 -0.1578 -0.0990
 2119TIP3    H1 6321   3.999   1.096   4.299  0.2822  1.4150 -0.3830
 2119TIP3    H2 6322   3.922   1.099   4.170 -0.1344  0.7900 -0.1569
 2120TIP3   OH2 6323   3.360   1.344   1.665 -0.8693  0.5665 -0.8047
 2120TIP3    H1 6324   3.279   1.314   1.624 -0.6746 -1.2077  0.0503
 2120TIP3    H2 6325   3.335   1.425   1.710 -2.0143  0.3773 -1.0693
 2121TIP3   OH2 6326   5.127   0.975   1.701  0.4012  0.3656  0.0425
 2121TIP3    H1 6327   5.067   0.981   1.776  0.9538  1.0585  0.4471
 2121TIP3    H2 6328   5.202   0.925   1.734 -0.3725 -1.4193 -0.7682
 2122TIP3   OH2 6329   1.836   0.885   4.962 -0.0502 -0.2410  0.3600
 2122TIP3    H1 6330   1.794   0.971   4.964  0.6796  0.1822 -1.0692
 2122TIP3    H2 6331   1.783   0.834   4.901  0.9783  0.0265 -0.7906
 2123TIP3   OH2 6332   1.683   4.169   1.281 -0.5259  0.4142 -0.1059
 2123TIP3    H1 6333   1.733   4.226   1.340  1.1851  0.2952 -1.3629
 2123TIP3    H2 6334   1.659   4.226   1.207 -0.2934 -0.0667 -0.5609
 2124TIP3   OH2 6335   5.286   1.688   0.371 -0.3079  0.0558 -0.4553
 2124TIP3    H1 6336   5.202   1.648   0.350  0.2762 -0.9514 -0.9249
 2124TIP3    H2 6337   5.345   1.614   0.386  0.4957  0.7461 -0.1224
 2125TIP3   OH2 6338   3.633   4.976   0.481 -0.0668  0.0042  0.3684
 2125TIP3    H1 6339   3.544   5.010   0.485 -0.5021 -0.9940 -0.4478
 2125TIP3    H2 6340   3.629   4.906   0.416  1.2651 -0.2029  0.4852
 2126TIP3   OH2 6341   0.318   4.874   0.627  0.3535  0.1220  0.0993
 2126TIP3    H1 6342   0.370   4.910   0.555 -0.1945  0.7400  0.0074
 2126TIP3    H2 6343   0.272   4.950   0.663 -1.2732 -0.5709 -0.4510
 2127TIP3   OH2 6344   3.090   5.734   2.785  0.2350  0.3354 -0.0458
 2127TIP3    H1 6345   3.185   5.729   2.801  0.1075 -0.7383  0.4658
 2127TIP3    H2 6346   3.082   5.796   2.713  1.3684  0.1643 -0.3513
 2128TIP3   OH2 6347   2.729   0.992   3.640  0.3868 -0.2098 -0.6203
 2128TIP3    H1 6348   2.822   1.013   3.652  0.2918  0.3165 -0.7548
 2128TIP3    H2 6349   2.701   0.959   3.725  0.5537  0.2163 -0.3953
 2129TIP3   OH2 6350   3.432   2.815   5.843  0.2010  0.0582 -0.1022
 2129TIP3    H1 6351   3.401   2.786   5.758 -0.1366  0.4377 -0.1083
 2129TIP3    H2 6352   3.413   2.742   5.902  0.2383 -0.1169 -0.3062
 2130TIP3   OH2 6353   0.375   3.180   5.713  0.0720  0.2442 -0.5248
 2130TIP3    H1 6354   0.465   3.156   5.692  0.8688  2.1953  0.3601
 2130TIP3    H2 6355   0.366   3.158   5.806  0.6005  2.5292  0.1213
 2131TIP3   OH2 6356   4.283   6.392   5.429  0.2730  0.2961  0.2918
 2131TIP3    H1 6357   4.207   6.342   5.462  0.9879 -0.4454  0.8716
 2131TIP3    H2 6358   4.299   6.457   5.497 -0.6128  1.2991 -0.4299
 2132TIP3   OH2 6359   1.738   0.476   4.069  0.3038  0.6329 -0.1787
 2132TIP3    H1 6360   1.648   0.463   4.099 -0.0185  0.7711 -1.0712
 2132TIP3    H2 6361   1.782   0.393   4.091 -0.1306  0.4207 -0.0902
 2133TIP3   OH2 6362   3.362   1.539   5.068  0.6527 -0.0828  0.2994
 2133TIP3    H1 6363   3.275   1.499   5.066  0.4133  0.4520 -0.5645
 2133TIP3    H2 6364   3.371   1.580   4.982  1.8233 -0.2493  0.3367
 2134TIP3   OH2 6365   5.468   2.479   2.663 -0.9352 -0.4346 -0.6917
 2134TIP3    H1 6366   5.373   2.488   2.659 -0.9107  0.2274 -0.0597
 2134TIP3    H2 6367   5.500   2.528   2.588 -1.0563  0.1583 -0.3600
 2135TIP3   OH2 6368   0.563   2.035   4.130 -0.1815  0.0995 -0.5164
 2135TIP3    H1 6369   0.627   1.980   4.084 -0.0882  0.2329 -0.5451
 2135TIP3    H2 6370   0.613   2.110   4.161 -0.4414  0.5030 -1.0567
 2136TIP3   OH2 6371   0.786   0.089   4.900 -0.5049  0.8397  0.3633
 2136TIP3    H1 6372   0.801  -0.003   4.880 -0.6328  0.9047 -0.0488
 2136TIP3    H2 6373   0.849   0.110   4.969  1.7715  1.2819 -1.7216
 2137TIP3   OH2 6374   6.265   6.674   3.698 -0.6096  0.3429 -0.2851
 2137TIP3    H1 6375   6.227   6.694   3.783 -0.7909  0.1341 -0.3153
 2137TIP3    H2 6376   6.316   6.752   3.675 -1.4580  0.8520 -0.4907
 2138TIP3   OH2 6377   0.668   6.198   0.689  0.1275  0.2776  0.3438
 2138TIP3    H1 6378   0.700   6.287   0.672  0.3162 -0.1593 -1.9074
 2138TIP3    H2 6379   0.618   6.176   0.611 -0.5857 -1.3127  1.2234
 2139TIP3   OH2 6380   4.919   0.734   1.107 -0.4366  0.3160  0.1822
 2139TIP3    H1 6381   4.985   0.672   1.076  1.7233  2.3690  0.3577
 2139TIP3    H2 6382   4.840   0.681   1.119  0.4966 -1.8641 -2.2155
 2140TIP3   OH2 6383   2.787   2.976   2.700 -0.1339  0.0135  0.2420
 2140TIP3    H1 6384   2.797   2.889   2.738  0.5028 -0.3064 -0.6230
 2140TIP3    H2 6385   2.708   2.971   2.646  0.6530 -0.4516 -0.8979
 2141TIP3   OH2 6386   0.893   0.798   2.155  0.1038 -0.2504  0.1281
 2141TIP3    H1 6387   0.841   0.819   2.078 -1.3560 -2.2575  0.4839
 2141TIP3    H2 6388   0.974   0.761   2.120 -0.6414 -1.3678 -0.4852
 2142TIP3   OH2 6389   0.094   0.387   0.944  0.1286  0.0626  0.0042
 2142TIP3    H1 6390   0.125   0.453   1.005 -0.9810  0.2062  0.4345
 2142TIP3    H2 6391   0.167   0.325   0.936  1.9394  2.2656 -1.8641
 2143TIP3   OH2 6392   0.844   3.048   4.159 -0.5476 -0.3030 -0.7875
 2143TIP3    H1 6393   0.922   3.035   4.212  0.6125  1.0691 -2.0336
 2143TIP3    H2 6394   0.771   3.028   4.217  0.6867 -0.1774  0.8837
 2144TIP3   OH2 6395   6.927   2.904   5.680 -0.3792 -0.0468  0.0341
 2144TIP3    H1 6396   6.973   2.847   5.742 -1.0319 -2.0636 -1.2532
 2144TIP3    H2 6397   6.994   2.966   5.651  1.3514 -2.3322 -1.1102
 2145TIP3   OH2 6398   2.771   5.538   5.873 -0.0261 -0.2812 -0.0107
 2145TIP3    H1 6399   2.707   5.521   5.804  0.6759 -0.3489 -0.6655
 2145TIP3    H2 6400   2.787   5.453   5.913 -0.1200 -0.3193 -0.0539
 2146TIP3   OH2 6401   0.067   6.328   2.134  0.0213 -0.3485 -0.6739
 2146TIP3    H1 6402   0.054   6.376   2.215 -0.5425  0.0907 -1.0198
 2146TIP3    H2 6403  -0.010   6.347   2.082  0.3441 -0.6854 -1.2893
 2147TIP3   OH2 6404   1.145   4.841   4.698 -0.2640  0.2702  0.0718
 2147TIP3    H1 6405   1.187   4.880   4.621 -0.0749  1.3160  0.6822
 2147TIP3    H2 6406   1.124   4.916   4.754  2.5191 -0.6184  2.5151
 2148TIP3   OH2 6407   5.864   2.941   2.477  0.4631  0.5882  0.1379
 2148TIP3    H1 6408   5.775   2.932   2.444  0.4876  1.2628 -0.1173
 2148TIP3    H2 6409   5.896   3.023   2.440  1.6083 -0.2089 -0.7326
 2149TIP3   OH2 6410   5.876   5.134   2.836 -0.2653 -0.1751 -0.0630
 2149TIP3    H1 6411   5.848   5.197   2.903 -0.3726 -1.5307  1.2154
 2149TIP3    H2 6412   5.935   5.184   2.780 -1.1155  1.3234  0.3154
 2150TIP3   OH2 6413   0.743   2.270   2.278 -0.1163 -0.2990 -0.0526
 2150TIP3    H1 6414   0.776   2.344   2.329 -2.3042  1.1985 -0.6416
 2150TIP3    H2 6415   0.742   2.302   2.188 -1.9858 -0.6656 -0.1959
 2151TIP3   OH2 6416   4.839   4.718   0.245 -0.1629 -0.1862 -0.0710
 2151TIP3    H1 6417   4.748   4.744   0.251 -0.3651 -0.7756 -0.4808
 2151TIP3    H2 6418   4.882   4.791   0.200 -0.4797 -0.0149 -0.0985
 2152TIP3   OH2 6419   6.209   1.120   1.703 -0.2170 -0.1407 -0.1137
 2152TIP3    H1 6420   6.227   1.112   1.796  0.9136  1.0585 -0.1844
 2152TIP3    H2 6421   6.162   1.041   1.679 -0.4864 -0.4713  1.4680
 2153TIP3   OH2 6422   0.810   1.011   2.686 -0.2865  0.1015  0.4039
 2153TIP3    H1 6423   0.776   1.090   2.644  0.4609 -0.2675 -0.9704
 2153TIP3    H2 6424   0.868   1.043   2.755  1.8838  0.8629 -1.6414
 2154TIP3   OH2 6425   2.480   1.612   2.166 -0.3187 -0.1101  0.3744
 2154TIP3    H1 6426   2.426   1.662   2.227  0.2143  2.1504 -0.9023
 2154TIP3    H2 6427   2.570   1.632   2.193 -0.0515 -1.9419  0.9957
 2155TIP3   OH2 6428   2.068   4.171   1.355 -0.1644  0.2251 -0.3977
 2155TIP3    H1 6429   2.020   4.130   1.427 -1.1759  1.0906 -0.5636
 2155TIP3    H2 6430   2.043   4.120   1.277  2.1022 -1.6939  0.0084
 2156TIP3   OH2 6431   3.671   3.225   3.596 -0.1440 -0.3155 -0.2283
 2156TIP3    H1 6432   3.755   3.200   3.558 -0.8969 -0.6688 -1.7850
 2156TIP3    H2 6433   3.662   3.318   3.577  1.6655  0.8187  3.6035
 2157TIP3   OH2 6434   2.776   3.296   3.674 -0.3982  0.2381 -0.5064
 2157TIP3    H1 6435   2.773   3.245   3.755 -1.7413 -0.4763 -0.9731
 2157TIP3    H2 6436   2.824   3.375   3.697  1.3768 -1.0197  0.3631
 2158TIP3   OH2 6437   6.484   0.504   0.283  0.2250  0.2985 -0.0049
 2158TIP3    H1 6438   6.500   0.529   0.374 -0.6493 -1.7310  0.7825
 2158TIP3    H2 6439   6.551   0.550   0.233  0.9919  1.1341  1.7154
 2159TIP3   OH2 6440   4.667   0.866   0.163  0.4468  0.1581  0.2401
 2159TIP3    H1 6441   4.579   0.894   0.136  0.7208  0.4826 -0.3300
 2159TIP3    H2 6442   4.716   0.948   0.173  0.6289 -0.0121  0.7667
 2160TIP3   OH2 6443   2.527   3.625   2.253 -0.1373 -0.2011 -0.3070
 2160TIP3    H1 6444   2.570   3.696   2.204  0.4513  0.2508  0.8183
 2160TIP3    H2 6445   2.564   3.631   2.341  0.0360 -2.0164 -0.2193
 2161TIP3   OH2 6446   7.179   1.180   4.684 -0.6652 -0.1820 -0.4974
 2161TIP3    H1 6447   7.262   1.167   4.730 -1.6608 -0.2204  1.3590
 2161TIP3    H2 6448   7.187   1.126   4.605  0.6004 -1.1617  0.2626
 2162TIP3   OH2 6449   1.628   3.405   0.375  0.1517 -0.4795 -0.3780
 2162TIP3    H1 6450   1.533   3.412   0.378 -0.1719 -3.6675  1.3194
 2162TIP3    H2 6451   1.645   3.326   0.324  1.6438 -1.6039  1.6832
 2163TIP3   OH2 6452   1.530   5.940   1.352  0.2494  0.2049  0.0387
 2163TIP3    H1 6453   1.586   5.867   1.378  0.4389  0.6179  0.8303
 2163TIP3    H2 6454   1.446   5.899   1.331  0.4617 -0.2763  0.1056
 2164TIP3   OH2 6455   1.119   0.933   2.681 -0.1304  0.6127  0.4895
 2164TIP3    H1 6456   1.202   0.919   2.728  1.6769  4.1926 -1.2259
 2164TIP3    H2 6457   1.062   0.974   2.747 -0.4908 -1.4886  1.5671
 2165TIP3   OH2 6458   5.639   3.485   4.307  0.4829  0.0874  0.5419
 2165TIP3    H1 6459   5.635   3.476   4.212 -0.5643  1.3158  0.4470
 2165TIP3    H2 6460   5.600   3.404   4.340 -2.4041  1.0506 -0.1641
 2166TIP3   OH2 6461   4.218   3.237   2.520  0.0380 -0.3646  0.2344
 2166TIP3    H1 6462   4.241   3.187   2.442  0.1711 -0.2732  0.2156
 2166TIP3    H2 6463   4.122   3.235   2.523  0.0051  0.2058 -0.3048
 2167TIP3   OH2 6464   2.069   6.308   4.209 -0.2520  0.0126 -0.1148
 2167TIP3    H1 6465   2.093   6.373   4.276 -0.9275  0.7863 -0.6025
 2167TIP3    H2 6466   1.987   6.341   4.172 -0.1279 -0.6503 -1.0118
 2168TIP3   OH2 6467   4.748   5.158   0.507  0.4241  0.0599 -0.0731
 2168TIP3    H1 6468   4.774   5.086   0.564  1.0246 -0.8132 -1.4060
 2168TIP3    H2 6469   4.669   5.127   0.464  1.1446 -0.1836 -1.2744
 2169TIP3   OH2 6470   5.758   4.974   5.780 -0.0973 -0.1644 -0.0608
 2169TIP3    H1 6471   5.705   4.953   5.857  0.7097  1.1671  0.8813
 2169TIP3    H2 6472   5.795   5.060   5.798  2.1343 -0.8798 -0.8247
 2170TIP3   OH2 6473   5.649   3.226   1.564  0.3265 -0.0624 -0.4821
 2170TIP3    H1 6474   5.687   3.274   1.491  1.7506  0.1951  0.3850
 2170TIP3    H2 6475   5.591   3.289   1.607  0.8862  0.3617 -0.3402
 2171TIP3   OH2 6476   2.143   1.584   1.709 -0.1330  0.0757  0.5507
 2171TIP3    H1 6477   2.164   1.647   1.778  0.1256 -0.7253  1.2184
 2171TIP3    H2 6478   2.103   1.637   1.640 -0.6349  0.8647  1.4162
 2172TIP3   OH2 6479   6.666   0.125   2.363  0.1141  0.2083 -0.3647
 2172TIP3    H1 6480   6.595   0.183   2.393 -2.0815 -3.2912  1.9543
 2172TIP3    H2 6481   6.739   0.146   2.421 -1.7209 -1.3735  2.7924
 2173TIP3   OH2 6482   0.388   0.338   4.221 -0.3036 -0.0921  0.2183
 2173TIP3    H1 6483   0.408   0.417   4.271  0.8596 -0.2552  0.0401
 2173TIP3    H2 6484   0.427   0.267   4.272  0.6483 -0.2902 -0.7346
 2174TIP3   OH2 6485   4.430   1.108   2.823  0.4252 -0.4023  0.5074
 2174TIP3    H1 6486   4.495   1.099   2.754  0.2937 -0.2501  0.3651
 2174TIP3    H2 6487   4.481   1.104   2.904  0.5292 -1.0633  0.4177
 2175TIP3   OH2 6488   6.823   2.410   5.057  0.0549 -0.0780  0.4658
 2175TIP3    H1 6489   6.802   2.391   4.966  0.1570 -0.8877  0.5982
 2175TIP3    H2 6490   6.752   2.467   5.087  1.7627  3.1181 -1.0556
 2176TIP3   OH2 6491   4.057   3.665   5.154  0.3608 -0.3325 -0.1473
 2176TIP3    H1 6492   4.136   3.611   5.148  0.6983  0.2952 -2.6824
 2176TIP3    H2 6493   3.985   3.603   5.161  0.9018 -1.0533 -0.7817
 2177TIP3   OH2 6494   5.574   5.994   1.552 -0.1896 -0.0961 -0.2605
 2177TIP3    H1 6495   5.660   5.996   1.512  0.0527  2.4145  0.2632
 2177TIP3    H2 6496   5.523   6.058   1.504 -1.5695 -0.9861 -0.0553
 2178TIP3   OH2 6497   2.164   5.167   3.369  0.0570 -0.0372 -0.0071
 2178TIP3    H1 6498   2.124   5.113   3.301  1.9014 -1.3776 -0.1367
 2178TIP3    H2 6499   2.256   5.175   3.342 -0.1765  3.6453 -0.2140
 2179TIP3   OH2 6500   4.825   5.028   5.404 -0.1259  0.5153 -0.1168
 2179TIP3    H1 6501   4.805   4.938   5.381 -0.5714  0.6565 -0.2920
 2179TIP3    H2 6502   4.911   5.044   5.364  1.0440 -0.5286  1.8490
 2180TIP3   OH2 6503   5.567   2.828   5.670  0.5021 -0.0025 -0.4719
 2180TIP3    H1 6504   5.568   2.902   5.610  0.1960  0.4629  0.0961
 2180TIP3    H2 6505   5.631   2.850   5.737 -1.2124  0.8246  0.9675
 2181TIP3   OH2 6506   4.503   3.791   4.103 -0.1639  0.2821 -0.0249
 2181TIP3    H1 6507   4.570   3.792   4.035  1.0649 -2.4037  0.9814
 2181TIP3    H2 6508   4.519   3.870   4.154  0.8034  0.8188 -1.1113
 2182TIP3   OH2 6509   2.850   4.266   2.100 -0.0698 -0.0465  0.5258
 2182TIP3    H1 6510   2.857   4.198   2.167 -1.4599 -1.7386 -0.9585
 2182TIP3    H2 6511   2.760   4.297   2.107 -0.6526 -1.1446 -1.3022
 2183TIP3   OH2 6512   0.133   0.415   3.146  0.2058 -0.4313 -0.3741
 2183TIP3    H1 6513   0.077   0.483   3.108 -0.7696 -1.1170 -0.2170
 2183TIP3    H2 6514   0.123   0.341   3.086 -2.4013 -2.0014  1.7688
 2184TIP3   OH2 6515   5.339   2.937   0.737 -0.0307 -0.2370 -0.0172
 2184TIP3    H1 6516   5.348   2.894   0.652 -0.8461  0.0950 -0.2848
 2184TIP3    H2 6517   5.348   2.866   0.801  0.9754 -0.4296 -0.3557
 2185TIP3   OH2 6518   5.790   4.775   2.854  0.3642 -0.1697 -0.4270
 2185TIP3    H1 6519   5.885   4.783   2.859  0.6789 -2.7184 -1.1449
 2185TIP3    H2 6520   5.772   4.760   2.761 -1.0496  2.7445 -0.7277
 2186TIP3   OH2 6521   5.048   0.539   3.824 -0.1807 -0.6024 -0.2763
 2186TIP3    H1 6522   5.042   0.602   3.753 -1.8993 -1.2948 -0.8079
 2186TIP3    H2 6523   5.069   0.456   3.780 -1.5918 -1.1031 -0.0752
 2187TIP3   OH2 6524   4.493   4.426   4.567  0.3747 -0.4996  0.1041
 2187TIP3    H1 6525   4.580   4.400   4.597  1.2956  1.2439 -0.8811
 2187TIP3    H2 6526   4.478   4.511   4.608 -0.5108 -0.4249 -0.3572
 2188TIP3   OH2 6527   5.199   1.161   2.415 -0.0566 -0.1120  0.7787
 2188TIP3    H1 6528   5.158   1.229   2.362  1.0911  0.1117  0.1305
 2188TIP3    H2 6529   5.185   1.188   2.505 -1.9983 -0.4593  0.6347
 2189TIP3   OH2 6530   5.560   3.872   1.124 -0.6427  0.5536 -0.3828
 2189TIP3    H1 6531   5.638   3.919   1.092  0.2410 -0.4108  0.2824
 2189TIP3    H2 6532   5.534   3.921   1.202 -0.7251  0.8934 -0.6189
 2190TIP3   OH2 6533   4.698   1.442   2.605  1.2493  0.4776 -0.5835
 2190TIP3    H1 6534   4.772   1.396   2.644 -0.0240 -0.3233  1.0124
 2190TIP3    H2 6535   4.681   1.516   2.663  0.6306  0.4762 -0.7474
 2191TIP3   OH2 6536   0.479   3.201   3.883  0.4911  0.6248 -0.0474
 2191TIP3    H1 6537   0.453   3.280   3.836 -0.4603 -0.5154 -1.5257
 2191TIP3    H2 6538   0.513   3.233   3.967  1.8013  2.7033 -1.2804
 2192TIP3   OH2 6539   3.418   6.393   0.335 -0.5157  0.2248  0.0729
 2192TIP3    H1 6540   3.494   6.435   0.374  2.3052 -2.8604 -1.5322
 2192TIP3    H2 6541   3.424   6.416   0.242 -1.2178 -0.4638 -0.1496
 2193TIP3   OH2 6542   2.880   5.883   1.124  0.3915 -0.2404 -0.3823
 2193TIP3    H1 6543   2.962   5.920   1.157  0.0287  0.6520 -0.4518
 2193TIP3    H2 6544   2.907   5.822   1.055  0.9494  0.9330 -1.2329
 2194TIP3   OH2 6545   0.589   5.638   5.811 -0.1806 -0.1234 -0.0474
 2194TIP3    H1 6546   0.594   5.549   5.846 -1.4920 -0.0317  0.4331
 2194TIP3    H2 6547   0.645   5.636   5.733  1.4620 -0.7840  1.1002
 2195TIP3   OH2 6548   5.179   3.212   0.130 -0.0840  0.5675 -0.0648
 2195TIP3    H1 6549   5.169   3.301   0.163 -0.3091 -0.1594  1.9992
 2195TIP3    H2 6550   5.108   3.163   0.172 -0.3497 -0.4628 -1.6498
 2196TIP3   OH2 6551   0.227   1.299   3.461  0.0716  0.2060  0.6611
 2196TIP3    H1 6552   0.140   1.331   3.436 -0.2779 -0.3153  1.1818
 2196TIP3    H2 6553   0.209   1.227   3.522  0.7213 -2.7136 -2.3099
 2197TIP3   OH2 6554   3.969   1.995   0.341 -0.4157  0.9184 -0.1834
 2197TIP3    H1 6555   4.009   2.056   0.402  0.7143  1.2289 -1.1919
 2197TIP3    H2 6556   3.874   2.005   0.355 -0.2061  1.8546  0.6493
 2198TIP3   OH2 6557   0.581   4.313   3.355  0.4883  0.0312  0.2886
 2198TIP3    H1 6558   0.585   4.238   3.415  1.4126  0.0724  0.2857
 2198TIP3    H2 6559   0.619   4.385   3.405  0.2751  0.3254  0.0252
 2199TIP3   OH2 6560   6.532   5.240   0.096 -0.4940  0.3206 -0.4702
 2199TIP3    H1 6561   6.625   5.246   0.072 -0.5380  1.3290 -0.4445
 2199TIP3    H2 6562   6.533   5.215   0.188 -0.2371  0.4538 -0.4340
 2200TIP3   OH2 6563   0.036   4.106   2.818 -0.1200 -0.1016 -0.3599
 2200TIP3    H1 6564  -0.023   4.147   2.755 -0.2333 -1.0998 -0.9335
 2200TIP3    H2 6565   0.011   4.014   2.818  0.6531 -0.3292  0.2812
 2201TIP3   OH2 6566   1.330   0.937   1.434 -0.0593  0.1264 -0.2368
 2201TIP3    H1 6567   1.342   1.032   1.429  0.4860  0.0745 -0.0252
 2201TIP3    H2 6568   1.296   0.913   1.348 -2.8364  0.8554  0.5504
 2202TIP3   OH2 6569   5.868   1.213   4.387 -0.0173 -0.3189 -0.1063
 2202TIP3    H1 6570   5.898   1.278   4.323  1.7770 -0.6431  0.3625
 2202TIP3    H2 6571   5.869   1.130   4.339  0.8797 -0.4919  0.2068
 2203TIP3   OH2 6572   1.890   3.402   1.766 -0.0861  0.2872  0.1277
 2203TIP3    H1 6573   1.809   3.443   1.797 -0.7204  0.2889 -1.4366
 2203TIP3    H2 6574   1.865   3.355   1.686  1.5354  0.6873 -0.6747
 2204TIP3   OH2 6575   4.114   4.146   4.399 -0.1693  0.7144  0.1183
 2204TIP3    H1 6576   4.147   4.150   4.309 -1.9582 -0.1261 -0.6243
 2204TIP3    H2 6577   4.151   4.223   4.442  2.5393 -0.0412 -0.6606
 2205TIP3   OH2 6578   2.729   5.908   5.476  0.0640  0.2022  0.2024
 2205TIP3    H1 6579   2.706   5.853   5.550  1.4026 -0.1397  0.4015
 2205TIP3    H2 6580   2.797   5.966   5.509 -0.4693  1.1611 -0.3362
 2206TIP3   OH2 6581   0.094   1.905   2.831 -0.4909  0.3641  0.1587
 2206TIP3    H1 6582   0.106   1.950   2.915  1.5699  1.6581 -0.7481
 2206TIP3    H2 6583   0.014   1.944   2.795 -0.7517  0.6430  1.0059
 2207TIP3   OH2 6584   7.087   0.361   1.933  0.5472 -0.0393  0.0289
 2207TIP3    H1 6585   7.110   0.357   1.840  1.4464 -0.3252  0.2482
 2207TIP3    H2 6586   6.992   0.351   1.935  0.3457  1.2999 -0.9456
 2208TIP3   OH2 6587   6.227   0.860   0.484  0.1865  0.4255  0.2376
 2208TIP3    H1 6588   6.272   0.902   0.558 -0.2713 -1.3363  1.5736
 2208TIP3    H2 6589   6.144   0.906   0.479  0.2336  0.5902  0.8118
 2209TIP3   OH2 6590   5.111   3.992   4.570  0.2439 -0.2697 -0.1200
 2209TIP3    H1 6591   5.109   3.903   4.607 -2.6974 -1.3145 -2.3826
 2209TIP3    H2 6592   5.142   3.979   4.481 -0.2055  0.9837 -0.4709
 2210TIP3   OH2 6593   1.791   3.124   5.531  0.4458 -0.7400 -0.2561
 2210TIP3    H1 6594   1.882   3.144   5.554  0.4483 -1.4951  0.4219
 2210TIP3    H2 6595   1.791   3.030   5.512  0.0406 -0.5262 -1.4435
 2211TIP3   OH2 6596   2.979   2.353   4.155 -0.0537 -0.2990 -0.3552
 2211TIP3    H1 6597   2.900   2.390   4.194  0.2809  0.8261 -0.6882
 2211TIP3    H2 6598   2.989   2.268   4.196 -1.4571 -0.4797 -0.3288
 2212TIP3   OH2 6599   3.780   0.323   4.630  0.3831  0.2049 -0.3032
 2212TIP3    H1 6600   3.793   0.335   4.724 -0.4983 -1.3145  0.0456
 2212TIP3    H2 6601   3.741   0.404   4.601  1.3840  1.0009  0.4769
 2213TIP3   OH2 6602   5.904   6.701   2.150  0.6084  0.6350  0.3731
 2213TIP3    H1 6603   5.892   6.730   2.241 -3.6369 -0.6434  0.4597
 2213TIP3    H2 6604   5.849   6.760   2.099  0.3108 -0.6667 -0.8727
 2214TIP3   OH2 6605   6.300   0.289   1.377  0.2668  0.3392  0.5998
 2214TIP3    H1 6606   6.348   0.258   1.300  1.4930 -0.1907  1.5380
 2214TIP3    H2 6607   6.362   0.348   1.422 -0.8921  1.6826  0.5207
 2215TIP3   OH2 6608   3.126   5.677   4.111  0.0747  0.6384  0.2162
 2215TIP3    H1 6609   3.092   5.723   4.034  0.2385 -0.5248 -0.5793
 2215TIP3    H2 6610   3.132   5.745   4.179 -0.5720  1.5780 -0.6324
 2216TIP3   OH2 6611   5.001   4.993   3.354  0.8134 -0.1547  0.2270
 2216TIP3    H1 6612   4.947   4.913   3.357  2.1315 -1.1268 -0.8529
 2216TIP3    H2 6613   4.996   5.022   3.263  1.3334  0.2984  0.3396
 2217TIP3   OH2 6614   1.952   2.722   0.414 -0.2837  0.2890  0.1879
 2217TIP3    H1 6615   1.963   2.721   0.319 -0.1356  0.7856  0.1920
 2217TIP3    H2 6616   1.863   2.755   0.427 -0.9197 -1.3679  0.1990
 2218TIP3   OH2 6617   0.386   2.184   5.598 -0.2767 -0.0365  0.2714
 2218TIP3    H1 6618   0.469   2.139   5.582 -0.1827  0.5464 -0.9776
 2218TIP3    H2 6619   0.409   2.277   5.606 -0.6767  0.0062  1.1083
 2219TIP3   OH2 6620   3.791   3.244   3.831 -0.1200  0.0424  0.0515
 2219TIP3    H1 6621   3.724   3.291   3.880  1.7986  2.3316  0.6629
 2219TIP3    H2 6622   3.754   3.232   3.744 -0.7468  2.7888 -0.1356
 2220TIP3   OH2 6623   5.333   1.449   4.807 -0.3696  0.3822  0.3355
 2220TIP3    H1 6624   5.393   1.384   4.842 -0.4040 -0.2111 -0.6712
 2220TIP3    H2 6625   5.382   1.531   4.811 -0.1324  0.2126  1.1250
 2221TIP3   OH2 6626   2.765   3.008   4.170 -0.3899 -0.3277  0.1726
 2221TIP3    H1 6627   2.731   3.090   4.135 -1.3945 -0.6859  0.2864
 2221TIP3    H2 6628   2.806   2.965   4.095  1.3910  0.8638  0.3815
 2222TIP3   OH2 6629   5.052   1.071   3.741  0.0049  0.0714 -0.5360
 2222TIP3    H1 6630   5.031   1.145   3.799  1.3680  0.8697 -1.0022
 2222TIP3    H2 6631   4.969   1.027   3.727 -1.0069  1.9373 -0.7827
 2223TIP3   OH2 6632   3.032   2.377   2.801  0.0681 -0.0327  0.1234
 2223TIP3    H1 6633   3.116   2.355   2.840 -0.4198 -2.0675  0.1614
 2223TIP3    H2 6634   3.009   2.462   2.838  1.6077  0.0609  0.9220
 2224TIP3   OH2 6635   6.092   0.197   1.615 -0.2471 -0.2500 -0.1359
 2224TIP3    H1 6636   6.142   0.194   1.533 -0.3514  0.2741 -0.2202
 2224TIP3    H2 6637   6.021   0.259   1.598  0.5361  0.9515  0.7920
 2225TIP3   OH2 6638   4.553   5.672   0.741  0.6487 -0.4425 -0.6850
 2225TIP3    H1 6639   4.570   5.584   0.708  3.1450  0.0317 -0.8714
 2225TIP3    H2 6640   4.489   5.709   0.679  1.2926 -1.3524 -1.9453
 2226TIP3   OH2 6641   2.794   1.973   5.694 -0.1014  0.2039 -0.3897
 2226TIP3    H1 6642   2.763   1.949   5.607  0.6621 -0.3551 -0.5198
 2226TIP3    H2 6643   2.772   1.897   5.749  1.2617 -0.3312 -0.5489
 2227TIP3   OH2 6644   1.108   6.810   5.245 -0.2212  0.2019 -0.1155
 2227TIP3    H1 6645   1.029   6.838   5.291 -0.3171 -0.2937  0.0308
 2227TIP3    H2 6646   1.126   6.723   5.279  0.6253  0.4715  0.1527
 2228TIP3   OH2 6647   0.892   0.415   4.027 -0.5094  0.3232 -0.0030
 2228TIP3    H1 6648   0.800   0.440   4.040 -0.2018  0.9690  1.0104
 2228TIP3    H2 6649   0.911   0.355   4.100  0.0296  0.6279  0.1095
 2229TIP3   OH2 6650   5.648   6.680   1.603 -0.2770 -0.3664 -0.4065
 2229TIP3    H1 6651   5.604   6.687   1.688  0.0478  0.8998 -0.3259
 2229TIP3    H2 6652   5.625   6.761   1.557  1.3922  0.0026 -0.6354
 2230TIP3   OH2 6653   1.141   3.792   3.600 -0.1610  0.4595 -0.4507
 2230TIP3    H1 6654   1.119   3.875   3.558 -1.9350  0.0326 -0.4262
 2230TIP3    H2 6655   1.146   3.729   3.528 -0.8270  0.2029 -0.2795
 2231TIP3   OH2 6656   4.709   2.744   5.117  0.4383  0.0610  0.4348
 2231TIP3    H1 6657   4.717   2.697   5.034 -2.5652  1.4430 -0.8087
 2231TIP3    H2 6658   4.690   2.835   5.091 -1.0632  0.4405  2.5722
 2232TIP3   OH2 6659   2.583   4.220   1.072 -0.2544  0.5406  0.3388
 2232TIP3    H1 6660   2.556   4.135   1.108  0.1854  0.7654  1.2385
 2232TIP3    H2 6661   2.678   4.220   1.083 -0.0062  0.2994 -1.5711
 2233TIP3   OH2 6662   0.843   0.399   0.382 -0.9743  0.0954  0.0744
 2233TIP3    H1 6663   0.828   0.304   0.391 -0.3469 -0.0216 -0.0730
 2233TIP3    H2 6664   0.786   0.426   0.311  0.0925 -0.4966 -1.0413
 2234TIP3   OH2 6665   7.131   0.865   0.921 -0.1890 -0.4436  0.0788
 2234TIP3    H1 6666   7.139   0.841   0.828 -0.6653  3.3988 -1.1236
 2234TIP3    H2 6667   7.059   0.927   0.924 -0.8648 -1.1945  3.2852
 2235TIP3   OH2 6668   0.151   3.747   5.203  0.0761  0.2031 -0.0124
 2235TIP3    H1 6669   0.064   3.776   5.176 -0.4207 -1.2616 -0.0551
 2235TIP3    H2 6670   0.137   3.701   5.286  0.8013 -0.0497 -0.0240
 2236TIP3   OH2 6671   2.830   0.357   2.453 -0.0088 -0.2489 -0.3712
 2236TIP3    H1 6672   2.916   0.318   2.440  1.1202  2.2556 -1.0321
 2236TIP3    H2 6673   2.778   0.288   2.493  2.4028 -1.7179  0.4272
 2237TIP3   OH2 6674   5.250   5.480   0.753  0.0534 -0.5664 -0.4795
 2237TIP3    H1 6675   5.279   5.488   0.662  1.4207  0.2856  0.0042
 2237TIP3    H2 6676   5.170   5.532   0.757 -0.1285 -0.7711 -1.2258
 2238TIP3   OH2 6677   1.701   1.492   4.403 -0.1021  0.2331  0.0606
 2238TIP3    H1 6678   1.695   1.433   4.328 -0.7278  1.1346 -0.6263
 2238TIP3    H2 6679   1.730   1.437   4.475  0.9166 -0.5713 -0.9354
 2239TIP3   OH2 6680   2.645   2.751   1.238  0.4180  0.1482 -0.4282
 2239TIP3    H1 6681   2.635   2.688   1.309  1.6494 -0.4518 -0.7608
 2239TIP3    H2 6682   2.558   2.757   1.198  0.1980 -1.0409 -0.1480
 2240TIP3   OH2 6683   5.477   2.669   1.948  0.9079 -0.1985  0.9128
 2240TIP3    H1 6684   5.466   2.574   1.944  0.0989 -0.0631 -1.6168
 2240TIP3    H2 6685   5.545   2.688   1.884  1.8988  0.8691  2.2146
 2241TIP3   OH2 6686   5.780   1.309   1.984  0.3896 -0.0966 -0.4945
 2241TIP3    H1 6687   5.852   1.299   1.921  0.0324  0.3814 -0.9927
 2241TIP3    H2 6688   5.703   1.325   1.930 -0.3460 -1.8362 -0.0313
 2242TIP3   OH2 6689   2.110   6.753   3.983 -0.5171 -0.6923 -0.2579
 2242TIP3    H1 6690   2.136   6.661   3.976 -0.7487 -0.6898 -1.2270
 2242TIP3    H2 6691   2.022   6.756   3.947 -0.2919  0.0039 -0.7794
 2243TIP3   OH2 6692   4.915   0.216   4.896  0.9617  0.1809 -0.0558
 2243TIP3    H1 6693   4.944   0.137   4.942  2.7467  1.0618  0.4251
 2243TIP3    H2 6694   4.881   0.273   4.964 -0.2864 -0.1164 -0.3980
 2244TIP3   OH2 6695   2.056   6.355   1.017  0.1889  0.2604  0.4660
 2244TIP3    H1 6696   1.993   6.288   0.991  0.3479  0.6432 -0.9608
 2244TIP3    H2 6697   2.032   6.376   1.107 -1.2720 -0.1145  0.1955
 2245TIP3   OH2 6698   3.518   1.599   0.274  0.2403  0.0042 -0.2247
 2245TIP3    H1 6699   3.551   1.597   0.364  1.1820 -0.4132 -0.5654
 2245TIP3    H2 6700   3.447   1.535   0.274  0.5522 -0.3535  0.1072
 2246TIP3   OH2 6701   1.060   2.534   5.084 -0.1547  0.1968  0.3099
 2246TIP3    H1 6702   1.127   2.530   5.016  0.2537  1.4698  0.5949
 2246TIP3    H2 6703   1.034   2.443   5.098  0.0801 -0.1406 -1.2076
 2247TIP3   OH2 6704   2.106   5.369   1.038 -0.0584 -0.3938  0.0014
 2247TIP3    H1 6705   2.139   5.312   0.969 -0.8495 -0.0020 -0.7176
 2247TIP3    H2 6706   2.078   5.448   0.993  0.3119  0.2693  0.8957
 2248TIP3   OH2 6707   1.865   6.408   2.391  0.4692  0.5337  0.1800
 2248TIP3    H1 6708   1.802   6.421   2.462 -0.9972 -0.3646 -0.9040
 2248TIP3    H2 6709   1.937   6.361   2.433 -0.5346 -0.3245  1.0244
 2249TIP3   OH2 6710   2.111   2.237   3.118 -0.3515 -0.1369  0.1938
 2249TIP3    H1 6711   2.070   2.154   3.141  1.9883 -0.9885  1.6672
 2249TIP3    H2 6712   2.176   2.214   3.052 -0.2325  0.6582  0.0249
 2250TIP3   OH2 6713   4.641   3.433   1.913 -0.2090  0.4839  0.1412
 2250TIP3    H1 6714   4.658   3.484   1.834 -0.0589 -0.0257 -0.1640
 2250TIP3    H2 6715   4.555   3.393   1.897 -0.0438  0.1389  0.0986
 2251TIP3   OH2 6716   1.161   4.254   4.334  0.4499  0.6696  0.2403
 2251TIP3    H1 6717   1.113   4.274   4.254 -1.8107  0.0982  1.3702
 2251TIP3    H2 6718   1.215   4.178   4.312 -1.4945 -0.6289 -0.2997
 2252TIP3   OH2 6719   4.043   2.205   4.332 -0.1552 -0.2669 -0.4111
 2252TIP3    H1 6720   3.957   2.166   4.347  0.2598 -1.7257 -1.6413
 2252TIP3    H2 6721   4.101   2.158   4.392 -0.5757  2.6546  2.5922
 2253TIP3   OH2 6722   4.363   4.483   4.114  0.4102  0.6080 -0.4073
 2253TIP3    H1 6723   4.427   4.422   4.150 -0.5400 -0.5849 -0.6369
 2253TIP3    H2 6724   4.400   4.511   4.030 -0.1027 -1.4746 -1.4031
 2254TIP3   OH2 6725   3.723   0.540   5.859  0.6844 -0.6278  0.5133
 2254TIP3    H1 6726   3.750   0.523   5.949  1.5221 -0.2575  0.3404
 2254TIP3    H2 6727   3.791   0.500   5.805  1.1700  0.7012  0.0819
 2255TIP3   OH2 6728   2.603   3.620   4.172 -0.1174  0.6184 -0.1441
 2255TIP3    H1 6729   2.605   3.536   4.126 -1.0138  0.1347  0.6573
 2255TIP3    H2 6730   2.590   3.596   4.264 -0.9547  1.6504  0.0265
 2256TIP3   OH2 6731   3.161   5.242   3.223  0.1836 -0.0199  0.4222
 2256TIP3    H1 6732   3.066   5.235   3.222  0.2313 -1.1006  1.3877
 2256TIP3    H2 6733   3.191   5.160   3.183  0.7061 -1.0988  2.8430
 2257TIP3   OH2 6734   0.863   3.394   2.256  0.2944  0.1415 -0.0671
 2257TIP3    H1 6735   0.931   3.334   2.226 -0.6514 -0.9198 -0.1542
 2257TIP3    H2 6736   0.809   3.342   2.315 -0.1570  1.1020  0.3787
 2258TIP3   OH2 6737   5.888   1.034   4.168 -0.2205  0.3117  0.6178
 2258TIP3    H1 6738   5.841   0.970   4.115  1.4543 -0.0078 -0.5395
 2258TIP3    H2 6739   5.870   1.118   4.124  1.1050  0.0572 -0.4988
 2259TIP3   OH2 6740   1.191   2.387   2.480 -0.3536 -0.1726 -0.1494
 2259TIP3    H1 6741   1.189   2.353   2.390  0.6601  0.2098 -0.3228
 2259TIP3    H2 6742   1.099   2.403   2.501 -0.5736  0.1454 -1.2749
 2260TIP3   OH2 6743   6.593   6.125   2.354  0.3835 -0.3172  0.5038
 2260TIP3    H1 6744   6.522   6.063   2.373  0.7797 -1.0035 -0.2382
 2260TIP3    H2 6745   6.654   6.114   2.427 -0.3885  0.4812  1.3015
 2261TIP3   OH2 6746   5.519   0.365   1.682 -0.1156  0.3856 -0.7446
 2261TIP3    H1 6747   5.509   0.439   1.742  0.9089  0.6361 -0.8713
 2261TIP3    H2 6748   5.438   0.314   1.694  0.4732 -0.1314  1.6268
 2262TIP3   OH2 6749   3.397   5.233   2.900  0.0962  0.3703  0.2153
 2262TIP3    H1 6750   3.421   5.292   2.971  1.2080  0.5222 -0.2699
 2262TIP3    H2 6751   3.352   5.289   2.837 -2.1291 -0.0106  1.3558
 2263TIP3   OH2 6752   5.321   4.549   2.107 -0.2495 -0.6703  0.2430
 2263TIP3    H1 6753   5.374   4.591   2.174 -0.4198 -0.9702  0.5678
 2263TIP3    H2 6754   5.370   4.469   2.085  0.5203  0.0988 -0.9915
 2264TIP3   OH2 6755   1.317   5.257   3.832 -0.6710 -0.4603 -0.3420
 2264TIP3    H1 6756   1.334   5.348   3.811  0.5610 -0.0086  2.2589
 2264TIP3    H2 6757   1.221   5.249   3.830 -0.8713  1.2596  0.6567
 2265TIP3   OH2 6758   1.619   6.539   3.955  0.7352  0.1384  0.2632
 2265TIP3    H1 6759   1.548   6.563   3.895  1.5370  0.2299 -0.6800
 2265TIP3    H2 6760   1.692   6.597   3.931  1.0028  0.3541  1.5135
 2266TIP3   OH2 6761   1.452   4.307   5.684 -0.9547  0.0146  0.1441
 2266TIP3    H1 6762   1.401   4.242   5.734  1.4443 -0.4997  2.1004
 2266TIP3    H2 6763   1.523   4.257   5.644  1.0060  1.3543  1.7672
 2267TIP3   OH2 6764   4.831   6.477   5.475 -0.1862 -0.4788 -0.8176
 2267TIP3    H1 6765   4.796   6.417   5.408  0.4845  0.8275 -2.3908
 2267TIP3    H2 6766   4.853   6.419   5.549 -1.2553 -1.9260 -1.5669
 2268TIP3   OH2 6767   4.865   0.689   0.272 -0.4381 -0.2192 -0.2191
 2268TIP3    H1 6768   4.783   0.735   0.252  0.1466  1.1367  0.4666
 2268TIP3    H2 6769   4.837   0.598   0.285 -1.7833  0.1379 -0.3758
 2269TIP3   OH2 6770   0.968   3.008   1.653 -0.7219  0.1838  0.4889
 2269TIP3    H1 6771   0.899   3.059   1.695  0.8286  1.7403  1.2481
 2269TIP3    H2 6772   0.974   3.043   1.564 -1.4587 -0.5321  0.1487
 2270TIP3   OH2 6773   6.248   4.307   5.279 -0.2796  0.0296 -0.0618
 2270TIP3    H1 6774   6.249   4.253   5.200 -1.9909 -1.2943  0.7472
 2270TIP3    H2 6775   6.245   4.243   5.351  1.8127  1.1802  1.1532
 2271TIP3   OH2 6776   3.786   3.834   1.942  0.3017  0.0511 -0.2024
 2271TIP3    H1 6777   3.736   3.902   1.988 -0.7514 -0.7293 -0.1589
 2271TIP3    H2 6778   3.720   3.777   1.903  1.1584 -0.9371 -0.2697
 2272TIP3   OH2 6779   6.749   5.124   1.312  0.8015 -0.0623 -0.3229
 2272TIP3    H1 6780   6.750   5.031   1.291  0.5671 -0.2336  0.3676
 2272TIP3    H2 6781   6.707   5.128   1.398  0.0026  0.7637 -0.7330
 2273TIP3   OH2 6782   2.659   4.419   4.436  0.1106  0.0182 -0.0425
 2273TIP3    H1 6783   2.660   4.331   4.473 -1.1760  0.0494  0.1230
 2273TIP3    H2 6784   2.669   4.477   4.512  1.6920  0.0262 -0.2268
 2274TIP3   OH2 6785   4.444   6.325   4.330 -0.2133 -0.1526  0.4347
 2274TIP3    H1 6786   4.384   6.271   4.381 -1.0129 -0.0366 -0.3592
 2274TIP3    H2 6787   4.515   6.265   4.307 -1.1468 -0.9325 -0.5344
 2275TIP3   OH2 6788   3.319   5.327   1.617  0.1557 -0.2175 -0.6330
 2275TIP3    H1 6789   3.263   5.335   1.540  1.3119 -1.2018 -1.6202
 2275TIP3    H2 6790   3.363   5.412   1.624  1.6184 -0.7584 -2.3779
 2276TIP3   OH2 6791   3.509   3.486   5.162 -0.4333 -0.0444 -0.1340
 2276TIP3    H1 6792   3.478   3.412   5.214  1.4518  0.4938  1.9349
 2276TIP3    H2 6793   3.439   3.552   5.172 -0.9440 -0.6220  0.1865
 2277TIP3   OH2 6794   4.262   0.388   4.051  0.6365  0.2634  0.1683
 2277TIP3    H1 6795   4.282   0.346   4.135 -1.3423 -0.6748  0.2195
 2277TIP3    H2 6796   4.216   0.468   4.075 -1.0151 -0.5985  0.0104
 2278TIP3   OH2 6797   4.940   3.159   3.330 -1.0248 -0.3822  0.2992
 2278TIP3    H1 6798   4.982   3.245   3.325 -1.0951 -0.2277  1.9072
 2278TIP3    H2 6799   4.879   3.167   3.403 -2.5558 -1.1795 -0.8288
 2279TIP3   OH2 6800   6.837   0.528   5.780  0.5596 -0.0479  0.0216
 2279TIP3    H1 6801   6.748   0.555   5.754  0.2152 -0.9917  0.1794
 2279TIP3    H2 6802   6.880   0.610   5.804  0.4086  0.6995 -2.0312
 2280TIP3   OH2 6803   6.711   3.059   4.870 -0.3482  0.5137  0.1879
 2280TIP3    H1 6804   6.659   2.978   4.863 -1.2818  1.1014  0.1226
 2280TIP3    H2 6805   6.744   3.074   4.782 -0.7697  0.5759  0.0354
 2281TIP3   OH2 6806   0.683   1.792   4.883  0.2004  0.3609 -0.2021
 2281TIP3    H1 6807   0.640   1.708   4.863 -1.0565  0.7640  0.6837
 2281TIP3    H2 6808   0.659   1.849   4.809  0.5228  0.1377 -0.4841
 2282TIP3   OH2 6809   1.003   3.801   1.687 -0.8550  0.3448  0.1745
 2282TIP3    H1 6810   0.986   3.732   1.623 -0.7275 -0.0386  0.5526
 2282TIP3    H2 6811   0.916   3.829   1.716 -0.9221  0.6861 -0.3345
 2283TIP3   OH2 6812   0.071   4.980   4.404  0.2932  0.6537  0.2177
 2283TIP3    H1 6813  -0.016   5.012   4.381  0.2917  0.2518 -0.3533
 2283TIP3    H2 6814   0.123   4.995   4.325  0.1336 -1.3253 -0.3173
 2284TIP3   OH2 6815   0.371   1.532   4.582 -0.4936 -0.1155 -0.7567
 2284TIP3    H1 6816   0.306   1.502   4.646 -0.5235 -1.4208 -1.3682
 2284TIP3    H2 6817   0.393   1.453   4.533  0.8266  0.5217 -1.2055
 2285TIP3   OH2 6818   5.015   0.953   5.027  0.2596 -0.1094 -0.0825
 2285TIP3    H1 6819   5.050   0.949   4.938  1.5154  3.4571  0.1033
 2285TIP3    H2 6820   4.921   0.964   5.015  0.3229 -0.4272 -0.9379
 2286TIP3   OH2 6821   1.291   4.822   1.849 -0.5366  0.5392 -0.0501
 2286TIP3    H1 6822   1.196   4.837   1.855 -0.7448 -0.8537  0.4411
 2286TIP3    H2 6823   1.302   4.762   1.776 -0.0628  0.5022  0.0473
 2287TIP3   OH2 6824  -0.011   1.107   1.668 -0.1823 -0.0196  0.2848
 2287TIP3    H1 6825   0.053   1.166   1.708  0.5841 -0.8489  0.2973
 2287TIP3    H2 6826   0.022   1.019   1.687 -1.3453 -0.4600  0.3175
 2288TIP3   OH2 6827   5.385   3.032   0.298 -0.0223  0.1475 -0.1499
 2288TIP3    H1 6828   5.360   3.087   0.224 -0.0479  0.6574  0.2313
 2288TIP3    H2 6829   5.381   3.090   0.374  1.2812 -0.0332  0.0726
 2289TIP3   OH2 6830   4.682   3.762   4.355 -0.2305  0.0167  0.0291
 2289TIP3    H1 6831   4.732   3.791   4.278 -0.1881  0.0038  0.0517
 2289TIP3    H2 6832   4.728   3.802   4.429  0.0673 -0.4310  0.0919
 2290TIP3   OH2 6833   0.667   4.709   3.030  0.1485 -0.0894  0.3985
 2290TIP3    H1 6834   0.683   4.620   2.999  0.2005  0.0972 -0.1174
 2290TIP3    H2 6835   0.587   4.701   3.084  0.0306 -0.4087  0.1798
 2291TIP3   OH2 6836   6.751   4.577   4.876  0.0928  0.1082 -0.0430
 2291TIP3    H1 6837   6.700   4.620   4.944  0.6267  0.4907  0.1201
 2291TIP3    H2 6838   6.726   4.621   4.795  1.6750  1.7306  0.2958
 2292TIP3   OH2 6839   6.343   4.134   4.056  0.3865 -0.1331  0.2330
 2292TIP3    H1 6840   6.357   4.040   4.040 -0.1477 -0.1498 -0.1744
 2292TIP3    H2 6841   6.249   4.147   4.040  0.5036  0.5176  0.0390
 2293TIP3   OH2 6842   5.515   2.687   4.566 -0.5058 -0.1717  0.0966
 2293TIP3    H1 6843   5.425   2.663   4.589 -0.0404 -0.7712  1.4560
 2293TIP3    H2 6844   5.517   2.783   4.572 -0.2528 -0.2520  3.7010
 2294TIP3   OH2 6845   3.250   2.457   0.767 -0.1386  0.7977 -0.4803
 2294TIP3    H1 6846   3.164   2.421   0.791 -0.5577  0.0248 -2.8673
 2294TIP3    H2 6847   3.309   2.428   0.836 -1.2398 -1.2628 -0.3339
 2295TIP3   OH2 6848   4.097   6.240   0.609 -0.4495  0.0867  0.2112
 2295TIP3    H1 6849   4.161   6.282   0.666  0.4518 -1.9430  0.7556
 2295TIP3    H2 6850   4.148   6.179   0.556 -1.7695 -0.6983 -0.1936
 2296TIP3   OH2 6851   4.539   3.257   5.443 -0.1640 -0.7571  0.1640
 2296TIP3    H1 6852   4.468   3.194   5.433  0.6358 -1.5321 -0.8407
 2296TIP3    H2 6853   4.578   3.236   5.528 -0.8828 -0.5656  0.5503
 2297TIP3   OH2 6854   6.347   3.520   5.836 -0.4117 -0.5649  0.5499
 2297TIP3    H1 6855   6.426   3.467   5.847  0.1500  0.0065 -0.5453
 2297TIP3    H2 6856   6.342   3.573   5.916  0.9644  0.1988  0.1701
 2298TIP3   OH2 6857   3.982   4.799   2.084 -0.1103  0.2020 -0.2245
 2298TIP3    H1 6858   4.031   4.730   2.039  1.4276  2.5221 -2.3614
 2298TIP3    H2 6859   4.048   4.849   2.132 -1.1726  0.3350  1.1703
 2299TIP3   OH2 6860   6.192   4.541   4.188  0.7269  0.4367  0.0032
 2299TIP3    H1 6861   6.137   4.487   4.244 -0.1065  1.6377  0.3805
 2299TIP3    H2 6862   6.267   4.563   4.242  0.4874  0.6391  0.2550
 2300TIP3   OH2 6863   1.782   6.766   2.713 -0.0862 -0.2176  0.0190
 2300TIP3    H1 6864   1.801   6.745   2.622  0.6070 -0.7132  0.2796
 2300TIP3    H2 6865   1.858   6.815   2.744 -0.9744  1.3363 -0.1050
 2301TIP3   OH2 6866   2.494   1.707   5.609 -0.1020 -0.4247 -0.1626
 2301TIP3    H1 6867   2.511   1.624   5.653 -0.5380 -0.5425 -0.2228
 2301TIP3    H2 6868   2.503   1.773   5.678  1.2298 -0.4150 -0.3045
 2302TIP3   OH2 6869   0.807   2.704   1.365  0.0200  0.2557  0.5762
 2302TIP3    H1 6870   0.791   2.627   1.421 -1.7485  1.9359  2.5695
 2302TIP3    H2 6871   0.747   2.692   1.291  0.6908 -0.8736  0.1888
 2303TIP3   OH2 6872   5.854   3.672   5.189 -0.3857 -0.7429  0.4092
 2303TIP3    H1 6873   5.845   3.718   5.272 -0.7564  1.5611 -0.8204
 2303TIP3    H2 6874   5.796   3.597   5.196 -2.2480  0.7023  1.4105
 2304TIP3   OH2 6875   1.821   3.223   3.051 -0.1681 -0.1341  0.7729
 2304TIP3    H1 6876   1.817   3.245   3.144 -0.3778 -0.0218  0.7388
 2304TIP3    H2 6877   1.902   3.264   3.020  0.7270 -1.4777  1.2391
 2305TIP3   OH2 6878   0.939   2.935   5.162 -0.1866  0.3469  0.1783
 2305TIP3    H1 6879   0.917   2.877   5.090  0.3216  0.1263  0.1956
 2305TIP3    H2 6880   0.878   3.009   5.153  0.1117  0.5024 -0.6936
 2306TIP3   OH2 6881   0.772   5.293   2.999  0.0671  0.5421 -0.2251
 2306TIP3    H1 6882   0.842   5.228   2.997  0.6753  1.1559  0.3599
 2306TIP3    H2 6883   0.718   5.273   2.923  0.8236 -0.0123 -0.6312
 2307TIP3   OH2 6884   3.432   6.199   5.607  0.4262 -0.7273 -0.1238
 2307TIP3    H1 6885   3.413   6.237   5.521  0.1004  1.5887  0.9108
 2307TIP3    H2 6886   3.528   6.200   5.613  0.4200 -0.0226 -0.1041
 2308TIP3   OH2 6887   2.320   1.556   4.835 -0.1152 -0.2783 -0.1105
 2308TIP3    H1 6888   2.377   1.483   4.815  0.7587  0.2527  0.3485
 2308TIP3    H2 6889   2.302   1.597   4.751  1.9934  0.8352 -0.1029
 2309TIP3   OH2 6890   3.098   4.305   2.510 -0.1949 -0.0737  0.6609
 2309TIP3    H1 6891   3.173   4.313   2.451 -1.4954  0.9707 -0.9349
 2309TIP3    H2 6892   3.090   4.391   2.551  0.1217 -0.5102  1.6513
 2310TIP3   OH2 6893   0.084   5.984   0.717 -0.1525 -0.1817 -0.2871
 2310TIP3    H1 6894   0.101   5.953   0.806  0.2138 -0.9192 -0.6076
 2310TIP3    H2 6895  -0.012   5.987   0.711 -0.1990  1.2847  0.5978
 2311TIP3   OH2 6896   7.003   4.235   1.913 -0.6110  0.1772 -0.4844
 2311TIP3    H1 6897   7.050   4.189   1.982  0.0031  0.8291 -0.4552
 2311TIP3    H2 6898   7.053   4.316   1.900 -2.3196  1.4323  0.3300
 2312TIP3   OH2 6899   0.124   4.539   2.496 -0.6148 -0.3562 -0.1506
 2312TIP3    H1 6900   0.049   4.585   2.457 -0.2365  0.3042 -0.1243
 2312TIP3    H2 6901   0.117   4.556   2.590 -0.1611  0.1360 -0.1984
 2313TIP3   OH2 6902   5.344   4.827   4.143  0.2893  0.0354 -0.4449
 2313TIP3    H1 6903   5.271   4.810   4.204 -0.4789 -0.0230 -1.3548
 2313TIP3    H2 6904   5.356   4.921   4.145 -0.1814  0.1034 -0.6961
 2314TIP3   OH2 6905   2.124   2.054   1.310  0.1837  0.6387  0.3232
 2314TIP3    H1 6906   2.118   2.072   1.217  1.0086 -1.2267 -0.1373
 2314TIP3    H2 6907   2.218   2.048   1.327  0.0370  0.7877  1.2427
 2315TIP3   OH2 6908   1.372   6.435   1.986 -0.3576 -0.2020  0.2098
 2315TIP3    H1 6909   1.429   6.501   1.946 -1.2380  0.0214 -0.7141
 2315TIP3    H2 6910   1.395   6.436   2.079  1.2574 -0.2408 -0.1584
 2316TIP3   OH2 6911   3.739   4.552   2.552 -0.1824 -0.0323  0.3655
 2316TIP3    H1 6912   3.649   4.523   2.539 -0.8298  1.2299  1.6952
 2316TIP3    H2 6913   3.744   4.635   2.505 -0.3274  0.8536  1.8393
 2317TIP3   OH2 6914   3.615   2.339   2.033 -0.0843 -0.1964  0.3360
 2317TIP3    H1 6915   3.552   2.319   1.964  0.6119 -0.2709 -0.2924
 2317TIP3    H2 6916   3.576   2.413   2.080  0.4270  1.3334 -1.5080
 2318TIP3   OH2 6917   6.602   3.222   1.598 -0.4818 -0.4219  0.6525
 2318TIP3    H1 6918   6.611   3.295   1.536 -0.3578 -2.1090 -1.4351
 2318TIP3    H2 6919   6.512   3.227   1.629 -0.5614  0.4394  0.3059
 2319TIP3   OH2 6920   5.795   1.617   0.562 -0.5114  0.0130  0.3483
 2319TIP3    H1 6921   5.798   1.649   0.472  0.3245  0.5151  0.5391
 2319TIP3    H2 6922   5.731   1.673   0.605  0.9157  1.4610  0.6691
 2320TIP3   OH2 6923  -0.001   1.439   0.527  0.2294  0.3933  0.6433
 2320TIP3    H1 6924   0.088   1.404   0.531  0.1062  0.1160  1.0433
 2320TIP3    H2 6925  -0.044   1.405   0.605 -0.5674 -0.4011 -0.1172
 2321TIP3   OH2 6926   0.846   5.242   3.255 -0.6679  0.1629  0.0914
 2321TIP3    H1 6927   0.817   5.255   3.165 -1.5710 -0.4238  0.2789
 2321TIP3    H2 6928   0.849   5.147   3.265 -1.2994  0.2184  0.8912
 2322TIP3   OH2 6929   0.735   5.040   4.229  0.6675  0.1951 -0.2716
 2322TIP3    H1 6930   0.785   4.963   4.200  0.5751 -0.7324  1.8328
 2322TIP3    H2 6931   0.792   5.081   4.294  0.0703  1.0567 -0.2838
 2323TIP3   OH2 6932   6.497   0.001   1.864 -0.6778  0.5882 -0.2570
 2323TIP3    H1 6933   6.575   0.053   1.848  1.4639 -1.3212  2.9281
 2323TIP3    H2 6934   6.429   0.065   1.886  0.4154  2.1883 -1.2903
 2324TIP3   OH2 6935   6.623   6.383   4.767  0.0472  0.2995 -0.4570
 2324TIP3    H1 6936   6.538   6.356   4.732 -0.7059  2.7010 -0.6702
 2324TIP3    H2 6937   6.620   6.359   4.859 -0.1642 -1.1131 -0.8067
 2325TIP3   OH2 6938   2.746   6.139   2.966 -0.2316  0.0526 -0.1572
 2325TIP3    H1 6939   2.757   6.051   2.931  0.6837  0.0764  0.0440
 2325TIP3    H2 6940   2.817   6.148   3.030  0.0238  1.1356 -0.5821
 2326TIP3   OH2 6941   6.026   2.733   5.634  0.2826  0.1903 -0.1702
 2326TIP3    H1 6942   5.980   2.723   5.551  1.9076  1.5804 -1.3049
 2326TIP3    H2 6943   6.113   2.698   5.617  1.3962  2.6179  0.1584
 2327TIP3   OH2 6944   2.872   2.557   5.552 -0.1627 -0.1742  0.1959
 2327TIP3    H1 6945   2.929   2.633   5.566  0.8424 -0.6982 -0.9002
 2327TIP3    H2 6946   2.901   2.520   5.469 -0.2819 -2.0455  0.9316
 2328TIP3   OH2 6947   1.561   6.530   3.496  0.1550 -0.0586 -0.8549
 2328TIP3    H1 6948   1.501   6.605   3.491  1.0526  0.7611  0.1840
 2328TIP3    H2 6949   1.517   6.468   3.554  0.4462  0.6798  0.1717
 2329TIP3   OH2 6950   2.120   0.072   1.320 -0.7097  0.3076 -0.1987
 2329TIP3    H1 6951   2.189   0.123   1.361  0.6700 -0.7827 -1.0583
 2329TIP3    H2 6952   2.087   0.015   1.390  1.2241 -1.1374 -0.3957
 2330TIP3   OH2 6953   4.252   1.783   5.398  0.2397  0.0084  0.1400
 2330TIP3    H1 6954   4.293   1.869   5.408 -0.7538  0.4843  0.2967
 2330TIP3    H2 6955   4.201   1.791   5.317  0.8212 -0.7248 -0.3074
 2331TIP3   OH2 6956   1.235   1.909   4.572  0.0704  0.2559  0.2713
 2331TIP3    H1 6957   1.272   1.838   4.625 -0.3588 -0.6305 -0.5800
 2331TIP3    H2 6958   1.310   1.945   4.525  0.6475  1.7529  2.1971
 2332TIP3   OH2 6959   3.231   5.187   1.166 -0.0480 -0.5233  0.3304
 2332TIP3    H1 6960   3.176   5.123   1.212  0.1131 -0.5908  0.4295
 2332TIP3    H2 6961   3.211   5.173   1.074 -1.8574  0.9287  0.4451
 2333TIP3   OH2 6962   5.907   1.254   1.741  0.0078 -0.2137  0.0596
 2333TIP3    H1 6963   5.860   1.306   1.676  0.1847 -1.2845 -0.9738
 2333TIP3    H2 6964   5.885   1.163   1.719  0.7806 -0.6364  0.9539
 2334TIP3   OH2 6965   0.959   1.634   2.538  0.6490  0.5100  0.0503
 2334TIP3    H1 6966   0.880   1.673   2.575  1.0850  1.6128 -0.1164
 2334TIP3    H2 6967   1.029   1.696   2.562  1.2015  0.3844 -1.1645
 2335TIP3   OH2 6968   6.108   2.588   0.839 -0.5984  0.3962  0.2352
 2335TIP3    H1 6969   6.151   2.570   0.922 -1.2366 -0.4980  0.3829
 2335TIP3    H2 6970   6.107   2.684   0.833  1.5771  0.4520  0.1141
 2336TIP3   OH2 6971   2.397   2.509   4.020  0.7157 -0.0906  0.7052
 2336TIP3    H1 6972   2.429   2.422   4.042 -0.2160 -0.3223  1.2043
 2336TIP3    H2 6973   2.308   2.494   3.989  0.8314  0.6030  0.0121
 2337TIP3   OH2 6974   5.740   1.761   4.209  0.1564  0.6012  0.1238
 2337TIP3    H1 6975   5.737   1.853   4.237  0.8276  0.7405 -0.2265
 2337TIP3    H2 6976   5.650   1.740   4.187 -0.0994  1.0019  0.7621
 2338TIP3   OH2 6977   2.010   6.316   5.234 -0.1818  0.0803 -0.3372
 2338TIP3    H1 6978   1.952   6.308   5.158 -0.1913  0.4481 -0.3746
 2338TIP3    H2 6979   2.094   6.344   5.196  0.3138 -1.4088 -0.3898
 2339TIP3   OH2 6980   2.205   3.895   1.661 -0.3035 -0.2713 -0.3332
 2339TIP3    H1 6981   2.191   3.892   1.756  0.0786 -0.9264 -0.2917
 2339TIP3    H2 6982   2.186   3.807   1.631 -1.4125  0.1865 -1.0215
 2340TIP3   OH2 6983   5.818   0.802   0.352 -0.3171  0.4699 -0.1507
 2340TIP3    H1 6984   5.874   0.800   0.275  0.2990 -0.5546  0.3105
 2340TIP3    H2 6985   5.859   0.742   0.414 -2.5309 -1.3119 -0.2453
 2341TIP3   OH2 6986   6.696   3.562   1.007 -0.2332  0.0437  0.2950
 2341TIP3    H1 6987   6.687   3.607   0.923 -0.2306 -0.1274  0.2041
 2341TIP3    H2 6988   6.747   3.484   0.987 -1.0237 -0.4784  0.2851
 2342TIP3   OH2 6989   4.624   4.913   3.536 -0.7354  0.3665 -0.4273
 2342TIP3    H1 6990   4.614   4.914   3.632  1.5967 -0.1139 -0.1326
 2342TIP3    H2 6991   4.653   5.001   3.514 -0.9760  0.3859 -0.6673
 2343TIP3   OH2 6992   5.012   5.079   4.243 -0.3263  0.3913 -0.1203
 2343TIP3    H1 6993   5.038   5.007   4.301 -0.7575 -1.1739 -1.7786
 2343TIP3    H2 6994   5.094   5.119   4.217 -0.0347  0.1151  0.3597
 2344TIP3   OH2 6995   5.341   0.953   2.795  0.4777 -0.1399  0.2030
 2344TIP3    H1 6996   5.406   0.900   2.841 -0.0654 -0.2917  0.8173
 2344TIP3    H2 6997   5.356   0.936   2.702  1.5954  0.1688  0.3177
 2345TIP3   OH2 6998   1.194   1.199   5.374 -0.4927 -0.2518  0.3101
 2345TIP3    H1 6999   1.182   1.107   5.350 -0.3703 -0.0225 -0.6411
 2345TIP3    H2 7000   1.276   1.200   5.422  0.1673 -0.4450 -0.7932
 2346TIP3   OH2 7001   5.278   4.193   4.880  0.6269  0.2471  0.6182
 2346TIP3    H1 7002   5.282   4.099   4.862 -0.9018  0.2390  0.2337
 2346TIP3    H2 7003   5.327   4.234   4.808  0.0692 -0.1756 -0.0111
 2347TIP3   OH2 7004   2.791   1.662   4.127  0.1392  0.1827 -0.6209
 2347TIP3    H1 7005   2.861   1.636   4.187  1.4697  0.9842 -1.7540
 2347TIP3    H2 7006   2.750   1.738   4.169  1.0081  0.6940 -0.6631
 2348TIP3   OH2 7007   0.793   2.568   5.194 -0.3858  0.0722  0.0371
 2348TIP3    H1 7008   0.750   2.577   5.109  0.2926  1.1003 -0.2116
 2348TIP3    H2 7009   0.858   2.500   5.181 -1.1035 -0.6391  0.0851
 2349TIP3   OH2 7010   0.382   3.491   1.078  0.1164 -0.0354  0.3819
 2349TIP3    H1 7011   0.393   3.549   1.154  0.2321  0.3041  0.1093
 2349TIP3    H2 7012   0.442   3.418   1.095 -0.4403 -0.3645  0.9994
 2350TIP3   OH2 7013   1.218   6.056   1.619 -0.4970  0.0241 -0.2996
 2350TIP3    H1 7014   1.214   6.119   1.691 -1.6077 -2.8744  2.4414
 2350TIP3    H2 7015   1.128   6.051   1.587 -0.1854  0.6280 -1.3038
 2351TIP3   OH2 7016   4.050   4.689   5.823 -0.0102  0.2213 -0.3502
 2351TIP3    H1 7017   4.059   4.595   5.810  0.2267  0.2730 -0.5759
 2351TIP3    H2 7018   4.012   4.698   5.910  1.1728 -0.0460  0.2168
 2352TIP3   OH2 7019   5.426   0.945   5.335  0.0565  0.8233 -0.1869
 2352TIP3    H1 7020   5.378   1.023   5.362 -2.2217 -0.6173  0.2045
 2352TIP3    H2 7021   5.382   0.917   5.255  0.1363 -0.6496  0.2629
 2353TIP3   OH2 7022   4.082   5.131   4.303 -0.1875 -0.0884  0.5310
 2353TIP3    H1 7023   4.009   5.163   4.356 -0.5024 -0.0826  0.0994
 2353TIP3    H2 7024   4.160   5.170   4.344 -0.4676  0.3170  0.6904
 2354TIP3   OH2 7025   5.031   1.328   5.360 -0.3303  0.4931  0.2671
 2354TIP3    H1 7026   5.005   1.367   5.444 -0.7285 -2.2942  1.5405
 2354TIP3    H2 7027   5.127   1.330   5.363 -0.3310  2.2060 -0.1492
 2355TIP3   OH2 7028   5.887   2.472   1.230  0.1224 -0.3291  0.5727
 2355TIP3    H1 7029   5.819   2.417   1.269 -0.0832 -0.7177 -0.3113
 2355TIP3    H2 7030   5.963   2.413   1.222 -0.1277 -0.5226 -0.4660
 2356TIP3   OH2 7031   0.230   0.200   3.515 -0.4413 -0.3410  0.0339
 2356TIP3    H1 7032   0.201   0.110   3.499  2.0106 -1.4302  1.1608
 2356TIP3    H2 7033   0.206   0.217   3.606  3.1200 -1.6976  1.3815
 2357TIP3   OH2 7034   4.293   5.094   1.313 -0.0657 -0.5931  0.0202
 2357TIP3    H1 7035   4.208   5.123   1.279  1.4596  1.9423 -2.0860
 2357TIP3    H2 7036   4.304   5.141   1.395 -0.9408 -1.4817  0.6690
 2358TIP3   OH2 7037   4.888   6.290   0.937  0.5825 -0.8811 -0.2424
 2358TIP3    H1 7038   4.816   6.351   0.922  0.9178 -0.3510  0.3059
 2358TIP3    H2 7039   4.933   6.286   0.852  0.9121  0.0914 -0.1202
 2359TIP3   OH2 7040   5.265   2.862   3.980 -0.4308 -0.6592 -0.0517
 2359TIP3    H1 7041   5.232   2.952   3.978 -3.1802 -1.5495  0.5250
 2359TIP3    H2 7042   5.287   2.843   3.889 -0.3361  0.4214 -0.2712
 2360TIP3   OH2 7043   5.430   6.740   2.853 -0.4540  0.2123  0.9801
 2360TIP3    H1 7044   5.441   6.746   2.948  0.0056 -1.4379  1.0483
 2360TIP3    H2 7045   5.472   6.658   2.829 -2.7328 -0.6541 -0.3226
 2361TIP3   OH2 7046   0.810   3.766   4.855  0.5489  0.3629  0.3766
 2361TIP3    H1 7047   0.743   3.792   4.917  0.1422 -2.2597  1.1487
 2361TIP3    H2 7048   0.807   3.834   4.787 -2.9268  0.3649  0.3323
 2362TIP3   OH2 7049   2.356   4.689   1.029  0.0701 -0.0531  0.8113
 2362TIP3    H1 7050   2.297   4.652   1.095  1.7865 -2.2891  1.2342
 2362TIP3    H2 7051   2.402   4.613   0.993  1.3609  1.4127 -0.8264
 2363TIP3   OH2 7052   2.861   3.747   4.835 -0.1928  0.8147 -0.2807
 2363TIP3    H1 7053   2.950   3.781   4.841  0.2334 -0.3491  0.4261
 2363TIP3    H2 7054   2.870   3.654   4.855 -1.5270  0.6083 -0.5481
 2364TIP3   OH2 7055   0.889   1.010   0.552 -0.5404 -0.4939 -0.3413
 2364TIP3    H1 7056   0.868   1.009   0.646 -0.1004 -0.4655 -0.2388
 2364TIP3    H2 7057   0.985   1.014   0.549 -0.4559 -2.0794 -0.7890
 2365TIP3   OH2 7058   4.094   5.818   5.379  0.1445 -0.0096 -0.3609
 2365TIP3    H1 7059   4.079   5.807   5.285 -1.4818  0.2709 -0.1702
 2365TIP3    H2 7060   4.027   5.763   5.420  0.4615  0.3255  0.6284
 2366TIP3   OH2 7061   3.328   1.750   0.146  0.2537 -0.5433 -0.2512
 2366TIP3    H1 7062   3.381   1.805   0.088 -0.4046 -0.0788 -0.4273
 2366TIP3    H2 7063   3.391   1.711   0.206  0.6166  1.6278  0.8909
 2367TIP3   OH2 7064   4.526   0.155   1.781  0.3802 -0.3143 -0.2313
 2367TIP3    H1 7065   4.464   0.205   1.834 -0.4745 -0.9630 -0.5889
 2367TIP3    H2 7066   4.537   0.207   1.701 -0.4344 -0.6398 -0.5629
 2368TIP3   OH2 7067   0.658   6.134   0.069  0.3341 -0.3515 -0.2783
 2368TIP3    H1 7068   0.704   6.207   0.027 -0.2008 -0.4120 -1.0078
 2368TIP3    H2 7069   0.699   6.056   0.031  0.0585 -0.4119 -0.4534
 2369TIP3   OH2 7070   4.900   2.280   4.613  0.3769 -0.1313 -0.0655
 2369TIP3    H1 7071   4.939   2.235   4.538  0.7570 -0.4690  0.3316
 2369TIP3    H2 7072   4.875   2.366   4.578 -0.0615 -0.5225 -0.7451
 2370TIP3   OH2 7073   2.897   1.362   0.820  0.5372 -0.3681  0.2183
 2370TIP3    H1 7074   2.900   1.455   0.842  0.8737 -0.6424  1.4047
 2370TIP3    H2 7075   2.820   1.329   0.867  1.1537 -0.9320  0.8545
 2371TIP3   OH2 7076   6.901   0.221   2.551  0.2884 -0.2563 -0.3785
 2371TIP3    H1 7077   6.949   0.166   2.613 -1.0256 -0.3778  0.5643
 2371TIP3    H2 7078   6.967   0.248   2.487  1.3326 -1.4640  0.1464
 2372TIP3   OH2 7079   6.230   2.503   5.712  0.6638  0.5990  0.6917
 2372TIP3    H1 7080   6.261   2.429   5.764  0.5980 -1.1797 -1.6610
 2372TIP3    H2 7081   6.288   2.506   5.637 -1.2180  0.9698 -0.8209
 2373TIP3   OH2 7082   1.989   1.991   4.985  0.2053 -0.0696 -0.1932
 2373TIP3    H1 7083   1.993   1.962   5.076 -1.3592 -1.8780 -0.6297
 2373TIP3    H2 7084   1.902   1.965   4.955  0.9218 -0.1652 -2.4154
 2374TIP3   OH2 7085   2.708   3.171   1.384 -0.1533 -0.2113 -0.6122
 2374TIP3    H1 7086   2.758   3.093   1.405  0.8101  0.5432 -0.0559
 2374TIP3    H2 7087   2.716   3.180   1.289 -0.4740 -0.9216 -0.7069
 2375TIP3   OH2 7088   2.529   1.571   2.785 -0.7525  0.2891  0.1146
 2375TIP3    H1 7089   2.458   1.612   2.736  1.6137  2.6200 -1.5970
 2375TIP3    H2 7090   2.598   1.638   2.789  1.1979 -1.6573  2.1291
 2376TIP3   OH2 7091   1.790   0.645   1.857  0.0585 -0.3727  0.4980
 2376TIP3    H1 7092   1.778   0.645   1.762  3.4736 -0.3089 -0.0547
 2376TIP3    H2 7093   1.750   0.727   1.886 -1.7685 -0.7749 -0.7166
 2377TIP3   OH2 7094   2.415   6.631   5.678 -0.4007 -0.4014 -0.2835
 2377TIP3    H1 7095   2.509   6.623   5.692 -0.4618  0.1777  0.5630
 2377TIP3    H2 7096   2.375   6.585   5.752 -0.8639 -3.4774 -2.2722
 2378TIP3   OH2 7097   0.273   3.553   5.027 -0.3735  0.5260  0.0459
 2378TIP3    H1 7098   0.236   3.503   4.955 -1.3158  0.8690  0.2855
 2378TIP3    H2 7099   0.201   3.607   5.059  0.4572  1.5832  0.1930
 2379TIP3   OH2 7100   6.040   3.219   0.313 -0.5039  0.0298 -0.5780
 2379TIP3    H1 7101   6.081   3.191   0.231 -1.2562  0.3679 -1.0804
 2379TIP3    H2 7102   6.097   3.183   0.381  0.9662  0.9676 -1.2393
 2380TIP3   OH2 7103   3.631   5.982   5.525 -0.1304  0.0567 -0.6190
 2380TIP3    H1 7104   3.696   5.928   5.570 -0.2208 -0.0644 -0.6362
 2380TIP3    H2 7105   3.678   6.064   5.507  0.4419 -0.5095 -1.8170
 2381TIP3   OH2 7106   4.649   4.233   5.158 -0.2064  0.0706  0.4362
 2381TIP3    H1 7107   4.588   4.172   5.198 -3.5544  2.0915 -1.1904
 2381TIP3    H2 7108   4.640   4.313   5.208  2.3231  0.0842  1.0359
 2382TIP3   OH2 7109   1.555   2.025   0.520  0.1252  0.0918  0.3197
 2382TIP3    H1 7110   1.512   2.106   0.493 -0.7391 -0.5515 -0.2939
 2382TIP3    H2 7111   1.638   2.025   0.473 -0.6228 -0.1913 -1.0522
 2383TIP3   OH2 7112   2.568   4.405   0.300 -0.5533  0.0079  0.1056
 2383TIP3    H1 7113   2.611   4.358   0.229  0.5258  1.0814  0.0170
 2383TIP3    H2 7114   2.549   4.492   0.263  0.3991  0.7267  1.2420
 2384TIP3   OH2 7115   4.705   6.135   3.769  0.2628  0.6038 -0.1648
 2384TIP3    H1 7116   4.799   6.153   3.768  0.2912  0.4544 -0.0992
 2384TIP3    H2 7117   4.666   6.210   3.723  0.5887 -0.3651 -2.1194
 2385TIP3   OH2 7118   5.068   5.522   0.079  0.1494 -0.0200 -0.3479
 2385TIP3    H1 7119   5.047   5.432   0.106 -2.4150  0.2233 -1.3413
 2385TIP3    H2 7120   5.023   5.578   0.142  1.2110  0.6186 -0.1198
 2386TIP3   OH2 7121   3.364   0.226   5.532  0.2237 -0.4553 -0.6079
 2386TIP3    H1 7122   3.330   0.226   5.443 -1.3234 -3.8858 -0.1832
 2386TIP3    H2 7123   3.432   0.293   5.532 -1.9794  2.0757 -3.3676
 2387TIP3   OH2 7124   3.448   2.782   5.422 -0.2095 -0.3001  0.0783
 2387TIP3    H1 7125   3.376   2.794   5.360 -1.5364 -3.3068  0.8507
 2387TIP3    H2 7126   3.511   2.727   5.376 -0.1663 -0.7384  0.6471
 2388TIP3   OH2 7127   7.120   3.681   5.525  0.1423  0.2586  0.0149
 2388TIP3    H1 7128   7.076   3.659   5.442  1.7954 -0.8978 -0.6160
 2388TIP3    H2 7129   7.132   3.776   5.522 -1.0470  0.4075 -0.4232
 2389TIP3   OH2 7130   1.481   5.073   2.185 -0.3051 -0.2197  0.3515
 2389TIP3    H1 7131   1.459   4.983   2.205  1.3832 -0.6389  0.4837
 2389TIP3    H2 7132   1.481   5.078   2.089  1.0498 -0.7764  0.3051
 2390TIP3   OH2 7133   0.305   5.844   2.851  0.1024  0.1951 -0.5029
 2390TIP3    H1 7134   0.235   5.885   2.901  0.1310 -2.1425  1.6409
 2390TIP3    H2 7135   0.371   5.820   2.917  0.1686 -3.0077 -1.5742
 2391TIP3   OH2 7136   3.045   6.615   5.636 -0.0592  0.4625 -0.5407
 2391TIP3    H1 7137   3.049   6.646   5.727  1.2174 -1.8860  0.2813
 2391TIP3    H2 7138   2.986   6.676   5.593 -2.2606  0.5542  2.3173
 2392TIP3   OH2 7139   6.872   0.651   2.784  0.0475  0.3571 -0.4084
 2392TIP3    H1 7140   6.951   0.608   2.819  0.9202 -0.0126 -2.6808
 2392TIP3    H2 7141   6.802   0.587   2.799  0.7975 -0.6793 -1.1734
 2393TIP3   OH2 7142   1.463   6.227   0.024 -0.2311  0.8080 -0.2006
 2393TIP3    H1 7143   1.384   6.177   0.045  0.7468  0.1248  2.2435
 2393TIP3    H2 7144   1.534   6.164   0.034  0.7028  1.5364 -1.8675
 2394TIP3   OH2 7145   0.885   5.546   2.650 -0.0679 -0.3446  0.1197
 2394TIP3    H1 7146   0.940   5.471   2.630  0.2763 -0.1512  0.3295
 2394TIP3    H2 7147   0.936   5.622   2.620  1.2495  0.1308  3.1861
 2395TIP3   OH2 7148   6.307   2.322   0.964 -0.3232 -0.1063  0.1330
 2395TIP3    H1 7149   6.222   2.283   0.947 -0.5933  0.8614 -0.8175
 2395TIP3    H2 7150   6.365   2.248   0.979 -0.5961 -0.9830 -2.5834
 2396TIP3   OH2 7151   2.012   4.652   3.489 -0.2984  0.4365 -0.3297
 2396TIP3    H1 7152   1.986   4.664   3.581 -0.0344  1.8650 -0.4178
 2396TIP3    H2 7153   2.027   4.558   3.481  0.7414  0.4012  1.3925
 2397TIP3   OH2 7154   4.971   0.125   1.139 -0.5229  0.0640 -0.0393
 2397TIP3    H1 7155   4.954   0.144   1.047 -1.2429  1.9209  0.4504
 2397TIP3    H2 7156   4.896   0.161   1.186 -1.2247 -2.6557  1.1711
 2398TIP3   OH2 7157   5.291   4.821   0.519 -0.1229  0.3770 -0.4292
 2398TIP3    H1 7158   5.345   4.818   0.599  1.2135  0.7485 -1.2811
 2398TIP3    H2 7159   5.326   4.751   0.464 -0.7475  0.3985 -0.8591
 2399TIP3   OH2 7160   1.333   4.495   1.308 -0.9266 -0.6169  0.2217
 2399TIP3    H1 7161   1.406   4.490   1.370 -1.1260 -0.6229  0.4594
 2399TIP3    H2 7162   1.329   4.408   1.268  0.3336 -0.0915 -1.1151
 2400TIP3   OH2 7163   1.296   5.695   2.746 -0.2585  0.0766 -0.5624
 2400TIP3    H1 7164   1.314   5.770   2.689 -2.6528 -0.8668 -2.7589
 2400TIP3    H2 7165   1.355   5.626   2.714  0.9972  0.5697  0.5903
 2401TIP3   OH2 7166   5.072   5.580   5.754 -0.0313  0.4533 -0.1645
 2401TIP3    H1 7167   5.075   5.484   5.755 -0.6867  0.3793 -2.0564
 2401TIP3    H2 7168   5.005   5.601   5.689 -0.0423  2.2060  0.3793
 2402TIP3   OH2 7169   2.362   0.357   3.438 -0.1620  0.3873  0.4699
 2402TIP3    H1 7170   2.442   0.346   3.386  0.9574  1.7581  1.7864
 2402TIP3    H2 7171   2.315   0.274   3.428  1.0676 -0.1983 -0.9037
 2403TIP3   OH2 7172   3.706   4.959   1.400  0.3090  0.4220 -0.0483
 2403TIP3    H1 7173   3.633   5.001   1.355  0.0089  1.0756  1.0369
 2403TIP3    H2 7174   3.767   5.030   1.419  0.3403  0.1893  0.7456
 2404TIP3   OH2 7175   7.166   1.883   0.635  0.3649 -0.4936 -0.3002
 2404TIP3    H1 7176   7.177   1.827   0.558 -1.8286 -3.0774  1.0938
 2404TIP3    H2 7177   7.250   1.877   0.681  1.8219  1.3359 -2.4942
 2405TIP3   OH2 7178   4.153   3.822   2.663  0.0812 -0.0566  0.1470
 2405TIP3    H1 7179   4.165   3.727   2.669 -0.0422 -0.0185  1.4555
 2405TIP3    H2 7180   4.072   3.833   2.614 -0.7035 -0.6985  1.2460
 2406TIP3   OH2 7181   1.353   5.891   2.580  0.7046  0.2673  0.5591
 2406TIP3    H1 7182   1.408   5.865   2.506 -1.4949 -3.2707 -0.0932
 2406TIP3    H2 7183   1.298   5.962   2.545  0.5967 -0.4513 -0.8190
 2407TIP3   OH2 7184   0.599   4.168   1.819  0.2068 -0.0517 -0.1991
 2407TIP3    H1 7185   0.637   4.119   1.892 -1.2955  0.5483  1.0317
 2407TIP3    H2 7186   0.570   4.100   1.757  2.0946 -0.5452 -0.6068
 2408TIP3   OH2 7187   3.806   5.684   3.857  0.6386 -0.3859 -0.0938
 2408TIP3    H1 7188   3.711   5.671   3.863  0.7096 -0.1502  2.0688
 2408TIP3    H2 7189   3.820   5.714   3.767 -1.6188  1.7301  0.1712
 2409TIP3   OH2 7190   5.615   4.203   0.357  0.1409  0.1290 -0.2259
 2409TIP3    H1 7191   5.561   4.136   0.316  2.0390 -1.3323 -0.4973
 2409TIP3    H2 7192   5.691   4.210   0.299  0.4610  1.8007  0.3536
 2410TIP3   OH2 7193   2.497   2.891   5.088  0.3974  0.0268 -0.0305
 2410TIP3    H1 7194   2.510   2.845   5.171 -0.1849 -0.8602 -0.4072
 2410TIP3    H2 7195   2.483   2.821   5.024 -0.0523  0.7198 -0.7111
 2411TIP3   OH2 7196   4.581   0.352   4.929  1.2020  0.2935 -0.6501
 2411TIP3    H1 7197   4.578   0.257   4.939  3.8234  0.2708  0.6849
 2411TIP3    H2 7198   4.639   0.382   4.999 -1.3011  3.1529  0.4140
 2412TIP3   OH2 7199   4.580   4.697   4.325  0.5906 -0.5099 -0.4438
 2412TIP3    H1 7200   4.488   4.679   4.348  0.6202  1.1517  1.2498
 2412TIP3    H2 7201   4.625   4.614   4.338 -0.0281 -0.4710  2.6227
 2413TIP3   OH2 7202   2.008   3.767   1.132 -0.6199  0.3743  0.1219
 2413TIP3    H1 7203   1.935   3.803   1.183  0.0694  1.4074  0.4177
 2413TIP3    H2 7204   2.006   3.673   1.150 -1.3790  0.5055  0.7805
 2414TIP3   OH2 7205   0.913   1.088   1.989 -0.4239 -0.0231 -0.0364
 2414TIP3    H1 7206   0.935   1.124   1.903  0.3073 -2.9667 -1.2177
 2414TIP3    H2 7207   0.864   1.008   1.969  1.2885 -1.7705  2.1568
 2415TIP3   OH2 7208   0.364   2.982   2.044  0.0828 -0.4646  0.0817
 2415TIP3    H1 7209   0.414   2.985   1.962 -2.0463 -0.4316 -1.2951
 2415TIP3    H2 7210   0.368   2.890   2.071 -0.6430 -0.8521 -1.0447
 2416TIP3   OH2 7211   1.828   2.112   2.231 -0.6630 -0.1424 -0.8022
 2416TIP3    H1 7212   1.904   2.164   2.204 -0.6525 -0.1660 -0.8193
 2416TIP3    H2 7213   1.806   2.144   2.318  0.4057 -1.2462 -0.0703
 2417TIP3   OH2 7214   4.936   5.154   1.611 -0.3202 -0.5672  0.2988
 2417TIP3    H1 7215   4.880   5.118   1.543 -1.0547  2.2604 -0.7335
 2417TIP3    H2 7216   4.949   5.246   1.586  0.5727  0.2298  3.2107
 2418TIP3   OH2 7217   0.218   1.614   4.076 -0.1193  0.2214  0.1314
 2418TIP3    H1 7218   0.287   1.624   4.010  1.4377 -2.4479  1.1528
 2418TIP3    H2 7219   0.265   1.612   4.159 -1.5187 -0.6902  0.9421
 2419TIP3   OH2 7220   6.201   4.065   2.084  0.1422  0.1566 -0.2586
 2419TIP3    H1 7221   6.112   4.083   2.115  0.2197  0.2345 -0.0777
 2419TIP3    H2 7222   6.210   4.117   2.005  0.6700  1.6486  0.7417
 2420TIP3   OH2 7223   6.862   5.578   0.308 -0.1119 -0.2081  0.1853
 2420TIP3    H1 7224   6.915   5.544   0.381  0.5867 -0.2823 -0.3480
 2420TIP3    H2 7225   6.914   5.560   0.230 -0.7607  0.0613 -0.3201
 2421TIP3   OH2 7226   1.626   5.634   4.556 -0.1979 -0.0537 -0.1508
 2421TIP3    H1 7227   1.679   5.581   4.496 -0.7584 -1.8753  0.8723
 2421TIP3    H2 7228   1.668   5.622   4.641  0.3112  2.1160 -0.0300
 2422TIP3   OH2 7229   1.673   0.113   1.629  0.5495  0.3660  0.0809
 2422TIP3    H1 7230   1.651   0.137   1.719  2.5963  0.8697  0.4917
 2422TIP3    H2 7231   1.631   0.028   1.615  0.2186  0.2801  1.5243
 2423TIP3   OH2 7232   0.167   0.891   1.490  0.2183  0.0700 -0.3078
 2423TIP3    H1 7233   0.225   0.850   1.554  0.0203 -1.8248 -1.2816
 2423TIP3    H2 7234   0.210   0.973   1.467  0.4430  0.6712  1.9886
 2424TIP3   OH2 7235   1.618   6.200   3.537  0.6339  0.2543  0.7476
 2424TIP3    H1 7236   1.596   6.217   3.629 -0.9570 -0.1792  0.4855
 2424TIP3    H2 7237   1.661   6.115   3.538 -1.9417 -1.1238  0.8378
 2425TIP3   OH2 7238   0.618   0.814   5.480 -0.7274 -0.1817 -0.0617
 2425TIP3    H1 7239   0.570   0.870   5.541 -1.1360  1.9806 -2.2277
 2425TIP3    H2 7240   0.710   0.831   5.500 -0.8335  1.6033 -0.8725
 2426TIP3   OH2 7241   1.461   6.480   4.583  0.6548  0.2517  0.1005
 2426TIP3    H1 7242   1.416   6.511   4.661  3.0407  2.4137  0.7818
 2426TIP3    H2 7243   1.426   6.533   4.512  0.0219 -0.1917  0.0782
 2427TIP3   OH2 7244   5.439   1.455   5.449 -0.2992  0.2568  0.4203
 2427TIP3    H1 7245   5.466   1.540   5.417  1.2469 -0.1317  0.6275
 2427TIP3    H2 7246   5.471   1.452   5.539  0.0194 -0.6806  0.2890
 2428TIP3   OH2 7247   5.884   2.118   0.294  0.0454 -0.4644 -0.5053
 2428TIP3    H1 7248   5.795   2.140   0.269  0.1849 -0.6794 -1.2299
 2428TIP3    H2 7249   5.914   2.193   0.345 -0.5297 -0.3676 -0.3035
 2429TIP3   OH2 7250   2.601   1.557   4.470  0.2498 -0.0067 -0.2899
 2429TIP3    H1 7251   2.516   1.594   4.495 -0.0980  0.3998 -1.9347
 2429TIP3    H2 7252   2.585   1.518   4.384  1.2714 -1.6642  0.2357
 2430TIP3   OH2 7253   0.475   0.452   5.633 -0.4943 -0.6630 -0.7188
 2430TIP3    H1 7254   0.539   0.383   5.614  0.3067  0.0766 -0.7889
 2430TIP3    H2 7255   0.504   0.488   5.716 -1.2938 -0.8329 -0.3595
 2431TIP3   OH2 7256   6.987   6.363   4.086 -0.2233  1.1450 -0.2338
 2431TIP3    H1 7257   6.904   6.408   4.103 -1.3346 -0.7852 -0.3620
 2431TIP3    H2 7258   6.970   6.307   4.011  1.2124  0.7047 -0.2746
 2432TIP3   OH2 7259   1.705   3.841   2.828 -0.4299  0.4342  0.7106
 2432TIP3    H1 7260   1.730   3.760   2.874 -0.6912 -0.5433 -0.7751
 2432TIP3    H2 7261   1.789   3.878   2.798 -0.2979  0.8039  1.5257
 2433TIP3   OH2 7262   3.129   1.375   0.541  0.1969  0.3394 -0.3173
 2433TIP3    H1 7263   3.184   1.377   0.619 -1.5018 -0.6846  0.9794
 2433TIP3    H2 7264   3.063   1.442   0.556 -0.3474 -0.0942 -0.7167
 2434TIP3   OH2 7265   6.877   6.099   5.701  0.4309 -0.3929 -0.1214
 2434TIP3    H1 7266   6.809   6.085   5.635  1.2937 -0.4616 -1.0106
 2434TIP3    H2 7267   6.842   6.167   5.759 -0.1675 -0.0521 -0.8807
 2435TIP3   OH2 7268   0.289   6.300   4.466 -0.9893  0.1373  0.2599
 2435TIP3    H1 7269   0.363   6.360   4.479 -0.1052 -0.5489 -1.3730
 2435TIP3    H2 7270   0.291   6.244   4.544  1.0610 -0.7081 -0.3287
 2436TIP3   OH2 7271   2.157   2.497   3.172 -0.5468 -0.2818 -0.4122
 2436TIP3    H1 7272   2.121   2.409   3.161  0.5571 -0.8066  0.1160
 2436TIP3    H2 7273   2.237   2.498   3.119  0.8110 -0.4372  1.5621
 2437TIP3   OH2 7274   2.839   2.677   4.386 -0.1248  0.1225  0.4283
 2437TIP3    H1 7275   2.933   2.678   4.367  0.4243 -2.7323  2.3507
 2437TIP3    H2 7276   2.799   2.651   4.302  0.7749  1.1864 -0.3633
 2438TIP3   OH2 7277   0.716   3.674   0.195  0.7879  0.3152  0.0597
 2438TIP3    H1 7278   0.646   3.724   0.237 -1.5114 -1.2168 -1.7643
 2438TIP3    H2 7279   0.696   3.582   0.215  2.3345 -0.1748 -0.4787
 2439TIP3   OH2 7280   7.004   2.705   0.052  0.3034 -0.1057 -0.2512
 2439TIP3    H1 7281   6.938   2.646   0.014 -0.0366 -0.1350  0.3711
 2439TIP3    H2 7282   6.955   2.755   0.118  0.3045  1.6739 -1.5197
 2440TIP3   OH2 7283   5.673   0.133   1.488 -0.8744 -0.0594 -0.0070
 2440TIP3    H1 7284   5.672   0.141   1.583  0.2871  1.0791 -0.0653
 2440TIP3    H2 7285   5.681   0.039   1.472 -1.0112 -0.2557  1.0212
 2441TIP3   OH2 7286   1.165   0.844   0.410 -0.2624  0.2944 -0.3092
 2441TIP3    H1 7287   1.216   0.846   0.490 -1.0751 -0.2971  0.2464
 2441TIP3    H2 7288   1.110   0.766   0.419 -1.2585  0.9110 -0.8635
 2442TIP3   OH2 7289   6.861   2.251   3.107  0.1831  0.2428  0.0661
 2442TIP3    H1 7290   6.882   2.204   3.188 -1.0393  0.8000  0.7280
 2442TIP3    H2 7291   6.925   2.217   3.044  0.2491 -1.2715  0.8764
 2443TIP3   OH2 7292   6.693   5.870   3.184  0.1366  0.2104  0.4553
 2443TIP3    H1 7293   6.778   5.837   3.215  1.1747  1.0188 -1.3727
 2443TIP3    H2 7294   6.655   5.796   3.136  1.3224  0.7635 -1.4732
 2444TIP3   OH2 7295   4.063   3.752   4.336 -0.3547 -0.3867 -0.0358
 2444TIP3    H1 7296   4.042   3.750   4.242 -1.6922 -0.0613  0.2371
 2444TIP3    H2 7297   3.980   3.774   4.378 -0.3955 -2.9890  1.4404
 2445TIP3   OH2 7298   6.807   5.054   5.101 -0.6264  0.5979  0.0300
 2445TIP3    H1 7299   6.756   5.121   5.057 -0.5426  2.1795  2.1812
 2445TIP3    H2 7300   6.750   5.022   5.171  0.7495  1.4703  1.6529
 2446TIP3   OH2 7301   2.364   6.072   4.458 -0.1414  0.1179  0.2797
 2446TIP3    H1 7302   2.382   6.165   4.448  1.6847 -0.3426 -1.2203
 2446TIP3    H2 7303   2.308   6.067   4.535 -0.4455  2.4576  0.2864
 2447TIP3   OH2 7304   3.002   1.686   0.329  0.0894 -0.1310 -0.2370
 2447TIP3    H1 7305   2.972   1.631   0.257 -0.4234  0.4333 -0.4619
 2447TIP3    H2 7306   3.096   1.695   0.315  0.1964 -1.0263 -0.1379
 2448TIP3   OH2 7307   5.841   1.265   5.537 -0.1806  0.7193 -0.2007
 2448TIP3    H1 7308   5.840   1.176   5.570  1.3258  0.9311  0.4895
 2448TIP3    H2 7309   5.844   1.320   5.615 -3.2316  1.5060 -0.5144
 2449TIP3   OH2 7310   2.460   3.177   3.717  0.5965  0.2978  0.0359
 2449TIP3    H1 7311   2.381   3.122   3.719  0.2709  0.6834 -1.2764
 2449TIP3    H2 7312   2.513   3.144   3.789 -0.2544 -0.7460  0.2245
 2450TIP3   OH2 7313   4.974   5.416   1.556 -0.2316 -0.5434 -0.7427
 2450TIP3    H1 7314   5.001   5.493   1.606  0.2914 -0.7865 -0.6453
 2450TIP3    H2 7315   5.017   5.427   1.471 -0.6283 -0.4353 -0.9305
 2451TIP3   OH2 7316   4.316   4.303   3.665 -0.0488 -0.2209 -0.2436
 2451TIP3    H1 7317   4.275   4.350   3.738  0.3600 -1.6337  0.9429
 2451TIP3    H2 7318   4.397   4.351   3.648  0.3009 -0.3929  0.8554
 2452TIP3   OH2 7319   6.000   6.581   1.596  0.1753  0.2118  0.2727
 2452TIP3    H1 7320   5.967   6.667   1.622  3.0143  1.2261  0.9607
 2452TIP3    H2 7321   6.077   6.568   1.651 -0.2671 -2.9203  0.3187
 2453TIP3   OH2 7322   7.010   0.828   0.355  0.3399 -0.1402 -0.2331
 2453TIP3    H1 7323   6.937   0.770   0.380  0.6925 -0.3507  0.3177
 2453TIP3    H2 7324   7.082   0.769   0.336  1.0967  0.1455  1.5976
 2454TIP3   OH2 7325   1.606   1.808   5.041 -0.3922 -0.2363  0.0320
 2454TIP3    H1 7326   1.552   1.887   5.046  0.9162  0.6710  0.3484
 2454TIP3    H2 7327   1.660   1.821   4.963  1.2215  0.1348  1.1661
 2455TIP3   OH2 7328   2.658   2.125   0.163  0.0199 -0.6379 -0.1602
 2455TIP3    H1 7329   2.656   2.155   0.072  2.3579  0.0941 -0.0475
 2455TIP3    H2 7330   2.681   2.033   0.158  0.1849 -0.5884 -0.3301
 2456TIP3   OH2 7331   3.022   4.847   2.861  0.5498  0.6800  0.0152
 2456TIP3    H1 7332   2.973   4.917   2.904 -0.2714  0.1199  0.0260
 2456TIP3    H2 7333   3.039   4.783   2.930 -1.1729 -0.4413 -0.5131
 2457TIP3   OH2 7334   0.763   4.963   3.130  0.4750 -0.5342 -0.0510
 2457TIP3    H1 7335   0.751   4.870   3.151  2.8209 -1.0848 -0.7864
 2457TIP3    H2 7336   0.844   4.965   3.079  1.7979  2.1654  1.9188
 2458TIP3   OH2 7337   1.363   3.203   2.968 -0.3234 -0.2800 -0.3142
 2458TIP3    H1 7338   1.313   3.125   2.995 -0.3565  0.0658  0.6664
 2458TIP3    H2 7339   1.297   3.268   2.946 -0.2994 -0.6269 -1.5021
 2459TIP3   OH2 7340   4.004   6.388   1.275  0.8309  0.0989  0.4675
 2459TIP3    H1 7341   4.078   6.449   1.274  0.6870  0.3408  1.8177
 2459TIP3    H2 7342   3.959   6.407   1.358 -0.3012 -0.5672  0.0299
 2460TIP3   OH2 7343   2.094   1.195   0.158 -0.0401  0.1665 -0.0951
 2460TIP3    H1 7344   2.074   1.200   0.252 -1.4043 -0.2747 -0.3317
 2460TIP3    H2 7345   2.085   1.102   0.137 -0.7860  0.4036 -0.8578
 2461TIP3   OH2 7346   4.890   1.948   5.470 -0.0893 -0.4668  0.1915
 2461TIP3    H1 7347   4.820   1.903   5.422 -2.9940  1.5662  2.2372
 2461TIP3    H2 7348   4.904   1.894   5.548 -1.3063  0.4169  1.0600
 2462TIP3   OH2 7349   2.687   6.742   2.317 -0.0827  0.1450  0.3225
 2462TIP3    H1 7350   2.754   6.704   2.261 -0.8160  2.0851 -2.0293
 2462TIP3    H2 7351   2.604   6.718   2.275 -0.8300 -0.5147  2.0597
 2463TIP3   OH2 7352   6.086   0.113   5.388 -0.1654 -0.5412 -0.1080
 2463TIP3    H1 7353   6.003   0.155   5.364  0.6129 -0.2184 -2.4784
 2463TIP3    H2 7354   6.074   0.021   5.363  0.6162 -0.2220 -1.8197
 2464TIP3   OH2 7355   6.602   0.982   2.126 -0.3281 -0.2264 -0.4118
 2464TIP3    H1 7356   6.552   0.901   2.135  0.7649 -0.6443  3.4861
 2464TIP3    H2 7357   6.538   1.052   2.140 -0.2560 -0.7078  2.8779
 2465TIP3   OH2 7358   1.444   3.256   4.850 -0.0944 -0.1515 -0.0880
 2465TIP3    H1 7359   1.511   3.187   4.844  1.4571  1.3156 -0.5956
 2465TIP3    H2 7360   1.465   3.302   4.931 -1.5845 -0.6990  0.6399
 2466TIP3   OH2 7361   4.495   4.050   4.236  0.1278 -0.6317 -0.0935
 2466TIP3    H1 7362   4.553   4.115   4.196 -0.6284 -0.2468 -0.5822
 2466TIP3    H2 7363   4.407   4.081   4.216 -0.2531 -1.1132  0.8005
 2467TIP3   OH2 7364   1.908   6.390   4.754 -0.3371 -0.0481  0.4008
 2467TIP3    H1 7365   1.815   6.402   4.777 -0.2244 -0.4998  1.1417
 2467TIP3    H2 7366   1.941   6.479   4.744 -1.5551  0.1473 -2.9953
 2468TIP3   OH2 7367   2.145   3.530   5.103  0.1899  0.1804 -0.7207
 2468TIP3    H1 7368   2.122   3.465   5.036  2.1626 -1.1341 -0.2383
 2468TIP3    H2 7369   2.124   3.487   5.186 -2.2858  1.8149 -0.3971
 2469TIP3   OH2 7370   1.060   5.968   0.878  0.2248  0.2501 -0.1351
 2469TIP3    H1 7371   1.000   5.953   0.804  2.5061  0.5609 -2.1595
 2469TIP3    H2 7372   1.100   6.052   0.860  1.7257 -0.2240  0.8322
 2470TIP3   OH2 7373   3.058   4.666   3.064  0.5220  0.0501 -0.4377
 2470TIP3    H1 7374   3.065   4.574   3.090 -0.8674 -0.1416 -0.6299
 2470TIP3    H2 7375   3.035   4.711   3.145  2.4929  0.4539 -0.0693
 2471TIP3   OH2 7376   5.297   2.637   1.178 -0.5261 -0.0743  0.2577
 2471TIP3    H1 7377   5.330   2.703   1.238  1.0477  1.1084 -1.7946
 2471TIP3    H2 7378   5.345   2.557   1.201 -0.6827  0.1020  1.2101
 2472TIP3   OH2 7379   4.185   2.093   2.550  0.2706 -0.4797  0.1426
 2472TIP3    H1 7380   4.199   1.999   2.556  0.2536 -0.4667  0.3747
 2472TIP3    H2 7381   4.241   2.121   2.477 -0.9564 -0.9245 -1.0160
 2473TIP3   OH2 7382   1.638   2.582   0.586  0.9764 -0.0111  0.8913
 2473TIP3    H1 7383   1.664   2.671   0.610  1.0560 -0.0248  0.8558
 2473TIP3    H2 7384   1.718   2.541   0.554  0.5611  0.4990 -0.9080
 2474TIP3   OH2 7385   5.038   3.616   1.254  0.0533 -0.4979  0.6274
 2474TIP3    H1 7386   5.078   3.595   1.339  0.1214  0.5494  0.8659
 2474TIP3    H2 7387   5.042   3.711   1.249 -0.0021 -0.5491 -0.5360
 2475TIP3   OH2 7388   0.993   5.153   1.800 -0.0826 -0.5078 -0.1143
 2475TIP3    H1 7389   1.073   5.113   1.767 -0.9381 -1.9541 -0.5052
 2475TIP3    H2 7390   0.925   5.127   1.738 -1.1810 -0.8301  1.1696
 2476TIP3   OH2 7391   4.677   5.033   3.896  0.3960  0.5662 -0.6738
 2476TIP3    H1 7392   4.588   5.053   3.865  0.0803  4.2173  1.9318
 2476TIP3    H2 7393   4.663   4.974   3.970  0.1966  0.5298 -0.7385
 2477TIP3   OH2 7394   1.413   3.171   1.806  0.6680 -0.2099 -0.8262
 2477TIP3    H1 7395   1.342   3.176   1.870  0.3863  0.3551 -1.1718
 2477TIP3    H2 7396   1.368   3.158   1.722  1.0503 -1.4583 -0.8689
 2478TIP3   OH2 7397   0.929   2.420   4.595  1.2195  0.6627 -0.1561
 2478TIP3    H1 7398   0.995   2.486   4.575  0.0935  1.2597 -2.1996
 2478TIP3    H2 7399   0.925   2.365   4.516 -1.4969  1.3713 -0.6113
 2479TIP3   OH2 7400   6.916   1.656   0.169 -0.0582  0.3149  0.1984
 2479TIP3    H1 7401   6.991   1.595   0.169  0.9181  1.4606 -0.8769
 2479TIP3    H2 7402   6.942   1.725   0.231 -0.2788  0.6539 -0.0880
 2480TIP3   OH2 7403   3.984   5.715   4.695  0.3544  0.6686 -0.2585
 2480TIP3    H1 7404   3.933   5.774   4.750  1.2518  0.8342  0.4101
 2480TIP3    H2 7405   3.920   5.679   4.633 -0.3130  1.8735 -0.2945
 2481TIP3   OH2 7406   3.237   3.028   2.601  0.5655  0.6242  0.0504
 2481TIP3    H1 7407   3.317   2.985   2.632 -0.3226 -1.1043  0.0629
 2481TIP3    H2 7408   3.183   3.038   2.679  0.1446  0.3307 -0.1930
 2482TIP3   OH2 7409   2.536   0.738   4.344 -0.5261 -0.0237 -0.6575
 2482TIP3    H1 7410   2.595   0.688   4.288 -1.0255  0.0705 -1.2906
 2482TIP3    H2 7411   2.453   0.691   4.339 -0.4014 -0.4051  0.5787
 2483TIP3   OH2 7412   2.781   6.440   2.032 -0.4688  0.4188  0.2447
 2483TIP3    H1 7413   2.848   6.379   2.000  0.0350  0.0983  1.8185
 2483TIP3    H2 7414   2.710   6.383   2.062 -0.4364  0.6396  0.7536
 2484TIP3   OH2 7415   3.449   1.850   3.207  0.1590 -0.0677 -0.0954
 2484TIP3    H1 7416   3.427   1.792   3.280  1.4545 -0.9831 -0.4076
 2484TIP3    H2 7417   3.541   1.834   3.190 -0.0514  0.3238 -1.7703
 2485TIP3   OH2 7418   2.469   1.912   4.142 -0.1704 -0.3402 -0.2489
 2485TIP3    H1 7419   2.429   1.988   4.101  0.1554  0.9275  1.6794
 2485TIP3    H2 7420   2.396   1.853   4.160 -1.2545  1.6850  2.7005
 2486TIP3   OH2 7421   2.712   2.066   0.780  0.1917  0.1866 -0.3078
 2486TIP3    H1 7422   2.656   1.988   0.779  1.3535 -0.7043  0.3204
 2486TIP3    H2 7423   2.779   2.048   0.714  0.7960  0.3845  0.2372
 2487TIP3   OH2 7424   4.202   0.916   4.544 -0.1483 -0.5401  0.0841
 2487TIP3    H1 7425   4.174   0.976   4.613 -1.3259  0.4660 -1.1834
 2487TIP3    H2 7426   4.295   0.904   4.558 -0.4384 -0.7266  2.0848
 2488TIP3   OH2 7427   6.768   6.194   1.888 -0.3638 -0.6308  0.9353
 2488TIP3    H1 7428   6.708   6.218   1.958  0.6403  1.2263  1.2142
 2488TIP3    H2 7429   6.825   6.270   1.877  1.3301 -1.9438  0.0214
 2489TIP3   OH2 7430   0.371   6.020   3.698 -0.1915  0.0636  0.1175
 2489TIP3    H1 7431   0.380   6.079   3.773  0.5167  0.1927 -0.0642
 2489TIP3    H2 7432   0.429   6.056   3.631  1.1906 -1.4611  0.4119
 2490TIP3   OH2 7433   3.958   2.978   0.989 -0.3915 -0.2591 -0.1966
 2490TIP3    H1 7434   3.909   2.958   0.909 -0.6912  1.0836 -0.3728
 2490TIP3    H2 7435   3.967   3.073   0.988  0.2759 -0.2954  0.9884
 2491TIP3   OH2 7436   4.703   5.788   2.276 -0.0389 -0.4208  0.3235
 2491TIP3    H1 7437   4.772   5.732   2.312  0.3875 -1.0585 -1.3972
 2491TIP3    H2 7438   4.709   5.869   2.326  3.6322  0.5189 -1.3209
 2492TIP3   OH2 7439   3.175   2.715   4.579 -0.1611 -0.2044  0.0816
 2492TIP3    H1 7440   3.241   2.654   4.548 -0.7257 -0.0568 -1.5211
 2492TIP3    H2 7441   3.105   2.660   4.615  0.0396 -0.4234  0.1348
 2493TIP3   OH2 7442   2.900   5.644   5.533 -0.0958  0.2502  0.7437
 2493TIP3    H1 7443   2.841   5.569   5.522 -0.8129  1.0366 -1.3661
 2493TIP3    H2 7444   2.867   5.690   5.610 -0.0238 -1.2322  1.7004
 2494TIP3   OH2 7445   7.196   1.022   4.442  0.7036  0.0892  0.2476
 2494TIP3    H1 7446   7.181   0.927   4.433  0.0952  0.2104 -0.1487
 2494TIP3    H2 7447   7.138   1.060   4.376  0.0442  0.7981  1.2173
 2495TIP3   OH2 7448   5.254   2.130   4.569  0.0600 -0.8166 -0.6909
 2495TIP3    H1 7449   5.187   2.177   4.520 -0.6609 -1.0884 -0.0018
 2495TIP3    H2 7450   5.207   2.057   4.609  0.8328 -1.1862 -0.4399
 2496TIP3   OH2 7451   5.179   3.861   5.427  0.2631 -0.5282  0.3667
 2496TIP3    H1 7452   5.190   3.928   5.494 -0.2380 -0.7293  0.6461
 2496TIP3    H2 7453   5.214   3.902   5.347 -0.3198  0.1780  0.4665
 2497TIP3   OH2 7454   6.109   1.126   2.672  0.3694  0.7370 -0.1007
 2497TIP3    H1 7455   6.060   1.175   2.738  3.3643  3.0784  0.5879
 2497TIP3    H2 7456   6.065   1.149   2.589 -1.6238  0.1250  0.7364
 2498TIP3   OH2 7457   3.672   6.203   3.860 -0.0561  0.9293 -0.3268
 2498TIP3    H1 7458   3.710   6.291   3.862 -0.2238  1.0286  2.3666
 2498TIP3    H2 7459   3.733   6.149   3.910 -1.2893  0.1577  0.4052
 2499TIP3   OH2 7460   5.990   0.283   1.177 -0.4151  0.5423 -0.3279
 2499TIP3    H1 7461   6.079   0.315   1.188 -0.6756  1.0362  0.4588
 2499TIP3    H2 7462   5.938   0.362   1.162 -0.7266  0.2575 -0.7947
 2500TIP3   OH2 7463   4.435   3.538   3.786  0.8319 -0.2553 -0.1574
 2500TIP3    H1 7464   4.443   3.560   3.694 -0.9706 -0.9404 -0.5255
 2500TIP3    H2 7465   4.387   3.455   3.787 -0.1433  0.2703  1.4065
 2501TIP3   OH2 7466   2.762   3.120   3.880 -0.5459  0.0484 -0.3803
 2501TIP3    H1 7467   2.717   3.180   3.940 -1.8201 -0.8219 -0.4270
 2501TIP3    H2 7468   2.850   3.113   3.916 -0.7744  0.8828  0.4069
 2502TIP3   OH2 7469   2.291   5.467   5.771 -0.0773 -0.2327  0.1424
 2502TIP3    H1 7470   2.360   5.425   5.823  0.9106  0.8369 -0.2613
 2502TIP3    H2 7471   2.213   5.415   5.789  0.2159  0.0916  2.6603
 2503TIP3   OH2 7472   6.121   0.462   5.557 -0.1428 -0.1031 -0.0591
 2503TIP3    H1 7473   6.062   0.411   5.612 -0.1745  0.9120  0.8881
 2503TIP3    H2 7474   6.207   0.421   5.567 -0.2041 -0.0814  0.5426
 2504TIP3   OH2 7475   3.109   5.184   5.505 -0.0259 -0.8794 -0.1881
 2504TIP3    H1 7476   3.032   5.224   5.465  0.2440 -0.5088 -0.3425
 2504TIP3    H2 7477   3.125   5.105   5.454 -0.7638 -1.3773  0.3287
 2505TIP3   OH2 7478   4.360   0.222   5.114  0.0864 -0.2860  0.9274
 2505TIP3    H1 7479   4.399   0.200   5.199  1.1978  2.0753  1.0999
 2505TIP3    H2 7480   4.405   0.165   5.052  2.6841  1.1376  1.3698
 2506TIP3   OH2 7481   7.065   0.014   1.680  0.3131  0.1464  0.0165
 2506TIP3    H1 7482   7.045  -0.027   1.596  1.2405 -1.0160  0.3352
 2506TIP3    H2 7483   7.076   0.107   1.660  1.1934 -0.2183 -1.2697
 2507TIP3   OH2 7484   0.110   4.180   4.872 -0.0945  0.3370 -0.0727
 2507TIP3    H1 7485   0.177   4.179   4.804  1.0957  1.2798  1.0412
 2507TIP3    H2 7486   0.159   4.184   4.955 -1.4960 -0.5806  0.8545
 2508TIP3   OH2 7487   2.377   2.669   5.005 -0.3621  0.6642 -0.5560
 2508TIP3    H1 7488   2.371   2.608   5.078 -0.9767 -0.5773 -1.6008
 2508TIP3    H2 7489   2.301   2.649   4.950  0.5387  0.9539 -1.9702
 2509TIP3   OH2 7490   4.043   6.316   4.118  0.0922  0.8420 -0.3461
 2509TIP3    H1 7491   4.088   6.243   4.160 -2.0485  0.0663  0.7567
 2509TIP3    H2 7492   4.057   6.390   4.178  0.6617  0.8667 -0.5001
 2510TIP3   OH2 7493   0.703   4.096   3.875 -0.4344 -0.1185 -0.9416
 2510TIP3    H1 7494   0.700   4.191   3.885  0.1670 -0.1497 -0.3342
 2510TIP3    H2 7495   0.779   4.080   3.818  1.0320 -0.3348  0.9721
 2511TIP3   OH2 7496   2.040   3.883   0.851 -0.2098  1.0285  0.6541
 2511TIP3    H1 7497   2.031   3.975   0.828 -0.3810  1.0356  0.7481
 2511TIP3    H2 7498   1.986   3.872   0.929 -1.2434  0.5662 -0.1010
 2512TIP3   OH2 7499   7.062   6.714   3.326 -0.4351  0.3040  0.6011
 2512TIP3    H1 7500   7.048   6.743   3.416  0.4019  0.4402  0.6933
 2512TIP3    H2 7501   7.091   6.623   3.334  0.4823  0.5843  0.5245
 2513TIP3   OH2 7502   6.723   3.008   3.131 -0.2010 -0.2714  0.6446
 2513TIP3    H1 7503   6.735   2.925   3.178  0.5507 -0.4676  0.1243
 2513TIP3    H2 7504   6.762   3.074   3.189  0.5171 -0.4826  0.4107
 2514TIP3   OH2 7505   6.622   2.610   5.114  0.1328 -0.0158  0.1520
 2514TIP3    H1 7506   6.597   2.623   5.023 -1.3465  0.1626  0.5500
 2514TIP3    H2 7507   6.695   2.670   5.128 -0.7722  1.2741 -0.4663
 2515TIP3   OH2 7508   0.422   0.821   1.269 -0.1998 -0.3991  0.5120
 2515TIP3    H1 7509   0.334   0.834   1.233 -0.8879 -1.1591  1.8221
 2515TIP3    H2 7510   0.430   0.726   1.277  1.0569 -0.3897 -0.2693
 2516TIP3   OH2 7511   2.805   3.825   0.878  0.4379 -0.0559  0.3673
 2516TIP3    H1 7512   2.868   3.851   0.945 -0.0068 -0.4039  0.9342
 2516TIP3    H2 7513   2.857   3.778   0.813  0.7481 -0.4407  0.8836
 2517TIP3   OH2 7514   1.092   6.271   1.365 -0.1383 -0.1638 -0.0210
 2517TIP3    H1 7515   1.132   6.221   1.436  2.1591 -0.7165 -1.5920
 2517TIP3    H2 7516   1.077   6.205   1.296 -0.6756  0.6537 -0.7043
 2518TIP3   OH2 7517   4.367   4.393   0.897 -0.6314  1.1218  0.5183
 2518TIP3    H1 7518   4.332   4.455   0.832  1.5595  2.8557  0.8789
 2518TIP3    H2 7519   4.295   4.380   0.958 -1.7090  1.9677 -0.5140
 2519TIP3   OH2 7520   5.338   2.326   4.768  0.2399  0.7129  0.1389
 2519TIP3    H1 7521   5.357   2.276   4.689  0.1141  1.5708 -0.4445
 2519TIP3    H2 7522   5.245   2.310   4.784 -0.2011  1.9946 -0.9608
 2520TIP3   OH2 7523   2.277   5.997   1.522  0.4147 -0.2816 -0.0352
 2520TIP3    H1 7524   2.288   6.082   1.479  1.2737  0.6510  1.8623
 2520TIP3    H2 7525   2.364   5.958   1.522  0.1558 -0.8697 -0.3182
 2521TIP3   OH2 7526   1.331   4.943   3.093 -0.0981 -0.3639  0.2815
 2521TIP3    H1 7527   1.310   4.972   3.181 -0.4761  0.0514  0.0598
 2521TIP3    H2 7528   1.380   5.015   3.054 -0.6303 -0.2081 -0.1125
 2522TIP3   OH2 7529   5.382   6.777   3.456 -0.3451 -0.0270  0.1014
 2522TIP3    H1 7530   5.371   6.855   3.511 -0.7200  0.3446 -0.4901
 2522TIP3    H2 7531   5.295   6.760   3.421 -0.2111 -0.5631  0.0225
 2523TIP3   OH2 7532   1.504   1.842   3.923  0.6787 -0.2141  0.0912
 2523TIP3    H1 7533   1.428   1.809   3.875  0.6810  0.0181 -0.0764
 2523TIP3    H2 7534   1.468   1.911   3.979  0.8693  0.3944 -0.5118
 2524TIP3   OH2 7535   6.849   6.602   5.148  0.2429 -0.3011 -0.3739
 2524TIP3    H1 7536   6.860   6.654   5.069  0.0207  0.1130 -0.1366
 2524TIP3    H2 7537   6.930   6.615   5.197  0.1068 -0.0160 -0.2224
 2525TIP3   OH2 7538   1.783   5.523   0.890 -0.2746 -0.1386  0.7310
 2525TIP3    H1 7539   1.796   5.431   0.913  0.9117  0.2087  1.5321
 2525TIP3    H2 7540   1.807   5.528   0.797  1.5224 -0.3038  1.1530
 2526TIP3   OH2 7541   7.027   1.081   2.738  0.3090 -0.0615 -0.0466
 2526TIP3    H1 7542   7.062   1.166   2.712  2.2720 -0.8493 -0.2241
 2526TIP3    H2 7543   7.059   1.067   2.827  0.0679 -0.6325 -0.0409
 2527TIP3   OH2 7544   2.517   3.828   3.746  0.2581  0.3733 -0.2044
 2527TIP3    H1 7545   2.530   3.881   3.824  0.0754 -0.3553  0.3295
 2527TIP3    H2 7546   2.484   3.889   3.681 -1.5322  0.6366  0.8845
 2528TIP3   OH2 7547   6.763   4.950   0.038 -0.0594 -0.3769 -0.3797
 2528TIP3    H1 7548   6.694   4.953  -0.028  0.6334  2.8389 -1.1522
 2528TIP3    H2 7549   6.719   4.971   0.120 -0.1846  0.8554 -0.7399
 2529TIP3   OH2 7550   2.957   6.210   3.168 -0.1376 -0.0850 -0.3049
 2529TIP3    H1 7551   2.974   6.141   3.231 -0.9247 -0.4657 -0.5015
 2529TIP3    H2 7552   3.000   6.288   3.205 -0.4705 -0.3370  0.6213
 2530TIP3   OH2 7553   0.708   3.123   3.199  0.2764 -0.1126 -0.0239
 2530TIP3    H1 7554   0.796   3.155   3.178  0.3219  2.0514  2.8695
 2530TIP3    H2 7555   0.651   3.198   3.181 -0.7325 -0.8979 -0.1641
 2531TIP3   OH2 7556   3.340   2.275   1.893  0.0645 -0.4562  0.3694
 2531TIP3    H1 7557   3.251   2.289   1.925  0.4054 -0.1697  1.2007
 2531TIP3    H2 7558   3.329   2.256   1.800 -0.9494 -1.4732  0.6767
 2532TIP3   OH2 7559   0.842   1.922   0.662 -0.2026  0.1865 -0.5790
 2532TIP3    H1 7560   0.827   2.011   0.629 -2.5635  0.1801  0.3044
 2532TIP3    H2 7561   0.838   1.931   0.757 -0.1555 -0.8078 -0.4804
 2533TIP3   OH2 7562   1.047   3.425   4.723  0.0278 -0.0679  0.1035
 2533TIP3    H1 7563   1.095   3.348   4.691 -0.0525  0.8299 -2.3977
 2533TIP3    H2 7564   0.985   3.445   4.653  0.7665  2.9035  0.1979
 2534TIP3   OH2 7565   3.704   3.838   2.693 -0.2237  0.0519 -0.3474
 2534TIP3    H1 7566   3.697   3.811   2.785 -1.0864  0.7655 -0.1858
 2534TIP3    H2 7567   3.773   3.783   2.657  0.6894  0.3288  0.9321
 2535TIP3   OH2 7568   2.970   5.621   2.456  0.0979  0.1860  0.4601
 2535TIP3    H1 7569   3.014   5.641   2.374 -1.3820  1.0618 -0.1409
 2535TIP3    H2 7570   2.968   5.704   2.504 -0.2428 -0.0163  0.8031
 2536TIP3   OH2 7571   6.137   2.227   2.972 -0.6248 -0.2094  0.1070
 2536TIP3    H1 7572   6.228   2.212   2.950 -1.4799  0.1437 -4.5804
 2536TIP3    H2 7573   6.134   2.319   3.000  0.3188  0.1751 -0.9780
 2537TIP3   OH2 7574   0.265   5.271   5.480 -0.2491 -0.4755 -0.6127
 2537TIP3    H1 7575   0.182   5.301   5.518  0.4165  0.5452  0.0930
 2537TIP3    H2 7576   0.274   5.321   5.399  0.1142  0.1358 -0.2101
 2538TIP3   OH2 7577   5.696   5.329   0.483 -0.3778  0.1921  0.0437
 2538TIP3    H1 7578   5.664   5.401   0.538 -1.8300 -0.9985  0.8545
 2538TIP3    H2 7579   5.703   5.367   0.396  1.4275  1.9930  0.8633
 2539TIP3   OH2 7580   3.686   2.996   3.324 -0.0607 -0.0160  0.3259
 2539TIP3    H1 7581   3.677   2.934   3.397  1.0137 -0.2575  0.2712
 2539TIP3    H2 7582   3.743   3.065   3.359 -2.2096  1.6345  0.8052
 2540TIP3   OH2 7583   6.427   1.808   1.057 -1.1618  0.3864  0.0478
 2540TIP3    H1 7584   6.422   1.787   0.964 -2.8410 -0.2518  0.2470
 2540TIP3    H2 7585   6.519   1.797   1.079 -0.5358  1.4944 -1.7322
 2541TIP3   OH2 7586   4.553   1.221   2.534 -0.1656  0.4947  0.5212
 2541TIP3    H1 7587   4.594   1.298   2.573  0.9957  0.4609 -0.5789
 2541TIP3    H2 7588   4.467   1.252   2.506 -0.4506  0.8888  1.7634
 2542TIP3   OH2 7589   3.880   5.182   1.456 -0.3172 -0.4272 -0.3454
 2542TIP3    H1 7590   3.940   5.189   1.530  2.7348 -0.1427 -2.6573
 2542TIP3    H2 7591   3.867   5.272   1.427 -0.3136 -0.6376 -1.0186
 2543TIP3   OH2 7592   4.793   6.331   3.077  0.0925 -0.0798 -0.1370
 2543TIP3    H1 7593   4.811   6.423   3.094 -2.1095  0.6719 -1.4997
 2543TIP3    H2 7594   4.748   6.300   3.156 -2.6130  1.1197 -1.1163
 2544TIP3   OH2 7595   4.505   3.773   1.506  0.7258  0.3505  0.6487
 2544TIP3    H1 7596   4.451   3.813   1.574 -0.2496 -2.4287  1.6625
 2544TIP3    H2 7597   4.586   3.747   1.552  0.7620 -0.0573  0.3620
 2545TIP3   OH2 7598   6.997   0.344   5.055  0.6884  0.3225 -0.2069
 2545TIP3    H1 7599   6.928   0.381   5.000  0.1718  0.6276  0.6288
 2545TIP3    H2 7600   6.953   0.273   5.103  0.9867  0.4131  0.2081
 2546TIP3   OH2 7601   5.109   1.137   2.027  0.5887 -0.0686  0.0595
 2546TIP3    H1 7602   5.149   1.202   2.084 -1.6812  0.3336  1.3339
 2546TIP3    H2 7603   5.068   1.188   1.958 -0.5327 -0.1595  0.6319
 2547TIP3   OH2 7604   0.426   6.248   2.838 -0.0577 -0.0227 -0.2009
 2547TIP3    H1 7605   0.493   6.182   2.818 -0.1925 -0.1193 -0.3289
 2547TIP3    H2 7606   0.347   6.218   2.793  0.3907  1.2720 -2.0190
 2548TIP3   OH2 7607   6.895   5.679   4.304 -0.3915 -0.5466 -0.4380
 2548TIP3    H1 7608   6.891   5.765   4.347  0.7845  0.0276 -1.4350
 2548TIP3    H2 7609   6.898   5.699   4.211  1.7118 -1.5559 -0.6500
 2549TIP3   OH2 7610   0.563   2.091   2.379  0.3234  0.1945 -0.2769
 2549TIP3    H1 7611   0.477   2.123   2.351  0.3392 -0.0616 -0.6162
 2549TIP3    H2 7612   0.625   2.151   2.337  0.3031  0.5646  0.2118
 2550TIP3   OH2 7613   6.984   4.884   3.559  0.0614  0.0035  0.1147
 2550TIP3    H1 7614   6.928   4.948   3.514 -0.8502 -0.3986  0.6347
 2550TIP3    H2 7615   7.042   4.937   3.613  1.8561  0.5490 -2.2151
 2551TIP3   OH2 7616   1.570   0.858   3.149  0.1312  0.1224  0.4011
 2551TIP3    H1 7617   1.498   0.795   3.141 -0.8135  1.3794 -1.5916
 2551TIP3    H2 7618   1.549   0.908   3.228 -1.3312  0.6251 -0.2784
 2552TIP3   OH2 7619   6.222   3.816   0.732 -0.3616 -0.3190 -0.1327
 2552TIP3    H1 7620   6.222   3.873   0.655  0.8465 -1.0506 -0.7110
 2552TIP3    H2 7621   6.186   3.733   0.700  0.3217 -0.6857  0.0161
 2553TIP3   OH2 7622   4.701   4.306   4.663 -0.0265  0.0294  0.5962
 2553TIP3    H1 7623   4.792   4.279   4.649  0.3534  0.5749  1.8004
 2553TIP3    H2 7624   4.666   4.242   4.725 -0.3448  0.0282  0.4170
 2554TIP3   OH2 7625   3.708   1.527   3.857 -0.1504 -0.2566 -0.0523
 2554TIP3    H1 7626   3.775   1.555   3.794 -0.9901  0.2110 -0.7643
 2554TIP3    H2 7627   3.704   1.432   3.846 -2.0387  0.0071 -2.6053
 2555TIP3   OH2 7628   6.338   1.904   0.147 -0.5143  0.0871  0.0783
 2555TIP3    H1 7629   6.318   1.920   0.054 -1.1176  0.1981  0.2235
 2555TIP3    H2 7630   6.287   1.826   0.169 -0.6052  0.2363  0.3970
 2556TIP3   OH2 7631   2.117   3.227   0.284 -0.4090 -0.0067  0.1563
 2556TIP3    H1 7632   2.078   3.314   0.292 -0.9464 -0.1349 -0.9339
 2556TIP3    H2 7633   2.045   3.170   0.257  0.3229 -0.4229 -1.0204
 2557TIP3   OH2 7634   4.668   6.788   4.491  0.5272  0.7887  0.4739
 2557TIP3    H1 7635   4.614   6.785   4.571  2.0405  3.5017  1.7574
 2557TIP3    H2 7636   4.747   6.741   4.515  0.0738 -0.4068 -0.2961
 2558TIP3   OH2 7637   2.578   5.823   2.256 -0.4342 -0.2004  0.6180
 2558TIP3    H1 7638   2.525   5.771   2.316 -0.5269 -0.0068  0.7054
 2558TIP3    H2 7639   2.519   5.847   2.184 -0.3345 -0.3965  0.4708
 2559TIP3   OH2 7640   1.429   2.035   4.404  0.4151 -0.2226 -0.1708
 2559TIP3    H1 7641   1.419   1.959   4.347  0.5664 -0.6594  0.3724
 2559TIP3    H2 7642   1.425   2.110   4.345  1.1505 -0.6814 -0.8282
 2560TIP3   OH2 7643   1.003   6.151   1.080  0.0232  0.4041 -0.0489
 2560TIP3    H1 7644   1.063   6.183   1.013 -0.3685 -1.3400 -1.2976
 2560TIP3    H2 7645   1.013   6.056   1.077 -1.0830  0.2131  1.3682
 2561TIP3   OH2 7646   6.889   0.511   0.402  0.3492  0.4460  0.1809
 2561TIP3    H1 7647   6.830   0.557   0.342 -1.3643  0.1004  1.5390
 2561TIP3    H2 7648   6.883   0.419   0.377 -0.6851  0.2446  1.0815
 2562TIP3   OH2 7649   1.357   3.990   2.016  0.3061 -0.4160 -0.3549
 2562TIP3    H1 7650   1.439   3.948   1.992  0.9370  0.0625  0.8938
 2562TIP3    H2 7651   1.381   4.059   2.078 -1.0869 -0.7765  0.6640
 2563TIP3   OH2 7652   3.151   6.689   4.306  0.2442  0.2801 -0.1508
 2563TIP3    H1 7653   3.178   6.776   4.276  1.2576 -0.2040 -0.6923
 2563TIP3    H2 7654   3.068   6.704   4.352  0.8611  1.6721  0.5799
 2564TIP3   OH2 7655   4.575   4.399   4.300  0.1826  0.1675  0.4242
 2564TIP3    H1 7656   4.556   4.399   4.394  2.6973  0.2176  0.9925
 2564TIP3    H2 7657   4.645   4.334   4.290  1.4109  1.6617 -1.0761
 2565TIP3   OH2 7658   5.928   5.751   0.083  0.0461 -0.2663 -0.0913
 2565TIP3    H1 7659   6.007   5.782   0.039 -0.9961  1.0226 -1.1386
 2565TIP3    H2 7660   5.955   5.669   0.125  2.0166  0.3216 -0.1061
 2566TIP3   OH2 7661   3.428   4.645   5.671  0.0428  0.2446  0.5936
 2566TIP3    H1 7662   3.461   4.567   5.715 -0.0840  0.2556  0.7079
 2566TIP3    H2 7663   3.483   4.653   5.593 -0.5418 -0.4848  0.0978
 2567TIP3   OH2 7664   7.149   1.367   5.038  0.0875 -0.0039 -0.6912
 2567TIP3    H1 7665   7.223   1.423   5.061  0.5569 -1.2796  1.0431
 2567TIP3    H2 7666   7.188   1.297   4.986  0.4508 -1.5770  1.5863
 2568TIP3   OH2 7667   1.688   5.944   2.798 -0.0174 -0.7278 -0.0774
 2568TIP3    H1 7668   1.616   5.927   2.859  0.1800  0.0887  0.4153
 2568TIP3    H2 7669   1.661   6.024   2.752 -0.1537 -1.3283 -1.0628
 2569TIP3   OH2 7670   1.198   6.617   2.665 -0.4554  0.2666  0.1587
 2569TIP3    H1 7671   1.233   6.678   2.730 -2.9681  0.4292  1.4886
 2569TIP3    H2 7672   1.274   6.592   2.613  1.2962  1.7917  1.7975
 2570TIP3   OH2 7673   1.796   4.405   5.025  0.3516 -0.2534 -0.4224
 2570TIP3    H1 7674   1.794   4.500   5.038  1.2437 -0.4269  1.3350
 2570TIP3    H2 7675   1.854   4.392   4.950 -0.3752  0.6118 -1.1582
 2571TIP3   OH2 7676   1.752   1.472   1.323  0.0039  0.3804 -0.9185
 2571TIP3    H1 7677   1.738   1.543   1.385  0.4759 -0.4624  0.1710
 2571TIP3    H2 7678   1.674   1.418   1.330  0.7701 -0.6183  0.1834
 2572TIP3   OH2 7679   1.623   3.917   1.221  0.1781 -0.4087 -0.4609
 2572TIP3    H1 7680   1.666   4.002   1.230 -1.0260  0.4125 -1.9590
 2572TIP3    H2 7681   1.531   3.934   1.239  0.1401 -1.7769  0.9046
 2573TIP3   OH2 7682   3.922   6.533   5.162 -0.0725  0.2320 -0.0085
 2573TIP3    H1 7683   3.932   6.439   5.147  2.5176  0.5301 -0.6227
 2573TIP3    H2 7684   3.845   6.557   5.109 -0.3308 -1.3975 -0.4454
 2574TIP3   OH2 7685   5.871   2.705   1.611 -0.7734  0.6825 -0.3665
 2574TIP3    H1 7686   5.946   2.648   1.594  0.5486  1.2115  2.8312
 2574TIP3    H2 7687   5.909   2.793   1.616 -1.9407  1.2118 -0.4822
 2575TIP3   OH2 7688   4.106   4.544   4.657  0.2420 -0.3499 -0.0063
 2575TIP3    H1 7689   4.117   4.631   4.695 -0.4314 -1.0664  1.9159
 2575TIP3    H2 7690   4.012   4.533   4.649  0.3025 -1.1201  0.2838
 2576TIP3   OH2 7691   0.997   2.772   1.157  0.0916 -0.4427 -0.6156
 2576TIP3    H1 7692   0.935   2.740   1.222 -0.7331  1.5744 -0.3431
 2576TIP3    H2 7693   1.052   2.834   1.206 -0.3817  0.9162 -1.7581
 2577TIP3   OH2 7694   5.463   2.138   2.858  0.4697 -0.4024 -0.3818
 2577TIP3    H1 7695   5.387   2.170   2.809  0.4982  0.0001 -0.1676
 2577TIP3    H2 7696   5.536   2.193   2.828  0.3418  0.3683  0.6582
 2578TIP3   OH2 7697   2.709   5.038   3.706  0.5183 -0.3912 -0.1597
 2578TIP3    H1 7698   2.769   5.108   3.729 -1.4384  0.8051  1.6557
 2578TIP3    H2 7699   2.634   5.082   3.666 -1.4199 -1.1352  2.3474
 2579TIP3   OH2 7700   6.301   1.655   3.683 -0.6400  0.2150  0.5590
 2579TIP3    H1 7701   6.240   1.679   3.753 -1.0331 -1.2462  0.7642
 2579TIP3    H2 7702   6.266   1.572   3.649  1.7441 -1.2278  1.3433
 2580TIP3   OH2 7703   1.168   1.196   4.210 -0.5037  0.2101 -0.1441
 2580TIP3    H1 7704   1.238   1.131   4.199 -0.1313  0.3357  1.3340
 2580TIP3    H2 7705   1.128   1.202   4.123  1.7331  0.6183 -1.2240
 2581TIP3   OH2 7706   3.234   1.094   4.067  0.0306  0.1122 -0.3921
 2581TIP3    H1 7707   3.184   1.172   4.044 -1.0175  0.1638  1.7815
 2581TIP3    H2 7708   3.229   1.089   4.163  2.1686 -1.2604 -0.2640
 2582TIP3   OH2 7709   4.033   1.948   0.073  0.5333  0.4929 -0.1397
 2582TIP3    H1 7710   4.060   1.856   0.062  2.0382  0.8883  0.0120
 2582TIP3    H2 7711   4.047   1.965   0.166 -0.7147  0.6004  0.0391
 2583TIP3   OH2 7712   2.170   5.971   0.675  0.1958  0.0699 -0.2698
 2583TIP3    H1 7713   2.261   5.988   0.649  0.4862 -1.6168 -0.4800
 2583TIP3    H2 7714   2.161   6.015   0.759  1.0963  0.5572 -0.4102
 2584TIP3   OH2 7715   3.210   6.629   3.605 -0.1542  0.2326 -0.0000
 2584TIP3    H1 7716   3.223   6.535   3.622 -0.8431  0.0249 -0.5421
 2584TIP3    H2 7717   3.115   6.641   3.611 -0.0883  0.8581 -0.1519
 2585TIP3   OH2 7718   0.256   2.348   2.641  0.3212 -0.3668 -0.0518
 2585TIP3    H1 7719   0.339   2.302   2.658 -0.6082 -2.1252 -0.0311
 2585TIP3    H2 7720   0.216   2.360   2.727 -0.4610 -1.5651 -0.2304
 2586TIP3   OH2 7721   1.372   2.401   1.084 -0.2595  0.3486 -0.0210
 2586TIP3    H1 7722   1.300   2.464   1.087 -1.1654 -0.6291 -0.3114
 2586TIP3    H2 7723   1.418   2.421   1.002 -0.7272  0.4278 -0.2676
 2587TIP3   OH2 7724   2.052   3.179   4.233  0.4968  0.1347 -0.3473
 2587TIP3    H1 7725   2.142   3.161   4.207  0.1302 -1.7124 -0.4633
 2587TIP3    H2 7726   2.039   3.128   4.313 -1.2894 -2.0813 -1.9129
 2588TIP3   OH2 7727   2.295   3.501   0.655  0.9289 -0.0122 -0.3131
 2588TIP3    H1 7728   2.240   3.432   0.618  1.1215  1.4172 -3.6012
 2588TIP3    H2 7729   2.238   3.548   0.716  0.2066 -1.7801  0.4205
 2589TIP3   OH2 7730   7.101   4.879   2.476  0.1114 -0.4299  0.8663
 2589TIP3    H1 7731   7.028   4.886   2.537 -0.6830  0.4423 -0.1487
 2589TIP3    H2 7732   7.093   4.956   2.420 -0.3380 -2.1045 -1.5413
 2590TIP3   OH2 7733   2.888   3.536   1.111 -0.3106  0.5445  0.4512
 2590TIP3    H1 7734   2.807   3.518   1.064  0.6470 -1.1067 -0.6344
 2590TIP3    H2 7735   2.933   3.602   1.058 -0.4556  0.6980  0.5158
 2591TIP3   OH2 7736   0.871   2.747   3.687 -0.3435 -0.3060  0.0984
 2591TIP3    H1 7737   0.819   2.718   3.612  1.1370  0.1219 -1.1597
 2591TIP3    H2 7738   0.848   2.840   3.698  0.2038 -0.0814 -0.5420
 2592TIP3   OH2 7739   4.661   6.767   2.191  0.0047  0.3576 -0.0671
 2592TIP3    H1 7740   4.662   6.675   2.164 -0.4309 -0.2004  1.7003
 2592TIP3    H2 7741   4.711   6.812   2.123 -0.6617 -1.0020 -1.5523
 2593TIP3   OH2 7742   5.839   1.925   2.894  0.0345  0.5425 -0.1630
 2593TIP3    H1 7743   5.864   1.960   2.979 -3.0161  0.5573  0.8572
 2593TIP3    H2 7744   5.878   1.838   2.891  0.3282  0.6190  1.1583
 2594TIP3   OH2 7745   0.342   5.401   0.859  0.1277 -0.1122 -0.3101
 2594TIP3    H1 7746   0.287   5.331   0.823  1.5843 -1.9255  0.8020
 2594TIP3    H2 7747   0.291   5.480   0.846 -0.5402 -0.9398 -4.0002
 2595TIP3   OH2 7748   5.858   1.183   0.306  1.0244 -0.1524 -0.7287
 2595TIP3    H1 7749   5.854   1.226   0.392 -0.1713 -0.2910 -0.6949
 2595TIP3    H2 7750   5.856   1.255   0.243 -0.3364 -0.0897 -0.6590
 2596TIP3   OH2 7751   3.400   2.313   4.532  0.8129  0.0347  0.3681
 2596TIP3    H1 7752   3.392   2.225   4.495 -0.2695  0.0783  0.4730
 2596TIP3    H2 7753   3.491   2.319   4.560  1.5462 -0.2319 -1.7228
 2597TIP3   OH2 7754   6.395   0.992   1.512  0.5113 -0.0511  0.1832
 2597TIP3    H1 7755   6.360   1.037   1.588 -0.7535 -1.0765  0.2282
 2597TIP3    H2 7756   6.401   0.901   1.538  0.6622 -0.3188 -0.7442
 2598TIP3   OH2 7757   1.967   5.992   2.719  0.0831  0.3945 -0.0146
 2598TIP3    H1 7758   1.894   5.995   2.781  0.4440  1.2636  0.3823
 2598TIP3    H2 7759   1.980   5.899   2.702 -1.0883  0.2194 -0.0589
 2599TIP3   OH2 7760   3.649   0.566   1.509 -0.1353 -0.1261  0.3415
 2599TIP3    H1 7761   3.556   0.583   1.525 -0.4596 -0.7104 -0.8063
 2599TIP3    H2 7762   3.688   0.652   1.497 -0.8297  0.0637 -0.6624
 2600TIP3   OH2 7763   3.294   3.101   2.252  0.4211  0.0565  0.0645
 2600TIP3    H1 7764   3.301   3.009   2.276  1.0456  0.3992  1.2926
 2600TIP3    H2 7765   3.211   3.108   2.204  0.2371 -1.0813  0.2032
 2601TIP3   OH2 7766   5.738   5.328   5.311 -0.0221 -0.4661 -0.1068
 2601TIP3    H1 7767   5.653   5.316   5.269 -1.0750 -0.2598  1.8411
 2601TIP3    H2 7768   5.740   5.420   5.337  0.3430 -0.7221  0.8062
 2602TIP3   OH2 7769   0.881   2.344   3.621 -0.0901 -0.0038  0.1025
 2602TIP3    H1 7770   0.880   2.356   3.526  1.9200  1.6821  0.2128
 2602TIP3    H2 7771   0.803   2.389   3.652 -0.7104 -0.4801 -0.7105
 2603TIP3   OH2 7772   2.567   5.045   2.017  0.3408 -0.4861  0.3510
 2603TIP3    H1 7773   2.603   5.069   1.932  0.7737 -0.1543  0.6253
 2603TIP3    H2 7774   2.540   5.127   2.057 -2.3762 -0.8454 -0.5509
 2604TIP3   OH2 7775   5.410   4.694   2.327  0.5480  0.5751 -0.0684
 2604TIP3    H1 7776   5.471   4.676   2.398  1.3028  3.0647  0.0193
 2604TIP3    H2 7777   5.325   4.702   2.371  0.0715 -2.6323 -0.1607
 2605TIP3   OH2 7778   5.741   1.718   3.805  0.2613  0.0561  0.5034
 2605TIP3    H1 7779   5.682   1.649   3.776 -0.3652 -0.1827  2.2671
 2605TIP3    H2 7780   5.686   1.777   3.857  1.4036  0.2463  1.5439
 2606TIP3   OH2 7781   2.546   2.665   0.038  0.1949 -0.0522  0.1278
 2606TIP3    H1 7782   2.565   2.571   0.044 -0.8339 -0.2498  0.6601
 2606TIP3    H2 7783   2.502   2.675  -0.046 -0.8625 -0.2872  0.6369
 2607TIP3   OH2 7784   1.622   4.099   5.608  0.4717  0.3366 -0.2687
 2607TIP3    H1 7785   1.680   4.095   5.684 -2.2001  2.1575  2.0917
 2607TIP3    H2 7786   1.573   4.017   5.611  0.0710  0.5873  0.2970
 2608TIP3   OH2 7787   3.893   3.958   0.647 -0.5826  0.0574 -0.5667
 2608TIP3    H1 7788   3.953   4.022   0.608 -0.7971  0.2768 -0.5403
 2608TIP3    H2 7789   3.920   3.874   0.609  1.3162 -0.2305  1.2690
 2609TIP3   OH2 7790   6.604   5.571   0.805 -0.0508  0.0760 -0.4112
 2609TIP3    H1 7791   6.640   5.509   0.869  1.4448  0.1277 -1.1411
 2609TIP3    H2 7792   6.617   5.657   0.846 -1.4023 -0.0069  0.2593
 2610TIP3   OH2 7793   3.888   1.884   1.587 -0.2239  0.0900  0.5509
 2610TIP3    H1 7794   3.885   1.815   1.520  0.2898  1.1872 -0.6567
 2610TIP3    H2 7795   3.886   1.966   1.537 -1.8422  0.9845  1.9848
 2611TIP3   OH2 7796   1.477   5.118   2.909 -0.6511  0.1510 -0.3270
 2611TIP3    H1 7797   1.562   5.113   2.953 -0.3818 -4.1466 -0.9383
 2611TIP3    H2 7798   1.497   5.109   2.816 -1.7488 -2.0340 -0.4062
 2612TIP3   OH2 7799   4.664   2.207   3.033  1.0124  0.6102 -0.0547
 2612TIP3    H1 7800   4.726   2.163   2.975  1.7588 -0.3980  1.4461
 2612TIP3    H2 7801   4.664   2.155   3.113 -0.8015  1.3374  0.4834
 2613TIP3   OH2 7802   0.473   2.594   5.879  0.0554 -0.2452 -0.7553
 2613TIP3    H1 7803   0.506   2.506   5.892 -0.2320  0.0441  2.6009
 2613TIP3    H2 7804   0.549   2.644   5.849  0.8080 -1.1211 -0.3450
 2614TIP3   OH2 7805   5.948   2.847   0.580 -0.2037 -0.2952  0.3753
 2614TIP3    H1 7806   5.917   2.889   0.499  2.2863  2.5289  0.7055
 2614TIP3    H2 7807   6.030   2.805   0.555 -0.7756 -1.8134  0.9199
 2615TIP3   OH2 7808   3.704   0.945   4.351  0.4319  0.5922 -0.5765
 2615TIP3    H1 7809   3.724   0.987   4.434  1.7927  0.4526 -0.8145
 2615TIP3    H2 7810   3.782   0.960   4.297 -0.5078  0.8642 -1.9004
 2616TIP3   OH2 7811   0.572   4.879   1.707  0.6165  0.2672 -0.3257
 2616TIP3    H1 7812   0.574   4.797   1.657 -1.3013 -0.3189  0.4625
 2616TIP3    H2 7813   0.584   4.852   1.798 -1.6354  0.6397  0.1233
 2617TIP3   OH2 7814   3.678   1.370   1.527  0.2778 -0.7025  0.0360
 2617TIP3    H1 7815   3.696   1.398   1.616  2.9818 -1.6162 -0.1512
 2617TIP3    H2 7816   3.715   1.440   1.472 -3.3427  1.0255 -0.5184
 2618TIP3   OH2 7817   0.253   6.252   0.423  0.3604 -0.3958  1.1613
 2618TIP3    H1 7818   0.344   6.261   0.453  1.3815 -2.2905 -1.0419
 2618TIP3    H2 7819   0.251   6.167   0.379 -1.9611  0.5065 -0.6673
 2619TIP3   OH2 7820   4.489   1.496   2.871 -0.0726  0.2362 -0.3060
 2619TIP3    H1 7821   4.420   1.436   2.900  0.7469 -0.5710  0.0353
 2619TIP3    H2 7822   4.533   1.523   2.952  0.7701 -0.2100 -0.6013
 2620TIP3   OH2 7823   3.282   6.095   0.197  0.1082 -0.2579 -0.1824
 2620TIP3    H1 7824   3.202   6.043   0.189 -0.1536 -0.3149  2.1121
 2620TIP3    H2 7825   3.251   6.181   0.225  0.7149  0.4483 -1.6206
 2621TIP3   OH2 7826   6.070   4.495   1.106 -0.1116  0.4532  0.3743
 2621TIP3    H1 7827   6.047   4.577   1.062 -0.5360  1.1160  1.7931
 2621TIP3    H2 7828   6.000   4.435   1.082  0.4907  0.3090 -1.1271
 2622TIP3   OH2 7829   3.703   1.878   5.370  0.0766 -0.8023 -0.3966
 2622TIP3    H1 7830   3.634   1.852   5.310 -1.1779 -1.0587  1.0944
 2622TIP3    H2 7831   3.729   1.966   5.341 -1.7003 -0.2083 -0.3133
 2623TIP3   OH2 7832   0.767   5.075   5.611 -0.0423 -0.4007  0.0635
 2623TIP3    H1 7833   0.693   5.115   5.657  1.1548  2.2172 -0.1207
 2623TIP3    H2 7834   0.834   5.143   5.609  2.0284 -2.3255 -0.6830
 2624TIP3   OH2 7835   5.093   4.871   0.310  0.0837  0.0053 -0.3055
 2624TIP3    H1 7836   5.179   4.912   0.300  0.2414  0.1169  1.2039
 2624TIP3    H2 7837   5.103   4.815   0.387 -0.9514 -0.6686 -0.6523
 2625TIP3   OH2 7838   1.548   1.594   5.617 -0.2646  0.3113  0.4660
 2625TIP3    H1 7839   1.517   1.683   5.633 -0.3923  0.6252 -1.3217
 2625TIP3    H2 7840   1.592   1.599   5.532 -0.4651 -1.3773  0.2352
 2626TIP3   OH2 7841   6.486   4.055   2.228 -0.0762 -0.2771  0.2386
 2626TIP3    H1 7842   6.459   4.145   2.212 -0.6406  0.4414  4.2680
 2626TIP3    H2 7843   6.407   4.003   2.218 -0.3610  0.0961  0.5446
 2627TIP3   OH2 7844   5.261   6.013   1.272  0.1480  0.6132  0.4385
 2627TIP3    H1 7845   5.282   6.031   1.180  0.1242 -2.1387 -0.1749
 2627TIP3    H2 7846   5.195   6.080   1.294  0.8309  1.9133 -1.2173
 2628TIP3   OH2 7847   2.691   1.040   1.745  0.0857  0.2736 -0.2652
 2628TIP3    H1 7848   2.665   1.097   1.672  2.0559  0.5148 -0.8276
 2628TIP3    H2 7849   2.778   1.008   1.721  1.0072  0.7193  2.1664
 2629TIP3   OH2 7850   3.429   0.199   0.079  0.3942 -0.4299 -0.7953
 2629TIP3    H1 7851   3.484   0.143   0.025 -0.2926 -1.6178 -0.2972
 2629TIP3    H2 7852   3.486   0.229   0.149  0.6373 -0.9679 -0.7577
 2630TIP3   OH2 7853   3.959   1.593   5.491 -0.1607  0.4574 -0.0558
 2630TIP3    H1 7854   4.007   1.674   5.506 -0.5118  0.4793  1.0561
 2630TIP3    H2 7855   4.026   1.530   5.467  0.5033  0.4351  1.6822
 2631TIP3   OH2 7856   4.321   5.686   0.931 -0.0873  0.3152 -0.5748
 2631TIP3    H1 7857   4.355   5.598   0.949  1.0396  0.6323 -1.0508
 2631TIP3    H2 7858   4.297   5.684   0.839 -0.6370  0.3332 -0.4351
 2632TIP3   OH2 7859   1.020   2.541   4.323  0.0842 -0.2871 -0.4473
 2632TIP3    H1 7860   1.112   2.539   4.347  0.3428 -0.3958 -1.4222
 2632TIP3    H2 7861   0.993   2.631   4.340  0.3485 -0.2700 -0.1024
 2633TIP3   OH2 7862   2.734   0.840   5.551  0.5109  0.0493  0.4026
 2633TIP3    H1 7863   2.810   0.896   5.569  0.4437 -0.3333  1.9562
 2633TIP3    H2 7864   2.741   0.768   5.614 -1.3951  0.2477  0.9054
 2634TIP3   OH2 7865   1.479   1.485   0.680  0.0802 -0.0399 -0.0315
 2634TIP3    H1 7866   1.390   1.499   0.715 -0.0410  1.4655 -0.8729
 2634TIP3    H2 7867   1.531   1.555   0.720  0.3558  0.5263 -1.3402
 2635TIP3   OH2 7868   0.226   3.808   0.457 -0.3774 -0.5300  0.2623
 2635TIP3    H1 7869   0.187   3.837   0.540 -1.1844 -0.7248 -0.0427
 2635TIP3    H2 7870   0.164   3.835   0.390 -0.8017 -2.2656 -0.1047
 2636TIP3   OH2 7871   2.441   5.834   4.873 -0.6926 -0.2405  0.0765
 2636TIP3    H1 7872   2.370   5.774   4.896 -0.9856 -0.4924 -1.3561
 2636TIP3    H2 7873   2.397   5.919   4.862 -0.2485  0.3455  2.3032
 2637TIP3   OH2 7874   6.996   2.316   0.117 -0.1407  0.0036  0.1378
 2637TIP3    H1 7875   6.985   2.320   0.022  0.3140 -2.0876 -0.0561
 2637TIP3    H2 7876   6.916   2.354   0.152 -0.5098  0.3988 -1.0788
 2638TIP3   OH2 7877   6.718   3.206   2.652 -0.0397 -0.2395  0.6287
 2638TIP3    H1 7878   6.794   3.164   2.692  0.4717 -1.4638 -1.4747
 2638TIP3    H2 7879   6.660   3.134   2.629 -1.7929  0.6565  1.9610
 2639TIP3   OH2 7880   1.181   2.195   1.830 -0.0873 -0.2613 -0.3147
 2639TIP3    H1 7881   1.265   2.240   1.829 -0.0725 -0.2533  0.3991
 2639TIP3    H2 7882   1.176   2.151   1.745  0.3548  0.2433 -0.6067
 2640TIP3   OH2 7883   3.419   2.978   3.365  0.3452 -0.3000 -0.5532
 2640TIP3    H1 7884   3.366   3.057   3.377  0.0725 -0.3791 -1.1664
 2640TIP3    H2 7885   3.496   3.008   3.316  0.4603 -0.3334 -0.3921
 2641TIP3   OH2 7886   3.663   1.240   3.941 -0.8455  0.2223  0.3646
 2641TIP3    H1 7887   3.700   1.227   3.854  0.9267  0.3084  1.0589
 2641TIP3    H2 7888   3.737   1.272   3.994 -1.8994  0.2806  1.8672
 2642TIP3   OH2 7889   1.648   0.164   1.907 -0.0364  0.4181 -0.0563
 2642TIP3    H1 7890   1.709   0.105   1.952  0.0632 -1.1188 -2.0800
 2642TIP3    H2 7891   1.694   0.248   1.902  1.5149 -0.4479 -0.6905
 2643TIP3   OH2 7892   5.002   1.829   5.243  0.0068 -0.4531  0.2672
 2643TIP3    H1 7893   5.001   1.878   5.326  1.3789  0.8461 -0.4468
 2643TIP3    H2 7894   5.036   1.743   5.267 -0.3893 -0.3778  1.1767
 2644TIP3   OH2 7895   3.657   6.536   1.007  0.3985 -0.1287  0.2992
 2644TIP3    H1 7896   3.678   6.443   0.996  2.7160  0.0779  2.1217
 2644TIP3    H2 7897   3.736   6.581   0.975 -0.7823  1.2714 -0.7786
 2645TIP3   OH2 7898   7.043   5.619   2.312 -0.3118 -0.5811  0.1175
 2645TIP3    H1 7899   7.072   5.632   2.222 -0.8514  0.5050  0.0933
 2645TIP3    H2 7900   6.974   5.683   2.325  0.7866  0.3275  1.8011
 2646TIP3   OH2 7901   3.899   3.368   1.012 -0.2659  0.4646 -0.3417
 2646TIP3    H1 7902   3.922   3.445   1.064  0.5530  0.5983 -0.9000
 2646TIP3    H2 7903   3.837   3.320   1.068 -0.2796  1.1830  0.2797
 2647TIP3   OH2 7904   5.884   5.785   1.994  0.0786  0.5318 -0.1527
 2647TIP3    H1 7905   5.816   5.788   2.061 -0.5050 -0.1284 -0.7138
 2647TIP3    H2 7906   5.963   5.761   2.042 -0.2090  0.6612  0.3973
 2648TIP3   OH2 7907   1.202   0.346   2.051 -0.0603 -0.1588 -0.1855
 2648TIP3    H1 7908   1.200   0.398   2.132 -0.8488 -1.1744  0.4729
 2648TIP3    H2 7909   1.223   0.409   1.983  1.8874  0.5362  0.9479
 2649TIP3   OH2 7910   6.755   1.896   3.513 -0.2318 -0.1833  0.2035
 2649TIP3    H1 7911   6.781   1.820   3.462 -0.4856  0.0468 -0.2775
 2649TIP3    H2 7912   6.686   1.864   3.571  0.1968 -0.4918  0.5470
 2650TIP3   OH2 7913   5.260   2.545   2.964 -0.3100 -0.4438 -0.1225
 2650TIP3    H1 7914   5.253   2.506   2.877 -1.0661  2.3406 -1.4206
 2650TIP3    H2 7915   5.290   2.634   2.948 -0.9882  0.3175  2.4228
 2651TIP3   OH2 7916   5.118   4.340   0.744 -0.1258 -0.4165 -0.4208
 2651TIP3    H1 7917   5.028   4.320   0.768  0.8479 -2.9171  1.5486
 2651TIP3    H2 7918   5.125   4.435   0.752 -2.0032 -0.3848  1.6404
 2652TIP3   OH2 7919   3.069   3.136   5.752 -0.3300 -0.2335 -0.2466
 2652TIP3    H1 7920   3.141   3.090   5.708  1.3188  2.1874 -0.2880
 2652TIP3    H2 7921   3.085   3.123   5.845 -0.8895 -1.1659 -0.2734
 2653TIP3   OH2 7922   6.891   5.795   0.030  0.1631  0.5382  0.8155
 2653TIP3    H1 7923   6.971   5.800  -0.022 -0.8029 -0.5925 -0.8599
 2653TIP3    H2 7924   6.920   5.762   0.116  1.7426  2.1254  0.9541
 2654TIP3   OH2 7925   0.982   0.694   2.582  0.4112 -0.4232 -0.6672
 2654TIP3    H1 7926   0.933   0.733   2.510 -2.4984 -0.4764  1.1390
 2654TIP3    H2 7927   1.039   0.764   2.613  0.6312  0.0417 -2.0278
 2655TIP3   OH2 7928   3.257   5.963   3.683  0.0353  0.2995 -0.4866
 2655TIP3    H1 7929   3.331   6.017   3.657 -0.7720  1.1260 -1.1454
 2655TIP3    H2 7930   3.267   5.952   3.777  0.6261  0.9584 -0.4661
 2656TIP3   OH2 7931   5.808   2.294   4.744  0.2339 -0.2840 -0.7244
 2656TIP3    H1 7932   5.879   2.325   4.799 -1.0526  3.0902 -0.7161
 2656TIP3    H2 7933   5.841   2.302   4.654  0.5872 -0.8623 -0.6495
 2657TIP3   OH2 7934   4.204   6.468   4.525 -0.8267 -0.0251  0.2997
 2657TIP3    H1 7935   4.159   6.551   4.512  0.0102  0.3722 -0.1555
 2657TIP3    H2 7936   4.180   6.440   4.613 -2.6919 -0.2833 -0.2612
 2658TIP3   OH2 7937   5.405   3.178   3.199 -0.6005 -0.0195 -0.1770
 2658TIP3    H1 7938   5.461   3.170   3.277 -0.8463  1.1460  0.1387
 2658TIP3    H2 7939   5.404   3.271   3.180 -0.8693 -0.2502 -1.3569
 2659TIP3   OH2 7940   5.906   5.313   0.230  0.0551 -0.3316  0.9275
 2659TIP3    H1 7941   5.988   5.304   0.180 -0.2130 -1.2709  0.6535
 2659TIP3    H2 7942   5.897   5.408   0.242  0.1642 -0.0729 -0.7516
 2660TIP3   OH2 7943   5.165   1.729   4.718  0.2067  0.3828 -0.3550
 2660TIP3    H1 7944   5.144   1.765   4.805  2.7471 -0.4020  0.6694
 2660TIP3    H2 7945   5.097   1.664   4.703  0.6047 -0.6471  1.8488
 2661TIP3   OH2 7946   6.270   3.308   2.035  0.5645  0.3335 -0.1646
 2661TIP3    H1 7947   6.297   3.353   2.115  1.8844  1.7444 -1.3334
 2661TIP3    H2 7948   6.180   3.339   2.020  1.3774  2.5967 -0.8509
 2662TIP3   OH2 7949   4.280   3.886   0.697 -0.7525  0.1424 -0.3455
 2662TIP3    H1 7950   4.264   3.957   0.759 -1.2502 -0.1465 -0.1443
 2662TIP3    H2 7951   4.312   3.931   0.618  1.7195  0.3738  0.7083
 2663TIP3   OH2 7952   0.654   5.748   4.878  0.2773 -0.7127  0.2387
 2663TIP3    H1 7953   0.608   5.757   4.961 -0.7389  1.2952 -0.4743
 2663TIP3    H2 7954   0.586   5.759   4.811  1.3884 -0.1981 -0.8500
 2664TIP3   OH2 7955   0.149   1.749   3.674 -0.0005  0.3044  0.4353
 2664TIP3    H1 7956   0.156   1.840   3.644  0.8413  0.9375  2.3449
 2664TIP3    H2 7957   0.116   1.757   3.764  1.1205 -1.1955  1.0190
 2665TIP3   OH2 7958   5.485   0.884   4.512  0.1532  0.4298  0.3259
 2665TIP3    H1 7959   5.476   0.960   4.454  0.0981 -1.2270 -1.9419
 2665TIP3    H2 7960   5.556   0.833   4.474 -1.0779 -1.6409  0.6583
 2666TIP3   OH2 7961   1.266   5.874   5.744 -0.2266 -0.0627 -0.0351
 2666TIP3    H1 7962   1.355   5.886   5.778 -0.3707  0.7322  0.0761
 2666TIP3    H2 7963   1.218   5.833   5.816 -0.2694  0.6845  0.3771
 2667TIP3   OH2 7964   3.265   4.309   5.503  0.6111  0.0866  0.0017
 2667TIP3    H1 7965   3.330   4.239   5.495 -0.5853 -0.9884 -1.0308
 2667TIP3    H2 7966   3.248   4.336   5.413 -1.1158 -0.4434  0.1152
 2668TIP3   OH2 7967   3.226   0.489   0.429 -0.2730 -0.3866  0.1357
 2668TIP3    H1 7968   3.138   0.524   0.446  0.0701  0.3961  0.3511
 2668TIP3    H2 7969   3.231   0.411   0.484 -1.0313 -0.7566 -0.3009
 2669TIP3   OH2 7970   3.168   5.556   5.449  0.4675 -0.1708 -0.2871
 2669TIP3    H1 7971   3.078   5.580   5.468  0.3864  0.1925 -1.0753
 2669TIP3    H2 7972   3.197   5.506   5.525 -0.8862 -1.6228 -0.6844
 2670TIP3   OH2 7973   5.998   4.417   5.745  0.4105 -0.6371  0.6323
 2670TIP3    H1 7974   6.006   4.323   5.761 -0.2868 -0.9916 -0.8930
 2670TIP3    H2 7975   5.948   4.450   5.819 -2.3890 -2.1069 -0.4619
 2671TIP3   OH2 7976   2.292   3.799   3.487 -0.2199 -0.4789 -0.0240
 2671TIP3    H1 7977   2.332   3.718   3.456  1.1049  0.4252 -0.7826
 2671TIP3    H2 7978   2.233   3.771   3.557  1.6982 -1.9219  1.1437
 2672TIP3   OH2 7979   4.135   6.128   2.853 -0.0862  0.0912  0.2778
 2672TIP3    H1 7980   4.176   6.092   2.932  1.2737  3.4050  1.2608
 2672TIP3    H2 7981   4.062   6.180   2.886 -0.3996  0.3664 -0.8150
 2673TIP3   OH2 7982   4.546   0.808   2.746 -0.4596 -0.4418  0.3730
 2673TIP3    H1 7983   4.506   0.849   2.669 -0.2890 -0.6369  0.1769
 2673TIP3    H2 7984   4.618   0.757   2.710 -0.5772 -0.7896  0.6314
 2674TIP3   OH2 7985   4.263   1.676   1.990 -0.2421 -0.1915 -0.2291
 2674TIP3    H1 7986   4.273   1.770   1.998 -0.0333 -0.2666  0.4711
 2674TIP3    H2 7987   4.169   1.661   1.988 -0.3031 -0.0481  0.8552
 2675TIP3   OH2 7988   5.347   3.487   4.200 -0.6285  0.8464 -0.0327
 2675TIP3    H1 7989   5.296   3.511   4.277 -0.1432  1.8224  0.0054
 2675TIP3    H2 7990   5.360   3.570   4.153  1.7994  0.8475  0.5093
 2676TIP3   OH2 7991   1.629   2.009   1.562 -0.0256 -0.6736  0.4413
 2676TIP3    H1 7992   1.652   2.098   1.590 -1.0439 -1.0439  2.6729
 2676TIP3    H2 7993   1.708   1.957   1.580 -0.0691 -0.5687  0.9408
 2677TIP3   OH2 7994   1.397   5.182   0.928 -0.1262  0.1280  0.5560
 2677TIP3    H1 7995   1.330   5.124   0.892  1.0118 -1.0573  0.2252
 2677TIP3    H2 7996   1.351   5.261   0.953 -1.1836  0.6104 -2.5410
 2678TIP3   OH2 7997   3.849   2.042   4.592  0.0236  0.1913  0.0998
 2678TIP3    H1 7998   3.874   1.959   4.633  0.4240  0.0346 -0.4585
 2678TIP3    H2 7999   3.812   2.093   4.664 -1.0598 -0.8019  0.2800
 2679TIP3   OH2 8000   3.096   5.688   2.208 -0.2673  0.1779 -0.4082
 2679TIP3    H1 8001   3.171   5.630   2.225  0.0379  1.0345  1.4450
 2679TIP3    H2 8002   3.133   5.760   2.157  0.1217  0.4353  0.2255
 2680TIP3   OH2 8003   0.573   2.719   4.541  0.1768 -0.7791  0.2508
 2680TIP3    H1 8004   0.519   2.707   4.463  0.6828 -0.2251 -0.1944
 2680TIP3    H2 8005   0.511   2.748   4.609 -0.2406 -1.1272  0.0229
 2681TIP3   OH2 8006   3.688   5.112   3.231  0.0959  0.3159  0.3874
 2681TIP3    H1 8007   3.676   5.196   3.275 -0.4288 -0.9559  2.8887
 2681TIP3    H2 8008   3.741   5.132   3.154  1.3709  2.6916  1.7689
 2682TIP3   OH2 8009   4.482   3.924   4.494  0.3807  0.1814  0.0731
 2682TIP3    H1 8010   4.533   3.850   4.461 -0.7702 -0.5093 -0.1741
 2682TIP3    H2 8011   4.479   3.985   4.420 -2.2508 -1.3920 -1.2386
 2683TIP3   OH2 8012   5.285   0.434   1.231 -0.1953  0.4246 -0.1198
 2683TIP3    H1 8013   5.319   0.519   1.200  0.1914  0.1826 -0.3665
 2683TIP3    H2 8014   5.363   0.383   1.249 -0.4230  0.3861  0.7881
 2684TIP3   OH2 8015   6.749   4.681   3.680  0.0325 -0.2610  0.1962
 2684TIP3    H1 8016   6.840   4.671   3.710 -0.1178 -1.8404  0.2187
 2684TIP3    H2 8017   6.730   4.774   3.690  1.2762 -0.1023  1.2838
 2685TIP3   OH2 8018   6.277   5.391   3.494 -0.2537 -0.0446  0.4633
 2685TIP3    H1 8019   6.255   5.351   3.410 -0.9610 -0.8570  1.0287
 2685TIP3    H2 8020   6.312   5.477   3.470  0.1873 -0.5233 -0.6971
 2686TIP3   OH2 8021   3.403   0.621   2.924  0.7735  0.4866  0.5040
 2686TIP3    H1 8022   3.439   0.559   2.861  2.6584  1.7833  0.2163
 2686TIP3    H2 8023   3.441   0.595   3.008  0.8912  0.7172  0.5244
 2687TIP3   OH2 8024   5.418   1.978   1.392  0.7133  0.4403 -0.5213
 2687TIP3    H1 8025   5.378   1.972   1.479  1.0807  1.5545 -0.2580
 2687TIP3    H2 8026   5.345   1.989   1.332  0.4751 -0.0791 -0.3387
 2688TIP3   OH2 8027   2.883   2.489   5.258  0.4745 -0.1671 -0.3656
 2688TIP3    H1 8028   2.880   2.395   5.279 -1.0334 -0.4109 -1.4611
 2688TIP3    H2 8029   2.791   2.513   5.244  0.9527  1.1251 -1.4930
 2689TIP3   OH2 8030   5.064   2.785   2.771 -0.1918  0.1470  0.0698
 2689TIP3    H1 8031   4.973   2.757   2.765 -0.1907  0.3983 -2.8798
 2689TIP3    H2 8032   5.114   2.711   2.738  0.4331  0.8997 -0.7166
 2690TIP3   OH2 8033   3.524   6.640   2.982 -0.0199  0.1600 -0.1848
 2690TIP3    H1 8034   3.567   6.725   2.972  2.0969 -0.9504 -1.4080
 2690TIP3    H2 8035   3.597   6.578   2.990 -1.4467 -1.6955 -0.8921
 2691TIP3   OH2 8036   1.151   1.550   2.340  0.3073 -0.0325  0.1135
 2691TIP3    H1 8037   1.212   1.521   2.408  0.4422  0.5024  0.2287
 2691TIP3    H2 8038   1.098   1.617   2.383 -0.6909 -0.8346  0.1528
 2692TIP3   OH2 8039   5.812   3.556   3.399  0.0054  0.4173 -0.8171
 2692TIP3    H1 8040   5.816   3.646   3.433  1.5901  0.2454 -0.4597
 2692TIP3    H2 8041   5.851   3.562   3.312  0.3033  0.0541 -0.7119
 2693TIP3   OH2 8042   2.926   4.538   3.419 -0.1368 -0.3965 -0.3542
 2693TIP3    H1 8043   2.894   4.608   3.476 -1.2693 -1.4220  0.3432
 2693TIP3    H2 8044   2.868   4.540   3.343  0.0184 -0.3801 -0.4720
 2694TIP3   OH2 8045   2.512   2.185   1.800  0.4758 -0.3149 -0.2227
 2694TIP3    H1 8046   2.466   2.121   1.854  0.1298  0.6401  0.6453
 2694TIP3    H2 8047   2.604   2.175   1.825  0.2365  0.6456  1.1534
 2695TIP3   OH2 8048   6.613   5.273   3.403 -0.2981  0.3740 -0.3879
 2695TIP3    H1 8049   6.685   5.334   3.419 -0.8799  1.2726 -1.0663
 2695TIP3    H2 8050   6.563   5.273   3.485  0.5037 -0.3243  0.1166
 2696TIP3   OH2 8051   1.814   3.135   1.085 -0.8263  0.2559  0.2119
 2696TIP3    H1 8052   1.788   3.132   1.177 -1.9699 -0.0797 -0.1009
 2696TIP3    H2 8053   1.864   3.055   1.072 -0.8407  0.1991  0.4941
 2697TIP3   OH2 8054   4.835   0.780   4.081  0.0600  0.4151 -0.1001
 2697TIP3    H1 8055   4.753   0.753   4.041 -0.2758  1.4915 -0.1629
 2697TIP3    H2 8056   4.815   0.789   4.174 -0.5752  3.0216 -0.4218
 2698TIP3   OH2 8057   2.235   6.046   3.973 -0.2014 -0.2098  0.0718
 2698TIP3    H1 8058   2.276   6.131   3.957  0.3030 -0.9192 -3.0056
 2698TIP3    H2 8059   2.244   6.033   4.068  0.0033  2.9512  0.6130
 2699TIP3   OH2 8060   3.996   0.275   0.160 -0.9975 -0.1378  0.2360
 2699TIP3    H1 8061   4.005   0.370   0.158  0.1997 -0.2344 -0.2587
 2699TIP3    H2 8062   4.066   0.246   0.218 -0.7250 -0.7555 -0.3807
 2700TIP3   OH2 8063   4.536   5.397   5.590  0.3758  0.0001  0.0467
 2700TIP3    H1 8064   4.520   5.459   5.662 -1.3317  0.0083 -0.3016
 2700TIP3    H2 8065   4.574   5.321   5.633 -1.8354 -0.5328  1.2577
 2701TIP3   OH2 8066   0.356   6.803   4.853 -0.2710 -0.0023  0.3047
 2701TIP3    H1 8067   0.283   6.814   4.914  0.6743  1.6808  1.2096
 2701TIP3    H2 8068   0.378   6.710   4.858 -0.6987 -0.0485  1.9939
 2702TIP3   OH2 8069   3.197   4.786   0.151  0.0602  0.2433  0.3435
 2702TIP3    H1 8070   3.120   4.784   0.207 -0.6568  0.9694 -0.5654
 2702TIP3    H2 8071   3.248   4.710   0.176 -1.0228 -0.3220  0.8820
 2703TIP3   OH2 8072   5.439   6.696   3.133  0.0082  0.0947 -0.2007
 2703TIP3    H1 8073   5.377   6.630   3.164  0.3842  0.1592  0.6967
 2703TIP3    H2 8074   5.525   6.663   3.160  0.2665  0.5749 -0.4285
 2704TIP3   OH2 8075   2.871   4.256   1.598  0.3063 -0.1919 -0.1914
 2704TIP3    H1 8076   2.961   4.222   1.592 -0.1515 -1.7849  1.2079
 2704TIP3    H2 8077   2.861   4.280   1.690 -1.1660 -1.4618  0.0093
 2705TIP3   OH2 8078   4.536  -0.010   1.046  0.2273  0.2532 -0.2785
 2705TIP3    H1 8079   4.445  -0.029   1.069  0.6093 -1.0058  0.2392
 2705TIP3    H2 8080   4.566   0.049   1.115 -0.1747  0.6434 -0.4298
 2706TIP3   OH2 8081   2.975   2.102   1.381  0.0400 -0.2981  0.1411
 2706TIP3    H1 8082   2.899   2.157   1.394  0.2305  0.1228 -0.4896
 2706TIP3    H2 8083   2.942   2.012   1.386 -0.0555 -0.1798  2.5247
 2707TIP3   OH2 8084   5.609   0.207   0.600 -0.0123  0.2008 -0.2064
 2707TIP3    H1 8085   5.532   0.245   0.556  0.5892  0.8534 -0.7148
 2707TIP3    H2 8086   5.655   0.282   0.638  0.3919 -0.1831  0.0698
 2708TIP3   OH2 8087   6.814   4.568   1.087  0.0593  0.2976  0.7807
 2708TIP3    H1 8088   6.823   4.507   1.161 -0.2531 -2.7539 -1.4908
 2708TIP3    H2 8089   6.893   4.553   1.035  0.2804  2.4164  0.4249
 2709TIP3   OH2 8090   0.807   1.161   0.107 -0.4262 -0.4688  0.3728
 2709TIP3    H1 8091   0.788   1.070   0.131  1.2890 -1.2820 -1.1624
 2709TIP3    H2 8092   0.771   1.171   0.019  0.2481  0.0359  0.1477
 2710TIP3   OH2 8093   3.292   4.457   4.254 -0.1453  0.9424  1.4542
 2710TIP3    H1 8094   3.214   4.498   4.215  0.5885  1.8059  0.8642
 2710TIP3    H2 8095   3.259   4.377   4.294 -1.1638  0.7648  0.3002
 2711TIP3   OH2 8096   2.799   3.168   5.271  0.0868 -0.5215  0.1882
 2711TIP3    H1 8097   2.797   3.234   5.341  0.8862  0.4262 -0.6470
 2711TIP3    H2 8098   2.743   3.205   5.203 -0.2817 -1.2080  0.1107
 2712TIP3   OH2 8099   4.855   0.238   3.555 -0.0824 -0.2293  0.2276
 2712TIP3    H1 8100   4.761   0.227   3.574 -0.1617  0.1609  0.0739
 2712TIP3    H2 8101   4.874   0.172   3.489 -1.1778  2.1220 -2.6961
 2713TIP3   OH2 8102   6.223   3.639   1.841  0.5975  0.3080  0.0335
 2713TIP3    H1 8103   6.226   3.714   1.782  0.6999  0.5747  0.3769
 2713TIP3    H2 8104   6.310   3.600   1.836  0.7884  0.6758  0.4527
 2714TIP3   OH2 8105   2.961   0.372   4.098 -0.2920  1.0483 -0.2352
 2714TIP3    H1 8106   2.989   0.413   4.180 -0.6195  0.4894  0.1661
 2714TIP3    H2 8107   2.926   0.287   4.125 -0.1013  0.7240 -0.9935
 2715TIP3   OH2 8108   1.748   6.137   4.529 -0.2904  0.1772 -0.4599
 2715TIP3    H1 8109   1.818   6.195   4.557 -0.3870 -0.2361  0.6845
 2715TIP3    H2 8110   1.792   6.068   4.479  0.2062 -0.3269  0.6269
 2716TIP3   OH2 8111   1.962   2.609   5.530 -0.6448 -0.6043 -0.4589
 2716TIP3    H1 8112   1.948   2.696   5.567  0.3831 -0.5112 -0.2422
 2716TIP3    H2 8113   2.058   2.600   5.526 -0.7344 -1.6630 -0.6101
 2717TIP3   OH2 8114   2.351   1.729   2.633  0.1121 -0.2752  0.3868
 2717TIP3    H1 8115   2.371   1.798   2.569 -1.1625 -1.7156 -1.7148
 2717TIP3    H2 8116   2.264   1.752   2.666 -0.6985 -1.2224 -0.9585
 2718TIP3   OH2 8117   3.459   1.019   2.684  0.0967  0.0182  0.0311
 2718TIP3    H1 8118   3.553   1.011   2.669 -0.0702  0.0005 -1.1585
 2718TIP3    H2 8119   3.446   0.992   2.775  1.2934  0.5137  0.3650
 2719TIP3   OH2 8120   2.058   4.375   4.414 -0.1178 -0.4390  0.2302
 2719TIP3    H1 8121   2.126   4.426   4.458 -0.2692  0.2533 -0.3302
 2719TIP3    H2 8122   2.067   4.287   4.451 -0.2799  0.1297  1.6981
 2720TIP3   OH2 8123   7.149   3.551   2.773 -0.1163 -0.2924  0.3767
 2720TIP3    H1 8124   7.075   3.604   2.743  0.1970  0.6367  1.1997
 2720TIP3    H2 8125   7.191   3.521   2.692 -1.3719 -0.8318 -0.1044
 2721TIP3   OH2 8126   5.092   0.087   3.212 -0.4418 -0.6241 -0.1329
 2721TIP3    H1 8127   5.160   0.071   3.146 -1.1203 -1.4972 -0.6596
 2721TIP3    H2 8128   5.139   0.092   3.295  0.2099 -1.8764 -0.4018
 2722TIP3   OH2 8129   4.365   2.738   3.608  0.0396  0.4368  0.1372
 2722TIP3    H1 8130   4.294   2.798   3.586 -0.2118  0.0036 -0.2539
 2722TIP3    H2 8131   4.322   2.654   3.623  0.6162 -0.3685 -2.1543
 2723TIP3   OH2 8132   3.971   4.572   0.208  0.3848  0.3918  0.6528
 2723TIP3    H1 8133   3.876   4.575   0.200  0.2980  1.1151  1.6470
 2723TIP3    H2 8134   3.999   4.507   0.144 -0.6880  0.8897 -0.3620
 2724TIP3   OH2 8135   2.442   0.077   3.172 -0.0930 -0.3831  0.0011
 2724TIP3    H1 8136   2.417   0.169   3.170  1.2586  0.0173 -1.4623
 2724TIP3    H2 8137   2.360   0.029   3.183 -0.8849  0.9728  0.1765
 2725TIP3   OH2 8138   6.712   6.329   1.579  0.4524  0.0491  0.5904
 2725TIP3    H1 8139   6.690   6.392   1.647  0.9355 -1.6734  2.4279
 2725TIP3    H2 8140   6.787   6.281   1.614 -0.0697 -1.7257 -0.6114
 2726TIP3   OH2 8141   5.539   4.160   0.982  0.0202  0.1450 -0.0877
 2726TIP3    H1 8142   5.622   4.114   0.994  0.5368  0.5236 -1.9039
 2726TIP3    H2 8143   5.516   4.145   0.891 -0.8489  1.7736 -0.1780
 2727TIP3   OH2 8144   4.229   4.164   4.115  0.1355 -0.0820 -0.2173
 2727TIP3    H1 8145   4.203   4.233   4.054  0.3727  1.4818  1.3689
 2727TIP3    H2 8146   4.219   4.083   4.065  0.0175  1.0919 -2.2104
 2728TIP3   OH2 8147   4.910   3.543   3.330 -0.5004 -0.4133 -0.0962
 2728TIP3    H1 8148   4.967   3.466   3.332 -0.0395 -0.0600  0.8608
 2728TIP3    H2 8149   4.970   3.618   3.331 -0.9640 -0.0404 -0.0122
 2729TIP3   OH2 8150   5.136   1.004   4.453 -0.2535  0.2327 -0.0130
 2729TIP3    H1 8151   5.230   1.015   4.437  0.3696 -2.1784  1.3767
 2729TIP3    H2 8152   5.119   0.913   4.427 -2.2014  0.6163 -0.1684
 2730TIP3   OH2 8153   1.253   4.156   1.788  0.1276  0.1482 -0.4821
 2730TIP3    H1 8154   1.205   4.238   1.801  0.2634  0.2644 -0.7141
 2730TIP3    H2 8155   1.288   4.135   1.875  0.9100  0.8529 -0.6085
 2731TIP3   OH2 8156   2.009   0.851   3.624 -0.2766  0.2018 -0.1053
 2731TIP3    H1 8157   2.043   0.897   3.547  0.5407  0.5475  0.4483
 2731TIP3    H2 8158   2.074   0.866   3.692 -1.7171  1.2265  1.1285
 2732TIP3   OH2 8159   3.604   4.682   2.945 -0.7163  0.2558 -0.1682
 2732TIP3    H1 8160   3.594   4.741   3.020 -0.8622 -0.5439  0.4510
 2732TIP3    H2 8161   3.615   4.741   2.870  1.3261  1.0938  0.7151
 2733TIP3   OH2 8162   4.625   1.258   0.974 -0.0629  0.0224  0.5454
 2733TIP3    H1 8163   4.572   1.336   0.959 -0.0716 -0.0854 -0.0074
 2733TIP3    H2 8164   4.713   1.291   0.992 -0.0766  0.1594  0.3537
 2734TIP3   OH2 8165   7.170   6.597   1.907  0.5086  0.3825 -0.4257
 2734TIP3    H1 8166   7.160   6.690   1.926  1.3595  0.4976 -0.5082
 2734TIP3    H2 8167   7.083   6.568   1.880 -0.3718  0.6173  1.8708
 2735TIP3   OH2 8168   2.162   0.950   0.828  0.4129 -0.1670 -0.3375
 2735TIP3    H1 8169   2.244   0.979   0.787 -0.0248  1.0262 -0.4109
 2735TIP3    H2 8170   2.093   0.993   0.777 -0.5293 -3.9589 -2.6165
 2736TIP3   OH2 8171   1.930   3.579   1.521  0.3356  0.1154 -0.1583
 2736TIP3    H1 8172   1.921   3.631   1.441 -1.3192 -0.8304 -0.6164
 2736TIP3    H2 8173   1.876   3.624   1.586 -0.5708 -0.6464 -0.3715
 2737TIP3   OH2 8174   5.714   3.388   1.373 -0.0300  0.1001  0.1481
 2737TIP3    H1 8175   5.725   3.476   1.408 -1.6779 -0.0630  1.1913
 2737TIP3    H2 8176   5.635   3.393   1.320  0.5277 -0.4845 -0.7586
 2738TIP3   OH2 8177   1.458   2.584   4.133 -0.3993  0.5975 -0.7490
 2738TIP3    H1 8178   1.412   2.504   4.157 -1.1039  0.4665 -2.3854
 2738TIP3    H2 8179   1.541   2.581   4.181 -0.7105 -0.7707 -0.2769
 2739TIP3   OH2 8180   1.759   0.532   1.261  0.1231 -0.1878  0.0274
 2739TIP3    H1 8181   1.807   0.477   1.199 -2.2247 -1.4965 -0.7933
 2739TIP3    H2 8182   1.677   0.552   1.216 -2.1885 -2.0760  2.9562
 2740TIP3   OH2 8183   1.687   3.487   0.085 -0.1039 -0.3259 -0.2264
 2740TIP3    H1 8184   1.626   3.536   0.029 -1.2538 -1.9512 -0.4441
 2740TIP3    H2 8185   1.640   3.475   0.167  1.1050  0.9631  0.7102
 2741TIP3   OH2 8186   0.842   4.316   0.123  0.0480 -0.3946 -0.2967
 2741TIP3    H1 8187   0.936   4.306   0.110  0.0911 -1.3579  0.6578
 2741TIP3    H2 8188   0.819   4.394   0.072  1.2189 -0.5884 -1.1667
 2742TIP3   OH2 8189   3.850   2.566   3.668 -0.2473  0.1756  0.3119
 2742TIP3    H1 8190   3.774   2.508   3.677  0.7979 -1.2423  0.1718
 2742TIP3    H2 8191   3.884   2.576   3.757 -0.7478  1.0415  0.4147
 2743TIP3   OH2 8192   0.437   2.786   3.909 -0.3832  0.6158  0.1012
 2743TIP3    H1 8193   0.512   2.727   3.916 -0.5404  0.1390 -1.7288
 2743TIP3    H2 8194   0.457   2.858   3.969  2.7215  1.7372 -2.0522
 2744TIP3   OH2 8195   3.234   4.018   5.381 -0.3127  0.2709  0.1388
 2744TIP3    H1 8196   3.176   3.952   5.417 -1.1672  0.3404 -1.0324
 2744TIP3    H2 8197   3.175   4.086   5.346  0.4637  0.5225 -0.7470
 2745TIP3   OH2 8198   0.416   0.835   5.704  0.0601 -0.2437  0.2041
 2745TIP3    H1 8199   0.382   0.747   5.723 -1.0365 -0.0669 -0.8266
 2745TIP3    H2 8200   0.349   0.875   5.649  1.7227  0.3030 -1.5359
 2746TIP3   OH2 8201   6.515   5.134   5.657 -0.0976 -0.4344  0.2793
 2746TIP3    H1 8202   6.421   5.151   5.651 -0.2493 -1.3311  0.1238
 2746TIP3    H2 8203   6.522   5.048   5.697  0.6886  0.1995  1.6030
 2747TIP3   OH2 8204   1.685   5.137   4.605 -0.1154 -0.1249  0.5506
 2747TIP3    H1 8205   1.612   5.081   4.632 -1.1761 -0.2445 -2.2845
 2747TIP3    H2 8206   1.643   5.211   4.560  1.4753  0.5632  0.1462
 2748TIP3   OH2 8207   1.556   4.667   2.303  0.4627  0.4067 -0.6455
 2748TIP3    H1 8208   1.645   4.689   2.331  0.9768 -1.0333 -1.0806
 2748TIP3    H2 8209   1.555   4.572   2.297 -0.9646  0.4252 -1.1426
 2749TIP3   OH2 8210   5.180   0.707   5.340 -0.9785 -0.1905  0.1802
 2749TIP3    H1 8211   5.190   0.619   5.377  1.3810  1.3440  3.8586
 2749TIP3    H2 8212   5.115   0.749   5.397 -0.0189  1.1916  0.3150
 2750TIP3   OH2 8213   0.287   6.071   3.035 -0.5974 -0.2614  0.2546
 2750TIP3    H1 8214   0.322   6.105   3.118 -0.4009  0.0035  0.0645
 2750TIP3    H2 8215   0.361   6.075   2.975 -0.5103 -1.2471  0.2883
 2751TIP3   OH2 8216   7.043   1.749   0.870  0.0227  0.2741 -0.1075
 2751TIP3    H1 8217   7.041   1.834   0.913 -1.9320 -0.0346  0.5046
 2751TIP3    H2 8218   7.123   1.751   0.816  0.0006  2.4897 -0.1453
 2752TIP3   OH2 8219   3.985   3.045   2.626 -0.4341  0.0089  0.3749
 2752TIP3    H1 8220   3.999   2.958   2.587 -1.8332  0.1845 -0.6056
 2752TIP3    H2 8221   3.896   3.069   2.599  0.5422  2.5116 -0.8674
 2753TIP3   OH2 8222   6.264   5.994   3.446 -0.2817 -0.4174  0.2406
 2753TIP3    H1 8223   6.331   5.931   3.419  1.1224  0.6871  1.0175
 2753TIP3    H2 8224   6.211   6.008   3.367  1.5856  0.0981 -0.9988
 2754TIP3   OH2 8225   4.778   4.787   4.962  0.3122 -0.0314 -0.5238
 2754TIP3    H1 8226   4.721   4.712   4.979  1.2435 -0.3302  1.5182
 2754TIP3    H2 8227   4.724   4.846   4.910 -2.0985 -0.0605  1.7130
 2755TIP3   OH2 8228   3.986   1.905   0.862 -0.1151 -0.5732  0.2067
 2755TIP3    H1 8229   4.055   1.839   0.857 -0.2139 -0.5898 -1.0960
 2755TIP3    H2 8230   4.024   1.983   0.822 -0.2665 -0.0464  1.0504
 2756TIP3   OH2 8231   2.353   2.130   0.547 -0.1581  1.1982 -0.8180
 2756TIP3    H1 8232   2.415   2.186   0.500  2.5194  0.9607  2.0631
 2756TIP3    H2 8233   2.286   2.191   0.579 -0.8116  1.6718 -2.9501
 2757TIP3   OH2 8234   2.642   6.472   0.635  0.2577  0.0585  0.5513
 2757TIP3    H1 8235   2.591   6.439   0.562  0.5221 -0.0222  0.4023
 2757TIP3    H2 8236   2.730   6.438   0.621 -0.1691 -1.9126  2.1296
 2758TIP3   OH2 8237   5.787   0.891   2.605  0.6928  0.4008 -0.5664
 2758TIP3    H1 8238   5.794   0.808   2.652 -0.7821  0.1106 -0.8249
 2758TIP3    H2 8239   5.749   0.952   2.669 -1.7865 -0.1204 -1.4645
 2759TIP3   OH2 8240   3.386   5.696   2.696 -0.9922 -0.7870 -0.2838
 2759TIP3    H1 8241   3.391   5.691   2.791  0.9125 -1.1222 -0.3687
 2759TIP3    H2 8242   3.477   5.704   2.667 -1.6113  0.8136 -2.0113
 2760TIP3   OH2 8243   0.880   6.405   0.608 -0.4657  0.4895 -0.1296
 2760TIP3    H1 8244   0.920   6.334   0.557 -1.5354 -0.5772  0.4437
 2760TIP3    H2 8245   0.836   6.459   0.543 -1.3376 -0.5394 -0.4426
 2761TIP3   OH2 8246   6.520   1.839   3.659 -0.2500  0.2176  0.0375
 2761TIP3    H1 8247   6.454   1.904   3.635  0.1423  1.6566  2.5051
 2761TIP3    H2 8248   6.470   1.765   3.694 -0.6673 -0.5979 -2.1543
 2762TIP3   OH2 8249   4.946   6.600   4.218 -0.3976 -0.0795  0.3872
 2762TIP3    H1 8250   5.032   6.607   4.174 -1.2731  0.3416 -1.3563
 2762TIP3    H2 8251   4.966   6.559   4.302  1.4159 -0.7448 -0.3005
 2763TIP3   OH2 8252   5.082   2.030   4.808  0.6788  0.6115 -0.0612
 2763TIP3    H1 8253   5.123   2.007   4.891 -0.5442  1.1370  0.7329
 2763TIP3    H2 8254   5.077   2.126   4.810  0.1753  0.6007 -0.5089
 2764TIP3   OH2 8255   6.954   6.725   1.086 -0.1255  0.1840 -0.2692
 2764TIP3    H1 8256   6.944   6.778   1.165 -0.7342  0.4017 -0.4831
 2764TIP3    H2 8257   6.869   6.682   1.075  0.7169 -1.8406  0.5942
 2765TIP3   OH2 8258   0.236   0.015   0.229 -0.1126  0.4184 -0.4663
 2765TIP3    H1 8259   0.330   0.012   0.246 -0.4399  0.3994  1.5388
 2765TIP3    H2 8260   0.207   0.097   0.270 -0.9943  0.4095 -1.0428
 2766TIP3   OH2 8261   2.833   2.972   3.135 -0.0205  0.0596 -0.4090
 2766TIP3    H1 8262   2.794   3.060   3.129  0.7899  0.4713  0.1953
 2766TIP3    H2 8263   2.772   2.922   3.188  0.2997  0.7274  0.6033
 2767TIP3   OH2 8264   1.435   1.264   5.517  0.5255 -0.1342  0.1567
 2767TIP3    H1 8265   1.490   1.310   5.454  0.6492  1.9447  1.6672
 2767TIP3    H2 8266   1.463   1.297   5.602 -2.1982  0.0841  1.0629
 2768TIP3   OH2 8267   1.472   5.394   1.945  0.0536 -0.5111 -0.2298
 2768TIP3    H1 8268   1.410   5.388   2.018  1.9745  1.4113  1.7132
 2768TIP3    H2 8269   1.446   5.472   1.897  1.1311  0.5244  0.8203
 2769TIP3   OH2 8270   6.736   4.955   2.468  0.1135 -0.4585  0.0541
 2769TIP3    H1 8271   6.780   5.037   2.493  0.8026 -1.1322  1.1396
 2769TIP3    H2 8272   6.699   4.974   2.382  0.9166  0.7549 -0.0633
 2770TIP3   OH2 8273   4.490   6.749   4.704 -0.2557  0.1747  1.2949
 2770TIP3    H1 8274   4.490   6.653   4.706  2.0949  0.1160  1.6861
 2770TIP3    H2 8275   4.447   6.775   4.785  1.2781 -0.6505  2.4446
 2771TIP3   OH2 8276   5.023   3.244   1.329  0.3314  0.3389  0.5549
 2771TIP3    H1 8277   5.006   3.331   1.365  0.2023 -0.3280  2.2097
 2771TIP3    H2 8278   5.009   3.185   1.403 -0.2212 -1.1598 -0.6941
 2772TIP3   OH2 8279   2.165   0.110   2.327 -0.1164 -0.1755 -0.1945
 2772TIP3    H1 8280   2.223   0.174   2.286  0.7972 -0.7097  0.2365
 2772TIP3    H2 8281   2.223   0.050   2.374 -1.0709 -0.1486  1.0913
 2773TIP3   OH2 8282   4.060   2.172   4.925 -0.6280  0.3898 -0.1201
 2773TIP3    H1 8283   3.968   2.147   4.916 -0.0713 -0.9100 -2.9652
 2773TIP3    H2 8284   4.060   2.267   4.913 -1.8007  0.7786  2.3653
 2774TIP3   OH2 8285   7.134   5.832   1.560 -0.1081  0.2577  0.2735
 2774TIP3    H1 8286   7.182   5.911   1.585  0.7794 -0.2843  0.3368
 2774TIP3    H2 8287   7.150   5.822   1.466 -0.0796  0.0675  0.2974
 2775TIP3   OH2 8288   3.407   0.814   5.645 -0.2272 -0.6554 -0.3048
 2775TIP3    H1 8289   3.470   0.746   5.622 -0.1651 -0.6238 -0.2257
 2775TIP3    H2 8290   3.454   0.896   5.634  1.3683 -0.6585  4.3221
 2776TIP3   OH2 8291   0.161   2.458   5.408 -0.1788  0.0414 -0.5546
 2776TIP3    H1 8292   0.219   2.452   5.331  1.4906  0.7758  0.5685
 2776TIP3    H2 8293   0.221   2.471   5.481 -1.8441  3.0330  0.4451
 2777TIP3   OH2 8294   4.922   6.115   2.948 -0.4108  0.2394 -0.4995
 2777TIP3    H1 8295   4.890   6.201   2.976 -1.2158  0.4599 -2.0140
 2777TIP3    H2 8296   4.999   6.135   2.894 -0.6087  0.0186 -0.8649
 2778TIP3   OH2 8297   5.541   0.875   2.960  0.1269 -0.6816 -0.3922
 2778TIP3    H1 8298   5.572   0.936   3.027 -3.1136  0.3388  0.3610
 2778TIP3    H2 8299   5.560   0.788   2.996  3.5213 -0.2900 -0.8433
 2779TIP3   OH2 8300   5.054   5.265   5.036  0.1449  0.2218  0.3336
 2779TIP3    H1 8301   5.116   5.337   5.021  1.2941 -0.6995  0.5003
 2779TIP3    H2 8302   4.972   5.295   4.998  0.9511  1.0896 -0.7643
 2780TIP3   OH2 8303   5.608   4.433   1.030  0.0535 -0.1853  0.1084
 2780TIP3    H1 8304   5.584   4.498   0.963  1.2619 -1.3193 -1.5236
 2780TIP3    H2 8305   5.574   4.350   0.996  3.0022 -1.2509 -0.5878
 2781TIP3   OH2 8306   3.859   4.303   4.647  0.0796  0.4210 -0.0249
 2781TIP3    H1 8307   3.820   4.276   4.731 -0.8699  1.9978  0.0782
 2781TIP3    H2 8308   3.850   4.226   4.591  0.2732 -0.4960  1.1531
 2782TIP3   OH2 8309   4.351   2.730   5.394  0.5026  0.5139  0.0747
 2782TIP3    H1 8310   4.279   2.668   5.379  0.8381  0.0890  0.1911
 2782TIP3    H2 8311   4.368   2.724   5.488 -0.1956  1.6121  0.2855
 2783TIP3   OH2 8312   3.279   5.181   2.322  0.0472 -1.1061  0.3246
 2783TIP3    H1 8313   3.317   5.130   2.250 -0.9025 -1.3500 -0.0204
 2783TIP3    H2 8314   3.187   5.155   2.323 -0.2287 -0.1376  0.8013
 2784TIP3   OH2 8315   3.361   4.997   0.413 -0.0247 -0.6894 -0.0522
 2784TIP3    H1 8316   3.274   5.032   0.436  0.1779  0.8449 -1.4528
 2784TIP3    H2 8317   3.345   4.905   0.393 -1.3058 -0.4646 -0.1564
 2785TIP3   OH2 8318   4.862   3.728   2.128  0.0270 -0.7759  0.3791
 2785TIP3    H1 8319   4.861   3.809   2.180  0.5021 -1.2469  1.1502
 2785TIP3    H2 8320   4.859   3.758   2.037 -1.1512  0.0705  0.6596
 2786TIP3   OH2 8321   0.793   2.020   0.210 -0.4906  0.5889  0.1071
 2786TIP3    H1 8322   0.815   2.104   0.169  2.0954 -0.4860 -0.8714
 2786TIP3    H2 8323   0.744   1.973   0.142  1.3517 -0.1038 -0.7971
 2787TIP3   OH2 8324   7.119   4.651   4.056  0.3157 -0.3432 -0.8073
 2787TIP3    H1 8325   7.088   4.568   4.093  4.5669 -1.9815 -0.3891
 2787TIP3    H2 8326   7.149   4.701   4.131  0.3648  0.3844 -1.3006
 2788TIP3   OH2 8327   5.797   3.338   0.231  0.4518  0.0301 -0.5124
 2788TIP3    H1 8328   5.873   3.293   0.268 -0.1454 -0.6502 -0.0821
 2788TIP3    H2 8329   5.723   3.284   0.257 -0.3827  1.7234  0.7507
 2789TIP3   OH2 8330   4.284   6.137   4.457 -0.4883 -0.6829 -0.3849
 2789TIP3    H1 8331   4.218   6.158   4.523 -0.0724 -1.5389  0.3357
 2789TIP3    H2 8332   4.280   6.042   4.449  0.7185 -0.7651 -0.2489
 2790TIP3   OH2 8333   1.685   2.891   2.762  0.2222  0.0917  0.5937
 2790TIP3    H1 8334   1.640   2.848   2.834  0.6419  0.4629  1.0854
 2790TIP3    H2 8335   1.673   2.985   2.779  0.8105  0.1875  0.4923
 2791TIP3   OH2 8336   6.254   1.934   4.762  0.2225 -0.3024 -0.1829
 2791TIP3    H1 8337   6.320   1.914   4.695 -1.0208 -1.3768 -1.1418
 2791TIP3    H2 8338   6.274   1.872   4.832  1.2121  0.4769  0.2524
 2792TIP3   OH2 8339   4.695   2.622   0.365  0.2799 -0.2468 -0.0771
 2792TIP3    H1 8340   4.773   2.624   0.421  0.5415  0.8103 -0.4612
 2792TIP3    H2 8341   4.655   2.537   0.383 -0.7421  0.7867  3.2068
 2793TIP3   OH2 8342   2.335   0.227   0.110  0.4539 -0.1554 -0.3005
 2793TIP3    H1 8343   2.285   0.216   0.191 -2.4356 -0.4249 -1.9597
 2793TIP3    H2 8344   2.426   0.223   0.137 -0.3769  0.3020  2.9855
 2794TIP3   OH2 8345   0.472   4.238   4.313  0.5425 -0.2905 -0.6303
 2794TIP3    H1 8346   0.524   4.196   4.245  1.2073 -0.3181 -0.1230
 2794TIP3    H2 8347   0.426   4.165   4.356  1.2412 -0.4566 -0.1310
 2795TIP3   OH2 8348   4.446   0.183   2.646  0.7495 -0.2924 -0.1294
 2795TIP3    H1 8349   4.485   0.172   2.560 -2.4527 -1.9476 -1.5721
 2795TIP3    H2 8350   4.488   0.116   2.700  1.5193 -0.4775 -0.9414
 2796TIP3   OH2 8351   6.560   4.870   5.714 -0.1826 -0.2947  0.2801
 2796TIP3    H1 8352   6.549   4.775   5.702 -0.8009 -0.5227  2.3600
 2796TIP3    H2 8353   6.600   4.878   5.800  0.6763  1.3309 -0.2393
 2797TIP3   OH2 8354   4.868   3.729   1.555 -0.0849  1.1053  0.0040
 2797TIP3    H1 8355   4.901   3.814   1.524  2.0640  1.0982  2.0085
 2797TIP3    H2 8356   4.938   3.667   1.534 -1.1868 -0.0066 -0.5017
 2798TIP3   OH2 8357   3.050   2.400   2.525  0.8774 -0.4253  0.2380
 2798TIP3    H1 8358   3.087   2.316   2.499 -1.0928 -0.9535 -1.0397
 2798TIP3    H2 8359   3.051   2.398   2.621 -1.2723 -2.9669  0.3076
 2799TIP3   OH2 8360   1.854   4.247   4.584  0.9800 -0.9141 -0.2070
 2799TIP3    H1 8361   1.943   4.249   4.620  1.2195 -1.8858 -0.6947
 2799TIP3    H2 8362   1.837   4.154   4.569 -0.6340 -0.8700  1.1060
 2800TIP3   OH2 8363   5.927   1.081   1.427 -0.8855 -0.5295 -0.0611
 2800TIP3    H1 8364   5.876   1.001   1.437 -0.1654 -0.8787  0.9540
 2800TIP3    H2 8365   6.018   1.052   1.424 -0.7279  0.0330 -2.4880
 2801TIP3   OH2 8366   0.827   3.027   3.649 -0.5139 -0.0343  0.4212
 2801TIP3    H1 8367   0.821   3.049   3.742 -1.0289  2.6198 -0.1402
 2801TIP3    H2 8368   0.918   3.042   3.626 -0.2832 -1.1494  0.5796
 2802TIP3   OH2 8369   0.448   6.693   4.389  0.0007  0.2704  0.0510
 2802TIP3    H1 8370   0.513   6.673   4.457 -0.4085 -1.5400 -0.0147
 2802TIP3    H2 8371   0.374   6.731   4.437 -0.5653 -1.6242  0.8032
 2803TIP3   OH2 8372   3.116   1.688   4.922 -0.0473 -0.4910  0.4045
 2803TIP3    H1 8373   3.110   1.770   4.873 -2.9085 -1.3045 -0.8091
 2803TIP3    H2 8374   3.126   1.715   5.013 -2.3238  1.3000  0.2108
 2804TIP3   OH2 8375   6.510   1.533   5.815  0.7769 -0.2129  0.2500
 2804TIP3    H1 8376   6.426   1.539   5.860  0.2504 -2.0457 -0.4022
 2804TIP3    H2 8377   6.554   1.458   5.854  1.6497  0.0648 -0.1642
 2805TIP3   OH2 8378   2.391   0.394   4.550 -0.0288 -0.2322  0.3135
 2805TIP3    H1 8379   2.300   0.363   4.543  0.3969 -1.0832 -2.2574
 2805TIP3    H2 8380   2.417   0.368   4.638 -1.6871 -1.7024  0.4404
 2806TIP3   OH2 8381   2.073   1.697   5.775  0.0685  0.3224  0.2862
 2806TIP3    H1 8382   2.079   1.665   5.685  0.6623 -1.0456  0.7932
 2806TIP3    H2 8383   2.146   1.758   5.784 -0.2935  0.8560 -0.2962
 2807TIP3   OH2 8384   6.773   4.541   5.148 -0.8161 -0.5542 -0.0528
 2807TIP3    H1 8385   6.797   4.560   5.057 -1.1069  1.0368  0.1678
 2807TIP3    H2 8386   6.685   4.505   5.143 -1.1299  0.2260 -0.3729
 2808TIP3   OH2 8387   4.959   0.210   5.203 -0.5980 -0.2533  0.3750
 2808TIP3    H1 8388   4.949   0.123   5.165  0.0522 -0.7836  1.3892
 2808TIP3    H2 8389   5.053   0.225   5.205 -0.7394  1.0798 -1.0825
 2809TIP3   OH2 8390   2.002   3.364   2.845 -0.1353 -0.0746 -0.3492
 2809TIP3    H1 8391   1.950   3.349   2.766 -1.1269  1.4488 -0.0350
 2809TIP3    H2 8392   2.090   3.333   2.822 -0.6603 -0.6759 -1.6648
 2810TIP3   OH2 8393   4.795   3.238   0.422  0.0706  0.3267 -0.3945
 2810TIP3    H1 8394   4.823   3.201   0.506 -2.5245 -0.0699  0.3761
 2810TIP3    H2 8395   4.704   3.264   0.436 -0.4395  0.2624 -3.0939
 2811TIP3   OH2 8396   5.758   3.981   0.943 -0.2116 -0.2042  0.2953
 2811TIP3    H1 8397   5.795   3.900   0.909  0.7386 -0.0198  0.8361
 2811TIP3    H2 8398   5.824   4.048   0.924 -0.9850  0.4502 -0.1521
 2812TIP3   OH2 8399   3.448   0.213   3.603 -0.2448  0.4135  0.3314
 2812TIP3    H1 8400   3.383   0.254   3.659 -0.6306 -0.7927  0.7742
 2812TIP3    H2 8401   3.506   0.166   3.663  1.5165  2.0637  0.0226
 2813TIP3   OH2 8402   6.988   2.873   4.472  0.0796  0.0118 -0.0465
 2813TIP3    H1 8403   7.073   2.908   4.498  0.0435 -0.9035  1.3859
 2813TIP3    H2 8404   6.996   2.859   4.378  1.8508 -0.9283  0.2021
 2814TIP3   OH2 8405   5.834   2.591   0.052  0.3185  0.1863 -0.7167
 2814TIP3    H1 8406   5.882   2.508   0.055  1.3159  0.7635 -0.0981
 2814TIP3    H2 8407   5.744   2.566   0.030  0.3886 -1.1463  0.3454
 2815TIP3   OH2 8408   7.169   2.398   3.762 -0.1718  0.3826 -0.3587
 2815TIP3    H1 8409   7.078   2.412   3.736  0.2290  1.4240 -1.3048
 2815TIP3    H2 8410   7.211   2.483   3.746  0.9321 -0.0503  0.1825
 2816TIP3   OH2 8411   1.390   2.995   2.215 -0.4201  0.1818  0.2749
 2816TIP3    H1 8412   1.433   2.910   2.200  0.9178  1.1226 -1.5673
 2816TIP3    H2 8413   1.357   3.021   2.130  0.4161  2.1406  0.4992
 2817TIP3   OH2 8414   5.381   4.624   1.325 -0.0215  0.6042  0.9452
 2817TIP3    H1 8415   5.321   4.661   1.260  0.4997  0.5074  0.4016
 2817TIP3    H2 8416   5.468   4.651   1.295  0.2476  0.2842  1.4249
 2818TIP3   OH2 8417   1.895   0.151   3.567  0.0068  0.0633  0.1338
 2818TIP3    H1 8418   1.917   0.237   3.533  0.3381 -0.1346 -0.1658
 2818TIP3    H2 8419   1.905   0.092   3.492  1.8275 -0.5520  0.7854
 2819TIP3   OH2 8420   1.970   4.037   1.589  0.0714 -0.8711 -0.5594
 2819TIP3    H1 8421   1.911   4.001   1.655 -1.1856  1.5052 -0.2624
 2819TIP3    H2 8422   2.048   3.982   1.593 -0.7286 -1.9463  1.5694
 2820TIP3   OH2 8423   6.942   3.304   2.129 -0.1924 -0.2161 -0.0270
 2820TIP3    H1 8424   6.974   3.379   2.077 -1.6395  0.1536 -0.4452
 2820TIP3    H2 8425   6.847   3.318   2.134 -0.3058 -1.2800  1.1130
 2821TIP3   OH2 8426   6.780   6.537   4.109 -0.3558 -0.1089 -0.2033
 2821TIP3    H1 8427   6.836   6.612   4.088  0.0870 -0.3468  0.1089
 2821TIP3    H2 8428   6.735   6.563   4.190 -1.7984  0.6648 -1.1956
 2822TIP3   OH2 8429   3.612   5.060   2.875 -0.6111  0.1974 -0.5374
 2822TIP3    H1 8430   3.694   5.102   2.904 -1.3348  0.6342  1.0107
 2822TIP3    H2 8431   3.545   5.125   2.893 -1.3616 -0.3043 -1.4481
 2823TIP3   OH2 8432   6.850   1.932   2.077  0.4319 -0.0325  0.1645
 2823TIP3    H1 8433   6.803   1.996   2.131 -0.3244  0.9152 -1.5305
 2823TIP3    H2 8434   6.941   1.939   2.105  0.2809  1.4529  0.3825
 2824TIP3   OH2 8435   4.174   4.833   4.245  0.2075 -0.5406 -0.6589
 2824TIP3    H1 8436   4.094   4.860   4.291  0.0884  0.3451 -1.3526
 2824TIP3    H2 8437   4.169   4.878   4.160  2.0462  0.5379 -0.2352
 2825TIP3   OH2 8438   1.131   6.236   0.838  0.2750 -0.2571  0.1035
 2825TIP3    H1 8439   1.110   6.330   0.831  1.8086  0.1480  0.6079
 2825TIP3    H2 8440   1.224   6.234   0.860  0.2318 -1.9105  0.2244
 2826TIP3   OH2 8441   6.700   0.943   4.048  0.3567 -0.4583 -0.6081
 2826TIP3    H1 8442   6.795   0.935   4.034  0.2307 -1.8794 -0.7901
 2826TIP3    H2 8443   6.662   0.874   3.994 -0.7866  0.0443 -0.4678
 2827TIP3   OH2 8444   0.241   6.085   0.054  0.0638 -0.2158  0.0364
 2827TIP3    H1 8445   0.231   6.026   0.128  1.5011  0.2027  0.6092
 2827TIP3    H2 8446   0.154   6.123   0.041 -0.9198 -2.4547 -0.3940
 2828TIP3   OH2 8447   5.075   2.282   4.392 -0.4477  0.3570  0.0368
 2828TIP3    H1 8448   5.095   2.374   4.405  1.8127 -0.0361 -0.3359
 2828TIP3    H2 8449   5.040   2.277   4.303 -0.4447  0.8215  0.0107
 2829TIP3   OH2 8450   2.906   2.195   5.865 -0.3815  0.2797 -0.0396
 2829TIP3    H1 8451   2.839   2.166   5.927 -0.8962  1.1953 -0.1449
 2829TIP3    H2 8452   2.883   2.153   5.782 -0.6222  0.3159  0.0100
 2830TIP3   OH2 8453   6.870   4.729   5.729  0.2043  0.5546  0.1613
 2830TIP3    H1 8454   6.892   4.801   5.670  1.9717  0.9656  1.2490
 2830TIP3    H2 8455   6.925   4.656   5.700  0.4033  0.4793  0.7057
 2831TIP3   OH2 8456   4.707   6.177   2.745  0.1732  0.5816  0.0792
 2831TIP3    H1 8457   4.782   6.204   2.691  2.0170 -1.4221  1.4545
 2831TIP3    H2 8458   4.744   6.167   2.833 -1.7362 -0.4194  0.8116
 2832TIP3   OH2 8459   7.160   3.000   3.333  0.4748 -0.3448 -0.3248
 2832TIP3    H1 8460   7.136   2.922   3.283 -0.4164 -0.9187  0.9660
 2832TIP3    H2 8461   7.236   3.036   3.286  2.5466 -3.3690  0.4098
 2833TIP3   OH2 8462   6.950   0.057   3.891  0.2686 -0.0302 -0.1715
 2833TIP3    H1 8463   6.915   0.057   3.980 -1.3560 -0.7779 -0.7625
 2833TIP3    H2 8464   6.889   0.113   3.842  1.0087  0.1867 -0.8571
 2834TIP3   OH2 8465   3.804   4.337   0.617  0.5335  0.4773 -0.2377
 2834TIP3    H1 8466   3.772   4.323   0.528  1.0140 -0.3217 -0.2935
 2834TIP3    H2 8467   3.891   4.297   0.618  0.6108  0.6509  0.5352
 2835TIP3   OH2 8468   6.582   5.956   4.298  0.1466 -0.1667  0.3464
 2835TIP3    H1 8469   6.497   5.919   4.275 -0.1694  0.2588  0.8173
 2835TIP3    H2 8470   6.640   5.928   4.227  0.1718 -2.4399  1.1975
 2836TIP3   OH2 8471   6.616   2.632   5.767 -0.3944 -0.1602 -0.2136
 2836TIP3    H1 8472   6.616   2.690   5.844 -1.0417  1.2207 -1.2088
 2836TIP3    H2 8473   6.530   2.644   5.728  0.0452 -0.5656 -1.3606
 2837TIP3   OH2 8474   0.372   1.104   1.046 -0.3471 -0.0972 -0.3407
 2837TIP3    H1 8475   0.405   1.192   1.067  1.1601 -0.3025 -1.6753
 2837TIP3    H2 8476   0.447   1.058   1.008 -1.3676 -1.6548 -0.5679
 2838TIP3   OH2 8477   6.324   6.031   1.370  0.6264  0.2105  0.1807
 2838TIP3    H1 8478   6.260   6.098   1.344  2.6275  1.6300 -1.4605
 2838TIP3    H2 8479   6.282   5.984   1.441 -0.8073  3.4460  1.6873
 2839TIP3   OH2 8480   3.101   6.659   1.752 -0.3420 -0.7269  0.4631
 2839TIP3    H1 8481   3.174   6.720   1.740  0.1935 -0.9696  2.2304
 2839TIP3    H2 8482   3.122   6.612   1.832 -1.7220 -1.8623  0.1936
 2840TIP3   OH2 8483   0.408   3.585   4.467  0.9026  0.4993  0.0231
 2840TIP3    H1 8484   0.401   3.607   4.374  1.5693 -1.6973 -0.6127
 2840TIP3    H2 8485   0.319   3.558   4.492  0.8506  0.5305 -0.1285
 2841TIP3   OH2 8486   4.215   6.658   2.700 -0.0577 -0.0340 -0.3573
 2841TIP3    H1 8487   4.156   6.732   2.721 -1.2652 -1.0677  0.0474
 2841TIP3    H2 8488   4.188   6.589   2.760  2.7132 -0.0586  1.0167
 2842TIP3   OH2 8489   4.280   0.077   1.118 -0.4003 -0.3458 -0.0122
 2842TIP3    H1 8490   4.279   0.168   1.148  0.5320  0.6658 -2.7632
 2842TIP3    H2 8491   4.225   0.077   1.040 -0.9704 -2.3458  0.3376
 2843TIP3   OH2 8492   1.284   4.504   0.093  0.1515 -0.1022 -0.5599
 2843TIP3    H1 8493   1.233   4.563   0.037 -0.8649  0.5423  0.9622
 2843TIP3    H2 8494   1.353   4.560   0.130 -0.5708  0.0683  0.5752
 2844TIP3   OH2 8495   1.782   2.274   5.880  0.2747 -0.2896 -0.1045
 2844TIP3    H1 8496   1.746   2.254   5.794 -0.3169  1.1581 -0.2191
 2844TIP3    H2 8497   1.706   2.286   5.937  0.6231  0.0987  0.2939
 2845TIP3   OH2 8498   6.062   2.172   2.711  0.3297 -0.4289  0.7335
 2845TIP3    H1 8499   6.007   2.250   2.708  0.6768 -0.2124 -1.2903
 2845TIP3    H2 8500   6.086   2.163   2.803 -2.5273 -0.1660  1.5767
 2846TIP3   OH2 8501   1.220   6.210   0.308 -0.5058 -0.6454  0.0038
 2846TIP3    H1 8502   1.270   6.170   0.237 -0.0853 -1.6951  0.8618
 2846TIP3    H2 8503   1.285   6.260   0.357 -0.5367 -0.9490  0.3640
 2847TIP3   OH2 8504   0.816   0.397   1.669 -0.4977 -0.6844 -0.1661
 2847TIP3    H1 8505   0.844   0.458   1.601  0.0733 -0.4457  0.2745
 2847TIP3    H2 8506   0.725   0.422   1.687  0.1605  1.0576  1.0514
 2848TIP3   OH2 8507   4.011   6.714   4.527  0.5938  0.3517  0.2644
 2848TIP3    H1 8508   3.939   6.674   4.478 -0.5421 -0.3990  2.4249
 2848TIP3    H2 8509   4.054   6.772   4.464 -3.8052  3.3661 -0.3791
 2849TIP3   OH2 8510   5.787   1.415   2.694  0.3107  0.2903 -0.4099
 2849TIP3    H1 8511   5.800   1.353   2.622  0.5262  1.0576 -1.0454
 2849TIP3    H2 8512   5.694   1.411   2.713  0.4028 -0.5749 -0.1257
 2850TIP3   OH2 8513   1.865   1.074   2.782  0.0516 -0.0558 -0.4675
 2850TIP3    H1 8514   1.790   1.015   2.779 -0.2254  0.2184  0.7102
 2850TIP3    H2 8515   1.850   1.128   2.860  0.8457  0.8345 -0.9154
 2851TIP3   OH2 8516   1.926   5.146   0.728 -0.6219 -0.2006 -0.4443
 2851TIP3    H1 8517   1.999   5.139   0.790  0.2552  0.1556 -1.4134
 2851TIP3    H2 8518   1.852   5.175   0.782  0.5184  1.7507  0.1725
 2852TIP3   OH2 8519   4.761   3.535   3.880 -0.3140  0.0937 -0.4881
 2852TIP3    H1 8520   4.801   3.457   3.841  0.3981  1.4033 -2.5125
 2852TIP3    H2 8521   4.814   3.553   3.957 -0.7969 -1.6818  0.3079
 2853TIP3   OH2 8522   1.259   1.815   3.745  0.0473  0.2572  0.2159
 2853TIP3    H1 8523   1.240   1.855   3.661  1.1922  0.5108  0.0574
 2853TIP3    H2 8524   1.277   1.723   3.724 -0.1175  0.2213  0.2374
 2854TIP3   OH2 8525   0.361   2.539   2.925 -0.0464 -0.2607 -0.2761
 2854TIP3    H1 8526   0.361   2.631   2.899 -1.6594 -1.0017 -3.2713
 2854TIP3    H2 8527   0.278   2.504   2.894  0.6252 -2.8220  0.5207
 2855TIP3   OH2 8528   4.875   2.707   0.069  0.3977 -0.7324  0.0952
 2855TIP3    H1 8529   4.871   2.800   0.047  0.9847 -0.7549 -0.1238
 2855TIP3    H2 8530   4.855   2.704   0.163  2.0102 -0.2035  0.4870
 2856TIP3   OH2 8531   4.802   2.022   2.875  0.5421 -0.1258  0.0104
 2856TIP3    H1 8532   4.720   1.975   2.886 -0.0127  0.6476 -0.6809
 2856TIP3    H2 8533   4.839   1.987   2.794  1.3390 -1.0832  0.7594
 2857TIP3   OH2 8534   5.501   2.445   1.253  0.0774 -0.2061 -0.0071
 2857TIP3    H1 8535   5.519   2.457   1.159 -0.5140  0.9026 -0.0065
 2857TIP3    H2 8536   5.533   2.358   1.273 -0.6075 -0.8260 -1.4530
 2858TIP3   OH2 8537   1.887   0.617   3.527  0.1902 -0.1054  0.2150
 2858TIP3    H1 8538   1.831   0.603   3.603 -2.8451  0.8901 -1.6496
 2858TIP3    H2 8539   1.920   0.707   3.538  0.2986 -0.1907  0.6260
 2859TIP3   OH2 8540   5.171   4.399   4.300  0.2425  0.3963  0.1703
 2859TIP3    H1 8541   5.149   4.377   4.210 -0.6823 -0.9104  0.6855
 2859TIP3    H2 8542   5.248   4.345   4.320 -0.4056 -0.4132  0.5797
 2860TIP3   OH2 8543   3.417   5.433   4.948 -0.2044 -0.0553 -0.5330
 2860TIP3    H1 8544   3.373   5.508   4.988  0.7197 -0.1999  0.8167
 2860TIP3    H2 8545   3.398   5.359   5.006  0.9881 -0.3242 -0.4521
 2861TIP3   OH2 8546   6.694   4.131   0.544  0.0814 -0.3662  0.1359
 2861TIP3    H1 8547   6.601   4.139   0.566 -0.0932 -0.3153 -0.5990
 2861TIP3    H2 8548   6.737   4.202   0.594 -0.7324  1.8534 -2.1030
 2862TIP3   OH2 8549   1.685   2.965   3.753  0.3161 -0.7542 -0.1302
 2862TIP3    H1 8550   1.609   2.954   3.810  0.7546 -1.3649  0.3628
 2862TIP3    H2 8551   1.757   2.925   3.802  1.2454  0.9806  0.0057
 2863TIP3   OH2 8552   4.204   3.478   5.461  0.2224  0.5729 -0.4699
 2863TIP3    H1 8553   4.199   3.440   5.373 -0.4914  1.1283 -0.6874
 2863TIP3    H2 8554   4.263   3.553   5.451  0.2176  0.5783 -0.4588
 2864TIP3   OH2 8555   4.043   0.985   3.765  0.0159 -0.0615  0.3536
 2864TIP3    H1 8556   4.095   0.980   3.685 -1.6229  1.6195 -0.8890
 2864TIP3    H2 8557   4.018   0.894   3.782  0.9390 -0.5313 -0.6496
 2865TIP3   OH2 8558   0.968   3.935   0.308  0.0183  0.6313 -0.5503
 2865TIP3    H1 8559   0.901   3.970   0.367  1.0559  0.0927  1.0203
 2865TIP3    H2 8560   0.926   3.861   0.265  0.3501 -1.7163  2.7020
 2866TIP3   OH2 8561   0.217   3.441   4.023 -0.4425 -0.0608 -0.1991
 2866TIP3    H1 8562   0.219   3.345   4.021  1.5743 -0.0519 -0.5070
 2866TIP3    H2 8563   0.297   3.468   3.977 -1.9284  1.8226 -1.8407
 2867TIP3   OH2 8564   0.814   0.207   0.102 -0.0430  0.4563 -0.1109
 2867TIP3    H1 8565   0.902   0.212   0.140 -0.1408  0.6880  0.0838
 2867TIP3    H2 8566   0.817   0.266   0.027 -0.5935  1.9625  1.0066
 2868TIP3   OH2 8567   1.387   5.160   4.081 -0.1687 -0.1747  0.4805
 2868TIP3    H1 8568   1.461   5.100   4.070  0.2073  0.1674  1.0926
 2868TIP3    H2 8569   1.364   5.186   3.992 -0.2580 -1.1293  0.2183
 2869TIP3   OH2 8570   2.234   4.898   1.111 -0.1821  0.3478 -0.5153
 2869TIP3    H1 8571   2.299   4.832   1.089 -0.9627 -0.7688  0.4183
 2869TIP3    H2 8572   2.165   4.887   1.045 -0.4048  0.0778 -0.2423
 2870TIP3   OH2 8573   4.506   5.386   0.350 -0.2226  0.4585 -0.5083
 2870TIP3    H1 8574   4.596   5.404   0.322  0.8466 -1.9896  1.0206
 2870TIP3    H2 8575   4.454   5.455   0.308  1.8288 -0.0535 -4.3512
 2871TIP3   OH2 8576   4.510   2.763   0.245  0.0918 -0.0707 -0.3412
 2871TIP3    H1 8577   4.575   2.700   0.278 -0.0849  0.6329  1.4426
 2871TIP3    H2 8578   4.427   2.716   0.249 -0.2862  0.6556  2.4446
 2872TIP3   OH2 8579   2.110   3.379   5.333 -0.1354 -0.3831 -0.2925
 2872TIP3    H1 8580   2.087   3.450   5.393 -0.0388  0.6571 -1.4526
 2872TIP3    H2 8581   2.032   3.323   5.330 -0.4502  0.0292  0.1234
 2873TIP3   OH2 8582   4.074   3.989   2.843  0.3019 -0.6173 -0.2556
 2873TIP3    H1 8583   4.013   4.045   2.794  0.9834  0.4311  0.0435
 2873TIP3    H2 8584   4.099   3.921   2.781 -0.1773 -0.3108 -0.8051
 2874TIP3   OH2 8585   1.818   4.325   4.260 -0.0274 -0.4696 -0.2008
 2874TIP3    H1 8586   1.870   4.299   4.337  1.0665 -0.5853 -0.9488
 2874TIP3    H2 8587   1.797   4.417   4.276 -3.2772 -1.4574  2.1118
 2875TIP3   OH2 8588   0.353   0.751   4.842 -0.3453 -0.3488  0.2470
 2875TIP3    H1 8589   0.430   0.707   4.879 -0.0769  0.3455  0.5322
 2875TIP3    H2 8590   0.359   0.841   4.873  0.5172  0.6100 -2.4068
 2876TIP3   OH2 8591   2.673   3.768   2.864  0.0501 -0.0333 -0.6619
 2876TIP3    H1 8592   2.704   3.856   2.844  2.7655 -1.4041 -3.0557
 2876TIP3    H2 8593   2.727   3.739   2.937 -0.2474 -0.0559 -0.4460
 2877TIP3   OH2 8594   3.389   6.591   5.242 -0.0424  0.1843 -0.2938
 2877TIP3    H1 8595   3.329   6.574   5.315  0.8642 -0.1014  0.3975
 2877TIP3    H2 8596   3.380   6.514   5.186  0.2208 -0.2014  0.1861
 2878TIP3   OH2 8597   1.489   1.852   5.622 -0.1141 -0.2991 -0.2199
 2878TIP3    H1 8598   1.422   1.819   5.562  0.7877 -1.2733 -0.7302
 2878TIP3    H2 8599   1.474   1.946   5.626 -1.4896 -0.4919 -0.3403
 2879TIP3   OH2 8600   6.342   0.416   1.734  0.1324 -0.2675 -0.7648
 2879TIP3    H1 8601   6.417   0.380   1.686  0.7392 -0.0972  0.0509
 2879TIP3    H2 8602   6.284   0.450   1.665  1.2330  0.4349 -1.3666
 2880TIP3   OH2 8603   3.856   5.272   4.385  0.2452  0.2763 -0.4721
 2880TIP3    H1 8604   3.762   5.257   4.379  0.2564 -0.0204  0.0488
 2880TIP3    H2 8605   3.875   5.335   4.315 -0.2065 -0.2636 -1.0945
 2881TIP3   OH2 8606   1.155   2.893   4.592  0.5272 -0.0030 -0.2413
 2881TIP3    H1 8607   1.167   2.840   4.670 -0.7759 -0.9653 -0.6629
 2881TIP3    H2 8608   1.095   2.843   4.537  1.0836  0.8396 -1.6908
 2882TIP3   OH2 8609   2.554   2.717   2.014 -0.4689  0.2129  0.0781
 2882TIP3    H1 8610   2.603   2.646   2.057 -2.1326 -0.5081  0.8896
 2882TIP3    H2 8611   2.597   2.727   1.929  2.8995  1.6162  1.7378
 2883TIP3   OH2 8612   2.497   4.929   0.418 -0.1423 -0.1187  0.2456
 2883TIP3    H1 8613   2.459   4.856   0.370 -0.2990  0.4550 -0.5097
 2883TIP3    H2 8614   2.526   4.990   0.351  1.5304 -0.2384  0.8049
 2884TIP3   OH2 8615   4.575   0.358   3.736  0.0997 -0.3705  0.0454
 2884TIP3    H1 8616   4.638   0.416   3.778 -1.9735  1.1170  1.2824
 2884TIP3    H2 8617   4.575   0.383   3.644  1.0806 -0.1905  0.0926
 2885TIP3   OH2 8618   1.402   2.191   1.246 -0.2780 -0.1886 -0.1132
 2885TIP3    H1 8619   1.439   2.122   1.190 -1.8337 -1.0042 -0.1778
 2885TIP3    H2 8620   1.377   2.260   1.185  1.4857  0.5637 -0.0281
 2886TIP3   OH2 8621   4.816   0.537   2.828  0.3730 -0.3398 -0.5968
 2886TIP3    H1 8622   4.910   0.550   2.833  0.1520  1.1201  0.7500
 2886TIP3    H2 8623   4.793   0.493   2.910 -0.1748 -0.1589 -0.6457
 2887TIP3   OH2 8624   3.036   3.461   3.460  0.2546 -0.6319 -0.1391
 2887TIP3    H1 8625   3.083   3.427   3.536 -0.5200 -0.4471  0.4348
 2887TIP3    H2 8626   2.948   3.424   3.468 -0.8349  1.9682  0.8659
 2888TIP3   OH2 8627   0.708   5.098   3.518 -0.0145 -0.3650  0.0555
 2888TIP3    H1 8628   0.690   5.137   3.604  0.7830 -0.4794  0.2836
 2888TIP3    H2 8629   0.795   5.130   3.495 -0.2700 -0.2389 -0.7740
 2889TIP3   OH2 8630   6.069   1.920   3.570  0.2077  0.5228  0.1532
 2889TIP3    H1 8631   6.057   1.852   3.637  0.2263 -0.1731 -0.5472
 2889TIP3    H2 8632   5.981   1.957   3.559 -0.2168 -0.6887 -0.8248
 2890TIP3   OH2 8633   5.420   3.584   2.298  0.5237 -0.2785  0.3748
 2890TIP3    H1 8634   5.416   3.606   2.205 -0.0789  0.3099  0.5347
 2890TIP3    H2 8635   5.499   3.628   2.329 -0.5771  1.5780  0.6559
 2891TIP3   OH2 8636   2.409   4.183   5.223  0.7787 -0.3094  0.7477
 2891TIP3    H1 8637   2.401   4.089   5.209  0.1383  0.0506 -1.8735
 2891TIP3    H2 8638   2.334   4.206   5.277 -1.1332 -0.8572 -1.5232
 2892TIP3   OH2 8639   2.405   5.180   3.257 -0.2247 -0.1094 -0.2797
 2892TIP3    H1 8640   2.393   5.103   3.201 -0.7008  0.0534 -0.4106
 2892TIP3    H2 8641   2.499   5.185   3.273 -0.2740 -1.2164  0.4354
 2893TIP3   OH2 8642   4.348   0.499   5.605 -0.4322  0.2721  0.0528
 2893TIP3    H1 8643   4.252   0.497   5.597 -0.4368  0.8897 -0.1064
 2893TIP3    H2 8644   4.365   0.555   5.680 -0.2331 -1.4117  1.3239
 2894TIP3   OH2 8645   6.142   4.750   3.589  0.3784 -0.2706 -0.3324
 2894TIP3    H1 8646   6.200   4.702   3.648  0.7472 -1.0353 -1.2951
 2894TIP3    H2 8647   6.090   4.682   3.546 -0.2718  0.3121 -0.4877
 2895TIP3   OH2 8648   4.868   6.624   1.207 -0.1496  0.1978  0.3476
 2895TIP3    H1 8649   4.778   6.614   1.176 -1.1521 -2.1685  3.5392
 2895TIP3    H2 8650   4.867   6.706   1.257 -0.0631  0.9906 -0.9183
 2896TIP3   OH2 8651   3.058   5.441   3.980 -0.0820  0.5506 -0.2065
 2896TIP3    H1 8652   3.004   5.453   3.901 -0.7105  0.9591  0.2781
 2896TIP3    H2 8653   3.085   5.530   4.004  2.4335  0.2500 -1.5319
 2897TIP3   OH2 8654   0.100   3.836   3.101 -0.0673  0.9453 -0.1279
 2897TIP3    H1 8655   0.099   3.768   3.168 -1.8442 -1.3248 -2.2541
 2897TIP3    H2 8656   0.167   3.899   3.130  2.0445 -1.9431  1.7481
 2898TIP3   OH2 8657   4.207   0.220   3.654  0.4962  0.2758  0.0566
 2898TIP3    H1 8658   4.273   0.205   3.722  0.2634  0.9521  0.4482
 2898TIP3    H2 8659   4.150   0.143   3.659  0.0844  0.6347  1.1097
 2899TIP3   OH2 8660   6.785   3.015   4.213 -0.1835  0.3293  0.4432
 2899TIP3    H1 8661   6.865   2.964   4.223 -1.1390 -0.9331  1.9707
 2899TIP3    H2 8662   6.719   2.968   4.262 -1.6782  1.8399  0.0024
 2900TIP3   OH2 8663   4.480   5.221   4.586 -0.3880  0.1317  0.1122
 2900TIP3    H1 8664   4.476   5.307   4.543 -1.7650  0.5398  0.9807
 2900TIP3    H2 8665   4.423   5.166   4.532  1.1000 -0.4873 -0.8922
 2901TIP3   OH2 8666   4.339   6.347   0.687  0.2585 -0.2108  0.5849
 2901TIP3    H1 8667   4.316   6.365   0.596 -0.8899 -1.7806  0.5075
 2901TIP3    H2 8668   4.431   6.320   0.685  0.8769  1.8326  0.2249
 2902TIP3   OH2 8669   0.800   0.898   0.264 -0.6810  0.2845  1.0952
 2902TIP3    H1 8670   0.793   0.967   0.330 -0.1656  0.8684  0.5553
 2902TIP3    H2 8671   0.856   0.832   0.305  1.0634  1.4073  0.6453
 2903TIP3   OH2 8672   4.110   1.340   4.260  0.1347 -0.5261 -0.2208
 2903TIP3    H1 8673   4.126   1.245   4.256 -2.5134 -1.0350 -0.3478
 2903TIP3    H2 8674   4.137   1.365   4.348 -1.8751 -2.0295  0.8931
 2904TIP3   OH2 8675   5.200   6.085   0.522  0.3503 -0.0749 -0.5917
 2904TIP3    H1 8676   5.188   6.073   0.428  1.4735  0.6938 -0.8615
 2904TIP3    H2 8677   5.155   6.011   0.563  2.5520 -2.2461 -1.8711
 2905TIP3   OH2 8678   2.294   4.801   0.235 -0.0148 -0.0778 -0.1079
 2905TIP3    H1 8679   2.282   4.806   0.140 -0.6800  0.6099 -0.0042
 2905TIP3    H2 8680   2.290   4.708   0.255 -1.8010 -0.1468 -0.5498
 2906TIP3   OH2 8681   5.179   1.397   1.283 -0.6857  0.2747  0.1165
 2906TIP3    H1 8682   5.090   1.427   1.268 -0.8569  0.8435  2.0193
 2906TIP3    H2 8683   5.175   1.348   1.365  0.2204 -2.2839 -1.2351
 2907TIP3   OH2 8684   1.186   1.790   5.816  0.1142  0.3833  0.8063
 2907TIP3    H1 8685   1.127   1.797   5.891 -0.7238  2.0998  0.0539
 2907TIP3    H2 8686   1.145   1.846   5.749  1.2063 -0.5232 -0.6740
 2908TIP3   OH2 8687   0.668   3.439   3.309 -0.3812 -0.1629 -0.4075
 2908TIP3    H1 8688   0.613   3.508   3.344  0.8411  0.1912  0.9127
 2908TIP3    H2 8689   0.707   3.476   3.230 -0.7659  0.1689 -0.4384
 2909TIP3   OH2 8690   5.907   1.653   2.868  0.1353 -0.1049 -0.0871
 2909TIP3    H1 8691   5.851   1.609   2.804 -0.9443  2.3503 -0.9319
 2909TIP3    H2 8692   5.920   1.587   2.937 -0.5820 -2.0360 -1.7020
 2910TIP3   OH2 8693   5.076   4.896   5.112  0.6174 -0.1066 -0.1743
 2910TIP3    H1 8694   4.988   4.867   5.089  1.4340 -0.4675 -3.2528
 2910TIP3    H2 8695   5.081   4.986   5.079  0.9929  0.4282  1.2473
 2911TIP3   OH2 8696   1.001   5.525   2.194  0.4346 -1.1517  0.6425
 2911TIP3    H1 8697   0.915   5.566   2.201  0.1190 -1.3541 -1.4352
 2911TIP3    H2 8698   0.990   5.456   2.128  1.9007 -2.0069  1.2302
 2912TIP3   OH2 8699   3.715   6.072   4.361  0.0064  0.6225  0.2069
 2912TIP3    H1 8700   3.759   6.085   4.445 -0.4866  0.3005  0.5175
 2912TIP3    H2 8701   3.629   6.039   4.384  0.5434 -1.4406 -0.4843
 2913TIP3   OH2 8702   2.130   1.532   0.364  0.2527 -0.5963  0.2338
 2913TIP3    H1 8703   2.173   1.475   0.428 -0.4305  2.2259  3.4901
 2913TIP3    H2 8704   2.040   1.501   0.362  0.3044 -0.7778  0.5654
 2914TIP3   OH2 8705   3.207   3.809   1.661  0.0242 -0.7183  0.4416
 2914TIP3    H1 8706   3.209   3.715   1.648  0.1552 -0.4498 -1.7120
 2914TIP3    H2 8707   3.131   3.824   1.718 -1.6271 -1.9059 -1.3464
 2915TIP3   OH2 8708   6.453   3.049   0.799  0.3582  0.0698  0.6258
 2915TIP3    H1 8709   6.361   3.024   0.806 -0.4579  1.1362 -3.3900
 2915TIP3    H2 8710   6.490   2.987   0.735  2.2798  0.1117  1.6169
 2916TIP3   OH2 8711   5.915   3.962   4.307 -0.0214 -0.1120  0.0782
 2916TIP3    H1 8712   5.990   3.919   4.266  0.6575  1.0825  0.0267
 2916TIP3    H2 8713   5.937   3.966   4.400  0.0385  0.3359  0.0483
 2917TIP3   OH2 8714   6.347   1.148   2.411  0.5147  0.3900  0.0439
 2917TIP3    H1 8715   6.411   1.160   2.481 -0.9409  0.4297  1.4009
 2917TIP3    H2 8716   6.301   1.067   2.434  0.8757 -0.3242 -1.5809
 2918TIP3   OH2 8717   4.751   5.388   4.631 -0.1153  0.3178  0.1342
 2918TIP3    H1 8718   4.695   5.400   4.555  0.7991  1.1926 -0.4266
 2918TIP3    H2 8719   4.700   5.421   4.705 -0.4476  0.8321 -0.3223
 2919TIP3   OH2 8720   6.466   2.623   3.640 -0.0362  0.3192  0.2117
 2919TIP3    H1 8721   6.436   2.712   3.620 -0.9712 -0.1785 -0.6863
 2919TIP3    H2 8722   6.457   2.576   3.558  0.3475 -0.6374  0.7095
 2920TIP3   OH2 8723   6.884   5.165   0.677 -0.5221  0.0548 -0.0983
 2920TIP3    H1 8724   6.926   5.079   0.685 -0.2303  0.2254  0.2141
 2920TIP3    H2 8725   6.946   5.226   0.718  0.4413  0.7831 -2.4938
 2921TIP3   OH2 8726   3.075   4.057   4.660  0.2979  0.4427 -0.1977
 2921TIP3    H1 8727   3.020   4.049   4.738  1.8856 -1.5756  0.8299
 2921TIP3    H2 8728   3.104   4.148   4.660 -0.0651  0.5867  1.3648
 2922TIP3   OH2 8729   2.782   5.773   5.739 -0.0323 -0.2662 -0.1582
 2922TIP3    H1 8730   2.836   5.715   5.793  1.7969  0.7025 -0.8239
 2922TIP3    H2 8731   2.693   5.741   5.750  0.7878 -2.6540  0.1587
 2923TIP3   OH2 8732   2.992   0.282   1.935  0.6794  0.0360  0.8766
 2923TIP3    H1 8733   2.960   0.358   1.983 -1.9777 -1.3336  1.5196
 2923TIP3    H2 8734   2.936   0.278   1.857  1.6572 -0.5199  0.1867
 2924TIP3   OH2 8735   4.419   6.312   1.190 -0.6176 -0.0081  0.2046
 2924TIP3    H1 8736   4.461   6.354   1.115 -0.9549 -0.3273 -0.1670
 2924TIP3    H2 8737   4.438   6.369   1.264  0.2392 -0.0106 -0.0116
 2925TIP3   OH2 8738   1.408   4.210   3.851  1.0729  0.2564 -0.9188
 2925TIP3    H1 8739   1.460   4.289   3.868 -0.2587  1.0801 -0.5281
 2925TIP3    H2 8740   1.431   4.151   3.923  1.3859  0.6515 -0.6868
 2926TIP3   OH2 8741   6.900   2.425   3.721 -0.1339  0.2316 -0.2820
 2926TIP3    H1 8742   6.830   2.487   3.740 -0.4063 -0.4834  1.2188
 2926TIP3    H2 8743   6.855   2.349   3.684 -0.0159  0.2172 -0.3964
 2927TIP3   OH2 8744   3.916   2.684   4.635 -0.5293  0.8830  0.1999
 2927TIP3    H1 8745   3.969   2.763   4.626 -1.4026  1.6005  1.1381
 2927TIP3    H2 8746   3.880   2.689   4.723  0.2347 -1.1142  0.6786
 2928TIP3   OH2 8747   5.921   2.917   3.752  0.0722  0.6565 -0.1730
 2928TIP3    H1 8748   6.013   2.888   3.753 -0.1249  0.0133  0.0710
 2928TIP3    H2 8749   5.874   2.846   3.709 -0.3195  0.9771 -0.2808
 2929TIP3   OH2 8750   4.789   6.591   5.089 -0.1702  1.1926 -0.2267
 2929TIP3    H1 8751   4.874   6.562   5.122 -0.2109  0.0447 -1.0714
 2929TIP3    H2 8752   4.794   6.579   4.994 -0.5122  3.2071 -0.5476
 2930TIP3   OH2 8753   4.436   0.952   0.011  0.5394  0.1450 -0.9995
 2930TIP3    H1 8754   4.363   1.003   0.045  0.8645  0.3419 -0.5832
 2930TIP3    H2 8755   4.407   0.861   0.016  0.4918  0.1875 -0.3999
 2931TIP3   OH2 8756   1.908   1.881   3.496 -1.0106 -0.0734  0.0211
 2931TIP3    H1 8757   1.915   1.893   3.591 -0.0224 -0.8942  0.0709
 2931TIP3    H2 8758   1.998   1.878   3.465 -1.2048 -2.5347 -0.5589
 2932TIP3   OH2 8759   4.085   2.157   3.582 -0.6386 -0.7946  0.3378
 2932TIP3    H1 8760   4.053   2.068   3.572 -0.3883 -0.9885  1.1782
 2932TIP3    H2 8761   4.035   2.208   3.519 -0.5087 -1.5899 -0.4267
 2933TIP3   OH2 8762   6.321   1.046   5.285 -0.1095 -0.0704  0.0852
 2933TIP3    H1 8763   6.393   0.994   5.322  0.3984 -1.0632 -2.1810
 2933TIP3    H2 8764   6.244   0.991   5.295 -0.3422  0.4294  1.2604
 2934TIP3   OH2 8765   5.235   1.580   3.248  0.4317  0.5104  0.4901
 2934TIP3    H1 8766   5.316   1.611   3.287 -0.1855 -0.6564  2.8920
 2934TIP3    H2 8767   5.211   1.503   3.299 -0.4291 -1.2717 -2.3474
 2935TIP3   OH2 8768   4.403   6.569   1.295 -0.1974  0.2484 -0.0377
 2935TIP3    H1 8769   4.337   6.583   1.362 -0.6585 -0.7339 -0.2643
 2935TIP3    H2 8770   4.373   6.620   1.220 -0.9262 -0.5198 -0.2783
 2936TIP3   OH2 8771   3.292   6.157   4.257  0.0602  0.6458 -0.7212
 2936TIP3    H1 8772   3.356   6.187   4.192 -0.2135  0.1191 -1.2419
 2936TIP3    H2 8773   3.211   6.203   4.233 -0.3257 -0.3698 -1.4386
 2937TIP3   OH2 8774   6.543   1.340   3.823 -0.2423  0.3328 -0.5714
 2937TIP3    H1 8775   6.630   1.371   3.795 -0.8995  0.9972 -1.9691
 2937TIP3    H2 8776   6.509   1.411   3.877  0.0111  0.1320 -0.1385
 2938TIP3   OH2 8777   3.230   2.829   5.247  0.7191 -0.2757  0.4308
 2938TIP3    H1 8778   3.139   2.834   5.277 -0.0050 -0.7624 -1.4924
 2938TIP3    H2 8779   3.241   2.904   5.189  1.0347 -1.0250 -0.5254
 2939TIP3   OH2 8780   2.486   4.297   3.079 -0.1371  0.2178 -0.6458
 2939TIP3    H1 8781   2.542   4.281   3.155 -1.0251  1.3336  0.2893
 2939TIP3    H2 8782   2.533   4.259   3.006  1.1552 -0.1365  0.3309
 2940TIP3   OH2 8783   2.904   5.236   2.008 -0.3873 -0.0627  0.3093
 2940TIP3    H1 8784   2.868   5.205   1.925 -0.1200  1.5428 -0.4598
 2940TIP3    H2 8785   2.995   5.259   1.988 -0.5987  1.2961  0.7636
 2941TIP3   OH2 8786   4.229   2.107   2.855  0.0628  1.1450 -0.0835
 2941TIP3    H1 8787   4.269   2.025   2.826 -0.0184  0.9814  0.2643
 2941TIP3    H2 8788   4.141   2.106   2.818 -0.0139  0.9729  0.1062
 2942TIP3   OH2 8789   0.776   5.505   0.681  0.1816  0.1163  0.0651
 2942TIP3    H1 8790   0.798   5.414   0.661 -0.4542 -0.1674  0.6019
 2942TIP3    H2 8791   0.681   5.509   0.667  0.3793  1.0358 -1.2077
 2943TIP3   OH2 8792   0.544   6.174   3.519 -0.5745  0.5480  0.7267
 2943TIP3    H1 8793   0.497   6.255   3.502  0.9937  1.3277 -0.1726
 2943TIP3    H2 8794   0.530   6.120   3.441  1.6748  1.6635 -0.5534
 2944TIP3   OH2 8795   6.272   4.212   5.564  0.1394  0.7555  0.7216
 2944TIP3    H1 8796   6.281   4.118   5.548 -1.0371  0.7871 -0.3115
 2944TIP3    H2 8797   6.245   4.218   5.656  2.4261  0.2603  1.4876
 2945TIP3   OH2 8798   1.112   0.374   2.327 -0.3195 -0.1128  0.7619
 2945TIP3    H1 8799   1.137   0.298   2.275  1.3373 -1.1450  2.8875
 2945TIP3    H2 8800   1.025   0.353   2.360 -0.0950 -0.8558  0.8953
 2946TIP3   OH2 8801   0.653   2.270   4.213 -0.0905 -0.4522 -0.4632
 2946TIP3    H1 8802   0.578   2.295   4.266 -0.2367  1.3265 -1.4309
 2946TIP3    H2 8803   0.728   2.273   4.273 -0.4553  0.1285 -0.0349
 2947TIP3   OH2 8804   2.588   3.603   4.477 -0.5103 -0.2494 -0.4559
 2947TIP3    H1 8805   2.529   3.547   4.527  0.1570 -0.3591  0.2314
 2947TIP3    H2 8806   2.543   3.688   4.474 -0.3575 -0.1045  0.7517
 2948TIP3   OH2 8807   1.207   4.866   3.669  0.8190 -0.0703  0.8584
 2948TIP3    H1 8808   1.289   4.857   3.717  1.6432  2.4216  0.0916
 2948TIP3    H2 8809   1.159   4.935   3.715  0.9290  1.2536 -0.8944
 2949TIP3   OH2 8810   5.943   6.475   3.623  0.1019 -0.2177 -0.1524
 2949TIP3    H1 8811   5.897   6.392   3.636  3.6510 -2.1288  1.6430
 2949TIP3    H2 8812   6.000   6.460   3.548 -0.3419  1.2164 -0.8138
 2950TIP3   OH2 8813   2.057   2.486   4.328  0.4878  0.3371  0.4041
 2950TIP3    H1 8814   2.109   2.566   4.335 -1.1093  1.4804 -0.1141
 2950TIP3    H2 8815   1.976   2.507   4.374  0.3886 -1.3206  1.0339
 2951TIP3   OH2 8816   3.460   5.956   4.346 -0.2830  0.8027  0.3840
 2951TIP3    H1 8817   3.383   6.008   4.321 -1.3267 -1.4795 -1.5409
 2951TIP3    H2 8818   3.428   5.900   4.417 -0.4451 -0.1864 -0.4560
 2952TIP3   OH2 8819   6.784   6.139   2.543  0.0449 -0.2358  0.2091
 2952TIP3    H1 8820   6.849   6.202   2.511 -1.2565  0.6993 -0.7488
 2952TIP3    H2 8821   6.718   6.194   2.586 -0.5103 -1.0613  0.4244
 2953TIP3   OH2 8822   0.239   5.999   0.309  0.3353 -0.5120  0.6597
 2953TIP3    H1 8823   0.326   6.007   0.348  0.1393  0.1901  0.9738
 2953TIP3    H2 8824   0.186   5.955   0.376  0.2213 -0.0952  0.8518
 2954TIP3   OH2 8825   1.182   3.492   1.227  0.0654 -0.0089  0.4637
 2954TIP3    H1 8826   1.099   3.446   1.228 -0.2950  0.6322  1.4473
 2954TIP3    H2 8827   1.248   3.423   1.234 -0.3474 -0.5607 -0.8258
 2955TIP3   OH2 8828   5.481   3.886   4.912  0.2457 -0.3110  0.1581
 2955TIP3    H1 8829   5.449   3.967   4.953  0.2077 -0.2597  0.0276
 2955TIP3    H2 8830   5.501   3.828   4.986  0.5643 -0.0710  0.2644
 2956TIP3   OH2 8831   1.998   5.371   5.882  0.4708  0.2557  0.1207
 2956TIP3    H1 8832   1.948   5.357   5.801 -0.3646 -1.9230  0.9198
 2956TIP3    H2 8833   1.931   5.374   5.950  1.2508  0.5208  0.8883
 2957TIP3   OH2 8834   2.779   3.530   1.595  0.0328  0.2966  0.1924
 2957TIP3    H1 8835   2.809   3.585   1.522 -0.5138 -0.5565 -0.7100
 2957TIP3    H2 8836   2.700   3.487   1.561  0.4214 -0.9981  0.8718
 2958TIP3   OH2 8837   4.911   4.431   2.554  0.2277 -0.1864  0.3670
 2958TIP3    H1 8838   4.962   4.510   2.571 -0.2004 -0.0381  0.9873
 2958TIP3    H2 8839   4.931   4.408   2.463  2.5604 -0.9792  1.0040
 2959TIP3   OH2 8840   4.423   1.461   4.847  0.3189 -0.0201  0.0725
 2959TIP3    H1 8841   4.484   1.511   4.901 -0.3001  2.6502 -1.5364
 2959TIP3    H2 8842   4.470   1.446   4.765 -0.2370 -0.3604 -0.1909
 2960TIP3   OH2 8843   5.756   5.161   1.138  0.0690 -0.1884 -0.3296
 2960TIP3    H1 8844   5.807   5.088   1.172  0.4751  0.0352 -0.4565
 2960TIP3    H2 8845   5.818   5.234   1.133 -1.0908  1.3598  3.5247
 2961TIP3   OH2 8846   5.396   2.609   0.609  0.2862 -0.1057 -0.2089
 2961TIP3    H1 8847   5.374   2.519   0.634  1.3234 -0.2190  0.3410
 2961TIP3    H2 8848   5.488   2.605   0.584  0.3987  0.8567  0.0313
 2962TIP3   OH2 8849   4.779   3.083   1.839  0.7511  0.4108 -0.4517
 2962TIP3    H1 8850   4.813   3.168   1.865  0.5415  0.1884  0.6155
 2962TIP3    H2 8851   4.738   3.048   1.919  1.4031 -0.9579 -0.6748
 2963TIP3   OH2 8852   3.760   1.003   4.610  0.8056  0.0798  0.3358
 2963TIP3    H1 8853   3.705   1.002   4.689 -1.6418 -2.4027 -1.2180
 2963TIP3    H2 8854   3.841   0.960   4.638  0.9166  1.2659  2.0051
 2964TIP3   OH2 8855   6.993   6.221   2.273  0.4601  0.0250  0.2871
 2964TIP3    H1 8856   6.973   6.296   2.329 -0.5966 -0.1986  0.2260
 2964TIP3    H2 8857   7.063   6.174   2.320  1.7117  1.4694 -0.0802
 2965TIP3   OH2 8858   3.957   2.453   4.893  1.0032 -1.0260 -0.1850
 2965TIP3    H1 8859   3.946   2.422   4.803 -0.1236 -1.3540  0.0512
 2965TIP3    H2 8860   3.971   2.547   4.885 -2.5778 -0.4118 -0.5686
 2966TIP3   OH2 8861   0.242   2.043   2.014  0.3296 -0.3850 -0.6746
 2966TIP3    H1 8862   0.214   1.953   2.002  0.4028 -0.2931 -1.5500
 2966TIP3    H2 8863   0.228   2.085   1.930 -0.6061  0.6750 -0.0225
 2967TIP3   OH2 8864   0.308   2.237   0.340 -0.3170 -0.3786  0.0604
 2967TIP3    H1 8865   0.348   2.324   0.348 -0.1670 -0.5174  0.9134
 2967TIP3    H2 8866   0.281   2.214   0.429 -3.8481  0.4051 -0.6607
 2968TIP3   OH2 8867   1.613   3.032   4.756  0.3026  0.1154 -0.0133
 2968TIP3    H1 8868   1.679   3.034   4.826  0.4772 -0.9414 -0.1224
 2968TIP3    H2 8869   1.661   3.055   4.677  0.3144  0.3551  0.0623
 2969TIP3   OH2 8870   4.372   1.580   2.629  0.1829 -0.3404  0.3604
 2969TIP3    H1 8871   4.424   1.531   2.692  0.3941  1.5379  1.7053
 2969TIP3    H2 8872   4.282   1.574   2.661  0.1931  0.0398  0.4659
 2970TIP3   OH2 8873   1.826   3.119   3.948  0.2853  0.1406 -0.2501
 2970TIP3    H1 8874   1.916   3.087   3.946  0.1875 -0.1476 -2.0399
 2970TIP3    H2 8875   1.785   3.080   3.871 -1.1713  0.8346  0.1363
 2971TIP3   OH2 8876   6.970   4.604   1.395  0.1427  0.1685 -0.5582
 2971TIP3    H1 8877   7.030   4.616   1.469  0.2436 -0.4602 -0.5304
 2971TIP3    H2 8878   6.998   4.522   1.355 -0.1800  0.2938 -1.0449
 2972TIP3   OH2 8879   6.155   6.223   3.864 -0.1051  0.2180  0.0739
 2972TIP3    H1 8880   6.138   6.184   3.778 -1.3434  2.0681 -0.5838
 2972TIP3    H2 8881   6.069   6.241   3.900  0.4101  0.1311  1.4295
 2973TIP3   OH2 8882   2.071   2.298   5.826  0.3430 -0.8638  0.8660
 2973TIP3    H1 8883   2.127   2.367   5.792  0.8344 -0.8493  1.6778
 2973TIP3    H2 8884   1.987   2.341   5.844  0.0519 -0.8873 -0.3441
 2974TIP3   OH2 8885   2.491   1.440   0.989 -0.3576 -0.2419  0.4590
 2974TIP3    H1 8886   2.551   1.365   0.987  1.6125  1.2503  0.7639
 2974TIP3    H2 8887   2.439   1.427   1.068 -0.9364 -1.8906 -0.1440
 2975TIP3   OH2 8888   6.037   0.495   0.485  0.2261 -0.3057  0.0707
 2975TIP3    H1 8889   6.117   0.527   0.526  0.8100 -0.1379 -1.1414
 2975TIP3    H2 8890   6.057   0.405   0.460  0.2904 -0.0508 -0.8406
 2976TIP3   OH2 8891   4.474   3.031   5.835 -0.5387 -0.1147 -0.2018
 2976TIP3    H1 8892   4.498   2.955   5.887  2.4124  1.7786  1.5202
 2976TIP3    H2 8893   4.396   3.067   5.879 -1.1670 -1.3522 -0.2643
 2977TIP3   OH2 8894   3.010   2.532   4.691 -0.0256 -0.1454  0.0061
 2977TIP3    H1 8895   3.007   2.526   4.787  3.5166  0.8419  0.3253
 2977TIP3    H2 8896   3.052   2.451   4.664 -0.2604 -0.0510 -0.6492
 2978TIP3   OH2 8897   4.050   5.659   2.267  0.6632 -0.3432  0.3107
 2978TIP3    H1 8898   4.122   5.715   2.239  0.9110  0.2736  2.0595
 2978TIP3    H2 8899   4.093   5.584   2.308  0.3301 -1.7706 -1.8039
 2979TIP3   OH2 8900   5.472   6.789   0.091  0.1074 -0.3277 -0.3809
 2979TIP3    H1 8901   5.529   6.866   0.090  0.0202 -0.2608 -1.5143
 2979TIP3    H2 8902   5.528   6.717   0.060 -0.2782 -0.3605 -1.0173
 2980TIP3   OH2 8903   6.298   4.166   3.223 -0.1079 -0.2506  0.3841
 2980TIP3    H1 8904   6.256   4.083   3.244 -0.4938 -0.1815 -0.0905
 2980TIP3    H2 8905   6.285   4.176   3.128 -1.5899  1.1887  0.7024
 2981TIP3   OH2 8906   5.104   3.713   4.673 -0.6728  0.0379 -0.3068
 2981TIP3    H1 8907   5.089   3.627   4.635 -1.6726 -0.2574  0.7070
 2981TIP3    H2 8908   5.108   3.698   4.767 -0.0622  0.9974 -0.1627
 2982TIP3   OH2 8909   4.802   5.796   3.705 -0.2281 -0.0266  0.2608
 2982TIP3    H1 8910   4.771   5.725   3.650 -0.6449 -0.9187  1.5808
 2982TIP3    H2 8911   4.879   5.760   3.749  0.7983  1.0664 -0.5798
 2983TIP3   OH2 8912   0.199   3.050   2.450  0.0322  0.2417  0.4796
 2983TIP3    H1 8913   0.213   2.955   2.451 -0.3389  0.1451 -0.9518
 2983TIP3    H2 8914   0.241   3.080   2.369 -1.7713  0.9564 -0.2456
 2984TIP3   OH2 8915   7.114   6.323   4.959 -0.0617  0.5689  0.1428
 2984TIP3    H1 8916   7.154   6.352   5.041 -0.6954 -1.6720  1.3350
 2984TIP3    H2 8917   7.039   6.382   4.947  0.7835  1.7347  0.4707
 2985TIP3   OH2 8918   6.587   3.169   1.040 -0.7248  1.1818 -0.4511
 2985TIP3    H1 8919   6.496   3.187   1.062 -1.0138  0.2656 -0.8314
 2985TIP3    H2 8920   6.583   3.103   0.971  0.2243  1.2172 -0.5624
 2986TIP3   OH2 8921   6.500   6.619   0.641  0.3520  0.0227  0.2953
 2986TIP3    H1 8922   6.596   6.618   0.636  0.3835  0.3625  0.7099
 2986TIP3    H2 8923   6.477   6.712   0.637  0.1151  0.0219  1.2484
 2987TIP3   OH2 8924   0.457   4.512   2.732 -0.6259 -0.1234  0.1254
 2987TIP3    H1 8925   0.502   4.454   2.793  0.7464  0.0057 -0.7206
 2987TIP3    H2 8926   0.428   4.455   2.661 -0.9321 -0.0523  0.1915
 2988TIP3   OH2 8927   1.279   6.025   0.088  0.5644  0.3422 -0.2936
 2988TIP3    H1 8928   1.205   5.969   0.114  0.4497 -0.1910 -1.7147
 2988TIP3    H2 8929   1.288   6.011  -0.006  1.0845  2.0715 -0.5404
 2989TIP3   OH2 8930   2.480   3.115   3.110 -0.2434 -0.1941 -0.4108
 2989TIP3    H1 8931   2.466   3.098   3.203 -0.1587  1.3453 -0.0926
 2989TIP3    H2 8932   2.555   3.060   3.086 -0.4511 -0.8117  0.3578
 2990TIP3   OH2 8933   6.084   0.705   1.880  0.0621 -0.0540 -0.1974
 2990TIP3    H1 8934   6.168   0.751   1.873  1.3338 -2.2501 -0.4900
 2990TIP3    H2 8935   6.102   0.632   1.940 -1.2743 -1.3075 -1.2457
 2991TIP3   OH2 8936   6.280   2.058   2.316 -0.0037 -0.0401  0.5111
 2991TIP3    H1 8937   6.209   1.997   2.296 -0.0605 -0.2525  1.3525
 2991TIP3    H2 8938   6.296   2.048   2.410  1.7096 -0.6186  0.2013
 2992TIP3   OH2 8939   7.073   5.081   4.913  0.0018 -0.1868 -0.3845
 2992TIP3    H1 8940   7.098   4.996   4.876  2.4086  0.3137 -0.0880
 2992TIP3    H2 8941   7.042   5.132   4.837 -1.3116 -1.2200 -0.5857
 2993TIP3   OH2 8942   5.581   2.591   3.508  0.1755  0.0641 -0.2589
 2993TIP3    H1 8943   5.599   2.506   3.548  0.6805  0.9738  1.5485
 2993TIP3    H2 8944   5.501   2.577   3.457 -1.2089 -0.9270  2.0304
 2994TIP3   OH2 8945   2.011   5.439   4.627 -0.2141  0.1839 -0.3044
 2994TIP3    H1 8946   2.094   5.427   4.581  0.3427  0.2604  0.6368
 2994TIP3    H2 8947   2.014   5.375   4.698 -1.1888 -0.1437 -0.5428
 2995TIP3   OH2 8948   3.153   2.303   4.855  0.0146  0.2071 -0.0964
 2995TIP3    H1 8949   3.231   2.263   4.893 -0.4118 -1.8336 -1.2478
 2995TIP3    H2 8950   3.111   2.347   4.930  0.6688 -1.2670  1.2030
 2996TIP3   OH2 8951   1.593   0.419   2.550 -0.1824 -0.1699  0.3680
 2996TIP3    H1 8952   1.563   0.329   2.561 -1.4874  0.4425  2.2741
 2996TIP3    H2 8953   1.551   0.467   2.621 -1.0158  2.3217 -1.6782
 2997TIP3   OH2 8954   1.314   4.115   5.454  0.5604 -0.1173 -0.4009
 2997TIP3    H1 8955   1.354   4.044   5.405 -0.2701 -0.5389 -0.4913
 2997TIP3    H2 8956   1.352   4.195   5.417 -0.6030 -0.3712 -2.2743
 2998TIP3   OH2 8957   2.032   2.755   4.564  0.1527 -0.4133  0.0471
 2998TIP3    H1 8958   1.965   2.798   4.617 -0.9572 -1.0095 -0.8220
 2998TIP3    H2 8959   1.994   2.670   4.542  1.2382 -0.7992 -0.4049
 2999TIP3   OH2 8960   1.556   1.159   1.166  0.1110  0.3367  0.0457
 2999TIP3    H1 8961   1.496   1.142   1.239  1.3518  1.5329  1.4160
 2999TIP3    H2 8962   1.643   1.142   1.203  0.6861 -1.6002 -1.9565
 3000TIP3   OH2 8963   3.946   4.554   0.742  0.5268 -0.3410  0.0677
 3000TIP3    H1 8964   3.935   4.556   0.837 -0.9785  0.3928 -0.0845
 3000TIP3    H2 8965   3.897   4.630   0.711  3.5132  1.2292 -1.1272
 3001TIP3   OH2 8966   4.425   5.869   1.094  0.4832 -0.5382  0.0142
 3001TIP3    H1 8967   4.392   5.806   1.029  1.3235 -1.0157  0.0342
 3001TIP3    H2 8968   4.496   5.915   1.049  1.0013 -0.7978  0.5430
 3002TIP3   OH2 8969   1.639   2.848   1.885 -0.7738  0.0349 -0.0430
 3002TIP3    H1 8970   1.576   2.824   1.952  1.6214 -2.2798  1.5895
 3002TIP3    H2 8971   1.686   2.923   1.921 -0.6678 -0.0823  0.0628
 3003TIP3   OH2 8972   1.147   4.186   3.818 -0.2006  0.3605 -0.2042
 3003TIP3    H1 8973   1.107   4.263   3.777  0.8290  1.3454  0.5850
 3003TIP3    H2 8974   1.239   4.210   3.831 -0.3622 -0.0614  2.2645
 3004TIP3   OH2 8975   7.019   6.234   5.510 -0.2237 -0.5345 -0.0803
 3004TIP3    H1 8976   6.974   6.212   5.428  1.2338 -0.8857 -0.8261
 3004TIP3    H2 8977   6.985   6.172   5.574  0.3838 -1.9064 -1.0270
 3005TIP3   OH2 8978   4.750   3.021   2.642  0.0608  0.6071  0.0201
 3005TIP3    H1 8979   4.670   3.067   2.666 -0.0759  0.3731  0.0089
 3005TIP3    H2 8980   4.820   3.071   2.684  0.0338  1.5854 -1.0391
 3006TIP3   OH2 8981   0.362   4.783   2.443 -0.2528  0.6159 -0.4142
 3006TIP3    H1 8982   0.267   4.789   2.449 -0.4670  0.0436 -2.5116
 3006TIP3    H2 8983   0.394   4.854   2.499 -1.7887 -0.7187  2.4089
 3007TIP3   OH2 8984   6.706   0.355   2.695 -0.2993 -0.2816 -0.2082
 3007TIP3    H1 8985   6.629   0.299   2.688 -0.6634  0.3069 -1.0336
 3007TIP3    H2 8986   6.774   0.309   2.647  0.5726 -1.9076  2.3531
 3008TIP3   OH2 8987   6.922   1.514   2.673 -0.7899 -0.6093  0.1514
 3008TIP3    H1 8988   6.837   1.487   2.709 -0.7339 -0.9845  0.0059
 3008TIP3    H2 8989   6.986   1.465   2.724 -0.6807 -0.6431 -0.0195
 3009TIP3   OH2 8990   5.173   5.496   2.324 -0.0105  0.1693 -0.0767
 3009TIP3    H1 8991   5.248   5.507   2.266  0.2791 -0.5850  0.1495
 3009TIP3    H2 8992   5.197   5.424   2.382 -0.1320  1.1616  1.2458
 3010TIP3   OH2 8993   6.155   3.462   1.630 -0.0867 -0.3944  0.5763
 3010TIP3    H1 8994   6.178   3.508   1.710  3.5517 -0.1137 -0.4456
 3010TIP3    H2 8995   6.146   3.530   1.564  1.5328 -0.8236 -0.1437
 3011TIP3   OH2 8996   2.716   5.862   3.949  0.5287 -0.4475  0.2831
 3011TIP3    H1 8997   2.798   5.910   3.939  1.2170 -1.9058 -1.7313
 3011TIP3    H2 8998   2.730   5.806   4.026  0.1301  1.6309  1.9551
 3012TIP3   OH2 8999   5.534   4.615   0.843 -0.0355  0.0251  0.0828
 3012TIP3    H1 9000   5.551   4.653   0.756 -1.4811  0.4465 -0.0386
 3012TIP3    H2 9001   5.493   4.687   0.892  3.0002  0.6198  1.9814
 3013TIP3   OH2 9002   3.418   6.473   4.997 -0.6730  0.1256  0.5966
 3013TIP3    H1 9003   3.508   6.460   4.966 -1.4540 -0.1908 -1.6949
 3013TIP3    H2 9004   3.387   6.550   4.950 -1.4066  0.6672  1.9099
 3014TIP3   OH2 9005   5.598   2.881   2.100 -0.2629 -0.4870 -0.5953
 3014TIP3    H1 9006   5.527   2.940   2.124  1.5512  2.6194 -2.1193
 3014TIP3    H2 9007   5.556   2.811   2.051 -2.4146  0.3115 -0.0069
 3015TIP3   OH2 9008   5.818   3.265   0.598 -0.3685  0.1690  1.0660
 3015TIP3    H1 9009   5.857   3.190   0.552 -0.9096  0.3666  0.2652
 3015TIP3    H2 9010   5.767   3.310   0.531 -2.0704 -0.1482  2.0873
 3016TIP3   OH2 9011   1.289   0.870   0.679  0.6168 -0.1335  0.0919
 3016TIP3    H1 9012   1.381   0.894   0.686  0.3224  2.7761 -3.3445
 3016TIP3    H2 9013   1.244   0.952   0.661 -2.3736 -1.7457 -0.3775
 3017TIP3   OH2 9014   6.781   3.943   4.359  0.2404 -0.3920  0.0818
 3017TIP3    H1 9015   6.754   4.033   4.348 -1.5810 -0.9009  0.0761
 3017TIP3    H2 9016   6.833   3.923   4.281  0.1040  0.4414 -0.2282
 3018TIP3   OH2 9017   4.166   3.140   5.078 -0.1255 -0.0911 -0.1357
 3018TIP3    H1 9018   4.247   3.168   5.121 -1.2444  1.2623  1.2183
 3018TIP3    H2 9019   4.191   3.126   4.987  1.8193 -0.6543  0.4321
 3019TIP3   OH2 9020   6.814   6.174   4.283  0.5988 -0.3324  0.1724
 3019TIP3    H1 9021   6.840   6.257   4.324 -0.0088 -0.6422  1.2293
 3019TIP3    H2 9022   6.719   6.174   4.287  0.5883 -1.0140  0.0306
 3020TIP3   OH2 9023   4.755   3.428   3.135  0.3318  0.2590 -0.0128
 3020TIP3    H1 9024   4.796   3.473   3.208 -0.3783  1.3509 -0.2572
 3020TIP3    H2 9025   4.770   3.485   3.060 -2.0140  0.9955 -0.0145
 3021TIP3   OH2 9026   3.472   4.587   4.429 -0.7933 -0.2076 -0.1329
 3021TIP3    H1 9027   3.524   4.516   4.464 -0.7855 -0.4098 -0.5435
 3021TIP3    H2 9028   3.412   4.545   4.367 -0.3316  0.2139 -0.8856
 3022TIP3   OH2 9029   3.426   4.293   3.836 -0.7706  0.4656  0.2467
 3022TIP3    H1 9030   3.387   4.217   3.879  2.0816  0.9992  4.2906
 3022TIP3    H2 9031   3.507   4.261   3.797 -1.0122  0.9366 -0.6917
 3023TIP3   OH2 9032   7.003   5.149   2.062 -0.0843 -0.3276  0.1277
 3023TIP3    H1 9033   7.048   5.210   2.003 -0.8756  0.2493  0.1026
 3023TIP3    H2 9034   6.977   5.076   2.006 -1.7903  0.7183 -0.4891
 3024TIP3   OH2 9035   2.537   5.559   1.369  0.3605  0.4285  0.6829
 3024TIP3    H1 9036   2.615   5.503   1.368  0.6178  0.7793 -0.7482
 3024TIP3    H2 9037   2.537   5.602   1.283 -2.5755 -1.2096 -0.2974
 3025TIP3   OH2 9038   6.201   1.566   4.007  0.6093  0.0018 -0.3176
 3025TIP3    H1 9039   6.282   1.616   4.001  1.6033 -1.5884 -0.8110
 3025TIP3    H2 9040   6.143   1.620   4.060  1.6977  1.5509 -0.6503
 3026TIP3   OH2 9041   3.900   0.459   5.600 -0.4076  0.3849  0.3062
 3026TIP3    H1 9042   3.903   0.518   5.524 -1.7982  0.8835  0.6034
 3026TIP3    H2 9043   3.895   0.372   5.561 -1.2434  0.6404 -0.1984
 3027TIP3   OH2 9044   2.533   1.904   2.469  0.0089  0.3202  0.4375
 3027TIP3    H1 9045   2.604   1.840   2.481  0.1928 -0.2253 -2.6831
 3027TIP3    H2 9046   2.579   1.987   2.455 -0.0282  0.2313 -0.2109
 3028TIP3   OH2 9047   5.680   2.275   2.455 -0.1510 -0.0234  0.1792
 3028TIP3    H1 9048   5.642   2.352   2.497  1.2699  0.9096 -0.1654
 3028TIP3    H2 9049   5.699   2.215   2.527  1.4396  1.1881  0.8342
 3029TIP3   OH2 9050   4.816   4.157   2.425  0.6573 -0.2668  0.4358
 3029TIP3    H1 9051   4.845   4.212   2.497 -0.0761  0.2027  0.3846
 3029TIP3    H2 9052   4.724   4.181   2.412 -0.0145 -2.2748  1.1392
 3030TIP3   OH2 9053   2.234   2.994   5.072  0.5032 -0.1573  0.0424
 3030TIP3    H1 9054   2.274   3.073   5.108  0.4259 -0.4271  0.7226
 3030TIP3    H2 9055   2.306   2.931   5.069  0.2269 -0.5155  0.8788
 3031TIP3   OH2 9056   4.695   2.261   1.806  0.2167 -0.4040 -0.7687
 3031TIP3    H1 9057   4.746   2.306   1.738 -1.2626 -0.7361 -2.1694
 3031TIP3    H2 9058   4.744   2.276   1.887 -0.3752  4.2371 -0.9636
 3032TIP3   OH2 9059   6.986   2.293   2.819  0.1280 -0.2561  0.0247
 3032TIP3    H1 9060   7.037   2.219   2.850  0.9769  0.3839  0.2118
 3032TIP3    H2 9061   7.012   2.366   2.876 -0.4811  0.2501 -0.3225
 3033TIP3   OH2 9062   2.332   5.832   3.859 -0.6721 -0.5274  0.1029
 3033TIP3    H1 9063   2.316   5.926   3.871 -1.0741 -0.4355 -1.0114
 3033TIP3    H2 9064   2.261   5.803   3.801  0.7391 -1.0283 -1.4447
 3034TIP3   OH2 9065   0.208   3.804   0.972 -0.2344 -0.4178  0.3977
 3034TIP3    H1 9066   0.192   3.866   1.043 -0.2633 -0.3829  0.3610
 3034TIP3    H2 9067   0.165   3.843   0.896  0.2686 -0.1786  0.2302
 3035TIP3   OH2 9068   4.568   1.698   5.111  0.1568  0.6173  0.2054
 3035TIP3    H1 9069   4.555   1.782   5.067  2.7705  1.9296  1.6847
 3035TIP3    H2 9070   4.663   1.683   5.107 -0.1304 -1.8272  0.7945
 3036TIP3   OH2 9071   5.467   0.061   4.854 -0.3940  0.3531  0.0365
 3036TIP3    H1 9072   5.399   0.047   4.921 -0.7902  2.6863  0.2002
 3036TIP3    H2 9073   5.481   0.156   4.854  2.5150  0.0125 -0.3812
 3037TIP3   OH2 9074   3.206   5.636   4.977  0.0977  0.0147  0.2437
 3037TIP3    H1 9075   3.141   5.602   5.039 -0.4644 -1.1014 -0.9056
 3037TIP3    H2 9076   3.156   5.697   4.921 -0.3785 -1.9146 -1.5553
 3038TIP3   OH2 9077   5.676   2.045   4.179  0.2331  0.3441 -0.4168
 3038TIP3    H1 9078   5.742   2.104   4.143  0.7046 -1.0777 -2.0340
 3038TIP3    H2 9079   5.597   2.099   4.187  0.3059  0.9711 -2.9725
 3039TIP3   OH2 9080   4.481   5.871   2.486  0.3727  0.4242 -0.1891
 3039TIP3    H1 9081   4.409   5.891   2.425  0.0559  0.7153  0.2701
 3039TIP3    H2 9082   4.487   5.776   2.485  0.5458  0.4381 -0.8753
 3040TIP3   OH2 9083   2.275   4.186   3.560  0.3382  0.3855  0.3572
 3040TIP3    H1 9084   2.236   4.125   3.498  0.3235  0.6901  0.0651
 3040TIP3    H2 9085   2.293   4.133   3.638  0.8851 -0.1238 -0.1110
 3041TIP3   OH2 9086   0.259   4.682   4.290  0.8977 -0.3174  0.4414
 3041TIP3    H1 9087   0.225   4.722   4.210 -1.7560  1.0169  2.1086
 3041TIP3    H2 9088   0.294   4.755   4.341 -0.4486 -0.6196  1.8625
 3042TIP3   OH2 9089   4.811   1.912   1.753  0.0116 -0.3121 -0.7488
 3042TIP3    H1 9090   4.734   1.939   1.805  0.7279  0.9372 -0.2805
 3042TIP3    H2 9091   4.813   1.975   1.681  2.8216  2.3902  1.3933
 3043TIP3   OH2 9092   6.802   4.377   0.721 -0.4209 -0.1578  0.1920
 3043TIP3    H1 9093   6.796   4.433   0.644  1.8906 -0.2161 -0.0969
 3043TIP3    H2 9094   6.711   4.363   0.748 -1.2629  0.3204 -2.1774
 3044TIP3   OH2 9095   6.553   3.148   4.468 -0.0463  0.0724  0.0670
 3044TIP3    H1 9096   6.581   3.080   4.530 -1.3399 -0.8222 -0.3017
 3044TIP3    H2 9097   6.461   3.129   4.451 -0.1251  1.2401 -0.9509
 3045TIP3   OH2 9098   1.420   0.544   2.708 -0.3560  0.1389 -0.1344
 3045TIP3    H1 9099   1.325   0.538   2.698 -0.4658  0.6547  0.5849
 3045TIP3    H2 9100   1.438   0.506   2.794  0.1262 -0.1855 -0.3666
 3046TIP3   OH2 9101   5.294   5.062   3.754  0.3998 -0.2059 -0.3248
 3046TIP3    H1 9102   5.328   4.977   3.780  0.5904 -0.1464 -0.3726
 3046TIP3    H2 9103   5.200   5.049   3.745  0.2446 -0.0797  0.9646
 3047TIP3   OH2 9104   6.304   0.246   5.778 -0.6215  0.2311 -0.4593
 3047TIP3    H1 9105   6.348   0.265   5.695  1.2246 -0.3296  0.3432
 3047TIP3    H2 9106   6.254   0.166   5.761 -1.0466  0.6645 -1.2884
 3048TIP3   OH2 9107   3.126   4.495   2.717 -0.1488 -0.2111  0.1251
 3048TIP3    H1 9108   3.066   4.569   2.709 -0.2284 -0.3138 -0.2357
 3048TIP3    H2 9109   3.210   4.536   2.741  0.4046  0.2557 -2.3803
 3049TIP3   OH2 9110   2.802   6.640   0.179 -0.4049 -0.1362 -0.5425
 3049TIP3    H1 9111   2.763   6.571   0.125  0.7653 -0.8419 -0.5328
 3049TIP3    H2 9112   2.824   6.709   0.117 -1.6503  0.2880 -0.5432
 3050TIP3   OH2 9113   0.079   4.005   1.923  0.3082  0.3184 -0.0642
 3050TIP3    H1 9114   0.169   4.034   1.909 -0.6284  2.4470 -2.2305
 3050TIP3    H2 9115   0.082   3.958   2.007  2.8888  2.6527  1.3063
 3051TIP3   OH2 9116   1.684   3.145   1.859 -0.5547 -0.0894  0.3714
 3051TIP3    H1 9117   1.595   3.146   1.825 -0.1585  0.5513 -0.6967
 3051TIP3    H2 9118   1.680   3.196   1.940 -1.3603 -0.9774  0.9074
 3052TIP3   OH2 9119   5.578   3.824   1.683  0.0968  0.0908 -0.1901
 3052TIP3    H1 9120   5.541   3.791   1.766 -1.9465 -1.4543 -1.6082
 3052TIP3    H2 9121   5.575   3.748   1.625 -0.0420  1.5597 -2.1667
 3053TIP3   OH2 9122   5.750   5.448   1.824 -0.2443  0.1888  0.2330
 3053TIP3    H1 9123   5.746   5.377   1.760 -1.3613 -1.5670  2.1614
 3053TIP3    H2 9124   5.664   5.489   1.819 -0.2291  0.2414  0.4095
 3054TIP3   OH2 9125   6.948   5.070   2.915 -0.1693 -0.5699  0.3405
 3054TIP3    H1 9126   6.966   5.082   3.008 -2.9090  0.4214  0.8520
 3054TIP3    H2 9127   6.890   4.993   2.911 -0.4992 -0.2930 -0.4546
 3055TIP3   OH2 9128   5.309   5.817   1.921 -0.3652 -0.8753  0.2330
 3055TIP3    H1 9129   5.215   5.837   1.923 -0.2872 -0.4772  1.8725
 3055TIP3    H2 9130   5.349   5.892   1.877 -0.5695  0.3681  2.0392
 3056TIP3   OH2 9131   3.364   3.813   2.957 -0.3996 -0.2013  0.1834
 3056TIP3    H1 9132   3.450   3.805   2.999  0.9672  1.1386 -2.1310
 3056TIP3    H2 9133   3.327   3.894   2.992 -0.8478 -0.8819  1.3331
 3057TIP3   OH2 9134   5.728   1.875   2.565 -0.0907 -0.1646 -0.2238
 3057TIP3    H1 9135   5.683   1.791   2.563  1.9573 -1.3239 -2.7840
 3057TIP3    H2 9136   5.696   1.922   2.489 -0.9224  1.2882  0.9673
 3058TIP3   OH2 9137   1.991   3.999   5.384 -0.4552  0.1445 -0.1687
 3058TIP3    H1 9138   2.022   4.076   5.337 -1.8858  1.6251  1.1833
 3058TIP3    H2 9139   1.918   3.967   5.332 -0.1234 -0.0472 -0.5170
 3059TIP3   OH2 9140   6.791   2.089   3.887  0.2233 -0.1314 -0.4894
 3059TIP3    H1 9141   6.775   2.105   3.980 -1.0534 -0.0206 -0.7063
 3059TIP3    H2 9142   6.870   2.036   3.884 -1.2048 -2.5349  0.8441
 3060TIP3   OH2 9143   0.997   5.855   3.707  0.2721 -0.0914 -0.3470
 3060TIP3    H1 9144   0.913   5.881   3.672  0.5514  0.0354 -0.9261
 3060TIP3    H2 9145   1.028   5.931   3.756  0.3021  0.0476 -0.5875
 3061TIP3   OH2 9146   4.171   2.185   5.551 -0.0248  0.3063 -0.2972
 3061TIP3    H1 9147   4.176   2.179   5.647  0.5710  0.1420 -0.3361
 3061TIP3    H2 9148   4.214   2.105   5.520  0.3826  0.6796 -0.7086
 3062TIP3   OH2 9149   2.998   3.364   1.651  0.0573  0.5795  0.1489
 3062TIP3    H1 9150   2.928   3.428   1.637  2.3177  2.8351 -1.8399
 3062TIP3    H2 9151   3.034   3.385   1.737 -1.8579 -0.9018  1.4034
 3063TIP3   OH2 9152   4.160   0.097   2.288  0.3193 -0.0196  0.3293
 3063TIP3    H1 9153   4.188   0.032   2.353 -1.5908 -3.0995 -1.7045
 3063TIP3    H2 9154   4.241   0.139   2.260  1.5478 -0.8661  2.3671
 3064TIP3   OH2 9155   6.284   4.381   3.018 -0.2015 -0.7358  0.4521
 3064TIP3    H1 9156   6.320   4.416   3.099  0.0824 -0.3068  0.1448
 3064TIP3    H2 9157   6.361   4.361   2.964 -0.3953 -0.7258  0.1659
 3065TIP3   OH2 9158   1.513   4.816   3.306 -0.7004 -0.2950  0.0016
 3065TIP3    H1 9159   1.467   4.782   3.383 -0.4351  1.0009  0.7659
 3065TIP3    H2 9160   1.581   4.873   3.343 -0.8960  0.7488 -1.2056
 3066TIP3   OH2 9161   0.210   6.017   3.476 -0.1619 -0.0558  0.6437
 3066TIP3    H1 9162   0.120   5.986   3.465 -0.0745 -1.0392  2.4267
 3066TIP3    H2 9163   0.238   5.982   3.560  1.2798  1.7585  0.9837
 3067TIP3   OH2 9164   2.078   3.362   3.287 -0.3377 -0.1801  0.5623
 3067TIP3    H1 9165   2.128   3.367   3.369  1.1532 -3.0928 -0.0490
 3067TIP3    H2 9166   2.119   3.426   3.230  1.2938 -0.9342  0.8251
 3068TIP3   OH2 9167   4.314   6.410   0.410 -0.0093  0.1865  0.0726
 3068TIP3    H1 9168   4.307   6.315   0.422  1.2924  0.3128  2.4681
 3068TIP3    H2 9169   4.310   6.423   0.316 -0.6613 -2.2038 -0.2891
 3069TIP3   OH2 9170   1.146   4.726   2.103  0.6821 -0.0772  0.0060
 3069TIP3    H1 9171   1.129   4.783   2.027 -0.4684 -1.2060 -0.6236
 3069TIP3    H2 9172   1.211   4.773   2.154 -0.3930  1.9184 -0.3667
 3070TIP3   OH2 9173   5.095   0.107   0.482 -0.3489  0.3486  0.1055
 3070TIP3    H1 9174   5.061   0.019   0.464 -2.5734  0.6852  2.1737
 3070TIP3    H2 9175   5.123   0.140   0.397  3.1459 -3.2666 -0.5157
 3071TIP3   OH2 9176   5.959   4.426   3.818 -0.0323 -0.0742 -0.8327
 3071TIP3    H1 9177   5.876   4.446   3.776  0.5956  0.3445 -1.9261
 3071TIP3    H2 9178   5.999   4.359   3.762  0.3383 -0.3013 -0.3010
 3072TIP3   OH2 9179   0.945   1.203   4.615  0.6700  0.3930  0.4595
 3072TIP3    H1 9180   0.983   1.290   4.605  2.1016 -0.2358  0.2528
 3072TIP3    H2 9181   1.018   1.143   4.603 -0.4246 -0.8775 -0.1130
 3073TIP3   OH2 9182   6.918   2.455   3.995  0.3316 -0.1008  0.1919
 3073TIP3    H1 9183   6.931   2.416   3.908  0.2458 -0.2357  0.2410
 3073TIP3    H2 9184   6.824   2.465   4.003  0.3583  0.1997  0.1428
 3074TIP3   OH2 9185   5.667   0.503   4.293  0.3130 -0.5783 -0.4542
 3074TIP3    H1 9186   5.679   0.408   4.297  1.3741 -0.4531 -0.4438
 3074TIP3    H2 9187   5.579   0.514   4.258 -0.1683 -1.5710  0.3822
 3075TIP3   OH2 9188   3.793   3.328   3.216 -0.0263  0.1418  0.4366
 3075TIP3    H1 9189   3.829   3.416   3.226 -0.1030 -0.0675  3.5413
 3075TIP3    H2 9190   3.821   3.282   3.295  0.1703 -2.7221 -1.1713
 3076TIP3   OH2 9191   0.393   5.105   1.266 -0.0001 -0.1421  0.0188
 3076TIP3    H1 9192   0.302   5.134   1.259 -0.0546 -0.4167 -0.4745
 3076TIP3    H2 9193   0.443   5.186   1.276 -0.2733  0.0314 -0.0018
 3077TIP3   OH2 9194   5.359   0.771   4.184 -0.0214  0.2741  0.7128
 3077TIP3    H1 9195   5.321   0.843   4.234 -1.6123 -0.9238  1.3047
 3077TIP3    H2 9196   5.365   0.699   4.247 -0.6818 -0.8186 -0.4399
 3078TIP3   OH2 9197   6.995   0.844   3.118  0.3058 -0.4144 -0.2707
 3078TIP3    H1 9198   7.019   0.827   3.209 -1.3924 -0.1140  0.2692
 3078TIP3    H2 9199   6.917   0.790   3.103  0.5383 -0.4325 -1.5367
 3079TIP3   OH2 9200   0.541   2.604   3.372 -0.1043 -0.3613  0.2694
 3079TIP3    H1 9201   0.489   2.524   3.365  0.7269 -0.7641 -2.3022
 3079TIP3    H2 9202   0.493   2.669   3.319  0.6165  0.0410  0.0960
 3080TIP3   OH2 9203   5.307   2.340   0.776 -0.1633 -0.8392  0.4764
 3080TIP3    H1 9204   5.258   2.266   0.738  0.2783 -1.5682  1.2930
 3080TIP3    H2 9205   5.399   2.315   0.766 -0.0165 -0.4836  0.9400
 3081TIP3   OH2 9206   1.852   0.418   1.017 -0.0554  0.2763 -0.2473
 3081TIP3    H1 9207   1.891   0.341   1.059 -0.1455  0.6610  0.5376
 3081TIP3    H2 9208   1.927   0.467   0.983  0.1115  0.7225  0.7599
 3082TIP3   OH2 9209   2.405   4.569   2.095  0.4137  0.4207 -0.4337
 3082TIP3    H1 9210   2.342   4.537   2.030  1.1101 -2.1603  0.0340
 3082TIP3    H2 9211   2.380   4.660   2.109 -3.2640 -0.4237 -0.2359
 3083TIP3   OH2 9212   2.029   6.057   3.595  0.4294 -0.0055 -0.0231
 3083TIP3    H1 9213   1.991   6.123   3.653 -0.3725 -0.2138 -0.3070
 3083TIP3    H2 9214   2.123   6.064   3.610  0.2573  0.2002  1.0292
 3084TIP3   OH2 9215   1.103   1.364   3.752 -0.7033 -0.2081  0.3416
 3084TIP3    H1 9216   1.068   1.352   3.840 -0.8573 -0.9380  0.1858
 3084TIP3    H2 9217   1.070   1.289   3.703 -0.2366 -0.0483 -0.2220
 3085TIP3   OH2 9218   7.085   1.729   2.488 -0.6491  0.2711 -0.6843
 3085TIP3    H1 9219   7.161   1.733   2.431 -0.1637 -1.5887 -0.2315
 3085TIP3    H2 9220   7.099   1.800   2.551  0.2267  0.5378 -1.1628
 3086TIP3   OH2 9221   3.546   5.860   0.142  0.2268  0.2937  0.0479
 3086TIP3    H1 9222   3.543   5.888   0.233  0.3867 -1.1149  0.5166
 3086TIP3    H2 9223   3.456   5.870   0.111  0.4225  1.9923 -0.0564
 3087TIP3   OH2 9224   4.801   0.302   4.037 -0.2538 -0.3239  0.2996
 3087TIP3    H1 9225   4.731   0.238   4.053 -1.1626  0.1925 -1.3051
 3087TIP3    H2 9226   4.851   0.264   3.965  1.5577 -0.9673  1.8177
 3088TIP3   OH2 9227   0.941   2.968   4.836  0.2166  0.2898  0.0572
 3088TIP3    H1 9228   0.900   2.950   4.752  0.7782  0.4972 -0.2664
 3088TIP3    H2 9229   0.950   2.882   4.877 -0.2233  0.2070 -0.0110
 3089TIP3   OH2 9230   6.160   4.192   0.236  0.0570 -0.2275  0.2366
 3089TIP3    H1 9231   6.112   4.188   0.153  1.6864 -0.5610 -0.7422
 3089TIP3    H2 9232   6.238   4.139   0.220  0.3725 -0.3491  2.0290
 3090TIP3   OH2 9233   0.471   0.049   1.059 -0.0256  0.6766  0.0555
 3090TIP3    H1 9234   0.376   0.042   1.070  0.1017 -0.3155  0.6233
 3090TIP3    H2 9235   0.503  -0.042   1.061  0.6609  0.7660 -2.8518
 3091TIP3   OH2 9236   4.944   1.296   2.298  0.4835  0.4443  0.0818
 3091TIP3    H1 9237   4.913   1.386   2.308  0.9139  0.4638  1.4970
 3091TIP3    H2 9238   4.915   1.270   2.210  2.6655  2.8653 -1.5105
 3092TIP3   OH2 9239   4.199   5.222   3.854  0.2196  0.2803  0.2245
 3092TIP3    H1 9240   4.188   5.270   3.936  1.5103 -1.0140  1.2322
 3092TIP3    H2 9241   4.225   5.288   3.790 -0.4170  1.2594  0.9608
 3093TIP3   OH2 9242   6.899   6.030   2.118 -0.1601 -0.0188  0.6750
 3093TIP3    H1 9243   6.942   6.093   2.177  2.4674 -0.9538 -0.0923
 3093TIP3    H2 9244   6.891   6.077   2.035 -0.7923  0.2095  0.8624
 3094TIP3   OH2 9245   0.156   1.540   5.082  0.4413 -0.0584 -0.2791
 3094TIP3    H1 9246   0.142   1.578   5.168 -0.0956 -1.0232  0.0793
 3094TIP3    H2 9247   0.198   1.609   5.031  0.9166  0.4649  0.7986
 3095TIP3   OH2 9248   1.768   5.290   1.023  0.1606 -0.2188 -0.0034
 3095TIP3    H1 9249   1.706   5.217   1.023 -0.6897  0.4770 -0.0066
 3095TIP3    H2 9250   1.782   5.310   1.116  0.5645 -0.5241  0.0023
 3096TIP3   OH2 9251   6.016   0.836   2.161 -0.3954  0.0314  0.3794
 3096TIP3    H1 9252   5.969   0.898   2.105  1.0517  0.0184 -0.8974
 3096TIP3    H2 9253   6.032   0.760   2.106  0.2946 -0.3477  1.0730
 3097TIP3   OH2 9254   4.171   3.858   5.450 -0.7410  0.1515 -0.0243
 3097TIP3    H1 9255   4.241   3.794   5.436 -0.7212  0.2483 -0.3879
 3097TIP3    H2 9256   4.183   3.922   5.379  0.0811  1.3011  1.1074
 3098TIP3   OH2 9257   2.985   4.703   2.605 -1.0790 -0.2877  0.6545
 3098TIP3    H1 9258   2.965   4.760   2.680  0.1735  0.9663  0.0825
 3098TIP3    H2 9259   3.024   4.761   2.540 -1.1295 -1.5549 -0.5610
 3099TIP3   OH2 9260   3.679   0.458   3.804 -0.2833  0.1639  0.0608
 3099TIP3    H1 9261   3.634   0.374   3.814  0.6217 -0.2453  0.8608
 3099TIP3    H2 9262   3.731   0.448   3.724 -1.6661  0.6891 -0.9477
 3100TIP3   OH2 9263   7.162   4.353   4.674 -0.3851  0.0348 -0.5580
 3100TIP3    H1 9264   7.067   4.344   4.664 -0.5077  0.8628 -0.2328
 3100TIP3    H2 9265   7.173   4.414   4.747  0.4514 -2.3762  1.4681
 3101TIP3   OH2 9266   5.164   5.373   5.469 -0.8570  0.2051 -0.3494
 3101TIP3    H1 9267   5.131   5.368   5.559 -0.3990 -1.9969 -0.2393
 3101TIP3    H2 9268   5.119   5.302   5.424  1.1058 -0.6489 -1.0687
 3102TIP3   OH2 9269   3.461   1.557   1.187 -0.2711 -0.3184 -0.2923
 3102TIP3    H1 9270   3.528   1.527   1.125  0.5717  0.6095  0.1306
 3102TIP3    H2 9271   3.432   1.477   1.231  1.1499 -0.6685  0.0686
 3103TIP3   OH2 9272   1.365   1.865   3.243  0.1449  0.0087 -0.4384
 3103TIP3    H1 9273   1.372   1.952   3.204  2.2260 -0.0023 -0.2370
 3103TIP3    H2 9274   1.311   1.878   3.321  1.4810  1.4385  0.3188
 3104TIP3   OH2 9275   3.027   6.271   4.634  0.3098  0.0051 -0.0359
 3104TIP3    H1 9276   2.933   6.273   4.617  0.4625 -0.1068 -0.9291
 3104TIP3    H2 9277   3.037   6.314   4.719 -0.3933  1.5085 -0.6830
 3105TIP3   OH2 9278   0.336   5.673   3.749  0.7382 -0.6835 -0.1502
 3105TIP3    H1 9279   0.410   5.679   3.690  0.6425 -1.6622 -0.3876
 3105TIP3    H2 9280   0.370   5.701   3.834  1.2644 -0.7048 -0.3512
 3106TIP3   OH2 9281   2.662   1.075   4.731  0.2255  0.0804  0.0248
 3106TIP3    H1 9282   2.669   1.004   4.667  0.0403 -0.0295  0.1241
 3106TIP3    H2 9283   2.667   1.155   4.679 -0.8484 -0.0036 -0.2393
 3107TIP3   OH2 9284   5.750   3.280   4.490  0.8901 -0.1849  0.2089
 3107TIP3    H1 9285   5.660   3.266   4.458  0.6506  0.3461  0.6338
 3107TIP3    H2 9286   5.759   3.220   4.563  2.2054 -3.0927 -2.1400
 3108TIP3   OH2 9287   6.414   5.731   2.768 -0.6314 -0.5567 -0.2082
 3108TIP3    H1 9288   6.502   5.754   2.798  0.3466 -2.7801 -1.1133
 3108TIP3    H2 9289   6.365   5.813   2.770  1.3634  0.6866  0.6222
 3109TIP3   OH2 9290   2.078   4.554   5.757 -0.8863 -0.6625  0.4767
 3109TIP3    H1 9291   1.991   4.518   5.744 -1.4884  0.8342  0.2390
 3109TIP3    H2 9292   2.067   4.622   5.824 -0.2244  0.6467 -0.6842
 3110TIP3   OH2 9293   3.834   4.111   4.411 -0.1500 -0.5306 -0.0893
 3110TIP3    H1 9294   3.929   4.105   4.401 -0.1824 -1.6808  0.1873
 3110TIP3    H2 9295   3.812   4.198   4.377  1.2010  0.4555  1.4350
 3111TIP3   OH2 9296   6.297   6.189   5.587 -0.4131  0.0126  0.5514
 3111TIP3    H1 9297   6.283   6.128   5.514  0.4931  1.0100 -0.4916
 3111TIP3    H2 9298   6.219   6.244   5.586 -0.9551 -0.7212  1.1160
 3112TIP3   OH2 9299   6.501   4.100   1.656  0.0933  0.1013  0.3261
 3112TIP3    H1 9300   6.463   4.172   1.606  0.5187  0.4525  0.5043
 3112TIP3    H2 9301   6.591   4.094   1.625  0.4541  0.5254  1.2708
 3113TIP3   OH2 9302   6.490   5.820   0.534  0.2304 -0.7696 -0.0325
 3113TIP3    H1 9303   6.574   5.825   0.488  0.1180 -0.8873 -0.2465
 3113TIP3    H2 9304   6.440   5.754   0.487 -0.2531 -0.1921 -0.3352
 3114TIP3   OH2 9305   0.850   4.385   4.000  0.8345  0.0318  0.6767
 3114TIP3    H1 9306   0.889   4.409   3.916 -0.1254  0.2442  0.2802
 3114TIP3    H2 9307   0.921   4.341   4.048  1.2799 -0.4659 -0.4032
 3115TIP3   OH2 9308   0.234   0.655   3.592  0.4594  0.0581 -0.1829
 3115TIP3    H1 9309   0.187   0.592   3.537 -0.8855  1.0346 -0.2080
 3115TIP3    H2 9310   0.243   0.733   3.536 -0.8764  1.0444  0.9120
 3116TIP3   OH2 9311   6.924   3.214   5.442  0.7478  0.3355  0.2895
 3116TIP3    H1 9312   6.990   3.155   5.404  1.3712  1.2022 -0.0167
 3116TIP3    H2 9313   6.868   3.238   5.368 -1.3153 -2.0988  0.9290
 3117TIP3   OH2 9314   5.101   5.578   4.994 -0.4028 -0.1564 -0.0491
 3117TIP3    H1 9315   5.106   5.559   4.900  0.0627  0.4846 -0.1609
 3117TIP3    H2 9316   5.085   5.672   4.998  2.2953  0.3580  0.5074
 3118TIP3   OH2 9317   1.099   5.626   3.116 -0.3178 -0.6475  0.1849
 3118TIP3    H1 9318   1.043   5.621   3.194 -0.4242 -0.2785  0.1390
 3118TIP3    H2 9319   1.038   5.620   3.043 -0.1390 -1.7580  0.1227
 3119TIP3   OH2 9320   5.650   3.959   2.849  0.3161 -0.2850 -0.3872
 3119TIP3    H1 9321   5.643   3.881   2.905 -0.6322  2.0046  3.0200
 3119TIP3    H2 9322   5.564   4.000   2.854  0.9213  1.2486 -1.6948
 3120TIP3   OH2 9323   4.449   5.098   3.208 -0.6370 -0.2845 -0.5721
 3120TIP3    H1 9324   4.487   5.175   3.250 -0.7812 -0.0532 -0.8581
 3120TIP3    H2 9325   4.359   5.095   3.239 -0.0505 -1.6093  1.1777
 3121TIP3   OH2 9326   3.390   3.057   4.795 -0.3544  0.2059 -0.3385
 3121TIP3    H1 9327   3.297   3.039   4.785 -0.2650 -0.9162  0.6297
 3121TIP3    H2 9328   3.414   3.017   4.879  1.1610 -0.2344 -0.9397
 3122TIP3   OH2 9329   2.582   3.381   1.490  0.4153  0.1330  0.7379
 3122TIP3    H1 9330   2.606   3.297   1.451  0.6634  0.5655 -0.0576
 3122TIP3    H2 9331   2.535   3.427   1.421 -0.8798  0.1464  1.5858
 3123TIP3   OH2 9332   3.125   2.420   2.031  0.2958  0.2288  0.1247
 3123TIP3    H1 9333   3.172   2.501   2.050 -1.2337  1.2609 -0.2557
 3123TIP3    H2 9334   3.123   2.414   1.936 -2.4414  1.6010 -0.0048
 3124TIP3   OH2 9335   0.565   0.877   3.096  0.2975  0.3737 -0.2916
 3124TIP3    H1 9336   0.643   0.926   3.121  0.7357 -0.1544 -0.6045
 3124TIP3    H2 9337   0.558   0.808   3.162  1.8721 -1.4714 -1.9503
 3125TIP3   OH2 9338   3.832   5.861   5.672  0.2230 -0.4000  0.8055
 3125TIP3    H1 9339   3.858   5.771   5.694 -0.2556 -0.5542  0.7497
 3125TIP3    H2 9340   3.830   5.906   5.756  0.3491 -0.4688  0.8473
 3126TIP3   OH2 9341   0.560   2.356   3.878 -0.6938 -0.1782 -0.1767
 3126TIP3    H1 9342   0.485   2.370   3.937 -1.4356 -0.8913 -0.9195
 3126TIP3    H2 9343   0.552   2.426   3.813 -1.0215 -0.5730 -0.5597
 3127TIP3   OH2 9344   3.522   4.299   1.182  0.1755 -0.1585  0.1586
 3127TIP3    H1 9345   3.578   4.244   1.238 -0.5139 -0.3090  0.7189
 3127TIP3    H2 9346   3.567   4.383   1.179  0.6660 -0.4115  0.2250
 3128TIP3   OH2 9347   7.149   6.223   4.539 -0.1983  0.1058  0.3516
 3128TIP3    H1 9348   7.233   6.256   4.572  1.7463 -1.8343 -2.2041
 3128TIP3    H2 9349   7.114   6.172   4.611  0.8004  0.9535  1.4885
 3129TIP3   OH2 9350   5.279   3.510   0.403  0.5613  0.2385 -0.1130
 3129TIP3    H1 9351   5.293   3.554   0.487 -2.6178  1.2343  0.0268
 3129TIP3    H2 9352   5.213   3.443   0.422  0.0407  0.2603 -1.7183
 3130TIP3   OH2 9353   6.290   1.231   4.393 -0.5210 -0.4532 -0.5653
 3130TIP3    H1 9354   6.282   1.284   4.313 -0.8349  0.1678 -0.1340
 3130TIP3    H2 9355   6.236   1.278   4.457  0.6147 -0.3477  0.3246
 3131TIP3   OH2 9356   0.262   4.323   1.996 -0.1903  0.0740  0.5037
 3131TIP3    H1 9357   0.347   4.353   2.027 -1.1886  0.8626  2.7078
 3131TIP3    H2 9358   0.200   4.358   2.060 -2.0516 -1.5391 -0.3225
 3132TIP3   OH2 9359   4.638   5.313   1.776  0.3454  0.1153 -0.8077
 3132TIP3    H1 9360   4.703   5.246   1.798  1.4297  1.2628 -0.3994
 3132TIP3    H2 9361   4.665   5.390   1.827 -1.4409  0.5768 -0.4921
 3133TIP3   OH2 9362   3.756   3.266  -0.012  0.5180  0.0994 -0.0438
 3133TIP3    H1 9363   3.844   3.230  -0.001  0.5825  0.7245  1.6993
 3133TIP3    H2 9364   3.716   3.261   0.075 -1.4207 -0.7354 -0.9171
 3134TIP3   OH2 9365   4.115   6.537   3.805  0.3951 -0.1113 -0.0069
 3134TIP3    H1 9366   4.164   6.551   3.886 -0.4072 -0.3613  0.5338
 3134TIP3    H2 9367   4.065   6.457   3.820 -0.1765  0.1292 -0.5421
 3135TIP3   OH2 9368   2.240   2.982   1.559 -0.5133 -0.4740 -0.2129
 3135TIP3    H1 9369   2.161   2.953   1.513 -0.8714 -0.4682  0.3971
 3135TIP3    H2 9370   2.312   2.954   1.501 -0.8965 -1.6438 -0.1621
 3136TIP3   OH2 9371   3.521   3.039   5.336  0.5566  0.2967 -0.0070
 3136TIP3    H1 9372   3.563   3.093   5.403  0.0256 -0.4440  0.9472
 3136TIP3    H2 9373   3.539   2.949   5.363  0.3828 -0.0168 -0.9021
 3137TIP3   OH2 9374   3.704   1.332   4.274  0.2658 -0.4401  0.2201
 3137TIP3    H1 9375   3.635   1.267   4.284  0.7977 -0.9708  0.5039
 3137TIP3    H2 9376   3.782   1.281   4.253  0.7584  0.0740  0.7704
 3138TIP3   OH2 9377   4.466   2.456   2.055  0.0007 -0.8069  0.0040
 3138TIP3    H1 9378   4.556   2.451   2.088  0.5484  0.4402 -1.2150
 3138TIP3    H2 9379   4.412   2.461   2.134  0.9705 -1.6846  0.7607
 3139TIP3   OH2 9380   7.167   0.036   0.706  0.2350  0.0419 -0.2321
 3139TIP3    H1 9381   7.132  -0.051   0.684 -0.8037  0.4822 -0.4080
 3139TIP3    H2 9382   7.101   0.074   0.765  1.7068 -0.0887  1.5707
 3140TIP3   OH2 9383   2.931   2.861   0.726  0.1450  0.0584  0.0110
 3140TIP3    H1 9384   2.957   2.864   0.634  2.1630  0.2738  0.5466
 3140TIP3    H2 9385   2.928   2.953   0.753 -0.2501 -0.0156  0.2345
 3141TIP3   OH2 9386   6.664   2.362   2.796  0.4027 -0.3417 -0.6304
 3141TIP3    H1 9387   6.701   2.311   2.724 -0.7146 -1.0916 -0.7108
 3141TIP3    H2 9388   6.714   2.335   2.873 -0.8652 -2.4795 -0.4644
 3142TIP3   OH2 9389   2.594   4.084   5.401  0.0170  0.3623  0.0395
 3142TIP3    H1 9390   2.552   4.162   5.437  1.1649  1.9102 -1.8159
 3142TIP3    H2 9391   2.607   4.104   5.308  0.4640 -2.0006 -0.4653
 3143TIP3   OH2 9392   3.599   6.151   2.599  0.9390  0.0964  0.1028
 3143TIP3    H1 9393   3.587   6.103   2.681  0.7433  2.1993  1.3742
 3143TIP3    H2 9394   3.694   6.153   2.586  0.9119 -1.3746 -0.4628
 3144TIP3   OH2 9395   1.364   1.604   4.478  0.2275 -0.0650 -0.0242
 3144TIP3    H1 9396   1.269   1.609   4.489  0.1458  0.3245 -0.8750
 3144TIP3    H2 9397   1.394   1.557   4.556 -0.4692  1.3286  1.1480
 3145TIP3   OH2 9398   3.572   5.604   2.362  0.5481 -0.2897 -0.0291
 3145TIP3    H1 9399   3.565   5.638   2.452  1.9492 -2.3823  0.9569
 3145TIP3    H2 9400   3.604   5.678   2.311  0.7232  0.6853  1.4206
 3146TIP3   OH2 9401   0.730   5.929   3.667  0.1920  0.3730 -0.9372
 3146TIP3    H1 9402   0.703   6.006   3.716  0.3802  0.9860 -1.7720
 3146TIP3    H2 9403   0.696   5.943   3.579 -4.0895 -2.7436 -0.0984
 3147TIP3   OH2 9404   3.750   0.880   5.356 -0.2720  0.1377  0.9627
 3147TIP3    H1 9405   3.753   0.944   5.284  1.0386  0.1718  1.0172
 3147TIP3    H2 9406   3.736   0.933   5.434  0.5728  0.3494  0.9794
 3148TIP3   OH2 9407   3.140   3.264   4.551 -0.6294 -0.2233  0.0594
 3148TIP3    H1 9408   3.073   3.278   4.484  0.3375 -0.0845 -0.8912
 3148TIP3    H2 9409   3.121   3.330   4.617 -3.1993 -1.9918  1.2744
 3149TIP3   OH2 9410   1.681   3.486   2.763  0.0606 -0.3506  0.7114
 3149TIP3    H1 9411   1.657   3.407   2.715 -1.3385 -0.0453  0.8773
 3149TIP3    H2 9412   1.601   3.539   2.765  0.2964  0.0178  2.6633
 3150TIP3   OH2 9413   4.083   1.595   2.634 -0.0827  0.1722  0.0951
 3150TIP3    H1 9414   4.071   1.547   2.716  1.2407  0.5507  0.5283
 3150TIP3    H2 9415   4.022   1.553   2.573 -0.8139 -0.3591  1.1621
 3151TIP3   OH2 9416   3.218   4.871   5.769  0.0665 -0.0384 -0.7514
 3151TIP3    H1 9417   3.204   4.776   5.769 -2.0746  0.2241 -0.9746
 3151TIP3    H2 9418   3.285   4.885   5.703  1.1455 -1.4648 -0.0278
 3152TIP3   OH2 9419   7.165   4.106   4.516  0.0621 -0.0655  0.0698
 3152TIP3    H1 9420   7.203   4.181   4.562 -0.6244  0.6925 -0.5750
 3152TIP3    H2 9421   7.117   4.059   4.584 -0.1774  0.5373  0.3301
 3153TIP3   OH2 9422   2.869   1.380   1.540  0.3313  0.3485 -0.3558
 3153TIP3    H1 9423   2.783   1.340   1.552  0.7179 -0.6203 -0.6492
 3153TIP3    H2 9424   2.855   1.473   1.554 -0.6873  0.1554 -0.0217
 3154TIP3   OH2 9425   2.328   2.073   2.615 -0.1670  0.5923  0.3810
 3154TIP3    H1 9426   2.372   2.055   2.698  0.7936 -0.1427 -0.2640
 3154TIP3    H2 9427   2.393   2.051   2.548 -1.5997 -0.8628 -0.6230
 3155TIP3   OH2 9428   0.496   1.845   0.715  0.0629 -0.2659 -0.5490
 3155TIP3    H1 9429   0.539   1.929   0.700 -0.0967 -0.0690  0.0582
 3155TIP3    H2 9430   0.507   1.829   0.808 -0.7890 -0.4197 -0.4616
 3156TIP3   OH2 9431   6.765   5.652   3.922 -0.1808 -0.5382  0.1732
 3156TIP3    H1 9432   6.857   5.634   3.944  0.2594  0.1328 -0.9729
 3156TIP3    H2 9433   6.752   5.607   3.838  0.1942  2.1474 -1.4649
 3157TIP3   OH2 9434   4.304   5.015   5.348 -0.3499 -0.8410 -0.1784
 3157TIP3    H1 9435   4.398   5.018   5.330  0.1709  0.2241  2.2011
 3157TIP3    H2 9436   4.295   4.951   5.418 -1.2788 -0.3830  0.1438
 3158TIP3   OH2 9437   4.991   2.059   2.602  0.4714  0.0167 -0.6342
 3158TIP3    H1 9438   5.030   1.975   2.627 -0.7823 -0.1173  1.0477
 3158TIP3    H2 9439   4.906   2.036   2.563 -0.1137  0.5089  0.3234
 3159TIP3   OH2 9440   1.332   5.376   2.459  0.8047 -0.1919 -0.6891
 3159TIP3    H1 9441   1.375   5.406   2.539  0.9300  0.3947 -0.9733
 3159TIP3    H2 9442   1.398   5.321   2.416  0.2997 -1.5794  0.2225
 3160TIP3   OH2 9443   5.444   1.637   3.479 -0.1676 -0.0461  0.1109
 3160TIP3    H1 9444   5.438   1.708   3.544 -0.7240  0.1622 -0.1626
 3160TIP3    H2 9445   5.482   1.678   3.402  0.3623 -0.2626  0.2514
 3161TIP3   OH2 9446   2.493   1.631   5.039  0.3682 -0.6225  0.0659
 3161TIP3    H1 9447   2.451   1.639   4.953 -0.0391  0.4976  0.3530
 3161TIP3    H2 9448   2.489   1.538   5.058 -3.3294 -0.4817  0.6893
 3162TIP3   OH2 9449   4.497   1.730   4.718 -0.0041  0.0619 -0.1409
 3162TIP3    H1 9450   4.422   1.696   4.669 -0.3893  1.6743 -0.7607
 3162TIP3    H2 9451   4.559   1.758   4.651  0.6795 -0.2399  0.3555
 3163TIP3   OH2 9452   2.119   2.666   3.442  0.3481 -0.7512 -0.5729
 3163TIP3    H1 9453   2.120   2.596   3.376 -0.7604  0.1841 -1.6347
 3163TIP3    H2 9454   2.033   2.707   3.432 -0.5753 -1.5952  2.6088
 3164TIP3   OH2 9455   1.999   1.709   3.272 -0.1573  0.1753  0.1359
 3164TIP3    H1 9456   1.943   1.742   3.342  0.5549 -1.9815  1.8267
 3164TIP3    H2 9457   1.977   1.616   3.265 -0.5287  0.3910 -2.8974
 3165TIP3   OH2 9458   1.671   2.702   4.627  0.2752 -0.0008  0.1226
 3165TIP3    H1 9459   1.729   2.761   4.676 -1.3696  1.2597  0.6546
 3165TIP3    H2 9460   1.584   2.741   4.637 -1.2687 -3.4743  2.0792
 3166TIP3   OH2 9461   0.810   6.584   3.226  0.3742  0.1193  1.2172
 3166TIP3    H1 9462   0.733   6.623   3.267  0.5726  1.3090  0.5311
 3166TIP3    H2 9463   0.813   6.624   3.139  0.8328 -1.1727  0.6138
 3167TIP3   OH2 9464   2.349   4.087   0.580  0.1565 -0.1035 -0.4694
 3167TIP3    H1 9465   2.386   4.174   0.562 -2.4328  1.1887  0.0075
 3167TIP3    H2 9466   2.409   4.049   0.645  1.8344  0.9048 -1.3378
 3168TIP3   OH2 9467   5.767   2.401   1.851 -0.3034 -0.9762  0.2288
 3168TIP3    H1 9468   5.825   2.403   1.775 -1.5362 -0.5446 -0.7496
 3168TIP3    H2 9469   5.816   2.445   1.921 -0.0999  0.9961 -1.0656
 3169TIP3   OH2 9470   4.207   2.496   0.035  0.7022  0.2318 -0.1991
 3169TIP3    H1 9471   4.253   2.519   0.116  0.4151  0.9259 -0.2232
 3169TIP3    H2 9472   4.152   2.421   0.059 -0.2534  1.1360  0.5784
 3170TIP3   OH2 9473   6.097   4.238   2.285  0.3549 -0.4899  0.2494
 3170TIP3    H1 9474   6.040   4.299   2.333  0.9264 -0.6640  1.1818
 3170TIP3    H2 9475   6.137   4.291   2.216  0.1113 -0.0407  0.4494
 3171TIP3   OH2 9476   6.477   0.891   0.697  0.4254  0.0007  0.0010
 3171TIP3    H1 9477   6.425   0.971   0.709  0.6134 -0.1178  1.8789
 3171TIP3    H2 9478   6.530   0.909   0.619 -0.8828  0.9454 -0.7263
 3172TIP3   OH2 9479   4.606   4.850   3.238  0.3967  0.3693  0.6092
 3172TIP3    H1 9480   4.592   4.844   3.333 -1.0299 -0.7629  0.3653
 3172TIP3    H2 9481   4.556   4.928   3.213 -1.6640 -0.9066  0.4505
 3173TIP3   OH2 9482   0.480   5.961   4.478 -0.1363  0.2294  0.0197
 3173TIP3    H1 9483   0.477   5.989   4.387 -0.9384  4.3801  1.1221
 3173TIP3    H2 9484   0.389   5.956   4.505  0.1033  0.6707  0.9700
 3174TIP3   OH2 9485   1.365   4.271   3.504 -1.0705 -0.2308  0.1727
 3174TIP3    H1 9486   1.367   4.176   3.500 -1.3297 -0.2417  0.3040
 3174TIP3    H2 9487   1.302   4.297   3.437 -0.0737 -0.0904 -0.7365
 3175TIP3   OH2 9488   6.313   2.532   3.846 -0.5342  0.1857  0.1864
 3175TIP3    H1 9489   6.342   2.442   3.855  1.3150  0.6473 -0.5169
 3175TIP3    H2 9490   6.375   2.571   3.784 -1.6067  1.7985  0.0505
 3176TIP3   OH2 9491   2.671   2.292   0.600  1.1244  0.4547 -0.1721
 3176TIP3    H1 9492   2.706   2.274   0.513  1.6520 -0.2848  0.1766
 3176TIP3    H2 9493   2.682   2.210   0.647 -1.8369 -0.0804 -0.2490
 3177TIP3   OH2 9494   6.829   5.802   2.288  0.2271  0.1840 -0.4510
 3177TIP3    H1 9495   6.851   5.890   2.257  0.3658  0.5714  0.7185
 3177TIP3    H2 9496   6.736   5.792   2.266 -0.1319  1.1256  0.5159
 3178TIP3   OH2 9497   6.899   4.704   5.362  0.0432  0.1765 -0.3366
 3178TIP3    H1 9498   6.922   4.776   5.421  0.8415 -0.3608  0.0201
 3178TIP3    H2 9499   6.822   4.735   5.315 -0.5117  0.6838  0.8725
 3179TIP3   OH2 9500   0.164   0.057   5.205  0.2086  0.7713 -0.2565
 3179TIP3    H1 9501   0.139  -0.025   5.247 -2.3266  1.2919 -0.5902
 3179TIP3    H2 9502   0.134   0.125   5.266  0.0170  1.4737 -1.1158
 3180TIP3   OH2 9503   5.067   4.909   1.616  0.3263  0.2134  0.1147
 3180TIP3    H1 9504   5.012   4.852   1.669  2.0336 -1.0927  0.6067
 3180TIP3    H2 9505   5.027   4.996   1.623 -1.3206 -0.5628  0.8461
 3181TIP3   OH2 9506   3.498   2.678   3.674  0.7419 -0.3739 -0.2700
 3181TIP3    H1 9507   3.438   2.672   3.599  0.8799 -1.9479 -0.3008
 3181TIP3    H2 9508   3.542   2.593   3.675  2.1849  0.3513  0.4193
 3182TIP3   OH2 9509   4.169   0.805   5.471  0.0293  0.0159  0.2131
 3182TIP3    H1 9510   4.136   0.872   5.411  0.3065 -0.3003 -0.2972
 3182TIP3    H2 9511   4.234   0.757   5.420 -0.5650 -1.0105  0.3874
 3183TIP3   OH2 9512   6.596   1.407   4.898 -0.0536 -0.5610  0.5400
 3183TIP3    H1 9513   6.574   1.440   4.985 -1.1343 -1.9581  0.8396
 3183TIP3    H2 9514   6.641   1.324   4.916  1.2539 -0.0500 -0.2160
 3184TIP3   OH2 9515   3.841   1.187   1.387 -0.2722 -0.4543  0.0155
 3184TIP3    H1 9516   3.925   1.233   1.389  1.0237 -2.6040 -0.6999
 3184TIP3    H2 9517   3.776   1.253   1.410  1.7754  0.8891  2.4058
 3185TIP3   OH2 9518   5.469   3.101   2.712 -0.5374  0.0031  0.4703
 3185TIP3    H1 9519   5.551   3.108   2.761  0.4755 -0.4822 -1.0841
 3185TIP3    H2 9520   5.457   3.006   2.700 -0.6165  0.1179 -0.4294
 3186TIP3   OH2 9521   1.455   2.590   1.508  0.1135 -0.3556 -0.0071
 3186TIP3    H1 9522   1.528   2.647   1.531  0.9386 -1.6988  0.8189
 3186TIP3    H2 9523   1.410   2.573   1.591  0.2104 -1.3373 -0.1440
 3187TIP3   OH2 9524   6.400   1.278   4.761  0.0170  0.3347 -0.1651
 3187TIP3    H1 9525   6.456   1.321   4.825  0.3220 -1.0410  0.5201
 3187TIP3    H2 9526   6.447   1.289   4.678  0.4804  0.6198  0.1278
 3188TIP3   OH2 9527   1.334   1.590   4.108  0.0799  0.0977 -0.1078
 3188TIP3    H1 9528   1.371   1.534   4.177 -0.2576 -0.5004 -0.4069
 3188TIP3    H2 9529   1.384   1.567   4.030  0.0326  0.3165 -0.2023
 3189TIP3   OH2 9530   4.757   1.889   2.597  0.2273  0.1082 -0.0978
 3189TIP3    H1 9531   4.752   1.874   2.503  1.8101  0.4111 -0.2528
 3189TIP3    H2 9532   4.743   1.803   2.636 -0.7352  0.0300 -0.5767
 3190TIP3   OH2 9533   0.856   5.730   3.907 -0.2169  0.5908 -0.1631
 3190TIP3    H1 9534   0.907   5.768   3.835 -0.4314 -0.5508 -0.9368
 3190TIP3    H2 9535   0.777   5.784   3.912 -0.2556  0.6090 -0.8716
 3191TIP3   OH2 9536   3.665   4.521   1.082 -0.5172  0.3461  0.4345
 3191TIP3    H1 9537   3.678   4.607   1.043  0.7175  0.2796  0.6465
 3191TIP3    H2 9538   3.658   4.461   1.007  1.6229  0.2472  0.2492
 3192TIP3   OH2 9539   5.636   0.630   3.061  0.0272 -0.1045  0.8920
 3192TIP3    H1 9540   5.636   0.570   2.987  0.1523 -1.8651  2.2652
 3192TIP3    H2 9541   5.706   0.599   3.119  0.5977  1.8144  1.3343
 3193TIP3   OH2 9542   1.900   3.400   4.013  0.6625 -0.0196  0.3372
 3193TIP3    H1 9543   1.817   3.445   3.995  0.3656  0.9289  3.4573
 3193TIP3    H2 9544   1.875   3.308   4.020 -0.0213  0.1817  0.6607
 3194TIP3   OH2 9545   2.286   0.861   1.680  0.7800 -0.3440  0.3743
 3194TIP3    H1 9546   2.250   0.777   1.650 -1.5869  0.8040 -0.2138
 3194TIP3    H2 9547   2.261   0.865   1.773 -2.3172  1.1632 -0.3996
 3195TIP3   OH2 9548   0.554   6.415   5.039  0.0949  0.1366 -0.3978
 3195TIP3    H1 9549   0.597   6.500   5.028  0.7821  0.1211  1.6731
 3195TIP3    H2 9550   0.622   6.359   5.075 -0.8960 -0.7220  0.1799
 3196TIP3   OH2 9551   2.009   0.771   1.003 -0.0785  0.2177 -0.4121
 3196TIP3    H1 9552   2.058   0.832   0.948  2.3052  0.7293  2.1031
 3196TIP3    H2 9553   2.048   0.686   0.985 -0.2411  0.1612 -0.5032
 3197TIP3   OH2 9554   6.517   4.820   1.076 -0.0569  0.1451  0.1322
 3197TIP3    H1 9555   6.567   4.859   1.005  0.6284 -0.1006  0.4710
 3197TIP3    H2 9556   6.544   4.868   1.154 -0.5387  0.1789  0.2803
 3198TIP3   OH2 9557   0.459   3.688   2.171 -0.5392 -0.4499  0.3584
 3198TIP3    H1 9558   0.494   3.633   2.101 -0.8345 -1.4196  0.9503
 3198TIP3    H2 9559   0.465   3.633   2.250 -1.1584  0.2432  0.9027
 3199TIP3   OH2 9560   2.381   1.637   1.932 -0.4903  0.0968  1.2122
 3199TIP3    H1 9561   2.415   1.610   2.018  0.3404 -0.3951  0.7503
 3199TIP3    H2 9562   2.393   1.732   1.930 -0.8166  0.1508  1.7682
 3200TIP3   OH2 9563   1.853   0.019   0.117  0.1184 -0.9469 -0.2404
 3200TIP3    H1 9564   1.857   0.045   0.209 -2.8089 -1.9614  0.3137
 3200TIP3    H2 9565   1.800   0.087   0.075  0.0190 -1.3561 -0.7864
 3201TIP3   OH2 9566   6.151   4.989   4.911  0.0522  0.5406  0.2069
 3201TIP3    H1 9567   6.183   5.026   4.993  0.9313  1.3391 -0.4743
 3201TIP3    H2 9568   6.152   4.894   4.924  1.3536  0.6163  0.6952
 3202TIP3   OH2 9569   1.668   0.720   4.779  0.0800  0.7647 -0.7735
 3202TIP3    H1 9570   1.650   0.789   4.715  1.2214  0.1558 -1.8095
 3202TIP3    H2 9571   1.581   0.684   4.799 -0.6467  3.0456  0.5066
 3203TIP3   OH2 9572   6.315   2.531   5.039  0.2145  0.0336  0.0421
 3203TIP3    H1 9573   6.322   2.440   5.067 -0.9208 -0.3653 -0.8913
 3203TIP3    H2 9574   6.233   2.562   5.077  1.1225  1.0425  1.2826
 3204TIP3   OH2 9575   0.092   1.900   4.249  0.7398  0.0272  0.2468
 3204TIP3    H1 9576   0.187   1.902   4.262  0.8066 -1.9419  0.3574
 3204TIP3    H2 9577   0.080   1.927   4.158  1.3523  0.7319  0.3621
 3205TIP3   OH2 9578   4.083   3.921   4.554  0.1312  0.0082 -0.1103
 3205TIP3    H1 9579   4.105   3.997   4.500  1.2319 -1.0039 -1.1678
 3205TIP3    H2 9580   4.089   3.847   4.493 -2.3984 -0.7958  0.5149
 3206TIP3   OH2 9581   5.542   1.882   2.310  0.0703  0.2501 -0.3367
 3206TIP3    H1 9582   5.513   1.864   2.221  0.4545  1.5013 -0.7369
 3206TIP3    H2 9583   5.469   1.930   2.350  0.6783  1.4869 -0.6528
 3207TIP3   OH2 9584   3.648   3.740   0.263  0.3295 -0.5730 -0.5744
 3207TIP3    H1 9585   3.626   3.760   0.354  1.4031  1.0340 -0.6272
 3207TIP3    H2 9586   3.564   3.727   0.220 -0.1858 -1.7119  0.7013
 3208TIP3   OH2 9587   0.218   4.518   5.190 -0.5421  0.2894 -0.2293
 3208TIP3    H1 9588   0.244   4.452   5.254  0.5287  0.9808  0.0616
 3208TIP3    H2 9589   0.181   4.589   5.242 -1.2968  0.1151 -0.5129
 3209TIP3   OH2 9590   3.248   5.582   4.392 -0.5304  0.3846 -0.1224
 3209TIP3    H1 9591   3.333   5.626   4.386 -0.2633 -0.0372  0.3990
 3209TIP3    H2 9592   3.241   5.556   4.484 -1.8746  1.6779  0.1732
 3210TIP3   OH2 9593   0.213   1.985   0.838 -0.7510 -0.0021 -0.5002
 3210TIP3    H1 9594   0.234   1.988   0.931 -0.6448  2.2219 -0.5396
 3210TIP3    H2 9595   0.220   1.892   0.814  1.8032 -0.3138  1.1057
 3211TIP3   OH2 9596   5.150   0.443   5.424  0.6999 -0.3084  0.5955
 3211TIP3    H1 9597   5.064   0.413   5.393  1.5111 -0.6116 -1.5410
 3211TIP3    H2 9598   5.187   0.368   5.469 -0.0868 -0.2097  1.4379
 3212TIP3   OH2 9599   2.443   5.448   0.870 -0.4502 -0.3392 -0.0905
 3212TIP3    H1 9600   2.526   5.474   0.911 -0.1829 -0.0771 -0.7896
 3212TIP3    H2 9601   2.464   5.370   0.820 -1.4028 -2.4564  2.5771
 3213TIP3   OH2 9602   5.891   4.821   4.700 -0.5469  0.1126 -0.1633
 3213TIP3    H1 9603   5.879   4.800   4.608  0.6854 -1.2536 -0.0470
 3213TIP3    H2 9604   5.826   4.767   4.746  1.7033 -2.6598  0.0299
 3214TIP3   OH2 9605   7.158   2.523   4.584  0.1007 -0.0809  0.1522
 3214TIP3    H1 9606   7.085   2.488   4.634 -0.6871  1.3387  0.0423
 3214TIP3    H2 9607   7.165   2.615   4.611  1.0041  0.1567 -0.7923
 3215TIP3   OH2 9608   7.025   6.031   0.664 -0.2769 -0.0622 -0.0457
 3215TIP3    H1 9609   6.981   5.951   0.693 -1.0588 -0.3266 -1.8331
 3215TIP3    H2 9610   6.995   6.099   0.724 -2.3907 -0.4485 -0.5872
 3216TIP3   OH2 9611   6.569   2.366   0.828 -0.0518 -0.2403 -0.0870
 3216TIP3    H1 9612   6.607   2.287   0.790  0.7937  0.1303 -0.0362
 3216TIP3    H2 9613   6.478   2.365   0.800 -0.1322 -1.3891  0.1645
 3217TIP3   OH2 9614   2.802   4.013   2.778  0.2122 -0.2727 -0.0127
 3217TIP3    H1 9615   2.813   4.080   2.711  1.0964  1.3037  1.6085
 3217TIP3    H2 9616   2.886   4.009   2.823  0.0803 -2.2889  0.1344
 3218TIP3   OH2 9617   4.754   5.374   5.025 -0.5895  0.3894 -0.3780
 3218TIP3    H1 9618   4.734   5.355   5.117 -1.4484 -0.4065 -0.7180
 3218TIP3    H2 9619   4.674   5.354   4.978  0.3809 -1.0324 -1.5402
 3219TIP3   OH2 9620   1.893   5.066   3.925  0.1013  0.0438 -0.2159
 3219TIP3    H1 9621   1.815   5.092   3.974  1.2332  0.9618  1.1750
 3219TIP3    H2 9622   1.957   5.134   3.944  1.8287 -1.6045  0.1201
 3220TIP3   OH2 9623   6.472   1.423   0.329  0.0315  0.0155  0.3981
 3220TIP3    H1 9624   6.494   1.497   0.273  0.1471 -0.2855  0.0404
 3220TIP3    H2 9625   6.452   1.352   0.268 -0.8823 -0.0217  0.7241
 3221TIP3   OH2 9626   2.707   1.731   1.958 -0.1345  0.0629 -0.0131
 3221TIP3    H1 9627   2.621   1.772   1.947  0.9797  2.6064 -0.0522
 3221TIP3    H2 9628   2.716   1.672   1.884 -2.4324 -1.4508  0.8341
 3222TIP3   OH2 9629   4.047   1.109   0.580 -0.0995 -0.3595  0.0282
 3222TIP3    H1 9630   3.978   1.147   0.524  1.5465  1.0495 -1.1635
 3222TIP3    H2 9631   4.040   1.158   0.662 -0.6443 -0.3586 -0.0153
 3223TIP3   OH2 9632   2.156   4.909   1.395 -0.1826 -0.3613 -0.2383
 3223TIP3    H1 9633   2.168   4.838   1.458 -0.7388 -0.3675 -0.1262
 3223TIP3    H2 9634   2.211   4.885   1.321 -1.7646 -1.8885 -0.9918
 3224TIP3   OH2 9635   2.931   0.768   0.131  0.1390 -0.0172  0.4465
 3224TIP3    H1 9636   3.011   0.819   0.120  0.8850 -1.2528  0.0323
 3224TIP3    H2 9637   2.935   0.701   0.063 -0.6975 -0.8058  1.1413
 3225TIP3   OH2 9638   4.425   3.522   0.506 -0.4351 -0.3162  0.2108
 3225TIP3    H1 9639   4.412   3.495   0.415 -0.1053  0.8715 -0.2163
 3225TIP3    H2 9640   4.347   3.574   0.526  0.4766  1.2573 -0.1475
 3226TIP3   OH2 9641   2.215   2.083   4.551 -0.3322 -0.2509  0.5822
 3226TIP3    H1 9642   2.133   2.101   4.597  0.3419  1.9556  1.0102
 3226TIP3    H2 9643   2.232   2.162   4.500 -0.0515 -1.8673 -2.0020
 3227TIP3   OH2 9644   2.116   0.355   4.558 -0.0651  0.1754 -0.4711
 3227TIP3    H1 9645   2.081   0.274   4.521 -2.5262  0.3606  1.1833
 3227TIP3    H2 9646   2.087   0.423   4.497 -0.5843  0.0762 -0.3451
 3228TIP3   OH2 9647   5.336   1.177   2.947 -0.6267 -0.1077 -0.5793
 3228TIP3    H1 9648   5.265   1.226   2.988 -0.6955  0.6902 -1.6084
 3228TIP3    H2 9649   5.292   1.115   2.888 -0.4942  1.4390 -2.3952
 3229TIP3   OH2 9650   1.103   4.650   5.870 -0.1559  0.1903 -0.0821
 3229TIP3    H1 9651   1.020   4.608   5.846  0.2256 -0.2600 -0.6033
 3229TIP3    H2 9652   1.163   4.578   5.887 -0.3997  0.4680  2.2980
 3230TIP3   OH2 9653   4.678   5.469   0.122 -0.2054  0.5880 -0.2620
 3230TIP3    H1 9654   4.652   5.546   0.071 -1.6615  0.1906 -0.1607
 3230TIP3    H2 9655   4.762   5.494   0.160 -0.3835  1.9284 -0.6617
 3231TIP3   OH2 9656   0.063   4.728   3.713  0.3697 -0.0583  0.1430
 3231TIP3    H1 9657   0.115   4.716   3.633 -1.9626 -2.0024 -1.2320
 3231TIP3    H2 9658   0.118   4.693   3.783  1.3846 -0.9695 -1.0585
 3232TIP3   OH2 9659   0.970   2.762   0.887  0.0112  0.0606 -0.0036
 3232TIP3    H1 9660   0.973   2.756   0.983  1.7828 -0.7884 -0.0740
 3232TIP3    H2 9661   1.020   2.841   0.867 -0.3416  0.2259 -0.2311
 3233TIP3   OH2 9662   2.779   4.054   1.263 -0.3353 -0.1381  0.1206
 3233TIP3    H1 9663   2.737   4.083   1.344 -1.4983  1.4258 -0.9755
 3233TIP3    H2 9664   2.735   3.972   1.241  0.1914 -0.7298  1.1961
 3234TIP3   OH2 9665   4.560   3.569   3.480  0.0790  0.0011 -0.5173
 3234TIP3    H1 9666   4.487   3.629   3.466  0.0427 -0.1270 -0.8866
 3234TIP3    H2 9667   4.638   3.623   3.463  0.1597  0.5861  1.4469
 3235TIP3   OH2 9668   5.552   4.681   4.424 -0.3288  0.1995 -0.0830
 3235TIP3    H1 9669   5.583   4.592   4.442  1.1996  1.0615  1.8979
 3235TIP3    H2 9670   5.462   4.682   4.458  0.1163 -0.2250  1.1833
 3236TIP3   OH2 9671   7.201   5.242   5.403 -0.6837 -0.2434  0.1101
 3236TIP3    H1 9672   7.253   5.280   5.332 -1.1801  0.0353 -0.1113
 3236TIP3    H2 9673   7.111   5.246   5.370 -1.0660  0.9541  1.2115
 3237TIP3   OH2 9674   5.657   4.755   3.816 -0.0560 -0.8126  0.2454
 3237TIP3    H1 9675   5.567   4.784   3.832 -0.0395 -0.7345  0.1951
 3237TIP3    H2 9676   5.660   4.739   3.722  0.3237  0.3550  0.0382
 3238TIP3   OH2 9677   1.346   4.665   1.647 -0.1977  0.0290 -0.3290
 3238TIP3    H1 9678   1.380   4.581   1.617  1.3672  0.5349 -0.0628
 3238TIP3    H2 9679   1.341   4.719   1.568  0.5636  0.2598 -0.2223
 3239TIP3   OH2 9680   4.785   1.223   5.257  0.1294 -0.3540  0.0164
 3239TIP3    H1 9681   4.871   1.251   5.286  0.2949 -0.1269 -0.6915
 3239TIP3    H2 9682   4.731   1.224   5.337  0.8622 -0.8553  0.5335
 3240TIP3   OH2 9683   3.193   2.088   3.380  0.8787 -0.6070 -0.3228
 3240TIP3    H1 9684   3.187   2.166   3.325  0.0241 -0.6190 -0.2554
 3240TIP3    H2 9685   3.222   2.019   3.321 -1.8702 -1.0760 -1.2494
 3241TIP3   OH2 9686   7.177   3.235   5.834 -0.0788 -0.0943  0.5741
 3241TIP3    H1 9687   7.193   3.315   5.885  0.4938 -0.7860  1.5042
 3241TIP3    H2 9688   7.095   3.252   5.788 -0.3661  0.7316  1.3656
 3242TIP3   OH2 9689   0.435   3.373   0.688  0.3468 -0.9626  0.0500
 3242TIP3    H1 9690   0.377   3.299   0.707 -1.3620 -0.5052 -2.7545
 3242TIP3    H2 9691   0.378   3.450   0.696  0.8888 -0.3679 -1.4539
 3243TIP3   OH2 9692   5.847   2.736   1.024  0.2287 -0.7423  0.5128
 3243TIP3    H1 9693   5.761   2.751   0.984 -0.0335 -2.0855  0.5139
 3243TIP3    H2 9694   5.901   2.809   0.994 -0.6456 -0.4006 -0.2780
 3244TIP3   OH2 9695   4.105   5.502   4.912 -0.1537 -0.2557  0.0762
 3244TIP3    H1 9696   4.063   5.556   4.845  0.7297 -0.3902 -0.5988
 3244TIP3    H2 9697   4.036   5.487   4.977 -1.7549 -1.9619 -1.8537
 3245TIP3   OH2 9698   5.909   1.175   1.066  0.0190  0.3259  0.0356
 3245TIP3    H1 9699   5.888   1.146   1.154 -0.4865 -1.4198 -0.6157
 3245TIP3    H2 9700   5.830   1.220   1.036 -0.4299 -0.5259 -0.0924
 3246TIP3   OH2 9701   5.880   4.699   3.151 -0.0174 -0.4081  0.4057
 3246TIP3    H1 9702   5.789   4.725   3.171 -0.0358  1.6876 -1.8385
 3246TIP3    H2 9703   5.872   4.612   3.112 -1.4233  0.5402 -1.6548
 3247TIP3   OH2 9704   5.516   0.533   0.085 -0.3721  0.0753 -0.1086
 3247TIP3    H1 9705   5.550   0.539   0.174 -0.8174 -0.5120  0.1086
 3247TIP3    H2 9706   5.572   0.469   0.041 -0.6204 -0.2001 -0.0251
 3248TIP3   OH2 9707   5.320   2.611   0.250  0.0604 -0.7437  0.0473
 3248TIP3    H1 9708   5.391   2.564   0.207  0.7282  0.3193 -0.0700
 3248TIP3    H2 9709   5.288   2.552   0.318  0.1140 -1.7860 -0.8120
 3249TIP3   OH2 9710   5.820   2.939   2.901 -0.5123 -0.3501  0.1189
 3249TIP3    H1 9711   5.779   2.978   2.979  1.8227  1.0173  0.7662
 3249TIP3    H2 9712   5.891   2.999   2.879  0.3158 -1.9117 -1.7179
 3250TIP3   OH2 9713   7.096   4.932   5.180 -0.3778  0.1840  0.4899
 3250TIP3    H1 9714   7.048   5.006   5.143  1.8181  1.9916  1.0226
 3250TIP3    H2 9715   7.082   4.939   5.274  0.6227  0.5504  0.6243
 3251TIP3   OH2 9716   1.797   3.759   1.372 -0.1557  0.0126 -0.5670
 3251TIP3    H1 9717   1.728   3.695   1.389  1.1248 -2.1523 -2.7721
 3251TIP3    H2 9718   1.755   3.827   1.320 -1.3242  0.5368  0.9893
 3252TIP3   OH2 9719   1.020   6.431   0.243  0.1316 -0.5551  0.3697
 3252TIP3    H1 9720   1.064   6.485   0.309  0.6890 -1.4855  0.7829
 3252TIP3    H2 9721   1.059   6.344   0.253 -0.0505 -0.8089 -0.9389
 3253TIP3   OH2 9722   4.945   4.930   0.089  0.3594  0.5480  0.0806
 3253TIP3    H1 9723   5.018   4.950   0.147 -0.1811 -0.2518  1.0665
 3253TIP3    H2 9724   4.883   5.002   0.103  1.2796  1.7170 -1.4187
 3254TIP3   OH2 9725   5.763   6.640   0.388  0.4342  0.3606  0.1553
 3254TIP3    H1 9726   5.857   6.624   0.381  0.6487  0.8017  1.7307
 3254TIP3    H2 9727   5.747   6.653   0.481 -0.8639  2.3212 -0.2728
 3255TIP3   OH2 9728   5.123   4.836   2.814  0.4855  0.2962 -0.0212
 3255TIP3    H1 9729   5.038   4.850   2.772 -0.0391  0.1248  0.9659
 3255TIP3    H2 9730   5.163   4.766   2.762 -0.5093 -0.5020  0.2477
 3256TIP3   OH2 9731   5.087   4.951   0.772 -0.3375  0.2862 -0.5060
 3256TIP3    H1 9732   5.114   5.042   0.758  0.7095 -0.0939 -1.0800
 3256TIP3    H2 9733   5.153   4.899   0.726  1.0687 -0.9375  2.6089
 3257TIP3   OH2 9734   4.506   0.609   4.806  0.6721 -0.3783  0.6499
 3257TIP3    H1 9735   4.435   0.619   4.871  0.5016 -0.6198  0.5017
 3257TIP3    H2 9736   4.559   0.537   4.840  0.3181 -0.8217  0.2877
 3258TIP3   OH2 9737   6.171   6.600   1.009 -0.5519  0.2573 -0.2340
 3258TIP3    H1 9738   6.245   6.568   1.061  0.3279  3.4577  0.6960
 3258TIP3    H2 9739   6.130   6.666   1.064 -1.7912  1.2612 -2.2476
 3259TIP3   OH2 9740   1.918   5.647   1.952 -0.0878  0.0491 -0.4000
 3259TIP3    H1 9741   1.999   5.625   1.997  0.0964  0.8035 -0.3478
 3259TIP3    H2 9742   1.859   5.575   1.973  0.7849 -0.8640 -1.0295
 3260TIP3   OH2 9743   5.694   3.459   5.187  0.2352 -0.4373 -0.2478
 3260TIP3    H1 9744   5.622   3.439   5.127 -0.1604  0.4166 -0.0728
 3260TIP3    H2 9745   5.682   3.398   5.259 -0.4533 -0.1654 -0.1201
 3261TIP3   OH2 9746   0.995   1.062   1.492 -0.8258 -0.7014  0.0713
 3261TIP3    H1 9747   0.948   1.087   1.412 -0.6198 -0.7756 -0.0750
 3261TIP3    H2 9748   0.986   0.966   1.496 -2.7025 -0.5179  1.3112
 3262TIP3   OH2 9749   1.350   2.550   2.179 -0.0903 -0.0915  0.3715
 3262TIP3    H1 9750   1.269   2.498   2.178  0.0530 -0.3209 -0.1134
 3262TIP3    H2 9751   1.411   2.500   2.233  0.5112 -1.1990 -1.2259
 3263TIP3   OH2 9752   2.806   2.733   0.158 -0.3148 -0.0534  0.0052
 3263TIP3    H1 9753   2.722   2.727   0.113  0.2266  0.8402 -1.1956
 3263TIP3    H2 9754   2.830   2.826   0.151  0.0902 -0.0014  1.6331
 3264TIP3   OH2 9755   4.181   1.046   1.277  0.1716 -0.3935 -0.6363
 3264TIP3    H1 9756   4.271   1.031   1.306 -0.0245 -1.8906 -0.7044
 3264TIP3    H2 9757   4.183   1.133   1.236  1.1532  0.3802  0.9786
 3265TIP3   OH2 9758   5.538   0.814   1.620  0.1895 -0.5697 -0.0730
 3265TIP3    H1 9759   5.573   0.860   1.696  2.1318 -0.0638 -1.2038
 3265TIP3    H2 9760   5.482   0.745   1.657 -0.3484  0.7643  1.7226
 3266TIP3   OH2 9761   5.423   1.816   3.768 -0.2731  0.2181 -0.5006
 3266TIP3    H1 9762   5.475   1.880   3.816 -1.0654  0.2843  0.2845
 3266TIP3    H2 9763   5.437   1.734   3.815  0.3711 -0.1117 -1.2337
 3267TIP3   OH2 9764   5.697   3.762   0.214 -0.3009 -0.1673 -0.0146
 3267TIP3    H1 9765   5.692   3.716   0.298  0.8310 -1.3044 -0.5331
 3267TIP3    H2 9766   5.734   3.847   0.236 -0.3858 -0.3055  0.6922
 3268TIP3   OH2 9767   6.455   1.670   2.803  0.3127  0.2446  0.3906
 3268TIP3    H1 9768   6.407   1.684   2.722  0.9071 -0.9344 -0.1959
 3268TIP3    H2 9769   6.477   1.757   2.835  1.4201  0.7159 -1.5363
 3269TIP3   OH2 9770   1.521   1.004   3.380 -0.1755 -0.6319  0.0730
 3269TIP3    H1 9771   1.587   0.992   3.449 -0.9022 -1.3988  0.6537
 3269TIP3    H2 9772   1.479   1.087   3.401  1.6605  0.7073 -1.2276
 3270TIP3   OH2 9773   0.609   1.636   0.501 -0.4524  0.2104  0.2692
 3270TIP3    H1 9774   0.611   1.629   0.405 -0.7079  2.2277  0.0538
 3270TIP3    H2 9775   0.624   1.547   0.533 -1.4142 -0.6863 -1.6448
 3271TIP3   OH2 9776   1.664   4.098   3.508  0.1548 -0.7288 -0.0898
 3271TIP3    H1 9777   1.695   4.187   3.496  3.8086 -1.6124  1.5476
 3271TIP3    H2 9778   1.641   4.093   3.601  0.3407 -1.5740 -0.0787
 3272TIP3   OH2 9779   4.639   2.311   2.500  0.4805 -0.2014 -0.1033
 3272TIP3    H1 9780   4.591   2.237   2.539 -1.0439  1.2302  0.8757
 3272TIP3    H2 9781   4.705   2.334   2.566  0.5778 -0.3287 -0.1560
 3273TIP3   OH2 9782   3.263   4.377   5.765 -0.1282 -0.0964  0.3045
 3273TIP3    H1 9783   3.337   4.328   5.800  2.1384  2.5462 -0.4509
 3273TIP3    H2 9784   3.286   4.394   5.674 -0.3806  2.9214  0.6911
 3274TIP3   OH2 9785   1.071   2.977   2.321 -0.6638  0.3958  0.0676
 3274TIP3    H1 9786   1.037   2.966   2.409  1.2762  0.1881  0.8328
 3274TIP3    H2 9787   1.128   3.054   2.326 -0.8133  0.6124 -1.0997
 3275TIP3   OH2 9788   4.441   2.665   4.563 -0.1289 -0.1068  0.0378
 3275TIP3    H1 9789   4.444   2.740   4.503  0.0063 -0.1863 -0.0561
 3275TIP3    H2 9790   4.415   2.591   4.507  1.1300 -0.4169 -0.1692
 3276TIP3   OH2 9791   1.452   5.554   5.197 -0.6553  0.5275  0.2433
 3276TIP3    H1 9792   1.392   5.488   5.163 -0.3535  0.3300  0.0859
 3276TIP3    H2 9793   1.453   5.623   5.129 -1.5962  1.0865  0.7802
 3277TIP3   OH2 9794   6.392   3.524   5.055  0.9300 -0.0949  0.0011
 3277TIP3    H1 9795   6.353   3.469   5.123  1.2888  1.5800  1.6340
 3277TIP3    H2 9796   6.404   3.465   4.981 -0.3591 -1.7684  1.0455
 3278TIP3   OH2 9797   2.803   5.307   0.709  0.1218 -0.5459  0.0274
 3278TIP3    H1 9798   2.720   5.355   0.703 -0.0088 -0.7163  0.4593
 3278TIP3    H2 9799   2.780   5.216   0.689  0.1228 -0.6745  0.5969
 3279TIP3   OH2 9800   6.845   3.343   0.973 -0.4624 -0.1504 -0.7779
 3279TIP3    H1 9801   6.778   3.287   1.011  0.1796 -1.5592 -1.6266
 3279TIP3    H2 9802   6.911   3.352   1.041 -0.1276 -1.2302 -0.9419
 3280TIP3   OH2 9803   6.625   1.083   3.748 -0.3448 -0.4860 -0.5098
 3280TIP3    H1 9804   6.581   1.164   3.771  1.1816  0.8547 -1.9710
 3280TIP3    H2 9805   6.572   1.014   3.787 -0.3282  1.2687  3.0080
 3281TIP3   OH2 9806   4.634   6.619   5.625  0.6540  0.0888  0.4838
 3281TIP3    H1 9807   4.580   6.657   5.556 -1.3798 -2.2076  0.6664
 3281TIP3    H2 9808   4.710   6.583   5.579 -1.6831 -3.3665 -1.1021
 3282TIP3   OH2 9809   1.912   6.537   5.531  0.1381 -0.1176 -0.3673
 3282TIP3    H1 9810   1.979   6.493   5.583 -1.1841 -1.3976  0.3257
 3282TIP3    H2 9811   1.862   6.589   5.594  1.0598  1.6566 -1.0291
 3283TIP3   OH2 9812   4.165   2.737   3.141  0.1550 -0.0199  0.1907
 3283TIP3    H1 9813   4.184   2.647   3.165  0.4608 -0.2040 -0.6904
 3283TIP3    H2 9814   4.231   2.789   3.187 -1.1349 -0.0409  2.1636
 3284TIP3   OH2 9815   4.963   4.463   2.910  0.3225 -0.4617 -0.1276
 3284TIP3    H1 9816   4.976   4.531   2.976  1.3597 -2.3244  1.6989
 3284TIP3    H2 9817   4.894   4.407   2.947  0.3418 -1.0892 -1.0079
 3285TIP3   OH2 9818   6.684   0.526   3.762 -0.0549  0.6089 -0.5420
 3285TIP3    H1 9819   6.762   0.572   3.731  1.2457 -0.6403  0.7647
 3285TIP3    H2 9820   6.716   0.443   3.795 -2.1251 -0.4868 -1.1165
 3286TIP3   OH2 9821   1.930   2.741   4.188  0.1200  0.1416 -0.2631
 3286TIP3    H1 9822   1.939   2.713   4.097  1.3185  1.5516 -0.6204
 3286TIP3    H2 9823   2.019   2.738   4.223 -0.2588  0.0698  0.7254
 3287TIP3   OH2 9824   4.236   4.354   4.497 -0.3225  0.8803 -0.2848
 3287TIP3    H1 9825   4.207   4.424   4.555 -0.2141 -0.5025  1.5660
 3287TIP3    H2 9826   4.331   4.353   4.507 -0.3419  0.3312 -0.0754
 3288TIP3   OH2 9827   0.686   2.667   5.439 -0.2310 -0.7316 -0.6545
 3288TIP3    H1 9828   0.613   2.726   5.422  0.9445  0.7615 -0.6793
 3288TIP3    H2 9829   0.725   2.651   5.353  1.1677  0.7907 -0.3554
 3289TIP3   OH2 9830   3.773   1.151   5.224  0.0529  0.1960 -0.0128
 3289TIP3    H1 9831   3.693   1.201   5.206  0.6569  1.1051 -0.2401
 3289TIP3    H2 9832   3.773   1.138   5.319 -1.9409 -2.5610 -0.2652
 3290TIP3   OH2 9833   3.272   4.537   3.821  0.0566 -0.4951 -0.1967
 3290TIP3    H1 9834   3.294   4.443   3.825 -0.4591 -0.5878  1.9079
 3290TIP3    H2 9835   3.314   4.568   3.741  2.4944 -1.9919  0.3754
 3291TIP3   OH2 9836   4.427   4.735   5.285  0.0369 -0.0482 -0.0573
 3291TIP3    H1 9837   4.384   4.754   5.368 -0.3175  0.1489 -0.2838
 3291TIP3    H2 9838   4.467   4.819   5.260 -2.1717  0.6656 -1.4425
 3292TIP3   OH2 9839   2.182   4.472   1.952  0.2042 -0.0045  0.2399
 3292TIP3    H1 9840   2.180   4.381   1.979 -1.1265 -0.2898 -0.7165
 3292TIP3    H2 9841   2.131   4.519   2.018 -2.4543 -0.5937 -1.2642
 3293TIP3   OH2 9842   1.847   1.528   5.622  0.2928 -0.1960  0.7252
 3293TIP3    H1 9843   1.780   1.582   5.664  0.0958 -1.1885  1.7260
 3293TIP3    H2 9844   1.849   1.447   5.674  1.0435 -0.8869 -0.3401
 3294TIP3   OH2 9845   4.397   0.546   3.147 -0.0098  0.2748 -0.2225
 3294TIP3    H1 9846   4.411   0.597   3.067  0.7720 -0.2337 -0.4130
 3294TIP3    H2 9847   4.418   0.456   3.122 -0.8995 -0.0760  0.2483
 3295TIP3   OH2 9848   4.013   5.803   4.263 -0.3442  0.3717 -0.3881
 3295TIP3    H1 9849   3.948   5.852   4.214 -2.9373 -1.1950  1.2578
 3295TIP3    H2 9850   3.987   5.812   4.354  2.7038  0.9278  0.5538
 3296TIP3   OH2 9851   1.748   2.240   1.131 -0.5000  0.9173 -0.0600
 3296TIP3    H1 9852   1.727   2.263   1.040  2.4218  3.0141 -0.3451
 3296TIP3    H2 9853   1.753   2.325   1.176  0.2271  0.0554  1.5461
 3297TIP3   OH2 9854   0.310   0.573   0.500  0.1865 -0.1124 -0.1786
 3297TIP3    H1 9855   0.323   0.479   0.503  1.6192 -0.1353 -3.6138
 3297TIP3    H2 9856   0.340   0.604   0.586  2.4586 -2.5122  0.0059
 3298TIP3   OH2 9857   5.108   4.181   5.384 -0.1667  0.3176  0.2128
 3298TIP3    H1 9858   5.071   4.158   5.299 -0.6052 -1.4964  0.8460
 3298TIP3    H2 9859   5.037   4.225   5.431  0.4793  2.5860 -0.7731
 3299TIP3   OH2 9860   0.048   1.200   2.472  0.5565  0.1949 -0.7685
 3299TIP3    H1 9861  -0.005   1.120   2.474  0.8473 -0.0177 -1.3031
 3299TIP3    H2 9862   0.132   1.173   2.511  0.7102  0.1912 -1.0950
 3300TIP3   OH2 9863   5.680   6.369   3.745  0.6134  0.4116  0.3204
 3300TIP3    H1 9864   5.620   6.294   3.740  2.0541 -0.8531  1.0540
 3300TIP3    H2 9865   5.626   6.441   3.777 -0.1631 -1.1219  2.6934
 3301TIP3   OH2 9866   1.743   0.071   2.372  0.1592  0.8787  0.3576
 3301TIP3    H1 9867   1.685   0.038   2.303  0.0773  2.2217 -0.2557
 3301TIP3    H2 9868   1.684   0.097   2.443  0.0647  1.5633  0.0304
 3302TIP3   OH2 9869   4.330   4.002   3.155  0.1016  0.0276 -0.3949
 3302TIP3    H1 9870   4.286   4.086   3.143 -0.5569 -0.3649 -0.8217
 3302TIP3    H2 9871   4.386   3.993   3.078 -1.1029 -0.6717 -1.2318
 3303TIP3   OH2 9872   4.589   2.493   3.048  0.2076 -0.2132  0.3712
 3303TIP3    H1 9873   4.677   2.479   3.085  0.1117  2.2691  1.7059
 3303TIP3    H2 9874   4.570   2.585   3.065 -1.9184 -0.2096 -1.5900
 3304TIP3   OH2 9875   6.443   2.554   3.391  0.9802  0.4301  0.0398
 3304TIP3    H1 9876   6.510   2.487   3.379 -0.2909 -0.5561 -2.2862
 3304TIP3    H2 9877   6.364   2.517   3.351 -0.0286  2.9333 -0.5198
 3305TIP3   OH2 9878   1.045   4.166   5.492 -0.0615  0.3476 -0.4506
 3305TIP3    H1 9879   1.134   4.131   5.481 -0.0573 -0.1550  0.9282
 3305TIP3    H2 9880   1.055   4.261   5.485  0.5934  0.2946 -0.3172
 3306TIP3   OH2 9881   2.758   5.148   4.030  0.1230 -0.4880  0.3476
 3306TIP3    H1 9882   2.760   5.212   4.101 -0.9031  1.3145 -1.1484
 3306TIP3    H2 9883   2.740   5.064   4.073  0.4827  0.3848  2.2754
 3307TIP3   OH2 9884   2.947   4.360   1.849 -0.3624 -0.0914  0.4316
 3307TIP3    H1 9885   2.913   4.327   1.932 -2.3018  0.1360 -0.2184
 3307TIP3    H2 9886   2.890   4.434   1.827 -0.3157 -0.5501 -1.3959
 3308TIP3   OH2 9887   2.520   4.608   5.463  0.2628 -0.0595 -0.1764
 3308TIP3    H1 9888   2.608   4.617   5.498  0.2697 -1.0498  0.1028
 3308TIP3    H2 9889   2.519   4.522   5.421 -0.5218  0.0007 -0.3104
 3309TIP3   OH2 9890   1.013   6.624   0.042 -0.5749 -0.5402 -0.2858
 3309TIP3    H1 9891   1.082   6.675   0.084 -1.0318 -0.6401  0.6062
 3309TIP3    H2 9892   1.007   6.544   0.094 -0.9662 -0.7893 -0.7080
 3310TIP3   OH2 9893   7.158   5.293   2.684  0.5341  0.3448  0.6991
 3310TIP3    H1 9894   7.224   5.223   2.693 -1.5850 -1.8612 -0.0221
 3310TIP3    H2 9895   7.191   5.348   2.613  1.3651 -1.0184 -0.0163
 3311TIP3   OH2 9896   2.680   5.612   3.240 -0.1608 -1.0676  0.2165
 3311TIP3    H1 9897   2.688   5.541   3.175 -1.4225 -0.7446 -0.3165
 3311TIP3    H2 9898   2.592   5.647   3.227  0.4325  0.6049  0.4852
 3312TIP3   OH2 9899   0.394   4.737   5.717 -0.2821  0.0106  0.3923
 3312TIP3    H1 9900   0.382   4.648   5.684  1.8162 -0.7064  1.3903
 3312TIP3    H2 9901   0.483   4.761   5.689  1.3507 -0.3502  4.5426
 3313TIP3   OH2 9902   5.763   0.381   1.793 -0.1115  0.2191 -0.2079
 3313TIP3    H1 9903   5.748   0.324   1.869  0.1974 -0.3133 -0.5422
 3313TIP3    H2 9904   5.677   0.389   1.752 -0.4881  1.2957  0.7280
 3314TIP3   OH2 9905   3.427   2.055   3.928 -0.3332  0.4395 -0.0515
 3314TIP3    H1 9906   3.446   1.961   3.921 -0.8686 -0.0495  3.3090
 3314TIP3    H2 9907   3.513   2.097   3.934 -0.0945  0.2090 -1.4501
 3315TIP3   OH2 9908   4.468   4.695   4.664  0.5095 -0.2028 -0.1500
 3315TIP3    H1 9909   4.391   4.682   4.609 -0.3285 -0.1480  0.9709
 3315TIP3    H2 9910   4.500   4.782   4.642 -0.4742  0.2625  0.2273
 3316TIP3   OH2 9911   3.337   3.444   3.006  0.3941 -0.5246 -0.0501
 3316TIP3    H1 9912   3.383   3.475   2.928 -0.9721  0.8829 -0.3365
 3316TIP3    H2 9913   3.403   3.394   3.055  1.6282 -0.3121 -1.4493
 3317TIP3   OH2 9914   0.919   5.700   4.607  0.3422 -0.0378 -0.6602
 3317TIP3    H1 9915   0.885   5.789   4.610 -2.5892 -1.0529  1.2030
 3317TIP3    H2 9916   0.873   5.658   4.535  1.3595 -0.1872 -1.2380
 3318TIP3   OH2 9917   1.507   0.120   5.792  0.1079 -0.1061  0.0831
 3318TIP3    H1 9918   1.443   0.170   5.842 -0.7008 -0.0027 -1.0310
 3318TIP3    H2 9919   1.536   0.179   5.723  0.4325 -0.5969 -0.2045
 3319TIP3   OH2 9920   0.777   1.034   3.513  0.2550  0.0287  0.4681
 3319TIP3    H1 9921   0.755   1.032   3.420  1.2820 -1.8418  0.2203
 3319TIP3    H2 9922   0.692   1.034   3.558 -0.2500  0.7963 -0.4401
 3320TIP3   OH2 9923   0.277   3.847   5.800  0.4029  0.1292 -0.2173
 3320TIP3    H1 9924   0.239   3.930   5.829 -0.9934 -0.8079  0.7162
 3320TIP3    H2 9925   0.235   3.830   5.716 -0.1976 -0.1981  0.1429
 3321TIP3   OH2 9926   2.528   3.370   2.989  0.3823 -0.5524 -0.1421
 3321TIP3    H1 9927   2.511   3.293   3.044  5.0104 -0.9341  1.2101
 3321TIP3    H2 9928   2.550   3.439   3.052 -0.4528  0.9651 -1.4417
 3322TIP3   OH2 9929   0.709   4.937   2.552 -0.2721  0.1488  0.3046
 3322TIP3    H1 9930   0.680   4.864   2.607  1.3194 -0.5234  0.3055
 3322TIP3    H2 9931   0.775   4.898   2.494 -0.7983  1.1807 -1.0404
 3323TIP3   OH2 9932   5.716   2.623   4.790 -0.2655  0.0053  0.2286
 3323TIP3    H1 9933   5.769   2.547   4.767  2.3433  1.5336  0.7624
 3323TIP3    H2 9934   5.650   2.628   4.720  1.9250 -0.5105 -2.0352
 3324TIP3   OH2 9935   7.139   0.636   1.995 -0.0591  0.0234 -0.0620
 3324TIP3    H1 9936   7.120   0.546   1.967 -0.6381 -0.0115  0.4202
 3324TIP3    H2 9937   7.186   0.625   2.078 -1.0719  0.1772  0.5440
 3325TIP3   OH2 9938   6.596   2.571   1.403  0.4358  0.2600  0.0423
 3325TIP3    H1 9939   6.519   2.619   1.435 -1.0056 -1.3269 -0.8886
 3325TIP3    H2 9940   6.615   2.508   1.473 -0.6914 -1.0077 -0.7451
 3326TIP3   OH2 9941   6.232   6.264   1.876  0.7333  0.5322  0.1148
 3326TIP3    H1 9942   6.203   6.307   1.956 -0.6299  0.5175 -0.3483
 3326TIP3    H2 9943   6.193   6.177   1.879  0.9616  0.4075 -0.3940
 3327TIP3   OH2 9944   0.070   4.273   3.333  0.3677 -0.1638 -0.1102
 3327TIP3    H1 9945   0.071   4.361   3.296  0.4776 -0.3136 -0.4627
 3327TIP3    H2 9946   0.066   4.288   3.428  0.0336  0.2148 -0.1794
 3328TIP3   OH2 9947   0.376   4.231   0.452 -0.3613 -0.7333  0.1646
 3328TIP3    H1 9948   0.423   4.292   0.395  1.4948  0.8409  3.1188
 3328TIP3    H2 9949   0.296   4.278   0.476  0.2311 -0.1618  1.0632
 3329TIP3   OH2 9950   1.836   3.331   0.553 -0.1306 -0.5332  0.3127
 3329TIP3    H1 9951   1.751   3.354   0.517 -0.9039 -1.3094  1.5665
 3329TIP3    H2 9952   1.817   3.268   0.622  1.3110  0.4360  1.6768
 3330TIP3   OH2 9953   3.454   1.593   2.078 -0.2242 -0.2159 -0.4193
 3330TIP3    H1 9954   3.447   1.586   2.174 -0.7276 -0.9081 -0.4963
 3330TIP3    H2 9955   3.446   1.687   2.061  0.2261 -0.0484  0.2396
 3331TIP3   OH2 9956   5.458   6.204   0.263 -0.2991 -0.9154  0.9033
 3331TIP3    H1 9957   5.518   6.229   0.334  2.2449 -0.2606 -1.3192
 3331TIP3    H2 9958   5.479   6.112   0.246 -1.9961 -1.5367  1.9229
 3332TIP3   OH2 9959   1.642   1.359   2.210 -0.0663 -0.3882 -0.0820
 3332TIP3    H1 9960   1.725   1.403   2.193 -1.2909  2.0867 -0.1483
 3332TIP3    H2 9961   1.628   1.304   2.132  1.3262 -0.6324 -0.1920
 3333TIP3   OH2 9962   4.394   0.875   2.523 -0.1449 -0.1787 -0.6133
 3333TIP3    H1 9963   4.362   0.965   2.515  1.5995  0.5054 -0.2468
 3333TIP3    H2 9964   4.341   0.826   2.460 -1.1393  1.0860 -0.8160
 3334TIP3   OH2 9965   2.295   2.855   4.705 -0.3655  0.1296  0.9363
 3334TIP3    H1 9966   2.305   2.879   4.613 -0.0468 -2.8220  0.1067
 3334TIP3    H2 9967   2.207   2.818   4.711  1.4442 -5.1661  0.2266
 3335TIP3   OH2 9968   5.466   0.497   3.481 -0.0541  0.0651  0.1896
 3335TIP3    H1 9969   5.442   0.488   3.388 -1.1294 -0.7181  0.5175
 3335TIP3    H2 9970   5.398   0.554   3.517 -1.4739 -2.0627  1.1072
 3336TIP3   OH2 9971   0.510   0.169   4.412  0.2031 -0.0124  0.3706
 3336TIP3    H1 9972   0.511   0.239   4.478  1.5216  1.4533 -1.1258
 3336TIP3    H2 9973   0.602   0.143   4.404 -0.2838 -2.0605  0.9888
 3337TIP3   OH2 9974   2.775   4.360   5.277 -0.0178  0.0229  0.5886
 3337TIP3    H1 9975   2.697   4.409   5.252  0.0710  0.4543  1.1347
 3337TIP3    H2 9976   2.818   4.414   5.344  0.0485 -0.8154  1.2504
 3338TIP3   OH2 9977   0.140   2.679   1.498 -0.2912 -0.1130  0.3433
 3338TIP3    H1 9978   0.177   2.656   1.413  1.9043 -3.2614  1.9732
 3338TIP3    H2 9979   0.047   2.663   1.489  0.3066 -3.9582 -0.5712
 3339TIP3   OH2 9980   1.829   2.127   0.078  0.1239  0.7896  1.0465
 3339TIP3    H1 9981   1.838   2.222   0.081  1.5906  0.8941 -2.3154
 3339TIP3    H2 9982   1.915   2.093   0.102  0.6238  0.5212 -0.9386
 3340TIP3   OH2 9983   3.095   2.369   1.754  0.6422  0.0380  0.2061
 3340TIP3    H1 9984   3.060   2.456   1.734  0.4463 -0.0199  0.2846
 3340TIP3    H2 9985   3.138   2.341   1.673  0.4177  0.0723  0.0708
 3341TIP3   OH2 9986   1.653   4.684   4.097  0.3474 -0.4641  0.1894
 3341TIP3    H1 9987   1.666   4.767   4.144  0.4061 -0.3539 -0.0200
 3341TIP3    H2 9988   1.741   4.655   4.074  0.2564  0.3017 -1.2628
 3342TIP3   OH2 9989   6.200   5.216   3.702 -0.3939 -0.4536 -0.2394
 3342TIP3    H1 9990   6.133   5.230   3.770  0.0125  1.2598 -0.1479
 3342TIP3    H2 9991   6.159   5.249   3.622  0.7518  1.8958  0.0547
 3343TIP3   OH2 9992   6.918   6.354   5.221  0.0416  0.3527  0.6864
 3343TIP3    H1 9993   6.875   6.430   5.181 -1.3914 -0.8776 -0.2155
 3343TIP3    H2 9994   6.848   6.307   5.265  0.3253 -1.8718 -1.0574
 3344TIP3   OH2 9995   4.360   5.849   5.029  0.1826  0.0478  0.8440
 3344TIP3    H1 9996   4.386   5.842   5.121  1.0206  1.1067  0.7036
 3344TIP3    H2 9997   4.341   5.942   5.016 -0.1025 -0.1185 -0.0135
 3345TIP3   OH2 9998   6.184   1.581   3.141 -0.6689 -0.2751 -0.2971
 3345TIP3    H1 9999   6.122   1.633   3.091  1.8678  1.0855 -2.2880
 3345TIP3    H210000   6.255   1.562   3.079  3.2572  2.4212  2.8407
 3346TIP3   OH210001   1.671   0.896   1.956  0.1373  0.2023  0.1691
 3346TIP3    H110002   1.608   0.949   2.004  0.1076 -0.2106  0.5914
 3346TIP3    H210003   1.755   0.911   2.000  0.6722  1.9717 -1.3353
 3347TIP3   OH210004   2.727   3.748   1.784 -0.2924 -0.8896 -0.1424
 3347TIP3    H110005   2.654   3.805   1.760  0.2685 -0.0819  0.0178
 3347TIP3    H210006   2.725   3.678   1.719 -0.5053 -0.2439 -0.8469
 3348TIP3   OH210007   5.385   0.669   4.923 -0.6941 -0.1849 -0.1723
 3348TIP3    H110008   5.376   0.701   4.833 -2.6377  1.5691  0.5608
 3348TIP3    H210009   5.361   0.745   4.977 -0.7166 -1.5447  1.8076
 3349TIP3   OH210010   5.028   6.298   4.112  0.1534  0.6056 -0.3274
 3349TIP3    H110011   5.096   6.258   4.166 -0.1281  1.0533  0.3650
 3349TIP3    H210012   5.068   6.377   4.077  0.4596  0.1300 -1.0971
 3350TIP3   OH210013   3.787   3.248   0.741 -0.1286 -0.1628  0.1513
 3350TIP3    H110014   3.815   3.305   0.670 -1.2377 -0.7427 -0.7691
 3350TIP3    H210015   3.854   3.260   0.809 -0.6343  2.6902  0.2591
 3351TIP3   OH210016   6.821   6.632   4.483 -0.5884 -0.5660 -0.2103
 3351TIP3    H110017   6.739   6.619   4.436 -2.0064 -1.9448  2.4116
 3351TIP3    H210018   6.872   6.554   4.463  0.3818  0.4873 -2.1896
 3352TIP3   OH210019   5.303   1.430   3.727  1.0134  0.7880 -0.2611
 3352TIP3    H110020   5.334   1.496   3.789  2.6466  0.4861 -0.7174
 3352TIP3    H210021   5.372   1.424   3.662  1.2313 -1.8430  0.1276
 3353TIP3   OH210022   1.570   5.233   2.381 -0.0044 -0.2700 -0.1138
 3353TIP3    H110023   1.650   5.278   2.354 -0.8029  1.8251  0.8619
 3353TIP3    H210024   1.534   5.198   2.300  0.6274  0.8812 -0.9142
 3354TIP3   OH210025   6.626   5.864   1.347  0.1050  0.7240 -0.0873
 3354TIP3    H110026   6.696   5.851   1.411 -1.2074  2.4065  1.7727
 3354TIP3    H210027   6.564   5.794   1.364  0.0504  0.8058  0.0440
 3355TIP3   OH210028   1.991   2.342   0.960  1.0557 -0.0031 -0.4301
 3355TIP3    H110029   2.061   2.283   0.985 -0.3789 -1.3412  0.5602
 3355TIP3    H210030   1.916   2.285   0.942  0.1095  1.3974 -1.1350
 3356TIP3   OH210031   4.542   1.616   5.427  0.6030 -0.9509 -0.1528
 3356TIP3    H110032   4.591   1.696   5.406 -0.6159 -0.0242  0.4156
 3356TIP3    H210033   4.458   1.627   5.382  0.4559 -1.9860 -0.1614
 3357TIP3   OH210034   6.760   2.207   2.602  0.6672  0.4802 -0.1041
 3357TIP3    H110035   6.835   2.247   2.557  0.6660  1.9327  1.0981
 3357TIP3    H210036   6.798   2.138   2.655  0.8462 -0.2916 -1.2110
 3358TIP3   OH210037   2.069   0.913   5.771  0.9445 -1.5319  0.0605
 3358TIP3    H110038   2.094   0.921   5.678 -0.3057  1.1349 -0.1408
 3358TIP3    H210039   2.152   0.925   5.818  1.1815  0.2828 -0.7121
 3359TIP3   OH210040   4.023   3.402   5.643  0.1908  0.3562 -0.0933
 3359TIP3    H110041   4.025   3.306   5.648  0.2433  0.4174  1.6402
 3359TIP3    H210042   4.098   3.424   5.587  1.5308 -0.5478  1.2679
 3360TIP3   OH210043   0.727   2.563   2.204  0.2205  0.4402  0.1480
 3360TIP3    H110044   0.682   2.548   2.287  0.5793 -1.1410  0.0920
 3360TIP3    H210045   0.663   2.609   2.149 -0.7759 -0.3791  0.5937
 3361TIP3   OH210046   4.113   5.373   4.082 -0.6724 -0.6616  0.3740
 3361TIP3    H110047   4.145   5.463   4.077 -1.6443 -0.3565 -2.5471
 3361TIP3    H210048   4.157   5.336   4.158  0.7128  1.9011  0.9401
 3362TIP3   OH210049   6.935   3.213   3.691 -0.2911 -0.0758  0.2298
 3362TIP3    H110050   6.980   3.185   3.770 -0.0720 -0.2841  0.0308
 3362TIP3    H210051   6.916   3.131   3.644  0.5645  0.1143 -0.4713
 3363TIP3   OH210052   0.766   0.448   1.199 -0.1094  0.1809 -0.3967
 3363TIP3    H110053   0.849   0.423   1.160  0.1621  1.0538 -0.4126
 3363TIP3    H210054   0.733   0.369   1.240  1.0164 -0.0348  0.1229
 3364TIP3   OH210055   0.232   4.291   3.058  0.0666  0.3748  0.1980
 3364TIP3    H110056   0.270   4.374   3.086 -0.3913  1.7710 -2.8313
 3364TIP3    H210057   0.141   4.295   3.088  0.0137  1.0612 -0.0272
 3365TIP3   OH210058   0.977   4.448   4.261 -0.0227 -0.2527  0.0856
 3365TIP3    H110059   0.944   4.534   4.236 -0.4458 -0.2591  0.5951
 3365TIP3    H210060   1.058   4.437   4.211 -0.1864  0.2626 -0.2930
 3366TIP3   OH210061   0.522   3.658   5.861  0.7416  0.8737 -0.6041
 3366TIP3    H110062   0.467   3.736   5.873  1.5865  1.5406 -0.9438
 3366TIP3    H210063   0.611   3.689   5.878  1.1259  0.0583 -1.0778
 3367TIP3   OH210064   4.422   6.495   2.303 -0.2341  0.3137 -0.1346
 3367TIP3    H110065   4.351   6.559   2.295 -0.5582 -0.0089  0.1115
 3367TIP3    H210066   4.484   6.535   2.364 -1.1713 -0.2423  1.2325
 3368TIP3   OH210067   1.366   4.870   1.444 -0.6205  0.5349 -0.3539
 3368TIP3    H110068   1.387   4.950   1.395 -2.0067  0.9057 -0.3813
 3368TIP3    H210069   1.316   4.817   1.382 -0.5267  0.0596 -0.0273
 3369TIP3   OH210070   6.113   1.500   0.947 -0.5524  0.2878  0.2420
 3369TIP3    H110071   6.064   1.509   1.028 -0.7221  1.1899  0.0506
 3369TIP3    H210072   6.053   1.454   0.888 -0.3940 -0.4531  0.6387
 3370TIP3   OH210073   5.990   3.146   2.880 -0.1571 -0.5201  0.6275
 3370TIP3    H110074   6.062   3.161   2.819 -2.0430  0.5639 -1.4902
 3370TIP3    H210075   5.991   3.223   2.938  1.6989 -1.6011  2.1320
 3371TIP3   OH210076   5.087   5.857   2.958 -0.5857 -0.9480  0.0450
 3371TIP3    H110077   5.029   5.785   2.983 -0.0722 -1.1361  0.7253
 3371TIP3    H210078   5.031   5.934   2.958 -1.4784 -1.5257 -2.0905
 3372TIP3   OH210079   4.541   3.946   5.478 -0.0030  0.0489  0.5769
 3372TIP3    H110080   4.629   3.934   5.442  1.4699  0.0525  3.8118
 3372TIP3    H210081   4.486   3.885   5.428  1.2146  1.7074 -3.1434
 3373TIP3   OH210082   2.108   1.649   1.988 -0.2131  0.2989  0.8365
 3373TIP3    H110083   2.201   1.644   1.966 -0.2192  0.4248  0.7800
 3373TIP3    H210084   2.086   1.742   1.977 -0.7718 -0.0055 -0.8818
 3374TIP3   OH210085   4.596   0.742   2.008  0.0231 -0.3286 -0.2273
 3374TIP3    H110086   4.662   0.811   1.992  0.1257 -0.5564 -0.7767
 3374TIP3    H210087   4.631   0.665   1.965  0.1764 -0.8813  0.8667
 3375TIP3   OH210088   6.587   6.680   3.082  0.8162 -0.1695  0.7648
 3375TIP3    H110089   6.534   6.632   3.017  0.1393 -0.5793  1.5955
 3375TIP3    H210090   6.657   6.721   3.031 -0.5356  0.7384 -0.4529
 3376TIP3   OH210091   7.139   0.883   2.172  0.5562  0.1561  0.6623
 3376TIP3    H110092   7.128   0.976   2.191 -0.2635  0.9289 -2.9229
 3376TIP3    H210093   7.050   0.847   2.170  0.6363 -0.0186 -0.7475
 3377TIP3   OH210094   3.597   2.139   3.161  0.5191  0.1737  0.0437
 3377TIP3    H110095   3.542   2.168   3.234 -0.1262  1.6856 -0.9830
 3377TIP3    H210096   3.671   2.095   3.203  1.3885  2.9970  1.8006
 3378TIP3   OH210097   1.819   3.183   3.595 -0.1769  0.4362  0.3582
 3378TIP3    H110098   1.754   3.234   3.644 -0.0082 -1.1651  2.4013
 3378TIP3    H210099   1.793   3.092   3.611  1.9524 -0.2071  0.3543
 3379TIP3   OH210100   3.291   2.896   3.863  0.0046  0.1066 -0.2309
 3379TIP3    H110101   3.360   2.916   3.800 -0.5557 -0.0863 -0.9212
 3379TIP3    H210102   3.232   2.838   3.816 -0.6567  0.3049  0.3389
 3380TIP3   OH210103   4.130   3.433   4.111  0.0572  0.3544  0.1476
 3380TIP3    H110104   4.099   3.399   4.195  0.0354  3.3255  1.4744
 3380TIP3    H210105   4.212   3.478   4.132  1.1315 -0.5227 -1.8518
 3381TIP3   OH210106   6.531   0.720   5.201 -0.2179  0.0872  0.0162
 3381TIP3    H110107   6.440   0.693   5.214 -0.2354 -0.0482 -0.3729
 3381TIP3    H210108   6.577   0.639   5.177 -0.9360  0.7796 -4.7683
 3382TIP3   OH210109   4.438   6.690   5.476 -0.0667 -0.1760 -0.2817
 3382TIP3    H110110   4.456   6.689   5.382  0.2938  0.1429 -0.2186
 3382TIP3    H210111   4.370   6.757   5.486 -0.0228 -0.1285 -0.3009
 3383TIP3   OH210112   1.375   3.698   1.267  0.1202 -0.2140  0.2357
 3383TIP3    H110113   1.328   3.615   1.276  0.9717 -1.0525 -2.2305
 3383TIP3    H210114   1.366   3.720   1.175  0.4521  2.1652  0.7175
 3384TIP3   OH210115   0.173   3.679   2.881 -0.2476 -0.5271  0.3721
 3384TIP3    H110116   0.164   3.727   2.963 -0.5147  1.9664 -1.0071
 3384TIP3    H210117   0.083   3.664   2.852 -0.2082  1.2753 -0.8450
 3385TIP3   OH210118   5.218   5.112   2.861 -0.2341  0.0410 -0.5534
 3385TIP3    H110119   5.195   5.021   2.839  0.7683 -0.4418  0.3347
 3385TIP3    H210120   5.256   5.146   2.780 -0.0429 -0.5358 -0.7165
 3386TIP3   OH210121   1.506   4.020   4.001 -0.2080  0.1481 -0.1305
 3386TIP3    H110122   1.506   3.924   4.000 -0.4168  0.0908  1.5726
 3386TIP3    H210123   1.568   4.043   4.071 -1.9489  1.1543  1.1752
 3387TIP3   OH210124   2.180   3.597   4.741  0.3232 -0.2191  0.4093
 3387TIP3    H110125   2.268   3.631   4.759  1.3680 -2.3693 -0.2963
 3387TIP3    H210126   2.176   3.516   4.791 -1.0353 -0.4881 -0.1077
 3388TIP3   OH210127   5.348   0.719   2.053 -0.0378  0.0202  0.7973
 3388TIP3    H110128   5.438   0.702   2.081  0.3513 -0.0798 -0.4729
 3388TIP3    H210129   5.296   0.706   2.133  1.0498 -0.0183  1.5275
 3389TIP3   OH210130   3.668   4.152   3.787  0.0422 -0.4103 -0.3314
 3389TIP3    H110131   3.714   4.164   3.870  1.4491 -2.9843 -0.6490
 3389TIP3    H210132   3.648   4.059   3.783 -1.2819 -0.1097 -2.2547
 3390TIP3   OH210133   4.386   3.961   2.625 -0.2350  0.1460 -0.6329
 3390TIP3    H110134   4.305   3.917   2.652  0.1089  1.0149  2.2584
 3390TIP3    H210135   4.357   4.045   2.590 -0.6528  0.3265  0.1068
 3391TIP3   OH210136   6.540   3.074   4.024 -0.5643 -0.5047 -0.3842
 3391TIP3    H110137   6.448   3.078   3.996 -1.4485 -1.4257  2.1434
 3391TIP3    H210138   6.542   3.007   4.092  1.6430  0.6966  0.8638
 3392TIP3   OH210139   4.633   2.112   1.186  0.4568 -0.0364 -0.3655
 3392TIP3    H110140   4.673   2.185   1.232 -0.6315  0.9899 -0.9805
 3392TIP3    H210141   4.589   2.061   1.254 -0.0196  0.7177 -0.1010
 3393TIP3   OH210142   0.834   1.528   1.598 -0.3847 -0.0704  0.2466
 3393TIP3    H110143   0.769   1.551   1.664  1.1683 -0.7120  2.0743
 3393TIP3    H210144   0.902   1.481   1.646  2.2761  1.9758 -1.2195
 3394TIP3   OH210145   6.778   1.465   3.764  0.0407  0.0953 -0.2967
 3394TIP3    H110146   6.843   1.454   3.695 -1.0967 -0.9162 -1.2467
 3394TIP3    H210147   6.792   1.555   3.796  2.1459 -0.2317 -0.1755
 3395TIP3   OH210148   5.073   1.023   0.773 -0.0141  0.1942 -0.3185
 3395TIP3    H110149   5.060   1.017   0.868  0.0475 -2.8887 -0.3821
 3395TIP3    H210150   4.987   1.008   0.736  0.4475 -2.1107 -0.6639
 3396TIP3   OH210151   4.744   1.562   0.190  0.1253  0.3732  0.0598
 3396TIP3    H110152   4.766   1.490   0.249 -1.8931  2.1375  3.2219
 3396TIP3    H210153   4.821   1.618   0.190  0.0378  0.5190  1.3680
 3397TIP3   OH210154   0.033   0.880   1.905 -0.3409 -0.5269  0.1350
 3397TIP3    H110155   0.031   0.950   1.970 -2.5478  0.1325 -0.5708
 3397TIP3    H210156   0.037   0.799   1.955  2.3231  0.0058  0.9713
 3398TIP3   OH210157   1.417   0.614   3.209  0.3579  0.4558  0.5138
 3398TIP3    H110158   1.511   0.596   3.212  0.5123  1.3249  1.3404
 3398TIP3    H210159   1.383   0.577   3.291 -0.0834 -0.1140  0.0845
 3399TIP3   OH210160   0.378   3.369   1.402 -0.0069  0.1929 -0.2661
 3399TIP3    H110161   0.436   3.445   1.396 -0.2383  0.3146 -1.1167
 3399TIP3    H210162   0.396   3.319   1.322 -0.7036 -0.0248 -0.2930
 3400TIP3   OH210163   3.623   0.762   5.016  0.0431 -0.0486  0.4475
 3400TIP3    H110164   3.687   0.736   4.950 -1.2926  0.3270 -1.0603
 3400TIP3    H210165   3.575   0.681   5.036 -0.9331  0.2232 -0.6569
 3401TIP3   OH210166   1.076   2.475   2.165 -0.4820 -0.6079  0.4343
 3401TIP3    H110167   1.008   2.507   2.225  0.4476 -0.2595  1.3251
 3401TIP3    H210168   1.036   2.482   2.079 -1.0289  1.1481  0.7767
 3402TIP3   OH210169   4.964   5.999   4.833  0.2973 -0.4884  0.1496
 3402TIP3    H110170   4.891   6.060   4.819  0.0186 -0.7447  0.4743
 3402TIP3    H210171   5.042   6.054   4.829  0.0709 -0.1671  0.0690
 3403TIP3   OH210172   1.526   1.759   1.292 -0.0302 -0.5516 -0.0136
 3403TIP3    H110173   1.444   1.755   1.343  1.0165 -1.8511  1.6933
 3403TIP3    H210174   1.521   1.842   1.245 -1.1723  0.6852  2.1248
 3404TIP3   OH210175   4.748   5.924   4.041 -0.4905 -0.0337  0.3225
 3404TIP3    H110176   4.730   5.960   3.954 -0.3464  1.5352  0.9088
 3404TIP3    H210177   4.828   5.967   4.069 -1.0345  0.1811  1.6136
 3405TIP3   OH210178   4.280   0.855   1.060  0.1450  0.2259 -0.0571
 3405TIP3    H110179   4.218   0.884   1.127  0.7954  0.1350  0.5958
 3405TIP3    H210180   4.311   0.936   1.019  0.3283  0.3294  0.2838
 3406TIP3   OH210181   6.115   0.238   2.324 -0.0447 -0.0225  0.2521
 3406TIP3    H110182   6.075   0.323   2.341  0.6222 -0.2101  3.4174
 3406TIP3    H210183   6.209   0.255   2.322  0.1423 -0.7514  1.7279
 3407TIP3   OH210184   4.293   0.488   5.113  0.1148  0.0010 -0.2445
 3407TIP3    H110185   4.303   0.394   5.096 -0.9249 -0.5670  1.9003
 3407TIP3    H210186   4.200   0.499   5.134  0.6730  1.0179  2.0042
 3408TIP3   OH210187   2.177   6.126   1.205 -0.0614  0.5173  0.2089
 3408TIP3    H110188   2.105   6.064   1.194 -1.6101  2.3577 -0.5909
 3408TIP3    H210189   2.157   6.173   1.286  0.5039  0.7279  0.2338
 3409TIP3   OH210190   2.668   5.236   2.240  0.1967 -0.0049 -0.2002
 3409TIP3    H110191   2.739   5.172   2.233  0.4220  0.0404  1.2834
 3409TIP3    H210192   2.701   5.301   2.302 -1.0358  0.1655  0.2980
 3410TIP3   OH210193   6.288   5.971   2.954  0.1010 -0.8343 -0.1336
 3410TIP3    H110194   6.282   6.023   2.874  1.1652  1.2158  1.0290
 3410TIP3    H210195   6.369   6.002   2.996 -1.1602 -0.7675  2.4266
 3411TIP3   OH210196   6.046   2.292   0.447 -0.0081  0.1077 -0.0160
 3411TIP3    H110197   6.115   2.263   0.387 -0.6560 -1.9019  0.1433
 3411TIP3    H210198   6.088   2.290   0.533 -0.2477 -1.2095  0.0940
 3412TIP3   OH210199   3.744   3.163   2.524 -0.0029 -0.8359  0.9193
 3412TIP3    H110200   3.701   3.174   2.609 -0.2080  1.5736  0.5787
 3412TIP3    H210201   3.674   3.173   2.460  0.6616  1.0063  0.4130
 3413TIP3   OH210202   1.705   2.852   5.568  0.5996  0.5886  0.2956
 3413TIP3    H110203   1.671   2.767   5.595 -0.7484  0.2763 -2.1351
 3413TIP3    H210204   1.668   2.914   5.631 -2.7025 -0.0522 -0.8017
 3414TIP3   OH210205   4.050   0.484   5.874  0.1430 -0.1827  0.3456
 3414TIP3    H110206   4.015   0.529   5.796 -1.2415 -0.4240  0.7908
 3414TIP3    H210207   4.085   0.554   5.929 -0.0993  0.1359  0.0980
 3415TIP3   OH210208   5.949   4.964   3.775  0.0117  0.7202 -0.1765
 3415TIP3    H110209   5.948   5.045   3.826  0.0035  1.9893 -2.1105
 3415TIP3    H210210   5.868   4.967   3.724 -0.4855 -1.0155  0.4362
 3416TIP3   OH210211   4.743   2.523   3.493 -0.7231  0.4545 -0.4765
 3416TIP3    H110212   4.778   2.440   3.527  1.2126  0.7995 -1.4448
 3416TIP3    H210213   4.655   2.501   3.462 -0.4786 -1.0906 -0.1557
 3417TIP3   OH210214   2.533   2.704   3.520  0.3649  0.0016 -0.0550
 3417TIP3    H110215   2.558   2.772   3.457 -1.3688  0.0972 -0.6965
 3417TIP3    H210216   2.500   2.754   3.596 -0.8763 -0.0879 -0.5124
 3418TIP3   OH210217   1.220   2.154   3.579 -0.1891 -0.2928 -0.3697
 3418TIP3    H110218   1.221   2.247   3.558  0.2564 -0.3106 -0.4461
 3418TIP3    H210219   1.159   2.146   3.652 -1.5655 -0.1934 -1.4794
 3419TIP3   OH210220   7.074   1.962   2.663  0.1425  0.2079 -0.2810
 3419TIP3    H110221   7.046   2.009   2.585 -0.9805 -0.9088 -0.5754
 3419TIP3    H210222   6.994   1.942   2.710  0.3248 -2.8809 -1.0333
 3420TIP3   OH210223   0.131   5.239   1.278 -0.3145 -0.1244 -0.1833
 3420TIP3    H110224   0.120   5.323   1.235 -0.4353  0.3939  0.8328
 3420TIP3    H210225   0.064   5.237   1.346  2.1208  0.7008  2.4374
 3421TIP3   OH210226   4.425   3.242   5.168 -0.1075  0.0169  0.1686
 3421TIP3    H110227   4.403   3.279   5.253  1.7091 -0.5467  0.9299
 3421TIP3    H210228   4.515   3.210   5.178 -0.1276 -0.7674 -1.7281
 3422TIP3   OH210229   6.457   0.483   1.979 -0.0746 -0.2720 -0.1251
 3422TIP3    H110230   6.375   0.527   2.002 -0.1857  0.0060 -1.0413
 3422TIP3    H210231   6.440   0.443   1.894  0.8236 -0.0135 -0.4351
 3423TIP3   OH210232   1.316   4.912   5.098  0.0917 -0.0891  0.0867
 3423TIP3    H110233   1.263   4.970   5.044 -0.2231  0.1956  0.6885
 3423TIP3    H210234   1.363   4.857   5.036 -1.4142 -0.8058 -0.4578
 3424TIP3   OH210235   6.558   5.025   2.247 -0.3057  0.5739 -0.2823
 3424TIP3    H110236   6.518   5.046   2.163  0.0896  1.7456 -0.2008
 3424TIP3    H210237   6.591   5.109   2.279  0.9240 -0.1055  0.3167
 3425TIP3   OH210238   1.500   0.422   4.184  0.5437 -0.4815  0.2884
 3425TIP3    H110239   1.499   0.328   4.202 -0.0741 -0.6571 -0.5924
 3425TIP3    H210240   1.407   0.447   4.184  0.7326  0.2982  1.2847
 3426TIP3   OH210241   4.804   2.729   1.072 -0.0969 -0.2339 -0.0599
 3426TIP3    H110242   4.886   2.745   1.119  0.7862 -2.5449 -0.6371
 3426TIP3    H210243   4.828   2.664   1.005 -1.6714  1.6191 -2.5853
 3427TIP3   OH210244   4.116   5.355   2.334 -0.1737 -0.2398  0.3977
 3427TIP3    H110245   4.190   5.319   2.384  0.1048  0.3135  0.3969
 3427TIP3    H210246   4.123   5.315   2.247  1.0628  0.9921 -0.0986
 3428TIP3   OH210247   5.292   0.589   4.414  0.0433 -0.1260 -0.0146
 3428TIP3    H110248   5.245   0.627   4.488 -0.9189 -0.6788 -0.3313
 3428TIP3    H210249   5.321   0.503   4.445  0.9785  0.2553  0.2189
 3429TIP3   OH210250   0.205   0.872   3.398  0.0941 -0.4195  0.3769
 3429TIP3    H110251   0.128   0.822   3.369 -0.8072  0.1344  1.6944
 3429TIP3    H210252   0.242   0.907   3.317  0.8235 -3.2018 -0.6289
 3430TIP3   OH210253   2.140   4.079   5.781  0.3015 -1.0774  0.0738
 3430TIP3    H110254   2.136   4.118   5.868  0.7308  0.6833 -0.6536
 3430TIP3    H210255   2.141   3.985   5.796 -1.4503 -0.8570  1.9021
 3431TIP3   OH210256   6.866   0.856   4.994 -0.2339 -0.3474  0.0781
 3431TIP3    H110257   6.784   0.807   4.993  0.9682 -2.5218 -2.2352
 3431TIP3    H210258   6.846   0.936   4.944 -0.8056 -1.1865 -1.0797
 3432TIP3   OH210259   3.512   1.088   3.559 -0.0340  0.4448 -0.2764
 3432TIP3    H110260   3.449   1.015   3.561 -0.1470  0.5473  0.1450
 3432TIP3    H210261   3.585   1.056   3.612  0.8927 -0.2179 -1.9030
 3433TIP3   OH210262   0.989   1.751   2.094 -0.3817  0.3610 -0.3335
 3433TIP3    H110263   0.995   1.822   2.030 -0.1875 -0.6064 -1.4222
 3433TIP3    H210264   0.895   1.744   2.113 -0.2768  1.8680  0.9290
 3434TIP3   OH210265   5.673   4.462   3.127 -0.3636 -0.2800  0.0411
 3434TIP3    H110266   5.578   4.470   3.138 -0.4265 -0.5296 -0.3103
 3434TIP3    H210267   5.684   4.418   3.043  0.0469 -0.8405  0.3773
 3435TIP3   OH210268   0.050   2.175   4.773  0.0561  0.5983 -0.3209
 3435TIP3    H110269  -0.044   2.179   4.758 -0.2431  0.2046  1.2828
 3435TIP3    H210270   0.088   2.232   4.706 -1.2740  0.3942 -1.2870
 3436TIP3   OH210271   6.983   4.642   0.645 -0.0686  0.3384 -0.2211
 3436TIP3    H110272   7.009   4.730   0.673  0.1909  0.8030 -1.7692
 3436TIP3    H210273   6.888   4.649   0.632  0.0949  0.7175 -1.3316
 3437TIP3   OH210274   3.336   4.612   0.320 -0.6157  0.1703  0.4710
 3437TIP3    H110275   3.342   4.545   0.251 -0.2286  1.4158 -0.7482
 3437TIP3    H210276   3.341   4.562   0.402  0.4921 -1.2372 -0.3958
 3438TIP3   OH210277   1.377   0.402   2.959 -0.0195  0.0108 -0.2287
 3438TIP3    H110278   1.389   0.332   3.023 -3.7603 -0.6326 -0.0143
 3438TIP3    H210279   1.318   0.464   3.001 -0.9344  0.6103 -2.2719
 3439TIP3   OH210280   3.785   1.461   0.237 -0.4960 -0.0483 -0.3467
 3439TIP3    H110281   3.878   1.486   0.233 -0.0931 -1.1438  1.3476
 3439TIP3    H210282   3.738   1.545   0.237  0.4597  0.5148 -1.3907
 3440TIP3   OH210283   4.402   2.390   1.812 -0.0256 -0.3000  0.2814
 3440TIP3    H110284   4.415   2.431   1.898  1.3187  2.1865 -1.0028
 3440TIP3    H210285   4.480   2.336   1.799  0.3870  0.3231  0.1237
 3441TIP3   OH210286   2.097   5.404   2.275 -0.3384  0.6300 -0.3376
 3441TIP3    H110287   2.191   5.394   2.291 -0.0108  1.8391 -1.3904
 3441TIP3    H210288   2.084   5.498   2.266 -1.4846  0.4059 -1.2443
 3442TIP3   OH210289   6.620   5.298   4.596 -0.1019  0.9036  0.5996
 3442TIP3    H110290   6.669   5.371   4.558  0.9396 -0.3115 -0.4910
 3442TIP3    H210291   6.535   5.336   4.619  0.5895  2.5685  0.5568
 3443TIP3   OH210292   6.042   1.774   5.487  0.5274 -0.0871  0.3154
 3443TIP3    H110293   6.089   1.817   5.558  1.3976 -2.3425  1.1959
 3443TIP3    H210294   5.952   1.765   5.520  0.8728 -0.9153  1.0798
 3444TIP3   OH210295   6.734   0.574   0.969 -0.2720 -0.0419 -0.3126
 3444TIP3    H110296   6.698   0.538   1.050 -0.4052  0.6106 -0.0837
 3444TIP3    H210297   6.729   0.669   0.979  1.7881  0.0978 -0.1490
 3445TIP3   OH210298   1.746   5.180   1.576 -0.2427  0.2403  0.3446
 3445TIP3    H110299   1.709   5.092   1.572  0.0900  0.1374 -1.8831
 3445TIP3    H210300   1.680   5.233   1.619 -0.9806 -0.8587  0.5897
 3446TIP3   OH210301   4.076   6.750   5.192  0.0926 -0.2340  0.2465
 3446TIP3    H110302   4.167   6.718   5.196  0.0949 -0.1238  1.4476
 3446TIP3    H210303   4.024   6.671   5.179  0.2392 -0.5285  1.3488
 3447TIP3   OH210304   4.356   3.649   4.560 -0.1230  0.4017  0.1186
 3447TIP3    H110305   4.356   3.617   4.470 -0.1317  1.8910 -0.4350
 3447TIP3    H210306   4.448   3.661   4.583 -0.1277  0.2360  0.2240
 3448TIP3   OH210307   1.571   5.215   4.964 -0.1060 -0.7649  0.5346
 3448TIP3    H110308   1.538   5.182   4.880  1.0362  1.9514 -1.1259
 3448TIP3    H210309   1.648   5.161   4.981 -0.3763 -1.3911 -0.1377
 3449TIP3   OH210310   7.209   0.703   5.552  0.3696  0.2994  0.2800
 3449TIP3    H110311   7.118   0.674   5.561 -0.3480  2.2695 -0.0760
 3449TIP3    H210312   7.231   0.684   5.460  0.8633 -1.5232  0.7356
 3450TIP3   OH210313   5.819   1.218   0.618 -0.2172 -0.3405 -0.5820
 3450TIP3    H110314   5.742   1.265   0.650 -1.0362 -0.1151 -2.7062
 3450TIP3    H210315   5.893   1.275   0.638 -0.6955 -0.1487  0.6870
 3451TIP3   OH210316   0.158   6.162   1.049 -1.1368  0.2446 -0.1490
 3451TIP3    H110317   0.104   6.218   0.993 -0.6785  1.6311  0.7433
 3451TIP3    H210318   0.248   6.184   1.025 -0.8982 -1.6121 -1.1937
 3452TIP3   OH210319   6.568   6.803   5.219 -0.2852  0.3987 -0.3841
 3452TIP3    H110320   6.494   6.839   5.268 -2.2012 -1.8151 -1.4467
 3452TIP3    H210321   6.620   6.756   5.284 -0.8937  0.3389  0.0594
 3453TIP3   OH210322   4.067   1.340   1.299  1.5314 -0.7699 -0.2061
 3453TIP3    H110323   4.049   1.381   1.383 -0.5013  1.9391 -1.8193
 3453TIP3    H210324   4.078   1.412   1.238 -0.6303 -2.5413 -2.9523
 3454TIP3   OH210325   5.572   5.099   0.561 -0.1178  0.4963 -0.1228
 3454TIP3    H110326   5.644   5.160   0.544 -0.2650  0.1424 -2.2730
 3454TIP3    H210327   5.586   5.027   0.500  0.0325 -1.6955  2.3066
 3455TIP3   OH210328   0.211   3.982   3.598  0.3183 -0.7913 -0.0541
 3455TIP3    H110329   0.223   3.984   3.693  0.8944 -0.4742 -0.1288
 3455TIP3    H210330   0.138   4.042   3.582  2.4618  2.0277 -0.1037
 3456TIP3   OH210331   1.024   5.032   3.811  0.2659 -0.0337 -0.4859
 3456TIP3    H110332   0.957   4.966   3.792  0.4954 -0.3280 -0.2653
 3456TIP3    H210333   1.009   5.055   3.903  1.6922 -1.5131  0.1643
 3457TIP3   OH210334   4.537   3.025   3.112  0.7524  0.5212  0.4734
 3457TIP3    H110335   4.593   3.087   3.066 -0.8836  1.9378  0.2905
 3457TIP3    H210336   4.478   3.080   3.164 -2.1901 -0.7111 -1.3100
 3458TIP3   OH210337   3.355   2.415   3.097  0.0801 -0.0805  0.6285
 3458TIP3    H110338   3.395   2.358   3.162  2.5264  1.0841  0.2844
 3458TIP3    H210339   3.289   2.465   3.145 -1.6361 -2.6056  1.0630
 3459TIP3   OH210340   6.460   1.510   2.436 -0.0852  0.3810  0.2291
 3459TIP3    H110341   6.369   1.479   2.441 -0.8042  2.0506 -1.3091
 3459TIP3    H210342   6.508   1.450   2.493 -1.6263 -2.5166 -1.2220
 3460TIP3   OH210343   6.140   2.026   1.636 -0.2430  0.3469  0.2406
 3460TIP3    H110344   6.205   1.981   1.690 -0.5253 -1.1203 -0.6192
 3460TIP3    H210345   6.073   1.961   1.618 -1.1770  1.3945 -0.2170
 3461TIP3   OH210346   2.286   4.778   2.963 -0.1772 -0.0017 -0.2781
 3461TIP3    H110347   2.339   4.698   2.962 -0.4568 -0.2649  1.5681
 3461TIP3    H210348   2.200   4.751   2.931 -0.1437 -0.3435 -0.0795
 3462TIP3   OH210349   4.521   3.624   5.662  0.4438  0.3760  1.2642
 3462TIP3    H110350   4.525   3.565   5.738  0.8963 -1.4978 -0.1515
 3462TIP3    H210351   4.612   3.651   5.648  0.0980  2.5109  2.6536
 3463TIP3   OH210352   4.104   0.437   2.652 -0.6812 -0.3197 -0.1222
 3463TIP3    H110353   4.155   0.481   2.584 -2.2995  0.3160 -0.9969
 3463TIP3    H210354   4.168   0.407   2.716  0.6304  1.9036 -0.3241
 3464TIP3   OH210355   2.767   2.373   3.020 -0.9600  0.0201  0.1537
 3464TIP3    H110356   2.707   2.414   3.082 -0.1710 -0.6397  1.3947
 3464TIP3    H210357   2.722   2.380   2.936 -2.2444  0.5772  0.8453
 3465TIP3   OH210358   3.074   4.554   4.079  0.5202  0.3337 -0.4304
 3465TIP3    H110359   3.146   4.597   4.033 -0.1117  0.2946 -1.4963
 3465TIP3    H210360   2.995   4.589   4.036 -0.1026  0.4678  0.7906
 3466TIP3   OH210361   3.332   2.584   2.873 -0.2089  0.1732  0.7802
 3466TIP3    H110362   3.353   2.510   2.931  0.8358  0.9976  1.4926
 3466TIP3    H210363   3.400   2.648   2.891 -0.1031  0.6273 -1.0858
 3467TIP3   OH210364   6.295   4.123   3.768  0.4936  0.4842 -0.3750
 3467TIP3    H110365   6.344   4.160   3.841  0.0061 -0.1370  0.2842
 3467TIP3    H210366   6.361   4.096   3.704  0.9945 -0.0581  0.3616
 3468TIP3   OH210367   3.864   4.999   0.905  0.1429  0.3125 -0.4552
 3468TIP3    H110368   3.835   5.003   0.814  1.3386 -0.0210 -0.8667
 3468TIP3    H210369   3.913   5.081   0.918  0.1304  0.2765 -0.1708
 3469TIP3   OH210370   6.701   2.696   0.149 -0.1676 -0.8590  0.0823
 3469TIP3    H110371   6.694   2.726   0.240  0.5247 -0.2194 -0.0663
 3469TIP3    H210372   6.613   2.705   0.114 -0.2103 -0.0347  0.3709
 3470TIP3   OH210373   4.094   5.270   5.408  0.2941 -0.7371  0.4961
 3470TIP3    H110374   4.091   5.193   5.351  3.4082  0.2226 -1.1856
 3470TIP3    H210375   4.086   5.345   5.349  2.1739  0.2564  1.3935
 3471TIP3   OH210376   6.108   1.265   4.801  0.1722 -0.0805 -0.4794
 3471TIP3    H110377   6.101   1.233   4.711 -0.8304 -0.2987 -0.3387
 3471TIP3    H210378   6.199   1.293   4.810  0.8007 -1.8950 -0.9272
 3472TIP3   OH210379   1.382   1.441   5.247  0.5300  0.6175  0.1590
 3472TIP3    H110380   1.336   1.439   5.331  0.2205  3.6217  0.1836
 3472TIP3    H210381   1.317   1.412   5.183  0.4772 -0.7670  0.8121
 3473TIP3   OH210382   6.322   5.629   0.913  0.1989 -0.3629 -0.5707
 3473TIP3    H110383   6.413   5.603   0.898  1.1629 -0.1468  3.6034
 3473TIP3    H210384   6.277   5.547   0.934  0.7980 -0.0317  2.4520
 3474TIP3   OH210385   4.390   5.170   1.063  0.6137 -0.2515  0.1435
 3474TIP3    H110386   4.383   5.086   1.017 -2.7068 -0.2782  0.4888
 3474TIP3    H210387   4.375   5.148   1.155 -0.8941  0.7537  0.1621
 3475TIP3   OH210388   6.930   0.322   5.603  1.4018 -0.4318  0.8789
 3475TIP3    H110389   7.015   0.360   5.625  0.6157  0.2075  3.0050
 3475TIP3    H210390   6.922   0.245   5.660 -0.3802  0.8346  2.4460
 3476TIP3   OH210391   4.595   1.345   2.230  0.1141  0.1878 -0.0257
 3476TIP3    H110392   4.502   1.358   2.250  0.2086  0.2810  0.3725
 3476TIP3    H210393   4.636   1.429   2.250  0.2948  0.1210 -0.1174
 3477TIP3   OH210394   3.994   4.871   4.558  0.0649 -0.2494 -0.3426
 3477TIP3    H110395   3.956   4.807   4.617 -0.8349  0.2759 -0.3417
 3477TIP3    H210396   4.059   4.917   4.611 -2.1213  1.5914  0.8895
 3478TIP3   OH210397   0.411   2.711   5.423 -0.1145  0.0737 -0.1105
 3478TIP3    H110398   0.323   2.712   5.461 -0.3125  0.7344 -0.5719
 3478TIP3    H210399   0.398   2.682   5.333  0.5710 -3.4595  0.7895
 3479TIP3   OH210400   5.470   1.204   2.422 -0.3981 -0.4013 -0.3569
 3479TIP3    H110401   5.383   1.166   2.433 -0.6148  0.1293 -0.2474
 3479TIP3    H210402   5.508   1.154   2.349 -0.9632 -0.3325 -0.7043
 3480TIP3   OH210403   5.820   4.824   1.199 -0.3372 -0.2268 -0.7657
 3480TIP3    H110404   5.863   4.892   1.251 -1.8315  0.4581 -0.3760
 3480TIP3    H210405   5.772   4.871   1.131 -0.9570 -0.9195 -0.8240
 3481TIP3   OH210406   0.233   6.681   3.265  0.5367  0.2915  0.6743
 3481TIP3    H110407   0.293   6.729   3.322  0.9123  2.1843 -1.1963
 3481TIP3    H210408   0.180   6.749   3.223  1.3152 -0.8364 -2.3640
 3482TIP3   OH210409   3.927   1.168   2.547  0.6230  0.2963  0.4721
 3482TIP3    H110410   3.860   1.112   2.586  1.5878 -0.8681  0.5073
 3482TIP3    H210411   3.993   1.177   2.616  0.6671  1.1564  0.3252
 3483TIP3   OH210412   5.721   0.827   1.953 -0.5303  0.4149 -0.4160
 3483TIP3    H110413   5.765   0.759   1.902  0.3774  0.2457  0.5508
 3483TIP3    H210414   5.700   0.895   1.889  0.1330 -0.0080 -1.1030
 3484TIP3   OH210415   2.655   4.766   2.957 -0.4786  0.2554  0.0200
 3484TIP3    H110416   2.601   4.777   2.879  0.2698 -0.1457 -0.5767
 3484TIP3    H210417   2.675   4.855   2.986 -0.9093  0.4043 -0.1470
 3485TIP3   OH210418   1.402   2.011   2.684  0.0957 -0.1118 -0.4895
 3485TIP3    H110419   1.453   1.965   2.618 -1.5233 -1.1784 -1.0567
 3485TIP3    H210420   1.332   2.053   2.635  0.3708  1.3175  0.2706
 3486TIP3   OH210421   3.937   4.198   1.237  0.4054 -0.3718  0.3719
 3486TIP3    H110422   3.939   4.268   1.172 -1.2120 -0.0694  0.6216
 3486TIP3    H210423   3.954   4.118   1.187  0.7566  0.0257 -0.1545
 3487TIP3   OH210424   3.641   5.795   2.196  0.1985  0.0058 -0.2280
 3487TIP3    H110425   3.627   5.829   2.108  3.3755 -0.3259 -0.9630
 3487TIP3    H210426   3.607   5.864   2.253 -0.9618  0.6855 -1.6688
 3488TIP3   OH210427   0.881   4.629   2.097  0.0417 -0.1048 -0.0599
 3488TIP3    H110428   0.975   4.618   2.112  0.0140  0.3125  0.4383
 3488TIP3    H210429   0.847   4.540   2.091  0.4411 -0.2566 -0.0827
 3489TIP3   OH210430   2.562   3.767   0.976 -0.2775 -0.2093 -0.2249
 3489TIP3    H110431   2.527   3.787   1.063 -1.5880 -0.6178 -0.6342
 3489TIP3    H210432   2.649   3.807   0.975 -0.0426 -0.6062  1.4475
 3490TIP3   OH210433   6.921   5.334   3.199 -0.1578  0.2781 -0.0829
 3490TIP3    H110434   7.002   5.325   3.147  0.6393  1.0676  0.9916
 3490TIP3    H210435   6.872   5.254   3.180 -0.6906  1.2152 -3.3392
 3491TIP3   OH210436   1.737   4.168   2.209  0.0608 -0.1490 -0.2438
 3491TIP3    H110437   1.738   4.242   2.148 -0.7654  0.6319  0.6453
 3491TIP3    H210438   1.828   4.160   2.238  0.3541 -0.1618 -1.1277
 3492TIP3   OH210439   2.444   5.149   5.409  0.2276 -0.1121  0.0056
 3492TIP3    H110440   2.398   5.136   5.492  0.9948 -0.3038  0.4062
 3492TIP3    H210441   2.524   5.099   5.417  0.3573 -0.0573 -0.8230
 3493TIP3   OH210442   6.826   0.677   5.444 -0.1484  0.0252 -0.1844
 3493TIP3    H110443   6.787   0.598   5.409 -0.0057  0.4216 -1.2712
 3493TIP3    H210444   6.768   0.703   5.516 -1.1039 -0.1736 -0.8633
 3494TIP3   OH210445   7.078   0.967   2.480 -0.2966 -0.2837 -0.0526
 3494TIP3    H110446   7.070   0.988   2.573  1.8868 -1.1005  0.3676
 3494TIP3    H210447   7.093   0.873   2.478 -1.0089 -0.3976 -1.3137
 3495TIP3   OH210448   3.253   3.557   2.219  0.0594  0.5325  0.1200
 3495TIP3    H110449   3.339   3.538   2.183 -0.6713 -0.3287 -1.2347
 3495TIP3    H210450   3.209   3.607   2.151 -0.9717 -0.1592  0.2677
 3496TIP3   OH210451   6.035   6.362   2.690 -0.6710  0.1686  0.3615
 3496TIP3    H110452   6.041   6.335   2.599  0.3674  0.6556  0.2729
 3496TIP3    H210453   5.988   6.290   2.733 -1.4963  0.0995 -0.6071
 3497TIP3   OH210454   2.119   5.133   1.258 -0.4306 -0.2586  0.0048
 3497TIP3    H110455   2.147   5.081   1.183  2.5082  1.7534 -0.4834
 3497TIP3    H210456   2.160   5.090   1.333 -0.7833 -0.5224  0.0467
 3498TIP3   OH210457   3.294   5.142   1.837  0.2122  0.0693  0.0372
 3498TIP3    H110458   3.269   5.057   1.873  0.6885 -0.1923 -0.2399
 3498TIP3    H210459   3.270   5.205   1.904 -0.9601 -0.1982 -0.1108
 3499TIP3   OH210460   5.630   1.538   4.603 -0.1555  0.1465 -0.3657
 3499TIP3    H110461   5.690   1.523   4.677 -0.2829  0.5109 -0.1851
 3499TIP3    H210462   5.567   1.602   4.636 -0.6418 -0.2288 -0.5605
 3500TIP3   OH210463   0.078   4.054   5.791 -0.4334  0.1401 -0.3465
 3500TIP3    H110464  -0.005   4.101   5.798 -0.1437  0.7055 -0.6097
 3500TIP3    H210465   0.111   4.077   5.704  0.5416  0.8325  0.1863
 3501TIP3   OH210466   2.076   3.684   2.630  0.4825  0.0203 -0.3667
 3501TIP3    H110467   2.040   3.614   2.575 -0.0985  0.4720 -0.5825
 3501TIP3    H210468   2.026   3.762   2.605  2.4375  0.9705 -1.5451
 3502TIP3   OH210469   0.390   6.259   3.856 -0.3040  0.5463  0.4185
 3502TIP3    H110470   0.433   6.343   3.839 -2.3099  1.6744  0.6018
 3502TIP3    H210471   0.297   6.276   3.841 -0.5612 -2.3858 -2.4648
 3503TIP3   OH210472   1.971   1.968   2.025 -0.9475 -0.3161  0.0371
 3503TIP3    H110473   1.900   1.990   2.084 -0.4330  1.9768 -0.0936
 3503TIP3    H210474   1.943   2.002   1.940  0.2543  0.6516 -0.0098
 3504TIP3   OH210475   2.813   1.195   1.194  0.2003  0.2950 -0.0625
 3504TIP3    H110476   2.762   1.269   1.228 -3.0969 -1.1166 -1.5577
 3504TIP3    H210477   2.772   1.117   1.231  0.3966 -0.9927 -2.3719
 3505TIP3   OH210478   0.296   5.324   5.842  0.3646  0.5231 -0.4310
 3505TIP3    H110479   0.229   5.311   5.775 -0.6627  0.0388  0.6664
 3505TIP3    H210480   0.294   5.418   5.860 -1.4890  0.2542  1.0376
 3506TIP3   OH210481   0.742   5.386   1.545  0.3309  0.1379 -0.1838
 3506TIP3    H110482   0.675   5.335   1.591  0.2781  0.2673 -0.1177
 3506TIP3    H210483   0.779   5.324   1.482 -1.4119  0.6634 -1.8311
 3507TIP3   OH210484   5.374   4.306   2.606 -0.3723 -0.4143 -0.1207
 3507TIP3    H110485   5.327   4.279   2.527  0.0025 -0.2031 -0.4136
 3507TIP3    H210486   5.316   4.370   2.648  0.4481  1.2217 -1.4206
 3508TIP3   OH210487   1.495   5.105   3.718 -0.3664  0.4679 -0.0701
 3508TIP3    H110488   1.427   5.149   3.768  0.0517  1.5126 -0.3871
 3508TIP3    H210489   1.475   5.126   3.627 -1.2427 -1.5847 -0.4204
 3509TIP3   OH210490   0.034   0.298   4.917  0.4995 -0.0936  0.0215
 3509TIP3    H110491  -0.058   0.287   4.940 -0.3677 -0.0541 -2.9990
 3509TIP3    H210492   0.070   0.209   4.918  0.5618 -0.0756  1.5158
 3510TIP3   OH210493   5.634   3.196   1.963  0.2193  0.0136 -0.4607
 3510TIP3    H110494   5.592   3.187   2.049  0.1291  2.4141 -0.2034
 3510TIP3    H210495   5.674   3.283   1.964  0.9202 -0.2167 -2.5733
 3511TIP3   OH210496   5.087   1.990   2.172  0.2548 -0.5986 -0.3416
 3511TIP3    H110497   5.135   1.914   2.205  0.3399 -0.7288 -0.7499
 3511TIP3    H210498   5.090   2.054   2.243 -2.7828 -2.2077  1.4305
 3512TIP3   OH210499   7.023   4.959   4.232 -0.6529  0.4875 -0.2500
 3512TIP3    H110500   6.966   5.035   4.217 -0.5978  0.5594 -0.1006
 3512TIP3    H210501   6.997   4.926   4.318 -0.1478  0.8102  0.0329
 3513TIP3   OH210502   3.607   4.632   3.371 -0.4477 -0.0951  0.0584
 3513TIP3    H110503   3.697   4.656   3.347 -0.7694  1.4455  0.2851
 3513TIP3    H210504   3.611   4.538   3.390  1.2057  0.0417  0.5019
 3514TIP3   OH210505   3.565   4.525   5.217  0.2446 -1.4723  0.3599
 3514TIP3    H110506   3.593   4.581   5.144  1.4823  0.2124  2.0189
 3514TIP3    H210507   3.645   4.481   5.244  1.3696  2.2395  4.1878
 3515TIP3   OH210508   6.756   0.496   0.679  0.4437 -0.1562  0.3942
 3515TIP3    H110509   6.818   0.525   0.612 -0.3822  0.3798 -0.1652
 3515TIP3    H210510   6.770   0.557   0.752 -0.8349  1.3266 -0.5290
 3516TIP3   OH210511   3.539   0.504   2.448 -0.1736 -0.1753 -0.6608
 3516TIP3    H110512   3.478   0.476   2.380 -0.8835 -1.1476  0.3557
 3516TIP3    H210513   3.497   0.481   2.530  1.1116  0.0803  0.0991
 3517TIP3   OH210514   5.452   1.763   5.717 -0.0216  0.7307 -0.6222
 3517TIP3    H110515   5.510   1.687   5.710  0.2747  0.4167  3.2690
 3517TIP3    H210516   5.372   1.737   5.672  0.3432 -1.6003 -0.0498
 3518TIP3   OH210517   3.883   4.841   4.901  0.0727 -0.3969 -0.1743
 3518TIP3    H110518   3.909   4.750   4.886  3.6166  0.5943 -1.0448
 3518TIP3    H210519   3.793   4.846   4.872 -0.5838 -3.8228  0.8499
 3519TIP3   OH210520   3.967   2.471   0.397 -0.2792  0.3610  0.2057
 3519TIP3    H110521   3.973   2.422   0.316  2.3954  2.6591 -1.1698
 3519TIP3    H210522   4.048   2.450   0.444 -1.1398  0.1460  1.6665
 3520TIP3   OH210523   0.041   4.882   0.761 -0.5942  0.0754  0.4722
 3520TIP3    H110524   0.111   4.842   0.813 -0.9528  0.2898  1.1263
 3520TIP3    H210525   0.072   4.970   0.742  0.8066 -0.8479 -2.1130
 3521TIP3   OH210526   1.152   0.357   5.212 -0.4269 -0.1168  0.1491
 3521TIP3    H110527   1.154   0.352   5.307 -0.8275  1.4865  0.2778
 3521TIP3    H210528   1.230   0.309   5.183 -0.4823 -0.8942  1.2549
 3522TIP3   OH210529   4.622   6.102   0.215  0.3221  0.2663 -0.0647
 3522TIP3    H110530   4.599   6.079   0.305  2.0710 -0.2674  0.2827
 3522TIP3    H210531   4.656   6.191   0.220  2.2842 -0.4421  0.1948
 3523TIP3   OH210532   3.414   0.103   5.015 -0.2885 -0.0152  0.5501
 3523TIP3    H110533   3.497   0.142   4.989 -0.5756  0.7529  0.7785
 3523TIP3    H210534   3.436   0.046   5.089  0.1236 -0.2802  0.2301
 3524TIP3   OH210535   6.802   0.141   1.344  0.1513  0.3509 -0.0809
 3524TIP3    H110536   6.751   0.112   1.267  0.2915 -1.5525  0.4915
 3524TIP3    H210537   6.737   0.147   1.414  0.4504 -0.5965  0.2881
 3525TIP3   OH210538   1.513   4.509   4.274 -0.0197  0.2148  0.5101
 3525TIP3    H110539   1.547   4.584   4.225  0.3422  0.4155  1.0542
 3525TIP3    H210540   1.525   4.434   4.216  1.7504  0.2150  0.8340
 3526TIP3   OH210541   0.711   5.634   5.582  0.6997  0.1470  0.2088
 3526TIP3    H110542   0.741   5.724   5.589 -0.2474  0.4001  1.5259
 3526TIP3    H210543   0.679   5.625   5.492  2.3355  0.5954 -0.4446
 3527TIP3   OH210544   0.147   0.290   2.376 -0.1385 -0.1359  0.2296
 3527TIP3    H110545   0.233   0.329   2.392 -0.4844 -0.1622  2.5414
 3527TIP3    H210546   0.151   0.259   2.286  1.5276  1.7038 -0.4011
 3528TIP3   OH210547   3.362   1.059   1.920 -0.5395  0.0395  0.1950
 3528TIP3    H110548   3.335   1.078   2.010 -1.7000  1.0731 -0.3530
 3528TIP3    H210549   3.280   1.038   1.874 -0.3637  2.3028 -1.2842
 3529TIP3   OH210550   2.984   6.073   5.178  0.2458 -0.3076  0.0393
 3529TIP3    H110551   2.989   6.000   5.240 -1.4413 -1.1290 -0.7197
 3529TIP3    H210552   3.038   6.046   5.104  1.3141  0.1569  0.6360
 3530TIP3   OH210553   0.843   1.811   1.501 -0.3307 -0.7939  0.4902
 3530TIP3    H110554   0.916   1.872   1.513 -1.3081  0.6781 -0.6469
 3530TIP3    H210555   0.871   1.730   1.544  1.0224  0.4488  2.0622
 3531TIP3   OH210556   3.731   2.269   1.252  0.0896 -0.1797  0.2733
 3531TIP3    H110557   3.771   2.290   1.169 -0.5690 -1.1194 -0.3143
 3531TIP3    H210558   3.679   2.346   1.275  1.3769  0.6405  0.5463
 3532TIP3   OH210559   2.562   3.106   4.383 -0.4430 -0.6218 -0.4135
 3532TIP3    H110560   2.628   3.152   4.435 -0.7995 -0.6523  0.0685
 3532TIP3    H210561   2.611   3.071   4.308  0.0941 -0.6568 -0.0515
 3533TIP3   OH210562   0.562   0.868   3.434 -0.4939 -0.6883  0.3672
 3533TIP3    H110563   0.613   0.807   3.380  2.4153  0.4395  1.6386
 3533TIP3    H210564   0.513   0.813   3.494  2.2443 -1.9241  1.6537
 3534TIP3   OH210565   4.771   0.406   0.677  0.4509  0.1207  0.1729
 3534TIP3    H110566   4.705   0.380   0.613 -0.5019  2.2107  0.2267
 3534TIP3    H210567   4.848   0.426   0.624  0.9269 -1.8098  0.0646
 3535TIP3   OH210568   6.206   4.211   0.723 -0.2674  0.3995  0.4776
 3535TIP3    H110569   6.271   4.242   0.787  1.0298 -0.6787 -0.2869
 3535TIP3    H210570   6.177   4.291   0.678  3.1352  0.6436 -1.5732
 3536TIP3   OH210571   2.497   5.738   1.167  0.3027 -0.0071  0.2949
 3536TIP3    H110572   2.548   5.808   1.209 -0.6659  1.9728 -1.6732
 3536TIP3    H210573   2.430   5.784   1.116 -0.4556 -2.3916 -0.9946
 3537TIP3   OH210574   4.433   0.296   2.197 -0.1466 -0.3111 -0.2151
 3537TIP3    H110575   4.525   0.320   2.212  0.8668 -4.3127  1.3492
 3537TIP3    H210576   4.415   0.324   2.107  1.8529  2.4909  0.1309
 3538TIP3   OH210577   2.067   0.123   4.390 -0.0510  0.5359  0.0231
 3538TIP3    H110578   2.064   0.027   4.394 -0.7305  0.4924 -1.0080
 3538TIP3    H210579   2.142   0.142   4.333 -0.5420  0.5690 -0.6272
 3539TIP3   OH210580   0.107   5.407   2.454  0.0049  0.0358 -0.2180
 3539TIP3    H110581   0.109   5.445   2.366 -1.1048  2.3208  0.6593
 3539TIP3    H210582   0.130   5.480   2.512 -1.1017 -0.9199  1.5078
 3540TIP3   OH210583   4.533   4.674   0.845  0.2426  0.1851  0.8133
 3540TIP3    H110584   4.580   4.630   0.916  1.0309  1.9193  1.4150
 3540TIP3    H210585   4.496   4.752   0.886 -0.8207  0.2943 -0.3053
 3541TIP3   OH210586   6.271   4.579   5.798 -0.2058  0.6404  0.0312
 3541TIP3    H110587   6.335   4.599   5.729  0.8459  0.2406  0.8766
 3541TIP3    H210588   6.193   4.553   5.750 -0.1006  2.1267 -1.0445
 3542TIP3   OH210589   5.170   0.243   0.252  0.7885  0.3504  0.0613
 3542TIP3    H110590   5.133   0.238   0.164  0.0474  0.9800  0.3359
 3542TIP3    H210591   5.228   0.320   0.250  3.4392 -1.5006 -0.8442
 3543TIP3   OH210592   0.876   0.812   5.602 -0.1475  0.7041  0.2023
 3543TIP3    H110593   0.836   0.825   5.688 -2.5218 -0.0524 -0.6952
 3543TIP3    H210594   0.950   0.754   5.618 -0.8494  0.1575  1.6659
 3544TIP3   OH210595   0.252   4.277   3.902  0.1122 -0.7508 -0.8106
 3544TIP3    H110596   0.260   4.324   3.985 -0.1341 -1.5850 -0.3056
 3544TIP3    H210597   0.158   4.264   3.890  0.1329 -0.4826 -1.3152
 3545TIP3   OH210598   3.064   6.255   0.262 -0.0377 -0.0593 -0.0829
 3545TIP3    H110599   2.972   6.252   0.287 -0.2521 -1.4374 -0.9331
 3545TIP3    H210600   3.064   6.281   0.170  0.1568 -2.8446 -0.9781
 3546TIP3   OH210601   1.266   1.580   0.812  0.1927 -0.2898  0.1309
 3546TIP3    H110602   1.201   1.595   0.881  1.0094  0.5883  0.7350
 3546TIP3    H210603   1.234   1.632   0.738 -0.7736 -1.3647 -0.2301
 3547TIP3   OH210604   2.835   1.269   4.340 -0.4847 -0.0288  0.2244
 3547TIP3    H110605   2.875   1.354   4.323 -0.4718 -0.3584 -1.5500
 3547TIP3    H210606   2.864   1.247   4.429  0.3599  1.3384  0.3204
 3548TIP3   OH210607   2.179   2.795   0.035 -0.1325  0.4705 -0.6724
 3548TIP3    H110608   2.182   2.758  -0.053  0.6981  0.0984 -0.4964
 3548TIP3    H210609   2.090   2.828   0.044 -0.2700  0.3852 -1.5981
 3549TIP3   OH210610   6.149   2.283   5.374  0.2668  0.6029 -0.4353
 3549TIP3    H110611   6.242   2.260   5.369  0.1018 -0.6040  1.0527
 3549TIP3    H210612   6.146   2.377   5.357  1.6669  0.5384 -1.1947
 3550TIP3   OH210613   3.058   1.105   3.150 -0.0165 -0.0775 -0.3260
 3550TIP3    H110614   2.995   1.175   3.168  0.2401 -0.5974  3.5041
 3550TIP3    H210615   3.141   1.151   3.134 -0.3435  0.5610 -0.2329
 3551TIP3   OH210616   3.934   6.264   5.868 -0.0841 -0.8074 -0.6825
 3551TIP3    H110617   3.927   6.357   5.886  0.2942 -0.9965  0.4721
 3551TIP3    H210618   4.028   6.248   5.858  0.1680 -1.6025  2.2468
 3552TIP3   OH210619   5.039   1.439   1.949  0.1454  0.5280 -0.1967
 3552TIP3    H110620   4.988   1.509   1.908  0.1308 -0.8482 -2.7980
 3552TIP3    H210621   5.016   1.361   1.898  0.2106 -1.3907  2.5004
 3553TIP3   OH210622   5.318   5.471   1.422 -0.6842  0.7624 -0.1826
 3553TIP3    H110623   5.314   5.389   1.472 -1.1318  0.8274 -0.1087
 3553TIP3    H210624   5.234   5.475   1.376 -0.9900  1.5774  0.4312
 3554TIP3   OH210625   6.425   3.916   4.326 -0.1910  0.1981  0.6815
 3554TIP3    H110626   6.456   4.002   4.355 -0.4712  0.3035  0.6787
 3554TIP3    H210627   6.499   3.878   4.279  0.0045  0.3512  0.8640
 3555TIP3   OH210628   2.398   1.029   2.374 -0.0789 -0.1948  0.1358
 3555TIP3    H110629   2.462   1.054   2.308 -0.2950 -0.1545 -0.0603
 3555TIP3    H210630   2.335   1.102   2.376  0.5458  0.3458  1.1998
 3556TIP3   OH210631   0.449   2.399   4.335 -0.1909 -0.1073 -0.2881
 3556TIP3    H110632   0.376   2.351   4.295 -2.0775 -0.4860  3.1958
 3556TIP3    H210633   0.437   2.489   4.306 -0.8364 -0.5324 -1.3705
 3557TIP3   OH210634   6.695   5.529   1.477  0.4408 -0.0394  1.0325
 3557TIP3    H110635   6.732   5.465   1.539 -0.5158  1.2813  3.0537
 3557TIP3    H210636   6.746   5.608   1.492  0.7660  0.0629 -0.5345
 3558TIP3   OH210637   5.876   6.773   4.070  0.2723 -0.0273 -0.5311
 3558TIP3    H110638   5.841   6.687   4.093  0.1106 -0.1945 -1.3485
 3558TIP3    H210639   5.970   6.765   4.082  0.4145 -0.7798 -1.9296
 3559TIP3   OH210640   1.052   0.272   2.768  0.1473 -0.0562 -0.4939
 3559TIP3    H110641   0.968   0.317   2.773  0.1699  0.1007 -1.3754
 3559TIP3    H210642   1.116   0.343   2.761  0.2804 -0.1995 -0.7241
 3560TIP3   OH210643   4.172   5.079   3.299 -0.0880  0.3868  0.0654
 3560TIP3    H110644   4.171   5.036   3.214  0.1827  1.4592 -0.4970
 3560TIP3    H210645   4.085   5.062   3.336 -0.4955  0.6120 -0.7836
 3561TIP3   OH210646   0.862   2.233   4.394  0.0246 -0.2677  0.0738
 3561TIP3    H110647   0.788   2.185   4.432  0.1888 -0.5488  0.0385
 3561TIP3    H210648   0.939   2.182   4.418  0.2322  0.1483  0.3059
 3562TIP3   OH210649   7.134   1.149   3.646 -0.4250 -0.0341 -0.3814
 3562TIP3    H110650   7.125   1.225   3.702  2.4726 -0.2271  0.5460
 3562TIP3    H210651   7.045   1.122   3.626 -1.5344  1.9190  1.5460
 3563TIP3   OH210652   2.052   5.322   5.012 -0.0296 -0.0442 -0.1459
 3563TIP3    H110653   2.028   5.312   4.920 -1.1703 -1.1079  0.2286
 3563TIP3    H210654   2.052   5.232   5.046  0.1861  0.3486  0.9368
 3564TIP3   OH210655   2.871   2.016   3.253 -0.3040  0.0052 -0.7106
 3564TIP3    H110656   2.885   2.083   3.321 -0.2785  0.4538 -1.1524
 3564TIP3    H210657   2.900   2.058   3.172  0.3629 -0.7833 -0.8970
 3565TIP3   OH210658   5.307   6.393   3.810  0.4476  0.2027  0.3224
 3565TIP3    H110659   5.336   6.484   3.818 -1.0151  0.7112  0.0611
 3565TIP3    H210660   5.290   6.381   3.717  0.4490 -0.2920  0.3819
 3566TIP3   OH210661   2.088   5.832   3.351 -0.3687  0.1912 -0.0784
 3566TIP3    H110662   2.095   5.737   3.350  0.0633  0.1723  1.3555
 3566TIP3    H210663   1.995   5.849   3.367 -0.4811  0.0142 -0.5454
 3567TIP3   OH210664   3.236   0.694   1.720  0.0036 -0.3273 -0.1437
 3567TIP3    H110665   3.249   0.599   1.725 -0.7507 -0.4153  0.2367
 3567TIP3    H210666   3.325   0.729   1.715  0.2669 -1.1014 -1.3647
 3568TIP3   OH210667   2.676   5.103   5.751  0.2536 -0.0926  0.1772
 3568TIP3    H110668   2.598   5.093   5.696  0.2256  2.0909 -0.2999
 3568TIP3    H210669   2.662   5.042   5.824 -1.8010  0.0660 -0.0023
 3569TIP3   OH210670   1.754   3.971   1.798  0.6020  0.0007 -0.2477
 3569TIP3    H110671   1.763   3.878   1.779  0.6838 -0.2101  0.7647
 3569TIP3    H210672   1.738   4.011   1.713  3.1254 -0.5940 -1.0943
 3570TIP3   OH210673   1.109   0.367   1.673  0.2291 -0.3628  0.4415
 3570TIP3    H110674   1.017   0.393   1.685  0.5761  1.4117 -0.3243
 3570TIP3    H210675   1.159   0.443   1.704  1.4023 -0.7540 -0.4290
 3571TIP3   OH210676   3.352   6.041   0.515 -0.3361  0.5628  0.1514
 3571TIP3    H110677   3.387   6.086   0.438 -0.5041 -0.2840 -0.4355
 3571TIP3    H210678   3.402   5.959   0.519  0.4950  1.1094  1.6397
 3572TIP3   OH210679   0.384   4.969   4.272  0.4016 -0.1983  0.5024
 3572TIP3    H110680   0.465   4.916   4.269  0.0898 -0.6548 -1.5298
 3572TIP3    H210681   0.407   5.050   4.227 -0.1670 -0.2074  0.1824
 3573TIP3   OH210682   0.380   0.628   5.430  0.4195  0.5116  0.3438
 3573TIP3    H110683   0.405   0.718   5.450  1.8213  0.0851  0.5816
 3573TIP3    H210684   0.394   0.580   5.511  1.0042 -0.1898 -0.1645
 3574TIP3   OH210685   0.528   3.369   3.544 -0.4458 -0.6032 -0.0352
 3574TIP3    H110686   0.469   3.419   3.600  0.4284  0.1044  0.2888
 3574TIP3    H210687   0.594   3.433   3.517  0.6073 -1.5344  0.2442
 3575TIP3   OH210688   1.458   6.213   2.200 -0.3330  0.6410  0.7158
 3575TIP3    H110689   1.495   6.298   2.223 -0.0515  0.3021  1.5605
 3575TIP3    H210690   1.509   6.185   2.124 -0.3423  1.1708  0.5114
 3576TIP3   OH210691   3.896   0.233   3.042 -0.2221 -0.2393  0.1991
 3576TIP3    H110692   3.983   0.206   3.010 -0.5642 -1.4704  0.2655
 3576TIP3    H210693   3.862   0.290   2.973  0.4601 -0.0823 -0.0195
 3577TIP3   OH210694   1.497   5.007   5.744 -0.3022 -0.2120  0.1520
 3577TIP3    H110695   1.425   4.947   5.761 -1.5836  1.4494  0.8650
 3577TIP3    H210696   1.523   4.989   5.654  1.0667 -3.4992  1.0751
 3578TIP3   OH210697   6.305   4.773   0.842  0.1807  0.4541  0.2442
 3578TIP3    H110698   6.398   4.785   0.859  0.1399  0.8313  0.2036
 3578TIP3    H210699   6.291   4.678   0.852  0.3309  0.5444  1.4328
 3579TIP3   OH210700   3.808   1.289   3.552  0.3401 -0.2622  0.0223
 3579TIP3    H110701   3.900   1.314   3.557 -0.3908  2.6185  0.5393
 3579TIP3    H210702   3.799   1.218   3.616  1.8509  0.5992  1.2631
 3580TIP3   OH210703   1.058   1.416   1.688 -0.1708 -0.5409 -0.1979
 3580TIP3    H110704   1.150   1.402   1.710  0.1732  0.1257 -1.1491
 3580TIP3    H210705   1.022   1.327   1.679 -0.0427 -0.8281  1.7414
 3581TIP3   OH210706   1.993   4.813   0.419  0.7444 -0.0014 -0.2128
 3581TIP3    H110707   1.943   4.783   0.343  0.2985  0.9051 -0.2795
 3581TIP3    H210708   2.044   4.887   0.388  0.4024  0.5089  0.4247
 3582TIP3   OH210709   3.047   4.034   2.882 -0.3622  0.2486 -0.5465
 3582TIP3    H110710   3.082   4.029   2.792  0.1817 -0.7906 -0.2915
 3582TIP3    H210711   3.053   4.127   2.904 -0.1452  0.4657 -1.4487
 3583TIP3   OH210712   1.372   5.806   1.664 -0.4561  0.1180  0.3972
 3583TIP3    H110713   1.334   5.723   1.694 -1.6167  0.4811 -0.0383
 3583TIP3    H210714   1.300   5.868   1.666 -0.2793  0.4632 -1.8850
 3584TIP3   OH210715   4.804   1.982   0.218 -0.0394 -0.1435  0.2862
 3584TIP3    H110716   4.870   2.034   0.264 -0.3322 -0.2789  0.8681
 3584TIP3    H210717   4.724   2.035   0.222 -0.3536 -0.6621  0.9371
 3585TIP3   OH210718   4.788   3.917   5.352 -0.3615 -0.7329  0.0747
 3585TIP3    H110719   4.779   3.840   5.296 -0.1768 -1.6308  1.2425
 3585TIP3    H210720   4.845   3.976   5.302  0.5161 -1.8631 -0.3174
 3586TIP3   OH210721   5.217   1.690   2.243  0.0252  0.3161 -0.2576
 3586TIP3    H110722   5.312   1.679   2.237 -0.0756 -0.3534 -0.7666
 3586TIP3    H210723   5.189   1.629   2.311 -0.0808  0.2683 -0.3430
 3587TIP3   OH210724   3.940   0.103   3.278  0.7866  0.0577  0.1732
 3587TIP3    H110725   3.907   0.156   3.206 -0.2001 -2.3029 -1.2317
 3587TIP3    H210726   3.946   0.014   3.242 -1.2973 -1.5761  3.3912
 3588TIP3   OH210727   0.725   4.674   3.690  0.5766 -0.1469  0.2734
 3588TIP3    H110728   0.766   4.730   3.623 -0.5504 -0.1767 -0.4687
 3588TIP3    H210729   0.634   4.704   3.693  0.5848 -0.2279  1.7381
 3589TIP3   OH210730   2.898   0.822   4.229 -0.0227 -0.0725 -0.0176
 3589TIP3    H110731   2.939   0.824   4.316  0.3343 -0.7441 -0.1699
 3589TIP3    H210732   2.832   0.892   4.233  0.4547  0.3568  0.5625
 3590TIP3   OH210733   4.777   2.948   3.695 -0.1100  0.5931  0.8096
 3590TIP3    H110734   4.872   2.937   3.687 -0.3367 -1.4828  0.4964
 3590TIP3    H210735   4.741   2.861   3.681 -2.0344  1.1616  1.8427
 3591TIP3   OH210736   6.628   0.483   5.064  0.3896 -0.2390 -0.1148
 3591TIP3    H110737   6.684   0.477   5.141  0.7219 -0.2942 -0.3547
 3591TIP3    H210738   6.678   0.438   4.995  1.6265  2.5496 -1.2167
 3592TIP3   OH210739   1.106   5.649   5.003 -0.0281  0.2195 -0.1697
 3592TIP3    H110740   1.158   5.729   4.999  0.1176  0.1310 -0.0346
 3592TIP3    H210741   1.142   5.594   4.934  1.3455 -0.6149  1.1590
 3593TIP3   OH210742   0.757   3.188   2.402  0.0152 -0.2378 -0.5000
 3593TIP3    H110743   0.846   3.219   2.420 -0.7726  1.2583  1.1213
 3593TIP3    H210744   0.730   3.144   2.483 -0.8966 -0.2400 -0.7916
 3594TIP3   OH210745   5.180   3.854   4.972 -0.1866 -0.3844 -0.4274
 3594TIP3    H110746   5.143   3.767   4.989  1.4602 -1.0309  0.0185
 3594TIP3    H210747   5.251   3.863   5.035  0.2417  0.9228 -1.0585
 3595TIP3   OH210748   3.885   6.415   1.528  0.6680 -0.3001  0.3439
 3595TIP3    H110749   3.836   6.497   1.535 -0.3325 -0.8008 -0.5286
 3595TIP3    H210750   3.892   6.384   1.619 -0.8544 -0.3172  0.4847
 3596TIP3   OH210751   4.457   2.239   2.826 -0.2847 -0.3282 -0.2193
 3596TIP3    H110752   4.368   2.205   2.830 -0.0201 -1.3425 -1.7778
 3596TIP3    H210753   4.498   2.189   2.755  1.6564 -0.1901  0.7412
 3597TIP3   OH210754   5.881   2.871   0.099  0.4978 -0.2304  0.0800
 3597TIP3    H110755   5.948   2.938   0.109 -1.2708  1.7436 -0.4821
 3597TIP3    H210756   5.928   2.794   0.067  2.2269  1.7011 -2.4200
 3598TIP3   OH210757   6.503   3.593   1.860  0.1814 -0.8939 -0.1843
 3598TIP3    H110758   6.583   3.544   1.878  1.3107  0.3743 -1.4961
 3598TIP3    H210759   6.531   3.685   1.863 -1.0250 -0.4590 -1.5690
 3599TIP3   OH210760   2.128   0.119   5.785 -0.5012  0.1835 -0.1030
 3599TIP3    H110761   2.110   0.153   5.873 -3.1144 -1.6948  0.2150
 3599TIP3    H210762   2.059   0.156   5.731  0.9019  1.0687 -1.3622
 3600TIP3   OH210763   1.289   6.516   4.048  0.6230  0.8209  0.0487
 3600TIP3    H110764   1.241   6.470   4.117  0.0301  0.5386 -0.5430
 3600TIP3    H210765   1.381   6.496   4.066  0.6992  2.7015  2.1680
 3601TIP3   OH210766   4.417   5.444   1.330  0.1364  0.2879  0.0406
 3601TIP3    H110767   4.375   5.407   1.408 -2.2204  2.2297 -0.1967
 3601TIP3    H210768   4.510   5.450   1.354 -0.0603 -1.6668  1.6266
 3602TIP3   OH210769   3.655   1.851   2.423 -0.8672 -0.3662  0.1677
 3602TIP3    H110770   3.569   1.876   2.390 -0.9883 -0.8459  0.1137
 3602TIP3    H210771   3.697   1.808   2.349  0.0482  1.2926 -0.3288
 3603TIP3   OH210772   4.518   0.565   1.385 -0.1761 -0.0600  0.8261
 3603TIP3    H110773   4.581   0.538   1.452  0.6356  1.1669  0.5906
 3603TIP3    H210774   4.467   0.635   1.427  0.2893  0.6640  0.2040
 3604TIP3   OH210775   1.814   2.550   2.447 -0.0391  0.2969  0.0148
 3604TIP3    H110776   1.844   2.598   2.525 -0.2117 -0.2151  0.4009
 3604TIP3    H210777   1.860   2.591   2.374  1.4684 -0.3667  0.5640
 3605TIP3   OH210778   4.598   6.327   2.444 -0.2138  0.3338  0.0839
 3605TIP3    H110779   4.580   6.409   2.489 -0.7564 -1.0217  2.4978
 3605TIP3    H210780   4.609   6.352   2.352 -1.9970  2.8647  0.4621
 3606TIP3   OH210781   3.023   6.099   1.998 -0.3637 -0.4293  0.5149
 3606TIP3    H110782   2.950   6.065   2.051 -0.8520  1.1718  0.9157
 3606TIP3    H210783   2.994   6.086   1.908 -0.8045 -0.5193  0.6635
 3607TIP3   OH210784   2.386   3.638   1.875  0.4672 -0.0246 -0.4304
 3607TIP3    H110785   2.300   3.608   1.846 -0.4850  1.4110  0.8085
 3607TIP3    H210786   2.444   3.564   1.857 -1.1017 -1.2153 -0.8095
 3608TIP3   OH210787   2.950   0.179   4.942  0.1905  0.0863 -0.3965
 3608TIP3    H110788   2.877   0.120   4.919 -0.2525 -0.1842  1.4887
 3608TIP3    H210789   2.921   0.265   4.913 -1.0450  0.0294  0.5559
 3609TIP3   OH210790   0.341   6.422   5.511 -0.1309 -0.4962  0.2274
 3609TIP3    H110791   0.368   6.467   5.591  0.5077 -0.0946 -0.2093
 3609TIP3    H210792   0.274   6.360   5.540 -3.3702  2.7675  0.4603
 3610TIP3   OH210793   0.497   6.425   4.589  0.1646 -0.3235  0.6950
 3610TIP3    H110794   0.570   6.484   4.571 -1.0259  0.3364 -2.9464
 3610TIP3    H210795   0.462   6.455   4.673  4.0965 -0.8478  2.7020
 3611TIP3   OH210796   2.945   1.418   3.516  0.5067  0.0785  0.3367
 3611TIP3    H110797   3.022   1.363   3.508  1.0398  0.6178  1.5286
 3611TIP3    H210798   2.873   1.357   3.531  0.8692 -0.3742  0.2510
 3612TIP3   OH210799   1.070   3.040   4.336  0.0025  0.0883 -0.0504
 3612TIP3    H110800   1.145   3.037   4.277  0.7914 -0.7578  0.9476
 3612TIP3    H210801   1.060   3.132   4.359  1.9223  0.0327  1.2303
 3613TIP3   OH210802   1.857   4.541   3.932  0.4710  0.0917 -0.0883
 3613TIP3    H110803   1.882   4.623   3.889  0.0926  0.1140 -0.2703
 3613TIP3    H210804   1.921   4.477   3.901  1.4001  0.5361  0.8508
 3614TIP3   OH210805   2.844   4.193   3.254  0.4744  0.3159 -0.2387
 3614TIP3    H110806   2.821   4.185   3.347 -1.4898 -1.4679 -0.8160
 3614TIP3    H210807   2.857   4.287   3.241  2.9750  0.4653  2.2684
 3615TIP3   OH210808   5.269   4.252   1.524 -0.0983  0.0382  0.1777
 3615TIP3    H110809   5.267   4.159   1.546 -1.5410 -0.1754 -0.6985
 3615TIP3    H210810   5.293   4.254   1.431 -0.0884  0.5383  0.1907
 3616TIP3   OH210811   1.961   5.278   1.838 -0.1442  0.0651 -0.6138
 3616TIP3    H110812   1.990   5.254   1.750 -0.4805  0.4608 -0.8346
 3616TIP3    H210813   2.042   5.300   1.884  0.3155 -2.4520 -0.0761
 3617TIP3   OH210814   6.985   6.416   4.375  0.1047 -0.4021 -0.5874
 3617TIP3    H110815   6.999   6.389   4.284 -1.2288  0.4752 -1.0889
 3617TIP3    H210816   7.051   6.368   4.425  1.9548  0.3421 -2.2057
 3618TIP3   OH210817   3.924   1.717   3.270  0.1326  0.3092  0.3218
 3618TIP3    H110818   3.968   1.733   3.354 -0.4175  1.6629  0.3611
 3618TIP3    H210819   3.899   1.624   3.275 -0.0050  0.3924  1.7098
 3619TIP3   OH210820   7.140   2.380   1.661 -1.1163  0.0378  0.1731
 3619TIP3    H110821   7.147   2.469   1.625 -0.1149 -0.3778 -0.7135
 3619TIP3    H210822   7.166   2.390   1.753 -0.5380  0.5991 -0.0332
 3620TIP3   OH210823   6.073   3.647   1.437  0.3840 -0.0956 -0.1716
 3620TIP3    H110824   5.985   3.684   1.434 -0.1034 -1.1017  1.0002
 3620TIP3    H210825   6.084   3.606   1.352  0.5602  1.8137 -1.1296
 3621TIP3   OH210826   4.297   4.042   4.962  0.3322 -0.2263 -0.7649
 3621TIP3    H110827   4.325   4.029   4.871 -1.2421  2.0877 -1.7001
 3621TIP3    H210828   4.301   4.137   4.974  0.0740 -0.4532  1.4666
 3622TIP3   OH210829   0.378   6.096   1.517  1.1976  0.3051  0.3368
 3622TIP3    H110830   0.456   6.099   1.461  0.4823  0.8966 -0.6727
 3622TIP3    H210831   0.352   6.188   1.525  0.2275  0.0605  0.0988
 3623TIP3   OH210832   5.498   2.909   4.813 -0.0575  0.2271  0.0898
 3623TIP3    H110833   5.442   2.985   4.798  2.9656  3.1860  2.2428
 3623TIP3    H210834   5.562   2.911   4.741 -1.7674 -2.4083 -1.6866
 3624TIP3   OH210835   6.996   4.048   0.929 -0.1702  0.2967 -0.5450
 3624TIP3    H110836   7.070   3.989   0.917 -0.5667 -0.1573 -0.7652
 3624TIP3    H210837   7.025   4.131   0.891  0.5171  0.3526  0.0688
 3625TIP3   OH210838   5.380   5.816   4.197  0.1471  0.9067  0.0299
 3625TIP3    H110839   5.341   5.792   4.113 -2.1310 -0.4303  1.3851
 3625TIP3    H210840   5.403   5.732   4.238  0.7049  1.5071  0.9880
 3626TIP3   OH210841   1.114   1.656   4.494  0.1692 -0.5696  0.5264
 3626TIP3    H110842   1.077   1.585   4.547  1.9436 -0.7566  1.5945
 3626TIP3    H210843   1.085   1.736   4.539 -0.2517 -0.6618  0.4247
 3627TIP3   OH210844   0.097   1.694   5.310  0.1537  0.3718  0.1019
 3627TIP3    H110845   0.046   1.774   5.321  1.2134  1.3311 -1.4936
 3627TIP3    H210846   0.130   1.675   5.398  0.6256  2.2351  0.3905
 3628TIP3   OH210847   7.163   3.681   2.376  0.0979  0.3364 -0.3237
 3628TIP3    H110848   7.209   3.603   2.406  1.3245  1.1775  0.0664
 3628TIP3    H210849   7.113   3.653   2.300 -0.6515 -1.1536  0.6707
 3629TIP3   OH210850   3.915   0.196   5.864  0.0383  0.4547 -0.2245
 3629TIP3    H110851   3.970   0.266   5.831 -1.6741  1.7921 -0.3669
 3629TIP3    H210852   3.849   0.183   5.797 -1.8149  1.2476  1.3577
 3630TIP3   OH210853   4.201   4.726   1.719  0.1360  0.4042 -0.3827
 3630TIP3    H110854   4.166   4.672   1.790  1.2958 -1.2671 -0.9993
 3630TIP3    H210855   4.135   4.721   1.650 -0.8038  1.6909  0.3894
 3631TIP3   OH210856   0.173   3.970   3.871 -0.0221 -0.2270 -0.3232
 3631TIP3    H110857   0.243   3.970   3.936 -0.9663  0.1393  0.7303
 3631TIP3    H210858   0.149   4.062   3.862 -0.2985 -0.3390 -0.7402
 3632TIP3   OH210859   6.609   1.830   3.141 -0.1636  0.1227  0.0958
 3632TIP3    H110860   6.563   1.747   3.148  1.8767 -1.1018 -0.3508
 3632TIP3    H210861   6.597   1.872   3.226 -0.4543 -1.0471  0.6459
 3633TIP3   OH210862   0.589   0.117   4.074 -0.3726  0.0116  0.8261
 3633TIP3    H110863   0.587   0.159   3.988  0.9693  1.3267  1.3875
 3633TIP3    H210864   0.498   0.116   4.103 -0.8902 -0.7390 -0.7167
 3634TIP3   OH210865   0.267   6.714   1.381  0.2059  0.0644 -0.0408
 3634TIP3    H110866   0.328   6.658   1.333  0.3319  1.2260 -1.2649
 3634TIP3    H210867   0.201   6.740   1.317 -0.5844  0.2659  0.8334
 3635TIP3   OH210868   4.450   2.928   1.411 -0.5250 -0.1658 -0.1318
 3635TIP3    H110869   4.378   2.866   1.406 -0.6385 -0.3305  2.3690
 3635TIP3    H210870   4.421   2.994   1.473  0.9462  0.4896 -0.1001
 3636TIP3   OH210871   4.689   0.463   2.167  0.6272 -0.0039  0.1579
 3636TIP3    H110872   4.730   0.522   2.229  1.3602 -0.1325 -0.1888
 3636TIP3    H210873   4.762   0.413   2.129  0.2509  0.3458 -1.0895
 3637TIP3   OH210874   3.303   4.567   3.519  0.0395 -0.3576 -0.8368
 3637TIP3    H110875   3.258   4.482   3.516 -1.3574  0.3275 -0.4267
 3637TIP3    H210876   3.301   4.598   3.429  0.0856 -0.5344 -0.8984
 3638TIP3   OH210877   3.829   5.787   0.968 -0.7414 -0.5596 -0.7433
 3638TIP3    H110878   3.916   5.819   0.992 -1.1431 -0.8122  1.2285
 3638TIP3    H210879   3.780   5.866   0.946 -0.5935 -0.1891  0.1980
 3639TIP3   OH210880   6.230   4.546   1.339 -0.3493 -0.0445  0.2674
 3639TIP3    H110881   6.317   4.576   1.312  0.2233 -0.5987  1.4186
 3639TIP3    H210882   6.175   4.562   1.263  0.4289  1.7069  0.0346
 3640TIP3   OH210883   3.382   1.925   1.737  0.7680  0.6458 -0.0925
 3640TIP3    H110884   3.467   1.941   1.696 -0.2296  3.6555 -1.3129
 3640TIP3    H210885   3.345   1.852   1.689  2.0044  0.3160 -0.5883
 3641TIP3   OH210886   2.720   0.522   4.234  0.6581  0.3472 -0.1838
 3641TIP3    H110887   2.778   0.555   4.302  1.7931 -0.4403 -0.7336
 3641TIP3    H210888   2.725   0.427   4.242 -1.2033  0.2465  0.2604
 3642TIP3   OH210889   4.092   0.621   1.127 -0.0571  0.2205  0.3947
 3642TIP3    H110890   4.138   0.546   1.090  1.3235  0.6876  1.0841
 3642TIP3    H210891   4.149   0.696   1.108 -1.0173  0.9781  0.4194
 3643TIP3   OH210892   1.909   6.785   4.295  0.0181  0.1612  0.6068
 3643TIP3    H110893   1.855   6.769   4.372  1.4987 -0.5532  1.5246
 3643TIP3    H210894   1.871   6.728   4.228 -0.0102 -0.8041  1.4167
 3644TIP3   OH210895   3.099   3.985   0.515 -0.3389  0.6462  0.5636
 3644TIP3    H110896   3.096   4.018   0.604  0.8317 -0.3383  1.0069
 3644TIP3    H210897   3.008   3.963   0.494 -0.7310  1.5839  1.2295
 3645TIP3   OH210898   4.267   3.529   1.907  0.1340 -0.2599  0.0626
 3645TIP3    H110899   4.272   3.481   1.990 -1.9332 -2.3927 -0.9348
 3645TIP3    H210900   4.186   3.500   1.867  0.2738  1.9180 -2.0404
 3646TIP3   OH210901   3.323   3.712   5.196 -0.1174 -0.7041  0.4495
 3646TIP3    H110902   3.366   3.797   5.187 -0.3701 -0.7584 -2.2092
 3646TIP3    H210903   3.231   3.729   5.177  0.1055 -1.7410 -2.0628
 3647TIP3   OH210904   0.708   6.245   0.328  0.3733 -0.1287 -0.0152
 3647TIP3    H110905   0.684   6.177   0.265 -0.1261  0.7943 -0.8623
 3647TIP3    H210906   0.794   6.219   0.360  1.0554 -0.1881 -1.7707
 3648TIP3   OH210907   5.618   2.723   5.225  0.3232  0.0425  0.0604
 3648TIP3    H110908   5.629   2.808   5.266  2.5962 -0.1246 -0.1065
 3648TIP3    H210909   5.694   2.713   5.167 -0.6392 -1.4806 -1.0501
 3649TIP3   OH210910   0.958   0.748   4.970 -0.8449  0.2543  0.0039
 3649TIP3    H110911   0.948   0.675   5.030  0.4946  1.6301  2.0228
 3649TIP3    H210912   0.872   0.791   4.969 -0.9509  0.0690  0.7377
 3650TIP3   OH210913   4.350   0.235   3.149  0.0064 -0.2858 -0.2686
 3650TIP3    H110914   4.408   0.159   3.149 -1.0506 -1.1236  0.6551
 3650TIP3    H210915   4.320   0.242   3.239  1.0132  2.0008 -0.0286
 3651TIP3   OH210916   1.575   2.599   5.413  0.8696  0.1466  0.1434
 3651TIP3    H110917   1.652   2.601   5.357 -0.1548  0.2222 -1.3331
 3651TIP3    H210918   1.512   2.656   5.370 -0.3189 -0.5886  0.8296
 3652TIP3   OH210919   3.811   1.393   0.593  0.0390 -0.4896 -0.0404
 3652TIP3    H110920   3.783   1.448   0.520  0.0559 -0.6711 -0.1837
 3652TIP3    H210921   3.839   1.311   0.553  3.2900  0.5586 -0.2030
 3653TIP3   OH210922   0.614   1.446   5.718 -0.1461 -0.1335 -0.5780
 3653TIP3    H110923   0.639   1.428   5.809 -1.4124  0.9258  0.0261
 3653TIP3    H210924   0.559   1.524   5.724 -1.5093 -0.9291 -2.0865
 3654TIP3   OH210925   3.538   4.090   4.252 -0.3266 -0.3727 -0.2583
 3654TIP3    H110926   3.532   4.176   4.211 -2.1455 -0.7673 -0.8806
 3654TIP3    H210927   3.613   4.097   4.312  1.0756  0.8812 -2.0381
 3655TIP3   OH210928   2.479   5.495   2.319 -0.1976 -0.0637 -0.0461
 3655TIP3    H110929   2.408   5.543   2.277 -1.0623 -2.0278 -0.9814
 3655TIP3    H210930   2.541   5.478   2.248  0.9323  1.0867  0.6315
 3656TIP3   OH210931   5.980   6.449   4.467  0.5004  0.0497 -0.0621
 3656TIP3    H110932   5.888   6.446   4.493 -0.2308 -0.6097 -2.4880
 3656TIP3    H210933   6.004   6.357   4.452  1.4275  0.2521  0.0916
 3657TIP3   OH210934   6.920   4.862   1.030  0.2072 -0.1639 -0.0861
 3657TIP3    H110935   6.850   4.852   1.095  0.8986  2.9288  1.3421
 3657TIP3    H210936   6.995   4.817   1.068 -0.6649 -2.7990 -1.2535
 3658TIP3   OH210937   1.846   2.659   1.336 -0.3138 -0.5873 -0.3424
 3658TIP3    H110938   1.886   2.646   1.250  2.1482  0.0384  0.6011
 3658TIP3    H210939   1.821   2.572   1.365 -1.6005 -0.7596 -1.8299
 3659TIP3   OH210940   4.976   3.534   2.291  0.0631  0.3356 -0.5717
 3659TIP3    H110941   4.917   3.533   2.366  0.5632  0.1534 -0.1674
 3659TIP3    H210942   4.937   3.596   2.230 -0.9663 -0.3843 -0.6720
 3660TIP3   OH210943   1.459   6.396   0.427  0.2644 -0.0048  0.6748
 3660TIP3    H110944   1.484   6.339   0.499 -0.9020 -0.8373  0.4446
 3660TIP3    H210945   1.425   6.475   0.469  1.4453  0.3587  0.9948
 3661TIP3   OH210946   1.832   1.118   0.593 -0.2375 -0.0682 -0.2908
 3661TIP3    H110947   1.746   1.157   0.580  0.7404  2.1253 -0.5155
 3661TIP3    H210948   1.818   1.049   0.658 -2.0803  0.4987 -0.0486
 3662TIP3   OH210949   4.579   6.219   0.662 -0.1452 -0.1543 -0.1819
 3662TIP3    H110950   4.643   6.249   0.596  1.0864 -2.2815 -0.0591
 3662TIP3    H210951   4.553   6.133   0.631 -0.4018 -0.7194  1.5379
 3663TIP3   OH210952   3.509   0.784   0.988  0.5301  0.3332 -0.2222
 3663TIP3    H110953   3.598   0.754   0.973  0.5667  0.9048 -1.2766
 3663TIP3    H210954   3.493   0.768   1.081  2.1491  1.3059  0.2700
 3664TIP3   OH210955   3.634   5.341   2.338  0.4158  0.3162 -0.1854
 3664TIP3    H110956   3.601   5.308   2.255 -0.2947  0.4806  0.0286
 3664TIP3    H210957   3.622   5.436   2.333  0.2327  0.3114  0.1681
 3665TIP3   OH210958   3.779   5.682   1.842  0.0402 -0.2774  0.0140
 3665TIP3    H110959   3.698   5.631   1.844 -2.1969  2.8869 -0.7447
 3665TIP3    H210960   3.789   5.707   1.750  1.4775  0.0329  0.2326
 3666TIP3   OH210961   4.573   5.174   1.534  0.4207 -0.0175 -0.4213
 3666TIP3    H110962   4.480   5.154   1.542  0.9114 -3.2180 -1.2182
 3666TIP3    H210963   4.601   5.199   1.622 -0.7976 -0.9901  0.2577
 3667TIP3   OH210964   4.910   4.810   2.443  0.1257 -0.2120  0.0021
 3667TIP3    H110965   4.931   4.795   2.350 -0.0181 -2.8437  0.3165
 3667TIP3    H210966   4.971   4.753   2.490  0.4014  1.3203  1.5753
 3668TIP3   OH210967   5.058   6.297   0.715  0.2318  0.2392 -0.4894
 3668TIP3    H110968   5.110   6.348   0.654 -0.5423  1.2445 -0.3249
 3668TIP3    H210969   5.117   6.227   0.744  2.1631  2.3738  1.1048
 3669TIP3   OH210970   4.010   3.419   0.122  0.3914  0.8217 -0.1348
 3669TIP3    H110971   4.081   3.356   0.124 -0.9395 -0.7900 -1.0781
 3669TIP3    H210972   4.010   3.455   0.033 -0.4015  0.2619 -0.3743
 3670TIP3   OH210973   4.784   3.177   3.560 -0.2616 -0.9499  0.2617
 3670TIP3    H110974   4.785   3.088   3.595 -0.7108 -0.6597  1.0286
 3670TIP3    H210975   4.692   3.202   3.562  0.0840  0.3644  2.2388
 3671TIP3   OH210976   2.685   2.592   4.617 -0.1161 -0.4336  0.3092
 3671TIP3    H110977   2.748   2.628   4.555 -0.3336 -0.8954 -0.1816
 3671TIP3    H210978   2.738   2.539   4.677 -0.1688 -1.9248 -0.9039
 3672TIP3   OH210979   3.141   2.796   0.323 -0.5557  0.1249  0.0259
 3672TIP3    H110980   3.178   2.802   0.235  1.0798  0.4169  0.7011
 3672TIP3    H210981   3.101   2.709   0.326 -0.1183 -0.1142 -0.8227
 3673TIP3   OH210982   5.410   2.572   3.941 -0.2906  0.6276 -0.0793
 3673TIP3    H110983   5.324   2.549   3.977 -0.3512  0.5542 -0.2664
 3673TIP3    H210984   5.398   2.566   3.846 -0.2716  1.3056 -0.1312
 3674TIP3   OH210985   5.062   0.886   3.025  0.1937 -0.1045  0.2208
 3674TIP3    H110986   5.103   0.807   2.990 -1.4020 -1.1486  0.6432
 3674TIP3    H210987   5.051   0.943   2.948 -2.6040 -2.0666 -0.9911
 3675TIP3   OH210988   7.143   5.194   0.103  0.2655 -0.3002 -0.6167
 3675TIP3    H110989   7.215   5.135   0.125 -0.4804 -0.9372  0.2261
 3675TIP3    H210990   7.072   5.136   0.074 -0.6268  0.1085  0.6478
 3676TIP3   OH210991   1.367   3.402   0.265  0.4629 -1.0286  0.7079
 3676TIP3    H110992   1.318   3.377   0.343  0.8796 -0.9100  1.0122
 3676TIP3    H210993   1.327   3.351   0.194 -0.0179 -1.0161  0.9717
 3677TIP3   OH210994   3.315   3.920   4.614 -0.0032  0.0004 -0.5126
 3677TIP3    H110995   3.243   3.973   4.648  1.3122  0.1616  2.3170
 3677TIP3    H210996   3.306   3.835   4.658  0.4396 -0.6634 -1.6365
 3678TIP3   OH210997   0.268   3.985   1.373 -0.5449 -0.1383  0.3130
 3678TIP3    H110998   0.213   3.940   1.438 -0.6690  0.0013  0.3051
 3678TIP3    H210999   0.216   3.982   1.293 -1.0541  1.0036  0.5767
 3679TIP3   OH211000   5.595   5.204   1.360  0.1787  0.3111 -0.0220
 3679TIP3    H111001   5.502   5.197   1.339  0.1747 -4.8282  0.5488
 3679TIP3    H211002   5.639   5.176   1.279  1.0432 -0.2782  0.6401
 3680TIP3   OH211003   3.126   5.873   4.729 -0.5172 -0.0093  0.0648
 3680TIP3    H111004   3.134   5.925   4.809 -3.8984  1.3793 -0.3575
 3680TIP3    H211005   3.083   5.931   4.667  0.9696 -1.4373 -2.4440
 3681TIP3   OH211006   0.489   6.689   1.166 -0.6649 -0.7171  0.3115
 3681TIP3    H111007   0.550   6.731   1.105 -0.8367 -0.4352  0.3338
 3681TIP3    H211008   0.408   6.680   1.116 -1.0009  0.0890  0.6914
 3682TIP3   OH211009   1.183   4.593   5.263  0.5208  0.1784  0.3041
 3682TIP3    H111010   1.115   4.649   5.226 -0.2490  0.2412  1.7627
 3682TIP3    H211011   1.238   4.652   5.315  0.6465 -0.1628  0.5628
 3683TIP3   OH211012   2.483   0.210   0.841  0.0131 -0.0407 -0.1717
 3683TIP3    H111013   2.459   0.176   0.754  0.7794  1.1137 -0.8637
 3683TIP3    H211014   2.574   0.181   0.853 -0.0490 -0.0858  0.2039
 3684TIP3   OH211015   5.277   4.637   4.873  0.3851 -0.4210 -0.5052
 3684TIP3    H111016   5.265   4.561   4.816 -0.9498  0.0231 -0.8386
 3684TIP3    H211017   5.189   4.664   4.897  0.8825 -0.1954  1.2592
 3685TIP3   OH211018   1.642   6.681   5.627 -0.0867  0.2369 -0.0679
 3685TIP3    H111019   1.632   6.675   5.532  0.7231  1.4637 -0.2455
 3685TIP3    H211020   1.660   6.773   5.644 -0.2283  0.0350  1.2817
 3686TIP3   OH211021   2.926   0.763   0.395  0.3582 -0.3438  0.2137
 3686TIP3    H111022   2.936   0.748   0.301  2.5847 -0.9263  0.4816
 3686TIP3    H211023   2.914   0.857   0.403  2.1003 -0.0188 -0.5765
 3687TIP3   OH211024   1.808   6.313   1.419  0.3290 -0.3102 -0.4500
 3687TIP3    H111025   1.724   6.311   1.373 -0.4398  1.0578  0.8290
 3687TIP3    H211026   1.863   6.369   1.364 -0.0096 -0.1421 -0.6230
 3688TIP3   OH211027   3.909   4.867   4.289 -0.4621 -0.2033  0.1029
 3688TIP3    H111028   3.940   4.875   4.379  1.9295 -0.6200 -0.6102
 3688TIP3    H211029   3.939   4.946   4.245  1.7932 -1.6583 -1.1748
 3689TIP3   OH211030   1.906   6.639   3.730 -0.4475  0.6104 -0.2819
 3689TIP3    H111031   1.852   6.560   3.731 -1.3152  1.1576  1.9570
 3689TIP3    H211032   1.994   6.608   3.752 -1.1408  0.3772  2.6522
 3690TIP3   OH211033   5.623   1.758   1.346 -0.2449  0.3352  0.0610
 3690TIP3    H111034   5.608   1.730   1.255 -0.6305  0.6233  0.0330
 3690TIP3    H211035   5.553   1.821   1.363  1.1039  1.9534 -0.1677
 3691TIP3   OH211036   1.541   2.491   3.386  0.0388 -0.4433 -0.0257
 3691TIP3    H111037   1.620   2.459   3.430  0.3963 -1.9773 -1.6581
 3691TIP3    H211038   1.469   2.444   3.429  0.0852  0.1049  0.6897
 3692TIP3   OH211039   5.925   4.967   3.246  0.4852 -0.6948 -0.1149
 3692TIP3    H111040   5.855   5.011   3.196  0.5688  0.5379  0.7967
 3692TIP3    H211041   5.927   4.878   3.211 -0.5532 -0.3341 -1.1737
 3693TIP3   OH211042   1.557   6.348   5.872 -0.0332  0.4537  0.0241
 3693TIP3    H111043   1.516   6.367   5.787  0.0750 -0.6004 -0.2879
 3693TIP3    H211044   1.651   6.359   5.856 -0.1162  2.1073  0.5310
 3694TIP3   OH211045   5.334   5.268   1.612  0.1571  0.1963 -0.3683
 3694TIP3    H111046   5.324   5.324   1.689 -1.7049  0.5149 -0.7825
 3694TIP3    H211047   5.318   5.180   1.644 -0.1441  0.2764 -0.2941
 3695TIP3   OH211048   4.688   3.772   4.741  0.8259 -0.1092  0.8818
 3695TIP3    H111049   4.655   3.683   4.755  0.0636  0.0050 -0.1025
 3695TIP3    H211050   4.739   3.766   4.661 -1.7371  0.9049 -0.9800
 3696TIP3   OH211051   2.578   2.487   3.728 -0.2422  0.1147  0.3553
 3696TIP3    H111052   2.497   2.474   3.678  0.1436  1.0250 -0.5553
 3696TIP3    H211053   2.592   2.582   3.726  0.1727  0.0943  1.5991
 3697TIP3   OH211054   1.071   0.560   3.200  0.3060 -0.4848 -0.0191
 3697TIP3    H111055   0.978   0.569   3.176  0.2874  1.0422  0.5748
 3697TIP3    H211056   1.116   0.622   3.144  0.6622  0.6016  1.4172
 3698TIP3   OH211057   0.550   2.128   3.676  0.7428  0.1422 -0.6840
 3698TIP3    H111058   0.465   2.172   3.673  1.0867  0.8139 -0.8832
 3698TIP3    H211059   0.610   2.194   3.711  1.0063 -0.6356  0.3542
 3699TIP3   OH211060   3.774   4.370   5.251 -0.0694  0.1448  0.1532
 3699TIP3    H111061   3.836   4.377   5.324  0.0755  0.9534 -0.0343
 3699TIP3    H211062   3.814   4.421   5.181 -2.4110  3.5807  1.0618
 3700TIP3   OH211063   2.778   1.406   5.079 -0.0998  0.4377 -0.3336
 3700TIP3    H111064   2.818   1.329   5.040  1.3003  0.9420  0.0588
 3700TIP3    H211065   2.757   1.462   5.004 -1.2908 -0.3752 -0.6322
 3701TIP3   OH211066   3.499   3.063   3.746  0.6343 -0.4944  0.0664
 3701TIP3    H111067   3.540   3.139   3.704  0.7777 -1.1455 -1.0128
 3701TIP3    H211068   3.493   2.998   3.677 -1.6427 -0.6683  0.3451
 3702TIP3   OH211069   0.947   3.945   2.740  0.0488 -0.0053 -0.6146
 3702TIP3    H111070   1.040   3.922   2.737  0.0633  0.1277 -1.4262
 3702TIP3    H211071   0.915   3.929   2.651 -1.3185 -2.5029  0.2390
 3703TIP3   OH211072   3.651   6.670   5.279  0.0459 -0.3698 -0.2920
 3703TIP3    H111073   3.563   6.653   5.244  0.6828  0.2821 -2.3647
 3703TIP3    H211074   3.675   6.588   5.322 -1.0539 -1.0297 -0.8750
 3704TIP3   OH211075   6.568   4.238   3.199 -0.2900 -0.0083  0.1033
 3704TIP3    H111076   6.487   4.203   3.234 -0.8311  0.0080 -1.0932
 3704TIP3    H211077   6.543   4.280   3.117  0.3498  2.9561  1.2793
 3705TIP3   OH211078   3.617   4.793   0.292  0.8773  0.3607 -0.5856
 3705TIP3    H111079   3.613   4.856   0.220  0.3584  1.0313  0.0081
 3705TIP3    H211080   3.543   4.734   0.277  1.2873 -0.0246 -1.0744
 3706TIP3   OH211081   3.549   5.683   3.702  0.2161 -0.0882  0.2633
 3706TIP3    H111082   3.619   5.730   3.656 -2.7118  2.2007 -2.3162
 3706TIP3    H211083   3.534   5.734   3.782 -1.0301  1.8430 -1.1255
 3707TIP3   OH211084   4.370   0.870   4.184  0.6574  0.1036 -0.5039
 3707TIP3    H111085   4.339   0.852   4.096 -1.1598 -0.6165  0.2438
 3707TIP3    H211086   4.362   0.787   4.230 -1.8080  1.2261  1.2791
 3708TIP3   OH211087   4.104   1.529   5.763 -0.3280 -0.2948  0.0496
 3708TIP3    H111088   4.055   1.448   5.746 -0.9713 -0.1302  1.0375
 3708TIP3    H211089   4.094   1.543   5.857 -0.2321  0.9454 -0.1176
 3709TIP3   OH211090   0.344   5.671   4.522  0.4720  0.3566  0.5512
 3709TIP3    H111091   0.401   5.642   4.450  0.7844 -0.6717  1.1795
 3709TIP3    H211092   0.261   5.693   4.480  0.4674 -0.7763 -0.0767
 3710TIP3   OH211093   7.164   6.765   5.096 -0.2896 -0.5084  0.1005
 3710TIP3    H111094   7.100   6.747   5.165 -0.1254 -0.6290  0.2246
 3710TIP3    H211095   7.199   6.851   5.118  0.6891 -1.0833  0.9117
 3711TIP3   OH211096   5.870   2.206   0.715  0.0866 -0.5268 -0.0230
 3711TIP3    H111097   5.964   2.220   0.722 -0.2938  1.7549  1.4591
 3711TIP3    H211098   5.861   2.122   0.670  2.8017 -0.4202 -0.8820
 3712TIP3   OH211099   5.657   5.630   4.847  0.3509 -0.4954  0.2462
 3712TIP3    H111100   5.579   5.669   4.808  0.0505 -1.2652  0.0582
 3712TIP3    H211101   5.722   5.631   4.777  0.7449  0.7686  0.6015
 3713TIP3   OH211102   2.941   3.150   2.572  0.1987 -0.5974 -0.0152
 3713TIP3    H111103   2.989   3.069   2.553 -0.2690 -1.2243  1.3503
 3713TIP3    H211104   2.877   3.125   2.639 -1.8674  0.2861 -1.5694
 3714TIP3   OH211105   5.968   0.164   0.138 -0.0624  0.4726  0.1722
 3714TIP3    H111106   5.895   0.102   0.137  0.8544 -0.6973 -2.6392
 3714TIP3    H211107   5.926   0.250   0.133 -1.2768 -0.0659  0.7314
 3715TIP3   OH211108   4.911   0.005   0.100 -0.6445  0.3102 -0.6743
 3715TIP3    H111109   4.993   0.032   0.059 -0.2803 -1.2037 -0.9692
 3715TIP3    H211110   4.902   0.064   0.175  1.9485 -0.9963  0.7881
 3716TIP3   OH211111   4.527   0.087   4.909  0.5511  0.3872 -0.2312
 3716TIP3    H111112   4.471   0.043   4.845  0.4533  0.9901 -0.5582
 3716TIP3    H211113   4.599   0.025   4.923  0.9881  0.5829 -1.5085
 3717TIP3   OH211114   4.752   1.533   3.048  0.6760  0.3520  0.9182
 3717TIP3    H111115   4.827   1.568   3.096  0.5366 -1.4819  2.6378
 3717TIP3    H211116   4.676   1.554   3.103  0.4137 -1.0720  1.1544
 3718TIP3   OH211117   6.463   1.692   2.203 -0.2481  0.0598 -0.0466
 3718TIP3    H111118   6.468   1.629   2.275 -2.3369 -0.4451 -0.2762
 3718TIP3    H211119   6.552   1.699   2.170  0.4511 -0.9405  1.5314
 3719TIP3   OH211120   4.095   0.881   0.853  0.2403  0.0125 -0.1415
 3719TIP3    H111121   4.083   0.838   0.769  2.0873 -0.2444 -0.3321
 3719TIP3    H211122   4.186   0.861   0.877  0.2103  1.3072  1.2038
 3720TIP3   OH211123   4.114   2.861   5.193 -0.2834  0.0397  0.0680
 3720TIP3    H111124   4.197   2.864   5.144  0.4160  2.1832  1.2516
 3720TIP3    H211125   4.131   2.800   5.264  1.0020  1.8596  1.4012
 3721TIP3   OH211126   2.319   4.461   4.797  0.0913 -0.5337 -0.1500
 3721TIP3    H111127   2.365   4.520   4.857  0.7251 -0.4289 -0.7124
 3721TIP3    H211128   2.264   4.407   4.853 -0.1598  0.2957  0.4164
 3722TIP3   OH211129   4.864   4.343   0.224 -0.1619  0.6720 -0.0649
 3722TIP3    H111130   4.936   4.329   0.162 -1.0761 -1.9053 -0.6542
 3722TIP3    H211131   4.874   4.434   0.252  2.1863  0.9539 -1.5524
 3723TIP3   OH211132   2.949   2.904   3.973 -0.5770 -0.1746  0.5981
 3723TIP3    H111133   2.898   2.883   3.895 -0.9818  0.4950  0.6756
 3723TIP3    H211134   2.978   2.819   4.006  0.9685 -0.3878 -1.1653
 3724TIP3   OH211135   5.981   1.437   0.672  0.4414  0.0488  0.2529
 3724TIP3    H111136   5.912   1.476   0.618 -0.0267 -2.4965 -1.1153
 3724TIP3    H211137   6.057   1.432   0.613  0.7751 -0.2088  0.7017
 3725TIP3   OH211138   1.445   3.629   2.751  0.4568  0.8790 -0.0371
 3725TIP3    H111139   1.395   3.669   2.823 -1.2228 -0.2629 -0.5214
 3725TIP3    H211140   1.407   3.667   2.672 -0.5515 -0.9498 -0.4647
 3726TIP3   OH211141   2.568   2.839   4.783  0.0477  0.0757  0.3336
 3726TIP3    H111142   2.600   2.789   4.708 -0.1189  0.0965  0.2481
 3726TIP3    H211143   2.473   2.836   4.775  0.0015  2.7421 -1.2683
 3727TIP3   OH211144   4.307   1.039   4.873 -0.5237 -0.6140 -0.0778
 3727TIP3    H111145   4.396   1.053   4.903 -0.4258  0.2294 -0.7517
 3727TIP3    H211146   4.279   0.959   4.918  0.5850 -0.9208  0.0832
 3728TIP3   OH211147   6.755   2.240   0.653  0.4549  0.1515  0.4780
 3728TIP3    H111148   6.781   2.148   0.641  1.1650  0.4455 -0.3849
 3728TIP3    H211149   6.755   2.276   0.564  0.6682  1.1115  0.8540
 3729TIP3   OH211150   1.149   2.430   3.581  0.5081 -0.4507 -0.1697
 3729TIP3    H111151   1.061   2.394   3.570  0.2676 -0.3809  1.3510
 3729TIP3    H211152   1.139   2.523   3.563 -0.0834 -0.1587  1.4910
 3730TIP3   OH211153   5.910   3.823   0.763  0.4023 -0.2009 -0.0669
 3730TIP3    H111154   5.888   3.815   0.670 -0.8765  1.1165  0.0812
 3730TIP3    H211155   5.953   3.908   0.771  1.1501 -0.6165  0.4459
 3731TIP3   OH211156   1.969   2.579   1.097  0.0657 -0.1331  0.7457
 3731TIP3    H111157   2.051   2.580   1.047  0.1312  1.3565  0.8514
 3731TIP3    H211158   1.946   2.486   1.102 -0.3003 -0.3378 -2.6014
 3732TIP3   OH211159   3.066   0.318   2.908  0.0936  0.1737  0.0316
 3732TIP3    H111160   3.031   0.404   2.931  2.2925  0.8513  1.0756
 3732TIP3    H211161   3.098   0.283   2.991  2.5693 -0.0437 -0.9444
 3733TIP3   OH211162   6.393   0.258   0.234 -0.4058  0.2416 -0.1842
 3733TIP3    H111163   6.479   0.216   0.228 -0.6973 -0.2013 -1.7037
 3733TIP3    H211164   6.413   0.350   0.252  0.3987  0.1593 -0.5977
 3734TIP3   OH211165   2.455   5.215   0.714  0.2354  0.2263  0.6282
 3734TIP3    H111166   2.491   5.129   0.737  0.9523  0.9159  2.2756
 3734TIP3    H211167   2.504   5.241   0.636 -0.1064 -0.9141  0.0068
 3735TIP3   OH211168   5.183   5.140   4.772 -0.4145  0.0890  0.2824
 3735TIP3    H111169   5.187   5.167   4.864  0.3426 -0.4848  0.4261
 3735TIP3    H211170   5.275   5.124   4.747 -0.7255 -1.2593 -0.1097
 3736TIP3   OH211171   2.285   4.705   1.532 -0.0176  0.0982  0.0487
 3736TIP3    H111172   2.377   4.702   1.557 -0.3675  0.8840  1.5050
 3736TIP3    H211173   2.238   4.666   1.605 -1.0125  1.7658  0.3619
 3737TIP3   OH211174   6.363   0.654   2.489 -0.4669 -0.1839  0.1583
 3737TIP3    H111175   6.382   0.732   2.540  0.7379 -0.0257 -0.4958
 3737TIP3    H211176   6.287   0.677   2.435  0.3080  0.8002 -0.5493
 3738TIP3   OH211177   0.287   4.926   1.536  0.1530 -1.0009  0.3985
 3738TIP3    H111178   0.362   4.984   1.543 -0.0874 -0.6724  0.2743
 3738TIP3    H211179   0.288   4.895   1.446 -0.2640 -0.4412  0.1965
 3739TIP3   OH211180   5.901   2.226   5.028 -0.2877 -0.3530  0.3521
 3739TIP3    H111181   5.848   2.147   5.036 -0.4782 -0.1849  0.8169
 3739TIP3    H211182   5.975   2.201   4.973 -0.0924 -0.9874  0.8867
 3740TIP3   OH211183   2.312   4.685   3.824 -0.4750 -0.3367 -0.4321
 3740TIP3    H111184   2.272   4.758   3.871  0.1397  0.7578 -1.5402
 3740TIP3    H211185   2.260   4.609   3.848 -1.3421  0.5263  0.4897
 3741TIP3   OH211186   3.386   5.611   1.736 -0.0387  0.0922 -0.4711
 3741TIP3    H111187   3.341   5.695   1.743  1.1937  0.6933  0.5503
 3741TIP3    H211188   3.420   5.595   1.823  1.9957 -0.1764 -1.2706
 3742TIP3   OH211189   2.883   3.850   1.458 -0.6222  0.2117  0.8282
 3742TIP3    H111190   2.890   3.932   1.408  3.5251 -0.4062  0.1037
 3742TIP3    H211191   2.859   3.784   1.392 -0.3872  0.2581  0.6951
 3743TIP3   OH211192   0.907   0.491   5.104  0.1579 -0.1542  0.4891
 3743TIP3    H111193   0.828   0.450   5.137  0.5353 -0.8688  0.5236
 3743TIP3    H211194   0.978   0.432   5.130  0.5650 -0.2325 -0.7351
 3744TIP3   OH211195   6.522   1.592   3.260  0.6237 -0.3525 -0.1796
 3744TIP3    H111196   6.483   1.518   3.214  1.8026 -1.7009  0.8958
 3744TIP3    H211197   6.549   1.556   3.345 -1.0092  1.8799  1.4225
 3745TIP3   OH211198   0.345   2.452   4.041  0.1507  0.3739  0.2840
 3745TIP3    H111199   0.285   2.526   4.053 -0.9830 -0.6983  1.6226
 3745TIP3    H211200   0.292   2.375   4.061  1.2626 -0.8291 -1.2229
 3746TIP3   OH211201   4.390   0.730   5.740 -0.6015  0.2859 -0.3079
 3746TIP3    H111202   4.393   0.817   5.699  2.5701 -0.6559 -2.4566
 3746TIP3    H211203   4.447   0.738   5.816 -1.4237  0.3828  0.3170
 3747TIP3   OH211204   0.468   2.673   4.277 -0.3139 -0.0663 -0.3686
 3747TIP3    H111205   0.471   2.764   4.245 -1.2811 -0.3509 -1.3256
 3747TIP3    H211206   0.557   2.640   4.262 -0.0186  0.6483 -0.2336
 3748TIP3   OH211207   5.659   0.061   0.895 -0.1280  0.0075 -0.3446
 3748TIP3    H111208   5.690   0.004   0.825  0.4021 -0.1630  0.0269
 3748TIP3    H211209   5.737   0.083   0.946 -0.6223 -0.5456  0.6833
 3749TIP3   OH211210   4.331   4.877   2.468 -0.0002 -0.0522  0.0915
 3749TIP3    H111211   4.394   4.942   2.501 -1.5411  2.2714 -1.2492
 3749TIP3    H211212   4.307   4.908   2.381  0.4513 -3.4512 -1.4063
 3750TIP3   OH211213   4.722   4.768   2.138 -0.6422 -0.8294  0.3152
 3750TIP3    H111214   4.638   4.751   2.182  0.5997 -2.3369  2.2330
 3750TIP3    H211215   4.750   4.682   2.105  1.8494 -1.1859  2.9767
 3751TIP3   OH211216   1.259   5.029   2.634  0.2736 -0.1754  0.1710
 3751TIP3    H111217   1.338   4.982   2.608 -0.4866 -0.1620 -2.4339
 3751TIP3    H211218   1.239   4.996   2.721  2.7659 -0.6576  0.6311
 3752TIP3   OH211219   0.444   2.454   0.677 -0.1610  0.0595  0.7768
 3752TIP3    H111220   0.380   2.524   0.667  0.5956  0.7352  0.6142
 3752TIP3    H211221   0.391   2.374   0.682 -0.9732  0.4965 -0.3981
 3753TIP3   OH211222   7.018   2.855   4.197  0.1674  0.1310  0.2538
 3753TIP3    H111223   7.085   2.916   4.229  0.0472 -1.1022  3.2265
 3753TIP3    H211224   7.057   2.812   4.121  0.8958  2.6298 -0.8848
 3754TIP3   OH211225   6.748   1.686   2.874  0.5246  0.1519 -0.7539
 3754TIP3    H111226   6.657   1.673   2.848  0.2786 -1.0997  0.6065
 3754TIP3    H211227   6.791   1.604   2.852  1.2220  0.5562 -0.9279
 3755TIP3   OH211228   1.328   0.579   5.846  0.4609  0.4954  0.0988
 3755TIP3    H111229   1.378   0.512   5.892  0.2661 -0.2560 -0.7366
 3755TIP3    H211230   1.308   0.539   5.761 -2.0569  0.5043  0.5882
 3756TIP3   OH211231   2.349   3.264   2.458  0.4043 -0.5129  0.3138
 3756TIP3    H111232   2.263   3.244   2.421  0.5151 -1.2045  0.4156
 3756TIP3    H211233   2.342   3.354   2.488 -0.4484 -0.7201  0.7723
 3757TIP3   OH211234   2.617   0.275   0.188 -0.3013  0.2964 -0.0687
 3757TIP3    H111235   2.663   0.208   0.238  2.1390  0.2198 -2.1331
 3757TIP3    H211236   2.686   0.336   0.162 -2.1526  2.6634  0.2437
 3758TIP3   OH211237   4.718   1.071   1.496  0.2793  0.2306  0.1760
 3758TIP3    H111238   4.662   1.054   1.572 -1.6948 -1.4515 -1.5396
 3758TIP3    H211239   4.784   1.002   1.499 -0.8668 -0.9537 -0.5260
 3759TIP3   OH211240   3.560   3.073   5.691  0.8618  0.3141 -0.3427
 3759TIP3    H111241   3.632   3.017   5.721  0.9900  0.0067 -1.2214
 3759TIP3    H211242   3.595   3.121   5.616  0.6767  1.4145  0.2386
 3760TIP3   OH211243   6.820   3.660   3.535 -0.0855 -0.6244  0.4914
 3760TIP3    H111244   6.815   3.581   3.481 -1.3632  0.1462 -0.5970
 3760TIP3    H211245   6.834   3.628   3.624  1.8833 -1.9443 -0.2269
 3761TIP3   OH211246   5.154   5.746   0.413 -0.2101  0.4404 -0.1796
 3761TIP3    H111247   5.082   5.723   0.354  0.5860  0.0587 -1.0375
 3761TIP3    H211248   5.199   5.819   0.369 -0.4043  1.0581  0.6252
 3762TIP3   OH211249   2.035   0.376   4.036  0.7902  0.2603 -0.1604
 3762TIP3    H111250   2.112   0.323   4.016  1.3547  0.4078  1.4973
 3762TIP3    H211251   2.047   0.456   3.985  0.9495 -0.3304 -1.0856
 3763TIP3   OH211252   3.776   6.254   4.154 -0.4323 -0.9099  0.1901
 3763TIP3    H111253   3.758   6.197   4.229 -0.6848 -1.5544 -0.3550
 3763TIP3    H211254   3.870   6.271   4.159 -0.3781 -1.2766  0.4234
 3764TIP3   OH211255   2.093   2.807   5.287  0.2834  0.1982  0.2643
 3764TIP3    H111256   2.156   2.877   5.268  0.1392  0.0261 -0.9180
 3764TIP3    H211257   2.007   2.848   5.275  0.1991 -0.3243 -1.0820
 3765TIP3   OH211258   3.653   5.957   4.906 -0.0300  0.3633  0.4843
 3765TIP3    H111259   3.627   5.889   4.843 -1.0288  0.9167  0.2780
 3765TIP3    H211260   3.591   6.028   4.891 -1.0137  0.0860  2.8336
 3766TIP3   OH211261   1.910   2.988   1.764  0.0010 -0.0460  0.2210
 3766TIP3    H111262   1.853   3.056   1.799  0.8724  1.0960 -0.5138
 3766TIP3    H211263   1.997   3.025   1.768  0.4789 -1.0651 -0.3589
 3767TIP3   OH211264   4.948   4.674   3.664  0.0941  0.7595 -0.7229
 3767TIP3    H111265   4.963   4.663   3.758 -2.0288 -2.8042 -0.6301
 3767TIP3    H211266   4.962   4.768   3.649  0.4572  1.4982  3.1297
 3768TIP3   OH211267   6.563   2.101   3.753 -0.0192  0.1788 -0.2780
 3768TIP3    H111268   6.644   2.092   3.803 -0.9430  1.9029  1.6441
 3768TIP3    H211269   6.550   2.015   3.712  2.0516 -0.5293  0.4470
 3769TIP3   OH211270   1.863   1.069   5.830  0.0994 -0.2726 -0.3467
 3769TIP3    H111271   1.794   1.004   5.846  0.3338 -0.7754 -1.3095
 3769TIP3    H211272   1.927   1.023   5.775  0.4950  0.6345 -0.6656
 3770TIP3   OH211273   5.163   0.211   2.285 -0.3251 -0.2714 -0.0227
 3770TIP3    H111274   5.078   0.248   2.307 -0.0113  0.2297  0.3637
 3770TIP3    H211275   5.157   0.119   2.311 -0.5930 -0.1274  0.4320
 3771TIP3   OH211276   0.029   2.823   0.035 -0.0520 -0.3374 -0.1664
 3771TIP3    H111277   0.090   2.772  -0.018 -1.3047  0.8534 -3.0271
 3771TIP3    H211278  -0.055   2.777   0.027 -0.9634  1.4404 -1.9419
 3772TIP3   OH211279   0.416   2.044   3.314 -0.4379  0.1548 -0.5123
 3772TIP3    H111280   0.414   2.121   3.371  0.9615 -1.4539  1.8717
 3772TIP3    H211281   0.339   1.993   3.338  1.2990 -1.6103  1.7116
 3773TIP3   OH211282   5.385   3.067   2.116  0.1072  0.0300  0.0167
 3773TIP3    H111283   5.416   3.136   2.175  0.8887 -0.0776 -0.2660
 3773TIP3    H211284   5.377   3.109   2.031 -0.7463  0.1097  0.1223
 3774TIP3   OH211285   0.798   1.240   3.010  0.3632  0.3111  0.7546
 3774TIP3    H111286   0.831   1.304   2.947  1.7219 -1.6750 -0.6797
 3774TIP3    H211287   0.765   1.293   3.083  1.8762  2.6111 -0.1038
 3775TIP3   OH211288   0.411   5.943   1.119  0.4168 -0.2993 -0.8578
 3775TIP3    H111289   0.385   5.900   1.037  0.2765 -2.2295  0.1236
 3775TIP3    H211290   0.504   5.919   1.129  0.1442 -1.0408  0.0645
 3776TIP3   OH211291   5.614   4.427   5.728  0.1429 -0.3416  0.3872
 3776TIP3    H111292   5.672   4.491   5.768 -0.0440 -0.2044  0.4374
 3776TIP3    H211293   5.602   4.458   5.638 -1.5724  0.8132  0.9745
 3777TIP3   OH211294   3.092   4.434   0.691 -0.3668  0.5834  0.0533
 3777TIP3    H111295   3.045   4.490   0.753 -1.9894 -1.1310  0.4604
 3777TIP3    H211296   3.177   4.420   0.731 -0.6017  1.2791  0.8265
 3778TIP3   OH211297   0.564   3.191   5.345 -0.2495 -0.3028 -0.2606
 3778TIP3    H111298   0.607   3.184   5.260 -0.2980 -0.3485 -0.2822
 3778TIP3    H211299   0.531   3.280   5.349 -1.3736 -0.6733 -0.8412
 3779TIP3   OH211300   0.311   0.838   1.720 -0.1898  0.2498 -0.0369
 3779TIP3    H111301   0.377   0.899   1.752 -1.0408  0.3215  1.6814
 3779TIP3    H211302   0.244   0.836   1.788 -2.0034  0.1781 -1.7178
 3780TIP3   OH211303   4.939   1.691   2.168 -0.0471 -0.4461 -0.3088
 3780TIP3    H111304   4.926   1.620   2.232  0.9174 -0.0023  0.3914
 3780TIP3    H211305   5.033   1.694   2.154 -0.0506  0.8799 -0.1255
 3781TIP3   OH211306   5.520   0.296   2.992  0.1430  0.2650 -0.0501
 3781TIP3    H111307   5.455   0.317   2.925  0.9854 -1.9883 -1.7235
 3781TIP3    H211308   5.600   0.338   2.962  0.6031 -1.0156 -0.7327
 3782TIP3   OH211309   7.038   2.297   0.772 -0.0564  0.1706 -0.4551
 3782TIP3    H111310   7.027   2.294   0.867  0.6206 -0.9649 -0.3960
 3782TIP3    H211311   6.949   2.299   0.738 -0.4327 -2.3461  0.1631
 3783TIP3   OH211312   4.570   2.821   1.845 -0.2669 -0.1733  0.1293
 3783TIP3    H111313   4.503   2.875   1.887 -0.0890  0.4399 -0.3457
 3783TIP3    H211314   4.630   2.797   1.915 -0.5185 -0.0038  0.4036
 3784TIP3   OH211315   3.791   0.043   5.192  0.0880 -0.0788  0.0832
 3784TIP3    H111316   3.699   0.059   5.214 -0.3853 -0.6611 -1.3016
 3784TIP3    H211317   3.832   0.129   5.197 -1.0463  0.6054 -1.3922
 3785TIP3   OH211318   3.792   5.298   0.217  0.7954  0.0447  0.0665
 3785TIP3    H111319   3.726   5.236   0.187  1.8361 -1.2130  0.2579
 3785TIP3    H211320   3.778   5.306   0.311  0.6453  0.1159  0.0374
 3786TIP3   OH211321   4.885   1.088   0.342 -0.2420 -0.2012  0.1143
 3786TIP3    H111322   4.936   1.118   0.267 -1.0655  1.3746  0.1426
 3786TIP3    H211323   4.942   1.026   0.387  1.1130  0.4859 -0.6020
 3787TIP3   OH211324   0.455   5.723   4.010 -0.2259 -0.0567 -0.1066
 3787TIP3    H111325   0.533   5.741   4.063  0.5001 -0.5935 -0.9546
 3787TIP3    H211326   0.402   5.802   4.017  0.8397  0.6902 -0.2778
 3788TIP3   OH211327   0.311   1.812   0.510 -0.0689  0.4560 -0.1367
 3788TIP3    H111328   0.345   1.835   0.596  0.5489 -2.7722  0.6188
 3788TIP3    H211329   0.362   1.866   0.449  2.5197 -0.1668  1.3149
 3789TIP3   OH211330   3.915   4.831   3.074 -0.9239 -0.2922  0.4144
 3789TIP3    H111331   3.999   4.875   3.088 -0.7734  0.0425 -1.3148
 3789TIP3    H211332   3.850   4.890   3.112 -0.5204  0.2500  0.2665
 3790TIP3   OH211333   0.411   5.906   3.288  0.0351 -0.1992  0.4508
 3790TIP3    H111334   0.337   5.958   3.320  1.8500  1.3014  2.4618
 3790TIP3    H211335   0.370   5.830   3.246 -2.6333  0.8466  0.9471
 3791TIP3   OH211336   5.504   0.286   0.309 -0.3292  0.0698  0.1266
 3791TIP3    H111337   5.438   0.258   0.372  0.9907  0.3020  1.6846
 3791TIP3    H211338   5.508   0.215   0.245 -0.3050 -1.1385  1.4296
 3792TIP3   OH211339   6.797   3.059   4.598  0.1912 -0.0983  0.7138
 3792TIP3    H111340   6.876   3.004   4.596  0.0428 -0.3209 -0.7170
 3792TIP3    H211341   6.807   3.116   4.521  0.3526  1.9481  2.1640
 3793TIP3   OH211342   0.202   2.929   0.763 -0.1988 -0.3545  0.3675
 3793TIP3    H111343   0.108   2.949   0.768 -0.0161  0.9493 -0.7603
 3793TIP3    H211344   0.213   2.885   0.680  0.5473  2.0928 -0.9415
 3794TIP3   OH211345   6.290   1.315   4.105  0.3673  0.4895 -0.7446
 3794TIP3    H111346   6.253   1.376   4.041 -1.6166  1.7608  1.4455
 3794TIP3    H211347   6.339   1.370   4.165  0.1365 -0.3075  0.2047
 3795TIP3   OH211348   1.573   3.486   3.043 -0.3606 -0.0624  0.2886
 3795TIP3    H111349   1.656   3.496   2.996  0.0665 -0.7089  0.8794
 3795TIP3    H211350   1.519   3.432   2.985  0.0364 -0.5621  0.3765
 3796TIP3   OH211351   3.916   0.843   3.408 -0.1179 -0.2259  0.1207
 3796TIP3    H111352   3.868   0.925   3.402 -0.8886 -0.6981 -0.2607
 3796TIP3    H211353   3.995   0.865   3.458 -0.4650  0.6723  0.2865
 3797TIP3   OH211354   5.723   4.947   4.013 -0.2989  0.5786 -0.1508
 3797TIP3    H111355   5.679   4.890   4.076  0.7881  0.2810  0.3792
 3797TIP3    H211356   5.741   4.890   3.938  1.0224  0.1185  0.4858
 3798TIP3   OH211357   2.052   2.580   2.865  0.3419  0.6735 -0.0958
 3798TIP3    H111358   2.125   2.552   2.920  1.3363  0.8199 -1.3256
 3798TIP3    H211359   2.090   2.595   2.779 -1.1213  0.8551 -0.7384
 3799TIP3   OH211360   6.212   5.821   5.037  0.8190  0.2377 -0.6028
 3799TIP3    H111361   6.158   5.750   5.001 -0.6257  0.9333  0.1021
 3799TIP3    H211362   6.300   5.804   5.003  0.0115 -0.4739 -2.4633
 3800TIP3   OH211363   2.615   3.585   5.638 -0.2530  0.0680  0.0422
 3800TIP3    H111364   2.637   3.531   5.714 -1.2353 -0.5106 -0.0675
 3800TIP3    H211365   2.529   3.622   5.660  0.6392  2.1177  0.3936
 3801TIP3   OH211366   3.782   2.990   3.021 -0.2002  0.4050  0.0694
 3801TIP3    H111367   3.733   3.054   2.969  1.6641  0.1459 -2.2177
 3801TIP3    H211368   3.871   2.995   2.986  0.2327 -2.7458  0.4653
 3802TIP3   OH211369   3.111   1.758   5.182  0.1904  0.0569 -0.0776
 3802TIP3    H111370   3.057   1.822   5.227  0.0994 -0.3648  0.4261
 3802TIP3    H211371   3.065   1.675   5.193 -0.1880  0.0516 -1.5582
 3803TIP3   OH211372   1.966   5.933   1.135  0.1878 -0.1464  0.1169
 3803TIP3    H111373   1.965   5.881   1.055  0.2519  0.2345 -0.1313
 3803TIP3    H211374   1.975   5.868   1.205 -0.0744 -0.4935 -0.1699
 3804TIP3   OH211375   1.534   4.078   0.289  0.3900 -0.6657  0.2243
 3804TIP3    H111376   1.552   3.989   0.260 -1.7498 -1.2961  0.6473
 3804TIP3    H211377   1.608   4.102   0.344  1.2170 -2.0002 -0.2821
 3805TIP3   OH211378   1.190   3.597   0.909  0.6843  0.5704  0.4783
 3805TIP3    H111379   1.253   3.586   0.838  0.6166  0.2162  0.4712
 3805TIP3    H211380   1.234   3.560   0.986 -0.7784 -2.9358 -0.1716
 3806TIP3   OH211381   3.246   4.082   3.966  0.1069 -0.3990  0.3299
 3806TIP3    H111382   3.215   4.115   3.882 -0.2281 -0.4582  0.4305
 3806TIP3    H211383   3.195   4.003   3.982  0.1869 -0.4034  0.5785
 3807TIP3   OH211384   3.115   1.222   3.533  0.2107 -0.0907  0.3486
 3807TIP3    H111385   3.099   1.129   3.523  1.1114 -0.3265  0.9674
 3807TIP3    H211386   3.203   1.236   3.499 -1.1389  1.1999 -3.1396
 3808TIP3   OH211387   6.748   3.682   4.740 -0.4763  0.6762 -0.0400
 3808TIP3    H111388   6.668   3.712   4.782 -1.1913 -0.2049 -0.7288
 3808TIP3    H211389   6.730   3.591   4.717  0.9303  0.2909  0.2828
 3809TIP3   OH211390   0.198   3.117   1.161  0.3649  0.4434  0.3889
 3809TIP3    H111391   0.169   3.042   1.213  0.9162  0.4630  0.7337
 3809TIP3    H211392   0.282   3.089   1.123  0.4348  0.7835  0.2897
 3810TIP3   OH211393   1.709   1.494   1.691  0.5356  0.3785 -0.2271
 3810TIP3    H111394   1.676   1.512   1.779  0.3807  0.1348 -0.2351
 3810TIP3    H211395   1.681   1.569   1.639 -0.9776 -0.3208 -0.4936
 3811TIP3   OH211396   6.778   4.274   1.274 -0.4525  0.2046 -0.0607
 3811TIP3    H111397   6.849   4.338   1.276 -1.2980  1.1564  0.2945
 3811TIP3    H211398   6.815   4.199   1.228  0.4511  1.0784 -0.8018
 3812TIP3   OH211399   2.132   0.548   5.801  0.2024  0.0283 -0.1433
 3812TIP3    H111400   2.048   0.590   5.820  0.3451 -0.2443  1.1283
 3812TIP3    H211401   2.197   0.617   5.817  0.3166 -0.1681  0.2368
 3813TIP3   OH211402   6.070   1.140   4.565  0.3895 -0.1924  0.0870
 3813TIP3    H111403   6.072   1.051   4.601 -0.8404  0.1672  1.1313
 3813TIP3    H211404   5.986   1.146   4.521  0.2387  0.5987  0.4594
 3814TIP3   OH211405   3.856   5.748   1.573 -0.6292 -0.0408  0.3703
 3814TIP3    H111406   3.918   5.682   1.544  0.1861  0.1999  1.4567
 3814TIP3    H211407   3.897   5.832   1.551 -1.6289  0.1411 -0.9542
 3815TIP3   OH211408   6.079   5.840   5.268  0.0653 -0.4301  0.2871
 3815TIP3    H111409   6.137   5.826   5.193  0.7604  0.4740  0.6484
 3815TIP3    H211410   6.039   5.925   5.252  1.4033  0.5163  1.6875
 3816TIP3   OH211411   0.500   0.950   2.590  0.0252 -0.0101 -0.3042
 3816TIP3    H111412   0.456   0.917   2.669 -1.2415  0.0495 -0.9544
 3816TIP3    H211413   0.549   1.026   2.621 -3.5436  2.4926 -0.1147
 3817TIP3   OH211414   5.065   3.276   1.800  0.5664  0.9374 -0.2128
 3817TIP3    H111415   5.121   3.206   1.832  0.8187  1.2783  0.1018
 3817TIP3    H211416   5.016   3.305   1.878 -0.3656  0.3599 -0.5628
 3818TIP3   OH211417   4.143   0.902   2.795  0.9461 -0.2175 -0.7290
 3818TIP3    H111418   4.061   0.879   2.839  0.9186  0.1412 -0.5885
 3818TIP3    H211419   4.129   0.876   2.703  1.4817 -2.1951 -0.3078
 3819TIP3   OH211420   3.795   5.231   5.502 -0.6378 -0.0871 -0.0251
 3819TIP3    H111421   3.796   5.205   5.410 -0.8601 -0.2495  0.0180
 3819TIP3    H211422   3.886   5.254   5.521 -0.5959 -0.0267 -0.2930
 3820TIP3   OH211423   2.460   6.351   1.695  0.2315  0.1576 -0.3183
 3820TIP3    H111424   2.385   6.370   1.639 -0.7019 -0.6943  0.5884
 3820TIP3    H211425   2.479   6.433   1.739 -0.9793  0.0894  0.3592
 3821TIP3   OH211426   1.040   1.077   2.918  0.7574  0.1002 -0.1720
 3821TIP3    H111427   1.113   1.138   2.914  0.8031  0.0961  0.5237
 3821TIP3    H211428   0.963   1.132   2.933  0.5764  0.1254 -1.1160
 3822TIP3   OH211429   2.020   0.620   2.327  0.2123 -0.3126 -0.2824
 3822TIP3    H111430   2.075   0.697   2.310  0.8728 -0.8700 -0.7196
 3822TIP3    H211431   1.941   0.656   2.368  1.4008  0.3928  1.5045
 3823TIP3   OH211432   0.143   0.745   0.614  0.0307 -0.0083 -0.0274
 3823TIP3    H111433   0.143   0.725   0.707  0.2594  0.3374  0.0474
 3823TIP3    H211434   0.189   0.671   0.573 -2.0636 -1.3413 -0.1308
 3824TIP3   OH211435   4.505   2.763   3.074  0.8026  0.0858 -0.3313
 3824TIP3    H111436   4.503   2.854   3.103 -0.0897 -0.0848  0.1902
 3824TIP3    H211437   4.444   2.760   3.000  0.5852 -0.1431 -0.1476
 3825TIP3   OH211438   1.597   1.729   1.657  0.4059 -0.4959  0.2096
 3825TIP3    H111439   1.554   1.807   1.623  1.7856 -0.9399 -2.9216
 3825TIP3    H211440   1.526   1.668   1.675 -0.4739 -0.3202 -2.3515
 3826TIP3   OH211441   3.106   6.537   2.603 -0.1417 -0.5126 -0.5590
 3826TIP3    H111442   3.144   6.529   2.516 -0.3303  0.8073 -0.7857
 3826TIP3    H211443   3.182   6.540   2.662  0.2339  2.4258 -1.0351
 3827TIP3   OH211444   6.898   0.964   1.473 -0.0133 -0.1188  0.4791
 3827TIP3    H111445   6.936   1.052   1.470 -0.7801  0.2027 -0.8418
 3827TIP3    H211446   6.841   0.965   1.550  0.3522  0.3767  0.7470
 3828TIP3   OH211447   4.777   2.086   3.808 -0.2010  0.3219  0.2817
 3828TIP3    H111448   4.850   2.049   3.858  1.2629  2.5434 -0.0637
 3828TIP3    H211449   4.733   2.145   3.869 -0.4390  0.5490 -0.1046
 3829TIP3   OH211450   0.524   2.453   0.277 -0.6272 -0.1365  0.6033
 3829TIP3    H111451   0.469   2.402   0.217 -0.7875 -0.8174  1.3070
 3829TIP3    H211452   0.500   2.544   0.261 -1.8265 -0.4101  0.7494
 3830TIP3   OH211453   1.290   2.861   1.034 -0.8350  0.1841 -0.6009
 3830TIP3    H111454   1.260   2.898   1.116 -2.7498  1.3009 -1.7198
 3830TIP3    H211455   1.385   2.864   1.039 -0.9227  0.8170  1.2943
 3831TIP3   OH211456   2.723   3.618   3.606 -0.4274  0.8533  0.5468
 3831TIP3    H111457   2.669   3.664   3.671  0.8485  1.5466  1.1596
 3831TIP3    H211458   2.790   3.574   3.658  0.2491  0.9126 -0.2572
 3832TIP3   OH211459   6.162   2.721   3.432  0.5961 -0.1422  0.2878
 3832TIP3    H111460   6.090   2.738   3.372  0.0909 -3.0169 -0.1070
 3832TIP3    H211461   6.240   2.752   3.386 -0.0420 -0.1111 -0.8013
 3833TIP3   OH211462   4.591   1.070   4.360  0.3155 -0.5354 -0.1336
 3833TIP3    H111463   4.589   0.981   4.323  2.0217 -1.1667  1.1191
 3833TIP3    H211464   4.554   1.060   4.448 -1.1966  0.4043 -0.6276
 3834TIP3   OH211465   5.546   6.247   4.709 -0.5765  0.5298 -0.3376
 3834TIP3    H111466   5.514   6.296   4.785 -0.7968  0.1320 -0.1687
 3834TIP3    H211467   5.582   6.167   4.747 -2.8851 -0.8219 -0.8131
 3835TIP3   OH211468   1.797   2.417   0.113  0.3573  0.5591 -0.0455
 3835TIP3    H111469   1.714   2.381   0.080  1.7694 -1.7634 -1.3421
 3835TIP3    H211470   1.773   2.462   0.194 -2.0413 -0.9078  0.1478
 3836TIP3   OH211471   6.044   6.061   1.912 -0.0457  0.3644  0.7742
 3836TIP3    H111472   6.021   5.968   1.921 -0.8219  0.4564 -0.1974
 3836TIP3    H211473   5.990   6.093   1.841  1.4495  1.1559 -0.0603
 3837TIP3   OH211474   6.613   3.948   0.877  0.0926  0.3525 -0.1586
 3837TIP3    H111475   6.531   3.913   0.910 -0.7781  0.4907 -2.0449
 3837TIP3    H211476   6.590   4.033   0.840  0.9861  0.2319 -1.0513
 3838TIP3   OH211477   5.822   3.564   5.650 -0.1801  0.0425  0.1701
 3838TIP3    H111478   5.906   3.545   5.693 -0.3217 -1.2754 -0.0726
 3838TIP3    H211479   5.756   3.531   5.712 -0.4947  0.6130  0.1378
 3839TIP3   OH211480   0.057   1.288   5.603 -0.5873  0.2603  0.2730
 3839TIP3    H111481   0.019   1.210   5.563 -0.4742 -0.3884  1.3966
 3839TIP3    H211482   0.118   1.321   5.537  0.4662 -1.4500  0.3276
 3840TIP3   OH211483   3.727   6.633   2.448 -0.2487  0.0235 -0.0894
 3840TIP3    H111484   3.647   6.584   2.468  0.4174 -1.5641 -1.0581
 3840TIP3    H211485   3.774   6.576   2.387  1.6361  0.9133  0.4834
 3841TIP3   OH211486   6.319   4.180   1.858 -0.6845  0.4327  0.1739
 3841TIP3    H111487   6.345   4.141   1.775 -2.0208  1.4209 -0.7513
 3841TIP3    H211488   6.402   4.195   1.905  0.0671 -0.3726 -0.8586
 3842TIP3   OH211489   1.907   2.504   3.982 -0.2779  0.1107 -0.5995
 3842TIP3    H111490   1.820   2.485   3.947 -0.0307 -2.0295 -0.1997
 3842TIP3    H211491   1.920   2.438   4.050  2.3579 -0.7898 -1.8340
 3843TIP3   OH211492   3.991   3.505   3.272 -0.3770  0.1786  0.0909
 3843TIP3    H111493   3.975   3.597   3.251  0.5438  0.6372  1.2944
 3843TIP3    H211494   4.080   3.503   3.308 -1.5951 -0.6013  3.3809
 3844TIP3   OH211495   6.335   0.791   2.912  0.2803  0.1895 -0.4651
 3844TIP3    H111496   6.312   0.849   2.984 -0.1109  1.1035 -1.3003
 3844TIP3    H211497   6.273   0.719   2.918  0.3576  0.1792  0.2051
 3845TIP3   OH211498   5.233   0.259   5.632  0.4022  0.3059  0.1019
 3845TIP3    H111499   5.274   0.342   5.659  0.7805 -0.2903  1.4105
 3845TIP3    H211500   5.304   0.195   5.634  0.3312  0.1002 -1.8322
 3846TIP3   OH211501   1.910   5.051   0.125  0.0787  0.1968  0.4517
 3846TIP3    H111502   1.920   4.961   0.094 -1.0413  0.0745  0.4115
 3846TIP3    H211503   1.973   5.059   0.196  0.7083 -0.3865 -0.0268
 3847TIP3   OH211504   0.490   5.859   5.084 -0.0855  0.4159  0.7733
 3847TIP3    H111505   0.501   5.948   5.115  0.5162  0.2088  1.1598
 3847TIP3    H211506   0.425   5.866   5.014  2.1272  1.5972 -1.2895
 3848TIP3   OH211507   5.653   6.579   0.104  0.3823 -0.0457  0.0963
 3848TIP3    H111508   5.746   6.597   0.120  0.3414  0.3865 -0.1317
 3848TIP3    H211509   5.621   6.542   0.186  1.3938 -2.8650 -0.6713
 3849TIP3   OH211510   0.153   4.480   2.786 -0.0880 -0.2235  0.3887
 3849TIP3    H111511   0.068   4.490   2.829 -0.0217 -1.8887  0.9645
 3849TIP3    H211512   0.209   4.544   2.830 -0.3790 -0.9333  1.8559
 3850TIP3   OH211513   6.434   2.220   5.272 -0.6247 -0.0056  0.0016
 3850TIP3    H111514   6.481   2.153   5.322 -0.9192  0.1600  0.5058
 3850TIP3    H211515   6.488   2.299   5.280 -0.1238 -0.2541 -0.8435
 3851TIP3   OH211516   2.751   0.191   3.768 -0.9053  0.2220  0.7631
 3851TIP3    H111517   2.737   0.102   3.799  0.7442 -1.0839 -1.8536
 3851TIP3    H211518   2.762   0.182   3.673  2.1167  2.7661  0.6839
 3852TIP3   OH211519   6.847   0.805   4.585 -0.2709  0.3592  0.0776
 3852TIP3    H111520   6.843   0.801   4.489  0.2148 -0.9321  0.0855
 3852TIP3    H211521   6.807   0.724   4.614 -2.6382  1.7961  1.0990
 3853TIP3   OH211522   0.994   0.195   4.187  0.0062  0.2214  0.0244
 3853TIP3    H111523   1.062   0.207   4.254 -1.1646 -0.5173  1.4066
 3853TIP3    H211524   1.029   0.126   4.130  1.3183  1.3351 -0.5708
 3854TIP3   OH211525   4.221   1.462   1.738 -0.2291  0.0598  0.8421
 3854TIP3    H111526   4.244   1.536   1.681 -1.1879 -0.6222 -0.4931
 3854TIP3    H211527   4.191   1.503   1.819 -0.1452  1.1137  0.3590
 3855TIP3   OH211528   6.770   3.351   4.850 -0.3208  0.2833  0.4185
 3855TIP3    H111529   6.711   3.276   4.859 -1.3175  1.2201  2.7064
 3855TIP3    H211530   6.739   3.396   4.772 -1.6359 -0.1195  0.6694
 3856TIP3   OH211531   1.240   5.802   3.865 -0.2205  0.6832 -0.3719
 3856TIP3    H111532   1.180   5.831   3.796  0.8789  0.6733 -1.3567
 3856TIP3    H211533   1.303   5.873   3.874  0.3435  0.1695 -0.2133
 3857TIP3   OH211534   2.838   3.956   0.460  0.3661 -0.2834  0.3114
 3857TIP3    H111535   2.760   3.901   0.462  1.6688 -2.3605 -1.3373
 3857TIP3    H211536   2.805   4.046   0.454 -1.9138 -1.1597 -1.4588
 3858TIP3   OH211537   2.014   4.114   2.351  0.6965 -0.0395 -0.9489
 3858TIP3    H111538   2.043   4.182   2.412  0.4466 -0.1851 -0.6609
 3858TIP3    H211539   2.058   4.034   2.382 -0.5436 -0.4177 -0.0544
 3859TIP3   OH211540   5.406   6.489   4.540 -0.0502 -0.0488 -0.5994
 3859TIP3    H111541   5.447   6.558   4.487 -0.3072  0.9317  0.4504
 3859TIP3    H211542   5.479   6.446   4.584 -0.0929  2.7869  2.5977
 3860TIP3   OH211543   4.362   5.516   5.397 -0.4935  0.2950 -0.1910
 3860TIP3    H111544   4.400   5.452   5.457 -1.0951 -0.1157 -0.2372
 3860TIP3    H211545   4.296   5.467   5.348 -1.8446  1.2005  0.6231
 3861TIP3   OH211546   5.687   1.161   1.313 -0.3155  0.2915  0.0551
 3861TIP3    H111547   5.766   1.125   1.354 -1.9841 -1.8394  1.6392
 3861TIP3    H211548   5.652   1.220   1.380 -0.4908  0.6039 -0.3142
 3862TIP3   OH211549   3.939   1.922   5.534 -0.2591  0.1601  0.4861
 3862TIP3    H111550   3.979   1.981   5.471 -0.8134 -1.0261 -1.0357
 3862TIP3    H211551   3.854   1.900   5.496 -0.2521 -1.2668  1.2124
 3863TIP3   OH211552   4.271   0.609   2.503  0.5509  0.6226 -0.4299
 3863TIP3    H111553   4.294   0.593   2.412  2.5084 -0.6695  0.2330
 3863TIP3    H211554   4.345   0.575   2.553 -0.8824  0.4292  1.6941
 3864TIP3   OH211555   3.413   0.830   1.243 -0.1018  0.1875  0.4342
 3864TIP3    H111556   3.364   0.881   1.179 -0.9439 -0.7937  0.2649
 3864TIP3    H211557   3.402   0.876   1.326  0.6703  1.2534 -0.0302
 3865TIP3   OH211558   2.793   3.235   3.134 -0.3001 -0.5841  0.3296
 3865TIP3    H111559   2.827   3.295   3.200 -1.2486 -0.2488  0.5325
 3865TIP3    H211560   2.756   3.293   3.066  1.9379 -0.8756 -1.2447
 3866TIP3   OH211561   3.812   3.730   1.401 -0.2884  0.3339 -0.3482
 3866TIP3    H111562   3.735   3.755   1.350 -0.7943 -2.6958 -1.2698
 3866TIP3    H211563   3.836   3.810   1.448 -1.2861  2.6430 -3.3823
 3867TIP3   OH211564   7.085   5.575   0.827  0.0625  0.6042  0.2813
 3867TIP3    H111565   7.179   5.585   0.817  0.0600  0.6195  0.2727
 3867TIP3    H211566   7.070   5.480   0.826  0.0423  0.6083 -0.0426
 3868TIP3   OH211567   2.527   2.361   5.627 -0.1176  0.7692  0.8558
 3868TIP3    H111568   2.560   2.319   5.706 -0.8221  2.0089  1.8441
 3868TIP3    H211569   2.549   2.454   5.638 -2.7672  1.4415  0.9660
 3869TIP3   OH211570   5.070   4.929   3.609 -0.2475 -0.0222 -0.0935
 3869TIP3    H111571   5.118   4.848   3.601  0.7477  0.3047  1.8325
 3869TIP3    H211572   5.058   4.960   3.520  0.7585 -1.4662 -0.7587
 3870TIP3   OH211573   3.040   3.787   4.591 -0.0535  0.2989  0.3635
 3870TIP3    H111574   3.069   3.804   4.681  2.0656 -0.3496 -0.1375
 3870TIP3    H211575   3.016   3.873   4.557 -0.7004  0.5769  1.4704
 3871TIP3   OH211576   5.450   0.796   2.577  0.2778  0.2295 -0.7172
 3871TIP3    H111577   5.442   0.702   2.562  1.3857 -0.0910  0.4971
 3871TIP3    H211578   5.439   0.836   2.491  0.7642 -1.0823 -1.4077
 3872TIP3   OH211579   2.959   4.607   4.737 -0.0138 -0.1864  0.2858
 3872TIP3    H111580   2.869   4.588   4.765  0.4849 -1.5697  1.0034
 3872TIP3    H211581   2.959   4.591   4.643 -0.5686  0.0810  0.2333
 3873TIP3   OH211582   2.442   4.435   0.944  0.0975 -0.0575  0.5270
 3873TIP3    H111583   2.374   4.413   0.880 -0.3202 -0.2433  1.0251
 3873TIP3    H211584   2.471   4.350   0.977  0.0726  0.0501  0.8258
 3874TIP3   OH211585   4.931   5.685   0.249  0.4163 -0.5586  0.1082
 3874TIP3    H111586   4.921   5.780   0.246  0.9081 -0.5087 -0.0987
 3874TIP3    H211587   4.863   5.655   0.310  1.0466  0.0358  1.1167
 3875TIP3   OH211588   2.310   0.706   5.420  0.3000 -0.4766 -0.1672
 3875TIP3    H111589   2.345   0.696   5.509 -0.7280  0.2114  0.3341
 3875TIP3    H211590   2.228   0.753   5.432 -0.6847 -1.8283 -1.3424
 3876TIP3   OH211591   0.123   6.035   5.690  0.2043 -0.2532 -0.4149
 3876TIP3    H111592   0.045   6.027   5.745  0.5197 -0.7885 -0.0351
 3876TIP3    H211593   0.108   5.976   5.617  0.2479 -0.3483 -0.3470
 3877TIP3   OH211594   0.227   1.555   1.066  0.5344  0.1918  0.6113
 3877TIP3    H111595   0.187   1.520   0.987 -1.5599  1.1261  1.1817
 3877TIP3    H211596   0.303   1.603   1.035  0.1564 -0.0536 -0.7566
 3878TIP3   OH211597   0.072   1.939   1.434 -0.1750  0.4100 -0.0670
 3878TIP3    H111598   0.120   2.021   1.419  0.8401 -0.1082  0.2650
 3878TIP3    H211599   0.096   1.883   1.361 -1.3073  0.5833 -0.5920
 3879TIP3   OH211600   4.394   6.535   5.729 -0.3443 -0.4142 -1.1474
 3879TIP3    H111601   4.475   6.555   5.682 -0.3618 -0.4354 -1.1861
 3879TIP3    H211602   4.366   6.620   5.764 -0.9982 -0.1579 -2.2214
 3880TIP3   OH211603   4.917   2.790   1.343  0.5648 -0.0691  0.0414
 3880TIP3    H111604   4.835   2.813   1.299  1.4234  0.5169 -1.3019
 3880TIP3    H211605   4.956   2.874   1.367  2.1565 -0.1463 -1.9868
 3881TIP3   OH211606   6.415   5.665   2.496 -0.0435 -0.1369  0.1256
 3881TIP3    H111607   6.401   5.674   2.590 -0.8526  0.4796 -0.0399
 3881TIP3    H211608   6.327   5.673   2.458  0.0996 -1.6608 -0.6025
 3882TIP3   OH211609   2.568   2.799   3.260  0.3106 -0.0116 -0.3225
 3882TIP3    H111610   2.490   2.767   3.215 -1.4968 -0.1256  2.5650
 3882TIP3    H211611   2.543   2.885   3.293  0.0591 -1.3186  3.3733
 3883TIP3   OH211612   2.272   0.043   3.569  0.0949 -0.2940  0.3545
 3883TIP3    H111613   2.277  -0.005   3.652 -1.0771 -1.5210 -0.2496
 3883TIP3    H211614   2.340   0.110   3.577  1.1406 -1.4279  1.6273
 3884TIP3   OH211615   7.062   1.625   1.636 -0.3490  0.1512 -0.2360
 3884TIP3    H111616   6.980   1.667   1.660  0.0462  1.3079 -0.8176
 3884TIP3    H211617   7.126   1.660   1.699 -0.1474 -0.1057 -0.2961
 3885TIP3   OH211618   2.718   3.901   5.542 -0.8940 -0.0996  0.1874
 3885TIP3    H111619   2.683   3.977   5.495  0.4186  0.5930  0.2876
 3885TIP3    H211620   2.703   3.921   5.634 -1.3532 -0.3837  0.1775
 3886TIP3   OH211621   2.642   1.434   3.095 -0.5021  0.1337  0.6148
 3886TIP3    H111622   2.692   1.409   3.017  0.8287 -0.8138  1.7238
 3886TIP3    H211623   2.593   1.512   3.068  1.6618  1.1856 -0.5168
 3887TIP3   OH211624   3.893   4.210   0.342 -0.2270 -0.0792 -0.2478
 3887TIP3    H111625   3.895   4.118   0.316 -1.3901  0.3081 -1.8852
 3887TIP3    H211626   3.824   4.249   0.288 -0.4359  1.5597  1.0975
 3888TIP3   OH211627   6.397   1.754   4.340  0.3307  0.0526  0.5917
 3888TIP3    H111628   6.473   1.798   4.302  0.4923  0.2016  1.0800
 3888TIP3    H211629   6.364   1.816   4.405  0.4724 -0.4936  1.1873
 3889TIP3   OH211630   1.473   0.978   5.582  0.3714 -0.6671  0.0803
 3889TIP3    H111631   1.463   1.071   5.558  0.9271 -0.6047  0.0826
 3889TIP3    H211632   1.501   0.935   5.501  1.6489 -0.5609  0.4494
 3890TIP3   OH211633   3.405   1.549   5.877  0.4435  0.0355 -0.0018
 3890TIP3    H111634   3.412   1.543   5.781 -1.1064 -0.4476 -0.1058
 3890TIP3    H211635   3.424   1.461   5.908  5.3899  0.9947  0.5641
 3891TIP3   OH211636   6.890   5.500   4.593 -0.1963  0.4860 -0.0832
 3891TIP3    H111637   6.845   5.559   4.654  0.8281  2.6152 -1.2938
 3891TIP3    H211638   6.837   5.504   4.513 -0.7057 -1.1237  0.1396
 3892TIP3   OH211639   3.798   5.346   0.677 -0.0536 -0.0826 -0.2388
 3892TIP3    H111640   3.809   5.379   0.766 -0.7298 -0.1278 -0.1360
 3892TIP3    H211641   3.841   5.260   0.678 -1.2001 -0.6706  0.4156
 3893TIP3   OH211642   6.178   1.225   3.291 -0.3919 -0.1598 -0.2638
 3893TIP3    H111643   6.114   1.297   3.294 -1.0915 -0.8129  1.2535
 3893TIP3    H211644   6.128   1.147   3.315  0.2648 -1.2792 -2.2686
 3894TIP3   OH211645   1.569   6.703   2.337 -0.0416  0.6481 -0.2644
 3894TIP3    H111646   1.554   6.735   2.426 -0.1903  1.4672 -0.5826
 3894TIP3    H211647   1.632   6.764   2.300  0.8884 -0.3317 -0.3640
 3895TIP3   OH211648   2.451   3.891   2.683  0.0586  0.0153  0.0489
 3895TIP3    H111649   2.459   3.918   2.775 -0.9437  2.2167 -0.4388
 3895TIP3    H211650   2.480   3.800   2.682  2.4206  0.6171  2.1257
 3896TIP3   OH211651   2.115   1.636   5.498 -0.1139 -0.5713 -0.3056
 3896TIP3    H111652   2.028   1.598   5.483 -0.7536  1.1203 -1.0995
 3896TIP3    H211653   2.174   1.560   5.498 -1.9171 -2.2849  4.2297
 3897TIP3   OH211654   4.245   5.237   0.683  0.1795 -0.0924  0.5185
 3897TIP3    H111655   4.226   5.209   0.593  1.6746  1.9790 -0.5108
 3897TIP3    H211656   4.220   5.329   0.685  1.0755  0.1480  1.9376
 3898TIP3   OH211657   2.994   3.990   4.225 -0.7587  0.0142 -0.3257
 3898TIP3    H111658   3.084   3.960   4.230 -0.3572  1.0780 -0.8313
 3898TIP3    H211659   2.941   3.910   4.227  0.1587 -0.5895  0.5756
 3899TIP3   OH211660   1.040   0.639   1.755  0.1509 -0.6088 -0.1104
 3899TIP3    H111661   0.946   0.653   1.751  0.2165 -0.3677 -0.9245
 3899TIP3    H211662   1.065   0.671   1.842 -0.1502  1.6910 -0.7927
 3900TIP3   OH211663   0.850   2.171   1.312 -1.1620  0.0809  0.3593
 3900TIP3    H111664   0.838   2.095   1.256 -1.5281  0.5435 -0.2051
 3900TIP3    H211665   0.877   2.241   1.252 -0.6617  0.3549  0.8915
 3901TIP3   OH211666   6.280   5.209   1.369  0.4275 -0.4043 -0.1753
 3901TIP3    H111667   6.301   5.270   1.440 -2.2436  0.6806 -0.1987
 3901TIP3    H211668   6.210   5.155   1.405 -0.8041  0.0074 -1.8642
 3902TIP3   OH211669   0.214   0.739   2.658 -0.3592 -0.7600  0.8106
 3902TIP3    H111670   0.180   0.782   2.737  0.6618 -2.1578  2.0979
 3902TIP3    H211671   0.308   0.756   2.660 -0.5927  1.3079 -1.5526
 3903TIP3   OH211672   5.547   3.592   1.522  0.7555 -0.2400 -0.3295
 3903TIP3    H111673   5.464   3.571   1.478  1.2066 -1.2477 -0.7254
 3903TIP3    H211674   5.550   3.533   1.597  1.0716 -0.1326 -0.2589
 3904TIP3   OH211675   0.091   5.494   1.444  0.3700  0.7406 -0.1043
 3904TIP3    H111676   0.174   5.528   1.413  0.7948 -0.7590 -0.7388
 3904TIP3    H211677   0.115   5.419   1.499 -0.5355  0.8875  0.5165
 3905TIP3   OH211678   5.607   6.744   5.351  0.1056 -0.3535  0.3097
 3905TIP3    H111679   5.523   6.712   5.316 -0.6529  2.5195 -0.7436
 3905TIP3    H211680   5.601   6.839   5.344  1.9659  0.1793  3.7274
 3906TIP3   OH211681   2.550   5.023   4.475 -0.3200 -0.2711  0.1199
 3906TIP3    H111682   2.559   4.962   4.549 -0.4865 -1.3497 -0.7115
 3906TIP3    H211683   2.639   5.032   4.440 -0.5813 -1.8364 -1.0971
 3907TIP3   OH211684   5.281   4.979   2.280 -0.5029  0.1509 -0.0016
 3907TIP3    H111685   5.372   4.949   2.278 -1.0041 -1.6638  1.3289
 3907TIP3    H211686   5.235   4.918   2.222 -1.2989 -0.8446  1.5852
 3908TIP3   OH211687   2.953   6.417   3.916  0.1997  0.0450  0.1078
 3908TIP3    H111688   2.879   6.393   3.861  0.9151 -0.5416 -0.6310
 3908TIP3    H211689   2.979   6.504   3.884  1.0737 -0.6041 -1.0174
 3909TIP3   OH211690   6.555   2.067   2.469  0.3852 -0.4992  0.1153
 3909TIP3    H111691   6.471   2.113   2.470  0.3394 -0.5819  0.1888
 3909TIP3    H211692   6.618   2.130   2.503  0.3225 -0.4928  0.2196
 3910TIP3   OH211693   0.164   1.452   4.746  0.2548  0.0857  0.4384
 3910TIP3    H111694   0.103   1.523   4.727 -0.4265 -0.5935  0.0457
 3910TIP3    H211695   0.112   1.372   4.737  1.4487 -0.5739 -0.9187
 3911TIP3   OH211696   3.234   2.323   1.094  0.0247  0.2720  0.3917
 3911TIP3    H111697   3.222   2.250   1.034  0.1103 -0.0905  0.8106
 3911TIP3    H211698   3.329   2.335   1.100  0.0871 -0.5618  1.4688
 3912TIP3   OH211699   1.937   4.890   5.446 -0.5280  0.0208  0.3795
 3912TIP3    H111700   1.943   4.891   5.541  1.0100  0.4833  0.3069
 3912TIP3    H211701   2.028   4.885   5.416 -0.9626  0.2126 -1.0629
 3913TIP3   OH211702   1.086   6.645   0.404  0.2445  0.3687 -0.3050
 3913TIP3    H111703   1.049   6.713   0.461  2.3996  0.9963  0.4800
 3913TIP3    H211704   1.169   6.622   0.447 -1.0769 -3.9436  0.3083
 3914TIP3   OH211705   1.702   4.289   0.142 -0.1815 -0.1297  0.5471
 3914TIP3    H111706   1.771   4.223   0.152 -0.2307 -0.1630  0.6726
 3914TIP3    H211707   1.621   4.239   0.142 -0.3224  0.0330  2.1435
 3915TIP3   OH211708   1.819   0.408   5.496 -0.3142 -0.2669 -0.3380
 3915TIP3    H111709   1.831   0.502   5.486  0.1116 -0.3123 -0.2799
 3915TIP3    H211710   1.757   0.384   5.427  0.6026 -0.1582 -1.2235
 3916TIP3   OH211711   4.797   4.973   0.701 -1.1459  0.0678 -0.3683
 3916TIP3    H111712   4.883   5.004   0.726 -1.2048  1.2970 -1.5546
 3916TIP3    H211713   4.798   4.879   0.721  0.0843  0.2679  0.5826
 3917TIP3   OH211714   0.841   6.408   2.559 -0.1629  0.1185 -0.3776
 3917TIP3    H111715   0.873   6.322   2.535 -1.4214 -0.2813 -0.7155
 3917TIP3    H211716   0.746   6.397   2.566 -0.3119  1.3970 -0.0936
 3918TIP3   OH211717   2.283   1.723   4.174 -0.4877  0.2399  0.1896
 3918TIP3    H111718   2.258   1.662   4.244 -0.2189  0.3909  0.4210
 3918TIP3    H211719   2.289   1.669   4.096  1.9937 -0.4993  0.8108
 3919TIP3   OH211720   4.407   3.650   2.778 -0.2544 -0.5896 -0.0141
 3919TIP3    H111721   4.424   3.609   2.694 -0.4663 -0.6045 -0.0507
 3919TIP3    H211722   4.321   3.616   2.805 -0.8123  0.4240 -0.4195
 3920TIP3   OH211723   5.655   2.937   0.600 -0.1629 -0.1628  0.0514
 3920TIP3    H111724   5.642   2.844   0.621 -0.7423 -0.2973 -0.8510
 3920TIP3    H211725   5.749   2.946   0.592 -0.0676 -0.5660  0.6219
 3921TIP3   OH211726   6.318   3.225   3.013  0.2319 -0.4981 -0.3012
 3921TIP3    H111727   6.311   3.320   3.007  0.1744 -0.4744  0.0869
 3921TIP3    H211728   6.413   3.208   3.013  0.2406 -0.4449 -0.4414
 3922TIP3   OH211729   4.028   1.439   3.525 -0.3068  0.0501  0.8541
 3922TIP3    H111730   4.094   1.451   3.592 -0.6241 -1.5620  1.5189
 3922TIP3    H211731   3.958   1.499   3.548 -0.3073 -0.3184  1.8547
 3923TIP3   OH211732   5.913   3.231   1.303  0.4143 -0.0522  0.9762
 3923TIP3    H111733   5.961   3.246   1.222  1.7152  1.0390  1.9207
 3923TIP3    H211734   5.838   3.291   1.299 -1.0867 -1.8909 -0.5835
 3924TIP3   OH211735   6.112   4.296   4.920  0.4305  0.4036  0.1180
 3924TIP3    H111736   6.017   4.291   4.912  0.4638 -0.9939  0.3261
 3924TIP3    H211737   6.144   4.216   4.878  1.6434  1.6387 -1.4803
 3925TIP3   OH211738   0.157   1.661   5.590  0.4819 -0.1576  0.9590
 3925TIP3    H111739   0.185   1.591   5.650  1.2657  0.1981  1.0200
 3925TIP3    H211740   0.071   1.687   5.622 -0.8514 -2.5779 -0.3514
 3926TIP3   OH211741   3.570   1.296   0.025 -0.2558  0.5467  0.2118
 3926TIP3    H111742   3.506   1.318   0.092  1.9047  1.2743  2.1750
 3926TIP3    H211743   3.627   1.231   0.067 -0.1127 -0.6613 -1.7358
 3927TIP3   OH211744   0.703   6.402   5.775 -0.0406  0.0214  0.1208
 3927TIP3    H111745   0.650   6.368   5.847  0.9341  1.8386  1.8036
 3927TIP3    H211746   0.711   6.496   5.794  0.0415  0.6212 -2.5262
 3928TIP3   OH211747   7.030   4.417   2.146 -0.2137 -0.4244  0.1800
 3928TIP3    H111748   7.088   4.343   2.130  0.3960 -0.0522  0.6471
 3928TIP3    H211749   7.019   4.420   2.241  0.4443  0.5901  0.2397
 3929TIP3   OH211750   4.492   1.402   3.956 -0.7769 -0.3918 -0.1822
 3929TIP3    H111751   4.552   1.386   4.029 -0.8631  0.5244  0.1020
 3929TIP3    H211752   4.546   1.399   3.878 -0.6348 -1.1183 -0.0590
 3930TIP3   OH211753   6.749   6.711   0.554 -0.2965 -0.0686 -0.4751
 3930TIP3    H111754   6.838   6.744   0.538  0.1064  0.8299  2.9597
 3930TIP3    H211755   6.694   6.789   0.553 -0.7847 -0.4127 -0.8204
 3931TIP3   OH211756   1.088   3.152   2.714 -0.3067  0.4978 -0.3047
 3931TIP3    H111757   1.134   3.068   2.716 -0.4268  0.4092 -0.9515
 3931TIP3    H211758   1.008   3.136   2.764 -1.3850 -0.4427 -2.2054
 3932TIP3   OH211759   4.394   0.021   2.886  0.3207 -0.3684  0.0444
 3932TIP3    H111760   4.402  -0.066   2.926  0.1378  0.4053  1.8445
 3932TIP3    H211761   4.473   0.068   2.913  1.4367 -0.5601 -2.6037
 3933TIP3   OH211762   6.274   3.338   2.617 -0.1786 -0.4387 -0.3494
 3933TIP3    H111763   6.270   3.259   2.672  0.0175 -1.4526 -1.7378
 3933TIP3    H211764   6.271   3.305   2.527 -0.3859  1.1701 -0.9677
 3934TIP3   OH211765   6.869   1.260   1.927 -0.0868  0.6186  0.0240
 3934TIP3    H111766   6.914   1.179   1.904 -0.9203  0.2369 -0.2928
 3934TIP3    H211767   6.930   1.329   1.900  0.7496  0.1046  0.5613
 3935TIP3   OH211768   0.449   3.130   0.412 -0.4353 -0.0712  0.1795
 3935TIP3    H111769   0.395   3.128   0.491 -0.1185  0.7420  0.4214
 3935TIP3    H211770   0.522   3.072   0.432 -1.8408 -2.3006 -0.6512
 3936TIP3   OH211771   4.915   4.068   5.807 -0.2421  0.6570 -0.0840
 3936TIP3    H111772   4.932   4.021   5.888  3.3144  0.2221 -0.9013
 3936TIP3    H211773   4.916   4.001   5.739  3.8047  1.5410 -1.1408
 3937TIP3   OH211774   2.102   1.439   1.211  0.2060  0.4986  0.0462
 3937TIP3    H111775   2.032   1.414   1.272 -0.5530  0.0046 -1.0006
 3937TIP3    H211776   2.080   1.395   1.130  1.5257  0.6796 -0.4350
 3938TIP3   OH211777   2.177   2.637   2.632 -0.4338 -0.1803 -0.4561
 3938TIP3    H111778   2.202   2.553   2.592  1.8006  0.7268 -1.1147
 3938TIP3    H211779   2.142   2.689   2.559 -1.1147 -0.2601 -0.1939
 3939TIP3   OH211780   5.848   4.140   0.532 -0.2054 -0.0717 -0.0234
 3939TIP3    H111781   5.825   4.049   0.512 -1.6004 -0.4839  2.8704
 3939TIP3    H211782   5.766   4.188   0.522 -0.0749  0.3572  0.8142
 3940TIP3   OH211783   0.790   2.597   3.086  0.0960  0.0028  0.1423
 3940TIP3    H111784   0.870   2.567   3.129 -0.1911  0.7477  1.2571
 3940TIP3    H211785   0.752   2.518   3.049  0.3831 -0.6867  1.2670
 3941TIP3   OH211786   6.262   3.107   1.861 -0.5650  0.4224  0.4119
 3941TIP3    H111787   6.292   3.174   1.922 -2.8990  1.4773  0.5130
 3941TIP3    H211788   6.177   3.079   1.896  0.2766 -2.5969  0.3424
 3942TIP3   OH211789   5.513   5.444   4.992  0.0636 -0.1724 -0.3424
 3942TIP3    H111790   5.549   5.526   4.959 -0.3092 -0.0398 -0.4320
 3942TIP3    H211791   5.491   5.463   5.083  0.1147 -0.2178 -0.3210
 3943TIP3   OH211792   1.778   0.042   5.673  0.0460 -0.2692  0.1676
 3943TIP3    H111793   1.756   0.107   5.740  1.1619 -1.3339  1.6248
 3943TIP3    H211794   1.795   0.094   5.594  4.2280  1.6477  2.0527
 3944TIP3   OH211795   6.764   2.721   5.528  0.1633 -0.4000 -0.0339
 3944TIP3    H111796   6.833   2.773   5.570 -0.4774 -0.0530  0.6171
 3944TIP3    H211797   6.712   2.687   5.601 -1.1927  0.5219 -0.5201
 3945TIP3   OH211798   6.605   0.212   3.055 -0.4098  0.5256 -0.3860
 3945TIP3    H111799   6.694   0.227   3.023  1.3374 -2.3585  2.4125
 3945TIP3    H211800   6.570   0.144   2.998 -0.1009  0.3749 -0.3980
 3946TIP3   OH211801   0.637   6.731   2.967  0.2790  0.1851  0.1643
 3946TIP3    H111802   0.646   6.719   2.872  1.1206 -2.1985  0.4586
 3946TIP3    H211803   0.659   6.823   2.981  2.6214  0.0535 -1.7381
 3947TIP3   OH211804   2.230   1.087   3.216 -0.0174 -0.3342 -0.5257
 3947TIP3    H111805   2.261   1.043   3.137 -0.7460 -0.4487 -0.7541
 3947TIP3    H211806   2.239   1.022   3.285 -1.4610 -1.0094 -0.9318
 3948TIP3   OH211807   7.011   2.812   2.572  0.2100 -0.3548  0.2814
 3948TIP3    H111808   7.072   2.808   2.498 -1.9831 -2.5929 -1.5521
 3948TIP3    H211809   6.969   2.898   2.563  0.7464 -0.1508 -0.4033
 3949TIP3   OH211810   6.432   5.192   0.364 -0.1918  0.0309 -0.6624
 3949TIP3    H111811   6.362   5.238   0.410  0.2314 -0.3132  0.3538
 3949TIP3    H211812   6.513   5.229   0.399  0.2433 -2.7165  1.6771
 3950TIP3   OH211813   4.307   2.813   1.980 -0.6148  0.4434  0.2183
 3950TIP3    H111814   4.219   2.775   1.985 -0.1053 -0.8950 -0.6280
 3950TIP3    H211815   4.359   2.762   2.041 -0.7794  2.4195  2.1282
 3951TIP3   OH211816   7.115   5.996   3.842 -0.6608 -0.3257  0.0306
 3951TIP3    H111817   7.200   6.028   3.872 -0.6920  0.8040 -0.9961
 3951TIP3    H211818   7.135   5.916   3.794 -0.2586 -0.4252  0.3586
 3952TIP3   OH211819   5.842   4.246   5.534 -0.7318 -0.0307 -0.0446
 3952TIP3    H111820   5.749   4.221   5.534 -1.0241  0.9904 -0.5338
 3952TIP3    H211821   5.840   4.341   5.527  0.3646 -0.0189 -0.2621
 3953TIP3   OH211822   1.864   3.895   3.452 -0.0385 -0.3511  0.6412
 3953TIP3    H111823   1.778   3.936   3.463 -0.6446 -1.8924  2.1351
 3953TIP3    H211824   1.850   3.826   3.388 -0.2565 -1.4091  1.7897
 3954TIP3   OH211825   2.180   0.219   2.628  1.2396  0.2652  0.0043
 3954TIP3    H111826   2.167   0.313   2.628  0.9178  0.2208 -0.0206
 3954TIP3    H211827   2.228   0.201   2.547  1.9255  0.4881  0.3472
 3955TIP3   OH211828   3.096   1.181   0.722 -0.0477 -0.4877  0.1366
 3955TIP3    H111829   3.106   1.218   0.634  0.5456  0.2792  0.5207
 3955TIP3    H211830   3.029   1.236   0.763 -1.1905 -1.5713 -0.2178
 3956TIP3   OH211831   1.898   6.093   3.348 -0.1614 -0.2413 -0.1230
 3956TIP3    H111832   1.933   6.049   3.426 -0.8820  2.5915  1.9642
 3956TIP3    H211833   1.971   6.144   3.314 -0.1574 -0.5839 -0.6403
 3957TIP3   OH211834   2.270   5.604   2.904 -0.5068 -0.0680 -0.6744
 3957TIP3    H111835   2.256   5.694   2.934 -0.0720  0.0176 -0.7200
 3957TIP3    H211836   2.364   5.590   2.913 -0.8514 -1.3389  1.5982
 3958TIP3   OH211837   5.350   2.695   0.862  0.4326  0.1824 -0.3465
 3958TIP3    H111838   5.347   2.665   0.771  1.4695 -4.0866  0.7860
 3958TIP3    H211839   5.273   2.656   0.903  0.9729  0.4608  0.9813
 3959TIP3   OH211840   1.425   5.060   1.900 -0.3350  0.0474  0.0079
 3959TIP3    H111841   1.382   4.981   1.867  0.0155 -0.3388  0.4636
 3959TIP3    H211842   1.356   5.107   1.947 -0.3045 -0.5129  0.6363
 3960TIP3   OH211843   4.138   6.119   4.781  0.0553  0.5332  0.2125
 3960TIP3    H111844   4.183   6.116   4.866  1.5676  2.4878 -0.4371
 3960TIP3    H211845   4.126   6.213   4.764  1.6788  0.3097 -2.6474
 3961TIP3   OH211846   4.272   1.965   3.358 -0.4061 -0.3378 -0.0003
 3961TIP3    H111847   4.207   1.980   3.426 -1.0146 -0.6037 -0.5060
 3961TIP3    H211848   4.223   1.921   3.288  0.2524 -0.2690 -0.5133
 3962TIP3   OH211849   6.789   4.541   0.301  0.2168 -0.1092 -0.0579
 3962TIP3    H111850   6.747   4.599   0.366  0.9343  1.0080 -0.5618
 3962TIP3    H211851   6.757   4.454   0.324 -0.1598  0.3506  1.3223
 3963TIP3   OH211852   4.486   1.995   2.399  0.1885  0.5384  0.4329
 3963TIP3    H111853   4.401   1.951   2.388  0.7642 -0.3903 -0.5291
 3963TIP3    H211854   4.501   2.038   2.315  1.8274 -1.4463 -0.3599
 3964TIP3   OH211855   1.195   6.566   5.300 -0.1394 -0.3399 -0.0870
 3964TIP3    H111856   1.271   6.602   5.345 -0.0678 -2.0589  1.2833
 3964TIP3    H211857   1.148   6.517   5.367 -3.0711  1.4834 -0.6229
 3965TIP3   OH211858   6.273   6.355   4.118  0.4716 -0.7227 -0.8495
 3965TIP3    H111859   6.237   6.330   4.033  1.4424 -4.3002 -0.3764
 3965TIP3    H211860   6.368   6.349   4.106  0.6395 -0.3773  0.2309
 3966TIP3   OH211861   2.505   4.392   3.960  0.7505 -0.6496 -0.1686
 3966TIP3    H111862   2.591   4.351   3.970  1.1620  0.5534  1.5970
 3966TIP3    H211863   2.478   4.412   4.049  0.9164  3.5572 -0.8801
 3967TIP3   OH211864   3.067   1.661   2.261  0.1899  0.2454  0.2710
 3967TIP3    H111865   3.116   1.604   2.203 -0.0669  1.2794 -1.0062
 3967TIP3    H211866   3.041   1.605   2.334 -0.3802 -1.3609 -1.1226
 3968TIP3   OH211867   1.102   3.835   4.049  0.3142 -1.0057 -0.2651
 3968TIP3    H111868   1.170   3.799   3.992  0.5670 -0.0204 -0.6085
 3968TIP3    H211869   1.116   3.792   4.133  0.5597 -1.7468 -0.6810
 3969TIP3   OH211870   0.723   3.064   2.645 -0.5031  1.0288 -0.5351
 3969TIP3    H111871   0.706   3.029   2.733  1.7284  0.0941 -0.4096
 3969TIP3    H211872   0.804   3.021   2.618  0.1332  3.0921 -2.0905
 3970TIP3   OH211873   1.680   0.172   3.199  0.0800 -0.7539  0.3316
 3970TIP3    H111874   1.709   0.081   3.193 -0.2179 -0.8020 -0.5366
 3970TIP3    H211875   1.604   0.169   3.257 -0.4473 -1.1896 -0.3705
 3971TIP3   OH211876   0.665   0.464   5.205  0.3300  0.8184  0.5018
 3971TIP3    H111877   0.579   0.464   5.246 -0.5706  1.5066 -1.2486
 3971TIP3    H211878   0.674   0.552   5.168  0.4661 -0.1100 -1.8576
 3972TIP3   OH211879   1.244   2.737   4.215 -0.7335  0.0165 -0.1167
 3972TIP3    H111880   1.256   2.830   4.238 -0.4476  0.0997 -0.5859
 3972TIP3    H211881   1.333   2.704   4.203 -0.8766  0.1155 -1.6287
 3973TIP3   OH211882   5.727   6.508   5.699  0.0548 -0.0755 -0.0118
 3973TIP3    H111883   5.817   6.527   5.673  0.3155 -1.5772 -0.2920
 3973TIP3    H211884   5.678   6.505   5.617  0.1114 -1.0110 -0.0179
 3974TIP3   OH211885   0.504   2.901   3.290 -0.5251  0.3121 -0.5664
 3974TIP3    H111886   0.415   2.903   3.325 -0.2464  1.2190  0.1123
 3974TIP3    H211887   0.549   2.973   3.333  0.9983 -1.0875  0.2994
 3975TIP3   OH211888   4.237   3.468   1.177  0.0514  0.0017  0.3706
 3975TIP3    H111889   4.332   3.461   1.163 -0.1841 -0.5783 -1.0763
 3975TIP3    H211890   4.223   3.425   1.261  1.0354 -0.1600  0.4697
 3976TIP3   OH211891   4.018   5.909   3.665  0.2950 -0.0618  0.3670
 3976TIP3    H111892   3.986   5.921   3.754  1.1978 -0.5234  0.7650
 3976TIP3    H211893   4.111   5.935   3.669  0.0406  1.1209 -0.7166
 3977TIP3   OH211894   0.577   5.129   5.231 -0.3005  0.0897 -0.1934
 3977TIP3    H111895   0.559   5.113   5.324 -1.1312  0.4590 -0.2822
 3977TIP3    H211896   0.592   5.223   5.225 -2.1816  0.3938 -0.7163
 3978TIP3   OH211897   5.534   5.006   5.043  0.4003  0.0352  0.1442
 3978TIP3    H111898   5.465   5.048   5.093  0.6231  0.4074  0.1389
 3978TIP3    H211899   5.536   4.916   5.075 -1.6458 -0.6614 -1.4276
 3979TIP3   OH211900   6.332   4.526   3.701  0.2329 -0.0671  0.6576
 3979TIP3    H111901   6.295   4.469   3.634 -0.9893  0.5843  0.7384
 3979TIP3    H211902   6.282   4.506   3.780  0.6647  0.1991  1.0025
 3980TIP3   OH211903   6.993   3.056   1.611 -0.1146  0.3202  0.3847
 3980TIP3    H111904   6.973   2.975   1.658 -0.7504 -0.3138 -0.9134
 3980TIP3    H211905   7.076   3.037   1.566 -0.9993 -0.2173 -1.1288
 3981TIP3   OH211906   1.534   2.498   4.537 -0.5134  0.4572 -0.7255
 3981TIP3    H111907   1.556   2.472   4.447 -0.6579 -1.1927 -0.3183
 3981TIP3    H211908   1.552   2.592   4.540 -0.6037  0.5719 -2.5062
 3982TIP3   OH211909   6.865   5.338   3.564  0.2477 -0.6597 -0.1896
 3982TIP3    H111910   6.878   5.430   3.589 -0.3608 -0.4402 -0.6561
 3982TIP3    H211911   6.792   5.309   3.619  0.9313 -1.1035  0.5129
 3983TIP3   OH211912   5.748   5.550   4.580 -0.2226  0.0991 -0.2953
 3983TIP3    H111913   5.796   5.468   4.587 -0.8569 -0.1566  1.4675
 3983TIP3    H211914   5.798   5.601   4.516  0.4620 -1.4373 -1.0436
 3984TIP3   OH211915   1.920   1.963   4.466  0.2121  0.3338 -0.4392
 3984TIP3    H111916   2.006   1.977   4.428 -0.2507 -0.1295 -1.7212
 3984TIP3    H211917   1.918   1.869   4.487  0.2538  0.4735  0.2031
 3985TIP3   OH211918   4.643   4.551   2.900  0.4202 -0.0077 -0.3593
 3985TIP3    H111919   4.671   4.559   2.991  0.2841  1.0224 -0.4025
 3985TIP3    H211920   4.716   4.507   2.856  0.9905  0.5613  0.0061
 3986TIP3   OH211921   3.063   2.611   4.026 -0.1845  0.2048 -0.4623
 3986TIP3    H111922   3.017   2.620   3.943 -1.4716  1.1488  0.3111
 3986TIP3    H211923   3.047   2.520   4.053 -2.3450  0.7339  0.1783
 3987TIP3   OH211924   5.987   1.286   2.870 -0.9374 -0.3224 -0.5897
 3987TIP3    H111925   5.927   1.323   2.806 -1.4077  0.0250  0.0397
 3987TIP3    H211926   5.996   1.354   2.937 -0.8845 -0.8829 -0.0139
 3988TIP3   OH211927   0.939   1.676   1.232 -0.5786  0.7873  0.3240
 3988TIP3    H111928   1.021   1.715   1.202  0.3541 -1.3577 -0.0611
 3988TIP3    H211929   0.954   1.659   1.325 -0.4464  0.0583  0.1694
 3989TIP3   OH211930   3.366   3.206   1.386  0.3404  0.1937  0.2068
 3989TIP3    H111931   3.290   3.148   1.375  0.1612  0.7288 -1.5285
 3989TIP3    H211932   3.329   3.287   1.420  0.1242  0.4475 -0.6189
 3990TIP3   OH211933   4.146   0.043   0.871  0.1712 -0.0476  0.5517
 3990TIP3    H111934   4.056   0.057   0.900  0.5819  0.9408  1.4052
 3990TIP3    H211935   4.137   0.011   0.781 -1.0123  0.9341  0.2880
 3991TIP3   OH211936   2.575   4.995   0.905 -0.3130  0.3850 -0.3334
 3991TIP3    H111937   2.500   5.011   0.962  0.3348 -0.9530  0.9501
 3991TIP3    H211938   2.557   4.910   0.865  0.1339  0.4345 -0.6449
 3992TIP3   OH211939   4.999   4.995   1.054  0.2837 -0.0470  0.6895
 3992TIP3    H111940   5.082   5.018   1.097  0.0072 -0.2969  1.3673
 3992TIP3    H211941   5.024   4.972   0.965  0.7937  1.0961  0.5254
 3993TIP3   OH211942   7.215   4.177   3.625 -0.1915  0.1561 -0.7120
 3993TIP3    H111943   7.212   4.180   3.721  0.4008 -2.4564 -0.5430
 3993TIP3    H211944   7.123   4.167   3.599 -0.5387  2.4973 -0.5684
 3994TIP3   OH211945   3.244   0.947   4.906 -0.1621 -0.0684  0.0005
 3994TIP3    H111946   3.314   1.012   4.901  0.8267 -1.0804  0.4482
 3994TIP3    H211947   3.219   0.946   4.998 -1.8350  1.3581 -0.3845
 3995TIP3   OH211948   2.613   3.502   4.934  0.1093 -0.1438 -0.0038
 3995TIP3    H111949   2.654   3.476   4.852 -0.1230  1.4408 -0.6564
 3995TIP3    H211950   2.683   3.499   4.999  0.4389 -0.7861 -0.3804
 3996TIP3   OH211951   1.546   6.048   5.388 -0.7039 -0.0317  0.3434
 3996TIP3    H111952   1.557   6.100   5.468 -0.6751 -0.6093  0.7237
 3996TIP3    H211953   1.467   5.997   5.404 -0.6563 -0.2043  0.0290
 3997TIP3   OH211954   5.153   1.927   0.418  0.2648 -0.5658 -0.1760
 3997TIP3    H111955   5.201   1.925   0.336  2.0486  0.4434  0.7858
 3997TIP3    H211956   5.183   1.850   0.466  1.7693  0.5929  0.8346
 3998TIP3   OH211957   1.603   6.255   5.090 -0.1628 -0.0841  0.5967
 3998TIP3    H111958   1.569   6.166   5.089 -1.0538  0.2328  1.1758
 3998TIP3    H211959   1.531   6.309   5.058  0.6140  0.3616 -0.4529
 3999TIP3   OH211960   2.681   1.896   5.459 -0.4841  0.2121 -0.0136
 3999TIP3    H111961   2.663   1.902   5.365  1.3514 -0.4066 -0.4526
 3999TIP3    H211962   2.627   1.823   5.490 -1.5471  0.8001 -0.4500
 4000TIP3   OH211963   3.543   3.258   2.332  0.1760  0.1293  0.2735
 4000TIP3    H111964   3.556   3.308   2.252  1.9958 -2.8988 -1.5288
 4000TIP3    H211965   3.451   3.231   2.330  0.1946  0.1050 -0.8179
 4001TIP3   OH211966   3.275   3.986   0.805 -0.0555  0.3366  0.0739
 4001TIP3    H111967   3.309   4.050   0.868  0.4945  0.5446 -0.4220
 4001TIP3    H211968   3.181   3.982   0.824 -0.1491  1.4873 -0.0478
 4002TIP3   OH211969   2.108   5.394   0.127  0.0180 -0.0543 -0.1231
 4002TIP3    H111970   2.055   5.385   0.206 -0.8756  0.0992 -0.6991
 4002TIP3    H211971   2.190   5.434   0.158 -0.3208  0.0033  0.7239
 4003TIP3   OH211972   3.318   6.588   2.783  0.2293 -0.0352 -0.1512
 4003TIP3    H111973   3.267   6.658   2.825  1.2106 -0.2228  1.4137
 4003TIP3    H211974   3.382   6.561   2.848  0.3130 -1.9725 -0.9391
 4004TIP3   OH211975   4.302   5.648   2.520  0.2471  0.5727  0.3036
 4004TIP3    H111976   4.388   5.631   2.559 -0.1123 -0.6194  0.6101
 4004TIP3    H211977   4.250   5.684   2.592  0.4923  1.3540  0.1021
 4005TIP3   OH211978   6.485   0.799   3.232  0.0859 -0.1801 -0.6638
 4005TIP3    H111979   6.484   0.893   3.214  0.9502 -0.2072 -0.9369
 4005TIP3    H211980   6.570   0.785   3.273 -1.1000 -0.4261  1.8337
 4006TIP3   OH211981   3.970   4.338   5.426  0.3685 -0.8575 -0.6014
 4006TIP3    H111982   4.042   4.399   5.441 -0.5052  0.0377  0.0810
 4006TIP3    H211983   3.998   4.256   5.467  0.2907 -0.0111  1.2210
 4007TIP3   OH211984   4.916   4.557   0.456 -0.5713  0.6055 -1.1058
 4007TIP3    H111985   4.894   4.622   0.389 -0.0315 -0.0488 -1.9465
 4007TIP3    H211986   5.011   4.547   0.449 -0.7537 -1.0064 -1.7150
 4008TIP3   OH211987   1.431   2.367   4.792 -0.5677  0.0545  0.0788
 4008TIP3    H111988   1.442   2.272   4.791 -0.8662  0.0237 -1.1755
 4008TIP3    H211989   1.458   2.396   4.705 -1.7767  0.9629 -0.0242
 4009TIP3   OH211990   6.248   0.316   5.274 -0.7853  0.7052 -0.5790
 4009TIP3    H111991   6.192   0.331   5.198  0.6214  0.9862 -1.5854
 4009TIP3    H211992   6.219   0.231   5.308 -1.0343  0.2790 -1.7952
 4010TIP3   OH211993   0.127   2.329   4.562 -0.1315 -0.1556  0.1676
 4010TIP3    H111994   0.217   2.362   4.554 -0.0610 -0.3779  0.0361
 4010TIP3    H211995   0.074   2.407   4.575  0.2571 -0.1386  1.7871
 4011TIP3   OH211996   0.472   5.636   1.208  0.8242  0.1971 -0.1672
 4011TIP3    H111997   0.482   5.670   1.297  0.2779  1.2355 -0.4837
 4011TIP3    H211998   0.456   5.542   1.219  1.2355  0.2329  0.7947
 4012TIP3   OH211999   6.149   3.355   3.438 -0.2536 -0.6058 -0.2950
 4012TIP3    H112000   6.134   3.321   3.350  2.7345 -2.8572 -0.0882
 4012TIP3    H212001   6.225   3.412   3.431  0.1328 -0.9419  0.8045
 4013TIP3   OH212002   6.239   3.351   5.654 -0.2003 -0.7201  0.3997
 4013TIP3    H112003   6.268   3.411   5.723 -0.3055 -0.7256  0.4500
 4013TIP3    H212004   6.295   3.371   5.579 -0.0903 -0.7094  0.4849
 4014TIP3   OH212005   4.201   4.652   2.916 -0.0935 -0.0748  0.7590
 4014TIP3    H112006   4.163   4.725   2.867  0.3003 -1.1276 -1.2253
 4014TIP3    H212007   4.295   4.668   2.915  0.0694 -0.9657 -0.3824
 4015TIP3   OH212008   0.720   2.556   4.930 -0.2281 -0.1037  0.6896
 4015TIP3    H112009   0.625   2.557   4.945 -0.1445  0.2367  1.2375
 4015TIP3    H212010   0.729   2.531   4.839 -0.8240 -0.7680  0.8033
 4016TIP3   OH212011   3.849   5.950   5.172 -0.4047 -0.1380  0.0162
 4016TIP3    H112012   3.783   5.883   5.188  0.0036 -0.3494  0.8684
 4016TIP3    H212013   3.870   5.941   5.079 -0.7333 -0.8413  0.0033
 4017TIP3   OH212014   1.498   1.223   3.113  0.0527  0.0715 -0.3206
 4017TIP3    H112015   1.479   1.302   3.062  1.9733  1.0471  0.3819
 4017TIP3    H212016   1.530   1.160   3.048  0.2743  0.5038 -0.6338
 4018TIP3   OH212017   3.384   1.775   4.148 -0.3722  0.2149  0.3507
 4018TIP3    H112018   3.309   1.826   4.119 -1.2348 -0.4497  1.3458
 4018TIP3    H212019   3.349   1.715   4.214  1.1633  0.4341  1.4461
 4019TIP3   OH212020   2.349   6.737   0.370 -0.2708 -0.0965 -0.0298
 4019TIP3    H112021   2.261   6.706   0.393  0.2021 -0.8501  0.8160
 4019TIP3    H212022   2.334   6.824   0.333 -1.6265 -1.1844 -2.2618
 4020TIP3   OH212023   6.035   6.083   2.227  0.0621 -0.0061 -0.0844
 4020TIP3    H112024   5.981   6.111   2.153  0.2032  1.8073  0.4516
 4020TIP3    H212025   6.119   6.058   2.187 -1.0054 -2.6298 -0.8958
 4021TIP3   OH212026   0.769   2.915   4.612 -0.0130  0.2506  0.1127
 4021TIP3    H112027   0.702   2.852   4.586 -1.4739  1.5869  0.4480
 4021TIP3    H212028   0.731   3.000   4.591  0.7509  1.1616  2.0959
 4022TIP3   OH212029   4.158   4.415   4.907 -0.0831 -0.4064 -0.7135
 4022TIP3    H112030   4.247   4.400   4.940 -0.1034 -2.1788 -1.3581
 4022TIP3    H212031   4.168   4.419   4.812 -0.7192 -0.9053 -0.8100
 4023TIP3   OH212032   7.064   2.091   3.003 -0.0206  0.1656  0.2045
 4023TIP3    H112033   7.052   2.002   3.036 -1.1060  0.3862  0.4255
 4023TIP3    H212034   7.156   2.111   3.022  0.2395 -0.8979  0.1441
 4024TIP3   OH212035   5.705   6.809   4.591 -0.5599 -0.0225  0.3647
 4024TIP3    H112036   5.632   6.778   4.538 -1.8456  1.1734  1.3335
 4024TIP3    H212037   5.784   6.785   4.542 -1.6250 -0.8622 -0.9805
 4025TIP3   OH212038   1.155   3.526   5.668 -0.3273  0.3706  0.4458
 4025TIP3    H112039   1.133   3.462   5.736 -0.9221  0.9896  0.8513
 4025TIP3    H212040   1.223   3.484   5.616 -1.4745 -1.0298  0.0273
 4026TIP3   OH212041   4.391   4.923   0.085  0.7366  0.1389  0.0882
 4026TIP3    H112042   4.387   4.999   0.026  0.5350 -1.3483 -1.9101
 4026TIP3    H212043   4.334   4.858   0.043  2.8471 -2.0016  0.3957
 4027TIP3   OH212044   6.257   1.172   1.959  0.8146  0.1612  0.2722
 4027TIP3    H112045   6.313   1.189   2.034  0.1575  0.3927  0.7157
 4027TIP3    H212046   6.205   1.251   1.949  0.1030 -0.2964  0.2753
 4028TIP3   OH212047   0.627   2.770   1.684  0.1808 -0.1568  0.3647
 4028TIP3    H112048   0.538   2.783   1.716  0.2558  3.4053 -0.4048
 4028TIP3    H212049   0.683   2.785   1.760  0.2213 -2.1435  0.7892
 4029TIP3   OH212050   2.889   0.167   2.700  0.0277  0.2748 -0.3156
 4029TIP3    H112051   2.929   0.253   2.712 -0.1509  0.3400 -0.1956
 4029TIP3    H212052   2.887   0.128   2.787 -1.3543  0.7880 -0.1000
 4030TIP3   OH212053   1.282   2.255   4.535  0.7339 -0.2289 -0.2226
 4030TIP3    H112054   1.254   2.170   4.568  0.6117 -0.2543 -0.3920
 4030TIP3    H212055   1.354   2.235   4.474 -0.2489 -0.3376 -1.3903
 4031TIP3   OH212056   3.133   1.924   4.105 -0.0672 -0.2300 -0.0302
 4031TIP3    H112057   3.066   1.896   4.167 -1.0855  1.5729 -0.2372
 4031TIP3    H212058   3.084   1.964   4.033  1.1584 -0.9278 -1.2845
 4032TIP3   OH212059   1.574   0.308   5.614 -0.1699  0.3841  0.1634
 4032TIP3    H112060   1.551   0.309   5.521  0.4803 -1.1501 -0.0447
 4032TIP3    H212061   1.650   0.366   5.620  0.6194 -0.5262 -0.5358
 4033TIP3   OH212062   2.923   1.998   3.912 -0.3035  0.1425 -0.4046
 4033TIP3    H112063   2.836   2.030   3.936 -0.4628 -1.4932  1.4420
 4033TIP3    H212064   2.907   1.940   3.837 -0.7223  0.3096 -0.4504
 4034TIP3   OH212065   1.156   2.568   1.089 -0.4465  0.0858  0.2556
 4034TIP3    H112066   1.096   2.621   1.037 -2.5181 -1.3709  1.0323
 4034TIP3    H212067   1.174   2.621   1.166 -0.7975  0.5113  0.0493
 4035TIP3   OH212068   1.830   5.803   3.376  0.1633 -0.1779  0.3680
 4035TIP3    H112069   1.792   5.715   3.385  0.0380 -0.2050 -0.3963
 4035TIP3    H212070   1.783   5.855   3.441 -0.7093 -0.3717 -0.0850
 4036TIP3   OH212071   0.116   1.454   0.838  0.3473 -0.2023 -0.0239
 4036TIP3    H112072   0.141   1.436   0.747  1.8262 -0.9292  0.4930
 4036TIP3    H212073   0.033   1.408   0.849 -0.1298  0.3482 -1.1469
 4037TIP3   OH212074   0.116   2.073   3.053 -0.5515  0.5871  0.9371
 4037TIP3    H112075   0.130   2.036   3.141 -2.9223 -0.8455  0.8159
 4037TIP3    H212076   0.186   2.137   3.042  0.7364 -0.3056  3.2479
 4038TIP3   OH212077   4.654   4.323   0.392 -0.0249  0.5643 -0.2299
 4038TIP3    H112078   4.593   4.264   0.348 -0.8980  1.6835 -0.5563
 4038TIP3    H212079   4.731   4.326   0.335  1.3391 -2.5337  1.2001
 4039TIP3   OH212080   7.147   3.699   2.064 -0.1555  0.1996 -0.8810
 4039TIP3    H112081   7.090   3.641   2.013 -0.0923 -0.3818 -0.3023
 4039TIP3    H212082   7.095   3.779   2.074  1.1620  1.7976 -4.8952
 4040TIP3   OH212083   3.044   2.500   0.513 -0.5149  0.0160 -0.4888
 4040TIP3    H112084   2.998   2.509   0.430 -0.4600  0.0885 -0.5102
 4040TIP3    H212085   3.136   2.515   0.493 -0.6525  1.3496 -0.1814
 4041TIP3   OH212086   7.181   5.930   2.663  0.2796  0.1046  0.2656
 4041TIP3    H112087   7.093   5.940   2.699  0.1422 -0.3030  0.0589
 4041TIP3    H212088   7.223   5.868   2.722 -0.0352 -0.7754 -0.4100
 4042TIP3   OH212089   7.127   0.867   0.634 -0.1294 -0.0593  0.0675
 4042TIP3    H112090   7.076   0.787   0.618  0.4854 -0.0373 -2.4936
 4042TIP3    H212091   7.216   0.843   0.609 -0.2028  1.8027 -2.3741
 4043TIP3   OH212092   3.875   3.772   3.287 -0.0446  0.3975 -0.0900
 4043TIP3    H112093   3.879   3.801   3.378 -0.9279  0.9750 -0.2215
 4043TIP3    H212094   3.930   3.835   3.240  0.1958  0.2586  0.0028
 4044TIP3   OH212095   1.924   3.672   3.188  0.7091  0.2794 -0.4503
 4044TIP3    H112096   1.900   3.698   3.099  1.1697  1.2325 -0.3177
 4044TIP3    H212097   2.002   3.617   3.177 -0.1457 -0.9136 -0.7251
 4045TIP3   OH212098   2.773   6.049   0.550 -0.3426  0.3872  0.0676
 4045TIP3    H112099   2.790   6.142   0.567  0.1135  0.5537 -1.2100
 4045TIP3    H212100   2.840   6.003   0.601  0.6066  0.8404 -0.7533
 4046TIP3   OH212101   2.295   2.163   3.373  0.3135 -0.5855  0.5556
 4046TIP3    H112102   2.264   2.235   3.428 -0.9825 -1.1754  0.6195
 4046TIP3    H212103   2.260   2.182   3.286  1.5626 -0.1598  0.1263
 4047TIP3   OH212104   5.394   0.909   2.325  0.3500 -0.0499 -0.1697
 4047TIP3    H112105   5.444   0.962   2.263  1.1871  1.0618  1.3827
 4047TIP3    H212106   5.303   0.918   2.296  0.7334  0.2551 -1.3484
 4048TIP3   OH212107   6.683   5.548   4.392 -0.2545 -0.0334  1.0264
 4048TIP3    H112108   6.736   5.605   4.337 -0.4874 -1.7385 -1.1004
 4048TIP3    H212109   6.596   5.550   4.352 -0.5580 -1.0088  1.6020
 4049TIP3   OH212110   0.566   4.633   2.285 -0.3312  0.2618 -0.1103
 4049TIP3    H112111   0.484   4.659   2.327 -0.0982  1.0335 -0.1137
 4049TIP3    H212112   0.625   4.708   2.299  0.8484 -0.8490  1.1618
 4050TIP3   OH212113   6.120   6.518   2.355  0.2551  0.6856 -0.1363
 4050TIP3    H112114   6.034   6.536   2.394 -0.3388 -2.2659  0.2018
 4050TIP3    H212115   6.165   6.465   2.421  0.7084 -1.2512 -1.9035
 4051TIP3   OH212116   2.853   4.015   5.175  0.0015  0.2035 -0.7355
 4051TIP3    H112117   2.884   3.947   5.235 -0.1589  0.2011 -0.6568
 4051TIP3    H212118   2.776   3.978   5.133 -0.5514  0.6342 -0.1158
 4052TIP3   OH212119   1.343   2.414   2.864 -0.1108  0.3256 -0.6447
 4052TIP3    H112120   1.377   2.489   2.911  0.8664  0.5307 -1.6423
 4052TIP3    H212121   1.279   2.451   2.803 -0.7115  0.1611 -0.1326
 4053TIP3   OH212122   3.087   1.616   0.056  0.0312  0.0270 -0.1534
 4053TIP3    H112123   3.004   1.657   0.030 -0.0681 -1.8818 -3.3952
 4053TIP3    H212124   3.153   1.684   0.041 -0.5593  0.3384 -1.5226
 4054TIP3   OH212125   2.271   6.046   4.729  0.5257 -0.4712  0.3726
 4054TIP3    H112126   2.243   5.961   4.695  0.0388  0.6062 -2.1060
 4054TIP3    H212127   2.199   6.106   4.708  1.7555  0.9751  0.1154
 4055TIP3   OH212128   2.038   6.233   3.827 -0.0943  0.3504  0.1989
 4055TIP3    H112129   2.012   6.201   3.913 -1.5259  0.3057 -0.2282
 4055TIP3    H212130   2.134   6.232   3.829 -0.0733  1.1509  2.0788
 4056TIP3   OH212131   5.580   4.688   5.536  0.1240 -0.1760  0.1751
 4056TIP3    H112132   5.592   4.779   5.565  1.5885  0.3718 -1.9482
 4056TIP3    H212133   5.492   4.665   5.566 -1.3252  2.8135 -1.3549
 4057TIP3   OH212134   4.368   2.322   0.725 -0.4074  0.0931 -0.1542
 4057TIP3    H112135   4.448   2.269   0.732 -0.8763 -0.5022  0.7562
 4057TIP3    H212136   4.352   2.355   0.813 -1.8831 -0.8487 -0.0375
 4058TIP3   OH212137   4.532   1.357   0.174 -0.5456  0.1951 -0.4422
 4058TIP3    H112138   4.610   1.410   0.191  0.1403 -0.4655 -1.4414
 4058TIP3    H212139   4.460   1.406   0.214  0.4112  0.6700  0.7628
 4059TIP3   OH212140   5.618   3.517   5.843  0.1293  0.5624 -0.0812
 4059TIP3    H112141   5.678   3.559   5.904 -0.4402  3.5522 -1.3781
 4059TIP3    H212142   5.533   3.522   5.886  0.2568 -0.5111  0.3102
 4060TIP3   OH212143   0.488   1.674   5.129 -0.6175 -0.3192  0.8737
 4060TIP3    H112144   0.576   1.688   5.163 -0.6290  0.3816  0.6354
 4060TIP3    H212145   0.500   1.660   5.035 -0.7149 -0.7655  0.9253
 4061TIP3   OH212146   2.364   1.355   4.418 -0.1679  0.3973 -0.5365
 4061TIP3    H112147   2.448   1.350   4.372  0.6742  0.3994  0.9334
 4061TIP3    H212148   2.357   1.271   4.463 -0.7084  0.6049 -0.2302
 4062TIP3   OH212149   7.183   2.519   3.307  0.2015  0.1933 -0.2121
 4062TIP3    H112150   7.190   2.425   3.322  1.1132  0.0300 -1.4993
 4062TIP3    H212151   7.239   2.559   3.374  0.9247 -0.2692 -0.5323
 4063TIP3   OH212152   6.070   3.481   0.043 -0.1471  0.3956 -0.6016
 4063TIP3    H112153   6.038   3.542  -0.023  1.4854  2.4697  0.4089
 4063TIP3    H212154   6.165   3.493   0.042 -0.0186 -0.0609  1.5684
 4064TIP3   OH212155   0.241   2.365   0.993  0.0397 -0.4278 -0.4282
 4064TIP3    H112156   0.297   2.289   0.979  0.4018 -0.4307  0.9661
 4064TIP3    H212157   0.169   2.332   1.047 -0.4503 -0.0497 -0.8404
 4065TIP3   OH212158   2.529   3.111   1.938 -0.1281 -0.1873  0.3627
 4065TIP3    H112159   2.487   3.140   2.019 -0.9412  0.3151 -0.2165
 4065TIP3    H212160   2.620   3.140   1.946 -0.7573  2.0894  0.0591
 4066TIP3   OH212161   4.782   4.470   3.599  0.6780  0.1629 -0.0107
 4066TIP3    H112162   4.826   4.549   3.632  0.8757 -0.4043  1.1144
 4066TIP3    H212163   4.780   4.411   3.673 -0.7401 -0.3718 -0.4514
 4067TIP3   OH212164   6.198   2.750   0.463 -0.1425  0.2147 -0.0440
 4067TIP3    H112165   6.234   2.689   0.527 -0.1324 -1.5703 -1.6464
 4067TIP3    H212166   6.224   2.714   0.378 -0.1571  2.4781 -1.0811
 4068TIP3   OH212167   1.147   6.733   4.124 -0.2382 -0.0007 -0.3270
 4068TIP3    H112168   1.060   6.715   4.088  0.0733  0.0924 -1.1363
 4068TIP3    H212169   1.197   6.652   4.108 -0.1774 -0.0639  0.1591
 4069TIP3   OH212170   6.381   2.840   2.370  0.1588 -0.1893  0.3725
 4069TIP3    H112171   6.369   2.899   2.296  0.0580 -2.0216 -1.1715
 4069TIP3    H212172   6.294   2.806   2.388  0.0205  0.9207  2.0005
 4070TIP3   OH212173   4.282   2.248   2.324 -0.0300 -0.0496 -0.0410
 4070TIP3    H112174   4.325   2.332   2.341 -0.3282 -0.1358  1.2830
 4070TIP3    H212175   4.327   2.212   2.248  0.9085  0.7656  0.1109
 4071TIP3   OH212176   3.742   1.879   0.058  0.4931 -0.5971  0.0083
 4071TIP3    H112177   3.834   1.901   0.045  0.4535 -0.2753  0.2583
 4071TIP3    H212178   3.738   1.784   0.053  1.2936 -0.8587  2.7707
 4072TIP3   OH212179   6.112   5.231   2.022 -0.0895 -0.2939  0.4315
 4072TIP3    H112180   6.183   5.263   2.077  0.7771 -1.9633  0.3370
 4072TIP3    H212181   6.150   5.224   1.935 -0.6940 -0.1590  0.1499
 4073TIP3   OH212182   6.054   0.360   2.870  0.4164 -0.8326 -0.1756
 4073TIP3    H112183   5.984   0.324   2.815  0.4634 -2.4720  0.7423
 4073TIP3    H212184   6.031   0.331   2.959  0.3756  1.6451  0.7063
 4074TIP3   OH212185   5.367   4.317   0.262 -0.3563  0.1599  0.2557
 4074TIP3    H112186   5.299   4.297   0.327 -1.2095 -0.7162 -0.8700
 4074TIP3    H212187   5.449   4.302   0.308 -0.9113  1.0644  1.5982
 4075TIP3   OH212188   5.789   4.703   0.366 -0.0088 -0.1606  0.0866
 4075TIP3    H112189   5.770   4.615   0.397 -0.9420 -0.3531 -0.9516
 4075TIP3    H212190   5.875   4.696   0.324  0.5266 -0.2531  1.1695
 4076TIP3   OH212191   2.864   5.820   1.865 -0.0733  0.2442 -0.9012
 4076TIP3    H112192   2.809   5.847   1.792  0.8852  1.4541 -1.2107
 4076TIP3    H212193   2.821   5.857   1.942 -0.5157 -0.1375 -0.9594
 4077TIP3   OH212194   5.700   3.328   4.000  0.0624 -0.5740  0.9202
 4077TIP3    H112195   5.753   3.297   4.073  0.4960  1.8636  1.7096
 4077TIP3    H212196   5.732   3.417   3.983 -1.5625 -0.2571 -0.7568
 4078TIP3   OH212197   1.844   1.668   4.751 -0.4126 -0.1385  0.0879
 4078TIP3    H112198   1.751   1.679   4.733 -0.3133 -0.3868 -0.5904
 4078TIP3    H212199   1.860   1.724   4.827 -0.8024  1.0946 -0.7057
 4079TIP3   OH212200   3.386   0.502   3.866 -0.5182  0.3646  0.1261
 4079TIP3    H112201   3.433   0.541   3.793  1.3649 -0.6838  0.7280
 4079TIP3    H212202   3.419   0.548   3.943 -0.3313 -0.5125  0.5769
 4080TIP3   OH212203   5.639   4.935   0.367 -0.0729  0.3120 -0.5719
 4080TIP3    H112204   5.713   4.986   0.335  0.0035  0.6165  0.0712
 4080TIP3    H212205   5.658   4.845   0.341  0.8251  0.2882  0.1369
 4081TIP3   OH212206   1.238   3.107   0.503 -0.1096 -0.0479 -0.7519
 4081TIP3    H112207   1.157   3.063   0.531 -0.0448  0.0921 -0.3279
 4081TIP3    H212208   1.208   3.189   0.464 -0.1530  0.2179 -0.1715
 4082TIP3   OH212209   5.920   0.125   4.023 -0.2109 -0.3311 -0.0528
 4082TIP3    H112210   5.893   0.056   4.083 -0.7686 -0.6577 -0.6721
 4082TIP3    H212211   5.908   0.088   3.936 -3.3618  1.4653 -0.5571
 4083TIP3   OH212212   0.681   0.601   0.751  0.5831  0.5917  0.2253
 4083TIP3    H112213   0.661   0.512   0.781 -1.6134  0.9163 -0.1021
 4083TIP3    H212214   0.764   0.593   0.704  1.2260 -0.9686  1.5503
 4084TIP3   OH212215   4.954   2.621   1.654 -0.1862  0.3057  0.0947
 4084TIP3    H112216   4.932   2.714   1.655  0.8021  0.7191 -3.5556
 4084TIP3    H212217   4.994   2.606   1.740 -2.1999  2.6906  1.5958
 4085TIP3   OH212218   6.981   3.299   0.693 -0.5445 -0.5120  0.2458
 4085TIP3    H112219   6.926   3.222   0.681 -1.5173  0.3782 -1.4226
 4085TIP3    H212220   6.951   3.337   0.776 -1.3604 -0.9215  0.1486
 4086TIP3   OH212221   4.594   1.703   1.489  0.5305 -0.2629 -0.0229
 4086TIP3    H112222   4.659   1.773   1.493 -0.0887  0.3304 -0.1123
 4086TIP3    H212223   4.575   1.682   1.580  1.5723 -1.1386  0.0077
 4087TIP3   OH212224   6.724   1.704   4.377  0.1134 -0.1698  0.0788
 4087TIP3    H112225   6.718   1.800   4.372  1.9362 -0.0398 -0.4942
 4087TIP3    H212226   6.643   1.677   4.421 -0.4129  1.6292  0.3056
 4088TIP3   OH212227   6.682   3.951   3.897 -0.5169 -0.3928 -0.0434
 4088TIP3    H112228   6.756   3.902   3.861 -0.8749 -0.1967 -1.1060
 4088TIP3    H212229   6.609   3.932   3.837 -0.3288  2.4945 -1.4004
 4089TIP3   OH212230   4.829   3.553   5.474  0.5417 -0.2226  0.3917
 4089TIP3    H112231   4.819   3.505   5.556 -1.5821  1.1018  0.9780
 4089TIP3    H212232   4.880   3.630   5.497  1.3331 -0.6375  0.0859
 4090TIP3   OH212233   0.130   2.772   1.938 -0.2003  0.0446  0.3419
 4090TIP3    H112234   0.089   2.733   2.015 -1.8681  0.0197 -0.5143
 4090TIP3    H212235   0.212   2.809   1.970 -0.2974 -0.9968  1.8814
 4091TIP3   OH212236   5.890   6.349   0.199  0.0355  0.1179  0.2298
 4091TIP3    H112237   5.976   6.389   0.187  0.5134 -0.3171  1.9694
 4091TIP3    H212238   5.869   6.312   0.113  2.2510 -1.0511  0.1160
 4092TIP3   OH212239   1.435   1.071   2.578 -0.3731 -0.5951  0.1477
 4092TIP3    H112240   1.370   1.082   2.508  1.9385  0.0954 -2.0353
 4092TIP3    H212241   1.470   0.983   2.564  1.4262  0.2224 -0.8648
 4093TIP3   OH212242   4.384   4.333   5.519  0.1245  0.0449 -0.0449
 4093TIP3    H112243   4.372   4.270   5.589  2.9881  1.4367  1.9280
 4093TIP3    H212244   4.478   4.328   5.498 -0.2710  1.0444 -2.4596
 4094TIP3   OH212245   3.464   6.610   4.710  0.1164  0.2093 -0.3069
 4094TIP3    H112246   3.416   6.664   4.773  0.1502 -0.2410  0.1141
 4094TIP3    H212247   3.433   6.638   4.624  0.7234  1.4520 -0.1339
 4095TIP3   OH212248   2.662   4.946   4.708  0.1894 -0.2017 -0.2176
 4095TIP3    H112249   2.715   5.024   4.719 -0.5694  0.1074  1.5576
 4095TIP3    H212250   2.688   4.888   4.780 -1.3246 -0.3282  0.2773
 4096TIP3   OH212251   7.047   0.701   2.571 -0.4232  0.0016 -0.4362
 4096TIP3    H112252   6.974   0.676   2.627 -0.7426  0.6716 -0.5489
 4096TIP3    H212253   7.124   0.691   2.626 -0.4512 -1.8234 -0.6493
 4097TIP3   OH212254   4.292   2.572   5.115  0.4541 -0.1194 -0.4010
 4097TIP3    H112255   4.232   2.551   5.186 -1.9619  1.3576 -1.8804
 4097TIP3    H212256   4.304   2.667   5.121 -0.0518  0.0777 -2.1161
 4098TIP3   OH212257   2.291   3.678   0.436  0.4953 -0.0261  0.1018
 4098TIP3    H112258   2.245   3.748   0.481  1.4288  1.2427 -0.8583
 4098TIP3    H212259   2.341   3.634   0.505  0.7720  0.9616  0.5540
 4099TIP3   OH212260   6.429   3.680   0.542 -0.3805 -0.1263 -0.3771
 4099TIP3    H112261   6.463   3.644   0.459 -0.2326 -1.5136  0.2560
 4099TIP3    H212262   6.450   3.773   0.538 -0.9468 -0.0380 -2.1794
 4100TIP3   OH212263   2.822   3.507   2.226 -0.2386  0.5596  0.0110
 4100TIP3    H112264   2.894   3.445   2.238 -0.4624 -0.1768 -1.9426
 4100TIP3    H212265   2.744   3.458   2.252 -0.2769  0.4622 -0.2782
 4101TIP3   OH212266   1.732   2.297   3.519 -0.3856  0.0764  0.1240
 4101TIP3    H112267   1.677   2.247   3.579 -0.3037 -0.0417  0.1005
 4101TIP3    H212268   1.772   2.364   3.573  1.8452 -1.6842  0.7987
 4102TIP3   OH212269   0.258   6.751   3.841 -0.3202  0.3520 -0.3920
 4102TIP3    H112270   0.245   6.689   3.769 -0.0894 -0.3252  0.1485
 4102TIP3    H212271   0.176   6.800   3.844 -1.6089 -1.7544  0.9234
 4103TIP3   OH212272   6.312   2.380   0.160  0.0849  0.0061 -0.2269
 4103TIP3    H112273   6.403   2.354   0.178  0.6272  0.4664 -2.0884
 4103TIP3    H212274   6.262   2.300   0.171  0.8632 -0.4863 -0.1602
 4104TIP3   OH212275   3.145   3.930   2.588 -0.7132  0.2988  0.3988
 4104TIP3    H112276   3.086   3.858   2.566  0.1260 -0.7026  1.2715
 4104TIP3    H212277   3.224   3.887   2.620  0.0246  1.6180  0.4284
 4105TIP3   OH212278   3.552   0.444   5.489 -0.4908  0.8661 -0.3194
 4105TIP3    H112279   3.484   0.511   5.481 -1.3142  0.1107  0.1948
 4105TIP3    H212280   3.575   0.423   5.398 -0.3755  1.6751 -0.4903
 4106TIP3   OH212281   5.996   6.258   5.594  0.2052  0.2165 -0.2329
 4106TIP3    H112282   5.984   6.302   5.677 -1.8384  2.3373 -1.5206
 4106TIP3    H212283   5.962   6.319   5.529 -1.2363 -2.5808 -2.3425
 4107TIP3   OH212284   2.003   1.797   5.271 -0.0148 -0.3964 -0.5543
 4107TIP3    H112285   2.038   1.873   5.318 -1.3452  0.4796 -0.9293
 4107TIP3    H212286   2.080   1.757   5.230  0.8219  0.2548  0.3339
 4108TIP3   OH212287   6.958   6.218   0.846  0.2510 -0.3878  0.2650
 4108TIP3    H112288   6.868   6.189   0.834  0.7811 -2.4485  0.8785
 4108TIP3    H212289   6.959   6.263   0.931 -0.2242 -0.1689  0.1564
 4109TIP3   OH212290   7.031   6.724   5.324  0.3684  0.7970 -0.3092
 4109TIP3    H112291   7.010   6.674   5.403  0.3314  1.3010  0.0008
 4109TIP3    H212292   7.035   6.815   5.353 -1.2333  1.1819 -1.2020
 4110TIP3   OH212293   1.212   5.001   4.479  0.4675  0.0711  0.0977
 4110TIP3    H112294   1.182   5.091   4.491 -1.5500 -0.6396  0.7925
 4110TIP3    H212295   1.187   4.979   4.389  0.2879 -0.0335  0.1729
 4111TIP3   OH212296   5.512   0.754   0.547  0.8188 -0.3815 -0.1083
 4111TIP3    H112297   5.464   0.816   0.601  0.9607  1.3185 -1.8383
 4111TIP3    H212298   5.468   0.670   0.562 -1.2472  0.6775  0.0979
 4112TIP3   OH212299   5.875   1.239   3.768 -0.0036 -0.7277 -0.6293
 4112TIP3    H112300   5.912   1.324   3.793 -0.0588 -0.9198  0.1236
 4112TIP3    H212301   5.880   1.238   3.672 -1.2636  0.6935 -0.7487
 4113TIP3   OH212302   4.946   0.628   1.999  0.1864 -0.5208  0.6329
 4113TIP3    H112303   4.918   0.717   2.018  1.1646 -0.2452  0.8105
 4113TIP3    H212304   4.961   0.588   2.085  1.3489 -0.3322  0.5248
 4114TIP3   OH212305   1.587   6.599   1.873 -0.2072 -0.5168 -0.4130
 4114TIP3    H112306   1.566   6.692   1.883 -2.4375 -1.1574  2.3102
 4114TIP3    H212307   1.613   6.590   1.782  0.2453  2.7765 -0.7459
 4115TIP3   OH212308   5.750   2.714   0.327  0.2608  0.1587  0.4974
 4115TIP3    H112309   5.785   2.674   0.247  0.4203  0.6239  0.3325
 4115TIP3    H212310   5.757   2.808   0.313  2.2372  0.2802  1.8872
 4116TIP3   OH212311   0.815   3.199   1.784 -0.3792  0.2746  0.1529
 4116TIP3    H112312   0.747   3.246   1.831  0.4221 -0.1147  1.7876
 4116TIP3    H212313   0.897   3.234   1.819  0.2401 -1.0457  0.0968
 4117TIP3   OH212314   1.733   3.718   1.690 -0.2962  0.2818  0.2936
 4117TIP3    H112315   1.689   3.697   1.608 -1.4905  0.4303  0.8767
 4117TIP3    H212316   1.685   3.668   1.756  0.3463  0.5402  0.9679
 4118TIP3   OH212317   5.692   3.049   4.974 -0.4037  0.4145 -0.3148
 4118TIP3    H112318   5.634   2.981   4.939 -1.2540  1.0412 -0.1399
 4118TIP3    H212319   5.732   3.008   5.051 -1.2650  0.2685  0.0628
 4119TIP3   OH212320   2.503   0.980   5.152  0.2348  0.0624  0.3525
 4119TIP3    H112321   2.498   0.896   5.198 -0.7965  1.1464  2.3924
 4119TIP3    H212322   2.566   1.031   5.203  1.4501  0.3358 -1.3162
 4120TIP3   OH212323   0.363   3.424   5.884 -0.0952 -0.4774 -0.3762
 4120TIP3    H112324   0.347   3.388   5.797 -1.1573  1.4760 -1.0540
 4120TIP3    H212325   0.438   3.482   5.872 -0.1254 -0.3482  0.0608
 4121TIP3   OH212326   2.768   2.453   5.804  0.0269 -0.0294  0.0182
 4121TIP3    H112327   2.824   2.381   5.834  0.8168 -0.3658 -2.1135
 4121TIP3    H212328   2.810   2.485   5.724 -0.6790  2.3873  0.5261
 4122TIP3   OH212329   2.570   5.914   4.332  0.2775 -0.0679 -0.5278
 4122TIP3    H112330   2.497   5.954   4.379 -0.7161 -1.2318 -1.0178
 4122TIP3    H212331   2.528   5.857   4.267  1.6231 -0.1836 -1.3360
 4123TIP3   OH212332   3.823   6.281   5.188  0.7659 -0.1091 -0.9916
 4123TIP3    H112333   3.808   6.187   5.198 -2.6484  0.1747 -2.1114
 4123TIP3    H212334   3.773   6.321   5.258  2.2026  0.9220 -0.5202
 4124TIP3   OH212335   1.097   1.952   0.815 -0.1227  0.4313 -0.1795
 4124TIP3    H112336   1.030   1.904   0.765 -1.3496  0.8310  1.0360
 4124TIP3    H212337   1.134   2.014   0.751 -0.6513 -0.0358 -0.9619
 4125TIP3   OH212338   3.441   1.948   5.770  0.1183 -0.4288 -0.4082
 4125TIP3    H112339   3.508   2.010   5.795  0.1228  0.2674 -2.0262
 4125TIP3    H212340   3.489   1.868   5.749  0.0708 -1.2282  2.1730
 4126TIP3   OH212341   1.216   4.304   2.149  0.0322 -0.4352 -0.5172
 4126TIP3    H112342   1.244   4.387   2.111  0.0772  0.5755  1.6170
 4126TIP3    H212343   1.297   4.255   2.162  0.3687  0.4706  1.0415
 4127TIP3   OH212344   5.687   5.244   3.016  0.6372  0.5773 -0.1248
 4127TIP3    H112345   5.695   5.152   3.041  1.0880  0.5402 -0.3832
 4127TIP3    H212346   5.593   5.258   3.005  0.2940  0.8567  2.5399
 4128TIP3   OH212347   2.777   6.251   5.090  0.1762  0.0006  0.3196
 4128TIP3    H112348   2.838   6.179   5.106 -0.3267 -0.0734  2.1160
 4128TIP3    H212349   2.745   6.275   5.176 -1.5565  0.7310 -0.4742
 4129TIP3   OH212350   2.422   1.110   4.519 -0.3603  0.0571 -0.3840
 4129TIP3    H112351   2.439   1.026   4.563 -0.1897  0.2261 -0.1277
 4129TIP3    H212352   2.401   1.085   4.429  0.1745 -0.2306 -0.4372
 4130TIP3   OH212353   2.051   5.945   2.427 -0.4850 -0.2659  0.2141
 4130TIP3    H112354   2.039   6.023   2.373  0.3932 -0.2652  0.0130
 4130TIP3    H212355   1.998   5.962   2.505 -0.6681  0.3242 -0.0312
 4131TIP3   OH212356   2.580   4.097   4.286  0.1971 -0.2904 -0.2109
 4131TIP3    H112357   2.496   4.062   4.256  0.2223  1.1835 -2.2593
 4131TIP3    H212358   2.605   4.160   4.218  2.5256 -0.0056  0.8096
 4132TIP3   OH212359   5.371   6.482   3.544  0.1043  0.8424  0.0299
 4132TIP3    H112360   5.396   6.572   3.564  0.2602  0.9724 -0.6968
 4132TIP3    H212361   5.453   6.434   3.543  0.0625  0.7710  0.0534
 4133TIP3   OH212362   0.210   1.703   0.767  0.3208 -0.2089  0.1719
 4133TIP3    H112363   0.246   1.657   0.691 -0.0713 -0.6647  0.2585
 4133TIP3    H212364   0.158   1.637   0.812 -0.9332  0.5433 -0.1480
 4134TIP3   OH212365   4.338   2.745   0.649 -0.0172  0.2708  0.4713
 4134TIP3    H112366   4.428   2.742   0.614  0.0715 -0.7304  0.7707
 4134TIP3    H212367   4.283   2.722   0.574  0.1031 -0.8734  0.7279
 4135TIP3   OH212368   1.306   6.143   4.680  0.3104  0.1868 -0.3430
 4135TIP3    H112369   1.299   6.170   4.771 -0.0992 -1.0237  0.0109
 4135TIP3    H212370   1.380   6.192   4.645  1.8704 -0.9034  1.2504
 4136TIP3   OH212371   0.309   1.048   0.376  0.0675 -0.1621 -0.2315
 4136TIP3    H112372   0.289   0.956   0.359 -0.1478  0.2490 -2.4362
 4136TIP3    H212373   0.331   1.051   0.470 -2.8964 -1.9219  0.6470
 4137TIP3   OH212374   6.576   6.725   3.994  0.3680 -0.2778  0.2632
 4137TIP3    H112375   6.516   6.784   3.948 -0.3303 -2.6508 -2.1170
 4137TIP3    H212376   6.541   6.721   4.083  1.8750  4.6373  1.4190
 4138TIP3   OH212377   2.032   3.167   1.320 -0.3658 -0.4344 -0.0274
 4138TIP3    H112378   2.066   3.196   1.405  1.5261 -1.2883 -0.4528
 4138TIP3    H212379   2.027   3.247   1.268 -1.5929  0.1054  0.8827
 4139TIP3   OH212380   3.951   2.280   3.357 -0.0224 -0.2037 -0.1285
 4139TIP3    H112381   3.938   2.374   3.353  0.5818 -0.1334 -0.6106
 4139TIP3    H212382   3.965   2.253   3.266  0.6946 -0.6189  0.0899
 4140TIP3   OH212383   1.500   0.653   1.248 -0.8157 -0.4423 -0.5198
 4140TIP3    H112384   1.441   0.701   1.189 -2.8314 -0.0110  1.6634
 4140TIP3    H212385   1.496   0.703   1.330  3.6869  0.3104 -0.5469
 4141TIP3   OH212386   0.384   2.965   0.205  0.0646 -0.0819  0.3621
 4141TIP3    H112387   0.428   3.022   0.267  0.0862  0.7858 -0.4335
 4141TIP3    H212388   0.291   2.970   0.229 -0.0550  1.0240 -0.2600
 4142TIP3   OH212389   2.294   1.472   3.385  0.4803 -0.3465  0.0721
 4142TIP3    H112390   2.276   1.394   3.438 -1.2046 -1.2525 -1.6941
 4142TIP3    H212391   2.250   1.543   3.432 -1.2204 -1.1832 -0.1689
 4143TIP3   OH212392   1.570   2.427   2.343  0.1092 -0.5203 -0.2706
 4143TIP3    H112393   1.653   2.451   2.384 -0.8656 -0.8374  2.0365
 4143TIP3    H212394   1.528   2.369   2.406 -2.0052 -0.1305 -1.2391
 4144TIP3   OH212395   5.583   4.398   0.124  0.2896  0.2538  0.4442
 4144TIP3    H112396   5.502   4.386   0.173  0.6945 -0.6228  0.9277
 4144TIP3    H212397   5.577   4.335   0.052  1.1172 -0.8182  1.2689
 4145TIP3   OH212398   2.280   6.514   1.190 -0.1785 -0.0354 -0.3434
 4145TIP3    H112399   2.313   6.551   1.108  0.2182 -0.2021 -0.2604
 4145TIP3    H212400   2.314   6.573   1.257 -0.2146 -0.0971 -0.2715
 4146TIP3   OH212401   2.056   2.337   1.363  0.6685  0.0273 -0.3207
 4146TIP3    H112402   2.123   2.375   1.305  1.6744  0.8008  1.2875
 4146TIP3    H212403   2.071   2.243   1.359 -0.4781 -0.1344 -2.7008
 4147TIP3   OH212404   4.794   2.884   2.350 -0.3610  0.2183 -0.3606
 4147TIP3    H112405   4.876   2.835   2.348  0.1681  1.0927 -0.5987
 4147TIP3    H212406   4.779   2.901   2.443 -1.7674 -2.3367 -0.0273
 4148TIP3   OH212407   1.519   6.763   2.628  0.1826 -0.1068  0.2937
 4148TIP3    H112408   1.594   6.734   2.680  0.3549  1.1706  0.7900
 4148TIP3    H212409   1.449   6.778   2.692  0.4427  1.6229  0.2240
 4149TIP3   OH212410   2.822   1.154   4.933  0.0064  0.4895 -0.0176
 4149TIP3    H112411   2.893   1.109   4.888 -0.3496 -1.9227  1.6461
 4149TIP3    H212412   2.747   1.145   4.875  0.0973 -0.5619  0.0167
 4150TIP3   OH212413   4.005   2.283   0.101  0.6501 -0.2893 -0.4078
 4150TIP3    H112414   3.958   2.299   0.019  1.0758 -0.1095 -0.6221
 4150TIP3    H212415   4.045   2.197   0.089 -0.4626 -0.9060  0.1813
 4151TIP3   OH212416   7.171   1.964   1.119  1.1521  0.2781  0.1722
 4151TIP3    H112417   7.130   1.889   1.162  4.7782 -2.5926 -0.8807
 4151TIP3    H212418   7.112   1.985   1.046  0.6548 -2.5205 -0.3430
 4152TIP3   OH212419   6.837   3.121   0.105 -0.0938 -0.4930  0.2397
 4152TIP3    H112420   6.846   3.176   0.028  0.3553  1.1468  1.4147
 4152TIP3    H212421   6.774   3.167   0.160 -0.4677 -1.6732  0.8535
 4153TIP3   OH212422   2.223   0.223   3.884 -0.4597 -0.2670  0.1291
 4153TIP3    H112423   2.287   0.156   3.860 -0.6013 -0.4307  0.2060
 4153TIP3    H212424   2.260   0.304   3.850  0.3132 -0.1901  1.1055
 4154TIP3   OH212425   4.468   4.329   3.098  0.2931 -0.1766 -0.2576
 4154TIP3    H112426   4.416   4.279   3.035 -0.5098 -0.3234  0.5041
 4154TIP3    H212427   4.559   4.318   3.069  0.1003 -1.7141 -0.3612
 4155TIP3   OH212428   4.937   2.888   1.719 -0.2442 -0.1126  0.9292
 4155TIP3    H112429   4.884   2.947   1.772  1.4203  0.1047  2.4482
 4155TIP3    H212430   5.003   2.853   1.780 -0.0465 -2.1246 -0.3368
 4156TIP3   OH212431   3.575   1.780   5.136  0.0041 -0.0252  0.0238
 4156TIP3    H112432   3.601   1.689   5.127 -0.0738 -0.1482  0.9167
 4156TIP3    H212433   3.609   1.824   5.058 -2.1192 -1.2891 -1.7194
 4157TIP3   OH212434   0.271   6.519   1.059  0.6880 -0.2185 -0.0863
 4157TIP3    H112435   0.246   6.510   1.151  1.7361  0.5068  0.3010
 4157TIP3    H212436   0.242   6.438   1.018 -0.1109 -0.4042  0.8098
 4158TIP3   OH212437   6.195   4.007   2.472 -0.5147 -0.1796 -0.0750
 4158TIP3    H112438   6.223   4.067   2.541  1.4346 -0.2596 -0.7336
 4158TIP3    H212439   6.168   4.063   2.400  1.1537 -0.0570 -0.6329
 4159TIP3   OH212440   3.048   0.613   1.241  0.4603 -0.2256  0.1219
 4159TIP3    H112441   3.113   0.559   1.196 -0.1470 -0.8017 -0.0771
 4159TIP3    H212442   3.086   0.629   1.327 -0.1627 -2.5771  0.9024
 4160TIP3   OH212443   4.925   3.880   1.257  0.1089  0.1148 -0.2177
 4160TIP3    H112444   4.839   3.912   1.282  1.0755  0.9589  2.4021
 4160TIP3    H212445   4.958   3.944   1.195 -0.2051  1.1983  0.6931
 4161TIP3   OH212446   3.958   6.068   0.862  0.0005 -0.2750  0.4440
 4161TIP3    H112447   3.982   6.033   0.948  0.6503  0.2128  0.4658
 4161TIP3    H212448   4.041   6.084   0.818 -0.3332 -2.1107 -0.9618
 4162TIP3   OH212449   1.428   3.479   1.055 -0.2953 -0.0969  0.5345
 4162TIP3    H112450   1.454   3.447   0.969 -0.5511  1.3647 -0.1272
 4162TIP3    H212451   1.485   3.433   1.116 -1.3282 -2.5236 -0.2219
 4163TIP3   OH212452   6.927   6.419   2.419  0.5623  0.0190  0.2023
 4163TIP3    H112453   6.862   6.489   2.430  2.2965  1.6919  0.2787
 4163TIP3    H212454   6.994   6.438   2.485  1.9057 -0.7080 -0.8968
 4164TIP3   OH212455   1.181   4.003   0.469  0.4352 -0.1136 -0.1876
 4164TIP3    H112456   1.111   3.972   0.412 -0.2585 -1.1314  1.1524
 4164TIP3    H212457   1.237   3.927   0.484 -1.1269 -0.8506  2.9019
 4165TIP3   OH212458   1.413   2.181   0.747  0.3689  0.1514  0.2579
 4165TIP3    H112459   1.436   2.223   0.664  0.9994  1.5337  1.0913
 4165TIP3    H212460   1.327   2.218   0.769  0.0402 -0.4822  0.0584
 4166TIP3   OH212461   2.694   1.514   1.740  0.1183  0.3997 -0.5615
 4166TIP3    H112462   2.735   1.485   1.821  1.1735  0.5477 -1.0253
 4166TIP3    H212463   2.673   1.434   1.692 -0.9583  0.2965  0.0610
 4167TIP3   OH212464   5.077   6.487   3.011 -0.3089  0.0821 -0.3096
 4167TIP3    H112465   5.096   6.406   2.964  2.3946  0.0491  0.6555
 4167TIP3    H212466   5.082   6.556   2.944 -0.9130 -0.3620 -0.8217
 4168TIP3   OH212467   1.005   3.503   2.601 -0.3103 -0.2186 -0.2403
 4168TIP3    H112468   0.937   3.563   2.570 -0.0994  1.3858  2.1494
 4168TIP3    H212469   0.963   3.454   2.672  1.1892  1.4596  1.9131
 4169TIP3   OH212470   1.557   0.320   3.850  0.1731  0.1085  0.1264
 4169TIP3    H112471   1.627   0.304   3.913  1.8188 -0.1634 -1.6857
 4169TIP3    H212472   1.572   0.255   3.781 -1.0821  0.9074 -0.9286
 4170TIP3   OH212473   2.777   0.686   3.444  0.0679  0.1991  0.4171
 4170TIP3    H112474   2.730   0.607   3.473  1.1304 -0.2950  0.8331
 4170TIP3    H212475   2.836   0.706   3.517  2.8784 -1.1032 -1.3679
 4171TIP3   OH212476   6.812   1.144   2.169  0.0518 -0.0397 -0.4290
 4171TIP3    H112477   6.741   1.080   2.174 -0.3326  0.4585  0.9361
 4171TIP3    H212478   6.810   1.175   2.078 -0.0020 -1.6561 -1.0104
 4172TIP3   OH212479   2.367   6.537   5.413 -0.0158 -0.3221  0.4423
 4172TIP3    H112480   2.342   6.450   5.443 -2.1146  0.7184  1.9721
 4172TIP3    H212481   2.383   6.586   5.494  0.7770  0.8138 -0.3724
 4173TIP3   OH212482   0.736   1.362   4.120 -0.0216  0.6411 -0.3263
 4173TIP3    H112483   0.724   1.276   4.079  1.7671  0.8520 -1.4605
 4173TIP3    H212484   0.792   1.344   4.195 -0.6288  0.6761  0.1383
 4174TIP3   OH212485   3.153   6.326   0.510 -0.7935 -0.1582  0.5436
 4174TIP3    H112486   3.240   6.287   0.517 -0.1252  1.0832 -0.4716
 4174TIP3    H212487   3.121   6.300   0.424 -0.8707  0.4641  0.3794
 4175TIP3   OH212488   3.135   6.220   2.646 -0.1533 -0.2654 -0.2219
 4175TIP3    H112489   3.205   6.255   2.592 -1.0568  0.0596 -1.1960
 4175TIP3    H212490   3.067   6.288   2.647 -0.4541 -0.5569  0.7317
 4176TIP3   OH212491   6.985   5.990   0.409  0.2296 -0.2016 -0.6672
 4176TIP3    H112492   7.037   6.048   0.354 -1.1887  1.2607 -0.5635
 4176TIP3    H212493   7.008   6.014   0.499  0.0195 -0.1554 -0.6243
 4177TIP3   OH212494   6.713   3.291   5.257  0.6785 -0.4400 -0.1020
 4177TIP3    H112495   6.668   3.315   5.338 -1.3099  0.5941 -1.4469
 4177TIP3    H212496   6.705   3.367   5.200 -0.2244 -1.9738 -2.1885
 4178TIP3   OH212497   2.487   3.981   4.991 -0.1711  0.3120  0.5584
 4178TIP3    H112498   2.521   3.896   5.019 -0.9655  0.2322  1.3319
 4178TIP3    H212499   2.431   3.962   4.916  1.6810  0.4828 -0.9397
 4179TIP3   OH212500   2.615   0.306   3.337  0.2550 -0.0669  0.0298
 4179TIP3    H112501   2.636   0.216   3.363  0.9908 -0.3185 -1.3297
 4179TIP3    H212502   2.684   0.358   3.377  0.6264 -0.2905 -0.3057
 4180TIP3   OH212503   0.828   2.608   2.772  0.5107  0.0063 -0.3484
 4180TIP3    H112504   0.809   2.534   2.715 -1.0063 -1.7237  2.2361
 4180TIP3    H212505   0.923   2.604   2.787  0.5602 -0.9065 -0.8779
 4181TIP3   OH212506   6.271   0.589   0.124  0.3508  0.1700 -0.0175
 4181TIP3    H112507   6.340   0.584   0.191  0.6565  1.4297 -0.2123
 4181TIP3    H212508   6.283   0.510   0.072  1.2428  0.0442  0.3566
 4182TIP3   OH212509   0.488   0.087   0.310 -0.3844 -0.6542 -0.5896
 4182TIP3    H112510   0.464   0.175   0.280 -0.0913 -0.8471 -1.4262
 4182TIP3    H212511   0.561   0.062   0.254 -0.5377 -1.4809 -0.4327
 4183TIP3   OH212512   3.379   4.556   1.802  0.4718  0.2969  0.0254
 4183TIP3    H112513   3.432   4.487   1.843  2.1932  1.2631 -0.4795
 4183TIP3    H212514   3.307   4.509   1.761  0.3697 -0.9825  1.5462
 4184TIP3   OH212515   4.092   6.300   1.950 -0.0793  0.0443  0.2702
 4184TIP3    H112516   4.118   6.387   1.918 -0.1524  0.1787  0.5761
 4184TIP3    H212517   4.003   6.289   1.917  0.0390 -0.0412 -0.0230
 4185TIP3   OH212518   1.227   4.848   2.839 -0.4535 -0.0201  0.1918
 4185TIP3    H112519   1.132   4.842   2.850 -0.3226  0.6353  2.1556
 4185TIP3    H212520   1.260   4.869   2.927  1.5376 -0.5234 -0.3717
 4186TIP3   OH212521   2.308   3.676   1.367  0.1334 -0.3552 -0.4461
 4186TIP3    H112522   2.340   3.586   1.361  0.5145 -0.2903  0.5045
 4186TIP3    H212523   2.264   3.680   1.452  0.0303  0.3322 -0.5264
 4187TIP3   OH212524   2.012   1.399   1.488 -0.3617 -0.1080 -0.2222
 4187TIP3    H112525   2.052   1.414   1.574  1.6494  1.3620 -1.3408
 4187TIP3    H212526   1.973   1.483   1.464  1.4229  0.3444 -1.8240
 4188TIP3   OH212527   3.025   5.401   1.603  0.1585 -0.5618 -0.0346
 4188TIP3    H112528   3.105   5.393   1.655  0.2832  2.5123  0.4469
 4188TIP3    H212529   3.054   5.385   1.513  1.5053  1.0159  0.0664
 4189TIP3   OH212530   1.267   3.407   2.714 -0.0614 -0.3452 -0.5292
 4189TIP3    H112531   1.197   3.349   2.745  0.7361 -0.5486  0.9564
 4189TIP3    H212532   1.246   3.492   2.751 -0.5367  0.0592 -1.6695
 4190TIP3   OH212533   7.084   2.635   1.439 -0.1406  0.7617  0.2739
 4190TIP3    H112534   6.995   2.665   1.421 -0.9785 -1.6806  0.0155
 4190TIP3    H212535   7.121   2.616   1.353 -0.8380 -2.0176  0.5160
 4191TIP3   OH212536   5.203   0.159   3.948  0.0123 -0.2578  0.2946
 4191TIP3    H112537   5.196   0.214   3.870  0.7568 -0.0062  0.3995
 4191TIP3    H212538   5.212   0.221   4.021  0.2904 -0.5062  0.4760
 4192TIP3   OH212539   5.918   4.763   1.646  0.1629  0.0813 -0.3609
 4192TIP3    H112540   5.866   4.718   1.578 -1.3011  2.6871 -1.0888
 4192TIP3    H212541   6.007   4.730   1.633 -0.1796  0.0301 -3.1835
 4193TIP3   OH212542   0.692   6.629   4.533  0.6633 -0.4060 -0.2488
 4193TIP3    H112543   0.745   6.696   4.490  1.4157  0.2736  1.6423
 4193TIP3    H212544   0.749   6.592   4.600 -0.6564 -0.9276  0.6460
 4194TIP3   OH212545   0.595   1.049   2.330  0.2051  0.2738 -0.0185
 4194TIP3    H112546   0.608   1.123   2.389 -2.3415 -0.8127  2.0816
 4194TIP3    H212547   0.666   0.989   2.351  0.7906  0.9803  0.0805
 4195TIP3   OH212548   0.702   0.905   4.030  0.3524  0.7428  0.5964
 4195TIP3    H112549   0.749   0.822   4.038  0.9436  0.9388 -0.6292
 4195TIP3    H212550   0.625   0.883   3.977  2.1181  1.4986 -2.5634
 4196TIP3   OH212551   5.496   2.573   3.112  0.3167 -0.0222  0.8360
 4196TIP3    H112552   5.544   2.494   3.138  1.3314  0.0793 -0.6193
 4196TIP3    H212553   5.421   2.540   3.063 -0.4413 -0.1329  2.0300
 4197TIP3   OH212554   3.720   1.477   4.870 -0.6787 -0.3953 -0.4491
 4197TIP3    H112555   3.797   1.499   4.922 -1.7686 -0.3647  1.2387
 4197TIP3    H212556   3.751   1.411   4.808  0.8317  0.0725 -0.2367
 4198TIP3   OH212557   4.196   5.218   2.706 -0.0237 -0.5205 -0.5393
 4198TIP3    H112558   4.117   5.165   2.703 -0.5195  0.1988 -0.5433
 4198TIP3    H212559   4.164   5.309   2.703  0.7329 -0.1857  0.7162
 4199TIP3   OH212560   5.990   5.066   0.476  0.1622 -0.2979 -0.4418
 4199TIP3    H112561   5.942   5.063   0.393 -0.4555 -0.9578 -0.0699
 4199TIP3    H212562   6.056   4.997   0.469 -0.0683 -0.5384 -0.2871
 4200TIP3   OH212563   6.110   2.767   4.282 -0.3629 -0.4191  0.2519
 4200TIP3    H112564   6.105   2.862   4.273  0.6144 -0.0820  2.5853
 4200TIP3    H212565   6.098   2.734   4.193 -0.5875  1.8758 -0.6420
 4201TIP3   OH212566   3.325   6.662   1.428 -0.1673  0.4725 -0.3487
 4201TIP3    H112567   3.384   6.678   1.354 -0.4061 -0.7877 -0.8308
 4201TIP3    H212568   3.347   6.574   1.458  0.3981  1.2096  1.5438
 4202TIP3   OH212569   0.429   2.460   2.157 -0.4268  0.6218 -0.3595
 4202TIP3    H112570   0.463   2.377   2.123  1.9964  2.3473 -2.5503
 4202TIP3    H212571   0.462   2.464   2.246  0.6837 -0.1674 -0.7017
 4203TIP3   OH212572   1.851   5.416   4.128 -0.2569  0.5461  0.4345
 4203TIP3    H112573   1.801   5.373   4.059  1.4804  0.0296 -0.5493
 4203TIP3    H212574   1.939   5.381   4.120  0.2862  1.4164  2.1272
 4204TIP3   OH212575   5.832   1.192   2.557 -0.5255 -0.0451 -0.0705
 4204TIP3    H112576   5.890   1.198   2.481 -2.1171 -0.0310 -1.3415
 4204TIP3    H212577   5.801   1.101   2.555 -1.0260  0.1188  0.2096
 4205TIP3   OH212578   6.441   6.014   0.708 -0.2763 -0.4279 -0.1400
 4205TIP3    H112579   6.432   5.947   0.641 -2.6920  0.4457 -0.7891
 4205TIP3    H212580   6.402   5.976   0.786  0.0427 -0.4464  0.0114
 4206TIP3   OH212581   0.340   0.976   0.659 -0.1937  0.2184 -0.0057
 4206TIP3    H112582   0.258   1.000   0.701 -0.6994  0.9986 -1.3826
 4206TIP3    H212583   0.326   0.886   0.629 -1.2039  0.8773 -1.6769
 4207TIP3   OH212584   5.063   4.257   1.930 -0.3795 -0.2223 -0.1285
 4207TIP3    H112585   5.073   4.315   1.855 -1.2789 -0.3434 -0.3623
 4207TIP3    H212586   5.055   4.169   1.892  0.6766 -0.4742  0.2035
 4208TIP3   OH212587   5.280   3.047   2.975 -0.4987  0.5407 -0.2392
 4208TIP3    H112588   5.343   3.090   3.032  0.3757 -1.1770  0.1448
 4208TIP3    H212589   5.231   2.988   3.033  0.3409 -1.1613 -1.1771
 4209TIP3   OH212590   3.331   0.126   2.964 -0.0160 -0.1889 -0.0273
 4209TIP3    H112591   3.270   0.139   3.037 -0.9905  0.4369 -0.9208
 4209TIP3    H212592   3.277   0.138   2.886  1.2585  0.3366 -0.8568
 4210TIP3   OH212593   1.800   4.732   0.236 -0.0456  0.0044  0.3219
 4210TIP3    H112594   1.792   4.637   0.229  1.5750 -0.1007 -0.7815
 4210TIP3    H212595   1.822   4.760   0.147 -0.7928  1.4468  0.5753
 4211TIP3   OH212596   4.617   2.602   2.594  0.2390  0.3563  0.2178
 4211TIP3    H112597   4.658   2.650   2.666  0.7451  0.2020  0.0427
 4211TIP3    H212598   4.691   2.568   2.543 -0.0894  1.3545 -0.9868
 4212TIP3   OH212599   2.293   0.818   1.363  0.2809  0.6006 -0.0835
 4212TIP3    H112600   2.287   0.733   1.319  0.3074  0.4491  0.2016
 4212TIP3    H212601   2.216   0.822   1.419 -1.1953  1.9252 -2.0744
 4213TIP3   OH212602   7.235   6.324   0.870  0.0003  0.2751 -0.6850
 4213TIP3    H112603   7.201   6.410   0.845 -0.3383  0.0933 -0.8526
 4213TIP3    H212604   7.164   6.263   0.849 -0.3450  0.1227  0.8539
 4214TIP3   OH212605   6.663   4.612   2.686  0.0879  0.0212  0.0865
 4214TIP3    H112606   6.625   4.698   2.705  1.1527  0.7432 -0.9293
 4214TIP3    H212607   6.703   4.585   2.768 -0.5144  0.3666  0.4974
 4215TIP3   OH212608   2.356   3.886   5.478 -0.1307  0.4911  0.2911
 4215TIP3    H112609   2.285   3.921   5.423  1.6954  2.0826 -1.1844
 4215TIP3    H212610   2.420   3.957   5.481 -0.0345  0.4444  4.4608
 4216TIP3   OH212611   1.877   5.296   0.009  0.0807  0.2263  0.3572
 4216TIP3    H112612   1.874   5.209   0.050  1.3245  0.7777  1.7244
 4216TIP3    H212613   1.970   5.319   0.011 -0.3797  2.1515  1.2841
 4217TIP3   OH212614   1.604   2.857   0.639 -0.4682  0.3248  0.1438
 4217TIP3    H112615   1.513   2.869   0.666 -1.0079 -2.1174 -0.3038
 4217TIP3    H212616   1.655   2.873   0.718 -1.5705 -1.2629  1.2379
 4218TIP3   OH212617   1.633   3.640   3.644  0.0990 -0.7269 -0.1618
 4218TIP3    H112618   1.668   3.655   3.556 -0.6013 -1.9957 -0.6738
 4218TIP3    H212619   1.671   3.557   3.672 -1.4084 -1.4559 -0.1818
 4219TIP3   OH212620   6.103   5.470   0.339  0.5085  0.2045  0.4446
 4219TIP3    H112621   6.155   5.401   0.379  0.1274 -0.8550 -0.8519
 4219TIP3    H212622   6.024   5.476   0.394  0.2829 -0.7949  0.2400
 4220TIP3   OH212623   7.027   5.276   1.391 -0.0765 -0.7704  0.2065
 4220TIP3    H112624   6.937   5.243   1.394 -0.0164 -0.8966  1.2751
 4220TIP3    H212625   7.018   5.370   1.403 -0.1690 -0.5180 -1.6076
 4221TIP3   OH212626   4.853   6.296   5.738  0.0656 -0.0237  0.3865
 4221TIP3    H112627   4.854   6.342   5.823  2.4502 -1.7275  1.4169
 4221TIP3    H212628   4.843   6.204   5.761  2.2013 -0.6785 -1.0101
 4222TIP3   OH212629   0.092   2.266   5.020  0.0480  0.4113  0.0613
 4222TIP3    H112630   0.106   2.355   4.988  0.9788  0.7076  1.2343
 4222TIP3    H212631   0.084   2.213   4.940  2.8172  1.0435 -0.7517
 4223TIP3   OH212632   6.242   3.491   4.355 -0.4086  0.2777  0.1616
 4223TIP3    H112633   6.181   3.446   4.296 -0.4380 -0.1053  0.4854
 4223TIP3    H212634   6.191   3.564   4.390 -0.8898 -0.4032  0.9151
 4224TIP3   OH212635   6.493   3.455   4.255 -0.5937  0.2187 -0.2169
 4224TIP3    H112636   6.408   3.443   4.297  0.0273  2.0946  1.7062
 4224TIP3    H212637   6.530   3.533   4.296  1.2943  0.5252 -2.3057
 4225TIP3   OH212638   5.265   2.225   0.228  0.3943 -0.1469  0.2601
 4225TIP3    H112639   5.205   2.245   0.156 -0.5848  0.2740  1.1617
 4225TIP3    H212640   5.291   2.134   0.214  0.6923  0.1134 -0.9507
 4226TIP3   OH212641   3.356   2.940   4.134 -0.4451  0.1386  0.4762
 4226TIP3    H112642   3.314   2.911   4.054  0.1292  0.2541  0.1257
 4226TIP3    H212643   3.285   2.947   4.198 -0.6808 -1.5512  0.4480
 4227TIP3   OH212644   5.062   6.110   5.477  0.5217  0.3459 -0.5125
 4227TIP3    H112645   4.986   6.053   5.464  0.3730  0.6029 -0.8085
 4227TIP3    H212646   5.129   6.053   5.516 -0.1633  0.3598  0.7371
 4228TIP3   OH212647   0.892   4.559   1.672  0.1720  0.1591  0.2218
 4228TIP3    H112648   0.903   4.495   1.601 -1.3624 -0.8009  0.7901
 4228TIP3    H212649   0.906   4.644   1.630  0.4032 -0.4501 -0.9747
 4229TIP3   OH212650   5.284   4.464   1.035 -0.2017 -0.0135 -0.1239
 4229TIP3    H112651   5.224   4.470   0.960 -0.5879 -1.0155  0.0896
 4229TIP3    H212652   5.267   4.544   1.086 -1.4837 -0.3516  0.0151
 4230TIP3   OH212653   2.905   1.539   0.559 -0.2443  0.0626  0.3171
 4230TIP3    H112654   2.847   1.476   0.516 -0.1602 -0.0808  0.4135
 4230TIP3    H212655   2.938   1.594   0.487 -0.2528 -0.0556  0.2223
 4231TIP3   OH212656   0.146   0.519   5.112 -0.0212 -0.2073  0.0285
 4231TIP3    H112657   0.093   0.442   5.091 -0.1419 -0.1883  0.2543
 4231TIP3    H212658   0.121   0.584   5.046  0.0259 -0.3375 -0.1166
 4232TIP3   OH212659   6.749   1.790   0.997  0.1662 -0.1673 -0.1099
 4232TIP3    H112660   6.772   1.806   1.088  2.6892 -0.1817 -0.6894
 4232TIP3    H212661   6.832   1.790   0.950 -0.8100 -2.6756 -2.0577
 4233TIP3   OH212662   0.529   2.939   4.169 -0.0146 -0.0232  0.0540
 4233TIP3    H112663   0.531   3.029   4.138 -0.6114 -0.4955 -1.4521
 4233TIP3    H212664   0.602   2.896   4.125  0.0938 -0.3467  0.5376
 4234TIP3   OH212665   1.291   3.058   4.173  0.2014 -0.1134  0.3588
 4234TIP3    H112666   1.379   3.024   4.192  0.3024  0.6103  1.2674
 4234TIP3    H212667   1.303   3.115   4.098  0.4999 -0.0602  0.4467
 4235TIP3   OH212668   0.501   0.240   3.421  0.1386  0.3467 -0.4466
 4235TIP3    H112669   0.408   0.255   3.436  0.5257  3.7754 -0.6389
 4235TIP3    H212670   0.545   0.306   3.475  2.4631 -0.8498 -0.7503
 4236TIP3   OH212671   6.893   0.585   4.063  0.3525  0.1533 -0.1907
 4236TIP3    H112672   6.964   0.521   4.067  0.5381  0.3808  0.2246
 4236TIP3    H212673   6.813   0.532   4.071  0.5188  0.0031  0.5982
 4237TIP3   OH212674   0.936   4.895   5.774 -0.5146  0.6654  0.1228
 4237TIP3    H112675   0.845   4.922   5.760 -0.5602  0.1024 -0.7345
 4237TIP3    H212676   0.979   4.909   5.690 -0.6569 -2.3290 -0.5358
 4238TIP3   OH212677   4.711   6.489   4.455  0.0503  0.2064  0.2896
 4238TIP3    H112678   4.720   6.432   4.379  1.6252 -0.3199  0.8299
 4238TIP3    H212679   4.620   6.477   4.484 -0.1467 -0.6691 -0.6557
 4239TIP3   OH212680   4.423   6.657   3.750 -0.5469 -0.1162 -0.3985
 4239TIP3    H112681   4.483   6.717   3.794  0.1493 -2.0237  1.4475
 4239TIP3    H212682   4.368   6.622   3.821  1.5725 -4.4349 -0.5692
 4240TIP3   OH212683   6.062   0.706   4.296  0.3054  0.3866 -0.6390
 4240TIP3    H112684   5.980   0.729   4.251 -0.1849 -1.2564 -0.6441
 4240TIP3    H212685   6.130   0.727   4.232 -0.1802  0.7496 -1.0528
 4241TIP3   OH212686   3.916   5.927   4.873 -0.3629  0.6834  0.1017
 4241TIP3    H112687   3.954   6.015   4.872 -1.9837  1.4139 -0.1691
 4241TIP3    H212688   3.829   5.939   4.909  0.2678 -1.2442  2.4650
 4242TIP3   OH212689   0.118   1.101   1.230 -0.1055  0.1304  0.9091
 4242TIP3    H112690   0.194   1.085   1.174  1.0270 -0.4785  2.5259
 4242TIP3    H212691   0.155   1.110   1.318 -1.8209  0.8992  1.5911
 4243TIP3   OH212692   1.488   3.765   5.850 -0.2199 -0.2997  0.3786
 4243TIP3    H112693   1.557   3.763   5.783 -0.1076  1.8123  0.3642
 4243TIP3    H212694   1.525   3.716   5.923  0.8421 -0.1928 -0.0619
 4244TIP3   OH212695   5.960   4.297   1.384 -0.2796  0.0723 -0.6034
 4244TIP3    H112696   5.904   4.334   1.452 -0.3467 -1.2546  0.0904
 4244TIP3    H212697   6.005   4.373   1.346 -0.9245  0.9265  0.2960
 4245TIP3   OH212698   2.487   2.683   1.688 -0.3499  0.5443 -0.2111
 4245TIP3    H112699   2.410   2.658   1.638 -0.8749  2.6570 -0.5516
 4245TIP3    H212700   2.472   2.774   1.713 -0.0675 -0.2846  3.7381
 4246TIP3   OH212701   1.809   1.131   1.264 -0.2878  0.3676 -1.1271
 4246TIP3    H112702   1.889   1.181   1.247 -0.6896  0.9707 -1.2869
 4246TIP3    H212703   1.805   1.124   1.359  1.0060 -1.4326 -1.1470
 4247TIP3   OH212704   1.369   4.715   3.512  0.3081  0.3154 -0.3247
 4247TIP3    H112705   1.378   4.627   3.548  0.6757 -0.2404 -1.6921
 4247TIP3    H212706   1.292   4.751   3.555  1.2539  0.0755  1.6872
 4248TIP3   OH212707   3.287   3.001   5.641 -0.2148  0.0732  0.3276
 4248TIP3    H112708   3.273   2.912   5.674 -0.5142  0.1504  0.4146
 4248TIP3    H212709   3.379   3.019   5.659 -0.5500  0.4241  1.9268
 4249TIP3   OH212710   0.889   6.307   0.021  0.3620  0.1543  0.6742
 4249TIP3    H112711   0.901   6.337   0.111  0.8816 -1.2856  1.1054
 4249TIP3    H212712   0.977   6.302  -0.015  0.0722  2.1804 -0.4465
 4250TIP3   OH212713   0.058   3.565   0.546 -0.2177  0.1680  0.4979
 4250TIP3    H112714   0.024   3.588   0.459 -0.4206 -1.4775  0.1109
 4250TIP3    H212715  -0.002   3.608   0.607 -0.6042  0.6089 -0.1765
 4251TIP3   OH212716   0.063   3.067   2.859  0.1930 -0.0927  0.1897
 4251TIP3    H112717   0.047   3.145   2.806  2.3059 -0.5949 -1.3184
 4251TIP3    H212718   0.097   3.002   2.797  2.5428 -0.8100  2.0670
 4252TIP3   OH212719   1.816   5.189   3.532  0.6788 -0.1227  0.0992
 4252TIP3    H112720   1.861   5.241   3.464 -0.5780 -0.1565 -0.7887
 4252TIP3    H212721   1.750   5.139   3.484 -0.3884  0.0102  1.3876
 4253TIP3   OH212722   6.698   0.373   4.076  0.1537  0.1385 -0.4580
 4253TIP3    H112723   6.715   0.306   4.141  1.8864  1.8235  0.9428
 4253TIP3    H212724   6.742   0.342   3.997 -0.4991 -1.1127 -0.3540
 4254TIP3   OH212725   2.055   1.954   1.603 -0.6826  0.3142 -0.7173
 4254TIP3    H112726   2.070   1.955   1.509 -0.5001  2.0246 -0.6994
 4254TIP3    H212727   1.973   1.906   1.613 -0.9844  0.5705 -1.8032
 4255TIP3   OH212728   7.030   6.384   0.646 -0.6935  0.3511 -0.1842
 4255TIP3    H112729   6.957   6.444   0.659 -1.1156 -0.2875  0.4696
 4255TIP3    H212730   6.995   6.298   0.669 -0.1901 -0.2007 -1.3830
 4256TIP3   OH212731   3.132   1.270   1.538  0.9416  0.0037 -0.0548
 4256TIP3    H112732   3.038   1.275   1.518  0.7446 -1.0253  0.5358
 4256TIP3    H212733   3.175   1.273   1.453  0.3683  0.2952 -0.3406
 4257TIP3   OH212734   1.334   2.032   4.116 -1.0928  0.0273  0.2221
 4257TIP3    H112735   1.242   2.007   4.128 -1.0519 -0.3182 -0.1599
 4257TIP3    H212736   1.338   2.124   4.142 -1.4733 -0.0578  0.5919
 4258TIP3   OH212737   6.192   4.908   1.402 -0.5355 -0.2697 -0.0530
 4258TIP3    H112738   6.276   4.950   1.387 -1.0013  0.7834  0.2266
 4258TIP3    H212739   6.214   4.826   1.447  0.2047  1.2300  2.5162
 4259TIP3   OH212740   2.936   0.476   0.423  0.1070  0.3773  0.2239
 4259TIP3    H112741   2.856   0.440   0.462 -1.7869  0.4678 -3.1841
 4259TIP3    H212742   2.929   0.570   0.436  0.4437  0.2745  1.2160
 4260TIP3   OH212743   6.199   2.797   4.871 -0.1830 -0.1900 -0.2954
 4260TIP3    H112744   6.179   2.824   4.961 -2.1794 -1.1014 -0.4145
 4260TIP3    H212745   6.122   2.822   4.821 -0.3088 -2.2155 -1.2037
 4261TIP3   OH212746   4.056   6.760   2.976 -0.0836  0.1477 -0.0003
 4261TIP3    H112747   4.006   6.742   3.056  1.1325  1.2477  1.0445
 4261TIP3    H212748   4.129   6.698   2.979  0.4327  0.7566  0.1871
 4262TIP3   OH212749   2.251   6.404   0.281  0.5361  0.4171  0.3509
 4262TIP3    H112750   2.179   6.392   0.218  0.9751  1.1523 -0.3105
 4262TIP3    H212751   2.219   6.365   0.362 -0.6771  0.8616  0.1062
 4263TIP3   OH212752   2.640   0.049   5.692 -0.4320  0.7737 -0.0612
 4263TIP3    H112753   2.728   0.074   5.721 -0.1346  0.5939 -0.7885
 4263TIP3    H212754   2.617  -0.026   5.746 -0.4627  1.3177  0.6836
 4264TIP3   OH212755   4.614   1.840   2.990 -0.2769 -0.2134 -0.3689
 4264TIP3    H112756   4.591   1.909   3.052 -2.7152 -0.2483 -1.1246
 4264TIP3    H212757   4.625   1.762   3.045 -1.7532 -0.1074  0.1435
 4265TIP3   OH212758   6.624   6.159   0.561  0.2711  0.6054  0.1016
 4265TIP3    H112759   6.538   6.133   0.594  0.5927 -0.5106  0.1125
 4265TIP3    H212760   6.681   6.158   0.638  0.2486  1.6201  0.1459
 4266TIP3   OH212761   4.341   5.279   2.459  0.1273  0.4325  0.3383
 4266TIP3    H112762   4.291   5.242   2.532 -0.0560  0.1803  0.0899
 4266TIP3    H212763   4.420   5.315   2.499 -0.3564  1.0356  0.7612
 4267TIP3   OH212764   2.159   2.487   0.365 -0.1432 -0.9327  0.1515
 4267TIP3    H112765   2.229   2.547   0.337  1.8800 -3.1622  0.0908
 4267TIP3    H212766   2.192   2.448   0.446 -1.9016 -1.1694  0.7855
 4268TIP3   OH212767   5.204   3.128   0.865 -0.0764 -0.0716  0.2852
 4268TIP3    H112768   5.262   3.068   0.817 -0.7071 -0.7546  0.3717
 4268TIP3    H212769   5.124   3.079   0.879 -0.1743  0.3757  1.4077
 4269TIP3   OH212770   4.598   5.788   0.198 -0.4814 -0.4869 -0.5662
 4269TIP3    H112771   4.577   5.810   0.107 -0.3848  1.1381 -0.2267
 4269TIP3    H212772   4.594   5.872   0.244  1.7699 -0.8722  0.4848
 4270TIP3   OH212773   3.792   2.861   4.385  0.3770 -0.0662  0.6192
 4270TIP3    H112774   3.801   2.853   4.290  0.3071  0.4106  0.5730
 4270TIP3    H212775   3.818   2.950   4.405 -2.0038  0.6848  0.7370
 4271TIP3   OH212776   1.075   3.923   5.843 -0.5739 -0.2948 -0.5308
 4271TIP3    H112777   1.132   3.860   5.799 -0.2578  1.1627 -2.3257
 4271TIP3    H212778   1.056   3.882   5.928 -1.5482 -3.4481 -2.0942
 4272TIP3   OH212779   2.492   3.903   1.685  0.2432 -0.3724 -0.4125
 4272TIP3    H112780   2.450   3.856   1.757  0.9050  0.6294  0.6623
 4272TIP3    H212781   2.432   3.974   1.663  0.2292 -0.4348 -0.5808
 4273TIP3   OH212782   0.723   3.332   1.528 -0.1984  0.2412 -0.4676
 4273TIP3    H112783   0.780   3.304   1.600 -0.5649 -1.1846 -0.7016
 4273TIP3    H212784   0.736   3.266   1.460 -2.6860 -0.5958 -0.2268
 4274TIP3   OH212785   1.691   6.352   2.598  0.1124 -0.2359 -0.3013
 4274TIP3    H112786   1.694   6.371   2.691  3.9638 -0.5532 -0.2196
 4274TIP3    H212787   1.642   6.269   2.591 -0.4761 -0.0519  1.3545
 4275TIP3   OH212788   1.242   5.377   5.906 -0.0158 -0.0876  0.3992
 4275TIP3    H112789   1.208   5.290   5.887  0.3011 -0.0177 -0.5685
 4275TIP3    H212790   1.314   5.388   5.844 -1.1204  1.5186 -0.6780
 4276TIP3   OH212791   4.221   6.654   1.472 -0.3535  0.6042  0.1590
 4276TIP3    H112792   4.148   6.655   1.411 -0.5148  1.0675  0.3504
 4276TIP3    H212793   4.203   6.582   1.531  0.7645 -1.1097 -1.4644
 4277TIP3   OH212794   6.288   4.977   0.231  0.1259  0.1968  0.2593
 4277TIP3    H112795   6.371   5.006   0.270  0.2412 -0.4243  0.4852
 4277TIP3    H212796   6.238   5.058   0.218 -0.9835  0.2991  4.0980
 4278TIP3   OH212797   1.927   4.437   0.224 -0.5481 -0.0858 -0.1311
 4278TIP3    H112798   2.003   4.414   0.170 -0.1178 -1.8074  1.1280
 4278TIP3    H212799   1.852   4.401   0.177 -0.5060  0.8033 -0.9109
 4279TIP3   OH212800   4.142   4.523   5.202 -0.4202 -0.6761 -0.2972
 4279TIP3    H112801   4.131   4.556   5.292 -0.0567 -0.5211 -0.3095
 4279TIP3    H212802   4.201   4.449   5.210  0.5876  0.0797 -0.5555
 4280TIP3   OH212803   4.521   3.108   3.931 -0.2111 -0.1292 -0.2809
 4280TIP3    H112804   4.452   3.168   3.959  0.5991  0.5322  0.3385
 4280TIP3    H212805   4.602   3.156   3.947  0.3966 -0.9006 -0.9923
 4281TIP3   OH212806   0.498   5.118   0.681  0.0742 -1.0083 -0.2572
 4281TIP3    H112807   0.543   5.132   0.764  0.2858 -0.7878 -0.4033
 4281TIP3    H212808   0.407   5.141   0.697  0.1025 -1.0332 -0.0688
 4282TIP3   OH212809   0.330   5.272   4.879  0.7102  0.4409  0.6984
 4282TIP3    H112810   0.411   5.319   4.900  2.1298 -0.8794 -1.3605
 4282TIP3    H212811   0.291   5.323   4.808  0.2322  0.5582  1.0444
 4283TIP3   OH212812   5.300   1.302   4.564 -0.9610 -0.1325 -0.8721
 4283TIP3    H112813   5.291   1.357   4.642  0.7842 -0.7369 -0.2067
 4283TIP3    H212814   5.350   1.356   4.503  0.7254 -0.8956 -0.2303
 4284TIP3   OH212815   0.771   0.687   1.681  0.5225  0.6761 -0.2657
 4284TIP3    H112816   0.726   0.730   1.609 -1.5500 -1.4795 -0.3730
 4284TIP3    H212817   0.718   0.708   1.758  0.1165 -0.7054 -0.1470
 4285TIP3   OH212818   5.435   0.579   1.023  0.0361  0.3674 -0.3346
 4285TIP3    H112819   5.526   0.552   1.008  0.2440  0.2802  0.9496
 4285TIP3    H212820   5.383   0.520   0.969  0.6129 -1.3018  0.8415
 4286TIP3   OH212821   6.625   1.667   4.775 -0.0337  0.1647 -0.0177
 4286TIP3    H112822   6.585   1.594   4.822 -0.3777  0.4539  0.1416
 4286TIP3    H212823   6.716   1.666   4.803 -0.0104 -0.2734 -0.1010
 4287TIP3   OH212824   4.001   1.700   1.294 -0.0210 -0.2333  0.1638
 4287TIP3    H112825   4.095   1.689   1.283  0.1082  0.9228  0.0546
 4287TIP3    H212826   3.979   1.777   1.242 -1.1575 -0.9176 -0.4057
 4288TIP3   OH212827   2.976   0.444   3.635  0.1847  0.2577  0.1433
 4288TIP3    H112828   3.042   0.497   3.592 -0.8150  2.4711  1.1764
 4288TIP3    H212829   2.981   0.468   3.728 -0.7837 -0.9444  0.5451
 4289TIP3   OH212830   3.245   0.918   0.506 -0.3176  0.1159 -0.5846
 4289TIP3    H112831   3.286   0.833   0.521  0.3110 -0.0611 -2.9021
 4289TIP3    H212832   3.170   0.920   0.566  0.8264 -1.1813  0.9713
 4290TIP3   OH212833   4.648   2.926   5.506  0.0756  0.2664 -0.0704
 4290TIP3    H112834   4.713   2.923   5.437 -0.2962 -0.5922 -0.3962
 4290TIP3    H212835   4.650   2.839   5.545 -0.6858  0.3118  0.0899
 4291TIP3   OH212836   0.195   4.264   4.465  0.3111 -0.6764 -0.5481
 4291TIP3    H112837   0.149   4.224   4.392  0.0540 -0.4640 -0.5010
 4291TIP3    H212838   0.219   4.190   4.522 -0.6153 -0.7236 -0.1984
 4292TIP3   OH212839   1.631   4.076   1.559 -0.5067  0.1943 -0.0229
 4292TIP3    H112840   1.683   4.156   1.548  0.5810 -0.5550 -0.6100
 4292TIP3    H212841   1.607   4.051   1.469  0.1420 -0.7311  0.0443
 4293TIP3   OH212842   6.854   3.403   3.437  0.2711  0.7372 -0.4347
 4293TIP3    H112843   6.870   3.374   3.348 -1.2342  1.1023 -0.8469
 4293TIP3    H212844   6.875   3.328   3.492 -0.8484 -0.2116 -1.2675
 4294TIP3   OH212845   5.922   6.310   5.861 -0.1491  0.2915  0.6781
 4294TIP3    H112846   6.002   6.297   5.911  0.3291 -0.0207 -0.1556
 4294TIP3    H212847   5.917   6.405   5.847  0.9814  0.1823 -0.6963
 4295TIP3   OH212848   5.622   0.692   2.162  0.0698  0.0690  0.1506
 4295TIP3    H112849   5.660   0.736   2.238 -0.3993 -0.1730  0.5325
 4295TIP3    H212850   5.656   0.740   2.086  0.7153  0.1739  0.5067
 4296TIP3   OH212851   3.828   6.424   0.104 -0.5836 -0.1064 -0.0205
 4296TIP3    H112852   3.816   6.504   0.155 -2.0803  0.2740 -0.9040
 4296TIP3    H212853   3.905   6.383   0.142 -0.2683  1.3381  0.9908
 4297TIP3   OH212854   1.661   1.783   3.399 -0.3434 -0.2058  0.8976
 4297TIP3    H112855   1.605   1.816   3.469  1.9240  3.0057  1.4325
 4297TIP3    H212856   1.745   1.827   3.413  0.3894  0.3238 -3.5749
 4298TIP3   OH212857   5.367   3.108   1.847  0.2677  0.2111  0.2307
 4298TIP3    H112858   5.459   3.108   1.822 -0.2799 -2.2644 -2.3628
 4298TIP3    H212859   5.320   3.091   1.765 -2.4182  0.1079  1.6622
 4299TIP3   OH212860   6.519   0.313   1.555 -0.3979 -0.0849  0.2823
 4299TIP3    H112861   6.589   0.373   1.530 -0.3183 -1.0828 -2.1365
 4299TIP3    H212862   6.566   0.232   1.580 -0.5964  0.1507  1.4784
 4300TIP3   OH212863   3.590   3.242   4.935  0.2033  0.1537  0.4531
 4300TIP3    H112864   3.535   3.275   5.007 -1.3821 -1.6796  0.1704
 4300TIP3    H212865   3.540   3.169   4.898  0.4295  1.6065 -3.1918
 4301TIP3   OH212866   4.658   6.420   3.729  0.0871  0.1078  0.7048
 4301TIP3    H112867   4.720   6.466   3.786  0.5856  0.9895 -0.4950
 4301TIP3    H212868   4.590   6.485   3.710  0.2381  0.0313 -0.1575
 4302TIP3   OH212869   4.637   1.425   4.652 -0.6377  0.5028 -0.0057
 4302TIP3    H112870   4.671   1.340   4.680  1.9773  1.6133  0.4362
 4302TIP3    H212871   4.663   1.432   4.560  2.8774  2.3901  0.9542
 4303TIP3   OH212872   4.819   6.262   0.512 -0.6418  0.7159 -0.0649
 4303TIP3    H112873   4.894   6.262   0.572 -1.1804  1.6889  0.6483
 4303TIP3    H212874   4.830   6.342   0.461 -1.1519  0.8229 -0.0058
 4304TIP3   OH212875   1.092   3.780   5.193 -0.5673 -0.6651 -0.2928
 4304TIP3    H112876   1.127   3.855   5.241 -1.7184 -1.3525  1.7950
 4304TIP3    H212877   1.019   3.816   5.143 -0.7172 -0.2576  0.2011
 4305TIP3   OH212878   0.760   3.158   0.602 -0.4891 -0.1344 -0.1326
 4305TIP3    H112879   0.750   3.253   0.614 -1.1068 -0.1367 -0.5947
 4305TIP3    H212880   0.670   3.125   0.593 -0.2534 -0.6920 -0.5049
 4306TIP3   OH212881   3.869   1.004   2.337  0.1102 -0.4266  0.3742
 4306TIP3    H112882   3.879   0.940   2.408 -1.2952 -0.0420  0.9495
 4306TIP3    H212883   3.881   1.089   2.380 -0.4899 -0.2024  0.1091
 4307TIP3   OH212884   6.344   0.560   4.381 -0.0454 -0.9732 -0.4920
 4307TIP3    H112885   6.308   0.610   4.309  0.6110  0.3300  0.0533
 4307TIP3    H212886   6.287   0.579   4.456  1.4746  0.8189  0.2845
 4308TIP3   OH212887   6.754   2.166   2.255 -0.2219 -0.5111  0.7937
 4308TIP3    H112888   6.659   2.158   2.252 -0.1420 -1.4267 -1.7548
 4308TIP3    H212889   6.772   2.252   2.216  0.0118 -0.9693 -0.1403
 4309TIP3   OH212890   4.315   5.683   2.814 -0.0931  0.1101  0.6468
 4309TIP3    H112891   4.328   5.777   2.802 -0.0623  0.1835  1.2447
 4309TIP3    H212892   4.377   5.658   2.882 -1.4202  0.0269  1.8727
 4310TIP3   OH212893   2.498   6.367   1.159  0.3635  0.1453 -0.0158
 4310TIP3    H112894   2.435   6.437   1.145  1.0338  0.6638 -0.4703
 4310TIP3    H212895   2.540   6.354   1.074  1.6072  0.5349  0.5122
 4311TIP3   OH212896   0.653   2.663   1.136  0.1906  0.5390  0.3987
 4311TIP3    H112897   0.647   2.568   1.124  0.8583  0.5359  0.0834
 4311TIP3    H212898   0.581   2.699   1.083  1.4558  0.3606 -1.5243
 4312TIP3   OH212899   4.286   3.521   5.186  0.1502  0.0250 -0.0466
 4312TIP3    H112900   4.345   3.561   5.121  1.1533 -0.2592  0.6714
 4312TIP3    H212901   4.262   3.436   5.147 -0.7920  0.6627 -0.8974
 4313TIP3   OH212902   6.502   1.262   5.241  0.0709 -0.4168  0.8439
 4313TIP3    H112903   6.429   1.201   5.228 -0.9483  0.7247  0.9442
 4313TIP3    H212904   6.580   1.213   5.216 -0.7449 -1.6440  0.6247
 4314TIP3   OH212905   6.512   0.572   5.637  0.2491  0.1458 -0.1405
 4314TIP3    H112906   6.508   0.564   5.732  0.6414 -0.3125 -0.1605
 4314TIP3    H212907   6.441   0.633   5.616  0.9231  1.2060  0.5482
 4315TIP3   OH212908   6.214   4.019   2.931 -0.4143  0.4776  0.0864
 4315TIP3    H112909   6.164   3.950   2.887 -0.0734 -0.2690  0.8378
 4315TIP3    H212910   6.243   3.978   3.013  1.4469  0.8875 -0.3241
 4316TIP3   OH212911   4.249   5.690   3.903 -0.8089  0.3217 -0.3024
 4316TIP3    H112912   4.218   5.675   3.992 -0.4320 -2.4865 -0.5513
 4316TIP3    H212913   4.298   5.772   3.907  1.8233 -1.1955  2.8449
 4317TIP3   OH212914   3.596   5.667   0.867 -0.1778  0.1729 -0.4062
 4317TIP3    H112915   3.578   5.598   0.931  1.4490 -0.9806 -1.1329
 4317TIP3    H212916   3.685   5.696   0.888 -0.6141  1.6242 -0.5110
 4318TIP3   OH212917   6.061   4.331   0.473  0.1958  0.4250  0.0938
 4318TIP3    H112918   6.104   4.275   0.407  1.5283  1.0195  0.4338
 4318TIP3    H212919   5.998   4.272   0.516  0.8529 -0.5552 -0.2382
 4319TIP3   OH212920   4.615   6.208   3.256 -0.4467 -0.6372 -0.2695
 4319TIP3    H112921   4.557   6.154   3.309 -0.4847 -0.0067  0.3513
 4319TIP3    H212922   4.595   6.298   3.283 -0.3483 -0.3086 -1.2407
 4320TIP3   OH212923   2.145   6.318   2.166  0.0324  0.4040  0.8442
 4320TIP3    H112924   2.135   6.392   2.107  0.2893  0.2372  0.5928
 4320TIP3    H212925   2.180   6.356   2.247 -0.2448  0.6184  0.8667
 4321TIP3   OH212926   4.235   1.636   0.450  0.2070 -0.1540 -0.2304
 4321TIP3    H112927   4.153   1.656   0.404 -0.2547 -1.6562 -0.1066
 4321TIP3    H212928   4.263   1.720   0.488 -1.7188  0.2228  0.4402
 4322TIP3   OH212929   5.622   3.983   3.428  0.1197 -0.5414 -0.0565
 4322TIP3    H112930   5.559   3.985   3.501 -0.1983  0.3764 -0.3381
 4322TIP3    H212931   5.567   3.968   3.351  0.3768 -0.8059 -0.1883
 4323TIP3   OH212932   5.550   6.251   5.484  0.6725  0.1210 -0.5822
 4323TIP3    H112933   5.561   6.160   5.456  1.4079 -0.2882  0.9169
 4323TIP3    H212934   5.625   6.296   5.445 -0.1435  0.2964 -2.0267
 4324TIP3   OH212935   4.449   3.706   2.010  0.3254 -0.0474  0.0290
 4324TIP3    H112936   4.392   3.642   1.968  1.1649 -0.4037 -0.5980
 4324TIP3    H212937   4.504   3.740   1.939  0.4639  0.7503  0.5077
 4325TIP3   OH212938   0.418   2.781   4.760 -0.3275  0.2478  0.2443
 4325TIP3    H112939   0.327   2.766   4.786 -0.4005 -0.0639 -0.1713
 4325TIP3    H212940   0.470   2.755   4.837 -0.5816  0.2548  0.4190
 4326TIP3   OH212941   6.009   3.438   4.775 -0.1314  0.1343 -0.2174
 4326TIP3    H112942   5.932   3.426   4.831 -1.6161 -1.4719 -2.3863
 4326TIP3    H212943   6.025   3.351   4.738  2.3860  0.5798 -0.3513
 4327TIP3   OH212944   2.269   1.930   4.879 -0.3364  0.1781 -0.2508
 4327TIP3    H112945   2.260   2.006   4.822 -0.7388  1.4897  1.4857
 4327TIP3    H212946   2.188   1.927   4.929 -1.0361 -2.3896 -1.3401
 4328TIP3   OH212947   6.349   0.983   4.673 -0.5990  0.2207 -0.2958
 4328TIP3    H112948   6.339   0.932   4.753 -2.1035 -0.5815 -0.9631
 4328TIP3    H212949   6.365   1.072   4.703  2.0846 -0.5576  0.8994
 4329TIP3   OH212950   0.736   5.593   2.202  1.0613 -0.1899  0.1636
 4329TIP3    H112951   0.670   5.525   2.191  0.8262  0.2599 -1.5026
 4329TIP3    H212952   0.688   5.670   2.233  1.2926 -0.6583  1.8155
 4330TIP3   OH212953   3.559   0.601   1.220  0.5543 -0.2426 -0.3669
 4330TIP3    H112954   3.528   0.676   1.272 -2.7071 -1.0491 -0.8934
 4330TIP3    H212955   3.606   0.546   1.283  0.9930  1.1420  0.5482
 4331TIP3   OH212956   2.419   5.078   5.658  0.3301  0.2341 -0.4197
 4331TIP3    H112957   2.368   4.999   5.676  0.8947  0.0706  0.5355
 4331TIP3    H212958   2.379   5.145   5.713  0.5101  0.3537 -0.4352
 4332TIP3   OH212959   5.841   0.244   5.308  0.2693 -0.6481  0.2032
 4332TIP3    H112960   5.900   0.294   5.251  0.2996 -1.3534 -0.3952
 4332TIP3    H212961   5.843   0.292   5.391  1.6600 -0.6369  0.1927
 4333TIP3   OH212962   6.990   3.975   4.682  0.3393  0.4239  0.1582
 4333TIP3    H112963   6.993   3.879   4.679  1.6379  0.2845  2.5904
 4333TIP3    H212964   6.907   3.998   4.641  1.0085 -1.5412 -2.6235
 4334TIP3   OH212965   5.172   6.544   4.058 -0.0333 -0.3463  0.6094
 4334TIP3    H112966   5.156   6.592   3.976  0.0939 -1.2002  0.0772
 4334TIP3    H212967   5.263   6.564   4.080 -0.0446 -0.1743  0.5072
 4335TIP3   OH212968   4.482   5.687   3.027  0.3447  0.1082  0.4260
 4335TIP3    H112969   4.448   5.766   3.071  0.7978  0.5581 -0.0201
 4335TIP3    H212970   4.554   5.658   3.083  0.4073  0.2213  0.4063
 4336TIP3   OH212971   3.572   1.062   5.589 -0.4871  0.2206 -0.2800
 4336TIP3    H112972   3.537   1.118   5.658 -1.6728  0.8721 -1.3688
 4336TIP3    H212973   3.651   1.107   5.559  0.0894 -0.1206  0.7114
 4337TIP3   OH212974   1.246   6.122   3.478  0.3920  0.1277  0.3514
 4337TIP3    H112975   1.236   6.215   3.462 -0.2816 -0.0379 -0.2456
 4337TIP3    H212976   1.206   6.108   3.564 -0.5188  0.2121 -0.0521
 4338TIP3   OH212977   2.372   3.001   2.555 -0.2020 -0.7625 -0.1332
 4338TIP3    H112978   2.402   3.090   2.541  1.5235 -1.1457  0.8342
 4338TIP3    H212979   2.347   2.998   2.648  0.1665 -1.3950 -0.0493
 4339TIP3   OH212980   4.626   3.001   5.018  0.0989 -0.6755  0.1071
 4339TIP3    H112981   4.635   3.068   5.086 -0.9431 -0.0670 -0.3261
 4339TIP3    H212982   4.696   3.022   4.955 -0.5151  0.3242 -0.2673
 4340TIP3   OH212983   3.663   6.524   4.879  0.1007 -0.6389  0.2905
 4340TIP3    H112984   3.709   6.607   4.865 -0.4614 -0.2261  0.8550
 4340TIP3    H212985   3.585   6.531   4.823 -0.5984 -0.2406  1.2735
 4341TIP3   OH212986   1.273   1.798   1.399 -0.5415  0.4529 -0.3848
 4341TIP3    H112987   1.254   1.879   1.446  0.3080  0.7156 -0.4706
 4341TIP3    H212988   1.222   1.731   1.445  0.1627  0.7267  0.8297
 4342TIP3   OH212989   3.245   1.951   3.055 -0.0983 -0.0664 -0.0332
 4342TIP3    H112990   3.323   1.928   3.106  0.7304  2.6346  0.0839
 4342TIP3    H212991   3.250   1.896   2.977  0.6815 -1.5392  1.0112
 4343TIP3   OH212992   0.472   3.700   0.401 -0.3281  0.0083  0.6759
 4343TIP3    H112993   0.496   3.793   0.404 -1.2709  0.3221 -0.5167
 4343TIP3    H212994   0.378   3.700   0.418 -0.1239 -0.8749  1.9412
 4344TIP3   OH212995   1.767   0.685   2.983  0.1644 -0.3325  0.2565
 4344TIP3    H112996   1.715   0.605   2.976 -0.2528  0.0773 -1.9921
 4344TIP3    H212997   1.738   0.726   3.065 -2.0662 -0.7789 -0.2575
 4345TIP3   OH212998   3.588   1.764   5.620  0.3033  0.1326 -0.0304
 4345TIP3    H112999   3.621   1.809   5.542  1.1458  0.3564  0.4431
 4345TIP3    H213000   3.663   1.714   5.652  0.1374  0.5013  0.9630
 4346TIP3   OH213001   5.205   5.926   4.378 -0.1964  0.5462  0.3904
 4346TIP3    H113002   5.189   5.886   4.463 -1.2810  0.8837  0.3614
 4346TIP3    H213003   5.277   5.875   4.340 -1.3240 -1.1590  0.4824
 4347TIP3   OH213004   2.637   4.581   0.068  0.2698  0.0083  0.4675
 4347TIP3    H113005   2.719   4.557   0.025  0.0016  1.2699 -0.8385
 4347TIP3    H213006   2.663   4.647   0.133  0.4169 -0.3582  0.7826
 4348TIP3   OH213007   4.721   5.252   0.908 -0.1315  0.0018  0.0057
 4348TIP3    H113008   4.643   5.206   0.878  0.7173 -0.1846 -2.0583
 4348TIP3    H213009   4.690   5.340   0.928 -0.4006  1.1308 -4.3580
 4349TIP3   OH213010   5.852   0.079   2.263  0.2499  0.1878 -0.2793
 4349TIP3    H113011   5.928   0.136   2.277  0.9209 -1.0552  1.5103
 4349TIP3    H213012   5.806   0.081   2.347 -0.0917 -1.3203 -0.4059
 4350TIP3   OH213013   4.897   4.058   0.311  0.4403 -0.2291  0.2618
 4350TIP3    H113014   4.906   4.153   0.321  1.3145 -0.0109 -1.9637
 4350TIP3    H213015   4.895   4.024   0.400  2.2156  1.6879  1.1054
 4351TIP3   OH213016   3.218   5.983   5.664 -0.0898  0.3536  0.0780
 4351TIP3    H113017   3.251   6.070   5.685 -1.0162  0.2272  2.2918
 4351TIP3    H213018   3.286   5.923   5.695 -0.7064  0.2281  1.2629
 4352TIP3   OH213019   5.012   2.197   0.840 -0.4328 -0.4786  0.3387
 4352TIP3    H113020   4.970   2.255   0.776  1.2690 -0.9328 -1.2730
 4352TIP3    H213021   5.078   2.150   0.789 -1.1844 -3.2558  1.7382
 4353TIP3   OH213022   6.419   4.474   4.810 -0.3535  0.0115 -0.4366
 4353TIP3    H113023   6.354   4.411   4.782  0.2430 -1.4081  1.1804
 4353TIP3    H213024   6.369   4.551   4.838 -1.1870 -0.3093 -1.0383
 4354TIP3   OH213025   1.854   4.652   5.131 -0.0228 -0.0296 -0.1413
 4354TIP3    H113026   1.800   4.730   5.141 -0.4210 -0.2651 -0.4099
 4354TIP3    H213027   1.888   4.635   5.219 -2.1971 -1.1619  0.5542
 4355TIP3   OH213028   4.960   4.617   4.874  0.0794  0.1388 -0.3366
 4355TIP3    H113029   4.940   4.538   4.924  2.6027  0.4776  1.3970
 4355TIP3    H213030   4.921   4.688   4.925  1.3864  0.3431  0.4354
 4356TIP3   OH213031   3.721   0.578   4.300 -0.2676  0.4494  0.1769
 4356TIP3    H113032   3.741   0.590   4.208  1.2101 -1.2764  0.2206
 4356TIP3    H213033   3.724   0.483   4.314  2.1054  0.7446  2.4988
 4357TIP3   OH213034   1.489   2.050   5.067 -0.0902  0.2252 -0.0923
 4357TIP3    H113035   1.478   2.024   5.159  1.0495  0.0265  0.0052
 4357TIP3    H213036   1.463   2.142   5.065 -1.4156 -0.1195  0.1404
 4358TIP3   OH213037   3.714   2.049   0.435  0.2820 -0.3284  0.2650
 4358TIP3    H113038   3.670   2.130   0.408  1.2161 -0.3170 -1.3655
 4358TIP3    H213039   3.767   2.074   0.510  0.0461  0.4067  0.1971
 4359TIP3   OH213040   6.778   6.697   2.305 -0.0998 -0.1669 -0.1078
 4359TIP3    H113041   6.824   6.773   2.270  0.4456 -0.8199 -0.8203
 4359TIP3    H213042   6.697   6.734   2.341 -2.2313  0.2615 -4.6751
 4360TIP3   OH213043   0.834   6.249   4.758 -0.3302  0.2914 -0.3683
 4360TIP3    H113044   0.866   6.218   4.673 -0.5055 -1.3017  0.1164
 4360TIP3    H213045   0.749   6.207   4.768  0.5509 -1.1835  1.4652
 4361TIP3   OH213046   3.508   2.150   0.859 -0.5687 -0.1131 -0.2243
 4361TIP3    H113047   3.519   2.242   0.881 -1.9614 -0.5729  2.9681
 4361TIP3    H213048   3.419   2.143   0.825 -0.8494 -0.3783  0.5304
 4362TIP3   OH213049   2.869   2.008   0.567  0.2252  0.6294  0.3326
 4362TIP3    H113050   2.807   1.950   0.523 -0.2372  1.0920  0.3738
 4362TIP3    H213051   2.929   2.035   0.497  0.3637  0.2108  0.2862
 4363TIP3   OH213052   0.226   1.082   2.666  0.1911 -0.3689  0.7472
 4363TIP3    H113053   0.223   1.016   2.735  1.9461 -0.2536  0.9712
 4363TIP3    H213054   0.236   1.165   2.712 -0.1880 -0.1162  0.3912
 4364TIP3   OH213055   2.321   0.153   4.229 -0.7595 -0.3744 -0.4549
 4364TIP3    H113056   2.390   0.088   4.219  0.1892  0.5154 -0.0043
 4364TIP3    H213057   2.349   0.226   4.173 -0.8938  0.3212  0.3591
 4365TIP3   OH213058   7.115   6.484   2.600  0.0543  0.1409 -0.2764
 4365TIP3    H113059   7.108   6.443   2.687  0.4272  0.1535 -0.2347
 4365TIP3    H213060   7.088   6.574   2.614  0.1972  0.1668 -0.1498
 4366TIP3   OH213061   4.545   1.640   2.325  0.3777 -0.4608 -0.3538
 4366TIP3    H113062   4.479   1.691   2.277  0.0638 -2.0689 -1.7041
 4366TIP3    H213063   4.497   1.604   2.399  0.0383 -0.6388 -0.6556
 4367TIP3   OH213064   4.315   2.799   4.768 -0.1821  0.2194 -0.2022
 4367TIP3    H113065   4.365   2.747   4.705 -0.4361 -1.2793  0.7825
 4367TIP3    H213066   4.314   2.887   4.731  1.2563 -0.2140 -1.3488
 4368TIP3   OH213067   1.629   1.490   3.560  0.3457 -0.2604  0.8857
 4368TIP3    H113068   1.601   1.413   3.512  2.0582 -0.9978  0.9844
 4368TIP3    H213069   1.664   1.549   3.493 -0.4120  0.1968  0.8774
 4369TIP3   OH213070   6.623   0.460   1.199 -0.4410 -0.3586 -0.6092
 4369TIP3    H113071   6.661   0.481   1.284  1.5610  0.6182 -1.6870
 4369TIP3    H213072   6.538   0.505   1.199 -0.2372  0.0565  0.6631
 4370TIP3   OH213073   4.792   0.775   4.361 -0.0043  0.3075 -0.0370
 4370TIP3    H113074   4.775   0.682   4.351  0.9234  0.2983 -2.1481
 4370TIP3    H213075   4.790   0.791   4.455 -0.5925 -1.7455  0.3293
 4371TIP3   OH213076   1.656   6.435   0.883 -0.4973  0.2885 -0.6879
 4371TIP3    H113077   1.600   6.403   0.954 -0.2199  0.6658 -0.2996
 4371TIP3    H213078   1.732   6.472   0.927  0.8011 -1.5741 -1.2460
 4372TIP3   OH213079   5.323   3.989   3.885 -0.0897  0.0152  0.3304
 4372TIP3    H113080   5.306   3.924   3.817  2.3907  0.1413 -0.4817
 4372TIP3    H213081   5.266   4.063   3.862  0.6238  0.0155 -1.5673
 4373TIP3   OH213082   1.273   6.685   0.086 -0.2350 -0.7814  0.1230
 4373TIP3    H113083   1.314   6.744   0.149  0.4630 -2.6075  1.4760
 4373TIP3    H213084   1.309   6.599   0.107 -1.0040 -1.6761 -1.9399
 4374TIP3   OH213085   4.595   3.226   0.154  0.2000  0.1411  0.6995
 4374TIP3    H113086   4.657   3.271   0.212 -0.3624 -0.6910  2.0009
 4374TIP3    H213087   4.629   3.240   0.066  2.7295 -1.0056  1.4160
 4375TIP3   OH213088   6.539   6.069   5.004  0.0312 -0.2018 -0.5225
 4375TIP3    H113089   6.547   6.068   4.909 -0.7225  1.2115 -0.6184
 4375TIP3    H213090   6.610   6.012   5.035  1.4797  0.8074 -1.8444
 4376TIP3   OH213091   6.944   5.546   2.628 -0.0525 -0.3701 -0.2373
 4376TIP3    H113092   6.972   5.516   2.715 -2.5621  1.2438  1.2667
 4376TIP3    H213093   7.007   5.613   2.604 -0.4441  0.6100  1.3396
 4377TIP3   OH213094   0.316   5.605   5.873 -0.2907  0.4849 -0.9235
 4377TIP3    H113095   0.267   5.659   5.810  1.8245  2.8531 -0.7195
 4377TIP3    H213096   0.408   5.628   5.858  0.5323 -1.3348  0.8516
 4378TIP3   OH213097   5.814   2.480   3.105 -0.2437 -0.0490 -0.8235
 4378TIP3    H113098   5.907   2.497   3.119 -0.0856 -0.8852 -0.8043
 4378TIP3    H213099   5.799   2.506   3.014 -0.2989  1.3143 -0.4427
 4379TIP3   OH213100   6.537   4.557   4.183  0.0141 -0.2436  0.6798
 4379TIP3    H113101   6.579   4.555   4.097 -0.6486  0.3465  0.3272
 4379TIP3    H213102   6.503   4.469   4.196 -2.1654  0.3040 -0.8534
 4380TIP3   OH213103   6.510   4.094   3.592  0.0849 -0.4439 -0.1322
 4380TIP3    H113104   6.592   4.141   3.607  0.7274 -1.3406 -0.7624
 4380TIP3    H213105   6.535   4.016   3.543 -0.8830 -1.7436  1.3262
 4381TIP3   OH213106   6.698   1.152   4.882 -0.5069 -0.0712  0.0058
 4381TIP3    H113107   6.677   1.065   4.848  1.2229 -0.3955 -0.3506
 4381TIP3    H213108   6.733   1.199   4.806 -2.4478  1.3681 -0.0914
 4382TIP3   OH213109   1.510   1.784   0.073 -0.6465  0.2743 -0.1030
 4382TIP3    H113110   1.577   1.720   0.100 -0.9125  0.2921  0.6273
 4382TIP3    H213111   1.461   1.802   0.153 -0.1219  1.9386 -0.1189
 4383TIP3   OH213112   3.243   0.609   5.119  0.8073  0.3201  0.0928
 4383TIP3    H113113   3.312   0.553   5.084 -1.2177 -1.5085 -1.2466
 4383TIP3    H213114   3.187   0.629   5.044 -0.5977  0.9949  1.2619
 4384TIP3   OH213115   0.835   4.515   5.256  0.4087 -0.1053  0.1255
 4384TIP3    H113116   0.758   4.464   5.233 -0.2636  1.2962 -0.8847
 4384TIP3    H213117   0.905   4.480   5.202  0.4312 -1.1871  0.8317
 4385TIP3   OH213118   6.583   3.620   1.588  0.0397  0.2734  0.1501
 4385TIP3    H113119   6.509   3.603   1.529  0.8352  0.2358 -0.8597
 4385TIP3    H213120   6.545   3.614   1.676 -0.7243 -1.9481 -0.2561
 4386TIP3   OH213121  -0.035   4.191   2.115  0.0850 -0.3751 -0.4060
 4386TIP3    H113122   0.029   4.231   2.056  0.8183 -0.6153  0.2162
 4386TIP3    H213123   0.011   4.118   2.155 -0.2163  0.1103  0.8714
 4387TIP3   OH213124   5.451   6.473   4.904 -0.6732  0.2784  1.1250
 4387TIP3    H113125   5.382   6.537   4.923 -0.3148  1.0569 -0.0638
 4387TIP3    H213126   5.528   6.526   4.882 -0.4890 -0.5319 -0.3139
 4388TIP3   OH213127   2.446   4.015   3.259 -0.2871  0.1495 -0.5898
 4388TIP3    H113128   2.383   3.954   3.299  1.4873 -1.0560  0.5000
 4388TIP3    H213129   2.500   4.045   3.333  0.0014  1.6932 -1.3910
 4389TIP3   OH213130   0.454   2.997   3.717 -0.5663 -0.1042 -0.3521
 4389TIP3    H113131   0.426   2.931   3.781 -0.9467 -1.1089 -1.5130
 4389TIP3    H213132   0.461   3.078   3.767 -2.7813 -0.4131  0.5912
 4390TIP3   OH213133   5.810   0.810   1.161 -0.5499  0.2015  0.1472
 4390TIP3    H113134   5.763   0.813   1.245  2.8374 -0.1360  2.2460
 4390TIP3    H213135   5.901   0.824   1.185  0.9273 -2.4437 -3.2221
 4391TIP3   OH213136   1.018   6.036   5.609  0.0512  0.0468  0.1726
 4391TIP3    H113137   1.033   5.993   5.693 -0.6491 -0.2607  0.1456
 4391TIP3    H213138   1.003   6.128   5.632 -1.3227 -0.2423  0.5104
 4392TIP3   OH213139   0.570   2.511   1.601 -0.9429 -0.2985  0.2861
 4392TIP3    H113140   0.574   2.499   1.696 -0.1673  0.9520  0.4403
 4392TIP3    H213141   0.598   2.602   1.587  0.2453 -0.8507 -1.2460
 4393TIP3   OH213142   6.520   5.202   0.774  0.2525 -0.0849  0.0495
 4393TIP3    H113143   6.516   5.159   0.688  0.5093  0.9420 -0.4980
 4393TIP3    H213144   6.569   5.282   0.758  0.7966 -0.1432  1.2842
 4394TIP3   OH213145   4.377   3.320   4.351  0.5244 -0.8087 -0.5505
 4394TIP3    H113146   4.463   3.287   4.323  1.8054  0.2201  1.8424
 4394TIP3    H213147   4.382   3.414   4.339  1.3900 -0.1977  3.2163
 4395TIP3   OH213148   7.166   0.102   1.954 -0.2342 -0.5095 -0.5744
 4395TIP3    H113149   7.126   0.084   1.869  1.1463 -2.2454 -0.9360
 4395TIP3    H213150   7.156   0.196   1.966 -1.0468 -0.3220 -2.3479
 4396TIP3   OH213151   3.150   2.155   2.457  0.1316 -0.0080 -0.0724
 4396TIP3    H113152   3.181   2.187   2.373 -0.1339  0.7984  0.1268
 4396TIP3    H213153   3.108   2.071   2.437  0.7823 -0.2090 -0.6111
 4397TIP3   OH213154   1.576   1.735   4.373  0.6406 -0.5386 -0.0521
 4397TIP3    H113155   1.487   1.721   4.405  0.3725 -1.4140 -1.1099
 4397TIP3    H213156   1.614   1.647   4.368  1.2500 -0.2622 -0.4467
 4398TIP3   OH213157   1.070   3.983   3.191  0.2038  0.3560  0.1552
 4398TIP3    H113158   1.090   3.979   3.285 -2.9741  0.6692  0.9827
 4398TIP3    H213159   1.043   4.074   3.176  1.4052  0.5066 -1.2836
 4399TIP3   OH213160   2.160   3.581   3.125  0.4416  0.5187  0.4205
 4399TIP3    H113161   2.238   3.628   3.157  1.5708  0.4269 -1.9576
 4399TIP3    H213162   2.178   3.566   3.032 -1.5132 -1.4095  0.2792
 4400TIP3   OH213163   2.597   2.127   3.021 -0.3416  0.3828  0.3425
 4400TIP3    H113164   2.680   2.175   3.022  0.3762 -0.8348  0.5456
 4400TIP3    H213165   2.585   2.097   3.111 -0.8090  0.2006  0.2239
 4401TIP3   OH213166   5.695   0.905   5.377 -0.0558 -0.2465 -0.0883
 4401TIP3    H113167   5.599   0.898   5.385 -0.0642 -2.6372 -1.3653
 4401TIP3    H213168   5.708   0.964   5.303 -0.4235  1.8615  1.4253
 4402TIP3   OH213169   5.839   0.646   1.785 -0.3971 -0.6199 -0.2403
 4402TIP3    H113170   5.828   0.553   1.766  0.0307 -0.9735  1.0978
 4402TIP3    H213171   5.928   0.652   1.821 -1.1802 -0.0905  1.7355
 4403TIP3   OH213172   1.864   1.402   0.733 -0.0678 -0.5628 -0.4841
 4403TIP3    H113173   1.928   1.379   0.801  0.8933  1.2026 -0.7379
 4403TIP3    H213174   1.795   1.335   0.742  1.1443 -1.7306  0.6820
 4404TIP3   OH213175   0.191   1.381   3.856  0.2655  0.6019  0.0895
 4404TIP3    H113176   0.271   1.357   3.809  0.0909  2.1120 -1.0637
 4404TIP3    H213177   0.220   1.443   3.922  0.3816 -0.8585  1.4713
 4405TIP3   OH213178   1.309   3.060   5.210  0.2332 -0.2156 -0.2272
 4405TIP3    H113179   1.308   3.047   5.115 -1.5465 -0.4593 -0.2124
 4405TIP3    H213180   1.279   3.150   5.222 -0.7893 -0.5875  0.1224
 4406TIP3   OH213181   3.439   4.500   2.502 -0.2756 -0.1937 -0.6225
 4406TIP3    H113182   3.397   4.501   2.588  0.2605 -0.9021 -0.3377
 4406TIP3    H213183   3.431   4.409   2.472  1.4695 -0.4854 -0.3356
 4407TIP3   OH213184   3.879   3.088   1.481  0.1208 -0.3063 -0.3560
 4407TIP3    H113185   3.831   3.167   1.503 -0.5651 -0.8065  0.0087
 4407TIP3    H213186   3.925   3.109   1.400 -0.7117  0.1952 -0.7098
 4408TIP3   OH213187   4.739   5.878   0.657  0.5214  0.1750  0.4086
 4408TIP3    H113188   4.689   5.934   0.598  2.1686  0.8380 -0.4364
 4408TIP3    H213189   4.675   5.817   0.693 -0.8273  0.8170 -0.8038
 4409TIP3   OH213190   6.031   0.991   3.344  0.0057 -0.1203  0.0546
 4409TIP3    H113191   6.004   0.992   3.252 -1.8101 -0.2714  0.5386
 4409TIP3    H213192   6.102   0.927   3.347 -0.6561 -0.9556 -1.0706
 4410TIP3   OH213193   0.756   0.069   2.561 -0.7188 -0.0073 -0.6712
 4410TIP3    H113194   0.662   0.079   2.544 -1.0588  1.6963  1.7246
 4410TIP3    H213195   0.760   0.011   2.638 -0.0533  2.2295  1.0723
 4411TIP3   OH213196   2.526   4.705   4.621 -0.2452 -0.5845 -0.2021
 4411TIP3    H113197   2.485   4.735   4.539  0.0652  0.1444 -0.0964
 4411TIP3    H213198   2.579   4.779   4.650  0.6316 -1.2839  0.0120
 4412TIP3   OH213199   2.031   1.154   0.440 -0.3067  0.4064 -0.5156
 4412TIP3    H113200   2.090   1.204   0.497 -1.9161  0.5483  1.1323
 4412TIP3    H213201   1.946   1.160   0.483 -1.7725  0.9760 -3.2476
 4413TIP3   OH213202   5.762   1.791   1.851 -0.5870 -0.1471  0.3337
 4413TIP3    H113203   5.768   1.825   1.940 -1.1217  2.2044 -0.4771
 4413TIP3    H213204   5.674   1.814   1.821 -0.6426 -1.4472 -0.6192
 4414TIP3   OH213205   2.571   2.433   2.107 -0.0960 -0.3671  0.4749
 4414TIP3    H113206   2.654   2.424   2.061 -0.1917 -1.6362  0.5070
 4414TIP3    H213207   2.507   2.451   2.038 -0.0093 -0.7992  0.2791
 4415TIP3   OH213208   1.001   4.387   0.787  0.0607 -0.1913 -0.1130
 4415TIP3    H113209   1.002   4.478   0.814 -2.0134 -0.6448  1.7829
 4415TIP3    H213210   0.935   4.382   0.718  2.2288  0.1712 -2.3465
 4416TIP3   OH213211   0.286   2.511   5.650 -0.0823 -0.1548  0.0873
 4416TIP3    H113212   0.227   2.504   5.725 -0.1130  0.1856  0.0992
 4416TIP3    H213213   0.365   2.551   5.686 -0.1754  0.2042 -0.1009
 4417TIP3   OH213214   6.964   2.627   0.702  0.0856 -0.1158  0.4281
 4417TIP3    H113215   6.979   2.659   0.613  2.3180 -1.3652  0.2994
 4417TIP3    H213216   6.871   2.604   0.704 -0.4949  1.8804 -0.8992
 4418TIP3   OH213217   5.576   2.377   0.721 -0.1101 -0.1662  0.1372
 4418TIP3    H113218   5.587   2.331   0.638 -1.2993 -0.5850  0.1966
 4418TIP3    H213219   5.650   2.438   0.724 -1.4635  1.8223 -2.5204
 4419TIP3   OH213220   0.452   6.674   5.261 -0.4905  0.2304  0.2155
 4419TIP3    H113221   0.522   6.704   5.203 -1.8451  0.1113 -1.5850
 4419TIP3    H213222   0.494   6.662   5.346  2.3026 -2.4056 -1.3415
 4420TIP3   OH213223   6.053   6.122   0.688 -0.0821 -0.0208 -0.3796
 4420TIP3    H113224   6.138   6.154   0.657 -1.2423  1.9725 -1.7751
 4420TIP3    H213225   6.002   6.108   0.608 -1.3203 -0.4274  0.4451
 4421TIP3   OH213226   0.257   5.353   3.222  0.6956  0.0885  0.3108
 4421TIP3    H113227   0.313   5.324   3.150 -0.5203 -0.5382 -0.4213
 4421TIP3    H213228   0.253   5.448   3.213 -0.7489 -0.0791 -1.5155
 4422TIP3   OH213229   2.268   2.100   4.021 -0.3616 -0.2139  0.4953
 4422TIP3    H113230   2.183   2.134   3.994 -0.4513  0.5733  1.7048
 4422TIP3    H213231   2.304   2.060   3.942 -1.5562  0.0487 -0.1990
 4423TIP3   OH213232   6.279   2.288   3.579  0.2722 -0.0708 -0.2432
 4423TIP3    H113233   6.305   2.271   3.670 -0.6798  3.7800  0.9688
 4423TIP3    H213234   6.345   2.350   3.547 -0.2043 -0.2832 -1.7141
 4424TIP3   OH213235   5.734   3.646   1.860 -0.0573  0.3732  0.2839
 4424TIP3    H113236   5.653   3.617   1.819  0.5985 -0.9734 -0.1253
 4424TIP3    H213237   5.779   3.698   1.793 -0.8671  1.7047  0.7420
 4425TIP3   OH213238   0.976   6.574   1.730 -0.2577 -0.1749 -0.0808
 4425TIP3    H113239   0.980   6.665   1.760  0.7308  0.4815 -2.0687
 4425TIP3    H213240   1.060   6.537   1.755 -0.6010 -0.5224  0.5896
 4426TIP3   OH213241   2.418   2.706   2.763 -0.0481  0.2427  0.5540
 4426TIP3    H113242   2.340   2.712   2.708  0.4871  1.5129 -0.0936
 4426TIP3    H213243   2.433   2.795   2.795  1.1374  0.0357  0.6502
 4427TIP3   OH213244   1.477   5.720   5.455  0.2538 -0.5679 -0.3909
 4427TIP3    H113245   1.418   5.794   5.468  2.1661  1.1742 -1.1398
 4427TIP3    H213246   1.451   5.684   5.370 -0.7811 -0.8739  0.0448
 4428TIP3   OH213247   1.297   0.782   1.062 -0.1039  0.0543  0.1835
 4428TIP3    H113248   1.383   0.807   1.028  0.0968  0.8499  1.2346
 4428TIP3    H213249   1.235   0.835   1.012  0.1431  0.7783  0.6425
 4429TIP3   OH213250   5.476   5.948   0.411  0.0344 -0.0755 -0.1606
 4429TIP3    H113251   5.435   5.969   0.495  0.5190 -0.0683  0.0788
 4429TIP3    H213252   5.569   5.940   0.431  0.0770 -0.6770 -0.5887
 4430TIP3   OH213253   6.091   5.346   5.343  0.0768  0.1457  0.4409
 4430TIP3    H113254   6.009   5.388   5.371  0.1445  0.2594  0.4671
 4430TIP3    H213255   6.062   5.274   5.286 -0.0344  0.3206  0.2736
 4431TIP3   OH213256   2.986   5.940   5.815 -0.1959  0.0756  0.5502
 4431TIP3    H113257   3.053   5.944   5.747 -0.6318  1.1955  0.1761
 4431TIP3    H213258   2.920   5.880   5.780 -0.4636  0.7206 -0.0738
 4432TIP3   OH213259   1.403   1.624   5.030  0.0346 -0.1156  0.0926
 4432TIP3    H113260   1.461   1.700   5.036 -0.2758  0.1137  0.2861
 4432TIP3    H213261   1.447   1.555   5.079  0.0527  0.1171  0.4131
 4433TIP3   OH213262   1.749   3.890   2.242 -0.1168 -0.4851  0.1616
 4433TIP3    H113263   1.699   3.972   2.234  1.8716  0.7045 -0.7687
 4433TIP3    H213264   1.786   3.894   2.330 -1.0923 -1.0538  0.6103
 4434TIP3   OH213265   1.742   3.879   0.921  0.0777 -0.6810 -0.1845
 4434TIP3    H113266   1.689   3.827   0.981  2.2987 -2.0853  0.6803
 4434TIP3    H213267   1.678   3.930   0.870 -2.0130 -1.7189  1.2645
 4435TIP3   OH213268   5.861   6.037   5.823 -0.0520 -0.2428 -0.5187
 4435TIP3    H113269   5.874   6.013   5.731 -1.9802 -0.6190 -0.7209
 4435TIP3    H213270   5.874   6.131   5.826  0.8009 -0.3346 -1.0151
 4436TIP3   OH213271   0.881   6.541   4.732  0.2117  0.6284 -0.3846
 4436TIP3    H113272   0.960   6.588   4.762 -0.1894  0.4857  0.9776
 4436TIP3    H213273   0.895   6.451   4.760 -0.2311  0.5059 -0.5560
 4437TIP3   OH213274   6.589   6.405   5.435 -0.2967  0.2008  0.0563
 4437TIP3    H113275   6.581   6.327   5.381 -0.7801 -0.1169  0.5801
 4437TIP3    H213276   6.499   6.433   5.452 -0.1292  1.4225 -0.9013
 4438TIP3   OH213277   4.555   0.160   4.602 -0.7082  0.4711  0.1237
 4438TIP3    H113278   4.643   0.151   4.639 -0.1195  2.3270 -0.7326
 4438TIP3    H213279   4.555   0.246   4.560 -2.4875 -0.0905 -1.1280
 4439TIP3   OH213280   3.979   5.443   3.749  0.4036  0.1364  0.1587
 4439TIP3    H113281   4.073   5.458   3.749  0.2133  1.4337  1.2640
 4439TIP3    H213282   3.943   5.509   3.807 -0.9850 -1.7294  1.5634
 4440TIP3   OH213283   0.387   5.568   3.038  0.5663 -0.0958 -0.2554
 4440TIP3    H113284   0.451   5.513   3.085  0.7928  0.6521  0.3321
 4440TIP3    H213285   0.437   5.646   3.014  0.1212  0.0627 -0.6665
 4441TIP3   OH213286   6.550   5.344   3.958 -0.6751 -0.2043  0.4145
 4441TIP3    H113287   6.624   5.386   3.913 -0.8833 -1.3499 -1.0739
 4441TIP3    H213288   6.476   5.402   3.940 -0.6409 -0.3590 -0.2581
 4442TIP3   OH213289   2.358   1.095   1.309  0.0275  0.1071  0.3784
 4442TIP3    H113290   2.299   1.154   1.355 -1.9093  0.4238 -2.2619
 4442TIP3    H213291   2.328   1.007   1.331  1.4814  0.0561  2.5060
 4443TIP3   OH213292   2.304   1.802   2.318  0.3848  0.1199 -0.3021
 4443TIP3    H113293   2.370   1.869   2.334  0.2515  0.3947 -0.8704
 4443TIP3    H213294   2.223   1.850   2.302 -0.3441 -0.2587  1.9568
 4444TIP3   OH213295   1.440   3.239   4.562  0.3179  0.1760 -0.1543
 4444TIP3    H113296   1.473   3.260   4.649 -0.0574 -0.1946  0.0791
 4444TIP3    H213297   1.508   3.271   4.503  1.2747 -0.9200  0.3352
 4445TIP3   OH213298   0.763   3.436   4.199  0.0306  0.0513 -0.1892
 4445TIP3    H113299   0.708   3.507   4.167  1.5386  1.1059 -0.5530
 4445TIP3    H213300   0.739   3.428   4.292 -1.6191 -0.4133 -0.6167
 4446TIP3   OH213301   1.216   0.117   5.831  0.1069  0.2728  0.0635
 4446TIP3    H113302   1.262   0.038   5.857 -0.0066  0.7130  1.7389
 4446TIP3    H213303   1.139   0.086   5.784  1.5087 -0.4929 -1.8572
 4447TIP3   OH213304   1.879   3.453   4.574  0.0881  0.3081  0.7648
 4447TIP3    H113305   1.803   3.511   4.567 -0.6387 -0.6378  0.5414
 4447TIP3    H213306   1.918   3.454   4.486 -0.7964 -0.6654  0.3341
 4448TIP3   OH213307   4.928   6.013   2.241  0.5124 -0.3871  0.5365
 4448TIP3    H113308   4.867   6.081   2.269  0.8642  0.3125 -0.3350
 4448TIP3    H213309   4.961   5.975   2.322 -0.5764 -0.3268  1.0174
 4449TIP3   OH213310   6.338   1.154   2.820  0.4048 -0.4084 -0.1624
 4449TIP3    H113311   6.316   1.101   2.896 -0.3037 -0.4225 -0.3646
 4449TIP3    H213312   6.255   1.164   2.773  1.0128 -1.2759 -1.4819
 4450TIP3   OH213313   6.767   1.599   1.698  0.0694 -0.7078 -0.1109
 4450TIP3    H113314   6.701   1.666   1.712 -0.1039 -0.7498 -0.7020
 4450TIP3    H213315   6.803   1.582   1.785  1.1141  1.1647 -0.1155
 4451TIP3   OH213316   6.613   3.265   2.289  0.0433  0.0931 -0.2037
 4451TIP3    H113317   6.583   3.296   2.374  1.2135  0.1596  0.1968
 4451TIP3    H213318   6.665   3.187   2.309  0.5294  0.2492 -0.8208
 4452TIP3   OH213319   4.237   0.143   0.612 -0.3987 -0.7741 -0.3114
 4452TIP3    H113320   4.218   0.181   0.698 -0.2657 -1.2618 -0.0613
 4452TIP3    H213321   4.315   0.189   0.581 -0.6997 -0.2920 -0.3691
 4453TIP3   OH213322   6.707   1.877   0.404 -0.3782  0.3865  0.3703
 4453TIP3    H113323   6.734   1.830   0.483 -0.1492  0.4967  0.3583
 4453TIP3    H213324   6.788   1.892   0.356 -0.6610 -0.7909 -0.5126
 4454TIP3   OH213325   3.764   4.983   0.035 -0.4013 -0.1789 -0.0093
 4454TIP3    H113326   3.731   4.943  -0.045  2.2696  0.7636 -1.7018
 4454TIP3    H213327   3.760   5.078   0.019  0.5884  0.0179  0.7515
 4455TIP3   OH213328   5.696   1.876   4.595 -0.0596  0.3117 -0.0059
 4455TIP3    H113329   5.764   1.824   4.638  0.2247 -0.7878 -1.7056
 4455TIP3    H213330   5.661   1.932   4.665  1.1170 -0.6129  1.3809
 4456TIP3   OH213331   6.341   1.362   1.661  0.5335 -0.5363 -0.4048
 4456TIP3    H113332   6.285   1.288   1.684  0.0935 -0.0410  0.1540
 4456TIP3    H213333   6.426   1.323   1.641  0.4616 -1.1406  0.4289
 4457TIP3   OH213334   6.875   1.504   0.810 -0.4927 -0.0790 -0.0533
 4457TIP3    H113335   6.798   1.498   0.867 -1.1833  0.8309 -0.8571
 4457TIP3    H213336   6.937   1.557   0.859 -0.3455 -0.8459  0.6159
 4458TIP3   OH213337   0.166   5.902   5.439  0.1066 -0.6528 -0.6173
 4458TIP3    H113338   0.235   5.842   5.410  2.1527  1.5274 -0.5207
 4458TIP3    H213339   0.184   5.984   5.393  1.3103  1.8774  3.7888
 4459TIP3   OH213340   1.753   6.752   4.519  0.5611 -0.3666 -0.4426
 4459TIP3    H113341   1.702   6.674   4.497  1.3150 -0.8770 -0.4616
 4459TIP3    H213342   1.689   6.818   4.543 -0.0777 -1.1478  0.0302
 4460TIP3   OH213343   2.669   3.495   0.976 -0.9118 -0.1933 -0.3949
 4460TIP3    H113344   2.634   3.574   0.934 -0.3904 -0.4558 -1.3459
 4460TIP3    H213345   2.650   3.425   0.914 -1.2616 -0.8109  0.3912
 4461TIP3   OH213346   1.352   6.031   3.060 -0.3275  0.0910  0.0812
 4461TIP3    H113347   1.392   6.054   3.144  2.0530  0.7618 -1.1333
 4461TIP3    H213348   1.377   6.102   3.001 -3.7662  0.7650 -0.7678
 4462TIP3   OH213349   6.986   2.679   0.428 -0.1163  0.3879  0.2399
 4462TIP3    H113350   7.066   2.649   0.385  1.5237  2.9167  1.2898
 4462TIP3    H213351   6.934   2.717   0.357  1.3733  2.1469  0.0098
 4463TIP3   OH213352   5.876   6.168   2.825 -0.8307  0.7044  0.0126
 4463TIP3    H113353   5.892   6.074   2.833 -0.1146  0.9104  1.3035
 4463TIP3    H213354   5.821   6.177   2.747  1.5217 -0.5014 -1.9083
 4464TIP3   OH213355   4.184   5.021   4.720 -0.1165 -0.1977 -0.0901
 4464TIP3    H113356   4.235   5.009   4.640  1.4600 -1.0984  0.9957
 4464TIP3    H213357   4.214   5.106   4.754  1.6876 -1.2777  1.1910
 4465TIP3   OH213358   0.046   3.931   0.294  0.7401 -0.1995 -0.4573
 4465TIP3    H113359  -0.035   3.972   0.325  1.2574 -0.7752  1.8216
 4465TIP3    H213360   0.108   4.003   0.288  0.9720 -0.2179  1.1721
 4466TIP3   OH213361   6.796   1.041   3.252  0.0782  0.2389 -0.7217
 4466TIP3    H113362   6.819   0.950   3.272  1.3279  1.1230  2.6060
 4466TIP3    H213363   6.859   1.067   3.185  2.8311 -0.1966  1.4622
 4467TIP3   OH213364   5.611   2.848   0.932 -0.1049  0.4037 -0.0729
 4467TIP3    H113365   5.598   2.942   0.921 -0.2166  0.2250 -1.6540
 4467TIP3    H213366   5.527   2.810   0.905 -0.2775 -0.1344  1.1556
 4468TIP3   OH213367   1.583   3.664   0.781 -0.1638  0.3502 -0.0506
 4468TIP3    H113368   1.527   3.606   0.832 -0.7382 -0.1075 -1.1735
 4468TIP3    H213369   1.539   3.749   0.784 -0.5853  0.1488 -0.3804
 4469TIP3   OH213370   2.516   1.260   3.318  0.1105  0.5630  0.5062
 4469TIP3    H113371   2.555   1.336   3.274 -0.6901 -0.6685 -2.4964
 4469TIP3    H213372   2.434   1.294   3.354 -0.8344  0.9428 -1.8413
 4470TIP3   OH213373   7.179   3.082   5.338 -0.7429  0.0144  0.5551
 4470TIP3    H113374   7.257   3.081   5.392  0.4825  1.7698 -1.0694
 4470TIP3    H213375   7.151   2.990   5.334 -0.0641 -0.3557  2.8887
 4471TIP3   OH213376   3.095   5.593   4.625  0.1293  0.5477  0.6436
 4471TIP3    H113377   3.099   5.681   4.663  0.1294  0.7807  0.1061
 4471TIP3    H213378   3.002   5.577   4.612  0.1252  0.4384  0.8076
 4472TIP3   OH213379   6.491   0.128   2.747  0.2729  0.0266  0.4367
 4472TIP3    H113380   6.435   0.107   2.672 -1.5101 -0.6723  1.8837
 4472TIP3    H213381   6.452   0.080   2.820  1.7178  0.9875  1.9073
 4473TIP3   OH213382   4.851   0.852   5.372 -0.0978 -0.2642  0.3819
 4473TIP3    H113383   4.900   0.926   5.337 -1.3937  2.0595  3.0867
 4473TIP3    H213384   4.895   0.829   5.454 -0.6536 -1.4659  0.3726
 4474TIP3   OH213385   7.210   6.427   5.182  0.5547 -0.3300  0.1107
 4474TIP3    H113386   7.120   6.417   5.212  0.0001  1.3618 -0.8816
 4474TIP3    H213387   7.250   6.486   5.246  0.4583  0.2847 -0.3953
 4475TIP3   OH213388   2.076   2.460   0.069 -0.1499  0.2933 -0.1687
 4475TIP3    H113389   2.123   2.502   0.141  0.1124 -0.7198  0.2688
 4475TIP3    H213390   1.992   2.433   0.107  0.1989 -0.7203 -0.0649
 4476TIP3   OH213391   7.018   3.700   4.712  0.3306 -0.2840 -0.6994
 4476TIP3    H113392   6.925   3.699   4.737  0.5264  0.1048  0.0720
 4476TIP3    H213393   7.052   3.618   4.749  0.0124 -1.1084 -2.1573
 4477TIP3   OH213394   6.095   2.167   4.853  0.3904 -0.2118 -0.1553
 4477TIP3    H113395   6.090   2.101   4.784  1.1446  0.6306 -1.0406
 4477TIP3    H213396   6.180   2.152   4.895  0.0120 -0.6049  0.4979
 4478TIP3   OH213397   4.541   1.466   5.656 -0.2436 -0.1355 -0.8225
 4478TIP3    H113398   4.447   1.452   5.665 -0.4515  1.8862  0.8471
 4478TIP3    H213399   4.549   1.522   5.579 -0.5202  0.5161 -0.3854
 4479TIP3   OH213400   3.956   1.832   4.721 -0.0755 -0.6934 -0.2176
 4479TIP3    H113401   3.938   1.764   4.657 -0.7213 -1.5419  0.8218
 4479TIP3    H213402   4.050   1.825   4.738 -0.3205 -2.1208  0.7112
 4480TIP3   OH213403   2.052   0.629   2.921  0.3438 -0.2334 -0.3524
 4480TIP3    H113404   1.959   0.629   2.945  0.3613 -0.6745 -0.2726
 4480TIP3    H213405   2.083   0.716   2.943 -0.2962  0.2537 -1.3292
 4481TIP3   OH213406   4.281   5.564   1.897 -0.2269 -0.5635 -0.0465
 4481TIP3    H113407   4.294   5.514   1.978  0.9982 -1.1852 -0.6110
 4481TIP3    H213408   4.296   5.655   1.923  2.2460 -0.9279  0.0581
 4482TIP3   OH213409   4.050   3.012   1.246 -0.4406 -0.6741 -0.6136
 4482TIP3    H113410   3.982   2.987   1.184  0.0463  1.0521 -1.9304
 4482TIP3    H213411   4.131   3.013   1.194  0.5882 -2.3343  0.8267
 4483TIP3   OH213412   4.233   0.174   5.504  0.4029  0.0423 -0.1610
 4483TIP3    H113413   4.253   0.154   5.595 -0.5091 -1.1204 -0.1886
 4483TIP3    H213414   4.318   0.183   5.462  0.9146  3.3246  1.3100
 4484TIP3   OH213415   7.152   2.256   5.547  0.0895 -0.3927 -0.3213
 4484TIP3    H113416   7.242   2.224   5.542  0.2201 -0.2367  0.8401
 4484TIP3    H213417   7.149   2.327   5.482  0.9290 -0.1218 -0.0890
 4485TIP3   OH213418   6.243   0.972   5.709  0.0458  0.1689 -0.2304
 4485TIP3    H113419   6.220   0.892   5.756 -1.3083  0.3144 -0.6200
 4485TIP3    H213420   6.191   1.040   5.751  1.5340  0.9655  0.4186
 4486TIP3   OH213421   0.117   3.150   2.016  0.2932 -0.2970  0.2748
 4486TIP3    H113422   0.181   3.078   2.021  0.6463 -0.0312 -0.3622
 4486TIP3    H213423   0.033   3.109   2.037  0.5293 -0.8483  0.1598
 4487TIP3   OH213424   5.054   4.160   3.173 -0.2146 -0.4624  0.1328
 4487TIP3    H113425   5.107   4.234   3.202  0.6400 -0.4524 -1.3635
 4487TIP3    H213426   4.969   4.198   3.152 -0.0684 -0.0622  0.2514
 4488TIP3   OH213427   0.046   4.151   0.648 -0.2449  0.0855 -0.0268
 4488TIP3    H113428  -0.013   4.202   0.703  1.0626  1.3143  0.2959
 4488TIP3    H213429   0.099   4.216   0.602  3.1485 -0.8279  2.1962
 4489TIP3   OH213430   3.376   3.806   1.132 -0.8617 -0.0201  0.6618
 4489TIP3    H113431   3.326   3.751   1.192  1.2899 -0.4510  2.1867
 4489TIP3    H213432   3.335   3.893   1.140 -1.8750 -0.5329  1.1962
 4490TIP3   OH213433   5.406   4.503   5.402 -0.7196  0.9959 -0.3195
 4490TIP3    H113434   5.390   4.593   5.373 -1.4978  1.2547  0.8306
 4490TIP3    H213435   5.332   4.483   5.460 -0.9086 -0.6330 -1.0831
 4491TIP3   OH213436   4.807   4.194   1.503  0.1894 -0.5270  0.0144
 4491TIP3    H113437   4.852   4.274   1.478  1.6332 -1.3356 -0.1074
 4491TIP3    H213438   4.721   4.222   1.532  0.7139  1.0739  0.0915
 4492TIP3   OH213439   3.980   2.155   3.855  0.2632 -0.3678  0.4119
 4492TIP3    H113440   3.997   2.155   3.760 -0.4928 -2.3984  0.2276
 4492TIP3    H213441   3.981   2.063   3.879 -1.7435 -0.0466  1.9821
 4493TIP3   OH213442   2.050   0.625   0.051  0.0364 -0.1923 -0.3673
 4493TIP3    H113443   2.134   0.581   0.041 -0.7033 -1.4427 -1.3973
 4493TIP3    H213444   2.005   0.575   0.120  0.0483  0.3568  0.0501
 4494TIP3   OH213445   4.613   3.296   4.254  0.0279 -0.3781 -0.1701
 4494TIP3    H113446   4.705   3.306   4.276 -0.2881  0.2584  0.9286
 4494TIP3    H213447   4.594   3.371   4.197 -0.5628  1.4020  2.2169
 4495TIP3   OH213448   3.997   0.440   0.765 -0.3111 -0.0412  0.1446
 4495TIP3    H113449   4.082   0.411   0.799 -1.4847 -3.2474  0.6522
 4495TIP3    H213450   3.946   0.461   0.844  0.2264  2.8956 -0.1846
 4496TIP3   OH213451   0.669   4.230   0.316  0.4232 -0.4772  0.0528
 4496TIP3    H113452   0.615   4.309   0.325 -1.4403 -1.5679 -0.8881
 4496TIP3    H213453   0.731   4.251   0.246  0.6778  0.5036  0.5489
 4497TIP3   OH213454   3.246   0.034   1.691  0.6695 -0.1388  0.4818
 4497TIP3    H113455   3.285   0.110   1.734  0.9160  0.7751 -1.2704
 4497TIP3    H213456   3.188  -0.003   1.757  1.5200  0.8018  1.8121
 4498TIP3   OH213457   4.640   5.814   2.783 -1.0426 -0.2880 -0.2816
 4498TIP3    H113458   4.582   5.800   2.857 -1.8072  0.8058 -0.6483
 4498TIP3    H213459   4.599   5.884   2.732 -1.1469 -1.7351 -2.3528
 4499TIP3   OH213460   4.644   5.336   2.411  0.0892 -1.0972 -0.5438
 4499TIP3    H113461   4.688   5.266   2.459  1.1025  0.3071  0.6677
 4499TIP3    H213462   4.712   5.372   2.354  0.0727 -0.0699  0.0472
 4500TIP3   OH213463   7.175   1.015   4.024  0.1719  0.2133  0.4054
 4500TIP3    H113464   7.138   1.103   4.035  1.9705  0.8297  2.2560
 4500TIP3    H213465   7.118   0.959   4.077 -1.1476  0.1581 -1.0035
 4501TIP3   OH213466   0.398   2.084   4.769  0.1240  0.0505  0.0021
 4501TIP3    H113467   0.385   1.991   4.753  3.9220 -0.4924 -0.9024
 4501TIP3    H213468   0.363   2.127   4.691 -1.5312 -0.5505  0.3682
 4502TIP3   OH213469   4.826   4.652   0.697  0.2235  0.2726 -0.4766
 4502TIP3    H113470   4.861   4.629   0.610  0.2352  0.8931 -0.6383
 4502TIP3    H213471   4.741   4.609   0.700  1.4165 -2.2823  0.3786
 4503TIP3   OH213472   0.211   1.456   5.774 -0.7803  0.2248 -0.1297
 4503TIP3    H113473   0.217   1.440   5.869  0.2192  0.7518 -0.0913
 4503TIP3    H213474   0.197   1.369   5.737  0.3645 -0.2184  0.4006
 4504TIP3   OH213475   3.533   1.051   3.033  0.3344 -0.1251  0.2347
 4504TIP3    H113476   3.542   1.141   3.066 -0.6452 -0.0203  0.2474
 4504TIP3    H213477   3.504   1.000   3.109  0.2015 -0.3183  0.0542
 4505TIP3   OH213478   6.649   2.736   1.992  0.0627  0.3649  0.5072
 4505TIP3    H113479   6.638   2.710   2.083  0.6699  1.0127  0.7807
 4505TIP3    H213480   6.645   2.832   1.995  2.0752  0.4969  0.1563
 4506TIP3   OH213481   1.453   0.424   2.160  0.2457 -0.2032 -0.4351
 4506TIP3    H113482   1.526   0.399   2.216 -0.6223 -1.0355  0.3588
 4506TIP3    H213483   1.487   0.417   2.071  1.0194 -0.9496 -0.0906
 4507TIP3   OH213484   1.356   0.652   1.542  0.4150  0.0600 -0.1916
 4507TIP3    H113485   1.320   0.623   1.458  2.0494 -0.0638 -0.8944
 4507TIP3    H213486   1.307   0.732   1.563  1.0926  1.0669 -2.1435
 4508TIP3   OH213487   1.283   4.380   0.937 -0.2605  0.2210  0.1664
 4508TIP3    H113488   1.281   4.325   0.858 -0.8699  0.7958 -0.2292
 4508TIP3    H213489   1.284   4.318   1.009  2.1990 -0.3690 -0.2761
 4509TIP3   OH213490   6.624   6.012   1.093  0.2917  0.2412  0.1477
 4509TIP3    H113491   6.611   5.968   1.177 -1.0410  0.7101  0.2082
 4509TIP3    H213492   6.536   6.037   1.065  0.4612 -1.4407 -2.2300
 4510TIP3   OH213493   0.113   6.351   5.846  0.3975 -0.2311  0.4444
 4510TIP3    H113494   0.106   6.378   5.754  2.0334 -0.3678  0.2521
 4510TIP3    H213495   0.125   6.433   5.893 -0.6911 -0.1387  0.5821
 4511TIP3   OH213496   3.575   3.025   1.356  0.0377 -0.5261  0.0084
 4511TIP3    H113497   3.534   3.112   1.361  0.4410 -0.3155 -0.2386
 4511TIP3    H213498   3.570   2.991   1.445 -0.0104 -0.1911  0.1368
 4512TIP3   OH213499   6.869   3.373   2.960  0.3081  0.0891 -0.0133
 4512TIP3    H113500   6.965   3.366   2.955  0.3115  0.1537 -0.0421
 4512TIP3    H213501   6.842   3.400   2.872  0.0017 -2.6996 -0.8547
 4513TIP3   OH213502   4.995   2.252   4.117 -0.6635  0.3757  0.1707
 4513TIP3    H113503   4.923   2.198   4.148  0.4006 -1.1658  0.0592
 4513TIP3    H213504   5.029   2.205   4.040  1.1601  0.4501  0.8854
 4514TIP3   OH213505   4.553   0.747   0.486  0.2689 -0.4209 -0.1921
 4514TIP3    H113506   4.623   0.705   0.435 -0.1389  0.6948 -1.7594
 4514TIP3    H213507   4.580   0.839   0.491 -1.6914  0.3366 -2.0508
 4515TIP3   OH213508   1.706   2.314   0.875 -0.2668 -0.3737  0.4356
 4515TIP3    H113509   1.702   2.409   0.865 -2.4178 -0.6609 -3.2461
 4515TIP3    H213510   1.724   2.281   0.787 -2.2247 -3.4012  1.0060
 4516TIP3   OH213511   5.558   6.111   5.744 -0.2694 -0.4267 -0.2181
 4516TIP3    H113512   5.531   6.030   5.701 -2.7069  0.1214  0.1578
 4516TIP3    H213513   5.582   6.169   5.672  4.0247 -2.1257 -0.4670
 4517TIP3   OH213514   1.292   5.484   4.770  0.1607  0.1842  0.3824
 4517TIP3    H113515   1.299   5.393   4.740 -0.8369 -0.4661  2.0166
 4517TIP3    H213516   1.279   5.534   4.689  2.6574 -0.8425 -0.7606
 4518TIP3   OH213517   2.298   1.637   3.696  0.0176 -0.1170  0.2377
 4518TIP3    H113518   2.340   1.622   3.611 -0.6195  2.1790 -0.5706
 4518TIP3    H213519   2.206   1.614   3.681  0.1340 -0.9174  0.7045
 4519TIP3   OH213520   2.844   5.914   2.126 -0.1462 -0.8094  0.6796
 4519TIP3    H113521   2.918   5.893   2.182 -0.4612 -2.0935  0.6489
 4519TIP3    H213522   2.767   5.881   2.174 -0.8846  1.6244  1.3114
 4520TIP3   OH213523   4.162   3.062   3.990  0.7319 -0.2583  0.9101
 4520TIP3    H113524   4.075   3.025   3.973  0.9934  0.2469 -2.0952
 4520TIP3    H213525   4.221   3.009   3.938  1.8627  0.9684  0.8998
 4521TIP3   OH213526   1.495   0.427   1.631  0.1854  0.1641  0.0077
 4521TIP3    H113527   1.449   0.509   1.614  0.5746  0.4766  0.4177
 4521TIP3    H213528   1.440   0.359   1.593  0.1497  0.6725 -0.8668
 4522TIP3   OH213529   7.050   4.367   2.800 -0.6489  0.1653  0.4899
 4522TIP3    H113530   7.032   4.340   2.710  1.7433  0.9107 -0.3151
 4522TIP3    H213531   6.978   4.331   2.852 -0.6362 -2.7348 -1.2890
 4523TIP3   OH213532   3.852   2.133   1.912 -0.7423  0.7477  0.2789
 4523TIP3    H113533   3.839   2.222   1.880 -0.5155  1.5112  2.1737
 4523TIP3    H213534   3.788   2.123   1.982 -0.7678 -0.6001  0.0849
 4524TIP3   OH213535   4.087   6.395   4.772 -0.0626 -0.0587  0.2189
 4524TIP3    H113536   4.135   6.459   4.825  1.3257 -0.6306 -0.3210
 4524TIP3    H213537   4.005   6.381   4.820  1.3632 -0.9679  2.5552
 4525TIP3   OH213538   6.218   4.991   3.211  0.2221 -0.0094  0.3766
 4525TIP3    H113539   6.279   4.920   3.191  0.5813  0.2746  0.4614
 4525TIP3    H213540   6.187   5.020   3.125  0.4608  0.0687  0.3156
 4526TIP3   OH213541   2.704   5.671   2.740  0.2502  0.5824 -0.6287
 4526TIP3    H113542   2.664   5.676   2.654 -0.5352  1.7219 -0.2267
 4526TIP3    H213543   2.634   5.694   2.801  0.5636 -1.0190  0.4045
 4527TIP3   OH213544   6.959   0.592   1.322  0.0399 -0.4405 -0.1415
 4527TIP3    H113545   7.016   0.546   1.261  1.4995  0.2631  0.6339
 4527TIP3    H213546   7.019   0.628   1.388 -1.3731 -0.2509  1.0936
 4528TIP3   OH213547   6.069   1.983   3.991  0.3066 -0.4463 -0.3532
 4528TIP3    H113548   6.159   1.960   3.968  0.5388  0.2247 -0.1300
 4528TIP3    H213549   6.067   1.980   4.086 -0.4233 -2.3325 -0.3709
 4529TIP3   OH213550   0.613   1.565   0.204  0.0050 -0.0458 -0.0623
 4529TIP3    H113551   0.698   1.523   0.187 -0.9540 -1.6104 -1.1839
 4529TIP3    H213552   0.552   1.493   0.218 -1.2160  1.0520  0.5235
 4530TIP3   OH213553   0.440   1.680   2.066 -0.0305  0.7478  0.5263
 4530TIP3    H113554   0.433   1.750   2.001 -0.7423 -0.8619 -1.2294
 4530TIP3    H213555   0.525   1.640   2.048 -0.7403 -0.4681 -0.2883
 4531TIP3   OH213556   1.127   2.871   2.783 -0.1468  0.3655 -0.3745
 4531TIP3    H113557   1.071   2.828   2.848 -0.9583  1.8207 -0.0639
 4531TIP3    H213558   1.176   2.800   2.743  0.3443 -0.5973  1.7933
 4532TIP3   OH213559   4.643   5.509   0.983  0.1180 -0.3946  0.2462
 4532TIP3    H113560   4.552   5.486   1.002  0.0980 -1.5632 -1.1250
 4532TIP3    H213561   4.638   5.597   0.945 -0.4088 -0.3520  0.4050
 4533TIP3   OH213562   1.843   0.224   4.303  0.1937  0.2847 -1.1452
 4533TIP3    H113563   1.933   0.202   4.324 -0.2950 -0.3852  0.3607
 4533TIP3    H213564   1.823   0.302   4.354 -0.3092 -0.0184 -0.8631
 4534TIP3   OH213565   1.025   2.758   4.048  0.0358 -0.1765  0.3619
 4534TIP3    H113566   1.031   2.667   4.016 -1.4793 -1.3932  3.1715
 4534TIP3    H213567   1.069   2.755   4.134 -0.4790  1.6411  0.7141
 4535TIP3   OH213568   2.984   0.926   0.682 -0.1145 -1.0215  0.0205
 4535TIP3    H113569   3.029   1.010   0.693 -0.7147 -0.8204  0.9899
 4535TIP3    H213570   2.940   0.934   0.597 -1.9071  0.4843  1.0316
 4536TIP3   OH213571   0.299   2.422   1.517 -0.5570 -0.2949  0.1089
 4536TIP3    H113572   0.389   2.398   1.538 -0.3664  2.4381  3.1948
 4536TIP3    H213573   0.307   2.490   1.450 -0.1592  0.8268  1.2526
 4537TIP3   OH213574   0.995   0.364   5.505  0.4535  0.0761  0.1812
 4537TIP3    H113575   1.031   0.365   5.594 -0.2332 -0.7041  0.4705
 4537TIP3    H213576   0.926   0.431   5.507  0.5552  0.1818  0.1828
 4538TIP3   OH213577   1.585   0.121   0.313  0.0855  0.1574 -0.1852
 4538TIP3    H113578   1.624   0.112   0.226  3.2094  0.1952  1.0900
 4538TIP3    H213579   1.572   0.031   0.343 -3.1759  0.0577 -1.4172
 4539TIP3   OH213580   6.286   0.958   1.029  0.1768 -0.1642  0.4083
 4539TIP3    H113581   6.280   0.981   1.122  0.7149 -1.9921  0.9402
 4539TIP3    H213582   6.236   1.026   0.984 -1.0854  0.1196  2.1415
 4540TIP3   OH213583   3.659   3.926   3.545  0.0895 -0.5205  0.0424
 4540TIP3    H113584   3.618   3.891   3.624 -2.0470 -1.5001 -1.3956
 4540TIP3    H213585   3.747   3.890   3.546 -0.0972 -1.0363  1.6460
 4541TIP3   OH213586   3.828   4.575   4.606  0.1063  0.2451 -0.0335
 4541TIP3    H113587   3.833   4.589   4.511 -2.4447  0.9735 -0.1478
 4541TIP3    H213588   3.833   4.480   4.616  1.2811  0.2096 -0.7969
 4542TIP3   OH213589   0.947   4.014   3.761 -0.6012  0.5920 -0.1280
 4542TIP3    H113590   0.932   4.073   3.687 -1.0477  0.0544 -0.4868
 4542TIP3    H213591   1.032   4.038   3.795  0.1686  0.0720 -1.5839
 4543TIP3   OH213592   2.880   6.380   0.587  0.0303  0.0243  0.0409
 4543TIP3    H113593   2.903   6.449   0.524  0.1206  0.3420  0.4237
 4543TIP3    H213594   2.956   6.321   0.586  1.9010  2.1555  2.8568
 4544TIP3   OH213595   4.538   6.180   4.639  0.0856 -0.0275 -0.2041
 4544TIP3    H113596   4.610   6.144   4.588  1.5694  1.2121  0.8974
 4544TIP3    H213597   4.472   6.111   4.641  2.1153 -2.0671  0.5216
 4545TIP3   OH213598   0.213   5.180   0.418 -0.2988 -0.0264 -0.0841
 4545TIP3    H113599   0.302   5.146   0.411 -0.4024 -0.1154 -1.1700
 4545TIP3    H213600   0.196   5.184   0.512  1.1586  0.8407  0.1719
 4546TIP3   OH213601   0.284   3.084   4.967  0.2028  0.2499  0.6828
 4546TIP3    H113602   0.195   3.060   4.939  0.0595  3.0086 -1.7006
 4546TIP3    H213603   0.272   3.163   5.020  1.2030  0.3087  0.8336
 4547TIP3   OH213604   4.678   1.251   4.172  0.4136  0.3040 -0.0590
 4547TIP3    H113605   4.635   1.202   4.243  0.5195 -0.1635 -0.3152
 4547TIP3    H213606   4.687   1.187   4.101  2.8632 -0.0473  0.4903
 4548TIP3   OH213607   0.111   2.484   2.835 -0.3407 -0.0533  0.4901
 4548TIP3    H113608   0.061   2.537   2.773 -0.3340 -0.1524  0.3990
 4548TIP3    H213609   0.045   2.450   2.896 -0.6351 -1.5794 -0.6352
 4549TIP3   OH213610   1.617   5.723   1.199  0.0168 -0.2804  0.7490
 4549TIP3    H113611   1.627   5.659   1.128  0.3507 -0.1323  0.6585
 4549TIP3    H213612   1.685   5.699   1.262  2.9625  2.3376 -1.0815
 4550TIP3   OH213613   4.949   5.231   0.725  0.3255  0.1643 -0.3798
 4550TIP3    H113614   4.879   5.209   0.787  1.1322 -1.5789 -0.0036
 4550TIP3    H213615   5.017   5.269   0.780  0.6506 -0.4796 -0.3218
 4551TIP3   OH213616   6.329   6.409   3.758 -0.3180 -0.1537  0.9916
 4551TIP3    H113617   6.302   6.499   3.739  0.4516 -0.4931 -2.5787
 4551TIP3    H213618   6.251   6.368   3.797 -1.1789  1.6550  1.2720
 4552TIP3   OH213619   6.123   2.257   1.828  0.1260 -0.3746 -0.7089
 4552TIP3    H113620   6.097   2.216   1.745  1.3508  1.4861 -2.0811
 4552TIP3    H213621   6.119   2.185   1.891  1.4332 -2.4780 -2.8082
 4553TIP3   OH213622   5.869   4.075   4.068  0.2888 -0.2079 -0.1886
 4553TIP3    H113623   5.934   4.046   4.003  0.0185  0.7122 -0.8779
 4553TIP3    H213624   5.894   4.028   4.148  0.6719 -1.3104 -0.9196
 4554TIP3   OH213625   2.656   4.203   0.093  0.0800 -0.0163 -0.4113
 4554TIP3    H113626   2.619   4.234   0.011  0.2065 -0.7796 -0.7646
 4554TIP3    H213627   2.590   4.144   0.130  0.2025 -0.0140 -0.1827
 4555TIP3   OH213628   5.337   5.374   3.485 -0.0388 -0.2166  0.1230
 4555TIP3    H113629   5.365   5.371   3.576 -1.5309  0.1653  0.6144
 4555TIP3    H213630   5.377   5.297   3.445 -0.0751 -0.8543  1.2955
 4556TIP3   OH213631   4.022   5.886   0.134  0.4227  0.0170 -0.0031
 4556TIP3    H113632   4.098   5.935   0.166  0.8694 -0.7549  0.1375
 4556TIP3    H213633   3.970   5.951   0.088  0.5421  0.8304  0.9697
 4557TIP3   OH213634   0.522   2.089   3.019 -0.1133 -0.1387 -0.3116
 4557TIP3    H113635   0.593   2.037   2.980 -0.0090  1.0848 -1.8461
 4557TIP3    H213636   0.502   2.044   3.102  3.8327  0.5934  1.2550
 4558TIP3   OH213637   1.234   5.882   4.929 -0.4557  0.4317 -0.0250
 4558TIP3    H113638   1.324   5.853   4.916 -0.6574 -0.1983 -0.0856
 4558TIP3    H213639   1.238   5.945   5.001  0.0105  0.2907  0.0726
 4559TIP3   OH213640   5.979   0.994   0.489  0.0931 -0.0503  0.0601
 4559TIP3    H113641   5.921   1.047   0.544 -0.2443  0.9120 -1.1894
 4559TIP3    H213642   5.930   0.979   0.409  1.2338  0.0522 -0.6771
 4560TIP3   OH213643   1.614   1.853   5.888 -0.0900  0.0988  0.2807
 4560TIP3    H113644   1.708   1.868   5.875  0.0024 -0.9324 -0.3292
 4560TIP3    H213645   1.576   1.859   5.801 -0.1749 -2.0601  0.0958
 4561TIP3   OH213646   2.978   2.201   4.628 -0.5718 -0.3683  0.0007
 4561TIP3    H113647   3.053   2.218   4.685 -0.6962 -1.5128  0.5400
 4561TIP3    H213648   2.907   2.253   4.666  0.0286  1.0975 -0.7866
 4562TIP3   OH213649   2.912   3.720   0.637 -0.9580 -0.0355  0.0682
 4562TIP3    H113650   2.935   3.663   0.563 -0.9263 -1.0705  0.8526
 4562TIP3    H213651   2.880   3.800   0.596  0.8215  0.1483 -1.0561
 4563TIP3   OH213652   2.420   1.926   2.877 -0.1998 -0.7233 -0.0290
 4563TIP3    H113653   2.489   1.865   2.852  0.0958 -0.3282 -0.1905
 4563TIP3    H213654   2.465   1.995   2.926 -0.5235 -0.6171  0.1202
 4564TIP3   OH213655   4.428   1.752   3.359 -0.2114  0.6875  0.3514
 4564TIP3    H113656   4.458   1.762   3.450  1.0936 -1.4053  0.2260
 4564TIP3    H213657   4.370   1.826   3.345 -0.9475  0.7552  3.0978
 4565TIP3   OH213658   7.076   2.144   1.763 -0.1323 -0.1248  0.0039
 4565TIP3    H113659   7.104   2.145   1.854 -2.4879 -1.9264  0.8499
 4565TIP3    H213660   7.122   2.218   1.723  1.5871  0.2351  2.4116
 4566TIP3   OH213661   2.211   5.652   1.928  0.2097  0.6039  0.5557
 4566TIP3    H113662   2.203   5.744   1.903 -0.0973  0.5529  0.4713
 4566TIP3    H213663   2.305   5.633   1.919  0.1288  0.6222 -0.4256
 4567TIP3   OH213664   5.294   6.346   1.612  0.4392 -0.0494 -0.1105
 4567TIP3    H113665   5.243   6.317   1.687  1.8241 -0.1707  0.8274
 4567TIP3    H213666   5.380   6.369   1.649  0.3634  2.3712 -1.2680
 4568TIP3   OH213667   5.511   3.288   2.215  0.4429 -0.3704  0.3920
 4568TIP3    H113668   5.521   3.383   2.223  0.8062 -0.4406  0.7937
 4568TIP3    H213669   5.529   3.254   2.302  0.7343 -0.8448  0.1508
 4569TIP3   OH213670   5.060   1.373   0.073 -0.4372 -0.4034 -0.3890
 4569TIP3    H113671   4.975   1.383   0.029  0.0338  1.3125 -0.9494
 4569TIP3    H213672   5.119   1.342   0.004  0.0293  1.1671 -0.7345
 4570TIP3   OH213673   6.917   5.777   0.740  0.1823 -0.5150  0.0986
 4570TIP3    H113674   6.864   5.774   0.819 -1.5789 -2.5644 -1.0351
 4570TIP3    H213675   6.986   5.712   0.755  0.8680  0.3067  0.5735
 4571TIP3   OH213676   6.760   3.993   2.801 -0.1559  0.0497  0.2025
 4571TIP3    H113677   6.764   4.033   2.888  0.1381  1.1473 -0.2974
 4571TIP3    H213678   6.692   3.926   2.808 -1.0781  1.0328  0.9083
 4572TIP3   OH213679   6.016   5.864   3.867  0.1949 -0.2516 -0.3342
 4572TIP3    H113680   6.049   5.945   3.828  1.5783 -0.3654  0.5063
 4572TIP3    H213681   5.923   5.864   3.848  0.3607  1.0183 -1.2615
 4573TIP3   OH213682   5.011   3.696   4.368 -0.3646 -0.1983  0.2880
 4573TIP3    H113683   4.940   3.744   4.324 -0.7530 -0.2689  0.8295
 4573TIP3    H213684   4.975   3.673   4.453  0.4790  0.1812  0.7593
 4574TIP3   OH213685   2.411   3.300   1.716  0.3451 -0.1637  0.5604
 4574TIP3    H113686   2.467   3.326   1.789  0.5475 -1.5915  0.9414
 4574TIP3    H213687   2.467   3.304   1.639  0.1035  1.4459  0.4451
 4575TIP3   OH213688   1.454   6.653   1.045 -0.2024  0.5647  0.3815
 4575TIP3    H113689   1.546   6.628   1.043 -0.4124 -0.2691 -1.1313
 4575TIP3    H213690   1.424   6.630   1.133  0.1981 -2.6335 -0.1823
 4576TIP3   OH213691   6.351   5.847   1.631  0.4489  0.5310 -0.3694
 4576TIP3    H113692   6.390   5.770   1.673  1.9883 -0.3903 -3.1942
 4576TIP3    H213693   6.397   5.921   1.669  2.4353 -0.3233 -0.9531
 4577TIP3   OH213694   5.725   2.520   2.832  0.1702  0.4181 -0.2158
 4577TIP3    H113695   5.725   2.604   2.787 -2.3407  0.2054 -0.7454
 4577TIP3    H213696   5.641   2.480   2.810 -0.0286 -0.9119  2.4707
 4578TIP3   OH213697   3.129   4.191   3.734 -0.7782 -0.1243  0.2255
 4578TIP3    H113698   3.078   4.240   3.798 -1.8169  0.0525 -0.7273
 4578TIP3    H213699   3.146   4.253   3.663  0.6885 -0.2060  0.4665
 4579TIP3   OH213700   0.164   5.251   1.975  0.2396 -0.1050  0.3895
 4579TIP3    H113701   0.139   5.267   2.066 -1.8256 -1.1298  0.0586
 4579TIP3    H213702   0.094   5.289   1.923  1.3176  0.3517 -0.8020
 4580TIP3   OH213703   5.069   0.489   0.616 -0.3321  0.2920 -0.1873
 4580TIP3    H113704   5.069   0.564   0.675 -1.0068  0.4470 -0.3750
 4580TIP3    H213705   5.132   0.512   0.547  0.6944 -0.0199  0.6148
 4581TIP3   OH213706   6.823   1.244   3.990 -0.4545  0.1625  0.1675
 4581TIP3    H113707   6.759   1.179   4.021 -0.5532 -0.1222 -0.6294
 4581TIP3    H213708   6.786   1.328   4.018  0.3533 -0.1551  2.4558
 4582TIP3   OH213709   6.816   0.181   5.161  0.4424 -0.2616  0.5233
 4582TIP3    H113710   6.865   0.184   5.243  1.1688 -0.3906  0.1005
 4582TIP3    H213711   6.724   0.191   5.188  0.8286  2.2837  1.1413
 4583TIP3   OH213712   3.015   4.294   5.796 -0.2532  0.3437  0.0019
 4583TIP3    H113713   3.092   4.339   5.761 -0.7073  1.0114 -0.1709
 4583TIP3    H213714   2.953   4.365   5.814 -0.2705 -0.0261  1.5692
 4584TIP3   OH213715   1.594   6.451   2.256 -0.4027  0.4063 -0.0728
 4584TIP3    H113716   1.687   6.430   2.262 -0.0474  1.3319 -1.6149
 4584TIP3    H213717   1.587   6.539   2.292 -0.9682 -0.2405  1.4648
 4585TIP3   OH213718   2.249   3.685   0.866  0.5190  0.5721  0.2542
 4585TIP3    H113719   2.197   3.764   0.882 -0.3570  0.0474  0.0640
 4585TIP3    H213720   2.259   3.645   0.953 -0.3726  0.0832  0.1384
 4586TIP3   OH213721   2.665   6.663   0.993 -0.2809  0.1566 -0.6454
 4586TIP3    H113722   2.600   6.691   0.928 -0.5570  1.1281  0.0330
 4586TIP3    H213723   2.724   6.606   0.944 -1.1192 -0.0122 -1.4878
 4587TIP3   OH213724   3.704   4.292   4.897 -0.4709 -0.3274 -0.1058
 4587TIP3    H113725   3.657   4.375   4.887 -2.4388 -1.4427 -0.6338
 4587TIP3    H213726   3.781   4.315   4.949 -1.0895  1.7718  0.0031
 4588TIP3   OH213727   2.651   1.404   1.245 -0.0725  0.6385 -0.4084
 4588TIP3    H113728   2.556   1.400   1.253 -0.0283  1.2821  0.5753
 4588TIP3    H213729   2.675   1.488   1.284  1.1011 -0.5125  1.5102
 4589TIP3   OH213730   5.091   5.374   4.421  0.2240  0.6961 -0.2852
 4589TIP3    H113731   5.049   5.304   4.472 -0.2261  0.6091 -0.7699
 4589TIP3    H213732   5.031   5.448   4.429  1.1437  1.3351  0.9865
 4590TIP3   OH213733   0.331   4.386   3.463 -0.5929 -0.4437  0.1619
 4590TIP3    H113734   0.292   4.467   3.430  0.1548 -0.2407 -0.2373
 4590TIP3    H213735   0.398   4.364   3.399  1.0049  0.0359  1.5856
 4591TIP3   OH213736   4.761   2.300   2.762 -0.0647 -1.0381 -0.4364
 4591TIP3    H113737   4.779   2.326   2.852 -0.2594 -2.6726  0.0954
 4591TIP3    H213738   4.841   2.254   2.734 -0.2729 -1.1516 -0.8592
 4592TIP3   OH213739   4.491   6.625   0.494  0.1911  0.1637  0.6294
 4592TIP3    H113740   4.427   6.564   0.459  0.6198 -0.3475  0.7332
 4592TIP3    H213741   4.512   6.682   0.420  0.4319 -0.3538  0.2942
 4593TIP3   OH213742   1.127   5.866   0.521  0.2488 -0.1256  0.4078
 4593TIP3    H113743   1.073   5.846   0.445 -2.1212  0.7520  1.7421
 4593TIP3    H213744   1.186   5.791   0.529 -0.4910 -0.9518 -1.3798
 4594TIP3   OH213745   0.608   1.393   0.988 -0.4297 -0.1219  0.1718
 4594TIP3    H113746   0.689   1.343   0.996 -0.7536 -1.1040 -2.0010
 4594TIP3    H213747   0.556   1.366   1.064  0.8301 -0.3049  0.9941
 4595TIP3   OH213748   6.669   6.503   3.441 -0.7725 -0.5227 -1.0815
 4595TIP3    H113749   6.759   6.471   3.443 -0.5829 -0.0530 -1.5818
 4595TIP3    H213750   6.632   6.477   3.525  0.5668  1.3508  0.1763
 4596TIP3   OH213751   2.722   3.885   2.036  0.0470  0.2582 -0.0095
 4596TIP3    H113752   2.627   3.884   2.048 -0.0094  3.0454  0.5479
 4596TIP3    H213753   2.739   3.817   1.971 -2.2974 -0.4439  0.0280
 4597TIP3   OH213754   2.816   1.675   5.722  0.0762 -0.1869 -0.1236
 4597TIP3    H113755   2.883   1.693   5.656  0.3110  2.0605  0.6307
 4597TIP3    H213756   2.775   1.593   5.694  2.8530 -1.4250 -0.8178
 4598TIP3   OH213757   5.047   5.314   5.731 -0.4104 -0.4734 -0.2224
 4598TIP3    H113758   5.066   5.240   5.789 -0.9782 -0.0329  0.5411
 4598TIP3    H213759   4.980   5.282   5.671  0.6815 -1.1547 -1.1208
 4599TIP3   OH213760   5.405   4.484   1.587  0.1533  0.3362  0.1176
 4599TIP3    H113761   5.353   4.405   1.594 -1.2302  1.0989 -1.0369
 4599TIP3    H213762   5.395   4.512   1.496 -0.8232  2.7663  0.8901
 4600TIP3   OH213763   1.782   3.961   5.220 -0.4420 -0.1723  0.1495
 4600TIP3    H113764   1.715   3.895   5.240 -0.1904 -0.6191 -0.4766
 4600TIP3    H213765   1.733   4.032   5.178 -0.7831  0.2445  1.2159
 4601TIP3   OH213766   4.231   1.761   2.299 -0.2794 -0.3696 -0.4162
 4601TIP3    H113767   4.148   1.804   2.283 -0.0440 -0.8378 -3.3991
 4601TIP3    H213768   4.261   1.796   2.383 -1.7287  2.5795 -1.0223
 4602TIP3   OH213769   3.782   4.833   1.882 -0.2127 -0.2956 -0.1785
 4602TIP3    H113770   3.846   4.844   1.952 -1.2127  1.6658  0.5049
 4602TIP3    H213771   3.708   4.790   1.925 -1.4539  2.2794  0.4896
 4603TIP3   OH213772   2.317   0.060   4.805  0.1057 -0.1098 -0.2203
 4603TIP3    H113773   2.337  -0.007   4.739  0.1123 -1.1480  0.7983
 4603TIP3    H213774   2.346   0.021   4.888 -0.6035  0.8540  0.4991
 4604TIP3   OH213775   3.681   3.207   5.492 -0.5506 -0.5260 -1.0815
 4604TIP3    H113776   3.757   3.189   5.437  0.6469  0.5398  0.1712
 4604TIP3    H213777   3.682   3.302   5.504 -0.9729 -0.6971  0.4812
 4605TIP3   OH213778   5.550   1.909   4.845 -0.1031  0.5996 -0.2403
 4605TIP3    H113779   5.526   1.921   4.937  1.3272  0.4138  0.1745
 4605TIP3    H213780   5.558   1.998   4.811 -0.5259  0.6702 -0.1595
 4606TIP3   OH213781   5.071   2.107   5.232  0.7080  0.1680 -0.0492
 4606TIP3    H113782   5.145   2.116   5.292  1.5262 -0.6254 -0.9033
 4606TIP3    H213783   5.054   2.012   5.229 -0.5783  0.3567  0.3824
 4607TIP3   OH213784   4.754   4.850   1.841  0.2117 -0.1994 -0.1881
 4607TIP3    H113785   4.689   4.835   1.771  1.1405 -0.6091 -0.9904
 4607TIP3    H213786   4.823   4.786   1.823  0.1171 -0.8636  1.5880
 4608TIP3   OH213787   2.211   0.978   3.468  0.5733 -0.4049  0.6253
 4608TIP3    H113788   2.299   0.958   3.500  1.2472  0.2570 -0.7150
 4608TIP3    H213789   2.207   1.074   3.469  0.5046 -0.3673 -0.8682
 4609TIP3   OH213790   2.693   5.179   3.309  0.1325 -0.2266  0.4739
 4609TIP3    H113791   2.683   5.110   3.376  1.3035 -0.0692  0.8334
 4609TIP3    H213792   2.764   5.233   3.342  1.0902 -0.4461 -1.1601
 4610TIP3   OH213793   0.752   6.559   4.268  0.2593  0.3816 -0.2486
 4610TIP3    H113794   0.731   6.540   4.359  0.3453  0.0367 -0.3018
 4610TIP3    H213795   0.750   6.655   4.263  2.2566  0.5172  0.6045
 4611TIP3   OH213796   1.500   6.210   4.467  0.0861 -0.6509 -0.1390
 4611TIP3    H113797   1.491   6.289   4.521 -0.2961 -0.1391 -0.9311
 4611TIP3    H213798   1.591   6.183   4.480  0.6037  0.6452 -0.8070
 4612TIP3   OH213799   1.334   5.343   5.076 -0.0022  0.4987 -0.5280
 4612TIP3    H113800   1.410   5.293   5.045 -1.8140 -1.4917 -2.0562
 4612TIP3    H213801   1.258   5.293   5.046 -1.9818  1.6358  2.1495
 4613TIP3   OH213802   4.858   5.331   5.305 -0.2321 -0.2211  0.3753
 4613TIP3    H113803   4.858   5.360   5.397 -0.1232  1.4791 -0.1192
 4613TIP3    H213804   4.776   5.283   5.295 -0.0274 -0.8289  1.4705
 4614TIP3   OH213805   2.209   3.850   2.315  0.2899  0.2991 -0.5727
 4614TIP3    H113806   2.225   3.872   2.223 -0.0460 -0.8031 -0.9111
 4614TIP3    H213807   2.210   3.754   2.317  0.4662  0.3121  0.6089
 4615TIP3   OH213808   3.771   2.327   1.630 -0.2950  0.6424 -0.7742
 4615TIP3    H113809   3.682   2.297   1.648 -0.1425 -0.2637 -1.4850
 4615TIP3    H213810   3.785   2.398   1.693 -0.9186 -0.3174  0.5115
 4616TIP3   OH213811   2.390   4.229   5.765 -0.1511  0.3261  0.0826
 4616TIP3    H113812   2.369   4.285   5.839 -1.4356 -0.1123  0.0748
 4616TIP3    H213813   2.316   4.169   5.759  1.0554 -1.2133 -0.0626
 4617TIP3   OH213814   5.804   4.151   5.251  0.4414 -0.0242  0.6682
 4617TIP3    H113815   5.772   4.225   5.199  1.7664 -0.9129 -1.5428
 4617TIP3    H213816   5.832   4.191   5.333 -2.0516  1.3921  0.9505
 4618TIP3   OH213817   5.327   2.083   4.024 -0.0859  0.1262  0.7412
 4618TIP3    H113818   5.315   2.063   3.932  1.4173  1.9872  0.0719
 4618TIP3    H213819   5.241   2.068   4.064 -0.5235 -1.5757 -0.7514
 4619TIP3   OH213820   5.154   1.080   0.488  0.0120 -0.3156  0.0109
 4619TIP3    H113821   5.102   1.147   0.533 -1.8564 -0.3705 -1.8887
 4619TIP3    H213822   5.126   0.997   0.526  1.4791 -0.1615  1.5494
 4620TIP3   OH213823   1.306   3.419   1.942 -0.5206 -0.8193 -0.3735
 4620TIP3    H113824   1.255   3.494   1.911  0.5549 -0.1324 -0.5334
 4620TIP3    H213825   1.366   3.399   1.870  1.7753  0.5792  1.0078
 4621TIP3   OH213826   5.271   3.853   0.885 -0.4589 -0.4725  0.0021
 4621TIP3    H113827   5.231   3.771   0.915 -2.0062  0.5082  0.7299
 4621TIP3    H213828   5.248   3.917   0.952 -1.6063  1.1666 -1.8749
 4622TIP3   OH213829   4.711   0.520   4.222  0.5290  0.3482 -0.3192
 4622TIP3    H113830   4.629   0.552   4.182 -1.1043 -0.3827  2.1859
 4622TIP3    H213831   4.739   0.449   4.165 -3.2335 -2.5712  1.0082
 4623TIP3   OH213832   2.144   5.747   3.681 -0.4426 -0.5332 -0.5308
 4623TIP3    H113833   2.125   5.658   3.653  1.3811 -0.2573 -2.8496
 4623TIP3    H213834   2.093   5.802   3.622 -0.0583  0.0020 -0.3719
 4624TIP3   OH213835   6.444   2.032   0.419  0.4793  0.2292 -0.6193
 4624TIP3    H113836   6.380   1.962   0.432  0.7946 -0.0384 -0.4941
 4624TIP3    H213837   6.528   1.992   0.441  0.4714  1.1795  1.3859
 4625TIP3   OH213838   1.855   3.698   0.754 -0.0438 -0.2864 -0.0772
 4625TIP3    H113839   1.895   3.773   0.798 -0.2124 -1.5633  2.4500
 4625TIP3    H213840   1.761   3.712   0.764 -0.1190 -0.1390 -0.9079
 4626TIP3   OH213841   0.521   5.453   4.917 -0.3600 -0.1861  0.1158
 4626TIP3    H113842   0.601   5.418   4.956 -0.7224  0.4594  1.4764
 4626TIP3    H213843   0.543   5.463   4.824  1.2345  0.2612  0.5070
 4627TIP3   OH213844   6.406   6.123   3.833  0.1124 -0.0037  0.2877
 4627TIP3    H113845   6.447   6.210   3.826 -1.5902  0.7667 -1.1617
 4627TIP3    H213846   6.318   6.141   3.867 -0.1090 -1.2195  0.3997
 4628TIP3   OH213847   7.157   5.385   4.053  0.5271  0.1437  0.1359
 4628TIP3    H113848   7.090   5.408   3.988 -0.4589  0.1032  1.1132
 4628TIP3    H213849   7.113   5.394   4.137  2.3171  2.1159  0.9657
 4629TIP3   OH213850   7.002   2.063   3.435  0.0349 -0.4223 -0.1073
 4629TIP3    H113851   6.948   2.033   3.362 -0.1921  1.5079 -0.7869
 4629TIP3    H213852   7.032   1.983   3.478  0.9318 -1.6491 -2.8522
 4630TIP3   OH213853   0.491   3.904   4.512 -0.0910  0.7508  0.2756
 4630TIP3    H113854   0.566   3.959   4.536 -1.0468  2.3215 -0.2291
 4630TIP3    H213855   0.468   3.859   4.593  2.1223 -0.7314  0.1861
 4631TIP3   OH213856   2.476   6.215   4.761 -0.3364  0.4105  0.2907
 4631TIP3    H113857   2.552   6.162   4.783 -0.3338 -1.7949 -3.8687
 4631TIP3    H213858   2.403   6.153   4.761 -0.9050  0.9912 -1.7575
 4632TIP3   OH213859   2.074   0.732   4.380  0.3103  0.1681 -0.2811
 4632TIP3    H113860   2.078   0.806   4.320  2.3197  1.9128  1.8467
 4632TIP3    H213861   2.081   0.770   4.467  3.9804 -2.5502  0.8651
 4633TIP3   OH213862   4.001   0.958   4.742 -0.7188 -0.6478 -0.0675
 4633TIP3    H113863   4.020   1.007   4.822  0.3050  0.7112 -1.0783
 4633TIP3    H213864   4.032   0.870   4.759 -2.4366 -0.9644  1.7505
 4634TIP3   OH213865   2.241   0.483   2.142  0.0675 -0.7069  0.0656
 4634TIP3    H113866   2.310   0.516   2.199  0.1146  1.3447 -1.0828
 4634TIP3    H213867   2.163   0.483   2.196  0.2870  0.3430  0.4039
 4635TIP3   OH213868   0.287   5.197  -0.014  0.3635  0.1744  0.1657
 4635TIP3    H113869   0.254   5.164   0.069  0.7498 -0.9978 -0.1330
 4635TIP3    H213870   0.360   5.140  -0.036  0.1881  0.3820 -1.0413
 4636TIP3   OH213871   3.557   5.173   1.596  0.2044  0.1398 -0.4163
 4636TIP3    H113872   3.602   5.196   1.516  0.0226  1.0578 -0.2628
 4636TIP3    H213873   3.509   5.093   1.575 -2.4549  2.0608 -2.2454
 4637TIP3   OH213874   0.382   1.536   5.338  0.4379 -0.4746 -0.2238
 4637TIP3    H113875   0.337   1.477   5.276  1.4215 -1.3942 -0.0940
 4637TIP3    H213876   0.406   1.612   5.285 -2.8247  0.9281  0.0815
 4638TIP3   OH213877   4.110   2.818   3.520 -0.9461  0.5152 -0.1552
 4638TIP3    H113878   4.091   2.901   3.563  2.9652  1.0405  0.9607
 4638TIP3    H213879   4.173   2.840   3.452 -2.2355 -1.2157 -2.0493
 4639TIP3   OH213880   5.571   2.981   4.193  0.3411 -0.0418 -0.2643
 4639TIP3    H113881   5.488   3.025   4.179  1.2609  1.7104 -0.4593
 4639TIP3    H213882   5.557   2.892   4.160 -0.2046  1.3667 -4.3718
 4640TIP3   OH213883   2.764   0.474   5.175 -0.6797 -0.2986 -0.6376
 4640TIP3    H113884   2.694   0.540   5.172  0.3533  1.0130  1.5258
 4640TIP3    H213885   2.788   0.469   5.267  0.3618 -2.6257 -0.9683
 4641TIP3   OH213886   1.413   3.498   4.712  0.2809 -0.3605 -0.2161
 4641TIP3    H113887   1.398   3.414   4.754  1.2521 -1.5991 -2.2151
 4641TIP3    H213888   1.327   3.540   4.711  0.2484  0.0191  3.3095
 4642TIP3   OH213889   6.112   3.364   0.674 -0.3848  0.8204 -0.5309
 4642TIP3    H113890   6.043   3.325   0.620 -0.7693  2.6395 -1.4040
 4642TIP3    H213891   6.117   3.455   0.646 -0.2228  1.7281  2.1460
 4643TIP3   OH213892   4.916   0.408   3.325  0.0932  0.2221  0.3908
 4643TIP3    H113893   5.001   0.367   3.314  0.7591  1.6429  0.0937
 4643TIP3    H213894   4.878   0.363   3.400  0.5580 -1.2866 -0.2468
 4644TIP3   OH213895   5.594   0.080   0.147 -0.0207  0.2668 -0.0224
 4644TIP3    H113896   5.545   0.037   0.076  0.4002  0.7195 -0.5963
 4644TIP3    H213897   5.628   0.008   0.200 -1.9570 -0.0648  0.8636
 4645TIP3   OH213898   4.932   5.606   2.133  0.0483  0.5702 -0.2501
 4645TIP3    H113899   4.839   5.602   2.107  0.2834 -2.5562 -1.1077
 4645TIP3    H213900   4.940   5.539   2.200  1.7677  0.4974 -0.5021
 4646TIP3   OH213901   2.528   4.430   5.163 -0.0546 -0.0623  0.2457
 4646TIP3    H113902   2.464   4.360   5.175  0.5937 -0.6024  0.6705
 4646TIP3    H213903   2.483   4.496   5.110 -1.3189  0.0557  1.4152
 4647TIP3   OH213904   2.520   2.337   2.766 -0.3708 -0.5777  0.6428
 4647TIP3    H113905   2.552   2.420   2.802 -0.9634 -0.5682  1.1757
 4647TIP3    H213906   2.599   2.290   2.740 -0.0685  0.7725 -1.1145
 4648TIP3   OH213907   0.576   5.799   1.520  0.4863  0.2564  0.0109
 4648TIP3    H113908   0.507   5.793   1.586 -0.2065 -0.7197 -0.7907
 4648TIP3    H213909   0.575   5.891   1.493  1.4633  0.9289  2.0458
 4649TIP3   OH213910   7.059   5.573   1.343  0.0967  0.1368 -0.4253
 4649TIP3    H113911   7.059   5.668   1.330 -0.1545  0.0320 -1.2481
 4649TIP3    H213912   7.138   5.555   1.394  0.3771  0.7369 -0.6514
 4650TIP3   OH213913   3.598   5.945   2.813  0.0503  0.1166  0.0723
 4650TIP3    H113914   3.614   5.893   2.734 -0.6319  0.8328 -0.5567
 4650TIP3    H213915   3.668   5.920   2.873  0.7837 -0.1954 -0.8867
 4651TIP3   OH213916   0.698   1.645   2.360  0.1143  0.3283  0.3839
 4651TIP3    H113917   0.700   1.550   2.367  2.2018  0.4153  1.6102
 4651TIP3    H213918   0.732   1.677   2.443 -0.7109  2.1753  0.0728
 4652TIP3   OH213919   5.004   1.004   4.728 -0.0207 -0.1715  0.1907
 4652TIP3    H113920   5.066   1.007   4.656  0.3076 -2.7035  0.2789
 4652TIP3    H213921   4.938   0.941   4.700 -1.9166  1.4996  0.6342
 4653TIP3   OH213922   0.319   2.871   3.495 -0.0523 -0.1451  0.0655
 4653TIP3    H113923   0.365   2.899   3.575  2.1826 -0.4513 -1.0133
 4653TIP3    H213924   0.270   2.948   3.467  1.0630  0.7568  0.4857
 4654TIP3   OH213925   0.934   2.918   2.589 -0.0431 -0.2414 -0.1363
 4654TIP3    H113926   0.995   2.898   2.660 -0.7011 -0.5709  0.3390
 4654TIP3    H213927   0.916   2.833   2.548  0.0928 -0.0957 -0.5056
 4655TIP3   OH213928   6.237   2.864   1.724  0.2698  0.2472 -0.0918
 4655TIP3    H113929   6.183   2.843   1.801  0.9677 -0.9047  0.0996
 4655TIP3    H213930   6.268   2.953   1.741 -0.5740  0.4726  0.3694
 4656TIP3   OH213931   3.611   2.172   2.279 -0.2020 -0.3499  0.1213
 4656TIP3    H113932   3.550   2.228   2.231  1.6812  1.7917 -0.0181
 4656TIP3    H213933   3.630   2.100   2.219 -1.5709 -0.3496 -0.3405
 4657TIP3   OH213934   4.197   2.163   5.172  0.2743 -0.0988 -0.1353
 4657TIP3    H113935   4.271   2.223   5.167  0.4903 -0.4378 -1.3707
 4657TIP3    H213936   4.161   2.161   5.083 -1.6261  0.5322  0.5581
 4658TIP3   OH213937   5.628   6.011   5.382 -0.1813  0.0471  0.6226
 4658TIP3    H113938   5.584   5.926   5.378 -0.7368  0.1800  2.7394
 4658TIP3    H213939   5.651   6.030   5.291 -1.9870 -1.3493 -0.1998
 4659TIP3   OH213940   2.798   2.617   2.163  0.3321  0.9623 -0.4328
 4659TIP3    H113941   2.817   2.699   2.208 -0.1250  0.2417  1.1628
 4659TIP3    H213942   2.802   2.550   2.232 -1.2305 -0.0991 -1.3017
 4660TIP3   OH213943   4.640   4.462   0.666 -0.4250 -0.0917 -0.7171
 4660TIP3    H113944   4.635   4.442   0.572 -1.7519 -1.0522 -0.4616
 4660TIP3    H213945   4.556   4.503   0.687 -0.1932 -0.0094  0.0953
 4661TIP3   OH213946   6.307   3.118   3.860 -0.9220 -0.0032 -0.2859
 4661TIP3    H113947   6.279   3.193   3.809 -0.7327 -0.3337 -0.8843
 4661TIP3    H213948   6.230   3.094   3.911 -0.6633  1.2679  0.7613
 4662TIP3   OH213949   1.210   2.670   3.315 -0.1438  0.0771 -0.3541
 4662TIP3    H113950   1.207   2.759   3.281 -1.3024  0.4209  0.5803
 4662TIP3    H213951   1.197   2.679   3.409 -1.2905 -1.1249 -0.3654
 4663TIP3   OH213952   6.648   5.825   5.662  0.2489 -0.7904  0.2881
 4663TIP3    H113953   6.625   5.830   5.754  1.0016  1.2951  0.4139
 4663TIP3    H213954   6.639   5.915   5.630  2.7272 -0.9019 -0.9458
 4664TIP3   OH213955   3.849   6.746   0.936  0.7274 -0.3358 -0.0512
 4664TIP3    H113956   3.891   6.770   1.019 -0.3353  0.5889  0.2427
 4664TIP3    H213957   3.867   6.820   0.878  1.9987 -1.2484 -0.8874
 4665TIP3   OH213958   6.261   3.068   0.452  0.2400  0.0367 -0.3499
 4665TIP3    H113959   6.271   2.984   0.408 -1.3691 -0.6097  0.4325
 4665TIP3    H213960   6.332   3.122   0.418  1.4848 -1.7204 -0.6478
 4666TIP3   OH213961   5.627   4.819   1.941  0.0636 -0.2461 -0.7342
 4666TIP3    H113962   5.614   4.821   1.846 -1.8790 -1.6766 -0.5557
 4666TIP3    H213963   5.635   4.726   1.962  0.2238  0.0382  0.5514
 4667TIP3   OH213964   1.566   2.549   0.294 -0.5198  0.0469  0.1138
 4667TIP3    H113965   1.472   2.543   0.306 -0.5037  0.3983  0.4122
 4667TIP3    H213966   1.603   2.528   0.379 -0.3706  1.1587  0.3461
 4668TIP3   OH213967   7.084   6.463   3.460  0.5228  0.8585  0.0437
 4668TIP3    H113968   7.016   6.420   3.409  1.5885  0.5251 -1.1586
 4668TIP3    H213969   7.042   6.484   3.544 -0.7399 -0.2541 -0.2776
 4669TIP3   OH213970   6.197   4.635   2.370 -0.0788 -0.0533  0.3575
 4669TIP3    H113971   6.219   4.555   2.417  0.8270  0.1703  0.3291
 4669TIP3    H213972   6.261   4.699   2.400 -1.1828  0.8562  0.8688
 4670TIP3   OH213973   4.248   5.970   0.690 -0.0628  0.0460 -0.2190
 4670TIP3    H113974   4.336   5.974   0.653  0.4214  1.6125  0.9784
 4670TIP3    H213975   4.263   5.977   0.785 -1.4630 -0.1234  0.0277
 4671TIP3   OH213976   2.309   1.305   0.033  0.3242 -0.0521 -0.5585
 4671TIP3    H113977   2.345   1.238  -0.025 -1.4198 -0.0461 -1.7170
 4671TIP3    H213978   2.226   1.268   0.064 -0.9892  1.7865 -1.7296
 4672TIP3   OH213979   1.473   1.165   4.398 -0.2380  0.4005 -0.1274
 4672TIP3    H113980   1.459   1.105   4.325  0.7715 -2.0362  1.5710
 4672TIP3    H213981   1.534   1.120   4.456  0.7791  3.1924  1.1794
 4673TIP3   OH213982   0.639   0.823   1.482 -0.4049  0.3613  0.1140
 4673TIP3    H113983   0.622   0.915   1.499  1.4378  0.9540 -0.8985
 4673TIP3    H213984   0.579   0.800   1.411 -0.0262  1.1624 -0.4871
 4674TIP3   OH213985   4.295   6.252   2.400  0.5100  0.6770 -0.6683
 4674TIP3    H113986   4.343   6.313   2.344  0.5899  0.9828 -0.2769
 4674TIP3    H213987   4.350   6.244   2.479 -0.2412  1.3109 -0.0626
 4675TIP3   OH213988   2.927   2.636   3.433 -0.0518  0.2879  0.5177
 4675TIP3    H113989   2.996   2.582   3.395  0.5155  0.5016  1.2190
 4675TIP3    H213990   2.880   2.577   3.492 -1.3803 -0.2327 -1.0031
 4676TIP3   OH213991   5.618   2.888   2.403 -0.0186 -0.0554  0.2040
 4676TIP3    H113992   5.557   2.869   2.474 -0.6281  0.0617 -0.2863
 4676TIP3    H213993   5.567   2.878   2.323  0.8967 -1.0647 -0.2740
 4677TIP3   OH213994   5.217   4.358   4.010  0.1962 -0.5243  0.1272
 4677TIP3    H113995   5.223   4.364   3.914  0.0680  2.8712  0.2420
 4677TIP3    H213996   5.295   4.402   4.042 -0.1880 -0.8781  1.6023
 4678TIP3   OH213997   6.484   6.641   5.008 -0.1906 -0.1360  0.3861
 4678TIP3    H113998   6.502   6.648   4.914  1.0047 -1.0784  0.5199
 4678TIP3    H213999   6.503   6.728   5.043 -0.7564  0.2519 -0.2548
 4679TIP3   OH214000   0.179   3.603   1.936  0.1316  0.0388 -0.2113
 4679TIP3    H114001   0.167   3.513   1.906  1.9016  0.0619 -1.1097
 4679TIP3    H214002   0.099   3.623   1.985 -1.1618 -1.3438 -1.6571
 4680TIP3   OH214003   1.703   2.779   0.329  0.0121  0.5037  0.0540
 4680TIP3    H114004   1.646   2.704   0.314 -0.3723  0.7217  0.3817
 4680TIP3    H214005   1.643   2.854   0.330  0.4560  0.8762 -0.7936
 4681TIP3   OH214006   2.095   2.524   0.762  0.0048  0.0180 -0.0201
 4681TIP3    H114007   2.050   2.465   0.822 -0.0635  1.0389  0.9695
 4681TIP3    H214008   2.026   2.581   0.729  0.2433  0.2861 -0.0636
 4682TIP3   OH214009   5.278   0.251   1.763 -0.3112  0.3035  0.0838
 4682TIP3    H114010   5.227   0.319   1.807 -0.2753  0.5105 -0.1967
 4682TIP3    H214011   5.240   0.245   1.675 -0.6243 -0.3660  0.2536
 4683TIP3   OH214012   6.945   3.863   4.125  0.1643 -0.0286  0.1089
 4683TIP3    H114013   6.946   3.874   4.030 -0.6464 -2.1141 -0.1985
 4683TIP3    H214014   6.911   3.774   4.139  0.8883 -0.0283  2.3309
 4684TIP3   OH214015   0.932   6.148   5.342 -0.1286  0.0451  0.2150
 4684TIP3    H114016   0.889   6.109   5.418  0.0455  1.8166  1.2807
 4684TIP3    H214017   0.994   6.081   5.313 -0.8136 -1.0015  1.0932
 4685TIP3   OH214018   1.744   0.427   4.662 -0.2409  0.1426  0.4914
 4685TIP3    H114019   1.743   0.437   4.567  1.5135 -0.2609  0.3919
 4685TIP3    H214020   1.673   0.365   4.681 -1.7759  1.5607 -0.3296
 4686TIP3   OH214021   2.285   1.251   3.543  0.1947  0.4107  0.3759
 4686TIP3    H114022   2.194   1.268   3.571  0.3824  0.9445  0.6785
 4686TIP3    H214023   2.335   1.250   3.625  0.2297 -1.5322  0.3799
 4687TIP3   OH214024   1.490   3.585   2.107  0.2860 -0.2568  0.4369
 4687TIP3    H114025   1.402   3.554   2.086  0.1235  0.9174 -0.7968
 4687TIP3    H214026   1.482   3.680   2.107  1.2668 -0.1460  1.7360
 4688TIP3   OH214027   6.011   3.159   5.054  0.0622  0.7824  0.1841
 4688TIP3    H114028   6.001   3.065   5.071 -1.0842  0.7897 -0.3819
 4688TIP3    H214029   6.007   3.199   5.141  0.4677  0.3231  0.4218
 4689TIP3   OH214030   6.401   2.580   4.134  0.4500 -0.6886  0.1728
 4689TIP3    H114031   6.340   2.525   4.183 -1.1814  0.1348 -0.8203
 4689TIP3    H214032   6.345   2.627   4.072  1.8792  1.4501  0.4175
 4690TIP3   OH214033   4.626   4.459   5.796  0.0860  0.4863 -0.4652
 4690TIP3    H114034   4.573   4.397   5.846 -1.6747  2.1860 -0.0947
 4690TIP3    H214035   4.715   4.444   5.826 -0.2454 -1.9492 -0.5337
 4691TIP3   OH214036   0.040   3.883   0.667 -0.0791 -0.2026 -0.2167
 4691TIP3    H114037  -0.055   3.887   0.661 -0.1717 -0.0559  1.0918
 4691TIP3    H214038   0.068   3.975   0.662 -0.2149  0.0032  1.9311
 4692TIP3   OH214039   2.980   4.870   4.569 -0.6215  0.4225  0.1245
 4692TIP3    H114040   2.937   4.954   4.549 -0.0864  1.5297  3.1262
 4692TIP3    H214041   2.912   4.804   4.555 -1.3402  1.4168 -1.3416
 4693TIP3   OH214042   2.593   3.758   5.127 -0.0691  0.2174  0.4345
 4693TIP3    H114043   2.637   3.685   5.084 -2.4839 -0.8367 -0.4400
 4693TIP3    H214044   2.589   3.733   5.220 -0.1728 -0.4073  0.2671
 4694TIP3   OH214045   2.670   5.022   3.065 -0.3941 -0.1568 -0.5010
 4694TIP3    H114046   2.741   5.057   3.013 -1.1236 -1.0733 -2.1966
 4694TIP3    H214047   2.672   5.072   3.146  0.3799  1.7663 -1.6613
 4695TIP3   OH214048   4.983   6.157   3.841  0.4875 -0.1898  0.1743
 4695TIP3    H114049   4.992   6.216   3.916  1.0065 -1.0940  0.8318
 4695TIP3    H214050   5.055   6.095   3.850 -0.7862 -1.7049  0.1959
 4696TIP3   OH214051   5.053   1.046   2.764  0.3104 -0.2830  0.3865
 4696TIP3    H114052   5.136   1.095   2.761  0.2488 -0.2035 -0.0787
 4696TIP3    H214053   5.022   1.046   2.674  0.3277 -1.2173  0.3730
 4697TIP3   OH214054   0.089   1.829   2.367 -0.1435 -0.1142 -0.2717
 4697TIP3    H114055   0.147   1.880   2.424  1.1559  2.1764 -3.3442
 4697TIP3    H214056   0.148   1.771   2.318 -1.1391 -1.5620  0.1602
 4698TIP3   OH214057   2.733   2.003   1.153  0.3841 -0.3061 -0.0619
 4698TIP3    H114058   2.802   2.044   1.101 -2.0456  1.9974 -1.7955
 4698TIP3    H214059   2.671   1.969   1.088 -0.7370 -1.1308  1.3787
 4699TIP3   OH214060   3.755   2.457   3.091  0.0621  0.9994 -0.0012
 4699TIP3    H114061   3.672   2.439   3.135 -0.4431  1.2400 -0.8369
 4699TIP3    H214062   3.737   2.534   3.036  0.8105  1.0010 -0.2583
 4700TIP3   OH214063   4.991   3.259   3.753  0.2200  0.5630  0.1812
 4700TIP3    H114064   4.960   3.206   3.680  0.6692 -0.5375  0.7577
 4700TIP3    H214065   4.991   3.348   3.720  2.2279 -0.0855 -1.8193
 4701TIP3   OH214066   3.207   0.671   2.310  0.3543 -0.6718  0.0282
 4701TIP3    H114067   3.235   0.591   2.266  3.0358  1.0181 -1.6627
 4701TIP3    H214068   3.112   0.669   2.307  0.3642 -3.4128 -0.5991
 4702TIP3   OH214069   5.962   1.282   5.837 -0.4398 -0.2115 -0.2205
 4702TIP3    H114070   6.015   1.335   5.777  0.0764 -1.1886 -0.6452
 4702TIP3    H214071   5.920   1.346   5.895  1.4057  0.5879  0.3030
 4703TIP3   OH214072   5.300   1.402   5.179  0.0165  0.6140 -0.3719
 4703TIP3    H114073   5.361   1.416   5.251  0.6147  1.4811 -1.0332
 4703TIP3    H214074   5.354   1.406   5.100 -0.2760 -2.2794 -0.8267
 4704TIP3   OH214075   1.173   2.729   2.402 -0.0903 -0.1035 -0.9535
 4704TIP3    H114076   1.154   2.777   2.321 -2.1458 -1.0840 -1.1342
 4704TIP3    H214077   1.087   2.698   2.431  0.6064  0.1707  1.5883
 4705TIP3   OH214078   4.764   0.793   1.640  0.4024 -0.4342 -0.4982
 4705TIP3    H114079   4.701   0.722   1.656  2.0437 -1.2383  3.3899
 4705TIP3    H214080   4.811   0.765   1.561 -0.7882 -2.3262 -0.6104
 4706TIP3   OH214081   5.193   4.473   5.570  0.4941  0.4853 -0.2396
 4706TIP3    H114082   5.175   4.508   5.657  0.5631  0.6409 -0.2879
 4706TIP3    H214083   5.108   4.439   5.541  0.5822 -0.0355  0.0951
 4707TIP3   OH214084   3.790   0.740   2.120 -0.8486 -0.5679  0.0801
 4707TIP3    H114085   3.719   0.802   2.132 -0.4949 -0.3517  1.1742
 4707TIP3    H214086   3.838   0.773   2.043 -0.5454  0.6333  0.7640
 4708TIP3   OH214087   5.461   5.905   4.986  0.3167 -0.1134  0.2206
 4708TIP3    H114088   5.402   5.833   4.962  0.2097  0.1080 -0.2004
 4708TIP3    H214089   5.484   5.945   4.902 -1.1130  1.5269  0.5668
 4709TIP3   OH214090   2.516   3.674   5.372  0.0422  0.4108  0.2537
 4709TIP3    H114091   2.458   3.738   5.412 -0.0713  0.4468  0.0346
 4709TIP3    H214092   2.595   3.676   5.426  0.3735  1.3481 -0.2296
 4710TIP3   OH214093   0.982   6.772   5.853 -0.5246  0.3446 -0.4984
 4710TIP3    H114094   1.022   6.859   5.842 -0.1798  0.2404 -0.0705
 4710TIP3    H214095   1.001   6.748   5.943  0.9135 -0.9434 -1.1088
 4711TIP3   OH214096   0.180   3.596   5.453 -0.4214 -0.1343 -0.0272
 4711TIP3    H114097   0.133   3.516   5.477 -0.5715  0.0634  0.3529
 4711TIP3    H214098   0.270   3.581   5.482 -0.4450 -0.1730  0.0251
 4712TIP3   OH214099   4.951   0.944   3.419 -0.0864  0.0767 -0.3148
 4712TIP3    H114100   5.046   0.938   3.417 -0.0489  0.8464 -1.5492
 4712TIP3    H214101   4.921   0.888   3.347 -0.6309 -0.8025  0.5597
 4713TIP3   OH214102   0.870   6.352   1.522  0.0088  0.1222  0.3125
 4713TIP3    H114103   0.943   6.327   1.464 -1.2578  0.3592 -1.4646
 4713TIP3    H214104   0.896   6.436   1.558  0.2976  0.6000 -0.9506
 4714TIP3   OH214105   5.299   4.247   1.246  0.3088 -0.0786 -0.0402
 4714TIP3    H114106   5.235   4.215   1.182 -1.7903  0.6935  1.5459
 4714TIP3    H214107   5.321   4.335   1.217  1.1703 -0.5746 -0.9338
 4715TIP3   OH214108   6.484   5.425   2.313 -0.3069 -0.3540 -0.4855
 4715TIP3    H114109   6.506   5.502   2.365 -0.3723 -1.9458  2.0910
 4715TIP3    H214110   6.558   5.366   2.326 -1.0872 -1.4474 -0.8502
 4716TIP3   OH214111   6.970   1.806   5.507  0.0726  0.4733 -0.2622
 4716TIP3    H114112   6.915   1.877   5.538 -1.9047 -0.0532 -2.2740
 4716TIP3    H214113   7.037   1.850   5.454  0.1906  0.9750  0.2927
 4717TIP3   OH214114   2.788   6.668   2.885 -0.0379 -0.5628  0.4044
 4717TIP3    H114115   2.812   6.636   2.798 -3.0302  0.6335 -0.9895
 4717TIP3    H214116   2.717   6.610   2.913 -2.5322  1.9705 -0.2538
 4718TIP3   OH214117   2.453   1.850   0.824 -0.0249 -0.5534  0.0192
 4718TIP3    H114118   2.520   1.812   0.881 -0.0622  0.5554  0.8496
 4718TIP3    H214119   2.377   1.792   0.834  0.2635 -0.8734  0.3934
 4719TIP3   OH214120   1.720   2.775   5.060  0.0015 -0.3227  0.8885
 4719TIP3    H114121   1.642   2.721   5.044  0.1860 -0.5077  0.6110
 4719TIP3    H214122   1.772   2.724   5.122  0.3706 -0.6590  0.3132
 4720TIP3   OH214123   4.083   1.856   4.170 -0.3914 -0.2454 -0.3192
 4720TIP3    H114124   4.155   1.822   4.224  1.8892  1.2317 -2.2753
 4720TIP3    H214125   4.081   1.798   4.094  0.8016  1.4577 -1.7081
 4721TIP3   OH214126   0.072   6.329   4.745  0.8782 -0.1773  0.2866
 4721TIP3    H114127   0.145   6.298   4.799  0.5063 -1.6728 -0.0179
 4721TIP3    H214128  -0.006   6.309   4.797  0.5678 -0.8363 -0.4172
 4722TIP3   OH214129   3.368   3.631   4.484 -0.0958  0.0163  0.1930
 4722TIP3    H114130   3.318   3.572   4.541 -0.8298 -0.5789 -1.0128
 4722TIP3    H214131   3.386   3.579   4.406 -0.0701  1.1465 -0.5803
 4723TIP3   OH214132   1.533   4.900   2.603  0.3223 -0.4437  0.1546
 4723TIP3    H114133   1.543   4.994   2.616 -1.0188  0.0131 -1.6139
 4723TIP3    H214134   1.620   4.870   2.578  0.6263  0.4531  0.0950
 4724TIP3   OH214135   5.827   4.648   4.032  0.2723 -0.5398  0.1891
 4724TIP3    H114136   5.806   4.648   3.939 -1.7128  1.4605  0.5677
 4724TIP3    H214137   5.742   4.645   4.076  0.6414  4.6746  1.8677
 4725TIP3   OH214138   3.548   2.388   5.163  0.4578  0.1097 -0.0178
 4725TIP3    H114139   3.564   2.462   5.222 -0.5114  0.9408 -0.7676
 4725TIP3    H214140   3.539   2.313   5.222  1.2714  0.6069  0.7679
 4726TIP3   OH214141   2.945   5.525   1.060  0.2748 -0.3881  0.4982
 4726TIP3    H114142   2.850   5.527   1.072  0.2256 -1.0313  0.2690
 4726TIP3    H214143   2.959   5.466   0.987  0.8004  0.5142 -0.1510
 4727TIP3   OH214144   4.890   5.006   2.875 -0.1566  0.3202  0.2636
 4727TIP3    H114145   4.798   5.022   2.857 -0.1307  0.5114  0.2983
 4727TIP3    H214146   4.892   4.969   2.963 -0.0829  1.6798  0.8518
 4728TIP3   OH214147   0.773   4.837   3.479 -0.2579 -0.7370  0.4211
 4728TIP3    H114148   0.742   4.920   3.517 -1.6474 -0.9820 -0.1181
 4728TIP3    H214149   0.837   4.863   3.413  2.1175 -0.2926  2.7313
 4729TIP3   OH214150   1.145   1.129   5.026 -0.0638 -0.1935  0.1153
 4729TIP3    H114151   1.050   1.121   5.036  0.0478  0.2068  1.7054
 4729TIP3    H214152   1.162   1.223   5.032  0.5866 -0.3850  1.5482
 4730TIP3   OH214153   3.213   6.816   5.455  0.5109 -0.2583  0.6969
 4730TIP3    H114154   3.172   6.749   5.400  0.7662 -0.3155  0.5736
 4730TIP3    H214155   3.293   6.839   5.408 -0.3188  1.2468 -0.0688
 4731TIP3   OH214156   1.483   3.740   5.049 -0.3274  0.4530  0.2159
 4731TIP3    H114157   1.424   3.742   4.974 -1.9310 -0.8063  1.3594
 4731TIP3    H214158   1.570   3.727   5.011 -0.7809  2.0399 -1.4968
 4732TIP3   OH214159   3.286   6.745   0.637 -0.0049 -0.1459  0.9457
 4732TIP3    H114160   3.375   6.748   0.604 -0.1286 -0.7510  0.5284
 4732TIP3    H214161   3.256   6.836   0.635 -0.8754 -0.3211 -3.1082
 4733TIP3   OH214162   2.405   6.071   0.776 -0.0923 -0.4317 -0.0837
 4733TIP3    H114163   2.341   6.084   0.845 -0.4063 -0.1363 -0.4257
 4733TIP3    H214164   2.443   6.159   0.762 -2.4782  0.3201 -2.6703
 4734TIP3   OH214165   6.034   0.676   0.958 -0.0154 -0.3994  0.2653
 4734TIP3    H114166   5.949   0.635   0.972  0.3228 -1.3898 -0.5342
 4734TIP3    H214167   6.018   0.743   0.892 -0.5442  0.7482  1.4974
 4735TIP3   OH214168   4.529   1.182   0.717 -0.3346  0.1169 -0.2680
 4735TIP3    H114169   4.537   1.206   0.809  0.0881 -0.7935 -0.0533
 4735TIP3    H214170   4.493   1.260   0.675 -1.0622  0.3517  0.7555
 4736TIP3   OH214171   2.050   1.382   4.580 -0.8166 -0.0129 -0.3827
 4736TIP3    H114172   2.104   1.304   4.586 -0.7949 -0.0026 -0.4509
 4736TIP3    H214173   2.060   1.425   4.666 -0.1697  0.3489 -0.6342
 4737TIP3   OH214174   2.871   3.679   5.624  0.0791  0.6297  0.2552
 4737TIP3    H114175   2.838   3.766   5.605  0.6848  0.5514 -1.3042
 4737TIP3    H214176   2.799   3.620   5.603  0.9936  0.4728 -2.9442
 4738TIP3   OH214177   5.106   5.306   0.940 -0.5861  0.2072 -0.4865
 4738TIP3    H114178   5.145   5.372   0.883 -0.4011  1.4160  0.9589
 4738TIP3    H214179   5.181   5.266   0.985 -0.6529 -1.4128 -1.7227
 4739TIP3   OH214180   6.178   4.640   1.657  0.4958  0.0188 -0.2819
 4739TIP3    H114181   6.192   4.592   1.576  0.0638  0.0245 -0.3591
 4739TIP3    H214182   6.235   4.596   1.721  0.2213 -0.4988 -0.3905
 4740TIP3   OH214183   1.106   2.557   2.748 -0.2842 -0.3021  0.1457
 4740TIP3    H114184   1.067   2.507   2.676 -0.3805 -0.6161  0.4169
 4740TIP3    H214185   1.188   2.592   2.712 -0.9869  0.6923 -0.5593
 4741TIP3   OH214186   5.788   4.821   3.520 -0.1096  0.0723  0.2084
 4741TIP3    H114187   5.881   4.814   3.497 -0.0470  2.6373 -0.5428
 4741TIP3    H214188   5.742   4.798   3.440 -0.0890  0.3390  0.1201
 4742TIP3   OH214189   3.626   4.061   2.177 -0.8063 -0.6930 -0.1741
 4742TIP3    H114190   3.704   4.106   2.209 -1.3259  0.8675 -0.9958
 4742TIP3    H214191   3.613   3.989   2.238 -0.3021  0.6620  1.6145
 4743TIP3   OH214192   3.286   3.037   1.793  0.6763 -0.0216 -0.6960
 4743TIP3    H114193   3.244   2.956   1.821  1.6143 -0.9527 -1.9079
 4743TIP3    H214194   3.378   3.013   1.779  1.5456  1.8045  1.2684
 4744TIP3   OH214195   5.802   1.858   3.239 -0.1945  0.0909 -0.0915
 4744TIP3    H114196   5.887   1.895   3.213 -0.7421  0.8268 -0.8751
 4744TIP3    H214197   5.740   1.930   3.229 -0.5990  0.1934  2.4862
 4745TIP3   OH214198   1.048   2.765   1.715  0.2545  0.3557 -0.3085
 4745TIP3    H114199   0.971   2.711   1.736  1.3110 -0.9341  0.3642
 4745TIP3    H214200   1.011   2.848   1.687 -1.3882  0.1875  1.1607
 4746TIP3   OH214201   1.532   5.580   3.861 -0.2087  0.1914 -0.4168
 4746TIP3    H114202   1.512   5.631   3.939  0.8534 -0.2271  0.1471
 4746TIP3    H214203   1.491   5.628   3.790 -0.6485  0.9258  0.3155
 4747TIP3   OH214204   6.603   1.986   0.179 -0.0780  0.2965  0.6147
 4747TIP3    H114205   6.654   1.946   0.250 -0.0938 -0.3536  0.2667
 4747TIP3    H214206   6.513   1.983   0.211  0.0315  0.9179  0.9864
 4748TIP3   OH214207   6.418   6.646   2.790  0.5550  0.2499 -0.4271
 4748TIP3    H114208   6.389   6.738   2.785  0.7383  0.2589 -1.6137
 4748TIP3    H214209   6.347   6.601   2.835  0.7236  1.0772  0.6925
 4749TIP3   OH214210   2.676   5.265   1.154  0.0610  0.0938 -0.3510
 4749TIP3    H114211   2.747   5.206   1.131  0.7889  1.2661 -1.2451
 4749TIP3    H214212   2.709   5.314   1.230 -0.6167 -0.7568  0.5141
 4750TIP3   OH214213   5.350   6.251   2.837 -0.2984  0.2671  0.1490
 4750TIP3    H114214   5.415   6.224   2.902  0.7958  0.6450 -0.7506
 4750TIP3    H214215   5.400   6.263   2.756 -1.6726 -0.5509 -0.8757
 4751TIP3   OH214216   2.693   2.137   3.992 -0.5168 -0.3863 -0.3900
 4751TIP3    H114217   2.766   2.199   3.996  0.5545 -1.6557  1.2649
 4751TIP3    H214218   2.623   2.180   4.042 -0.2854  0.0861 -0.4624
 4752TIP3   OH214219   5.913   3.776   4.693 -0.3818  0.0573  0.6013
 4752TIP3    H114220   5.850   3.846   4.709  0.7227  1.3321 -0.3905
 4752TIP3    H214221   5.967   3.774   4.772 -0.4479  0.3084  0.6538
 4753TIP3   OH214222   4.320   1.313   1.152  1.1822  0.0765  0.3012
 4753TIP3    H114223   4.241   1.328   1.204  0.7584 -0.8189 -0.0675
 4753TIP3    H214224   4.371   1.394   1.162 -1.0215  1.8305 -1.6765
 4754TIP3   OH214225   0.306   1.308   5.042 -0.3118  0.3058 -0.4744
 4754TIP3    H114226   0.317   1.296   4.948  0.5814  0.6242 -0.4223
 4754TIP3    H214227   0.265   1.395   5.050 -0.5635  0.1967 -0.5747
 4755TIP3   OH214228   0.127   2.669   4.795 -0.0451 -0.1775  0.0456
 4755TIP3    H114229   0.065   2.738   4.817  1.6998  1.4468  0.0644
 4755TIP3    H214230   0.129   2.613   4.873  1.1063  1.7718  1.4972
 4756TIP3   OH214231   1.016   4.347   2.385 -0.0073 -0.9612 -0.1942
 4756TIP3    H114232   0.930   4.390   2.390  0.2810 -0.4499  0.5126
 4756TIP3    H214233   1.039   4.350   2.293 -0.4394 -0.4735 -0.2916
 4757TIP3   OH214234   0.382   3.087   3.061 -0.2181  0.2441 -0.2543
 4757TIP3    H114235   0.427   3.154   3.010 -0.4077 -1.1684 -2.3675
 4757TIP3    H214236   0.451   3.050   3.117  0.0711  1.5624  0.3025
 4758TIP3   OH214237   1.134   3.553   3.250  0.4248  0.7151 -0.5305
 4758TIP3    H114238   1.201   3.615   3.279  1.3661 -0.2802 -0.5101
 4758TIP3    H214239   1.055   3.606   3.238  1.0942  1.8317 -0.1056
 4759TIP3   OH214240   6.172   4.516   5.510  0.0777 -0.2291 -0.1234
 4759TIP3    H114241   6.102   4.470   5.556 -0.1528 -0.0145 -0.2623
 4759TIP3    H214242   6.225   4.446   5.472 -1.2766 -0.3793 -1.8566
 4760TIP3   OH214243   3.550   3.465   2.117  0.0708 -0.0689  0.1778
 4760TIP3    H114244   3.582   3.538   2.169 -1.9401  1.7742 -0.9968
 4760TIP3    H214245   3.590   3.478   2.031  0.2765 -0.7781  0.1635
 4761TIP3   OH214246   4.172   3.304   2.988 -0.6238  0.4408  0.4542
 4761TIP3    H114247   4.150   3.238   3.054 -2.4217  0.8966  0.3481
 4761TIP3    H214248   4.225   3.368   3.035 -0.1166 -0.3044  0.9223
 4762TIP3   OH214249   5.892   1.776   4.742  0.8178 -0.2902  0.7211
 4762TIP3    H114250   5.986   1.785   4.755  1.1700  1.6348 -2.1894
 4762TIP3    H214251   5.879   1.683   4.723  2.2646 -0.4241  0.2786
 4763TIP3   OH214252   2.922   5.540   2.841  0.2717  0.1685  0.4336
 4763TIP3    H114253   2.834   5.570   2.819  0.6260 -1.3151 -4.1274
 4763TIP3    H214254   2.976   5.619   2.837 -0.5205  0.7510  1.0057
 4764TIP3   OH214255   3.859   0.408   0.532 -0.1491 -0.5827  0.6667
 4764TIP3    H114256   3.931   0.380   0.475 -1.0057 -2.5052  0.4672
 4764TIP3    H214257   3.899   0.419   0.618  0.7784  0.5044  0.1288
 4765TIP3   OH214258   3.654   2.303   5.552  0.9900 -0.3124 -0.1997
 4765TIP3    H114259   3.734   2.262   5.519  1.7686  1.0089 -0.0102
 4765TIP3    H214260   3.682   2.388   5.586  0.0561 -1.1021  2.8412
 4766TIP3   OH214261   3.328   4.810   3.042  0.2977  0.2784  0.4205
 4766TIP3    H114262   3.249   4.763   3.068  0.6935 -1.2727 -0.9880
 4766TIP3    H214263   3.399   4.757   3.078  0.7501  1.8802  2.0369
 4767TIP3   OH214264   3.642   3.914   5.042 -0.4994 -0.1553 -0.2186
 4767TIP3    H114265   3.710   3.977   5.066 -0.1075 -0.9265  0.7690
 4767TIP3    H214266   3.572   3.927   5.106 -0.4777 -0.6166 -0.0939
 4768TIP3   OH214267   3.408   3.304   4.639  0.1720 -0.0557  0.1243
 4768TIP3    H114268   3.388   3.247   4.714 -0.3954  0.3064  0.2523
 4768TIP3    H214269   3.327   3.309   4.590  0.1251  0.8827  0.2758
 4769TIP3   OH214270   4.403   4.447   1.504 -0.7626 -0.2055 -0.0576
 4769TIP3    H114271   4.380   4.400   1.584 -0.3464 -1.3524 -0.5948
 4769TIP3    H214272   4.329   4.430   1.445 -0.4293 -0.5168 -0.3884
 4770TIP3   OH214273   4.180   2.093   1.138 -0.9754  0.4729 -0.2638
 4770TIP3    H114274   4.226   2.103   1.221 -2.4812  0.3217  0.6132
 4770TIP3    H214275   4.119   2.166   1.135  0.3441  1.5779 -2.1452
 4771TIP3   OH214276   4.897   1.568   3.956 -0.0574 -0.1351  0.3389
 4771TIP3    H114277   4.857   1.646   3.994  0.9877  0.9214 -0.6161
 4771TIP3    H214278   4.915   1.511   4.030 -0.5572  0.6650  1.0988
 4772TIP3   OH214279   6.899   1.540   5.125  0.0131 -0.4975  0.3295
 4772TIP3    H114280   6.925   1.555   5.216  1.1802 -0.5539  0.0214
 4772TIP3    H214281   6.963   1.476   5.092  2.5230  2.8333 -1.8379
 4773TIP3   OH214282   2.802   2.269   1.596  0.1055 -0.0429 -0.4275
 4773TIP3    H114283   2.861   2.299   1.527 -1.9626  1.3691 -1.7127
 4773TIP3    H214284   2.791   2.345   1.652  2.4341 -1.4140  2.1018
 4774TIP3   OH214285   4.169   3.347   0.658 -0.2688  0.8212  0.0505
 4774TIP3    H114286   4.091   3.326   0.607 -0.6200  1.4226  0.3230
 4774TIP3    H214287   4.190   3.437   0.632  2.2771 -0.3800 -2.4812
 4775TIP3   OH214288   5.687   4.665   4.818  0.8470  0.2412  0.1335
 4775TIP3    H114289   5.640   4.687   4.899 -0.6806 -0.3614 -0.5575
 4775TIP3    H214290   5.672   4.571   4.806  1.5875  0.1941 -0.5409
 4776TIP3   OH214291   3.404   4.574   3.152  0.7929 -0.5513  0.4008
 4776TIP3    H114292   3.488   4.599   3.192  0.3148 -0.8591  1.6338
 4776TIP3    H214293   3.370   4.504   3.208 -1.0334  0.6337  0.8405
 4777TIP3   OH214294   6.673   0.388   5.522  0.5970  0.1094 -0.1162
 4777TIP3    H114295   6.754   0.401   5.572 -0.0629  0.5060  0.8611
 4777TIP3    H214296   6.617   0.460   5.547  0.2621  0.3520 -1.4941
 4778TIP3   OH214297   2.394   3.470   5.199  0.2746 -0.0708  0.3477
 4778TIP3    H114298   2.317   3.503   5.152 -0.0078 -0.6753  0.3845
 4778TIP3    H214299   2.432   3.548   5.240 -0.6587  0.1468  0.8246
 4779TIP3   OH214300   6.134   5.266   2.527  0.1057  0.0555 -0.1532
 4779TIP3    H114301   6.070   5.195   2.526 -1.0550  1.0585  0.3284
 4779TIP3    H214302   6.137   5.294   2.618  2.8933 -1.3753  0.2865
 4780TIP3   OH214303   0.638   2.466   3.607 -0.5545 -0.0016  0.1400
 4780TIP3    H114304   0.570   2.531   3.626 -1.5491 -1.3063  1.2571
 4780TIP3    H214305   0.640   2.461   3.512 -1.2964  0.8008  0.0598
 4781TIP3   OH214306   6.620   3.491   0.432 -0.0383 -0.3386  0.5581
 4781TIP3    H114307   6.698   3.532   0.469  0.1164 -0.5396  0.4562
 4781TIP3    H214308   6.577   3.449   0.506 -1.0857  1.3839  0.9911
 4782TIP3   OH214309   3.069   3.279   0.106  0.1163 -0.2984 -0.0422
 4782TIP3    H114310   3.135   3.210   0.116 -0.3374 -0.6517  0.5319
 4782TIP3    H214311   3.020   3.254   0.028  0.4682 -0.1862 -0.3051
 4783TIP3   OH214312   0.412   4.595   5.026  1.1058 -0.2083  0.8134
 4783TIP3    H114313   0.412   4.690   5.030  2.7145 -0.2251  1.9438
 4783TIP3    H214314   0.344   4.568   5.088  0.0533  0.1864 -0.1363
 4784TIP3   OH214315   4.804   1.014   1.788 -0.2314 -0.0195 -0.6247
 4784TIP3    H114316   4.713   1.033   1.767 -0.6937  0.7132  1.7018
 4784TIP3    H214317   4.824   0.935   1.738 -1.6749  0.5846 -2.2631
 4785TIP3   OH214318   2.908   4.900   5.815  0.2202  1.0627 -0.5027
 4785TIP3    H114319   2.864   4.921   5.897  1.4449  1.3474  0.1110
 4785TIP3    H214320   2.959   4.979   5.794  0.0119  0.9539 -1.4906
 4786TIP3   OH214321   5.823   2.207   5.290 -0.3229  0.0728 -0.6851
 4786TIP3    H114322   5.904   2.163   5.315 -0.9660 -0.7739  0.0141
 4786TIP3    H214323   5.836   2.234   5.199  0.3788 -0.9062 -0.8874
 4787TIP3   OH214324   4.694   4.281   3.817  0.0994 -0.4930 -0.1209
 4787TIP3    H114325   4.626   4.249   3.757 -0.3185  0.2750 -0.0743
 4787TIP3    H214326   4.732   4.202   3.854  1.7556 -1.1176 -2.8663
 4788TIP3   OH214327   5.439   2.245   0.496 -0.4986 -0.1910 -0.4374
 4788TIP3    H114328   5.457   2.256   0.403  0.8723 -0.3265 -0.2146
 4788TIP3    H214329   5.442   2.150   0.510 -0.4882 -0.1591 -0.2206
 4789TIP3   OH214330   4.667   3.778   1.045  0.1214  0.5725  0.5423
 4789TIP3    H114331   4.695   3.868   1.026 -2.0553  1.8185  2.6374
 4789TIP3    H214332   4.592   3.763   0.987  0.6858 -0.0564 -0.0421
 4790TIP3   OH214333   2.258   2.766   1.878 -0.0369 -0.3734  0.2931
 4790TIP3    H114334   2.280   2.859   1.873 -0.2922 -0.3421 -0.3907
 4790TIP3    H214335   2.314   2.732   1.948  0.5176  0.1673  0.1275
 4791TIP3   OH214336   0.555   1.184   5.676  0.4293  0.0167 -0.4029
 4791TIP3    H114337   0.527   1.139   5.755 -1.5327 -0.3075 -1.2127
 4791TIP3    H214338   0.589   1.268   5.706 -1.7839  0.5822  0.7203
 4792TIP3   OH214339   1.522   2.583   4.948 -0.0291 -0.2950  0.2314
 4792TIP3    H114340   1.477   2.506   4.913  0.3757 -0.8274  0.8684
 4792TIP3    H214341   1.456   2.652   4.945  0.0990 -0.1942 -1.9548
 4793TIP3   OH214342   4.051   6.587   5.436  0.3435  0.2032  0.0155
 4793TIP3    H114343   4.045   6.633   5.352 -1.0217 -0.4973 -0.3084
 4793TIP3    H214344   4.033   6.495   5.414  0.1770 -0.0198  1.0457
 4794TIP3   OH214345   3.228   2.498   0.057  0.2013  0.1575  0.5172
 4794TIP3    H114346   3.309   2.530   0.016  0.6378 -1.1918  0.2666
 4794TIP3    H214347   3.164   2.567   0.041  1.3107  1.2918  0.7679
 4795TIP3   OH214348   6.124   4.056   4.536 -0.4498 -0.0141 -0.3256
 4795TIP3    H114349   6.215   4.027   4.524  0.4257  1.9869  0.9604
 4795TIP3    H214350   6.093   4.006   4.612 -0.6873 -1.1405 -1.1229
 4796TIP3   OH214351   6.253   3.617   2.554 -0.1288 -0.1390 -0.3199
 4796TIP3    H114352   6.314   3.544   2.567 -1.4526 -1.1516  0.4485
 4796TIP3    H214353   6.308   3.695   2.563  1.0591 -1.0131  0.3442
 4797TIP3   OH214354   4.272   5.974   0.219  0.0446 -0.1891 -0.1429
 4797TIP3    H114355   4.345   5.995   0.278  0.1536 -1.3068  0.1418
 4797TIP3    H214356   4.314   5.953   0.136  0.1563 -1.9689  0.3362
 4798TIP3   OH214357   2.740   0.306   0.531  0.6640 -0.1082  0.0028
 4798TIP3    H114358   2.680   0.291   0.457  0.4296 -1.4554  0.4354
 4798TIP3    H214359   2.682   0.332   0.602  0.8185  0.5504 -0.1118
 4799TIP3   OH214360   3.615   3.408   1.512 -0.2759 -0.7776  0.2669
 4799TIP3    H114361   3.577   3.429   1.427  0.1933  0.2710  0.2982
 4799TIP3    H214362   3.706   3.437   1.506 -0.5402  0.3898  1.4906
 4800TIP3   OH214363   0.779   4.310   4.901  0.8678 -0.0247  0.1999
 4800TIP3    H114364   0.824   4.352   4.974  1.2666  2.8121 -1.5155
 4800TIP3    H214365   0.845   4.253   4.862  0.8336 -1.0916  1.6350
 4801TIP3   OH214366   5.242   3.930   2.508  0.4847  0.4162  0.3405
 4801TIP3    H114367   5.240   4.018   2.471  1.0068 -0.2107 -1.2884
 4801TIP3    H214368   5.318   3.930   2.567  2.0555  0.3932 -1.5782
 4802TIP3   OH214369   2.829   6.227   2.249 -0.0811  0.0681 -0.3530
 4802TIP3    H114370   2.747   6.216   2.202 -0.6708 -0.3883  0.7399
 4802TIP3    H214371   2.803   6.240   2.340  1.0642 -0.7206  0.1127
 4803TIP3   OH214372   1.114   5.597   2.429  0.0506 -0.4535 -0.0001
 4803TIP3    H114373   1.178   5.525   2.432 -0.5050 -1.0038 -0.8341
 4803TIP3    H214374   1.076   5.591   2.342 -1.0385 -0.0403  0.4330
 4804TIP3   OH214375   3.257   1.755   2.822 -0.1156  0.3233 -0.2707
 4804TIP3    H114376   3.249   1.672   2.869  1.4582 -0.7917 -1.8380
 4804TIP3    H214377   3.183   1.756   2.761 -1.0027  0.8213  0.7871
 4805TIP3   OH214378   3.722   3.236   1.180  0.0157 -0.4125 -0.7111
 4805TIP3    H114379   3.632   3.265   1.167  0.0399  0.2388  0.3791
 4805TIP3    H214380   3.714   3.152   1.225 -0.0520 -0.3364 -0.5808
 4806TIP3   OH214381   3.798   0.720   0.923  0.5740 -0.6693  0.8158
 4806TIP3    H114382   3.826   0.634   0.957  0.5546 -1.7232 -1.6336
 4806TIP3    H214383   3.859   0.738   0.851  0.1528  1.0856  0.8506
 4807TIP3   OH214384   0.804   3.842   3.601 -0.1892  0.8258  0.0270
 4807TIP3    H114385   0.865   3.883   3.662 -0.5589  0.4797  0.6399
 4807TIP3    H214386   0.770   3.915   3.548 -0.4799  1.2554  0.7800
 4808TIP3   OH214387   4.569   3.293   2.292  0.0065  0.1202 -0.1165
 4808TIP3    H114388   4.664   3.289   2.305  0.2379 -1.6503 -1.8478
 4808TIP3    H214389   4.551   3.385   2.272  1.3909  0.4421  0.0201
 4809TIP3   OH214390   4.760   3.490   5.750  0.5149  0.1104 -0.0022
 4809TIP3    H114391   4.784   3.533   5.832  1.2899 -0.8486  0.2828
 4809TIP3    H214392   4.675   3.449   5.769  0.8452 -0.3861  0.4326
 4810TIP3   OH214393   3.167   1.527   5.429  0.1348 -0.0737 -0.0182
 4810TIP3    H114394   3.109   1.497   5.359  0.4748  0.2894 -0.4621
 4810TIP3    H214395   3.114   1.588   5.480 -0.4437 -1.1351  0.6753
 4811TIP3   OH214396   6.464   2.380   2.252  0.6604  0.1414 -0.6456
 4811TIP3    H114397   6.400   2.449   2.237 -4.2638 -2.6882  3.9147
 4811TIP3    H214398   6.500   2.399   2.339  0.5744 -1.9980 -0.0922
 4812TIP3   OH214399   6.561   4.974   4.826  0.2155  0.0948  0.5966
 4812TIP3    H114400   6.494   5.022   4.876 -1.2077  0.4499 -1.4874
 4812TIP3    H214401   6.603   5.041   4.772 -0.7757 -0.7138 -1.2711
 4813TIP3   OH214402   6.583   2.329   3.413 -0.4983 -0.4939 -0.2521
 4813TIP3    H114403   6.649   2.312   3.480  1.4892  0.2745 -1.9337
 4813TIP3    H214404   6.529   2.249   3.413 -0.2148 -0.7488  1.8186
 4814TIP3   OH214405   1.671   6.458   4.886 -0.3871  0.2840  0.2591
 4814TIP3    H114406   1.643   6.468   4.977 -0.1249 -0.2501  0.3985
 4814TIP3    H214407   1.657   6.545   4.848 -1.7574  0.1679  0.4502
 4815TIP3   OH214408   3.953   3.330   0.489 -0.3312 -0.1596  0.1421
 4815TIP3    H114409   3.887   3.400   0.491  0.3520  0.5550 -1.0153
 4815TIP3    H214410   3.946   3.292   0.402  1.2246  0.3896 -0.2592
 4816TIP3   OH214411   3.472   0.844   5.229  0.5659  0.2029  0.2985
 4816TIP3    H114412   3.528   0.837   5.151  0.9054  0.9270  0.4725
 4816TIP3    H214413   3.473   0.937   5.251 -0.4489  0.1706  0.5009
 4817TIP3   OH214414   4.493   6.430   4.072  0.7409 -0.3489  0.0579
 4817TIP3    H114415   4.441   6.408   4.149  1.9431 -0.9645  0.7225
 4817TIP3    H214416   4.430   6.436   4.001 -0.2558 -0.8426  0.8823
 4818TIP3   OH214417   6.075   6.040   3.653  0.4368  0.4327 -0.7678
 4818TIP3    H114418   5.997   6.020   3.602  0.2605 -1.1208  0.0269
 4818TIP3    H214419   6.148   6.003   3.603  0.5898  1.2956 -1.1895
 4819TIP3   OH214420   1.970   5.356   0.352  0.3628  0.1109 -0.0859
 4819TIP3    H114421   1.887   5.326   0.390 -0.5040  3.2883  0.8779
 4819TIP3    H214422   2.036   5.329   0.415 -0.4898  1.0820  1.2838
 4820TIP3   OH214423   3.625   3.060   2.039  0.4028  0.0376 -0.0110
 4820TIP3    H114424   3.551   3.082   2.095  0.4827  3.9823 -1.1898
 4820TIP3    H214425   3.586   3.034   1.956  0.2755  2.0225 -0.6015
 4821TIP3   OH214426   3.148   4.226   3.169  0.0498  0.2194 -0.1593
 4821TIP3    H114427   3.076   4.187   3.217  0.1105  0.4728  0.1431
 4821TIP3    H214428   3.106   4.276   3.098 -0.0764  0.4076  0.0456
 4822TIP3   OH214429   6.270   4.277   3.495  0.4066 -0.4460  0.1015
 4822TIP3    H114430   6.359   4.244   3.505  0.9686  0.2973 -1.9669
 4822TIP3    H214431   6.242   4.245   3.409 -0.2620  1.6332 -0.5096
 4823TIP3   OH214432   4.002   3.212   2.223 -0.5553 -0.1257  0.6899
 4823TIP3    H114433   3.931   3.192   2.163 -0.8396 -1.1395  1.3493
 4823TIP3    H214434   4.080   3.218   2.166 -1.1360  0.9943 -0.0306
 4824TIP3   OH214435   0.772   5.897   5.584  0.2727 -0.1446  0.2756
 4824TIP3    H114436   0.853   5.949   5.589  0.2028  0.1359 -0.9881
 4824TIP3    H214437   0.705   5.962   5.562  0.4619 -0.8867 -3.0922
 4825TIP3   OH214438   6.865   3.547   1.522 -0.5876  0.2452  0.3096
 4825TIP3    H114439   6.957   3.528   1.540  0.3478  2.5364 -1.5114
 4825TIP3    H214440   6.832   3.467   1.480 -0.3930 -1.7505  3.5796
 4826TIP3   OH214441   0.842   4.561   3.301 -0.7095  0.2796 -0.4848
 4826TIP3    H114442   0.793   4.546   3.219 -1.6297  3.3317 -0.6048
 4826TIP3    H214443   0.872   4.651   3.295  0.1222  0.2524  2.1095
 4827TIP3   OH214444   2.450   2.833   5.480  0.0736  0.1812 -0.4749
 4827TIP3    H114445   2.384   2.903   5.475  0.2574  0.4365  0.4571
 4827TIP3    H214446   2.531   2.875   5.450 -0.4477 -0.5821 -3.3347
 4828TIP3   OH214447   4.942   0.017   3.981  0.4614 -0.0670 -0.0049
 4828TIP3    H114448   5.034   0.035   3.962  0.3081  0.0361 -0.6525
 4828TIP3    H214449   4.915  -0.045   3.914 -0.2006  0.6325 -0.3903
 4829TIP3   OH214450   3.128   4.231   4.208 -0.5770  0.7817  0.3062
 4829TIP3    H114451   3.066   4.160   4.191 -0.3908  0.3812  1.2759
 4829TIP3    H214452   3.194   4.222   4.139 -0.6477  0.1255  0.3166
 4830TIP3   OH214453   2.183   6.340   2.676  0.6223  0.0996  0.0333
 4830TIP3    H114454   2.099   6.305   2.645  0.0074  1.7101 -0.2107
 4830TIP3    H214455   2.185   6.318   2.769 -0.4583  0.7264  0.2213
 4831TIP3   OH214456   2.243   2.468   5.713 -0.1230  0.5671  0.6786
 4831TIP3    H114457   2.308   2.530   5.745 -0.0313  1.1920 -0.6433
 4831TIP3    H214458   2.291   2.416   5.648 -0.9007  0.9589 -0.2241
 4832TIP3   OH214459   1.247   4.535   5.592  0.0917  1.1192  0.6679
 4832TIP3    H114460   1.167   4.503   5.550  1.2384 -0.1972 -0.6616
 4832TIP3    H214461   1.288   4.456   5.629  1.5973  1.4505 -0.1907
 4833TIP3   OH214462   1.894   6.437   3.220  0.1614  0.1835  0.6268
 4833TIP3    H114463   1.845   6.356   3.207  1.0675 -0.4653  1.0926
 4833TIP3    H214464   1.868   6.467   3.307 -0.8508  0.8902  0.0915
 4834TIP3   OH214465   5.208   5.995   0.270  0.0072  0.1229 -0.4086
 4834TIP3    H114466   5.299   6.007   0.298 -0.2121  1.8137 -0.2710
 4834TIP3    H214467   5.208   6.023   0.178 -0.2419 -0.5560 -0.6178
 4835TIP3   OH214468   2.786   5.344   1.753  0.2359 -0.1452 -0.1458
 4835TIP3    H114469   2.841   5.361   1.677 -0.8634  1.5746 -0.6187
 4835TIP3    H214470   2.785   5.427   1.801 -0.9852 -0.4819  0.4543
 4836TIP3   OH214471   6.072   2.008   1.982  0.2317  0.2468  0.9618
 4836TIP3    H114472   5.984   1.975   1.999  1.2257 -2.6252  1.1641
 4836TIP3    H214473   6.111   2.019   2.069  0.2486  1.0174  0.8627
 4837TIP3   OH214474   4.907   3.756   1.866  0.4046 -0.1617  0.5637
 4837TIP3    H114475   4.965   3.680   1.875  1.8989  0.8970  0.2570
 4837TIP3    H214476   4.936   3.798   1.785 -0.7989  0.4187  0.4104
 4838TIP3   OH214477   0.322   0.161   0.851  0.7840  0.7503  0.0936
 4838TIP3    H114478   0.278   0.085   0.812  2.9596  0.0954 -1.3435
 4838TIP3    H214479   0.384   0.122   0.913  1.5905  1.3355 -0.3197
 4839TIP3   OH214480   2.920   3.495   3.803  0.3772 -0.3348  0.5310
 4839TIP3    H114481   2.912   3.509   3.898  1.3690 -1.0288  0.7316
 4839TIP3    H214482   3.014   3.491   3.788  0.2163 -0.5890 -0.4400
 4840TIP3   OH214483   6.292   6.278   3.415  0.1623  0.0576 -0.6609
 4840TIP3    H114484   6.298   6.202   3.474  0.7583 -0.4673 -1.3766
 4840TIP3    H214485   6.235   6.248   3.344  0.4658  0.2526 -0.9871
 4841TIP3   OH214486   4.147   4.093   0.890 -0.4337  0.0246 -0.5372
 4841TIP3    H114487   4.097   4.044   0.955 -0.4140  0.5411 -0.1200
 4841TIP3    H214488   4.126   4.185   0.908 -1.6184  0.1327 -2.2456
 4842TIP3   OH214489   2.962   3.894   1.724 -0.1155 -0.2292  0.5626
 4842TIP3    H114490   2.901   3.821   1.736 -2.6983  1.5686 -0.5729
 4842TIP3    H214491   2.967   3.906   1.629 -0.1559  1.3612  0.7274
 4843TIP3   OH214492   3.005   4.844   0.355  0.0699 -0.8984 -0.3927
 4843TIP3    H114493   3.012   4.929   0.310 -0.3782 -0.0570  1.0463
 4843TIP3    H214494   2.913   4.821   0.347 -0.1497 -0.4277  0.5893
 4844TIP3   OH214495   1.132   1.119   2.157 -0.1048 -0.5119 -0.0949
 4844TIP3    H114496   1.070   1.104   2.086  1.0162 -1.4995 -0.8894
 4844TIP3    H214497   1.207   1.161   2.115  0.7789 -1.5673  0.3934
 4845TIP3   OH214498   3.803   0.217   1.560  0.5656 -0.3741 -0.5142
 4845TIP3    H114499   3.836   0.170   1.483  2.4858  0.0728  0.0027
 4845TIP3    H214500   3.869   0.284   1.579 -1.0814  1.1739  0.0529
 4846TIP3   OH214501   5.234   0.972   3.949  0.3725  0.4338 -0.2300
 4846TIP3    H114502   5.220   1.023   3.869  1.5678  0.5697 -0.3800
 4846TIP3    H214503   5.159   0.992   4.005 -0.2219  0.7269 -1.1184
 4847TIP3   OH214504   7.167   4.651   1.085 -0.3831  0.0491  0.5259
 4847TIP3    H114505   7.218   4.640   1.005  0.4947 -1.5350  1.2453
 4847TIP3    H214506   7.218   4.712   1.138  1.0316 -1.7719  1.3733
 4848TIP3   OH214507   3.197   4.695   1.246  0.2299 -0.2424 -0.4402
 4848TIP3    H114508   3.217   4.634   1.316 -2.1098 -0.2155  0.3357
 4848TIP3    H214509   3.241   4.660   1.169  0.2526 -2.0205  0.3541
 4849TIP3   OH214510   5.443   0.514   2.612 -0.3054  0.7284  0.1156
 4849TIP3    H114511   5.427   0.490   2.703 -0.4320  0.5887  0.0547
 4849TIP3    H214512   5.357   0.517   2.572 -0.1268 -1.1988 -0.5117
 4850TIP3   OH214513   0.444   4.872   1.119 -0.7701  1.0258  0.9307
 4850TIP3    H114514   0.483   4.801   1.169 -3.5381 -1.0751  0.3505
 4850TIP3    H214515   0.462   4.951   1.172  3.2860  0.2127  1.0790
 4851TIP3   OH214516   1.579   3.629   1.447  0.1309  0.0234  0.2844
 4851TIP3    H114517   1.552   3.556   1.504  0.0151 -1.0594 -1.1015
 4851TIP3    H214518   1.501   3.648   1.395  1.0023 -0.8472 -1.3903
 4852TIP3   OH214519   3.482   1.752   3.894  0.6085  0.0809 -0.0736
 4852TIP3    H114520   3.462   1.755   3.988  2.3736  0.1008  0.3479
 4852TIP3    H214521   3.574   1.779   3.889 -0.1662  2.8546 -2.0721
 4853TIP3   OH214522   3.049   4.896   5.394 -0.2087 -0.1354 -0.0405
 4853TIP3    H114523   3.017   4.853   5.315  0.8996  0.2262 -0.7121
 4853TIP3    H214524   3.095   4.827   5.441  0.4129 -0.0115 -0.4555
 4854TIP3   OH214525   0.252   3.696   0.019  0.1295  0.2698  0.4008
 4854TIP3    H114526   0.260   3.603   0.042 -0.1191 -0.0660 -0.7969
 4854TIP3    H214527   0.158   3.711   0.011  0.1861  0.4999  0.1524
 4855TIP3   OH214528   0.513   1.006   1.781  0.1632  0.5347 -0.3013
 4855TIP3    H114529   0.516   1.062   1.858  1.7359  0.7688 -0.5132
 4855TIP3    H214530   0.498   1.067   1.708  1.3432  0.6468 -0.4697
 4856TIP3   OH214531   0.113   6.300   3.875  0.0358 -0.3585  0.2700
 4856TIP3    H114532   0.076   6.247   3.946  1.3538 -0.7654  0.6891
 4856TIP3    H214533   0.077   6.261   3.795 -1.6601  0.2534  0.6876
 4857TIP3   OH214534   4.647   4.181   1.165  0.3931 -0.0022  0.9517
 4857TIP3    H114535   4.564   4.153   1.126 -0.4085  0.1292  2.4940
 4857TIP3    H214536   4.676   4.106   1.216  0.9735  0.1266  0.8103
 4858TIP3   OH214537   5.028   1.995   3.926  0.3860 -0.0970  0.1839
 4858TIP3    H114538   5.071   1.924   3.877  2.1564  0.4308  0.8921
 4858TIP3    H214539   5.044   1.973   4.018 -0.0177  0.6494  0.4374
 4859TIP3   OH214540   4.664   6.191   1.770  0.4996  0.3940 -0.1453
 4859TIP3    H114541   4.690   6.204   1.679  0.3790  1.3816 -0.0504
 4859TIP3    H214542   4.735   6.139   1.808  0.1799 -0.6889 -0.9846
 4860TIP3   OH214543   0.547   5.430   5.284 -0.3992 -0.7320 -0.1503
 4860TIP3    H114544   0.490   5.477   5.223  0.0936 -1.0222 -0.8448
 4860TIP3    H214545   0.631   5.477   5.280 -0.1866 -1.1052 -0.1468
 4861TIP3   OH214546   0.622   6.727   3.362  0.2545  0.5066  0.4039
 4861TIP3    H114547   0.571   6.686   3.431 -1.0452  2.0340  0.4174
 4861TIP3    H214548   0.629   6.819   3.389  0.1235  1.0327 -1.2218
 4862TIP3   OH214549   1.653   6.711   1.285  0.1341  0.3309 -0.1070
 4862TIP3    H114550   1.670   6.802   1.259 -0.7191  0.0728 -1.6946
 4862TIP3    H214551   1.706   6.659   1.225  0.0789 -0.2398  0.3370
 4863TIP3   OH214552   6.213   4.668   3.078 -0.0604 -1.8709 -0.2160
 4863TIP3    H114553   6.138   4.671   3.137  1.2527 -0.1775  1.4608
 4863TIP3    H214554   6.281   4.623   3.127  2.2641  2.6508  1.2625
 4864TIP3   OH214555   6.747   2.455   2.221 -0.2297  0.4574 -0.4295
 4864TIP3    H114556   6.720   2.423   2.135 -2.1423 -1.1201  0.6648
 4864TIP3    H214557   6.682   2.522   2.243 -0.6865 -0.2453  0.4089
 4865TIP3   OH214558   5.471   4.042   1.331 -0.1523 -0.3578  0.2718
 4865TIP3    H114559   5.415   3.982   1.379  0.6890  0.4365  2.3686
 4865TIP3    H214560   5.416   4.119   1.315  0.0833  0.1337  1.6905
 4866TIP3   OH214561   3.461   6.701   3.476  0.1117  0.4557  0.2440
 4866TIP3    H114562   3.395   6.682   3.543 -0.7513 -0.9696 -0.9380
 4866TIP3    H214563   3.466   6.621   3.424 -0.3510  1.9786 -2.3251
 4867TIP3   OH214564   0.540   2.533   2.404  0.0603  0.1176  0.5352
 4867TIP3    H114565   0.570   2.463   2.461 -1.8387 -1.1810  0.0459
 4867TIP3    H214566   0.500   2.596   2.462  0.4706  0.0917  0.8515
 4868TIP3   OH214567   4.941   2.669   5.359  0.3812 -0.4922  0.1512
 4868TIP3    H114568   4.889   2.680   5.279 -2.5344  3.4290  2.1790
 4868TIP3    H214569   5.015   2.728   5.348 -0.6580  0.9808  0.6369
 4869TIP3   OH214570   1.013   5.998   4.789  0.0372 -0.4477  0.1584
 4869TIP3    H114571   1.101   5.990   4.826  0.2124 -1.7396 -0.4707
 4869TIP3    H214572   0.986   5.908   4.772 -0.9328 -0.0089 -0.7576
 4870TIP3   OH214573   2.549   0.522   3.809 -0.4320  0.0438 -0.0817
 4870TIP3    H114574   2.602   0.482   3.877 -2.4056  0.3362  1.7548
 4870TIP3    H214575   2.537   0.613   3.838 -1.7837  0.0169 -0.4754
 4871TIP3   OH214576   2.580   5.347   0.521 -0.4345  0.3088  0.2279
 4871TIP3    H114577   2.634   5.406   0.468  0.4514 -1.8734 -1.4574
 4871TIP3    H214578   2.503   5.330   0.467 -1.6036  1.3117  1.4987
 4872TIP3   OH214579   4.826   3.767   2.430  0.1184  0.4451 -0.1749
 4872TIP3    H114580   4.865   3.841   2.383 -0.3726  0.5276 -0.4689
 4872TIP3    H214581   4.826   3.794   2.521  0.4198  0.5899 -0.2168
 4873TIP3   OH214582   5.225   6.675   3.813  0.1770  0.1362  0.4292
 4873TIP3    H114583   5.215   6.760   3.856 -0.7403  0.5700 -0.5950
 4873TIP3    H214584   5.146   6.665   3.761  1.0397 -0.5776 -0.7972
 4874TIP3   OH214585   4.922   3.261   5.646 -0.2825  0.5554 -0.4924
 4874TIP3    H114586   4.907   3.337   5.703 -0.2020 -0.1535  0.5021
 4874TIP3    H214587   4.847   3.204   5.663  1.5572 -1.4041  1.8408
 4875TIP3   OH214588   5.904   3.191   3.749 -0.1582 -0.1749  0.3316
 4875TIP3    H114589   5.922   3.098   3.736  1.3540  0.2955 -1.3220
 4875TIP3    H214590   5.987   3.228   3.779 -1.0667  0.4727  2.1967
 4876TIP3   OH214591   1.943   1.232   2.058  0.5800  0.3279 -0.2360
 4876TIP3    H114592   1.902   1.226   2.144  0.4178  1.3700 -0.2258
 4876TIP3    H214593   1.874   1.210   1.996  1.0661 -1.8943 -0.0733
 4877TIP3   OH214594   1.241   5.232   2.046  0.3424  0.4316 -0.1407
 4877TIP3    H114595   1.208   5.283   2.120  0.1524 -1.7170  1.3486
 4877TIP3    H214596   1.169   5.232   1.983  0.6027  2.5244 -0.5360
 4878TIP3   OH214597   0.471   0.487   3.674 -0.5973  0.2406 -0.0211
 4878TIP3    H114598   0.505   0.538   3.601 -1.6773  0.6203 -0.2645
 4878TIP3    H214599   0.379   0.512   3.681 -0.5209  0.1997  1.4527
 4879TIP3   OH214600   6.916   5.528   1.685  0.1022  0.5946  0.1790
 4879TIP3    H114601   6.882   5.613   1.655 -1.3701 -0.2787 -0.7137
 4879TIP3    H214602   7.008   5.546   1.706  0.8635  1.6996 -3.3396
 4880TIP3   OH214603   3.464   6.144   1.038  0.1517  0.7086  0.1228
 4880TIP3    H114604   3.475   6.207   1.110 -0.8534  0.1234  0.8242
 4880TIP3    H214605   3.411   6.190   0.973 -0.1679  0.7713  0.4204
 4881TIP3   OH214606   5.438   6.229   4.192  0.1577  0.2081 -0.3635
 4881TIP3    H114607   5.416   6.192   4.107  0.7050 -0.2759 -0.3086
 4881TIP3    H214608   5.356   6.231   4.240  0.1363 -1.1836 -0.2878
 4882TIP3   OH214609   1.385   2.920   3.319 -0.2949 -0.6909  0.2772
 4882TIP3    H114610   1.449   2.887   3.256 -0.5447 -0.2095 -0.2286
 4882TIP3    H214611   1.370   3.011   3.293 -1.6315 -0.9693  0.0421
 4883TIP3   OH214612   4.219   1.114   2.444  0.5543 -0.1341 -0.1596
 4883TIP3    H114613   4.162   1.053   2.493  0.5377 -0.2076 -0.2702
 4883TIP3    H214614   4.162   1.152   2.378  0.6086 -0.1278 -0.2024
 4884TIP3   OH214615   2.578   0.077   5.411 -0.5558 -0.2976 -0.2025
 4884TIP3    H114616   2.610   0.083   5.502  1.9704 -1.1300 -0.9532
 4884TIP3    H214617   2.536   0.162   5.395  0.5223  0.5470  1.2088
 4885TIP3   OH214618   5.070   0.070   4.628 -0.3835 -0.2640 -0.3575
 4885TIP3    H114619   5.057   0.114   4.712 -1.0762  2.2260 -1.6704
 4885TIP3    H214620   5.163   0.082   4.609 -0.7898  2.0054 -1.3075
 4886TIP3   OH214621   4.934   1.087   3.159 -0.1869  0.0530 -0.3340
 4886TIP3    H114622   4.897   1.147   3.095 -0.7057 -1.8113 -1.8734
 4886TIP3    H214623   5.010   1.049   3.116  0.3266 -0.1693  0.7356
 4887TIP3   OH214624   1.109   0.126   5.386 -0.3082  0.4820 -0.7151
 4887TIP3    H114625   1.044   0.148   5.453 -0.4995 -1.4051 -0.2388
 4887TIP3    H214626   1.071   0.158   5.304 -1.0956  0.8046 -0.2375
 4888TIP3   OH214627   4.958   5.291   0.180 -0.0861  0.2708  0.2622
 4888TIP3    H114628   5.032   5.243   0.141 -1.6489  0.8808 -4.0711
 4888TIP3    H214629   4.881   5.242   0.153 -1.4217  1.4103  1.8521
 4889TIP3   OH214630   6.021   4.443   3.143 -0.2513  0.0862  0.2435
 4889TIP3    H114631   5.947   4.384   3.126  0.1238 -0.8025  1.5432
 4889TIP3    H214632   6.097   4.397   3.108 -0.1580  0.5425 -0.1740
 4890TIP3   OH214633   4.765   0.537   3.879 -0.5710 -0.2153  0.0194
 4890TIP3    H114634   4.849   0.583   3.870 -1.6496  1.5797 -2.0713
 4890TIP3    H214635   4.785   0.460   3.931  2.8043 -0.9346 -2.0284
 4891TIP3   OH214636   2.116   2.940   0.443 -0.1774  0.6709 -0.3845
 4891TIP3    H114637   2.039   2.995   0.455 -0.7501 -0.2610  0.2857
 4891TIP3    H214638   2.082   2.850   0.439  0.7343  0.3452 -1.4866
 4892TIP3   OH214639   6.310   3.831   1.674  0.2648  0.5298  0.4761
 4892TIP3    H114640   6.369   3.901   1.701  0.9960 -0.0649  0.4760
 4892TIP3    H214641   6.318   3.828   1.578  0.0093  0.6484  0.4528
 4893TIP3   OH214642   3.528   3.303   3.147 -0.6562  0.2538  0.0717
 4893TIP3    H114643   3.497   3.215   3.124 -1.1914  0.5654 -0.4291
 4893TIP3    H214644   3.613   3.288   3.189  0.4865 -0.3336 -2.2822
 4894TIP3   OH214645   4.323   3.280   3.717 -0.0532  0.1157 -0.2684
 4894TIP3    H114646   4.390   3.216   3.693 -0.1601  0.0646 -0.4237
 4894TIP3    H214647   4.319   3.275   3.813 -0.1583 -0.2068 -0.2883
 4895TIP3   OH214648   7.052   6.555   3.055  0.2815  0.2090 -0.5694
 4895TIP3    H114649   7.125   6.497   3.078 -0.9002 -1.2917 -0.4584
 4895TIP3    H214650   7.072   6.637   3.101  1.0871 -0.7109  0.8083
 4896TIP3   OH214651   6.338   6.476   3.029  0.2027  0.0998 -0.4497
 4896TIP3    H114652   6.250   6.437   3.026 -1.3895  2.7929  3.1352
 4896TIP3    H214653   6.387   6.419   3.088 -0.5512  0.7213  0.8408
 4897TIP3   OH214654   1.615   0.962   5.900  0.4584  0.2305  0.4234
 4897TIP3    H114655   1.592   0.872   5.919  1.4241 -0.3660 -1.1018
 4897TIP3    H214656   1.560   0.988   5.827 -0.0925  1.0378  1.0916
 4898TIP3   OH214657   5.259   2.407   2.331  0.1090  0.4888 -0.6125
 4898TIP3    H114658   5.242   2.437   2.420  0.2087  1.4108 -0.8959
 4898TIP3    H214659   5.226   2.317   2.330 -1.1949  0.9347 -0.0453
 4899TIP3   OH214660   2.226   2.701   3.677  0.0542  0.2095 -0.0141
 4899TIP3    H114661   2.185   2.693   3.591 -0.0220 -0.3042  0.0656
 4899TIP3    H214662   2.194   2.625   3.726  1.9032 -0.8037 -0.2790
 4900TIP3   OH214663   3.819   0.933   0.132  0.3443 -0.3669 -0.0672
 4900TIP3    H114664   3.737   0.906   0.091  0.8188 -1.1505 -0.5097
 4900TIP3    H214665   3.800   1.019   0.169 -0.6551 -0.5135 -0.2299
 4901TIP3   OH214666   4.394   1.098   1.019  0.7179 -0.4497  1.0089
 4901TIP3    H114667   4.466   1.134   0.969  1.0533 -0.8998  1.1605
 4901TIP3    H214668   4.352   1.174   1.060  1.1080 -0.1885  0.9267
 4902TIP3   OH214669   5.740   4.897   0.938  0.2533 -0.0168  0.3801
 4902TIP3    H114670   5.751   4.944   0.855 -2.3244  1.7071  0.8988
 4902TIP3    H214671   5.661   4.844   0.926 -1.6900  2.1909  2.4387
 4903TIP3   OH214672   5.159   6.044   3.190  0.3187 -0.1408  0.7902
 4903TIP3    H114673   5.137   5.978   3.124  1.0579 -0.3903  0.7817
 4903TIP3    H214674   5.079   6.055   3.241 -0.1231 -0.2786  0.1391
 4904TIP3   OH214675   1.218   1.218   1.452  0.0385 -0.0528  0.6429
 4904TIP3    H114676   1.203   1.272   1.375 -0.3889  0.9066  1.3791
 4904TIP3    H214677   1.154   1.147   1.444  0.4999 -0.3817 -0.2520
 4905TIP3   OH214678   3.490   1.455   2.754 -0.1374  0.0518 -0.3984
 4905TIP3    H114679   3.523   1.523   2.695  1.6078 -0.3392  0.0941
 4905TIP3    H214680   3.457   1.503   2.830  0.8955  0.3637 -0.1429
 4906TIP3   OH214681   4.643   5.517   1.536  0.3896  0.2831  0.4126
 4906TIP3    H114682   4.730   5.550   1.559  1.2657 -1.0333 -0.8238
 4906TIP3    H214683   4.631   5.439   1.590  1.2941 -1.2327 -1.4347
 4907TIP3   OH214684   1.445   3.964   3.722 -0.0681  0.1801  0.1806
 4907TIP3    H114685   1.414   4.038   3.774 -2.3505 -2.8481  3.6595
 4907TIP3    H214686   1.522   3.932   3.770 -0.4428 -0.9559  0.0537
 4908TIP3   OH214687   6.920   3.516   0.444  0.2573  0.1249 -0.2402
 4908TIP3    H114688   6.941   3.439   0.498 -1.5764 -0.7126 -0.6472
 4908TIP3    H214689   6.990   3.519   0.379  0.1129 -1.5384 -0.5315
 4909TIP3   OH214690   0.959   4.604   2.771  0.4252  0.4049  0.4708
 4909TIP3    H114691   0.899   4.548   2.721 -1.4549  2.5998  0.1184
 4909TIP3    H214692   0.991   4.547   2.841 -1.2844 -1.1569  0.0806
 4910TIP3   OH214693   0.966   3.718   0.887  0.0948 -0.6674  0.2832
 4910TIP3    H114694   0.936   3.733   0.797  0.9888 -1.1522 -0.1055
 4910TIP3    H214695   1.048   3.671   0.877  0.8201  0.3457  1.3384
 4911TIP3   OH214696   0.805   2.637   3.422 -0.7390 -0.0074  0.1705
 4911TIP3    H114697   0.839   2.547   3.423  0.6014  0.4585  1.6833
 4911TIP3    H214698   0.716   2.628   3.390 -0.9886 -2.0306  1.2142
 4912TIP3   OH214699   1.822   3.295   3.339 -0.2530 -0.8277  0.2365
 4912TIP3    H114700   1.913   3.324   3.328 -0.0445 -1.4981  0.1362
 4912TIP3    H214701   1.821   3.251   3.425 -0.8477  0.5230  0.9483
 4913TIP3   OH214702   6.134   2.084   4.533  0.1009  0.4464 -0.3792
 4913TIP3    H114703   6.039   2.084   4.520 -0.0660  0.5118  0.7487
 4913TIP3    H214704   6.149   2.016   4.599  0.7789  0.7976 -0.1659
 4914TIP3   OH214705   2.055   5.990   2.081  0.5650  0.1780  0.0063
 4914TIP3    H114706   2.115   5.991   2.007 -0.7221  0.6884 -1.0590
 4914TIP3    H214707   1.970   5.968   2.043 -0.1303  0.4926  1.3246
 4915TIP3   OH214708   1.879   5.928   1.633  0.1700 -0.5612  0.3053
 4915TIP3    H114709   1.845   6.004   1.681  0.7814  0.8081 -1.2980
 4915TIP3    H214710   1.801   5.888   1.594 -0.2285 -1.1811  1.6836
 4916TIP3   OH214711   2.418   6.142   1.865  0.0844  0.1181 -0.7644
 4916TIP3    H114712   2.407   6.220   1.810  0.3416 -0.0299 -1.0248
 4916TIP3    H214713   2.439   6.072   1.804 -0.5034 -0.2382 -0.5703
 4917TIP3   OH214714   4.821   1.356   0.354  0.4053 -0.1961  0.4378
 4917TIP3    H114715   4.848   1.264   0.351 -2.1433 -0.9992 -1.2170
 4917TIP3    H214716   4.743   1.356   0.409 -0.4410  0.7063 -0.7261
 4918TIP3   OH214717   3.842   1.187   0.431 -0.1735 -0.4968 -0.1857
 4918TIP3    H114718   3.853   1.200   0.337 -0.8491 -0.2507 -0.2405
 4918TIP3    H214719   3.787   1.109   0.438  0.2944 -0.8124  0.0227
 4919TIP3   OH214720   7.134   2.116   2.028 -0.0732  0.6773 -0.8788
 4919TIP3    H114721   7.215   2.154   2.064 -0.4944  1.2682 -0.5276
 4919TIP3    H214722   7.104   2.056   2.096 -1.2718  2.3527  0.1509
 4920TIP3   OH214723   7.176   2.771   5.730 -0.5060  0.1225  0.7153
 4920TIP3    H114724   7.170   2.731   5.817 -1.0918 -1.1241  0.1277
 4920TIP3    H214725   7.253   2.828   5.735  0.5769 -1.3402  1.5180
 4921TIP3   OH214726   6.396   3.882   2.589 -0.2076 -0.2802  0.0710
 4921TIP3    H114727   6.325   3.929   2.545 -1.1399  0.8308  2.6071
 4921TIP3    H214728   6.466   3.878   2.523 -1.8214  0.4663 -1.7953
 4922TIP3   OH214729   4.750   0.219   0.240  1.0123 -0.5158 -0.7516
 4922TIP3    H114730   4.762   0.255   0.328  1.4713 -1.3886 -0.4431
 4922TIP3    H214731   4.764   0.294   0.182  0.4018  0.1376 -0.0801
 4923TIP3   OH214732   5.033   6.711   0.752  0.0906  0.8334 -0.0230
 4923TIP3    H114733   4.941   6.739   0.745  0.6577  2.8600 -0.2273
 4923TIP3    H214734   5.046   6.652   0.678 -0.8225  1.2221 -0.5154
 4924TIP3   OH214735   1.027   5.250   1.216 -0.3645  0.7283  0.4527
 4924TIP3    H114736   1.016   5.251   1.121  0.6695 -0.7672  0.2935
 4924TIP3    H214737   1.060   5.163   1.236  0.0991  1.2478  2.1218
 4925TIP3   OH214738   0.907   1.878   4.597  0.2863 -0.6187  0.0209
 4925TIP3    H114739   0.812   1.887   4.608  0.3110 -0.5064  0.1457
 4925TIP3    H214740   0.940   1.862   4.686  0.5254  0.6170  0.1652
 4926TIP3   OH214741   3.876   1.275   4.724  0.0347  0.2761 -0.4982
 4926TIP3    H114742   3.857   1.182   4.716 -2.0729  0.5443  0.6815
 4926TIP3    H214743   3.962   1.279   4.765  0.9023 -1.0988 -2.0645
 4927TIP3   OH214744   4.823   5.626   1.186  0.3326 -1.1485  0.1178
 4927TIP3    H114745   4.764   5.682   1.237 -0.0672  0.4552 -1.9247
 4927TIP3    H214746   4.767   5.556   1.153 -0.3146 -0.0788 -1.1512
 4928TIP3   OH214747   0.277   3.293   5.167  0.0505  0.4025 -0.7292
 4928TIP3    H114748   0.310   3.383   5.167  2.5753 -0.4264  0.0646
 4928TIP3    H214749   0.286   3.264   5.257  2.5323 -1.6379 -1.4939
 4929TIP3   OH214750   6.455   1.887   1.975  0.2410 -0.0817 -0.3793
 4929TIP3    H114751   6.479   1.968   2.021 -1.8394  0.8314 -0.7605
 4929TIP3    H214752   6.435   1.825   2.044  1.1977 -0.0738 -0.0797
 4930TIP3   OH214753   2.403   4.489   2.471 -0.2458  0.0396 -1.1029
 4930TIP3    H114754   2.415   4.396   2.454  0.8866 -0.2544  0.9530
 4930TIP3    H214755   2.438   4.532   2.393  0.5048 -1.2406 -1.5093
 4931TIP3   OH214756   6.669   0.230   4.314 -0.3227 -0.3430  0.1118
 4931TIP3    H114757   6.721   0.165   4.361  2.4277 -1.3788 -3.7835
 4931TIP3    H214758   6.595   0.180   4.280 -1.7007  0.1590  2.1960
 4932TIP3   OH214759   2.487   1.983   4.521  0.0520  0.2276  0.7182
 4932TIP3    H114760   2.521   1.984   4.611 -0.4283  1.3601  0.8969
 4932TIP3    H214761   2.401   2.025   4.527  0.1681  0.6477 -0.3303
 4933TIP3   OH214762   0.544   1.942   5.505  0.1000  0.8108  0.3338
 4933TIP3    H114763   0.483   1.917   5.435  0.8518  1.7634 -0.7051
 4933TIP3    H214764   0.621   1.974   5.459  1.2400 -0.0016  1.6345
 4934TIP3   OH214765   3.009   4.685   1.883 -0.2195 -0.7115 -0.0633
 4934TIP3    H114766   3.082   4.705   1.824 -0.9731  0.0213 -0.7812
 4934TIP3    H214767   2.933   4.727   1.842 -1.3972 -2.8837 -0.2677
 4935TIP3   OH214768   5.702   3.947   3.902 -0.2474 -0.1655  0.2143
 4935TIP3    H114769   5.631   4.007   3.878 -0.2216  0.1673  0.9343
 4935TIP3    H214770   5.740   3.986   3.980 -0.4174 -1.2883  0.8751
 4936TIP3   OH214771   1.567   5.485   4.815  1.3190  0.5590  0.6142
 4936TIP3    H114772   1.586   5.405   4.864  1.4709 -0.5681 -1.1927
 4936TIP3    H214773   1.473   5.496   4.822  1.4984  1.1971  2.2777
 4937TIP3   OH214774   3.786   5.371   1.969  0.4049  0.2380 -0.0559
 4937TIP3    H114775   3.873   5.375   1.928  0.4128  0.3506 -0.0278
 4937TIP3    H214776   3.780   5.452   2.020  0.4996 -0.0229  0.3785
 4938TIP3   OH214777   2.613   0.821   4.886  0.1439 -0.2007 -0.0540
 4938TIP3    H114778   2.543   0.759   4.906  1.5830 -1.6918  0.5968
 4938TIP3    H214779   2.621   0.874   4.966  1.2932 -1.6070  0.8166
 4939TIP3   OH214780   2.706   1.297   3.828  0.5700  0.4885  0.1475
 4939TIP3    H114781   2.722   1.273   3.920 -0.9910  2.5296  1.0429
 4939TIP3    H214782   2.788   1.275   3.783  0.4007 -3.3655  1.3402
 4940TIP3   OH214783   2.130   5.828   0.120 -0.3335 -0.8769 -0.4603
 4940TIP3    H114784   2.078   5.751   0.145 -1.5910  0.2833  0.6794
 4940TIP3    H214785   2.214   5.815   0.164 -0.9350 -1.0824  0.6768
 4941TIP3   OH214786   1.824   2.911   5.320  0.1264  0.5160  0.3857
 4941TIP3    H114787   1.782   2.876   5.399 -1.4223  0.0922 -0.5973
 4941TIP3    H214788   1.756   2.909   5.253  1.0534  2.0368 -0.6628
 4942TIP3   OH214789   3.859   5.439   1.378 -0.6193  0.1731 -0.0994
 4942TIP3    H114790   3.903   5.442   1.293 -0.0029  0.1969  0.2119
 4942TIP3    H214791   3.822   5.526   1.389 -1.8009 -0.2062 -0.8999
 4943TIP3   OH214792   4.918   0.329   2.359 -0.0520  0.1818  0.6105
 4943TIP3    H114793   4.849   0.272   2.393  1.6535 -1.5187  1.4188
 4943TIP3    H214794   4.878   0.415   2.353 -1.8810 -0.5003  2.1719
 4944TIP3   OH214795   7.084   4.293   0.807  0.5577  0.0117 -0.3240
 4944TIP3    H114796   7.123   4.378   0.788 -0.5338  0.9542  1.3816
 4944TIP3    H214797   6.990   4.306   0.795  0.2969 -0.6970  0.7829
 4945TIP3   OH214798   4.487   1.729   1.780  0.0391  0.5047 -0.1735
 4945TIP3    H114799   4.472   1.727   1.875  0.8742 -0.5199 -0.0434
 4945TIP3    H214800   4.407   1.692   1.743  0.5599 -1.2257  0.2925
 4946TIP3   OH214801   6.093   6.069   4.852 -0.3858 -0.1089 -0.4027
 4946TIP3    H114802   6.085   5.975   4.870  0.4937 -0.3229 -1.0509
 4946TIP3    H214803   6.166   6.098   4.907 -1.2026  0.3993  0.4543
 4947TIP3   OH214804   3.857   1.633   3.626  0.6526 -0.5779  0.2229
 4947TIP3    H114805   3.924   1.696   3.601 -0.0288 -0.6964 -2.0906
 4947TIP3    H214806   3.774   1.673   3.599  0.0905 -1.8391  0.0016
 4948TIP3   OH214807   5.584   4.709   4.145  0.1769 -0.2170 -0.5233
 4948TIP3    H114808   5.552   4.692   4.233  1.0405 -0.8480 -0.3191
 4948TIP3    H214809   5.514   4.760   4.104 -1.0084 -1.3904 -0.0560
 4949TIP3   OH214810   4.299   4.782   5.520 -0.5250  0.0675 -0.4454
 4949TIP3    H114811   4.338   4.721   5.581 -0.4322 -1.5110 -2.0105
 4949TIP3    H214812   4.216   4.742   5.494 -0.8775  1.0184 -0.8719
 4950TIP3   OH214813   6.924   1.769   4.550  0.2456  0.1308 -0.3404
 4950TIP3    H114814   6.870   1.720   4.612  0.0132  1.5961  0.6669
 4950TIP3    H214815   6.889   1.747   4.464  0.6641 -2.0527  0.0039
 4951TIP3   OH214816   1.901   0.713   4.125  0.2632 -0.4265 -0.0040
 4951TIP3    H114817   1.842   0.784   4.102  0.0845  0.5230  3.0160
 4951TIP3    H214818   1.848   0.634   4.118 -0.7426  0.1855  0.5507
 4952TIP3   OH214819   2.790   5.011   5.498 -0.1069 -0.0012  0.1480
 4952TIP3    H114820   2.873   4.964   5.497  0.2211  0.5706  0.0463
 4952TIP3    H214821   2.799   5.073   5.571  0.1389  1.0712 -0.7616
 4953TIP3   OH214822   5.223   1.521   2.460 -0.1326  0.5216 -0.4735
 4953TIP3    H114823   5.173   1.508   2.541 -0.1366  1.4871 -0.3008
 4953TIP3    H214824   5.259   1.435   2.439 -2.2997 -0.3508 -0.9086
 4954TIP3   OH214825   3.553   0.199   0.343  0.1224  0.5768  0.3231
 4954TIP3    H114826   3.507   0.157   0.416  0.8909  0.5497  0.8051
 4954TIP3    H214827   3.632   0.146   0.330 -0.1425  0.4093 -0.7265
 4955TIP3   OH214828   4.721   1.699   1.214  0.2402  0.4835 -0.2100
 4955TIP3    H114829   4.734   1.768   1.278 -0.9757  1.3708 -0.8821
 4955TIP3    H214830   4.626   1.689   1.208  0.2469  1.3506 -2.7984
 4956TIP3   OH214831   5.027   5.853   0.642  0.5536 -0.1787 -0.3734
 4956TIP3    H114832   5.053   5.822   0.555 -0.2646  0.2012 -0.7662
 4956TIP3    H214833   4.932   5.866   0.635  0.5447  0.2520  0.4549
 4957TIP3   OH214834   3.235   2.227   2.938 -0.2694  0.4159  0.2345
 4957TIP3    H114835   3.288   2.287   2.989  0.9935 -0.0263 -0.5198
 4957TIP3    H214836   3.237   2.145   2.987 -0.3919  0.4402  0.2817
 4958TIP3   OH214837   1.817   3.319   5.012  0.1440  0.7832  0.5905
 4958TIP3    H114838   1.845   3.322   5.104  0.2277 -2.3052  0.7452
 4958TIP3    H214839   1.773   3.235   5.003  0.8298  0.6521 -2.3817
 4959TIP3   OH214840   2.691   5.696   0.781 -0.1048 -0.2629  0.3361
 4959TIP3    H114841   2.646   5.704   0.696 -0.2166 -1.3472  0.2714
 4959TIP3    H214842   2.781   5.723   0.764 -0.3780  0.5106  0.1129
 4960TIP3   OH214843   6.961   6.173   1.582  0.3137  0.1715 -0.0271
 4960TIP3    H114844   6.948   6.173   1.487 -0.9177 -0.2059  0.1295
 4960TIP3    H214845   7.020   6.247   1.598  1.5203 -0.4941 -1.2031
 4961TIP3   OH214846   6.439   5.125   3.819 -0.2704 -0.0862 -0.0427
 4961TIP3    H114847   6.359   5.138   3.770 -0.5808 -0.3686  0.3824
 4961TIP3    H214848   6.438   5.193   3.886 -0.2013 -0.1466  0.0209
 4962TIP3   OH214849   0.042   6.172   3.635 -0.6612  0.0629  0.1089
 4962TIP3    H114850  -0.051   6.174   3.612 -0.5734 -0.1471 -0.2716
 4962TIP3    H214851   0.088   6.177   3.551 -0.2636  3.6288  0.4117
 4963TIP3   OH214852   3.050   3.681   2.373 -0.0487 -0.6853  0.1732
 4963TIP3    H114853   3.103   3.623   2.318  1.0425 -1.5958  2.0783
 4963TIP3    H214854   3.032   3.757   2.317 -0.4455 -2.2778 -1.9662
 4964TIP3   OH214855   3.962   0.726   3.740  0.1939  0.3070  0.0642
 4964TIP3    H114856   3.986   0.654   3.682  1.1822  0.1001  0.6922
 4964TIP3    H214857   3.873   0.706   3.768  1.2922 -2.1591  2.3012
 4965TIP3   OH214858   1.176   2.628   0.521  0.4480 -0.3255  0.1813
 4965TIP3    H114859   1.241   2.587   0.578  0.4317  0.2005  0.5780
 4965TIP3    H214860   1.093   2.588   0.548  0.5265 -0.5666  0.0707
 4966TIP3   OH214861   7.063   5.832   1.276  0.4131  0.0717  0.2735
 4966TIP3    H114862   7.129   5.845   1.207 -0.2030 -0.3096 -0.4010
 4966TIP3    H214863   7.001   5.904   1.264  0.8406  0.5806  1.0748
 4967TIP3   OH214864   4.611   3.273   2.723  0.2838 -0.1365  0.5432
 4967TIP3    H114865   4.529   3.249   2.765 -0.0274 -2.3800 -1.1975
 4967TIP3    H214866   4.678   3.256   2.790 -0.2987 -2.6679  0.5847
 4968TIP3   OH214867   3.647   4.827   2.725  0.4894  0.0699  0.1382
 4968TIP3    H114868   3.656   4.832   2.630 -0.1886  0.3480  0.0799
 4968TIP3    H214869   3.634   4.917   2.753  0.5083 -0.0311  0.4768
 4969TIP3   OH214870   2.460   3.864   2.001  0.5054 -0.1379 -0.4843
 4969TIP3    H114871   2.422   3.788   1.955  2.4746  0.0590 -2.6478
 4969TIP3    H214872   2.384   3.911   2.035 -0.8545 -2.4298 -0.0652
 4970TIP3   OH214873   6.610   3.630   3.954 -0.0322 -0.3498  0.3912
 4970TIP3    H114874   6.705   3.633   3.965 -0.0822  1.3841  0.6748
 4970TIP3    H214875   6.584   3.546   3.991  1.3683 -0.7912  0.4314
 4971TIP3   OH214876   5.888   0.957   1.737  0.0276 -0.1811  0.8986
 4971TIP3    H114877   5.977   0.930   1.715  0.3497  1.3342  0.1477
 4971TIP3    H214878   5.837   0.876   1.738  1.0829 -0.9004 -0.3321
 4972TIP3   OH214879   0.167   5.144   3.851  0.4037 -0.1268  0.2303
 4972TIP3    H114880   0.091   5.098   3.814 -0.9219 -0.1344  2.7536
 4972TIP3    H214881   0.155   5.235   3.825  2.0428 -0.7302 -3.1927
 4973TIP3   OH214882   0.846   6.187   3.567 -0.2453 -0.2897  0.3115
 4973TIP3    H114883   0.861   6.113   3.508  0.9396 -1.7904  2.3791
 4973TIP3    H214884   0.759   6.172   3.603  0.1240 -0.8952  0.9766
 4974TIP3   OH214885   0.089   0.732   4.925 -0.1400  0.4697 -0.5037
 4974TIP3    H114886   0.056   0.735   4.835  0.9136 -0.2624 -0.9320
 4974TIP3    H214887   0.183   0.751   4.917  0.1141 -0.3408  0.3411
 4975TIP3   OH214888   5.978   6.358   0.460 -0.3392 -0.5184 -0.3399
 4975TIP3    H114889   5.916   6.358   0.533  0.4721 -1.0437  0.3671
 4975TIP3    H214890   5.923   6.359   0.381 -1.2761  2.7181  0.1998
 4976TIP3   OH214891   5.701   6.626   5.112 -0.0602  0.3538 -0.4480
 4976TIP3    H114892   5.647   6.651   5.187  2.8040  0.7617  1.7057
 4976TIP3    H214893   5.672   6.537   5.090 -1.3781  0.4440  0.7980
 4977TIP3   OH214894   5.147   3.370   4.024  0.2235  0.1927 -0.2393
 4977TIP3    H114895   5.220   3.387   4.084 -1.9788  1.6857  2.2250
 4977TIP3    H214896   5.185   3.382   3.937  2.7719  1.5557  0.9388
 4978TIP3   OH214897   3.197   4.763   2.214 -0.2504 -0.7015 -0.3483
 4978TIP3    H114898   3.134   4.800   2.276  0.6037  1.5953 -0.7433
 4978TIP3    H214899   3.184   4.669   2.220 -2.1914 -0.4047  1.1743
 4979TIP3   OH214900   2.275   0.232   1.497 -0.6200 -0.3892 -0.4032
 4979TIP3    H114901   2.352   0.195   1.540 -0.6015  0.5126  0.3934
 4979TIP3    H214902   2.213   0.248   1.568 -1.3741 -0.7029 -0.9828
 4980TIP3   OH214903   7.159   2.516   0.221  0.4066  0.0447  0.1816
 4980TIP3    H114904   7.125   2.426   0.220 -1.5076  0.6745  1.7362
 4980TIP3    H214905   7.100   2.565   0.164 -0.0468  0.7490  1.2237
 4981TIP3   OH214906   0.102   5.877   3.138 -0.3999 -0.3680 -0.1906
 4981TIP3    H114907   0.017   5.915   3.161 -0.0710 -1.0067  2.3613
 4981TIP3    H214908   0.149   5.948   3.094 -1.5787  0.5509 -0.0290
 4982TIP3   OH214909   3.858   2.670   0.541 -0.6758  0.8064  0.0291
 4982TIP3    H114910   3.769   2.638   0.558 -0.2427  0.4571  1.9874
 4982TIP3    H214911   3.896   2.606   0.481 -1.5363  0.5987 -0.3019
 4983TIP3   OH214912   2.886   4.729   3.927 -0.1231  0.2425  0.1985
 4983TIP3    H114913   2.940   4.709   3.850 -1.1082 -0.7321 -0.2707
 4983TIP3    H214914   2.811   4.777   3.892 -1.0209 -0.9719  0.3926
 4984TIP3   OH214915   1.705   0.589   5.161  1.1736 -0.0788 -0.0771
 4984TIP3    H114916   1.764   0.558   5.093 -0.3580 -0.8836 -1.1036
 4984TIP3    H214917   1.695   0.682   5.144  1.5762 -0.0827 -0.3442
 4985TIP3   OH214918   3.418   4.914   4.819  0.1908  0.6959  0.0692
 4985TIP3    H114919   3.458   4.921   4.732 -0.3058  0.8527 -0.1510
 4985TIP3    H214920   3.416   4.820   4.837 -0.1374  0.6300 -0.2967
 4986TIP3   OH214921   6.585   4.875   0.233 -0.1338 -0.0183  0.3407
 4986TIP3    H114922   6.532   4.802   0.200 -0.3836  0.4161 -0.2288
 4986TIP3    H214923   6.555   4.887   0.323  0.5381 -1.1996  0.7509
 4987TIP3   OH214924   1.971   5.905   3.075  0.0324 -0.1204 -0.2668
 4987TIP3    H114925   1.908   5.839   3.049  1.1296 -1.5547  0.5618
 4987TIP3    H214926   1.970   5.903   3.171 -0.0127  1.1710 -0.2216
 4988TIP3   OH214927   5.595   2.043   5.614  0.4970  0.1185  0.0826
 4988TIP3    H114928   5.616   2.029   5.521 -1.1804  0.2966 -0.3671
 4988TIP3    H214929   5.509   2.003   5.625  1.1291 -0.8636  1.8596
 4989TIP3   OH214930   2.979   1.826   1.556  0.2350  0.1685  0.4377
 4989TIP3    H114931   2.968   1.812   1.650  0.1709 -0.4432  0.3431
 4989TIP3    H214932   2.898   1.871   1.529  0.0190 -0.1322  0.5818
 4990TIP3   OH214933   3.701   2.862   2.630  0.1570  0.4497 -0.2378
 4990TIP3    H114934   3.710   2.912   2.548 -1.2789 -1.1104 -1.4231
 4990TIP3    H214935   3.745   2.779   2.612  0.5739  0.4160  0.9007
 4991TIP3   OH214936   2.318   5.670   2.199  0.1026  0.5455 -0.4057
 4991TIP3    H114937   2.349   5.738   2.138  0.6125  0.7207  0.0394
 4991TIP3    H214938   2.223   5.677   2.197  0.0593 -0.0367 -1.8511
 4992TIP3   OH214939   3.872   5.324   0.943 -0.0762  0.2964  0.1268
 4992TIP3    H114940   3.959   5.285   0.945 -0.0360  0.3970  0.4077
 4992TIP3    H214941   3.878   5.400   1.001 -0.4671  0.0599  0.4800
 4993TIP3   OH214942   5.276   6.177   4.599 -0.3194  0.0981 -0.0422
 4993TIP3    H114943   5.354   6.165   4.653 -0.6998  1.4401  0.8571
 4993TIP3    H214944   5.230   6.093   4.605  0.2337 -0.1628  0.7583
 4994TIP3   OH214945   5.884   6.404   1.259 -0.0245  0.0515  0.9622
 4994TIP3    H114946   5.965   6.456   1.260  1.6172 -2.3320  2.5304
 4994TIP3    H214947   5.833   6.436   1.332 -0.3691  1.3199  0.1920
 4995TIP3   OH214948   1.880   1.908   5.858  0.0473  0.1834  0.4964
 4995TIP3    H114949   1.952   1.864   5.812  0.1610 -0.1055  0.9514
 4995TIP3    H214950   1.913   1.997   5.875  1.4944 -0.7968  3.3643
 4996TIP3   OH214951   3.229   2.136   5.744 -0.8511  0.2775 -0.3566
 4996TIP3    H114952   3.194   2.121   5.656  1.0714 -0.1643 -1.0844
 4996TIP3    H214953   3.269   2.052   5.768  0.4541  1.0043  0.0709
 4997TIP3   OH214954   6.404   2.753   2.641 -0.1303  0.2504 -0.6110
 4997TIP3    H114955   6.473   2.697   2.606  0.9498  1.0070  0.2392
 4997TIP3    H214956   6.406   2.831   2.586  1.3994  1.3316  0.8851
 4998TIP3   OH214957   1.718   0.901   5.363 -0.9748  0.5753  0.2309
 4998TIP3    H114958   1.804   0.907   5.322 -0.7646 -1.2024  0.3124
 4998TIP3    H214959   1.657   0.895   5.290 -1.2772  3.6409  0.1273
 4999TIP3   OH214960   2.093   2.425   1.649 -0.4798 -0.3662 -0.2058
 4999TIP3    H114961   2.148   2.504   1.653 -2.4765  1.1881 -1.5574
 4999TIP3    H214962   2.078   2.412   1.556 -3.2092 -0.0752  0.1142
 5000TIP3   OH214963   5.379   0.078   0.919 -0.1725 -0.3187 -0.1041
 5000TIP3    H114964   5.474   0.091   0.915 -0.3777  0.9538 -1.6800
 5000TIP3    H214965   5.360   0.019   0.846 -0.8065  1.0296 -1.0642
 5001TIP3   OH214966   3.055   4.812   4.917 -0.0707 -0.0967 -0.4369
 5001TIP3    H114967   3.055   4.886   4.856 -1.3538  0.1739 -0.1360
 5001TIP3    H214968   3.056   4.734   4.861  0.2073  0.1426 -0.7688
 5002TIP3   OH214969   6.009   1.992   3.087  0.2348  0.0853 -0.2369
 5002TIP3    H114970   6.027   2.083   3.064  1.3218 -0.3538 -1.2581
 5002TIP3    H214971   6.095   1.949   3.082 -0.0135 -0.7306  1.5630
 5003TIP3   OH214972   0.551   3.664   0.960 -0.3385  0.0073 -0.5348
 5003TIP3    H114973   0.476   3.605   0.965 -0.3082  0.0890  1.7022
 5003TIP3    H214974   0.515   3.745   0.923 -1.1758 -0.2044 -0.2075
 5004TIP3   OH214975   5.316   0.524   5.123  0.0184  0.0328  0.0413
 5004TIP3    H114976   5.377   0.576   5.071  1.5143 -0.6526  1.0653
 5004TIP3    H214977   5.346   0.534   5.213 -0.4103 -1.6087  0.3996
 5005TIP3   OH214978   2.631   6.463   4.025 -0.1198 -0.0075 -0.1896
 5005TIP3    H114979   2.598   6.511   3.949  0.8765 -0.0436 -0.6726
 5005TIP3    H214980   2.691   6.525   4.068 -0.5934 -0.0266  0.5070
 5006TIP3   OH214981   6.551   4.765   2.158 -0.0554 -0.2053  0.5128
 5006TIP3    H114982   6.562   4.851   2.197  2.7100 -0.3369  0.1904
 5006TIP3    H214983   6.456   4.757   2.144 -0.6160  1.8339  2.5542
 5007TIP3   OH214984   5.110   2.610   1.865  0.0434 -0.0162  0.1328
 5007TIP3    H114985   5.182   2.554   1.837  0.8156  0.0477  1.8779
 5007TIP3    H214986   5.152   2.692   1.891 -0.4425 -0.4109  2.3964
 5008TIP3   OH214987   5.841   0.792   2.971 -0.5427 -0.3388 -0.1625
 5008TIP3    H114988   5.769   0.738   3.004 -2.0946  0.6047 -1.7877
 5008TIP3    H214989   5.860   0.756   2.884  1.5925 -1.1006  0.5592
 5009TIP3   OH214990   5.172   2.335   1.555  0.1823  0.7745  0.0206
 5009TIP3    H114991   5.231   2.384   1.613  3.2277 -0.3912 -1.8443
 5009TIP3    H214992   5.118   2.402   1.514 -0.2294  1.8531  2.1825
 5010TIP3   OH214993   6.013   6.508   3.896 -0.0981 -0.1314  0.4465
 5010TIP3    H114994   5.987   6.525   3.806  1.4132  1.4672  0.2463
 5010TIP3    H214995   5.942   6.455   3.933 -0.6938 -0.8933 -1.6875
 5011TIP3   OH214996   4.280   1.706   3.035 -0.3514 -0.0088  0.2959
 5011TIP3    H114997   4.202   1.654   3.056 -0.6470  0.4647  0.3644
 5011TIP3    H214998   4.261   1.793   3.068  0.0156  0.2310 -0.1142
 5012TIP3   OH214999   1.191   3.593   0.066  0.2952  0.3922  0.1083
 5012TIP3    H115000   1.211   3.499   0.063  0.3974  0.4390 -1.5606
 5012TIP3    H215001   1.117   3.599   0.127 -0.2077 -0.8808 -0.3311
 5013TIP3   OH215002   3.681   4.227   3.243  0.0620  0.6625  0.3020
 5013TIP3    H115003   3.650   4.156   3.186 -0.1456  1.5800 -0.7588
 5013TIP3    H215004   3.654   4.201   3.331  0.0290 -0.5955 -0.0644
 5014TIP3   OH215005   1.800   1.349   5.841 -0.3971  0.2680  0.1631
 5014TIP3    H115006   1.731   1.350   5.907  0.3775  1.1629  1.0062
 5014TIP3    H215007   1.841   1.263   5.851  0.2280  0.6822  1.4556
 5015TIP3   OH215008   3.412   4.789   0.683 -0.4500  0.5750 -0.1822
 5015TIP3    H115009   3.478   4.737   0.637 -0.8842  0.7148 -0.9992
 5015TIP3    H215010   3.335   4.785   0.625 -1.1877  0.3375  0.7862
 5016TIP3   OH215011   2.055   4.980   2.616 -0.0193 -0.1105  0.0242
 5016TIP3    H115012   2.128   4.920   2.634 -0.9179 -1.3483 -0.3352
 5016TIP3    H215013   2.080   5.025   2.535 -0.1695 -1.4152 -0.7787
 5017TIP3   OH215014   2.453   0.894   0.352  0.3488  0.3835 -0.1243
 5017TIP3    H115015   2.485   0.827   0.293 -0.2546  0.2837 -0.3444
 5017TIP3    H215016   2.364   0.867   0.374  0.7086  0.1732  1.1994
 5018TIP3   OH215017   6.532   1.978   3.359 -0.1978  0.0165 -0.7911
 5018TIP3    H115018   6.462   1.928   3.400  0.0987 -0.8952 -1.3637
 5018TIP3    H215019   6.612   1.944   3.399  0.3847 -2.9938 -3.9804
 5019TIP3   OH215020   7.035   0.621   0.586 -0.5995 -0.0329 -0.0971
 5019TIP3    H115021   6.994   0.588   0.507  2.7533  0.9639 -2.4686
 5019TIP3    H215022   7.064   0.543   0.633 -0.9668 -0.6139 -0.8325
 5020TIP3   OH215023   3.313   5.269   5.136  0.4932  0.8121  0.0242
 5020TIP3    H115024   3.345   5.196   5.190  1.7928  2.0544  1.0138
 5020TIP3    H215025   3.222   5.247   5.118  0.3782 -0.2621  1.7020
 5021TIP3   OH215026   1.449   4.346   4.701  0.4236  0.2087  0.2527
 5021TIP3    H115027   1.499   4.348   4.619  0.1421  0.3346  0.0835
 5021TIP3    H215028   1.508   4.385   4.765  0.3641  0.8176 -0.0520
 5022TIP3   OH215029   5.305   0.582   2.337 -0.5283 -0.0791 -0.2715
 5022TIP3    H115030   5.325   0.523   2.264  1.3222 -0.9611  0.8504
 5022TIP3    H215031   5.286   0.523   2.410 -1.5333  0.7781  0.1842
 5023TIP3   OH215032   5.583   0.298   5.129  0.3036 -0.0466  0.0973
 5023TIP3    H115033   5.561   0.326   5.217  1.2491  0.3346  0.2247
 5023TIP3    H215034   5.616   0.209   5.140 -1.2791 -0.6808 -0.1150
 5024TIP3   OH215035   6.772   0.417   2.227  0.1712 -0.1281 -1.0093
 5024TIP3    H115036   6.838   0.352   2.249 -0.2440 -0.3232 -0.3097
 5024TIP3    H215037   6.775   0.423   2.131  1.1080 -0.2154 -0.9926
 5025TIP3   OH215038   6.869   4.353   4.581 -0.2763  0.0338 -0.0841
 5025TIP3    H115039   6.895   4.445   4.583 -0.1745  0.0040 -0.0376
 5025TIP3    H215040   6.775   4.355   4.564 -0.1529  0.1268 -0.7640
 5026TIP3   OH215041   1.548   5.445   4.169  0.2326  0.2595 -0.6405
 5026TIP3    H115042   1.612   5.483   4.230 -0.1605  0.5150 -0.3769
 5026TIP3    H215043   1.464   5.464   4.210  0.0476 -1.5144 -0.1526
 5027TIP3   OH215044   7.076   4.836   4.792  0.2143  0.4323  0.1537
 5027TIP3    H115045   7.091   4.791   4.708  0.9620  2.7214 -1.0358
 5027TIP3    H215046   6.984   4.818   4.812 -0.2080  0.4306 -1.5696
 5028TIP3   OH215047   4.549   1.058   1.710  0.1750  0.2874  0.0737
 5028TIP3    H115048   4.510   1.144   1.721  1.7026  1.0050  0.0719
 5028TIP3    H215049   4.495   1.001   1.765 -0.6939  1.2805  0.2876
 5029TIP3   OH215050   6.424   5.659   5.711 -0.1306 -0.1827  0.5881
 5029TIP3    H115051   6.343   5.664   5.661  0.3320 -0.1786 -0.1716
 5029TIP3    H215052   6.448   5.566   5.708  0.4446 -0.0205 -0.0939
 5030TIP3   OH215053   3.390   6.696   4.452 -0.0231  0.2483 -0.1764
 5030TIP3    H115054   3.309   6.669   4.410 -1.1365  1.7397  0.8983
 5030TIP3    H215055   3.418   6.774   4.404  1.7426 -1.1395 -1.5895
 5031TIP3   OH215056   7.174   1.402   0.147 -0.0103  0.1285  0.4918
 5031TIP3    H115057   7.096   1.348   0.136  0.7986 -0.8966 -0.5354
 5031TIP3    H215058   7.238   1.342   0.187  1.2533 -0.0504 -1.6726
 5032TIP3   OH215059   5.730   0.732   4.456  0.7968  0.0995  0.1774
 5032TIP3    H115060   5.765   0.691   4.535  0.6899 -1.0719 -0.3645
 5032TIP3    H215061   5.711   0.659   4.397 -0.3218  0.8567 -0.4528
 5033TIP3   OH215062   6.864   6.293   0.214 -0.6703 -0.0336 -0.1293
 5033TIP3    H115063   6.814   6.369   0.241  0.3103  0.0292  1.6870
 5033TIP3    H215064   6.806   6.219   0.231 -1.0635  0.2065 -0.4236
 5034TIP3   OH215065   5.694   5.428   2.668  0.4248  0.0140 -0.0776
 5034TIP3    H115066   5.687   5.420   2.763 -0.3090 -0.2625 -0.1489
 5034TIP3    H215067   5.698   5.338   2.636 -0.2168  0.0863 -0.3696
 5035TIP3   OH215068   6.526   6.354   1.966 -0.5181  0.4365  0.2156
 5035TIP3    H115069   6.537   6.361   2.061 -1.3128  1.8698  0.2282
 5035TIP3    H215070   6.431   6.361   1.953 -0.3862  0.5686 -0.6996
 5036TIP3   OH215071   0.615   0.039   0.551 -0.1746 -0.0685  0.4887
 5036TIP3    H115072   0.546   0.039   0.484  0.8356  0.2862 -0.5934
 5036TIP3    H215073   0.634   0.132   0.566  0.1082 -0.1637  0.7278
 5037TIP3   OH215074   5.669   4.584   1.240 -0.1019  0.3677 -0.3004
 5037TIP3    H115075   5.704   4.657   1.188  0.7032 -0.2345 -0.6278
 5037TIP3    H215076   5.635   4.522   1.175  1.6782 -0.7810 -0.1978
 5038TIP3   OH215077   1.436   6.079   0.841  0.1447  0.4582 -0.0182
 5038TIP3    H115078   1.467   6.093   0.930  1.5691 -0.5343 -0.3374
 5038TIP3    H215079   1.492   6.134   0.787  1.0743 -0.9688 -0.5533
 5039TIP3   OH215080   0.662   5.470   4.663 -0.4242  0.2374 -0.2063
 5039TIP3    H115081   0.747   5.446   4.700 -0.9209 -2.3555 -0.5858
 5039TIP3    H215082   0.683   5.509   4.578  0.4780  2.4667  0.9442
 5040TIP3   OH215083   2.911   2.890   3.481 -0.7591  1.0358  0.6087
 5040TIP3    H115084   2.911   2.803   3.439  0.4772  1.1323  0.3727
 5040TIP3    H215085   2.963   2.944   3.422 -0.8988  1.7597  1.1445
 5041TIP3   OH215086   6.877   4.107   3.740  0.3432 -0.3505  0.7897
 5041TIP3    H115087   6.911   4.123   3.652 -0.1057 -3.5716 -0.0973
 5041TIP3    H215088   6.798   4.160   3.745  1.1213  0.9680 -0.1624
 5042TIP3   OH215089   0.127   3.596   1.131  0.3090  0.3721  0.3418
 5042TIP3    H115090   0.204   3.543   1.113  0.8163  1.4938 -0.9789
 5042TIP3    H215091   0.148   3.682   1.094 -1.3651  0.8570  0.4390
 5043TIP3   OH215092   0.286   6.213   3.282 -0.8291  0.1362 -0.1925
 5043TIP3    H115093   0.334   6.277   3.334  2.2835 -0.9167 -1.5531
 5043TIP3    H215094   0.252   6.150   3.346  0.4997  0.3955  0.8009
 5044TIP3   OH215095   0.951   0.285   4.581 -0.3582 -0.2446 -0.2258
 5044TIP3    H115096   0.921   0.195   4.596 -2.1275  0.3886  0.2180
 5044TIP3    H215097   1.009   0.278   4.505  0.8663 -1.9944  0.7939
 5045TIP3   OH215098   0.581   3.216   4.172  0.1226 -0.0157 -0.7987
 5045TIP3    H115099   0.539   3.204   4.257 -0.9245 -1.9105 -1.5237
 5045TIP3    H215100   0.648   3.282   4.188 -0.0568 -0.2953  1.4885
 5046TIP3   OH215101   6.872   2.399   1.604 -0.1524 -0.3309  0.1781
 5046TIP3    H115102   6.967   2.395   1.615 -0.0332 -0.3707 -0.7933
 5046TIP3    H215103   6.842   2.453   1.677  0.7038  0.3761  0.0251
 5047TIP3   OH215104   6.512   0.288   4.718 -0.9018 -0.3662  0.3337
 5047TIP3    H115105   6.481   0.256   4.633 -1.3606 -1.2576  0.8125
 5047TIP3    H215106   6.571   0.360   4.697 -1.7518  0.0611 -0.7022
 5048TIP3   OH215107   5.890   2.521   2.069  0.0623  0.4529 -0.1391
 5048TIP3    H115108   5.881   2.580   2.144 -1.8088 -1.0881  0.9500
 5048TIP3    H215109   5.966   2.467   2.089 -1.4171 -1.1397  1.6506
 5049TIP3   OH215110   6.323   3.804   4.639  1.0740  0.3742 -0.6297
 5049TIP3    H115111   6.319   3.758   4.555  2.2563 -0.8835 -0.0372
 5049TIP3    H215112   6.281   3.745   4.701  1.6874  0.5312 -0.0460
 5050TIP3   OH215113   1.741   3.425   1.262 -0.2151  0.2392 -0.0019
 5050TIP3    H115114   1.718   3.334   1.280  0.6004 -0.2640 -1.3226
 5050TIP3    H215115   1.688   3.476   1.322 -0.9958 -1.0923  0.4748
 5051TIP3   OH215116   0.795   3.916   5.163 -0.3249 -0.3518 -0.5115
 5051TIP3    H115117   0.748   3.850   5.214  0.7147 -0.4700  0.3064
 5051TIP3    H215118   0.817   3.985   5.226  1.2214 -0.6301 -0.7216
 5052TIP3   OH215119   4.589   3.696   2.962 -0.2918  0.5434  0.6491
 5052TIP3    H115120   4.663   3.684   2.902  0.1027 -1.1892  1.4099
 5052TIP3    H215121   4.513   3.665   2.914  0.1556 -1.7038  1.2715
 5053TIP3   OH215122   6.706   4.707   0.825  0.4132  0.1241  0.0215
 5053TIP3    H115123   6.709   4.800   0.847 -0.7123  0.1395  0.1311
 5053TIP3    H215124   6.741   4.663   0.902  2.9010  0.5319 -0.7803
 5054TIP3   OH215125   3.562   4.512   4.856 -0.4002 -0.2841  0.0966
 5054TIP3    H115126   3.486   4.562   4.830 -0.6464  0.1911  1.6462
 5054TIP3    H215127   3.633   4.576   4.862  0.1186 -0.6941 -1.1707
 5055TIP3   OH215128   3.516   4.351   4.135  0.3533  0.5961  0.8260
 5055TIP3    H115129   3.545   4.415   4.069 -0.0922  1.4447  1.4355
 5055TIP3    H215130   3.431   4.383   4.164 -0.5088 -0.9988  0.2137
 5056TIP3   OH215131   4.263   1.710   1.613  0.1473 -0.2983  0.0741
 5056TIP3    H115132   4.273   1.708   1.518  0.9844  0.9646  0.1089
 5056TIP3    H215133   4.245   1.802   1.633 -2.1325 -0.8789  0.9600
 5057TIP3   OH215134   5.992   2.274   3.698  0.5695  0.5320  0.2338
 5057TIP3    H115135   5.998   2.364   3.667  0.1209  0.5869  0.2925
 5057TIP3    H215136   6.039   2.222   3.633  2.2760  0.9871  1.0482
 5058TIP3   OH215137   2.763   5.097   5.218  0.6631  0.6371  0.2969
 5058TIP3    H115138   2.737   5.073   5.307 -1.1301  0.7804 -0.1606
 5058TIP3    H215139   2.794   5.015   5.180  1.4154  0.5649  1.0129
 5059TIP3   OH215140   1.880   4.664   0.773 -0.5767 -0.1471  0.4209
 5059TIP3    H115141   1.814   4.629   0.833 -0.4659 -0.0661  0.5906
 5059TIP3    H215142   1.844   4.748   0.744  0.0363  0.5091  1.5191
 5060TIP3   OH215143   3.900   0.545   3.135 -0.1782  0.4242  0.7290
 5060TIP3    H115144   3.981   0.581   3.170  0.1129  0.7057 -0.2207
 5060TIP3    H215145   3.908   0.554   3.040 -0.5278 -1.2325  0.5088
 5061TIP3   OH215146   0.166   1.573   0.346 -0.2555 -0.2410  0.3371
 5061TIP3    H115147   0.098   1.524   0.392 -0.3656  0.6131  1.1301
 5061TIP3    H215148   0.221   1.609   0.416  0.6404 -0.3886 -0.2739
 5062TIP3   OH215149   4.786   6.577   2.643 -0.4616  0.1357  0.1299
 5062TIP3    H115150   4.757   6.518   2.712  0.5174  0.5011  0.8811
 5062TIP3    H215151   4.841   6.523   2.586 -2.1487 -0.4413 -1.0300
 5063TIP3   OH215152   0.451   2.705   0.169 -0.2686  0.4214 -0.3675
 5063TIP3    H115153   0.423   2.796   0.160 -1.9024 -0.2240 -3.0210
 5063TIP3    H215154   0.452   2.671   0.080  0.0782 -2.2348  0.5465
 5064TIP3   OH215155   2.123   0.608   3.875  0.0722  0.9412 -0.0825
 5064TIP3    H115156   2.165   0.572   3.797 -0.9703 -0.3553 -0.0794
 5064TIP3    H215157   2.105   0.699   3.853 -0.7379  0.4549 -1.5999
 5065TIP3   OH215158   5.325   1.801   1.019  0.2547 -0.2211 -0.0228
 5065TIP3    H115159   5.318   1.736   1.088  2.5229 -0.7952 -0.2468
 5065TIP3    H215160   5.242   1.848   1.021 -0.0803 -0.7913  2.4961
 5066TIP3   OH215161   6.653   4.162   2.453 -0.1729  0.2621  0.7220
 5066TIP3    H115162   6.625   4.253   2.440 -3.5524 -0.4450  2.1232
 5066TIP3    H215163   6.613   4.114   2.381  1.1986 -0.2492  0.2698
 5067TIP3   OH215164   0.330   1.087   2.368  0.4537 -0.9204 -0.2623
 5067TIP3    H115165   0.410   1.071   2.318  0.1329 -0.4180 -0.9513
 5067TIP3    H215166   0.351   1.059   2.457  2.1079  1.0613  0.0561
 5068TIP3   OH215167   1.318   5.474   5.606  0.5273 -0.6969  0.1809
 5068TIP3    H115168   1.282   5.549   5.653 -0.6197 -1.0236 -0.1542
 5068TIP3    H215169   1.313   5.498   5.514 -0.2623 -1.3524  0.0415
 5069TIP3   OH215170   4.016   6.413   0.339 -0.8336  0.0600 -0.3586
 5069TIP3    H115171   4.108   6.402   0.365 -0.7591  1.5690  0.0964
 5069TIP3    H215172   4.008   6.506   0.318 -1.9880 -0.2781 -1.5236
 5070TIP3   OH215173   1.431   5.761   2.023 -0.0798  0.4940  0.2796
 5070TIP3    H115174   1.341   5.741   2.047  0.1221 -1.5963 -0.4901
 5070TIP3    H215175   1.426   5.781   1.929  0.1915  0.7782  0.3266
 5071TIP3   OH215176   2.530   2.259   4.566  0.0196 -0.0626  0.0941
 5071TIP3    H115177   2.484   2.325   4.514  1.4366 -0.6132 -2.0063
 5071TIP3    H215178   2.600   2.228   4.508  0.0642 -2.6453  1.3965
 5072TIP3   OH215179   3.429   1.244   2.205 -0.7647  0.2365 -0.3538
 5072TIP3    H115180   3.506   1.228   2.149 -0.5421 -2.4888  0.5638
 5072TIP3    H215181   3.382   1.314   2.161  1.3404  0.7984 -1.9040
 5073TIP3   OH215182   2.466   1.653   3.132 -0.2556 -0.6818  0.0153
 5073TIP3    H115183   2.539   1.673   3.190 -0.8606  0.0080  0.5512
 5073TIP3    H215184   2.472   1.718   3.062 -1.1800  0.3130  0.8210
 5074TIP3   OH215185   3.178   5.362   1.366  1.0734 -0.4582 -0.2083
 5074TIP3    H115186   3.202   5.314   1.287  3.4956  0.0590  0.1648
 5074TIP3    H215187   3.156   5.450   1.336  1.2129 -0.4817 -0.3749
 5075TIP3   OH215188   4.375   3.866   2.235  0.0957  0.1405  0.4564
 5075TIP3    H115189   4.451   3.838   2.285  0.3649  0.1425  0.0494
 5075TIP3    H215190   4.372   3.808   2.160 -0.1103  0.3541  0.2954
 5076TIP3   OH215191   3.110   4.471   2.049  0.0454 -0.1780 -0.2321
 5076TIP3    H115192   3.089   4.397   1.992  1.2103 -0.7377  0.0323
 5076TIP3    H215193   3.067   4.546   2.008 -0.4323 -0.8447 -0.9851
 5077TIP3   OH215194   5.331   5.569   0.514  0.4151 -0.4075 -0.3340
 5077TIP3    H115195   5.277   5.636   0.474  0.2317 -0.7011 -0.5820
 5077TIP3    H215196   5.344   5.504   0.445 -0.5895 -1.3324  0.3034
 5078TIP3   OH215197   2.999   1.356   0.325  0.3878 -0.3025  0.5368
 5078TIP3    H115198   3.072   1.354   0.388  0.1676  0.1459  0.8146
 5078TIP3    H215199   3.029   1.302   0.252  0.9449 -0.2296  0.7062
 5079TIP3   OH215200   5.237   5.987   3.771 -0.1518 -0.5009 -0.3952
 5079TIP3    H115201   5.329   5.961   3.761 -0.1808 -2.0920  2.5188
 5079TIP3    H215202   5.196   5.961   3.689  1.5077 -2.1287 -0.7761
 5080TIP3   OH215203   0.890   1.390   2.802  0.3158 -0.0338  0.2729
 5080TIP3    H115204   0.932   1.350   2.725  0.6882 -1.4568  1.1820
 5080TIP3    H215205   0.820   1.444   2.765  1.0909  0.0838 -1.1169
 5081TIP3   OH215206   3.490   1.617   2.967  0.5812 -0.0046  0.5453
 5081TIP3    H115207   3.517   1.687   3.027 -1.1191  0.7792  0.4541
 5081TIP3    H215208   3.453   1.550   3.025  1.9776 -0.7488  0.6109
 5082TIP3   OH215209   5.054   5.642   1.719 -0.2098  0.2544 -0.0987
 5082TIP3    H115210   5.020   5.732   1.715 -1.2964 -0.1218  0.3873
 5082TIP3    H215211   5.129   5.643   1.659 -0.8161  1.2321 -0.8875
 5083TIP3   OH215212   0.227   5.219   2.622  0.1851 -0.0056 -0.5539
 5083TIP3    H115213   0.263   5.141   2.579 -0.9743 -0.0012 -1.6019
 5083TIP3    H215214   0.182   5.266   2.552 -1.8278 -0.0182  0.6684
 5084TIP3   OH215215   7.007   5.032   5.723 -0.0373  0.1515  0.2035
 5084TIP3    H115216   7.084   5.056   5.670  0.1755 -2.0776 -0.6516
 5084TIP3    H215217   7.042   5.020   5.811  1.2936 -3.2306 -0.5964
 5085TIP3   OH215218   1.519   4.932   4.361  0.4332  0.6176  0.0028
 5085TIP3    H115219   1.576   4.865   4.398 -1.1649 -0.9035 -0.1646
 5085TIP3    H215220   1.433   4.915   4.399 -0.2310  1.9846 -0.7945
 5086TIP3   OH215221   5.573   3.693   2.929  0.5169 -0.4628  0.7453
 5086TIP3    H115222   5.573   3.598   2.932  0.8732 -0.4514  2.3261
 5086TIP3    H215223   5.498   3.717   2.875 -0.8223 -1.6239  2.0196
 5087TIP3   OH215224   5.612   5.202   4.014  0.3590 -0.3576 -0.3350
 5087TIP3    H115225   5.667   5.243   3.947  1.5190 -0.1538  0.6884
 5087TIP3    H215226   5.660   5.123   4.039  1.0171  0.5988  1.6369
 5088TIP3   OH215227   5.734   3.209   2.799 -0.3594 -0.1796 -0.2697
 5088TIP3    H115228   5.799   3.159   2.849  0.0344  1.5060  0.9986
 5088TIP3    H215229   5.776   3.227   2.716  0.6241  0.4957  0.3655
 5089TIP3   OH215230   4.278   5.214   5.610 -0.1015 -0.5217 -0.2381
 5089TIP3    H115231   4.226   5.221   5.530 -0.4914  3.4571  0.1557
 5089TIP3    H215232   4.234   5.272   5.672  2.8842  0.4156  1.1927
 5090TIP3   OH215233   5.162   1.264   3.350  0.6024  0.8600  0.3966
 5090TIP3    H115234   5.076   1.289   3.381 -0.1019  0.4534 -1.1145
 5090TIP3    H215235   5.214   1.251   3.429 -0.8672  0.5993  1.3537
 5091TIP3   OH215236   0.164   6.251   2.707  0.3834  0.3807 -0.5502
 5091TIP3    H115237   0.080   6.207   2.698  1.0944 -0.6976 -2.5394
 5091TIP3    H215238   0.142   6.343   2.724 -1.1405 -0.2608  1.2709
 5092TIP3   OH215239   3.250   3.528   0.574 -0.2739  0.7286  0.3843
 5092TIP3    H115240   3.261   3.621   0.592  0.7232  0.3269  2.0624
 5092TIP3    H215241   3.226   3.490   0.658 -0.3212 -0.5784 -0.1946
 5093TIP3   OH215242   5.653   6.367   4.281  0.5196  0.2537 -0.1816
 5093TIP3    H115243   5.577   6.318   4.249 -0.6951  1.1118  1.2525
 5093TIP3    H215244   5.620   6.417   4.356  2.2864  1.3840 -0.0860
 5094TIP3   OH215245   4.568   5.011   5.291 -0.1845  0.0653  0.0907
 5094TIP3    H115246   4.653   5.002   5.335 -0.6038 -0.4986  0.8214
 5094TIP3    H215247   4.587   5.060   5.211  1.0479 -1.1257 -0.3951
 5095TIP3   OH215248   1.468   4.341   2.397  0.0628  0.6144  0.3764
 5095TIP3    H115249   1.556   4.344   2.435 -0.8470 -1.1276  2.9055
 5095TIP3    H215250   1.418   4.403   2.449 -0.8515 -0.5887  0.9714
 5096TIP3   OH215251   1.255   6.528   1.706  0.0814 -0.3169 -0.1015
 5096TIP3    H115252   1.254   6.432   1.715  1.3559 -0.2435  1.0421
 5096TIP3    H215253   1.333   6.546   1.654  0.4245  0.1631  0.5748
 5097TIP3   OH215254   1.314   4.609   4.623  0.0041  0.0405 -0.4108
 5097TIP3    H115255   1.226   4.583   4.594 -0.6576  0.0757  1.4207
 5097TIP3    H215256   1.355   4.528   4.653  0.0361  0.2395  0.0945
 5098TIP3   OH215257   1.326   5.292   0.604 -0.2078  0.4404 -0.5773
 5098TIP3    H115258   1.392   5.308   0.537 -0.1863 -0.3853 -0.7542
 5098TIP3    H215259   1.375   5.255   0.677 -0.0628  2.2250  0.2986
 5099TIP3   OH215260   0.100   3.362   4.707  0.7942 -0.0864  0.5391
 5099TIP3    H115261   0.099   3.337   4.799  3.6980  2.1443  1.3213
 5099TIP3    H215262   0.158   3.299   4.665  0.3760 -0.4197  0.4554
 5100TIP3   OH215263   3.619   1.449   0.995 -0.2587  0.3610 -0.2927
 5100TIP3    H115264   3.657   1.447   0.907  0.2447 -1.3450 -0.0848
 5100TIP3    H215265   3.604   1.357   1.017 -0.4560  0.7481  1.3791
 5101TIP3   OH215266   0.351   5.605   3.343 -0.1921 -0.1679 -0.0274
 5101TIP3    H115267   0.385   5.582   3.256  1.6896  1.3722  0.2364
 5101TIP3    H215268   0.307   5.526   3.373  0.7097 -1.3363 -1.6199
 5102TIP3   OH215269   6.207   3.752   5.269 -0.3744  0.2858 -0.4267
 5102TIP3    H115270   6.118   3.782   5.283 -0.3582  0.4607 -0.6959
 5102TIP3    H215271   6.245   3.815   5.207 -0.6559 -0.8482 -1.7986
 5103TIP3   OH215272   5.312   1.219   1.084 -0.0780 -0.2629 -0.8877
 5103TIP3    H115273   5.287   1.303   1.124 -1.5147 -1.4705  0.8879
 5103TIP3    H215274   5.231   1.183   1.050  0.6674 -0.5955 -2.4122
 5104TIP3   OH215275   2.228   3.602   2.847 -0.1498  1.1150  0.2539
 5104TIP3    H115276   2.156   3.609   2.784 -0.6505 -1.0420  0.4954
 5104TIP3    H215277   2.258   3.511   2.839  1.1655  1.3901  1.6402
 5105TIP3   OH215278   0.635   6.267   2.309 -0.1999  0.3086 -0.0610
 5105TIP3    H115279   0.647   6.185   2.357  0.3266  0.8008  0.6710
 5105TIP3    H215280   0.558   6.307   2.350 -1.4899 -0.5638 -1.5120
 5106TIP3   OH215281   3.551   4.892   3.855  0.0101  0.6165  0.2801
 5106TIP3    H115282   3.621   4.894   3.920  0.5236 -1.3293 -0.1593
 5106TIP3    H215283   3.594   4.867   3.774 -1.0616  0.2243 -0.1810
 5107TIP3   OH215284   3.137   3.304   1.990 -0.4233 -0.4355  0.7911
 5107TIP3    H115285   3.208   3.328   1.931 -1.7931 -0.0736 -0.7932
 5107TIP3    H215286   3.148   3.211   2.006  0.0962 -0.4854  0.1374
 5108TIP3   OH215287   0.401   5.590   2.254  0.0569  0.3964  0.1314
 5108TIP3    H115288   0.354   5.641   2.320 -1.2067 -1.3275  0.6447
 5108TIP3    H215289   0.430   5.511   2.301  1.0986  0.1597 -0.8562
 5109TIP3   OH215290   1.059   2.057   4.140  0.0185  0.2196 -0.0879
 5109TIP3    H115291   1.033   2.017   4.222 -0.2051 -0.6522 -0.5770
 5109TIP3    H215292   1.068   2.150   4.161 -1.1482  0.1847  0.6525
 5110TIP3   OH215293   3.033   5.068   3.444  0.0137 -0.3482  0.1731
 5110TIP3    H115294   3.073   5.051   3.529 -0.4378 -1.6106  0.1561
 5110TIP3    H215295   3.001   5.158   3.450 -1.3057 -0.8746  1.8998
 5111TIP3   OH215296   0.531   5.158   1.711  0.2819 -0.4628 -0.3898
 5111TIP3    H115297   0.510   5.064   1.710 -2.4469  0.0680 -0.2843
 5111TIP3    H215298   0.513   5.184   1.802  1.0203  0.1896 -0.4259
 5112TIP3   OH215299   4.664   0.996   1.119  0.0203 -0.6227  0.4898
 5112TIP3    H115300   4.651   1.059   1.048  1.7044 -0.3404  0.3826
 5112TIP3    H215301   4.580   0.993   1.165 -0.4004  0.9330 -0.1164
 5113TIP3   OH215302   2.932   2.605   3.789  0.0971  0.0085 -0.4854
 5113TIP3    H115303   3.018   2.607   3.745 -0.1170  0.1463 -0.9029
 5113TIP3    H215304   2.881   2.672   3.743  0.0739  0.6075  0.3958
 5114TIP3   OH215305   3.925   1.921   1.134 -0.1050 -0.2317  0.0019
 5114TIP3    H115306   3.990   1.943   1.068 -0.7361 -1.5055 -1.0887
 5114TIP3    H215307   3.841   1.937   1.092 -0.5413  1.0036  1.2570
 5115TIP3   OH215308   3.308   0.797   2.536 -0.3322  0.1252 -0.3539
 5115TIP3    H115309   3.396   0.831   2.519 -0.4939  0.4551 -0.5339
 5115TIP3    H215310   3.284   0.749   2.457 -0.4887  0.4066 -0.4788
 5116TIP3   OH215311   6.691   0.093   5.445 -0.3642 -0.1250 -0.5237
 5116TIP3    H115312   6.598   0.071   5.452 -0.1823 -0.6345  0.6634
 5116TIP3    H215313   6.698   0.179   5.486 -0.1142 -0.7317  0.7700
 5117TIP3   OH215314   6.646   5.930   1.636  0.0691  0.5047 -0.0449
 5117TIP3    H115315   6.729   5.969   1.665 -0.5259  1.5273  0.3188
 5117TIP3    H215316   6.583   6.002   1.640 -0.9063 -0.3360 -0.0383
 5118TIP3   OH215317   5.599   4.400   5.211  0.0753  0.0056  0.3232
 5118TIP3    H115318   5.527   4.418   5.271  1.4136 -0.9979  2.3609
 5118TIP3    H215319   5.649   4.481   5.209 -0.4541  0.3276 -0.1734
 5119TIP3   OH215320   4.373   5.984   4.719 -0.1953  0.3491  0.1498
 5119TIP3    H115321   4.377   5.889   4.732 -1.2628 -0.4266 -3.6617
 5119TIP3    H215322   4.296   6.011   4.768 -0.1526 -0.8248  0.9206
 5120TIP3   OH215323   0.549   1.169   1.360  0.1309  0.0727  0.4966
 5120TIP3    H115324   0.562   1.121   1.278 -1.6627  1.3191 -0.5639
 5120TIP3    H215325   0.602   1.248   1.350  0.5336 -0.1468  0.8805
 5121TIP3   OH215326   2.385   0.252   5.206  0.1880 -0.0917  0.1582
 5121TIP3    H115327   2.324   0.301   5.151  0.5226 -1.8782 -1.9802
 5121TIP3    H215328   2.470   0.264   5.164  0.5968 -0.8829  0.7358
 5122TIP3   OH215329   1.702   2.564   4.283  0.2132 -1.0172  0.6645
 5122TIP3    H115330   1.769   2.627   4.256  1.0284 -1.3597  1.8036
 5122TIP3    H215331   1.739   2.479   4.262 -0.8722 -1.1578 -0.8359
 5123TIP3   OH215332   3.569   4.850   3.148  0.1160 -0.3003 -0.1413
 5123TIP3    H115333   3.478   4.878   3.136  0.3880  0.7896  0.2300
 5123TIP3    H215334   3.616   4.930   3.174  1.3198 -0.6843 -1.0168
 5124TIP3   OH215335   0.101   2.633   3.767  0.0025  0.1849 -0.4665
 5124TIP3    H115336   0.137   2.721   3.768 -0.2826  0.2994 -0.3133
 5124TIP3    H215337   0.171   2.578   3.803  0.3497  0.2819 -0.9896
 5125TIP3   OH215338   2.882   4.673   1.582 -0.6634 -0.4283 -0.2180
 5125TIP3    H115339   2.915   4.675   1.492 -0.0869  0.8515 -0.0120
 5125TIP3    H215340   2.887   4.764   1.611 -0.6008 -0.8558  1.1994
 5126TIP3   OH215341   0.590   2.780   3.050  0.6442 -0.4614  0.0789
 5126TIP3    H115342   0.649   2.714   3.086 -2.0448 -1.7271  2.5625
 5126TIP3    H215343   0.578   2.843   3.120 -2.1603 -1.1785  0.3750
 5127TIP3   OH215344   0.258   5.447   4.656  0.0936  0.2258  0.9040
 5127TIP3    H115345   0.293   5.532   4.629  0.3066 -0.0459  0.3120
 5127TIP3    H215346   0.256   5.395   4.576 -2.6919  0.5533  0.6838
 5128TIP3   OH215347   2.308   5.797   0.317 -0.2112 -0.2753  0.0236
 5128TIP3    H115348   2.253   5.772   0.392  0.6088  0.6417  0.9557
 5128TIP3    H215349   2.395   5.808   0.354  0.2618 -0.0320 -1.1300
 5129TIP3   OH215350   0.386   2.431   4.591  0.0489  0.2372  0.1414
 5129TIP3    H115351   0.429   2.412   4.508  0.3821 -0.1692  0.4029
 5129TIP3    H215352   0.443   2.392   4.657 -0.5607 -0.0430  0.5141
 5130TIP3   OH215353   2.125   0.519   0.954  0.1006 -0.1379 -0.0477
 5130TIP3    H115354   2.146   0.479   1.039  1.8635 -0.2342 -0.4718
 5130TIP3    H215355   2.204   0.504   0.901 -0.2101  1.6046 -1.0767
 5131TIP3   OH215356   5.080   3.789   2.795 -0.2460  0.9089 -0.2991
 5131TIP3    H115357   5.017   3.829   2.855 -0.4410  1.6057 -0.9482
 5131TIP3    H215358   5.085   3.850   2.721  1.2104  0.8912 -0.2542
 5132TIP3   OH215359   4.320   2.445   1.500 -0.4036 -0.3692  0.1069
 5132TIP3    H115360   4.325   2.435   1.595  0.7494  1.6954  0.3131
 5132TIP3    H215361   4.394   2.393   1.467 -1.4546 -1.9994  0.2053
 5133TIP3   OH215362   0.311   5.584   0.534 -0.5449  0.0520 -0.3334
 5133TIP3    H115363   0.270   5.534   0.464 -1.3696  0.4700 -0.1583
 5133TIP3    H215364   0.285   5.675   0.517  0.1796  0.3035 -0.1307
 5134TIP3   OH215365   1.162   6.455   2.281  0.1852 -0.0192  0.0478
 5134TIP3    H115366   1.068   6.474   2.287  0.3258  1.1637 -1.0362
 5134TIP3    H215367   1.204   6.541   2.277  1.3341 -0.5330  0.6690
 5135TIP3   OH215368   4.416   5.684   4.698 -0.4769 -0.0596 -0.1418
 5135TIP3    H115369   4.436   5.667   4.790 -0.6257 -0.1820 -0.1326
 5135TIP3    H215370   4.502   5.696   4.657 -0.4205  0.3506  0.0811
 5136TIP3   OH215371   7.147   2.676   2.764  0.2122  0.4413  0.3455
 5136TIP3    H115372   7.092   2.714   2.696 -1.2755  0.7497  1.6712
 5136TIP3    H215373   7.086   2.637   2.826  1.5367 -0.1538  1.3290
 5137TIP3   OH215374   4.681   4.547   3.165  0.2157 -0.0215  0.4361
 5137TIP3    H115375   4.618   4.504   3.223 -1.8941 -0.5950 -2.0783
 5137TIP3    H215376   4.743   4.478   3.142 -1.0734 -0.8353 -0.7669
 5138TIP3   OH215377   2.446   1.894   1.957  0.0615  0.1380  0.2648
 5138TIP3    H115378   2.356   1.928   1.950  0.0646  0.4177  1.4192
 5138TIP3    H215379   2.477   1.925   2.042  1.6656  1.0012 -0.5976
 5139TIP3   OH215380   4.668   0.514   1.599 -0.4052 -0.5420 -0.3863
 5139TIP3    H115381   4.751   0.473   1.577 -0.0926  0.1445 -0.5066
 5139TIP3    H215382   4.677   0.540   1.691  0.1489  1.0028 -0.8449
 5140TIP3   OH215383   2.498   4.325   1.390  0.5022 -0.0770  0.0868
 5140TIP3    H115384   2.505   4.233   1.417  0.4625 -0.6188 -1.5816
 5140TIP3    H215385   2.588   4.357   1.391  0.9369 -1.0374 -2.0594
 5141TIP3   OH215386   2.630   0.909   3.368  0.0760 -0.0059 -0.0979
 5141TIP3    H115387   2.649   0.958   3.448  1.9328 -0.3380 -0.3007
 5141TIP3    H215388   2.673   0.824   3.381 -2.1520 -1.2492 -0.2161
 5142TIP3   OH215389   4.003   3.079   2.908  0.0973  0.4692  0.2429
 5142TIP3    H115390   4.053   3.153   2.941  3.0363 -0.5421 -1.5349
 5142TIP3    H215391   3.988   3.099   2.816 -2.4861  0.4765  0.5764
 5143TIP3   OH215392   4.267   0.994   3.068 -0.6904 -0.0335 -0.4245
 5143TIP3    H115393   4.280   0.952   2.983  0.5556 -0.7909  0.1136
 5143TIP3    H215394   4.238   0.923   3.126 -0.9541  0.3503 -0.0781
 5144TIP3   OH215395   6.394   1.510   1.884  0.1592 -0.2873 -0.2381
 5144TIP3    H115396   6.341   1.469   1.816 -1.3706 -0.6018  1.0661
 5144TIP3    H215397   6.439   1.437   1.926  0.1870 -0.2292 -0.1665
 5145TIP3   OH215398   3.777   2.573   5.596 -0.1872  0.4971 -0.0372
 5145TIP3    H115399   3.741   2.593   5.682 -0.5478 -1.5013  0.3250
 5145TIP3    H215400   3.867   2.606   5.599 -0.1660  0.3579  1.1363
 5146TIP3   OH215401   3.479   5.585   1.454 -0.1103  0.1386 -0.6397
 5146TIP3    H115402   3.455   5.607   1.544  0.8790  0.7803 -0.5147
 5146TIP3    H215403   3.399   5.599   1.404 -0.9089 -1.0406  0.2568
 5147TIP3   OH215404   3.557   2.793   3.166  0.3967 -0.0519 -0.2370
 5147TIP3    H115405   3.463   2.808   3.154 -0.0454 -1.4665  1.1369
 5147TIP3    H215406   3.594   2.880   3.179 -0.8725  0.4469  0.1194
 5148TIP3   OH215407   4.695   4.602   5.487  0.2150 -0.3635 -0.0422
 5148TIP3    H115408   4.705   4.690   5.452  0.3282 -0.0754  0.6881
 5148TIP3    H215409   4.648   4.614   5.570 -0.3034 -1.0505 -0.2248
 5149TIP3   OH215410   1.082   1.813   3.992 -0.1047 -0.5560  0.4793
 5149TIP3    H115411   1.089   1.881   4.059 -1.5784 -0.7911  0.9085
 5149TIP3    H215412   1.151   1.833   3.929  0.1914  0.6772  1.1761
 5150TIP3   OH215413   3.210   0.990   1.427 -0.0681  0.1307 -0.1041
 5150TIP3    H115414   3.171   0.989   1.339 -0.8129  0.4190  0.2150
 5150TIP3    H215415   3.142   1.026   1.483  0.4980  0.2002  0.5556
 5151TIP3   OH215416   4.554   4.121   1.638 -0.4819  0.0762  0.6838
 5151TIP3    H115417   4.542   4.032   1.669 -0.6420 -0.2334 -0.2569
 5151TIP3    H215418   4.491   4.131   1.567  0.6996  0.3688 -0.3547
 5152TIP3   OH215419   5.872   3.851   3.466  0.0154  0.6085 -0.6650
 5152TIP3    H115420   5.802   3.900   3.423  0.6687  0.6732 -1.6873
 5152TIP3    H215421   5.951   3.901   3.448  0.5520 -0.2861 -0.8680
 5153TIP3   OH215422   6.648  -0.007   3.549  0.4327 -1.3882 -0.2326
 5153TIP3    H115423   6.596   0.062   3.508  2.6764 -0.1706 -1.1899
 5153TIP3    H215424   6.667   0.026   3.637  1.2870 -0.8746 -0.6003
 5154TIP3   OH215425   1.175   0.187   4.707  0.0314  0.2475  0.4302
 5154TIP3    H115426   1.177   0.093   4.690  3.5073  0.0268  1.2162
 5154TIP3    H215427   1.139   0.225   4.627 -2.4417 -1.7108  0.4904
 5155TIP3   OH215428   3.284   3.097   1.058  0.0563 -0.6079 -0.2769
 5155TIP3    H115429   3.251   3.023   1.109  0.1963  0.3034  1.1956
 5155TIP3    H215430   3.218   3.166   1.069  0.6655 -0.0010 -0.3260
 5156TIP3   OH215431   5.138   0.310   1.469  0.2881  0.2649  0.1963
 5156TIP3    H115432   5.207   0.243   1.472 -0.4055 -0.4572  0.2290
 5156TIP3    H215433   5.168   0.371   1.401 -0.0708 -1.2269 -1.3816
 5157TIP3   OH215434   1.357   1.368   1.134  0.3538  0.0045 -0.6172
 5157TIP3    H115435   1.399   1.446   1.097 -0.8940 -0.4944 -3.3598
 5157TIP3    H215436   1.408   1.295   1.098 -0.0205 -0.4890 -0.1515
 5158TIP3   OH215437   3.209   5.503   3.153 -0.7810  0.2896 -0.1997
 5158TIP3    H115438   3.158   5.423   3.167  1.2019 -0.5751  3.2646
 5158TIP3    H215439   3.155   5.572   3.193  0.2240 -0.5221  2.8844
 5159TIP3   OH215440   0.115   6.636   5.836  0.0202 -0.1322 -0.2308
 5159TIP3    H115441   0.110   6.665   5.927  0.1095  0.2118 -0.3338
 5159TIP3    H215442   0.028   6.655   5.800  0.2541  0.5401 -0.4535
 5160TIP3   OH215443   3.796   1.613   1.448  0.1924  0.4074 -0.0398
 5160TIP3    H115444   3.716   1.638   1.404  0.8518  0.7295 -1.0946
 5160TIP3    H215445   3.866   1.633   1.385  1.1799  0.9967  1.1811
 5161TIP3   OH215446   3.845   0.458   3.576  0.0529  0.6405  0.3034
 5161TIP3    H115447   3.939   0.450   3.591  0.4507 -1.1524 -2.4476
 5161TIP3    H215448   3.836   0.457   3.480 -2.7628  0.8478  0.4956
 5162TIP3   OH215449   0.167   5.164   2.265  0.4451 -0.4954 -0.0558
 5162TIP3    H115450   0.127   5.250   2.277  1.2018 -0.0802 -0.3927
 5162TIP3    H215451   0.094   5.103   2.268 -0.3878  0.3305 -1.7542
 5163TIP3   OH215452   4.681   0.140   3.237  0.4191 -0.0007  0.3588
 5163TIP3    H115453   4.598   0.096   3.218 -0.8808  2.9896 -1.5095
 5163TIP3    H215454   4.747   0.083   3.198 -0.5436 -2.7094  2.3046
 5164TIP3   OH215455   4.296   6.072   1.254  0.6256 -0.0818 -0.5569
 5164TIP3    H115456   4.305   6.009   1.182  1.9973 -0.5510 -0.0086
 5164TIP3    H215457   4.337   6.152   1.222 -0.2872  0.2673 -0.9042
 5165TIP3   OH215458   1.020   5.040   5.116  0.1704 -0.5297  0.7265
 5165TIP3    H115459   1.059   5.059   5.031 -1.9765  1.3169  0.0386
 5165TIP3    H215460   1.014   4.945   5.120 -0.1575 -0.6397 -1.4333
 5166TIP3   OH215461   4.535   0.226   0.902  0.3460 -0.1087 -0.1005
 5166TIP3    H115462   4.567   0.269   0.981 -0.3601 -1.5346  1.0188
 5166TIP3    H215463   4.543   0.133   0.921 -1.1291 -0.4846 -1.1437
 5167TIP3   OH215464   7.101   3.104   2.540  0.4267 -0.3088  0.4022
 5167TIP3    H115465   7.079   3.169   2.472  1.6430 -0.1442  0.1369
 5167TIP3    H215466   7.195   3.090   2.529  0.0534 -2.8765 -0.2084
 5168TIP3   OH215467   0.684   0.510   0.201  0.4035  0.4337 -0.1819
 5168TIP3    H115468   0.726   0.509   0.115 -1.7677 -0.4336 -1.3030
 5168TIP3    H215469   0.631   0.590   0.201  1.5109  1.2236  0.9983
 5169TIP3   OH215470   2.768   5.392   1.396 -0.5762 -0.4786 -0.1906
 5169TIP3    H115471   2.818   5.313   1.411 -0.9773 -0.5911  0.6101
 5169TIP3    H215472   2.828   5.464   1.418  0.8594 -0.3392 -3.7820
 5170TIP3   OH215473   1.117   0.048   1.597 -0.4505  0.0632  0.7251
 5170TIP3    H115474   1.034   0.094   1.605  0.0796  1.4143 -0.9137
 5170TIP3    H215475   1.170   0.079   1.670 -0.3279  1.6348  0.0087
 5171TIP3   OH215476   0.356   5.957   4.087 -0.3466  0.1559  0.2384
 5171TIP3    H115477   0.338   6.021   4.017  1.8035 -0.0910 -0.6072
 5171TIP3    H215478   0.364   6.010   4.166  1.0100  0.9226 -0.3850
 5172TIP3   OH215479   5.248   4.061   4.360  0.4807  0.0932  0.0379
 5172TIP3    H115480   5.300   4.022   4.291 -0.7836 -1.3627 -0.1559
 5172TIP3    H215481   5.291   4.144   4.379  2.4199 -0.7070 -0.5880
 5173TIP3   OH215482   5.322   1.647   1.283 -0.0949 -0.0126  0.0156
 5173TIP3    H115483   5.403   1.618   1.324 -1.3224 -1.0449  1.8915
 5173TIP3    H215484   5.277   1.566   1.259 -1.4215  0.4671  0.8078
 5174TIP3   OH215485   1.146   5.368   3.455 -0.4283  0.3911 -0.3915
 5174TIP3    H115486   1.142   5.432   3.526  0.5805 -0.3786  0.3903
 5174TIP3    H215487   1.060   5.327   3.453 -0.4016  0.2786  0.5329
 5175TIP3   OH215488   3.010   0.490   0.810  0.1847 -0.2673 -0.0256
 5175TIP3    H115489   3.045   0.415   0.857 -2.0334 -0.3727  1.6338
 5175TIP3    H215490   3.028   0.565   0.867 -0.2929 -0.0025 -0.2135
 5176TIP3   OH215491   5.833   4.286   0.231  0.0493 -0.4227 -0.0310
 5176TIP3    H115492   5.779   4.348   0.182  0.7670 -0.0225 -0.3399
 5176TIP3    H215493   5.911   4.337   0.255  0.3254 -1.0078  0.3320
 5177TIP3   OH215494   6.446   4.874   0.485 -0.2123 -0.5127 -0.1678
 5177TIP3    H115495   6.393   4.950   0.511  0.8751  1.1729 -2.5042
 5177TIP3    H215496   6.530   4.888   0.529 -0.5677 -1.4014  0.8512
 5178TIP3   OH215497   5.675   4.639   2.450  0.2207 -0.0847  0.0178
 5178TIP3    H115498   5.764   4.662   2.476 -0.3248  0.7126  1.2565
 5178TIP3    H215499   5.685   4.557   2.401  1.6470  0.1156 -0.0693
 5179TIP3   OH215500   5.211   5.936   1.678  0.3318  0.0559  0.6281
 5179TIP3    H115501   5.223   5.853   1.631 -1.4537 -0.5928  1.2356
 5179TIP3    H215502   5.125   5.967   1.651  0.0017  0.5392  2.1318
 5180TIP3   OH215503   2.827   2.233   5.433  0.0578  0.2207 -0.3367
 5180TIP3    H115504   2.761   2.287   5.476 -0.1875 -0.2117 -0.1657
 5180TIP3    H215505   2.784   2.200   5.354  0.3507  0.6282 -0.6681
 5181TIP3   OH215506   3.122   5.085   1.647  0.5410 -0.2422 -0.3024
 5181TIP3    H115507   3.181   5.147   1.691 -0.7514  0.5353  0.4056
 5181TIP3    H215508   3.179   5.032   1.593  2.1617 -0.8310  1.8358
 5182TIP3   OH215509   3.251   0.556   5.594 -0.8580 -0.6756 -0.0310
 5182TIP3    H115510   3.156   0.564   5.588 -0.9363 -0.8517  0.8312
 5182TIP3    H215511   3.283   0.593   5.512 -1.6816 -0.8982 -0.4704
 5183TIP3   OH215512   5.176   1.793   2.606 -0.4623 -0.5710  0.1922
 5183TIP3    H115513   5.240   1.727   2.632  0.8896  0.1888 -1.0650
 5183TIP3    H215514   5.115   1.747   2.549  0.0327 -0.9097 -0.0672
 5184TIP3   OH215515   4.088   4.821   5.089  0.2427 -0.2773  0.7771
 5184TIP3    H115516   4.058   4.815   4.999 -0.5114  2.5730  0.7370
 5184TIP3    H215517   4.029   4.764   5.138  0.7856 -2.0152 -0.4983
 5185TIP3   OH215518   3.222   3.230   5.420 -0.5322  0.3594 -0.2600
 5185TIP3    H115519   3.243   3.151   5.470  1.3134  1.3341  0.5724
 5185TIP3    H215520   3.297   3.241   5.361 -1.1826  1.0334 -0.9845
 5186TIP3   OH215521   4.018   0.736   1.802  0.2670 -0.1632 -0.2403
 5186TIP3    H115522   4.051   0.748   1.891 -0.4734 -0.3703  0.0710
 5186TIP3    H215523   3.928   0.770   1.805  0.6556  1.0027 -1.2343
 5187TIP3   OH215524   1.166   3.208   4.599 -0.2948 -0.4821 -0.0249
 5187TIP3    H115525   1.262   3.213   4.596 -0.2924 -0.3265  0.2518
 5187TIP3    H215526   1.148   3.114   4.604 -0.0788 -0.4778  1.7751
 5188TIP3   OH215527   4.199   1.892   5.098 -1.0900  0.4801 -0.1674
 5188TIP3    H115528   4.186   1.970   5.152 -1.9966  0.1455  0.1187
 5188TIP3    H215529   4.222   1.926   5.012 -0.7957  1.0500  0.1341
 5189TIP3   OH215530   0.769   3.221   4.569  0.4523 -0.1494 -0.0239
 5189TIP3    H115531   0.853   3.234   4.525  0.9438  1.2075  1.2269
 5189TIP3    H215532   0.713   3.292   4.536 -0.3079 -1.1667 -1.0082
 5190TIP3   OH215533   3.591   6.315   4.523 -0.5651 -0.2050 -1.3824
 5190TIP3    H115534   3.627   6.230   4.546  1.2585  0.7140 -0.5843
 5190TIP3    H215535   3.498   6.309   4.544 -0.0512 -1.2670  0.9081
 5191TIP3   OH215536   5.106   3.320   0.578  0.5810  0.4059 -0.3142
 5191TIP3    H115537   5.113   3.229   0.549 -0.4739  0.2778 -0.1993
 5191TIP3    H215538   5.018   3.327   0.613  1.3584  0.9167  1.6348
 5192TIP3   OH215539   4.382   5.449   1.067 -0.1833 -0.6735 -0.5447
 5192TIP3    H115540   4.388   5.356   1.049 -1.0766 -0.5883 -1.3565
 5192TIP3    H215541   4.427   5.461   1.151 -0.3895 -1.8784 -0.2545
 5193TIP3   OH215542   4.027   6.680   1.286 -0.3070  0.2337  0.6346
 5193TIP3    H115543   4.011   6.756   1.230 -0.8968 -0.9868 -0.9293
 5193TIP3    H215544   3.943   6.665   1.330 -0.4798 -0.0712  0.2087
 5194TIP3   OH215545   1.657   4.748   3.591  0.0228 -0.1918 -0.4784
 5194TIP3    H115546   1.683   4.666   3.549 -2.0556 -0.2395 -1.7988
 5194TIP3    H215547   1.566   4.733   3.618 -0.8486  2.0704 -1.9020
 5195TIP3   OH215548   0.918   5.167   4.019 -0.2981 -0.4126 -0.2058
 5195TIP3    H115549   0.898   5.238   3.959 -1.7023 -0.4709  0.1588
 5195TIP3    H215550   0.922   5.208   4.105 -1.4426 -0.8079  0.0489
 5196TIP3   OH215551   0.541   2.711   0.474 -0.4787 -0.8484  0.1382
 5196TIP3    H115552   0.463   2.671   0.513  0.2139 -0.8406  1.6357
 5196TIP3    H215553   0.534   2.694   0.381 -1.7536 -1.7547  0.3797
 5197TIP3   OH215554   6.860   1.760   1.472 -0.0907 -0.2841 -0.0287
 5197TIP3    H115555   6.920   1.821   1.513 -0.3832  0.8298 -1.1871
 5197TIP3    H215556   6.829   1.704   1.543  0.9486  0.2685  0.8764
 5198TIP3   OH215557   4.876   2.503   3.091  0.9327  0.4771 -0.5032
 5198TIP3    H115558   4.912   2.418   3.068 -1.0259 -0.6411  0.3516
 5198TIP3    H215559   4.873   2.551   3.008  1.6938 -0.4271 -1.0683
 5199TIP3   OH215560   2.589   6.713   5.318 -1.0744  0.4771 -0.5626
 5199TIP3    H115561   2.578   6.719   5.224 -0.3143 -1.9895 -0.8795
 5199TIP3    H215562   2.513   6.662   5.348 -0.6660  0.1575 -0.0472
 5200TIP3   OH215563   3.621   1.636   0.544  0.2793  0.1277 -0.7067
 5200TIP3    H115564   3.592   1.584   0.619  0.4104  1.6690  0.4638
 5200TIP3    H215565   3.683   1.699   0.582  2.5072 -0.8075 -2.5604
 5201TIP3   OH215566   5.977   0.857   4.614 -0.1296 -0.2782 -1.0575
 5201TIP3    H115567   5.947   0.816   4.533  0.7306 -0.9368 -1.0498
 5201TIP3    H215568   5.898   0.896   4.651 -0.6044 -0.2714 -2.0275
 5202TIP3   OH215569   3.655   0.674   3.330  0.3145  0.6485 -0.7748
 5202TIP3    H115570   3.674   0.592   3.284  0.8669 -0.4273  1.2202
 5202TIP3    H215571   3.741   0.707   3.356 -0.0163  0.2162  1.0281
 5203TIP3   OH215572   4.163   3.392   1.674  0.0356 -0.3468 -0.0114
 5203TIP3    H115573   4.249   3.429   1.652  0.4691 -1.6987 -0.6860
 5203TIP3    H215574   4.154   3.316   1.617 -1.6264 -0.2342  0.0551
 5204TIP3   OH215575   3.023   5.981   3.943  0.5243  0.2711 -0.2342
 5204TIP3    H115576   2.977   6.052   3.988  0.2226  0.5916 -1.0344
 5204TIP3    H215577   3.112   6.014   3.932  0.0752  1.0702 -1.7252
 5205TIP3   OH215578   0.974   4.835   4.448 -0.0954  0.2838 -0.3026
 5205TIP3    H115579   1.029   4.888   4.506  0.4814  0.8224 -1.3191
 5205TIP3    H215580   0.914   4.790   4.507  1.4310 -0.3399  0.8501
 5206TIP3   OH215581   6.770   1.387   5.876 -0.5652  0.2705  0.2495
 5206TIP3    H115582   6.753   1.305   5.828 -1.0229 -0.0107  0.8714
 5206TIP3    H215583   6.864   1.400   5.868 -0.6066  0.1182 -0.5509
 5207TIP3   OH215584   6.984   0.762   5.804 -0.6874  0.5660  0.5099
 5207TIP3    H115585   7.020   0.841   5.763 -0.0759 -0.2697 -0.6354
 5207TIP3    H215586   6.895   0.787   5.830 -0.6874  1.4955 -0.3098
 5208TIP3   OH215587   5.210   6.352   0.266  0.0543  0.1283 -0.0289
 5208TIP3    H115588   5.264   6.431   0.260  0.4281 -0.1140  0.1449
 5208TIP3    H215589   5.272   6.280   0.272 -0.2702 -0.2832 -1.2380
 5209TIP3   OH215590   2.721   1.255   3.530  0.1605 -0.4871  0.5864
 5209TIP3    H115591   2.716   1.189   3.599 -0.6174 -0.7305  0.3105
 5209TIP3    H215592   2.663   1.222   3.461 -0.4339  0.5893  0.5413
 5210TIP3   OH215593   2.824   4.210   2.582 -0.6179 -0.2000  0.1792
 5210TIP3    H115594   2.914   4.239   2.566 -0.4716  0.3121  1.7411
 5210TIP3    H215595   2.769   4.283   2.554 -0.5959 -0.6733 -1.1637
 5211TIP3   OH215596   3.367   0.750   0.121  0.0965  1.0742  0.1731
 5211TIP3    H115597   3.371   0.700   0.039 -1.0617 -0.8156  1.2024
 5211TIP3    H215598   3.408   0.693   0.185  0.4098  2.2613  1.0512
 5212TIP3   OH215599   2.842   3.671   3.044  0.5128  0.4018  0.0478
 5212TIP3    H115600   2.936   3.655   3.039  0.3174 -1.0608  0.5966
 5212TIP3    H215601   2.834   3.742   3.108  1.3004  1.4973 -1.0188
 5213TIP3   OH215602  -0.006   3.009   4.293  0.1612 -0.4276  0.2342
 5213TIP3    H115603   0.027   3.081   4.346  0.1358 -0.2877  0.0594
 5213TIP3    H215604   0.064   2.943   4.295  0.0773 -0.5056  0.6045
 5214TIP3   OH215605   5.195   3.414   0.814  0.2865  0.0518 -0.3154
 5214TIP3    H115606   5.194   3.411   0.719  0.4277  2.1291 -0.4186
 5214TIP3    H215607   5.164   3.327   0.841 -0.6900 -0.2438 -2.2301
 5215TIP3   OH215608   3.872   0.084   0.859  0.6578  0.0520  0.5158
 5215TIP3    H115609   3.854   0.009   0.916  0.4083 -1.3303 -1.2667
 5215TIP3    H215610   3.788   0.130   0.852  0.7276  0.3164  1.3531
 5216TIP3   OH215611   2.339   3.371   1.326  0.2258  0.2353  0.0702
 5216TIP3    H115612   2.282   3.347   1.399  0.6270  0.3604  0.4314
 5216TIP3    H215613   2.344   3.291   1.273 -1.0472  0.5045 -0.4961
 5217TIP3   OH215614   5.734   2.715   3.280 -0.1730  0.2017 -0.3723
 5217TIP3    H115615   5.652   2.694   3.325 -1.6161  0.9253 -2.4762
 5217TIP3    H215616   5.754   2.636   3.230 -1.2592  0.9670 -2.1225
 5218TIP3   OH215617   2.278   4.870   3.409  0.2520 -0.5104  0.7253
 5218TIP3    H115618   2.362   4.841   3.446 -0.0930  0.1628  2.1110
 5218TIP3    H215619   2.264   4.812   3.334  3.6460  1.5420 -1.7891
 5219TIP3   OH215620   5.126   3.361   3.393  0.2285  0.2312  0.5094
 5219TIP3    H115621   5.180   3.289   3.427 -0.2737 -0.3732  0.0450
 5219TIP3    H215622   5.179   3.401   3.325  2.0111  2.5692  3.0280
 5220TIP3   OH215623   3.006   2.334   0.085 -0.0878 -0.6338 -0.0103
 5220TIP3    H115624   2.984   2.328  -0.008  0.0670  0.4777 -0.1342
 5220TIP3    H215625   3.071   2.405   0.090 -1.7266  0.8868  1.1920
 5221TIP3   OH215626   6.044   1.959   4.269  0.0723 -0.1962 -0.0040
 5221TIP3    H115627   5.966   2.005   4.301 -0.1327 -0.1771 -0.5214
 5221TIP3    H215628   6.115   1.992   4.323 -0.4779 -1.2204  1.4314
 5222TIP3   OH215629   5.214   2.438   5.481  0.4082  0.0499 -0.2954
 5222TIP3    H115630   5.186   2.486   5.403  0.5428  1.0553  0.2507
 5222TIP3    H215631   5.154   2.364   5.487 -0.7007  0.9099 -0.4067
 5223TIP3   OH215632   1.813   2.965   2.462  0.2351  0.0279 -0.3131
 5223TIP3    H115633   1.787   2.943   2.551 -0.8839 -1.2085 -0.9097
 5223TIP3    H215634   1.849   2.884   2.426 -0.0994  0.2697 -1.2422
 5224TIP3   OH215635   5.254   2.815   0.506  0.5031  0.2136 -0.4599
 5224TIP3    H115636   5.312   2.861   0.446 -0.7978  0.4914 -1.5646
 5224TIP3    H215637   5.301   2.734   0.527  0.9069 -0.0341 -2.1023
 5225TIP3   OH215638   4.166   2.396   4.648  0.5364 -0.0914 -0.4256
 5225TIP3    H115639   4.217   2.448   4.586  0.6929  0.9104  0.5120
 5225TIP3    H215640   4.231   2.340   4.691  0.5970  0.0087 -0.3867
 5226TIP3   OH215641   7.222   3.394   3.279 -0.3560 -0.4587  0.3785
 5226TIP3    H115642   7.141   3.429   3.243 -0.6697 -1.1136  0.4527
 5226TIP3    H215643   7.201   3.370   3.369  0.4502  1.2547  1.0784
 5227TIP3   OH215644   3.847   6.205   0.282  0.2873 -0.3507  0.2860
 5227TIP3    H115645   3.898   6.265   0.336  0.9105 -0.1653 -0.4769
 5227TIP3    H215646   3.837   6.127   0.335 -1.0936  0.6468  1.5547
 5228TIP3   OH215647   3.121   1.683   2.559 -0.2737  0.1009  0.3508
 5228TIP3    H115648   3.193   1.630   2.525 -1.7098 -1.0333 -1.0491
 5228TIP3    H215649   3.055   1.620   2.588 -1.2079  1.1188  0.5201
 5229TIP3   OH215650   6.882   5.991   1.753 -0.4172  0.0340 -0.4011
 5229TIP3    H115651   6.928   6.031   1.679 -1.0621  1.0740 -0.2650
 5229TIP3    H215652   6.860   6.064   1.810  1.2001 -0.8827  1.5075
 5230TIP3   OH215653   2.912   0.493   1.521 -0.6408  0.3890  0.4456
 5230TIP3    H115654   2.897   0.463   1.431  0.9076 -2.3874  1.0239
 5230TIP3    H215655   2.993   0.543   1.516  0.0580 -0.7099  0.4343
 5231TIP3   OH215656   7.100   6.011   4.264 -0.4384 -0.0301 -0.1552
 5231TIP3    H115657   7.017   6.027   4.308  0.1841 -2.3598  2.1112
 5231TIP3    H215658   7.159   5.981   4.334  2.2493  1.1781 -1.7128
 5232TIP3   OH215659   1.467   6.464   3.238  0.2030 -0.0680 -0.7708
 5232TIP3    H115660   1.554   6.446   3.275  0.0959 -0.3126 -0.6339
 5232TIP3    H215661   1.477   6.548   3.193  1.2657 -1.3222 -3.0822
 5233TIP3   OH215662   0.992   5.430   1.639 -0.1558  0.0445  0.1332
 5233TIP3    H115663   1.001   5.518   1.674 -0.4487  0.0168  0.2841
 5233TIP3    H215664   0.901   5.427   1.607  0.2099  0.2006 -0.9824
 5234TIP3   OH215665   4.263   6.579   4.272 -0.2256 -0.5633 -0.2646
 5234TIP3    H115666   4.304   6.511   4.325  0.2393  0.7878  1.1747
 5234TIP3    H215667   4.169   6.564   4.283 -0.1667 -2.0493 -1.4496
 5235TIP3   OH215668   3.120   1.576   0.931 -0.1612  0.2257 -0.1149
 5235TIP3    H115669   3.069   1.526   0.994 -0.6041  0.0358 -0.6194
 5235TIP3    H215670   3.054   1.625   0.881  0.2367  1.0217  0.1175
 5236TIP3   OH215671   6.116   2.336   1.250  0.1254 -0.0770  0.5044
 5236TIP3    H115672   6.185   2.401   1.262  0.2899 -0.1643  0.0430
 5236TIP3    H215673   6.160   2.251   1.255  0.0928 -0.1300 -0.0063
 5237TIP3   OH215674   1.505   1.742   0.369 -0.1362  0.2585 -0.0382
 5237TIP3    H115675   1.573   1.805   0.348 -0.9712  2.1889  2.6413
 5237TIP3    H215676   1.426   1.794   0.385 -1.9561 -1.7828 -1.5693
 5238TIP3   OH215677   1.966   0.262   1.957 -0.3036 -0.2310  0.0831
 5238TIP3    H115678   1.910   0.334   1.988 -0.0851 -0.5305  1.2101
 5238TIP3    H215679   1.932   0.185   2.002  0.2442 -0.6197 -0.1687
 5239TIP3   OH215680   5.847   6.128   0.916  0.3402  0.2428 -0.4080
 5239TIP3    H115681   5.895   6.135   0.833  0.3796 -0.1594 -0.4203
 5239TIP3    H215682   5.874   6.044   0.952  0.1941  0.3416 -0.0643
 5240TIP3   OH215683   4.286   4.281   5.275  0.4157  0.4535 -0.3170
 5240TIP3    H115684   4.302   4.283   5.370 -0.7352  0.9747 -0.1145
 5240TIP3    H215685   4.251   4.194   5.259  1.2889  0.1098 -0.3892
 5241TIP3   OH215686   0.128   6.425   3.435  0.1423  0.1478 -0.2232
 5241TIP3    H115687   0.033   6.425   3.447 -0.1272 -0.6687 -2.0547
 5241TIP3    H215688   0.158   6.502   3.483 -1.3992  0.2218  0.6735
 5242TIP3   OH215689   6.144   0.078   5.641  0.4335  0.1025 -0.0423
 5242TIP3    H115690   6.052   0.101   5.658  0.9241  0.1160  3.2418
 5242TIP3    H215691   6.155   0.094   5.548 -1.8708  3.9260  0.0933
 5243TIP3   OH215692   5.189   2.087   0.695 -0.5064 -0.1782 -0.0245
 5243TIP3    H115693   5.244   2.034   0.752 -0.1824  0.4876  0.2807
 5243TIP3    H215694   5.204   2.050   0.607  0.9933  0.4445 -0.0619
 5244TIP3   OH215695   2.194   5.170   0.864 -0.0646  0.1525  0.3798
 5244TIP3    H115696   2.169   5.078   0.865  0.6421 -0.0463  0.2208
 5244TIP3    H215697   2.283   5.170   0.830  0.1011  0.8574  0.8014
 5245TIP3   OH215698   4.122   5.321   2.016 -0.6147  0.5220  0.3197
 5245TIP3    H115699   4.199   5.281   1.975 -0.7535 -0.1061  0.6622
 5245TIP3    H215700   4.102   5.397   1.961  0.4106  0.8437  0.3860
 5246TIP3   OH215701   6.419   5.669   1.334 -0.1963 -0.8025 -0.4524
 5246TIP3    H115702   6.387   5.625   1.413  0.8728 -0.2975  0.2786
 5246TIP3    H215703   6.419   5.600   1.268  1.0277 -1.8298  0.5664
 5247TIP3   OH215704   5.238   0.242   5.189  0.1344 -0.5660  0.3525
 5247TIP3    H115705   5.295   0.223   5.263 -0.4238 -0.0393  0.9359
 5247TIP3    H215706   5.277   0.319   5.148 -0.8044  0.5926  1.5112
 5248TIP3   OH215707   6.290   4.075   5.154 -0.0221 -0.1230 -0.0067
 5248TIP3    H115708   6.339   4.073   5.072  0.6299 -1.5995  0.3770
 5248TIP3    H215709   6.355   4.050   5.221 -0.7931 -0.0248  0.7999
 5249TIP3   OH215710   5.342   3.911   5.203 -0.2066 -0.0998  0.3294
 5249TIP3    H115711   5.389   3.993   5.222  1.6121 -0.8289 -0.6786
 5249TIP3    H215712   5.386   3.845   5.256 -2.6552 -0.2461  2.3154
 5250TIP3   OH215713   1.589   0.383   5.309 -0.0777 -0.6320  0.1805
 5250TIP3    H115714   1.624   0.452   5.252  0.8307 -0.1483  1.2826
 5250TIP3    H215715   1.529   0.334   5.253  0.7023 -0.1135 -1.1617
 5251TIP3   OH215716   1.523   3.341   1.498  0.3573  0.5487 -0.1795
 5251TIP3    H115717   1.500   3.307   1.411  1.2341  2.5661 -1.2811
 5251TIP3    H215718   1.439   3.355   1.542 -0.3771  2.5575 -2.0059
 5252TIP3   OH215719   6.576   3.362   4.017 -0.2135 -0.2427 -0.1060
 5252TIP3    H115720   6.556   3.399   4.103  0.7341  0.1192 -0.0300
 5252TIP3    H215721   6.576   3.267   4.032 -0.4999 -0.2007  0.1894
 5253TIP3   OH215722   0.629   4.138   5.797  0.6476 -0.5703  0.0969
 5253TIP3    H115723   0.696   4.161   5.733  2.0674  0.9176  1.9701
 5253TIP3    H215724   0.673   4.080   5.859  0.2068  0.2664  1.2498
 5254TIP3   OH215725   2.158   6.538   3.749  0.2905  0.1438 -0.1230
 5254TIP3    H115726   2.221   6.525   3.819 -1.1249 -1.2992  0.9473
 5254TIP3    H215727   2.183   6.473   3.682  1.6365  1.5181 -1.0358
 5255TIP3   OH215728   3.142   3.023   2.855  0.0495 -0.1538  0.2077
 5255TIP3    H115729   3.154   2.969   2.933  0.7885  0.3764  0.4744
 5255TIP3    H215730   3.113   3.108   2.889  1.6830  0.5109  0.0341
 5256TIP3   OH215731   4.092   5.733   5.105 -0.3355 -0.3783  0.3848
 5256TIP3    H115732   4.046   5.682   5.038  1.8137 -1.2109 -0.5607
 5256TIP3    H215733   4.135   5.804   5.056  0.6385 -0.5477  0.9657
 5257TIP3   OH215734   5.418   0.736   5.540  0.3468  0.3161  0.0197
 5257TIP3    H115735   5.472   0.802   5.585  1.0937  0.1343 -0.5799
 5257TIP3    H215736   5.365   0.787   5.479  2.5029  0.2516 -2.0468
 5258TIP3   OH215737   2.609   4.863   3.886 -0.2071 -0.3638  0.0289
 5258TIP3    H115738   2.548   4.804   3.842 -0.8186 -0.8115  1.4163
 5258TIP3    H215739   2.640   4.921   3.817 -0.6261 -1.4472 -1.1025
 5259TIP3   OH215740   6.732   3.443   1.859 -0.6146  0.4119 -0.3650
 5259TIP3    H115741   6.678   3.368   1.885  1.5986 -1.2476 -0.3168
 5259TIP3    H215742   6.791   3.407   1.792 -0.3992  2.4684 -1.3393
 5260TIP3   OH215743   4.285   2.578   0.290  0.6088 -0.2691 -0.2295
 5260TIP3    H115744   4.271   2.490   0.325  0.1587 -0.1729 -0.1675
 5260TIP3    H215745   4.238   2.636   0.350 -1.2655 -0.1976 -1.6593
 5261TIP3   OH215746   1.118   0.311   0.481 -0.8262 -0.4031  0.3973
 5261TIP3    H115747   1.187   0.351   0.427 -0.9892 -1.0835 -0.3462
 5261TIP3    H215748   1.038   0.324   0.431 -1.3549  0.8838  1.5304
 5262TIP3   OH215749   2.955   4.061   1.060 -0.4963  0.3886  0.1853
 5262TIP3    H115750   2.977   3.971   1.036 -1.1547  0.3485 -0.2891
 5262TIP3    H215751   2.911   4.054   1.145 -2.9073 -0.0399 -1.0183
 5263TIP3   OH215752   2.992   2.669   1.706  0.1348  0.0100 -0.0285
 5263TIP3    H115753   2.958   2.682   1.618 -1.4658  1.1562  0.7232
 5263TIP3    H215754   2.955   2.740   1.758  2.7568  0.6557  1.1494
 5264TIP3   OH215755   6.809   0.945   2.854 -0.7375  0.5764 -0.0540
 5264TIP3    H115756   6.836   0.854   2.841 -1.4676  0.4910 -1.0340
 5264TIP3    H215757   6.871   0.996   2.801  0.1955  0.7481  1.1402
 5265TIP3   OH215758   3.593   3.045   4.006 -0.0617  0.0092  0.6590
 5265TIP3    H115759   3.510   3.035   4.053  0.9115 -0.3008  2.3851
 5265TIP3    H215760   3.567   3.054   3.914 -1.9083 -2.4079  0.8409
 5266TIP3   OH215761   5.243   0.820   0.672  0.5432 -0.3217 -0.1175
 5266TIP3    H115762   5.174   0.805   0.608 -0.4391  1.1690  0.5192
 5266TIP3    H215763   5.206   0.886   0.732  2.5420  0.5969  0.1973
 5267TIP3   OH215764   3.298   1.088   2.452 -0.2074 -0.7354 -0.1529
 5267TIP3    H115765   3.317   1.037   2.530 -0.1685 -0.5470 -0.0410
 5267TIP3    H215766   3.216   1.050   2.418 -0.0633 -1.0123 -0.1896
 5268TIP3   OH215767   5.081   1.945   1.048 -0.0052  0.0129  0.6730
 5268TIP3    H115768   5.103   2.012   1.112 -3.1943  2.8824 -0.9190
 5268TIP3    H215769   4.986   1.946   1.043 -0.0033 -1.4497 -2.6834
 5269TIP3   OH215770   2.423   1.256   3.762  0.1252  0.0301 -0.0337
 5269TIP3    H115771   2.516   1.270   3.779  0.3333 -1.0734 -0.1417
 5269TIP3    H215772   2.384   1.249   3.849  0.3212 -0.5176  0.0138
 5270TIP3   OH215773   3.017   1.444   4.776 -0.2796  0.2374  0.1421
 5270TIP3    H115774   3.031   1.526   4.824  1.0348  1.4044 -2.0809
 5270TIP3    H215775   2.959   1.468   4.704  0.2326 -0.7517 -0.6242
 5271TIP3   OH215776   1.963   4.585   2.657  0.5774 -0.0888  0.7290
 5271TIP3    H115777   1.905   4.593   2.732  0.3228  0.0290  0.5221
 5271TIP3    H215778   2.050   4.605   2.691  0.3212  0.9719  0.7708
 5272TIP3   OH215779   5.072   5.161   3.147 -0.1833 -0.1170 -0.0240
 5272TIP3    H115780   5.078   5.257   3.143  1.2715 -0.1923 -0.5587
 5272TIP3    H215781   5.112   5.132   3.065 -0.7301 -1.1824  0.0745
 5273TIP3   OH215782   4.706   3.984   1.341  0.1538 -0.8138  0.4412
 5273TIP3    H115783   4.637   3.956   1.401  0.9852 -0.7761  1.4375
 5273TIP3    H215784   4.753   4.053   1.389  0.3934 -0.2760 -0.5348
 5274TIP3   OH215785   6.447   5.254   1.786 -0.7784 -0.0928  0.6329
 5274TIP3    H115786   6.444   5.296   1.700  1.5997 -1.6440 -0.2930
 5274TIP3    H215787   6.481   5.322   1.844  0.1266  0.1926 -0.2135
 5275TIP3   OH215788   4.534   0.103   0.637  0.2750 -0.0832 -0.0478
 5275TIP3    H115789   4.551   0.164   0.566 -3.4020  1.9569  0.5782
 5275TIP3    H215790   4.541   0.155   0.717 -2.2058 -0.5791  0.5677
 5276TIP3   OH215791   2.450   0.644   1.769 -0.1620  0.0141  0.2441
 5276TIP3    H115792   2.456   0.602   1.683  1.0859  1.1088 -0.2394
 5276TIP3    H215793   2.537   0.633   1.807 -0.2169  0.9582  0.6730
 5277TIP3   OH215794   2.230   2.681   1.609 -0.4404  0.0178  0.6793
 5277TIP3    H115795   2.180   2.744   1.557  0.3323 -0.3240 -0.5292
 5277TIP3    H215796   2.239   2.722   1.694 -1.2626  0.8528  0.3825
 5278TIP3   OH215797   4.348   2.832   1.081 -0.3104 -0.3155  0.5704
 5278TIP3    H115798   4.332   2.918   1.119  1.1182 -0.4391  1.5322
 5278TIP3    H215799   4.437   2.837   1.046  0.6440 -1.9932  2.5224
 5279TIP3   OH215800   4.369   6.801   4.403 -0.2440 -0.6236  0.3724
 5279TIP3    H115801   4.450   6.777   4.449  0.3125 -0.9615 -0.7535
 5279TIP3    H215802   4.334   6.719   4.370 -0.7150 -0.3973  0.2973
 5280TIP3   OH215803   0.429   3.281   2.049  0.3037  0.3262 -0.1035
 5280TIP3    H115804   0.457   3.190   2.056  1.0230  0.6335  1.3520
 5280TIP3    H215805   0.352   3.288   2.106 -0.1047  0.5014 -0.6671
 5281TIP3   OH215806   4.830   5.596   4.863 -0.2934  0.6309  0.3439
 5281TIP3    H115807   4.923   5.576   4.849 -0.4188  0.1791  0.1580
 5281TIP3    H215808   4.802   5.533   4.930 -0.4841  0.7248  0.3512
 5282TIP3   OH215809   1.590   3.413   3.305 -0.4297 -0.2919 -0.1032
 5282TIP3    H115810   1.670   3.366   3.332  0.4703  0.5303 -1.2362
 5282TIP3    H215811   1.605   3.435   3.213 -1.7599  0.3413 -0.1917
 5283TIP3   OH215812   1.471   6.496   1.473  0.4461 -0.2741  0.7096
 5283TIP3    H115813   1.418   6.505   1.394  0.8961  0.4086  0.4808
 5283TIP3    H215814   1.448   6.409   1.507 -0.3353 -0.2485  0.2680
 5284TIP3   OH215815   4.471   0.131   0.220  0.8290 -0.3036 -0.3639
 5284TIP3    H115816   4.565   0.146   0.212  0.9729 -1.3906 -0.9600
 5284TIP3    H215817   4.464   0.042   0.255  0.0186 -0.3450 -0.6056
 5285TIP3   OH215818   2.987   3.025   5.421 -0.0172  0.1101  0.1438
 5285TIP3    H115819   3.060   3.085   5.435 -1.3228  1.2500  2.9332
 5285TIP3    H215820   2.949   3.051   5.337  2.6819 -0.5142 -1.3770
 5286TIP3   OH215821   0.667   5.823   2.580 -0.6043 -0.6757 -0.2781
 5286TIP3    H115822   0.762   5.822   2.585 -0.5540  0.7305 -0.4370
 5286TIP3    H215823   0.642   5.734   2.557  0.7142 -0.8763 -0.9779
 5287TIP3   OH215824   4.648   5.921   1.553 -0.1480  0.4253  0.4452
 5287TIP3    H115825   4.603   6.006   1.558 -0.6930  0.1174  0.7617
 5287TIP3    H215826   4.685   5.920   1.465 -0.4609  0.8311  0.3028
 5288TIP3   OH215827   0.818   6.091   4.406 -0.3705 -0.3764 -0.1329
 5288TIP3    H115828   0.903   6.061   4.439  0.3660  0.2168 -1.4411
 5288TIP3    H215829   0.755   6.034   4.449  0.6409 -0.5030  1.2592
 5289TIP3   OH215830   3.585   1.407   3.401 -0.2487  0.2448 -0.1744
 5289TIP3    H115831   3.574   1.495   3.436 -0.5036 -0.0005  0.3706
 5289TIP3    H215832   3.656   1.369   3.453 -3.6571 -1.8198  3.5481
 5290TIP3   OH215833   7.130   1.561   2.859 -0.1968  0.1576  0.0877
 5290TIP3    H115834   7.192   1.593   2.794  0.1220  0.2113  0.4151
 5290TIP3    H215835   7.168   1.479   2.891 -1.2965 -0.8872 -1.1689
 5291TIP3   OH215836   1.151   5.818   0.232  0.3070  0.4491  0.0840
 5291TIP3    H115837   1.245   5.828   0.250  0.2644  0.6160  0.2223
 5291TIP3    H215838   1.142   5.728   0.203  0.7373  0.8641 -1.3978
 5292TIP3   OH215839   7.146   4.741   5.581 -0.3240 -0.2880  1.3927
 5292TIP3    H115840   7.187   4.735   5.494 -1.4323 -0.3996  0.8664
 5292TIP3    H215841   7.125   4.650   5.603 -0.6130 -0.1937  1.5016
 5293TIP3   OH215842   2.142   4.704   4.840  0.2146  0.0853 -0.5843
 5293TIP3    H115843   2.188   4.634   4.794  1.7285  0.1211  0.7876
 5293TIP3    H215844   2.123   4.668   4.927  2.3548  1.8089  0.6830
 5294TIP3   OH215845   4.612   1.813   0.089 -0.5151  0.1812  0.2607
 5294TIP3    H115846   4.592   1.763   0.168  0.7281  0.5920  0.8661
 5294TIP3    H215847   4.689   1.865   0.113 -0.4028  0.6591 -1.0754
 5295TIP3   OH215848   6.497   2.480   2.545 -0.4373 -0.1714 -0.3549
 5295TIP3    H115849   6.578   2.525   2.520 -0.5217 -0.5740 -1.4169
 5295TIP3    H215850   6.522   2.424   2.618  0.2850 -0.4022 -0.7694
 5296TIP3   OH215851   0.039   2.249   1.141 -0.4032  0.2758 -0.1539
 5296TIP3    H115852   0.051   2.155   1.127 -0.4215  0.2955 -0.3094
 5296TIP3    H215853  -0.049   2.267   1.107  0.2198  0.6418 -1.6669
 5297TIP3   OH215854   1.053   4.682   2.519 -0.6646 -0.3052 -0.0986
 5297TIP3    H115855   1.012   4.612   2.468 -1.8772 -1.0575  1.7961
 5297TIP3    H215856   1.038   4.657   2.610 -0.4014  2.0233  0.6462
 5298TIP3   OH215857   0.199   2.183   5.834 -0.1351 -0.2762  0.1746
 5298TIP3    H115858   0.237   2.188   5.921  0.3707  0.6736 -0.0950
 5298TIP3    H215859   0.273   2.165   5.776 -0.3766 -0.2955 -0.1304
 5299TIP3   OH215860   6.156   4.198   2.695 -0.4357  0.3707 -0.3509
 5299TIP3    H115861   6.150   4.139   2.771  1.0777 -1.4167 -1.5308
 5299TIP3    H215862   6.101   4.273   2.719 -1.8211 -1.1421  1.5584
 5300TIP3   OH215863   3.744   2.756   1.918 -0.0864 -0.0211 -0.0895
 5300TIP3    H115864   3.731   2.841   1.875 -1.1855 -1.0076 -1.8216
 5300TIP3    H215865   3.656   2.727   1.941  0.3734 -0.2090  1.5073
 5301TIP3   OH215866   0.356   1.868   0.043 -0.1759  0.0373  0.1750
 5301TIP3    H115867   0.336   1.821  -0.038 -0.4840 -0.4200  0.5164
 5301TIP3    H215868   0.449   1.850   0.058  0.4287  1.7845 -1.1565
 5302TIP3   OH215869   6.622   3.867   4.137 -0.3763 -0.0818  0.4665
 5302TIP3    H115870   6.645   3.925   4.064  2.2354  1.3131  2.2147
 5302TIP3    H215871   6.629   3.779   4.101  3.8318  0.3913 -0.4517
 5303TIP3   OH215872   3.092   0.148   3.133 -1.0450 -0.3416  0.4201
 5303TIP3    H115873   3.099   0.198   3.215 -1.4001  1.7783 -0.7744
 5303TIP3    H215874   3.008   0.102   3.141 -1.4547  0.4626  0.9266
 5304TIP3   OH215875   5.487   2.508   0.060 -0.1716 -0.0776  0.1506
 5304TIP3    H115876   5.413   2.551   0.018  0.3860  1.4947  0.7275
 5304TIP3    H215877   5.475   2.415   0.040 -2.4925  0.0842  0.5627
 5305TIP3   OH215878   4.790   1.183   4.716  0.2344 -0.4801 -0.0629
 5305TIP3    H115879   4.829   1.136   4.789 -0.1516 -1.9205 -0.7529
 5305TIP3    H215880   4.842   1.156   4.640 -0.4864 -0.4070 -0.5878
 5306TIP3   OH215881   3.072   6.722   1.368 -0.1150  0.8156  0.3966
 5306TIP3    H115882   3.158   6.707   1.408 -0.0592  0.1574  0.0472
 5306TIP3    H215883   3.078   6.681   1.282 -0.4004  1.7803 -0.1009
 5307TIP3   OH215884   3.159   3.734   2.007  0.1578  0.1316  0.3283
 5307TIP3    H115885   3.101   3.663   1.979  1.3049 -0.8578  0.3839
 5307TIP3    H215886   3.100   3.805   2.031 -1.0091 -0.6687 -0.0867
 5308TIP3   OH215887   6.985   6.725   4.144 -0.1190 -0.2568 -0.5783
 5308TIP3    H115888   7.011   6.803   4.192 -0.2603  0.5250 -1.7443
 5308TIP3    H215889   7.066   6.673   4.138  0.0786  0.0018 -0.1881
 5309TIP3   OH215890   2.179   3.108   2.965  0.3261  0.0556 -0.7582
 5309TIP3    H115891   2.224   3.106   2.881  0.4464  0.9698 -0.7225
 5309TIP3    H215892   2.133   3.192   2.966  0.8613  0.3624  0.3630
 5310TIP3   OH215893   6.987   2.360   1.976 -0.2900  0.1570  0.3630
 5310TIP3    H115894   6.895   2.338   1.963 -0.3343  0.4321  0.2043
 5310TIP3    H215895   7.032   2.275   1.977 -0.6234 -0.0192  1.0772
 5311TIP3   OH215896   1.552   4.546   5.788 -1.0326  0.2238 -0.4699
 5311TIP3    H115897   1.511   4.467   5.750  0.0092  0.0360 -1.2635
 5311TIP3    H215898   1.503   4.562   5.868 -1.3904 -1.1435 -0.3768
 5312TIP3   OH215899   1.797   3.800   4.348  0.3125  0.5384 -0.3887
 5312TIP3    H115900   1.719   3.750   4.324 -0.1549  1.7100 -1.4100
 5312TIP3    H215901   1.864   3.772   4.286 -0.1814  1.7348 -1.4967
 5313TIP3   OH215902   7.164   2.642   5.486  0.7160 -0.1830  0.3518
 5313TIP3    H115903   7.206   2.556   5.493  1.5965  0.3367  2.0847
 5313TIP3    H215904   7.176   2.681   5.572 -0.5156  1.3121 -0.1134
 5314TIP3   OH215905   6.527   2.367   1.598  0.3538 -0.3887 -0.1459
 5314TIP3    H115906   6.535   2.339   1.507  1.5235 -0.1674 -0.1320
 5314TIP3    H215907   6.556   2.291   1.649 -0.0142 -0.4115  0.0330
 5315TIP3   OH215908   6.870   4.960   1.924  0.5096 -0.0107  0.1546
 5315TIP3    H115909   6.874   5.010   1.843  0.5201 -1.9694 -1.1061
 5315TIP3    H215910   6.799   4.898   1.911  0.2140 -0.0850  1.8349
 5316TIP3   OH215911   5.072   0.754   4.380  0.1477 -0.3521 -0.6387
 5316TIP3    H115912   5.069   0.679   4.321  0.0768  0.2402 -1.4078
 5316TIP3    H215913   4.981   0.784   4.385 -0.1046 -1.2653  0.9470
 5317TIP3   OH215914   2.723   6.335   5.373  0.6976  0.3951  0.5113
 5317TIP3    H115915   2.802   6.301   5.414  1.5420  1.9197  0.2320
 5317TIP3    H215916   2.703   6.414   5.422  0.4998  1.0930 -0.6436
 5318TIP3   OH215917   4.349   5.885   1.892  0.3141 -0.0299  0.5581
 5318TIP3    H115918   4.258   5.903   1.867  0.5919 -0.9297 -1.2176
 5318TIP3    H215919   4.395   5.967   1.875  0.0769  0.0351  0.2165
 5319TIP3   OH215920   2.813   2.457   2.384 -0.4949  0.1691 -0.0884
 5319TIP3    H115921   2.752   2.510   2.435 -0.8346 -0.4322  0.1404
 5319TIP3    H215922   2.879   2.429   2.447  0.3045  1.2021 -0.4245
 5320TIP3   OH215923   1.329   5.504   2.989 -0.1373  0.2038  0.1367
 5320TIP3    H115924   1.401   5.555   3.026 -0.8933  2.1234 -0.8857
 5320TIP3    H215925   1.250   5.543   3.027 -0.7678  0.2310 -1.1560
 5321TIP3   OH215926   3.610   5.348   1.007 -0.5888  0.3764  0.2747
 5321TIP3    H115927   3.699   5.348   0.971 -0.7547  0.8354 -0.1384
 5321TIP3    H215928   3.578   5.259   0.992 -0.3642  0.3373  0.0158
 5322TIP3   OH215929   0.705   1.506   3.803 -0.4517  0.0462  0.0285
 5322TIP3    H115930   0.715   1.496   3.898 -0.5563 -0.6077 -0.0294
 5322TIP3    H215931   0.784   1.553   3.775  0.1591 -0.8107  0.2706
 5323TIP3   OH215932   4.332   2.443   5.447 -0.3035  0.0433 -0.0620
 5323TIP3    H115933   4.410   2.448   5.502 -0.3473  0.3509 -0.0272
 5323TIP3    H215934   4.284   2.367   5.480 -1.5852  1.6329  1.9976
 5324TIP3   OH215935   1.213   5.467   1.389 -0.0433  0.2843  0.1039
 5324TIP3    H115936   1.138   5.467   1.449  0.4356  1.9275  0.7672
 5324TIP3    H215937   1.187   5.525   1.318  0.8786  1.5741  0.7731
 5325TIP3   OH215938   7.226   6.219   4.123 -0.1026 -0.3884 -0.0838
 5325TIP3    H115939   7.173   6.141   4.137  0.1861 -1.0723 -2.4895
 5325TIP3    H215940   7.163   6.290   4.108 -0.3432 -0.5549  0.1329
 5326TIP3   OH215941   6.665   3.329   3.770 -0.0175  0.6504  0.2805
 5326TIP3    H115942   6.640   3.355   3.858  3.2004  3.6063  0.5265
 5326TIP3    H215943   6.760   3.329   3.771  0.1564 -1.5333 -2.6444
 5327TIP3   OH215944   6.688   3.215   0.336 -0.1790  0.7314  0.4740
 5327TIP3    H115945   6.711   3.172   0.418  0.9093 -0.0406 -0.2085
 5327TIP3    H215946   6.681   3.308   0.358 -1.1466  0.4074  1.6811
 5328TIP3   OH215947   3.828   2.849   0.330 -0.1290  0.2027 -0.0569
 5328TIP3    H115948   3.891   2.905   0.374  0.6351  0.3326 -1.2694
 5328TIP3    H215949   3.814   2.776   0.390  1.5612 -0.0757  0.0422
 5329TIP3   OH215950   1.076   0.062   1.308  0.1373  0.1203  0.1221
 5329TIP3    H115951   1.086   0.044   1.402 -0.6535 -0.5218  0.0924
 5329TIP3    H215952   1.069   0.158   1.303 -0.5961  0.1118  0.7981
 5330TIP3   OH215953   0.909   6.544   2.902  0.1668 -0.1653 -0.4352
 5330TIP3    H115954   0.904   6.538   2.806 -0.5077  1.1823 -0.5081
 5330TIP3    H215955   0.834   6.495   2.934 -0.3690  0.4880 -0.6638
 5331TIP3   OH215956   7.227   0.086   3.951 -0.6588  0.2496 -0.6845
 5331TIP3    H115957   7.146   0.117   3.911 -1.2162  0.8151  0.8166
 5331TIP3    H215958   7.204   0.068   4.042  0.8497  0.1873 -0.2809
 5332TIP3   OH215959   5.616   3.618   0.735 -0.0403 -0.4491  0.0142
 5332TIP3    H115960   5.670   3.576   0.801  1.2569  1.6020  0.3482
 5332TIP3    H215961   5.590   3.701   0.774 -1.6430 -0.4298 -0.9895
 5333TIP3   OH215962   0.612   2.731   2.023  0.6782  0.2810 -1.1094
 5333TIP3    H115963   0.535   2.764   2.068  0.9346 -0.6933  0.1147
 5333TIP3    H215964   0.577   2.680   1.949  0.1791  0.2818 -0.8750
 5334TIP3   OH215965   1.259   1.326   4.743 -0.1094 -0.1056 -0.1145
 5334TIP3    H115966   1.347   1.354   4.720  0.7317 -0.8634  1.9418
 5334TIP3    H215967   1.263   1.230   4.745 -0.4315 -0.1180  1.7824
 5335TIP3   OH215968   5.608   0.865   5.700 -0.5560  0.5808  0.9850
 5335TIP3    H115969   5.658   0.812   5.762  0.4584  1.1610  0.6773
 5335TIP3    H215970   5.674   0.901   5.641 -1.6603 -2.6471 -2.6606
 5336TIP3   OH215971   0.634   2.275   5.489  0.0197  0.6365  0.1531
 5336TIP3    H115972   0.654   2.367   5.506  0.0657  0.5210  0.7570
 5336TIP3    H215973   0.709   2.243   5.439  0.7848  0.5157  1.3546
 5337TIP3   OH215974   1.586   3.327   5.586 -0.3118 -0.3725  0.6076
 5337TIP3    H115975   1.603   3.354   5.676 -1.6715  0.6074  0.6060
 5337TIP3    H215976   1.636   3.246   5.575 -0.1903 -0.5563  2.2617
 5338TIP3   OH215977   0.432   3.474   3.864  0.3686 -0.1354 -0.3089
 5338TIP3    H115978   0.486   3.552   3.877 -0.9704  0.6215  0.9941
 5338TIP3    H215979   0.372   3.497   3.793 -2.5855  1.6017  2.4649
 5339TIP3   OH215980   5.407   5.152   5.542  0.5953  0.4897 -0.4734
 5339TIP3    H115981   5.324   5.138   5.587  1.6716 -0.9591  1.1869
 5339TIP3    H215982   5.446   5.065   5.535  1.0246  0.8113 -3.2453
 5340TIP3   OH215983   0.049   3.460   2.530 -0.0963  0.3296 -0.1840
 5340TIP3    H115984   0.077   3.382   2.579 -1.0283  0.3057  0.3313
 5340TIP3    H215985  -0.009   3.426   2.461  0.6403  0.4356 -0.8717
 5341TIP3   OH215986   0.949   6.661   2.567 -0.6540  0.0213 -0.1402
 5341TIP3    H115987   0.908   6.578   2.540  1.1723 -0.5644 -1.2766
 5341TIP3    H215988   1.040   6.638   2.585  0.0627  1.8984 -1.1377
 5342TIP3   OH215989   6.226   6.540   1.755 -0.3847  0.1762 -0.3341
 5342TIP3    H115990   6.228   6.464   1.814 -0.1817 -0.0021 -0.5672
 5342TIP3    H215991   6.242   6.615   1.811  0.8123 -0.0836 -0.3195
 5343TIP3   OH215992   5.775   5.332   0.818  0.0943  0.1643 -0.5156
 5343TIP3    H115993   5.742   5.325   0.908  1.7702  1.8369  0.2959
 5343TIP3    H215994   5.704   5.373   0.770 -1.0007 -1.1584 -0.0884
 5344TIP3   OH215995   1.300   0.116   2.163  0.2719 -0.4531 -0.1475
 5344TIP3    H115996   1.242   0.062   2.109 -0.2207 -0.4016  0.3188
 5344TIP3    H215997   1.289   0.205   2.127 -1.2871 -0.1264  1.0156
 5345TIP3   OH215998   2.037   3.499   2.405  0.3639  0.0205 -0.2227
 5345TIP3    H115999   1.967   3.550   2.364  0.2764  0.2062  0.1509
 5345TIP3    H216000   2.100   3.483   2.335  0.6546  1.1063 -0.2226
 5346TIP3   OH216001   4.253   5.472   3.738 -0.3460  0.3771 -0.3142
 5346TIP3    H116002   4.324   5.463   3.675  0.8660 -0.2352  1.1057
 5346TIP3    H216003   4.274   5.551   3.788 -0.4857  0.0018  0.3452
 5347TIP3   OH216004   6.027   2.847   5.148  0.3721 -0.1634  0.9615
 5347TIP3    H116005   5.934   2.825   5.155  0.3315  0.1701  1.5247
 5347TIP3    H216006   6.064   2.824   5.233  1.1359 -1.7809  0.2355
 5348TIP3   OH216007   7.201   1.023   5.316  0.5665 -0.2642  0.5029
 5348TIP3    H116008   7.282   0.976   5.294 -0.0024 -0.9719 -0.1378
 5348TIP3    H216009   7.131   0.965   5.286 -0.1598  0.9247 -0.1824
 5349TIP3   OH216010   6.275   3.434   2.269 -0.1441  0.2486 -0.3596
 5349TIP3    H116011   6.261   3.341   2.288 -0.5244  0.1781 -0.9458
 5349TIP3    H216012   6.198   3.477   2.306  0.2487  0.3903  0.3109
 5350TIP3   OH216013   0.979   5.118   2.988 -0.0834 -0.3148  0.4171
 5350TIP3    H116014   1.066   5.150   3.010  0.7861 -2.5413  0.4423
 5350TIP3    H216015   0.993   5.058   2.915 -1.9083  0.8461 -1.0157
 5351TIP3   OH216016   5.189   4.256   0.461  0.0690 -0.2133  0.2116
 5351TIP3    H116017   5.183   4.161   0.468 -2.2623 -0.3541 -1.9447
 5351TIP3    H216018   5.153   4.289   0.544  2.5289 -1.1075  1.7259
 5352TIP3   OH216019   4.400   0.601   0.957 -0.5835 -0.3183 -0.1083
 5352TIP3    H116020   4.474   0.578   0.901 -0.2075 -0.7245  0.5538
 5352TIP3    H216021   4.404   0.697   0.963 -0.9835 -0.2092 -1.2477
 5353TIP3   OH216022   0.513   6.039   2.421 -0.3538 -0.3524  0.1745
 5353TIP3    H116023   0.423   6.018   2.445 -0.3470 -2.5340 -1.4746
 5353TIP3    H216024   0.567   5.983   2.477 -0.0451  0.1022  0.3419
 5354TIP3   OH216025   5.612   1.055   2.236  0.1343 -0.1764  0.4951
 5354TIP3    H116026   5.653   0.968   2.235  0.6448  0.0460 -1.1668
 5354TIP3    H216027   5.683   1.115   2.214 -0.5551  0.4888  0.0249
 5355TIP3   OH216028   6.161   3.081   0.727 -0.7850  0.6069 -0.4435
 5355TIP3    H116029   6.183   3.070   0.635  1.6488 -1.5497  0.2843
 5355TIP3    H216030   6.146   3.175   0.737 -0.7561  0.9372 -2.9198
 5356TIP3   OH216031   6.815   6.782   3.020 -0.0835 -0.1782  0.5203
 5356TIP3    H116032   6.892   6.735   3.053  1.2827  1.2597 -0.4587
 5356TIP3    H216033   6.826   6.784   2.925 -1.0467  0.5207  0.4013
 5357TIP3   OH216034   1.208   4.721   1.251  0.2809 -0.6498  0.3917
 5357TIP3    H116035   1.251   4.640   1.278 -0.2192 -1.0297  0.0526
 5357TIP3    H216036   1.115   4.703   1.259  0.1517 -0.3067 -0.2606
 5358TIP3   OH216037   5.514   5.735   5.351  0.4090  0.0850 -0.5795
 5358TIP3    H116038   5.420   5.729   5.333  0.4454  0.8459 -1.0720
 5358TIP3    H216039   5.544   5.644   5.352 -0.5992 -0.2776  1.1451
 5359TIP3   OH216040   2.343   1.470   2.533  0.0388 -0.2105  0.4048
 5359TIP3    H116041   2.343   1.557   2.572  0.3982  0.0515 -0.1554
 5359TIP3    H216042   2.434   1.455   2.508 -0.2882 -0.0661 -0.9549
 5360TIP3   OH216043   1.657   2.950   0.894 -0.0632  0.1734  0.1908
 5360TIP3    H116044   1.607   2.944   0.975  0.1303 -1.7164  0.2224
 5360TIP3    H216045   1.743   2.916   0.917  0.5617  1.3131 -0.3971
 5361TIP3   OH216046   4.734   0.412   3.059 -0.0096 -0.4614  0.2499
 5361TIP3    H116047   4.676   0.480   3.092  0.3985  0.7016 -1.3103
 5361TIP3    H216048   4.771   0.371   3.138 -0.2541  1.1371  1.2298
 5362TIP3   OH216049   3.083   3.489   5.454  0.7185  0.2737 -0.2687
 5362TIP3    H116050   3.063   3.511   5.545 -2.0147  0.3902 -0.8123
 5362TIP3    H216051   3.121   3.402   5.458  2.5621  1.0641  1.1068
 5363TIP3   OH216052   7.097   4.334   1.647 -0.4380  0.5171  0.4661
 5363TIP3    H116053   7.069   4.270   1.581  0.4134  0.2974  0.3119
 5363TIP3    H216054   7.159   4.286   1.703 -0.0099  1.1267  0.5241
 5364TIP3   OH216055   4.957   2.089   5.781  0.3663 -0.3871  0.6155
 5364TIP3    H116056   4.934   2.001   5.810 -0.0874 -0.2565  0.6585
 5364TIP3    H216057   5.043   2.105   5.819  0.0835 -0.4854  1.3113
 5365TIP3   OH216058   6.865   5.904   5.425  0.2720 -0.0162 -0.0564
 5365TIP3    H116059   6.948   5.855   5.426  0.8151  0.7261  3.4504
 5365TIP3    H216060   6.810   5.859   5.488 -0.4744  1.8585  0.6994
 5366TIP3   OH216061   4.693   2.111   5.709 -0.8889  0.5472 -0.5246
 5366TIP3    H116062   4.782   2.074   5.710 -1.5193 -1.2567 -2.7933
 5366TIP3    H216063   4.700   2.190   5.762  1.8539  0.0027  0.1100
 5367TIP3   OH216064   1.686   5.088   3.114  0.4618 -0.2242 -0.1888
 5367TIP3    H116065   1.754   5.154   3.100 -0.0935  0.9032  2.0614
 5367TIP3    H216066   1.729   5.022   3.168  0.2971 -0.4883 -0.3796
 5368TIP3   OH216067   4.065   3.408   4.956 -0.0453 -0.1410  0.7058
 5368TIP3    H116068   4.121   3.338   4.922  1.9217  0.9051  1.6183
 5368TIP3    H216069   3.987   3.363   4.988  1.0074 -1.8920  0.9533
 5369TIP3   OH216070   1.191   3.263   0.117  0.1201 -0.4788  0.3057
 5369TIP3    H116071   1.106   3.268   0.074  1.1340 -1.1622 -1.9063
 5369TIP3    H216072   1.192   3.177   0.159 -0.0930 -0.6655 -0.0727
 5370TIP3   OH216073   0.642   2.209   4.807 -0.3397  0.2701 -0.3974
 5370TIP3    H116074   0.631   2.287   4.753 -0.9784 -0.5025 -1.4461
 5370TIP3    H216075   0.562   2.158   4.791 -0.7105  0.1688  1.5798
 5371TIP3   OH216076   1.938   0.910   5.232 -0.6900  0.2341  0.2285
 5371TIP3    H116077   2.006   0.846   5.210 -2.0104 -1.0089 -0.3778
 5371TIP3    H216078   1.918   0.954   5.150 -1.0824  0.1395  0.2740
 5372TIP3   OH216079   5.141   1.205   4.252  0.2551 -0.2372  0.1595
 5372TIP3    H116080   5.177   1.165   4.331  0.9909 -0.0487 -0.0701
 5372TIP3    H216081   5.071   1.146   4.226  0.4112 -0.6314  0.6118
 5373TIP3   OH216082   4.012   4.959   2.419 -0.5202  0.0208 -0.1077
 5373TIP3    H116083   4.046   4.871   2.432 -2.4149 -0.7332  0.0333
 5373TIP3    H216084   4.075   5.001   2.360  0.2420 -1.5112 -0.4242
 5374TIP3   OH216085   4.015   0.837   0.318 -0.1402 -0.0860  0.4319
 5374TIP3    H116086   3.998   0.875   0.232  0.6169 -1.5768 -0.4037
 5374TIP3    H216087   3.932   0.794   0.341 -0.0824 -0.3856  0.0794
 5375TIP3   OH216088   1.820   1.374   3.739  0.8030  0.1764  0.3125
 5375TIP3    H116089   1.845   1.418   3.820 -0.5141 -0.1627  0.9455
 5375TIP3    H216090   1.744   1.423   3.708  0.3486 -0.6112  0.1335
 5376TIP3   OH216091   4.310   6.745   0.682 -1.0891 -0.3686 -0.0051
 5376TIP3    H116092   4.369   6.730   0.608  0.3939  0.4787  0.9535
 5376TIP3    H216093   4.338   6.829   0.718 -0.5973 -1.5645  2.5776
 5377TIP3   OH216094   0.268   4.731   3.873  0.0011  0.0529  0.2934
 5377TIP3    H116095   0.218   4.797   3.922  0.3070 -0.1877  0.9479
 5377TIP3    H216096   0.318   4.685   3.940  0.0382 -0.6289 -0.1950
 5378TIP3   OH216097   1.971   4.403   4.809 -0.7245 -0.5233 -0.1797
 5378TIP3    H116098   1.894   4.381   4.757 -0.9102 -1.9426  0.6545
 5378TIP3    H216099   2.037   4.339   4.782 -0.7234 -1.0714  1.0754
 5379TIP3   OH216100   4.071   6.658   0.696 -0.2312 -0.2066  0.2822
 5379TIP3    H116101   4.162   6.688   0.696  0.0327 -0.7004 -2.4559
 5379TIP3    H216102   4.038   6.678   0.783  2.1184  1.1656  0.9226
 5380TIP3   OH216103   5.929   5.456   0.583  0.1463 -0.5938  0.1167
 5380TIP3    H116104   5.859   5.395   0.561  0.2609 -0.4721 -0.6110
 5380TIP3    H216105   5.957   5.429   0.670 -2.7662  1.1652  1.7630
 5381TIP3   OH216106   0.220   5.997   2.549  0.0469 -0.3847  0.3909
 5381TIP3    H116107   0.243   6.083   2.583 -2.6766  0.3136  0.6709
 5381TIP3    H216108   0.175   5.954   2.622  0.1436 -1.5262 -0.2037
 5382TIP3   OH216109   5.439   6.638   4.072  0.0228  0.2734  0.5069
 5382TIP3    H116110   5.454   6.621   3.979  0.0120 -0.3237  0.6097
 5382TIP3    H216111   5.441   6.733   4.080  0.8281  0.3048  0.0274
 5383TIP3   OH216112   2.409   2.448   1.890 -0.2872  0.6232  0.0655
 5383TIP3    H116113   2.432   2.371   1.837  2.4477  0.4719  1.2769
 5383TIP3    H216114   2.429   2.523   1.834  1.8758  0.4529  0.5165
 5384TIP3   OH216115   6.501   4.458   2.481 -0.2134  0.4992 -0.2975
 5384TIP3    H116116   6.412   4.435   2.507 -0.1093 -0.1299 -0.4726
 5384TIP3    H216117   6.536   4.508   2.555 -0.0788 -0.8494  0.5909
 5385TIP3   OH216118   3.097   2.709   4.297 -0.5311 -0.6917  0.4660
 5385TIP3    H116119   3.123   2.658   4.221 -2.8351 -2.9436  1.0240
 5385TIP3    H216120   3.166   2.692   4.362 -0.5571 -2.0459  0.1725
 5386TIP3   OH216121   1.509   5.627   3.167 -0.1703 -0.1732 -0.0833
 5386TIP3    H116122   1.488   5.587   3.251 -0.9419 -0.1060 -0.2360
 5386TIP3    H216123   1.539   5.716   3.189 -1.9318  0.4267  0.0380
 5387TIP3   OH216124   5.327   5.377   1.893  0.1175  0.1321 -0.1704
 5387TIP3    H116125   5.244   5.411   1.925  2.1418  3.0082  2.7682
 5387TIP3    H216126   5.334   5.290   1.932 -0.4681  0.9196  1.8111
 5388TIP3   OH216127   3.133   4.203   1.614 -0.2481  0.1517 -0.0717
 5388TIP3    H116128   3.174   4.180   1.697  0.4289  0.2149 -0.3842
 5388TIP3    H216129   3.199   4.255   1.568 -0.1797 -0.8131 -1.1097
 5389TIP3   OH216130   6.942   1.268   5.226  0.1250  1.0077  0.2397
 5389TIP3    H116131   7.012   1.288   5.164  2.4386 -1.4739  1.8036
 5389TIP3    H216132   6.959   1.324   5.302 -1.1040  2.1266 -0.2738
 5390TIP3   OH216133   6.624   0.305   3.335 -0.1770 -0.1637 -0.7488
 5390TIP3    H116134   6.534   0.282   3.310 -0.6116 -0.3156  0.8838
 5390TIP3    H216135   6.673   0.299   3.253 -1.4983 -0.8564 -1.5276
 5391TIP3   OH216136   6.242   4.422   2.532 -0.0456  0.2088  0.1906
 5391TIP3    H116137   6.217   4.465   2.613  0.0422  0.3870  0.1234
 5391TIP3    H216138   6.194   4.339   2.533  1.1161 -0.4876  1.1522
 5392TIP3   OH216139   3.847   5.181   2.988 -0.3143  0.0008 -0.1829
 5392TIP3    H116140   3.862   5.201   2.895 -0.1927  0.7622 -0.0011
 5392TIP3    H216141   3.919   5.223   3.034 -0.5327 -0.1318  0.2879
 5393TIP3   OH216142   2.564   1.706   1.042  0.1915 -0.3963 -0.1546
 5393TIP3    H116143   2.511   1.734   1.117  0.4647  1.8351 -0.7128
 5393TIP3    H216144   2.532   1.618   1.021 -0.1761 -0.9326  2.2873
 5394TIP3   OH216145   3.219   1.286   2.855  0.1481  0.5971 -0.5577
 5394TIP3    H116146   3.283   1.223   2.823  0.2952 -0.2069  1.2284
 5394TIP3    H216147   3.235   1.291   2.949 -1.8299  1.0553 -0.2091
 5395TIP3   OH216148   0.593   3.071   3.489  0.6230 -0.1733 -0.2293
 5395TIP3    H116149   0.679   3.038   3.515  0.6282 -1.4057 -1.6331
 5395TIP3    H216150   0.534   3.042   3.558  1.2206  0.0278  0.3711
 5396TIP3   OH216151   3.770   0.390   1.289 -0.6762 -0.6902  0.2151
 5396TIP3    H116152   3.804   0.472   1.324 -0.9125 -0.2813 -0.4994
 5396TIP3    H216153   3.692   0.372   1.343 -1.1892  0.0712 -0.2543
 5397TIP3   OH216154   6.973   2.003   0.932  0.1474 -0.7047  0.6086
 5397TIP3    H116155   6.959   2.054   0.852  0.4389 -1.8155 -0.1810
 5397TIP3    H216156   6.910   2.039   0.995  0.1428  0.4066 -0.0093
 5398TIP3   OH216157   2.705   2.513   1.686  0.3575  0.1756  0.3874
 5398TIP3    H116158   2.751   2.529   1.768  2.0261  1.1666 -0.6705
 5398TIP3    H216159   2.624   2.563   1.692 -0.6330 -1.5348  2.2767
 5399TIP3   OH216160   6.968   3.892   3.410  0.0230 -0.4934  0.5345
 5399TIP3    H116161   6.933   3.975   3.442 -1.0289 -0.9646  0.6514
 5399TIP3    H216162   6.901   3.827   3.432  0.2196 -1.1692 -0.7412
 5400TIP3   OH216163   0.341   1.963   1.103 -0.0495 -0.5301  0.1438
 5400TIP3    H116164   0.353   2.058   1.096  1.2092 -0.7585 -1.6254
 5400TIP3    H216165   0.429   1.927   1.090  0.0746 -1.9069  3.8310
 5401TIP3   OH216166   2.338   6.265   5.124 -0.6599 -0.1185 -0.0773
 5401TIP3    H116167   2.274   6.216   5.177 -1.6644  3.1981  2.0776
 5401TIP3    H216168   2.422   6.226   5.148 -1.5200 -2.4255 -0.4632
 5402TIP3   OH216169   0.509   0.159   1.562  0.6399  0.4991  0.1767
 5402TIP3    H116170   0.526   0.182   1.471  2.5280 -0.2641  0.2868
 5402TIP3    H216171   0.468   0.073   1.558 -1.4015  1.4322 -0.0065
 5403TIP3   OH216172   2.668   5.536   5.077  0.1715  0.3962 -0.3788
 5403TIP3    H116173   2.708   5.604   5.131  0.7764  1.1559 -1.7332
 5403TIP3    H216174   2.669   5.572   4.989 -1.0819 -0.6819 -0.8591
 5404TIP3   OH216175   5.291   3.571   4.469  0.2697 -0.5124  0.8105
 5404TIP3    H116176   5.251   3.656   4.451  1.3765 -0.3524 -1.1277
 5404TIP3    H216177   5.352   3.587   4.541 -2.4712 -0.6229  3.3968
 5405TIP3   OH216178   6.742   5.757   0.946 -0.1375  0.3061 -0.4580
 5405TIP3    H116179   6.795   5.711   1.011 -1.2130 -0.5187 -0.1312
 5405TIP3    H216180   6.702   5.829   0.994  0.5405  0.8244 -0.6631
 5406TIP3   OH216181   0.546   4.260   2.277  0.3569 -0.2407 -0.0382
 5406TIP3    H116182   0.475   4.308   2.321  0.4580 -0.8110  0.7621
 5406TIP3    H216183   0.559   4.182   2.331  2.0678  0.1915  0.2231
 5407TIP3   OH216184   4.956   4.056   4.210 -0.5436  0.0945  0.1893
 5407TIP3    H116185   5.042   4.042   4.250 -0.2614 -0.2515 -0.5018
 5407TIP3    H216186   4.919   3.968   4.202 -0.0931  0.0108 -1.3479
 5408TIP3   OH216187   7.084   0.487   2.855  0.1164  0.2932 -0.1630
 5408TIP3    H116188   7.154   0.473   2.792  0.1725 -0.0080 -0.0364
 5408TIP3    H216189   7.045   0.400   2.867 -0.0286  0.3877  0.0594
 5409TIP3   OH216190   6.431   6.365   0.035 -1.3855 -0.2486  0.1467
 5409TIP3    H116191   6.490   6.290   0.039 -1.9125 -0.6365  1.7696
 5409TIP3    H216192   6.489   6.441   0.042 -0.9966 -0.5901  0.7590
 5410TIP3   OH216193   2.366   6.065   2.474 -0.0084 -0.0135  0.3659
 5410TIP3    H116194   2.398   6.051   2.384 -0.4404  1.8457 -0.1257
 5410TIP3    H216195   2.331   6.154   2.473 -0.3103 -0.0720  2.3198
 5411TIP3   OH216196   3.038   0.981   3.399 -0.1058 -0.1518 -0.0087
 5411TIP3    H116197   3.054   1.051   3.336  0.6233  0.9315  1.3376
 5411TIP3    H216198   2.993   0.913   3.349  0.6672  0.5733 -1.7356
 5412TIP3   OH216199   2.836   2.897   1.774  0.0690 -0.0818 -0.1767
 5412TIP3    H116200   2.845   2.993   1.772  0.0673 -0.0833 -0.2746
 5412TIP3    H216201   2.770   2.878   1.707  1.2274 -0.2820 -1.2950
 5413TIP3   OH216202   2.936   5.503   4.301 -0.2298  0.0058  0.0063
 5413TIP3    H116203   2.916   5.572   4.238  0.2180  0.5291  0.4224
 5413TIP3    H216204   3.030   5.490   4.294 -0.1150  0.3193  0.8052
 5414TIP3   OH216205   4.488   3.722   0.845  0.5820 -0.3312  0.3593
 5414TIP3    H116206   4.436   3.793   0.805  1.5217  0.2968  0.2133
 5414TIP3    H216207   4.438   3.643   0.826 -0.8768  0.3595  1.1567
 5415TIP3   OH216208   4.912   1.126   2.525 -0.1043  0.0692 -0.7915
 5415TIP3    H116209   4.879   1.180   2.453 -2.7267  1.6981  1.4430
 5415TIP3    H216210   4.895   1.036   2.498 -1.0885  0.6379 -2.1806
 5416TIP3   OH216211   5.338   6.161   3.961 -0.2439  0.0387  0.3605
 5416TIP3    H116212   5.297   6.095   3.906 -1.4708  0.5766  0.6056
 5416TIP3    H216213   5.314   6.244   3.921 -0.6508  0.4088  1.3424
 5417TIP3   OH216214   6.360   6.723   5.438  0.3089  0.1147  0.0959
 5417TIP3    H116215   6.307   6.796   5.468  0.3310 -0.2577  1.0771
 5417TIP3    H216216   6.383   6.675   5.517  1.6465 -0.0585 -0.3565
 5418TIP3   OH216217   1.946   3.208   5.801 -0.1260 -0.1290 -0.6933
 5418TIP3    H116218   1.988   3.292   5.788  1.4684 -1.0346 -1.6236
 5418TIP3    H216219   1.857   3.230   5.830  0.2386  1.8450 -0.9583
 5419TIP3   OH216220   4.721   0.158   2.501  0.3531 -1.0807 -0.1371
 5419TIP3    H116221   4.753   0.185   2.587  0.4461 -1.1799 -0.1401
 5419TIP3    H216222   4.719   0.062   2.505  1.8649 -1.1624 -0.7765
 5420TIP3   OH216223   2.157   3.871   2.905 -0.5660  0.2808  0.0217
 5420TIP3    H116224   2.204   3.796   2.870  0.6049  1.0078 -0.0075
 5420TIP3    H216225   2.225   3.927   2.942 -1.4650  1.0940  0.4815
 5421TIP3   OH216226   7.089   1.323   4.417  0.0535 -0.6108 -0.0155
 5421TIP3    H116227   7.045   1.399   4.378  0.8087 -0.5394 -0.7438
 5421TIP3    H216228   7.047   1.313   4.502 -0.6923  0.0605 -0.2884
 5422TIP3   OH216229   6.831   5.063   3.348 -0.1418 -1.1734 -0.1953
 5422TIP3    H116230   6.795   5.143   3.387  2.0721 -0.4976  0.5937
 5422TIP3    H216231   6.755   5.007   3.334 -2.0383  1.6558 -2.3406
 5423TIP3   OH216232   4.206   1.084   4.285  0.2304  0.6212 -0.2751
 5423TIP3    H116233   4.253   1.013   4.243  0.6375  0.7964 -0.1191
 5423TIP3    H216234   4.199   1.058   4.377 -0.4573  0.3442 -0.4002
 5424TIP3   OH216235   2.650   0.994   4.247  0.1956 -0.2774 -0.2059
 5424TIP3    H116236   2.557   0.986   4.229  0.3497 -1.2787 -0.6155
 5424TIP3    H216237   2.659   0.969   4.339  0.1950 -1.2409 -0.4651
 5425TIP3   OH216238   4.668   6.510   2.078 -0.0775  0.1679  0.1199
 5425TIP3    H116239   4.668   6.414   2.084 -0.2045  0.1694  0.1410
 5425TIP3    H216240   4.651   6.528   1.986  0.0863  0.1687  0.0895
 5426TIP3   OH216241   4.283   5.787   2.151 -0.1319  0.5329  0.0606
 5426TIP3    H116242   4.302   5.825   2.066  0.7076  0.8455  0.3735
 5426TIP3    H216243   4.304   5.856   2.214  0.2853 -0.0383  0.5679
 5427TIP3   OH216244   5.324   1.540   1.883 -0.0356  0.8494 -0.2951
 5427TIP3    H116245   5.241   1.497   1.901  0.6310  0.1393  1.2788
 5427TIP3    H216246   5.357   1.566   1.969  2.0542 -0.2021 -0.7085
 5428TIP3   OH216247   1.271   0.733   5.549 -0.0586 -0.3058 -0.4832
 5428TIP3    H116248   1.237   0.797   5.487  1.0121  0.8269  0.0400
 5428TIP3    H216249   1.359   0.713   5.516  1.5536  2.2015  1.8800
 5429TIP3   OH216250   6.394   1.374   5.519 -0.0607  0.6653 -0.2874
 5429TIP3    H116251   6.308   1.334   5.518 -1.3627  3.2689 -0.7494
 5429TIP3    H216252   6.435   1.344   5.438 -1.2596  0.7938 -0.9624
 5430TIP3   OH216253   3.926   1.295   4.025 -0.1362 -0.6417 -0.2772
 5430TIP3    H116254   3.967   1.244   3.955 -1.4483 -2.8359  0.4640
 5430TIP3    H216255   3.999   1.320   4.082  0.5108 -2.1145 -0.4169
 5431TIP3   OH216256   6.014   6.836   0.265 -0.4785  0.1884 -0.2682
 5431TIP3    H116257   5.968   6.771   0.213 -1.7325 -0.1131  1.1601
 5431TIP3    H216258   6.066   6.786   0.328  0.3340  0.5586 -0.6189
 5432TIP3   OH216259   3.697   2.839   3.822 -0.6877  0.4718 -0.6521
 5432TIP3    H116260   3.671   2.827   3.914  1.2969 -1.6347 -0.2546
 5432TIP3    H216261   3.640   2.779   3.774  0.1539 -0.6019 -0.3716
 5433TIP3   OH216262   1.913   4.083   1.117 -0.1195 -0.5762  0.4188
 5433TIP3    H116263   1.831   4.084   1.165  0.6951  0.9556  1.9052
 5433TIP3    H216264   1.889   4.100   1.026 -1.4120  0.6042  0.9439
 5434TIP3   OH216265   0.222   2.636   4.537 -0.5819 -0.2207 -0.3203
 5434TIP3    H116266   0.182   2.641   4.624  0.3113  0.0464  0.0897
 5434TIP3    H216267   0.304   2.589   4.550 -1.0110 -1.2811 -1.2519
 5435TIP3   OH216268   0.849   3.596   4.618  0.3482  0.6859 -0.1638
 5435TIP3    H116269   0.872   3.653   4.692  0.8390  0.6842 -0.3087
 5435TIP3    H216270   0.785   3.647   4.568  0.0937  0.7305  0.2007
 5436TIP3   OH216271   3.852   2.066   1.399  0.4953  0.3805  0.3890
 5436TIP3    H116272   3.803   2.142   1.370  0.8458  0.3908 -0.2024
 5436TIP3    H216273   3.884   2.026   1.318  1.6531  0.5044  0.7620
 5437TIP3   OH216274   5.448   4.024   0.231  0.1940  0.0723  0.2339
 5437TIP3    H116275   5.360   4.059   0.217  0.2826  0.4448  0.5942
 5437TIP3    H216276   5.434   3.930   0.244  0.0710 -0.2848 -1.9903
 5438TIP3   OH216277   3.003   1.986   1.037  0.6916 -0.3989 -0.0200
 5438TIP3    H116278   3.002   1.969   1.131  2.1291 -1.4801 -0.1581
 5438TIP3    H216279   2.981   1.902   0.997  2.1333 -0.5175 -0.6461
 5439TIP3   OH216280   3.463   3.098   0.467  0.2832 -0.4099  0.4224
 5439TIP3    H116281   3.381   3.090   0.515  0.7397 -0.3036  1.2349
 5439TIP3    H216282   3.487   3.190   0.473  0.7913 -0.5575  0.7515
 5440TIP3   OH216283   5.589   1.392   3.089 -1.0631 -0.3530 -0.4472
 5440TIP3    H116284   5.528   1.443   3.142  0.4235 -0.4128  1.4360
 5440TIP3    H216285   5.566   1.300   3.108 -1.1378 -0.3746 -0.6454
 5441TIP3   OH216286   1.253   6.252   2.639  0.0861  0.1385 -0.1204
 5441TIP3    H116287   1.271   6.333   2.592 -0.6240  0.0042 -0.6583
 5441TIP3    H216288   1.213   6.279   2.721 -0.5411  0.3343 -0.4815
 5442TIP3   OH216289   6.282   1.897   3.124 -0.9311  0.0192 -0.0284
 5442TIP3    H116290   6.320   1.848   3.197 -0.7411 -0.1434 -0.2364
 5442TIP3    H216291   6.341   1.880   3.051 -1.8742 -0.9526 -0.5946
 5443TIP3   OH216292   3.417   1.161   3.876  0.2839  0.3301 -0.3914
 5443TIP3    H116293   3.365   1.133   3.952  0.0914  3.3897  0.7641
 5443TIP3    H216294   3.497   1.199   3.914 -0.3302  3.0199 -1.5064
 5444TIP3   OH216295   7.092   4.647   2.309 -0.0411  0.1551 -0.8058
 5444TIP3    H116296   7.019   4.679   2.256 -0.6208 -1.0603 -0.7629
 5444TIP3    H216297   7.085   4.695   2.391  0.2455  1.2959 -1.4213
 5445TIP3   OH216298   3.465   2.875   4.573  0.1526 -0.3638  0.1096
 5445TIP3    H116299   3.452   2.967   4.596 -0.2641 -0.3821 -0.0524
 5445TIP3    H216300   3.384   2.831   4.601  0.4828 -0.7429  0.4938
 5446TIP3   OH216301   2.054   0.641   5.000 -0.1768  0.0688  0.5026
 5446TIP3    H116302   1.972   0.614   4.959  0.2801  1.3164 -1.3314
 5446TIP3    H216303   2.062   0.734   4.980  1.3201  0.1488  1.3163
 5447TIP3   OH216304   6.780   2.119   4.168 -0.2394 -0.0817 -0.4371
 5447TIP3    H116305   6.837   2.190   4.199 -0.0596 -0.3586 -0.1346
 5447TIP3    H216306   6.726   2.096   4.243 -0.2928 -0.2696 -0.5332
 5448TIP3   OH216307   0.160   5.649   0.791 -0.5732  0.2828  0.6582
 5448TIP3    H116308   0.176   5.737   0.824  1.4766 -0.3113  1.4320
 5448TIP3    H216309   0.167   5.657   0.696 -0.2671  0.9379  0.7318
 5449TIP3   OH216310   4.402   5.992   3.996  0.0142  0.4518 -0.9175
 5449TIP3    H116311   4.453   6.068   4.025 -0.5688  1.7721 -3.1686
 5449TIP3    H216312   4.457   5.950   3.930  0.5833 -1.5338  0.6838
 5450TIP3   OH216313   1.903   2.803   3.820 -0.8013  0.2801 -0.2834
 5450TIP3    H116314   1.987   2.847   3.829 -1.4567  1.7667 -1.1596
 5450TIP3    H216315   1.913   2.750   3.741 -1.6265  2.8736 -2.2695
 5451TIP3   OH216316   3.682   5.965   3.164  0.4558 -0.1013 -0.9519
 5451TIP3    H116317   3.637   5.994   3.243  0.6684 -0.0290 -0.8562
 5451TIP3    H216318   3.673   5.870   3.164  1.3937 -0.2009 -0.2680
 5452TIP3   OH216319   2.043   2.061   5.683  0.3295 -0.2218  0.1545
 5452TIP3    H116320   2.128   2.033   5.717 -1.3272 -1.2255  3.9471
 5452TIP3    H216321   2.035   2.152   5.712  0.0992 -0.1280 -0.2018
 5453TIP3   OH216322   4.504   1.613   3.135  0.2000 -0.6237  0.1626
 5453TIP3    H116323   4.505   1.617   3.231  0.0226 -2.3208  0.2748
 5453TIP3    H216324   4.427   1.663   3.110  0.5536  0.2973  0.8652
 5454TIP3   OH216325   0.885   1.963   5.794  0.0322 -0.0429  0.2764
 5454TIP3    H116326   0.922   1.979   5.707  0.7274  0.9323  0.7295
 5454TIP3    H216327   0.802   1.919   5.777 -0.8087  1.9053 -0.9877
 5455TIP3   OH216328   2.673   2.293   0.929 -0.5520  0.3662  0.2455
 5455TIP3    H116329   2.748   2.298   0.988  0.4022  1.4139 -0.9887
 5455TIP3    H216330   2.687   2.213   0.878 -0.7871  0.0550  0.6651
 5456TIP3   OH216331   4.370   5.912   3.175  0.0608  0.5404 -0.0794
 5456TIP3    H116332   4.376   5.896   3.269  1.1203  0.3466 -0.1678
 5456TIP3    H216333   4.437   5.978   3.158 -0.6234  1.1183 -0.5859
 5457TIP3   OH216334   1.425   4.693   2.742 -0.3919  0.0743  0.5428
 5457TIP3    H116335   1.367   4.731   2.807 -2.7582  0.0129 -1.3877
 5457TIP3    H216336   1.467   4.767   2.700 -3.2884  0.6346 -1.6824
 5458TIP3   OH216337   2.866   0.246   1.687 -0.4358  0.2035 -0.1218
 5458TIP3    H116338   2.884   0.160   1.649  1.6655  0.9443 -0.9795
 5458TIP3    H216339   2.923   0.306   1.639  1.0170  1.4901  2.9108
 5459TIP3   OH216340   4.923   1.594   4.630  0.4485  0.5380  0.5336
 5459TIP3    H116341   4.932   1.507   4.591  0.2531  0.8302 -0.2016
 5459TIP3    H216342   4.914   1.579   4.724 -2.5115 -0.4636  0.1945
 5460TIP3   OH216343   1.641   2.452   3.885  0.1574  0.3875  0.3538
 5460TIP3    H116344   1.589   2.474   3.962 -0.7291 -0.7684  0.1060
 5460TIP3    H216345   1.577   2.422   3.821  0.9409  0.8176 -0.6609
 5461TIP3   OH216346   2.090   3.410   5.714 -0.4380  0.3817  0.5467
 5461TIP3    H116347   2.164   3.437   5.660 -0.4027  0.7593  0.7809
 5461TIP3    H216348   2.018   3.467   5.687 -0.6489  0.0080  0.3117
 5462TIP3   OH216349   4.149   2.343   1.339 -0.0708  0.2938  0.1252
 5462TIP3    H116350   4.224   2.393   1.372  0.5112 -0.5725  0.1469
 5462TIP3    H216351   4.124   2.286   1.412  0.4021 -0.7008 -0.4680
 5463TIP3   OH216352   2.538   3.525   1.234  0.2673  0.8435 -0.2418
 5463TIP3    H116353   2.447   3.502   1.253  0.3000  0.5241 -0.4728
 5463TIP3    H216354   2.547   3.512   1.140  1.0341 -0.8307  0.0316
 5464TIP3   OH216355   3.270   2.720   5.629  0.1808 -0.3375 -1.1944
 5464TIP3    H116356   3.345   2.724   5.569  0.2544  0.3076 -1.0683
 5464TIP3    H216357   3.251   2.627   5.637  2.2456 -0.7091  0.3561
 5465TIP3   OH216358   0.952   5.807   2.504 -0.6041  0.0002  0.3645
 5465TIP3    H116359   1.020   5.746   2.477 -0.1902  0.1452  1.0487
 5465TIP3    H216360   0.905   5.828   2.424  0.1583 -0.0962 -0.1148
 5466TIP3   OH216361   5.935   3.983   5.556  0.8491  0.0248 -0.1894
 5466TIP3    H116362   5.927   4.078   5.556 -0.1546 -0.0163 -1.9552
 5466TIP3    H216363   6.005   3.964   5.494  1.5198 -0.3765  0.6726
 5467TIP3   OH216364   2.218   0.722   0.318 -0.0400 -0.4567 -0.1430
 5467TIP3    H116365   2.131   0.732   0.356  0.3169  0.5367  0.4705
 5467TIP3    H216366   2.245   0.634   0.342 -1.7481 -1.6381 -2.2720
 5468TIP3   OH216367   6.990   1.089   4.258  0.2462  0.2713 -0.4239
 5468TIP3    H116368   6.895   1.092   4.268  0.3464  0.5046  0.6218
 5468TIP3    H216369   7.019   1.175   4.289  0.7001  0.7534 -2.0953
 5469TIP3   OH216370   4.604   5.757   1.778  0.2615  0.6418  0.1270
 5469TIP3    H116371   4.625   5.802   1.696 -0.1262 -0.4449 -0.5979
 5469TIP3    H216372   4.528   5.804   1.812  0.6244  1.3060  0.0336
 5470TIP3   OH216373   1.019   0.171   3.574 -1.1917  0.0921  0.2722
 5470TIP3    H116374   1.034   0.192   3.482  0.8616  0.6099  0.6869
 5470TIP3    H216375   1.059   0.244   3.622 -1.0971 -0.8012  1.5952
 5471TIP3   OH216376   3.821   2.415   1.884  0.0028  0.2006 -0.3791
 5471TIP3    H116377   3.878   2.483   1.921 -0.5569 -0.0502  1.0147
 5471TIP3    H216378   3.755   2.400   1.952  0.4078 -2.1069 -0.4211
 5472TIP3   OH216379   5.669   1.799   0.825 -0.3919 -0.3215  0.0354
 5472TIP3    H116380   5.665   1.895   0.827 -1.2017 -0.3614  1.5715
 5472TIP3    H216381   5.597   1.774   0.767 -0.4517 -0.0132 -0.0246
 5473TIP3   OH216382   6.495   4.034   5.329 -0.2751  1.0753  0.2074
 5473TIP3    H116383   6.432   3.986   5.382 -0.0925  0.0866 -0.4443
 5473TIP3    H216384   6.580   4.015   5.369 -0.1160  0.1770 -0.5129
 5474TIP3   OH216385   3.269   0.672   3.591 -0.1831  0.2796 -0.4062
 5474TIP3    H116386   3.273   0.702   3.681 -0.6294  0.5963 -0.4871
 5474TIP3    H216387   3.343   0.611   3.582 -0.1070  0.2881  0.1507
 5475TIP3   OH216388   6.592   2.155   1.795  0.0478  0.7386 -0.9200
 5475TIP3    H116389   6.525   2.118   1.737  1.2715 -1.0085 -1.3166
 5475TIP3    H216390   6.661   2.089   1.796  0.4692  1.1000  1.8526
 5476TIP3   OH216391   3.938   4.369   2.306 -0.3571 -0.5982  0.4093
 5476TIP3    H116392   3.863   4.425   2.286  0.0768 -0.0714  0.2277
 5476TIP3    H216393   3.900   4.284   2.330 -0.9572 -0.7685 -1.0753
 5477TIP3   OH216394   3.327   6.207   4.568  0.0940  0.5258  0.3898
 5477TIP3    H116395   3.336   6.207   4.472 -0.3430  1.4130  0.3425
 5477TIP3    H216396   3.244   6.249   4.585  0.0068  0.0687  1.1659
 5478TIP3   OH216397   6.135   6.385   5.263  0.2122  0.5213  0.6114
 5478TIP3    H116398   6.145   6.430   5.347  3.1888  0.8543  0.2032
 5478TIP3    H216399   6.223   6.386   5.225 -1.0447  0.6132 -2.6565
 5479TIP3   OH216400   0.641   1.289   1.868  0.6429  0.8780  0.5575
 5479TIP3    H116401   0.569   1.305   1.807  0.3932  0.4593  0.7395
 5479TIP3    H216402   0.605   1.227   1.931  1.1175  0.7827  0.7335
 5480TIP3   OH216403   6.544   5.656   1.711 -0.1530 -0.0321 -0.0181
 5480TIP3    H116404   6.581   5.618   1.790 -0.6392 -0.6543 -0.0856
 5480TIP3    H216405   6.588   5.741   1.702 -0.3501  0.1965  1.1040
 5481TIP3   OH216406   4.410   6.655   1.999 -0.7287 -0.0311 -0.4777
 5481TIP3    H116407   4.433   6.729   2.054  1.1090 -0.9514  0.0590
 5481TIP3    H216408   4.478   6.652   1.932 -1.9372 -0.0122 -1.7616
 5482TIP3   OH216409   7.146   4.518   5.421 -0.3857  0.5999  0.3558
 5482TIP3    H116410   7.052   4.539   5.420 -0.6541 -0.4751 -1.0498
 5482TIP3    H216411   7.177   4.546   5.335 -0.4223 -3.0125 -1.0056
 5483TIP3   OH216412   2.922   6.592   3.544 -0.1466  0.5025 -0.1059
 5483TIP3    H116413   2.878   6.515   3.581  0.9211 -0.3375 -0.5259
 5483TIP3    H216414   2.887   6.600   3.455 -1.6452  1.6569  0.5520
 5484TIP3   OH216415   3.544   5.800   3.950  0.4263 -0.0744 -0.1930
 5484TIP3    H116416   3.458   5.841   3.957 -0.2095 -1.4980  0.7063
 5484TIP3    H216417   3.559   5.759   4.035  1.8900 -0.0807 -0.4242
 5485TIP3   OH216418   3.068   0.977   2.072  0.6243 -0.4530  0.5647
 5485TIP3    H116419   2.984   1.024   2.072  1.5623  1.3387  0.5211
 5485TIP3    H216420   3.077   0.944   1.983 -0.0464 -0.6553  0.5717
 5486TIP3   OH216421   0.543   0.393   1.716 -0.5826 -0.1230 -0.4514
 5486TIP3    H116422   0.545   0.308   1.670 -0.7814 -1.5669  2.0233
 5486TIP3    H216423   0.466   0.387   1.772  0.0389  1.2560  0.5899
 5487TIP3   OH216424   1.121   4.118   0.174 -0.2276 -0.3656 -0.2029
 5487TIP3    H116425   1.190   4.128   0.240 -1.9281  0.8814  1.5006
 5487TIP3    H216426   1.067   4.046   0.207 -1.3371  0.5520  0.0860
 5488TIP3   OH216427   5.344   3.739   2.751  0.9391 -0.5327 -0.5615
 5488TIP3    H116428   5.316   3.699   2.669  0.5192  0.2270 -0.8047
 5488TIP3    H216429   5.262   3.751   2.800  1.1150 -0.3936 -0.3002
 5489TIP3   OH216430   3.018   5.649   3.294  0.5518 -0.0703  0.2885
 5489TIP3    H116431   3.060   5.720   3.342  0.4575 -0.4983  1.0142
 5489TIP3    H216432   2.969   5.600   3.360 -0.1361 -0.2747 -0.3502
 5490TIP3   OH216433   5.972   4.087   0.782 -0.1390 -0.3529  0.1780
 5490TIP3    H116434   6.065   4.110   0.789  0.1969 -1.6067 -0.0512
 5490TIP3    H216435   5.945   4.123   0.698 -0.3765  1.6784  1.0618
 5491TIP3   OH216436   6.976   3.197   3.247  0.2979 -0.3695  0.3007
 5491TIP3    H116437   6.987   3.200   3.152  1.1088 -1.5050  0.3476
 5491TIP3    H216438   7.025   3.120   3.275  0.2620  0.0811  1.6750
 5492TIP3   OH216439   4.963   5.589   5.245 -0.4604 -0.3230 -0.2625
 5492TIP3    H116440   4.996   5.606   5.156  0.0497  1.0753  0.1759
 5492TIP3    H216441   4.920   5.503   5.238  1.1612 -1.0891 -1.4250
 5493TIP3   OH216442   1.560   6.206   1.333 -0.1243 -0.0884  0.1205
 5493TIP3    H116443   1.576   6.112   1.338  0.0620 -0.0043  1.3921
 5493TIP3    H216444   1.495   6.223   1.401  0.3107  0.7958  0.3298
 5494TIP3   OH216445   6.652   2.414   3.172 -0.2218  0.2097  0.3859
 5494TIP3    H116446   6.734   2.378   3.139 -0.8536  0.6159 -1.7996
 5494TIP3    H216447   6.631   2.361   3.249  2.0368  0.0827  0.9928
 5495TIP3   OH216448   6.278   0.625   5.173 -0.2920 -0.0746 -0.7615
 5495TIP3    H116449   6.277   0.578   5.089  0.2691 -1.4029 -0.0482
 5495TIP3    H216450   6.247   0.561   5.237  0.5073  0.5240  0.2529
 5496TIP3   OH216451   2.947   1.827   1.820  0.3325 -0.0691 -0.2943
 5496TIP3    H116452   3.007   1.901   1.822  0.2839 -0.0336  0.3354
 5496TIP3    H216453   2.868   1.859   1.865 -0.3531  0.0422 -1.5329
 5497TIP3   OH216454   5.304   3.366   2.727  0.6036  0.8596 -0.3463
 5497TIP3    H116455   5.341   3.278   2.731  0.0306  0.6388  0.3032
 5497TIP3    H216456   5.280   3.377   2.635 -0.7246 -0.2698 -0.1703
 5498TIP3   OH216457   3.093   6.447   3.265  0.3533  0.8005 -0.1998
 5498TIP3    H116458   3.064   6.523   3.316  0.7107  0.8049  0.0055
 5498TIP3    H216459   3.173   6.418   3.309 -1.0182 -1.1733  1.1596
 5499TIP3   OH216460   4.845   6.235   5.189 -0.3751  0.0631 -0.0491
 5499TIP3    H116461   4.830   6.140   5.184 -0.4164 -0.0249  1.3466
 5499TIP3    H216462   4.776   6.267   5.248 -0.1040  0.9034 -0.1783
 5500TIP3   OH216463   2.064   6.180   4.625 -0.2906 -0.0467  0.2409
 5500TIP3    H116464   2.038   6.196   4.535 -0.0403 -2.4179 -0.3278
 5500TIP3    H216465   2.021   6.249   4.675 -2.1981  0.0970 -1.4574
 5501TIP3   OH216466   0.172   1.927   1.700 -0.3918  0.1773  0.8348
 5501TIP3    H116467   0.188   2.020   1.713 -1.9578  0.8114 -1.1580
 5501TIP3    H216468   0.141   1.920   1.609 -1.6840 -2.0809  1.3435
 5502TIP3   OH216469   4.447   3.062   4.820 -0.1995 -0.3987  0.1412
 5502TIP3    H116470   4.518   3.092   4.764 -1.5272 -0.0685 -1.4235
 5502TIP3    H216471   4.491   3.026   4.897  1.7638 -2.2655 -1.7391
 5503TIP3   OH216472   2.946   0.494   2.264 -0.2015 -0.1707 -0.2836
 5503TIP3    H116473   2.904   0.485   2.349  1.0074 -0.6123  0.3009
 5503TIP3    H216474   3.020   0.433   2.268 -0.9994 -1.3603 -2.2321
 5504TIP3   OH216475   6.900   4.686   4.254  0.0670 -0.2584  0.5895
 5504TIP3    H116476   6.986   4.690   4.296  0.2079  0.8600  0.2441
 5504TIP3    H216477   6.902   4.606   4.202  1.4607  0.4752 -0.5485
 5505TIP3   OH216478   5.679   4.083   1.637 -1.0251 -0.7907  0.4694
 5505TIP3    H116479   5.624   4.007   1.654  1.0930 -2.7339 -0.8363
 5505TIP3    H216480   5.754   4.049   1.589 -0.6568  2.3482 -1.5103
 5506TIP3   OH216481   7.048   3.594   5.281 -0.0332 -0.1791 -0.1358
 5506TIP3    H116482   7.059   3.616   5.188  1.1532 -0.8496 -0.1792
 5506TIP3    H216483   7.068   3.500   5.286  0.7139  0.0239  0.9169
 5507TIP3   OH216484   1.423   3.857   2.516  0.0338  0.3615 -0.7247
 5507TIP3    H116485   1.495   3.832   2.573  0.2246  1.9325 -0.2306
 5507TIP3    H216486   1.453   3.833   2.428  0.8492  0.3253 -0.4442
 5508TIP3   OH216487   0.438   0.398   0.974  0.2576 -0.1127 -0.5479
 5508TIP3    H116488   0.460   0.359   1.058  1.9867  1.8183 -0.0333
 5508TIP3    H216489   0.440   0.325   0.912  1.6815 -1.1163  0.6307
 5509TIP3   OH216490   6.074   5.313   2.780 -0.2110  0.0684 -0.3404
 5509TIP3    H116491   6.132   5.319   2.856 -0.8113  0.8662  0.0797
 5509TIP3    H216492   6.047   5.404   2.764  0.3295 -0.0242 -1.8548
 5510TIP3   OH216493   2.998   5.752   0.915 -0.0395  0.2057 -0.0883
 5510TIP3    H116494   3.091   5.768   0.904  0.1204 -0.7736 -0.2748
 5510TIP3    H216495   2.993   5.669   0.963 -0.8076  0.7261  0.7930
 5511TIP3   OH216496   4.777   1.739   4.164 -0.4962 -0.3145  0.8866
 5511TIP3    H116497   4.827   1.740   4.246  0.3564 -3.1167  0.5173
 5511TIP3    H216498   4.692   1.701   4.189 -1.2982  1.4001  0.9111
 5512TIP3   OH216499   0.294   0.340   1.857  0.2733  0.2570  0.0560
 5512TIP3    H116500   0.264   0.410   1.915 -2.5860 -0.3726 -0.5594
 5512TIP3    H216501   0.246   0.353   1.775  0.6773 -1.6329 -0.5362
 5513TIP3   OH216502   6.111   0.475   2.019 -0.1032  0.2244  0.4475
 5513TIP3    H116503   6.178   0.409   2.037 -0.5703 -0.6183 -0.7615
 5513TIP3    H216504   6.039   0.453   2.078 -0.3878 -0.5682 -0.1831
 5514TIP3   OH216505   6.805   1.640   2.409  0.5487 -0.8650  0.3571
 5514TIP3    H116506   6.769   1.661   2.322  1.4139 -2.6359 -0.4716
 5514TIP3    H216507   6.758   1.698   2.468 -0.8063 -0.3225 -1.1618
 5515TIP3   OH216508   1.842   1.100   3.421  0.2793 -0.0491  0.0838
 5515TIP3    H116509   1.801   1.027   3.467  0.7443 -0.0165  0.5555
 5515TIP3    H216510   1.881   1.061   3.343 -0.8797 -0.0375 -0.5349
 5516TIP3   OH216511   0.458   0.347   0.224  0.1600 -0.0666 -0.1346
 5516TIP3    H116512   0.552   0.367   0.230  0.0478  0.5221 -0.2526
 5516TIP3    H216513   0.426   0.407   0.156 -0.1996 -0.6538 -0.4873
 5517TIP3   OH216514   5.363   4.180   5.314  0.1406  0.2461  0.1242
 5517TIP3    H116515   5.361   4.258   5.258 -0.1267 -0.0002 -0.2184
 5517TIP3    H216516   5.274   4.174   5.349 -0.4825 -1.0681 -1.5074
 5518TIP3   OH216517   7.137   0.438   1.197 -0.1232 -0.7705  0.1453
 5518TIP3    H116518   7.221   0.475   1.169  1.4561 -1.9286  2.9883
 5518TIP3    H216519   7.079   0.453   1.122  2.8785 -0.9748 -2.4410
 5519TIP3   OH216520   5.591   2.325   3.184 -0.5139 -0.2909  0.2441
 5519TIP3    H116521   5.675   2.370   3.180 -0.1880 -0.7186 -4.8482
 5519TIP3    H216522   5.610   2.236   3.155 -2.5903 -0.5961 -0.3582
 5520TIP3   OH216523   3.126   3.136   1.599 -0.1888 -0.1072 -0.1504
 5520TIP3    H116524   3.084   3.219   1.620  1.0192  0.1529  1.4087
 5520TIP3    H216525   3.164   3.106   1.682  1.1204 -1.2239 -1.1016
 5521TIP3   OH216526   4.027   6.277   2.298  0.0162  0.0187 -0.5768
 5521TIP3    H116527   4.112   6.243   2.326 -0.4346 -0.3143  0.4607
 5521TIP3    H216528   3.986   6.204   2.251 -0.1954 -0.2617  0.0270
 5522TIP3   OH216529   5.868   5.984   5.563  0.6613  0.1487 -0.6027
 5522TIP3    H116530   5.924   6.062   5.554  0.8381  0.0895 -0.0390
 5522TIP3    H216531   5.792   6.003   5.508  0.8935  0.5454 -0.7927
 5523TIP3   OH216532   0.019   2.398   5.773  0.1622  0.2638  0.5919
 5523TIP3    H116533  -0.033   2.352   5.708  1.2845  0.3338 -0.3858
 5523TIP3    H216534   0.081   2.332   5.806  0.5827  0.6011  0.4911
 5524TIP3   OH216535   0.867   4.843   4.099  0.0669 -0.0560 -0.1645
 5524TIP3    H116536   0.809   4.767   4.101  1.6695 -1.3338  1.3936
 5524TIP3    H216537   0.953   4.809   4.126  1.4813  1.8263 -1.9082
 5525TIP3   OH216538   4.689   3.004   1.303 -0.1921 -0.4786  0.2022
 5525TIP3    H116539   4.596   2.989   1.317  0.0137  0.0012  2.4663
 5525TIP3    H216540   4.725   3.018   1.390  2.1669 -1.4668 -0.5166
 5526TIP3   OH216541   7.036   3.123   4.895  0.2590  0.2681  0.5798
 5526TIP3    H116542   6.992   3.130   4.810  1.0098  1.1528  0.2456
 5526TIP3    H216543   6.970   3.087   4.954 -0.7091  0.9774 -0.0519
 5527TIP3   OH216544   2.151   5.580   3.992 -0.0222  0.3444 -0.5030
 5527TIP3    H116545   2.081   5.622   3.942 -0.5336  0.1064 -0.0014
 5527TIP3    H216546   2.232   5.613   3.953 -0.3706  2.8311  0.7146
 5528TIP3   OH216547   2.331   2.257   3.669 -0.3988  0.1051  0.7611
 5528TIP3    H116548   2.388   2.220   3.736 -0.6818 -0.4306  0.7055
 5528TIP3    H216549   2.369   2.229   3.586 -0.1512  0.6193  0.6930
 5529TIP3   OH216550   0.390   5.713   5.585  0.5009  0.0222 -0.3138
 5529TIP3    H116551   0.404   5.624   5.616 -0.1982 -0.2283 -0.7033
 5529TIP3    H216552   0.463   5.730   5.526  0.4125 -0.4337 -0.5504
 5530TIP3   OH216553   2.234   3.359   3.510  0.2743  0.1622  0.1378
 5530TIP3    H116554   2.285   3.439   3.497  0.8165  0.3080  2.5965
 5530TIP3    H216555   2.215   3.359   3.604 -1.8950 -1.3268 -0.2344
 5531TIP3   OH216556   4.603   2.917   1.037 -1.1017 -0.8459  0.2013
 5531TIP3    H116557   4.622   2.949   1.126  0.4853  0.1802 -0.4654
 5531TIP3    H216558   4.682   2.870   1.012 -0.8355  0.3532 -1.3132
 5532TIP3   OH216559   3.519   5.373   1.866 -0.2009  0.5390 -0.3313
 5532TIP3    H116560   3.603   5.352   1.908  0.6741  1.7229 -1.4199
 5532TIP3    H216561   3.482   5.442   1.920  0.4156  1.3070 -0.8679
 5533TIP3   OH216562   2.499   3.406   0.512  0.0634 -0.7119 -0.0608
 5533TIP3    H116563   2.432   3.460   0.554 -0.4918 -1.7100  0.3596
 5533TIP3    H216564   2.463   3.318   0.514  1.1220 -1.1623 -0.4144
 5534TIP3   OH216565   4.392   4.932   1.734 -0.6237  0.1719  0.6971
 5534TIP3    H116566   4.475   4.947   1.689  0.0062  1.5659  2.2016
 5534TIP3    H216567   4.375   4.838   1.724  0.7649 -0.0001 -0.2399
 5535TIP3   OH216568   5.634   4.716   0.610  0.3584 -0.1966 -0.0182
 5535TIP3    H116569   5.728   4.735   0.603  0.0361  0.9924 -1.7534
 5535TIP3    H216570   5.607   4.697   0.520 -0.6379 -2.8771  0.7644
 5536TIP3   OH216571   7.013   1.038   1.862  0.1790 -0.4792  0.2257
 5536TIP3    H116572   7.072   1.079   1.798 -0.7737 -1.3727 -1.3030
 5536TIP3    H216573   7.064   0.965   1.897  0.7999  0.1632  0.7043
 5537TIP3   OH216574   5.497   6.696   1.339 -0.1668 -0.0728 -0.5812
 5537TIP3    H116575   5.573   6.641   1.320 -0.2256 -0.4663  0.2537
 5537TIP3    H216576   5.425   6.633   1.353 -0.1508  0.1735  0.7478
 5538TIP3   OH216577   4.959   4.842   5.726 -0.0605  0.1731 -0.2693
 5538TIP3    H116578   4.880   4.850   5.671  0.6518 -1.9949 -1.7407
 5538TIP3    H216579   4.925   4.829   5.814 -1.2975  0.9518 -0.5974
 5539TIP3   OH216580   6.562   6.131   1.460 -0.2084 -0.3139  0.4155
 5539TIP3    H116581   6.625   6.059   1.454  0.0375 -0.2364  1.8073
 5539TIP3    H216582   6.478   6.091   1.441 -0.0057 -0.8730  0.6798
 5540TIP3   OH216583   3.002   4.062   5.646  0.0259  0.1175  0.1974
 5540TIP3    H116584   2.996   4.137   5.705  2.0355 -0.1663  0.8536
 5540TIP3    H216585   3.010   4.100   5.559  1.5381  0.7405  0.5717
 5541TIP3   OH216586   6.994   1.423   4.830  0.2338 -0.5446  0.3775
 5541TIP3    H116587   7.034   1.395   4.912  0.2763  0.0567  0.5657
 5541TIP3    H216588   7.050   1.493   4.799 -0.3062 -0.1407  0.3086
 5542TIP3   OH216589   2.297   1.213   0.977 -0.3649  0.2512  0.1496
 5542TIP3    H116590   2.323   1.175   1.061 -0.2878 -0.7698 -0.3276
 5542TIP3    H216591   2.372   1.197   0.920 -1.2657 -1.0165 -0.7118
 5543TIP3   OH216592   5.266   2.839   1.955 -0.1134  0.9656 -0.0198
 5543TIP3    H116593   5.313   2.766   1.995 -1.0105  1.0011  1.1682
 5543TIP3    H216594   5.335   2.902   1.932  0.5201  0.5509  0.6774
 5544TIP3   OH216595   7.038   0.267   2.274 -0.0809 -0.3490  0.5417
 5544TIP3    H116596   7.067   0.354   2.303 -0.0134 -0.1139 -0.1903
 5544TIP3    H216597   7.109   0.208   2.298 -0.1018 -0.1906  0.9966
 5545TIP3   OH216598   2.439   0.359   4.104 -0.1557  0.2235 -0.7226
 5545TIP3    H116599   2.514   0.362   4.045 -0.5806  1.7608 -1.2385
 5545TIP3    H216600   2.436   0.446   4.144 -0.9930 -0.1857  0.1461
 5546TIP3   OH216601   4.198   3.715   3.104  0.4426 -0.1425 -0.1887
 5546TIP3    H116602   4.219   3.808   3.107 -1.5788  0.3218  0.7099
 5546TIP3    H216603   4.194   3.694   3.011  0.1346  0.8417 -0.4048
 5547TIP3   OH216604   5.369   5.088   4.128 -0.3916  0.0788  0.0392
 5547TIP3    H116605   5.313   5.162   4.151 -0.5680  0.3239 -1.1180
 5547TIP3    H216606   5.439   5.126   4.075  0.1757 -0.4158  0.4193
 5548TIP3   OH216607   2.461   2.242   4.187 -0.0832 -0.1972 -0.3314
 5548TIP3    H116608   2.392   2.202   4.135  0.0217  0.8548 -1.3183
 5548TIP3    H216609   2.421   2.258   4.273 -1.5866  1.7016 -1.2895
 5549TIP3   OH216610   2.776   4.212   3.533 -0.1172 -0.4728  0.2577
 5549TIP3    H116611   2.693   4.247   3.564 -0.2120 -0.6986  0.2618
 5549TIP3    H216612   2.838   4.283   3.545 -0.5072  0.0493 -0.6526
 5550TIP3   OH216613   5.715   5.311   3.756 -0.1518 -0.1334 -0.3346
 5550TIP3    H116614   5.736   5.365   3.679  0.5325 -0.5137 -0.4135
 5550TIP3    H216615   5.716   5.221   3.723  0.4603 -0.3219  0.1889
 5551TIP3   OH216616   2.179   3.785   4.993 -0.0865  0.2970  0.0040
 5551TIP3    H116617   2.172   3.699   5.035  0.6296  1.3966  2.5952
 5551TIP3    H216618   2.262   3.782   4.945 -1.7301 -1.5778 -3.0574
 5552TIP3   OH216619   6.897   5.893   4.966 -0.8887 -0.4728  0.1135
 5552TIP3    H116620   6.942   5.969   4.928  0.0583 -0.5303  1.0414
 5552TIP3    H216621   6.824   5.931   5.015  0.3746  0.0259  1.7122
 5553TIP3   OH216622   3.717   6.062   4.645 -0.3746  0.2758  0.6107
 5553TIP3    H116623   3.668   6.075   4.726 -1.8252 -0.9737 -0.0100
 5553TIP3    H216624   3.729   5.967   4.638  1.3068  0.4719  0.2264
 5554TIP3   OH216625   4.728   0.528   1.869 -0.8350 -0.5195  0.5034
 5554TIP3    H116626   4.813   0.572   1.868 -1.0372 -0.1057  0.8971
 5554TIP3    H216627   4.712   0.509   1.962 -1.7275  0.5217  0.5829
 5555TIP3   OH216628   2.775   5.724   5.252  0.1552 -0.1222 -0.0350
 5555TIP3    H116629   2.871   5.721   5.245  0.2010 -1.0499  0.7931
 5555TIP3    H216630   2.758   5.761   5.338 -0.1600 -2.3220  0.9296
 5556TIP3   OH216631   3.934   2.709   1.115 -0.2921 -0.0535  0.1568
 5556TIP3    H116632   4.023   2.712   1.150 -1.1177  0.7983  2.4063
 5556TIP3    H216633   3.935   2.770   1.041  0.5781  1.4437  1.3305
 5557TIP3   OH216634   1.913   1.744   4.223  0.2386  0.2767 -0.5235
 5557TIP3    H116635   1.959   1.827   4.210 -0.2998  0.8072  0.7814
 5557TIP3    H216636   1.918   1.728   4.317  0.1736 -1.0910 -0.7355
 5558TIP3   OH216637   3.877   5.351   2.474  0.1308  0.0050  0.0090
 5558TIP3    H116638   3.797   5.345   2.422  0.1135 -0.7760  0.1158
 5558TIP3    H216639   3.946   5.373   2.411 -0.1264  0.4538 -0.1165
 5559TIP3   OH216640   1.665   4.131   2.840 -0.0374 -0.4228 -0.5202
 5559TIP3    H116641   1.596   4.141   2.774  0.3500  0.2668 -0.8316
 5559TIP3    H216642   1.700   4.042   2.825 -0.7819 -0.7361 -0.4241
 5560TIP3   OH216643   6.207   2.856   5.400 -0.3314  0.3706  0.3363
 5560TIP3    H116644   6.259   2.867   5.480  0.7620  0.0141 -0.3133
 5560TIP3    H216645   6.263   2.805   5.342 -2.0426 -1.5207  0.2221
 5561TIP3   OH216646   7.030   1.279   3.186  0.2696  0.1068 -0.2653
 5561TIP3    H116647   6.980   1.280   3.267 -0.5382  1.6032 -0.7425
 5561TIP3    H216648   6.992   1.349   3.133  2.5988  1.0365 -0.8222
 5562TIP3   OH216649   3.281   4.574   1.466  0.2358  0.2711 -0.0501
 5562TIP3    H116650   3.218   4.548   1.532 -1.1718  1.1556 -0.9900
 5562TIP3    H216651   3.350   4.507   1.470 -0.2044 -0.1279  1.7169
 5563TIP3   OH216652   4.946   5.276   3.462 -0.4776  0.1392 -0.0376
 5563TIP3    H116653   4.924   5.243   3.549  0.1454  1.5513  0.6761
 5563TIP3    H216654   4.979   5.199   3.415 -0.3689 -0.5470  1.1289
 5564TIP3   OH216655   3.412   4.185   0.973  0.2887 -0.9286  0.0057
 5564TIP3    H116656   3.478   4.115   0.972  2.0832  0.6631 -1.8033
 5564TIP3    H216657   3.441   4.246   1.041  3.1710  1.7855 -3.2927
 5565TIP3   OH216658   6.175   5.827   0.017  0.0594  0.5126 -0.0398
 5565TIP3    H116659   6.176   5.915  -0.021 -1.9404  0.6165  0.0682
 5565TIP3    H216660   6.258   5.821   0.064  3.2930  0.0264 -5.0501
 5566TIP3   OH216661   6.418   4.782   4.684  0.5209  0.3334 -0.2697
 5566TIP3    H116662   6.431   4.876   4.695  0.9317  0.1324  1.0659
 5566TIP3    H216663   6.331   4.766   4.719  0.4659  0.2120 -0.4632
 5567TIP3   OH216664   3.838   4.694   3.948 -0.3194 -0.4499  0.3615
 5567TIP3    H116665   3.921   4.667   3.986  0.4375 -0.0339 -0.9452
 5567TIP3    H216666   3.836   4.789   3.959 -0.6241 -0.4566  0.3739
 5568TIP3   OH216667   0.433   5.344   2.384  0.6894  0.4378 -0.4468
 5568TIP3    H116668   0.355   5.362   2.437 -0.7118  0.2233 -2.3530
 5568TIP3    H216669   0.476   5.271   2.429 -2.8670 -2.8843 -1.8481
 5569TIP3   OH216670   5.677   0.986   0.586  0.0824  0.4479 -0.0725
 5569TIP3    H116671   5.724   1.064   0.615  0.0495  0.3645  0.2050
 5569TIP3    H216672   5.586   1.015   0.579  0.3528  0.9972 -1.9610
 5570TIP3   OH216673   3.003   5.158   2.295 -0.5400  0.4312 -0.0826
 5570TIP3    H116674   2.952   5.117   2.225 -0.0496  0.2285 -0.3244
 5570TIP3    H216675   2.965   5.245   2.305 -0.8956  0.3025 -0.3028
 5571TIP3   OH216676   3.600   2.098   0.103  0.5834 -0.2778 -0.1222
 5571TIP3    H116677   3.656   2.165   0.142  1.6293 -0.5308 -1.1305
 5571TIP3    H216678   3.658   2.023   0.091 -0.1051 -0.7230 -0.7247
 5572TIP3   OH216679   1.620   4.940   1.507  0.1108  0.2017 -0.4565
 5572TIP3    H116680   1.584   4.949   1.596  0.5418  1.2594 -0.3710
 5572TIP3    H216681   1.551   4.896   1.458  0.4979 -1.9592  0.7840
 5573TIP3   OH216682   3.875   4.850   5.497  0.0219 -0.0337  0.2832
 5573TIP3    H116683   3.910   4.903   5.568  3.1281  0.7910 -1.6906
 5573TIP3    H216684   3.820   4.910   5.447  1.5403  0.7279 -0.5394
 5574TIP3   OH216685   7.174   1.309   2.712 -0.7267  0.3146 -0.6155
 5574TIP3    H116686   7.234   1.298   2.638  0.2505  0.8648  0.0706
 5574TIP3    H216687   7.231   1.309   2.789 -1.7243 -0.2392  0.1499
 5575TIP3   OH216688   4.780   1.599   3.501 -0.2273 -0.4679  0.4037
 5575TIP3    H116689   4.704   1.572   3.448 -1.3652  0.4738  1.4851
 5575TIP3    H216690   4.850   1.540   3.475 -1.6688 -2.1699  0.2320
 5576TIP3   OH216691   1.704   4.395   3.743  0.1099 -0.5349  1.0841
 5576TIP3    H116692   1.718   4.463   3.809  0.6629 -1.5793  2.0860
 5576TIP3    H216693   1.762   4.323   3.770 -0.0866 -1.2169 -0.2201
 5577TIP3   OH216694   0.976   3.255   3.162  0.1658 -0.9178  0.0277
 5577TIP3    H116695   1.016   3.258   3.249 -1.4263  0.0548  0.7650
 5577TIP3    H216696   1.036   3.305   3.106  0.4310 -0.2229  0.9170
 5578TIP3   OH216697   3.614   5.464   3.925 -0.3416 -0.0231  0.1848
 5578TIP3    H116698   3.662   5.478   4.006 -0.2510  2.3566 -0.2215
 5578TIP3    H216699   3.544   5.529   3.927  0.3303  0.8530 -2.1174
 5579TIP3   OH216700   7.007   3.483   1.931 -0.0651  0.2245  0.5249
 5579TIP3    H116701   7.080   3.428   1.901  2.2429  2.7667  1.0829
 5579TIP3    H216702   6.933   3.456   1.877  1.5227 -1.8231 -0.7872
 5580TIP3   OH216703   1.579   5.564   0.480  0.4361  0.3502 -0.2337
 5580TIP3    H116704   1.599   5.626   0.551  1.4190  1.4316 -1.3952
 5580TIP3    H216705   1.617   5.605   0.402 -1.6764 -0.1917 -1.6298
 5581TIP3   OH216706   5.808   2.758   2.703  0.3182  0.5116  0.2240
 5581TIP3    H116707   5.829   2.807   2.782 -2.4225 -1.3462  2.3183
 5581TIP3    H216708   5.784   2.825   2.639 -1.6418  2.0678  2.4150
 5582TIP3   OH216709   6.447   4.846   3.332  0.2060  0.2486 -0.3965
 5582TIP3    H116710   6.479   4.785   3.399  2.7653  0.1281 -1.6278
 5582TIP3    H216711   6.436   4.929   3.379 -2.2945 -0.7691  1.0602
 5583TIP3   OH216712   4.454   1.170   3.570  0.0072  0.0242  0.2355
 5583TIP3    H116713   4.406   1.182   3.488  0.1913  1.6878  0.3285
 5583TIP3    H216714   4.476   1.077   3.572 -2.4635 -0.6641 -0.2188
 5584TIP3   OH216715   1.684   0.106   4.584  0.1401 -0.0489  0.1756
 5584TIP3    H116716   1.741   0.114   4.661  0.4257 -0.8815  0.0680
 5584TIP3    H216717   1.745   0.090   4.511  0.0653  2.9877 -0.6594
 5585TIP3   OH216718   2.285   6.625   2.343  0.1434 -0.5799 -0.4915
 5585TIP3    H116719   2.320   6.694   2.287 -0.8698  0.2172 -0.1677
 5585TIP3    H216720   2.198   6.608   2.308 -0.6488  0.1630  1.0255
 5586TIP3   OH216721   2.546   5.492   4.229  0.1042  0.3908 -0.3907
 5586TIP3    H116722   2.504   5.440   4.162 -0.8778 -1.3957  1.5076
 5586TIP3    H216723   2.559   5.432   4.302  2.6304  1.8163  0.4639
 5587TIP3   OH216724   0.186   1.087   3.602  0.1124 -0.2483 -0.2227
 5587TIP3    H116725   0.095   1.093   3.629  0.5662 -0.0536  1.3270
 5587TIP3    H216726   0.189   1.011   3.544 -0.9229 -0.6113  0.1915
 5588TIP3   OH216727   6.441   3.155   5.096  0.5421  0.5109  0.3146
 5588TIP3    H116728   6.418   3.204   5.175 -1.8255 -1.1127  0.7397
 5588TIP3    H216729   6.533   3.177   5.080  0.3529  2.8999  1.9976
 5589TIP3   OH216730   3.836   6.427   3.647 -0.4760 -0.1318 -0.0368
 5589TIP3    H116731   3.874   6.386   3.725  0.0537 -0.8446 -0.6484
 5589TIP3    H216732   3.860   6.519   3.655  4.9566 -0.9811 -2.2252
 5590TIP3   OH216733   0.248   1.392   1.477  0.1677  0.5506 -0.0563
 5590TIP3    H116734   0.155   1.398   1.459  0.5803  0.0803 -2.6266
 5590TIP3    H216735   0.276   1.483   1.489 -0.3138  0.8573 -1.1533
 5591TIP3   OH216736   0.641   4.811   1.978  0.2698 -0.0661 -0.4051
 5591TIP3    H116737   0.699   4.878   2.013 -0.4252 -0.0415  0.7598
 5591TIP3    H216738   0.682   4.728   2.001 -0.1135 -0.0484  0.3607
 5592TIP3   OH216739   0.463   6.491   0.834 -0.0120  0.2769 -0.1801
 5592TIP3    H116740   0.372   6.519   0.822 -0.3852  0.1045  2.0017
 5592TIP3    H216741   0.461   6.397   0.816  0.1167  0.5410 -1.7895
 5593TIP3   OH216742   3.656   1.748   1.256  0.3751  0.3937 -0.4195
 5593TIP3    H116743   3.580   1.711   1.212  0.6179  0.0484 -0.5503
 5593TIP3    H216744   3.632   1.840   1.272 -0.5576 -0.0173  0.6815
 5594TIP3   OH216745   4.544   3.279   0.512 -0.0157  0.1656  0.1052
 5594TIP3    H116746   4.504   3.366   0.502 -0.7090 -0.1391  0.1484
 5594TIP3    H216747   4.473   3.224   0.545  0.6117 -0.2582  0.7800
 5595TIP3   OH216748   5.009   1.777   3.548 -0.0187  0.0935 -0.3760
 5595TIP3    H116749   5.030   1.692   3.509 -0.3091 -0.0651 -0.1910
 5595TIP3    H216750   4.914   1.784   3.540 -0.2356 -0.4578  1.3255
 5596TIP3   OH216751   6.840   3.084   3.939  0.3883 -0.3534  0.4287
 5596TIP3    H116752   6.756   3.050   3.908  0.2648  0.4164 -0.1151
 5596TIP3    H216753   6.846   3.053   4.029 -0.7259  0.0102  0.6490
 5597TIP3   OH216754   0.774   6.315   3.250  0.0358 -0.9461  0.2347
 5597TIP3    H116755   0.798   6.404   3.226 -1.0880 -0.9932 -1.2789
 5597TIP3    H216756   0.766   6.316   3.345  0.9550  0.3086  0.3202
 5598TIP3   OH216757   7.230   2.229   2.281 -0.3233 -0.5023  0.1369
 5598TIP3    H116758   7.141   2.264   2.272  0.9455  3.1357 -0.0764
 5598TIP3    H216759   7.253   2.246   2.372  0.1288 -1.5022  0.2149
 5599TIP3   OH216760   6.596   6.562   1.463  0.1095 -0.0594 -0.0652
 5599TIP3    H116761   6.512   6.569   1.508  0.6388 -0.2965  0.9906
 5599TIP3    H216762   6.603   6.643   1.413 -0.9530 -0.2416 -0.5480
 5600TIP3   OH216763   6.410   1.257   3.592  0.7805 -0.0541  0.2767
 5600TIP3    H116764   6.424   1.273   3.685  0.2028 -0.1926  0.3931
 5600TIP3    H216765   6.472   1.315   3.548  2.2446 -1.1823  0.7518
 5601TIP3   OH216766   3.814   1.433   2.984  0.2089  0.0068  0.3289
 5601TIP3    H116767   3.899   1.452   2.943  0.3775 -0.5350  0.4258
 5601TIP3    H216768   3.833   1.426   3.077  0.2077 -0.9496  0.2655
 5602TIP3   OH216769   1.504   0.027   0.777 -0.3589 -0.3888  0.2293
 5602TIP3    H116770   1.493  -0.067   0.791 -1.3399 -0.2648  0.3326
 5602TIP3    H216771   1.415   0.061   0.774 -0.0423  0.3869 -0.8541
 5603TIP3   OH216772   3.652   5.166   5.206 -0.6848  0.1874 -0.3648
 5603TIP3    H116773   3.707   5.234   5.167  0.0570  0.2827  0.8171
 5603TIP3    H216774   3.611   5.122   5.131  0.5658  0.4840 -1.2445
 5604TIP3   OH216775   2.921   6.534   0.957  0.1849 -0.2602  0.0692
 5604TIP3    H116776   2.945   6.596   0.888  0.2162  0.9072  1.0990
 5604TIP3    H216777   2.923   6.448   0.914  2.6841  0.1494 -0.7928
 5605TIP3   OH216778   6.940   3.765   2.758  0.2883 -0.4609  0.0636
 5605TIP3    H116779   6.906   3.854   2.752  0.0446 -0.2913  2.7701
 5605TIP3    H216780   6.883   3.713   2.701  0.5751  1.0846 -1.7433
 5606TIP3   OH216781   0.302   2.182   4.096 -0.6434 -0.2889  0.4646
 5606TIP3    H116782   0.392   2.151   4.099 -0.7211 -0.7177 -0.9044
 5606TIP3    H216783   0.273   2.181   4.187  0.9468  0.5623  1.0200
 5607TIP3   OH216784   0.554   4.085   4.793 -0.0008  0.4310 -0.3788
 5607TIP3    H116785   0.558   4.009   4.852 -2.8636  0.8105  0.4605
 5607TIP3    H216786   0.603   4.153   4.838  0.6398 -0.2339 -0.0431
 5608TIP3   OH216787   2.597   0.770   1.097 -0.1344  0.3787  0.0297
 5608TIP3    H116788   2.679   0.723   1.085 -0.7154 -0.8753  0.6776
 5608TIP3    H216789   2.531   0.700   1.103 -0.9636  1.2393  1.5607
 5609TIP3   OH216790   0.136   4.763   5.303 -0.3852  0.3805  0.1852
 5609TIP3    H116791   0.189   4.806   5.371 -0.0063 -1.6543  1.2535
 5609TIP3    H216792   0.113   4.834   5.243 -0.1163  2.1382  2.0228
 5610TIP3   OH216793   4.815   4.101   4.997  0.2166  0.2128  0.2653
 5610TIP3    H116794   4.763   4.144   5.066  0.8963  0.9091  0.3559
 5610TIP3    H216795   4.749   4.067   4.936 -0.4294 -1.0145  1.5890
 5611TIP3   OH216796   7.205   2.258   3.342  0.3677 -0.1071  0.0657
 5611TIP3    H116797   7.272   2.192   3.323  1.3238  0.6421  0.7675
 5611TIP3    H216798   7.129   2.207   3.372  0.3909 -1.0017 -1.2718
 5612TIP3   OH216799   1.585   1.998   0.848 -0.9139 -0.2334  0.0598
 5612TIP3    H116800   1.517   1.932   0.861 -1.8166  0.5757 -0.4026
 5612TIP3    H216801   1.543   2.066   0.794  0.7024 -0.4327 -1.5702
 5613TIP3   OH216802   6.377   2.841   3.277 -0.7419 -0.0771 -0.3630
 5613TIP3    H116803   6.464   2.829   3.239 -0.3319  1.1215  0.1264
 5613TIP3    H216804   6.387   2.916   3.336 -0.7969 -2.8379  3.6217
 5614TIP3   OH216805   5.969   6.253   4.679  0.1519  0.5630  0.6044
 5614TIP3    H116806   5.998   6.174   4.725 -0.9546 -0.1126  0.1850
 5614TIP3    H216807   5.907   6.221   4.613 -0.0059  1.7442  0.1510
 5615TIP3   OH216808   2.067   1.308   1.748  0.2245 -0.1912 -0.2997
 5615TIP3    H116809   2.076   1.396   1.783 -0.8133 -0.2244  0.0679
 5615TIP3    H216810   2.132   1.256   1.796  1.2067  0.4631 -0.8902
 5616TIP3   OH216811   1.649   4.841   0.412  0.1537 -0.0138 -0.5554
 5616TIP3    H116812   1.694   4.789   0.346 -1.0746 -2.0757  0.1593
 5616TIP3    H216813   1.571   4.791   0.434 -1.1157  2.1441  0.2104
 5617TIP3   OH216814   5.019   4.005   1.516 -0.1044  0.8680 -0.4102
 5617TIP3    H116815   5.022   3.986   1.422 -1.4666  1.4436 -0.5880
 5617TIP3    H216816   4.944   4.063   1.526  0.7059  1.7265  0.8852
 5618TIP3   OH216817   0.427   5.007   2.587 -0.3201  0.2755 -0.4336
 5618TIP3    H116818   0.443   4.977   2.677 -0.6605  3.3285  0.7705
 5618TIP3    H216819   0.512   5.038   2.557 -0.6049  1.1858 -0.3346
 5619TIP3   OH216820   0.049   0.548   2.215  0.2180  0.1974  0.3760
 5619TIP3    H116821  -0.038   0.582   2.237  0.0071 -0.3484  0.4015
 5619TIP3    H216822   0.086   0.521   2.298  0.0093 -0.5011  0.2441
 5620TIP3   OH216823   1.162   4.211   5.191 -0.1844  0.2745 -0.0571
 5620TIP3    H116824   1.223   4.211   5.117  0.7640  2.2558  0.6437
 5620TIP3    H216825   1.216   4.231   5.267 -1.6440  2.0611  0.5954
 5621TIP3   OH216826   1.846   3.649   0.485  0.0336  0.0427  0.2155
 5621TIP3    H116827   1.835   3.642   0.580 -0.0094  0.2536  0.2264
 5621TIP3    H216828   1.806   3.569   0.451  1.8867 -1.0628  0.5007
 5622TIP3   OH216829   2.061   1.280   3.165 -0.0760 -0.2764  0.0853
 5622TIP3    H116830   2.137   1.339   3.161  0.2875 -0.7900 -0.8206
 5622TIP3    H216831   2.100   1.192   3.171 -0.5102 -0.7543 -2.7395
 5623TIP3   OH216832   3.663   1.024   4.871 -0.1054 -0.0331 -0.0017
 5623TIP3    H116833   3.589   1.081   4.891  0.3925  0.3918  0.6941
 5623TIP3    H216834   3.647   0.945   4.924  1.4280  1.2625  2.6035
 5624TIP3   OH216835   2.261   4.963   3.653 -0.3417 -0.2663  0.2468
 5624TIP3    H116836   2.227   4.939   3.567  1.3270  1.8207 -1.1098
 5624TIP3    H216837   2.193   4.934   3.714 -1.0840 -2.8431 -1.6110
 5625TIP3   OH216838   3.924   1.946   5.839  0.0152 -0.5856 -0.3394
 5625TIP3    H116839   3.944   1.936   5.746 -0.9985 -1.0922 -0.5117
 5625TIP3    H216840   4.007   1.929   5.883  0.9568  1.3681 -1.2197
 5626TIP3   OH216841   6.629   3.553   3.220 -0.3447  0.1729  0.8409
 5626TIP3    H116842   6.626   3.648   3.214 -0.3041  0.2613  1.9516
 5626TIP3    H216843   6.623   3.522   3.130 -0.8771  1.2092  0.5131
 5627TIP3   OH216844   6.691   2.575   0.710  0.5524 -0.7587 -0.1467
 5627TIP3    H116845   6.648   2.550   0.628 -1.8435  3.4130 -0.4487
 5627TIP3    H216846   6.661   2.510   0.774 -1.6042 -1.2992 -1.5906
 5628TIP3   OH216847   4.466   5.024   5.629 -0.5379  0.1047 -0.0317
 5628TIP3    H116848   4.406   5.098   5.618 -0.5774  0.1205  0.2643
 5628TIP3    H216849   4.410   4.947   5.620 -0.5804  0.1180  0.1084
 5629TIP3   OH216850   1.221   1.415   5.007 -0.6388 -0.2109  0.1386
 5629TIP3    H116851   1.202   1.384   4.919 -1.0520  1.2469 -0.3120
 5629TIP3    H216852   1.278   1.490   4.994  0.1632 -0.6136  1.1831
 5630TIP3   OH216853   6.591   3.537   2.946  0.2697 -0.2678  0.2789
 5630TIP3    H116854   6.582   3.451   2.906 -0.6801  0.8215 -2.0418
 5630TIP3    H216855   6.671   3.573   2.908 -0.4291  0.6284 -0.3972
 5631TIP3   OH216856   2.320   6.602   0.923 -0.9243 -0.2026 -0.5994
 5631TIP3    H116857   2.386   6.650   0.872 -1.9554  0.2652 -1.5342
 5631TIP3    H216858   2.246   6.662   0.927  0.3048  1.5083  4.7597
 5632TIP3   OH216859   2.205   5.368   1.942  0.0397  0.0124  0.6622
 5632TIP3    H116860   2.187   5.462   1.930 -0.0828 -0.1179 -0.3081
 5632TIP3    H216861   2.239   5.361   2.031  1.3852  1.1738  0.2673
 5633TIP3   OH216862   0.842   1.993   3.661 -0.1498  0.4278  0.0184
 5633TIP3    H116863   0.892   2.063   3.703  0.0724 -0.0396  0.5480
 5633TIP3    H216864   0.750   2.020   3.670 -0.0897  0.4665  0.5734
 5634TIP3   OH216865   2.986   2.803   5.588  0.2013 -0.1725  0.1503
 5634TIP3    H116866   2.977   2.880   5.533  1.1352  0.4945  0.9084
 5634TIP3    H216867   3.080   2.794   5.604  0.0610 -1.1101  0.5683
 5635TIP3   OH216868   6.398   6.313   4.648  0.0057  0.3979  0.1447
 5635TIP3    H116869   6.320   6.366   4.634  0.3612  0.7666 -0.4740
 5635TIP3    H216870   6.366   6.223   4.647 -0.5105  0.5764  0.5819
 5636TIP3   OH216871   6.197   2.659   0.201 -0.8701  0.1666  0.5542
 5636TIP3    H116872   6.116   2.682   0.155 -0.2709  1.6414  0.1906
 5636TIP3    H216873   6.199   2.563   0.199 -1.6854  0.1469 -1.0480
 5637TIP3   OH216874   4.779   5.450   4.246 -0.3283  0.5163 -0.0481
 5637TIP3    H116875   4.687   5.425   4.257 -0.6598  1.8018  0.2851
 5637TIP3    H216876   4.816   5.381   4.192 -1.7427  0.4723 -1.0184
 5638TIP3   OH216877   2.952   0.104   2.145 -0.0971  0.5665  0.4605
 5638TIP3    H116878   2.953   0.164   2.070  0.5835  2.2146  1.7349
 5638TIP3    H216879   2.867   0.120   2.186  0.0426  0.5912  0.7408
 5639TIP3   OH216880   4.535   3.493   1.139 -0.2084 -0.1995  0.1185
 5639TIP3    H116881   4.531   3.438   1.061  0.2157  0.8389 -0.6670
 5639TIP3    H216882   4.610   3.550   1.125  0.3161 -0.4681  1.6313
 5640TIP3   OH216883   0.152   4.536   3.302  0.3483  0.0670 -0.2562
 5640TIP3    H116884   0.159   4.597   3.229  0.2351  0.6950  0.2552
 5640TIP3    H216885   0.116   4.588   3.374  1.1575 -0.3547  0.4726
 5641TIP3   OH216886   1.913   1.463   3.312 -0.3063  0.4894 -0.0710
 5641TIP3    H116887   1.847   1.409   3.355 -0.4868  0.3970 -0.4590
 5641TIP3    H216888   1.961   1.402   3.256  1.7083  0.0443  1.9746
 5642TIP3   OH216889   0.708   3.957   2.881 -0.0912 -0.0388  0.0710
 5642TIP3    H116890   0.795   3.960   2.841  0.0410  3.1266  0.3796
 5642TIP3    H216891   0.651   3.998   2.816 -0.7033  0.9535  1.2141
 5643TIP3   OH216892   4.001   5.671   0.289  0.4153 -0.5289 -0.2572
 5643TIP3    H116893   4.014   5.762   0.260  1.0347 -0.7694 -0.7570
 5643TIP3    H216894   3.906   5.659   0.286  0.4262 -0.5398 -2.2566
 5644TIP3   OH216895   5.541   1.935   1.740  0.4659 -0.0077  0.0212
 5644TIP3    H116896   5.593   2.013   1.722 -0.9816  1.1875  0.8084
 5644TIP3    H216897   5.461   1.947   1.690  0.5292 -1.3951 -0.4644
 5645TIP3   OH216898   2.612   4.390   2.030 -0.2109 -0.3099 -0.0826
 5645TIP3    H116899   2.534   4.425   2.075 -0.1106 -0.8736  0.5531
 5645TIP3    H216900   2.626   4.450   1.957 -0.1342  0.8928  0.8822
 5646TIP3   OH216901   1.253   4.267   2.552 -0.1882 -0.2356  0.3570
 5646TIP3    H116902   1.195   4.263   2.476 -0.7932 -0.5522  0.8183
 5646TIP3    H216903   1.254   4.359   2.577 -1.1326 -0.3280  0.8059
 5647TIP3   OH216904   2.609   3.837   4.738 -0.0986  0.1926 -0.0516
 5647TIP3    H116905   2.636   3.929   4.741  1.0640 -0.1429  0.3705
 5647TIP3    H216906   2.684   3.789   4.773 -1.0400 -0.8484  0.6045
 5648TIP3   OH216907   5.754   6.384   5.372  0.2632  0.0837 -0.4090
 5648TIP3    H116908   5.705   6.378   5.291  0.7103  1.6855 -0.8355
 5648TIP3    H216909   5.805   6.465   5.363  0.5467  0.1336  1.3344
 5649TIP3   OH216910   1.642   2.119   3.770 -0.4965 -0.1512 -0.2478
 5649TIP3    H116911   1.614   2.208   3.791  1.2566  0.3162  0.2426
 5649TIP3    H216912   1.661   2.079   3.855 -0.0032 -0.5572 -0.5486
 5650TIP3   OH216913   5.880   1.442   3.077  0.4907 -0.4072 -0.1934
 5650TIP3    H116914   5.931   1.449   3.158 -0.0115 -0.2392  0.1177
 5650TIP3    H216915   5.792   1.416   3.107  0.7438 -2.0704 -0.8365
 5651TIP3   OH216916   3.344   3.969   2.357 -0.4735  0.3579  0.2730
 5651TIP3    H116917   3.259   3.946   2.394 -0.4924  0.2772  0.1802
 5651TIP3    H216918   3.406   3.909   2.400 -0.3739  0.8388  0.8036
 5652TIP3   OH216919   6.216   0.045   0.565  0.2053  0.4372 -0.5577
 5652TIP3    H116920   6.152   0.096   0.515  0.0303  1.1910  0.4096
 5652TIP3    H216921   6.282   0.020   0.500 -0.0002  1.4195 -1.1667
 5653TIP3   OH216922   2.498   4.359   3.558  0.3845 -0.0749  0.2779
 5653TIP3    H116923   2.508   4.396   3.470 -0.8934  0.4969  0.3517
 5653TIP3    H216924   2.412   4.316   3.556 -0.7467  1.9109  1.8981
 5654TIP3   OH216925   6.943   1.921   0.220 -0.0393 -0.0071  0.1896
 5654TIP3    H116926   7.016   1.982   0.210 -1.2064  1.4174 -0.0561
 5654TIP3    H216927   6.893   1.930   0.139  0.8369 -2.8925 -0.8092
 5655TIP3   OH216928   5.152   6.136   2.032 -0.0136 -0.2409  0.0151
 5655TIP3    H116929   5.101   6.063   1.996 -0.2495 -0.1362  0.1316
 5655TIP3    H216930   5.192   6.101   2.111 -0.8563  0.0110  0.5656
 5656TIP3   OH216931   2.943   6.630   4.453  0.4412 -0.4480 -0.5387
 5656TIP3    H116932   2.955   6.536   4.440  0.6330 -0.3407 -1.1883
 5656TIP3    H216933   2.848   6.642   4.449  0.4165 -0.6124 -0.4708
 5657TIP3   OH216934   2.564   2.121   1.513  0.0777  0.0836  0.4696
 5657TIP3    H116935   2.490   2.144   1.570  0.3660  0.2072  0.7910
 5657TIP3    H216936   2.636   2.176   1.543  0.2571  0.0806  0.0470
 5658TIP3   OH216937   6.019   1.755   3.801 -0.6573 -0.5257  0.4998
 5658TIP3    H116938   5.924   1.749   3.804 -0.6749 -0.0300  1.5339
 5658TIP3    H216939   6.041   1.821   3.866  0.1868  2.0251 -2.1475
 5659TIP3   OH216940   4.257   3.238   0.156  0.1288 -0.0795 -0.8290
 5659TIP3    H116941   4.345   3.243   0.118 -0.3416 -0.1667 -1.9592
 5659TIP3    H216942   4.257   3.155   0.206  0.3971 -0.5399 -1.5818
 5660TIP3   OH216943   4.362   0.651   5.329  0.4045  0.2530  0.2426
 5660TIP3    H116944   4.340   0.583   5.265  0.9165  1.0165 -0.7670
 5660TIP3    H216945   4.458   0.655   5.328  0.5200 -0.7060  2.1307
 5661TIP3   OH216946   1.967   2.120   0.460  0.4405  0.1447 -0.1352
 5661TIP3    H116947   1.965   2.098   0.367  0.1098  0.4637 -0.2001
 5661TIP3    H216948   2.001   2.041   0.502 -0.3284 -0.3477 -0.4213
 5662TIP3   OH216949   6.247   6.705   3.174  0.1380 -0.5831  0.0777
 5662TIP3    H116950   6.270   6.668   3.259  0.5257 -1.7581 -0.5303
 5662TIP3    H216951   6.292   6.651   3.110 -1.2069 -0.5519 -0.9516
 5663TIP3   OH216952   6.745   6.510   2.132  0.2543  0.4773  0.8140
 5663TIP3    H116953   6.778   6.558   2.208 -0.0593  1.5848  0.2722
 5663TIP3    H216954   6.661   6.552   2.112  0.1597 -0.0491  0.0810
 5664TIP3   OH216955   5.270   0.501   0.178  0.0982 -0.1573 -0.0810
 5664TIP3    H116956   5.203   0.565   0.154  0.7499  1.2847  1.7292
 5664TIP3    H216957   5.342   0.517   0.118 -0.3666 -0.3161 -0.6915
 5665TIP3   OH216958   3.384   6.028   2.179  0.2865  0.3513  0.5083
 5665TIP3    H116959   3.426   6.006   2.262 -2.7051  1.5610  2.5011
 5665TIP3    H216960   3.311   6.085   2.203 -2.4924 -1.5168 -2.6355
 5666TIP3   OH216961   5.487   6.181   2.028  0.1500 -0.2553  0.4164
 5666TIP3    H116962   5.411   6.144   2.074 -0.9979  0.4958 -0.8058
 5666TIP3    H216963   5.484   6.142   1.941 -0.6900  2.0839 -0.6854
 5667TIP3   OH216964   3.151   3.530   4.643  0.0124  0.7364  0.7571
 5667TIP3    H116965   3.103   3.521   4.725 -1.8593  1.9266 -0.1165
 5667TIP3    H216966   3.108   3.604   4.599  0.5010 -0.2882 -1.5686
 5668TIP3   OH216967   0.190   1.268   0.601  0.7728  0.5353 -0.2238
 5668TIP3    H116968   0.176   1.224   0.685  0.3493  0.7841 -0.1619
 5668TIP3    H216969   0.282   1.250   0.580  0.6027 -0.4005 -0.2123
 5669TIP3   OH216970   2.993   1.626   2.897  0.0493 -0.0096 -0.0345
 5669TIP3    H116971   2.998   1.646   2.991 -0.5920 -1.0466  0.2326
 5669TIP3    H216972   2.900   1.608   2.882  0.3513 -1.1103 -0.6063
 5670TIP3   OH216973   2.649   0.091   2.938  0.1060  0.0879  0.0994
 5670TIP3    H116974   2.647   0.180   2.903 -0.5263 -0.1816 -0.5512
 5670TIP3    H216975   2.588   0.093   3.011 -2.7118 -0.6935 -2.0829
 5671TIP3   OH216976   3.508   5.232   0.177 -0.0333  0.6411 -0.1228
 5671TIP3    H116977   3.476   5.322   0.180 -1.0043  0.3152 -0.2015
 5671TIP3    H216978   3.461   5.188   0.248  1.7922  0.6073  1.1157
 5672TIP3   OH216979   6.541   4.324   5.598  0.1910 -0.2567 -0.2629
 5672TIP3    H116980   6.463   4.271   5.583  0.6650 -1.1849  0.4095
 5672TIP3    H216981   6.564   4.358   5.511 -0.5694 -0.5180 -0.5758
 5673TIP3   OH216982   6.332   5.287   5.052 -0.0617 -0.0529  0.4598
 5673TIP3    H116983   6.291   5.224   5.112 -1.1677  0.7815  0.6008
 5673TIP3    H216984   6.282   5.367   5.063 -0.3258  0.1260 -1.6074
 5674TIP3   OH216985   1.152   0.292   4.412  0.5733 -0.0251  0.2182
 5674TIP3    H116986   1.142   0.386   4.394 -2.7775 -0.5014 -1.1890
 5674TIP3    H216987   1.214   0.261   4.346 -1.9867  0.4830 -2.6393
 5675TIP3   OH216988   1.305   1.545   3.723 -0.7684  0.4025 -0.4265
 5675TIP3    H116989   1.321   1.508   3.637 -2.4969 -0.1897 -0.5207
 5675TIP3    H216990   1.233   1.493   3.760 -0.2660  0.8205  1.2601
 5676TIP3   OH216991   1.085   0.836   5.869  0.5579  0.1547 -0.0622
 5676TIP3    H116992   1.178   0.855   5.853  0.3638  0.0741 -1.3720
 5676TIP3    H216993   1.060   0.779   5.797 -0.3947 -0.2354  0.5633
 5677TIP3   OH216994   5.360   3.694   1.213 -0.1144 -0.2318  0.5746
 5677TIP3    H116995   5.292   3.742   1.260  1.0180  0.5249  1.4926
 5677TIP3    H216996   5.413   3.763   1.172  0.1413 -0.8078 -0.0754
 5678TIP3   OH216997   0.374   2.702   1.036  0.5417 -0.0722  0.2965
 5678TIP3    H116998   0.408   2.767   0.975 -0.8810 -0.3228 -0.8426
 5678TIP3    H216999   0.304   2.658   0.987  0.4489 -1.4218  1.5585
 5679TIP3   OH217000   1.938   0.267   2.415  0.4116  0.3850  0.5728
 5679TIP3    H117001   2.014   0.228   2.371 -0.3837  1.4279 -1.8708
 5679TIP3    H217002   1.874   0.195   2.419  0.4886  0.2771 -0.0124
 5680TIP3   OH217003   0.717   1.776   2.630  0.0457  0.3282  0.4645
 5680TIP3    H117004   0.694   1.738   2.715 -0.4682  1.2287  0.7464
 5680TIP3    H217005   0.770   1.853   2.652  2.4532 -1.0622 -0.1414
 5681TIP3   OH217006   0.242   4.231   2.677  0.0546 -0.4957  0.3007
 5681TIP3    H117007   0.222   4.324   2.684 -0.0162 -0.4537 -0.3904
 5681TIP3    H217008   0.196   4.191   2.750  0.1721  0.0236  0.6640
 5682TIP3   OH217009   6.059   5.670   1.304 -0.6826  0.1227  0.0496
 5682TIP3    H117010   6.070   5.681   1.398 -1.4312 -0.4344  0.2095
 5682TIP3    H217011   6.132   5.719   1.266  0.0168 -0.2062  0.9335
 5683TIP3   OH217012   7.175   4.381   3.054 -0.1184 -0.4203  0.1704
 5683TIP3    H117013   7.197   4.473   3.043 -2.0273  0.3463  2.0011
 5683TIP3    H217014   7.120   4.360   2.978 -0.7069  0.3178  0.3864
 5684TIP3   OH217015   6.169   5.806   4.102 -0.3367  0.3251 -0.0019
 5684TIP3    H117016   6.109   5.831   4.032 -0.5323 -3.6594 -1.4941
 5684TIP3    H217017   6.255   5.834   4.071 -0.4848 -0.9772 -1.6912
 5685TIP3   OH217018   3.415   1.423   4.546 -0.1717 -0.1269  0.1178
 5685TIP3    H117019   3.422   1.440   4.640  0.8605 -0.1865  0.0611
 5685TIP3    H217020   3.505   1.415   4.516 -0.5100 -1.1938 -0.6838
 5686TIP3   OH217021   0.251   3.604   0.739 -0.1110 -0.0704 -0.0177
 5686TIP3    H117022   0.195   3.614   0.661 -1.8434 -1.6503  0.9223
 5686TIP3    H217023   0.217   3.668   0.801 -1.7201 -1.7564  0.9444
 5687TIP3   OH217024   6.255   4.794   0.018  0.0219  0.0132  0.3621
 5687TIP3    H117025   6.255   4.857   0.090 -1.6546  2.0378 -1.2452
 5687TIP3    H217026   6.316   4.726   0.045  0.1895  1.1639  3.2305
 5688TIP3   OH217027   4.146   3.772   4.927  0.2352 -0.6819  0.4922
 5688TIP3    H117028   4.170   3.863   4.949 -1.6297 -0.1749  0.5583
 5688TIP3    H217029   4.121   3.733   5.011  2.7558 -1.9012  0.7983
 5689TIP3   OH217030   4.355   6.832   2.880 -0.2050  0.1916 -0.6460
 5689TIP3    H117031   4.370   6.774   2.955 -1.5181  0.5339 -0.0815
 5689TIP3    H217032   4.330   6.774   2.808 -0.5248 -0.0259 -0.3627
 5690TIP3   OH217033   4.303   1.628   5.090 -0.2950  0.2733 -0.2105
 5690TIP3    H117034   4.263   1.715   5.083 -1.7387 -0.3569 -0.2185
 5690TIP3    H217035   4.396   1.645   5.104 -0.7849  1.8592  1.4658
 5691TIP3   OH217036   0.216   4.644   0.480 -0.2802  0.4101  0.2190
 5691TIP3    H117037   0.210   4.736   0.505  0.1180  0.4393  0.2135
 5691TIP3    H217038   0.304   4.617   0.507 -1.2852 -0.7010  2.6754
 5692TIP3   OH217039   1.573   1.238   0.594 -0.4146  0.5267 -0.4959
 5692TIP3    H117040   1.509   1.251   0.523 -1.7082  0.4316  0.6168
 5692TIP3    H217041   1.567   1.318   0.646  1.1178  0.9397 -0.9209
 5693TIP3   OH217042   1.391   3.783   5.486  0.3680 -0.1198 -0.1459
 5693TIP3    H117043   1.367   3.720   5.418  1.1672 -2.6360  1.7443
 5693TIP3    H217044   1.313   3.792   5.540 -0.1633  1.6292 -1.1198
 5694TIP3   OH217045   6.864   0.860   2.149  0.0841 -0.5153 -0.5610
 5694TIP3    H117046   6.856   0.833   2.240  0.6539 -0.0169 -0.3599
 5694TIP3    H217047   6.852   0.955   2.151  0.3599 -0.4717 -0.9724
 5695TIP3   OH217048   6.851   1.071   0.235  1.0534  0.0649  0.0368
 5695TIP3    H117049   6.771   1.047   0.190  2.0194 -0.0423 -1.6868
 5695TIP3    H217050   6.874   0.994   0.287  1.4828 -0.9533 -1.6056
 5696TIP3   OH217051   0.855   4.326   0.569 -0.2592  0.0100 -0.0064
 5696TIP3    H117052   0.802   4.256   0.531  1.5803 -1.1898 -0.4982
 5696TIP3    H217053   0.850   4.397   0.506 -0.4847 -0.4600 -0.5330
 5697TIP3   OH217054   1.857   2.679   2.693 -0.4054 -0.2567 -0.0029
 5697TIP3    H117055   1.903   2.650   2.772  0.7234  1.9238  0.2331
 5697TIP3    H217056   1.806   2.754   2.722 -1.1504 -0.3427 -1.0611
 5698TIP3   OH217057   4.392   6.077   3.419  0.5335 -0.5899 -0.1477
 5698TIP3    H117058   4.328   6.148   3.419 -0.2973 -1.3116 -1.1750
 5698TIP3    H217059   4.368   6.024   3.496 -0.2285 -0.9477 -0.6183
 5699TIP3   OH217060   6.864   5.189   2.640 -0.1202 -0.5014 -0.0377
 5699TIP3    H117061   6.938   5.235   2.602 -0.8357  0.4577 -0.2911
 5699TIP3    H217062   6.897   5.155   2.724  0.3219  0.7839  0.3292
 5700TIP3   OH217063   6.710   4.216   4.902 -0.5984 -0.6948  0.5559
 5700TIP3    H117064   6.782   4.276   4.885 -1.7209  1.6482  3.1905
 5700TIP3    H217065   6.750   4.140   4.942  0.6351 -0.6538 -0.5543
 5701TIP3   OH217066   3.267   4.857   3.662  0.5549 -0.3430 -0.1534
 5701TIP3    H117067   3.282   4.868   3.756 -0.9579  1.3192 -0.0608
 5701TIP3    H217068   3.347   4.816   3.630 -0.0099 -3.8017  2.2960
 5702TIP3   OH217069   5.431   4.284   2.167  0.1804  0.3503 -0.0450
 5702TIP3    H117070   5.497   4.266   2.101 -0.5940  0.6692 -0.9235
 5702TIP3    H217071   5.376   4.206   2.169 -1.0600  1.1537 -1.3202
 5703TIP3   OH217072   0.687   0.754   5.100 -0.3180  0.1089 -0.1083
 5703TIP3    H117073   0.761   0.753   5.161 -0.3604  0.3914 -0.0470
 5703TIP3    H217074   0.649   0.841   5.111  0.5718  0.7327 -1.6147
 5704TIP3   OH217075   2.477   5.577   1.867  0.4679  0.3336 -0.1486
 5704TIP3    H117076   2.471   5.538   1.780 -4.3240 -2.3943  1.0139
 5704TIP3    H217077   2.536   5.519   1.915  0.7141  0.0269 -0.8012
 5705TIP3   OH217078   5.881   5.025   5.064  0.4111  0.3149  0.7764
 5705TIP3    H117079   5.806   4.968   5.047  0.6335 -0.1553  1.3695
 5705TIP3    H217080   5.912   5.049   4.976  0.0127 -0.0667  0.5227
 5706TIP3   OH217081   3.690   1.592   5.388 -0.4835  0.3397  0.1330
 5706TIP3    H117082   3.786   1.588   5.395 -0.4479 -0.5654 -0.7189
 5706TIP3    H217083   3.670   1.686   5.392  0.3303  0.4791  1.4812
 5707TIP3   OH217084   5.378   3.295   1.486  0.7900 -0.2808 -0.3653
 5707TIP3    H117085   5.321   3.369   1.509 -0.7604 -1.3260 -0.6546
 5707TIP3    H217086   5.372   3.289   1.391  1.8458 -0.0657 -0.4481
 5708TIP3   OH217087   4.637   4.512   1.065  0.2646  0.3788 -0.1850
 5708TIP3    H117088   4.576   4.440   1.048  0.1387  0.1663  1.0848
 5708TIP3    H217089   4.723   4.476   1.046  0.1266  0.2246 -0.5445
 5709TIP3   OH217090   6.148   4.868   4.621  0.2288 -0.4709 -0.1967
 5709TIP3    H117091   6.154   4.779   4.587  0.9588  0.0246 -1.4382
 5709TIP3    H217092   6.072   4.866   4.680  0.0202 -1.8155 -0.4766
 5710TIP3   OH217093   2.697   2.418   0.009 -0.2509 -0.1371 -0.4946
 5710TIP3    H117094   2.687   2.338  -0.043  1.9592 -0.2573 -0.8544
 5710TIP3    H217095   2.772   2.400   0.066 -0.5283  1.2206  0.3500
 5711TIP3   OH217096   1.914   1.450   2.472 -0.0237 -0.3196  0.2624
 5711TIP3    H117097   1.968   1.438   2.550  1.6043 -0.6665 -0.8669
 5711TIP3    H217098   1.968   1.503   2.413 -1.6195  0.8069 -0.2603
 5712TIP3   OH217099   0.197   1.778   1.986  0.1728 -0.0043 -0.2346
 5712TIP3    H117100   0.215   1.688   2.013  1.1954 -0.0686 -1.0654
 5712TIP3    H217101   0.206   1.777   1.891  1.0384  1.1596 -0.1821
 5713TIP3   OH217102   2.659   3.509   3.167 -0.3100 -0.0567  0.0671
 5713TIP3    H117103   2.631   3.560   3.243 -0.6554  0.2516 -0.2617
 5713TIP3    H217104   2.724   3.564   3.124  0.1424 -0.3828  0.3304
 5714TIP3   OH217105   0.911   6.720   3.990  0.3545  0.4529 -0.2116
 5714TIP3    H117106   0.835   6.716   4.048  1.0041 -0.0360  0.6173
 5714TIP3    H217107   0.876   6.756   3.908 -0.5910  1.0600  0.4405
 5715TIP3   OH217108   0.912   1.379   5.499  0.3284  0.1092 -0.0355
 5715TIP3    H117109   0.820   1.401   5.481  0.8328  1.9038 -0.6061
 5715TIP3    H217110   0.937   1.320   5.428 -0.1795  0.1769 -0.2743
 5716TIP3   OH217111   4.251   5.283   4.811  0.3036  0.5634 -0.6603
 5716TIP3    H117112   4.187   5.349   4.782  0.2960  0.8574 -0.0043
 5716TIP3    H217113   4.246   5.287   4.906 -0.1351 -0.8263 -0.6061
 5717TIP3   OH217114   2.601   6.495   2.535  0.3507 -0.2909  0.3522
 5717TIP3    H117115   2.672   6.505   2.599  0.2466 -0.0296  0.4287
 5717TIP3    H217116   2.602   6.402   2.512  0.2540 -0.4288  0.8921
 5718TIP3   OH217117   0.637   5.213   2.790 -0.0585  0.0570  0.2283
 5718TIP3    H117118   0.617   5.120   2.798 -0.5406  0.1251 -0.1971
 5718TIP3    H217119   0.634   5.231   2.696 -0.0212  0.5160  0.3122
 5719TIP3   OH217120   1.437   6.516   5.090 -0.1018  0.6462  0.4415
 5719TIP3    H117121   1.353   6.560   5.078 -1.3212 -1.8633 -1.0504
 5719TIP3    H217122   1.460   6.532   5.181 -2.0191  1.7012  0.7860
 5720TIP3   OH217123   3.636   0.228   0.878 -0.0041  0.0396  0.4591
 5720TIP3    H117124   3.658   0.317   0.851 -0.0497 -0.4289 -1.2258
 5720TIP3    H217125   3.584   0.193   0.806  1.3597 -1.9003  0.3319
 5721TIP3   OH217126   5.082   2.986   4.515 -0.5067  0.5549 -0.5626
 5721TIP3    H117127   5.063   3.070   4.557 -0.8688  1.6468 -2.8044
 5721TIP3    H217128   5.012   2.974   4.451  0.6450 -0.4560 -1.6924
 5722TIP3   OH217129   3.604   2.601   0.596  0.2973 -0.0766 -0.2215
 5722TIP3    H117130   3.579   2.660   0.667 -1.9523  1.5761 -2.1996
 5722TIP3    H217131   3.536   2.614   0.530  1.7322 -2.2527 -2.2818
 5723TIP3   OH217132   3.320   5.488   2.289 -0.3710  0.7822  0.2407
 5723TIP3    H117133   3.386   5.526   2.346  0.4811 -0.1610 -0.1012
 5723TIP3    H217134   3.298   5.404   2.330  1.7507 -0.9016 -1.7960
 5724TIP3   OH217135   4.395   0.418   0.270  0.3894 -0.8129  0.3011
 5724TIP3    H117136   4.379   0.357   0.198  1.0231 -1.9584  1.1135
 5724TIP3    H217137   4.446   0.489   0.231  0.1650 -1.0937 -0.5101
 5725TIP3   OH217138   6.269   5.507   4.425 -0.2891 -0.3392  0.3523
 5725TIP3    H117139   6.234   5.596   4.421 -0.0973 -0.2990 -0.6144
 5725TIP3    H217140   6.193   5.451   4.410 -0.5651 -0.3962  1.7452
 5726TIP3   OH217141   4.389   1.884   2.827 -0.2238  0.1741  0.6864
 5726TIP3    H117142   4.332   1.832   2.883 -1.1172 -0.4231 -0.7035
 5726TIP3    H217143   4.477   1.848   2.842 -0.6611 -0.9804  0.6257
 5727TIP3   OH217144   1.893   1.671   4.488 -0.7881  0.0635  0.2778
 5727TIP3    H117145   1.822   1.617   4.453  0.0676 -0.8482 -0.0957
 5727TIP3    H217146   1.875   1.677   4.582 -0.8003 -1.0193  0.3481
 5728TIP3   OH217147   0.455   2.903   0.864  0.1457  0.0503  0.4174
 5728TIP3    H117148   0.526   2.889   0.802 -1.3043 -2.1422 -0.8986
 5728TIP3    H217149   0.380   2.926   0.809 -0.4248  1.3303  1.6752
 5729TIP3   OH217150   5.824   5.783   0.444 -0.6092  0.2595 -0.3024
 5729TIP3    H117151   5.909   5.760   0.479 -0.9644 -2.2262 -0.9197
 5729TIP3    H217152   5.766   5.786   0.521  0.1560  3.1193  0.2827
 5730TIP3   OH217153   3.110   4.795   0.866  0.4995 -0.6825  0.2740
 5730TIP3    H117154   3.078   4.800   0.775 -1.2996  1.2843  0.9243
 5730TIP3    H217155   3.060   4.723   0.905 -2.0872  1.2317  0.7884
 5731TIP3   OH217156   6.169   6.386   2.114 -0.2587 -0.3164 -0.5873
 5731TIP3    H117157   6.232   6.328   2.156  0.2176  0.4670 -0.2036
 5731TIP3    H217158   6.155   6.457   2.176 -0.4077  0.2730 -1.2746
 5732TIP3   OH217159   2.528   6.317   0.420 -0.3819 -0.1385  0.2193
 5732TIP3    H117160   2.518   6.367   0.340 -1.2958 -2.0635 -0.9609
 5732TIP3    H217161   2.464   6.245   0.411  0.9226 -1.5721  1.7117
 5733TIP3   OH217162   2.435   4.874   5.149  0.3235  0.2043  0.0814
 5733TIP3    H117163   2.433   4.969   5.147 -0.7970  0.2613  1.5805
 5733TIP3    H217164   2.490   4.852   5.224  0.3818 -0.3225 -0.1063
 5734TIP3   OH217165   5.430   3.593   4.903  0.5683  0.1760 -0.0030
 5734TIP3    H117166   5.468   3.533   4.839  0.0840  1.5118 -1.6011
 5734TIP3    H217167   5.505   3.633   4.946  0.9295  0.1667 -0.6114
 5735TIP3   OH217168   2.147   6.477   5.655  0.4329  0.0697 -0.0872
 5735TIP3    H117169   2.212   6.467   5.725  0.2211 -0.2685  0.0643
 5735TIP3    H217170   2.171   6.411   5.590  0.3057  0.0146 -0.0791
 5736TIP3   OH217171   4.664   0.557   0.872  0.7112  0.2187  0.5109
 5736TIP3    H117172   4.668   0.501   0.949 -1.9872 -0.9435 -0.1078
 5736TIP3    H217173   4.695   0.502   0.800 -0.4060  0.0235  0.1639
 5737TIP3   OH217174   1.957   0.331   5.736  0.2994  0.1855 -0.2047
 5737TIP3    H117175   1.890   0.352   5.671  0.0512  1.5220  0.4465
 5737TIP3    H217176   2.018   0.405   5.733  0.1338  0.3998  1.2568
 5738TIP3   OH217177   3.076   1.727   5.571 -0.1634 -0.3720 -0.0321
 5738TIP3    H117178   3.077   1.815   5.533  0.6178  0.0954  1.0274
 5738TIP3    H217179   3.124   1.736   5.653 -0.5790 -1.6714  0.3705
 5739TIP3   OH217180   1.762   2.052   3.345 -0.0486 -0.4024  0.1282
 5739TIP3    H117181   1.731   2.134   3.383  1.8264  0.1015  0.6800
 5739TIP3    H217182   1.806   2.007   3.417 -0.9294 -1.8625 -0.2045
 5740TIP3   OH217183   3.642   3.768   5.394 -0.0143  0.5061 -0.2399
 5740TIP3    H117184   3.616   3.778   5.302  0.0657  1.0195 -0.2078
 5740TIP3    H217185   3.562   3.788   5.443  0.5235  2.5547 -0.1225
 5741TIP3   OH217186   3.169   5.867   4.301  0.0983 -0.3623  0.4887
 5741TIP3    H117187   3.179   5.784   4.349  1.0377 -0.7974 -0.4105
 5741TIP3    H217188   3.138   5.929   4.367  0.2678 -1.2071  1.3952
 5742TIP3   OH217189   7.064   5.126   2.372  0.1519  0.0713 -0.2566
 5742TIP3    H117190   7.014   5.202   2.402 -0.2542 -0.6081  0.8472
 5742TIP3    H217191   7.034   5.112   2.282 -2.1027 -0.6350  0.5293
 5743TIP3   OH217192   6.175   0.259   3.139  0.3527 -0.4556  0.2046
 5743TIP3    H117193   6.259   0.297   3.114  0.1089  0.6707  1.0430
 5743TIP3    H217194   6.190   0.224   3.227 -0.1325  0.0043  0.4719
 5744TIP3   OH217195   1.990   2.348   5.276  0.1096 -0.1515  0.1008
 5744TIP3    H117196   2.004   2.325   5.184 -1.6102 -0.4104 -0.1278
 5744TIP3    H217197   2.024   2.272   5.325  0.9896 -0.0292 -0.3104
 5745TIP3   OH217198   1.621   5.184   0.756  0.1078 -0.3090 -0.0724
 5745TIP3    H117199   1.623   5.089   0.752 -0.2569 -0.2835 -1.1175
 5745TIP3    H217200   1.546   5.204   0.811  0.2001 -0.6241  0.1703
 5746TIP3   OH217201   6.218   1.633   2.115  0.4809  0.1359  0.4655
 5746TIP3    H117202   6.241   1.585   2.035  0.3283 -2.3075  1.7758
 5746TIP3    H217203   6.302   1.660   2.152  0.7168 -0.7793  0.6297
 5747TIP3   OH217204   5.307   0.000   1.889 -0.0528 -0.1283  0.1100
 5747TIP3    H117205   5.298   0.084   1.843 -1.3974 -0.7506 -0.8296
 5747TIP3    H217206   5.355  -0.056   1.828  0.5035 -0.1668  0.5759
 5748TIP3   OH217207   1.440   2.356   5.433  0.2238  0.0311  0.2647
 5748TIP3    H117208   1.382   2.382   5.505  0.4035 -0.2950  0.5294
 5748TIP3    H217209   1.504   2.427   5.427  0.9907 -0.5417  1.2877
 5749TIP3   OH217210   5.098   0.766   2.392 -0.1416 -0.1479  0.4667
 5749TIP3    H117211   5.187   0.734   2.408  0.2178  0.5815 -0.0616
 5749TIP3    H217212   5.106   0.825   2.317 -0.7230  1.5059  1.6505
 5750TIP3   OH217213   1.893   3.404   4.271 -0.7404  0.1469 -0.5286
 5750TIP3    H117214   1.940   3.321   4.267 -0.2629  0.3254  0.6693
 5750TIP3    H217215   1.888   3.433   4.180 -2.2192 -1.8657 -1.1584
 5751TIP3   OH217216   0.056   4.873   1.211 -0.7195 -0.1532 -0.0433
 5751TIP3    H117217   0.124   4.927   1.171  0.8375 -0.9530  1.3844
 5751TIP3    H217218   0.015   4.930   1.275 -1.0628  0.1756 -0.5457
 5752TIP3   OH217219   2.396   4.862   2.115 -0.3927  0.1096  0.1675
 5752TIP3    H117220   2.399   4.888   2.207 -1.4219 -0.1234  0.2799
 5752TIP3    H217221   2.466   4.912   2.074 -1.0801  1.5966  0.7420
 5753TIP3   OH217222   3.358   4.394   0.803 -0.1749  0.5939  0.0526
 5753TIP3    H117223   3.394   4.332   0.866 -2.3355 -0.6852  0.1518
 5753TIP3    H217224   3.406   4.376   0.722 -0.3482 -0.8246  0.2405
 5754TIP3   OH217225   1.015   1.660   5.577  0.4750 -0.0250 -0.1988
 5754TIP3    H117226   1.017   1.666   5.673  1.3290 -0.7809 -0.1525
 5754TIP3    H217227   0.931   1.618   5.558  0.9857 -1.3451  0.3337
 5755TIP3   OH217228   2.982   3.478   4.906  0.1127  0.5439 -0.3926
 5755TIP3    H117229   2.899   3.452   4.867  0.1951  0.0191 -0.2238
 5755TIP3    H217230   2.988   3.427   4.987 -0.5590  2.4127  0.8860
 5756TIP3   OH217231   3.729   0.161   5.673  0.1859  0.0568 -0.0978
 5756TIP3    H117232   3.634   0.172   5.668  0.1803 -0.0646 -0.2466
 5756TIP3    H217233   3.762   0.201   5.592  0.3122  0.6782  0.2518
 5757TIP3   OH217234   3.436   0.510   5.818  0.2386 -0.3502  0.0348
 5757TIP3    H117235   3.512   0.566   5.802 -1.0714  1.8930  1.1640
 5757TIP3    H217236   3.377   0.528   5.745  0.3780 -1.3936 -0.3548
 5758TIP3   OH217237   2.106   1.396   3.940 -0.7134 -0.3868 -0.2526
 5758TIP3    H117238   2.171   1.465   3.955 -0.1022 -1.2268  1.2318
 5758TIP3    H217239   2.026   1.429   3.981 -0.3103 -0.6929  0.8232
 5759TIP3   OH217240   1.435   2.316   5.132 -0.4388  0.5145 -0.3282
 5759TIP3    H117241   1.505   2.378   5.113  0.8142 -0.2820  1.4857
 5759TIP3    H217242   1.410   2.334   5.223  0.1666 -1.7700  0.3623
 5760TIP3   OH217243   2.935   5.060   3.022  0.3008 -0.3237  0.2568
 5760TIP3    H117244   3.028   5.071   3.003 -0.1131  0.8233 -1.2162
 5760TIP3    H217245   2.902   5.149   3.034 -0.7132 -0.6861  0.2334
 5761TIP3   OH217246   6.604   6.112   5.588 -0.5547 -0.4599 -0.0088
 5761TIP3    H117247   6.630   6.156   5.670  1.3725 -2.1802  0.3902
 5761TIP3    H217248   6.510   6.128   5.581 -0.5488  0.7460  1.9148
 5762TIP3   OH217249   1.275   0.222   3.344  0.0743  0.2200 -0.1163
 5762TIP3    H117250   1.183   0.226   3.320  0.1215 -0.4337 -0.4214
 5762TIP3    H217251   1.294   0.310   3.379 -1.6181 -0.6392  3.4564
 5763TIP3   OH217252   1.736   5.068   5.580  0.0780  0.1114  0.4139
 5763TIP3    H117253   1.774   5.067   5.667  1.1071  1.0923  0.0020
 5763TIP3    H217254   1.767   4.987   5.539  0.6063  0.2430  0.5507
 5764TIP3   OH217255   2.847   4.498   5.809 -0.3503 -0.4782 -0.1563
 5764TIP3    H117256   2.843   4.514   5.904  0.6603 -0.4986 -0.0928
 5764TIP3    H217257   2.792   4.566   5.770 -1.0759 -0.6946  0.4620
 5765TIP3   OH217258   7.082   4.179   5.329  0.6984  0.5236 -0.3211
 5765TIP3    H117259   7.080   4.262   5.377  0.6694  0.2823  0.0995
 5765TIP3    H217260   7.057   4.203   5.240  1.0665  1.0258 -0.2943
 5766TIP3   OH217261   4.281   6.545   0.164 -0.5817 -0.4519  0.2123
 5766TIP3    H117262   4.257   6.637   0.173 -0.8466 -0.5929  1.1161
 5766TIP3    H217263   4.345   6.543   0.093 -0.6639  0.4101  0.1045
 5767TIP3   OH217264   6.563   2.872   5.365  0.2532 -0.5108  1.0286
 5767TIP3    H117265   6.622   2.816   5.414  0.6264 -1.0228  0.0319
 5767TIP3    H217266   6.557   2.953   5.416  1.0487 -0.8283  1.6250
 5768TIP3   OH217267   2.450   4.673   3.550 -0.1769 -0.1898  0.6756
 5768TIP3    H117268   2.529   4.721   3.573  0.2155 -0.0304 -0.9513
 5768TIP3    H217269   2.401   4.668   3.633  0.2201  2.1172  1.1200
 5769TIP3   OH217270   5.971   5.394   4.884  0.2238  0.6143  0.4839
 5769TIP3    H117271   6.026   5.364   4.811 -0.1476  1.2051 -0.0593
 5769TIP3    H217272   5.885   5.357   4.866 -0.0608  1.3829  0.1887
 5770TIP3   OH217273   0.319   6.768  -0.004 -0.2168 -0.0852  0.4520
 5770TIP3    H117274   0.387   6.706  -0.030  0.2807  0.8435 -0.5217
 5770TIP3    H217275   0.271   6.723   0.065  1.3887 -0.7582  1.1766
 5771TIP3   OH217276   6.194   3.633   4.815 -0.3512 -0.2675  0.0029
 5771TIP3    H117277   6.141   3.555   4.801 -0.1322 -0.2073 -1.2400
 5771TIP3    H217278   6.256   3.607   4.883  0.2515 -1.4428 -0.9672
 5772TIP3   OH217279   3.416   5.372   3.718 -0.1169 -0.1879 -0.1909
 5772TIP3    H117280   3.418   5.449   3.775  2.1754 -0.5869  0.3862
 5772TIP3    H217281   3.454   5.302   3.772  1.2756 -0.7963 -1.8711
 5773TIP3   OH217282   5.106   3.598   1.999 -0.2241 -0.1437  0.6436
 5773TIP3    H117283   5.148   3.531   2.052 -0.0590 -0.2091  0.4328
 5773TIP3    H217284   5.054   3.649   2.061  0.4810  0.1878  0.9746
 5774TIP3   OH217285   7.121   2.150   3.661  0.3432 -0.8674 -0.1519
 5774TIP3    H117286   7.070   2.140   3.580  0.6672 -1.0622 -0.3366
 5774TIP3    H217287   7.098   2.237   3.693  1.3276 -0.1636 -1.2542
 5775TIP3   OH217288   2.459   6.728   2.613 -0.6642 -0.1268  0.4464
 5775TIP3    H117289   2.402   6.701   2.685 -0.7236  0.2269  0.5339
 5775TIP3    H217290   2.513   6.651   2.594 -0.6430 -0.2161  0.8749
 5776TIP3   OH217291   7.023   6.139   4.791  0.1557  0.3422 -0.1555
 5776TIP3    H117292   6.946   6.164   4.739  1.3667  2.4343 -1.0694
 5776TIP3    H217293   7.020   6.196   4.867  1.0327  0.7826 -0.4361
 5777TIP3   OH217294   3.970   1.882   3.824  0.3928  0.7997 -0.0270
 5777TIP3    H117295   3.967   1.886   3.729  0.0788  0.3927 -0.0373
 5777TIP3    H217296   4.048   1.829   3.843  0.8188  1.4118 -0.0382
 5778TIP3   OH217297   4.650   4.810   5.668 -0.1619 -0.2489 -0.0232
 5778TIP3    H117298   4.632   4.808   5.762 -0.5769 -1.5603 -0.1242
 5778TIP3    H217299   4.596   4.882   5.635  0.0272  0.2600  0.7302
 5779TIP3   OH217300   5.568   1.235   0.155 -0.1934 -0.2853 -0.1644
 5779TIP3    H117301   5.481   1.201   0.175 -1.0617  0.8232 -1.7731
 5779TIP3    H217302   5.612   1.164   0.109 -0.6303 -0.4994 -0.2520
 5780TIP3   OH217303   4.450   4.735   0.490  0.1244  0.3305 -0.3064
 5780TIP3    H117304   4.373   4.740   0.434  0.0036  1.3887 -0.0558
 5780TIP3    H217305   4.416   4.723   0.578  0.3224 -3.7783 -0.5676
 5781TIP3   OH217306   1.262   1.796   5.478  0.2806  0.7433  0.3881
 5781TIP3    H117307   1.189   1.787   5.540 -0.4246  0.7252 -0.4190
 5781TIP3    H217308   1.286   1.707   5.455 -0.2081  0.7463 -0.1911
 5782TIP3   OH217309   3.266   3.125   0.736 -0.0962  0.0736 -0.3196
 5782TIP3    H117310   3.234   3.113   0.647 -1.8649  0.7491  0.1864
 5782TIP3    H217311   3.261   3.219   0.752  0.9911  0.0587  0.2224
 5783TIP3   OH217312   1.324   4.044  -0.000  0.1959 -0.1930  0.4469
 5783TIP3    H117313   1.263   4.065   0.071 -0.0103 -1.6975  0.7560
 5783TIP3    H217314   1.360   3.958   0.024  0.5127 -0.4940 -1.0041
 5784TIP3   OH217315   1.447   3.189   3.243 -0.3626  0.0981 -0.1283
 5784TIP3    H117316   1.409   3.221   3.161  1.6475 -0.5424 -1.4119
 5784TIP3    H217317   1.500   3.263   3.275  2.0000 -0.8365 -1.5857
 5785TIP3   OH217318   1.720   3.316   2.113 -0.5652  0.1194  0.0963
 5785TIP3    H117319   1.710   3.411   2.124 -0.7805  0.1352 -0.2285
 5785TIP3    H217320   1.720   3.282   2.203  0.1845  0.4882  0.2423
 5786TIP3   OH217321   4.089   4.725   2.557  0.0017  0.2924 -0.0824
 5786TIP3    H117322   4.179   4.747   2.579 -0.3508  0.5430  1.1464
 5786TIP3    H217323   4.036   4.771   2.622 -1.0754  0.9916 -1.4009
 5787TIP3   OH217324   2.196   5.092   1.594 -0.3634  0.0785 -0.1088
 5787TIP3    H117325   2.181   5.042   1.674  1.0244  0.1881  0.2466
 5787TIP3    H217326   2.198   5.026   1.525 -0.8615 -0.0921  0.0332
 5788TIP3   OH217327   1.243   3.765   5.704 -0.1426 -0.0764 -0.0720
 5788TIP3    H117328   1.313   3.746   5.767  0.6535 -1.2506 -1.2687
 5788TIP3    H217329   1.202   3.681   5.688 -0.4151  0.2276 -1.0324
 5789TIP3   OH217330   2.026   0.618   5.272 -0.1692  0.1667 -0.1060
 5789TIP3    H117331   2.045   0.613   5.178  0.3879  0.0842  0.0051
 5789TIP3    H217332   2.113   0.620   5.313 -0.4101 -0.7759  0.4564
 5790TIP3   OH217333   4.361   4.795   5.870  0.3260 -0.2137 -0.0438
 5790TIP3    H117334   4.277   4.755   5.846  0.3959  0.3042 -1.2281
 5790TIP3    H217335   4.408   4.727   5.917  0.9524 -2.0306 -3.0445
 5791TIP3   OH217336   5.856   1.494   4.785 -0.4687  0.0238  0.1093
 5791TIP3    H117337   5.842   1.469   4.876 -1.9570  0.2495 -0.0305
 5791TIP3    H217338   5.940   1.454   4.761 -0.9236 -1.5394  1.0403
 5792TIP3   OH217339   7.117   1.513   4.118 -0.1577 -0.3758 -0.0562
 5792TIP3    H117340   7.055   1.550   4.180 -0.9511 -1.2560 -0.3012
 5792TIP3    H217341   7.203   1.525   4.159 -0.2272  2.5472 -0.5261
 5793TIP3   OH217342   0.592   4.055   3.524  0.0523 -0.1103 -0.5651
 5793TIP3    H117343   0.544   3.998   3.463 -0.1177 -0.0279 -0.5107
 5793TIP3    H217344   0.570   4.021   3.611 -0.4110  0.3085 -0.5103
 5794TIP3   OH217345   4.778   4.229   4.323  0.2675  0.2354 -0.1594
 5794TIP3    H117346   4.832   4.170   4.270 -2.4535 -0.0863 -2.8638
 5794TIP3    H217347   4.823   4.234   4.408  3.5803 -1.2003 -1.6786
 5795TIP3   OH217348   4.359   5.177   3.514 -0.7738  0.3746 -0.2746
 5795TIP3    H117349   4.409   5.245   3.468  1.2495 -0.5672  0.4484
 5795TIP3    H217350   4.271   5.182   3.475 -0.2954  2.4374 -1.2173
 5796TIP3   OH217351   3.037   0.613   5.282 -0.2373 -0.8715  0.0551
 5796TIP3    H117352   3.047   0.519   5.300 -1.5089 -1.3636 -1.5061
 5796TIP3    H217353   3.116   0.636   5.234  1.0292 -0.6105  2.1293
 5797TIP3   OH217354   0.971   0.539   3.598 -0.7204  0.3072 -0.2665
 5797TIP3    H117355   1.004   0.471   3.656 -1.1508  0.2728 -0.0595
 5797TIP3    H217356   0.945   0.610   3.657  0.4737  0.9830 -0.5242
 5798TIP3   OH217357   1.324   6.056   0.582 -0.8763  0.1165 -0.1246
 5798TIP3    H117358   1.327   6.115   0.657 -1.4979  2.4626 -1.8557
 5798TIP3    H217359   1.238   6.014   0.588 -1.8884  2.0132 -0.7125
 5799TIP3   OH217360   1.232   1.519   5.477  0.3248 -0.0834  0.5110
 5799TIP3    H117361   1.228   1.442   5.535 -0.4380 -0.2867  0.2069
 5799TIP3    H217362   1.156   1.571   5.503  0.6258  0.3791  0.4553
 5800TIP3   OH217363   1.305   6.110   2.400 -0.7891  0.0295 -1.0595
 5800TIP3    H117364   1.340   6.166   2.330  1.3109 -0.1762 -0.2336
 5800TIP3    H217365   1.287   6.170   2.472 -0.2432 -0.1016 -0.8054
 5801TIP3   OH217366   1.195   1.157   2.441 -0.2820  0.5161  0.0783
 5801TIP3    H117367   1.157   1.145   2.355 -1.8306  0.1875  0.7779
 5801TIP3    H217368   1.159   1.086   2.494  1.1334  0.3290  0.8548
 5802TIP3   OH217369   2.800   5.050   1.071 -0.2144  0.3615 -0.3405
 5802TIP3    H117370   2.747   5.060   0.992  1.7273  0.3198 -1.6942
 5802TIP3    H217371   2.799   4.956   1.089  0.2648  0.2290 -0.9902
 5803TIP3   OH217372   6.646   1.823   2.535 -0.1002 -0.2027  0.0936
 5803TIP3    H117373   6.557   1.797   2.561 -0.9215  0.0026 -2.2029
 5803TIP3    H217374   6.638   1.915   2.510  1.5502  0.8155  2.8456
 5804TIP3   OH217375   2.480   5.758   4.130  0.7433  0.3733 -0.0876
 5804TIP3    H117376   2.508   5.788   4.044  0.0292  0.5671 -0.2527
 5804TIP3    H217377   2.515   5.670   4.137  0.1987  0.0872 -0.8682
 5805TIP3   OH217378   2.886   6.208   4.042 -0.0706  0.4239  0.4927
 5805TIP3    H117379   2.914   6.284   3.993  1.5402  0.2007  1.0005
 5805TIP3    H217380   2.829   6.243   4.111 -2.0466  0.7668 -1.2392
 5806TIP3   OH217381   0.133   1.083   0.815 -0.1454  0.2174 -0.0866
 5806TIP3    H117382   0.061   1.021   0.817  0.0443 -0.0306  1.9440
 5806TIP3    H217383   0.158   1.093   0.907  0.5159  2.5073 -0.4446
 5807TIP3   OH217384   2.163   3.657   4.489  0.7051 -0.2852 -0.6910
 5807TIP3    H117385   2.149   3.648   4.584  0.6835 -1.7101 -0.8112
 5807TIP3    H217386   2.176   3.568   4.458  0.1610  0.1005 -2.1249
 5808TIP3   OH217387   0.132   5.165   2.977 -0.1004  0.0822  0.1327
 5808TIP3    H117388   0.196   5.221   2.934 -0.3357  0.4657  0.2761
 5808TIP3    H217389   0.070   5.226   3.017 -1.3367 -0.2557 -1.1653
 5809TIP3   OH217390   5.044   1.055   5.316  0.1641  0.4850 -0.4627
 5809TIP3    H117391   5.026   1.042   5.223 -3.1399 -0.2778  0.1556
 5809TIP3    H217392   5.025   1.147   5.331 -0.2713  0.3845 -0.3815
 5810TIP3   OH217393   0.868   0.152   1.535  0.2154 -0.0828  0.1242
 5810TIP3    H117394   0.881   0.241   1.567  0.7626 -0.3121  0.5634
 5810TIP3    H217395   0.818   0.162   1.454  0.2402  0.6174  0.1931
 5811TIP3   OH217396   7.003   2.826   5.340  0.7474  0.1984  0.4119
 5811TIP3    H117397   7.052   2.754   5.381  0.0177 -0.7264 -0.3000
 5811TIP3    H217398   6.911   2.806   5.359  0.4673  0.3487 -0.7301
 5812TIP3   OH217399   7.052   1.417   5.847  0.0384  0.2197  0.3460
 5812TIP3    H117400   7.103   1.346   5.808  0.7801  0.2488  1.2455
 5812TIP3    H217401   7.030   1.474   5.773  1.8848  0.5809  0.0320
 5813TIP3   OH217402   2.744   3.866   3.212  0.1731  0.0615 -0.3148
 5813TIP3    H117403   2.670   3.882   3.271  1.0982 -0.0972  0.9454
 5813TIP3    H217404   2.788   3.951   3.205  0.7308 -0.1760  0.1917
 5814TIP3   OH217405   5.885   5.095   1.934  0.8133 -0.1546 -0.3010
 5814TIP3    H117406   5.888   5.001   1.951  1.2649 -0.1333 -0.2695
 5814TIP3    H217407   5.959   5.131   1.981  1.0265  0.1369 -0.8470
 5815TIP3   OH217408   4.386   5.956   2.778  0.6188  0.3237  0.6359
 5815TIP3    H117409   4.359   5.989   2.863 -0.1573  0.3623  0.3751
 5815TIP3    H217410   4.383   6.032   2.720 -1.3633 -0.1981 -0.0125
 5816TIP3   OH217411   3.153   0.031   2.329 -0.0957 -0.0586 -0.1681
 5816TIP3    H117412   3.089   0.037   2.258  1.1065 -1.4020 -1.4389
 5816TIP3    H217413   3.116  -0.033   2.390 -1.2253  1.2446  0.5729
 5817TIP3   OH217414   0.339   0.296   0.586 -0.2739  0.0502  0.0846
 5817TIP3    H117415   0.321   0.265   0.675 -0.0494  3.1977  1.3442
 5817TIP3    H217416   0.434   0.296   0.579 -0.2473 -2.6175 -1.2335
 5818TIP3   OH217417   6.404   5.172   5.373 -0.5356  0.3105  0.1533
 5818TIP3    H117418   6.411   5.166   5.468 -0.7904  0.0434  0.1578
 5818TIP3    H217419   6.312   5.195   5.356 -1.0667 -1.7386 -0.0916
 5819TIP3   OH217420   3.802   2.545   2.622  0.3926 -0.0754 -0.5362
 5819TIP3    H117421   3.858   2.567   2.696  0.3513 -2.7305  0.3916
 5819TIP3    H217422   3.862   2.535   2.549  0.5913  1.2255 -0.5744
 5820TIP3   OH217423   6.458   4.633   0.108 -0.4285 -0.6774 -0.2239
 5820TIP3    H117424   6.431   4.550   0.147 -1.4008  0.0503  0.7045
 5820TIP3    H217425   6.542   4.614   0.067 -0.4769 -2.0387  0.2655
 5821TIP3   OH217426   5.513   2.987   4.527  0.2483 -0.5423 -0.4197
 5821TIP3    H117427   5.604   2.968   4.505  0.4463 -1.2118  0.9214
 5821TIP3    H217428   5.497   3.073   4.487  2.3384  0.9288  1.5932
 5822TIP3   OH217429   6.475   0.786   0.964  0.4292  1.1925  0.0601
 5822TIP3    H117430   6.410   0.843   1.007  0.3054  1.0553  0.0549
 5822TIP3    H217431   6.479   0.819   0.875 -1.2373 -0.1326 -0.5712
 5823TIP3   OH217432   2.906   3.421   4.147  0.5792  0.3070 -0.1946
 5823TIP3    H117433   2.830   3.376   4.111  1.0766  0.4626 -1.4896
 5823TIP3    H217434   2.979   3.363   4.130  0.8590  0.4492  0.4673
 5824TIP3   OH217435   6.924   1.234   4.667  0.7242  0.2165 -0.1311
 5824TIP3    H117436   7.005   1.184   4.676  0.7948  0.2341 -0.5982
 5824TIP3    H217437   6.929   1.302   4.734 -0.5770 -1.9467  2.3205
 5825TIP3   OH217438   1.146   6.721   1.140  0.4971 -0.5508 -0.6132
 5825TIP3    H117439   1.119   6.789   1.079 -1.4214 -0.1699  0.5602
 5825TIP3    H217440   1.151   6.765   1.225 -2.7055 -2.0884  0.5628
 5826TIP3   OH217441   3.042   1.282   2.256 -0.0527  0.2550  0.7418
 5826TIP3    H117442   3.056   1.194   2.291  0.0118  0.0477  0.1915
 5826TIP3    H217443   3.110   1.294   2.190  0.6181  1.1266  1.5556
 5827TIP3   OH217444   2.881   1.144   2.780  0.0559  0.1752  0.4289
 5827TIP3    H117445   2.947   1.170   2.716  0.2025  0.8217  0.8319
 5827TIP3    H217446   2.816   1.215   2.777 -0.4805 -0.3199  0.2316
 5828TIP3   OH217447   1.253   3.269   3.591 -0.7228 -0.0376  0.0013
 5828TIP3    H117448   1.329   3.217   3.615 -1.0179  0.8383  3.4146
 5828TIP3    H217449   1.289   3.352   3.560 -0.2049  0.2749  1.3528
 5829TIP3   OH217450   5.587   3.732   5.102  0.4051  0.0693 -0.8646
 5829TIP3    H117451   5.678   3.708   5.087  0.6175  1.2144 -1.5603
 5829TIP3    H217452   5.560   3.680   5.178  1.3282 -1.0021 -1.2470
 5830TIP3   OH217453   2.981   0.792   4.958  0.3374 -0.9481  0.0943
 5830TIP3    H117454   2.947   0.724   5.016 -0.3856 -0.3283  0.4231
 5830TIP3    H217455   3.022   0.856   5.017  0.3266 -0.7203 -0.1403
 5831TIP3   OH217456   0.509   2.173   2.002  0.5019  0.1474 -0.3419
 5831TIP3    H117457   0.449   2.099   2.015  1.4076 -1.1305 -2.7223
 5831TIP3    H217458   0.524   2.175   1.907  2.8190  1.5137 -0.0295
 5832TIP3   OH217459   0.847   4.183   3.572 -0.0619  0.1623  0.5375
 5832TIP3    H117460   0.862   4.277   3.559 -1.1401  0.4694  1.3467
 5832TIP3    H217461   0.752   4.173   3.559 -0.4900 -0.2677  3.3500
 5833TIP3   OH217462   3.719   2.184   4.365  0.8591  0.1929  1.0832
 5833TIP3    H117463   3.755   2.106   4.322 -3.4185 -1.1438 -0.5952
 5833TIP3    H217464   3.701   2.156   4.455 -1.1382 -1.0881  0.3557
 5834TIP3   OH217465   3.487   0.297   4.086 -0.1756 -0.3934 -0.1031
 5834TIP3    H117466   3.480   0.271   4.178 -2.0297 -0.6983 -0.3039
 5834TIP3    H217467   3.426   0.370   4.077 -0.2435 -0.5742 -1.1719
 5835TIP3   OH217468   7.181   4.997   3.725 -0.3762 -0.5441  0.0357
 5835TIP3    H117469   7.234   4.927   3.688 -1.8445 -1.5732 -0.2022
 5835TIP3    H217470   7.147   4.961   3.807 -0.2084  0.3279  0.5051
 5836TIP3   OH217471   2.165   2.309   0.599 -0.0827 -0.3178 -0.3163
 5836TIP3    H117472   2.131   2.393   0.630  1.8268  0.0143  1.0632
 5836TIP3    H217473   2.094   2.271   0.548 -1.7032  1.2348  0.6954
 5837TIP3   OH217474   6.239   0.788   4.845 -0.4412  0.2873  0.2967
 5837TIP3    H117475   6.172   0.791   4.913 -0.0279  1.6452  0.6820
 5837TIP3    H217476   6.191   0.766   4.765 -1.1578  0.1150  0.7611
 5838TIP3   OH217477   3.140   3.769   3.369 -0.8506  0.1799  0.7454
 5838TIP3    H117478   3.129   3.757   3.275 -0.1438 -0.3667  0.7182
 5838TIP3    H217479   3.093   3.696   3.408  0.1350 -0.4773  0.7427
 5839TIP3   OH217480   1.080   4.040   3.471  0.1353 -0.2719  0.2503
 5839TIP3    H117481   1.010   4.105   3.477 -0.0491 -0.3271 -1.0989
 5839TIP3    H217482   1.157   4.084   3.506  0.3917  1.2546 -2.0514
 5840TIP3   OH217483   5.167   3.986   0.204  0.3412  0.5956 -0.1716
 5840TIP3    H117484   5.200   4.076   0.193  1.2519  0.3293  0.2421
 5840TIP3    H217485   5.082   3.996   0.246 -1.0623  1.4080 -2.9080
 5841TIP3   OH217486   4.256   1.946   2.001  0.2186  0.5322  0.5570
 5841TIP3    H117487   4.267   1.994   2.083  0.2717  0.1561  0.7728
 5841TIP3    H217488   4.202   2.004   1.946 -0.1255  0.6254  0.9918
 5842TIP3   OH217489   0.736   6.657   5.854  0.2956 -0.4211  0.3110
 5842TIP3    H117490   0.815   6.698   5.819 -1.3460  1.4405 -1.4026
 5842TIP3    H217491   0.729   6.690   5.944  0.5598  0.7508 -0.0911
 5843TIP3   OH217492   5.202   1.676   4.045  0.1097 -0.2495  0.1184
 5843TIP3    H117493   5.130   1.627   4.086 -0.1321 -0.1707 -0.2091
 5843TIP3    H217494   5.174   1.690   3.955  0.1523  0.5448  0.2196
 5844TIP3   OH217495   3.012   4.314   4.489 -0.3049 -0.2431 -0.0841
 5844TIP3    H117496   2.953   4.241   4.470  0.3437 -0.8662  0.2615
 5844TIP3    H217497   3.090   4.297   4.437 -0.3523  0.4846 -0.4053
 5845TIP3   OH217498   4.049   4.631   5.482 -0.0131  0.0810 -0.4232
 5845TIP3    H117499   4.008   4.586   5.556  1.0680  0.3663  0.3808
 5845TIP3    H217500   4.000   4.713   5.473 -1.2892 -0.7460 -1.1939
 5846TIP3   OH217501   0.500   0.043   2.288 -0.3640 -0.1282 -0.3593
 5846TIP3    H117502   0.436   0.006   2.227  0.0008 -0.2049 -0.6987
 5846TIP3    H217503   0.585   0.025   2.248 -0.1421  0.2657 -0.0751
 5847TIP3   OH217504   2.964   6.266   0.861  0.3273 -0.1926  0.1295
 5847TIP3    H117505   2.987   6.305   0.777 -3.0243 -1.4323 -1.5337
 5847TIP3    H217506   2.967   6.172   0.846  0.8806 -0.4885  1.8308
 5848TIP3   OH217507   6.573   0.507   3.494  0.1248  0.0657 -0.3147
 5848TIP3    H117508   6.580   0.429   3.439  0.3940 -0.1982  0.0875
 5848TIP3    H217509   6.582   0.474   3.584  0.1126  0.5419 -0.1365
 5849TIP3   OH217510   6.244   2.912   1.093  0.0802  0.3550 -0.1591
 5849TIP3    H117511   6.190   2.970   1.039  2.0028  2.7935  0.3227
 5849TIP3    H217512   6.182   2.867   1.150 -1.7180  0.1622 -2.1280
 5850TIP3   OH217513   1.161   5.580   4.022  0.1709  0.2945 -0.2637
 5850TIP3    H117514   1.229   5.581   4.089  0.0174  1.7629 -0.0762
 5850TIP3    H217515   1.173   5.663   3.975 -0.9670  0.2101 -0.7445
 5851TIP3   OH217516   3.598   3.655   1.078 -0.5451 -0.4753  0.1555
 5851TIP3    H117517   3.562   3.625   0.995 -0.9029 -0.7106  0.3896
 5851TIP3    H217518   3.530   3.711   1.115 -0.6839 -0.9306  0.6044
 5852TIP3   OH217519   0.147   5.440   2.186 -0.2469 -0.1482 -0.2378
 5852TIP3    H117520   0.096   5.484   2.117  1.2382 -0.3817 -1.5503
 5852TIP3    H217521   0.215   5.503   2.210 -0.3370 -0.3378  0.5421
 5853TIP3   OH217522   3.861   6.539   5.909 -0.0489 -0.9167  0.2542
 5853TIP3    H117523   3.778   6.583   5.892 -0.2381 -1.1933  0.4581
 5853TIP3    H217524   3.925   6.589   5.858 -0.3363 -0.6948  0.1062
 5854TIP3   OH217525   2.799   1.643   3.479  0.5049 -0.5871  0.1679
 5854TIP3    H117526   2.863   1.573   3.484  0.0733 -0.9593  0.5928
 5854TIP3    H217527   2.723   1.610   3.528 -0.7597 -0.9676 -1.9353
 5855TIP3   OH217528   2.815   0.969   2.466 -0.1590 -0.0448 -0.1226
 5855TIP3    H117529   2.757   1.005   2.534  0.0565  1.0747 -0.5103
 5855TIP3    H217530   2.837   0.882   2.498 -2.2480 -0.6077 -0.0864
 5856TIP3   OH217531   4.928   2.361   0.655  0.4590  0.1024 -0.4729
 5856TIP3    H117532   4.995   2.356   0.587 -0.3280  2.0058 -1.4327
 5856TIP3    H217533   4.853   2.403   0.613 -0.5871 -0.0243  1.1680
 5857TIP3   OH217534   2.477   3.032   3.375  0.0811  0.7959  0.2181
 5857TIP3    H117535   2.387   3.050   3.402 -0.2381 -1.3666  0.7790
 5857TIP3    H217536   2.525   3.021   3.457  0.5739  0.7011 -0.0772
 5858TIP3   OH217537   6.721   1.127   5.176  0.2336 -0.0984 -0.0947
 5858TIP3    H117538   6.805   1.168   5.196 -0.0511  0.7426 -0.5872
 5858TIP3    H217539   6.719   1.123   5.080 -0.2920 -0.1058 -0.0834
 5859TIP3   OH217540   0.623   4.520   4.775  0.4084 -0.4833 -0.1161
 5859TIP3    H117541   0.672   4.444   4.806 -0.1697 -0.9427 -0.3032
 5859TIP3    H217542   0.689   4.586   4.755  1.2030 -1.9628 -2.8644
 5860TIP3   OH217543   3.899   2.996   3.886  0.4864 -0.6340  0.1605
 5860TIP3    H117544   3.834   2.938   3.847 -1.2693  1.0885  0.3789
 5860TIP3    H217545   3.864   3.084   3.873  2.5991  0.3593  0.6513
 5861TIP3   OH217546   4.092   3.086   3.658  0.6287  0.1696  0.4141
 5861TIP3    H117547   4.066   3.071   3.749 -1.0131  0.9265  0.1008
 5861TIP3    H217548   4.169   3.143   3.664  0.1479  0.7400  1.3090
 5862TIP3   OH217549   5.030   0.093   1.981  0.2704  0.0970  0.3436
 5862TIP3    H117550   5.110   0.042   1.972 -0.8829 -1.6231 -0.7965
 5862TIP3    H217551   4.990   0.091   1.894 -0.8927  1.1231  0.8252
 5863TIP3   OH217552   6.870   4.736   3.138  0.0981  0.0240  0.0269
 5863TIP3    H117553   6.820   4.801   3.089 -0.1333  0.4371  0.7962
 5863TIP3    H217554   6.961   4.767   3.132  0.1074 -0.0699 -0.3517
 5864TIP3   OH217555   4.675   2.664   3.939 -0.5011  0.0657  0.3917
 5864TIP3    H117556   4.728   2.736   3.974  0.5230 -1.0266  1.1585
 5864TIP3    H217557   4.684   2.671   3.844  0.5988  0.2094  0.5015
 5865TIP3   OH217558   2.493   2.639   5.701  0.0885  0.2477 -0.5323
 5865TIP3    H117559   2.502   2.698   5.627 -0.5702  1.2411  0.1517
 5865TIP3    H217560   2.546   2.679   5.770  0.1130 -0.2780 -0.2412
 5866TIP3   OH217561   1.460   4.491   3.663 -0.1732  0.1290 -0.4704
 5866TIP3    H117562   1.434   4.403   3.636 -1.8909 -0.1337  1.7525
 5866TIP3    H217563   1.551   4.482   3.689 -0.1489 -0.8428 -0.8403
 5867TIP3   OH217564   2.138   6.617   1.488  0.1021 -0.1774  0.0586
 5867TIP3    H117565   2.216   6.656   1.448 -0.8383  3.1865  1.1629
 5867TIP3    H217566   2.166   6.594   1.576 -0.0506  0.9085  0.4113
 5868TIP3   OH217567   6.444   4.985   3.598 -0.1185 -1.0446  0.1412
 5868TIP3    H117568   6.458   5.053   3.665 -0.4098  0.7979 -1.5662
 5868TIP3    H217569   6.396   4.916   3.644 -0.4800  0.2252  1.7836
 5869TIP3   OH217570   4.793   6.252   4.921 -0.5368 -0.2201 -0.2011
 5869TIP3    H117571   4.715   6.202   4.899 -1.0795  0.1315  0.8320
 5869TIP3    H217572   4.798   6.248   5.016  0.7320 -0.2616 -0.2548
 5870TIP3   OH217573   3.367   6.418   3.313 -0.4320 -0.5383 -1.0178
 5870TIP3    H117574   3.391   6.379   3.397  3.4409  0.4953 -1.4853
 5870TIP3    H217575   3.391   6.352   3.248  0.1105  0.1291 -1.4983
 5871TIP3   OH217576   0.418   5.162   1.970  0.0028 -0.0705  0.3327
 5871TIP3    H117577   0.342   5.208   2.006  0.4793  1.6722 -0.7311
 5871TIP3    H217578   0.488   5.178   2.033  0.1926  0.8035 -0.0822
 5872TIP3   OH217579   3.588   5.712   4.194  0.1306  0.2078  0.4909
 5872TIP3    H117580   3.594   5.638   4.254  0.8096 -0.2890 -0.1630
 5872TIP3    H217581   3.534   5.776   4.240  0.6972 -0.1222  1.6597
 5873TIP3   OH217582   2.201   4.280   4.996 -0.1034 -0.2130  0.3154
 5873TIP3    H117583   2.133   4.212   4.993  0.0612 -0.5806  2.8490
 5873TIP3    H217584   2.256   4.255   5.070  2.4474  0.4618 -1.2601
 5874TIP3   OH217585   0.035   2.522   0.587 -0.3393 -0.5664  0.7202
 5874TIP3    H117586  -0.038   2.546   0.645 -0.2166 -0.0430  0.6671
 5874TIP3    H217587   0.032   2.427   0.584 -0.8468 -0.5668  0.9458
 5875TIP3   OH217588   3.567   3.725   0.557  0.1716  0.2932  0.4696
 5875TIP3    H117589   3.599   3.753   0.643  1.2199 -0.9736  0.5249
 5875TIP3    H217590   3.472   3.725   0.566  0.2165  1.3054  1.2479
 5876TIP3   OH217591   6.428   4.156   0.530 -0.0981  0.6985 -0.3130
 5876TIP3    H117592   6.372   4.233   0.534 -0.4354  0.5025 -1.1074
 5876TIP3    H217593   6.368   4.082   0.528  0.2298  0.3376  1.3441
 5877TIP3   OH217594   0.061   6.072   1.610  0.8177 -0.5663 -0.4317
 5877TIP3    H117595   0.092   6.157   1.641  0.5207 -0.5693 -0.1232
 5877TIP3    H217596   0.068   6.077   1.515 -4.0045  1.7744 -0.9607
 5878TIP3   OH217597   7.153   3.539   0.286  0.7097 -0.2027  0.0250
 5878TIP3    H117598   7.172   3.614   0.230 -1.1725  0.2024 -0.1295
 5878TIP3    H217599   7.190   3.464   0.239 -1.4506  0.0057 -2.2537
 5879TIP3   OH217600   0.411   1.075   3.269 -0.2483  0.6919  0.4124
 5879TIP3    H117601   0.453   1.011   3.326 -0.8619  0.3402  0.4758
 5879TIP3    H217602   0.419   1.039   3.181  1.0764  1.4378  0.2058
 5880TIP3   OH217603   0.701   4.734   5.066  0.2688  0.0901  0.6031
 5880TIP3    H117604   0.707   4.778   5.151 -1.4896 -0.4754  1.0743
 5880TIP3    H217605   0.684   4.805   5.004  0.6993  0.4210  0.8611
 5881TIP3   OH217606   4.378   5.801   5.311  0.1356 -0.1231  0.4435
 5881TIP3    H117607   4.389   5.706   5.313 -0.0790 -0.1517  0.2697
 5881TIP3    H217608   4.302   5.817   5.367  1.7076  0.1775  2.6127
 5882TIP3   OH217609   1.067   0.856   3.107 -0.3202 -0.1809 -0.1013
 5882TIP3    H117610   1.042   0.859   3.199 -0.3119 -0.5108 -0.0867
 5882TIP3    H217611   1.055   0.946   3.076 -0.0842 -0.0176  0.2802
 5883TIP3   OH217612   2.667   4.921   3.406 -0.0885 -0.3786  0.0535
 5883TIP3    H117613   2.658   4.851   3.342  1.8008 -0.6085 -0.0056
 5883TIP3    H217614   2.730   4.889   3.469 -0.5537  0.5741  1.0439
 5884TIP3   OH217615   4.620   4.575   1.648  0.2585 -0.3998  0.0268
 5884TIP3    H117616   4.688   4.525   1.694  1.3745  0.1886 -0.9326
 5884TIP3    H217617   4.542   4.521   1.654  1.2454 -1.9229 -0.3285
 5885TIP3   OH217618   0.102   5.161   4.140 -0.6257 -0.6004 -0.3802
 5885TIP3    H117619   0.137   5.129   4.057  1.0940  1.0799 -0.3698
 5885TIP3    H217620   0.042   5.232   4.116  0.9335  0.8347 -0.1955
 5886TIP3   OH217621   2.129   5.025   0.306 -0.1513  0.1942  0.2720
 5886TIP3    H117622   2.199   4.964   0.282 -0.8285 -1.5591  2.3805
 5886TIP3    H217623   2.157   5.062   0.390 -0.4304  1.7349 -0.2821
 5887TIP3   OH217624   0.885   3.358   5.468  0.1185  0.0296  0.0434
 5887TIP3    H117625   0.933   3.290   5.515 -0.9141 -0.4411  0.4545
 5887TIP3    H217626   0.893   3.436   5.524  0.8493  0.1055 -0.1613
 5888TIP3   OH217627   1.258   4.532   3.855  0.1524 -0.1328 -0.7779
 5888TIP3    H117628   1.237   4.624   3.836 -0.5325 -0.3228 -0.9427
 5888TIP3    H217629   1.329   4.511   3.794  0.1593  0.2221 -0.8961
 5889TIP3   OH217630   5.287   2.623   4.687 -0.6740 -0.3814  0.0223
 5889TIP3    H117631   5.241   2.697   4.728  1.6788  0.0246  2.2105
 5889TIP3    H217632   5.303   2.562   4.759  3.0357  0.0190 -0.2662
 5890TIP3   OH217633   3.198   0.045   4.300  0.2708  0.6006 -0.0601
 5890TIP3    H117634   3.195   0.134   4.336 -0.6631  1.0170 -1.1194
 5890TIP3    H217635   3.166   0.054   4.210  1.8583 -0.5343 -0.7879
 5891TIP3   OH217636   5.164   0.347   2.992 -0.1820 -0.0405 -0.1227
 5891TIP3    H117637   5.224   0.422   3.000 -0.4505  0.2011 -0.3498
 5891TIP3    H217638   5.118   0.345   3.076  0.2462 -0.3183  0.1097
 5892TIP3   OH217639   2.576   3.191   5.087  0.5990 -0.1511  0.0714
 5892TIP3    H117640   2.567   3.197   4.992  0.6457 -1.3708 -0.0273
 5892TIP3    H217641   2.556   3.099   5.108  1.8027 -0.2146  1.0909
 5893TIP3   OH217642   5.964   4.431   5.274 -0.7770 -0.1491  0.4145
 5893TIP3    H117643   6.059   4.448   5.277 -0.7452  0.2661 -1.4152
 5893TIP3    H217644   5.930   4.473   5.353  0.1538  3.0489 -0.7096
 5894TIP3   OH217645   1.613   2.092   4.047  0.2813 -0.0414 -0.5584
 5894TIP3    H117646   1.654   2.036   4.112 -0.5439  1.8411  1.7193
 5894TIP3    H217647   1.524   2.106   4.079 -0.1921  0.9236 -2.1386
 5895TIP3   OH217648   1.025   4.888   1.871  0.2786 -0.0443 -0.3170
 5895TIP3    H117649   0.956   4.950   1.889 -1.6701 -2.2040  0.1653
 5895TIP3    H217650   1.006   4.855   1.783  0.6020 -0.7599 -0.1284
 5896TIP3   OH217651   4.308   2.713   4.128  0.7304 -0.3750 -0.3197
 5896TIP3    H117652   4.265   2.751   4.051 -0.2743  0.4192  0.5969
 5896TIP3    H217653   4.344   2.631   4.097 -0.2948 -0.4174 -1.4735
 5897TIP3   OH217654   6.684   4.233   2.704  0.5916 -0.2015  0.1593
 5897TIP3    H117655   6.649   4.220   2.616  2.0332 -0.9533 -0.3507
 5897TIP3    H217656   6.734   4.153   2.722  1.8684  0.7064  0.8857
 5898TIP3   OH217657   6.402   6.366   1.550  0.2423  0.2211 -0.0499
 5898TIP3    H117658   6.381   6.308   1.623  0.5758  2.8352  2.2621
 5898TIP3    H217659   6.319   6.382   1.507 -0.0413 -0.9643  0.0122
 5899TIP3   OH217660   1.314   6.003   4.441 -0.2903  0.0761  0.6937
 5899TIP3    H117661   1.368   6.026   4.365 -3.0180  2.1062 -0.7981
 5899TIP3    H217662   1.338   6.067   4.508 -0.5287  0.7084  0.1844
 5900TIP3   OH217663   2.375   2.804   1.158  0.0715  0.1629 -0.7934
 5900TIP3    H117664   2.321   2.745   1.106 -0.8601  1.2215 -1.0590
 5900TIP3    H217665   2.360   2.890   1.121  1.5124  0.5692 -0.4899
 5901TIP3   OH217666   0.830   4.410   2.632 -0.2700 -0.0706  0.0034
 5901TIP3    H117667   0.750   4.361   2.649  0.0939 -1.1962 -1.2981
 5901TIP3    H217668   0.826   4.432   2.538  0.5436  0.6007  0.1068
 5902TIP3   OH217669   0.673   5.972   0.840  0.2145 -0.4037 -0.5468
 5902TIP3    H117670   0.672   6.053   0.787  2.5139 -1.5977 -2.6246
 5902TIP3    H217671   0.693   6.002   0.928  1.1184  1.3442 -1.2816
 5903TIP3   OH217672   4.347   3.119   2.308  0.3019  0.0031  0.2291
 5903TIP3    H117673   4.397   3.040   2.330 -1.1828 -0.9853  0.1687
 5903TIP3    H217674   4.414   3.187   2.299  1.5342 -0.9866  1.3563
 5904TIP3   OH217675   6.196   4.921   0.611  0.0050  0.3698 -0.7829
 5904TIP3    H117676   6.193   4.996   0.670 -0.6514  0.8698 -1.4265
 5904TIP3    H217677   6.228   4.848   0.665 -0.9294  0.7200  0.2722
 5905TIP3   OH217678   0.108   0.496   0.125 -0.4288 -0.3016 -0.4977
 5905TIP3    H117679   0.193   0.530   0.096  0.0304 -2.1265 -1.4050
 5905TIP3    H217680   0.067   0.571   0.169  0.9700  1.0875 -1.4291
 5906TIP3   OH217681   6.624   1.350   1.939 -0.1796 -0.8814  0.0940
 5906TIP3    H117682   6.712   1.315   1.925 -0.9963 -3.2735  0.3260
 5906TIP3    H217683   6.623   1.380   2.030  0.3274 -1.0679  0.1609
 5907TIP3   OH217684   2.025   1.189   1.075  0.3881  0.2659 -0.5720
 5907TIP3    H117685   2.001   1.133   1.001  0.0342 -0.3562  0.0135
 5907TIP3    H217686   2.121   1.186   1.077  0.3786 -0.1483 -0.6743
 5908TIP3   OH217687   2.390   1.785   1.220 -0.1055 -0.1782 -0.0703
 5908TIP3    H117688   2.394   1.865   1.273  1.6593 -0.3424  0.1179
 5908TIP3    H217689   2.300   1.753   1.231 -0.6122  1.3472  0.4769
 5909TIP3   OH217690   4.244   1.535   0.856 -0.2130 -0.8023  0.4623
 5909TIP3    H117691   4.176   1.569   0.798  0.3710  0.1594  0.3154
 5909TIP3    H217692   4.205   1.536   0.943  0.4793  2.4386  0.8503
 5910TIP3   OH217693   3.623   5.988   1.725 -0.2145 -0.5168 -0.2199
 5910TIP3    H117694   3.539   6.027   1.700  0.9429  0.3366 -3.1169
 5910TIP3    H217695   3.654   5.944   1.646  1.3174 -2.3499  1.2719
 5911TIP3   OH217696   4.614   5.743   1.321 -0.5422  0.0263 -0.5648
 5911TIP3    H117697   4.601   5.676   1.387  1.4492  0.4854  0.3652
 5911TIP3    H217698   4.532   5.793   1.320 -0.1070  1.0150  2.7646
 5912TIP3   OH217699   6.474   5.518   4.222 -0.2493  0.1158 -0.5673
 5912TIP3    H117700   6.398   5.521   4.281  0.6400 -2.0216  0.7926
 5912TIP3    H217701   6.456   5.446   4.162  1.0247 -0.9842  0.3110
 5913TIP3   OH217702   6.807   2.701   4.212 -0.2065  0.3322  0.0997
 5913TIP3    H117703   6.828   2.655   4.293  1.2507 -1.0080 -0.9863
 5913TIP3    H217704   6.889   2.742   4.185 -0.4487  0.0497 -1.1228
 5914TIP3   OH217705   6.967   2.464   4.770  0.4478  0.4782 -0.0775
 5914TIP3    H117706   6.872   2.466   4.758  0.3928  0.0730  0.2836
 5914TIP3    H217707   6.984   2.381   4.814  1.0213  0.3204 -0.5802
 5915TIP3   OH217708   2.353   5.990   3.363 -0.2479  0.1790 -0.1942
 5915TIP3    H117709   2.395   5.935   3.429  0.3244 -0.6303 -1.2012
 5915TIP3    H217710   2.265   5.953   3.354 -0.2030  0.0580 -0.1389
 5916TIP3   OH217711   2.600   6.645   3.782 -0.1517  1.0574  0.2159
 5916TIP3    H117712   2.678   6.698   3.767 -0.5411  1.3474 -0.9134
 5916TIP3    H217713   2.564   6.631   3.694  0.9139 -2.6028  0.1807
 5917TIP3   OH217714   2.172   5.126   2.430 -0.0635 -0.1957 -0.9836
 5917TIP3    H117715   2.235   5.193   2.455 -0.8640  0.7052 -1.3228
 5917TIP3    H217716   2.125   5.164   2.356 -0.6295 -1.0800 -1.0931
 5918TIP3   OH217717   6.964   5.781   1.900  0.2607 -1.1979 -0.0375
 5918TIP3    H117718   6.941   5.863   1.855  0.1389 -0.6845  0.9271
 5918TIP3    H217719   7.058   5.788   1.914  0.5038 -1.8851 -1.2198
 5919TIP3   OH217720   6.884   4.120   2.244  0.4274  0.2600 -0.2821
 5919TIP3    H117721   6.938   4.199   2.238 -0.5301  0.9345 -0.3143
 5919TIP3    H217722   6.811   4.146   2.300  0.2402 -0.6949 -0.0721
 5920TIP3   OH217723   6.735   0.768   3.366  0.7467 -0.1098  0.4314
 5920TIP3    H117724   6.772   0.712   3.298  0.0986  0.1188 -0.1283
 5920TIP3    H217725   6.755   0.724   3.448 -2.1272 -2.6492 -0.0846
 5921TIP3   OH217726   5.727   2.307   1.457 -0.1707  0.1745 -0.3816
 5921TIP3    H117727   5.632   2.301   1.467 -0.0882 -0.3316  0.1163
 5921TIP3    H217728   5.754   2.218   1.435 -0.0709  0.7500 -2.8698
 5922TIP3   OH217729   2.873   4.634   2.242  0.2555 -0.0530 -0.3522
 5922TIP3    H117730   2.938   4.582   2.194  1.4259  1.2966 -0.3059
 5922TIP3    H217731   2.816   4.670   2.175 -1.3731 -2.3352 -0.3102
 5923TIP3   OH217732   5.343   5.985   3.390  0.5730  0.2576  0.1755
 5923TIP3    H117733   5.372   6.009   3.302  1.1741 -0.2572  0.2220
 5923TIP3    H217734   5.248   5.994   3.388  0.2247 -2.6678 -1.4894
 5924TIP3   OH217735   0.770   6.258   5.131 -0.0347  0.7841 -0.6678
 5924TIP3    H117736   0.804   6.229   5.215 -1.5808 -1.0714 -0.6042
 5924TIP3    H217737   0.839   6.235   5.068 -0.2875 -1.1152 -0.3106
 5925TIP3   OH217738   3.881   3.445   1.496  0.4458 -0.0284  0.0011
 5925TIP3    H117739   3.900   3.529   1.454  0.3121  0.8289  1.6152
 5925TIP3    H217740   3.961   3.422   1.542  0.7906 -1.2641 -1.1227
 5926TIP3   OH217741   0.378   4.182   5.741  0.2164 -0.1212  0.1412
 5926TIP3    H117742   0.469   4.164   5.764  0.4142  1.5711  0.8208
 5926TIP3    H217743   0.370   4.150   5.651  1.5809 -0.0340 -0.0389
 5927TIP3   OH217744   3.203   2.140   0.907 -0.1796  0.5719  0.2007
 5927TIP3    H117745   3.145   2.088   0.962  0.7662  0.7545  1.4319
 5927TIP3    H217746   3.146   2.203   0.863 -0.9254  0.6647  1.2727
 5928TIP3   OH217747   2.988   1.400   1.834  0.0111  0.5205 -0.1609
 5928TIP3    H117748   2.918   1.343   1.866 -0.1564  0.3904 -0.7438
 5928TIP3    H217749   2.990   1.385   1.739  0.1176  1.3133 -0.2943
 5929TIP3   OH217750   4.750   5.589   5.708  1.1566  0.0619  0.0853
 5929TIP3    H117751   4.758   5.554   5.797  0.0831 -1.6971 -0.4611
 5929TIP3    H217752   4.667   5.637   5.708  0.5447 -0.9743 -0.2704
 5930TIP3   OH217753   1.120   5.136   0.050  0.0475 -0.0439 -0.4791
 5930TIP3    H117754   1.129   5.172   0.138 -2.9308  0.2403 -0.2043
 5930TIP3    H217755   1.126   5.213  -0.008 -2.2904  0.4399 -0.1643
 5931TIP3   OH217756   5.627   5.975   1.201  0.3972  0.7924 -0.2651
 5931TIP3    H117757   5.656   6.060   1.232 -0.2647  0.6863  0.6744
 5931TIP3    H217758   5.537   5.966   1.232  0.3241 -0.0858 -0.6757
 5932TIP3   OH217759   5.653   6.492   2.809  0.4128 -0.3828 -0.2953
 5932TIP3    H117760   5.656   6.496   2.904 -1.6197  3.3771 -0.1930
 5932TIP3    H217761   5.739   6.525   2.781  0.7044 -0.6711  0.2555
 5933TIP3   OH217762   2.118   2.085   0.995 -0.3600  0.6682 -0.2676
 5933TIP3    H117763   2.052   2.042   0.942  1.0680 -0.8765 -0.8939
 5933TIP3    H217764   2.193   2.096   0.936  0.4054  1.1494  0.7632
 5934TIP3   OH217765   0.332   0.959   4.290 -0.0862  0.0402 -0.2961
 5934TIP3    H117766   0.279   0.927   4.218 -0.0148  0.4650 -0.5411
 5934TIP3    H217767   0.366   1.043   4.259  0.2827  0.0276  0.0695
 5935TIP3   OH217768   5.092   0.282   3.717  0.9735  0.6789  0.1717
 5935TIP3    H117769   5.011   0.256   3.672  0.6711 -2.0104  2.0096
 5935TIP3    H217770   5.162   0.247   3.662  0.6886 -0.6452  0.6157
 5936TIP3   OH217771   3.049   3.824   1.022  0.1155  0.4518 -0.0843
 5936TIP3    H117772   3.078   3.767   1.093 -1.2599 -1.5292 -1.0196
 5936TIP3    H217773   3.124   3.829   0.962  0.2090 -0.5121 -0.0575
 5937TIP3   OH217774   4.345   4.974   4.489 -0.5453  0.1871  0.1724
 5937TIP3    H117775   4.347   4.884   4.457  1.2089 -0.6270  2.3030
 5937TIP3    H217776   4.358   5.028   4.410  0.1661 -1.5064 -0.9295
 5938TIP3   OH217777   6.035   0.706   1.461  0.3089 -0.5201  0.3637
 5938TIP3    H117778   6.074   0.624   1.493  0.2437 -0.8318 -0.3395
 5938TIP3    H217779   6.066   0.713   1.370  3.5738  2.2062  1.4462
 5939TIP3   OH217780   3.763   1.737   2.171  0.0218  0.2891  0.0391
 5939TIP3    H117781   3.741   1.674   2.102 -0.1410 -0.6818  0.9487
 5939TIP3    H217782   3.856   1.723   2.187  0.3786  1.4383 -0.8700
 5940TIP3   OH217783   6.263   5.830   1.195  0.1919 -0.0047 -0.4001
 5940TIP3    H117784   6.328   5.764   1.221  0.7168  0.1875 -1.1897
 5940TIP3    H217785   6.283   5.906   1.248  0.2481 -0.1356 -0.2332
 5941TIP3   OH217786   1.240   5.293   1.636 -0.5009 -0.4065  0.1311
 5941TIP3    H117787   1.150   5.328   1.640 -0.7471 -0.5785 -2.2594
 5941TIP3    H217788   1.228   5.199   1.627 -0.0699 -0.4570  0.0991
 5942TIP3   OH217789   6.756   0.758   4.280  0.5689  0.1728 -0.0682
 5942TIP3    H117790   6.836   0.735   4.232  0.3218 -0.8160 -0.0407
 5942TIP3    H217791   6.725   0.838   4.239  1.0836  0.0665 -0.6882
 5943TIP3   OH217792   0.225   4.645   0.805 -0.7520 -0.3335  0.0290
 5943TIP3    H117793   0.287   4.692   0.750 -1.2426 -2.1734 -2.2818
 5943TIP3    H217794   0.278   4.582   0.853 -0.6271 -0.8120 -0.7238
 5944TIP3   OH217795   3.682   0.966   0.498 -0.4900 -0.2388  0.0342
 5944TIP3    H117796   3.673   0.955   0.593  0.0429 -0.8470  0.0219
 5944TIP3    H217797   3.731   0.889   0.470 -0.1505  0.2194 -0.6551
 5945TIP3   OH217798   3.225   0.317   3.756 -0.1245  0.1211  0.2567
 5945TIP3    H117799   3.169   0.353   3.688  1.8139  0.8925 -1.0302
 5945TIP3    H217800   3.254   0.392   3.807 -2.2148 -0.5200  2.5933
 5946TIP3   OH217801   3.017   1.528   3.775  0.0662 -0.0871 -0.6848
 5946TIP3    H117802   2.985   1.499   3.690  0.1443  1.8438 -1.4214
 5946TIP3    H217803   3.093   1.583   3.755  0.0488  0.4506  0.6168
 5947TIP3   OH217804   5.065   0.110   2.894  0.6102 -0.0275  0.3395
 5947TIP3    H117805   5.136   0.046   2.885  0.4237 -0.1939  0.0038
 5947TIP3    H217806   5.109   0.192   2.915  0.8008 -0.4051  1.4810
 5948TIP3   OH217807   5.944   4.750   2.496 -0.3738 -0.0150  0.0404
 5948TIP3    H117808   6.004   4.800   2.551  0.6542 -0.7686 -0.3659
 5948TIP3    H217809   6.000   4.692   2.445 -1.3903 -0.1435 -0.9790
 5949TIP3   OH217810   7.112   3.392   1.540  0.1030 -0.4006 -0.1390
 5949TIP3    H117811   7.200   3.354   1.542  0.5511  0.6244  0.7051
 5949TIP3    H217812   7.127   3.486   1.524 -0.6527  0.1943  2.2147
 5950TIP3   OH217813   1.111   1.360   1.262  0.2207 -0.0321 -0.5916
 5950TIP3    H117814   1.184   1.387   1.206  0.9007 -1.4463 -0.4289
 5950TIP3    H217815   1.037   1.352   1.202  0.1141  1.5766 -0.7293
 5951TIP3   OH217816   4.461   4.517   3.851  0.1355  0.3731  0.6363
 5951TIP3    H117817   4.545   4.478   3.829 -0.2342 -0.7356  1.0947
 5951TIP3    H217818   4.422   4.538   3.766 -0.0962 -1.2813  0.2873
 5952TIP3   OH217819   5.975   1.397   3.374 -0.5735  0.0992  0.2496
 5952TIP3    H117820   5.941   1.486   3.384  0.4456  0.6707 -1.0592
 5952TIP3    H217821   5.918   1.343   3.430 -1.0146  1.6009  1.3190
 5953TIP3   OH217822   4.857   2.621   4.285  0.7193  0.0922 -0.2624
 5953TIP3    H117823   4.887   2.711   4.269 -0.1346  1.0037  2.6394
 5953TIP3    H217824   4.934   2.576   4.319  0.4289  0.6319  1.1696
 5954TIP3   OH217825   4.614   3.499   4.700  0.9855 -0.4372 -0.6980
 5954TIP3    H117826   4.592   3.426   4.757  0.2932  0.0188 -0.3662
 5954TIP3    H217827   4.667   3.460   4.630 -1.3442 -1.7167 -1.8513
 5955TIP3   OH217828   4.080   2.586   5.309  0.1073  0.4928 -0.1799
 5955TIP3    H117829   4.064   2.602   5.402  0.8061 -1.4833  0.3385
 5955TIP3    H217830   4.003   2.536   5.280  0.6478 -0.3318 -0.2209
 5956TIP3   OH217831   2.191   2.476   4.606  0.0727 -0.1565 -0.0389
 5956TIP3    H117832   2.104   2.443   4.631  1.5450 -4.0526  0.6671
 5956TIP3    H217833   2.216   2.533   4.679 -1.7989  0.9753 -0.2174
 5957TIP3   OH217834   0.273   4.290   1.428 -0.1582  0.2004 -0.2169
 5957TIP3    H117835   0.268   4.259   1.518 -1.1098 -1.6939 -0.8701
 5957TIP3    H217836   0.321   4.222   1.381 -0.9256  0.4433 -1.4104
 5958TIP3   OH217837   5.942   6.494   1.951 -0.0941 -0.1401  0.0911
 5958TIP3    H117838   5.932   6.572   2.006  0.3705  0.9710 -1.3165
 5958TIP3    H217839   6.005   6.440   1.997  1.8842  1.7082 -0.2659
 5959TIP3   OH217840   0.381   2.621   1.291  0.2830 -0.0524 -0.1943
 5959TIP3    H117841   0.405   2.706   1.329  0.0465  0.1821 -0.5665
 5959TIP3    H217842   0.346   2.642   1.204 -1.3231 -0.3687  0.3349
 5960TIP3   OH217843   2.392   3.373   5.649 -0.0388  0.0390 -0.4795
 5960TIP3    H117844   2.456   3.313   5.611  1.0204  0.3615  0.6965
 5960TIP3    H217845   2.403   3.454   5.600  1.6983  0.6218  0.7514
 5961TIP3   OH217846   5.307   5.749   4.797 -0.0276 -0.3473 -0.3443
 5961TIP3    H117847   5.360   5.713   4.726 -1.3015  0.7224 -1.8920
 5961TIP3    H217848   5.253   5.676   4.826  0.2669 -0.7084 -0.6830
 5962TIP3   OH217849   4.658   5.512   3.169 -0.1302 -0.1867  0.8358
 5962TIP3    H117850   4.750   5.519   3.192 -0.1137  0.2374  0.6574
 5962TIP3    H217851   4.653   5.435   3.112 -0.1061 -0.9773  1.8762
 5963TIP3   OH217852   3.843   2.405   0.966  0.0055 -0.0607  0.7177
 5963TIP3    H117853   3.852   2.329   0.908  0.6731 -0.1207  0.8959
 5963TIP3    H217854   3.918   2.461   0.944  0.7795 -0.4957  2.1216
 5964TIP3   OH217855   1.760   0.889   0.211 -0.6197 -0.3778 -0.1327
 5964TIP3    H117856   1.699   0.960   0.231  2.6130  2.3547  0.8426
 5964TIP3    H217857   1.703   0.817   0.183 -4.2989  1.6667  1.2927
 5965TIP3   OH217858   3.514   2.862   1.144 -0.3102 -0.0896 -0.2521
 5965TIP3    H117859   3.550   2.923   1.209 -1.7391  0.4670  0.0760
 5965TIP3    H217860   3.503   2.780   1.192  0.5029 -0.2655 -0.3588
 5966TIP3   OH217861   4.275   0.307   2.818  0.2808  0.3412 -0.4450
 5966TIP3    H117862   4.334   0.237   2.792  0.6308  0.1477  0.7966
 5966TIP3    H217863   4.208   0.263   2.870  0.0390  0.8111 -0.3526
 5967TIP3   OH217864   5.202   4.533   0.388  0.2709  0.2179  0.4054
 5967TIP3    H117865   5.199   4.440   0.363 -1.0325  0.7285 -1.6289
 5967TIP3    H217866   5.287   4.544   0.430  0.8141 -1.7303 -0.0820
 5968TIP3   OH217867   2.261   5.796   2.540 -0.4253 -0.0870 -0.0535
 5968TIP3    H117868   2.190   5.734   2.526 -2.4856  2.0797  0.3208
 5968TIP3    H217869   2.224   5.881   2.517  1.1379  1.4987  2.8151
 5969TIP3   OH217870   1.238   5.656   4.527  0.6004 -0.0655  0.2740
 5969TIP3    H117871   1.177   5.680   4.457  0.5401 -0.8243  0.0672
 5969TIP3    H217872   1.214   5.714   4.600 -2.7392 -2.6122  1.4569
 5970TIP3   OH217873   5.835   2.561   2.474  0.5045  0.0082 -0.3984
 5970TIP3    H117874   5.871   2.532   2.558  2.5957 -2.3384 -1.9669
 5970TIP3    H217875   5.885   2.639   2.452  0.8592 -0.1149 -0.0417
 5971TIP3   OH217876   2.075   1.142   3.863 -0.3434 -0.0556 -0.7048
 5971TIP3    H117877   2.049   1.156   3.772 -1.5258 -1.0954 -0.5662
 5971TIP3    H217878   2.119   1.223   3.889  0.1842  0.1814 -2.2487
 5972TIP3   OH217879   1.911   3.126   0.148  0.4482 -0.1694  0.1510
 5972TIP3    H117880   1.821   3.132   0.180  1.2138  0.9738  2.3352
 5972TIP3    H217881   1.910   3.170   0.064 -0.8443  0.7911  0.6267
 5973TIP3   OH217882   4.794   5.278   2.984  0.4510  0.0924  0.2553
 5973TIP3    H117883   4.876   5.243   2.950  0.7270  1.1524 -0.2156
 5973TIP3    H217884   4.731   5.207   2.973  1.0663 -0.3605 -0.3819
 5974TIP3   OH217885   0.365   5.470   4.053 -0.1556 -0.1947  0.6173
 5974TIP3    H117886   0.387   5.403   3.988 -1.3771  0.1930 -0.2308
 5974TIP3    H217887   0.421   5.544   4.030  0.9789 -0.7885  1.3708
 5975TIP3   OH217888   6.406   3.202   0.262  0.2906  0.4665  0.0253
 5975TIP3    H117889   6.472   3.270   0.279 -0.0509  0.8374 -0.1301
 5975TIP3    H217890   6.369   3.226   0.177  1.2741 -0.8064 -0.8077
 5976TIP3   OH217891   5.324   0.317   0.816  0.0406  0.3224 -0.5458
 5976TIP3    H117892   5.246   0.339   0.867  0.3151 -2.8459  1.4492
 5976TIP3    H217893   5.348   0.229   0.844  3.2231  0.3959 -2.5433
 5977TIP3   OH217894   3.346   2.945   1.513 -0.4572 -0.2329 -0.4602
 5977TIP3    H117895   3.357   3.036   1.486 -1.3626  0.0267 -0.0088
 5977TIP3    H217896   3.253   2.938   1.536 -0.2307 -1.0734  0.2541
 5978TIP3   OH217897   6.535   0.821   2.709 -0.2878 -0.1117 -0.0265
 5978TIP3    H117898   6.486   0.841   2.789  2.3297  0.4712  1.5193
 5978TIP3    H217899   6.583   0.741   2.729 -1.0630 -1.0722 -1.7712
 5979TIP3   OH217900   3.322   4.646   4.838  0.2800 -0.1190 -0.0716
 5979TIP3    H117901   3.273   4.616   4.915  0.6484  0.3667  0.3581
 5979TIP3    H217902   3.260   4.640   4.766 -0.5908  1.0119  0.5546
 5980TIP3   OH217903   6.667   4.288   3.719 -0.2838  0.1905 -0.5083
 5980TIP3    H117904   6.602   4.325   3.779 -0.9420 -0.8282 -0.5824
 5980TIP3    H217905   6.649   4.330   3.635 -0.6712  0.1188 -0.4639
 5981TIP3   OH217906   4.436   1.016   5.279 -0.0495  0.6147  0.2398
 5981TIP3    H117907   4.448   0.936   5.227  0.4365  1.2337 -0.6288
 5981TIP3    H217908   4.341   1.026   5.286 -0.2313 -1.7532  3.1146
 5982TIP3   OH217909   6.477   5.777   5.381  0.2543  0.1659 -1.0024
 5982TIP3    H117910   6.482   5.764   5.476  1.2729 -1.5313 -1.2509
 5982TIP3    H217911   6.426   5.702   5.350 -0.5205  0.9900 -1.7666
 5983TIP3   OH217912   1.643   3.607   4.565 -0.7825  0.4634  0.3574
 5983TIP3    H117913   1.599   3.636   4.486  0.0001  1.7555  0.3739
 5983TIP3    H217914   1.581   3.546   4.606 -0.3649 -1.9174 -2.2740
 5984TIP3   OH217915   3.332   5.573   3.928  0.3425  1.1139  0.4928
 5984TIP3    H117916   3.308   5.587   4.020 -0.8810  0.9199  0.2139
 5984TIP3    H217917   3.261   5.613   3.878 -0.2469 -0.8656 -0.3511
 5985TIP3   OH217918   3.645   6.520   0.666 -0.5097  0.1880 -0.1342
 5985TIP3    H117919   3.737   6.494   0.665 -0.6987 -0.5071 -1.4128
 5985TIP3    H217920   3.630   6.553   0.755  1.1344  0.9618 -0.1140
 5986TIP3   OH217921   6.093   6.257   4.310 -0.8255  0.4846 -0.4031
 5986TIP3    H117922   6.015   6.251   4.254 -0.4196 -1.2612 -0.8586
 5986TIP3    H217923   6.162   6.289   4.251 -0.9827  1.1519 -0.2299
 5987TIP3   OH217924   7.043   2.985   3.011  0.1711  0.2895  0.5514
 5987TIP3    H117925   7.126   3.033   3.006  0.0520  0.6608  1.6897
 5987TIP3    H217926   7.066   2.904   3.057  0.4864 -1.0709 -1.8761
 5988TIP3   OH217927   5.926   5.085   4.764 -0.5275  0.5599 -0.2430
 5988TIP3    H117928   6.015   5.054   4.781 -1.6257 -1.8353  1.7488
 5988TIP3    H217929   5.884   5.013   4.716 -1.6679  1.2524 -0.3258
 5989TIP3   OH217930   6.470   5.585   3.177  0.5252 -0.4981 -0.0971
 5989TIP3    H117931   6.446   5.557   3.088  0.3149  0.2015 -0.2718
 5989TIP3    H217932   6.554   5.543   3.193 -0.1276 -1.8393 -0.0407
 5990TIP3   OH217933   4.590   4.182   3.589  0.2887  0.4328 -0.2454
 5990TIP3    H117934   4.626   4.174   3.501  1.6221  0.7231  0.2426
 5990TIP3    H217935   4.525   4.113   3.596  0.6946 -0.0506 -1.2123
 5991TIP3   OH217936   4.877   4.357   1.054 -0.0522  0.0209 -0.0511
 5991TIP3    H117937   4.895   4.323   0.967  1.9826  0.0247  0.3239
 5991TIP3    H217938   4.826   4.288   1.097 -1.1899  0.0768 -1.2594
 5992TIP3   OH217939   5.466   2.258   1.457  0.0735 -0.3159 -0.2436
 5992TIP3    H117940   5.378   2.296   1.454  0.3318  0.3359  0.1121
 5992TIP3    H217941   5.454   2.167   1.431 -0.7343 -0.2889  0.0036
 5993TIP3   OH217942   4.029   4.564   3.114 -0.4643  0.6442 -0.2565
 5993TIP3    H117943   4.004   4.655   3.124 -1.6324  0.4656 -1.3438
 5993TIP3    H217944   4.110   4.567   3.063  0.2609  1.0951  0.8588
 5994TIP3   OH217945   0.023   1.886   0.030  0.2759  1.0255 -0.1548
 5994TIP3    H117946   0.021   1.869   0.124 -0.4388  1.2563 -0.1203
 5994TIP3    H217947   0.115   1.876   0.006  0.3281  0.0656  0.3926
 5995TIP3   OH217948   6.350   0.299   2.161  0.1031  0.4119 -0.2881
 5995TIP3    H117949   6.330   0.248   2.083 -1.2101  1.3920 -0.6340
 5995TIP3    H217950   6.420   0.359   2.134  1.0573 -0.5916 -0.1156
 5996TIP3   OH217951   5.334   2.055   5.375 -0.6875  0.4073 -0.5765
 5996TIP3    H117952   5.406   2.118   5.387 -0.1816 -0.2102 -0.3219
 5996TIP3    H217953   5.302   2.039   5.464 -2.8370  2.5799 -0.8434
 5997TIP3   OH217954   5.515   6.398   1.275 -0.1084 -0.0514 -0.4052
 5997TIP3    H117955   5.477   6.330   1.331  0.3555  0.0659  0.0520
 5997TIP3    H217956   5.582   6.352   1.224  1.8211  0.4825  1.5339
 5998TIP3   OH217957   1.213   2.162   1.422 -0.5311 -0.4340  0.0945
 5998TIP3    H117958   1.290   2.167   1.365 -1.5854  0.1869 -1.3404
 5998TIP3    H217959   1.176   2.251   1.420 -0.4995 -0.3441  1.9320
 5999TIP3   OH217960   0.788   1.905   4.002 -0.3796  0.6282  0.0364
 5999TIP3    H117961   0.869   1.857   4.016 -0.8657  0.3593  2.2865
 5999TIP3    H217962   0.813   1.997   4.001  0.0766  0.5007 -0.3935
 6000TIP3   OH217963   1.030   1.632   3.438  0.4157 -0.1273  0.4652
 6000TIP3    H117964   1.043   1.640   3.533 -0.9546 -0.2888  0.6757
 6000TIP3    H217965   0.992   1.716   3.413  0.0662 -0.3761  0.1747
 6001TIP3   OH217966   6.653   0.904   4.744 -0.4725 -0.1312 -0.3045
 6001TIP3    H117967   6.727   0.877   4.690 -0.3244 -0.9603  0.3033
 6001TIP3    H217968   6.605   0.824   4.762 -0.3496  0.0759  1.0462
 6002TIP3   OH217969   5.961   6.034   0.422 -0.0048 -0.2779 -0.0627
 6002TIP3    H117970   5.915   5.951   0.411  0.7004 -1.0686  2.2944
 6002TIP3    H217971   6.027   6.034   0.352  2.1375 -3.3388  1.6894
 6003TIP3   OH217972   0.176   0.229   2.102  0.3547  0.1038 -0.0056
 6003TIP3    H117973   0.206   0.265   2.019 -0.8346  0.6769 -0.2134
 6003TIP3    H217974   0.187   0.134   2.093 -1.8861 -0.0792 -1.7462
 6004TIP3   OH217975   6.812   6.199   4.597 -0.1552 -0.1793  0.1238
 6004TIP3    H117976   6.728   6.237   4.574  0.4559  1.7759  0.9410
 6004TIP3    H217977   6.868   6.215   4.520 -0.1037 -0.0769  0.1818
 6005TIP3   OH217978   4.697   5.666   0.425 -0.2552  0.0941 -0.2301
 6005TIP3    H117979   4.672   5.710   0.343 -0.1321  0.1583 -0.2341
 6005TIP3    H217980   4.685   5.733   0.492 -0.0609  0.1376 -0.2368
 6006TIP3   OH217981   3.525   5.398   0.592  0.0564 -0.4613 -0.6533
 6006TIP3    H117982   3.496   5.489   0.585 -1.1575 -0.5181  2.2468
 6006TIP3    H217983   3.621   5.404   0.598 -0.0959  0.8440  1.2975
 6007TIP3   OH217984   0.742   1.132   4.806  0.3657 -0.3334 -0.3341
 6007TIP3    H117985   0.716   1.047   4.770 -0.1203 -0.9843  1.4278
 6007TIP3    H217986   0.764   1.185   4.730  1.5232 -2.3067 -1.4595
 6008TIP3   OH217987   3.429   2.598   4.691 -0.2092 -0.0616 -0.1666
 6008TIP3    H117988   3.422   2.503   4.696  1.7530 -0.1814  2.1873
 6008TIP3    H217989   3.495   2.613   4.623  1.1084 -0.5434  0.9667
 6009TIP3   OH217990   6.540   1.246   0.510 -0.4860 -0.5890 -0.2913
 6009TIP3    H117991   6.486   1.304   0.457 -0.8208 -0.4811  0.1669
 6009TIP3    H217992   6.630   1.268   0.486 -0.4112  2.4815  2.2539
 6010TIP3   OH217993   5.916   6.374   3.281 -0.1173  0.0979 -0.2840
 6010TIP3    H117994   5.990   6.314   3.272 -0.8443 -0.9955  0.7562
 6010TIP3    H217995   5.929   6.439   3.212  2.2573  0.4309  0.3913
 6011TIP3   OH217996   2.323   2.759   3.140 -0.0647 -0.3651  0.3389
 6011TIP3    H117997   2.340   2.689   3.077 -1.4642 -0.2444 -0.2180
 6011TIP3    H217998   2.261   2.721   3.202 -0.4764  0.2349  0.3001
 6012TIP3   OH217999   3.440   0.289   0.675 -0.1340 -0.2518  0.2791
 6012TIP3    H118000   3.470   0.378   0.659  0.4096 -0.2682  1.0886
 6012TIP3    H218001   3.346   0.297   0.689 -0.3715 -0.0481 -1.3037
 6013TIP3   OH218002   3.102   4.414   0.189 -0.3649 -0.6932 -0.6167
 6013TIP3    H118003   3.152   4.415   0.270 -0.7004 -0.2699 -0.4097
 6013TIP3    H218004   3.011   4.407   0.217 -0.6643  1.4759 -0.8420
 6014TIP3   OH218005   5.948   5.220   2.236  0.6242 -0.3916  0.2056
 6014TIP3    H118006   5.904   5.246   2.155  0.3011 -3.2922 -0.6673
 6014TIP3    H218007   6.039   5.248   2.225  0.8879 -1.7729 -1.7912
 6015TIP3   OH218008   0.926   6.031   2.860 -0.0227 -0.2015 -0.1094
 6015TIP3    H118009   0.874   5.970   2.912 -0.0004  0.2248  0.4183
 6015TIP3    H218010   0.994   5.976   2.821 -0.2098 -0.5733  0.0834
 6016TIP3   OH218011   7.157   1.810   3.212  0.4983  0.4395  0.2948
 6016TIP3    H118012   7.129   1.788   3.301  1.1333 -3.1898 -0.2226
 6016TIP3    H218013   7.077   1.802   3.160  0.6814 -0.6281  0.1462
 6017TIP3   OH218014   4.989   5.239   2.748 -0.3050 -0.5365  0.4423
 6017TIP3    H118015   5.046   5.178   2.795 -0.4097 -1.2237 -0.2894
 6017TIP3    H218016   5.049   5.301   2.707 -0.0203 -1.4739 -0.6281
 6018TIP3   OH218017   1.338   6.073   3.809 -0.7261 -0.3878  0.1018
 6018TIP3    H118018   1.265   6.122   3.772  0.0137 -0.2083 -1.1706
 6018TIP3    H218019   1.402   6.140   3.834 -0.5956 -0.5993  0.3422
 6019TIP3   OH218020   4.315   2.299   3.591  0.0813 -0.0424  0.5488
 6019TIP3    H118021   4.251   2.227   3.588  1.0249 -0.8974 -1.0953
 6019TIP3    H218022   4.271   2.370   3.637 -2.5120 -0.1924 -1.4928
 6020TIP3   OH218023   1.237   0.882   3.904 -0.1737 -0.0804 -0.4244
 6020TIP3    H118024   1.185   0.802   3.910  0.3208 -0.3572  0.4027
 6020TIP3    H218025   1.231   0.908   3.812  1.1837 -2.1120 -1.1674
 6021TIP3   OH218026   5.489   3.660   0.068  0.0216 -0.1900  0.0507
 6021TIP3    H118027   5.554   3.706   0.120 -1.4305 -0.7719  2.5204
 6021TIP3    H218028   5.508   3.685  -0.023  2.3591  1.2372  0.8705
 6022TIP3   OH218029   5.123   6.631   2.524 -0.0954 -0.0929 -0.2509
 6022TIP3    H118030   5.050   6.574   2.500  1.1012 -1.5447 -0.5879
 6022TIP3    H218031   5.187   6.621   2.452  0.8023  0.4735  0.4402
 6023TIP3   OH218032   6.083   2.715   4.014 -0.5791 -0.4919 -0.1960
 6023TIP3    H118033   6.117   2.691   3.928  1.2284  1.1367  0.0038
 6023TIP3    H218034   5.990   2.735   3.999  0.2196  2.1234 -2.2937
 6024TIP3   OH218035   2.974   4.892   3.248 -0.3723  0.1529 -0.0285
 6024TIP3    H118036   2.943   4.955   3.183  1.4248 -0.2942 -1.3714
 6024TIP3    H218037   3.005   4.946   3.321  0.9410  0.8425 -1.0657
 6025TIP3   OH218038   1.549   4.480   1.488  0.2139 -0.0612  0.3554
 6025TIP3    H118039   1.628   4.491   1.435  1.1796 -1.2628  1.4962
 6025TIP3    H218040   1.573   4.415   1.554 -2.4066 -2.1885 -0.6217
 6026TIP3   OH218041   5.495   4.784   1.656 -0.2850  0.2796 -0.1073
 6026TIP3    H118042   5.469   4.699   1.621 -1.9732  0.5102  0.4925
 6026TIP3    H218043   5.569   4.811   1.602  0.3591 -1.6097 -0.2269
 6027TIP3   OH218044   3.302   3.609   0.097 -0.7337 -0.3039 -0.0116
 6027TIP3    H118045   3.227   3.608   0.037 -1.0240 -1.0476  0.3435
 6027TIP3    H218046   3.264   3.587   0.182 -0.1016 -0.7602  0.1575
 6028TIP3   OH218047   1.144   3.527   5.110 -0.3653 -0.2145 -0.1574
 6028TIP3    H118048   1.103   3.606   5.144  1.3582  0.0415  1.4570
 6028TIP3    H218049   1.164   3.548   5.019 -1.1161  0.7021 -0.1301
 6029TIP3   OH218050   5.808   2.685   3.661 -0.2945 -0.1032 -0.0540
 6029TIP3    H118051   5.885   2.632   3.643  0.1533  0.7803 -0.8583
 6029TIP3    H218052   5.734   2.628   3.641  0.1683 -0.5740 -0.4303
 6030TIP3   OH218053   3.113   6.211   5.809  0.1765  0.8830  0.0271
 6030TIP3    H118054   3.084   6.122   5.788  0.2004  1.2235 -1.5883
 6030TIP3    H218055   3.035   6.265   5.795  0.1181  1.1135  1.1607
 6031TIP3   OH218056   6.748   2.101   1.051 -0.3601  0.5854 -0.3103
 6031TIP3    H118057   6.752   2.196   1.037  2.0908  0.5486 -0.3629
 6031TIP3    H218058   6.664   2.075   1.014 -1.7390  2.9079  0.9451
 6032TIP3   OH218059   2.676   2.705   5.880 -0.0035  0.3821 -0.2014
 6032TIP3    H118060   2.764   2.741   5.877  0.0902  0.6822  2.7686
 6032TIP3    H218061   2.689   2.611   5.872  1.1628  0.0039  3.7578
 6033TIP3   OH218062   5.016   2.425   3.725 -0.3265 -0.1137 -0.4813
 6033TIP3    H118063   5.098   2.459   3.688 -0.7712 -0.1328 -1.5090
 6033TIP3    H218064   5.001   2.479   3.803  0.8915 -0.4073 -0.0126
 6034TIP3   OH218065   1.828   5.525   1.579  0.1169 -0.5197  0.2010
 6034TIP3    H118066   1.878   5.593   1.624  1.2028 -0.6913 -0.6878
 6034TIP3    H218067   1.864   5.443   1.611  1.5644 -0.6539 -1.5747
 6035TIP3   OH218068   6.505   6.375   0.411 -0.0660 -0.5711 -0.6877
 6035TIP3    H118069   6.416   6.344   0.399  0.5561 -1.9193 -2.1451
 6035TIP3    H218070   6.549   6.304   0.458  0.9179 -1.2060 -2.4683
 6036TIP3   OH218071   2.960   0.570   2.923  0.4017  0.1068 -0.2420
 6036TIP3    H118072   2.955   0.665   2.931 -0.4706  0.0927 -0.5186
 6036TIP3    H218073   2.913   0.550   2.843  0.1235 -0.6069  0.0886
 6037TIP3   OH218074   6.383   0.823   2.157  0.0290 -0.2815 -0.2717
 6037TIP3    H118075   6.419   0.763   2.223 -1.9276 -2.1923 -0.8609
 6037TIP3    H218076   6.303   0.857   2.197  0.9857  1.8870 -0.0335
 6038TIP3   OH218077   5.863   6.796   5.656  0.6244  0.2401 -0.2517
 6038TIP3    H118078   5.769   6.789   5.668  0.5268 -1.8204 -1.6376
 6038TIP3    H218079   5.893   6.705   5.648  2.7949  0.8312  0.5633
 6039TIP3   OH218080   2.196   3.363   4.450  0.2960 -0.3528  0.1675
 6039TIP3    H118081   2.131   3.293   4.465  0.3906 -0.4618  0.0715
 6039TIP3    H218082   2.264   3.321   4.397  0.6302 -0.3415  0.5859
 6040TIP3   OH218083   4.237   1.369   3.854  0.2757  0.3788 -0.0297
 6040TIP3    H118084   4.231   1.378   3.759  0.2361 -1.7536 -0.2847
 6040TIP3    H218085   4.324   1.403   3.876  0.6376  0.0775 -0.9472
 6041TIP3   OH218086   3.271   4.191   2.690 -0.1182  0.4209  0.2742
 6041TIP3    H118087   3.216   4.231   2.623  0.4403  0.0270 -0.4290
 6041TIP3    H218088   3.284   4.101   2.661  0.6428  0.4199  0.5828
 6042TIP3   OH218089   5.346   0.496   5.685  0.1556 -0.6475 -0.4522
 6042TIP3    H118090   5.369   0.569   5.628 -1.3300 -0.3506 -0.6974
 6042TIP3    H218091   5.424   0.483   5.739  0.4242  1.1658 -0.3371
 6043TIP3   OH218092   0.858   5.585   4.832  0.0460 -0.3023  0.4475
 6043TIP3    H118093   0.783   5.644   4.842 -0.4120 -0.8780  0.4516
 6043TIP3    H218094   0.906   5.619   4.756  1.1166  1.4903  1.8608
 6044TIP3   OH218095   0.692   3.908   5.597 -0.4988  0.3345 -0.8005
 6044TIP3    H118096   0.734   3.994   5.597 -0.7196  0.5125  1.8286
 6044TIP3    H218097   0.635   3.909   5.674 -1.2825 -1.8176 -1.2804
 6045TIP3   OH218098   1.042   1.480   4.668 -0.0040  0.1530 -0.2492
 6045TIP3    H118099   1.116   1.426   4.695 -0.6442 -0.8841 -0.5204
 6045TIP3    H218100   0.982   1.478   4.742 -0.1394  0.2940 -0.3553
 6046TIP3   OH218101   2.646   3.114   0.651 -0.4464  0.3969 -0.1837
 6046TIP3    H118102   2.660   3.020   0.640  0.1262  0.6244 -1.6022
 6046TIP3    H218103   2.574   3.136   0.592  0.3076  1.0603 -0.8931
 6047TIP3   OH218104   6.784   2.913   2.869 -0.3867  0.2080  0.2535
 6047TIP3    H118105   6.762   2.953   2.952 -0.1848  2.1566 -0.5835
 6047TIP3    H218106   6.862   2.960   2.839  2.4678 -3.5147  1.0677
 6048TIP3   OH218107   5.812   1.514   4.361  0.4879  0.2044 -0.1758
 6048TIP3    H118108   5.766   1.597   4.346  1.8220  1.1963  0.9550
 6048TIP3    H218109   5.756   1.466   4.421 -0.5806  0.0048 -1.2899
 6049TIP3   OH218110   1.491   2.124   5.885 -0.1977  0.1339 -0.8455
 6049TIP3    H118111   1.514   2.129   5.793  0.7174  0.6023 -0.6071
 6049TIP3    H218112   1.469   2.214   5.910  1.3176  0.3577 -0.1964
 6050TIP3   OH218113   0.965   4.630   0.965 -0.5888 -0.7109  0.0397
 6050TIP3    H118114   0.912   4.679   0.901  0.1942  0.0959 -0.0213
 6050TIP3    H218115   0.939   4.666   1.050 -2.3031 -2.4260  0.3071
 6051TIP3   OH218116   4.308   0.888   1.773 -0.0950  1.3590 -0.0057
 6051TIP3    H118117   4.299   0.948   1.848 -0.1708 -0.2464  1.3176
 6051TIP3    H218118   4.239   0.916   1.712  0.5078  3.2406  0.0919
 6052TIP3   OH218119   3.471   0.209   5.785  0.1792 -0.1510  0.0560
 6052TIP3    H118120   3.458   0.295   5.826  1.4006  0.0837 -0.0088
 6052TIP3    H218121   3.403   0.204   5.718 -0.2453  0.5355  0.4288
 6053TIP3   OH218122   2.320   5.179   4.469  0.0839  0.2633  0.4129
 6053TIP3    H118123   2.393   5.117   4.472 -0.8494 -0.8871 -0.0256
 6053TIP3    H218124   2.277   5.169   4.554  0.0250  0.4411  0.4044
 6054TIP3   OH218125   2.756   4.923   4.249  0.4711  0.1387 -0.0039
 6054TIP3    H118126   2.825   4.989   4.264  1.8007 -0.9930 -0.9050
 6054TIP3    H218127   2.802   4.839   4.254 -0.7806 -0.6353 -0.9691
 6055TIP3   OH218128   1.146   1.111   0.633  0.7453 -0.3800  0.7660
 6055TIP3    H118129   1.151   1.188   0.689  1.7567  0.8929 -0.9471
 6055TIP3    H218130   1.207   1.131   0.561  0.1381 -2.2761 -0.3282
 6056TIP3   OH218131   1.280   4.531   1.987 -0.5512 -0.1490  0.6476
 6056TIP3    H118132   1.226   4.602   2.020 -2.1548 -1.4349  0.9254
 6056TIP3    H218133   1.370   4.559   2.005 -1.0117  2.4685 -0.6578
 6057TIP3   OH218134   5.342   2.565   3.393 -0.6700  0.3836  0.6826
 6057TIP3    H118135   5.347   2.653   3.356  0.8433  0.0014 -0.0952
 6057TIP3    H218136   5.276   2.521   3.340  0.1484  0.4033 -0.3879
 6058TIP3   OH218137   2.875   6.348   1.781  0.0596  0.2927  0.5169
 6058TIP3    H118138   2.815   6.373   1.710  0.2971 -0.4338  0.0474
 6058TIP3    H218139   2.935   6.422   1.788  0.6706 -0.0559 -0.7609
 6059TIP3   OH218140   3.343   0.327   2.465  0.3747 -0.0864 -0.5388
 6059TIP3    H118141   3.391   0.245   2.459 -3.4494 -2.5377 -0.7091
 6059TIP3    H218142   3.323   0.336   2.558 -0.3014 -0.0607 -0.6822
 6060TIP3   OH218143   2.442   2.993   2.838 -0.5794  0.7630  0.0021
 6060TIP3    H118144   2.421   3.013   2.930 -2.1564 -0.3358 -0.0799
 6060TIP3    H218145   2.483   3.073   2.805 -0.2855  1.2962  1.5651
 6061TIP3   OH218146   0.749   1.313   5.208 -0.3591 -0.2405 -0.6077
 6061TIP3    H118147   0.717   1.261   5.282  0.1768  0.8399  0.4244
 6061TIP3    H218148   0.843   1.319   5.223 -0.2584  0.0545 -1.3432
 6062TIP3   OH218149   0.797   2.042   1.725  0.2161  0.5736 -0.0293
 6062TIP3    H118150   0.877   2.014   1.680 -0.2656  1.3173 -1.3832
 6062TIP3    H218151   0.792   1.984   1.802  2.0970  0.5829  0.1512
 6063TIP3   OH218152   3.840   3.884   2.347 -0.0069 -0.5270 -0.5942
 6063TIP3    H118153   3.883   3.805   2.379  1.7229  0.9305  0.9647
 6063TIP3    H218154   3.751   3.878   2.382  0.4609 -1.2337  0.5432
 6064TIP3   OH218155   0.153   2.845   2.709 -0.0032  0.3260 -0.0553
 6064TIP3    H118156   0.079   2.797   2.746  0.9316 -2.4362 -1.5258
 6064TIP3    H218157   0.225   2.830   2.770  0.6313 -1.3538 -1.1466
 6065TIP3   OH218158   4.455   2.155   2.148 -0.4178  1.1634  0.4287
 6065TIP3    H118159   4.493   2.099   2.080  0.8901 -0.2639  2.2146
 6065TIP3    H218160   4.511   2.234   2.148  0.2352  0.7093  0.5278
 6066TIP3   OH218161   4.900   4.409   5.506 -0.0192 -0.4573  0.8045
 6066TIP3    H118162   4.844   4.332   5.503  0.2050 -0.5990 -1.3805
 6066TIP3    H218163   4.840   4.483   5.499 -0.0394 -0.6014 -1.2421
 6067TIP3   OH218164   1.903   2.735   1.857 -0.4613  0.4506 -0.7248
 6067TIP3    H118165   1.936   2.814   1.813 -0.9126  0.9665 -0.1588
 6067TIP3    H218166   1.809   2.736   1.841 -0.6014  0.5402  0.0710
 6068TIP3   OH218167   2.684   6.622   1.575  0.1696  0.6315  0.5297
 6068TIP3    H118168   2.772   6.584   1.577  0.1286  0.2955 -1.5079
 6068TIP3    H218169   2.637   6.580   1.648  0.1778 -3.2318 -1.4365
 6069TIP3   OH218170   4.994   2.177   1.685 -0.0853 -0.0009  0.1908
 6069TIP3    H118171   5.060   2.233   1.644  0.4268 -0.3664  0.4942
 6069TIP3    H218172   5.044   2.125   1.749 -0.6686 -0.2878  0.4170
 6070TIP3   OH218173   0.278   2.589   0.486 -0.1296  0.4689 -0.8429
 6070TIP3    H118174   0.293   2.547   0.401  0.9556  0.4475 -0.6547
 6070TIP3    H218175   0.184   2.584   0.498 -0.1212 -1.2314 -1.1918
 6071TIP3   OH218176   5.520   6.139   0.915  0.1640  0.2674  0.4213
 6071TIP3    H118177   5.540   6.214   0.859  2.5703 -0.8692 -0.3741
 6071TIP3    H218178   5.555   6.165   1.001  3.5695 -0.8444 -0.4625
 6072TIP3   OH218179   5.853   5.709   4.400  0.1482 -0.5582  0.8866
 6072TIP3    H118180   5.946   5.729   4.408  0.9197 -3.7407  1.1622
 6072TIP3    H218181   5.837   5.703   4.306  0.7012 -1.8301  0.8616
 6073TIP3   OH218182   2.439   5.152   2.752  0.6965 -0.1715  0.8318
 6073TIP3    H118183   2.418   5.146   2.659  2.3116 -2.1973  0.5367
 6073TIP3    H218184   2.354   5.163   2.795 -0.1730 -0.2123 -0.8097
 6074TIP3   OH218185   2.582   4.582   1.169 -0.7942  0.1783  0.0961
 6074TIP3    H118186   2.646   4.519   1.203 -1.5487  0.3573  1.9642
 6074TIP3    H218187   2.509   4.528   1.138 -1.5782  0.0571  1.9851
 6075TIP3   OH218188   1.974   0.365   3.449 -0.3692  0.0450  0.3555
 6075TIP3    H118189   1.965   0.457   3.473 -0.3405 -0.3747  2.0735
 6075TIP3    H218190   2.064   0.358   3.415 -0.2750  0.5784  0.4842
 6076TIP3   OH218191   3.920   2.212   5.435 -0.1830 -0.4487 -0.0409
 6076TIP3    H118192   3.940   2.198   5.343 -0.8745 -2.7452  0.1000
 6076TIP3    H218193   4.005   2.215   5.478  0.1049 -2.0299 -0.4468
 6077TIP3   OH218194   0.193   6.758   4.497  0.2304  0.4333  0.2135
 6077TIP3    H118195   0.136   6.706   4.554 -2.0200  2.3870 -0.1199
 6077TIP3    H218196   0.164   6.736   4.409  2.9771 -1.7607 -0.2713
 6078TIP3   OH218197   5.797   0.200   0.371 -0.1439 -0.3944  0.6440
 6078TIP3    H118198   5.842   0.152   0.440 -0.7836  0.1283  1.4333
 6078TIP3    H218199   5.716   0.151   0.356  0.0289 -0.5512  0.2058
 6079TIP3   OH218200   5.645   1.407   3.888 -0.6547 -0.1422 -0.2312
 6079TIP3    H118201   5.701   1.362   3.825 -2.4257 -1.6812 -0.7793
 6079TIP3    H218202   5.690   1.397   3.972 -1.0493 -3.1941 -0.2861
 6080TIP3   OH218203   4.437   2.852   2.410 -0.3517 -0.0978  0.1284
 6080TIP3    H118204   4.377   2.813   2.474  0.9019  0.8466  1.9763
 6080TIP3    H218205   4.519   2.865   2.459  0.9154 -0.0113 -1.8984
 6081TIP3   OH218206   1.877   0.453   0.454  0.1760 -0.0617  0.0957
 6081TIP3    H118207   1.803   0.446   0.514  0.0386 -1.3890 -0.1975
 6081TIP3    H218208   1.920   0.535   0.478  0.6103 -0.9383  2.5840
 6082TIP3   OH218209   4.111   4.082   1.423  0.4617  0.2904 -0.3529
 6082TIP3    H118210   4.122   3.995   1.384  1.1190 -0.0280  0.5049
 6082TIP3    H218211   4.039   4.122   1.374 -1.3289 -1.5386  0.6166
 6083TIP3   OH218212   0.558   0.208   2.789  0.2491 -0.0448  0.3831
 6083TIP3    H118213   0.549   0.177   2.699  0.7253 -0.7552  0.5709
 6083TIP3    H218214   0.609   0.140   2.833  1.4010  1.0401  0.8001
 6084TIP3   OH218215   2.537   3.405   3.552 -0.1391  0.7550 -0.3383
 6084TIP3    H118216   2.622   3.436   3.584  0.7006 -1.1821 -0.5725
 6084TIP3    H218217   2.514   3.333   3.611 -1.5874  1.1778 -0.3499
 6085TIP3   OH218218   6.389   3.452   1.113  0.0919  0.3025  0.3960
 6085TIP3    H118219   6.359   3.368   1.079 -0.8855 -0.0589  2.0416
 6085TIP3    H218220   6.392   3.510   1.036 -0.1878 -0.9623 -0.5907
 6086TIP3   OH218221   5.683   5.473   1.398 -0.3721 -0.2815  0.1055
 6086TIP3    H118222   5.646   5.389   1.426 -0.3308  0.3734  2.2343
 6086TIP3    H218223   5.640   5.491   1.314 -3.1098 -0.7025  1.3278
 6087TIP3   OH218224   3.027   1.129   0.188  0.2837  0.0115 -0.3999
 6087TIP3    H118225   3.083   1.054   0.165 -1.3870 -0.9369 -1.6002
 6087TIP3    H218226   3.048   1.195   0.122 -0.1054 -0.3981 -0.9401
 6088TIP3   OH218227   6.158   5.020   3.512  0.1825  0.3252  0.6360
 6088TIP3    H118228   6.183   5.094   3.567  0.4262  0.8294 -0.1356
 6088TIP3    H218229   6.142   4.949   3.574  0.1756  0.9517  1.3763
 6089TIP3   OH218230   3.904   0.058   1.785 -0.0971 -0.1271  0.0075
 6089TIP3    H118231   3.899   0.143   1.830  0.0999  0.4359 -1.0142
 6089TIP3    H218232   3.859   0.072   1.702 -0.9795 -1.3283  0.2582
 6090TIP3   OH218233   3.092   0.333   5.376 -0.5855  0.1309  0.5211
 6090TIP3    H118234   3.168   0.323   5.319 -1.4140  1.8790 -0.9870
 6090TIP3    H218235   3.027   0.272   5.341 -0.7112  0.4095  0.2620
 6091TIP3   OH218236   2.689   5.765   3.698 -0.2892 -0.0827 -0.3941
 6091TIP3    H118237   2.681   5.807   3.784 -2.9152  0.7035 -0.9172
 6091TIP3    H218238   2.746   5.690   3.713 -0.0332  0.4899  1.8442
 6092TIP3   OH218239   0.001   2.513   1.216  0.3084 -0.9787 -0.4171
 6092TIP3    H118240  -0.040   2.531   1.131 -0.2025 -2.3684 -0.5023
 6092TIP3    H218241   0.041   2.427   1.204  1.0031 -0.7876  0.4868
 6093TIP3   OH218242   7.150   1.597   4.633  0.0958  0.0956 -0.1442
 6093TIP3    H118243   7.107   1.683   4.631  1.5628  0.9032  1.0210
 6093TIP3    H218244   7.159   1.572   4.541  1.8723  2.3792 -0.6878
 6094TIP3   OH218245   2.331   0.694   4.091  0.0614 -0.0166 -0.0900
 6094TIP3    H118246   2.320   0.638   4.168  0.7686 -0.9209 -0.6432
 6094TIP3    H218247   2.246   0.691   4.047  0.1738 -0.8564 -0.2529
 6095TIP3   OH218248   5.814   2.409   0.358  0.6012  0.1026 -0.0572
 6095TIP3    H118249   5.886   2.375   0.411  0.4459  1.5183  1.1048
 6095TIP3    H218250   5.781   2.483   0.407 -1.1098  0.0057 -1.0027
 6096TIP3   OH218251   0.730   3.887   1.707  0.1828  0.1824  0.0328
 6096TIP3    H118252   0.699   3.910   1.795  0.4589  1.6552 -0.2270
 6096TIP3    H218253   0.652   3.892   1.652  0.2223  0.4228 -0.0037
 6097TIP3   OH218254   0.449   4.116   2.542  0.2129  0.0158 -0.4800
 6097TIP3    H118255   0.398   4.160   2.610  0.2997  1.0590 -1.0758
 6097TIP3    H218256   0.434   4.023   2.557 -0.9485  0.2823  0.0548
 6098TIP3   OH218257   6.920   1.599   1.932 -0.1401  0.0826  0.1240
 6098TIP3    H118258   6.982   1.653   1.884 -0.5621 -0.1328 -0.6790
 6098TIP3    H218259   6.969   1.520   1.955 -0.3122 -0.4166 -1.1558
 6099TIP3   OH218260   0.682   3.715   2.672 -0.0991 -0.2674  0.2676
 6099TIP3    H118261   0.731   3.690   2.750 -1.2805 -1.4333  0.6762
 6099TIP3    H218262   0.733   3.681   2.599  3.1906  4.2289  0.0537
 6100TIP3   OH218263   6.732   1.679   2.115 -0.6345  0.1430  0.1274
 6100TIP3    H118264   6.780   1.650   2.038  0.1480 -0.4388  0.8179
 6100TIP3    H218265   6.755   1.771   2.124  0.8453 -0.2746  0.7886
 6101TIP3   OH218266   1.102   6.712   2.983  0.1636  0.0536  0.2059
 6101TIP3    H118267   1.036   6.645   2.964 -0.1442  0.2897  0.4166
 6101TIP3    H218268   1.054   6.795   2.976  0.2957  0.2024  0.9121
 6102TIP3   OH218269   4.012   6.026   5.542 -0.2001  0.1762  0.1559
 6102TIP3    H118270   4.036   5.981   5.461  1.1883  0.1122  0.5707
 6102TIP3    H218271   3.954   5.966   5.587 -1.9995  0.7078 -1.3040
 6103TIP3   OH218272   3.508   5.584   4.728  0.2531  0.0340  0.3995
 6103TIP3    H118273   3.464   5.537   4.798  0.0616  0.8345  0.8193
 6103TIP3    H218274   3.595   5.543   4.722  0.4099  0.2072  1.3576
 6104TIP3   OH218275   3.757   0.990   2.686 -0.2482 -0.1742  0.1992
 6104TIP3    H118276   3.749   1.060   2.751 -0.4248 -1.0504  1.1647
 6104TIP3    H218277   3.797   0.917   2.735 -0.9090 -1.0483 -0.5187
 6105TIP3   OH218278   5.428   3.702   1.864 -0.3106  0.1976  0.5287
 6105TIP3    H118279   5.379   3.622   1.844 -1.8275  0.6347  2.1826
 6105TIP3    H218280   5.360   3.767   1.885  0.9086  1.6656  0.1640
 6106TIP3   OH218281   3.304   2.468   3.793 -0.5623  0.2035 -0.4687
 6106TIP3    H118282   3.326   2.434   3.880  0.9008 -1.9492 -1.5746
 6106TIP3    H218283   3.368   2.536   3.777 -0.4313  0.1677 -0.1055
 6107TIP3   OH218284   3.435   2.211   3.623 -0.2071 -0.2468 -0.1251
 6107TIP3    H118285   3.342   2.207   3.645 -0.1170 -0.9040  0.1334
 6107TIP3    H218286   3.465   2.120   3.626 -0.4806 -0.6765 -4.2651
 6108TIP3   OH218287   6.242   5.228   1.080 -0.4611  0.6889  0.8176
 6108TIP3    H118288   6.175   5.164   1.055  0.7678 -0.1971 -0.3277
 6108TIP3    H218289   6.271   5.200   1.167 -1.0175  0.6231  0.9864
 6109TIP3   OH218290   0.928   4.286   2.106 -0.0535 -0.0045  0.1741
 6109TIP3    H118291   0.905   4.194   2.092 -1.3690 -0.0130  2.0385
 6109TIP3    H218292   1.023   4.286   2.119  0.1622 -0.8865 -1.2068
 6110TIP3   OH218293   6.757   5.448   2.961  0.1564  0.4561  0.6629
 6110TIP3    H118294   6.780   5.469   3.051  1.9694 -0.4162  0.4577
 6110TIP3    H218295   6.835   5.471   2.910  0.6134 -2.4270 -0.1400
 6111TIP3   OH218296   5.236   3.034   1.264  0.3414  0.0060 -0.6698
 6111TIP3    H118297   5.172   3.016   1.195 -1.2920 -0.3002  0.8312
 6111TIP3    H218298   5.193   3.100   1.319  0.0920 -2.0692  1.8517
 6112TIP3   OH218299   1.282   5.653   0.582  0.0762  0.2026 -0.2302
 6112TIP3    H118300   1.347   5.638   0.513 -1.3234 -0.4149 -1.4579
 6112TIP3    H218301   1.274   5.568   0.626 -0.7659 -0.0649 -0.8767
 6113TIP3   OH218302   3.871   5.486   4.162 -0.4583 -0.0512  0.3102
 6113TIP3    H118303   3.948   5.437   4.131 -2.2010 -1.6997 -1.7185
 6113TIP3    H218304   3.891   5.577   4.140  0.6803 -0.5076 -0.6982
 6114TIP3   OH218305   4.498   4.630   2.220  0.3338  0.0351  0.1925
 6114TIP3    H118306   4.454   4.590   2.145 -0.3110  1.1075 -0.0186
 6114TIP3    H218307   4.435   4.621   2.292  1.2877 -1.7598  0.8634
 6115TIP3   OH218308   0.087   5.083   1.595  0.2722 -0.0186  0.4445
 6115TIP3    H118309   0.149   5.014   1.572  0.4155 -0.0011  0.7722
 6115TIP3    H218310   0.141   5.160   1.612  0.0188  0.6876 -1.6240
 6116TIP3   OH218311   0.298   0.636   2.415  0.3442  0.7376  0.1916
 6116TIP3    H118312   0.248   0.714   2.441 -0.6162  0.9226 -1.9640
 6116TIP3    H218313   0.281   0.573   2.484 -0.7333  1.7059  0.8556
 6117TIP3   OH218314   6.261   3.091   2.790 -0.6280  0.0511 -0.2441
 6117TIP3    H118315   6.241   2.998   2.806  1.0142 -0.2459  0.2284
 6117TIP3    H218316   6.292   3.124   2.874  0.6277  0.5217 -0.8753
 6118TIP3   OH218317   7.177   4.585   1.614  0.0204 -0.6684  0.1279
 6118TIP3    H118318   7.263   4.576   1.656 -1.1470  0.7337  3.1679
 6118TIP3    H218319   7.137   4.499   1.621  1.1577 -1.3842 -1.4817
 6119TIP3   OH218320   4.886   0.772   3.201  0.2723 -0.3586  0.5620
 6119TIP3    H118321   4.940   0.822   3.139  0.7405 -1.6782 -0.1491
 6119TIP3    H218322   4.949   0.716   3.247  0.1659  1.6724  3.4230
 6120TIP3   OH218323   6.830   1.969   2.748 -0.2054  0.4457  0.0639
 6120TIP3    H118324   6.797   1.994   2.834 -1.5937  0.3237 -0.4188
 6120TIP3    H218325   6.784   1.888   2.726  2.7995 -1.6004  0.7599
 6121TIP3   OH218326   6.075   4.720   2.856  0.8344 -0.2942 -0.7220
 6121TIP3    H118327   6.134   4.771   2.800  1.3393  1.4455  1.2807
 6121TIP3    H218328   6.117   4.719   2.941 -0.6349 -1.5629  0.0433
 6122TIP3   OH218329   3.041   4.939   4.054  0.2676  0.6355  0.3056
 6122TIP3    H118330   3.116   4.981   4.012 -0.0102  0.6357 -0.2009
 6122TIP3    H218331   2.976   4.931   3.984 -1.1734  2.9012  1.2864
 6123TIP3   OH218332   4.439   2.287   5.207  0.1248  0.1244 -0.8973
 6123TIP3    H118333   4.415   2.320   5.293 -0.0557 -0.7494 -0.6022
 6123TIP3    H218334   4.523   2.328   5.187 -0.3465  1.1829 -0.7955
 6124TIP3   OH218335   1.778   0.040   0.882  0.2301 -0.1528  0.2722
 6124TIP3    H118336   1.780  -0.039   0.936 -1.4753 -2.2331 -2.3666
 6124TIP3    H218337   1.685   0.053   0.863  0.4103  2.9456  1.1191
 6125TIP3   OH218338   2.967   3.966   0.015 -0.2485  0.5564 -0.6114
 6125TIP3    H118339   2.873   3.978   0.032 -0.0212  1.3775  0.1614
 6125TIP3    H218340   2.996   3.907   0.085 -0.2491  0.0546 -1.0350
 6126TIP3   OH218341   0.202   1.313   2.265 -0.0838 -0.1833 -0.6247
 6126TIP3    H118342   0.145   1.330   2.340  2.8571  0.8623  1.5606
 6126TIP3    H218343   0.267   1.251   2.298  2.6615  2.0300 -1.4390
 6127TIP3   OH218344   6.576   5.544   4.838  0.4742  0.1051  0.2802
 6127TIP3    H118345   6.518   5.481   4.795  1.5466 -0.6171 -0.1308
 6127TIP3    H218346   6.612   5.497   4.913 -0.2473  0.8869  1.1467
 6128TIP3   OH218347   3.183   1.170   1.000 -0.6735  0.3598  0.1911
 6128TIP3    H118348   3.277   1.155   0.995 -0.4631  1.8384 -0.8156
 6128TIP3    H218349   3.154   1.173   0.909 -1.3986  1.5700  0.4346
 6129TIP3   OH218350   6.715   6.613   5.711 -0.1791 -0.4006  0.2832
 6129TIP3    H118351   6.789   6.645   5.660 -0.3714 -0.2484  0.0965
 6129TIP3    H218352   6.656   6.689   5.716  0.2327 -0.1364  1.4758
 6130TIP3   OH218353   3.971   2.346   4.075 -0.2039 -0.0157 -0.7695
 6130TIP3    H118354   3.995   2.323   4.165  1.6535  0.8388 -1.0087
 6130TIP3    H218355   3.992   2.268   4.024 -2.4108 -0.9666 -0.3619
 6131TIP3   OH218356   0.967   5.688   3.371 -0.0071 -0.5589  0.0119
 6131TIP3    H118357   0.912   5.751   3.418 -1.5258 -0.4201 -1.8143
 6131TIP3    H218358   0.923   5.604   3.384  0.0863 -0.6692 -0.3664
 6132TIP3   OH218359   5.883   0.561   5.478 -0.6308 -0.5716 -0.1544
 6132TIP3    H118360   5.888   0.656   5.470 -0.8246 -0.4378  1.1123
 6132TIP3    H218361   5.974   0.532   5.478 -0.5765 -0.4094 -0.7549
 6133TIP3   OH218362   5.448   3.704   5.361 -0.2533 -0.7193 -0.5014
 6133TIP3    H118363   5.396   3.625   5.351 -0.0848 -0.9825  0.6159
 6133TIP3    H218364   5.447   3.723   5.454  0.8808 -0.2041 -0.5689
 6134TIP3   OH218365   3.795   3.672   1.700  0.3484  0.2434 -0.2888
 6134TIP3    H118366   3.865   3.737   1.694  1.0804 -0.5678 -0.6146
 6134TIP3    H218367   3.749   3.678   1.617 -0.3058  1.1293  0.1162
 6135TIP3   OH218368   6.227   2.536   2.399  0.1822  0.6803 -0.4069
 6135TIP3    H118369   6.308   2.522   2.448 -0.2249  0.2446  0.1496
 6135TIP3    H218370   6.186   2.611   2.441 -0.7197 -0.3756  0.6768
 6136TIP3   OH218371   5.368   4.284   5.698  0.4329 -0.2766 -0.5698
 6136TIP3    H118372   5.446   4.339   5.703  0.1177  0.2669 -1.4194
 6136TIP3    H218373   5.308   4.333   5.642 -0.3424 -0.9067 -0.3070
 6137TIP3   OH218374   0.412   3.736   1.864 -0.3721  0.0074 -0.1128
 6137TIP3    H118375   0.340   3.682   1.897  0.7402 -0.7856  1.0899
 6137TIP3    H218376   0.415   3.811   1.923  2.2887 -1.9185  2.4794
 6138TIP3   OH218377   4.390   0.368   1.200  0.2788  0.0023  0.6589
 6138TIP3    H118378   4.475   0.327   1.187 -0.6097 -1.8768  0.4025
 6138TIP3    H218379   4.404   0.432   1.269  1.7605 -0.6837  1.0323
 6139TIP3   OH218380   3.332   1.896   0.790 -0.1730 -0.2363  0.0075
 6139TIP3    H118381   3.311   1.980   0.829  0.4707 -0.4006  0.7207
 6139TIP3    H218382   3.397   1.857   0.848  2.5287  0.4586 -2.3068
 6140TIP3   OH218383   2.343   3.919   4.650  0.0300 -0.2991  0.0076
 6140TIP3    H118384   2.432   3.896   4.677  0.1189  1.4446  1.3602
 6140TIP3    H218385   2.339   3.896   4.557  1.6122 -1.1429  0.1160
 6141TIP3   OH218386   3.866   4.474   2.779  0.4855  0.0351  0.2593
 6141TIP3    H118387   3.833   4.501   2.693  0.6349  1.6672  0.6705
 6141TIP3    H218388   3.934   4.538   2.800  0.5733 -0.4325  1.5171
 6142TIP3   OH218389   3.601   0.798   2.464  0.1617 -0.5050 -0.5444
 6142TIP3    H118390   3.609   0.821   2.556 -0.2500  0.8296 -0.8259
 6142TIP3    H218391   3.596   0.702   2.463 -0.7357 -0.4931  0.8787
 6143TIP3   OH218392   1.122   0.925   5.329 -0.6052 -0.0513  0.2136
 6143TIP3    H118393   1.161   0.896   5.246  0.9197  1.7563  0.2166
 6143TIP3    H218394   1.031   0.897   5.324  0.1358 -2.5946 -0.7514
 6144TIP3   OH218395   2.095   1.261   0.812  0.2861  0.3697  0.2986
 6144TIP3    H118396   2.143   1.259   0.729  0.0877 -0.2227  0.1951
 6144TIP3    H218397   2.163   1.252   0.879  0.2901 -1.2949  0.1305
 6145TIP3   OH218398   4.256   2.514   3.263  0.2050 -0.1209 -0.2577
 6145TIP3    H118399   4.180   2.514   3.321 -0.9076  0.3928 -1.6658
 6145TIP3    H218400   4.331   2.512   3.322 -0.8839 -0.4267  1.1755
 6146TIP3   OH218401   6.992   4.597   4.558  0.3307  0.8030  0.4089
 6146TIP3    H118402   7.086   4.580   4.553  0.2011  0.3953 -1.0416
 6146TIP3    H218403   6.979   4.675   4.503 -0.2879  0.3542 -0.0883
 6147TIP3   OH218404   2.599   1.275   1.579  0.1591 -0.2391 -0.8298
 6147TIP3    H118405   2.512   1.269   1.618  0.5852 -0.5182  0.0861
 6147TIP3    H218406   2.582   1.282   1.485 -0.8814  0.5631 -0.6038
 6148TIP3   OH218407   4.436   4.495   1.973 -0.0292 -0.4078  0.2515
 6148TIP3    H118408   4.398   4.451   1.897  0.1540  0.8191 -0.5807
 6148TIP3    H218409   4.509   4.438   1.999 -0.6729 -1.3188  0.1081
 6149TIP3   OH218410   6.392   5.283   2.642 -0.3084  0.4330 -0.6333
 6149TIP3    H118411   6.451   5.354   2.617 -0.0306  0.1789 -0.7054
 6149TIP3    H218412   6.321   5.288   2.579 -1.4358  2.0525  0.6875
 6150TIP3   OH218413   3.862   1.642   4.554  0.0063 -0.8879  0.3284
 6150TIP3    H118414   3.929   1.618   4.491  0.8896 -0.2227  0.9906
 6150TIP3    H218415   3.793   1.576   4.542  0.4270 -1.1312 -0.8833
 6151TIP3   OH218416   2.418   5.304   4.073  0.1241 -0.2696 -0.1600
 6151TIP3    H118417   2.379   5.218   4.087 -0.8475  0.0814 -0.6204
 6151TIP3    H218418   2.376   5.336   3.993 -0.6660  1.2681  0.8324
 6152TIP3   OH218419   1.394   6.738   4.271  0.0396 -0.2094  0.0179
 6152TIP3    H118420   1.332   6.772   4.206 -1.2060 -1.6319  0.3855
 6152TIP3    H218421   1.339   6.719   4.347  0.9205 -1.5634  0.3466
 6153TIP3   OH218422   4.061   0.761   5.065  0.3569  0.0891  0.3118
 6153TIP3    H118423   3.995   0.829   5.056 -0.0956 -0.4502 -0.5238
 6153TIP3    H218424   4.013   0.683   5.093  0.6741 -0.2301 -0.0119
 6154TIP3   OH218425   1.108   4.930   5.561  0.2560 -0.6584 -0.3649
 6154TIP3    H118426   1.192   4.899   5.527  0.6571 -0.7405  0.6703
 6154TIP3    H218427   1.062   4.963   5.484  0.2262 -2.8342 -1.3741
 6155TIP3   OH218428   4.900   3.327   5.341 -0.5717 -0.1936 -0.3742
 6155TIP3    H118429   4.873   3.413   5.375  1.6999  0.5973 -0.4007
 6155TIP3    H218430   4.911   3.273   5.419  3.0194  1.1333  0.2064
 6156TIP3   OH218431   5.938   1.518   3.626 -0.1342  0.2575 -0.8653
 6156TIP3    H118432   5.915   1.598   3.580 -0.5933  1.2137  0.9574
 6156TIP3    H218433   6.033   1.510   3.613 -0.0710  1.1259 -1.0033
 6157TIP3   OH218434   4.602   2.918   3.397 -0.1755 -0.8332  0.1905
 6157TIP3    H118435   4.595   2.933   3.303 -1.5550 -0.9037  0.2666
 6157TIP3    H218436   4.695   2.896   3.411  0.4412  0.8385 -0.8963
 6158TIP3   OH218437   4.024   2.175   0.593  0.1632  0.2259 -0.3042
 6158TIP3    H118438   3.959   2.187   0.663  0.3985  0.7973 -0.1810
 6158TIP3    H218439   4.058   2.263   0.576  1.8424 -0.2255  0.5182
 6159TIP3   OH218440   4.638   2.711   3.655 -0.1809  0.2780  0.0805
 6159TIP3    H118441   4.551   2.714   3.616 -0.2043  2.5682  0.1445
 6159TIP3    H218442   4.678   2.633   3.618 -2.3613 -1.0459  0.3521
 6160TIP3   OH218443   6.962   3.748   3.032  0.4756 -0.3055  1.1389
 6160TIP3    H118444   7.008   3.829   3.051 -1.4819  0.9045  0.9839
 6160TIP3    H218445   6.954   3.746   2.937  0.3195 -0.5618  1.1545
 6161TIP3   OH218446   5.578   1.167   1.046  0.4087  0.1522  0.4036
 6161TIP3    H118447   5.483   1.156   1.055  0.4864  0.5880  2.1498
 6161TIP3    H218448   5.612   1.158   1.135  1.9508  0.6010 -0.1021
 6162TIP3   OH218449   1.257   2.691   1.307  0.1817 -0.1550  0.4540
 6162TIP3    H118450   1.326   2.682   1.374  2.3386  1.8471 -1.3153
 6162TIP3    H218451   1.268   2.780   1.275 -3.4522  0.3164  0.1723
 6163TIP3   OH218452   1.825   4.881   4.192  0.2362 -0.2739  0.3502
 6163TIP3    H118453   1.913   4.863   4.158 -0.4863  0.2475 -1.9592
 6163TIP3    H218454   1.837   4.889   4.286  2.5481 -0.8961  0.1676
 6164TIP3   OH218455   4.271   5.999   2.342  0.3329 -0.0608 -0.1431
 6164TIP3    H118456   4.285   6.087   2.378  0.4490 -0.1291 -0.0187
 6164TIP3    H218457   4.191   6.007   2.291  0.7348  0.3016 -0.7265
 6165TIP3   OH218458   5.549   3.443   2.867  0.2728  0.3114  0.0657
 6165TIP3    H118459   5.604   3.371   2.836  1.1837  1.6297 -1.5438
 6165TIP3    H218460   5.480   3.450   2.801  0.9432  1.7158 -0.5296
 6166TIP3   OH218461   0.906   4.483   5.715 -0.4018  0.0321  0.1596
 6166TIP3    H118462   0.862   4.512   5.635 -1.8934 -3.0445 -0.2518
 6166TIP3    H218463   0.958   4.408   5.688  1.3210  0.6370  1.6092
 6167TIP3   OH218464   0.891   1.432   0.136  0.6641 -0.5015 -0.1231
 6167TIP3    H118465   0.860   1.453   0.048 -0.4161 -0.4051  0.2613
 6167TIP3    H218466   0.857   1.344   0.153 -0.6296  0.1527  0.8395
 6168TIP3   OH218467   6.930   2.291   5.765 -0.0799 -0.2673 -0.3944
 6168TIP3    H118468   7.000   2.229   5.744 -0.0803 -0.2322 -0.4969
 6168TIP3    H218469   6.966   2.344   5.837 -0.0572 -0.3474 -0.3469
 6169TIP3   OH218470   4.880   3.344   4.274 -0.6908  0.2497  0.3515
 6169TIP3    H118471   4.952   3.282   4.266 -2.0141 -1.4139  0.8124
 6169TIP3    H218472   4.902   3.415   4.213  1.2417 -0.2758  0.3967
 6170TIP3   OH218473   6.728   5.668   1.992  0.1919 -0.3039 -0.0942
 6170TIP3    H118474   6.711   5.716   2.073 -0.5592  0.5767 -0.7525
 6170TIP3    H218475   6.806   5.709   1.956  0.4947 -0.6601  0.1561
 6171TIP3   OH218476   2.322   6.369   3.091 -0.3334 -0.3338 -0.2771
 6171TIP3    H118477   2.271   6.335   3.018  1.5857  1.3721 -2.5793
 6171TIP3    H218478   2.405   6.322   3.086 -0.0952 -0.0406  0.7020
 6172TIP3   OH218479   1.830   6.172   1.065  0.4084  0.7212 -0.0070
 6172TIP3    H118480   1.737   6.148   1.058  0.7367 -0.3217 -1.1737
 6172TIP3    H218481   1.874   6.091   1.092  1.2008  0.6512 -1.3998
 6173TIP3   OH218482   4.518   5.376   3.845  0.1178 -0.0103  0.5736
 6173TIP3    H118483   4.497   5.424   3.766  0.4808 -1.0207 -0.1663
 6173TIP3    H218484   4.504   5.284   3.821  0.0293 -0.3164  1.7459
 6174TIP3   OH218485   4.377   3.568   2.361 -0.1992 -0.5635  0.6201
 6174TIP3    H118486   4.452   3.627   2.358 -0.8638  0.3238  1.0964
 6174TIP3    H218487   4.397   3.508   2.433 -1.0620  1.2594  2.4718
 6175TIP3   OH218488   4.563   2.730   1.573 -0.2665  0.4383 -0.5816
 6175TIP3    H118489   4.543   2.763   1.661  0.4659  0.1696 -0.3101
 6175TIP3    H218490   4.528   2.797   1.514 -1.8362  0.0541 -0.1379
 6176TIP3   OH218491   6.077   0.373   3.415 -0.6372 -0.2894 -0.4739
 6176TIP3    H118492   6.032   0.304   3.464 -1.3413 -1.3946 -2.5699
 6176TIP3    H218493   6.007   0.421   3.371 -0.0579  1.0341 -0.0204
 6177TIP3   OH218494   5.193   0.376   3.354 -0.2972  0.2795  0.3072
 6177TIP3    H118495   5.270   0.382   3.298 -1.2366 -4.0711 -1.8520
 6177TIP3    H218496   5.219   0.318   3.426 -1.5638 -1.7217 -0.7520
 6178TIP3   OH218497   5.679   3.358   3.103  0.4287  0.0507 -0.1835
 6178TIP3    H118498   5.632   3.412   3.039 -1.2405  1.0270  1.7341
 6178TIP3    H218499   5.623   3.281   3.115 -1.1013  1.4129  2.4217
 6179TIP3   OH218500   5.057   5.213   2.099 -0.1925  0.6233  0.4832
 6179TIP3    H118501   5.038   5.306   2.085 -1.4541  0.0867 -2.0476
 6179TIP3    H218502   5.152   5.207   2.097 -0.1230  1.6698 -1.1901
 6180TIP3   OH218503   4.581   2.814   0.548 -0.1020  0.4131 -0.2517
 6180TIP3    H118504   4.587   2.787   0.456  2.2091  0.0893 -0.0848
 6180TIP3    H218505   4.634   2.893   0.554 -0.7781  0.8208  0.6927
 6181TIP3   OH218506   5.523   6.699   1.919 -0.1469  0.7116  0.8326
 6181TIP3    H118507   5.445   6.643   1.919 -0.4024  1.0267 -0.6238
 6181TIP3    H218508   5.584   6.654   1.977 -0.5990 -0.7385  0.2332
 6182TIP3   OH218509   0.749   1.600   5.227 -0.6782  0.2927  0.0177
 6182TIP3    H118510   0.756   1.588   5.322  0.6015  0.3317 -0.0540
 6182TIP3    H218511   0.702   1.522   5.197  0.8179 -0.8259  0.4460
 6183TIP3   OH218512   1.697   3.048   5.031  0.4442  0.4052 -0.5508
 6183TIP3    H118513   1.713   2.954   5.039  1.5269  0.6405  0.2108
 6183TIP3    H218514   1.643   3.069   5.107 -0.7455  0.2106 -1.3258
 6184TIP3   OH218515   0.400   6.527   3.078  0.2152  0.0674 -0.6065
 6184TIP3    H118516   0.368   6.600   3.130  0.3095  0.1545 -0.6707
 6184TIP3    H218517   0.370   6.449   3.124 -2.2368  0.1263 -1.9595
 6185TIP3   OH218518   6.885   6.443   1.872  0.2074  0.1749  0.1760
 6185TIP3    H118519   6.869   6.469   1.963  1.1183 -1.1132  0.7317
 6185TIP3    H218520   6.968   6.397   1.874 -1.8991 -4.0819 -0.4191
 6186TIP3   OH218521   1.108   2.922   3.810 -0.1690  0.5078  0.0902
 6186TIP3    H118522   1.031   2.865   3.819 -0.3602  0.9604  1.5380
 6186TIP3    H218523   1.178   2.874   3.854  0.3006  0.2793 -0.8785
 6187TIP3   OH218524   1.905   0.791   0.690  0.3248  0.9708 -0.2375
 6187TIP3    H118525   1.936   0.835   0.611  0.0243  1.6132 -0.0046
 6187TIP3    H218526   1.968   0.720   0.705  1.1750  1.7163 -0.2593
 6188TIP3   OH218527   6.854   0.118   2.104 -0.4914 -0.2392  0.4037
 6188TIP3    H118528   6.798   0.122   2.181 -2.1877 -0.7086 -0.7539
 6188TIP3    H218529   6.942   0.137   2.137 -1.2058 -0.1889  2.3921
 6189TIP3   OH218530   2.815   2.235   3.673 -0.3216 -0.4777 -0.4229
 6189TIP3    H118531   2.797   2.254   3.765 -2.4224  0.7828 -1.0105
 6189TIP3    H218532   2.745   2.175   3.647 -0.0836 -0.3817 -1.3201
 6190TIP3   OH218533   0.746   0.426   5.756 -0.1774 -0.0257  0.3328
 6190TIP3    H118534   0.835   0.392   5.766 -0.1675 -0.0575  0.1444
 6190TIP3    H218535   0.733   0.483   5.831 -0.5627 -1.2581  1.2494
 6191TIP3   OH218536   2.506   0.352   5.474  0.1595  0.4035  0.0674
 6191TIP3    H118537   2.429   0.360   5.529 -0.2698  1.3902 -0.6395
 6191TIP3    H218538   2.490   0.413   5.402  0.9545 -0.4330 -0.8460
 6192TIP3   OH218539   3.084   4.931   2.443  0.1398 -0.1839  0.0600
 6192TIP3    H118540   3.041   5.015   2.426  0.9941  0.7045  1.9235
 6192TIP3    H218541   3.128   4.944   2.527  1.0275 -2.2327 -0.0357
 6193TIP3   OH218542   6.462   5.761   4.941  0.1296  0.0295  0.0510
 6193TIP3    H118543   6.534   5.795   4.995  1.2302 -0.1179 -1.2608
 6193TIP3    H218544   6.499   5.685   4.896 -0.7263  0.1788 -0.9494
 6194TIP3   OH218545   4.310   3.713   3.930 -0.1007 -0.1927  0.0893
 6194TIP3    H118546   4.366   3.662   3.872  1.5189  1.5472  0.0261
 6194TIP3    H218547   4.367   3.733   4.005 -0.8347  1.1100  0.3081
 6195TIP3   OH218548   7.115   5.533   5.335  0.1116 -0.5934  0.1104
 6195TIP3    H118549   7.203   5.506   5.308 -0.2011 -1.8019  0.2504
 6195TIP3    H218550   7.071   5.557   5.253  0.9515  1.2963  0.1544
 6196TIP3   OH218551   0.804   5.325   2.340 -0.4028  0.2496 -0.1649
 6196TIP3    H118552   0.889   5.294   2.308 -0.2661  0.6263 -0.1692
 6196TIP3    H218553   0.815   5.420   2.348 -0.4428  0.1708  0.9863
 6197TIP3   OH218554   1.964   1.931   3.129  0.1467  0.0375 -0.4990
 6197TIP3    H118555   1.972   1.850   3.179 -2.1208 -1.1840 -1.9343
 6197TIP3    H218556   2.030   1.924   3.060 -0.0081 -0.5772 -0.5867
 6198TIP3   OH218557   1.593   0.643   5.835 -0.1764  0.0845  0.2407
 6198TIP3    H118558   1.583   0.553   5.866  0.8054  0.4242  1.6469
 6198TIP3    H218559   1.507   0.666   5.800 -0.9115 -0.8484  1.3604
 6199TIP3   OH218560   6.503   1.741   5.308 -0.3563  0.2066  0.1291
 6199TIP3    H118561   6.414   1.716   5.332  0.3423 -0.3132  2.3736
 6199TIP3    H218562   6.549   1.749   5.391  1.3200  1.9766 -0.9013
 6200TIP3   OH218563   6.734   6.243   3.652  0.1516 -0.6671 -0.0452
 6200TIP3    H118564   6.685   6.323   3.670  0.2243 -0.3226 -1.2905
 6200TIP3    H218565   6.668   6.178   3.628 -0.2093 -1.8366  3.4599
 6201TIP3   OH218566   4.690   1.615   3.760  0.0790  0.0370  0.0693
 6201TIP3    H118567   4.763   1.580   3.810  0.7272 -0.4599 -1.1722
 6201TIP3    H218568   4.726   1.630   3.672 -1.5415 -1.2416 -0.8778
 6202TIP3   OH218569   1.313   4.746   0.711 -1.1383 -0.0010 -0.4617
 6202TIP3    H118570   1.328   4.656   0.682  2.0098  0.1377  0.3475
 6202TIP3    H218571   1.276   4.738   0.799  1.1354 -0.6368  0.5144
 6203TIP3   OH218572   4.512   4.187   0.208 -0.2089  0.1290 -0.5219
 6203TIP3    H118573   4.417   4.184   0.195 -0.0809 -0.1952 -1.4637
 6203TIP3    H218574   4.547   4.131   0.139  0.6439 -0.1350  0.1191
 6204TIP3   OH218575   0.043   3.283   0.219  0.9442  0.1082  0.3097
 6204TIP3    H118576   0.118   3.301   0.276  0.8942 -1.1657  0.8248
 6204TIP3    H218577  -0.020   3.240   0.277  1.3699 -2.3532 -0.9019
 6205TIP3   OH218578   4.921   1.661   1.781  0.8643  0.1191 -0.0594
 6205TIP3    H118579   4.986   1.677   1.713  1.1893  1.0272  0.4481
 6205TIP3    H218580   4.884   1.747   1.800 -1.5784 -0.5714 -1.3619
 6206TIP3   OH218581   2.439   5.826   0.660 -0.1305  0.4040 -0.1233
 6206TIP3    H118582   2.490   5.846   0.581  0.3324 -0.3384 -0.0254
 6206TIP3    H218583   2.448   5.904   0.715  1.5034  0.0300  0.1963
 6207TIP3   OH218584   4.143   3.818   1.330 -0.3343 -0.9961  0.1164
 6207TIP3    H118585   4.219   3.774   1.294  0.5651  1.0304 -0.6443
 6207TIP3    H218586   4.092   3.749   1.372  2.4509 -2.2654  1.6524
 6208TIP3   OH218587   4.708   2.574   1.370 -0.2118  0.1738  0.0838
 6208TIP3    H118588   4.791   2.621   1.367 -0.9051  1.4373  0.2923
 6208TIP3    H218589   4.651   2.628   1.424 -1.3958 -0.3282 -0.6313
 6209TIP3   OH218590   0.824   3.535   2.015 -0.0966  0.0067  0.4632
 6209TIP3    H118591   0.845   3.495   2.099  1.3046  0.5585  0.4035
 6209TIP3    H218592   0.754   3.481   1.979  0.3389 -1.1499  1.3052
 6210TIP3   OH218593   6.109   4.449   2.791 -0.4444 -0.1846  0.5073
 6210TIP3    H118594   6.100   4.541   2.814  0.6223  0.3445 -1.0484
 6210TIP3    H218595   6.162   4.412   2.862 -0.7633  0.4162  1.0737
 6211TIP3   OH218596   6.020   3.623   0.287 -0.2563  0.1243 -0.5360
 6211TIP3    H118597   6.028   3.562   0.213 -2.0630  0.4667 -1.0577
 6211TIP3    H218598   5.926   3.633   0.300 -0.0418 -0.7343  2.5244
 6212TIP3   OH218599   1.619   0.658   0.100 -0.2545 -0.0144 -0.0739
 6212TIP3    H118600   1.526   0.678   0.090  0.1583  1.4379 -1.4384
 6212TIP3    H218601   1.636   0.590   0.036 -0.7002 -1.6180  1.4213
 6213TIP3   OH218602   3.832   0.666   4.824  0.3250  0.1988  0.4949
 6213TIP3    H118603   3.919   0.676   4.786  0.3922 -0.3081  0.5114
 6213TIP3    H218604   3.773   0.667   4.748  0.2151  1.7881  0.5558
 6214TIP3   OH218605   0.667   2.476   4.661  0.0475  0.0991  0.0563
 6214TIP3    H118606   0.630   2.551   4.613 -0.2974 -0.0699  0.0598
 6214TIP3    H218607   0.745   2.453   4.611 -0.5309 -0.3336 -0.6631
 6215TIP3   OH218608   0.937   0.666   0.426  0.2391 -0.2959 -0.0941
 6215TIP3    H118609   0.932   0.664   0.521 -0.7131  0.4880 -0.1106
 6215TIP3    H218610   0.897   0.584   0.398  0.3087 -0.4217  0.1725
 6216TIP3   OH218611   1.692   4.032   3.094 -0.7672  0.5196 -0.2840
 6216TIP3    H118612   1.787   4.020   3.102 -0.9414 -0.6093  0.3355
 6216TIP3    H218613   1.680   4.073   3.008  0.3639  1.9787  0.2047
 6217TIP3   OH218614   3.920   4.459   5.061  0.2743  0.0219 -0.7790
 6217TIP3    H118615   3.980   4.423   4.996  1.2425  0.9252 -0.3982
 6217TIP3    H218616   3.976   4.496   5.128 -0.7171 -0.1470  0.1717
 6218TIP3   OH218617   3.197   0.181   3.503  0.1942  0.1913 -0.1695
 6218TIP3    H118618   3.282   0.173   3.545 -0.1548  0.8943  0.7272
 6218TIP3    H218619   3.214   0.228   3.422  0.7806 -0.5223 -0.4749
 6219TIP3   OH218620   6.406   6.638   0.369  0.5606  0.2527 -0.0194
 6219TIP3    H118621   6.461   6.587   0.428 -1.4987 -0.8569  1.0373
 6219TIP3    H218622   6.374   6.575   0.304 -2.3052 -0.0258  1.5138
 6220TIP3   OH218623   5.524   1.726   3.222  0.7793 -0.3533  0.3066
 6220TIP3    H118624   5.518   1.748   3.129  2.8590 -0.0717  0.1801
 6220TIP3    H218625   5.616   1.742   3.244 -0.1027  1.8110  2.9906
 6221TIP3   OH218626   5.354   1.087   4.781 -0.4168  0.4878 -0.0147
 6221TIP3    H118627   5.349   1.142   4.703 -0.7099 -0.0016 -0.3491
 6221TIP3    H218628   5.292   1.126   4.842 -0.9750  0.2596 -0.4252
 6222TIP3   OH218629   1.822   6.166   0.781  0.5395  0.2346 -0.7056
 6222TIP3    H118630   1.875   6.138   0.855 -0.4902 -2.4788 -0.8764
 6222TIP3    H218631   1.795   6.255   0.803 -0.6488 -0.8246  2.7665
 6223TIP3   OH218632   1.879   1.684   0.278 -0.3424  0.4711 -0.3024
 6223TIP3    H118633   1.874   1.626   0.355 -0.8150 -0.4830 -1.0257
 6223TIP3    H218634   1.954   1.741   0.296 -0.0562 -0.1481  0.5828
 6224TIP3   OH218635   0.134   6.594   5.349  0.4066 -0.3272  0.6461
 6224TIP3    H118636   0.215   6.550   5.373 -1.0521 -1.1886  4.8184
 6224TIP3    H218637   0.145   6.684   5.380 -0.5764 -0.7794  2.4646
 6225TIP3   OH218638   2.219   0.392   5.053  0.1296 -0.1456  0.1553
 6225TIP3    H118639   2.167   0.377   4.974 -1.1964  0.4464  0.8769
 6225TIP3    H218640   2.154   0.400   5.123  1.2650 -0.5799  1.3037
 6226TIP3   OH218641   5.532   0.441   4.641  0.0114 -0.4046 -0.7136
 6226TIP3    H118642   5.504   0.386   4.715  1.8705 -3.3979 -2.0666
 6226TIP3    H218643   5.463   0.430   4.576 -0.0289 -0.4395 -0.6653
 6227TIP3   OH218644   1.085   6.737   5.610 -0.2363  0.2163 -0.6236
 6227TIP3    H118645   1.008   6.748   5.554 -1.3879 -0.8284  0.6619
 6227TIP3    H218646   1.050   6.745   5.699  1.1128 -0.5096 -0.0080
 6228TIP3   OH218647   0.787   5.832   3.006 -0.8991  0.0345 -0.1204
 6228TIP3    H118648   0.809   5.741   2.985  0.1988  0.3020 -0.1867
 6228TIP3    H218649   0.859   5.862   3.061 -0.7495  1.1647 -0.9021
 6229TIP3   OH218650   6.925   2.061   5.579  0.3478  0.2173 -0.0365
 6229TIP3    H118651   6.989   2.124   5.546 -0.3771  1.0147  0.0243
 6229TIP3    H218652   6.874   2.110   5.643  0.4185 -0.7370  0.7797
 6230TIP3   OH218653   4.148   1.713   3.954 -0.4871 -0.0360 -0.9404
 6230TIP3    H118654   4.216   1.764   3.910  0.9531  0.0216  1.2522
 6230TIP3    H218655   4.195   1.642   3.997 -2.2014 -1.9374 -2.0112
 6231TIP3   OH218656   4.637   1.017   0.524  0.7923 -0.3648 -0.0495
 6231TIP3    H118657   4.605   1.059   0.444  3.8794 -0.0975 -1.3016
 6231TIP3    H218658   4.592   1.063   0.595 -1.8534 -0.4296 -1.5610
 6232TIP3   OH218659   3.873   0.486   1.024 -0.1546 -0.1143 -0.4510
 6232TIP3    H118660   3.815   0.477   1.100  0.9744  2.9121  0.9449
 6232TIP3    H218661   3.960   0.497   1.062  0.6918 -0.1173 -2.2929
 6233TIP3   OH218662   0.914   2.736   4.968  0.1558  0.2447 -0.2129
 6233TIP3    H118663   0.839   2.678   4.961 -1.6881  2.1034  2.2893
 6233TIP3    H218664   0.976   2.690   5.024 -0.2495 -0.2643 -0.1837
 6234TIP3   OH218665   4.510   3.419   5.864  0.0876  0.1975 -0.5554
 6234TIP3    H118666   4.494   3.463   5.947  2.5851 -1.5486  0.9629
 6234TIP3    H218667   4.432   3.365   5.850 -0.0517 -0.0646  1.0715
 6235TIP3   OH218668   6.256   4.758   2.124 -0.1249  0.1108 -0.4150
 6235TIP3    H118669   6.212   4.839   2.152  2.3604  0.9499  1.3270
 6235TIP3    H218670   6.254   4.701   2.201  2.4936  0.5125  0.0150
 6236TIP3   OH218671   5.404   2.765   5.035 -0.0010 -0.4554 -0.1596
 6236TIP3    H118672   5.464   2.761   5.110 -0.9519  1.9593  0.8509
 6236TIP3    H218673   5.457   2.800   4.964  0.3293 -0.4035  0.1090
 6237TIP3   OH218674   1.009   5.875   1.971  0.6205  0.5024  0.7251
 6237TIP3    H118675   1.014   5.951   2.029 -0.6090  2.0617 -1.1187
 6237TIP3    H218676   0.917   5.848   1.975  0.8801 -0.4206  0.7451
 6238TIP3   OH218677   1.638   3.164   2.849  0.4443 -0.0257 -0.5501
 6238TIP3    H118678   1.549   3.145   2.878  0.7944 -2.1468 -0.7287
 6238TIP3    H218679   1.687   3.179   2.930 -0.2136  2.0473 -0.4857
 6239TIP3   OH218680   2.282   6.300   5.502  0.0932  0.1044 -0.7141
 6239TIP3    H118681   2.226   6.250   5.562  0.1625 -0.2349 -0.9324
 6239TIP3    H218682   2.361   6.247   5.494  0.8965  1.0727  0.4063
 6240TIP3   OH218683   6.785   3.128   0.596  0.5525 -0.8300 -0.0803
 6240TIP3    H118684   6.736   3.198   0.641 -1.5489 -0.5325 -2.5843
 6240TIP3    H218685   6.772   3.051   0.651  1.0386  0.2073  1.5818
 6241TIP3   OH218686   0.750   5.362   5.029 -0.8650 -0.5965  0.1470
 6241TIP3    H118687   0.840   5.388   5.008 -0.7936 -1.5235 -0.8103
 6241TIP3    H218688   0.752   5.266   5.025 -1.1915 -0.8065  3.1824
 6242TIP3   OH218689   5.462   0.776   1.318 -0.1703  0.0026 -0.3750
 6242TIP3    H118690   5.538   0.799   1.371 -0.3306 -1.6011  0.5896
 6242TIP3    H218691   5.406   0.724   1.375 -0.9357 -0.7550 -1.7478
 6243TIP3   OH218692   1.761   2.543   1.635  0.1853  0.3325  0.1121
 6243TIP3    H118693   1.807   2.585   1.708 -1.3910 -0.2218  1.4837
 6243TIP3    H218694   1.740   2.615   1.576  0.9795  0.8763  0.4691
 6244TIP3   OH218695   7.129   0.421   0.743  0.4279 -0.5958 -0.1277
 6244TIP3    H118696   7.196   0.430   0.811  0.3984  0.9203 -0.2611
 6244TIP3    H218697   7.145   0.335   0.704  1.2539 -0.9413  0.9306
 6245TIP3   OH218698   3.129   4.377   4.735  0.1389  0.1477 -0.1047
 6245TIP3    H118699   3.077   4.457   4.743 -1.5524 -0.7325 -1.4185
 6245TIP3    H218700   3.094   4.334   4.657  2.6722 -0.6895 -0.8850
 6246TIP3   OH218701   3.749   4.679   1.343  0.0118  0.1454 -0.1880
 6246TIP3    H118702   3.739   4.772   1.327 -1.8099 -0.1542 -1.0233
 6246TIP3    H218703   3.695   4.637   1.275  2.4899 -1.5924 -1.2365
 6247TIP3   OH218704   4.409   3.476   1.586 -0.1304  0.4957  0.1320
 6247TIP3    H118705   4.492   3.432   1.602  0.2393  1.3961  0.8208
 6247TIP3    H218706   4.433   3.557   1.541 -0.4311  1.5384  1.7368
 6248TIP3   OH218707   7.038   3.290   1.163 -0.1565 -0.5666 -0.3635
 6248TIP3    H118708   7.099   3.228   1.123  1.2943 -1.1376  2.4855
 6248TIP3    H218709   6.996   3.241   1.234 -1.0315  0.9420  0.2089
 6249TIP3   OH218710   3.943   1.606   4.936 -0.3463  0.1543  0.3064
 6249TIP3    H118711   3.900   1.658   4.869 -1.1244 -1.2022 -0.2979
 6249TIP3    H218712   4.035   1.607   4.912 -0.2855  1.5321  0.5286
 6250TIP3   OH218713   0.671   3.454   4.449  0.2137  0.2213 -0.7797
 6250TIP3    H118714   0.723   3.512   4.505  0.3003 -0.9858  0.4394
 6250TIP3    H218715   0.580   3.472   4.474  0.2861 -0.8650  0.3473
 6251TIP3   OH218716   5.489   5.997   2.899  0.1956  0.3286 -0.1491
 6251TIP3    H118717   5.573   5.952   2.912 -0.0862 -0.2501 -0.2582
 6251TIP3    H218718   5.457   6.015   2.987  1.9549  3.5590 -0.0328
 6252TIP3   OH218719   3.367   3.555   5.428  0.1499  0.4157 -0.6393
 6252TIP3    H118720   3.285   3.550   5.478  0.6056 -0.6150  0.0406
 6252TIP3    H218721   3.345   3.610   5.352 -1.0638  0.4777 -0.2731
 6253TIP3   OH218722   5.608   1.003   4.743 -0.0023  0.3427 -0.4810
 6253TIP3    H118723   5.585   0.959   4.661  0.4653 -2.0586  0.5950
 6253TIP3    H218724   5.527   1.046   4.770 -0.2531  0.8902 -1.9991
 6254TIP3   OH218725   3.496   3.461   1.254  0.2176  0.0630  0.1129
 6254TIP3    H118726   3.453   3.397   1.196 -0.9735  1.6756 -0.8908
 6254TIP3    H218727   3.548   3.516   1.194  0.2652  0.7589  0.7797
 6255TIP3   OH218728   5.082   5.536   4.720  0.2063 -0.2737 -0.2173
 6255TIP3    H118729   5.156   5.476   4.727  0.2013 -0.1439  1.1590
 6255TIP3    H218730   5.036   5.508   4.640  1.6631 -0.4052 -1.0451
 6256TIP3   OH218731   0.131   1.210   0.251 -0.0237 -0.1401  0.5161
 6256TIP3    H118732   0.060   1.169   0.301  0.0304  0.2639  0.9339
 6256TIP3    H218733   0.211   1.170   0.286  0.0365  0.3991  1.0074
 6257TIP3   OH218734   4.112   0.215   1.526 -0.0593  0.1853 -0.4126
 6257TIP3    H118735   4.099   0.225   1.432 -1.2896  1.8837 -0.0914
 6257TIP3    H218736   4.184   0.152   1.533  0.2826  0.2805 -2.4757
 6258TIP3   OH218737   6.744   4.885   2.947  0.4044 -0.2386 -0.4854
 6258TIP3    H118738   6.671   4.921   2.897 -1.1801 -1.6204  0.7091
 6258TIP3    H218739   6.786   4.823   2.886  0.5754  0.5178 -1.1601
 6259TIP3   OH218740   5.491   3.325   5.065 -0.0344  0.1395  0.0120
 6259TIP3    H118741   5.526   3.252   5.014  0.5575  0.7377 -0.4683
 6259TIP3    H218742   5.403   3.338   5.031  0.1229  0.1174 -0.4179
 6260TIP3   OH218743   5.979   2.228   2.420 -0.0337  0.3072 -0.0452
 6260TIP3    H118744   5.978   2.155   2.481  1.6213  0.9736  0.8315
 6260TIP3    H218745   5.965   2.306   2.474 -0.6596  0.7610 -0.8213
 6261TIP3   OH218746   6.395   0.552   3.264  0.3185  0.4560 -0.3422
 6261TIP3    H118747   6.456   0.539   3.336 -0.0137 -1.1755 -0.3171
 6261TIP3    H218748   6.420   0.636   3.226  1.9276  0.2841  0.2768
 6262TIP3   OH218749   1.169   5.045   4.188 -0.2229 -0.1965 -0.0709
 6262TIP3    H118750   1.096   5.047   4.127 -0.7938  0.9120  0.5920
 6262TIP3    H218751   1.234   5.104   4.150 -0.7101  0.7455  0.5105
 6263TIP3   OH218752   2.837   0.163   4.222  0.0115  0.2850  0.1135
 6263TIP3    H118753   2.876   0.112   4.292  0.3353 -1.1500 -1.0655
 6263TIP3    H218754   2.791   0.099   4.168  0.0286  1.2926 -1.1533
 6264TIP3   OH218755   5.688   5.910   2.581 -0.5732 -0.0988  0.0988
 6264TIP3    H118756   5.712   5.845   2.515  2.0975  1.1359 -0.2591
 6264TIP3    H218757   5.713   5.870   2.664 -0.3340 -0.1210  0.0160
 6265TIP3   OH218758   3.504   3.375   0.443  0.1064  0.0379 -0.0052
 6265TIP3    H118759   3.443   3.448   0.436  0.6511  0.4704 -0.2926
 6265TIP3    H218760   3.578   3.410   0.492 -0.4242 -0.8509  1.5143
 6266TIP3   OH218761   6.696   3.998   4.615  0.5698 -0.0262  0.5989
 6266TIP3    H118762   6.680   3.913   4.656 -0.5248  0.5026  1.3149
 6266TIP3    H218763   6.722   3.977   4.525 -0.7364 -1.0926  0.4381
 6267TIP3   OH218764   4.583   1.138   5.735  0.5047 -0.3607  0.2617
 6267TIP3    H118765   4.663   1.124   5.785  1.1237 -0.0017 -0.6208
 6267TIP3    H218766   4.599   1.096   5.651  0.3398  0.9557 -0.4584
 6268TIP3   OH218767   3.630   4.912   5.317  0.1752  0.6728 -0.3277
 6268TIP3    H118768   3.536   4.908   5.303  0.2249  2.3518 -1.3827
 6268TIP3    H218769   3.651   5.005   5.316  1.6931  0.3903  1.0553
 6269TIP3   OH218770   1.110   1.311   0.816 -0.0368 -0.1885  0.3764
 6269TIP3    H118771   1.022   1.300   0.853 -0.0071  0.1097  0.5403
 6269TIP3    H218772   1.169   1.288   0.887  0.0441  1.8839  1.0666
 6270TIP3   OH218773   6.071   4.115   5.766  0.1946 -0.8319 -0.3102
 6270TIP3    H118774   6.065   4.074   5.853  1.5319  0.3076  0.3611
 6270TIP3    H218775   6.022   4.056   5.709 -3.6637  0.0105  1.7575
 6271TIP3   OH218776   3.017   5.402   2.617  0.3949  0.7480  0.4753
 6271TIP3    H118777   2.997   5.473   2.556 -0.1054  0.6015  0.4690
 6271TIP3    H218778   2.957   5.414   2.689 -1.1762 -0.8878 -0.4741
 6272TIP3   OH218779   6.804   4.331   1.685 -0.0629 -0.4960 -0.1940
 6272TIP3    H118780   6.892   4.362   1.665  0.4046 -1.4944  0.2949
 6272TIP3    H218781   6.787   4.362   1.774 -0.3584  0.0094 -0.4207
 6273TIP3   OH218782   2.042   0.045   0.819 -0.1022  0.1297 -0.2045
 6273TIP3    H118783   2.089  -0.015   0.877  0.0919 -0.5770 -1.0786
 6273TIP3    H218784   1.954   0.049   0.857 -0.3319 -1.2841 -0.5130
 6274TIP3   OH218785   5.227   1.783   5.529  0.7183  0.1461 -0.0112
 6274TIP3    H118786   5.146   1.732   5.529  1.4755 -1.1099  0.6862
 6274TIP3    H218787   5.272   1.755   5.450  0.5154  0.7844 -0.3559
 6275TIP3   OH218788   2.195   5.369   2.723 -0.3945 -0.2235 -0.1332
 6275TIP3    H118789   2.178   5.287   2.770 -0.7417 -0.0911 -0.0278
 6275TIP3    H218790   2.201   5.435   2.792  0.6890 -0.2868 -0.1537
 6276TIP3   OH218791   5.973   3.791   5.820  0.4084 -0.6162  0.2971
 6276TIP3    H118792   5.935   3.877   5.801  0.0905 -0.1521  2.7727
 6276TIP3    H218793   5.898   3.733   5.832  0.6221 -1.2212 -1.0210
 6277TIP3   OH218794   4.171   6.376   5.748 -0.2522  0.6460 -0.0885
 6277TIP3    H118795   4.240   6.442   5.736  0.3684 -0.2749 -2.0959
 6277TIP3    H218796   4.213   6.307   5.799 -0.3854  1.0462  0.5731
 6278TIP3   OH218797   3.584   6.770   3.801 -0.0634 -0.3447  0.5445
 6278TIP3    H118798   3.561   6.681   3.828  1.4113 -0.2160  2.4303
 6278TIP3    H218799   3.674   6.763   3.771 -0.7508  0.0875 -1.8092
 6279TIP3   OH218800   5.422   3.264   1.001 -0.5661 -0.2987  0.2805
 6279TIP3    H118801   5.492   3.252   0.937 -0.1186 -0.2934  0.7677
 6279TIP3    H218802   5.341   3.261   0.949 -0.1384  3.0566 -0.8353
 6280TIP3   OH218803   5.508   5.093   0.992 -0.5298  0.3725 -0.3349
 6280TIP3    H118804   5.491   5.174   0.943 -1.6739  1.6940  2.0677
 6280TIP3    H218805   5.586   5.114   1.044 -0.3963 -0.3535 -0.2385
 6281TIP3   OH218806   0.525   5.873   0.270  0.5847 -0.3353 -0.4007
 6281TIP3    H118807   0.572   5.796   0.300  0.6594 -0.7462 -1.5356
 6281TIP3    H218808   0.565   5.895   0.186 -1.8431 -1.3199 -1.9442
 6282TIP3   OH218809   6.030   3.965   5.290  0.5371 -0.4130  0.1978
 6282TIP3    H118810   5.961   4.032   5.290 -1.0566 -1.9318  1.8781
 6282TIP3    H218811   6.080   3.982   5.210 -2.7610 -0.1733 -2.0283
 6283TIP3   OH218812   0.151   4.680   1.934 -0.6568 -0.1742  0.0401
 6283TIP3    H118813   0.141   4.767   1.895 -2.2585  0.1385  1.0297
 6283TIP3    H218814   0.236   4.683   1.977 -0.4249  0.6946 -0.4568
 6284TIP3   OH218815   0.962   2.802   4.415 -0.7446  0.6766  0.2044
 6284TIP3    H118816   1.006   2.877   4.374 -1.4981  0.3232 -1.3415
 6284TIP3    H218817   0.889   2.840   4.463 -0.8630  0.9865 -0.2092
 6285TIP3   OH218818   2.804   5.244   4.287  0.5514 -0.4050  0.1429
 6285TIP3    H118819   2.727   5.259   4.343  0.0164 -0.3265 -0.6018
 6285TIP3    H218820   2.861   5.319   4.305 -0.4740  0.6554 -0.8241
 6286TIP3   OH218821   5.862   5.505   2.092 -0.2753 -0.9323  0.2002
 6286TIP3    H118822   5.874   5.548   2.007  1.5718  0.8655  1.2724
 6286TIP3    H218823   5.773   5.470   2.088 -0.7405  0.2642 -1.9757
 6287TIP3   OH218824   1.840   6.602   0.981 -0.3370  0.5056 -0.2948
 6287TIP3    H118825   1.837   6.692   0.948 -0.2516  0.2918 -0.9045
 6287TIP3    H218826   1.933   6.579   0.979 -0.4546  0.0603 -1.1124
 6288TIP3   OH218827   2.552   6.469   2.280  0.2846 -0.2460  0.0571
 6288TIP3    H118828   2.553   6.375   2.300  0.0805 -0.5852 -1.3903
 6288TIP3    H218829   2.560   6.512   2.365 -0.5078 -1.5650  0.8283
 6289TIP3   OH218830   0.617   0.988   1.141 -0.1420  0.6089 -0.1124
 6289TIP3    H118831   0.538   0.944   1.174 -0.1617  0.4749 -0.3319
 6289TIP3    H218832   0.648   0.930   1.072  0.4325  0.4084  0.3128
 6290TIP3   OH218833   2.116   4.217   4.679  0.1116  0.2580  0.2172
 6290TIP3    H118834   2.201   4.228   4.636 -0.4622 -0.0489 -1.0496
 6290TIP3    H218835   2.122   4.131   4.721  0.7941  0.6997  1.0507
 6291TIP3   OH218836   1.354   3.182   3.934 -0.5905  0.4128 -0.2024
 6291TIP3    H118837   1.417   3.148   3.870  0.0627  0.9297  0.1494
 6291TIP3    H218838   1.271   3.187   3.887 -0.6051 -1.1748 -0.4177
 6292TIP3   OH218839   4.967   1.659   3.201  0.1441 -0.2156  0.3830
 6292TIP3    H118840   4.963   1.754   3.188 -1.9049 -0.3936 -0.7731
 6292TIP3    H218841   5.054   1.643   3.238  0.6675  2.0602  0.2777
 6293TIP3   OH218842   2.251   5.436   1.334 -0.3087 -0.2213  0.3074
 6293TIP3    H118843   2.218   5.469   1.417  0.2260 -0.8768  0.7840
 6293TIP3    H218844   2.340   5.469   1.329 -0.4474  0.1015 -0.1759
 6294TIP3   OH218845   2.153   1.936   2.915 -0.4182 -0.1943 -0.6342
 6294TIP3    H118846   2.114   2.003   2.859  0.3941  0.4855 -0.4100
 6294TIP3    H218847   2.244   1.933   2.888 -0.0625 -0.0009  0.4933
 6295TIP3   OH218848   1.944   4.812   1.851 -0.1672  0.2458  0.5868
 6295TIP3    H118849   1.890   4.766   1.787 -1.4979  1.8604  0.4865
 6295TIP3    H218850   1.906   4.790   1.936 -0.0567  0.2046  0.6262
 6296TIP3   OH218851   5.811   6.128   4.502  0.2599  0.5730  0.2559
 6296TIP3    H118852   5.727   6.083   4.504 -0.2593  1.5234  0.5697
 6296TIP3    H218853   5.834   6.133   4.409  0.9432 -1.3969  0.2752
 6297TIP3   OH218854   1.862   0.108   4.794  0.2110 -0.3902  0.6623
 6297TIP3    H118855   1.878   0.017   4.770 -1.2958  0.0156 -2.3969
 6297TIP3    H218856   1.879   0.112   4.888  2.6103 -3.2406  0.4910
 6298TIP3   OH218857   5.727   5.070   3.602 -0.0201 -0.2104 -0.2447
 6298TIP3    H118858   5.643   5.098   3.566  0.1195 -0.7422 -1.0014
 6298TIP3    H218859   5.750   4.993   3.552  0.5472 -0.5324  0.4936
 6299TIP3   OH218860   6.315   2.512   1.171 -0.0017  0.2514 -0.2154
 6299TIP3    H118861   6.292   2.465   1.091  0.3956  0.6262 -0.5597
 6299TIP3    H218862   6.411   2.519   1.167  0.0922 -0.4460  0.7006
 6300TIP3   OH218863   1.764   4.337   5.493  0.3699 -0.1208  0.2720
 6300TIP3    H118864   1.842   4.299   5.454  0.3890 -0.2866  0.4668
 6300TIP3    H218865   1.700   4.266   5.493 -0.3372  0.4783 -1.4145
 6301TIP3   OH218866   0.010   2.106   4.075 -0.4191 -0.1309  0.0968
 6301TIP3    H118867   0.104   2.121   4.086 -0.0183  0.5398 -3.2423
 6301TIP3    H218868  -0.031   2.183   4.114  0.4017 -0.2030  1.1637
 6302TIP3   OH218869   0.511   5.825   3.035  0.2739  0.0059 -0.5438
 6302TIP3    H118870   0.500   5.906   3.084  0.1109  0.2830 -1.0348
 6302TIP3    H218871   0.603   5.826   3.007  0.5511 -0.4633  0.2857
 6303TIP3   OH218872   2.541   5.798   2.926  0.3938  0.1568 -0.2647
 6303TIP3    H118873   2.510   5.787   3.016  2.5453 -1.3226  0.3732
 6303TIP3    H218874   2.489   5.870   2.891 -2.1688 -0.7772  1.3591
 6304TIP3   OH218875   5.697   5.567   2.934 -0.1821 -0.2337  0.5448
 6304TIP3    H118876   5.739   5.642   2.894  1.0461 -1.2331 -0.1018
 6304TIP3    H218877   5.764   5.528   2.990 -1.3420  0.1343  2.2630
 6305TIP3   OH218878   1.254   5.180   3.270  0.2246  0.4390  0.1285
 6305TIP3    H118879   1.230   5.215   3.184  0.3818 -0.0390 -0.1106
 6305TIP3    H218880   1.229   5.250   3.331  1.6800  1.5048 -0.4364
 6306TIP3   OH218881   5.589   3.976   5.355 -0.3761 -0.1732 -0.0286
 6306TIP3    H118882   5.660   4.022   5.311  1.6661 -0.5610  2.5696
 6306TIP3    H218883   5.610   3.883   5.344 -0.0442 -0.2814  1.2852
 6307TIP3   OH218884   6.280   3.167   2.342  0.0798 -0.3289 -0.1214
 6307TIP3    H118885   6.348   3.141   2.280  1.1276 -0.5699  1.0814
 6307TIP3    H218886   6.211   3.101   2.331  0.4412 -0.6132 -0.7286
 6308TIP3   OH218887   5.614   5.724   1.591 -0.2919 -0.4154  0.1999
 6308TIP3    H118888   5.589   5.815   1.604  2.2414  0.1480  1.6139
 6308TIP3    H218889   5.564   5.675   1.657 -1.1677 -0.0074 -0.1437
 6309TIP3   OH218890   1.780   2.014   2.547  0.0481 -0.0224  0.4047
 6309TIP3    H118891   1.850   1.959   2.581 -1.0952 -0.6119  1.9154
 6309TIP3    H218892   1.715   1.952   2.514 -1.2687  0.3535  2.1396
 6310TIP3   OH218893   1.581   4.293   3.229 -0.2524  0.3040 -0.2583
 6310TIP3    H118894   1.493   4.259   3.214 -0.0837 -0.7122  0.8943
 6310TIP3    H218895   1.634   4.216   3.247  0.3917  1.0670  1.2847
 6311TIP3   OH218896   0.028   3.320   4.982 -0.2602 -0.2365  0.1510
 6311TIP3    H118897  -0.034   3.249   4.966 -2.2398  0.8157  2.3659
 6311TIP3    H218898   0.042   3.318   5.077  3.3554 -0.5239 -0.2542
 6312TIP3   OH218899   3.543   4.724   1.993 -0.4856 -0.2104  0.4505
 6312TIP3    H118900   3.482   4.674   1.939  2.5854 -3.3598 -0.4336
 6312TIP3    H218901   3.528   4.693   2.082 -0.4420 -0.6957  0.2899
 6313TIP3   OH218902   4.169   0.787   0.560 -0.3116 -0.5094  0.0303
 6313TIP3    H118903   4.141   0.817   0.474 -0.0352  0.1568  0.1710
 6313TIP3    H218904   4.200   0.866   0.605 -0.3725 -0.8616  0.7092
 6314TIP3   OH218905   0.456   4.371   4.560 -0.3400 -0.4966 -0.1588
 6314TIP3    H118906   0.438   4.333   4.474  2.2738 -1.9854 -0.1770
 6314TIP3    H218907   0.513   4.446   4.541 -0.0676 -0.6002  0.2328
 6315TIP3   OH218908   0.779   5.632   1.415  0.7239  0.1921  0.2613
 6315TIP3    H118909   0.757   5.540   1.432 -1.5471  0.8549  1.3911
 6315TIP3    H218910   0.708   5.681   1.457  1.2539  2.4392 -1.3003
 6316TIP3   OH218911   5.927   5.553   2.731 -0.4001 -0.0248  0.2912
 6316TIP3    H118912   5.899   5.638   2.764 -0.2384  0.6919 -1.3168
 6316TIP3    H218913   5.850   5.517   2.687 -1.0085 -1.5539  2.4478
 6317TIP3   OH218914   1.369   2.838   3.575 -0.6294  0.0581 -0.3320
 6317TIP3    H118915   1.453   2.793   3.581 -0.8462 -0.3573 -0.3252
 6317TIP3    H218916   1.363   2.865   3.483 -0.4798  0.1017 -0.3279
 6318TIP3   OH218917   0.438   4.489   5.451  0.2201 -0.4259 -0.7536
 6318TIP3    H118918   0.378   4.469   5.524 -1.4909  1.4428 -1.5294
 6318TIP3    H218919   0.420   4.420   5.387 -1.1496  0.0803 -0.9615
 6319TIP3   OH218920   6.038   1.541   2.301 -0.0304  0.1295 -0.4676
 6319TIP3    H118921   5.955   1.506   2.267  0.0084 -2.7506  1.8817
 6319TIP3    H218922   6.086   1.570   2.224 -2.1626 -0.5754 -2.1726
 6320TIP3   OH218923   4.102   0.742   3.226 -0.6783  0.1986  0.7157
 6320TIP3    H118924   4.039   0.784   3.286 -0.2311  1.1817  0.5190
 6320TIP3    H218925   4.130   0.664   3.273  0.1179  1.2636  2.0929
 6321TIP3   OH218926   1.429   0.395   1.226 -0.1509 -0.1240 -0.5141
 6321TIP3    H118927   1.483   0.377   1.148  0.0177 -1.0773 -0.1917
 6321TIP3    H218928   1.436   0.490   1.238 -0.7025  0.1415 -2.0339
 6322TIP3   OH218929   4.707   6.566   0.661  0.3705 -0.0454 -0.7961
 6322TIP3    H118930   4.759   6.511   0.602  1.3885  0.0809 -0.0391
 6322TIP3    H218931   4.622   6.573   0.617  1.1054  0.1085 -2.2851
 6323TIP3   OH218932   4.290   6.673   4.025 -0.3162  0.1791 -0.3351
 6323TIP3    H118933   4.239   6.754   4.028 -0.6575 -0.0348 -0.3513
 6323TIP3    H218934   4.299   6.647   4.117 -0.7248 -0.0873 -0.3685
 6324TIP3   OH218935   4.136   2.721   0.465  0.3686  0.5606 -0.4302
 6324TIP3    H118936   4.132   2.812   0.494  0.1483  0.7462 -1.0281
 6324TIP3    H218937   4.044   2.692   0.466  0.5580 -0.0959  1.1031
 6325TIP3   OH218938   2.857   3.786   5.314  0.3398 -0.1626  0.3517
 6325TIP3    H118939   2.852   3.694   5.338  1.3569  0.1787  2.0065
 6325TIP3    H218940   2.801   3.831   5.377  0.1595  0.4039 -0.2002
 6326TIP3   OH218941   0.507   0.090   4.920  0.3621  0.1181 -0.2961
 6326TIP3    H118942   0.603   0.086   4.919  0.4575  0.6127  1.8997
 6326TIP3    H218943   0.488   0.182   4.940 -0.5086 -0.3395  1.0503
 6327TIP3   OH218944   2.876   0.150   5.406  0.4785  0.0419 -0.2250
 6327TIP3    H118945   2.797   0.104   5.377  1.5911 -0.0727 -3.4275
 6327TIP3    H218946   2.926   0.084   5.454  0.0662 -0.8278 -0.9638
 6328TIP3   OH218947   3.909   4.032   2.097  0.0684  0.6688 -0.2815
 6328TIP3    H118948   3.888   3.994   2.182  3.2247  0.0514  0.3536
 6328TIP3    H218949   3.882   3.966   2.033 -1.2111  0.6132  0.2970
 6329TIP3   OH218950   4.142   3.682   0.023 -0.6574  0.1476 -0.0348
 6329TIP3    H118951   4.171   3.649   0.108  1.1036  0.2135 -0.5755
 6329TIP3    H218952   4.222   3.691  -0.028 -1.3221  2.7330 -0.8135
 6330TIP3   OH218953   5.400   4.192   3.102 -0.0348 -0.3035 -0.5303
 6330TIP3    H118954   5.400   4.153   3.014 -1.1751 -0.4205 -0.4891
 6330TIP3    H218955   5.407   4.286   3.086  0.5884 -0.3789 -0.7147
 6331TIP3   OH218956   3.290   5.936   4.032  0.0721 -0.2255  0.3114
 6331TIP3    H118957   3.355   6.002   4.058 -0.2404  0.1292  0.2001
 6331TIP3    H218958   3.231   5.929   4.107 -0.7141  0.6512 -0.2048
 6332TIP3   OH218959   2.520   4.980   1.227  0.0855  0.6395  0.3297
 6332TIP3    H118960   2.560   5.060   1.261 -0.2561 -0.2965  3.2071
 6332TIP3    H218961   2.442   5.010   1.180  1.6654  2.1567 -1.4511
 6333TIP3   OH218962   2.289   0.508   3.672 -0.0595 -0.7082  0.3851
 6333TIP3    H118963   2.313   0.471   3.587 -0.9624 -1.6030  0.5178
 6333TIP3    H218964   2.366   0.494   3.727  0.5231 -0.1388 -0.2618
 6334TIP3   OH218965   4.196   4.888   1.463 -0.0196 -0.2594  0.1359
 6334TIP3    H118966   4.239   4.945   1.399 -1.5144  1.2748  0.4213
 6334TIP3    H218967   4.249   4.895   1.542  1.1815 -1.2501 -0.5496
 6335TIP3   OH218968   5.358   3.617   0.656  0.0267  0.1249  0.1524
 6335TIP3    H118969   5.307   3.562   0.716 -1.0042  1.9355  1.0067
 6335TIP3    H218970   5.449   3.607   0.686 -0.0494 -1.4716 -0.0513
 6336TIP3   OH218971   6.572   6.250   2.634  0.0639 -0.1940  0.5080
 6336TIP3    H118972   6.490   6.200   2.641  0.8387 -1.5957 -0.1186
 6336TIP3    H218973   6.544   6.337   2.606 -1.3229 -0.2394  1.6183
 6337TIP3   OH218974   0.691   3.588   3.617 -0.0750  0.2977  0.1876
 6337TIP3    H118975   0.717   3.674   3.585  2.4105 -0.4717 -0.0261
 6337TIP3    H218976   0.772   3.539   3.624 -1.2975 -1.6905  1.4106
 6338TIP3   OH218977   4.238   5.018   2.250 -0.6596 -0.0336  0.1205
 6338TIP3    H118978   4.275   5.105   2.236  2.1389 -1.0699  0.4965
 6338TIP3    H218979   4.248   4.974   2.166  0.4212 -0.8048  0.6280
 6339TIP3   OH218980   0.521   3.975   1.030  0.4515 -0.4349 -0.0586
 6339TIP3    H118981   0.616   3.979   1.028  0.3937  2.3758 -2.1104
 6339TIP3    H218982   0.494   3.976   0.939 -1.5170  2.8865  0.3856
 6340TIP3   OH218983   1.817   1.553   2.096 -0.4498 -0.0342 -0.3170
 6340TIP3    H118984   1.899   1.569   2.050  0.1685 -0.5305  0.5807
 6340TIP3    H218985   1.811   1.624   2.160 -0.2986 -0.4492  0.1688
 6341TIP3   OH218986   5.510   3.810   4.380 -0.2961 -0.1857  0.0894
 6341TIP3    H118987   5.528   3.904   4.384  2.5615 -0.6180 -0.5315
 6341TIP3    H218988   5.496   3.785   4.472 -1.5142  0.8733  0.2206
 6342TIP3   OH218989   6.340   6.069   4.596 -0.1705 -0.1002 -0.7982
 6342TIP3    H118990   6.358   6.003   4.664  1.5232  0.3511 -0.7468
 6342TIP3    H218991   6.253   6.048   4.564 -0.7140 -0.7818  1.0069
 6343TIP3   OH218992   3.340   3.992   0.087 -0.9254  0.2521  0.2894
 6343TIP3    H118993   3.394   4.069   0.068 -2.0276  1.7434  2.6872
 6343TIP3    H218994   3.400   3.932   0.133 -0.9597  1.4158  1.9290
 6344TIP3   OH218995   4.141   5.352   3.342  0.1504 -0.0175 -0.2127
 6344TIP3    H118996   4.189   5.286   3.291 -2.8453 -1.5478 -1.3082
 6344TIP3    H218997   4.097   5.301   3.410 -1.4102  1.0010 -0.4261
 6345TIP3   OH218998   2.818   6.796   3.727 -0.2820  0.6651  0.2556
 6345TIP3    H118999   2.873   6.721   3.703 -2.8432 -1.2245 -0.1711
 6345TIP3    H219000   2.841   6.815   3.818  1.8363  0.7432 -0.2524
 6346TIP3   OH219001   5.568   5.399   3.241  0.6381  0.0210 -0.9156
 6346TIP3    H119002   5.557   5.369   3.151 -1.2404  1.2262 -1.1458
 6346TIP3    H219003   5.552   5.493   3.237 -1.9417 -0.2174  0.9885
 6347TIP3   OH219004   5.340   0.238   0.538 -0.7853  0.4377 -0.4699
 6347TIP3    H119005   5.334   0.260   0.631 -0.2174 -1.7339  0.1569
 6347TIP3    H219006   5.264   0.181   0.523  0.1630 -0.7757 -0.8043
 6348TIP3   OH219007   6.718   2.990   2.270  0.2578  0.3065  0.2127
 6348TIP3    H119008   6.758   2.903   2.265 -0.4627 -0.1078  1.3360
 6348TIP3    H219009   6.715   3.019   2.179 -0.6380 -1.3817 -0.3511
 6349TIP3   OH219010   1.221   0.781   4.701 -0.3765  0.3310 -0.0927
 6349TIP3    H119011   1.278   0.707   4.684 -0.8407  0.1295 -0.7734
 6349TIP3    H219012   1.133   0.745   4.701 -0.6421  0.9503 -0.8678
 6350TIP3   OH219013   1.066   3.237   1.870  0.1388  0.3523 -0.1636
 6350TIP3    H119014   1.100   3.159   1.912 -0.0148 -0.0446 -0.7707
 6350TIP3    H219015   1.102   3.310   1.922 -0.1512 -0.1204  0.7308
 6351TIP3   OH219016   3.923   4.659   3.377 -0.0888 -0.4024 -0.4372
 6351TIP3    H119017   3.881   4.714   3.443 -1.7088  0.8126 -2.3647
 6351TIP3    H219018   4.017   4.676   3.388 -0.4570  1.5791  0.0636
 6352TIP3   OH219019   3.742   1.212   2.825 -0.0776 -0.0763  0.2244
 6352TIP3    H119020   3.680   1.157   2.873 -1.3398  0.5990 -0.5738
 6352TIP3    H219021   3.781   1.268   2.892  0.5072 -1.2290  0.8975
 6353TIP3   OH219022   6.042   4.242   3.660  0.8797 -0.0006 -0.0008
 6353TIP3    H119023   6.079   4.179   3.722  1.6857  1.9254  1.5940
 6353TIP3    H219024   6.113   4.256   3.597  0.7334 -0.5974 -0.3045
 6354TIP3   OH219025   4.841   2.846   5.858  0.1102  0.0353 -0.0188
 6354TIP3    H119026   4.850   2.940   5.844  1.0500 -0.0557 -0.0709
 6354TIP3    H219027   4.808   2.813   5.775  0.7704  0.1892 -0.3555
 6355TIP3   OH219028   5.919   5.706   1.062 -0.0217  0.2478  0.1356
 6355TIP3    H119029   5.904   5.618   1.028 -0.0096  0.8336 -1.4960
 6355TIP3    H219030   5.993   5.697   1.122  1.5546 -0.4865 -1.8128
 6356TIP3   OH219031   0.620   1.333   4.591 -0.1924 -0.6551 -0.4173
 6356TIP3    H119032   0.682   1.366   4.526 -0.4071 -0.9242 -0.7604
 6356TIP3    H219033   0.540   1.314   4.541  0.0795 -2.1526 -0.3222
 6357TIP3   OH219034   1.296   0.048   4.933  0.3367 -0.0560 -0.4161
 6357TIP3    H119035   1.225   0.070   4.873 -0.6450 -0.3736  0.5944
 6357TIP3    H219036   1.375   0.046   4.878 -0.3470  0.8165 -1.4560
 6358TIP3   OH219037   1.954   2.332   3.727  0.4474 -0.5574 -0.7721
 6358TIP3    H119038   1.898   2.410   3.726  1.1871 -0.0062 -1.8389
 6358TIP3    H219039   1.917   2.276   3.795 -1.6124 -0.3787 -1.6869
 6359TIP3   OH219040   1.353   1.662   2.826  0.0764  0.2647 -0.1960
 6359TIP3    H119041   1.283   1.615   2.872  0.0227  0.6095  0.0814
 6359TIP3    H219042   1.426   1.663   2.888  0.6876 -0.9767 -0.8647
 6360TIP3   OH219043   0.679   1.582   2.075  0.2285  0.1820 -0.6374
 6360TIP3    H119044   0.691   1.609   2.166 -0.7177  1.5045 -0.8671
 6360TIP3    H219045   0.766   1.553   2.047  0.5050 -0.3617  0.7048
 6361TIP3   OH219046   6.949   0.405   1.004  0.2027 -0.1563  0.5005
 6361TIP3    H119047   7.003   0.424   0.927 -0.7502  0.4936 -0.0251
 6361TIP3    H219048   6.881   0.473   1.004 -0.3400 -0.6705  1.4172
 6362TIP3   OH219049   4.448   1.686   0.278 -0.4907 -0.1044 -0.0188
 6362TIP3    H119050   4.488   1.738   0.347  0.3393 -2.0110  1.0049
 6362TIP3    H219051   4.386   1.629   0.323  0.7700 -2.0742 -0.6680
 6363TIP3   OH219052   4.882   3.962   2.241  0.0073 -0.4012 -0.3464
 6363TIP3    H119053   4.933   4.026   2.191  1.1863 -0.4905  0.7223
 6363TIP3    H219054   4.847   4.011   2.315 -0.6779 -0.5685 -0.5494
 6364TIP3   OH219055   2.426   3.865   1.181  0.2167 -0.0090  0.4606
 6364TIP3    H119056   2.400   3.826   1.265 -0.6341 -1.6796 -0.5295
 6364TIP3    H219057   2.344   3.894   1.142  0.3732 -0.9351 -0.5947
 6365TIP3   OH219058   1.447  -0.021   1.893  0.3426 -0.3271  0.1612
 6365TIP3    H119059   1.514   0.031   1.937 -0.9077  0.3970  1.3035
 6365TIP3    H219060   1.372   0.038   1.887 -0.2683 -1.1946 -0.8608
 6366TIP3   OH219061   2.447   6.344   4.366 -0.0114 -0.5336  0.2913
 6366TIP3    H119062   2.443   6.417   4.304  1.9069 -1.8217 -1.4784
 6366TIP3    H219063   2.452   6.386   4.452 -1.6415  1.3335 -0.4396
 6367TIP3   OH219064   6.848   5.929   3.902 -0.0781 -0.3164  0.5259
 6367TIP3    H119065   6.942   5.943   3.891  0.2039 -1.0017  1.8380
 6367TIP3    H219066   6.841   5.836   3.926 -0.9560  0.0592  1.7852
 6368TIP3   OH219067   6.027   5.762   3.456  0.1979 -0.7139  0.3551
 6368TIP3    H119068   5.953   5.804   3.499 -0.9480 -1.5522 -0.7359
 6368TIP3    H219069   6.047   5.687   3.511  1.0208  0.1418  1.2749
 6369TIP3   OH219070   3.356   4.396   2.144  0.3088 -0.2738 -0.7607
 6369TIP3    H119071   3.411   4.361   2.074  0.3228  0.2863 -1.0369
 6369TIP3    H219072   3.278   4.429   2.099 -0.2676 -1.0860 -0.3662
 6370TIP3   OH219073   6.037   2.507   1.721 -0.2041 -0.4943  0.4391
 6370TIP3    H119074   6.029   2.446   1.647 -0.5728  0.6495 -0.4946
 6370TIP3    H219075   6.072   2.454   1.792 -0.5390 -1.8051 -0.3369
 6371TIP3   OH219076   4.600   0.152   5.688 -0.3253 -0.5330 -0.5010
 6371TIP3    H119077   4.526   0.212   5.695  1.2876  1.4416  0.3678
 6371TIP3    H219078   4.651   0.185   5.614  0.1609 -1.3555 -0.5471
 6372TIP3   OH219079   0.276   5.326   4.363 -0.1248 -0.3899 -1.1348
 6372TIP3    H119080   0.264   5.416   4.333 -1.9976  0.4086  1.5689
 6372TIP3    H219081   0.218   5.274   4.307 -0.9367  0.4829 -1.1312
 6373TIP3   OH219082   5.798   5.599   4.142  0.4445  0.0972 -0.2209
 6373TIP3    H119083   5.729   5.549   4.185  0.1680  0.0476 -0.7240
 6373TIP3    H219084   5.872   5.539   4.138 -0.1333 -0.5669 -1.5389
 6374TIP3   OH219085   6.909   1.184   2.413  0.0634  0.3196  0.5974
 6374TIP3    H119086   6.927   1.093   2.439 -1.1231  0.1964  1.0277
 6374TIP3    H219087   6.864   1.176   2.329  1.4816  0.6074 -0.2250
 6375TIP3   OH219088   1.667   2.727   3.505 -0.1059 -0.1046  0.2462
 6375TIP3    H119089   1.733   2.790   3.476 -0.9295  1.0708  0.8791
 6375TIP3    H219090   1.645   2.677   3.426  0.3404  0.5869 -0.3291
 6376TIP3   OH219091   4.663   2.268   3.957  0.2895  0.2684 -0.2444
 6376TIP3    H119092   4.615   2.334   3.906  1.3939  0.8400 -0.5692
 6376TIP3    H219093   4.687   2.313   4.038  0.3591  0.0159 -0.1255
 6377TIP3   OH219094   5.730   5.655   5.132  0.5148 -0.2274 -0.2109
 6377TIP3    H119095   5.702   5.746   5.125  2.0441  0.2695 -0.3116
 6377TIP3    H219096   5.717   5.619   5.044  0.1269 -0.0468 -0.2301
 6378TIP3   OH219097   4.427   0.952   3.408  0.2190  0.0524  0.3735
 6378TIP3    H119098   4.465   0.909   3.332 -1.2407 -2.1391  0.8199
 6378TIP3    H219099   4.388   1.033   3.374  1.3420  0.1208 -0.8107
 6379TIP3   OH219100   3.894   3.882   5.231  0.1073  0.2857 -0.0218
 6379TIP3    H119101   3.937   3.797   5.222  0.6801  0.4998  0.6372
 6379TIP3    H219102   3.818   3.864   5.287  0.0545  0.1487 -0.1380
 6380TIP3   OH219103   3.811   3.519   3.529 -0.5006  0.1078  0.4337
 6380TIP3    H119104   3.872   3.540   3.600 -0.4889 -1.1359  0.8303
 6380TIP3    H219105   3.865   3.520   3.450 -0.1281 -0.2168  0.6802
 6381TIP3   OH219106   0.050   4.299   2.374  0.7354 -0.3593  0.0051
 6381TIP3    H119107   0.048   4.337   2.286 -0.2120 -0.9949 -0.2668
 6381TIP3    H219108   0.080   4.370   2.431 -0.4978  0.6451 -0.5493
 6382TIP3   OH219109   4.494   5.333   3.363  0.0680 -0.0888 -0.4701
 6382TIP3    H119110   4.588   5.318   3.371  0.1085  1.1559  2.3563
 6382TIP3    H219111   4.486   5.397   3.293  1.0517 -1.9144 -2.3735
 6383TIP3   OH219112   6.175   1.143   3.875 -0.0642 -0.2024  0.1333
 6383TIP3    H119113   6.231   1.183   3.942  0.0660 -0.4048  0.1459
 6383TIP3    H219114   6.107   1.208   3.859  1.6981  1.3007 -1.8985
 6384TIP3   OH219115   6.055   3.433   4.176  0.6317  0.4962  0.0213
 6384TIP3    H119116   5.970   3.391   4.187  1.2399 -0.6764  0.5101
 6384TIP3    H219117   6.035   3.524   4.157 -0.7508  0.0834 -0.6877
 6385TIP3   OH219118   4.061   6.384   2.584 -0.0498  0.0198 -0.6038
 6385TIP3    H119119   4.121   6.313   2.562  0.4046  0.6228 -1.3671
 6385TIP3    H219120   4.057   6.438   2.505  0.7049  1.5898  0.3753
 6386TIP3   OH219121   5.635   6.670   0.915 -0.0822 -0.2892 -0.0288
 6386TIP3    H119122   5.703   6.650   0.979 -1.4869 -0.2104  1.5889
 6386TIP3    H219123   5.553   6.655   0.963 -1.2028  1.5020 -1.2649
 6387TIP3   OH219124   5.909   5.570   1.602 -0.2567 -0.1572  0.2592
 6387TIP3    H119125   5.994   5.612   1.584 -0.7330  0.9238  0.4315
 6387TIP3    H219126   5.914   5.542   1.693 -0.5508  1.1020  0.6789
 6388TIP3   OH219127   4.405   2.348   4.181  0.2515  0.3317 -0.4976
 6388TIP3    H119128   4.485   2.396   4.159 -0.2722  0.3161 -2.5941
 6388TIP3    H219129   4.352   2.350   4.102 -1.6768 -0.0272  0.7054
 6389TIP3   OH219130   1.994   5.284   1.582 -0.6274  0.0974 -0.2517
 6389TIP3    H119131   1.910   5.240   1.571 -0.5009  0.4316 -3.7305
 6389TIP3    H219132   2.056   5.214   1.600 -1.3414 -0.3628  0.4895
 6390TIP3   OH219133   6.696   2.437   4.804 -0.2115 -0.5707 -0.3006
 6390TIP3    H119134   6.643   2.358   4.791 -1.5777  0.1546  0.6037
 6390TIP3    H219135   6.636   2.509   4.787  0.3250  0.2928  1.3199
 6391TIP3   OH219136   4.034   2.350   2.239 -0.4812  0.1062 -0.2620
 6391TIP3    H119137   4.050   2.351   2.145 -0.7606 -0.3093 -0.3151
 6391TIP3    H219138   4.112   2.308   2.276 -1.1632 -1.3690 -0.4688
 6392TIP3   OH219139   3.447   1.133   5.324 -0.0762  0.3666  0.2048
 6392TIP3    H119140   3.471   1.113   5.414 -1.0493 -1.6988  0.0714
 6392TIP3    H219141   3.435   1.228   5.322  1.1512  0.5883  1.9315
 6393TIP3   OH219142   3.563   5.868   0.462  0.3246 -0.3530  0.3220
 6393TIP3    H119143   3.606   5.944   0.422  0.8948 -2.1914 -2.8172
 6393TIP3    H219144   3.593   5.870   0.554  2.4480  1.7143 -0.3023
 6394TIP3   OH219145   0.806   3.603   1.066  0.4587  0.0315  0.5226
 6394TIP3    H119146   0.857   3.618   0.986  0.8770  0.2820  0.8288
 6394TIP3    H219147   0.719   3.638   1.046  0.3546 -0.5523 -0.0652
 6395TIP3   OH219148   3.019   3.156   4.061  0.0251 -0.2921  0.9794
 6395TIP3    H119149   3.064   3.153   3.976 -0.3494  0.0574  0.7671
 6395TIP3    H219150   3.008   3.064   4.086  1.0800 -0.3867  1.1568
 6396TIP3   OH219151   6.176   4.501   5.070  0.5190  0.3447  0.4501
 6396TIP3    H119152   6.159   4.432   5.006 -0.9066  0.8236  0.2791
 6396TIP3    H219153   6.237   4.461   5.132 -0.5286 -1.2020  0.5472
 6397TIP3   OH219154   1.024   0.152   2.013 -0.1085  0.0690 -0.1731
 6397TIP3    H119155   0.974   0.169   1.934  0.6435  0.1511 -0.6492
 6397TIP3    H219156   1.089   0.223   2.016 -0.9813  0.8699  1.2673
 6398TIP3   OH219157   3.305   1.492   2.486 -0.3758 -0.1931 -0.7039
 6398TIP3    H119158   3.394   1.520   2.506 -0.7008 -0.2532  0.9802
 6398TIP3    H219159   3.293   1.412   2.538 -1.4039 -0.1680 -0.8845
 6399TIP3   OH219160   0.887   6.044   3.282  0.0733 -0.1764  0.0540
 6399TIP3    H119161   0.881   6.135   3.254 -0.9353 -0.0807  0.5116
 6399TIP3    H219162   0.964   6.010   3.238 -0.2509  0.5532 -1.1312
 6400TIP3   OH219163   4.704   6.494   0.902  1.1591  0.1829 -0.3442
 6400TIP3    H119164   4.734   6.532   0.819 -0.8165  1.4439 -0.5529
 6400TIP3    H219165   4.676   6.570   0.954  0.1820 -0.7461  0.5331
 6401TIP3   OH219166   7.066   5.511   0.572 -0.2869 -0.7374 -0.3622
 6401TIP3    H119167   7.075   5.434   0.629  1.2206  1.4247  2.6195
 6401TIP3    H219168   7.010   5.571   0.622  2.4529  1.9377 -0.2092
 6402TIP3   OH219169   6.967   5.128   1.674 -0.8603  0.6981  0.2003
 6402TIP3    H119170   7.023   5.197   1.638  1.0157 -0.7065  0.2748
 6402TIP3    H219171   7.027   5.055   1.689 -3.1288 -1.8619 -2.1776
 6403TIP3   OH219172   3.473   5.096   1.284  0.1529  0.4181  0.1013
 6403TIP3    H119173   3.383   5.117   1.262 -0.0444 -0.2218  0.2741
 6403TIP3    H219174   3.517   5.086   1.200 -0.1774 -0.2450 -0.0026
 6404TIP3   OH219175   5.190   3.974   3.007 -0.1266  0.3932 -0.1420
 6404TIP3    H119176   5.119   4.033   3.032  0.8532  1.0296  1.2713
 6404TIP3    H219177   5.249   4.028   2.954  0.5950  0.6338  0.8653
 6405TIP3   OH219178   5.077   6.255   3.621 -0.4679  0.3731  0.0519
 6405TIP3    H119179   5.046   6.268   3.710  1.3156  0.3884  0.7052
 6405TIP3    H219180   5.051   6.165   3.600  0.8833 -0.3775  1.3884
 6406TIP3   OH219181   6.401   2.292   3.859 -0.1554 -0.2280  0.1255
 6406TIP3    H119182   6.418   2.276   3.951 -1.0770 -1.6582  0.0659
 6406TIP3    H219183   6.446   2.220   3.813 -1.9920 -1.1414 -0.3353
 6407TIP3   OH219184   6.298   2.575   2.077 -0.2555  0.3490 -0.2835
 6407TIP3    H119185   6.355   2.567   2.000  1.5496  0.3526  0.9919
 6407TIP3    H219186   6.232   2.507   2.065 -0.4198  0.7824 -2.1520
 6408TIP3   OH219187   4.893   1.928   0.776  0.2093 -0.1965 -0.1049
 6408TIP3    H119188   4.912   2.022   0.771  2.5125 -0.4210  2.0436
 6408TIP3    H219189   4.845   1.917   0.858 -0.6345 -0.8297 -0.6698
 6409TIP3   OH219190   4.247   3.073   4.276  0.0674  0.3754 -0.3642
 6409TIP3    H119191   4.257   3.168   4.281 -1.1475  0.4715  1.2390
 6409TIP3    H219192   4.214   3.056   4.188 -0.5033  1.5347 -0.3852
 6410TIP3   OH219193   5.156   2.165   2.375 -0.0301  0.0629 -0.3162
 6410TIP3    H119194   5.092   2.186   2.442  1.0138  0.5507  0.5604
 6410TIP3    H219195   5.212   2.098   2.415  0.3396  0.0443 -0.8509
 6411TIP3   OH219196   2.121   0.876   3.867 -0.5216  0.3632 -0.5194
 6411TIP3    H119197   2.212   0.902   3.883  0.0005  0.3266 -2.9823
 6411TIP3    H219198   2.070   0.954   3.887 -0.1697 -0.0639  2.3643
 6412TIP3   OH219199   1.699   0.929   3.597  0.4391 -0.9408 -0.0445
 6412TIP3    H119200   1.755   0.868   3.645 -0.2225 -1.5140 -0.0004
 6412TIP3    H219201   1.646   0.971   3.665  2.6097  1.5995  0.2816
 6413TIP3   OH219202   3.386   3.898   2.085  0.4308 -0.0197 -0.7465
 6413TIP3    H119203   3.386   3.933   2.174 -0.9250 -0.3824 -0.5909
 6413TIP3    H219204   3.318   3.832   2.085  2.0182 -1.7340 -1.4126
 6414TIP3   OH219205   6.348   5.528   5.293 -0.1517 -0.0589 -0.1962
 6414TIP3    H119206   6.301   5.506   5.374  0.5160 -2.2714 -0.3299
 6414TIP3    H219207   6.285   5.508   5.223  0.5568 -2.0893 -0.3317
 6415TIP3   OH219208   1.666   2.250   2.616 -0.0245 -0.1286 -0.0658
 6415TIP3    H119209   1.709   2.166   2.602  1.0935  0.6113 -1.2254
 6415TIP3    H219210   1.575   2.235   2.589 -0.0411 -1.1590  0.5030
 6416TIP3   OH219211   4.002   0.149   4.616 -0.0888  0.2206  0.2840
 6416TIP3    H119212   4.054   0.217   4.659  0.1050  1.2971 -1.5753
 6416TIP3    H219213   3.927   0.195   4.580 -1.0981 -0.9326  0.8319
 6417TIP3   OH219214   0.631   6.431   2.930  0.4852 -0.5351 -0.8145
 6417TIP3    H119215   0.557   6.372   2.919  0.5241 -0.5179 -1.1533
 6417TIP3    H219216   0.596   6.503   2.983  0.5332 -1.0281 -0.0930
 6418TIP3   OH219217   4.903   5.961   0.335  0.1729 -0.1803  0.0122
 6418TIP3    H119218   4.972   5.997   0.280  0.3332 -1.6048 -0.7707
 6418TIP3    H219219   4.852   6.037   0.362  0.0583  0.5734 -2.1409
 6419TIP3   OH219220   4.201   5.167   0.425 -0.3275 -0.0203  0.0120
 6419TIP3    H119221   4.132   5.120   0.470 -0.1058  0.0577  0.4356
 6419TIP3    H219222   4.262   5.099   0.396 -0.2087 -0.0262  0.2776
 6420TIP3   OH219223   6.960   0.810   5.240  0.1855 -0.8699  0.3482
 6420TIP3    H119224   6.914   0.767   5.312 -0.0588  1.3047  1.5816
 6420TIP3    H219225   6.900   0.803   5.166 -0.7557 -0.8370  1.0843
 6421TIP3   OH219226   2.295   6.362   2.415  0.0699 -0.2181 -0.4145
 6421TIP3    H119227   2.259   6.369   2.503 -1.3093 -0.6044 -0.9221
 6421TIP3    H219228   2.322   6.451   2.393  0.6230 -0.1541  0.4559
 6422TIP3   OH219229   5.533   1.282   2.684 -0.2973  0.2832  0.2500
 6422TIP3    H119230   5.530   1.260   2.590 -1.1612 -1.3768  0.6343
 6422TIP3    H219231   5.586   1.213   2.723  3.2799  2.9428  0.5658
 6423TIP3   OH219232   5.935   4.744   0.659 -0.2968  0.0252 -0.5711
 6423TIP3    H119233   5.931   4.779   0.748  0.1696 -0.6775 -0.2681
 6423TIP3    H219234   5.926   4.821   0.603  0.6701  0.6353  0.0805
 6424TIP3   OH219235   0.861   4.491   0.348 -0.6783 -0.1562  0.0043
 6424TIP3    H119236   0.859   4.570   0.294  0.8953 -0.9813 -1.3631
 6424TIP3    H219237   0.828   4.421   0.291 -0.0246 -0.8595  0.4574
 6425TIP3   OH219238   2.850   1.602   4.589 -0.7170  0.4401 -0.4949
 6425TIP3    H119239   2.760   1.598   4.557 -0.8353 -0.3558 -0.0954
 6425TIP3    H219240   2.863   1.694   4.613 -0.5527  1.1180 -2.9740
 6426TIP3   OH219241   0.228   2.523   0.210  0.2182  0.3139  0.2564
 6426TIP3    H119242   0.135   2.502   0.203  0.2747  0.3420 -0.7377
 6426TIP3    H219243   0.243   2.590   0.143  1.4387 -1.4100 -1.3073
 6427TIP3   OH219244   7.161   1.532   3.820 -0.0352  0.2673 -0.2330
 6427TIP3    H119245   7.248   1.499   3.798 -0.2430  0.1736 -0.9262
 6427TIP3    H219246   7.129   1.474   3.889 -1.2802 -2.3877 -2.8460
 6428TIP3   OH219247   4.039   4.899   0.105 -1.1117 -0.4219  0.1394
 6428TIP3    H119248   3.945   4.912   0.098 -1.2249 -0.7589  0.9429
 6428TIP3    H219249   4.068   4.965   0.169 -1.0268 -1.2509  0.9705
 6429TIP3   OH219250   2.272   1.436   3.123 -0.4298 -0.6379  0.4026
 6429TIP3    H119251   2.283   1.437   3.218 -0.2519 -1.5439  0.3986
 6429TIP3    H219252   2.308   1.520   3.094  0.5528 -0.8278  1.0257
 6430TIP3   OH219253   3.953   6.553   2.305 -0.1935  0.3459  0.5269
 6430TIP3    H119254   4.036   6.598   2.293 -0.8050  1.3240 -0.2314
 6430TIP3    H219255   3.970   6.463   2.277  0.6790  0.4576  0.6722
 6431TIP3   OH219256   4.073   6.491   2.881  0.5296  0.5287  0.8648
 6431TIP3    H119257   3.995   6.546   2.870  0.0920  0.2514  2.3734
 6431TIP3    H219258   4.067   6.427   2.810 -0.8034  0.2985  1.1652
 6432TIP3   OH219259   6.325   2.489   5.455 -0.3608  0.1265 -0.0925
 6432TIP3    H119260   6.281   2.549   5.395  0.7060  2.1977  1.0767
 6432TIP3    H219261   6.416   2.487   5.424  0.0181  0.5973  0.9142
 6433TIP3   OH219262   4.320   2.734   2.858  0.0463  0.4886  0.2487
 6433TIP3    H119263   4.230   2.724   2.888 -0.1747  0.0910 -0.5247
 6433TIP3    H219264   4.328   2.675   2.783  1.8839 -1.8994  2.1796
 6434TIP3   OH219265   6.706   1.464   1.304 -0.8242  0.6403 -0.4400
 6434TIP3    H119266   6.712   1.558   1.285 -1.0612  0.5713 -0.8534
 6434TIP3    H219267   6.617   1.440   1.278 -0.8640  0.3640 -0.0477
 6435TIP3   OH219268   2.056   4.935   2.183  0.0770  0.4685 -0.0543
 6435TIP3    H119269   2.132   4.963   2.131 -0.6110 -0.4020 -1.5842
 6435TIP3    H219270   1.980   4.961   2.132 -0.6210 -1.5466 -0.1490
 6436TIP3   OH219271   3.351   4.765   4.100 -0.1581  0.0417 -0.1472
 6436TIP3    H119272   3.352   4.746   4.193  0.6206  2.1197  0.3335
 6436TIP3    H219273   3.422   4.712   4.063 -0.0149 -0.2662  0.5652
 6437TIP3   OH219274   6.627   3.560   0.154  0.4730 -0.1480 -0.0622
 6437TIP3    H119275   6.578   3.641   0.169  0.6982 -0.1784  0.9448
 6437TIP3    H219276   6.622   3.513   0.238  0.8220 -0.9145 -0.4584
 6438TIP3   OH219277   0.350   2.229   3.539 -0.1259 -0.0608 -0.5901
 6438TIP3    H119278   0.293   2.286   3.590  0.4562 -0.2053  0.2491
 6438TIP3    H219279   0.397   2.288   3.480  0.9793  0.4656  0.7396
 6439TIP3   OH219280   0.122   2.650   4.076  0.4754  0.0290  0.3026
 6439TIP3    H119281   0.136   2.740   4.047 -1.1114  0.5270  0.9380
 6439TIP3    H219282   0.031   2.632   4.052 -0.0061 -0.5286  2.3681
 6440TIP3   OH219283   1.291   1.185   0.410  0.3037  0.3242  0.1966
 6440TIP3    H119284   1.218   1.193   0.348 -0.1220 -1.0210  0.4850
 6440TIP3    H219285   1.353   1.128   0.365 -0.3201 -1.2524  1.2450
 6441TIP3   OH219286   2.446   0.697   5.641 -0.3696  0.3815 -0.5903
 6441TIP3    H119287   2.525   0.727   5.597 -0.0376 -1.5969 -1.4565
 6441TIP3    H219288   2.478   0.638   5.710 -1.0241  1.0628  0.3149
 6442TIP3   OH219289   2.234   1.306   0.577 -0.2173  0.3200 -0.0663
 6442TIP3    H119290   2.287   1.233   0.545 -1.3620 -0.9407  0.7811
 6442TIP3    H219291   2.288   1.348   0.644  1.1745  1.4201 -1.7932
 6443TIP3   OH219292   1.635   4.407   4.519  0.6472 -0.2683 -0.0311
 6443TIP3    H119293   1.619   4.381   4.428  0.3239  0.3177 -0.1469
 6443TIP3    H219294   1.721   4.370   4.539  2.7173  2.9014 -1.9435
 6444TIP3   OH219295   6.959   3.943   0.519 -0.9035 -0.6240  0.2665
 6444TIP3    H119296   6.913   4.026   0.507  0.4014  0.1964  0.7076
 6444TIP3    H219297   6.994   3.922   0.433  0.1760  0.1715  0.4932
 6445TIP3   OH219298   3.053   2.537   1.171  0.3490  0.4026  0.5586
 6445TIP3    H119299   3.105   2.458   1.154  0.5195  0.2560  1.6958
 6445TIP3    H219300   3.038   2.574   1.084 -1.1439 -1.7463 -0.2079
 6446TIP3   OH219301   0.036   2.267   0.622 -0.2369  0.0064  0.9890
 6446TIP3    H119302   0.015   2.208   0.550 -0.2836  2.4093 -1.1312
 6446TIP3    H219303  -0.045   2.273   0.672 -1.5008  1.1546 -1.0412
 6447TIP3   OH219304   3.554   1.757   0.928  0.3415  0.1488  0.8836
 6447TIP3    H119305   3.589   1.668   0.932 -0.9042 -0.3193  2.3678
 6447TIP3    H219306   3.624   1.812   0.964  1.4220 -0.0985 -0.7607
 6448TIP3   OH219307   6.388   2.584   4.792  0.4699 -0.5403  0.2995
 6448TIP3    H119308   6.321   2.647   4.764  0.8129 -0.2983  0.0148
 6448TIP3    H219309   6.361   2.558   4.880 -0.1946 -0.7155  0.0528
 6449TIP3   OH219310   2.635   4.986   0.162  0.2532 -0.1419 -0.3720
 6449TIP3    H119311   2.689   5.064   0.172  0.0530 -0.0694  0.1628
 6449TIP3    H219312   2.554   5.017   0.121  0.6930 -0.2872 -1.3919
 6450TIP3   OH219313   1.516   1.030   0.756 -0.1203  0.0818  0.1754
 6450TIP3    H119314   1.606   1.003   0.774 -0.3110  0.7449  2.5056
 6450TIP3    H219315   1.525   1.103   0.696  0.8418 -0.3702 -0.2578
 6451TIP3   OH219316   6.074   0.595   2.639 -0.6910 -0.6433 -0.3688
 6451TIP3    H119317   6.125   0.527   2.683 -1.3456 -1.0341 -0.1934
 6451TIP3    H219318   6.108   0.677   2.675  0.2251 -0.8596 -0.7110
 6452TIP3   OH219319   0.256   6.142   5.352  0.0873  0.4327 -0.0318
 6452TIP3    H119320   0.269   6.216   5.292  0.1382  0.1270 -0.4048
 6452TIP3    H219321   0.336   6.090   5.343 -1.6681 -2.1277 -3.2772
 6453TIP3   OH219322   1.178   5.019   1.609  0.5123  0.8206  0.2344
 6453TIP3    H119323   1.106   4.962   1.581  0.9414 -0.2652  1.2327
 6453TIP3    H219324   1.253   4.988   1.558  0.1698  2.4235 -1.3384
 6454TIP3   OH219325   6.002   2.541   4.741  0.0225 -0.1969 -0.0274
 6454TIP3    H119326   5.945   2.566   4.668 -1.6869 -0.5994  1.1242
 6454TIP3    H219327   6.089   2.533   4.701 -0.8974 -0.6848 -2.0738
 6455TIP3   OH219328   0.647   6.685   0.789 -0.2798  0.0978 -0.5281
 6455TIP3    H119329   0.608   6.759   0.743  0.2481  0.0509 -1.0555
 6455TIP3    H219330   0.583   6.615   0.781 -0.6827  0.4183 -0.2195
 6456TIP3   OH219331   3.380   1.831   1.994  0.0074  0.7674  0.1615
 6456TIP3    H119332   3.355   1.836   1.902  0.1051 -0.6112  0.0373
 6456TIP3    H219333   3.308   1.872   2.042 -0.4134  0.7774 -0.4823
 6457TIP3   OH219334   2.016   5.731   5.520 -0.0127 -0.2491  0.1762
 6457TIP3    H119335   1.932   5.709   5.480 -0.4799 -0.3716  1.1956
 6457TIP3    H219336   2.078   5.730   5.447 -0.9392  0.1574 -0.6479
 6458TIP3   OH219337   0.205   5.804   1.377  0.1759 -0.1005 -0.2410
 6458TIP3    H119338   0.226   5.797   1.470  0.7847 -1.3079 -0.4460
 6458TIP3    H219339   0.212   5.897   1.358 -2.8402  0.6240  1.5427
 6459TIP3   OH219340   4.023   4.415   1.762 -0.1337 -0.8743  0.1346
 6459TIP3    H119341   3.964   4.487   1.742 -0.1889 -1.2760 -1.3324
 6459TIP3    H219342   4.024   4.409   1.857  0.1718  1.2863  0.2937
 6460TIP3   OH219343   6.144   3.725   3.849 -0.7877 -0.3627 -0.4764
 6460TIP3    H119344   6.103   3.662   3.789  2.1339 -1.4668 -1.4844
 6460TIP3    H219345   6.157   3.677   3.930  1.6594 -1.2704 -1.3212
 6461TIP3   OH219346   0.899   1.721   4.284  0.0695 -0.1357  0.1370
 6461TIP3    H119347   0.955   1.773   4.342  1.2198  0.3788 -1.3539
 6461TIP3    H219348   0.959   1.659   4.243 -0.4807  0.2771 -1.3437
 6462TIP3   OH219349   3.766   5.288   4.968  0.0579  0.3414  0.0752
 6462TIP3    H119350   3.851   5.251   4.942  1.2621  1.3739  2.2145
 6462TIP3    H219351   3.709   5.272   4.894  0.9794 -3.9825  0.0482
 6463TIP3   OH219352   5.808   2.720   4.040 -0.8594 -0.0857 -0.5195
 6463TIP3    H119353   5.808   2.710   3.945 -1.9067  2.1517 -0.8083
 6463TIP3    H219354   5.716   2.714   4.065 -0.5905 -0.7075  0.3866
 6464TIP3   OH219355   4.254   2.145   0.131  0.6903 -1.3789 -0.2072
 6464TIP3    H119356   4.253   2.065   0.078  2.7007 -1.3663 -0.3353
 6464TIP3    H219357   4.321   2.199   0.090 -0.1980  0.1326  0.2620
 6465TIP3   OH219358   4.148   0.117   3.006  0.2397  0.6982 -0.1634
 6465TIP3    H119359   4.239   0.130   3.035  0.0397 -0.2378  0.9472
 6465TIP3    H219360   4.130   0.025   3.024 -0.8674  0.8197 -0.5792
 6466TIP3   OH219361   6.411   2.874   0.276 -0.3381 -0.1421 -0.2580
 6466TIP3    H119362   6.353   2.799   0.260 -0.4382  0.0013 -0.5942
 6466TIP3    H219363   6.434   2.904   0.188 -0.4049  0.3010 -0.1248
 6467TIP3   OH219364   7.085   4.648   5.145  0.0218 -0.5340 -0.1500
 6467TIP3    H119365   7.076   4.742   5.159 -1.3761 -0.5518 -0.8560
 6467TIP3    H219366   7.012   4.609   5.193 -0.3528 -1.1291 -1.1680
 6468TIP3   OH219367   0.085   3.860   2.628 -0.0236 -0.5807 -0.3355
 6468TIP3    H119368   0.005   3.808   2.626 -0.3808 -0.0626  0.0154
 6468TIP3    H219369   0.093   3.896   2.540 -1.2759  0.9564  0.1252
 6469TIP3   OH219370   7.169   6.537   1.290 -0.4775 -0.4608  0.1359
 6469TIP3    H119371   7.154   6.610   1.231 -2.1381 -0.5676  0.3727
 6469TIP3    H219372   7.155   6.574   1.377  0.4939 -0.6539  0.3932
 6470TIP3   OH219373   3.105   0.714   1.485 -0.5254  0.4442 -0.4585
 6470TIP3    H119374   3.088   0.805   1.461 -0.2166  0.4773 -0.5466
 6470TIP3    H219375   3.161   0.719   1.562  0.6778  0.3289 -1.3021
 6471TIP3   OH219376   1.493   5.308   0.040  0.9217  0.1053 -0.1426
 6471TIP3    H119377   1.587   5.321   0.053  0.6805 -0.2262  2.6715
 6471TIP3    H219378   1.452   5.386   0.078  0.0442 -0.4668  0.1275
 6472TIP3   OH219379   0.894   6.487   2.230 -0.1475 -0.0675  0.1283
 6472TIP3    H119380   0.881   6.572   2.188 -0.2260 -0.6233 -1.0063
 6472TIP3    H219381   0.809   6.465   2.267 -0.4437 -0.2071 -0.6326
 6473TIP3   OH219382   6.004   1.918   2.603 -0.1707  0.9222  0.1441
 6473TIP3    H119383   5.914   1.884   2.607  0.8840 -1.9387  2.3607
 6473TIP3    H219384   5.995   2.009   2.632 -2.7122  1.8357 -2.9691
 6474TIP3   OH219385   2.975   4.561   0.904  0.2917  0.0564 -0.1842
 6474TIP3    H119386   2.882   4.540   0.899  0.0671  0.8898  0.2797
 6474TIP3    H219387   3.011   4.498   0.965  0.0728 -0.4126 -0.5363
 6475TIP3   OH219388   2.512   5.367   3.546  0.5110 -0.0428 -0.1878
 6475TIP3    H119389   2.482   5.383   3.636  1.4067 -1.4969  0.3984
 6475TIP3    H219390   2.489   5.276   3.530  3.7404 -0.9729 -0.0271
 6476TIP3   OH219391   2.468   4.761   5.720  0.2813 -0.3623  0.3409
 6476TIP3    H119392   2.469   4.668   5.741 -0.7020 -1.2286 -2.8441
 6476TIP3    H219393   2.375   4.784   5.716  0.4912  0.4827  0.0721
 6477TIP3   OH219394   6.147   1.680   2.538  0.2702  0.1026 -0.3583
 6477TIP3    H119395   6.109   1.619   2.475  0.3411  0.3397 -0.6311
 6477TIP3    H219396   6.079   1.745   2.553  0.3273  0.1575 -0.3397
 6478TIP3   OH219397   0.220   3.418   0.061 -0.0977  0.0689 -0.1945
 6478TIP3    H119398   0.302   3.397   0.105 -0.1114  2.2883  1.0906
 6478TIP3    H219399   0.154   3.365   0.105  0.0492  1.5014  1.9393
 6479TIP3   OH219400   0.990   2.449   5.787 -0.3885  0.0293 -0.0629
 6479TIP3    H119401   1.060   2.384   5.783 -1.8055 -1.5058 -2.8732
 6479TIP3    H219402   0.922   2.408   5.840 -0.0874  0.5423  0.7303
 6480TIP3   OH219403   1.018   0.592   0.958  0.4311 -0.3184 -0.2711
 6480TIP3    H119404   0.958   0.645   1.011  2.2015 -0.9887  2.6915
 6480TIP3    H219405   0.975   0.584   0.873 -2.3468  1.4257  0.8182
 6481TIP3   OH219406   5.862   2.996   0.373  0.6126  0.0158 -0.1226
 6481TIP3    H119407   5.778   3.033   0.344  0.7260  0.9234  0.6538
 6481TIP3    H219408   5.926   3.032   0.312  0.6110  0.4316  0.1184
 6482TIP3   OH219409   3.599   1.032   2.356 -0.2048 -0.1895  0.0120
 6482TIP3    H119410   3.578   0.945   2.390 -0.2614 -1.1172 -2.1984
 6482TIP3    H219411   3.695   1.034   2.353 -0.1946 -0.0005  0.4900
 6483TIP3   OH219412   5.864   1.344   4.123 -0.0008  0.1575 -0.4501
 6483TIP3    H119413   5.913   1.389   4.054 -1.4039  0.2914 -1.4234
 6483TIP3    H219414   5.850   1.411   4.190 -0.0130  0.4989 -0.7885
 6484TIP3   OH219415   2.618   6.192   2.451 -0.6163  0.1595  0.4534
 6484TIP3    H119416   2.566   6.120   2.487 -0.3558  0.1592  0.8310
 6484TIP3    H219417   2.700   6.188   2.500 -0.5509  0.6347  0.3786
 6485TIP3   OH219418   2.826   0.687   3.735 -0.5087 -0.1391 -0.3431
 6485TIP3    H119419   2.815   0.669   3.829 -1.3036 -0.0601 -0.4194
 6485TIP3    H219420   2.909   0.735   3.730 -1.3320  1.4561  0.5280
 6486TIP3   OH219421   0.536   1.131   2.877 -0.0287  0.2388 -0.4989
 6486TIP3    H119422   0.622   1.138   2.919  0.1040  0.8351 -0.8551
 6486TIP3    H219423   0.516   1.037   2.879 -0.4725  0.3422  1.7387
 6487TIP3   OH219424   4.932   0.636   5.204 -0.4901 -0.4353 -0.4471
 6487TIP3    H119425   5.022   0.640   5.237 -0.9029 -0.4845  0.7120
 6487TIP3    H219426   4.886   0.704   5.252 -1.1541 -0.6133 -0.8175
 6488TIP3   OH219427   0.718   6.782   1.027  0.1669  0.0647  0.0238
 6488TIP3    H119428   0.690   6.751   0.941  0.1004  0.5225 -0.1221
 6488TIP3    H219429   0.789   6.723   1.052  0.0247 -0.2197 -0.2375
 6489TIP3   OH219430   6.124   0.606   3.255 -0.5173  0.0082 -0.0017
 6489TIP3    H119431   6.190   0.539   3.269  0.2232  0.2943 -1.7616
 6489TIP3    H219432   6.146   0.675   3.317  0.2333 -0.3318  0.1236
 6490TIP3   OH219433   5.204   6.377   1.904  0.3515 -0.8126 -0.1486
 6490TIP3    H119434   5.188   6.286   1.932  2.5351 -1.6080 -1.1889
 6490TIP3    H219435   5.275   6.407   1.961 -0.9791  0.6321  0.8199
 6491TIP3   OH219436   4.960   6.728   1.561  0.4084  0.2591  0.2806
 6491TIP3    H119437   4.953   6.748   1.654  0.0297 -1.6449  0.7048
 6491TIP3    H219438   4.892   6.662   1.545  0.7257  0.2641 -1.2601
 6492TIP3   OH219439   5.881   5.219   5.818  0.1006  0.9130 -0.4762
 6492TIP3    H119440   5.943   5.250   5.884  0.9194 -0.5306 -0.5211
 6492TIP3    H219441   5.936   5.181   5.750 -0.7087  2.6205 -2.1845
 6493TIP3   OH219442   2.917   2.906   0.475 -0.5629  0.5703  0.0757
 6493TIP3    H119443   2.823   2.898   0.456 -0.1542 -2.7856 -1.3495
 6493TIP3    H219444   2.959   2.887   0.391  1.3519 -0.9585  1.3080
 6494TIP3   OH219445   2.951   6.752   3.082 -0.3216  0.0354 -0.2346
 6494TIP3    H119446   2.889   6.711   3.022  0.1858 -0.0963 -0.6716
 6494TIP3    H219447   3.037   6.728   3.049 -0.0328 -0.1105  0.5957
 6495TIP3   OH219448   5.002   3.510   2.642  0.4818 -0.0758  0.4788
 6495TIP3    H119449   5.067   3.569   2.603 -1.8695  0.4905 -3.0941
 6495TIP3    H219450   4.937   3.568   2.680 -0.2449 -0.4608 -0.1618
 6496TIP3   OH219451   2.757   3.148   4.575 -0.5048  0.1495 -0.5458
 6496TIP3    H119452   2.827   3.198   4.533 -0.1609  1.6032  1.5707
 6496TIP3    H219453   2.799   3.067   4.604  0.2100  0.8046  0.2903
 6497TIP3   OH219454   1.545   1.904   3.625 -0.4897 -0.2263 -0.3149
 6497TIP3    H119455   1.509   1.856   3.699 -1.4854  0.5948 -0.2546
 6497TIP3    H219456   1.565   1.991   3.659 -0.1132 -0.1153 -0.7957
 6498TIP3   OH219457   2.002   5.822   0.872 -0.3330  0.1474  0.0356
 6498TIP3    H119458   2.007   5.738   0.918  0.5923 -0.3398 -0.9079
 6498TIP3    H219459   2.082   5.826   0.820 -0.4309  1.5585 -0.0585
 6499TIP3   OH219460   6.198   0.481   3.657  0.0345  0.5356 -0.0011
 6499TIP3    H119461   6.155   0.437   3.583  0.6264  0.2101 -0.1658
 6499TIP3    H219462   6.256   0.545   3.615  0.7702 -0.0165  0.1502
 6500TIP3   OH219463   0.876   2.169   0.454 -0.4995  0.5823  0.1177
 6500TIP3    H119464   0.913   2.227   0.388  0.1766 -0.2096 -0.2168
 6500TIP3    H219465   0.785   2.197   0.462 -0.7775  0.3008 -1.6082
 6501TIP3   OH219466   0.222   6.357   4.991  0.0887 -0.0157 -0.4139
 6501TIP3    H119467   0.284   6.387   5.057  1.4787 -0.0296 -1.6695
 6501TIP3    H219468   0.140   6.347   5.039  0.6670  1.4464  0.9780
 6502TIP3   OH219469   0.113   3.789   4.084 -0.3603 -0.6739  0.1390
 6502TIP3    H119470   0.039   3.838   4.119 -0.5018 -0.2242 -0.7480
 6502TIP3    H219471   0.121   3.821   3.994  0.8993 -0.7361  0.2215
 6503TIP3   OH219472   4.474   0.459   2.618  0.3572  0.1360 -0.1796
 6503TIP3    H119473   4.448   0.368   2.629 -1.3296  0.6686  0.5059
 6503TIP3    H219474   4.466   0.498   2.705  2.5913  0.6123 -0.1198
 6504TIP3   OH219475   3.292   0.315   3.289 -0.3153  0.3556 -0.2514
 6504TIP3    H119476   3.252   0.391   3.330  1.5954  2.0027 -1.2636
 6504TIP3    H219477   3.354   0.351   3.225  0.5684 -2.0445 -0.8908
 6505TIP3   OH219478   5.331   4.752   5.701 -0.3533  0.5249  0.6128
 6505TIP3    H119479   5.276   4.679   5.728  0.8046 -0.8295 -0.5150
 6505TIP3    H219480   5.292   4.828   5.744 -2.5510 -0.4804  0.5610
 6506TIP3   OH219481   1.270   2.716   5.723 -0.3319 -0.4503  0.1741
 6506TIP3    H119482   1.262   2.759   5.638 -1.0399 -1.0241 -0.0523
 6506TIP3    H219483   1.261   2.623   5.705  1.7734 -0.7891  0.5863
 6507TIP3   OH219484   3.562   2.697   2.921  0.4093 -0.3095 -0.3807
 6507TIP3    H119485   3.549   2.716   3.014  0.5439 -0.7292 -0.2734
 6507TIP3    H219486   3.656   2.709   2.907  0.3429  0.0377 -0.5300
 6508TIP3   OH219487   6.086   2.925   4.587  0.2965  0.1609 -0.1869
 6508TIP3    H119488   6.093   2.949   4.495 -0.6083  0.6856 -0.1257
 6508TIP3    H219489   6.096   2.830   4.588  2.5136  0.3230 -0.5723
 6509TIP3   OH219490   0.136   6.677   3.586 -0.0976 -0.2509 -0.1130
 6509TIP3    H119491   0.050   6.719   3.589 -0.4496 -0.8922 -0.8738
 6509TIP3    H219492   0.196   6.748   3.565 -0.3207  0.3500  1.1653
 6510TIP3   OH219493   4.653   5.180   5.764  0.0819  0.2885  0.6517
 6510TIP3    H119494   4.678   5.133   5.843  0.8609 -1.6296 -0.6452
 6510TIP3    H219495   4.583   5.128   5.725 -0.0199  0.9714 -0.1223
 6511TIP3   OH219496   2.770   4.912   5.000  0.1134  0.4109  0.0357
 6511TIP3    H119497   2.730   4.839   5.046 -0.0990  0.6471  0.2332
 6511TIP3    H219498   2.852   4.877   4.965 -1.3104 -0.7497 -2.3930
 6512TIP3   OH219499   5.021   3.506   3.626 -0.0208  0.1777  0.1088
 6512TIP3    H119500   4.975   3.530   3.545 -0.5764 -0.3432  0.2585
 6512TIP3    H219501   5.096   3.455   3.597  0.8361  1.5522 -0.1764
 6513TIP3   OH219502   5.089   3.530   0.186 -0.0225  0.1470  0.1406
 6513TIP3    H119503   5.074   3.613   0.141 -0.1111  0.2407  0.3444
 6513TIP3    H219504   5.146   3.552   0.260 -1.0452  0.2350  0.9135
 6514TIP3   OH219505   0.952   2.556   5.510 -0.1666 -0.3326  0.1621
 6514TIP3    H119506   0.878   2.614   5.491 -1.0197 -1.5648 -0.4458
 6514TIP3    H219507   0.945   2.539   5.604 -0.2424  0.1006  0.2368
 6515TIP3   OH219508   0.350   4.459   2.366  0.3952 -0.1433  0.0889
 6515TIP3    H119509   0.364   4.521   2.295 -0.1741  1.1975  1.1192
 6515TIP3    H219510   0.291   4.503   2.426 -0.3183 -1.8285  0.6920
 6516TIP3   OH219511   6.880   3.585   4.039  0.3772  0.4267  0.7718
 6516TIP3    H119512   6.972   3.575   4.016  0.0350 -1.2354  0.0319
 6516TIP3    H219513   6.869   3.531   4.117 -0.5265 -1.6331 -0.7045
 6517TIP3   OH219514   4.943   2.908   4.253  0.0957  0.0570  0.2177
 6517TIP3    H119515   4.990   2.988   4.232  0.0394 -0.6285 -2.9664
 6517TIP3    H219516   4.863   2.937   4.295  1.0254  1.5111  1.0623
 6518TIP3   OH219517   5.541   5.445   5.508  0.0883  0.1566  0.0170
 6518TIP3    H119518   5.590   5.450   5.590  0.6356 -1.2169 -0.1863
 6518TIP3    H219519   5.484   5.369   5.519 -0.6718  0.6501 -0.4460
 6519TIP3   OH219520   3.521   4.198   5.460 -0.2648 -0.0081  0.1518
 6519TIP3    H119521   3.565   4.244   5.389  1.2165 -2.0777 -0.3754
 6519TIP3    H219522   3.527   4.105   5.436 -1.7645 -0.6146  1.8661
 6520TIP3   OH219523   6.697   1.115   4.251  0.6762  0.1284  0.5245
 6520TIP3    H119524   6.618   1.097   4.302  0.8434  0.4713  0.9111
 6520TIP3    H219525   6.690   1.058   4.175 -1.5614  2.3985 -1.1649
 6521TIP3   OH219526   5.967   1.480   3.910 -0.0645 -0.1512  0.1991
 6521TIP3    H119527   5.942   1.528   3.832 -1.1475 -0.2731  0.4657
 6521TIP3    H219528   6.044   1.528   3.943  0.6618 -0.3431 -1.1371
 6522TIP3   OH219529   5.942   3.018   5.459 -0.6537 -0.1835 -0.4466
 6522TIP3    H119530   6.027   2.979   5.436  1.0312  2.6416  0.4609
 6522TIP3    H219531   5.953   3.047   5.550 -2.8904 -0.3930 -0.0575
 6523TIP3   OH219532   4.535   5.359   4.839 -0.2866 -1.1748  0.3676
 6523TIP3    H119533   4.479   5.432   4.864 -0.7399 -1.4142  0.0540
 6523TIP3    H219534   4.488   5.315   4.769  1.1080 -0.3212 -1.1603
 6524TIP3   OH219535   1.959   0.092   5.472 -0.2018 -0.0618  0.3595
 6524TIP3    H119536   2.034   0.121   5.421 -0.1584  0.2627  0.6060
 6524TIP3    H219537   1.952  -0.001   5.452 -0.1796  0.0556 -0.2300
 6525TIP3   OH219538   0.199   2.593   0.824 -0.3371 -0.0957  0.1041
 6525TIP3    H119539   0.225   2.513   0.871 -1.7819 -1.6368 -1.5516
 6525TIP3    H219540   0.160   2.561   0.742 -1.0213  2.3298 -0.6038
 6526TIP3   OH219541   2.977   0.733   3.256  0.4389  0.1992 -0.0528
 6526TIP3    H119542   2.972   0.673   3.182  0.9074  1.0918 -0.8419
 6526TIP3    H219543   2.898   0.717   3.306  1.3217 -2.2204  0.6828
 6527TIP3   OH219544   5.580   4.966   4.508 -0.1944 -0.2798 -0.0669
 6527TIP3    H119545   5.570   4.880   4.467  0.7294 -0.7633  0.6672
 6527TIP3    H219546   5.516   4.967   4.579 -1.6740  0.4910 -1.3538
 6528TIP3   OH219547   2.844   6.528   2.671  0.1255 -0.0604  0.0928
 6528TIP3    H119548   2.850   6.446   2.720  0.6768 -0.0679  0.0282
 6528TIP3    H219549   2.932   6.539   2.633 -0.7040 -0.8539 -2.1920
 6529TIP3   OH219550   1.349   4.068   4.238  0.0141 -0.1392 -0.9079
 6529TIP3    H119551   1.339   4.029   4.152 -1.4735  1.3729 -1.4765
 6529TIP3    H219552   1.439   4.099   4.240  0.0539 -0.1542 -1.9372
 6530TIP3   OH219553   3.484   6.129   4.799 -0.0478  0.6591  0.0334
 6530TIP3    H119554   3.434   6.138   4.718  0.9781  1.3875 -0.5347
 6530TIP3    H219555   3.431   6.176   4.864 -1.2522 -0.5761 -0.0164
 6531TIP3   OH219556   0.903   6.377   4.397  0.1905  0.4857 -0.2707
 6531TIP3    H119557   0.855   6.296   4.413  0.5599  0.0595 -1.2389
 6531TIP3    H219558   0.848   6.425   4.334 -0.3367  1.2855  0.7774
 6532TIP3   OH219559   4.326   5.270   5.220 -0.7496  0.3507  0.3151
 6532TIP3    H119560   4.385   5.242   5.150  0.4836  2.9274  0.2053
 6532TIP3    H219561   4.305   5.189   5.267  0.3976 -1.0861 -1.5029
 6533TIP3   OH219562   2.831   1.708   4.918  0.2025 -0.2153  0.3878
 6533TIP3    H119563   2.925   1.690   4.921  0.6709  1.4087 -1.9328
 6533TIP3    H219564   2.801   1.665   4.838 -0.4977  1.3020 -0.2010
 6534TIP3   OH219565   0.353   1.673   2.328  0.1554  0.2694  0.2133
 6534TIP3    H119566   0.396   1.709   2.251  0.8892  1.3910  1.1025
 6534TIP3    H219567   0.401   1.710   2.402 -2.1660  1.4305  1.2788
 6535TIP3   OH219568   3.545   2.553   3.289  0.0273  0.5353  0.6136
 6535TIP3    H119569   3.565   2.621   3.225 -0.1122  1.5374  1.6008
 6535TIP3    H219570   3.582   2.585   3.371  0.3625 -0.7986  1.0208
 6536TIP3   OH219571   3.139   5.133   0.893 -0.6334  0.6219 -0.1029
 6536TIP3    H119572   3.163   5.042   0.914 -0.4652  0.5290 -0.6764
 6536TIP3    H219573   3.206   5.161   0.830 -0.9370  0.9995 -0.2570
 6537TIP3   OH219574   2.269   6.495   4.004 -0.2326 -0.3830 -0.4394
 6537TIP3    H119575   2.227   6.420   4.045 -1.6292 -0.0621 -1.2174
 6537TIP3    H219576   2.330   6.528   4.071  1.1236 -2.7270 -0.4371
 6538TIP3   OH219577   4.990   0.510   4.555  0.3143  0.2820 -0.2017
 6538TIP3    H119578   5.079   0.522   4.587  0.2215  0.1943  0.0961
 6538TIP3    H219579   4.992   0.427   4.508  0.4000  0.3017 -0.2325
 6539TIP3   OH219580   3.484   2.727   1.920  0.1174  0.4049 -0.5069
 6539TIP3    H119581   3.442   2.810   1.898  0.3305  0.6418 -0.0287
 6539TIP3    H219582   3.478   2.676   1.840 -0.6816  0.6000 -0.5860
 6540TIP3   OH219583   5.381   2.808   2.849 -0.2716 -0.8253 -0.0680
 6540TIP3    H119584   5.463   2.805   2.898 -0.8482 -2.1714  0.8573
 6540TIP3    H219585   5.349   2.898   2.862  0.4770 -0.6368  0.5284
 6541TIP3   OH219586   4.725   5.817   3.266  0.0198  0.3761 -0.1214
 6541TIP3    H119587   4.780   5.766   3.205  1.7953  1.4509  0.5070
 6541TIP3    H219588   4.684   5.884   3.211 -1.0162 -0.6686 -0.6629
 6542TIP3   OH219589   2.622   2.151   2.481  0.7911 -0.2803  0.2956
 6542TIP3    H119590   2.652   2.166   2.570 -1.2296  0.2394  0.9523
 6542TIP3    H219591   2.606   2.239   2.446 -2.4184 -0.4607  0.9678
 6543TIP3   OH219592   1.979   3.202   2.069  0.2190 -0.5336  0.6955
 6543TIP3    H119593   1.885   3.221   2.064  0.3851  0.4330  0.9395
 6543TIP3    H219594   1.988   3.115   2.031 -0.2888  0.8853 -3.1747
 6544TIP3   OH219595   4.378   3.688   5.431  0.5850  0.3894  0.9048
 6544TIP3    H119596   4.439   3.670   5.359 -1.2568 -2.5721 -0.1303
 6544TIP3    H219597   4.427   3.667   5.510  0.7824 -2.9799  0.0424
 6545TIP3   OH219598   5.904   4.274   2.489 -0.5251 -0.1217 -0.5708
 6545TIP3    H119599   5.846   4.318   2.551 -0.2525 -0.6387  0.0711
 6545TIP3    H219600   5.911   4.184   2.523  0.6045 -0.0820 -0.6680
 6546TIP3   OH219601   6.514   3.195   1.316 -0.2889  0.1293 -0.2329
 6546TIP3    H119602   6.551   3.211   1.229 -1.1431 -0.8139 -0.7893
 6546TIP3    H219603   6.525   3.101   1.330  1.3921  0.5027  1.4419
 6547TIP3   OH219604   2.608   1.163   0.254  0.3115  0.7616 -0.5481
 6547TIP3    H119605   2.632   1.072   0.271  1.3965  1.0735 -0.3411
 6547TIP3    H219606   2.512   1.162   0.254  0.2978 -0.4236 -0.8270
 6548TIP3   OH219607   1.446   2.301   1.785  0.5554 -0.5620  0.2914
 6548TIP3    H119608   1.529   2.307   1.832  0.8158 -1.2696 -0.0637
 6548TIP3    H219609   1.470   2.304   1.692 -0.0027  1.5149  0.1626
 6549TIP3   OH219610   3.214   0.275   5.025  0.7553  0.3636  0.7266
 6549TIP3    H119611   3.130   0.229   5.023  0.7621  0.3618 -0.3350
 6549TIP3    H219612   3.280   0.206   5.016  0.8722  0.3712  1.4888
 6550TIP3   OH219613   4.225   3.210   4.808  0.2429  0.7115 -0.1565
 6550TIP3    H119614   4.219   3.225   4.713  0.9887 -1.5795 -0.6383
 6550TIP3    H219615   4.308   3.163   4.819 -1.4619 -2.3285  1.0599
 6551TIP3   OH219616   2.456   3.135   1.161  0.4880 -0.3510 -0.6190
 6551TIP3    H119617   2.509   3.134   1.082  0.8278  1.1409 -0.4412
 6551TIP3    H219618   2.368   3.110   1.133  0.6737 -0.1143 -1.4125
 6552TIP3   OH219619   1.385   0.790   1.920 -0.6385  0.5999 -0.5993
 6552TIP3    H119620   1.453   0.806   1.986 -1.0859 -0.2677  0.0844
 6552TIP3    H219621   1.413   0.842   1.845 -0.2505  1.8168  0.3506
 6553TIP3   OH219622   1.205   6.265   1.828  0.4299  0.0940  1.0283
 6553TIP3    H119623   1.160   6.329   1.884 -0.2351 -0.2074  0.8475
 6553TIP3    H219624   1.298   6.282   1.843  0.2611  0.7365  1.4028
 6554TIP3   OH219625   5.569   1.334   1.795 -0.4700 -0.6389 -0.0553
 6554TIP3    H119626   5.579   1.288   1.711 -2.3920 -0.6070 -0.3506
 6554TIP3    H219627   5.497   1.396   1.780  0.5710  0.8844  1.0075
 6555TIP3   OH219628   4.956   6.461   1.784  0.1040 -0.1653  0.2536
 6555TIP3    H119629   5.044   6.438   1.814  1.5126  1.4715 -2.1863
 6555TIP3    H219630   4.950   6.556   1.799 -0.4700  0.0767 -1.3153
 6556TIP3   OH219631   5.976   1.007   0.066  0.2863  0.2127 -0.0566
 6556TIP3    H119632   5.931   1.045   0.142  0.3522  1.2259 -0.5011
 6556TIP3    H219633   5.999   0.918   0.094  0.3775  0.5865  1.1379
 6557TIP3   OH219634   2.418   5.405   5.136  0.7042 -0.6745  0.6670
 6557TIP3    H119635   2.351   5.456   5.090 -0.3394 -1.2693  1.4833
 6557TIP3    H219636   2.499   5.453   5.119  0.0408  0.2336 -0.1057
 6558TIP3   OH219637   5.001   0.188   0.736  0.7503 -0.3144 -0.0941
 6558TIP3    H119638   5.048   0.178   0.653 -0.8406 -2.4826 -0.8366
 6558TIP3    H219639   4.946   0.265   0.724  0.4239 -0.6978 -1.1352
 6559TIP3   OH219640   3.155   6.496   0.739  0.6363  0.2291  0.0933
 6559TIP3    H119641   3.181   6.582   0.704  1.4389  0.5333  1.3811
 6559TIP3    H219642   3.178   6.434   0.669  0.5513  0.9980 -0.6364
 6560TIP3   OH219643   2.226   3.026   1.061  0.3401 -0.0130 -0.2755
 6560TIP3    H119644   2.165   3.041   1.133  0.7852 -1.9303  0.5502
 6560TIP3    H219645   2.190   3.077   0.988  0.0988  2.3101  1.3635
 6561TIP3   OH219646   5.855   2.499   5.835 -0.8747 -0.5780 -0.0017
 6561TIP3    H119647   5.839   2.571   5.774 -2.8509  1.0579  2.2721
 6561TIP3    H219648   5.902   2.433   5.783 -2.4188  0.6801 -3.2522
 6562TIP3   OH219649   1.840   2.815   4.797  0.0989 -0.1206  0.0157
 6562TIP3    H119650   1.774   2.802   4.866  1.6550 -0.6105  1.4763
 6562TIP3    H219651   1.901   2.878   4.834  0.4328  0.3621 -1.3322
 6563TIP3   OH219652   2.767   6.320   4.612 -0.0373  0.5346  0.1888
 6563TIP3    H119653   2.757   6.409   4.644  0.6371  0.1702  1.4792
 6563TIP3    H219654   2.740   6.264   4.684 -1.7733 -0.3389 -1.0678
 6564TIP3   OH219655   6.731   3.453   4.607  0.0666 -0.0551 -0.4409
 6564TIP3    H119656   6.677   3.514   4.557  0.0504 -0.3180 -0.7482
 6564TIP3    H219657   6.738   3.376   4.551 -0.5023 -0.6206  0.2318
 6565TIP3   OH219658   0.087   2.542   5.036  0.1036 -0.1481 -0.6872
 6565TIP3    H119659  -0.007   2.538   5.016 -0.3474  0.3175  1.1434
 6565TIP3    H219660   0.096   2.619   5.092  1.7998  0.4849 -1.7358
 6566TIP3   OH219661   2.614   1.469   5.732  0.2849 -0.2791 -0.0527
 6566TIP3    H119662   2.578   1.488   5.819 -2.2072 -0.2931 -0.9826
 6566TIP3    H219663   2.614   1.373   5.727  0.6203 -0.2825 -0.0036
 6567TIP3   OH219664   5.788   0.576   1.010 -0.2134 -0.3188 -0.0590
 6567TIP3    H119665   5.782   0.656   1.062 -1.2350 -0.5347  0.1881
 6567TIP3    H219666   5.718   0.584   0.945 -0.8438 -1.3214  0.4511
 6568TIP3   OH219667   6.430   6.180   5.838  0.7266  0.2953 -0.2461
 6568TIP3    H119668   6.481   6.100   5.851 -0.0739 -0.2584 -0.4351
 6568TIP3    H219669   6.386   6.167   5.754 -0.0090  0.5982  0.0800
 6569TIP3   OH219670   3.003   0.993   4.761  0.1932  0.5249  0.2611
 6569TIP3    H119671   3.095   1.001   4.785 -0.0801 -0.4673  1.7797
 6569TIP3    H219672   2.972   0.915   4.809 -1.2226  0.3475 -0.8735
 6570TIP3   OH219673   5.596   5.534   0.643 -0.0856 -0.1777  0.2468
 6570TIP3    H119674   5.629   5.617   0.680 -0.4719  0.2419 -0.3281
 6570TIP3    H219675   5.509   5.556   0.610 -1.1656 -1.3541  2.1127
 6571TIP3   OH219676   2.140   5.617   4.255  0.8388 -0.3778 -0.1013
 6571TIP3    H119677   2.183   5.591   4.174  1.1768  1.6592 -0.6192
 6571TIP3    H219678   2.048   5.628   4.232  0.8579 -0.2332 -0.1120
 6572TIP3   OH219679   1.019   5.355   4.989 -0.3823 -0.7894  0.6599
 6572TIP3    H119680   1.055   5.275   4.951  0.3503 -0.0913 -0.1309
 6572TIP3    H219681   1.060   5.426   4.941 -1.2833  0.0734  1.1205
 6573TIP3   OH219682   4.579   1.031   4.836 -0.0372 -0.6439 -0.0070
 6573TIP3    H119683   4.624   1.100   4.788 -0.8356  0.0555  0.2226
 6573TIP3    H219684   4.633   1.017   4.915  1.6085 -2.2188 -1.3242
 6574TIP3   OH219685   7.107   1.394   1.999  0.0981  0.5424  0.9154
 6574TIP3    H119686   7.123   1.386   1.905  0.1274 -1.1299  1.0281
 6574TIP3    H219687   7.192   1.419   2.036  0.6165 -0.8095  0.6920
 6575TIP3   OH219688   2.696   0.146   2.181 -0.4582  0.4038 -0.5843
 6575TIP3    H119689   2.634   0.144   2.108 -0.5744  0.5033 -0.4864
 6575TIP3    H219690   2.673   0.224   2.231 -0.3797  0.3329 -0.4369
 6576TIP3   OH219691   4.689   2.572   0.658  1.0692  0.0983  0.4007
 6576TIP3    H119692   4.656   2.654   0.622  2.7844 -0.0509 -1.7465
 6576TIP3    H219693   4.643   2.562   0.742 -2.0794  1.2770 -1.0078
 6577TIP3   OH219694   4.241   4.152   0.180 -0.7786 -0.0177  0.1902
 6577TIP3    H119695   4.162   4.205   0.192 -3.1770 -3.2469 -0.0054
 6577TIP3    H219696   4.250   4.143   0.086  0.6340  1.3492  0.1666
 6578TIP3   OH219697   2.440   5.434   5.455  0.2487 -0.4587  0.2533
 6578TIP3    H119698   2.435   5.338   5.453  1.6055 -0.5425  0.0622
 6578TIP3    H219699   2.394   5.462   5.376  1.0832 -1.0257 -0.4513
 6579TIP3   OH219700   0.838   5.817   0.641 -0.7001 -0.6655 -0.0265
 6579TIP3    H119701   0.808   5.885   0.581 -1.1084  0.0743  0.9847
 6579TIP3    H219702   0.819   5.852   0.728  0.5245 -1.3977  0.5672
 6580TIP3   OH219703   3.471   0.986   1.499 -0.1896 -0.1116  0.0941
 6580TIP3    H119704   3.485   1.062   1.556  1.3312 -0.7989  0.6937
 6580TIP3    H219705   3.382   0.998   1.465 -0.7706  0.8745  1.7940
 6581TIP3   OH219706   1.868   6.272   2.078 -0.1030  0.4019 -0.0435
 6581TIP3    H119707   1.924   6.257   2.154  0.6215  2.5144 -0.0829
 6581TIP3    H219708   1.862   6.368   2.072 -2.4470  0.2437 -0.9869
 6582TIP3   OH219709   6.161   3.597   1.175 -0.0877 -0.0394 -0.2503
 6582TIP3    H119710   6.102   3.604   1.099  0.9193  0.3412 -1.0222
 6582TIP3    H219711   6.226   3.532   1.148 -0.3694 -0.7444  0.7455
 6583TIP3   OH219712   0.667   0.513   2.987 -0.7120 -0.4192 -0.7706
 6583TIP3    H119713   0.712   0.445   2.938  0.0494 -0.5466  0.0868
 6583TIP3    H219714   0.725   0.589   2.983 -0.0814 -0.7713  0.8589
 6584TIP3   OH219715   2.593   6.192   5.640 -0.5204 -0.1512  0.4358
 6584TIP3    H119716   2.568   6.140   5.563  1.2314 -1.8038  0.8993
 6584TIP3    H219717   2.588   6.283   5.610 -1.7336 -0.6483 -1.0256
 6585TIP3   OH219718   3.517   0.885   3.257  0.3059  0.0779 -0.7081
 6585TIP3    H119719   3.563   0.802   3.271  2.7146  1.4846  0.4230
 6585TIP3    H219720   3.440   0.878   3.314 -0.5877 -2.0498 -2.0396
 6586TIP3   OH219721   3.141   4.984   1.327 -0.0362 -0.1375 -0.3230
 6586TIP3    H119722   3.120   4.900   1.287  0.1133 -0.5003  0.3389
 6586TIP3    H219723   3.190   4.961   1.406 -0.5742  0.5506  0.2226
 6587TIP3   OH219724   5.175   1.008   5.634 -0.0690  0.1351  0.3611
 6587TIP3    H119725   5.141   1.048   5.553 -0.3908 -0.8457 -0.0051
 6587TIP3    H219726   5.259   1.050   5.648  1.0736 -1.2764 -1.7605
 6588TIP3   OH219727   5.651   2.455   4.009 -0.4099 -0.3115 -0.7933
 6588TIP3    H119728   5.621   2.370   4.041  0.1013  0.0721  0.7771
 6588TIP3    H219729   5.571   2.506   3.997 -0.5861  0.2787  2.1234
 6589TIP3   OH219730   3.985   3.351   4.354 -0.5072 -0.2161  0.0892
 6589TIP3    H119731   3.947   3.428   4.397 -0.0864  0.6440 -1.0005
 6589TIP3    H219732   3.917   3.322   4.293 -1.4545 -1.9799  1.9012
 6590TIP3   OH219733   4.132   5.996   3.099  0.5729 -0.3692  0.4382
 6590TIP3    H119734   4.088   6.016   3.182  0.2831 -1.9073  0.7032
 6590TIP3    H219735   4.222   5.974   3.124  0.3250 -1.4492  0.4628
 6591TIP3   OH219736   3.197   0.796   4.082 -0.2887 -0.6878 -0.1546
 6591TIP3    H119737   3.104   0.784   4.102 -0.4346  1.2926  0.5256
 6591TIP3    H219738   3.209   0.890   4.078  1.7916 -0.8954  0.1110
 6592TIP3   OH219739   1.978   5.982   4.835  0.1957  0.2469  0.1334
 6592TIP3    H119740   2.010   6.051   4.776 -0.3167  0.8325  0.5219
 6592TIP3    H219741   1.883   5.994   4.835  0.2080  0.4050  1.2541
 6593TIP3   OH219742   3.641   4.004   1.078 -0.4774 -0.0607  0.0371
 6593TIP3    H119743   3.676   3.932   1.026 -2.3615  0.3352 -1.9086
 6593TIP3    H219744   3.628   3.966   1.165  2.0944 -0.9365  0.1286
 6594TIP3   OH219745   7.200   5.606   1.677 -0.0672  0.5985 -0.3381
 6594TIP3    H119746   7.182   5.681   1.620 -0.8607 -1.0633 -2.4337
 6594TIP3    H219747   7.233   5.539   1.617  0.5162 -0.7604  1.4432
 6595TIP3   OH219748   2.297   3.423   0.080 -0.2632 -0.0738  0.5950
 6595TIP3    H119749   2.337   3.338   0.062  0.0362 -0.2120  1.8189
 6595TIP3    H219750   2.237   3.406   0.152 -0.3184  0.7286  0.7461
 6596TIP3   OH219751   4.093   1.260   2.259 -0.1684 -0.5181  0.0177
 6596TIP3    H119752   4.157   1.231   2.193 -0.7914  0.5327 -1.0750
 6596TIP3    H219753   4.033   1.317   2.211 -1.1672 -0.4384  1.3166
 6597TIP3   OH219754   4.229   0.017   5.740  0.2741  0.0723 -0.8242
 6597TIP3    H119755   4.210   0.025   5.834 -0.1006 -3.0930 -0.5030
 6597TIP3    H219756   4.321  -0.009   5.737  0.1211 -0.4231 -1.2761
 6598TIP3   OH219757   0.126   1.618   3.324 -0.0193 -0.0115 -0.3092
 6598TIP3    H119758   0.080   1.675   3.262 -1.3183 -1.4652 -0.7239
 6598TIP3    H219759   0.218   1.638   3.310 -0.2503 -0.4729 -2.9131
 6599TIP3   OH219760   3.997   6.543   3.388 -0.2840  0.0976  0.5632
 6599TIP3    H119761   3.961   6.524   3.475 -0.3421 -2.9242 -0.0253
 6599TIP3    H219762   4.089   6.517   3.394  0.1809  1.5644  0.1834
 6600TIP3   OH219763   0.135   0.901   2.870  0.3848 -0.2298 -0.6960
 6600TIP3    H119764   0.066   0.950   2.915  0.0541 -0.2852 -1.1326
 6600TIP3    H219765   0.178   0.850   2.939  2.0374  2.1176  0.1426
 6601TIP3   OH219766   2.768   6.236   0.316  0.6046 -0.4129  0.2036
 6601TIP3    H119767   2.715   6.264   0.391  0.6169 -2.8941  1.2353
 6601TIP3    H219768   2.715   6.168   0.274  1.0396  0.2558 -1.4863
 6602TIP3   OH219769   5.689   5.690   2.433  0.2581 -0.1202  0.0882
 6602TIP3    H119770   5.734   5.605   2.423 -0.1342 -0.2661 -0.4367
 6602TIP3    H219771   5.693   5.729   2.346 -0.2597  0.0555  0.1441
 6603TIP3   OH219772   2.318   2.267   5.079  0.0215  0.3155  0.3057
 6603TIP3    H119773   2.299   2.237   4.990  0.8159 -1.7044  0.7696
 6603TIP3    H219774   2.376   2.201   5.115  0.4874  1.5910  2.0272
 6604TIP3   OH219775   3.358   5.778   3.385  0.7039 -0.4242  0.2549
 6604TIP3    H119776   3.370   5.689   3.419  2.0949  0.1802  1.4462
 6604TIP3    H219777   3.265   5.796   3.399  0.8568 -0.8808  2.1219
 6605TIP3   OH219778   3.058   0.827   4.459  0.5625 -0.9429 -0.2396
 6605TIP3    H119779   3.020   0.852   4.543 -2.0599 -2.7762 -0.7408
 6605TIP3    H219780   3.141   0.786   4.481  0.2769 -0.7174  1.3879
 6606TIP3   OH219781   7.126   6.191   0.255 -0.8669 -0.2127  0.0475
 6606TIP3    H119782   7.193   6.208   0.189 -0.3713 -1.0931  0.3209
 6606TIP3    H219783   7.043   6.211   0.210 -0.5990 -1.5602 -1.1192
 6607TIP3   OH219784   4.268   5.705   5.615 -0.3892 -0.0450  0.0505
 6607TIP3    H119785   4.172   5.698   5.612 -0.3591 -2.4961  1.9742
 6607TIP3    H219786   4.298   5.655   5.539 -0.6404 -1.3822  0.7998
 6608TIP3   OH219787   1.598   2.570   2.702  0.2544 -1.1823  0.1837
 6608TIP3    H119788   1.684   2.612   2.706 -0.6339  0.6416  1.8705
 6608TIP3    H219789   1.613   2.490   2.652  3.1157 -1.3379  1.0957
 6609TIP3   OH219790   2.970   0.241   0.276 -0.1582  0.2564  0.0677
 6609TIP3    H119791   2.941   0.327   0.304  0.3526  0.4916 -0.1224
 6609TIP3    H219792   2.944   0.182   0.347 -1.5559  0.3659 -0.3167
 6610TIP3   OH219793   2.984   1.170   3.800  0.1394 -0.4787 -0.4840
 6610TIP3    H119794   3.045   1.236   3.831 -1.6783  1.8670 -1.6354
 6610TIP3    H219795   2.943   1.135   3.880  0.6197  0.3012  0.1084
 6611TIP3   OH219796   5.604   1.896   5.910 -0.4478 -0.0930  0.4823
 6611TIP3    H119797   5.696   1.893   5.882  0.0034  1.8479  1.5726
 6611TIP3    H219798   5.554   1.867   5.833  0.9380  1.2424 -0.9825
 6612TIP3   OH219799   2.611   1.061   3.149 -0.7190  0.6790  0.1193
 6612TIP3    H119800   2.579   1.145   3.181 -0.1936  1.0368 -0.2787
 6612TIP3    H219801   2.606   1.003   3.225 -0.5559  1.2171  0.5469
 6613TIP3   OH219802   2.056   3.479   0.819 -0.2346  0.3301 -0.0298
 6613TIP3    H119803   2.122   3.542   0.848  0.5840 -0.4584 -0.1113
 6613TIP3    H219804   1.989   3.532   0.776  0.4344  1.1400 -0.1054
 6614TIP3   OH219805   0.062   6.677   4.221  0.6428  0.2967 -0.2722
 6614TIP3    H119806   0.053   6.640   4.133 -1.2515  1.2348 -0.5482
 6614TIP3    H219807   0.063   6.601   4.280  1.7154 -0.3291 -1.0771
 6615TIP3   OH219808   0.403   0.683   0.741 -0.2482  0.2385  0.2273
 6615TIP3    H119809   0.496   0.660   0.754 -0.5389 -0.3906  1.3374
 6615TIP3    H219810   0.371   0.703   0.829 -0.6459  2.6350 -0.4098
 6616TIP3   OH219811   1.045   0.863   4.429  0.0962 -0.2704  0.0543
 6616TIP3    H119812   0.964   0.913   4.423 -0.3640 -1.0319 -0.0473
 6616TIP3    H219813   1.103   0.918   4.483 -0.1379  0.7222 -0.6721
 6617TIP3   OH219814   2.009   4.447   3.134 -0.6132  0.2104  0.0718
 6617TIP3    H119815   2.065   4.372   3.114 -0.3586  0.1366  1.0229
 6617TIP3    H219816   1.946   4.414   3.198 -0.6173  0.7620  0.3604
 6618TIP3   OH219817   5.555   1.585   5.139  0.6142 -0.3812 -0.3364
 6618TIP3    H119818   5.643   1.620   5.153  0.4137  0.0901 -0.2398
 6618TIP3    H219819   5.565   1.524   5.065  1.2611 -1.2928  0.4848
 6619TIP3   OH219820   3.517   4.086   0.454  0.5815  0.7776  0.7931
 6619TIP3    H119821   3.595   4.070   0.400 -0.4867  2.5916 -1.4753
 6619TIP3    H219822   3.462   4.008   0.440  2.1210 -0.8063  2.9051
 6620TIP3   OH219823   6.270   2.238   2.551 -0.0851 -0.4240 -0.0743
 6620TIP3    H119824   6.189   2.215   2.596  0.5417 -0.2147  1.1978
 6620TIP3    H219825   6.242   2.292   2.477 -1.0743  0.2212  0.7406
 6621TIP3   OH219826   3.247   2.246   2.212 -0.2794 -0.2614 -0.2317
 6621TIP3    H119827   3.307   2.300   2.263  0.1047  0.9871 -1.9261
 6621TIP3    H219828   3.197   2.309   2.160 -1.0358 -1.4530 -0.9872
 6622TIP3   OH219829   5.145   3.569   4.918 -0.6422  0.3116  0.0917
 6622TIP3    H119830   5.236   3.597   4.929 -0.5384 -0.5478  1.7767
 6622TIP3    H219831   5.150   3.473   4.910 -1.3235  0.3479 -0.9377
 6623TIP3   OH219832   5.101   2.869   3.095  0.5664  0.1279  0.0106
 6623TIP3    H119833   5.101   2.829   3.008  0.7072  1.2475 -0.5278
 6623TIP3    H219834   5.011   2.898   3.108  0.6242  0.2736  0.0908
 6624TIP3   OH219835   1.156   3.662   2.155  0.0379  0.3884 -0.3942
 6624TIP3    H119836   1.145   3.606   2.232 -0.9362  0.6530 -0.3281
 6624TIP3    H219837   1.122   3.610   2.082  0.5729  0.2987 -0.5819
 6625TIP3   OH219838   6.338   1.764   3.396  0.1256 -0.0105  0.4871
 6625TIP3    H119839   6.383   1.699   3.342 -0.8677 -0.3025 -0.0126
 6625TIP3    H219840   6.305   1.714   3.471 -3.0094 -0.7304 -1.2160
 6626TIP3   OH219841   0.192   1.984   5.549  0.3481  0.0385  0.3328
 6626TIP3    H119842   0.226   1.895   5.554  0.9241  0.1572 -1.0615
 6626TIP3    H219843   0.270   2.039   5.555  0.0442  0.4422  0.6359
 6627TIP3   OH219844   1.091   1.401   5.741 -0.4788 -0.4935  0.0033
 6627TIP3    H119845   1.019   1.356   5.697 -1.2905 -0.4995  1.2856
 6627TIP3    H219846   1.050   1.478   5.781  0.8894  1.5560 -2.2602
 6628TIP3   OH219847   5.727   3.042   1.754 -0.1523  1.0186  0.5257
 6628TIP3    H119848   5.685   3.089   1.682 -1.3976 -0.0807  0.4983
 6628TIP3    H219849   5.700   3.089   1.833 -1.1707  0.5572  0.4758
 6629TIP3   OH219850   3.314   6.325   1.779  0.2057  0.4136 -0.2565
 6629TIP3    H119851   3.355   6.397   1.826 -3.2864  1.4924  1.4953
 6629TIP3    H219852   3.285   6.364   1.696 -0.8701  0.8200  0.2959
 6630TIP3   OH219853   5.797   2.520   4.252 -0.4475 -0.4576  0.4139
 6630TIP3    H119854   5.758   2.480   4.174 -2.2406 -0.6219  1.3269
 6630TIP3    H219855   5.834   2.603   4.221 -1.0987 -0.5283 -0.6058
 6631TIP3   OH219856   1.516   4.636   0.143  0.9183  0.3345 -0.9800
 6631TIP3    H119857   1.494   4.728   0.158  0.1970  0.0721 -0.3003
 6631TIP3    H219858   1.573   4.636   0.067  0.7239  1.3263 -1.1345
 6632TIP3   OH219859   6.255   6.254   0.400 -0.0553  0.5375 -0.4374
 6632TIP3    H119860   6.165   6.284   0.408 -0.2006 -0.1629  1.0926
 6632TIP3    H219861   6.248   6.158   0.395  0.5875  0.4684 -0.1864
 6633TIP3   OH219862   4.195   3.270   4.544  0.2508 -0.6861  0.5813
 6633TIP3    H119863   4.255   3.301   4.475  1.2394  2.3972  2.6052
 6633TIP3    H219864   4.108   3.290   4.511  0.7074  0.6816  0.1335
 6634TIP3   OH219865   0.682   6.748   1.914 -0.5387  0.8530 -0.1769
 6634TIP3    H119866   0.649   6.678   1.857  0.1451  0.2752  0.1201
 6634TIP3    H219867   0.607   6.774   1.966 -1.3366  1.8053 -1.7355
 6635TIP3   OH219868   4.849   0.638   2.320  0.3123  0.4445  0.2525
 6635TIP3    H119869   4.797   0.657   2.398 -0.3167  0.2734 -0.1157
 6635TIP3    H219870   4.930   0.686   2.333 -0.0649  0.9760  0.6939
 6636TIP3   OH219871   6.297   0.640   4.119 -0.3183  0.3999  0.1646
 6636TIP3    H119872   6.273   0.580   4.049  0.6067 -0.4960  0.5892
 6636TIP3    H219873   6.393   0.643   4.118 -0.2756  0.2965  1.4225
 6637TIP3   OH219874   0.471   0.300   1.239  0.4757 -0.4019  0.0790
 6637TIP3    H119875   0.387   0.258   1.226  0.0755  0.6662 -0.9762
 6637TIP3    H219876   0.536   0.233   1.217 -0.1167 -0.8415 -0.3445
 6638TIP3   OH219877   1.321   4.865   5.387 -0.1925  0.0529  0.6465
 6638TIP3    H119878   1.321   4.877   5.292  0.2553  1.2850  0.7813
 6638TIP3    H219879   1.407   4.826   5.406 -0.2125 -0.0321  0.5644
 6639TIP3   OH219880   4.722   1.536   4.872  0.3921 -0.0685  0.2809
 6639TIP3    H119881   4.699   1.508   4.784 -1.3311 -0.9294  0.9713
 6639TIP3    H219882   4.667   1.612   4.888  0.7636  0.1374  0.5875
 6640TIP3   OH219883   3.524   4.684   2.281 -0.5853 -0.4081 -0.4141
 6640TIP3    H119884   3.470   4.625   2.333 -0.8858  0.2302  0.0077
 6640TIP3    H219885   3.540   4.759   2.338 -0.3447 -0.0032 -0.9988
 6641TIP3   OH219886   2.610   2.012   2.140  0.0003 -0.4554 -0.2453
 6641TIP3    H119887   2.682   1.998   2.202 -1.2865 -0.3867  1.3182
 6641TIP3    H219888   2.653   2.039   2.059  1.7419 -0.6004  0.5946
 6642TIP3   OH219889   6.675   4.999   0.927 -0.2781  0.3985  0.0494
 6642TIP3    H119890   6.615   5.066   0.894 -1.2576 -0.7660 -0.5704
 6642TIP3    H219891   6.753   5.049   0.954 -0.9678  1.7811 -0.4124
 6643TIP3   OH219892   6.003   0.417   5.148 -0.5424 -0.5409 -0.0778
 6643TIP3    H119893   6.028   0.437   5.058 -1.7568 -0.7939 -0.4974
 6643TIP3    H219894   5.940   0.485   5.171 -0.5505 -0.7166  0.4401
 6644TIP3   OH219895   2.587   5.267   3.817  0.4020  0.0107  0.9712
 6644TIP3    H119896   2.679   5.287   3.803  0.4729 -0.1444  1.2302
 6644TIP3    H219897   2.583   5.228   3.904 -0.0280  0.8751  1.3583
 6645TIP3   OH219898   2.828   6.606   3.284  0.8543  0.4233 -0.4392
 6645TIP3    H119899   2.844   6.639   3.195 -0.3014 -1.4153 -1.4053
 6645TIP3    H219900   2.753   6.547   3.274  0.1626  0.8070  1.9344
 6646TIP3   OH219901   5.691   0.420   2.545  0.1655 -0.6719  0.0768
 6646TIP3    H119902   5.662   0.347   2.490  0.7635  0.0293 -1.2362
 6646TIP3    H219903   5.611   0.471   2.560 -0.3010 -1.7057  1.2123
 6647TIP3   OH219904   3.269   5.368   5.674  0.2643  0.7843 -0.1264
 6647TIP3    H119905   3.343   5.317   5.707  0.2608  1.4130  0.9124
 6647TIP3    H219906   3.217   5.306   5.623  1.1320  0.1679 -0.2923
 6648TIP3   OH219907   5.246   4.369   3.716  0.5590 -0.1816 -0.4131
 6648TIP3    H119908   5.199   4.297   3.673  0.7442  0.4216 -1.6687
 6648TIP3    H219909   5.270   4.428   3.645  0.3053  1.1983  0.5911
 6649TIP3   OH219910   3.894   2.926   5.496 -0.7259 -0.5259 -0.5676
 6649TIP3    H119911   3.946   2.992   5.451 -0.1721 -0.1424  0.6050
 6649TIP3    H219912   3.828   2.900   5.431  0.0497 -0.0194 -1.6005
 6650TIP3   OH219913   4.035   5.229   3.587 -0.9137 -0.0994 -0.1662
 6650TIP3    H119914   3.991   5.309   3.615 -2.2033 -0.9957  0.4401
 6650TIP3    H219915   4.054   5.182   3.668  0.5215 -0.0925 -0.4647
 6651TIP3   OH219916   0.676   3.598   5.462  0.0768  0.4274 -0.3388
 6651TIP3    H119917   0.715   3.512   5.447 -1.0325 -0.2310  0.3585
 6651TIP3    H219918   0.732   3.640   5.527  0.4601  0.1180 -0.4662
 6652TIP3   OH219919   2.933   1.870   4.341 -0.4239 -0.4711  0.3896
 6652TIP3    H119920   2.958   1.876   4.433 -0.2483  3.5215  0.2548
 6652TIP3    H219921   2.838   1.873   4.341 -0.3990  0.4461  0.4321
 6653TIP3   OH219922   5.417   2.023   5.119  0.0265 -0.4911  0.5608
 6653TIP3    H119923   5.385   2.045   5.207  0.7463 -0.1201  0.7398
 6653TIP3    H219924   5.452   2.106   5.085 -1.3400 -0.3417 -0.5663
 6654TIP3   OH219925   0.817   3.273   3.481 -0.0833 -0.3288 -0.1926
 6654TIP3    H119926   0.901   3.287   3.436  0.0876 -1.2221 -0.1729
 6654TIP3    H219927   0.839   3.276   3.574  0.1977 -1.9627 -0.1802
 6655TIP3   OH219928   0.351   6.208   5.857  0.1430 -0.3603 -0.1540
 6655TIP3    H119929   0.273   6.256   5.831 -0.1712 -0.4211  0.6347
 6655TIP3    H219930   0.345   6.124   5.812 -0.6952 -0.7033  0.5715
 6656TIP3   OH219931   2.990   0.850   2.957 -0.2625 -0.6571  0.4762
 6656TIP3    H119932   3.022   0.913   3.021 -1.0588  0.0684  0.1861
 6656TIP3    H219933   3.057   0.848   2.888 -0.9430  1.0698 -0.2788
 6657TIP3   OH219934   1.982   2.395   4.938  0.4663  0.0730  0.1855
 6657TIP3    H119935   2.024   2.464   4.989  0.5823  0.3059 -0.2214
 6657TIP3    H219936   1.898   2.432   4.911  1.1636  0.6485 -1.3251
 6658TIP3   OH219937   7.135   3.818   5.073 -0.0726 -0.0493 -0.0681
 6658TIP3    H119938   7.197   3.865   5.018 -0.8460 -0.6693 -1.5029
 6658TIP3    H219939   7.049   3.854   5.051 -0.4060 -0.3214  0.7283
 6659TIP3   OH219940   6.719   6.312   5.801  0.9228 -0.6501  0.4399
 6659TIP3    H119941   6.710   6.401   5.765 -2.0557 -0.1514  2.0714
 6659TIP3    H219942   6.758   6.325   5.887  0.8839 -0.9878  0.5095
 6660TIP3   OH219943   6.590   3.830   3.496  0.3373 -0.5321 -0.0579
 6660TIP3    H119944   6.531   3.810   3.568 -0.5014 -1.3151 -0.9266
 6660TIP3    H219945   6.662   3.768   3.506 -0.2682 -1.3220 -0.4385
 6661TIP3   OH219946   1.292   4.153   2.874  0.1668 -0.1018  0.2774
 6661TIP3    H119947   1.331   4.117   2.794 -0.0895  0.0024  0.1036
 6661TIP3    H219948   1.252   4.235   2.846  1.4189  0.7129  0.8236
 6662TIP3   OH219949   5.409   4.289   3.423  0.0389 -0.3822 -0.8145
 6662TIP3    H119950   5.399   4.199   3.453 -1.1254 -1.4350 -3.9992
 6662TIP3    H219951   5.504   4.302   3.417  0.2286 -1.1344  0.2917
 6663TIP3   OH219952   0.758   2.273   1.929 -0.0214 -0.9553 -0.3264
 6663TIP3    H119953   0.697   2.213   1.972  1.9685 -1.5123  2.0228
 6663TIP3    H219954   0.803   2.219   1.864  1.4489 -2.0573  1.4720
 6664TIP3   OH219955   3.121   4.647   5.497  0.0156 -0.0807 -0.0044
 6664TIP3    H119956   3.188   4.604   5.444  0.6572  2.1344 -1.0929
 6664TIP3    H219957   3.157   4.648   5.585  0.5467 -0.5961 -0.2120
 6665TIP3   OH219958   5.479   5.529   2.498 -0.4654 -0.0164 -0.6174
 6665TIP3    H119959   5.515   5.604   2.450  0.6410  1.2645  2.0023
 6665TIP3    H219960   5.513   5.452   2.452  0.2489  1.0973 -2.0416
 6666TIP3   OH219961   0.583   3.674   4.164  0.3687 -0.2912  0.3630
 6666TIP3    H119962   0.494   3.696   4.192  0.4289  0.0714  0.2825
 6666TIP3    H219963   0.594   3.721   4.081  1.5512  1.8806  1.6446
 6667TIP3   OH219964   4.319   1.091   3.951  0.1106 -0.4984 -0.7832
 6667TIP3    H119965   4.392   1.108   4.011  0.4566 -1.0894 -1.0306
 6667TIP3    H219966   4.299   1.177   3.913  0.1256 -0.1809 -0.0964
 6668TIP3   OH219967   4.454   0.948   1.293  0.4525  0.0926  0.0156
 6668TIP3    H119968   4.457   0.881   1.360 -0.8792 -0.3265 -0.3221
 6668TIP3    H219969   4.414   0.906   1.217 -0.9434  1.3808 -0.0263
 6669TIP3   OH219970   4.168   2.773   0.872 -0.3133  0.6784 -0.4797
 6669TIP3    H119971   4.217   2.799   0.794 -1.1571  2.5635 -0.4287
 6669TIP3    H219972   4.226   2.797   0.945  0.0955 -0.2498 -0.4890
 6670TIP3   OH219973   6.317   0.343   1.064 -0.4968 -0.1356 -0.7830
 6670TIP3    H119974   6.297   0.331   0.971  4.3934  1.1402 -2.3498
 6670TIP3    H219975   6.374   0.420   1.066 -0.7356  0.1804  3.4167
 6671TIP3   OH219976   3.802   2.973   5.767 -0.7521 -0.1834 -0.0923
 6671TIP3    H119977   3.830   2.929   5.687 -0.3434 -1.6143  0.8010
 6671TIP3    H219978   3.881   2.976   5.821 -2.0120 -3.7221  2.2348
 6672TIP3   OH219979   3.728   6.208   0.785  0.2574  0.3528  0.4863
 6672TIP3    H119980   3.761   6.297   0.778  0.0997  0.7699  3.6507
 6672TIP3    H219981   3.789   6.164   0.845  0.4625 -1.7982 -1.1397
 6673TIP3   OH219982   2.155   0.842   2.221  0.9027 -0.3372  0.2925
 6673TIP3    H119983   2.196   0.928   2.212  1.6900 -0.7791 -0.5358
 6673TIP3    H219984   2.183   0.794   2.143 -0.4121 -0.9913  0.1900
 6674TIP3   OH219985   5.477   5.653   1.000 -0.2809 -0.2769  0.0179
 6674TIP3    H119986   5.421   5.639   0.924  0.7829 -0.2287 -0.8095
 6674TIP3    H219987   5.547   5.710   0.968 -0.9754  1.6178  1.6064
 6675TIP3   OH219988   3.707   2.347   0.540 -0.5358 -0.2136 -0.2123
 6675TIP3    H119989   3.738   2.366   0.452  1.1500 -1.9330 -0.0580
 6675TIP3    H219990   3.675   2.431   0.573 -1.5280  0.3869 -2.5540
 6676TIP3   OH219991   5.798   6.627   1.128 -0.4069  0.4193 -0.1246
 6676TIP3    H119992   5.835   6.543   1.156  0.0745  0.8624  0.5982
 6676TIP3    H219993   5.835   6.691   1.189 -1.4976  1.0308 -0.0826
 6677TIP3   OH219994   2.647   6.408   3.167 -0.2955  0.2663  0.5366
 6677TIP3    H119995   2.630   6.410   3.073 -2.5287 -0.2278  0.8514
 6677TIP3    H219996   2.660   6.315   3.187  1.0645  0.4544  0.6153
 6678TIP3   OH219997   6.421   0.073   4.290 -0.0054  0.6531  0.2993
 6678TIP3    H119998   6.357   0.131   4.331 -0.5368 -0.1885  0.6746
 6678TIP3    H219999   6.368   0.008   4.244  0.3895 -2.0470  3.2633
 6679TIP3   OH220000   4.837   5.706   2.996 -0.0314  0.0732  0.2631
 6679TIP3    H120001   4.881   5.661   2.923  0.5385  0.9207  0.0736
 6679TIP3    H220002   4.767   5.755   2.954  0.1167  0.3326  0.3196
 6680TIP3   OH220003   4.773   4.451   2.286 -0.0829 -0.0680  0.3669
 6680TIP3    H120004   4.738   4.470   2.199 -0.7775 -0.3837  0.5664
 6680TIP3    H220005   4.695   4.431   2.339  0.4210 -1.1970  0.7196
 6681TIP3   OH220006   3.635   0.507   0.667  0.2721 -0.5241  0.2823
 6681TIP3    H120007   3.695   0.581   0.673 -0.2038 -0.0280 -0.8261
 6681TIP3    H220008   3.673   0.451   0.599  0.7472 -1.4217  1.2643
 6682TIP3   OH220009   3.579   5.084   1.908  0.3568 -0.6048 -0.1679
 6682TIP3    H120010   3.666   5.044   1.895 -0.2617 -2.0680 -0.0519
 6682TIP3    H220011   3.551   5.051   1.993  0.5057  1.4967  0.7502
 6683TIP3   OH220012   6.326   1.924   3.902  0.0728 -0.4156  0.1507
 6683TIP3    H120013   6.355   1.900   3.814  0.6295 -0.9241  0.4627
 6683TIP3    H220014   6.386   1.993   3.929 -1.7674  1.7542 -0.8994
 6684TIP3   OH220015   1.665   0.521   3.201  0.6320 -0.3098  0.1525
 6684TIP3    H120016   1.681   0.456   3.132  0.3872 -0.7468  0.5024
 6684TIP3    H220017   1.718   0.492   3.275 -1.1062 -1.3595  1.0727
 6685TIP3   OH220018   6.129   5.487   5.103 -0.2934 -0.0747 -0.4914
 6685TIP3    H120019   6.096   5.443   5.025  0.0266 -2.2528  0.5383
 6685TIP3    H220020   6.051   5.513   5.152 -0.4959  1.3896 -1.5357
 6686TIP3   OH220021   3.948   1.796   2.734 -0.3605 -0.4825 -0.1672
 6686TIP3    H120022   4.005   1.735   2.689  1.3625 -0.2513  1.5638
 6686TIP3    H220023   3.866   1.748   2.746 -0.9847 -0.4645 -3.5820
 6687TIP3   OH220024   4.998   5.589   0.777  0.2669 -0.0058  0.1352
 6687TIP3    H120025   5.009   5.676   0.737  1.7444 -0.7746 -1.2213
 6687TIP3    H220026   5.009   5.605   0.871  1.0998  1.1940 -0.1381
 6688TIP3   OH220027   3.749   4.516   3.120 -0.5119  0.1591 -0.1329
 6688TIP3    H120028   3.691   4.557   3.057 -0.3665  1.2166  0.3937
 6688TIP3    H220029   3.836   4.550   3.099  0.2812 -2.6985 -1.9975
 6689TIP3   OH220030   5.100   1.309   0.867  0.5861  0.3684 -0.6804
 6689TIP3    H120031   5.176   1.360   0.840  1.1471  0.1901  0.4947
 6689TIP3    H220032   5.086   1.246   0.795  2.1814 -0.2696 -0.4670
 6690TIP3   OH220033   1.739   4.127   3.760 -0.2712  0.0623 -0.3803
 6690TIP3    H120034   1.825   4.122   3.717 -0.1899 -0.0268 -0.2099
 6690TIP3    H220035   1.742   4.057   3.826 -1.1283 -1.1132 -1.5457
 6691TIP3   OH220036   1.242   6.658   4.513 -0.3335 -0.1975  0.2739
 6691TIP3    H120037   1.195   6.588   4.559  0.1023 -0.8403 -0.2332
 6691TIP3    H220038   1.211   6.739   4.554 -0.7105 -0.6950  0.9964
 6692TIP3   OH220039   1.570   0.787   4.398 -0.2208  0.0825  0.2543
 6692TIP3    H120040   1.559   0.781   4.303  0.5767  0.6535  0.1125
 6692TIP3    H220041   1.500   0.734   4.434 -0.6748  0.0512 -0.6545
 6693TIP3   OH220042   2.208   0.723   3.230 -0.2424 -0.3846  0.2353
 6693TIP3    H120043   2.266   0.721   3.307 -0.7050  1.0087  0.6412
 6693TIP3    H220044   2.172   0.635   3.225 -0.4383 -0.4262  1.8129
 6694TIP3   OH220045   5.841   6.180   4.222 -0.0895 -0.4059 -0.5053
 6694TIP3    H120046   5.839   6.146   4.133 -0.9268 -1.5816 -0.0619
 6694TIP3    H220047   5.765   6.238   4.227 -0.0996 -0.4174 -0.5292
 6695TIP3   OH220048   3.913   4.195   2.779 -0.6709  0.1252  0.6934
 6695TIP3    H120049   3.905   4.290   2.787  1.2043  0.3495  0.3727
 6695TIP3    H220050   3.842   4.169   2.721 -1.1214  1.3611  0.6787
 6696TIP3   OH220051   0.205   2.228   3.814 -0.1255 -0.1102 -0.2830
 6696TIP3    H120052   0.225   2.197   3.902 -0.3546  0.1218 -0.1488
 6696TIP3    H220053   0.112   2.249   3.817 -0.1964 -0.3564 -0.6571
 6697TIP3   OH220054   1.201   0.631   1.283 -0.6309  0.0318 -0.4360
 6697TIP3    H120055   1.140   0.703   1.265 -1.2450 -0.0361  1.1734
 6697TIP3    H220056   1.248   0.618   1.201 -0.0985  2.6508 -0.6434
 6698TIP3   OH220057   0.045   1.761   3.924 -0.1637 -0.6938 -0.0800
 6698TIP3    H120058   0.110   1.720   3.982 -0.9157  0.5854  1.7674
 6698TIP3    H220059  -0.012   1.689   3.898  0.6864 -1.4531  0.0973
 6699TIP3   OH220060   0.667   3.302   5.853 -0.1200 -0.2762  0.4156
 6699TIP3    H120061   0.650   3.256   5.771  0.4478  0.6323 -0.2368
 6699TIP3    H220062   0.710   3.238   5.909 -2.0322 -1.4151  0.6499
 6700TIP3   OH220063   4.755   4.989   1.112 -0.2110  0.0369  0.2430
 6700TIP3    H120064   4.850   4.984   1.112 -0.1817  0.5542  0.2770
 6700TIP3    H220065   4.733   5.026   1.026 -0.4464 -1.0933 -0.2130
 6701TIP3   OH220066   4.107   3.806   1.923 -0.2951 -0.4175 -0.1756
 6701TIP3    H120067   4.110   3.711   1.929 -1.2843 -0.4254  0.4746
 6701TIP3    H220068   4.045   3.824   1.853 -0.1709 -0.2452 -0.2436
 6702TIP3   OH220069   0.154   2.892   3.743  0.3572 -0.2836  0.1705
 6702TIP3    H120070   0.077   2.913   3.691 -1.0710 -0.6059  2.0677
 6702TIP3    H220071   0.177   2.975   3.785  1.6594  0.0370 -1.0759
 6703TIP3   OH220072   5.881   6.258   3.893 -0.1256 -0.7919 -0.1064
 6703TIP3    H120073   5.822   6.201   3.942  0.2588  0.0141  1.3539
 6703TIP3    H220074   5.823   6.315   3.843 -0.5850 -0.5340  0.7002
 6704TIP3   OH220075   3.271   4.854   1.504  0.2808 -0.2865 -0.1369
 6704TIP3    H120076   3.354   4.876   1.545  0.2108 -0.6904  0.2295
 6704TIP3    H220077   3.290   4.776   1.452  0.2114 -0.1772 -0.3261
 6705TIP3   OH220078   4.640   2.567   4.903 -0.2744 -0.0655  0.8813
 6705TIP3    H120079   4.549   2.567   4.874 -0.7783  1.5353  2.2718
 6705TIP3    H220080   4.650   2.484   4.950 -0.5391 -0.9406 -0.5694
 6706TIP3   OH220081   5.565   4.363   2.389 -0.2021 -0.2303 -0.3577
 6706TIP3    H120082   5.516   4.378   2.470  1.8883  0.3373  0.8641
 6706TIP3    H220083   5.497   4.355   2.321 -1.9421  1.4467  1.0714
 6707TIP3   OH220084   6.629   6.646   4.662  0.1032  0.1049 -0.1303
 6707TIP3    H120085   6.697   6.643   4.595  0.3731  0.9870  0.0841
 6707TIP3    H220086   6.613   6.555   4.685  0.0048 -0.2177 -1.3884
 6708TIP3   OH220087   1.282   6.182   5.831 -0.4511  0.5474 -1.0844
 6708TIP3    H120088   1.354   6.217   5.883 -1.4342  1.0726 -0.0200
 6708TIP3    H220089   1.324   6.142   5.755  1.0555 -0.3459  0.1644
 6709TIP3   OH220090   0.892   3.404   5.196  0.0508 -0.0207 -0.1587
 6709TIP3    H120091   0.879   3.393   5.290 -1.2060  1.5324 -0.1028
 6709TIP3    H220092   0.987   3.409   5.185  0.2994 -1.6658  0.7998
 6710TIP3   OH220093   3.012   4.758   5.170  0.3349  0.3245  0.2124
 6710TIP3    H120094   3.013   4.664   5.151  0.2185  0.0016  1.7131
 6710TIP3    H220095   3.023   4.799   5.084 -2.2486 -0.9995 -0.8767
 6711TIP3   OH220096   3.332   4.887   5.287  0.0388 -0.0507  0.0050
 6711TIP3    H120097   3.280   4.935   5.223  0.7255 -0.2283 -0.6962
 6711TIP3    H220098   3.314   4.795   5.268 -0.8661 -0.0996  1.0059
 6712TIP3   OH220099   3.264   1.684   0.581 -0.3659 -0.0690  0.4573
 6712TIP3    H120100   3.342   1.648   0.539 -0.5221 -0.8014  0.7709
 6712TIP3    H220101   3.227   1.610   0.629 -0.3348  0.6766  1.6678
 6713TIP3   OH220102   2.586   2.539   1.425 -0.1187  0.1032  0.6727
 6713TIP3    H120103   2.658   2.529   1.487 -0.0114 -0.9040  0.4089
 6713TIP3    H220104   2.510   2.503   1.470 -0.2122  0.1228  0.5314
 6714TIP3   OH220105   0.450   4.519   0.593  0.1176 -0.3210 -0.2468
 6714TIP3    H120106   0.521   4.559   0.543  1.6610 -0.5774  1.6260
 6714TIP3    H220107   0.486   4.506   0.680 -1.9030 -1.4576  0.4936
 6715TIP3   OH220108   2.094   3.913   4.717 -0.3974  0.4431  0.3423
 6715TIP3    H120109   2.099   3.845   4.784 -1.9120 -1.6795 -1.5207
 6715TIP3    H220110   2.184   3.924   4.686  0.2133  1.0041  2.2117
 6716TIP3   OH220111   5.836   4.547   5.486  0.3080 -0.5060  0.0958
 6716TIP3    H120112   5.758   4.595   5.460  0.1151 -1.1789 -0.6120
 6716TIP3    H220113   5.872   4.597   5.559  2.2085  2.8478 -2.7904
 6717TIP3   OH220114   0.717   5.902   4.581  0.7213  0.8483 -0.2429
 6717TIP3    H120115   0.629   5.902   4.542  0.3708 -0.5588  0.4669
 6717TIP3    H220116   0.703   5.922   4.673  1.0265 -0.2486  0.0601
 6718TIP3   OH220117   6.571   3.308   3.512  0.6115  0.4656 -0.1650
 6718TIP3    H120118   6.653   3.326   3.466  0.5260  0.5831 -0.2729
 6718TIP3    H220119   6.585   3.340   3.601  0.5668  0.7816 -0.2734
 6719TIP3   OH220120   6.430   5.473   1.151 -0.1024 -0.2843 -0.4341
 6719TIP3    H120121   6.516   5.462   1.110 -0.4188  2.0414 -1.9298
 6719TIP3    H220122   6.384   5.391   1.134  1.2962 -0.9758 -0.9826
 6720TIP3   OH220123   1.376   0.166   3.084 -0.0455 -0.0983 -0.5508
 6720TIP3    H120124   1.282   0.149   3.078 -0.3838  0.7358  1.4858
 6720TIP3    H220125   1.404   0.116   3.160  0.7920  1.0572 -0.0757
 6721TIP3   OH220126   5.398   4.799   3.832  0.2307  0.1909 -0.9546
 6721TIP3    H120127   5.356   4.784   3.917  1.6454 -0.2743 -0.3182
 6721TIP3    H220128   5.347   4.746   3.770  0.9099 -1.7756  0.0923
 6722TIP3   OH220129   0.566   0.182   5.566  0.7331 -0.6059  0.1130
 6722TIP3    H120130   0.646   0.166   5.516 -0.4329 -0.8993 -1.7506
 6722TIP3    H220131   0.543   0.097   5.602  0.1983 -0.9562 -1.0264
 6723TIP3   OH220132   6.094   5.460   1.125  0.4248  0.0469 -0.2604
 6723TIP3    H120133   6.096   5.507   1.209 -0.6635 -1.5704  0.7231
 6723TIP3    H220134   6.164   5.396   1.132  0.1164 -0.3129 -0.4580
 6724TIP3   OH220135   2.821   1.991   2.319 -0.2808  0.1898 -0.0192
 6724TIP3    H120136   2.782   2.032   2.396  0.0689 -0.4585  0.5160
 6724TIP3    H220137   2.899   1.947   2.353  1.5738  2.3149 -1.1915
 6725TIP3   OH220138   4.966   6.314   0.115  0.4858  0.3751 -0.2034
 6725TIP3    H120139   5.051   6.340   0.149  0.7917 -3.4335  2.5100
 6725TIP3    H220140   4.983   6.236   0.062 -1.2308 -0.0174 -0.2610
 6726TIP3   OH220141   1.515   1.369   5.765  0.1724 -0.2554 -0.2242
 6726TIP3    H120142   1.523   1.450   5.714 -0.4612  0.8106  1.2888
 6726TIP3    H220143   1.579   1.379   5.836  0.6540 -1.4576 -0.4679
 6727TIP3   OH220144   5.183   6.326   5.410 -0.3904 -0.1657 -0.5492
 6727TIP3    H120145   5.140   6.241   5.414 -1.6296  0.3840 -1.4347
 6727TIP3    H220146   5.269   6.308   5.370 -0.5016 -1.0359 -0.4145
 6728TIP3   OH220147   7.065   0.766   4.163 -0.4037  0.6420 -0.2424
 6728TIP3    H120148   7.098   0.710   4.233 -1.5639  1.5226  1.0726
 6728TIP3    H220149   7.011   0.708   4.109 -0.5338  0.2081  0.3410
 6729TIP3   OH220150   2.108   0.468   3.154 -0.5707  0.1012  0.0001
 6729TIP3    H120151   2.040   0.401   3.163  1.7154 -2.4762 -0.3789
 6729TIP3    H220152   2.092   0.506   3.067 -1.7141 -0.2045  0.0584
 6730TIP3   OH220153   2.188   5.656   5.319 -0.1080 -0.2445 -0.6605
 6730TIP3    H120154   2.175   5.746   5.288  0.9282  0.2066  0.1679
 6730TIP3    H220155   2.149   5.601   5.251 -2.3620  0.8719 -0.3593
 6731TIP3   OH220156   5.763   0.866   2.335 -0.3120 -0.3439 -0.0263
 6731TIP3    H120157   5.754   0.882   2.429 -0.0924  0.7629 -0.1805
 6731TIP3    H220158   5.858   0.867   2.319 -0.3666  0.1558 -0.3598
 6732TIP3   OH220159   6.055   5.359   0.866 -0.6058 -0.2113 -0.3003
 6732TIP3    H120160   6.092   5.389   0.949  0.9017 -1.7553 -0.3584
 6732TIP3    H220161   5.963   5.386   0.869 -0.4927  0.0589  1.7099
 6733TIP3   OH220162   0.441   1.669   3.263 -0.4402  1.0110 -0.2335
 6733TIP3    H120163   0.458   1.574   3.263  1.0855  1.2631 -0.3319
 6733TIP3    H220164   0.460   1.697   3.352 -2.7808  0.9498  0.3433
 6734TIP3   OH220165   0.607   1.804   0.097  0.2523 -0.3854 -0.0191
 6734TIP3    H120166   0.596   1.728   0.154 -1.2863  1.1703  1.9151
 6734TIP3    H220167   0.635   1.768   0.013 -0.1420 -3.0287  0.9051
 6735TIP3   OH220168   2.907   0.795   5.788 -0.3587  0.5474 -0.2119
 6735TIP3    H120169   2.996   0.813   5.818 -0.5496  1.1413  0.0220
 6735TIP3    H220170   2.913   0.712   5.741  0.4101  0.8227 -0.6094
 6736TIP3   OH220171   1.517   5.564   0.985 -0.1994 -0.0758  0.6572
 6736TIP3    H120172   1.598   5.559   0.934  1.6284  1.4035  3.1569
 6736TIP3    H220173   1.517   5.485   1.038 -0.5879 -0.2257  0.4409
 6737TIP3   OH220174   5.779   1.485   2.198  0.2454  0.1016 -0.4780
 6737TIP3    H120175   5.728   1.452   2.271 -0.4763  0.3703 -0.8518
 6737TIP3    H220176   5.790   1.410   2.140  3.5054 -1.0166  1.2884
 6738TIP3   OH220177   5.541   1.270   1.523  0.4633 -0.0419 -0.0400
 6738TIP3    H120178   5.453   1.234   1.510  1.0284 -0.6963 -2.6104
 6738TIP3    H220179   5.535   1.360   1.490  0.7904 -0.1223 -0.3190
 6739TIP3   OH220180   6.590   2.453   5.365  0.4654  0.2898 -0.1998
 6739TIP3    H120181   6.675   2.438   5.407  0.0965  0.8370  0.7665
 6739TIP3    H220182   6.605   2.523   5.303  0.5256  1.0486  0.6510
 6740TIP3   OH220183   5.851   2.223   4.065 -0.1399  0.2946 -0.0750
 6740TIP3    H120184   5.811   2.281   4.000 -0.3189  1.4260  1.0153
 6740TIP3    H220185   5.942   2.252   4.071 -0.2400  0.5112  0.5021
 6741TIP3   OH220186   6.899   1.311   0.092 -0.2520 -0.4855  0.3859
 6741TIP3    H120187   6.812   1.351   0.086  0.2297  0.5110 -0.2458
 6741TIP3    H220188   6.885   1.228   0.137 -1.7068 -0.8546 -0.6803
 6742TIP3   OH220189   5.831   2.531   0.809  0.0554 -0.3034 -0.4833
 6742TIP3    H120190   5.840   2.595   0.879 -1.3285 -1.4131  0.7645
 6742TIP3    H220191   5.921   2.511   0.783  0.5785  0.4672  0.6567
 6743TIP3   OH220192   2.825   1.519   5.480  0.1733 -0.5276  0.1229
 6743TIP3    H120193   2.823   1.569   5.398  2.1931  0.8156  0.8225
 6743TIP3    H220194   2.856   1.433   5.455  2.3455  0.3379 -0.3683
 6744TIP3   OH220195   4.969   6.573   2.079 -0.0154 -0.0891  0.0549
 6744TIP3    H120196   4.874   6.570   2.072 -0.0679  2.5706 -1.7877
 6744TIP3    H220197   4.993   6.487   2.115 -2.9452 -1.5167 -1.0394
 6745TIP3   OH220198   6.996   2.330   1.060 -0.2348 -0.3166  0.1144
 6745TIP3    H120199   6.954   2.338   1.146 -1.6061 -0.6443 -0.4991
 6745TIP3    H220200   6.999   2.419   1.026  2.2363  0.1505  1.3275
 6746TIP3   OH220201   2.370   6.086   0.413  0.5514  0.9924  0.4514
 6746TIP3    H120202   2.437   6.017   0.414  0.7652  1.1563 -1.1368
 6746TIP3    H220203   2.295   6.047   0.368  1.1107  2.1537 -1.5794
 6747TIP3   OH220204   6.370   4.607   0.497  0.7149 -0.2692 -0.1097
 6747TIP3    H120205   6.289   4.605   0.547  0.0654  0.3246 -1.1163
 6747TIP3    H220206   6.405   4.694   0.511  0.5267 -0.0990 -0.6873
 6748TIP3   OH220207   4.316   1.370   3.040 -0.0969  0.4965 -0.1958
 6748TIP3    H120208   4.360   1.432   3.098  0.6514  0.2933 -0.5426
 6748TIP3    H220209   4.364   1.288   3.051 -1.2402 -0.1094  0.4563
 6749TIP3   OH220210   2.053   2.173   4.803 -0.2851 -0.0080  0.7597
 6749TIP3    H120211   2.047   2.100   4.865  1.5185  1.3184  2.6275
 6749TIP3    H220212   2.030   2.250   4.854  1.7843  1.2061  0.0066
 6750TIP3   OH220213   5.428   5.441   0.287  0.2505 -0.4316 -0.0965
 6750TIP3    H120214   5.454   5.353   0.260 -0.7456 -0.6105 -0.5320
 6750TIP3    H220215   5.492   5.499   0.246 -0.9546 -0.7290 -2.5801
 6751TIP3   OH220216   1.535   6.663   5.339  0.4605  0.3116  0.7763
 6751TIP3    H120217   1.485   6.696   5.264  1.2089 -2.9924 -1.4094
 6751TIP3    H220218   1.469   6.647   5.407 -1.2286 -1.7369 -1.2026
 6752TIP3   OH220219   5.325   4.407   4.687  0.2876 -1.1455 -0.0763
 6752TIP3    H120220   5.367   4.400   4.601  1.0502 -2.0300  0.3509
 6752TIP3    H220221   5.234   4.431   4.667  0.1965 -2.2573 -1.1944
 6753TIP3   OH220222   6.638   4.285   0.043 -0.3175  0.0196 -0.7262
 6753TIP3    H120223   6.672   4.285   0.133 -0.5990  0.8555 -0.6140
 6753TIP3    H220224   6.666   4.369   0.007 -0.5236 -0.1585 -1.3015
 6754TIP3   OH220225   6.405   1.052   4.123 -0.2140 -0.0129 -0.5851
 6754TIP3    H120226   6.375   1.143   4.129  0.1000  0.1190 -0.9763
 6754TIP3    H220227   6.398   1.019   4.213 -0.8318  0.2342 -0.5363
 6755TIP3   OH220228   2.605   1.835   3.716 -0.3575  0.0295 -0.2015
 6755TIP3    H120229   2.696   1.811   3.734 -0.1786  0.3282 -0.6895
 6755TIP3    H220230   2.564   1.752   3.689 -0.1389 -0.0324 -0.3446
 6756TIP3   OH220231   6.700   4.854   1.725 -0.2753 -0.3761  0.7428
 6756TIP3    H120232   6.642   4.782   1.749 -0.6165 -0.7321 -0.9955
 6756TIP3    H220233   6.781   4.811   1.697  0.4961  0.0692  2.1982
 6757TIP3   OH220234   2.180   2.744   4.329  0.2621  0.3572  0.0745
 6757TIP3    H120235   2.168   2.785   4.415 -0.8300  1.3457 -0.5187
 6757TIP3    H220236   2.271   2.765   4.306 -0.0868  2.0098  0.0544
 6758TIP3   OH220237   0.991   1.768   0.066 -0.0424 -0.4868  0.0240
 6758TIP3    H120238   1.026   1.758  -0.023 -0.9164 -0.7274 -0.3029
 6758TIP3    H220239   0.899   1.790   0.053 -0.1914 -0.5866  0.8762
 6759TIP3   OH220240   7.066   4.781   2.036 -0.5837  0.3185  0.4929
 6759TIP3    H120241   7.024   4.867   2.043 -0.1001  0.4583  2.0604
 6759TIP3    H220242   7.160   4.799   2.045 -0.2936 -0.1855 -1.1639
 6760TIP3   OH220243   3.683   5.456   3.381  0.0295  0.2480 -0.3557
 6760TIP3    H120244   3.769   5.441   3.343  1.5725  0.1517  2.8227
 6760TIP3    H220245   3.689   5.544   3.419  0.1468 -1.0670  3.0297
 6761TIP3   OH220246   3.421   2.053   4.419 -0.0407 -0.6791  0.4453
 6761TIP3    H120247   3.481   1.984   4.390 -0.1762 -0.8761  0.6338
 6761TIP3    H220248   3.384   2.088   4.338  2.1154  1.0916  0.1171
 6762TIP3   OH220249   4.391   6.163   1.853 -0.3759 -0.0882 -0.0360
 6762TIP3    H120250   4.468   6.189   1.802  0.4518 -0.9869  0.7365
 6762TIP3    H220251   4.388   6.226   1.925  0.7281 -1.1347  0.9638
 6763TIP3   OH220252   3.727   6.037   1.067 -0.0106 -0.1027  0.5874
 6763TIP3    H120253   3.725   5.978   1.143 -1.8764  0.9207  1.4028
 6763TIP3    H220254   3.635   6.056   1.050  0.5059  3.2434  0.8944
 6764TIP3   OH220255   6.200   0.113   4.084 -0.5046  0.0702  0.5969
 6764TIP3    H120256   6.105   0.109   4.093 -0.7993  2.9548 -0.0839
 6764TIP3    H220257   6.226   0.186   4.140  1.2144 -0.2369  0.2377
 6765TIP3   OH220258   6.590   0.966   0.468 -0.3896 -0.1145 -0.1753
 6765TIP3    H120259   6.569   1.057   0.487 -0.0045 -0.0537 -0.0443
 6765TIP3    H220260   6.603   0.964   0.373 -1.2557 -0.2088 -0.3016
 6766TIP3   OH220261   5.709   6.178   2.597 -0.9713  0.7365 -0.3168
 6766TIP3    H120262   5.681   6.087   2.592 -0.9839  0.6263  1.1590
 6766TIP3    H220263   5.746   6.197   2.511 -0.3653 -0.8519 -0.4377
 6767TIP3   OH220264   4.478   1.916   5.696  0.3077  0.5735  0.2221
 6767TIP3    H120265   4.546   1.981   5.679  0.9682  0.0324  0.7315
 6767TIP3    H220266   4.428   1.912   5.615  1.8377 -0.1459 -0.7465
 6768TIP3   OH220267   5.513   1.336   5.013  0.2700 -0.1620 -0.1720
 6768TIP3    H120268   5.477   1.247   5.015 -0.4261  0.0118 -2.6463
 6768TIP3    H220269   5.607   1.323   5.021  0.1107 -1.0223  0.6069
 6769TIP3   OH220270   0.854   2.279   0.089 -0.3045  0.0450  0.0000
 6769TIP3    H120271   0.789   2.343   0.059  0.2151  0.3537 -0.4704
 6769TIP3    H220272   0.938   2.315   0.063 -0.0157 -0.9448 -0.4855
 6770TIP3   OH220273   1.408   2.262   0.480  0.3193 -0.0642 -0.4738
 6770TIP3    H120274   1.350   2.278   0.406  0.9223  1.2606 -0.6847
 6770TIP3    H220275   1.396   2.337   0.538 -0.3098 -1.1772  0.9106
 6771TIP3   OH220276   6.008   1.462   0.184 -0.0051 -0.7906  0.0422
 6771TIP3    H120277   5.920   1.477   0.217  0.8029  2.8325  1.0024
 6771TIP3    H220278   5.998   1.458   0.089 -1.2111 -0.2725  0.1271
 6772TIP3   OH220279   5.920   0.299   5.719 -0.7745  0.6381  0.1080
 6772TIP3    H120280   5.826   0.297   5.737 -0.7016 -1.7520  0.6543
 6772TIP3    H220281   5.960   0.268   5.801  0.2919 -0.6486 -0.8481
 6773TIP3   OH220282   3.395   3.751   4.832  0.4519  0.1751 -1.0005
 6773TIP3    H120283   3.485   3.778   4.851  0.4825 -0.8615  0.5101
 6773TIP3    H220284   3.399   3.656   4.824 -0.6042  0.0518 -0.3165
 6774TIP3   OH220285   5.366   2.805   1.618  0.2011  0.1734 -0.3921
 6774TIP3    H120286   5.440   2.763   1.661  1.1131  0.6257 -1.4621
 6774TIP3    H220287   5.370   2.773   1.527  1.2876  2.9448 -1.4199
 6775TIP3   OH220288   5.009   1.368   4.511 -0.1801 -0.0361 -0.1335
 6775TIP3    H120289   4.944   1.305   4.479 -1.1587  1.7053 -1.7272
 6775TIP3    H220290   5.093   1.333   4.480 -0.7405 -0.3677 -1.3549
 6776TIP3   OH220291   5.871   1.099   3.524  0.5534  0.0584  0.1085
 6776TIP3    H120292   5.819   1.037   3.576  1.0563 -0.1674  0.3457
 6776TIP3    H220293   5.927   1.045   3.470  1.4212  0.3000  0.7492
 6777TIP3   OH220294   6.438   1.230   2.162 -0.0125 -0.5883  0.0097
 6777TIP3    H120295   6.512   1.284   2.189  0.5370 -1.1525 -0.3537
 6777TIP3    H220296   6.402   1.195   2.243  1.7264 -2.4074  0.0602
 6778TIP3   OH220297   2.692   2.841   1.545 -0.1447 -0.1640 -0.1045
 6778TIP3    H120298   2.613   2.884   1.511  0.4377  0.0238 -1.2981
 6778TIP3    H220299   2.660   2.761   1.586 -0.8418 -0.8916 -1.9562
 6779TIP3   OH220300   1.501   0.699   5.383  0.2794  0.0806 -0.0759
 6779TIP3    H120301   1.568   0.631   5.369  1.5463  0.7429  2.2538
 6779TIP3    H220302   1.518   0.763   5.314  0.7335 -0.7122 -0.7271
 6780TIP3   OH220303   1.751   4.652   2.858 -0.2597 -0.5882  0.0454
 6780TIP3    H120304   1.747   4.560   2.886  1.8605 -0.7323  0.0584
 6780TIP3    H220305   1.670   4.690   2.891 -1.6649 -2.6622 -0.7940
 6781TIP3   OH220306   2.586   3.612   2.662 -0.6217 -0.2627  0.4762
 6781TIP3    H120307   2.604   3.662   2.742  0.8215 -0.1821  0.1343
 6781TIP3    H220308   2.673   3.583   2.632 -1.3609 -2.9500  0.6383
 6782TIP3   OH220309   4.009   0.434   1.669  0.0979 -0.9322 -0.7064
 6782TIP3    H120310   4.057   0.510   1.635 -0.4206 -0.0630  0.4139
 6782TIP3    H220311   4.031   0.363   1.609  1.7459 -0.2540 -0.9825
 6783TIP3   OH220312   2.707   6.090   4.807 -0.4262  0.1386  0.6912
 6783TIP3    H120313   2.705   6.147   4.884  0.7295  0.1011  0.7739
 6783TIP3    H220314   2.725   6.003   4.842  0.8139  0.2336  0.3480
 6784TIP3   OH220315   1.755   1.973   5.209 -0.3916  0.2856 -0.2440
 6784TIP3    H120316   1.833   1.935   5.250  1.7005  3.1231 -1.2305
 6784TIP3    H220317   1.722   1.903   5.152  1.2501 -1.1236  0.4428
 6785TIP3   OH220318   3.504   6.177   3.655  0.4524  0.3553 -0.0513
 6785TIP3    H120319   3.564   6.181   3.729 -0.5636  1.6407  0.7473
 6785TIP3    H220320   3.546   6.231   3.588  1.4042 -0.8608 -0.4587
 6786TIP3   OH220321   4.630   5.952   2.056 -0.0645 -0.0453  0.6145
 6786TIP3    H120322   4.554   5.912   2.013 -0.3619  1.2302 -0.1180
 6786TIP3    H220323   4.666   5.883   2.111 -1.3629 -0.8817  0.4608
 6787TIP3   OH220324   6.407   5.947   2.416 -0.2399 -0.0119  0.3573
 6787TIP3    H120325   6.361   5.970   2.497 -0.3253 -0.3991  0.4222
 6787TIP3    H220326   6.427   5.854   2.426  1.8963  0.4590  0.9946
 6788TIP3   OH220327   1.370   2.003   1.581 -0.5366  0.0607 -0.5284
 6788TIP3    H120328   1.334   2.086   1.547 -2.4312 -0.4251  0.2013
 6788TIP3    H220329   1.463   2.007   1.557 -0.5474  2.4116 -0.4830
 6789TIP3   OH220330   5.642   0.859   0.899 -0.3647 -0.3066  0.0900
 6789TIP3    H120331   5.665   0.860   0.992  0.9777  1.4720 -0.2044
 6789TIP3    H220332   5.585   0.935   0.887 -0.4140 -0.4391 -0.5807
 6790TIP3   OH220333   4.894   5.346   2.300 -0.1105  0.2586  0.2044
 6790TIP3    H120334   4.936   5.289   2.235 -1.5116  1.5715 -1.9843
 6790TIP3    H220335   4.954   5.345   2.375  2.0542 -0.6444 -1.4228
 6791TIP3   OH220336   6.271   0.869   3.385 -0.1955 -0.2982 -0.8719
 6791TIP3    H120337   6.308   0.867   3.297  0.5233 -2.8074 -0.5740
 6791TIP3    H220338   6.323   0.806   3.435 -0.7620  0.8525  1.3013
 6792TIP3   OH220339   4.725   3.200   2.985  0.0712 -0.1042  0.3192
 6792TIP3    H120340   4.758   3.273   3.038  1.4551 -0.4912  0.0337
 6792TIP3    H220341   4.789   3.130   2.998 -0.9487 -1.0945  0.1581
 6793TIP3   OH220342   6.116   3.822   2.792  1.0428  1.2422  0.4261
 6793TIP3    H120343   6.159   3.743   2.826  1.7290  2.5763  2.9351
 6793TIP3    H220344   6.074   3.794   2.711 -0.2152 -2.1351  2.0468
 6794TIP3   OH220345   4.843   2.499   0.912  0.2670 -0.2890 -0.1559
 6794TIP3    H120346   4.786   2.424   0.929  0.5970 -0.4896  0.0721
 6794TIP3    H220347   4.849   2.504   0.816  1.3135 -1.3762 -0.1665
 6795TIP3   OH220348   5.147   6.623   2.799  0.0601 -0.0414 -0.2110
 6795TIP3    H120349   5.143   6.642   2.705  0.7956 -1.2576 -0.5051
 6795TIP3    H220350   5.236   6.646   2.825 -0.6970  2.1835  0.6607
 6796TIP3   OH220351   4.944   3.784   5.547  0.2722 -0.2589 -0.0741
 6796TIP3    H120352   5.033   3.797   5.513  0.2620 -2.9835 -1.4525
 6796TIP3    H220353   4.889   3.836   5.489  0.6807 -1.5546 -1.7149
 6797TIP3   OH220354   5.717   0.275   4.511  0.4721 -0.0833 -0.3695
 6797TIP3    H120355   5.646   0.289   4.573 -0.7996  0.3028 -1.8368
 6797TIP3    H220356   5.797   0.281   4.563 -0.5802 -2.2614  1.6513
 6798TIP3   OH220357   3.678   2.839   1.592 -1.1333 -0.1878 -0.2886
 6798TIP3    H120358   3.641   2.754   1.567 -0.4698 -0.7941  0.7382
 6798TIP3    H220359   3.763   2.841   1.549 -1.7285  0.5892 -1.4747
 6799TIP3   OH220360   2.736   4.504   4.833  0.9984  0.2476 -0.0040
 6799TIP3    H120361   2.657   4.557   4.821  1.3805  0.7517 -0.2925
 6799TIP3    H220362   2.703   4.414   4.838  0.5179  0.3189 -1.5350
 6800TIP3   OH220363   4.585   0.782   3.920  0.1005  0.2107  0.4307
 6800TIP3    H120364   4.494   0.759   3.938 -0.2182  0.3996 -0.8340
 6800TIP3    H220365   4.628   0.699   3.901 -0.2132  0.2590 -0.5867
 6801TIP3   OH220366   5.841   5.039   0.234  0.0272  0.0632  0.4260
 6801TIP3    H120367   5.839   5.015   0.142 -0.6483  0.3820  0.3531
 6801TIP3    H220368   5.847   5.135   0.234 -2.7631  0.3093  0.6787
 6802TIP3   OH220369   0.358   3.112   1.518  0.0935  0.3805  0.4304
 6802TIP3    H120370   0.361   3.108   1.613  2.1456  0.5539  0.4231
 6802TIP3    H220371   0.372   3.204   1.496  0.3793  0.2285 -0.0490
 6803TIP3   OH220372   3.579   5.026   1.043  0.6971  0.1790  0.3230
 6803TIP3    H120373   3.496   5.000   1.001 -0.1350  1.6385  0.9748
 6803TIP3    H220374   3.647   4.991   0.986 -0.3934  1.4796 -1.8995
 6804TIP3   OH220375   5.884   6.267   1.826 -0.0018  0.2831  0.1260
 6804TIP3    H120376   5.908   6.354   1.860 -1.1436  0.8003 -0.3620
 6804TIP3    H220377   5.832   6.285   1.748 -1.2457 -0.8190  0.6706
 6805TIP3   OH220378   2.046   1.809   2.602 -0.0520 -0.1718  0.1394
 6805TIP3    H120379   2.074   1.900   2.607  2.5191 -0.8676 -0.1556
 6805TIP3    H220380   2.048   1.788   2.508  1.3612 -1.0218  0.3142
 6806TIP3   OH220381   0.567   1.838   1.857 -0.2054 -0.4077  0.1426
 6806TIP3    H120382   0.602   1.756   1.821 -0.9086 -1.0465  0.8651
 6806TIP3    H220383   0.645   1.885   1.887  0.2977 -0.3198 -1.2226
 6807TIP3   OH220384   5.862   5.419   3.204  0.2988 -0.4224  0.0818
 6807TIP3    H120385   5.804   5.473   3.258  0.7773  1.8225 -1.5081
 6807TIP3    H220386   5.806   5.350   3.171 -1.1628  0.8556 -0.2469
 6808TIP3   OH220387   3.762   3.600   3.904 -0.2231  0.4339 -0.0002
 6808TIP3    H120388   3.821   3.562   3.839 -0.4332  1.9164 -1.1064
 6808TIP3    H220389   3.808   3.588   3.987  0.1043 -1.3847 -0.3958
 6809TIP3   OH220390   6.681   5.425   1.009 -0.1751  0.5222  0.4982
 6809TIP3    H120391   6.744   5.354   0.995  0.2397  1.0178 -0.2469
 6809TIP3    H220392   6.723   5.482   1.073 -0.5867  0.0129  1.2324
 6810TIP3   OH220393   1.776   2.275   1.691 -0.4632 -0.0303  0.2105
 6810TIP3    H120394   1.723   2.354   1.684  1.4603  1.2271 -1.2938
 6810TIP3    H220395   1.866   2.307   1.702  0.2196 -2.0355  0.9036
 6811TIP3   OH220396   4.873   5.545   2.769  0.1309 -0.7867  0.1591
 6811TIP3    H120397   4.872   5.564   2.676 -0.5965 -3.8906 -0.5952
 6811TIP3    H220398   4.907   5.455   2.775  2.4049  0.0758  3.1132
 6812TIP3   OH220399   3.885   4.577   4.286  0.2040  0.1923  0.1790
 6812TIP3    H120400   3.902   4.659   4.332 -0.6611 -0.3417  1.5086
 6812TIP3    H220401   3.970   4.552   4.250  0.8096  0.9068  1.0680
 6813TIP3   OH220402   1.578   5.729   5.709 -0.8045  0.0152  0.0194
 6813TIP3    H120403   1.531   5.706   5.629 -0.6816 -1.4162  0.3333
 6813TIP3    H220404   1.599   5.645   5.750  1.6352  0.6163  0.1226
 6814TIP3   OH220405   5.566   0.574   5.848  0.1651  0.2718  0.3471
 6814TIP3    H120406   5.653   0.614   5.843  1.1136 -1.6994 -0.0091
 6814TIP3    H220407   5.538   0.588   5.939 -0.0396  2.5809 -0.0088
 6815TIP3   OH220408   1.914   4.240   2.796 -0.5096 -0.5986  0.0090
 6815TIP3    H120409   1.921   4.268   2.888 -1.2519 -1.9847  0.5094
 6815TIP3    H220410   1.821   4.218   2.785 -0.8247  1.2508 -1.6126
 6816TIP3   OH220411   3.915   6.499   1.826 -0.0289  0.2455 -0.3367
 6816TIP3    H120412   3.979   6.558   1.867 -1.9190  1.4737  1.0274
 6816TIP3    H220413   3.853   6.559   1.784  0.0770 -0.9365 -2.2968
 6817TIP3   OH220414   7.054   0.251   3.306 -0.3593  0.5578 -0.5551
 6817TIP3    H120415   7.121   0.201   3.260  0.0833  1.0350 -0.4214
 6817TIP3    H220416   7.031   0.196   3.381  0.1940  0.6012 -0.3572
 6818TIP3   OH220417   5.694   1.243   3.337  0.3245  0.0074  0.5316
 6818TIP3    H120418   5.740   1.196   3.407  1.9440  1.5850  0.6159
 6818TIP3    H220419   5.661   1.174   3.280  2.2640 -1.2814  0.8352
 6819TIP3   OH220420   3.914   1.139   2.078  0.2659  0.2876  0.1181
 6819TIP3    H120421   4.003   1.158   2.048  0.0991 -0.5844 -0.9943
 6819TIP3    H220422   3.925   1.077   2.150  0.5266 -1.8303 -1.6282
 6820TIP3   OH220423   5.084   5.468   1.965  0.0715  0.5642 -0.5643
 6820TIP3    H120424   5.023   5.529   2.005  1.6716  1.3866  0.7862
 6820TIP3    H220425   5.121   5.516   1.891  0.1384  0.6517 -0.4767
 6821TIP3   OH220426   4.035   5.951   3.379 -0.6817 -0.6703 -0.8437
 6821TIP3    H120427   4.055   5.932   3.471 -1.0348  0.1861 -0.5868
 6821TIP3    H220428   3.962   6.013   3.382 -0.7754 -0.7277 -1.7059
 6822TIP3   OH220429   3.236   4.788   1.771 -0.2238 -0.2361 -0.3653
 6822TIP3    H120430   3.310   4.729   1.757  1.7295  1.9992 -0.1197
 6822TIP3    H220431   3.210   4.816   1.683  0.2166  0.1111 -0.3862
 6823TIP3   OH220432   1.760   0.199   4.038  0.1925 -0.0094  0.4970
 6823TIP3    H120433   1.832   0.176   3.980 -0.2885  0.9190 -0.5030
 6823TIP3    H220434   1.798   0.196   4.126  0.5456 -2.9572  0.3207
 6824TIP3   OH220435   5.925   3.196   2.334 -0.1192 -0.2628  0.0032
 6824TIP3    H120436   5.887   3.169   2.250  1.8220 -0.3150 -0.9192
 6824TIP3    H220437   5.985   3.266   2.311  1.0334 -0.8063  1.2429
 6825TIP3   OH220438   4.665   6.101   1.236  0.2144  0.1125 -0.3661
 6825TIP3    H120439   4.579   6.061   1.223 -2.0270  3.3387  2.6425
 6825TIP3    H220440   4.669   6.172   1.172 -0.7651  1.7509  1.2942
 6826TIP3   OH220441   2.920   2.711   1.461 -0.5455 -0.2250 -0.3259
 6826TIP3    H120442   2.955   2.737   1.376  0.9638 -0.8142  0.0767
 6826TIP3    H220443   2.850   2.773   1.479 -0.3721  0.3769 -1.6513
 6827TIP3   OH220444   2.809   5.527   0.465  0.0219  0.2414 -0.3652
 6827TIP3    H120445   2.847   5.600   0.513 -1.2312  0.6941 -0.0290
 6827TIP3    H220446   2.780   5.565   0.382  1.9983 -0.4970 -1.4615
 6828TIP3   OH220447   0.680   4.730   2.734  0.5118  0.1273 -0.2996
 6828TIP3    H120448   0.613   4.662   2.729 -1.2883  1.6369  1.5414
 6828TIP3    H220449   0.733   4.706   2.810  0.3495  0.3653 -0.1099
 6829TIP3   OH220450   0.898   2.381   3.354 -0.3291 -0.4546 -0.0371
 6829TIP3    H120451   0.849   2.334   3.287  0.4129  1.4635 -2.0519
 6829TIP3    H220452   0.978   2.409   3.310 -0.1644  1.5838  1.4295
 6830TIP3   OH220453   0.483   0.095   2.559  0.0380  0.1852 -0.4200
 6830TIP3    H120454   0.467   0.073   2.467 -0.3256  0.6838 -0.4809
 6830TIP3    H220455   0.400   0.075   2.603  1.0851 -2.9542  0.3819
 6831TIP3   OH220456   5.338   2.379   5.780 -0.9895  0.7577 -0.5862
 6831TIP3    H120457   5.278   2.326   5.832  0.2546 -2.9482 -2.5294
 6831TIP3    H220458   5.425   2.348   5.806 -0.3028 -1.0935 -4.3794
 6832TIP3   OH220459   6.566   5.740   2.213 -0.2743 -0.2954  0.6185
 6832TIP3    H120460   6.520   5.771   2.135  1.6208 -0.2033 -0.5348
 6832TIP3    H220461   6.508   5.675   2.252 -1.1819 -0.4997 -0.9954
 6833TIP3   OH220462   1.438   6.322   5.394 -0.4486  0.4219 -0.5010
 6833TIP3    H120463   1.515   6.268   5.375 -0.0561  1.1182 -0.9242
 6833TIP3    H220464   1.445   6.341   5.488  0.2574  1.0163 -0.6627
 6834TIP3   OH220465   4.529   3.673   0.128  0.4949  0.8503  0.3925
 6834TIP3    H120466   4.487   3.747   0.085 -2.6575  0.6127  2.7206
 6834TIP3    H220467   4.571   3.711   0.206  0.5307  0.4501  0.5732
 6835TIP3   OH220468   1.444   3.091   3.654 -0.7391 -0.1626  0.3961
 6835TIP3    H120469   1.414   3.001   3.647 -0.1582 -0.2898 -1.0048
 6835TIP3    H220470   1.536   3.084   3.680 -0.9657  0.0816  1.3038
 6836TIP3   OH220471   3.076   2.138   4.367  0.1631 -0.0471 -0.0354
 6836TIP3    H120472   3.054   2.167   4.456 -1.5839 -0.4208 -0.3072
 6836TIP3    H220473   3.064   2.043   4.369  0.2948 -0.0796 -0.6153
 6837TIP3   OH220474   5.446   1.745   0.128 -0.5160  0.1501 -0.3346
 6837TIP3    H120475   5.410   1.753   0.216  1.5615  0.4112  0.5499
 6837TIP3    H220476   5.443   1.651   0.108 -0.9228  0.0828  0.0423
 6838TIP3   OH220477   6.104   1.642   1.766 -0.1992  0.2554 -0.8011
 6838TIP3    H120478   6.147   1.727   1.759  1.1950 -0.3863 -0.2620
 6838TIP3    H220479   6.050   1.649   1.844 -0.0822  0.6290 -0.7505
 6839TIP3   OH220480   6.749   5.783   2.826  0.3473 -0.1641 -0.4284
 6839TIP3    H120481   6.811   5.793   2.754  0.9520  2.1754  0.3306
 6839TIP3    H220482   6.698   5.863   2.825 -1.9150 -1.5204 -0.2609
 6840TIP3   OH220483   3.647   3.501   5.510 -0.2090 -0.0604  0.0105
 6840TIP3    H120484   3.552   3.501   5.508 -0.2130 -1.1241 -0.4832
 6840TIP3    H220485   3.672   3.579   5.459 -0.8104  0.1112 -0.0293
 6841TIP3   OH220486   1.208   3.216   1.615  0.1942  0.3571  0.5122
 6841TIP3    H120487   1.182   3.194   1.525 -0.6431  1.3820  0.4911
 6841TIP3    H220488   1.131   3.196   1.668 -0.5829  3.0002  0.5109
 6842TIP3   OH220489   2.821   5.522   4.550 -0.5941 -0.3829 -0.0614
 6842TIP3    H120490   2.859   5.516   4.463 -1.0629 -1.9579 -0.1812
 6842TIP3    H220491   2.745   5.580   4.540 -0.8715 -0.8652 -0.7901
 6843TIP3   OH220492   1.353   2.631   0.842  0.5512 -0.4992  0.3168
 6843TIP3    H120493   1.359   2.687   0.765 -0.2834 -0.7672  0.0499
 6843TIP3    H220494   1.337   2.692   0.914  0.4047 -0.3293  0.1424
 6844TIP3   OH220495   2.805   0.445   5.520  0.0971 -0.1413 -0.3463
 6844TIP3    H120496   2.729   0.390   5.504  0.0244 -0.0008 -0.4934
 6844TIP3    H220497   2.880   0.388   5.504  0.0287 -0.4573  0.4199
 6845TIP3   OH220498   3.120   1.942   4.803  0.1923  0.2506  0.0526
 6845TIP3    H120499   3.201   1.955   4.754  0.1018 -1.3605 -0.6093
 6845TIP3    H220500   3.128   1.999   4.879  1.6967  0.5402 -0.2921
 6846TIP3   OH220501   5.903   4.753   5.666  0.1084 -0.2021 -0.3574
 6846TIP3    H120502   5.846   4.824   5.696  0.7536  0.0188  0.3998
 6846TIP3    H220503   5.941   4.717   5.747  2.1525  0.6054 -0.9043
 6847TIP3   OH220504   6.888   4.384   3.039 -0.1005 -0.1776  0.0507
 6847TIP3    H120505   6.897   4.478   3.028  1.1189 -0.3110 -0.2884
 6847TIP3    H220506   6.906   4.368   3.132 -0.6037 -0.0452  0.1702
 6848TIP3   OH220507   1.423   2.865   4.541 -0.0510 -0.6201 -0.0663
 6848TIP3    H120508   1.335   2.901   4.535  0.9329  1.7802 -1.7701
 6848TIP3    H220509   1.464   2.912   4.613  0.6496  0.3246 -1.0518
 6849TIP3   OH220510   5.232   1.346   2.174  0.2178 -0.2792 -0.2945
 6849TIP3    H120511   5.195   1.434   2.165  1.5873  0.2058 -1.7993
 6849TIP3    H220512   5.308   1.347   2.116  1.2017 -1.9603  0.8937
 6850TIP3   OH220513   2.179   5.258   0.492  0.3649  0.1899  0.0269
 6850TIP3    H120514   2.179   5.232   0.584  0.1554 -0.2410 -0.0911
 6850TIP3    H220515   2.269   5.287   0.475 -0.0739  2.1786  0.8837
 6851TIP3   OH220516   5.667   4.229   4.005  0.0601  0.0500  0.0122
 6851TIP3    H120517   5.678   4.228   3.910  1.1624 -0.0729  0.1288
 6851TIP3    H220518   5.746   4.187   4.040 -0.6860 -0.6269  0.9636
 6852TIP3   OH220519   2.423   3.315   4.309  0.2942  0.1042 -0.3506
 6852TIP3    H120520   2.465   3.245   4.358  1.9019  1.8440  0.8992
 6852TIP3    H220521   2.483   3.333   4.237 -1.1039 -1.1081 -1.8813
 6853TIP3   OH220522   0.521   1.318   2.156 -0.4105  0.1914 -0.4550
 6853TIP3    H120523   0.560   1.297   2.240 -1.6705 -1.1656 -0.1686
 6853TIP3    H220524   0.544   1.410   2.140  2.8394 -0.5005 -0.3380
 6854TIP3   OH220525   6.361   2.230   5.599  0.6007  0.6080  0.1061
 6854TIP3    H120526   6.439   2.187   5.565 -0.1221 -0.2244 -0.5374
 6854TIP3    H220527   6.351   2.309   5.546 -0.9329 -1.0282 -2.2565
 6855TIP3   OH220528   7.045   5.484   0.120  0.2563  0.1123  0.0094
 6855TIP3    H120529   7.117   5.547   0.119  0.8177 -0.5111  0.4030
 6855TIP3    H220530   7.084   5.403   0.151 -1.2280  0.5610  3.5440
 6856TIP3   OH220531   1.104   5.386   0.731  0.0427  0.1841  0.1456
 6856TIP3    H120532   1.041   5.366   0.662  0.2065 -1.5658  0.4468
 6856TIP3    H220533   1.189   5.362   0.695  0.3273  0.8096  0.3857
 6857TIP3   OH220534   4.269   0.292   0.012  0.0854 -0.3765  0.9622
 6857TIP3    H120535   4.337   0.264  -0.049 -0.4143  0.7706 -0.1847
 6857TIP3    H220536   4.230   0.211   0.044  1.9751 -1.0554  1.6672
 6858TIP3   OH220537   4.609   4.030   4.771 -0.0475 -0.0884 -0.4280
 6858TIP3    H120538   4.644   3.941   4.781  1.7529  0.6154 -0.0785
 6858TIP3    H220539   4.534   4.020   4.713 -1.1995 -2.1304  1.2627
 6859TIP3   OH220540   6.236   5.300   2.284  0.2479  0.1281  0.2163
 6859TIP3    H120541   6.318   5.348   2.297 -0.1835  0.4831  1.8999
 6859TIP3    H220542   6.196   5.298   2.371 -1.7027  0.2655 -0.6340
 6860TIP3   OH220543   5.630   4.459   0.457  0.1489  0.9205  0.2530
 6860TIP3    H120544   5.655   4.463   0.550 -0.3916  0.3826  0.4276
 6860TIP3    H220545   5.628   4.365   0.437 -1.9661  0.9027  0.3270
 6861TIP3   OH220546   6.764   3.903   5.212 -0.2315 -0.2753 -0.0810
 6861TIP3    H120547   6.806   3.918   5.127  0.7816  0.9048  0.6088
 6861TIP3    H220548   6.671   3.893   5.190 -0.3192  2.1173 -1.1670
 6862TIP3   OH220549   1.400   6.246   1.559  0.0563  0.0081  0.1548
 6862TIP3    H120550   1.446   6.241   1.643  0.3450  1.2525  0.0924
 6862TIP3    H220551   1.364   6.159   1.546  2.8049 -1.1799 -0.0415
 6863TIP3   OH220552   5.977   2.506   5.030  0.1394 -0.7543  0.3251
 6863TIP3    H120553   5.996   2.504   4.936 -1.3004 -0.2573 -0.0078
 6863TIP3    H220554   5.923   2.428   5.044 -1.3102  0.2046  0.3161
 6864TIP3   OH220555   7.148   0.305   1.660 -0.3662 -0.0226  0.8232
 6864TIP3    H120556   7.118   0.285   1.571 -0.8354  0.3815  0.8916
 6864TIP3    H220557   7.231   0.352   1.647  0.2994 -1.2099  0.6408
 6865TIP3   OH220558   6.189   1.784   0.887  0.5475  0.4779  0.5639
 6865TIP3    H120559   6.200   1.690   0.893 -0.9072  0.2896  0.7509
 6865TIP3    H220560   6.120   1.804   0.951  1.4261  1.7819  1.1332
 6866TIP3   OH220561   6.693   2.615   3.769 -0.3259  0.4344  0.3649
 6866TIP3    H120562   6.611   2.603   3.721 -0.2005 -0.1481  0.2862
 6866TIP3    H220563   6.672   2.590   3.859 -0.3895  0.8861  0.4797
 6867TIP3   OH220564   0.521   0.504   4.411  0.2377  0.2926 -0.5910
 6867TIP3    H120565   0.611   0.483   4.437  0.6568 -0.1926 -2.2949
 6867TIP3    H220566   0.468   0.480   4.486  1.6408  1.8859  1.0087
 6868TIP3   OH220567   0.374   1.902   4.289  0.4017  0.8715 -0.3922
 6868TIP3    H120568   0.387   1.808   4.299 -0.8775  0.5705 -1.2340
 6868TIP3    H220569   0.449   1.931   4.237 -0.2274 -0.0790 -1.8957
 6869TIP3   OH220570   5.727   3.372   5.450  0.6836  0.0919 -0.4349
 6869TIP3    H120571   5.738   3.450   5.505  0.1883  0.1772 -0.4519
 6869TIP3    H220572   5.663   3.319   5.496  1.9108 -0.8940  0.1933
 6870TIP3   OH220573   0.381   4.062   5.479 -0.1028  0.0033 -0.2298
 6870TIP3    H120574   0.307   4.001   5.486 -0.0654 -0.0894 -0.6172
 6870TIP3    H220575   0.444   4.017   5.422  0.8078 -0.4693  1.1032
 6871TIP3   OH220576   4.364   1.242   4.683 -0.0804  0.1198 -0.1212
 6871TIP3    H120577   4.320   1.313   4.730 -0.6175  0.4353 -1.0646
 6871TIP3    H220578   4.347   1.164   4.736  1.1807  0.7948  1.3357
 6872TIP3   OH220579   3.175   1.291   1.268  0.2590 -0.2049  0.2763
 6872TIP3    H120580   3.183   1.234   1.191  3.2030 -0.6345  0.7816
 6872TIP3    H220581   3.264   1.319   1.287 -0.7833  2.7611  1.4771
 6873TIP3   OH220582   4.021   3.408   1.920 -0.6000 -0.3383 -0.3168
 6873TIP3    H120583   4.065   3.391   1.836  1.9349 -1.2126  1.0941
 6873TIP3    H220584   3.975   3.326   1.939 -0.7955 -0.3005 -0.6117
 6874TIP3   OH220585   6.587   3.945   0.344 -0.2357 -0.1360  0.5292
 6874TIP3    H120586   6.612   4.002   0.417  1.3829  1.7682 -1.3688
 6874TIP3    H220587   6.671   3.914   0.309 -1.0253 -2.2131  0.3129
 6875TIP3   OH220588   5.451   3.742   4.092 -0.1025 -0.1206  0.1633
 6875TIP3    H120589   5.510   3.741   4.017 -0.8760 -2.6581 -0.5000
 6875TIP3    H220590   5.477   3.819   4.142  1.6757  0.5793 -1.7155
 6876TIP3   OH220591   1.180   4.331   4.790 -0.1508 -0.5571  0.6981
 6876TIP3    H120592   1.138   4.340   4.705 -0.2219 -2.1598  0.5369
 6876TIP3    H220593   1.273   4.345   4.773  0.3084 -3.9628 -0.3239
 6877TIP3   OH220594   4.175   6.417   1.613 -0.8128  0.5038 -0.1194
 6877TIP3    H120595   4.176   6.427   1.708 -0.1747  0.3251 -0.1009
 6877TIP3    H220596   4.178   6.322   1.599  2.5782  0.5378 -0.3050
 6878TIP3   OH220597   3.719   4.393   3.543  0.4590  0.0267 -0.5098
 6878TIP3    H120598   3.755   4.341   3.615  1.0865  0.5401 -0.4386
 6878TIP3    H220599   3.789   4.395   3.478  0.4709  0.8188 -0.4815
 6879TIP3   OH220600   5.316   3.703   3.543  0.3492  0.2562  0.4809
 6879TIP3    H120601   5.402   3.664   3.526 -1.1071 -2.0159 -2.9855
 6879TIP3    H220602   5.289   3.667   3.627  2.0842 -0.3180  0.8274
 6880TIP3   OH220603   5.218   0.528   4.698 -0.0750  0.1869  0.1221
 6880TIP3    H120604   5.234   0.617   4.730 -0.4548  0.3110 -0.0371
 6880TIP3    H220605   5.187   0.480   4.775  1.6411 -0.2320  0.6118
 6881TIP3   OH220606   6.291   0.321   4.200  0.4146  0.0245  0.4295
 6881TIP3    H120607   6.349   0.381   4.246  2.4008 -1.0696 -0.5344
 6881TIP3    H220608   6.288   0.354   4.110 -0.0988 -0.2047  0.3562
 6882TIP3   OH220609   5.613   2.781   1.746 -0.0066 -0.0198  0.1515
 6882TIP3    H120610   5.638   2.866   1.783  0.0611 -1.1174  2.9181
 6882TIP3    H220611   5.692   2.752   1.700  0.8921  0.3372  1.3844
 6883TIP3   OH220612   5.275   3.483   5.370  0.3059 -0.0724 -0.1500
 6883TIP3    H120613   5.228   3.457   5.449  1.6172 -0.1596  0.6425
 6883TIP3    H220614   5.257   3.412   5.307  0.7562 -0.9810  0.7145
 6884TIP3   OH220615   3.151   1.972   0.493  0.1458  0.5040 -0.2624
 6884TIP3    H120616   3.162   2.062   0.463  2.1422  0.1889 -0.5909
 6884TIP3    H220617   3.103   1.929   0.422 -1.7196  1.5067  0.3355
 6885TIP3   OH220618   4.165   1.686   4.803  0.0252 -0.2061 -0.2628
 6885TIP3    H120619   4.226   1.629   4.849 -1.0441 -0.8576  0.3984
 6885TIP3    H220620   4.198   1.690   4.713  0.9730 -0.6174  0.0556
 6886TIP3   OH220621   2.427   2.232   1.103 -0.5734 -0.0489  0.2666
 6886TIP3    H120622   2.382   2.166   1.050  1.7075 -2.3244  0.9653
 6886TIP3    H220623   2.491   2.271   1.043 -1.9236  1.6563 -0.1501
 6887TIP3   OH220624   0.713   1.372   3.236 -0.3932  0.3279  0.0499
 6887TIP3    H120625   0.734   1.408   3.322 -0.6813 -2.3935  1.3821
 6887TIP3    H220626   0.617   1.369   3.234 -0.4438 -3.1185  1.3891
 6888TIP3   OH220627   6.740   5.513   3.314 -0.4736  0.0497 -0.6788
 6888TIP3    H120628   6.798   5.441   3.290 -0.7105 -0.3062 -0.1980
 6888TIP3    H220629   6.798   5.586   3.333  0.1046 -1.1476  2.9431
 6889TIP3   OH220630   6.846   5.974   3.633 -0.3799 -0.6677 -0.0129
 6889TIP3    H120631   6.753   5.956   3.615 -0.3303 -1.6626  0.6436
 6889TIP3    H220632   6.854   5.966   3.728  0.6029 -1.7583 -0.1650
 6890TIP3   OH220633   2.125   2.958   3.213  0.6731 -0.0015 -0.0748
 6890TIP3    H120634   2.200   2.906   3.184  0.0194 -0.1329 -1.6244
 6890TIP3    H220635   2.103   3.014   3.138  0.1190  1.0936  0.8613
 6891TIP3   OH220636   1.827   2.214   4.573 -0.3628  0.3427  0.0962
 6891TIP3    H120637   1.842   2.126   4.539  2.0083  0.7342 -0.0490
 6891TIP3    H220638   1.806   2.201   4.665  1.9310 -0.3570  0.5886
 6892TIP3   OH220639   5.946   5.018   1.340  0.0636 -0.0213 -0.3112
 6892TIP3    H120640   6.028   4.973   1.361  0.2178  0.0802 -0.6810
 6892TIP3    H220641   5.935   5.082   1.410  0.9275  0.7949 -0.8881
 6893TIP3   OH220642   0.279   2.824   5.130 -0.3253 -0.3766  0.4863
 6893TIP3    H120643   0.246   2.904   5.090 -0.4210 -0.6622 -0.0175
 6893TIP3    H220644   0.205   2.789   5.179 -0.1649  0.0521  1.0480
 6894TIP3   OH220645   6.416   2.133   3.166 -0.6071 -0.8670 -0.1132
 6894TIP3    H120646   6.372   2.055   3.134  1.0632 -1.4693 -1.1188
 6894TIP3    H220647   6.458   2.106   3.248 -0.8356 -0.7406  0.0461
 6895TIP3   OH220648   4.990   3.992   5.157 -0.1395  0.0449 -0.0562
 6895TIP3    H120649   4.933   3.997   5.080  1.4169  1.6752 -1.1891
 6895TIP3    H220650   5.058   3.929   5.132  0.1258  0.2479  0.1514
 6896TIP3   OH220651   6.801   5.317   0.069  0.3016 -0.2616  0.3924
 6896TIP3    H120652   6.854   5.272   0.003  0.5013 -1.0079  1.0460
 6896TIP3    H220653   6.861   5.379   0.109 -0.0730  0.9140 -0.7764
 6897TIP3   OH220654   0.614   1.563   1.790 -0.1530 -0.3718 -0.6590
 6897TIP3    H120655   0.625   1.486   1.846  0.5688  0.0493 -0.2024
 6897TIP3    H220656   0.545   1.539   1.729  0.2272 -1.4740 -0.6788
 6898TIP3   OH220657   1.935   0.647   4.749 -0.6344 -0.5011  0.0772
 6898TIP3    H120658   1.878   0.712   4.790  0.0765  1.1798 -1.4700
 6898TIP3    H220659   1.875   0.591   4.698 -1.0271  0.6394 -0.7464
 6899TIP3   OH220660   2.200   1.571   4.395 -0.0155 -0.6717  0.1151
 6899TIP3    H120661   2.254   1.493   4.408 -1.0450 -1.2632  1.0308
 6899TIP3    H220662   2.114   1.546   4.428 -0.5648  0.6089 -0.2989
 6900TIP3   OH220663   2.101   3.008   3.924  0.0836 -0.2633 -0.0884
 6900TIP3    H120664   2.164   3.021   3.853 -0.0504 -0.9622 -0.3361
 6900TIP3    H220665   2.144   3.046   4.001  1.2290 -1.5984 -0.0368
 6901TIP3   OH220666   2.058   5.222   3.638  0.2520 -0.0211 -0.2212
 6901TIP3    H120667   1.969   5.194   3.620 -0.7824  3.2762 -0.8601
 6901TIP3    H220668   2.108   5.197   3.560 -1.5053  3.2148 -2.6002
 6902TIP3   OH220669   3.990   3.971   1.094  0.5241 -0.4246  0.1485
 6902TIP3    H120670   4.033   3.906   1.150  0.0673 -0.6651  0.2268
 6902TIP3    H220671   3.935   3.919   1.035  1.3955 -0.2068 -0.8732
 6903TIP3   OH220672   3.728   6.261   5.624 -0.4996 -0.1220  0.3877
 6903TIP3    H120673   3.818   6.254   5.592 -1.1525 -1.5334 -1.3313
 6903TIP3    H220674   3.737   6.284   5.717  1.5472  2.3116 -0.3086
 6904TIP3   OH220675   4.831   2.004   4.231  0.1514 -0.3104 -0.1570
 6904TIP3    H120676   4.750   2.014   4.282  0.1869  1.2487 -0.3425
 6904TIP3    H220677   4.819   1.923   4.181 -0.2059 -1.4604  1.7245
 6905TIP3   OH220678   0.219   5.210   5.142  0.0187  0.2763  0.4032
 6905TIP3    H120679   0.286   5.250   5.086  0.2983 -0.1631  0.4134
 6905TIP3    H220680   0.194   5.130   5.096 -1.8754  1.3621 -0.5349
 6906TIP3   OH220681   5.057   4.685   2.107 -0.0876 -0.2743 -0.2354
 6906TIP3    H120682   5.122   4.617   2.087  0.4866  0.5330 -1.2190
 6906TIP3    H220683   4.979   4.636   2.133  0.7965 -1.2726  0.6499
 6907TIP3   OH220684   0.121   2.929   0.287 -0.3307 -0.1157 -0.5384
 6907TIP3    H120685   0.084   2.858   0.235 -0.2395 -0.4058 -0.2142
 6907TIP3    H220686   0.061   3.002   0.275  0.8517  0.5590 -2.8370
 6908TIP3   OH220687   3.131   2.076   5.045  0.5817 -0.0929 -0.1741
 6908TIP3    H120688   3.186   2.136   5.094 -0.0345  0.9209 -0.6807
 6908TIP3    H220689   3.065   2.047   5.107  1.2675 -0.7908  0.2519
 6909TIP3   OH220690   0.834   3.805   2.078 -0.2198 -0.0227  0.2281
 6909TIP3    H120691   0.897   3.856   2.026  0.3750 -1.2324 -0.2901
 6909TIP3    H220692   0.837   3.717   2.039 -2.2548 -0.1052  0.1963
 6910TIP3   OH220693   2.039   0.893   0.106 -0.3492  0.3072 -0.8673
 6910TIP3    H120694   2.065   0.802   0.095 -1.7844 -0.1216 -0.9113
 6910TIP3    H220695   1.949   0.889   0.137 -0.2593  1.7092 -0.3354
 6911TIP3   OH220696   3.729  -0.005   2.856  0.3143  0.0181 -0.3456
 6911TIP3    H120697   3.731   0.089   2.872  1.9357 -0.3411  2.0358
 6911TIP3    H220698   3.649  -0.035   2.900  0.3462  0.1341 -0.2104
 6912TIP3   OH220699   0.623   3.973   0.261  0.2284  0.0720 -0.5290
 6912TIP3    H120700   0.535   3.979   0.223  0.2997  0.8657 -0.5958
 6912TIP3    H220701   0.639   4.060   0.297  0.7488 -0.2472  0.0229
 6913TIP3   OH220702   1.690   5.562   3.437  0.2781  0.3237  0.0818
 6913TIP3    H120703   1.704   5.555   3.531 -1.1847  1.2305  0.3997
 6913TIP3    H220704   1.598   5.537   3.425  0.2166  1.0022 -0.9994
 6914TIP3   OH220705   3.689   3.858   4.790  0.2582 -0.3994  0.3748
 6914TIP3    H120706   3.672   3.877   4.883 -0.7332  1.6877 -0.1544
 6914TIP3    H220707   3.774   3.898   4.772  1.4401 -2.5640  0.7896
 6915TIP3   OH220708   0.879   0.740   5.304 -0.1086  0.4935 -0.2961
 6915TIP3    H120709   0.839   0.768   5.386  0.2321  2.3598 -0.7158
 6915TIP3    H220710   0.905   0.649   5.320  0.2147  0.8919  1.7664
 6916TIP3   OH220711   1.599   2.003   1.130  0.0977  0.3291 -0.0297
 6916TIP3    H120712   1.636   2.072   1.185 -1.2804  0.4351  0.7992
 6916TIP3    H220713   1.628   2.025   1.041  1.7233  0.5757  0.5326
 6917TIP3   OH220714   6.128   5.772   4.372 -0.4438 -0.1937  0.5439
 6917TIP3    H120715   6.132   5.773   4.277  0.8041  0.1151  0.5790
 6917TIP3    H220716   6.139   5.864   4.398  0.1727 -0.3814  0.9908
 6918TIP3   OH220717   1.558   2.695   2.934 -0.2415 -0.9453  0.0313
 6918TIP3    H120718   1.560   2.634   2.861  1.9058 -1.3464  0.3475
 6918TIP3    H220719   1.526   2.643   3.008  0.0439 -1.2454 -0.0547
 6919TIP3   OH220720   1.040   0.811   0.011  0.2235 -0.0034 -0.0413
 6919TIP3    H120721   1.061   0.850   0.096 -2.2565  1.7742 -0.1311
 6919TIP3    H220722   0.993   0.731   0.031  0.4181 -0.0501  0.2344
 6920TIP3   OH220723   2.668   0.923   3.897  0.2133 -0.3554 -0.1006
 6920TIP3    H120724   2.674   0.837   3.939 -1.2101 -0.4969 -0.1632
 6920TIP3    H220725   2.579   0.953   3.916  1.0283  1.6238  0.9063
 6921TIP3   OH220726   0.217   6.315   1.675  0.1242 -0.0255  0.0355
 6921TIP3    H120727   0.230   6.404   1.707 -0.7463 -0.4224  1.6236
 6921TIP3    H220728   0.288   6.265   1.716  2.1491  0.2960 -2.8097
 6922TIP3   OH220729   5.308   5.188   1.341  0.6581  0.2010 -0.4943
 6922TIP3    H120730   5.319   5.217   1.432  0.5861 -1.1929 -0.0044
 6922TIP3    H220731   5.214   5.171   1.334  0.7926 -0.5984 -0.5118
 6923TIP3   OH220732   0.351   4.861   5.090  0.1316  0.6300 -0.3863
 6923TIP3    H120733   0.394   4.945   5.104 -0.0216  0.7809 -0.8018
 6923TIP3    H220734   0.263   4.884   5.059 -0.2976  0.3329  0.5489
 6924TIP3   OH220735   7.086   3.571   1.195 -0.0025  0.4150  0.6980
 6924TIP3    H120736   7.052   3.482   1.189 -1.8961  1.1612 -0.7801
 6924TIP3    H220737   7.176   3.564   1.164 -0.5796 -0.7962 -0.8672
 6925TIP3   OH220738   2.171   1.120   1.921 -0.1900  0.2788 -0.3797
 6925TIP3    H120739   2.112   1.050   1.892 -0.7448  0.5363  0.0984
 6925TIP3    H220740   2.137   1.144   2.007 -0.2711  1.4393 -0.7262
 6926TIP3   OH220741   0.475   5.454   1.730 -0.0891  0.2657 -0.0248
 6926TIP3    H120742   0.477   5.510   1.807  0.6512 -0.7469  0.7244
 6926TIP3    H220743   0.515   5.372   1.759 -1.0139 -0.6114 -1.1101
 6927TIP3   OH220744   0.479   4.008   1.616 -0.1903  0.0134  0.0276
 6927TIP3    H120745   0.518   4.067   1.551  0.4289  1.4495  1.6335
 6927TIP3    H220746   0.466   3.926   1.569 -0.7631  1.2957 -2.2120
 6928TIP3   OH220747   0.792   1.018   4.472  0.0781 -0.6202  0.3742
 6928TIP3    H120748   0.733   1.073   4.420  1.0916  0.1862  0.0390
 6928TIP3    H220749   0.822   1.075   4.542  0.5426 -0.9888  0.4805
 6929TIP3   OH220750   6.435   1.342   3.184 -0.4488 -0.4643 -0.8647
 6929TIP3    H120751   6.431   1.270   3.247 -1.7404 -1.7984 -2.3667
 6929TIP3    H220752   6.345   1.350   3.152 -0.2303  1.5259 -1.0920
 6930TIP3   OH220753   6.663   1.534   0.985  0.4607  0.2239  1.0272
 6930TIP3    H120754   6.666   1.624   1.017 -1.3559  1.3046 -1.4644
 6930TIP3    H220755   6.597   1.491   1.039 -1.2071  1.4673  0.0801
 6931TIP3   OH220756   5.987   3.235   1.569  0.0822  0.0514  0.0216
 6931TIP3    H120757   6.026   3.320   1.587 -1.1088  0.6868 -0.3116
 6931TIP3    H220758   5.962   3.238   1.477  0.6130 -0.9128 -0.1738
 6932TIP3   OH220759   4.530   1.922   4.401 -0.5518  0.4944  0.1667
 6932TIP3    H120760   4.547   2.015   4.383 -2.0303  0.5915 -0.9652
 6932TIP3    H220761   4.596   1.897   4.464 -0.0632  2.3075  0.4254
 6933TIP3   OH220762   1.049   5.182   5.351 -0.3439  0.0235  0.1466
 6933TIP3    H120763   1.026   5.133   5.272  0.9009 -0.1819 -0.1009
 6933TIP3    H220764   1.057   5.272   5.322 -1.1209  0.1531  0.3019
 6934TIP3   OH220765   2.957   4.164   5.369 -0.2594  0.2381  1.0246
 6934TIP3    H120766   2.910   4.107   5.308  0.0762 -0.5008  1.4387
 6934TIP3    H220767   2.912   4.248   5.363 -0.4092  0.0952 -0.0232
 6935TIP3   OH220768   0.588   3.833   5.333  0.2744 -0.1688 -0.3557
 6935TIP3    H120769   0.648   3.826   5.407  1.3076  0.8657 -1.0637
 6935TIP3    H220770   0.580   3.744   5.299 -0.0401 -0.6134  0.8593
 6936TIP3   OH220771   5.282   6.534   2.297 -0.9793  0.4632  0.3947
 6936TIP3    H120772   5.229   6.562   2.223  0.0974  0.9095 -0.2316
 6936TIP3    H220773   5.372   6.537   2.264 -0.3960  1.5351  1.9808
 6937TIP3   OH220774   0.404   1.400   0.327  0.1798 -0.0801  0.2087
 6937TIP3    H120775   0.321   1.445   0.315  1.3237  2.1715  0.2256
 6937TIP3    H220776   0.422   1.407   0.421  1.2012  1.0636 -0.0460
 6938TIP3   OH220777   2.115   5.724   0.537  0.1422  0.8021  0.7437
 6938TIP3    H120778   2.112   5.818   0.555 -0.3190  1.4368 -2.1454
 6938TIP3    H220779   2.116   5.683   0.624 -0.6307  3.4183  2.0968
 6939TIP3   OH220780   6.135   2.988   0.135 -0.2455  0.0868 -0.0095
 6939TIP3    H120781   6.205   3.016   0.075 -0.1435  3.0132  1.2638
 6939TIP3    H220782   6.176   2.922   0.191  0.6536 -0.2266 -1.0062
 6940TIP3   OH220783   0.977   5.701   1.729  0.4487 -0.0046 -0.1726
 6940TIP3    H120784   0.893   5.745   1.742  0.0061 -0.8226 -0.1671
 6940TIP3    H220785   1.027   5.721   1.808 -0.6043 -1.3743  0.8888
 6941TIP3   OH220786   6.117   0.622   2.941 -0.6446 -0.4309 -0.1132
 6941TIP3    H120787   6.067   0.622   3.022 -1.8118 -1.3867 -0.7925
 6941TIP3    H220788   6.107   0.533   2.907 -0.6159  0.0908 -1.5653
 6942TIP3   OH220789   6.126   0.852   2.701 -0.3038 -0.1619  0.3705
 6942TIP3    H120790   6.127   0.948   2.698  0.0068 -0.1651  0.3375
 6942TIP3    H220791   6.152   0.831   2.791  1.9832 -0.2449 -0.2528
 6943TIP3   OH220792   0.386   3.944   3.397  0.1664 -0.7423 -0.6160
 6943TIP3    H120793   0.354   3.983   3.478  0.3543 -0.9635 -0.4351
 6943TIP3    H220794   0.329   3.980   3.329  1.4156  1.2165 -0.6923
 6944TIP3   OH220795   3.257   0.490   4.619 -0.4819 -0.4803 -0.5392
 6944TIP3    H120796   3.190   0.505   4.686  0.6920 -0.0277  0.5740
 6944TIP3    H220797   3.270   0.395   4.620  2.0607 -0.2708  2.5462
 6945TIP3   OH220798   1.589   5.982   0.141  0.2505  0.0357  0.4141
 6945TIP3    H120799   1.534   5.913   0.103  0.1095  0.4323 -0.1204
 6945TIP3    H220800   1.579   5.972   0.235 -0.5555 -0.0574  0.3263
 6946TIP3   OH220801   4.607   5.482   2.810  0.7959  0.7270 -0.0173
 6946TIP3    H120802   4.563   5.556   2.853  0.3876  0.0766  0.7301
 6946TIP3    H220803   4.699   5.505   2.809  0.4442  2.3498 -2.0560
 6947TIP3   OH220804   5.645   4.359   1.664 -0.1801  0.5414  0.0435
 6947TIP3    H120805   5.657   4.266   1.644  1.3490 -0.1112  3.2174
 6947TIP3    H220806   5.564   4.383   1.620 -0.5173 -2.2355 -1.0791
 6948TIP3   OH220807   1.171   0.899   3.634 -0.1823  0.3321  0.4899
 6948TIP3    H120808   1.087   0.861   3.609 -0.4454  0.0052  1.7833
 6948TIP3    H220809   1.235   0.855   3.578 -0.9229  1.1269 -1.0423
 6949TIP3   OH220810   0.759   3.169   3.908  0.0972 -0.2681 -0.5581
 6949TIP3    H120811   0.669   3.172   3.875  0.8482  1.4796 -2.6720
 6949TIP3    H220812   0.749   3.156   4.003 -2.3405 -0.5291 -0.7802
 6950TIP3   OH220813   0.489   5.607   1.990  0.1244  0.2761  0.0749
 6950TIP3    H120814   0.424   5.620   1.922 -0.4565 -2.2338  0.0415
 6950TIP3    H220815   0.440   5.614   2.072  0.0251 -0.4584  0.0857
 6951TIP3   OH220816   4.907   1.572   0.512 -0.0154  0.0050 -0.0229
 6951TIP3    H120817   4.883   1.502   0.451  1.1055  0.3606 -0.8957
 6951TIP3    H220818   4.936   1.644   0.457  3.5500 -0.5663  0.8933
 6952TIP3   OH220819   1.191   3.681   2.832 -0.4568  0.6181 -0.3868
 6952TIP3    H120820   1.176   3.707   2.741 -0.3721 -0.0360 -0.5943
 6952TIP3    H220821   1.183   3.762   2.882 -2.0943  0.7289 -0.7837
 6953TIP3   OH220822   3.121   1.359   3.986  0.1579 -0.2371  0.0155
 6953TIP3    H120823   3.120   1.435   3.928 -0.3598  0.7218  1.2305
 6953TIP3    H220824   3.173   1.388   4.061  1.3812 -1.6772 -0.2446
 6954TIP3   OH220825   5.102   1.658   1.584 -0.4015  0.6157 -0.3622
 6954TIP3    H120826   5.158   1.582   1.573 -1.7214 -0.6462  1.1562
 6954TIP3    H220827   5.110   1.706   1.502  0.2137 -1.3265 -1.4939
 6955TIP3   OH220828   3.198   5.313   0.157 -0.0405  0.3185 -0.2636
 6955TIP3    H120829   3.253   5.333   0.082 -0.7919 -0.1902 -0.9621
 6955TIP3    H220830   3.259   5.308   0.231  0.6628  1.1373 -0.7675
 6956TIP3   OH220831   3.012   2.806   2.995  0.2038 -0.9731  0.9554
 6956TIP3    H120832   2.934   2.862   2.987  0.8146 -0.3652 -1.7104
 6956TIP3    H220833   2.978   2.717   2.987 -0.1563 -0.6682 -2.6477
 6957TIP3   OH220834   0.576   3.429   1.886  0.0038 -0.6443 -0.1153
 6957TIP3    H120835   0.539   3.514   1.863  0.0877 -0.9634 -1.4876
 6957TIP3    H220836   0.504   3.384   1.931 -0.2484 -0.0920  0.0452
 6958TIP3   OH220837   6.188   2.811   3.757 -0.2813  0.2621 -0.3307
 6958TIP3    H120838   6.197   2.759   3.676  1.1309  0.7333 -0.5053
 6958TIP3    H220839   6.275   2.848   3.771 -0.4014 -0.0959  1.6137
 6959TIP3   OH220840   2.936   3.593   0.384 -0.4133  0.3134  0.1994
 6959TIP3    H120841   3.018   3.552   0.358  0.0107  0.3420  1.4348
 6959TIP3    H220842   2.871   3.523   0.376  0.2888 -0.6631  2.2075
 6960TIP3   OH220843   1.348   0.236   5.397 -0.2383 -0.0002 -0.1879
 6960TIP3    H120844   1.278   0.173   5.419 -1.2876  0.5759 -1.6663
 6960TIP3    H220845   1.384   0.203   5.314 -0.9269  1.3906 -1.0845
 6961TIP3   OH220846   6.327   5.629   0.403 -0.0966 -0.2563  0.2121
 6961TIP3    H120847   6.261   5.568   0.371 -0.9010  0.2539  0.8717
 6961TIP3    H220848   6.376   5.578   0.468 -1.7584  0.2154  1.9080
 6962TIP3   OH220849   3.275   3.181   3.238  0.0776 -0.3043 -0.5633
 6962TIP3    H120850   3.352   3.209   3.187  1.9114  0.6646  2.4696
 6962TIP3    H220851   3.211   3.250   3.223  1.3378  1.0390 -0.0419
 6963TIP3   OH220852   4.824   0.490   5.560  0.0409  0.2498  0.5790
 6963TIP3    H120853   4.898   0.534   5.603 -0.2370  1.4064 -0.0914
 6963TIP3    H220854   4.840   0.397   5.576  1.6083  0.4723  0.5203
 6964TIP3   OH220855   5.309   2.511   4.991 -0.3994  0.4474  0.0385
 6964TIP3    H120856   5.347   2.464   4.916  0.0214 -1.3057  1.2803
 6964TIP3    H220857   5.348   2.598   4.986  0.1143  0.1735 -1.4119
 6965TIP3   OH220858   0.902   1.254   4.295  0.4753 -0.3739 -0.3366
 6965TIP3    H120859   0.864   1.166   4.291  0.6005 -0.4721  0.4631
 6965TIP3    H220860   0.985   1.245   4.248  0.8636 -0.8972  0.4136
 6966TIP3   OH220861   6.573   0.950   5.353  0.4374  0.6143  0.1784
 6966TIP3    H120862   6.556   0.875   5.296 -0.0573  0.7964  0.0810
 6966TIP3    H220863   6.631   1.007   5.301  2.3919 -0.5550  0.9544
 6967TIP3   OH220864   3.064   1.905   2.418  0.1207  0.1196  0.2119
 6967TIP3    H120865   3.065   1.852   2.338  1.4759 -0.1845  0.3990
 6967TIP3    H220866   3.081   1.842   2.488  0.1896  0.5697  0.6012
 6968TIP3   OH220867   3.315   3.705   3.970  0.2998 -0.6586  0.0093
 6968TIP3    H120868   3.363   3.652   3.906  1.2526 -0.3587  0.4516
 6968TIP3    H220869   3.374   3.778   3.988 -0.5300 -0.0426  0.2376
 6969TIP3   OH220870   2.901   5.138   1.425 -0.5983  0.2019 -0.0732
 6969TIP3    H120871   2.841   5.069   1.449 -0.4603  0.2803  0.5022
 6969TIP3    H220872   2.986   5.095   1.417 -0.0963  0.6198  2.3052
 6970TIP3   OH220873   2.824   0.706   0.670 -0.1113  0.0152  0.8695
 6970TIP3    H120874   2.881   0.636   0.703 -0.8012 -1.8833 -1.6577
 6970TIP3    H220875   2.876   0.748   0.601 -0.0069  1.5722  1.8364
 6971TIP3   OH220876   1.111   5.588   3.624  0.0024 -0.1325 -0.1069
 6971TIP3    H120877   1.195   5.618   3.658 -0.2002  0.7557 -0.3529
 6971TIP3    H220878   1.059   5.668   3.614 -0.7138 -0.6176 -0.3879
 6972TIP3   OH220879   7.196   5.325   0.333 -0.4898 -0.3140  0.3288
 6972TIP3    H120880   7.153   5.248   0.295 -0.0953 -0.9827  1.2134
 6972TIP3    H220881   7.264   5.289   0.390  0.4814  0.7158 -0.1464
 6973TIP3   OH220882   0.414   3.709   4.737 -0.1447  0.0537  0.5274
 6973TIP3    H120883   0.348   3.662   4.786  0.4665 -0.0843  1.2300
 6973TIP3    H220884   0.405   3.678   4.647 -0.8949 -0.1043  0.6575
 6974TIP3   OH220885   6.573   6.223   4.432  0.3279 -0.0313 -0.1454
 6974TIP3    H120886   6.540   6.134   4.427  1.2620 -0.4301  0.4698
 6974TIP3    H220887   6.507   6.271   4.482  0.4989 -0.7224  0.7561
 6975TIP3   OH220888   1.278   0.599   2.265  0.2196 -0.0065  0.3071
 6975TIP3    H120889   1.218   0.537   2.307  0.1364  0.5262  0.9789
 6975TIP3    H220890   1.345   0.543   2.224  1.3037 -0.5292  2.6325
 6976TIP3   OH220891   5.520   2.571   1.505  0.6583 -0.1690 -0.2042
 6976TIP3    H120892   5.604   2.528   1.524 -1.0064 -2.3684  3.2895
 6976TIP3    H220893   5.485   2.522   1.431  1.6320 -0.4959 -0.4641
 6977TIP3   OH220894   5.904   4.555   2.120 -0.3244 -0.8719  0.0066
 6977TIP3    H120895   5.921   4.535   2.028 -1.0075 -0.1617 -0.2868
 6977TIP3    H220896   5.888   4.469   2.161  0.7680 -1.2606 -0.3543
 6978TIP3   OH220897   0.692   4.886   5.299 -0.1749  0.1764  0.3303
 6978TIP3    H120898   0.672   4.980   5.299 -0.9148  0.0506 -0.9096
 6978TIP3    H220899   0.624   4.847   5.353  1.0098  0.4738  2.1230
 6979TIP3   OH220900   5.812   1.995   3.555 -0.1389 -0.0724 -0.3634
 6979TIP3    H120901   5.725   1.969   3.526 -0.2937  2.5472 -2.5886
 6979TIP3    H220902   5.805   1.997   3.651 -2.4323 -0.1517 -0.4710
 6980TIP3   OH220903   3.677   3.481   2.536  0.1319 -0.4760 -0.3507
 6980TIP3    H120904   3.581   3.475   2.532  0.2600 -3.6503 -1.0302
 6980TIP3    H220905   3.706   3.394   2.564  2.8433  0.4035 -0.1124
 6981TIP3   OH220906   0.547   5.793   5.357  0.7022 -0.0830  0.3460
 6981TIP3    H120907   0.505   5.844   5.287 -1.4291 -1.8421  0.2128
 6981TIP3    H220908   0.612   5.740   5.312  0.9113  0.4192  0.0461
 6982TIP3   OH220909   3.651   5.476   5.458 -0.6450 -0.0077 -0.2249
 6982TIP3    H120910   3.607   5.444   5.380 -1.1128 -0.0054  0.0310
 6982TIP3    H220911   3.700   5.400   5.491 -0.8933 -0.1633 -0.2120
 6983TIP3   OH220912   7.081   3.381   4.542 -0.1896 -0.0987 -0.0292
 6983TIP3    H120913   7.025   3.424   4.607 -1.1898  1.0709 -1.6009
 6983TIP3    H220914   7.167   3.421   4.554 -0.9278  1.8610 -0.9516
 6984TIP3   OH220915   3.025   0.158   3.859 -0.4341  0.4405  0.0770
 6984TIP3    H120916   3.109   0.198   3.836 -0.7408  0.7747 -0.4987
 6984TIP3    H220917   2.965   0.232   3.864 -0.8551  0.1240 -0.2651
 6985TIP3   OH220918   6.505   1.062   3.290  0.5207  0.1250  0.2693
 6985TIP3    H120919   6.486   1.047   3.383  1.8669  1.7588  0.8590
 6985TIP3    H220920   6.597   1.087   3.289  0.6187 -0.2253 -1.5772
 6986TIP3   OH220921   2.797   4.088   1.847 -0.2867 -0.1861 -0.7182
 6986TIP3    H120922   2.775   4.040   1.927 -0.6823 -0.2083 -0.8351
 6986TIP3    H220923   2.841   4.024   1.792  0.6434  0.0168 -0.2408
 6987TIP3   OH220924   0.789   4.050   1.293  0.3642 -0.4177  0.2172
 6987TIP3    H120925   0.810   4.005   1.211  1.1882 -2.2534  1.3634
 6987TIP3    H220926   0.873   4.070   1.332 -0.0217  0.4841  0.5998
 6988TIP3   OH220927   0.105   5.515   4.891 -0.2968  0.4210 -0.1089
 6988TIP3    H120928   0.138   5.460   4.819 -0.8267  0.2099 -0.1909
 6988TIP3    H220929   0.037   5.462   4.933 -1.6370  1.4453 -0.9074
 6989TIP3   OH220930   5.678   6.471   3.077 -0.3445 -0.4356  0.6834
 6989TIP3    H120931   5.743   6.508   3.137 -0.4433 -0.4509  0.8011
 6989TIP3    H220932   5.641   6.398   3.125 -1.0532  0.0907  0.9554
 6990TIP3   OH220933   3.573   1.152   1.755 -0.0421 -0.2599  0.2237
 6990TIP3    H120934   3.535   1.238   1.736  0.5222 -0.0377  0.0863
 6990TIP3    H220935   3.498   1.096   1.775 -0.8433 -0.8030 -3.5517
 6991TIP3   OH220936   4.571   2.581   1.092 -0.1332 -0.4963  0.5011
 6991TIP3    H120937   4.618   2.547   1.169  0.3771 -0.1046  0.3688
 6991TIP3    H220938   4.624   2.655   1.063 -0.4150 -0.5446 -0.1367
 6992TIP3   OH220939   4.960   5.954   4.253 -0.0142  0.0237  0.2727
 6992TIP3    H120940   5.053   5.950   4.279  0.1048 -0.0935 -0.1629
 6992TIP3    H220941   4.915   5.982   4.332  0.4627  0.6499  0.3355
 6993TIP3   OH220942   0.458   3.844   2.587 -0.8515  0.3717 -0.4330
 6993TIP3    H120943   0.545   3.825   2.621  0.3298  2.0385 -2.3483
 6993TIP3    H220944   0.411   3.761   2.596  0.0773  0.0603  2.8865
 6994TIP3   OH220945   4.112   2.988   0.522 -0.3894 -0.3728 -0.1754
 6994TIP3    H120946   4.195   3.019   0.560 -0.4086 -0.1142 -0.3425
 6994TIP3    H220947   4.049   3.057   0.545 -0.5323 -0.5144 -0.1476
 6995TIP3   OH220948   3.989   6.271   3.859  0.1619  0.5548 -0.2915
 6995TIP3    H120949   4.016   6.262   3.950 -0.7624 -0.8672 -0.1241
 6995TIP3    H220950   3.996   6.182   3.823  1.4570  1.2524 -1.9010
 6996TIP3   OH220951   4.138   6.058   2.114  0.1266 -0.3549  0.1272
 6996TIP3    H120952   4.193   6.102   2.049 -0.9273  1.9128  0.6809
 6996TIP3    H220953   4.049   6.085   2.093 -0.2695  0.3117  2.3853
 6997TIP3   OH220954   1.716   5.649   2.759 -0.1085  0.0218 -0.7729
 6997TIP3    H120955   1.659   5.724   2.777  0.3048  0.1142  0.2057
 6997TIP3    H220956   1.766   5.675   2.681 -1.1534  0.0683 -1.4460
 6998TIP3   OH220957   3.680   5.778   4.648  0.5584 -0.3144  0.6292
 6998TIP3    H120958   3.606   5.721   4.672 -1.2649  1.5914 -0.1389
 6998TIP3    H220959   3.719   5.734   4.572 -0.9858 -0.4562 -0.1335
 6999TIP3   OH220960   5.636   1.616   2.577  0.0209 -0.4611 -0.0739
 6999TIP3    H120961   5.605   1.573   2.497  0.1360 -0.0583 -0.3427
 6999TIP3    H220962   5.720   1.574   2.596  0.1827 -0.2879 -0.3922
 7000TIP3   OH220963   2.996   1.773   3.235 -0.2217 -0.0539  0.7374
 7000TIP3    H120964   3.020   1.767   3.328  3.3585 -0.2702 -0.0663
 7000TIP3    H220965   3.007   1.866   3.214  1.8103 -0.4378 -0.0638
 7001TIP3   OH220966   4.273   0.367   0.782 -0.0155  0.5528 -0.2007
 7001TIP3    H120967   4.290   0.439   0.720  0.0981 -0.2959 -1.1823
 7001TIP3    H220968   4.360   0.338   0.810  0.0598 -0.7740 -1.6859
 7002TIP3   OH220969   1.000   4.147   4.853  0.0445 -0.3386  0.1469
 7002TIP3    H120970   1.071   4.207   4.830 -0.5462  0.3972  0.2145
 7002TIP3    H220971   1.024   4.114   4.939  0.4426 -0.3084  0.0503
 7003TIP3   OH220972   3.648   4.754   5.086  0.0366  0.3668  0.2656
 7003TIP3    H120973   3.643   4.824   5.021  0.8719 -0.3442 -0.6103
 7003TIP3    H220974   3.645   4.798   5.170  3.8913  1.8735 -0.1586
 7004TIP3   OH220975   1.756   0.424   2.033  0.2510 -0.7046 -0.4196
 7004TIP3    H120976   1.773   0.505   1.987  1.0031 -0.8317 -0.3688
 7004TIP3    H220977   1.761   0.447   2.126  0.7315 -0.8628 -0.4051
 7005TIP3   OH220978   4.893   4.084   0.573 -0.0483  0.1271  0.1499
 7005TIP3    H120979   4.869   4.167   0.613  1.1491  0.1462  0.8892
 7005TIP3    H220980   4.830   4.021   0.608 -0.4276  0.5608  0.2605
 7006TIP3   OH220981   1.698   2.605   5.741 -0.2848 -0.0525  0.0661
 7006TIP3    H120982   1.620   2.618   5.795 -0.6516  0.2339 -0.5250
 7006TIP3    H220983   1.667   2.553   5.667 -0.0747  0.6890 -0.5499
 7007TIP3   OH220984   6.107   0.452   1.508  0.1128 -0.4019  0.1129
 7007TIP3    H120985   6.141   0.395   1.438 -0.0439  0.4511 -0.6751
 7007TIP3    H220986   6.019   0.417   1.526 -0.8300  0.8091 -1.8374
 7008TIP3   OH220987   6.916   5.745   3.240 -0.2188  0.1300  0.1071
 7008TIP3    H120988   6.936   5.771   3.150 -0.4075  0.3877  0.1381
 7008TIP3    H220989   6.974   5.797   3.295 -0.1604  0.0326  0.1372
 7009TIP3   OH220990   0.228   4.066   3.205 -0.3458  0.1170 -0.0613
 7009TIP3    H120991   0.155   4.112   3.246  1.1287  2.1617  0.4163
 7009TIP3    H220992   0.248   4.116   3.126  0.4847 -0.4394 -0.2281
 7010TIP3   OH220993   0.765   4.448   2.997 -0.0225 -0.3137 -0.4710
 7010TIP3    H120994   0.742   4.387   2.927  0.8523 -0.4806 -0.6233
 7010TIP3    H220995   0.854   4.423   3.022  0.4115  1.0203 -0.6446
 7011TIP3   OH220996   7.212   5.863   2.068 -0.2415  0.2478 -0.0792
 7011TIP3    H120997   7.221   5.935   2.006 -0.5666  0.8782  0.5912
 7011TIP3    H220998   7.197   5.905   2.152 -0.1048 -0.6009  0.3831
 7012TIP3   OH220999   1.659   3.135   0.206  0.1220 -0.7858 -0.0530
 7012TIP3    H121000   1.615   3.083   0.273  0.1593 -2.4844 -1.2806
 7012TIP3    H221001   1.592   3.149   0.139  0.0521  0.9839  0.3373
 7013TIP3   OH221002   5.614   0.114   4.157 -0.2990 -0.2305  0.0089
 7013TIP3    H121003   5.679   0.149   4.219 -0.7581  0.5222  0.0762
 7013TIP3    H221004   5.622   0.170   4.080 -0.7724 -0.2186 -0.0344
 7014TIP3   OH221005   3.232   2.782   1.145 -0.6725 -0.1033  0.9962
 7014TIP3    H121006   3.143   2.747   1.140 -1.2328  1.3678 -0.1214
 7014TIP3    H221007   3.259   2.790   1.053 -0.2997  1.6333  1.2209
 7015TIP3   OH221008   1.135   2.703   3.586  0.2850 -0.2109  0.1061
 7015TIP3    H121009   1.214   2.740   3.625 -0.2809  1.2248 -0.0452
 7015TIP3    H221010   1.063   2.738   3.639 -0.3122 -0.6261 -0.4098
 7016TIP3   OH221011   4.856   2.429   5.496 -0.2868  0.5761 -0.0670
 7016TIP3    H121012   4.903   2.483   5.431 -0.4079  1.7190  0.7583
 7016TIP3    H221013   4.907   2.348   5.500  1.4147  1.6148  0.4923
 7017TIP3   OH221014   4.859   5.916   5.452  0.1965  0.1857 -0.0336
 7017TIP3    H121015   4.852   5.828   5.489  3.1642  0.2748  1.0188
 7017TIP3    H221016   4.809   5.911   5.370 -2.9735 -1.2779  1.7995
 7018TIP3   OH221017   1.640   4.223   0.998  0.0147  0.0926  0.3032
 7018TIP3    H121018   1.660   4.317   0.993 -0.9130  0.3253  0.6382
 7018TIP3    H221019   1.622   4.197   0.908  1.0686  0.0368  0.0943
 7019TIP3   OH221020   6.691   2.600   1.750 -0.6309 -0.2445 -0.4833
 7019TIP3    H121021   6.613   2.608   1.695 -0.6840  0.8373 -0.2687
 7019TIP3    H221022   6.675   2.660   1.823 -0.6157 -1.7154  0.7997
 7020TIP3   OH221023   1.368   1.592   1.712 -0.1743  0.2944  0.5180
 7020TIP3    H121024   1.375   1.511   1.761 -0.8740 -0.0870  0.0002
 7020TIP3    H221025   1.353   1.565   1.621 -1.8159  0.9860  0.5454
 7021TIP3   OH221026   4.310   1.868   3.828  0.0131 -0.1207 -0.1649
 7021TIP3    H121027   4.284   1.956   3.856 -0.3404 -0.6260  1.2115
 7021TIP3    H221028   4.382   1.882   3.766 -0.6329  1.1572 -0.6681
 7022TIP3   OH221029   0.196   2.163   5.263 -0.7674  0.5387  0.1945
 7022TIP3    H121030   0.128   2.095   5.257 -0.2913  0.0185  0.5796
 7022TIP3    H221031   0.151   2.243   5.237 -1.8287  0.3984  1.4960
 7023TIP3   OH221032   6.701   0.175   1.876 -0.5052 -0.1116 -0.0900
 7023TIP3    H121033   6.725   0.266   1.859  1.5217 -0.6359 -0.3026
 7023TIP3    H221034   6.768   0.143   1.937  0.9497 -2.3671 -2.6269
 7024TIP3   OH221035   6.460   4.966   4.389  0.1645  0.2886 -0.1652
 7024TIP3    H121036   6.535   4.911   4.368  0.1935 -0.1555  1.0147
 7024TIP3    H221037   6.392   4.938   4.328  1.4032  1.8642 -2.4212
 7025TIP3   OH221038   4.770   4.054   0.057 -0.4606  0.6907 -0.2089
 7025TIP3    H121039   4.777   4.041   0.151 -0.4955  0.7262 -0.2016
 7025TIP3    H221040   4.854   4.024   0.022  0.5206  2.9368  0.0652
 7026TIP3   OH221041   3.559   0.882   3.774  0.5597 -0.2783  0.4409
 7026TIP3    H121042   3.465   0.862   3.773  0.1374  1.2622 -2.3330
 7026TIP3    H221043   3.590   0.848   3.858 -2.3437 -1.3549  1.2099
 7027TIP3   OH221044   3.732   1.913   3.935  0.6183 -0.4622  0.0265
 7027TIP3    H121045   3.742   2.007   3.922  1.3512 -0.4951  0.2929
 7027TIP3    H221046   3.811   1.874   3.897 -0.0301 -1.0401 -0.7707
 7028TIP3   OH221047   0.824   2.856   3.249  0.3298 -0.4471 -0.4025
 7028TIP3    H121048   0.747   2.911   3.261  1.0194  0.2270  1.2155
 7028TIP3    H221049   0.808   2.780   3.305  0.8231 -0.3002 -0.0554
 7029TIP3   OH221050   4.852   4.703   3.392  0.3915 -0.3445  0.3634
 7029TIP3    H121051   4.784   4.655   3.345  0.3961  0.5466 -0.5870
 7029TIP3    H221052   4.836   4.682   3.484 -0.4135 -1.1141  0.0650
 7030TIP3   OH221053   1.021   4.365   1.141 -0.0873  0.2557 -0.3548
 7030TIP3    H121054   1.066   4.308   1.078 -1.4681  0.6177 -1.7485
 7030TIP3    H221055   1.023   4.451   1.099 -0.9279  0.5340  0.1689
 7031TIP3   OH221056   6.449   5.073   2.000 -0.0704  0.1260  0.4383
 7031TIP3    H121057   6.432   4.986   1.962  1.1496  0.5425 -1.1780
 7031TIP3    H221058   6.436   5.134   1.927  1.5629  1.0452  0.8630
 7032TIP3   OH221059   2.737   0.074   0.840  0.4721 -0.3018  0.1215
 7032TIP3    H121060   2.717  -0.017   0.862  1.6280 -0.1183  2.0826
 7032TIP3    H221061   2.816   0.070   0.787  0.2672 -0.4543 -0.1762
 7033TIP3   OH221062   6.954   3.105   2.770  0.1114 -0.2704 -0.2678
 7033TIP3    H121063   7.014   3.098   2.697 -0.2550  1.1596 -0.7327
 7033TIP3    H221064   7.008   3.090   2.848  0.6368 -1.0982 -0.7887
 7034TIP3   OH221065   5.578   2.595   2.458  0.1410  0.6763  0.1786
 7034TIP3    H121066   5.586   2.567   2.366  0.4616 -0.1133  0.4373
 7034TIP3    H221067   5.667   2.590   2.493  0.3946  2.9634  0.0068
 7035TIP3   OH221068   2.939   1.165   5.813 -0.3979 -0.2576  0.1819
 7035TIP3    H121069   2.882   1.109   5.759 -0.4915 -0.6779  0.7129
 7035TIP3    H221070   3.017   1.111   5.829 -1.2631 -0.9745  2.2528
 7036TIP3   OH221071   4.339   5.290   4.248 -0.1600  0.1821 -0.3386
 7036TIP3    H121072   4.395   5.213   4.261 -0.5974 -0.4550 -2.0435
 7036TIP3    H221073   4.394   5.353   4.202  0.2695  1.0284  1.2554
 7037TIP3   OH221074   1.464   5.744   4.066 -0.4774  0.1339  0.2890
 7037TIP3    H121075   1.439   5.837   4.063 -1.2891 -0.0324  1.3345
 7037TIP3    H221076   1.508   5.734   4.150 -0.7340 -0.5066  0.3494
 7038TIP3   OH221077   6.504   0.999   5.647 -0.4724 -0.2115  0.1312
 7038TIP3    H121078   6.420   0.962   5.671  1.0729 -3.8959  0.6269
 7038TIP3    H221079   6.508   0.989   5.552 -0.6154  0.0292  0.0997
 7039TIP3   OH221080   5.781   5.450   1.072  0.5129  0.5286 -0.2068
 7039TIP3    H121081   5.687   5.454   1.089  0.5191  0.7043 -0.2075
 7039TIP3    H221082   5.820   5.504   1.141  0.6490  0.0764  0.0695
 7040TIP3   OH221083   4.765   4.792   5.265 -0.2219 -0.6406  0.3401
 7040TIP3    H121084   4.733   4.814   5.177 -1.2556 -0.5378  0.7388
 7040TIP3    H221085   4.837   4.730   5.248 -1.2819 -1.6722 -0.5416
 7041TIP3   OH221086   4.085   5.874   0.998 -0.8191  0.7023 -0.2669
 7041TIP3    H121087   4.139   5.923   0.936 -0.7530 -0.6748 -1.3448
 7041TIP3    H221088   4.142   5.802   1.026 -0.3261  2.0530  2.5310
 7042TIP3   OH221089   2.797   1.255   5.420 -0.3930 -0.1049  0.1902
 7042TIP3    H121090   2.781   1.225   5.331  1.6077  2.5895 -1.2477
 7042TIP3    H221091   2.849   1.185   5.460 -1.1922 -1.2904 -0.7882
 7043TIP3   OH221092   3.580   3.338   3.975  0.3491  0.6560  0.0255
 7043TIP3    H121093   3.496   3.382   3.965  0.1001 -0.0670 -1.4823
 7043TIP3    H221094   3.567   3.278   4.048 -0.3325  0.8287  0.0544
 7044TIP3   OH221095   5.850   0.142   4.321  0.2389  0.3685  0.2287
 7044TIP3    H121096   5.920   0.204   4.300  0.0581  0.7993  0.8615
 7044TIP3    H221097   5.792   0.191   4.380  0.0277 -0.3673  0.6424
 7045TIP3   OH221098   3.692   0.834   1.428  0.1229 -0.1241 -0.5925
 7045TIP3    H121099   3.758   0.880   1.480  0.6016 -0.2993 -1.0355
 7045TIP3    H221100   3.617   0.894   1.425  0.0954 -0.0979  0.2604
 7046TIP3   OH221101   5.112   1.298   3.040 -0.0508 -0.0197 -0.2824
 7046TIP3    H121102   5.069   1.291   3.126  0.5330  1.2574  0.1476
 7046TIP3    H221103   5.055   1.356   2.990  0.1295  0.0605 -0.3967
 7047TIP3   OH221104   2.195   3.192   0.844 -0.3514  0.4662  0.0112
 7047TIP3    H121105   2.271   3.250   0.848  1.6445 -1.9416 -0.5295
 7047TIP3    H221106   2.123   3.250   0.817  1.3821  2.7456 -0.0863
 7048TIP3   OH221107   6.739   3.411   1.288  0.6832  0.4183 -0.0149
 7048TIP3    H121108   6.646   3.395   1.308  0.3169 -0.3454 -2.0332
 7048TIP3    H221109   6.738   3.476   1.218  1.5030 -1.0177 -1.4571
 7049TIP3   OH221110   2.263   3.359   2.727 -0.0098  0.7606  0.1309
 7049TIP3    H121111   2.295   3.426   2.667  0.5439 -1.0829 -1.7722
 7049TIP3    H221112   2.320   3.284   2.711 -1.3914 -0.5836  1.2335
 7050TIP3   OH221113   0.999   3.599   3.801 -0.0697 -0.3019 -0.5277
 7050TIP3    H121114   0.992   3.535   3.872  0.1908 -0.4670 -0.6478
 7050TIP3    H221115   0.949   3.675   3.831 -0.3068 -0.5318 -0.3479
 7051TIP3   OH221116   6.209   5.152   0.779 -0.6947  0.2523 -0.0743
 7051TIP3    H121117   6.280   5.167   0.842  0.8799 -1.5995 -1.3064
 7051TIP3    H221118   6.133   5.195   0.819  0.0412 -1.2786  3.4170
 7052TIP3   OH221119   0.749   2.039   5.324  1.0644 -0.3380  0.3124
 7052TIP3    H121120   0.720   2.068   5.237 -1.3610 -3.1755  0.0280
 7052TIP3    H221121   0.837   2.004   5.309  0.6623 -0.8522 -1.0689
 7053TIP3   OH221122   5.735   1.660   1.072 -0.3774  0.3195  0.0382
 7053TIP3    H121123   5.714   1.720   0.999  2.7518  0.3703 -0.9635
 7053TIP3    H221124   5.697   1.576   1.045 -0.7053  0.7377 -0.8658
 7054TIP3   OH221125   3.483   1.005   0.131  0.3745 -0.2709 -0.5653
 7054TIP3    H121126   3.411   0.943   0.128  1.0773 -1.1776  0.5267
 7054TIP3    H221127   3.458   1.068   0.198  0.9816 -1.1196  0.4877
 7055TIP3   OH221128   5.449   1.116   5.682 -0.0058  0.1953 -0.0451
 7055TIP3    H121129   5.484   1.203   5.697  1.1354 -0.2919  0.1886
 7055TIP3    H221130   5.518   1.056   5.709 -0.3631 -0.7806 -1.1528
 7056TIP3   OH221131   2.779   3.944   5.908 -0.0922 -0.2004  0.0831
 7056TIP3    H121132   2.739   3.977   5.828 -2.5425  1.8843  1.9813
 7056TIP3    H221133   2.856   3.999   5.921  0.4295 -0.6806 -0.8863
 7057TIP3   OH221134   6.968   3.865   3.848  0.1603  0.3303 -0.1051
 7057TIP3    H121135   6.976   3.931   3.780  0.9159  0.5216  0.1589
 7057TIP3    H221136   7.026   3.795   3.820 -0.3976 -0.0915 -0.2241
 7058TIP3   OH221137   1.935   6.214   2.574 -0.0268 -0.1170  0.4537
 7058TIP3    H121138   1.946   6.134   2.624 -1.9412 -2.5745 -2.7103
 7058TIP3    H221139   1.852   6.250   2.602 -0.6864 -1.0269 -0.2723
 7059TIP3   OH221140   6.344   2.054   4.325 -0.7273  0.0624 -0.2129
 7059TIP3    H121141   6.299   2.112   4.387 -1.0564 -1.2978  0.8858
 7059TIP3    H221142   6.425   2.030   4.371 -1.6427 -2.1129  0.3849
 7060TIP3   OH221143   5.465   0.335   4.896  0.0107 -0.0290 -0.4669
 7060TIP3    H121144   5.504   0.313   4.981  0.5012  2.0762 -0.0838
 7060TIP3    H221145   5.395   0.397   4.918  0.0138  0.3770 -1.5822
 7061TIP3   OH221146   4.375   3.453   3.083 -0.3550 -0.1179 -0.1313
 7061TIP3    H121147   4.406   3.412   3.163 -2.2914 -0.7558  0.3398
 7061TIP3    H221148   4.445   3.513   3.058  0.1818  0.2955  2.1801
 7062TIP3   OH221149   1.204   4.009   1.554 -0.2987 -0.0709  0.6322
 7062TIP3    H121150   1.186   4.077   1.619 -0.9748 -0.2421  0.6277
 7062TIP3    H221151   1.123   3.959   1.548 -0.1159 -0.2933 -0.0647
 7063TIP3   OH221152   4.488   0.860   4.640 -0.5926 -0.5929 -1.0670
 7063TIP3    H121153   4.526   0.930   4.692  0.2743 -0.2715 -2.0914
 7063TIP3    H221154   4.478   0.787   4.701  1.5468 -0.6405 -0.6927
 7064TIP3   OH221155   3.147   5.444   3.607 -0.1950  0.3028  0.4443
 7064TIP3    H121156   3.231   5.486   3.585 -0.3324  0.4028  0.1140
 7064TIP3    H221157   3.171   5.353   3.625 -0.3412 -0.3319 -2.1742
 7065TIP3   OH221158   5.930   3.895   1.190  0.3340  0.3407 -0.4718
 7065TIP3    H121159   5.883   3.978   1.191 -1.8908 -0.8385 -0.4321
 7065TIP3    H221160   5.938   3.870   1.282 -0.2899 -0.1586 -0.5497
 7066TIP3   OH221161   1.636   3.346   4.372 -0.4542  0.0432  0.0912
 7066TIP3    H121162   1.613   3.326   4.282  2.5965 -1.5591 -0.4492
 7066TIP3    H221163   1.718   3.396   4.366 -0.1688 -0.1012  1.9596
 7067TIP3   OH221164   3.000   4.323   2.911 -0.1330  0.3604  0.0026
 7067TIP3    H121165   2.921   4.376   2.902 -0.8651 -0.7823 -0.4472
 7067TIP3    H221166   3.057   4.353   2.839  0.5560  2.3028  1.2688
 7068TIP3   OH221167   1.629   4.006   4.239 -0.0770  0.0391  0.4741
 7068TIP3    H121168   1.577   3.936   4.278  0.1275 -0.8252 -0.7285
 7068TIP3    H221169   1.719   3.974   4.241  0.1528  0.6960  0.8110
 7069TIP3   OH221170   0.437   6.224   1.821 -0.1664 -0.6842  0.4575
 7069TIP3    H121171   0.508   6.241   1.759  0.7910  0.1676  1.7471
 7069TIP3    H221172   0.453   6.284   1.893 -1.9198 -0.8353  1.0222
 7070TIP3   OH221173   1.878   1.656   3.798 -0.4091 -0.2365 -0.0973
 7070TIP3    H121174   1.835   1.629   3.879 -1.2844 -1.4414 -0.9158
 7070TIP3    H221175   1.886   1.751   3.805  1.9093 -0.5206  2.4980
 7071TIP3   OH221176   5.062   1.672   2.900 -0.1545  0.3986  0.3641
 7071TIP3    H121177   5.089   1.623   2.978  1.4384 -0.8882 -0.9286
 7071TIP3    H221178   5.123   1.745   2.896 -1.9022  2.0569  1.7235
 7072TIP3   OH221179   3.878   1.973   2.989  0.0745  0.2051  0.2093
 7072TIP3    H121180   3.848   2.064   2.996 -1.1281 -0.2435  1.5981
 7072TIP3    H221181   3.935   1.972   2.913 -0.2296  2.0318 -0.0962
 7073TIP3   OH221182   5.931   3.974   2.578 -0.0161  0.1114 -0.9338
 7073TIP3    H121183   5.871   3.951   2.507 -0.1110  0.6982 -1.0488
 7073TIP3    H221184   6.018   3.970   2.537 -0.0725  0.4737 -1.0882
 7074TIP3   OH221185   0.766   6.132   1.753  0.4485 -0.2145  0.7581
 7074TIP3    H121186   0.805   6.188   1.820  4.1979 -0.5663 -0.8915
 7074TIP3    H221187   0.735   6.193   1.686  0.8593  0.0144  0.7729
 7075TIP3   OH221188   2.877   2.919   4.566 -0.5264  0.4399 -0.2455
 7075TIP3    H121189   2.856   2.889   4.654 -0.1265  1.2950  0.1588
 7075TIP3    H221190   2.867   2.842   4.511 -1.0461 -0.0419  0.5053
 7076TIP3   OH221191   5.052   5.502   1.315 -0.1246  0.2833  0.1828
 7076TIP3    H121192   5.051   5.597   1.301 -1.0838  0.0953 -1.1284
 7076TIP3    H221193   4.979   5.469   1.264  0.7457 -1.2717 -0.1121
 7077TIP3   OH221194   4.059   5.236   1.667 -0.2832 -0.1572 -0.0149
 7077TIP3    H121195   4.037   5.319   1.710 -1.6280  0.0634 -1.0684
 7077TIP3    H221196   4.032   5.169   1.730  0.9301  0.1852  0.8971
 7078TIP3   OH221197   1.182   1.126   4.472  0.2727 -0.2272 -0.4659
 7078TIP3    H121198   1.275   1.149   4.470  0.5193 -1.1985 -1.6846
 7078TIP3    H221199   1.150   1.151   4.385 -0.1266 -1.6977 -0.7690
 7079TIP3   OH221200   3.945   1.175   1.119 -0.5644 -0.2167 -0.0797
 7079TIP3    H121201   3.994   1.229   1.181 -1.5379 -0.5739  1.0431
 7079TIP3    H221202   3.914   1.101   1.171  0.5663 -1.7925 -1.5409
 7080TIP3   OH221203   1.623   2.783   1.609  0.0414  0.1020 -0.4793
 7080TIP3    H121204   1.607   2.867   1.567  0.5572  1.4559  1.8287
 7080TIP3    H221205   1.633   2.805   1.702 -0.5185 -2.6047  0.2995
 7081TIP3   OH221206   5.479   0.146   5.656  0.0149  0.3724 -0.4452
 7081TIP3    H121207   5.539   0.092   5.605  0.1177  0.3103 -0.2588
 7081TIP3    H221208   5.536   0.209   5.700  0.0587 -0.3550  0.5773
 7082TIP3   OH221209   6.022   0.364   4.332  0.5391 -0.5916  0.0432
 7082TIP3    H121210   6.025   0.429   4.403  0.8970 -0.8172  0.2378
 7082TIP3    H221211   6.105   0.374   4.287 -0.0933  0.2462 -0.9804
 7083TIP3   OH221212   1.683   1.744   5.387  0.3409 -1.0700  0.0539
 7083TIP3    H121213   1.708   1.788   5.468 -1.5375 -1.8361  1.1245
 7083TIP3    H221214   1.639   1.811   5.335 -0.6237 -1.1355  0.7583
 7084TIP3   OH221215   0.901   1.578   5.861 -0.4045 -0.4050 -0.0331
 7084TIP3    H121216   0.897   1.517   5.934 -1.6147 -1.7371 -1.1698
 7084TIP3    H221217   0.810   1.595   5.838 -0.0609  0.7538 -0.6316
 7085TIP3   OH221218   1.050   5.041   2.174  0.3034 -0.0334 -0.0708
 7085TIP3    H121219   1.055   4.996   2.258  0.6577  1.2325  0.6156
 7085TIP3    H221220   1.137   5.031   2.135 -0.3528 -2.1690 -1.1734
 7086TIP3   OH221221   5.155   4.867   3.090 -0.7602  0.4641  0.0802
 7086TIP3    H121222   5.064   4.885   3.115 -1.3366 -1.7136 -0.2531
 7086TIP3    H221223   5.154   4.866   2.994 -0.3532  0.5254  0.0739
 7087TIP3   OH221224   1.412   3.618   1.732  0.4274  0.5183  0.1159
 7087TIP3    H121225   1.415   3.713   1.718 -3.9926  1.1539  2.0482
 7087TIP3    H221226   1.336   3.589   1.682  1.2708 -1.9560  0.1582
 7088TIP3   OH221227   2.402   4.233   2.377 -0.3514  0.2509 -0.5253
 7088TIP3    H121228   2.410   4.200   2.288  0.1200 -0.6589 -0.1634
 7088TIP3    H221229   2.346   4.169   2.421 -1.0606  0.9963 -0.2999
 7089TIP3   OH221230   2.027   5.106   5.770  0.2683 -0.8735  0.0857
 7089TIP3    H121231   1.933   5.125   5.773  0.8245  2.7520 -0.9931
 7089TIP3    H221232   2.062   5.143   5.851  1.0565 -0.0369 -0.6214
 7090TIP3   OH221233   1.271   6.300   4.922  0.5501  0.5412 -0.0722
 7090TIP3    H121234   1.293   6.389   4.893 -1.1982  0.7898 -0.7774
 7090TIP3    H221235   1.252   6.309   5.016  2.1705  0.5338  0.2805
 7091TIP3   OH221236   4.636   4.474   5.259  0.3024  0.2130 -0.3810
 7091TIP3    H121237   4.666   4.508   5.343  1.0213 -3.0681  0.8321
 7091TIP3    H221238   4.559   4.526   5.238 -1.7265 -0.6690  3.8266
 7092TIP3   OH221239   1.461   0.180   4.453  0.1909 -0.4252 -0.1556
 7092TIP3    H121240   1.432   0.264   4.489  0.9191 -0.1544 -0.1777
 7092TIP3    H221241   1.550   0.169   4.487  0.6422 -0.4852 -1.2959
 7093TIP3   OH221242   1.781   1.234   1.544  0.1961 -0.0735 -0.6373
 7093TIP3    H121243   1.726   1.300   1.587 -1.1163 -1.0324 -0.7456
 7093TIP3    H221244   1.855   1.283   1.508 -0.5513  1.2754 -0.4122
 7094TIP3   OH221245   1.601   5.005   4.113  0.2387 -0.4782  0.5882
 7094TIP3    H121246   1.546   4.953   4.172 -1.4133  2.4364  1.8028
 7094TIP3    H221247   1.690   4.991   4.145 -0.3681 -0.9649  2.1784
 7095TIP3   OH221248   3.290   6.569   5.873  0.0025 -0.4131  0.7341
 7095TIP3    H121249   3.287   6.489   5.926 -2.1271 -1.3488 -0.6743
 7095TIP3    H221250   3.322   6.541   5.788 -1.5666  0.0032 -0.0403
 7096TIP3   OH221251   0.622   2.091   5.877  0.1804 -0.1331  0.0396
 7096TIP3    H121252   0.644   2.029   5.946 -3.3618 -0.3405  1.2087
 7096TIP3    H221253   0.589   2.036   5.806 -2.7335  0.2031  0.9846
 7097TIP3   OH221254   3.945   3.669   5.504  0.0919 -0.7969 -0.0855
 7097TIP3    H121255   4.026   3.703   5.467  0.5488  0.5309  1.9487
 7097TIP3    H221256   3.968   3.582   5.537  0.5097 -0.6916 -0.1008
 7098TIP3   OH221257   6.990   4.327   2.452 -0.4679  0.1872  0.5456
 7098TIP3    H121258   6.978   4.258   2.517 -0.5367 -0.3062  0.0172
 7098TIP3    H221259   7.085   4.333   2.441 -0.4242  0.7599  1.2034
 7099TIP3   OH221260   1.106   5.915   3.105  0.3462 -0.3251  0.2926
 7099TIP3    H121261   1.175   5.958   3.054  0.0010  0.4712  0.4808
 7099TIP3    H221262   1.128   5.822   3.101 -1.0579 -0.6580 -3.5080
 7100TIP3   OH221263   1.500   6.250   1.812  0.4263 -0.0203  0.8302
 7100TIP3    H121264   1.593   6.249   1.786  0.3457  0.5320  0.4992
 7100TIP3    H221265   1.501   6.290   1.899  0.5175 -0.2051  0.9152
 7101TIP3   OH221266   3.831   4.647   3.668  0.2620 -0.1028  0.0205
 7101TIP3    H121267   3.837   4.667   3.761  0.6159 -1.5328  0.3227
 7101TIP3    H221268   3.753   4.592   3.659  0.4812 -0.3445 -0.4593
 7102TIP3   OH221269   1.718   1.929   0.296 -0.5960  0.1119 -0.4915
 7102TIP3    H121270   1.725   2.000   0.232 -1.7684  0.3236 -0.4047
 7102TIP3    H221271   1.744   1.851   0.248  1.5146  0.6657 -0.3739
 7103TIP3   OH221272   2.480   1.607   0.429 -0.4875  0.2593  0.9459
 7103TIP3    H121273   2.440   1.613   0.342  1.3714  0.8391  0.0749
 7103TIP3    H221274   2.436   1.674   0.481 -0.4632  1.0452 -0.0336
 7104TIP3   OH221275   0.030   2.630   2.153  0.3562  0.3055 -0.6611
 7104TIP3    H121276  -0.022   2.649   2.230  1.4264  0.2760  0.0895
 7104TIP3    H221277   0.017   2.536   2.138  0.4183  0.2404 -0.3090
 7105TIP3   OH221278   1.617   0.114   3.662  0.1797  0.0174  0.1078
 7105TIP3    H121279   1.565   0.112   3.581 -0.1478  0.2525  0.3114
 7105TIP3    H221280   1.706   0.131   3.632  0.0011  0.4820 -0.1780
 7106TIP3   OH221281   4.295   2.121   0.551 -0.4935  0.5143  0.1279
 7106TIP3    H121282   4.202   2.131   0.574 -0.1467  1.6365  1.1714
 7106TIP3    H221283   4.342   2.167   0.621  0.9584 -1.4731  0.5494
 7107TIP3   OH221284   5.196   0.413   2.510 -0.1421 -0.5927  0.1432
 7107TIP3    H121285   5.180   0.320   2.494 -0.9566 -0.3012 -0.8471
 7107TIP3    H221286   5.149   0.432   2.591 -0.1530 -0.9880  0.2337
 7108TIP3   OH221287   2.744   0.657   2.078 -0.0734  0.5607  0.4828
 7108TIP3    H121288   2.810   0.629   2.141 -0.0419 -0.3692  0.0643
 7108TIP3    H221289   2.778   0.738   2.042 -0.0625  1.0680  1.6037
 7109TIP3   OH221290   2.680   3.860   2.449 -0.6039  0.4077 -0.4025
 7109TIP3    H121291   2.655   3.928   2.512 -1.6351  0.5856 -0.9863
 7109TIP3    H221292   2.756   3.818   2.489 -1.6806  0.0000  1.3521
 7110TIP3   OH221293   6.236   3.966   0.486  0.5965  0.3332 -0.2152
 7110TIP3    H121294   6.153   4.007   0.464  0.8982  0.6960 -0.6935
 7110TIP3    H221295   6.262   3.920   0.407  0.7174 -0.0104  0.0221
 7111TIP3   OH221296   5.393   3.178   4.081  0.0286 -0.2976 -0.4803
 7111TIP3    H121297   5.428   3.267   4.088  0.1283 -0.3292 -0.5649
 7111TIP3    H221298   5.331   3.182   4.009 -1.4398  0.1687  0.7610
 7112TIP3   OH221299   0.665   0.517   1.963 -0.1191  0.3024 -0.4164
 7112TIP3    H121300   0.629   0.482   2.044 -0.3290  1.8781  0.2118
 7112TIP3    H221301   0.678   0.441   1.907 -1.2418 -0.6630  0.5935
 7113TIP3   OH221302   2.905   6.314   2.817  0.0678  0.1302 -0.1637
 7113TIP3    H121303   2.970   6.336   2.884 -1.0236 -0.6465  1.1962
 7113TIP3    H221304   2.860   6.237   2.852 -2.5543  1.4535 -0.3840
 7114TIP3   OH221305   1.727   3.520   5.448  0.7854  0.2293 -0.2634
 7114TIP3    H121306   1.662   3.459   5.483 -0.2412  0.0063 -2.3897
 7114TIP3    H221307   1.775   3.551   5.525 -0.9950 -0.5617  1.2506
 7115TIP3   OH221308   1.952   0.155   3.857  0.4052 -0.1710  0.3107
 7115TIP3    H121309   1.920   0.171   3.768 -0.2117 -1.0509  0.3563
 7115TIP3    H221310   2.038   0.196   3.859  0.4356 -0.1479 -0.7022
 7116TIP3   OH221311   4.572   4.414   3.391  0.3135 -0.3424 -0.0979
 7116TIP3    H121312   4.571   4.335   3.338  0.6359 -0.9740  0.8242
 7116TIP3    H221313   4.624   4.392   3.467 -0.6994  0.3284  0.8212
 7117TIP3   OH221314   2.602   3.274   2.226  0.0786  0.0624 -0.3992
 7117TIP3    H121315   2.515   3.237   2.214 -0.9301  2.3865 -0.8233
 7117TIP3    H221316   2.609   3.286   2.321  0.0686 -0.3956 -0.3373
 7118TIP3   OH221317   5.795   3.701   1.424  0.4872  0.7243  0.6337
 7118TIP3    H121318   5.701   3.695   1.410  0.6473  0.5142 -0.4073
 7118TIP3    H221319   5.807   3.780   1.477 -0.2462  0.8969  0.5495
 7119TIP3   OH221320   6.722   3.065   5.792 -0.0898 -0.4304 -0.1096
 7119TIP3    H121321   6.695   3.145   5.749 -0.3293 -0.1982  0.4651
 7119TIP3    H221322   6.756   3.010   5.721  2.6207  1.1970 -0.2293
 7120TIP3   OH221323   2.544   0.554   0.178 -0.2993  0.1100 -0.0359
 7120TIP3    H121324   2.636   0.530   0.166 -0.2304  0.4130 -0.1465
 7120TIP3    H221325   2.503   0.478   0.219  0.4208  0.6963  1.8551
 7121TIP3   OH221326   4.171   3.910   3.426  0.0495  0.0046  0.5064
 7121TIP3    H121327   4.169   3.971   3.353  0.2254 -0.4208  0.1396
 7121TIP3    H221328   4.232   3.949   3.489  0.9821 -0.3122 -0.1914
 7122TIP3   OH221329   0.334   6.657   2.841 -0.4005 -0.2154  0.0109
 7122TIP3    H121330   0.272   6.711   2.889 -1.1604 -1.1113  0.0554
 7122TIP3    H221331   0.401   6.635   2.906  0.3648  1.3209 -0.2115
 7123TIP3   OH221332   1.432   3.563   2.378  0.3780 -0.0012  0.0596
 7123TIP3    H121333   1.487   3.547   2.302 -1.0183  0.1193 -1.0076
 7123TIP3    H221334   1.346   3.532   2.352 -0.6955  2.2699  0.6877
 7124TIP3   OH221335   1.811   4.114   5.781  0.3164  0.0730  0.1188
 7124TIP3    H121336   1.868   4.120   5.859 -1.0699 -0.7189  1.2332
 7124TIP3    H221337   1.865   4.068   5.717  0.9764 -0.6295  1.1312
 7125TIP3   OH221338   4.935   1.584   5.492 -0.3412  0.3984  0.7817
 7125TIP3    H121339   4.887   1.507   5.522 -1.6441  0.3148 -1.2958
 7125TIP3    H221340   4.923   1.648   5.563 -0.1929 -0.8963  2.0320
 7126TIP3   OH221341   2.741   4.688   5.652 -0.0848  0.2107 -0.0751
 7126TIP3    H121342   2.650   4.706   5.676  0.1486 -0.0985  1.1048
 7126TIP3    H221343   2.789   4.765   5.683  0.0229  0.4910 -0.9307
 7127TIP3   OH221344   5.688   0.383   3.625  0.1771  0.2472  0.1488
 7127TIP3    H121345   5.695   0.299   3.579  0.2406  0.4205 -0.1671
 7127TIP3    H221346   5.627   0.434   3.571 -0.8197 -0.0194  0.9970
 7128TIP3   OH221347   7.039   6.831   0.618  0.0768 -0.0266  0.4197
 7128TIP3    H121348   6.974   6.817   0.686 -1.4640  1.1929 -0.7339
 7128TIP3    H221349   7.077   6.745   0.603 -0.8772 -0.6654  1.4854
 7129TIP3   OH221350   2.343   0.520   0.441 -0.1588  0.1819  0.1011
 7129TIP3    H121351   2.430   0.558   0.456 -0.0895  0.3579 -0.6862
 7129TIP3    H221352   2.297   0.532   0.524  0.6466 -0.1292  0.6079
 7130TIP3   OH221353   0.518   4.404   1.313 -0.0742 -0.1148 -0.4058
 7130TIP3    H121354   0.425   4.381   1.306  0.0785 -0.5091 -1.2126
 7130TIP3    H221355   0.557   4.332   1.362 -0.1439 -0.0819 -0.3012
 7131TIP3   OH221356   3.003   3.102   0.851  0.5539 -0.1466 -0.1160
 7131TIP3    H121357   3.098   3.104   0.845  0.8284  1.4895  2.7094
 7131TIP3    H221358   2.974   3.182   0.808  0.1636 -1.6565 -2.8892
 7132TIP3   OH221359   1.011   5.607   0.520  0.6291 -0.1599 -0.1452
 7132TIP3    H121360   0.947   5.583   0.588  0.9695 -0.7370 -0.0231
 7132TIP3    H221361   1.065   5.674   0.561  0.2036  0.2190 -0.1939
 7133TIP3   OH221362   3.426   1.147   4.922 -0.2658 -0.0605  0.3253
 7133TIP3    H121363   3.374   1.204   4.866  0.4193 -0.2570 -0.5284
 7133TIP3    H221364   3.447   1.201   4.999  0.6881  0.9961 -0.6340
 7134TIP3   OH221365   4.202   1.178   5.653  0.1547 -0.0940  0.4164
 7134TIP3    H121366   4.237   1.199   5.567  0.0179 -0.4796  0.2663
 7134TIP3    H221367   4.278   1.149   5.704  0.0604 -0.9909  0.0731
 7135TIP3   OH221368   3.658   2.410   4.904 -0.3910  0.1311  0.0484
 7135TIP3    H121369   3.672   2.499   4.936 -1.2996  0.9124 -1.6091
 7135TIP3    H221370   3.623   2.363   4.980  0.2779  1.1186  0.9945
 7136TIP3   OH221371   2.702   2.490   0.329 -0.1301  0.1108 -0.1039
 7136TIP3    H121372   2.700   2.530   0.416 -0.0975  0.0007 -0.0533
 7136TIP3    H221373   2.708   2.565   0.269 -2.2548  0.3436 -0.1220
 7137TIP3   OH221374   4.738   0.684   2.597  0.5080 -0.0196  0.4389
 7137TIP3    H121375   4.688   0.609   2.564  0.2600  0.1718  0.3799
 7137TIP3    H221376   4.795   0.646   2.664  1.0766 -0.4260 -0.2521
 7138TIP3   OH221377   0.160   5.430   3.740 -0.7479  0.1825  0.2706
 7138TIP3    H121378   0.200   5.368   3.679  0.9146 -0.1328  1.6089
 7138TIP3    H221379   0.219   5.505   3.740  0.2036 -0.4916  2.6674
 7139TIP3   OH221380   2.677   6.051   0.899  0.2055 -0.7079  0.3020
 7139TIP3    H121381   2.593   6.005   0.888  1.1030 -2.6450  1.0406
 7139TIP3    H221382   2.678   6.077   0.991  0.0562  0.0787  0.0838
 7140TIP3   OH221383   4.827   2.721   5.599 -0.4804  0.4650 -0.3069
 7140TIP3    H121384   4.882   2.798   5.610  0.0415  0.1108 -0.4285
 7140TIP3    H221385   4.836   2.698   5.507  0.5417 -0.6247  0.0494
 7141TIP3   OH221386   4.291   4.887   3.719  0.0972 -0.7592  0.0544
 7141TIP3    H121387   4.319   4.888   3.628  2.8084  4.8163  0.5025
 7141TIP3    H221388   4.202   4.923   3.718  0.0097 -0.9874 -0.3728
 7142TIP3   OH221389   2.014   6.512   1.268  0.2223  0.9257  0.3151
 7142TIP3    H121390   2.039   6.534   1.358  0.2516 -1.4824  0.9700
 7142TIP3    H221391   2.097   6.514   1.220  0.0226  3.6157 -0.0621
 7143TIP3   OH221392   3.302   5.622   1.183  0.0606  0.0096  0.0838
 7143TIP3    H121393   3.289   5.615   1.088 -0.4299 -1.1254  0.2220
 7143TIP3    H221394   3.396   5.608   1.195  0.8528  3.7465 -0.5154
 7144TIP3   OH221395   7.113   6.029   2.416  0.6830 -0.4349 -0.5130
 7144TIP3    H121396   7.206   6.037   2.395  0.6611 -1.3866 -1.0405
 7144TIP3    H221397   7.111   5.985   2.501  0.7162 -1.0878 -0.8432
 7145TIP3   OH221398   1.040   5.805   2.761  0.7240 -0.0799  0.2346
 7145TIP3    H121399   1.128   5.774   2.782  1.0580  1.1958  0.8161
 7145TIP3    H221400   1.033   5.796   2.666  2.1393  1.3678 -0.0439
 7146TIP3   OH221401   6.093   5.491   1.789  0.6946 -0.5510 -0.5272
 7146TIP3    H121402   6.176   5.496   1.837 -1.3745  1.8004  3.4315
 7146TIP3    H221403   6.068   5.399   1.794  1.3094 -0.6588  1.8139
 7147TIP3   OH221404   5.293   3.463   1.759  0.3041 -0.0435 -0.1537
 7147TIP3    H121405   5.238   3.510   1.696 -0.1781 -0.7876 -0.3023
 7147TIP3    H221406   5.242   3.386   1.784  0.1757  0.6070  1.7303
 7148TIP3   OH221407   4.396   0.568   2.267  0.2413  0.1393 -0.6099
 7148TIP3    H121408   4.386   0.474   2.277  0.2373  0.1099 -0.8927
 7148TIP3    H221409   4.467   0.578   2.204  1.7573  0.3363  1.0537
 7149TIP3   OH221410   3.707   3.395   2.935 -0.4746  0.4189 -0.4883
 7149TIP3    H121411   3.736   3.486   2.945  0.7316  0.0385 -0.4365
 7149TIP3    H221412   3.692   3.364   3.025  0.9313  0.0028 -0.3803
 7150TIP3   OH221413   5.785   2.427   5.480  0.5281  0.3287 -0.0547
 7150TIP3    H121414   5.858   2.388   5.527  1.3927 -0.7192 -2.1808
 7150TIP3    H221415   5.768   2.367   5.407 -1.1739  1.5590 -0.7291
 7151TIP3   OH221416   3.425   3.974   5.199  0.2714  0.6774 -0.9800
 7151TIP3    H121417   3.447   4.064   5.177  0.3614  1.1321  0.8100
 7151TIP3    H221418   3.348   3.982   5.255  0.5754 -0.3174 -0.4009
 7152TIP3   OH221419   2.524   0.859   1.527 -0.2835  0.5568  0.1888
 7152TIP3    H121420   2.489   0.853   1.616  1.4946  0.5972  0.9246
 7152TIP3    H221421   2.448   0.881   1.474 -1.2766  1.2197  1.7899
 7153TIP3   OH221422   1.793   5.619   2.426  0.4723  0.3571 -0.5681
 7153TIP3    H121423   1.781   5.526   2.409  0.7236  0.4081 -1.0550
 7153TIP3    H221424   1.801   5.658   2.339 -0.9507  1.0243 -0.4262
 7154TIP3   OH221425   5.748   3.732   4.211 -0.3551  0.2001  0.4765
 7154TIP3    H121426   5.711   3.654   4.252  1.4315 -0.8469  0.2131
 7154TIP3    H221427   5.687   3.802   4.234 -2.1189 -1.2746  0.5765
 7155TIP3   OH221428   5.999   0.832   4.990 -0.0701 -0.0181  0.0528
 7155TIP3    H121429   5.926   0.893   4.986  0.0227  0.1777  1.1949
 7155TIP3    H221430   5.972   0.759   4.934 -2.0704 -0.9128  2.0294
 7156TIP3   OH221431   0.528   6.534   2.197  0.1407 -0.0194 -0.0707
 7156TIP3    H121432   0.447   6.561   2.153 -0.0999  0.5087  0.6827
 7156TIP3    H221433   0.549   6.449   2.157 -0.0756  0.4222 -1.1823
 7157TIP3   OH221434   3.126   3.809   4.860 -0.1338 -0.2151 -0.7033
 7157TIP3    H121435   3.217   3.784   4.842 -0.1278 -0.6446 -0.1042
 7157TIP3    H221436   3.112   3.784   4.951 -1.5743 -2.3398 -1.4508
 7158TIP3   OH221437   1.911   1.934   3.777  0.0896  0.5901 -0.0512
 7158TIP3    H121438   1.859   2.003   3.816 -0.0195  0.2584  0.3997
 7158TIP3    H221439   1.999   1.970   3.771  0.6213 -0.0748  2.5082
 7159TIP3   OH221440   5.205   6.483   0.561 -0.1715  0.0488 -0.1049
 7159TIP3    H121441   5.237   6.437   0.483 -1.1325 -1.3263  0.2779
 7159TIP3    H221442   5.285   6.513   0.605  0.3923  1.6751 -2.0361
 7160TIP3   OH221443   0.102   6.461   3.169  0.7335 -0.3812  0.1792
 7160TIP3    H121444   0.158   6.536   3.189 -1.1900  1.2210 -0.1701
 7160TIP3    H221445   0.094   6.415   3.252  1.6825 -0.0496  0.4750
 7161TIP3   OH221446   4.482   6.421   3.378  0.1965  0.4728  0.3109
 7161TIP3    H121447   4.417   6.405   3.447  0.6530  1.3627  0.9671
 7161TIP3    H221448   4.488   6.516   3.373  1.5680  0.4007  0.3739
 7162TIP3   OH221449   1.255   0.483   3.411  0.4010  0.1745  0.1390
 7162TIP3    H121450   1.233   0.549   3.477 -1.7867 -1.5141  1.2164
 7162TIP3    H221451   1.194   0.500   3.339  3.0685  2.3022 -1.8652
 7163TIP3   OH221452   4.175   2.288   1.990  0.0809  0.8099 -0.0931
 7163TIP3    H121453   4.150   2.250   1.906  1.6275  0.0718 -0.2513
 7163TIP3    H221454   4.270   2.298   1.985  0.3074  0.0660  1.8228
 7164TIP3   OH221455   3.356   3.958   1.490  0.1779 -0.1344 -0.3488
 7164TIP3    H121456   3.288   3.915   1.543 -1.9568  3.1355 -0.1533
 7164TIP3    H221457   3.414   3.998   1.555 -0.4533  0.9684 -0.4362
 7165TIP3   OH221458   0.401   0.617   1.608  0.0632  0.5741  0.4807
 7165TIP3    H121459   0.490   0.603   1.641  0.2669  0.8725  0.0618
 7165TIP3    H221460   0.378   0.705   1.637  0.1573  0.7502  0.0116
 7166TIP3   OH221461   3.149   2.496   5.744 -0.1705  0.1854  0.3548
 7166TIP3    H121462   3.223   2.452   5.701 -0.0413 -0.2023  0.9530
 7166TIP3    H221463   3.084   2.427   5.756 -0.1055  0.2287  0.9944
 7167TIP3   OH221464   6.014   1.710   4.175  0.0169 -0.0243  0.5156
 7167TIP3    H121465   6.032   1.800   4.200  0.0356  0.3113 -0.6570
 7167TIP3    H221466   5.919   1.702   4.180 -0.0636  0.3578 -0.3395
 7168TIP3   OH221467   5.234   5.757   3.923  0.1911 -0.4246 -0.5638
 7168TIP3    H121468   5.233   5.847   3.891  0.3720 -0.0638  0.4298
 7168TIP3    H221469   5.165   5.713   3.873 -1.3222  0.7740  0.3878
 7169TIP3   OH221470   1.860   2.419   0.465  0.0232 -0.0421 -0.2877
 7169TIP3    H121471   1.899   2.331   0.461  0.7106  0.2476 -0.1219
 7169TIP3    H221472   1.922   2.475   0.417 -0.8841  0.1953 -1.2248
 7170TIP3   OH221473   5.219   4.688   5.251  0.4346 -0.9376 -0.1774
 7170TIP3    H121474   5.189   4.764   5.201 -1.0512 -0.5340  1.2575
 7170TIP3    H221475   5.139   4.647   5.284  1.3320 -1.5036  1.4043
 7171TIP3   OH221476   5.437   2.329   2.130 -0.5762  0.1350  0.1731
 7171TIP3    H121477   5.509   2.383   2.162  0.1323  0.1502 -1.3612
 7171TIP3    H221478   5.366   2.344   2.192  0.1503  1.5158  0.7061
 7172TIP3   OH221479   0.702   2.696   5.733 -0.3996 -0.4648 -0.3271
 7172TIP3    H121480   0.754   2.776   5.736  1.3160 -1.5397  1.1680
 7172TIP3    H221481   0.698   2.674   5.640  1.7652 -0.2277 -0.5447
 7173TIP3   OH221482   1.627   1.085   5.023  0.8727 -0.2915 -0.0639
 7173TIP3    H121483   1.655   1.159   4.969 -0.2317  0.0620 -0.1909
 7173TIP3    H221484   1.630   1.119   5.113 -0.3021  0.1731 -0.1725
 7174TIP3   OH221485   5.083   0.714   0.109 -0.1007  0.3806  0.5736
 7174TIP3    H121486   5.054   0.743   0.023  0.0874  3.4575  1.4186
 7174TIP3    H221487   5.003   0.706   0.160 -0.2388 -1.7468  0.0796
 7175TIP3   OH221488   3.507   6.096   4.050 -0.1632 -0.2566 -0.0933
 7175TIP3    H121489   3.565   6.055   4.115  0.0217  1.7390  1.0608
 7175TIP3    H221490   3.563   6.160   4.006 -0.4893 -1.0665 -1.7463
 7176TIP3   OH221491   4.344   1.377   4.445  0.3130  0.2304 -0.3911
 7176TIP3    H121492   4.350   1.333   4.530  0.1599  0.1998 -0.3956
 7176TIP3    H221493   4.434   1.400   4.423  0.4656 -0.5766 -0.6503
 7177TIP3   OH221494   4.941   2.210   1.107 -0.2267  0.4874  0.3627
 7177TIP3    H121495   4.980   2.191   1.022 -1.3769  0.8987 -0.2885
 7177TIP3    H221496   4.989   2.286   1.139  0.6915 -0.1097  0.4142
 7178TIP3   OH221497   6.537   3.828   4.832 -0.2291  0.1952  0.0417
 7178TIP3    H121498   6.500   3.817   4.745  2.0620  1.6012 -1.2119
 7178TIP3    H221499   6.501   3.911   4.863  0.5162  0.7097 -0.4501
 7179TIP3   OH221500   7.130   0.920   5.005 -0.1212 -0.3577  0.2401
 7179TIP3    H121501   7.207   0.864   4.998  1.2046  1.4523 -0.2271
 7179TIP3    H221502   7.071   0.873   5.064  1.5747 -1.5280  1.0580
 7180TIP3   OH221503   2.915   1.040   1.430 -0.5671  0.1493  0.3888
 7180TIP3    H121504   2.953   1.077   1.350 -2.3997  0.7199 -0.2560
 7180TIP3    H221505   2.827   1.014   1.405 -0.7368 -0.8300  1.9254
 7181TIP3   OH221506   2.096   0.461   2.524 -0.0027  0.4496 -0.2999
 7181TIP3    H121507   2.103   0.527   2.455 -2.5836 -0.2923 -1.3846
 7181TIP3    H221508   2.035   0.396   2.489  0.6775 -1.3501  1.6518
 7182TIP3   OH221509   3.623   4.358   2.834 -0.1333 -0.0094 -0.2249
 7182TIP3    H121510   3.707   4.403   2.822  0.1303 -0.0667  1.2112
 7182TIP3    H221511   3.557   4.422   2.808  0.2673  0.9771  1.1065
 7183TIP3   OH221512   2.931   1.977   5.244 -0.0577 -0.1183 -0.0614
 7183TIP3    H121513   2.839   1.956   5.262  0.2651 -2.3353 -0.6560
 7183TIP3    H221514   2.960   2.025   5.321 -1.1982 -1.1148  1.0487
 7184TIP3   OH221515   5.652   3.102   0.226  0.2512 -0.1816  0.4133
 7184TIP3    H121516   5.669   3.048   0.148  0.0086 -1.6417  1.3190
 7184TIP3    H221517   5.567   3.072   0.258 -1.0660  2.4734 -0.3736
 7185TIP3   OH221518   6.042   3.335   1.012  0.1517  0.3471 -0.2013
 7185TIP3    H121519   5.970   3.292   0.964 -0.7121 -0.8547  2.0391
 7185TIP3    H221520   6.062   3.412   0.959 -2.8536  0.7883 -0.9164
 7186TIP3   OH221521   2.449   1.854   0.544 -0.1823  0.1787 -0.4809
 7186TIP3    H121522   2.412   1.942   0.543  1.4947  0.9121 -0.3451
 7186TIP3    H221523   2.449   1.828   0.636 -1.0794 -0.1767 -0.5624
 7187TIP3   OH221524   4.910   4.339   3.407 -0.0167  0.1098  0.4909
 7187TIP3    H121525   4.854   4.382   3.472  0.9642  0.0591  1.3977
 7187TIP3    H221526   4.854   4.329   3.330 -1.8420 -1.5101  1.9160
 7188TIP3   OH221527   6.327   2.489   0.434 -0.3884 -0.3050  0.1909
 7188TIP3    H121528   6.412   2.469   0.474 -1.1681 -3.5323  0.4922
 7188TIP3    H221529   6.329   2.443   0.349 -0.7596  2.0713 -1.1863
 7189TIP3   OH221530   5.590   6.420   0.406 -0.1368 -0.1558 -0.7147
 7189TIP3    H121531   5.646   6.346   0.381  0.1955  0.1810 -0.9731
 7189TIP3    H221532   5.647   6.477   0.458 -0.6670 -0.5802  0.3790
 7190TIP3   OH221533   3.946   3.344   2.475  0.2493 -0.7829  0.6632
 7190TIP3    H121534   3.970   3.321   2.385 -2.9706 -0.2855 -0.4646
 7190TIP3    H221535   3.875   3.283   2.497 -1.0977  1.0551  1.6668
 7191TIP3   OH221536   4.683   5.671   4.644 -0.2202  0.2543 -0.1658
 7191TIP3    H121537   4.750   5.643   4.706  0.4517  1.0368 -0.5129
 7191TIP3    H221538   4.731   5.725   4.580 -1.0711  0.2989 -0.7797
 7192TIP3   OH221539   4.402   1.832   1.057  0.1691 -0.4020  0.8236
 7192TIP3    H121540   4.454   1.818   0.978 -0.8253 -1.6370  0.3388
 7192TIP3    H221541   4.387   1.926   1.061 -1.4603 -0.4635 -1.6439
 7193TIP3   OH221542   3.160   0.309   0.659 -0.0413  0.2178  0.3819
 7193TIP3    H121543   3.106   0.377   0.700  1.5643  2.2510 -0.7352
 7193TIP3    H221544   3.103   0.232   0.659 -2.5957  1.9568  0.1598
 7194TIP3   OH221545   0.225   2.907   4.075 -0.0413  0.2880 -0.1299
 7194TIP3    H121546   0.207   2.994   4.040  0.7993  1.3914  1.9964
 7194TIP3    H221547   0.317   2.911   4.103  0.4725 -1.7922 -1.3618
 7195TIP3   OH221548   7.062   2.487   3.015  0.0157 -0.8097  0.4033
 7195TIP3    H121549   6.999   2.552   2.987  0.8523 -0.0449  0.2577
 7195TIP3    H221550   7.073   2.502   3.109  1.1998  0.1640  0.1344
 7196TIP3   OH221551   3.582   1.397   0.724  0.3025  0.0687  0.2044
 7196TIP3    H121552   3.517   1.332   0.698  1.3574 -0.2962 -1.6397
 7196TIP3    H221553   3.660   1.376   0.673  1.1417  1.9054  0.6332
 7197TIP3   OH221554   5.134   3.076   2.733  0.3386 -0.3612 -0.6198
 7197TIP3    H121555   5.173   3.099   2.818 -3.1336  0.3526  0.9472
 7197TIP3    H221556   5.141   2.981   2.729  1.7906 -0.3000 -0.2438
 7198TIP3   OH221557   0.828   1.470   4.460 -0.0963  0.1426  0.1708
 7198TIP3    H121558   0.865   1.395   4.414 -1.6367 -1.5500  1.5169
 7198TIP3    H221559   0.886   1.483   4.535 -0.3974 -0.4592  0.5276
 7199TIP3   OH221560   1.000   2.259   5.160  0.1692 -0.1120 -0.5632
 7199TIP3    H121561   0.920   2.235   5.112 -0.0457 -1.5343  0.4166
 7199TIP3    H221562   1.063   2.190   5.138  0.8051  0.4678 -0.5781
 7200TIP3   OH221563   5.833   2.083   1.377 -0.5145 -0.0830 -0.4451
 7200TIP3    H121564   5.838   1.989   1.396  1.0941 -0.0078 -0.3672
 7200TIP3    H221565   5.903   2.098   1.313 -0.8579  1.0387 -0.5792
 7201TIP3   OH221566   0.437   0.896   4.598  0.0178  0.3732  0.5706
 7201TIP3    H121567   0.368   0.932   4.541  1.3133  1.3365 -0.4561
 7201TIP3    H221568   0.411   0.805   4.613 -1.7199  0.8481  0.6191
 7202TIP3   OH221569   5.983   6.611   3.164 -0.0414 -0.4965  0.0054
 7202TIP3    H121570   5.952   6.678   3.104  0.7877 -2.2354 -2.5106
 7202TIP3    H221571   6.075   6.633   3.180  0.0074 -0.5810 -0.1595
 7203TIP3   OH221572   5.665   0.112   3.193  0.9620 -0.2722  0.1859
 7203TIP3    H121573   5.632   0.156   3.114  1.9418  0.5417  0.2104
 7203TIP3    H221574   5.643   0.020   3.181  0.4323 -0.0378 -0.6882
 7204TIP3   OH221575   2.912   2.994   0.192  0.2992 -0.2462  0.1718
 7204TIP3    H121576   2.847   3.058   0.164 -0.9700 -1.5612 -0.0217
 7204TIP3    H221577   2.955   2.966   0.112 -0.9357 -1.4720 -0.1080
 7205TIP3   OH221578   4.863   6.582   3.147  0.2658 -0.2012 -0.6740
 7205TIP3    H121579   4.943   6.538   3.117  1.1683  0.2584  0.9153
 7205TIP3    H221580   4.891   6.671   3.167 -0.1149 -0.5931  1.9047
 7206TIP3   OH221581   6.619   0.572   2.899 -0.4782 -0.4641  0.0008
 7206TIP3    H121582   6.530   0.592   2.929 -0.1780  0.5653  0.2470
 7206TIP3    H221583   6.609   0.494   2.845 -1.4067 -0.8597  0.7058
 7207TIP3   OH221584   5.903   1.693   1.383  0.4848 -0.3140 -0.1520
 7207TIP3    H121585   5.924   1.733   1.467 -1.9584  0.9197 -0.0349
 7207TIP3    H221586   5.822   1.736   1.356  0.9145 -1.0482 -2.9099
 7208TIP3   OH221587   1.191   6.391   2.890  0.0837  0.1355  0.6182
 7208TIP3    H121588   1.176   6.472   2.841 -0.8711 -0.1103  0.4803
 7208TIP3    H221589   1.106   6.372   2.932  0.4377 -0.5167  1.0638
 7209TIP3   OH221590   3.682   4.471   2.181 -0.6073 -0.0116 -0.1887
 7209TIP3    H121591   3.629   4.392   2.194 -1.2019  0.0961 -1.7240
 7209TIP3    H221592   3.618   4.542   2.183 -0.2574  0.3040 -0.1850
 7210TIP3   OH221593   5.523   1.526   2.865 -0.5833  0.3802  0.2323
 7210TIP3    H121594   5.535   1.460   2.797 -0.2453  0.7174 -0.0363
 7210TIP3    H221595   5.558   1.485   2.944  0.7995  0.7096 -0.1938
 7211TIP3   OH221596   3.331   2.119   4.173  0.2778  0.2781 -0.5498
 7211TIP3    H121597   3.267   2.054   4.143 -0.3951  0.8795 -0.4501
 7211TIP3    H221598   3.397   2.121   4.104  1.4850 -2.0803  0.4481
 7212TIP3   OH221599   5.464   4.184   0.710 -0.2199  0.0381  0.5436
 7212TIP3    H121600   5.488   4.157   0.621 -0.2390  1.4133  0.0965
 7212TIP3    H221601   5.370   4.166   0.716 -0.3013  0.3016  0.1332
 7213TIP3   OH221602   3.483   0.116   4.353  0.3934 -0.2250  0.0888
 7213TIP3    H121603   3.504   0.064   4.275  1.1365  0.5875 -0.2658
 7213TIP3    H221604   3.387   0.109   4.360  0.4713 -1.6304  0.0576
 7214TIP3   OH221605   3.561   3.237   0.175 -0.0273  0.7517 -0.5615
 7214TIP3    H121606   3.545   3.307   0.238  0.7572 -0.7694  1.4051
 7214TIP3    H221607   3.482   3.183   0.178  0.6377 -0.2066  0.3503
 7215TIP3   OH221608   5.874   4.134   2.786 -0.1474 -0.2064 -0.1713
 7215TIP3    H121609   5.905   4.078   2.715  0.7442  0.9854 -0.7496
 7215TIP3    H221610   5.800   4.086   2.824 -0.1320 -1.2302 -1.3801
 7216TIP3   OH221611   0.991   3.650   1.438  0.0662  0.0980  0.2420
 7216TIP3    H121612   0.980   3.560   1.409  0.9674 -0.0158  0.2218
 7216TIP3    H221613   0.915   3.697   1.402 -0.4700 -0.6676  0.3626
 7217TIP3   OH221614   3.931   2.767   1.503  0.4280 -0.2264 -0.0420
 7217TIP3    H121615   3.928   2.701   1.434  1.1894 -1.3335  0.9494
 7217TIP3    H221616   3.972   2.843   1.461 -0.9828 -0.1401 -1.3531
 7218TIP3   OH221617   1.166   3.441   3.012 -0.5926 -0.1521 -0.3574
 7218TIP3    H121618   1.169   3.484   3.098  3.3233 -1.0785  0.1366
 7218TIP3    H221619   1.172   3.513   2.949 -0.6227  0.3816  0.2341
 7219TIP3   OH221620   5.125   4.490   3.492 -0.2748 -0.2624  0.2558
 7219TIP3    H121621   5.068   4.554   3.534 -0.4739 -0.0920 -0.2641
 7219TIP3    H221622   5.066   4.431   3.446 -0.0353  1.5121 -2.6069
 7220TIP3   OH221623   1.774   5.921   1.929  0.3515  0.2110  0.0486
 7220TIP3    H121624   1.713   5.942   1.858  1.6373  1.9836 -0.6053
 7220TIP3    H221625   1.786   5.826   1.922  1.3535  0.4507 -2.9273
 7221TIP3   OH221626   0.825   0.371   4.813 -0.2992 -0.1750  0.2390
 7221TIP3    H121627   0.866   0.356   4.728 -3.4301  0.8949 -1.6106
 7221TIP3    H221628   0.777   0.290   4.830 -1.2685  0.3414 -0.0073
 7222TIP3   OH221629   5.469   1.885   2.005 -0.2000  0.0581 -0.1382
 7222TIP3    H121630   5.487   1.910   1.914 -0.2915  0.1556 -0.1290
 7222TIP3    H221631   5.412   1.954   2.038 -1.4389 -0.7694 -0.4721
 7223TIP3   OH221632   3.921   4.070   3.679 -0.3199 -0.5896  0.6743
 7223TIP3    H121633   3.947   3.978   3.680 -0.6612 -0.6864  1.5053
 7223TIP3    H221634   3.837   4.072   3.726  0.0015  0.2242  1.2427
 7224TIP3   OH221635   2.219   1.143   4.709 -0.2557 -0.3606 -0.5124
 7224TIP3    H121636   2.302   1.170   4.668  0.7175 -3.4283 -0.7828
 7224TIP3    H221637   2.244   1.118   4.798 -1.2951  0.5832  0.0594
 7225TIP3   OH221638   0.189   2.751   2.415  0.5848 -0.6386  0.0909
 7225TIP3    H121639   0.148   2.757   2.501  1.2970 -2.1475  0.5678
 7225TIP3    H221640   0.174   2.661   2.387 -0.3106  0.0191 -1.7377
 7226TIP3   OH221641   1.119   0.091   3.020  0.8299 -0.5021 -0.6898
 7226TIP3    H121642   1.090   0.119   3.107  2.2118 -1.8271  0.2653
 7226TIP3    H221643   1.039   0.087   2.968  0.3151  3.8227 -0.6306
 7227TIP3   OH221644   3.546   2.898   0.309 -0.1324  0.1498  0.1333
 7227TIP3    H121645   3.513   2.977   0.350  0.4562  0.9207 -0.8212
 7227TIP3    H221646   3.641   2.904   0.318 -0.0833 -0.4327  0.0357
 7228TIP3   OH221647   1.475   3.812   3.076 -0.8538  0.2903 -0.2225
 7228TIP3    H121648   1.519   3.731   3.103 -1.2938 -0.6010 -1.9986
 7228TIP3    H221649   1.545   3.876   3.068 -0.4691  0.0554  1.0321
 7229TIP3   OH221650   5.426   3.187   4.756 -0.7926 -0.0166 -0.2271
 7229TIP3    H121651   5.505   3.241   4.747 -1.7308  1.3840 -0.3537
 7229TIP3    H221652   5.375   3.206   4.677 -1.2764 -0.9045 -0.1443
 7230TIP3   OH221653   6.634   3.943   5.751  0.2310  0.1759  0.2125
 7230TIP3    H121654   6.661   3.928   5.661 -2.9931 -1.3122 -0.6744
 7230TIP3    H221655   6.656   3.863   5.797 -0.1454  0.0428  0.1661
 7231TIP3   OH221656   4.066   3.677   3.765  0.3831  0.5541 -0.3821
 7231TIP3    H121657   4.035   3.590   3.792  0.4529  0.3144 -1.0403
 7231TIP3    H221658   4.159   3.678   3.788 -0.0026  1.1361  1.2623
 7232TIP3   OH221659   0.303   5.755   0.148  0.3713 -0.6762 -0.3148
 7232TIP3    H121660   0.344   5.799   0.223 -0.8319 -0.3704  0.1955
 7232TIP3    H221661   0.243   5.691   0.187  2.1128 -2.8785 -1.0438
 7233TIP3   OH221662   5.671   0.271   5.827 -0.5743  0.0175 -0.5605
 7233TIP3    H121663   5.643   0.310   5.910 -0.1303 -0.0730 -0.3604
 7233TIP3    H221664   5.680   0.177   5.847 -3.2952 -0.5206 -1.4776
 7234TIP3   OH221665   3.968   3.732   0.516  0.7898 -0.0084  0.3970
 7234TIP3    H121666   3.949   3.702   0.427 -2.0687 -1.3406  1.3436
 7234TIP3    H221667   4.010   3.657   0.558 -0.4367 -0.4231  0.9243
 7235TIP3   OH221668   3.898   5.360   3.218  0.6472  0.2309  0.0360
 7235TIP3    H121669   3.956   5.293   3.253  0.9400  0.5846  0.2357
 7235TIP3    H221670   3.958   5.425   3.179  0.4056  0.7404  0.4936
 7236TIP3   OH221671   3.971   1.669   0.347 -0.2397 -0.2251  0.5849
 7236TIP3    H121672   3.908   1.734   0.376 -0.3373 -0.3721  0.7102
 7236TIP3    H221673   3.989   1.690   0.256 -0.2459 -0.0050  0.6353
 7237TIP3   OH221674   0.789   4.720   0.791 -0.0979  0.2726  0.1934
 7237TIP3    H121675   0.698   4.749   0.799  0.0185  0.7651 -0.1531
 7237TIP3    H221676   0.822   4.768   0.714  0.3914 -0.0589  0.1923
 7238TIP3   OH221677   2.192   4.228   3.256 -0.0863  0.6506 -0.6800
 7238TIP3    H121678   2.137   4.155   3.286  0.3603  0.9239  0.9044
 7238TIP3    H221679   2.281   4.194   3.258  0.3749  1.7481  2.0625
 7239TIP3   OH221680   2.459   1.324   4.761 -0.2909 -0.1141 -0.1260
 7239TIP3    H121681   2.455   1.246   4.816  1.2585 -0.2060 -0.1030
 7239TIP3    H221682   2.541   1.316   4.714 -0.3961  1.2141 -0.5720
 7240TIP3   OH221683   2.516   4.336   5.492 -0.3736  0.0011  0.3015
 7240TIP3    H121684   2.581   4.336   5.561 -0.8961  1.8722  0.8514
 7240TIP3    H221685   2.433   4.316   5.537 -0.3286 -1.6385 -0.2757
 7241TIP3   OH221686   6.105   5.678   2.519  0.2686 -0.4072  0.3677
 7241TIP3    H121687   6.072   5.744   2.580  0.2162  0.1261 -0.2327
 7241TIP3    H221688   6.051   5.601   2.535  1.0983 -0.7116  1.9078
 7242TIP3   OH221689   6.561   3.447   5.476 -0.0845  0.0366 -0.3458
 7242TIP3    H121690   6.600   3.534   5.470 -0.6307  0.2852 -0.2847
 7242TIP3    H221691   6.470   3.459   5.450 -0.5572 -0.2476  1.1006
 7243TIP3   OH221692   0.065   5.399   5.665  0.2478  0.0105  0.1358
 7243TIP3    H121693   0.022   5.484   5.677  1.2133  0.5772 -0.3165
 7243TIP3    H221694  -0.007   5.337   5.654 -0.5523  0.4479  2.2851
 7244TIP3   OH221695   1.426   3.460   3.519  0.4003  0.8032  0.4688
 7244TIP3    H121696   1.380   3.542   3.499 -0.1630  0.4174  0.1504
 7244TIP3    H221697   1.484   3.446   3.444 -1.6035 -0.5679 -0.9364
 7245TIP3   OH221698   0.442   1.604   3.915  0.1138  0.1838  0.3314
 7245TIP3    H121699   0.504   1.593   3.987 -1.2451 -3.0926  1.1651
 7245TIP3    H221700   0.495   1.643   3.845  2.3948  0.0770  1.8693
 7246TIP3   OH221701   5.615   1.469   0.935 -0.4830 -0.2219 -0.1712
 7246TIP3    H121702   5.564   1.389   0.951 -2.2278  0.9873  0.6781
 7246TIP3    H221703   5.599   1.488   0.842 -2.7380  0.8039  0.3449
 7247TIP3   OH221704   2.361   1.442   1.326 -0.5840  0.2525 -0.0926
 7247TIP3    H121705   2.280   1.445   1.276 -0.5142  0.9952 -0.1717
 7247TIP3    H221706   2.338   1.481   1.411 -0.6962 -0.9637  0.4634
 7248TIP3   OH221707   3.803   5.880   4.091 -0.0326 -0.4523  0.1403
 7248TIP3    H121708   3.752   5.833   4.158 -1.3234 -0.3363 -0.7284
 7248TIP3    H221709   3.761   5.856   4.008  1.2029 -0.1575 -0.5857
 7249TIP3   OH221710   6.864   5.284   5.766 -0.3514 -0.4169 -0.8030
 7249TIP3    H121711   6.907   5.332   5.695 -0.4509 -1.1218 -1.3430
 7249TIP3    H221712   6.935   5.262   5.826 -0.1897 -0.2824 -0.9432
 7250TIP3   OH221713   5.315   3.945   1.739  0.3116  0.2721  0.4001
 7250TIP3    H121714   5.381   3.995   1.787 -0.3574 -0.9785  2.7802
 7250TIP3    H221715   5.365   3.892   1.677  1.2545  1.6140 -0.0187
 7251TIP3   OH221716   5.877   1.922   1.631 -0.3562  0.0094 -0.3938
 7251TIP3    H121717   5.837   2.005   1.658  1.1191  0.1825  1.5148
 7251TIP3    H221718   5.857   1.862   1.703  1.4663 -0.3055 -0.1114
 7252TIP3   OH221719   4.970   6.744   1.833  0.0538  0.2500  0.2297
 7252TIP3    H121720   4.923   6.802   1.894  1.6566 -0.0237  1.8128
 7252TIP3    H221721   5.054   6.788   1.818  0.0680 -0.1800 -1.0497
 7253TIP3   OH221722   0.597   6.766   3.677 -0.2590  0.1676 -0.3308
 7253TIP3    H121723   0.608   6.839   3.738 -0.7769  1.3840 -1.6310
 7253TIP3    H221724   0.537   6.800   3.610  0.8755 -0.8566 -1.9201
 7254TIP3   OH221725   1.177   5.025   0.849 -0.7068  0.6389  0.0359
 7254TIP3    H121726   1.119   4.997   0.778  2.6926 -0.0805 -2.7500
 7254TIP3    H221727   1.213   4.944   0.884  0.2138  1.1217  0.2271
 7255TIP3   OH221728   0.421   1.974   0.326 -0.1895 -0.4427  0.3163
 7255TIP3    H121729   0.386   2.062   0.309 -0.9240 -0.6549  0.7027
 7255TIP3    H221730   0.414   1.929   0.241 -3.5099 -1.3801  0.9522
 7256TIP3   OH221731   1.319   0.226   3.880 -0.1311  0.4621 -0.2225
 7256TIP3    H121732   1.402   0.267   3.853 -0.1699  2.0190  1.8296
 7256TIP3    H221733   1.344   0.163   3.947 -0.6895  2.0746  1.5766
 7257TIP3   OH221734   6.897   6.317   3.320 -0.2036 -0.1922 -0.5667
 7257TIP3    H121735   6.852   6.234   3.337 -0.8500  0.3091  0.3039
 7257TIP3    H221736   6.878   6.336   3.228  0.6174 -1.3866 -1.0004
 7258TIP3   OH221737   7.097   5.318   1.881  0.3329 -0.0522  0.1294
 7258TIP3    H121738   7.121   5.392   1.937  0.3567 -0.4896  0.7062
 7258TIP3    H221739   7.010   5.339   1.849 -0.0032 -0.1544  0.9583
 7259TIP3   OH221740   3.695   0.088   4.942 -0.2102 -0.2180  0.3383
 7259TIP3    H121741   3.704   0.033   5.020  0.7180  1.4750  1.4788
 7259TIP3    H221742   3.747   0.166   4.961  0.5844 -0.0178 -2.2556
 7260TIP3   OH221743   4.746   1.821   4.558  0.1478 -0.1306 -0.0624
 7260TIP3    H121744   4.753   1.856   4.647 -0.3538 -1.9792  0.7561
 7260TIP3    H221745   4.797   1.740   4.560  1.1186  0.3891 -1.8251
 7261TIP3   OH221746   3.590   5.255   4.406  0.0126  0.5331 -0.3931
 7261TIP3    H121747   3.530   5.229   4.476  0.2443  0.4428 -0.2290
 7261TIP3    H221748   3.539   5.241   4.326  0.2797 -0.9091 -0.3478
 7262TIP3   OH221749   5.961   2.976   1.202 -0.5615 -0.1327 -0.1610
 7262TIP3    H121750   5.975   3.042   1.270 -0.2729 -1.0829  0.7337
 7262TIP3    H221751   5.871   2.990   1.173 -0.3296  0.9927 -0.3776
 7263TIP3   OH221752   3.670   0.556   0.110 -0.3825 -0.1108 -0.6592
 7263TIP3    H121753   3.697   0.514   0.192 -1.4771 -0.5404 -0.4988
 7263TIP3    H221754   3.643   0.483   0.054 -1.0344  0.2841 -0.8652
 7264TIP3   OH221755   1.243   3.752   0.408 -0.0145  0.1556  0.6020
 7264TIP3    H121756   1.280   3.767   0.321 -0.5822 -0.4890  0.2414
 7264TIP3    H221757   1.158   3.709   0.391  0.8203 -1.9900  1.5109
 7265TIP3   OH221758   1.425   3.943   5.249  0.7114 -0.1975 -0.2759
 7265TIP3    H121759   1.445   3.899   5.331 -1.3346  0.2824  0.5565
 7265TIP3    H221760   1.471   3.893   5.182  2.6458 -0.4453  1.1606
 7266TIP3   OH221761   4.820   0.877   0.681  0.5266 -0.2520  0.2077
 7266TIP3    H121762   4.757   0.867   0.753  0.4347  0.4389  0.2291
 7266TIP3    H221763   4.779   0.941   0.623  0.0985 -1.5973 -1.0295
 7267TIP3   OH221764   6.459   1.264   5.796  0.2969  0.1523 -0.1258
 7267TIP3    H121765   6.435   1.304   5.713  0.9120 -0.0137 -0.3919
 7267TIP3    H221766   6.533   1.206   5.774  0.2213 -0.1768  0.4659
 7268TIP3   OH221767   1.748   0.420   2.304 -0.1832  0.0403 -0.4707
 7268TIP3    H121768   1.691   0.424   2.381 -0.8121  0.9934 -0.9685
 7268TIP3    H221769   1.833   0.392   2.339 -0.9419 -1.4631  0.2724
 7269TIP3   OH221770   6.587   2.121   4.840 -0.1146 -0.0307  0.1640
 7269TIP3    H121771   6.551   2.063   4.908 -1.2086 -1.3787 -1.4849
 7269TIP3    H221772   6.661   2.073   4.804 -0.3188  0.0911 -0.4331
 7270TIP3   OH221773   5.295   2.973   4.313  0.0937  0.4999 -0.5003
 7270TIP3    H121774   5.271   2.882   4.295  3.2761 -0.6423  0.3542
 7270TIP3    H221775   5.263   2.989   4.402  0.7831 -0.3111 -0.0933
 7271TIP3   OH221776   0.235   5.297   1.694 -0.1488  0.3073 -0.5243
 7271TIP3    H121777   0.313   5.353   1.689 -0.8750  1.2541 -2.0261
 7271TIP3    H221778   0.234   5.265   1.784  1.3802  1.1374 -0.1763
 7272TIP3   OH221779   4.571   4.580   4.881 -0.3784 -0.0284  0.0763
 7272TIP3    H121780   4.486   4.588   4.925 -0.2682  1.2255  0.1081
 7272TIP3    H221781   4.557   4.620   4.795 -0.3337 -1.5989 -0.7026
 7273TIP3   OH221782   0.559   5.292   0.443  0.2483  0.1907 -0.4283
 7273TIP3    H121783   0.492   5.358   0.460 -1.5949 -1.7741  0.4933
 7273TIP3    H221784   0.560   5.238   0.522  1.7569 -0.8272 -1.0971
 7274TIP3   OH221785   4.974   6.574   0.001  0.3682  0.4625  0.2884
 7274TIP3    H121786   4.907   6.539  -0.058  1.0724  0.1477 -0.3300
 7274TIP3    H221787   4.981   6.510   0.071  2.2038 -1.1143 -1.2259
 7275TIP3   OH221788   2.632   0.396   2.266 -0.0701  0.1558 -0.0971
 7275TIP3    H121789   2.589   0.420   2.348 -1.0863  1.5054 -0.9862
 7275TIP3    H221790   2.725   0.406   2.283 -0.1703 -0.9725  1.3038
 7276TIP3   OH221791   0.215   0.860   5.319 -0.5964  0.3527  0.1541
 7276TIP3    H121792   0.252   0.855   5.230  0.4872  0.0735  0.6065
 7276TIP3    H221793   0.167   0.777   5.329 -0.2040  0.1096  0.0475
 7277TIP3   OH221794   1.840   6.537   2.003  0.0799  0.0938  0.6559
 7277TIP3    H121795   1.747   6.543   1.980 -0.2048 -3.5473  0.2045
 7277TIP3    H221796   1.886   6.551   1.921 -0.2339 -0.4100  0.3879
 7278TIP3   OH221797   2.171   6.122   0.931  0.3603 -0.1048 -0.0677
 7278TIP3    H121798   2.154   6.207   0.889 -0.6712 -0.6338 -0.7799
 7278TIP3    H221799   2.181   6.142   1.024  1.4879  0.9512 -0.3913
 7279TIP3   OH221800   1.207   4.205   0.730  0.0884 -0.0833  0.6407
 7279TIP3    H121801   1.169   4.143   0.669  2.0050  2.3392 -3.4445
 7279TIP3    H221802   1.137   4.269   0.746 -0.4370 -0.7562  1.1033
 7280TIP3   OH221803   6.561   1.037   2.561  0.4245 -0.2179  0.1547
 7280TIP3    H121804   6.562   0.966   2.625  1.5736  0.4547  0.9344
 7280TIP3    H221805   6.568   0.994   2.476 -1.2882 -1.1400  0.4477
 7281TIP3   OH221806   4.445   4.774   3.954 -0.1302  0.4604 -1.2120
 7281TIP3    H121807   4.452   4.685   3.922  2.7522  0.3490 -0.5196
 7281TIP3    H221808   4.385   4.818   3.893 -0.1274 -1.4383 -2.6454
 7282TIP3   OH221809   4.547   1.253   1.353  0.2834 -0.2174 -0.1803
 7282TIP3    H121810   4.466   1.207   1.373  0.6352 -0.1174  1.6711
 7282TIP3    H221811   4.617   1.193   1.380  0.8099  0.2173 -0.5345
 7283TIP3   OH221812   3.030   4.139   0.761 -0.3329  0.2413 -0.1735
 7283TIP3    H121813   2.978   4.151   0.840  1.2823  0.0479  0.9859
 7283TIP3    H221814   3.055   4.228   0.736 -0.8055  0.2999 -0.4442
 7284TIP3   OH221815   1.019   2.864   0.400 -0.1576  0.6220 -0.9117
 7284TIP3    H121816   1.084   2.798   0.423  1.3408  1.9396 -1.2460
 7284TIP3    H221817   0.983   2.892   0.485 -0.1620  0.0280 -0.7126
 7285TIP3   OH221818   4.062   3.571   5.881 -0.2933  0.0583 -0.3879
 7285TIP3    H121819   4.054   3.522   5.799  1.0069  0.0027 -0.5033
 7285TIP3    H221820   3.972   3.591   5.906 -0.7860 -1.2644 -1.0145
 7286TIP3   OH221821   3.521   2.469   1.324  0.0847  0.5047 -0.9151
 7286TIP3    H121822   3.608   2.504   1.304  0.3477  0.3290 -0.1132
 7286TIP3    H221823   3.466   2.547   1.334  0.4308  0.6596 -0.1813
 7287TIP3   OH221824  -0.021   4.475   0.003 -0.1521 -0.0933  0.0699
 7287TIP3    H121825   0.049   4.526  -0.038 -1.4448  0.6094 -1.3368
 7287TIP3    H221826   0.001   4.476   0.096  2.5070 -1.1750 -0.4553
 7288TIP3   OH221827   3.454   4.118   3.431  0.1948 -0.0006 -0.8277
 7288TIP3    H121828   3.525   4.060   3.459  0.0547  0.2288  0.0051
 7288TIP3    H221829   3.374   4.077   3.465 -0.0336 -0.0228 -1.3823
 7289TIP3   OH221830   5.176   2.444   4.060 -0.1512 -0.2416 -0.4343
 7289TIP3    H121831   5.123   2.377   4.104  0.8155 -0.7971 -0.0894
 7289TIP3    H221832   5.124   2.468   3.983  0.2536 -2.6809 -1.5616
 7290TIP3   OH221833   0.566   3.208   0.074  0.2807 -0.2263  0.3018
 7290TIP3    H121834   0.527   3.247   0.153  0.2662 -1.3658  0.8763
 7290TIP3    H221835   0.658   3.232   0.079  0.1669  0.2206  0.3351
 7291TIP3   OH221836   2.664   5.917   1.300 -0.8390 -0.5860  0.1514
 7291TIP3    H121837   2.663   6.012   1.288 -1.5749 -0.5526  0.4104
 7291TIP3    H221838   2.735   5.886   1.243  1.9434  0.4674  2.7385
 7292TIP3   OH221839   4.232   1.423   3.362  0.0843 -0.1095  0.0481
 7292TIP3    H121840   4.146   1.418   3.403  1.5009 -1.4595  3.1993
 7292TIP3    H221841   4.267   1.508   3.389  0.8615 -0.8392  1.5258
 7293TIP3   OH221842   4.130   2.196   3.119 -0.3902 -0.8386  0.4574
 7293TIP3    H121843   4.152   2.210   3.027 -1.2665  0.4037  0.4222
 7293TIP3    H221844   4.157   2.105   3.136  0.6662 -0.7777 -0.7471
 7294TIP3   OH221845   0.749   4.392   5.918 -0.3292 -0.0109 -0.7332
 7294TIP3    H121846   0.822   4.386   5.857  0.0676  1.7320 -0.4977
 7294TIP3    H221847   0.673   4.411   5.863 -0.0890  0.8883 -0.7863
 7295TIP3   OH221848   4.197   4.104   1.815  0.5784  0.0493  0.1807
 7295TIP3    H121849   4.155   4.152   1.886  2.1445  0.7513  0.6821
 7295TIP3    H221850   4.181   4.012   1.834 -1.3887  0.2783 -0.1066
 7296TIP3   OH221851   1.751   5.274   0.509  0.3763 -0.9677 -0.1810
 7296TIP3    H121852   1.712   5.204   0.456 -1.4213  0.3201 -0.7005
 7296TIP3    H221853   1.717   5.259   0.597  3.4803 -3.1928  0.7882
 7297TIP3   OH221854   0.109   4.965   3.179  0.6098  0.1794 -0.0821
 7297TIP3    H121855   0.194   4.922   3.183  1.2736  1.4211 -0.2864
 7297TIP3    H221856   0.112   5.017   3.098 -1.0283 -1.1014 -1.0523
 7298TIP3   OH221857   4.827   6.669   0.242  0.1772 -0.1164 -0.0532
 7298TIP3    H121858   4.760   6.706   0.184 -0.9843  0.8030  1.7885
 7298TIP3    H221859   4.903   6.725   0.230  0.4093 -0.7069 -1.5929
 7299TIP3   OH221860   6.949   5.599   3.505  0.0771 -0.1982 -0.5236
 7299TIP3    H121861   7.020   5.600   3.441  0.3540 -0.7718 -0.2388
 7299TIP3    H221862   6.984   5.645   3.581  0.3399 -0.9207 -0.1945
 7300TIP3   OH221863   1.420   2.247   2.526  0.1738  0.5612 -0.1514
 7300TIP3    H121864   1.335   2.291   2.536 -1.4974 -2.6857  1.9921
 7300TIP3    H221865   1.405   2.181   2.459 -0.1561 -2.1035  2.3318
 7301TIP3   OH221866   6.121   4.600   4.612  0.1440 -0.4002 -0.4243
 7301TIP3    H121867   6.084   4.513   4.628 -1.9398  0.2658 -1.2868
 7301TIP3    H221868   6.190   4.586   4.548  1.3263 -1.6765  1.0711
 7302TIP3   OH221869   0.492   4.989   2.862 -0.1954 -0.0720 -0.4559
 7302TIP3    H121870   0.422   4.927   2.881  0.6922 -0.7904  0.6558
 7302TIP3    H221871   0.572   4.941   2.884  0.5392  1.3654  0.1018
 7303TIP3   OH221872   6.641   5.257   0.526  0.5036 -0.0518 -0.0099
 7303TIP3    H121873   6.625   5.350   0.543  0.7628 -0.2054  1.1537
 7303TIP3    H221874   6.724   5.239   0.570  0.0104 -1.0373  0.5615
 7304TIP3   OH221875   2.385   5.086   0.045  0.4052 -0.3578 -0.0107
 7304TIP3    H121876   2.396   5.147  -0.027  0.7445 -1.3412 -0.8090
 7304TIP3    H221877   2.326   5.019   0.011  1.0430 -1.1473  0.4117
 7305TIP3   OH221878   1.731   4.455   1.196  0.3717  0.1808 -0.2943
 7305TIP3    H121879   1.814   4.483   1.157  1.3232 -0.3885  1.2661
 7305TIP3    H221880   1.664   4.494   1.139  1.6868  0.0785 -1.9890
 7306TIP3   OH221881   2.962   0.109   0.639 -0.4837  0.3853 -0.3921
 7306TIP3    H121882   2.899   0.173   0.607 -0.2679  0.6143 -0.3531
 7306TIP3    H221883   2.990   0.062   0.561  0.4107  1.2658 -0.6136
 7307TIP3   OH221884   2.017   6.707   0.351  0.2052 -0.2036  0.2329
 7307TIP3    H121885   1.940   6.666   0.311  0.1289  0.3444 -0.1973
 7307TIP3    H221886   2.027   6.663   0.435  0.1323 -1.1111 -0.2186
 7308TIP3   OH221887   5.291   6.518   1.398  0.0375 -0.3701  0.2163
 7308TIP3    H121888   5.198   6.504   1.379  0.4273 -2.3256 -0.5126
 7308TIP3    H221889   5.306   6.468   1.479  0.8763 -1.8854 -0.8353
 7309TIP3   OH221890   3.994   4.208   4.924 -0.3922 -0.3017  0.4401
 7309TIP3    H121891   4.033   4.170   5.003 -0.1078 -0.7141  0.1079
 7309TIP3    H221892   4.049   4.283   4.903 -0.7702  0.1127  0.9229
 7310TIP3   OH221893   2.661   5.938   2.588  0.1682 -0.1655 -0.5528
 7310TIP3    H121894   2.695   5.878   2.654 -1.4222  0.8107  1.2142
 7310TIP3    H221895   2.602   5.884   2.534 -1.6469 -0.1802  1.3333
 7311TIP3   OH221896   1.328   1.471   0.181 -0.1999  0.1071 -0.1507
 7311TIP3    H121897   1.265   1.528   0.224 -0.0936  0.2271 -0.1548
 7311TIP3    H221898   1.277   1.428   0.111  0.1288  1.5430 -1.3271
 7312TIP3   OH221899   2.515   0.532   2.539 -0.6793 -0.1825  0.4274
 7312TIP3    H121900   2.496   0.616   2.497  1.2767 -0.0223 -0.2258
 7312TIP3    H221901   2.540   0.556   2.628 -3.0446 -0.3823  1.2374
 7313TIP3   OH221902   0.137   3.730   3.526 -0.1213 -0.2772  0.3283
 7313TIP3    H121903   0.090   3.730   3.443  0.9384 -1.2182 -0.3035
 7313TIP3    H221904   0.159   3.822   3.542  0.1300 -0.1507 -0.7092
 7314TIP3   OH221905   5.244   6.596   5.814 -0.0292  0.4115  0.3539
 7314TIP3    H121906   5.252   6.661   5.745 -0.3108  1.5771  1.3810
 7314TIP3    H221907   5.216   6.516   5.769  1.0446  0.7723 -1.0271
 7315TIP3   OH221908   0.353   3.389   2.745  0.2472  0.6883  0.2763
 7315TIP3    H121909   0.400   3.346   2.674 -1.1922 -0.6681  0.0791
 7315TIP3    H221910   0.353   3.481   2.721  2.1842  0.6513 -0.0331
 7316TIP3   OH221911   7.197   5.555   1.985 -0.0380  0.0390  0.4504
 7316TIP3    H121912   7.211   5.637   2.033 -1.0141  0.1026  0.6492
 7316TIP3    H221913   7.212   5.577   1.894  2.3062 -0.1850  0.7190
 7317TIP3   OH221914   4.378   4.097   5.665 -0.1779 -0.6228 -0.4057
 7317TIP3    H121915   4.441   4.045   5.616  0.9928  0.1140  0.2552
 7317TIP3    H221916   4.385   4.065   5.755 -1.6747 -1.3756 -0.5323
 7318TIP3   OH221917   6.651   3.328   0.733 -0.5341  0.1734 -0.5921
 7318TIP3    H121918   6.680   3.407   0.777 -0.9142 -0.7810  1.4623
 7318TIP3    H221919   6.558   3.319   0.755 -0.8792 -0.1059 -1.9940
 7319TIP3   OH221920   5.865   3.968   0.212 -0.3987  0.0530  0.2183
 7319TIP3    H121921   5.882   4.056   0.246 -0.8734  0.7857 -1.3637
 7319TIP3    H221922   5.885   3.974   0.119  1.5680 -2.0717  0.3950
 7320TIP3   OH221923   0.797   0.143   1.848  0.1046  0.2228  0.1935
 7320TIP3    H121924   0.774   0.157   1.757  1.5225 -2.8825 -0.7747
 7320TIP3    H221925   0.767   0.054   1.868  0.6629  0.4650  2.4532
 7321TIP3   OH221926   5.242   4.029   5.638  0.0439 -0.0453  0.1024
 7321TIP3    H121927   5.266   3.974   5.713 -1.6293  0.0825  0.7831
 7321TIP3    H221928   5.258   4.118   5.668  0.5200 -0.0433 -0.1473
 7322TIP3   OH221929   0.757   5.616   4.406  0.0520  0.0373 -0.5057
 7322TIP3    H121930   0.682   5.666   4.374 -0.0368 -0.2910 -0.8200
 7322TIP3    H221931   0.766   5.543   4.344  0.7748  0.2024 -0.6047
 7323TIP3   OH221932   6.883   0.707   1.906 -0.7061  0.3270  0.6817
 7323TIP3    H121933   6.962   0.665   1.940 -0.8139 -0.3238  0.1490
 7323TIP3    H221934   6.862   0.774   1.971  1.1198  1.5416  0.1229
 7324TIP3   OH221935   5.865   6.635   5.359  0.4059  0.4601  0.0089
 7324TIP3    H121936   5.938   6.696   5.356  0.2759  0.5906 -1.3621
 7324TIP3    H221937   5.787   6.690   5.351  0.3212  0.0938 -2.2505
 7325TIP3   OH221938   5.693   6.333   5.107  0.0356  0.0697  0.1836
 7325TIP3    H121939   5.687   6.239   5.125 -0.3007  0.3048  1.3500
 7325TIP3    H221940   5.781   6.345   5.072  0.2379 -0.6147  0.4453
 7326TIP3   OH221941   2.884   3.338   4.408 -0.1626 -0.4962  0.0043
 7326TIP3    H121942   2.888   3.368   4.317  0.7235 -2.2446 -0.5713
 7326TIP3    H221943   2.901   3.417   4.460 -0.2551  0.4391 -1.3450
 7327TIP3   OH221944   5.413   4.278   4.384  0.4967 -0.5525 -0.3683
 7327TIP3    H121945   5.472   4.330   4.330  0.7450 -1.4482 -0.9808
 7327TIP3    H221946   5.471   4.220   4.433  0.2266 -0.2454  0.3316
 7328TIP3   OH221947   6.157   3.602   0.560  0.0124 -0.2511 -0.3073
 7328TIP3    H121948   6.249   3.627   0.551 -0.3224  0.7712 -1.0530
 7328TIP3    H221949   6.115   3.637   0.481 -0.3556 -3.9461 -1.9902
 7329TIP3   OH221950   0.683   1.447   1.378  0.2142  0.4793  0.1473
 7329TIP3    H121951   0.660   1.522   1.323  0.3492  0.6249  0.2881
 7329TIP3    H221952   0.743   1.482   1.443 -1.7984  0.8717  1.9186
 7330TIP3   OH221953   3.749   6.603   1.350  0.3207  0.4783 -0.3472
 7330TIP3    H121954   3.711   6.665   1.289  1.0253  1.3746  0.1061
 7330TIP3    H221955   3.685   6.532   1.355 -0.5326  1.1985 -0.8171
 7331TIP3   OH221956   6.247   1.622   4.704 -0.2806  0.1316  0.2380
 7331TIP3    H121957   6.306   1.679   4.654 -2.7255  3.1176  0.4018
 7331TIP3    H221958   6.177   1.600   4.642  0.1164 -1.9556  0.4874
 7332TIP3   OH221959   6.189   2.142   5.793 -0.2419  0.2244 -0.4906
 7332TIP3    H121960   6.153   2.076   5.734 -1.7170 -0.2606  0.8804
 7332TIP3    H221961   6.272   2.167   5.753 -1.2962  0.1335 -2.9012
 7333TIP3   OH221962   5.098   5.868   5.084  0.0806  0.2445 -0.3423
 7333TIP3    H121963   5.077   5.908   4.999  1.4490  0.0879 -0.7697
 7333TIP3    H221964   5.169   5.922   5.119  0.8120 -0.8134 -0.1570
 7334TIP3   OH221965   4.016   2.228   1.552 -0.5500  0.5966 -0.0840
 7334TIP3    H121966   3.950   2.295   1.571 -0.0561  1.8200 -2.3891
 7334TIP3    H221967   3.968   2.160   1.504 -0.7930 -0.1771  1.2027
 7335TIP3   OH221968   6.809   5.716   4.760  0.2843  0.0650  0.1152
 7335TIP3    H121969   6.767   5.653   4.819  0.3499  0.1360  0.2383
 7335TIP3    H221970   6.838   5.787   4.817  1.2065 -0.3109  0.1337
 7336TIP3   OH221971   2.443   5.462   1.626 -0.4071  0.1419  0.1375
 7336TIP3    H121972   2.491   5.462   1.543 -1.7135 -0.1493 -0.6342
 7336TIP3    H221973   2.455   5.374   1.661 -1.9956 -0.5882 -1.0423
 7337TIP3   OH221974   0.477   1.740   3.540 -0.3265 -0.4731 -0.1515
 7337TIP3    H121975   0.409   1.688   3.583 -1.2913 -0.0751 -1.1279
 7337TIP3    H221976   0.508   1.800   3.607 -0.0819 -1.4564  0.6434
 7338TIP3   OH221977   6.412   5.908   4.024  0.0435 -0.1758  0.0113
 7338TIP3    H121978   6.425   5.968   3.950  0.3290 -2.3125 -1.7559
 7338TIP3    H221979   6.490   5.854   4.026 -1.0791 -1.8665  0.1888
 7339TIP3   OH221980   6.039   3.482   5.801 -0.4713 -0.4577  0.0971
 7339TIP3    H121981   6.047   3.409   5.863 -0.6313  0.0933  0.7824
 7339TIP3    H221982   6.113   3.471   5.741 -0.7596 -1.4487 -0.1083
 7340TIP3   OH221983   2.638   0.233   5.105  0.5279  0.1841 -0.1872
 7340TIP3    H121984   2.715   0.290   5.114  0.2349  0.5795 -0.1255
 7340TIP3    H221985   2.671   0.145   5.119  0.7540  0.4486  1.1381
 7341TIP3   OH221986   6.945   5.364   2.389  0.1450  0.3531  0.6792
 7341TIP3    H121987   6.935   5.425   2.462 -0.5158  1.3708 -0.2294
 7341TIP3    H221988   6.990   5.415   2.321  0.5472 -0.5096  0.2801
 7342TIP3   OH221989   6.323   3.662   3.008 -0.3697  0.4018  0.7964
 7342TIP3    H121990   6.411   3.629   3.023  0.1664 -0.9122 -3.8089
 7342TIP3    H221991   6.293   3.617   2.929 -3.9982  3.0773  0.3758
 7343TIP3   OH221992   2.010   0.479   1.430  0.0723 -0.1413 -0.5450
 7343TIP3    H121993   1.931   0.527   1.404  0.3891  1.4304  1.1586
 7343TIP3    H221994   1.977   0.395   1.463 -1.0315  0.7615  0.8039
 7344TIP3   OH221995   5.803   6.219   2.316  0.1232  0.2986 -0.0937
 7344TIP3    H121996   5.791   6.211   2.221  0.6359  2.0058 -0.3307
 7344TIP3    H221997   5.890   6.183   2.333 -0.0280 -0.1450 -0.2270
 7345TIP3   OH221998   5.422   4.731   0.101  0.2962 -0.2770 -0.0079
 7345TIP3    H121999   5.329   4.708   0.114  0.7599 -2.6826 -0.4616
 7345TIP3    H222000   5.445   4.689   0.018  1.6155  0.9148 -0.2634
 7346TIP3   OH222001   4.858   4.430   5.071  0.2772  0.6532  0.1658
 7346TIP3    H122002   4.767   4.401   5.075  0.4309  0.2835  1.9403
 7346TIP3    H222003   4.895   4.385   4.995 -0.6761 -0.2262  0.2065
 7347TIP3   OH222004   5.954   0.842   5.439  0.2014  0.6946  0.4426
 7347TIP3    H122005   6.026   0.857   5.378  0.5733 -0.4548  0.5728
 7347TIP3    H222006   5.881   0.892   5.402  0.4672  0.1815 -0.8388
 7348TIP3   OH222007   1.473   5.823   2.917 -0.1069 -0.2071 -0.5351
 7348TIP3    H122008   1.436   5.854   3.000  3.4157 -0.2498  1.2320
 7348TIP3    H222009   1.405   5.767   2.880 -2.6381  1.5052  1.2270
 7349TIP3   OH222010   0.961   1.516   3.180 -0.1565 -1.3480  0.3869
 7349TIP3    H122011   0.977   1.559   3.263 -1.9205  1.0158 -0.4060
 7349TIP3    H222012   0.896   1.448   3.200  0.0314 -1.3342  1.0645
 7350TIP3   OH222013   2.216   4.611   1.269  0.2925 -0.5941 -0.3423
 7350TIP3    H122014   2.245   4.656   1.348 -2.5298 -1.7869  1.5634
 7350TIP3    H222015   2.206   4.520   1.295  0.2601 -1.2388 -2.4033
 7351TIP3   OH222016   4.186   5.665   1.203  0.1590  0.4313  0.1415
 7351TIP3    H122017   4.251   5.728   1.234  0.4921  1.3399 -2.2135
 7351TIP3    H222018   4.235   5.583   1.195  0.0856  0.1986  1.8055
 7352TIP3   OH222019   2.760   4.506   2.947 -0.2651  1.2383  0.0595
 7352TIP3    H122020   2.755   4.601   2.941 -2.3936  1.1986  0.5895
 7352TIP3    H222021   2.696   4.474   2.884  0.2488  0.1565  0.0687
 7353TIP3   OH222022   1.554   3.023   5.751  0.2617 -0.1654  0.1337
 7353TIP3    H122023   1.485   3.009   5.816  1.3668 -0.5122  1.2629
 7353TIP3    H222024   1.595   3.106   5.777  0.2438  0.0660 -0.5594
 7354TIP3   OH222025   6.512   1.590   3.978 -0.3828 -0.2840  0.2452
 7354TIP3    H122026   6.512   1.560   4.069 -1.7472  0.1917  0.4275
 7354TIP3    H222027   6.577   1.661   3.977  1.1654 -1.6484  0.3346
 7355TIP3   OH222028   4.483   5.119   0.477 -0.0949  0.1581 -0.2620
 7355TIP3    H122029   4.469   5.199   0.425  0.6681  1.2371  1.1046
 7355TIP3    H222030   4.428   5.053   0.435  0.1409  1.0865 -2.1348
 7356TIP3   OH222031   1.916   5.130   2.774  0.1852  0.2449 -0.5077
 7356TIP3    H122032   1.880   5.200   2.718  1.2871 -0.2466 -1.8824
 7356TIP3    H222033   1.975   5.081   2.717 -0.8512 -2.0905  0.2920
 7357TIP3   OH222034   5.921   1.118   4.949 -0.0309  0.2102 -0.1805
 7357TIP3    H122035   5.981   1.186   4.918  2.5017 -1.5275  0.5211
 7357TIP3    H222036   5.888   1.077   4.869  0.9197  0.2711 -0.6229
 7358TIP3   OH222037   2.502   2.294   0.307  0.3066  0.3507 -0.6928
 7358TIP3    H122038   2.547   2.378   0.298  0.2637  0.4487 -0.0717
 7358TIP3    H222039   2.561   2.230   0.267  1.3298  0.3767  0.6991
 7359TIP3   OH222040   0.815   0.083   2.233  0.0237 -0.8164 -0.3017
 7359TIP3    H122041   0.846   0.135   2.307  1.9660 -2.5712  0.2493
 7359TIP3    H222042   0.863   0.117   2.157 -1.1329  0.2503 -0.5840
 7360TIP3   OH222043   0.708   0.158   1.291  0.0504 -0.3798 -0.2558
 7360TIP3    H122044   0.674   0.070   1.304 -0.1934 -0.3211 -0.4887
 7360TIP3    H222045   0.766   0.152   1.215 -1.0345 -0.0649 -1.1335
 7361TIP3   OH222046   1.188   3.006   3.034  0.1831  0.3485 -0.3598
 7361TIP3    H122047   1.132   2.969   2.966 -0.6179  0.6350  0.1295
 7361TIP3    H222048   1.167   2.955   3.113  1.1235 -0.0038 -0.3320
 7362TIP3   OH222049   5.010   2.969   0.928  0.3005  0.9280  0.0607
 7362TIP3    H122050   5.055   2.898   0.973  0.7099  1.0876 -0.0886
 7362TIP3    H222051   4.974   3.024   0.998 -3.1752 -1.3079  0.2674
 7363TIP3   OH222052   1.319   1.928   0.334  0.8835 -0.0298  1.1095
 7363TIP3    H122053   1.236   1.880   0.343  1.2088 -0.4126  2.1568
 7363TIP3    H222054   1.325   1.980   0.413  0.9775  1.0843  0.3901
 7364TIP3   OH222055   3.287   3.813   0.593  0.2173 -0.4903  0.1213
 7364TIP3    H122056   3.298   3.867   0.671 -0.2338 -1.9745  1.2607
 7364TIP3    H222057   3.217   3.855   0.544 -0.6833 -0.4658  1.3806
 7365TIP3   OH222058   2.035   3.704   3.796  0.7441 -0.4008  0.5044
 7365TIP3    H122059   2.015   3.616   3.764  0.5509 -0.4127  0.6537
 7365TIP3    H222060   2.131   3.708   3.799  0.8112 -0.0654 -1.0174
 7366TIP3   OH222061   3.175   3.967   5.850  0.3452 -0.2191 -0.1624
 7366TIP3    H122062   3.229   3.909   5.798  1.7530 -0.0567  1.0557
 7366TIP3    H222063   3.139   4.030   5.787  0.0850 -1.4314 -1.2520
 7367TIP3   OH222064   0.689   3.500   2.985  0.5288  0.4049 -0.4066
 7367TIP3    H122065   0.757   3.565   2.973 -1.1178  2.5695  1.2779
 7367TIP3    H222066   0.608   3.543   2.955 -0.4944 -1.1788 -0.0689
 7368TIP3   OH222067   4.602   6.587   1.819  0.0878 -0.5587  0.1829
 7368TIP3    H122068   4.633   6.666   1.775 -1.1601 -0.4760 -0.6161
 7368TIP3    H222069   4.567   6.532   1.749  0.6504 -1.7004  0.7670
 7369TIP3   OH222070   1.791   2.388   1.376 -0.0325  0.3620 -0.1025
 7369TIP3    H122071   1.882   2.363   1.390  0.4541  2.5145  1.0086
 7369TIP3    H222072   1.744   2.352   1.452 -0.2419 -1.1486 -0.9094
 7370TIP3   OH222073   0.523   3.295   2.963 -0.2011  0.6108  0.3259
 7370TIP3    H122074   0.582   3.370   2.971 -0.7352  1.0859 -0.0809
 7370TIP3    H222075   0.455   3.325   2.903 -0.3173 -0.2696  0.0045
 7371TIP3   OH222076   1.300   4.934   0.524 -0.0022 -0.0099 -0.3636
 7371TIP3    H122077   1.301   4.855   0.578  1.4819  0.1737 -0.0650
 7371TIP3    H222078   1.227   4.985   0.558  0.0395 -0.5267  0.5350
 7372TIP3   OH222079   0.398   6.502   4.844 -0.2006  0.0311 -0.3748
 7372TIP3    H122080   0.465   6.462   4.899  0.5735  1.9689  0.1832
 7372TIP3    H222081   0.319   6.451   4.861  0.2852 -0.1248  1.7191
 7373TIP3   OH222082   5.455   4.700   5.081  0.0376 -0.0262 -0.2913
 7373TIP3    H122083   5.412   4.704   4.996  0.6756 -0.7961 -0.6705
 7373TIP3    H222084   5.400   4.641   5.133  0.8725 -1.4615 -0.9546
 7374TIP3   OH222085   3.106   6.363   5.226 -0.0991 -0.2244 -0.4967
 7374TIP3    H122086   3.052   6.287   5.246 -0.0599 -0.4832 -1.3364
 7374TIP3    H222087   3.047   6.425   5.184 -0.4637  0.8196  1.4352
 7375TIP3   OH222088   0.979   6.455   3.962  0.0750  0.1186 -0.5728
 7375TIP3    H122089   0.957   6.548   3.962 -1.6163 -0.2395  0.4014
 7375TIP3    H222090   1.012   6.437   4.050  0.7342 -0.1375 -0.8644
 7376TIP3   OH222091   2.956   6.351   5.550  0.4249  0.4400 -0.1500
 7376TIP3    H122092   2.998   6.437   5.549 -1.3527  1.4353  2.2485
 7376TIP3    H222093   2.922   6.341   5.639  1.6319 -3.3400  0.0710
 7377TIP3   OH222094   6.914   0.004   0.284  0.1725 -0.5298 -0.1272
 7377TIP3    H122095   6.956   0.030   0.202  0.2617 -1.7297 -0.4817
 7377TIP3    H222096   6.821   0.019   0.269  0.3609  1.4828  0.4160
 7378TIP3   OH222097   6.392   6.597   1.169  0.0056 -0.3403 -0.5525
 7378TIP3    H122098   6.487   6.596   1.159  0.1529 -1.5457  0.7036
 7378TIP3    H222099   6.368   6.689   1.159  1.5101  0.2411  0.8182
 7379TIP3   OH222100   6.965   0.075   5.734 -0.0101  0.1722 -0.0275
 7379TIP3    H122101   7.017   0.051   5.811  2.0979  1.4323 -0.9697
 7379TIP3    H222102   6.936  -0.008   5.697  0.1084 -0.5041  1.3245
 7380TIP3   OH222103   0.220   0.349   5.634  0.1603 -0.3067 -0.1154
 7380TIP3    H122104   0.218   0.261   5.672  1.7880 -0.2991  0.0245
 7380TIP3    H222105   0.311   0.363   5.609 -0.3307  0.8191 -1.3993
 7381TIP3   OH222106   5.606   0.935   4.013 -0.1242 -0.1627  0.2076
 7381TIP3    H122107   5.530   0.896   4.055  0.8089 -0.2797  1.8593
 7381TIP3    H222108   5.591   1.029   4.018 -1.0481 -0.1903 -1.2609
 7382TIP3   OH222109   4.395   4.069   1.421  0.4058 -0.1011  0.8757
 7382TIP3    H122110   4.425   4.096   1.334  0.0835 -1.2793  0.3720
 7382TIP3    H222111   4.300   4.059   1.411  0.6517 -3.1273  0.4558
 7383TIP3   OH222112   1.937   5.697   4.588  0.2431  0.6022 -0.1443
 7383TIP3    H122113   1.939   5.602   4.602  1.1834  0.2859 -2.0865
 7383TIP3    H222114   1.899   5.707   4.501  0.6258  1.9935 -0.1693
 7384TIP3   OH222115   0.041   6.071   1.909 -0.1486 -0.1880 -0.1058
 7384TIP3    H122116   0.127   6.037   1.935 -0.1004  1.3814  2.0754
 7384TIP3    H222117   0.054   6.103   1.819  1.9400  1.1340  0.5965
 7385TIP3   OH222118   5.517   4.420   4.862 -0.4271 -0.0061 -0.0981
 7385TIP3    H122119   5.448   4.382   4.806 -0.8143 -1.2212  1.1344
 7385TIP3    H222120   5.474   4.434   4.946  0.7068 -0.3434  0.5606
 7386TIP3   OH222121   3.310   3.117   4.387  0.2350  0.4434 -0.5849
 7386TIP3    H122122   3.262   3.163   4.456  0.9804  0.6726 -0.2109
 7386TIP3    H222123   3.246   3.057   4.349  0.0593 -0.3691  0.9457
 7387TIP3   OH222124   5.542   5.649   0.098  0.6018  0.4046 -0.9058
 7387TIP3    H122125   5.452   5.618   0.087 -0.2298  2.0253  0.6650
 7387TIP3    H222126   5.588   5.619   0.020 -1.3776 -0.1853 -1.9111
 7388TIP3   OH222127   5.729   0.505   1.277  0.4092 -0.0027  0.3693
 7388TIP3    H122128   5.784   0.538   1.206  0.8207 -0.4259  0.4852
 7388TIP3    H222129   5.789   0.497   1.352  0.3492 -1.1065  0.3103
 7389TIP3   OH222130   1.319   2.060   5.592 -0.5077 -0.3790 -0.3334
 7389TIP3    H122131   1.248   1.996   5.587 -1.1047  0.3649 -2.0966
 7389TIP3    H222132   1.276   2.145   5.583  0.6019  0.0673 -2.0091
 7390TIP3   OH222133   1.663   3.827   3.835 -0.3590  0.1445  0.2975
 7390TIP3    H122134   1.618   3.775   3.769  0.6360  0.7298 -0.8864
 7390TIP3    H222135   1.743   3.778   3.854  0.2676  0.8994 -0.3449
 7391TIP3   OH222136   2.466   1.045   0.032 -0.6440 -0.3666 -0.5826
 7391TIP3    H122137   2.547   0.994   0.025 -1.6026 -1.7437 -2.9040
 7391TIP3    H222138   2.398   0.979   0.050 -1.4897  0.5165 -0.4707
 7392TIP3   OH222139   5.559   3.886   5.637 -0.2184  0.2692  0.3314
 7392TIP3    H122140   5.494   3.816   5.636 -0.2444  0.2903  0.4946
 7392TIP3    H222141   5.564   3.917   5.546  0.8095 -0.8842 -0.0278
 7393TIP3   OH222142   4.033   2.695   5.563  0.2600 -0.3568  0.2917
 7393TIP3    H122143   4.107   2.720   5.619 -1.2999 -2.3430  3.5174
 7393TIP3    H222144   3.979   2.774   5.557  1.6648  0.5811 -0.5810
 7394TIP3   OH222145   1.030   4.163   1.317  0.3019  0.0525 -0.0565
 7394TIP3    H122146   1.019   4.236   1.257  0.0132  0.2358  0.2150
 7394TIP3    H222147   1.101   4.189   1.375  0.1964  0.1237  0.0429
 7395TIP3   OH222148   6.425   2.528   2.942 -0.3540 -0.3662  0.2705
 7395TIP3    H122149   6.472   2.459   2.894 -0.5938  0.0687 -0.6206
 7395TIP3    H222150   6.459   2.609   2.905 -1.4885 -0.0365 -0.1043
 7396TIP3   OH222151   0.995   6.265   4.973 -0.2774  0.2710  0.2803
 7396TIP3    H122152   1.081   6.235   4.943 -0.1959  0.4838  0.2945
 7396TIP3    H222153   0.935   6.246   4.901 -0.0224  1.0907 -0.1685
 7397TIP3   OH222154   2.414   4.797   4.376  0.3044  0.2773 -0.1341
 7397TIP3    H122155   2.369   4.783   4.292 -0.4649  1.4806  0.0543
 7397TIP3    H222156   2.464   4.877   4.363  1.3581 -0.3362  0.0961
 7398TIP3   OH222157   0.140   3.233   2.632 -0.3411 -0.1371  0.5964
 7398TIP3    H122158   0.173   3.166   2.572  0.8586  0.2098  0.8400
 7398TIP3    H222159   0.219   3.273   2.669 -1.0239  1.5654  0.2915
 7399TIP3   OH222160   0.086   4.361   0.273  0.5650 -0.0865  0.1133
 7399TIP3    H122161   0.155   4.427   0.285 -0.1949  0.5448  1.1919
 7399TIP3    H222162   0.133   4.281   0.252  1.6420  0.3025  0.9693
 7400TIP3   OH222163   5.101   5.680   2.595  0.3072  0.5007  0.0376
 7400TIP3    H122164   5.143   5.594   2.589 -1.4101 -0.6171  2.6387
 7400TIP3    H222165   5.168   5.737   2.632  1.0237 -0.0291 -0.4177
 7401TIP3   OH222166   3.300   5.350   2.670  0.6097  0.6703  0.5242
 7401TIP3    H122167   3.207   5.348   2.650  1.0434 -1.1071 -1.7535
 7401TIP3    H222168   3.325   5.442   2.659 -0.2365  0.6555 -2.6362
 7402TIP3   OH222169   6.308   4.808   5.176 -0.1658  0.2499 -0.3463
 7402TIP3    H122170   6.360   4.795   5.256  0.4554 -1.5695 -1.0043
 7402TIP3    H222171   6.243   4.738   5.179 -0.3310  0.3597 -1.2929
 7403TIP3   OH222172   6.057   3.044   4.331  0.2923 -0.2396 -0.0535
 7403TIP3    H122173   5.997   3.114   4.307  1.4275 -0.0268 -2.6748
 7403TIP3    H222174   6.144   3.082   4.316  1.0715 -1.0177  2.1822
 7404TIP3   OH222175   4.763   6.112   4.446  0.8033 -0.2471 -0.2577
 7404TIP3    H122176   4.832   6.146   4.503  2.2503 -1.5603 -1.1471
 7404TIP3    H222177   4.756   6.177   4.376 -2.1813  2.2780  2.0894
 7405TIP3   OH222178   1.686   6.336   2.872  0.0496  0.0540  0.0859
 7405TIP3    H122179   1.731   6.256   2.901 -1.5182 -0.6941  0.6139
 7405TIP3    H222180   1.603   6.335   2.921  0.2559  2.3483  0.5609
 7406TIP3   OH222181   0.018   1.056   5.886 -0.2131  0.1791  0.6041
 7406TIP3    H122182   0.037   0.995   5.815 -0.8117 -0.7170  1.1968
 7406TIP3    H222183   0.094   1.114   5.888 -0.2825  0.3584 -0.8965
 7407TIP3   OH222184   5.995   3.182   5.704 -0.3918  0.1714  0.1670
 7407TIP3    H122185   5.949   3.250   5.754  0.2913  0.3546  0.5548
 7407TIP3    H222186   6.071   3.227   5.667  0.7130 -0.6281  1.3881
 7408TIP3   OH222187   0.809   5.170   0.290 -0.2017 -0.1963 -0.4124
 7408TIP3    H122188   0.820   5.259   0.256 -1.3325  0.3511  0.5723
 7408TIP3    H222189   0.761   5.182   0.372 -2.3793 -1.8792 -1.3446
 7409TIP3   OH222190   2.451   4.217   4.639  0.0835 -0.1482 -0.5966
 7409TIP3    H122191   2.436   4.302   4.681  2.2015  1.1091 -2.2094
 7409TIP3    H222192   2.476   4.159   4.711 -0.1396  0.9030  0.3641
 7410TIP3   OH222193   6.733   2.794   1.545 -0.2636 -0.1427 -0.4826
 7410TIP3    H122194   6.740   2.737   1.469 -0.3869  0.5570 -1.0229
 7410TIP3    H222195   6.640   2.789   1.570 -0.1275 -0.7520 -0.0722
 7411TIP3   OH222196   2.163   6.378   3.535  0.1353  0.3240  0.5979
 7411TIP3    H122197   2.220   6.352   3.463  0.1893  0.4890  0.5812
 7411TIP3    H222198   2.082   6.329   3.520 -0.9025  2.4250 -1.1404
 7412TIP3   OH222199   1.529   5.282   1.687  0.1441  0.2919 -0.4262
 7412TIP3    H122200   1.532   5.306   1.780  0.0016  1.2014 -0.6510
 7412TIP3    H222201   1.436   5.268   1.669  0.3176 -1.7216  0.0062
 7413TIP3   OH222202   3.622   5.671   5.149 -0.1072  0.2240 -0.3098
 7413TIP3    H122203   3.554   5.737   5.137 -0.4494 -0.4184 -2.0388
 7413TIP3    H222204   3.578   5.597   5.189  0.4412  1.2433  2.4765
 7414TIP3   OH222205   2.129   1.926   0.599 -0.2884 -0.1439  0.5769
 7414TIP3    H122206   2.186   2.002   0.608  0.5811 -0.4916 -1.4322
 7414TIP3    H222207   2.154   1.869   0.672  2.9057 -0.8312 -0.8729
 7415TIP3   OH222208   7.137   5.336   5.051 -0.3377 -0.1017 -0.5183
 7415TIP3    H122209   7.093   5.317   5.134  0.1377  0.8175 -0.0441
 7415TIP3    H222210   7.147   5.250   5.010  1.6070 -0.9466  1.4722
 7416TIP3   OH222211   2.407   4.179   2.090  0.4212 -0.3428 -0.2063
 7416TIP3    H122212   2.460   4.235   2.033  1.2388  0.4592  1.2780
 7416TIP3    H222213   2.318   4.189   2.058  0.5941  1.5647 -0.1921
 7417TIP3   OH222214   0.156   4.049   2.442 -0.7310  0.4313  0.9375
 7417TIP3    H122215   0.123   4.135   2.416 -0.3441  0.2062 -0.3777
 7417TIP3    H222216   0.245   4.067   2.475 -0.8223  0.5879  1.1016
 7418TIP3   OH222217   3.675   4.423   0.839 -0.5051 -0.3799  0.0315
 7418TIP3    H122218   3.621   4.491   0.798  0.3065  0.3162  0.0836
 7418TIP3    H222219   3.734   4.395   0.769  0.1879  0.0728  0.4188
 7419TIP3   OH222220   2.922   5.989   0.798  0.0951  0.3359 -0.9302
 7419TIP3    H122221   2.933   5.901   0.833  0.1723 -0.0549 -1.8987
 7419TIP3    H222222   2.829   6.008   0.806  0.2412  0.5919  0.2449
 7420TIP3   OH222223   1.970   6.077   4.031 -0.2830 -0.2933 -0.2579
 7420TIP3    H122224   2.064   6.061   4.032 -0.2181 -0.1551 -1.6576
 7420TIP3    H222225   1.935   6.011   3.971 -0.8353  0.7150 -1.0838
 7421TIP3   OH222226   4.985   3.254   2.580  0.3199  0.1431  0.3253
 7421TIP3    H122227   5.046   3.203   2.633  1.2179  0.7767 -0.0840
 7421TIP3    H222228   5.010   3.345   2.596 -1.0726  0.4729  0.8227
 7422TIP3   OH222229   5.530   4.158   5.072  0.0438  0.0207 -0.2291
 7422TIP3    H122230   5.504   4.246   5.046  2.9038  0.7878 -0.8911
 7422TIP3    H222231   5.517   4.156   5.167  1.0037  1.6009 -0.0307
 7423TIP3   OH222232   1.185   1.536   2.073 -0.0229 -0.2893 -0.0852
 7423TIP3    H122233   1.213   1.525   2.164 -0.2924 -2.4809 -0.2112
 7423TIP3    H222234   1.114   1.600   2.077  1.0846  0.9441  0.9813
 7424TIP3   OH222235   7.094   0.857   3.596 -0.0036 -0.3378 -0.0314
 7424TIP3    H122236   7.129   0.935   3.639 -0.2351 -1.0680  1.5178
 7424TIP3    H222237   7.105   0.786   3.659 -0.9155 -1.3322 -0.9321
 7425TIP3   OH222238   1.869   4.237   3.227 -0.0947  0.0250  0.1417
 7425TIP3    H122239   1.884   4.180   3.152  1.8505  0.0005  0.4880
 7425TIP3    H222240   1.887   4.181   3.303  1.2065  0.8884  0.5029
 7426TIP3   OH222241   3.579   1.745   4.648  0.2652  0.4287  0.0594
 7426TIP3    H122242   3.577   1.773   4.557 -2.4741 -0.6583 -0.3040
 7426TIP3    H222243   3.668   1.713   4.661  0.6744  0.4588 -2.2657
 7427TIP3   OH222244   4.399   3.003   5.381 -0.4273  0.0589 -0.3366
 7427TIP3    H122245   4.382   2.913   5.355 -0.7334 -0.1297  0.5024
 7427TIP3    H222246   4.475   2.997   5.439  0.5032  0.5219 -1.4531
 7428TIP3   OH222247   4.598   6.632   2.438 -0.4095  0.1578  0.7826
 7428TIP3    H122248   4.666   6.668   2.496  1.1507 -0.2918 -0.6959
 7428TIP3    H222249   4.598   6.690   2.362 -0.4811 -0.8068  0.0247
 7429TIP3   OH222250   6.280   0.221   1.912  0.2753  0.2412  0.5121
 7429TIP3    H122251   6.285   0.278   1.836  1.3316  0.5592  0.8080
 7429TIP3    H222252   6.204   0.165   1.895  0.1102  0.7429 -0.4608
 7430TIP3   OH222253   4.186   2.113   4.109 -0.1236  0.3845  0.7612
 7430TIP3    H122254   4.127   2.151   4.174 -0.8752 -0.5326  0.6424
 7430TIP3    H222255   4.170   2.018   4.115 -0.6642  0.3011 -1.1659
 7431TIP3   OH222256   4.364   2.523   4.868 -0.6188  0.4396  0.1369
 7431TIP3    H122257   4.311   2.601   4.849 -2.9730 -1.0010  0.3017
 7431TIP3    H222258   4.366   2.518   4.963 -1.0369 -0.0333  0.1245
 7432TIP3   OH222259   2.769   1.257   1.905  0.6970  0.7244  0.0828
 7432TIP3    H122260   2.730   1.175   1.873 -0.6277  1.0051  0.8885
 7432TIP3    H222261   2.696   1.303   1.945  1.7903  1.5114  1.2225
 7433TIP3   OH222262   3.694   4.747   4.720  0.3149  0.1274 -0.1208
 7433TIP3    H122263   3.730   4.669   4.679  2.3295  0.1864  1.3577
 7433TIP3    H222264   3.622   4.773   4.664 -2.0949 -4.1604  0.5767
 7434TIP3   OH222265   3.343   6.755   2.544  0.0894 -0.0704  0.1922
 7434TIP3    H122266   3.436   6.778   2.552  0.1962 -0.6962  0.8625
 7434TIP3    H222267   3.320   6.717   2.629 -0.6414 -0.4180 -0.1515
 7435TIP3   OH222268   1.957   0.246   3.127  0.0098 -0.7204 -0.6447
 7435TIP3    H122269   1.869   0.262   3.160 -0.3095 -0.5507 -1.5576
 7435TIP3    H222270   1.952   0.160   3.085  0.1877 -0.5545 -1.0082
 7436TIP3   OH222271   7.145   0.760   3.340  0.2649  0.9104  0.2450
 7436TIP3    H122272   7.125   0.668   3.355  0.0712  1.0234  0.7009
 7436TIP3    H222273   7.142   0.800   3.427 -1.2855  1.6615 -0.1142
 7437TIP3   OH222274   6.608   1.161   2.889 -0.0104  0.5655 -0.2980
 7437TIP3    H122275   6.533   1.125   2.841 -1.3392  0.7509  1.5068
 7437TIP3    H222276   6.675   1.094   2.883 -1.3739 -0.9456  0.4823
 7438TIP3   OH222277   0.137   0.853   5.734  0.1111 -0.1901 -0.1604
 7438TIP3    H122278   0.151   0.914   5.662  0.0713 -2.2181 -1.9862
 7438TIP3    H222279   0.085   0.782   5.696 -1.0169 -0.7402  2.2235
 7439TIP3   OH222280   6.200   6.485   0.195 -0.7135  0.2861 -0.6394
 7439TIP3    H122281   6.230   6.462   0.107 -2.2505 -1.0680 -0.8558
 7439TIP3    H222282   6.215   6.406   0.246  0.2587  1.0942  0.3816
 7440TIP3   OH222283   0.314   6.075   4.689 -0.4294  0.4194  0.2817
 7440TIP3    H122284   0.374   6.004   4.712 -1.0355  0.4124  2.0217
 7440TIP3    H222285   0.228   6.043   4.717 -0.8269  1.5188  0.3467
 7441TIP3   OH222286   4.968   4.230   4.579 -0.1752  0.6528  0.2424
 7441TIP3    H122287   5.035   4.172   4.544 -1.1950 -0.3243 -0.1764
 7441TIP3    H222288   5.016   4.299   4.625  1.1938  1.2452 -1.9263
 7442TIP3   OH222289   2.469   3.760   0.721  0.1680  0.6209 -0.1689
 7442TIP3    H122290   2.506   3.793   0.803  0.7985 -2.2247  0.7876
 7442TIP3    H222291   2.389   3.715   0.747  0.6099 -0.7084 -1.0311
 7443TIP3   OH222292   2.657   5.102   1.750 -0.1950 -1.0313 -0.1952
 7443TIP3    H122293   2.570   5.124   1.715 -0.1784  1.5128  1.1678
 7443TIP3    H222294   2.706   5.184   1.747  2.0899 -2.3240 -0.5421
 7444TIP3   OH222295   2.240   4.624   3.213 -0.6838  0.8827 -0.1474
 7444TIP3    H122296   2.249   4.674   3.132  0.1591 -0.6725 -1.0638
 7444TIP3    H222297   2.170   4.562   3.195 -0.4462  0.4834  0.2948
 7445TIP3   OH222298   0.143   2.932   4.612 -0.1366  0.7404  0.2683
 7445TIP3    H122299   0.148   2.986   4.533  0.6211  0.4062  0.0764
 7445TIP3    H222300   0.210   2.864   4.599  0.2044  0.8556  1.3201
 7446TIP3   OH222301   1.004   5.510   5.249 -0.0441 -0.1989 -0.0328
 7446TIP3    H122302   0.976   5.447   5.183 -3.5261  1.9784 -0.8700
 7446TIP3    H222303   1.048   5.579   5.200 -1.6334  0.8746 -0.0127
 7447TIP3   OH222304   1.797   0.643   3.790 -0.3569  0.1919 -0.1622
 7447TIP3    H122305   1.769   0.585   3.861 -0.9810  0.9237  0.1940
 7447TIP3    H222306   1.891   0.657   3.807 -0.2097 -0.6515 -0.2187
 7448TIP3   OH222307   0.901   3.442   0.076 -0.2583 -0.5699 -0.6343
 7448TIP3    H122308   0.859   3.435   0.162 -0.6721 -0.1310 -0.7939
 7448TIP3    H222309   0.885   3.358   0.034 -0.6027 -0.5610 -0.5221
 7449TIP3   OH222310   4.751   2.351   5.879 -0.0376 -0.0625 -0.4568
 7449TIP3    H122311   4.823   2.383   5.824  0.4161 -1.4022 -0.6694
 7449TIP3    H222312   4.773   2.380   5.967  1.7141 -1.9402 -0.2161
 7450TIP3   OH222313   2.871   4.536   5.446  0.1929  0.7475  0.4993
 7450TIP3    H122314   2.829   4.599   5.505 -0.4830 -0.3805  1.2526
 7450TIP3    H222315   2.965   4.554   5.455 -0.0151  2.0118  0.2693
 7451TIP3   OH222316   1.602   1.495   0.433 -0.2806  0.0892 -0.0326
 7451TIP3    H122317   1.568   1.576   0.394 -1.1598  0.2060  0.9212
 7451TIP3    H222318   1.558   1.490   0.518  1.2232 -0.3876  0.7552
 7452TIP3   OH222319   5.740   3.732   2.687  0.8789 -0.2543  0.1231
 7452TIP3    H122320   5.668   3.670   2.695  1.5660 -1.0065  0.7190
 7452TIP3    H222321   5.701   3.817   2.707  0.0863 -0.5992  0.0927
 7453TIP3   OH222322   3.640   4.994   4.929 -0.2185  0.0852  0.3674
 7453TIP3    H122323   3.672   5.060   4.869  0.5211 -2.5018 -2.3030
 7453TIP3    H222324   3.553   4.970   4.895 -0.2242 -0.7200  0.9032
 7454TIP3   OH222325   1.365   3.611   5.273  0.2349 -0.5806 -0.0750
 7454TIP3    H122326   1.272   3.595   5.256  0.4335 -2.7588  0.4922
 7454TIP3    H222327   1.397   3.652   5.193 -1.6210  2.3846  0.5729
 7455TIP3   OH222328   1.659   5.759   0.652  0.2849 -0.2014  0.5758
 7455TIP3    H122329   1.731   5.820   0.635  0.8923 -0.8845  0.6743
 7455TIP3    H222330   1.638   5.772   0.744  1.4478 -1.2241  1.0037
 7456TIP3   OH222331   2.671   1.945   4.318 -0.0481 -0.1498  0.1866
 7456TIP3    H122332   2.619   1.983   4.389 -0.5570  1.2698 -0.8979
 7456TIP3    H222333   2.606   1.925   4.251  0.6954  1.0239 -0.9204
 7457TIP3   OH222334   0.407   1.359   1.172 -0.0367  0.5066 -0.0386
 7457TIP3    H122335   0.388   1.358   1.266  0.2122 -1.1137  0.0172
 7457TIP3    H222336   0.331   1.401   1.133 -1.4102 -1.1993  0.6684
 7458TIP3   OH222337   5.623   4.933   2.472 -0.0899  0.3600 -0.3526
 7458TIP3    H122338   5.608   4.839   2.481 -2.2996  0.5388 -1.3804
 7458TIP3    H222339   5.618   4.949   2.378  1.3056  1.3862 -0.2782
 7459TIP3   OH222340   5.506   1.105   3.127  0.3808 -0.4335 -0.1652
 7459TIP3    H122341   5.429   1.070   3.171 -0.1357  0.4453 -0.3489
 7459TIP3    H222342   5.474   1.134   3.041  1.1992 -1.3253 -0.7848
 7460TIP3   OH222343   6.723   5.089   1.582  0.1231 -0.1009 -0.4582
 7460TIP3    H122344   6.712   5.007   1.631  0.3698  0.5821  0.7844
 7460TIP3    H222345   6.800   5.130   1.622 -0.8310  1.3957 -0.0961
 7461TIP3   OH222346   4.438   1.906   4.927 -0.8961 -0.3213 -0.6177
 7461TIP3    H122347   4.372   1.965   4.893 -0.7951  0.0932 -0.1023
 7461TIP3    H222348   4.474   1.863   4.850 -0.7284  0.5437 -1.0286
 7462TIP3   OH222349   5.450   6.043   1.790  0.5132  0.0475 -0.6415
 7462TIP3    H122350   5.511   6.042   1.716  0.6991  1.8658 -0.5422
 7462TIP3    H222351   5.377   5.987   1.762  0.9852  0.0124 -1.8329
 7463TIP3   OH222352   3.345   1.988   5.504  0.1878  0.4539  0.2035
 7463TIP3    H122353   3.390   1.984   5.588 -0.0229  0.7883  0.3322
 7463TIP3    H222354   3.342   1.897   5.474  0.7513  0.4005  0.2977
 7464TIP3   OH222355   5.286   5.621   3.372  0.3386 -0.7264  0.1207
 7464TIP3    H122356   5.308   5.529   3.385  0.7081 -0.4131  2.0018
 7464TIP3    H222357   5.329   5.644   3.290 -1.1677 -2.6313 -1.3044
 7465TIP3   OH222358   4.580   6.248   0.931  0.0105 -0.4848  0.0190
 7465TIP3    H122359   4.621   6.332   0.950 -1.6492  0.2770  0.3587
 7465TIP3    H222360   4.576   6.244   0.836 -1.0370  0.3973  0.0193
 7466TIP3   OH222361   2.774   4.415   1.364  0.1667  0.3826  0.0139
 7466TIP3    H122362   2.795   4.342   1.422 -1.4141 -0.5296 -0.4927
 7466TIP3    H222363   2.849   4.474   1.372  1.9314 -1.6933 -0.2454
 7467TIP3   OH222364   4.153   0.218   1.825 -0.0180  0.3529 -0.3157
 7467TIP3    H122365   4.117   0.230   1.737 -0.3088  0.2427 -0.2148
 7467TIP3    H222366   4.086   0.168   1.871 -1.0034  2.4846  0.7190
 7468TIP3   OH222367   3.700   2.558   1.128 -0.0117  0.5454 -0.3061
 7468TIP3    H122368   3.770   2.618   1.152  0.4768  0.9865 -2.5566
 7468TIP3    H222369   3.735   2.509   1.053 -1.8115  0.2562 -1.0178
 7469TIP3   OH222370   6.523   5.346   3.642  0.6544 -0.0149 -0.1241
 7469TIP3    H122371   6.433   5.363   3.614  0.6008  0.9496  0.5867
 7469TIP3    H222372   6.553   5.429   3.680  1.3921 -0.6878  0.8230
 7470TIP3   OH222373   1.134   3.312   2.121  0.3406  0.0452 -0.0128
 7470TIP3    H122374   1.186   3.296   2.200  1.9072  1.7873 -0.6255
 7470TIP3    H222375   1.197   3.343   2.056 -0.9908 -0.8699 -1.8339
 7471TIP3   OH222376   6.569   4.414   5.051 -0.0689  1.1213  0.1163
 7471TIP3    H122377   6.505   4.457   4.993 -1.3349  0.0108  0.6277
 7471TIP3    H222378   6.610   4.348   4.996 -2.0749 -0.7047  0.6774
 7472TIP3   OH222379   6.204   0.892   2.403  0.2690 -0.2938  0.5622
 7472TIP3    H122380   6.139   0.911   2.335  1.3151  0.7849 -0.1741
 7472TIP3    H222381   6.152   0.879   2.483 -0.8068  2.3981  0.4202
 7473TIP3   OH222382   5.003   1.433   4.186  0.1266  0.4472 -0.1043
 7473TIP3    H122383   5.011   1.518   4.230 -1.0996 -0.1084  1.2484
 7473TIP3    H222384   5.034   1.369   4.250  0.0150 -0.2334 -0.7093
 7474TIP3   OH222385   6.180   3.892   4.190 -0.2883  0.6473  0.1260
 7474TIP3    H122386   6.221   3.864   4.108 -0.3893  0.1592  0.2417
 7474TIP3    H222387   6.253   3.901   4.252 -0.4252 -1.1958  0.6182
 7475TIP3   OH222388   5.585   0.429   2.033 -0.5234 -0.6470  0.1055
 7475TIP3    H122389   5.508   0.398   2.081 -0.8585 -1.7315 -1.0974
 7475TIP3    H222390   5.593   0.521   2.059 -1.7786 -0.7112  0.8210
 7476TIP3   OH222391   5.709   1.320   5.299 -0.1549  1.2992 -0.2858
 7476TIP3    H122392   5.692   1.413   5.316 -0.8520  0.8405  1.7887
 7476TIP3    H222393   5.744   1.286   5.382 -0.3364 -0.3889 -0.8648
 7477TIP3   OH222394   4.137   0.631   4.100 -0.1366  0.9274  0.2324
 7477TIP3    H122395   4.068   0.667   4.155 -1.7259 -1.2947 -0.1674
 7477TIP3    H222396   4.156   0.701   4.037  0.5774  2.8971  2.4792
 7478TIP3   OH222397   0.996   5.240   5.635 -0.1552  0.8260  0.2487
 7478TIP3    H122398   0.975   5.324   5.594  0.1375  0.6426 -0.2783
 7478TIP3    H222399   1.030   5.186   5.564  3.0861  1.4288  1.2141
 7479TIP3   OH222400   2.177   4.806   0.629  0.2153 -0.4022  0.2071
 7479TIP3    H122401   2.095   4.829   0.585 -0.5860 -0.8613  1.4086
 7479TIP3    H222402   2.196   4.717   0.600 -0.9873 -1.1978  1.6500
 7480TIP3   OH222403   1.499   1.401   1.357 -0.0483  0.9080 -0.4184
 7480TIP3    H122404   1.446   1.420   1.435  0.9400  2.2581 -0.0332
 7480TIP3    H222405   1.442   1.424   1.284 -1.8179 -2.4526 -0.2734
 7481TIP3   OH222406   3.300   0.783   3.827 -0.5210  0.2850 -0.0007
 7481TIP3    H122407   3.272   0.760   3.916 -1.2826 -0.5565 -0.4417
 7481TIP3    H222408   3.273   0.875   3.817 -0.3723  0.4085  0.6488
 7482TIP3   OH222409   2.510   0.611   3.199 -0.1257 -0.2856  0.0684
 7482TIP3    H122410   2.514   0.683   3.262  0.8043 -1.6908  1.6773
 7482TIP3    H222411   2.584   0.555   3.221 -1.2372 -2.1223 -0.6764
 7483TIP3   OH222412   1.010   0.824   1.210  0.2443 -0.4095  0.3863
 7483TIP3    H122413   0.936   0.816   1.150  0.7982  1.1668 -0.5611
 7483TIP3    H222414   0.998   0.910   1.252  1.9583  0.2916 -0.4414
 7484TIP3   OH222415   6.002   0.506   4.572  0.0399  0.0509 -0.2175
 7484TIP3    H122416   6.055   0.582   4.549 -1.1427  0.7368 -0.7630
 7484TIP3    H222417   5.924   0.542   4.614 -0.5020 -0.8609 -0.4041
 7485TIP3   OH222418   5.920   2.048   0.970  0.6936 -0.2898 -0.3847
 7485TIP3    H122419   5.938   2.022   0.880 -2.1864 -0.6057 -0.9925
 7485TIP3    H222420   5.940   1.970   1.023  0.0328 -0.9761 -1.1154
 7486TIP3   OH222421   5.482   0.525   5.352 -0.4969 -0.5440 -0.5696
 7486TIP3    H122422   5.450   0.596   5.408  1.2144  0.4899 -0.8260
 7486TIP3    H222423   5.557   0.490   5.399  0.3798 -0.3013 -1.7521
 7487TIP3   OH222424   3.780   0.685   0.394  0.0942 -0.4424 -0.3573
 7487TIP3    H122425   3.815   0.614   0.341  1.1145 -1.3025  1.3886
 7487TIP3    H222426   3.688   0.692   0.367  0.7046 -0.4258 -2.6196
 7488TIP3   OH222427   7.088   1.350   0.754  0.1185 -0.2096  0.4589
 7488TIP3    H122428   7.003   1.393   0.765 -0.1009 -0.3982 -0.4165
 7488TIP3    H222429   7.066   1.262   0.724  0.6415 -0.0609 -0.3691
 7489TIP3   OH222430   2.014   3.403   3.730  0.2162  0.2125 -0.7294
 7489TIP3    H122431   1.947   3.352   3.683  1.0239 -2.2126  0.5904
 7489TIP3    H222432   1.996   3.387   3.822  1.1121  1.6002 -0.2844
 7490TIP3   OH222433   3.871   4.446   1.458 -0.1617 -0.1176 -0.3648
 7490TIP3    H122434   3.966   4.433   1.458  0.2458  2.3531  0.7791
 7490TIP3    H222435   3.859   4.533   1.421 -1.7131  0.8938  2.2491
 7491TIP3   OH222436   5.565   1.247   0.419  0.0952 -0.1003  0.0077
 7491TIP3    H122437   5.514   1.167   0.411  0.2164 -0.1895  0.1212
 7491TIP3    H222438   5.626   1.245   0.346 -0.9573  0.6667 -0.9445
 7492TIP3   OH222439   6.913   5.364   3.906 -0.2168 -0.1274  0.1955
 7492TIP3    H122440   6.932   5.308   3.981  0.5162  1.2322  1.0706
 7492TIP3    H222441   6.856   5.311   3.851 -0.6234 -1.2435  1.6091
 7493TIP3   OH222442   2.189   3.984   1.104 -0.1442 -0.0172 -0.2162
 7493TIP3    H122443   2.152   3.903   1.137  1.7335 -1.5398 -1.5676
 7493TIP3    H222444   2.114   4.037   1.079 -1.4312 -1.0498  1.3173
 7494TIP3   OH222445   3.131   3.037   4.708  0.2287 -0.0094  0.6302
 7494TIP3    H122446   3.120   3.119   4.660 -1.6185  0.2185  1.3658
 7494TIP3    H222447   3.073   2.975   4.664 -0.6663 -0.0890  1.8892
 7495TIP3   OH222448   5.873   4.121   4.988  0.0082  0.3563 -0.7979
 7495TIP3    H122449   5.853   4.053   5.053  1.0735 -0.0765 -0.9083
 7495TIP3    H222450   5.843   4.202   5.029  0.0309  0.0046 -0.0533
 7496TIP3   OH222451   4.633   5.691   4.064 -0.2235  0.3177  0.2906
 7496TIP3    H122452   4.662   5.782   4.055 -0.2700  0.3207  0.1754
 7496TIP3    H222453   4.700   5.640   4.019 -0.3598  0.3185  0.0892
 7497TIP3   OH222454   4.625   0.844   3.221  0.1422  0.2167  0.0498
 7497TIP3    H122455   4.721   0.853   3.224  0.4106 -1.5348 -1.3346
 7497TIP3    H222456   4.608   0.806   3.135 -1.4794 -2.5783  1.4851
 7498TIP3   OH222457   2.174   6.712   4.402 -0.0233 -0.3437  0.2470
 7498TIP3    H122458   2.232   6.763   4.459  0.5885 -1.3834  0.5803
 7498TIP3    H222459   2.101   6.772   4.382 -0.8017 -0.2299  2.9666
 7499TIP3   OH222460   1.416   3.968   3.449 -0.1825  0.3754 -0.0617
 7499TIP3    H122461   1.436   3.942   3.539  0.7266 -3.0603 -1.0833
 7499TIP3    H222462   1.502   3.987   3.411 -0.2052 -1.0379 -0.8925
 7500TIP3   OH222463   5.250   5.447   2.625  0.9719  0.4226  0.1263
 7500TIP3    H122464   5.284   5.365   2.660  1.9029 -1.0448 -3.7229
 7500TIP3    H222465   5.308   5.469   2.552 -1.1479  2.7357 -1.0609
 7501TIP3   OH222466   1.714   5.781   0.910 -0.3082 -0.6028 -0.4963
 7501TIP3    H122467   1.796   5.823   0.885 -0.3002 -1.0924 -1.3251
 7501TIP3    H222468   1.734   5.687   0.908 -0.4160 -0.6791  1.0108
 7502TIP3   OH222469   6.338   0.268   3.355  0.0267 -0.2186 -0.2608
 7502TIP3    H122470   6.306   0.353   3.387  0.3873  0.2507 -1.0899
 7502TIP3    H222471   6.368   0.222   3.433 -0.0943  0.4598  0.1946
 7503TIP3   OH222472   5.529   3.555   3.465  0.7703 -0.0993 -0.4692
 7503TIP3    H122473   5.498   3.572   3.376 -1.0195 -0.6971 -0.0117
 7503TIP3    H222474   5.623   3.542   3.456  1.0593  2.3788 -1.8951
 7504TIP3   OH222475   2.518   2.060   3.275  0.1357  0.3101  0.1454
 7504TIP3    H122476   2.592   2.045   3.333 -1.5420 -2.4151  1.7904
 7504TIP3    H222477   2.449   2.094   3.332 -0.7137  0.1846 -0.7754
 7505TIP3   OH222478   5.426   5.558   4.286  0.8271  0.6210 -0.0915
 7505TIP3    H122479   5.489   5.495   4.321  0.7928  0.6365 -0.0007
 7505TIP3    H222480   5.413   5.532   4.195  1.2184  0.8159 -0.2072
 7506TIP3   OH222481   0.265   4.629   3.026  0.1294 -0.8307  0.1016
 7506TIP3    H122482   0.343   4.617   3.080  0.9216 -0.6462 -0.9733
 7506TIP3    H222483   0.292   4.691   2.958 -0.7954 -1.1654 -0.5913
 7507TIP3   OH222484   5.140   6.580   4.464  0.2544  0.5041  0.1043
 7507TIP3    H122485   5.218   6.523   4.464 -0.1531 -0.0728 -1.0116
 7507TIP3    H222486   5.165   6.655   4.410  0.2898  0.6798  0.3646
 7508TIP3   OH222487   1.218   0.092   0.633  0.2336 -0.5533  0.0107
 7508TIP3    H122488   1.218   0.020   0.570  0.7760 -0.8859  0.3838
 7508TIP3    H222489   1.170   0.163   0.589 -1.4631 -1.5677  0.1458
 7509TIP3   OH222490   4.554   2.766   2.161 -0.0278 -0.7421  0.0542
 7509TIP3    H122491   4.509   2.781   2.244  0.5454  1.1367  0.0752
 7509TIP3    H222492   4.574   2.854   2.128  1.0119 -1.4660 -1.3781
 7510TIP3   OH222493   3.576   1.354   5.073  0.9818 -0.1577 -0.3554
 7510TIP3    H122494   3.640   1.396   5.015  0.4281  0.9056 -0.2232
 7510TIP3    H222495   3.515   1.424   5.095  0.3560 -0.9121  0.3454
 7511TIP3   OH222496   1.289   5.929   5.470  0.2167  0.3327  0.2141
 7511TIP3    H122497   1.211   5.916   5.415  0.6638  0.0447 -0.3585
 7511TIP3    H222498   1.255   5.925   5.559 -0.4631  0.4241 -0.0294
 7512TIP3   OH222499   3.504   2.008   1.266  0.5774  0.3782  0.3013
 7512TIP3    H122500   3.410   1.995   1.255  0.6846  1.5592 -4.1608
 7512TIP3    H222501   3.511   2.074   1.335 -2.0871  1.9641 -0.7807
 7513TIP3   OH222502   5.943   2.415   2.690  0.0293  0.5328 -0.1568
 7513TIP3    H122503   5.867   2.448   2.737 -0.4287 -0.5030 -0.1319
 7513TIP3    H222504   6.019   2.445   2.740 -0.3269  1.9686 -0.4334
 7514TIP3   OH222505   6.355   5.820   4.699 -0.2071  0.0960 -0.1048
 7514TIP3    H122506   6.390   5.805   4.787  1.1634  2.3256 -0.2147
 7514TIP3    H222507   6.429   5.804   4.641 -0.5053  0.7949 -0.6834
 7515TIP3   OH222508   5.552   6.634   3.816 -0.4393 -0.0956 -0.3265
 7515TIP3    H122509   5.618   6.698   3.842 -0.2311  0.2376 -1.6270
 7515TIP3    H222510   5.516   6.667   3.734 -1.1180 -1.0820 -0.4543
 7516TIP3   OH222511   2.887   5.401   2.336 -0.5376 -0.0409 -0.4724
 7516TIP3    H122512   2.923   5.478   2.381 -1.2443 -0.3350  0.6212
 7516TIP3    H222513   2.879   5.429   2.244  0.6571  0.6624 -0.3743
 7517TIP3   OH222514   0.400   5.260   2.999  0.1169  0.1231 -0.2063
 7517TIP3    H122515   0.401   5.171   3.034 -0.7210 -0.0317 -0.5307
 7517TIP3    H222516   0.437   5.251   2.911  1.8349  0.4408  0.4531
 7518TIP3   OH222517   6.035   1.528   5.135 -0.3708 -0.0181  0.2045
 7518TIP3    H122518   6.107   1.498   5.079  1.1609  0.0132  2.0667
 7518TIP3    H222519   6.010   1.451   5.185 -0.1834  0.4761  1.0692
 7519TIP3   OH222520   5.211   3.710   3.086 -0.4691 -0.3241  0.0742
 7519TIP3    H122521   5.173   3.639   3.035  0.4781 -2.0917  1.7084
 7519TIP3    H222522   5.201   3.788   3.030 -2.7268 -1.4377 -1.2300
 7520TIP3   OH222523   1.319   6.551   4.804 -0.3090 -0.1950 -0.6606
 7520TIP3    H122524   1.381   6.624   4.800  0.4439 -0.8060 -0.5899
 7520TIP3    H222525   1.233   6.592   4.803  0.0920  0.7741  0.7137
 7521TIP3   OH222526   0.280   5.447   0.295 -0.0177  0.2286  0.6931
 7521TIP3    H122527   0.369   5.443   0.257  0.1333  0.2795  1.0409
 7521TIP3    H222528   0.246   5.358   0.285 -0.2591  0.4095 -0.2308
 7522TIP3   OH222529   5.493   5.474   1.201 -0.0804  0.1651  0.2151
 7522TIP3    H122530   5.464   5.526   1.127  0.4285  1.0907  0.6518
 7522TIP3    H222531   5.431   5.494   1.271 -0.2286 -0.2767  0.2165
 7523TIP3   OH222532   2.315   5.437   3.795  0.8213 -0.2118  0.2381
 7523TIP3    H122533   2.232   5.479   3.774  0.5740 -0.0587  1.4634
 7523TIP3    H222534   2.299   5.344   3.781 -0.0051 -0.3327  1.7949
 7524TIP3   OH222535   4.876   6.558   4.821 -0.5567 -0.1984  0.3235
 7524TIP3    H122536   4.883   6.463   4.818 -2.9505 -0.4485  0.5095
 7524TIP3    H222537   4.906   6.588   4.735 -1.4517 -1.2897 -0.3918
 7525TIP3   OH222538   0.714   2.577   4.203  0.0972  0.0923 -0.2832
 7525TIP3    H122539   0.711   2.535   4.117 -0.9463 -0.0839 -0.1816
 7525TIP3    H222540   0.797   2.548   4.241  0.6322  0.2646 -1.2689
 7526TIP3   OH222541   1.242   0.088   1.043  0.7028  0.1380 -0.2363
 7526TIP3    H122542   1.232   0.178   1.015  1.4362 -0.5571 -3.0450
 7526TIP3    H222543   1.185   0.080   1.119 -0.0336  2.7144 -0.4354
 7527TIP3   OH222544   2.753   4.746   0.231 -0.2618  0.1709  0.1455
 7527TIP3    H122545   2.713   4.833   0.225 -0.6121 -0.0101 -0.1963
 7527TIP3    H222546   2.725   4.712   0.315  0.2567  0.5725  0.4882
 7528TIP3   OH222547   2.592   5.952   5.202  0.1938 -0.0257  0.2780
 7528TIP3    H122548   2.626   5.913   5.122  2.4401 -0.0380  1.1841
 7528TIP3    H222549   2.633   5.903   5.273 -0.2936  1.1722  1.4336
 7529TIP3   OH222550   6.181   5.054   5.181  0.2487  0.1112 -0.2409
 7529TIP3    H122551   6.249   4.990   5.201  1.4284  0.9951 -1.3073
 7529TIP3    H222552   6.101   5.015   5.216  0.9638 -1.8662 -0.6807
 7530TIP3   OH222553   2.355   3.131   2.195 -0.0254  0.2499  0.9652
 7530TIP3    H122554   2.280   3.104   2.248  0.3528 -0.1864  1.2865
 7530TIP3    H222555   2.402   3.050   2.178 -0.1331  0.3816 -0.0407
 7531TIP3   OH222556   0.041   1.650   4.381  0.4540  0.1032  0.0572
 7531TIP3    H122557   0.022   1.740   4.355  0.3958 -0.5639 -2.5015
 7531TIP3    H222558   0.119   1.626   4.331  0.3866 -1.2971  0.5751
 7532TIP3   OH222559   3.879   3.514   4.558 -0.0190 -0.2925  0.0501
 7532TIP3    H122560   3.813   3.445   4.566  0.2427 -0.6261 -0.6225
 7532TIP3    H222561   3.834   3.594   4.586  0.2217 -1.0123  2.6972
 7533TIP3   OH222562   1.899   6.668   1.746  0.3513  0.5467 -0.4870
 7533TIP3    H122563   1.957   6.729   1.701  0.9267  0.3491 -0.0257
 7533TIP3    H222564   1.821   6.663   1.691  1.1197  0.1381 -1.5564
 7534TIP3   OH222565   3.856   3.624   1.146 -0.3421  0.0966  0.0732
 7534TIP3    H122566   3.842   3.662   1.233 -2.1789 -2.8297  1.2248
 7534TIP3    H222567   3.769   3.622   1.107  0.3822  0.8808 -1.6700
 7535TIP3   OH222568   1.549   3.415   5.120 -0.7723  0.1761 -0.5069
 7535TIP3    H122569   1.600   3.474   5.064 -0.6758  1.2398  0.6470
 7535TIP3    H222570   1.602   3.406   5.200 -0.0525 -2.7330 -1.1982
 7536TIP3   OH222571   4.831   0.911   2.028 -0.1756  0.3633  0.4632
 7536TIP3    H122572   4.804   0.976   2.092 -2.6233  0.1789 -0.3012
 7536TIP3    H222573   4.834   0.958   1.945  0.3686  0.0206  0.2805
 7537TIP3   OH222574   1.442   3.864   1.620 -0.0819 -0.1257 -0.7497
 7537TIP3    H122575   1.365   3.915   1.595  0.8506  1.7743  0.0353
 7537TIP3    H222576   1.514   3.903   1.569  0.5865 -1.0253 -0.5208
 7538TIP3   OH222577   2.005   5.708   1.689  0.1895  0.4555 -0.2064
 7538TIP3    H122578   1.996   5.708   1.784 -1.9601  0.7976 -0.3678
 7538TIP3    H222579   1.971   5.793   1.662  1.7556  0.7940 -1.2394
 7539TIP3   OH222580   3.609   3.109   4.415 -0.2081 -0.0859 -0.1612
 7539TIP3    H122581   3.600   3.014   4.419 -0.7946 -0.1950 -2.3736
 7539TIP3    H222582   3.519   3.142   4.413 -0.0522  0.6947  2.2272
 7540TIP3   OH222583   5.436   6.100   3.140 -0.0244  0.2066 -0.4086
 7540TIP3    H122584   5.457   6.182   3.186  0.1602  0.8317 -1.5801
 7540TIP3    H222585   5.341   6.092   3.150 -0.1355  0.9103 -0.8301
 7541TIP3   OH222586   0.420   6.071   2.145 -0.1827  0.1198  0.2736
 7541TIP3    H122587   0.456   6.155   2.116 -0.2221 -0.2158 -0.7847
 7541TIP3    H222588   0.458   6.057   2.232  0.1937  1.0063  0.2595
 7542TIP3   OH222589   3.209   1.364   2.049 -0.7928 -0.3353  0.2853
 7542TIP3    H122590   3.239   1.431   1.986 -0.9900  2.2358  2.7350
 7542TIP3    H222591   3.125   1.335   2.014 -0.5270  0.3954 -1.0612
 7543TIP3   OH222592   6.204   5.263   4.773  0.6437  0.1743 -0.5618
 7543TIP3    H122593   6.215   5.236   4.864 -1.6525 -2.5193 -0.9528
 7543TIP3    H222594   6.260   5.203   4.723 -0.1994 -0.1778 -1.0980
 7544TIP3   OH222595   0.084   3.690   4.748  0.2020  0.0638  0.1808
 7544TIP3    H122596  -0.010   3.700   4.760 -0.2163 -1.9655 -0.9211
 7544TIP3    H222597   0.122   3.768   4.789 -2.0119  1.6729 -0.6368
 7545TIP3   OH222598   0.810   2.581   0.390 -0.0219  0.4165  0.4513
 7545TIP3    H122599   0.715   2.583   0.403 -0.1950 -0.3108 -0.5762
 7545TIP3    H222600   0.844   2.648   0.449 -1.2655  1.3944  0.0835
 7546TIP3   OH222601   4.273   1.719   1.268 -0.5617 -0.1286  0.0243
 7546TIP3    H122602   4.345   1.658   1.286 -0.1962  0.2818 -0.0283
 7546TIP3    H222603   4.306   1.774   1.197 -1.2779 -0.5252 -0.6310
 7547TIP3   OH222604   0.480   4.572   3.204 -0.4304 -0.1886  0.1625
 7547TIP3    H122605   0.510   4.492   3.248  1.1481  0.1827 -0.2038
 7547TIP3    H222606   0.473   4.637   3.274  0.9335  0.0794  0.0675
 7548TIP3   OH222607   2.402   1.318   2.181  0.4424 -0.5183  0.4247
 7548TIP3    H122608   2.388   1.409   2.208 -1.8435 -0.3322 -1.1245
 7548TIP3    H222609   2.447   1.324   2.097  0.5350 -0.8407  0.4484
 7549TIP3   OH222610   7.160   2.620   1.800 -0.3395 -0.0065 -0.2328
 7549TIP3    H122611   7.081   2.633   1.852 -0.3911 -0.8140 -0.0867
 7549TIP3    H222612   7.225   2.678   1.840 -0.6185  0.0190  0.1973
 7550TIP3   OH222613   1.602   3.806   0.339  0.3124 -0.3320  0.1755
 7550TIP3    H122614   1.596   3.781   0.432 -0.6331  0.4273  0.3362
 7550TIP3    H222615   1.689   3.777   0.312  1.0284  0.3925  1.5854
 7551TIP3   OH222616   2.267   4.823   2.666  0.3397 -0.1719 -0.0925
 7551TIP3    H122617   2.339   4.856   2.720 -1.8445  0.1964  2.9004
 7551TIP3    H222618   2.262   4.730   2.688 -0.8994  0.0891  0.9031
 7552TIP3   OH222619   7.173   6.066   5.196 -0.8656  0.0143  0.0195
 7552TIP3    H122620   7.082   6.091   5.213 -0.1996  2.3542  0.5674
 7552TIP3    H222621   7.225   6.127   5.249  1.0386 -1.4201 -0.0837
 7553TIP3   OH222622   0.512   3.254   2.563 -0.5283  0.0935 -0.2971
 7553TIP3    H122623   0.576   3.285   2.499  0.8974  0.9785  1.4724
 7553TIP3    H222624   0.548   3.171   2.595 -1.9698 -1.1192 -1.5913
 7554TIP3   OH222625   2.517   4.549   3.325 -0.1687 -0.1114  0.0684
 7554TIP3    H122626   2.492   4.595   3.405 -0.1545  1.0717 -0.5878
 7554TIP3    H222627   2.449   4.571   3.261  0.7032  0.3389 -0.7301
 7555TIP3   OH222628   5.564   2.148   4.472  0.0777 -0.6129  0.1320
 7555TIP3    H122629   5.481   2.131   4.515  0.4616 -0.6134  0.9072
 7555TIP3    H222630   5.548   2.225   4.417 -1.0204 -1.9627 -1.5236
 7556TIP3   OH222631   5.987   0.408   4.045 -0.1504 -0.1134  0.9478
 7556TIP3    H122632   5.944   0.324   4.057  0.3507 -0.3771  0.9285
 7556TIP3    H222633   5.959   0.461   4.119  0.3127 -0.6250  1.4946
 7557TIP3   OH222634   1.906   5.816   4.281 -0.3712 -0.1358 -0.0251
 7557TIP3    H122635   1.896   5.833   4.188  0.8660 -0.2297 -0.1945
 7557TIP3    H222636   1.930   5.901   4.319 -1.7013  0.0902  0.3604
 7558TIP3   OH222637   1.851   0.368   0.049  0.0758  0.3176  1.0535
 7558TIP3    H122638   1.840   0.431  -0.023 -0.3787  0.2889  1.0942
 7558TIP3    H222639   1.771   0.316   0.047  0.2474  0.0422  1.3173
 7559TIP3   OH222640   6.086   2.678   1.248  0.4602  0.0484 -0.2144
 7559TIP3    H122641   6.092   2.708   1.339  1.4587  0.6112 -0.4446
 7559TIP3    H222642   6.165   2.624   1.236  0.0900 -0.4123 -0.6140
 7560TIP3   OH222643   6.008   0.732   0.111 -0.7616  0.3981 -0.6811
 7560TIP3    H122644   6.087   0.678   0.118  0.4763  1.8762 -2.5212
 7560TIP3    H222645   5.970   0.708   0.026 -1.4420  0.8398 -0.5095
 7561TIP3   OH222646   4.355   0.822   2.164 -0.5798 -0.1499 -0.5263
 7561TIP3    H122647   4.430   0.851   2.113  0.2731  1.2020  1.3897
 7561TIP3    H222648   4.390   0.755   2.223 -1.1957 -0.5208 -0.5663
 7562TIP3   OH222649   2.368   4.073   0.872  0.5409 -0.1038  0.0488
 7562TIP3    H122650   2.303   4.136   0.842 -0.0077 -1.1608 -1.0471
 7562TIP3    H222651   2.347   4.059   0.965  0.5736  1.1774  0.2656
 7563TIP3   OH222652   1.075   2.371   0.422 -0.3476 -0.2026  0.2472
 7563TIP3    H122653   1.046   2.436   0.357 -0.1204  0.9338  1.2486
 7563TIP3    H222654   1.105   2.297   0.369 -0.2070  0.6750 -0.9553
 7564TIP3   OH222655   3.068   0.988   2.373  0.3588 -0.0292  0.1685
 7564TIP3    H122656   2.984   0.949   2.398  0.3132  0.2471  0.4497
 7564TIP3    H222657   3.089   0.948   2.289  1.4326 -2.4208  1.4545
 7565TIP3   OH222658   6.565   5.417   5.711  0.3513  0.5091 -0.0452
 7565TIP3    H122659   6.586   5.332   5.671 -1.2290  0.2781 -0.4693
 7565TIP3    H222660   6.509   5.395   5.786 -1.0717  1.1881 -0.8569
 7566TIP3   OH222661   1.196   4.117   1.072 -0.6384 -0.3665  0.3809
 7566TIP3    H122662   1.185   4.111   1.167  1.2988  1.8869  0.8339
 7566TIP3    H222663   1.243   4.036   1.049 -2.0645 -1.4553  1.1090
 7567TIP3   OH222664   0.657   4.455   0.797  0.8395  0.1957 -0.3295
 7567TIP3    H122665   0.715   4.531   0.796  1.2458 -0.0796  0.6494
 7567TIP3    H222666   0.595   4.474   0.867  0.1860  0.1653 -0.8955
 7568TIP3   OH222667   3.537   6.648   4.147  0.7391 -0.3244 -0.0997
 7568TIP3    H122668   3.515   6.604   4.064  0.0935 -0.7643  0.2946
 7568TIP3    H222669   3.519   6.582   4.214  2.0218 -0.2409  0.3408
 7569TIP3   OH222670   5.002   4.594   3.154  0.0552 -0.1369  0.3695
 7569TIP3    H122671   4.985   4.633   3.240 -2.7244 -0.6329  0.1270
 7569TIP3    H222672   5.090   4.556   3.162 -0.5881 -1.2983  3.4744
 7570TIP3   OH222673   4.324   0.598   4.611  0.0936  0.0634  0.1646
 7570TIP3    H122674   4.293   0.522   4.659 -0.4680 -0.8302 -1.5105
 7570TIP3    H222675   4.415   0.609   4.638 -0.1133 -0.6004  1.1503
 7571TIP3   OH222676   5.317   0.809   1.059 -0.4252  0.0044 -0.2754
 7571TIP3    H122677   5.347   0.809   1.150  1.3130 -0.6947 -0.7951
 7571TIP3    H222678   5.352   0.727   1.023 -2.7747 -0.7306 -1.0805
 7572TIP3   OH222679   3.839   2.651   2.915  0.4198  0.1416  0.3205
 7572TIP3    H122680   3.893   2.704   2.856 -0.3477  0.6268  0.0352
 7572TIP3    H222681   3.900   2.587   2.953  0.8488 -0.4879 -1.3495
 7573TIP3   OH222682   6.934   4.742   2.816  0.5073 -0.0117  0.6131
 7573TIP3    H122683   6.999   4.810   2.799  0.7653 -0.3002  0.4297
 7573TIP3    H222684   6.960   4.670   2.759  0.1682 -0.2212  0.7218
 7574TIP3   OH222685   2.258   2.239   0.135  0.7192  0.5407 -0.5492
 7574TIP3    H122686   2.201   2.317   0.141 -0.1744 -0.1424  0.0691
 7574TIP3    H222687   2.325   2.253   0.202 -0.7563 -0.2400  1.1839
 7575TIP3   OH222688   6.605   0.474   4.432  0.4069  0.3013  0.0118
 7575TIP3    H122689   6.523   0.514   4.403  1.1476  0.5191 -1.9169
 7575TIP3    H222690   6.624   0.407   4.366  1.4381 -0.2244  0.8062
 7576TIP3   OH222691   5.410   5.036   0.138 -0.2374 -0.5312  0.5280
 7576TIP3    H122692   5.464   5.076   0.069 -1.9502 -1.3248 -1.3620
 7576TIP3    H222693   5.423   4.942   0.128 -1.7240 -0.7256  0.2066
 7577TIP3   OH222694   1.975   4.424   0.906 -0.1441 -0.3852  0.0643
 7577TIP3    H122695   1.883   4.431   0.880 -0.5165 -0.8484  1.2006
 7577TIP3    H222696   1.978   4.458   0.995  1.1773  1.5388 -0.6442
 7578TIP3   OH222697   5.453   5.118   4.721 -0.2138 -1.1007 -0.2386
 7578TIP3    H122698   5.532   5.151   4.763 -0.6236 -1.7444  1.1031
 7578TIP3    H222699   5.456   5.023   4.733  1.1740 -1.7831 -4.4433
 7579TIP3   OH222700   0.504   3.645   3.361  0.6630 -0.0439 -0.2235
 7579TIP3    H122701   0.505   3.739   3.383  0.4907 -0.0521 -0.1790
 7579TIP3    H222702   0.416   3.616   3.385  0.8840 -0.3318  0.2589
 7580TIP3   OH222703   1.288   6.774   2.320  0.2014 -0.2226  0.1125
 7580TIP3    H122704   1.287   6.853   2.266 -2.0394 -0.1285  0.1896
 7580TIP3    H222705   1.379   6.747   2.321  0.7109  1.2343 -1.5664
 7581TIP3   OH222706   2.044   5.476   3.712 -0.9793  0.6408  0.4550
 7581TIP3    H122707   2.063   5.389   3.676 -0.3078  0.6721  0.7159
 7581TIP3    H222708   1.949   5.479   3.719 -1.0481  0.1763 -0.1727
 7582TIP3   OH222709   5.424   4.479   3.007 -0.4269 -0.1279 -0.3853
 7582TIP3    H122710   5.342   4.480   2.958 -0.1343  1.4827 -0.9113
 7582TIP3    H222711   5.492   4.488   2.940  0.0096  1.5983  0.2142
 7583TIP3   OH222712   2.216   4.423   0.772 -0.2040 -0.6769 -0.1501
 7583TIP3    H122713   2.126   4.447   0.794 -0.6091 -1.7038 -0.6183
 7583TIP3    H222714   2.226   4.449   0.681  0.6372  1.2332  0.4502
 7584TIP3   OH222715   4.414   6.490   2.645 -0.0601 -0.1369  0.1912
 7584TIP3    H122716   4.338   6.549   2.647  0.2382  0.4373 -2.3086
 7584TIP3    H222717   4.480   6.539   2.596  0.8256 -1.8637 -0.3917
 7585TIP3   OH222718   5.143   4.569   5.826  0.7379  0.2929 -0.5024
 7585TIP3    H122719   5.164   4.481   5.856  0.3632  0.3010 -0.2072
 7585TIP3    H222720   5.061   4.591   5.871  1.2828  1.1330  0.1234
 7586TIP3   OH222721   0.658   4.076   4.143  0.1997  0.1683 -0.3542
 7586TIP3    H122722   0.702   4.061   4.059  0.7898  0.2084 -0.0571
 7586TIP3    H222723   0.721   4.127   4.194  0.1505 -0.4918  0.3881
 7587TIP3   OH222724   2.025   1.691   1.470  0.0266 -0.1768 -0.3047
 7587TIP3    H122725   1.931   1.703   1.455 -0.0998 -0.0904  0.4898
 7587TIP3    H222726   2.067   1.738   1.398 -0.5267  0.5347 -0.1732
 7588TIP3   OH222727   4.065   0.053   4.058 -0.5299  0.2714  0.0168
 7588TIP3    H122728   4.043   0.124   4.119 -0.1434  0.0912  0.3694
 7588TIP3    H222729   4.050  -0.027   4.108  1.7128  0.1395  0.5770
 7589TIP3   OH222730   3.107   1.637   1.911 -0.2133  0.1748 -0.3397
 7589TIP3    H122731   3.069   1.555   1.880  0.3806  0.8811 -3.1820
 7589TIP3    H222732   3.036   1.701   1.907 -0.3809  0.0915  0.7990
 7590TIP3   OH222733   0.590   6.637   2.471 -0.1486 -0.2121 -0.0103
 7590TIP3    H122734   0.558   6.622   2.382 -0.6579 -1.1470  0.3152
 7590TIP3    H222735   0.608   6.549   2.506  1.3202  0.2075  0.3582
 7591TIP3   OH222736   5.704   3.627   0.475  0.2429  0.5788  0.2032
 7591TIP3    H122737   5.671   3.632   0.564 -0.9633 -1.0456 -0.1167
 7591TIP3    H222738   5.678   3.540   0.444 -0.9062  1.7145 -2.3254
 7592TIP3   OH222739   5.823   1.978   5.728  0.2650  0.2218  0.2481
 7592TIP3    H122740   5.736   1.999   5.694 -0.1261  1.4623  1.8747
 7592TIP3    H222741   5.883   2.032   5.675 -0.1055  0.4884  0.0943
 7593TIP3   OH222742   4.070   5.374   0.256 -0.1035  1.1067 -0.2955
 7593TIP3    H122743   4.079   5.430   0.333  1.2682  0.1827  0.2536
 7593TIP3    H222744   4.127   5.299   0.274 -0.4199  0.4564 -1.8418
 7594TIP3   OH222745   3.737   1.819   0.701  0.1256 -0.0873 -0.2778
 7594TIP3    H122746   3.819   1.848   0.742 -0.3014 -2.4987  2.7066
 7594TIP3    H222747   3.669   1.847   0.762 -1.0131 -0.3987 -1.3743
 7595TIP3   OH222748   2.589   2.524   3.194  0.8019 -0.2672 -0.4107
 7595TIP3    H122749   2.601   2.619   3.198 -0.0464 -0.0293 -2.3895
 7595TIP3    H222750   2.524   2.505   3.262  2.3166  0.2560  1.2653
 7596TIP3   OH222751   5.266   0.912   0.120  0.4149 -0.7659 -0.0151
 7596TIP3    H122752   5.287   0.920   0.027  0.5228  0.0196  0.0737
 7596TIP3    H222753   5.210   0.834   0.124 -0.1675 -0.4113 -0.8349
 7597TIP3   OH222754   5.470   4.893   0.721  0.4358  0.1066  0.0816
 7597TIP3    H122755   5.493   4.985   0.708 -1.1551  0.6476  0.7739
 7597TIP3    H222756   5.526   4.845   0.661  0.6945  1.6064 -0.9369
 7598TIP3   OH222757   5.384   6.545   0.283 -0.0103 -0.0143  0.7422
 7598TIP3    H122758   5.398   6.629   0.239  1.1152 -0.3205  0.4915
 7598TIP3    H222759   5.463   6.531   0.335 -1.3720  0.4155  3.0647
 7599TIP3   OH222760   1.285   5.374   1.132  0.5995  0.4948 -0.1504
 7599TIP3    H122761   1.360   5.405   1.183  0.6837 -1.7252  1.1958
 7599TIP3    H222762   1.225   5.339   1.197 -2.3267  3.3405 -1.0538
 7600TIP3   OH222763   3.464   6.663   1.150 -0.3287 -0.1700  0.4649
 7600TIP3    H122764   3.407   6.635   1.078 -1.2335 -0.2599  1.1969
 7600TIP3    H222765   3.545   6.616   1.136 -0.0332  0.7426 -1.1984
 7601TIP3   OH222766   6.325   6.349   2.475  0.1731 -0.2499 -0.0786
 7601TIP3    H122767   6.380   6.423   2.500 -1.5355  1.2229 -0.4611
 7601TIP3    H222768   6.324   6.292   2.553 -1.3796  1.9626  1.6342
 7602TIP3   OH222769   2.175   0.853   2.991 -0.5972  0.5970  0.0197
 7602TIP3    H122770   2.214   0.810   3.068 -3.4181 -2.2482  0.0466
 7602TIP3    H222771   2.232   0.929   2.975  1.9983 -0.5285  2.8831
 7603TIP3   OH222772   1.738   6.213   3.998  0.1311 -0.0998 -0.5198
 7603TIP3    H122773   1.674   6.155   4.039  0.0962  0.1700 -0.1873
 7603TIP3    H222774   1.823   6.183   4.031  0.1261 -0.0655 -0.4758
 7604TIP3   OH222775   6.822   4.246   5.588 -0.4882  0.0605 -0.0431
 7604TIP3    H122776   6.829   4.317   5.525 -0.5176  0.2252  0.1384
 7604TIP3    H222777   6.751   4.273   5.647  0.4723  0.5944  0.9249
 7605TIP3   OH222778   3.648   0.679   5.592  0.4623 -0.6509  0.1527
 7605TIP3    H122779   3.698   0.741   5.539 -0.7469 -0.4170 -0.7688
 7605TIP3    H222780   3.686   0.594   5.572  0.2345 -0.5267 -0.8654
 7606TIP3   OH222781   3.462   5.206   3.926 -0.4364 -0.1456  0.4062
 7606TIP3    H122782   3.501   5.127   3.889  1.1660  0.9567 -0.3610
 7606TIP3    H222783   3.476   5.199   4.020 -2.6252 -1.9535  0.6886
 7607TIP3   OH222784   4.260   6.157   0.416  0.3535  0.4112 -0.0852
 7607TIP3    H122785   4.231   6.102   0.343 -0.4420  0.7135 -0.0049
 7607TIP3    H222786   4.331   6.106   0.457 -1.7576 -1.6140  1.3106
 7608TIP3   OH222787   3.654   5.738   3.359  0.0256  0.1124  0.0993
 7608TIP3    H122788   3.626   5.697   3.277  1.2757 -0.5287 -0.0263
 7608TIP3    H222789   3.572   5.760   3.404 -0.6735 -0.8270 -0.6724
 7609TIP3   OH222790   4.632   1.280   3.755 -0.4267 -0.0205 -0.7877
 7609TIP3    H122791   4.584   1.223   3.695 -1.3343  1.1273 -1.1923
 7609TIP3    H222792   4.655   1.357   3.703  0.4766  0.1389 -0.1681
 7610TIP3   OH222793   7.079   6.617   1.531  0.4059  0.7699  0.2415
 7610TIP3    H122794   7.132   6.686   1.571  0.0399  1.0964  0.1643
 7610TIP3    H222795   6.989   6.645   1.544  0.1348 -0.7546  2.2038
 7611TIP3   OH222796   5.326   5.112   1.995 -0.0202  0.2952  0.0936
 7611TIP3    H122797   5.358   5.041   1.938  1.9061  1.8839 -0.9465
 7611TIP3    H222798   5.394   5.123   2.061 -0.4140  1.0169  0.3934
 7612TIP3   OH222799   5.407   6.284   5.094 -0.6121  0.5736  0.5926
 7612TIP3    H122800   5.501   6.265   5.099 -0.6585  0.0458 -0.3103
 7612TIP3    H222801   5.402   6.367   5.048 -0.5845  0.6167  0.6679
 7613TIP3   OH222802   5.754   0.500   4.961  0.1848 -0.2632  0.3048
 7613TIP3    H122803   5.687   0.439   4.992  0.0355 -0.7688 -0.9475
 7613TIP3    H222804   5.746   0.576   5.019 -2.6744  0.4206 -0.7819
 7614TIP3   OH222805   1.070   5.320   2.600 -0.3490 -0.3350 -0.1239
 7614TIP3    H122806   1.138   5.350   2.539 -0.7480  0.9458  0.0412
 7614TIP3    H222807   1.105   5.239   2.636  1.0317  0.2238 -0.1552
 7615TIP3   OH222808   5.100   0.799   1.494  0.2960  0.1481  0.1941
 7615TIP3    H122809   5.030   0.806   1.429  0.1443 -0.1976  0.3218
 7615TIP3    H222810   5.079   0.867   1.559  0.9913  1.1860 -0.6160
 7616TIP3   OH222811   6.532   3.120   5.533 -0.0917  0.1261  0.5527
 7616TIP3    H122812   6.454   3.071   5.559 -1.0988  0.8513 -0.9495
 7616TIP3    H222813   6.524   3.204   5.577  0.1041  0.0288  0.7780
 7617TIP3   OH222814   1.014   0.255   3.235  0.3840 -0.2641  0.2005
 7617TIP3    H122815   1.015   0.350   3.223  0.2218 -0.0795  1.4813
 7617TIP3    H222816   0.925   0.236   3.264  0.1452 -0.9418 -0.9407
 7618TIP3   OH222817   4.810   0.436   0.048  0.1908  0.2396 -0.4765
 7618TIP3    H122818   4.831   0.366  -0.015 -1.4656  0.6234 -1.5047
 7618TIP3    H222819   4.843   0.516   0.007  0.5048  0.3011 -0.1140
 7619TIP3   OH222820   6.440   6.172   0.998 -0.3958  0.3446  0.7323
 7619TIP3    H122821   6.347   6.150   0.998  0.0805 -2.0612  2.5716
 7619TIP3    H222822   6.448   6.244   0.936 -3.4084  0.3571  0.2411
 7620TIP3   OH222823   7.097   4.994   1.367 -0.1609  0.0834  0.3644
 7620TIP3    H122824   7.081   5.089   1.362  0.3644  0.1297 -1.0196
 7620TIP3    H222825   7.148   4.982   1.447  1.1757  1.2103 -0.2739
 7621TIP3   OH222826   6.183   3.285   3.695  0.2524 -0.6353  0.0620
 7621TIP3    H122827   6.201   3.361   3.750 -0.0327 -0.2171 -0.4133
 7621TIP3    H222828   6.173   3.321   3.607  0.7567 -1.3048 -0.2759
 7622TIP3   OH222829   2.718   4.540   1.776 -0.1293 -0.1168 -0.4113
 7622TIP3    H122830   2.745   4.590   1.698  1.1674  0.1874  0.2044
 7622TIP3    H222831   2.635   4.500   1.751  1.0150 -1.3650 -2.5649
 7623TIP3   OH222832   5.104   2.886   4.777  0.2538 -0.1251 -0.3282
 7623TIP3    H122833   5.025   2.833   4.765  0.0683 -0.1802  0.9456
 7623TIP3    H222834   5.127   2.915   4.689 -0.8910 -0.5342 -0.7854
 7624TIP3   OH222835   3.097   2.248   0.408  0.2218  0.6047  0.1775
 7624TIP3    H122836   3.138   2.324   0.450 -0.9180  0.8808  0.8345
 7624TIP3    H222837   3.003   2.268   0.408 -0.0646 -0.6334  0.0192
 7625TIP3   OH222838   2.019   3.603   5.478  0.1256  0.1266 -0.0325
 7625TIP3    H122839   2.069   3.661   5.536  0.8322 -0.1040 -0.4002
 7625TIP3    H222840   2.008   3.654   5.397 -1.4152  0.6980  0.5070
 7626TIP3   OH222841   6.393   0.403   3.032 -0.1987  0.6563  0.0672
 7626TIP3    H122842   6.476   0.355   3.035 -0.4334  0.2360 -0.1450
 7626TIP3    H222843   6.396   0.461   3.108 -0.2443 -0.2370  0.7549
 7627TIP3   OH222844   5.227   4.433   2.805  0.1346 -0.0936  0.1542
 7627TIP3    H122845   5.206   4.503   2.742 -0.7345 -0.3953  0.0877
 7627TIP3    H222846   5.151   4.430   2.863  0.6331 -0.2830  0.8022
 7628TIP3   OH222847   5.721   4.672   5.224  0.2101 -0.8927 -0.1398
 7628TIP3    H122848   5.737   4.726   5.302 -0.4802 -2.3345  1.0570
 7628TIP3    H222849   5.645   4.712   5.183 -0.6051 -1.1964  1.0149
 7629TIP3   OH222850   6.872   5.207   1.036  0.9068 -0.6262 -0.0915
 7629TIP3    H122851   6.964   5.185   1.031  1.2677  0.7143  0.2416
 7629TIP3    H222852   6.848   5.188   1.127  1.3943  0.9015  0.3899
 7630TIP3   OH222853   1.234   4.913   5.791  0.3511 -0.3314  0.0763
 7630TIP3    H122854   1.210   4.821   5.802  1.1362 -0.6429 -0.7191
 7630TIP3    H222855   1.197   4.938   5.706  1.1661 -0.2592 -0.2615
 7631TIP3   OH222856   1.627   5.965   5.861 -0.0901  0.0954 -0.6043
 7631TIP3    H122857   1.590   5.943   5.946  0.5676  1.5606  0.0824
 7631TIP3    H222858   1.618   5.884   5.810  1.1613 -1.4122  1.4150
 7632TIP3   OH222859   2.374   2.378   1.490  0.6282 -0.5858 -0.4351
 7632TIP3    H122860   2.312   2.392   1.419  0.1481 -1.1336 -0.1389
 7632TIP3    H222861   2.340   2.301   1.536  0.9594 -0.2701  0.3524
 7633TIP3   OH222862   4.930   6.012   3.310 -0.3282  0.1895  0.0680
 7633TIP3    H122863   4.838   5.988   3.295 -0.4510  0.5900  0.1845
 7633TIP3    H222864   4.939   6.011   3.405 -0.3357  0.6071  0.0751
 7634TIP3   OH222865   0.444   1.324   4.397 -0.2725 -0.1119  0.3732
 7634TIP3    H122866   0.502   1.307   4.323 -0.1322 -2.6493  1.0025
 7634TIP3    H222867   0.357   1.298   4.366 -0.4683  0.2106  0.6373
 7635TIP3   OH222868   5.249   1.235   2.667  0.0067 -0.4004 -0.4030
 7635TIP3    H122869   5.195   1.297   2.716 -1.7940 -1.9677 -0.3112
 7635TIP3    H222870   5.338   1.248   2.702 -1.1683 -1.6564  3.6364
 7636TIP3   OH222871  -0.001   2.951   1.494 -0.3216 -0.0033 -0.3102
 7636TIP3    H122872   0.028   2.940   1.404 -1.2919  1.2230 -0.8113
 7636TIP3    H222873   0.051   2.888   1.544 -1.6882 -2.7179 -2.0629
 7637TIP3   OH222874   2.653   6.204   1.315  0.2100 -0.4448 -0.7077
 7637TIP3    H122875   2.739   6.235   1.286  1.4325 -0.3189  2.6608
 7637TIP3    H222876   2.594   6.276   1.295  1.7834  1.4513  0.9617
 7638TIP3   OH222877   7.027   6.141   3.522 -0.3043 -0.4114 -0.0650
 7638TIP3    H122878   6.957   6.111   3.580  0.5837  0.4567  1.5277
 7638TIP3    H222879   6.986   6.206   3.466 -0.7256  0.4065  1.1440
 7639TIP3   OH222880   1.810   0.447   4.948 -0.4141  0.7514  0.7593
 7639TIP3    H122881   1.793   0.444   4.854  1.1673  1.3618  0.4136
 7639TIP3    H222882   1.875   0.378   4.963  1.7548  2.6778  0.7830
 7640TIP3   OH222883   0.835   2.626   0.115 -0.6085 -0.1684  0.8193
 7640TIP3    H122884   0.833   2.608   0.209 -1.1300  0.7859  1.0098
 7640TIP3    H222885   0.748   2.602   0.084 -1.3569  1.9581  1.0995
 7641TIP3   OH222886   7.097   3.566   0.834 -0.2077 -0.7139  0.1347
 7641TIP3    H122887   7.058   3.651   0.812 -0.5369 -1.0083 -0.4572
 7641TIP3    H222888   7.089   3.560   0.929 -1.0309 -0.4874  0.0885
 7642TIP3   OH222889   1.780   0.132   0.519  0.1355 -0.8020 -0.0632
 7642TIP3    H122890   1.726   0.154   0.443 -1.7117 -1.9209  0.8547
 7642TIP3    H222891   1.790   0.214   0.566 -2.0939 -0.7931  0.5108
 7643TIP3   OH222892   5.732   3.093   1.053 -0.3306 -0.0953  0.8122
 7643TIP3    H122893   5.733   3.164   0.989 -0.0583 -1.3175 -0.5931
 7643TIP3    H222894   5.644   3.095   1.091 -0.3415  0.9394  0.7556
 7644TIP3   OH222895   6.967   2.915   1.202  0.4111  0.1527 -0.3069
 7644TIP3    H122896   6.955   3.002   1.239 -0.4825  0.8570 -2.1293
 7644TIP3    H222897   6.897   2.862   1.241  0.5532  0.4106  0.3035
 7645TIP3   OH222898   5.975   5.675   4.894 -0.0818 -0.4430  0.9231
 7645TIP3    H122899   6.024   5.690   4.813  0.1863  0.0200  1.1686
 7645TIP3    H222900   5.951   5.582   4.891  1.3051 -0.8204  1.0759
 7646TIP3   OH222901   2.257   2.307   4.406 -0.2842 -0.2804 -0.4364
 7646TIP3    H122902   2.191   2.353   4.353  0.7715  0.7985 -0.8411
 7646TIP3    H222903   2.266   2.359   4.485  1.1853  0.4673 -1.0562
 7647TIP3   OH222904   4.374   4.325   1.744  0.1517  0.0597  0.0896
 7647TIP3    H122905   4.291   4.278   1.750  0.5691 -0.5558  1.3921
 7647TIP3    H222906   4.440   4.257   1.730  0.4227  0.5748 -1.3569
 7648TIP3   OH222907   2.628   0.982   1.272  0.0900 -0.0811  0.5179
 7648TIP3    H122908   2.587   0.909   1.225  1.4639  0.6949 -2.0760
 7648TIP3    H222909   2.554   1.036   1.300 -0.8390 -1.0244 -0.0140
 7649TIP3   OH222910   7.021   1.960   1.534 -0.2429  0.2700 -0.3998
 7649TIP3    H122911   7.015   2.021   1.608 -1.9324  1.1325 -1.1957
 7649TIP3    H222912   7.114   1.955   1.515  0.0768  1.3380  0.7327
 7650TIP3   OH222913   1.129   2.213   5.773  0.4381  0.7636 -1.0071
 7650TIP3    H122914   1.067   2.156   5.728  0.0675  1.1731 -1.0257
 7650TIP3    H222915   1.134   2.178   5.862  0.0302  0.8462 -0.9503
 7651TIP3   OH222916   6.923   4.177   3.467  0.4766  0.4065 -0.6258
 7651TIP3    H122917   6.853   4.242   3.469 -1.3584 -1.3455 -2.7105
 7651TIP3    H222918   6.960   4.184   3.379  1.7757  0.1394 -0.1183
 7652TIP3   OH222919   2.943   1.481   2.416 -0.0473  0.4240  0.1809
 7652TIP3    H122920   2.912   1.450   2.501 -3.7683 -1.0961 -1.5355
 7652TIP3    H222921   2.979   1.404   2.373  1.0440  1.0094 -0.0133
 7653TIP3   OH222922   4.738   1.012   5.079  0.0674 -0.1858 -0.0014
 7653TIP3    H122923   4.689   0.960   5.142 -0.9802  0.2208 -0.4625
 7653TIP3    H222924   4.770   1.087   5.129  1.8928 -1.3993  0.7531
 7654TIP3   OH222925   4.394   4.575   5.649 -0.5598  0.2646  0.3274
 7654TIP3    H122926   4.477   4.555   5.694 -0.3291  1.2289  0.3624
 7654TIP3    H222927   4.380   4.500   5.591  0.3689  0.0996  0.2872
 7655TIP3   OH222928   1.963   0.921   3.215  0.6507 -0.0729  0.9828
 7655TIP3    H122929   2.007   0.933   3.131  0.9556 -3.0395  0.5838
 7655TIP3    H222930   2.010   0.848   3.255 -0.8124 -0.0828  2.7991
 7656TIP3   OH222931   1.349   5.795   1.103 -0.1216  0.3020 -0.2497
 7656TIP3    H122932   1.290   5.840   1.164 -0.5232 -2.4780  1.6093
 7656TIP3    H222933   1.432   5.789   1.150 -0.4313 -1.8729  0.1150
 7657TIP3   OH222934   3.434   1.492   3.964 -0.0110  0.1313  0.4352
 7657TIP3    H122935   3.492   1.485   3.889  0.1327  1.2287  0.4365
 7657TIP3    H222936   3.414   1.585   3.972 -2.9957 -0.3156 -0.4778
 7658TIP3   OH222937   2.306   5.170   3.824 -0.0542  0.3869  0.5719
 7658TIP3    H122938   2.401   5.168   3.826 -0.0573  0.2672  0.5721
 7658TIP3    H222939   2.281   5.088   3.781 -0.1088  1.0070 -0.6197
 7659TIP3   OH222940   4.315   2.483   4.409 -0.2619 -0.0847 -0.2138
 7659TIP3    H122941   4.226   2.516   4.397 -0.1127 -0.2554 -2.0039
 7659TIP3    H222942   4.332   2.432   4.330  1.2549 -0.4597  0.3324
 7660TIP3   OH222943   1.551   0.044   1.096  0.2664  0.5820  0.1234
 7660TIP3    H122944   1.470   0.087   1.066  0.3540 -0.4388 -1.7063
 7660TIP3    H222945   1.618   0.112   1.088 -0.2234  1.1435  0.6972
 7661TIP3   OH222946   5.902   5.118   5.317  0.4627 -0.0244 -0.1357
 7661TIP3    H122947   5.902   5.089   5.226 -1.4451  0.6263 -0.3731
 7661TIP3    H222948   5.844   5.194   5.318 -0.9082 -1.0387  1.9374
 7662TIP3   OH222949   6.649   5.834   5.162  0.1942 -0.0179 -0.5313
 7662TIP3    H122950   6.581   5.825   5.229 -1.0911  1.2571 -1.5985
 7662TIP3    H222951   6.731   5.811   5.207 -0.7317 -0.0187  1.2290
 7663TIP3   OH222952   1.950   1.675   0.741  0.4288 -0.5034  0.2023
 7663TIP3    H122953   1.892   1.748   0.721  1.3376  0.4145  0.7989
 7663TIP3    H222954   1.910   1.599   0.698 -0.0108  0.5237 -1.2628
 7664TIP3   OH222955   3.616   4.008   5.714 -0.3171  0.4054 -0.0318
 7664TIP3    H122956   3.693   3.997   5.658  0.1925  0.9658  0.5499
 7664TIP3    H222957   3.550   3.951   5.674  1.4863 -3.0945  1.5409
 7665TIP3   OH222958   4.941   1.762   0.125 -0.3411  0.1137  0.1923
 7665TIP3    H122959   4.911   1.824   0.190 -0.2286  0.3039  0.0651
 7665TIP3    H222960   4.981   1.816   0.057 -0.2397 -0.0966  0.0824
 7666TIP3   OH222961   4.855   2.870   3.981 -0.1328  0.3328 -0.3587
 7666TIP3    H122962   4.815   2.955   3.962 -2.4619 -0.2483  1.4062
 7666TIP3    H222963   4.903   2.884   4.062 -0.3756  0.0465 -0.1599
 7667TIP3   OH222964   4.490   0.567   4.083  0.0361 -1.0343  0.3657
 7667TIP3    H122965   4.437   0.556   4.162 -1.7066 -3.1365 -1.0060
 7667TIP3    H222966   4.452   0.507   4.019  0.2524  1.8426 -2.7030
 7668TIP3   OH222967   2.593   6.202   2.078  0.5045 -0.1468 -0.0774
 7668TIP3    H122968   2.525   6.169   2.137  0.4420 -1.4371 -0.8398
 7668TIP3    H222969   2.557   6.190   1.990  2.1379 -2.0131 -0.5705
 7669TIP3   OH222970   1.433   2.208   3.422 -0.1001  0.3457  0.1135
 7669TIP3    H122971   1.414   2.211   3.328 -0.6370 -0.0964  0.2025
 7669TIP3    H222972   1.377   2.138   3.455 -1.8300  2.1285  1.1951
 7670TIP3   OH222973   0.384   3.704   1.549  0.4871  0.0913 -0.5100
 7670TIP3    H122974   0.393   3.649   1.627  0.9240  0.2820 -0.4243
 7670TIP3    H222975   0.465   3.690   1.500  0.1580 -0.1334 -1.0009
 7671TIP3   OH222976   2.267   3.566   2.245  0.5906 -0.2648  0.1418
 7671TIP3    H122977   2.259   3.499   2.177  1.3478 -0.7057  0.4687
 7671TIP3    H222978   2.357   3.598   2.236 -0.0595  1.4468 -0.6671
 7672TIP3   OH222979   0.369   4.035   1.944 -0.4334  0.6767  0.4492
 7672TIP3    H122980   0.362   4.113   1.999 -1.5586 -0.5048  2.0764
 7672TIP3    H222981   0.462   4.013   1.947  0.3075  3.0129 -1.6944
 7673TIP3   OH222982   5.541   1.522   1.435  0.2765 -0.1418 -0.2025
 7673TIP3    H122983   5.535   1.555   1.525  0.7008  0.6174 -0.4502
 7673TIP3    H222984   5.592   1.587   1.388 -0.9483  0.0832 -1.3007
 7674TIP3   OH222985   2.551   5.584   5.691  0.2002 -0.1826  0.3494
 7674TIP3    H122986   2.490   5.534   5.745  0.9379 -0.2731  1.1117
 7674TIP3    H222987   2.519   5.573   5.602  0.6159 -2.4077  0.4331
 7675TIP3   OH222988   2.966   3.318   0.684 -0.4983 -0.4061  0.7157
 7675TIP3    H122989   2.989   3.342   0.594 -0.8878 -0.2202  0.6655
 7675TIP3    H222990   2.873   3.340   0.692 -0.0329  1.4305  1.7665
 7676TIP3   OH222991   4.328   5.216   1.867 -0.0548 -0.0297  0.0493
 7676TIP3    H122992   4.325   5.138   1.812 -0.2788  1.0182 -1.5117
 7676TIP3    H222993   4.420   5.225   1.891 -0.3559 -2.0647  2.2961
 7677TIP3   OH222994   5.890   2.685   5.404 -0.1297  0.5418 -0.0245
 7677TIP3    H122995   5.845   2.768   5.389  0.1102  0.5531 -0.7251
 7677TIP3    H222996   5.820   2.621   5.418 -0.3090  0.9416  1.0218
 7678TIP3   OH222997   4.513   2.053   3.732  0.2983  0.0407  0.0888
 7678TIP3    H122998   4.463   2.099   3.800 -1.9610 -1.2187 -0.6210
 7678TIP3    H222999   4.603   2.052   3.765 -0.8132 -1.2135  3.5131
 7679TIP3   OH223000   7.002   0.254   5.349 -0.3550 -0.9943  0.0897
 7679TIP3    H123001   6.969   0.282   5.434 -0.7595  0.4222 -0.5065
 7679TIP3    H223002   7.093   0.284   5.348 -0.1881 -1.4774  0.2121
 7680TIP3   OH223003   0.560   3.837   4.966  0.5394 -0.3822  0.1489
 7680TIP3    H123004   0.533   3.763   4.912 -2.6187  3.5230 -4.4704
 7680TIP3    H223005   0.483   3.859   5.017  0.7192  0.7661 -0.0394
 7681TIP3   OH223006   5.955   3.367   3.046  0.4193  0.0626  1.2082
 7681TIP3    H123007   5.863   3.367   3.075  0.9728  1.9209  3.2690
 7681TIP3    H223008   5.999   3.424   3.109  2.5999  0.9796 -1.0124
 7682TIP3   OH223009   2.835   1.710   3.843 -0.4372  0.6887  0.3242
 7682TIP3    H123010   2.813   1.689   3.934  3.7963 -1.1845  1.1812
 7682TIP3    H223011   2.884   1.634   3.813  1.0169  2.5631 -2.4639
 7683TIP3   OH223012   6.858   6.790   1.596 -1.1550  0.0374 -0.3270
 7683TIP3    H123013   6.901   6.847   1.660  1.0046 -1.1436 -0.6086
 7683TIP3    H223014   6.776   6.763   1.639  0.6792 -1.5598  2.5176
 7684TIP3   OH223015   5.466   3.777   4.649 -0.6145 -0.0020  0.4581
 7684TIP3    H123016   5.530   3.709   4.673  1.0300  0.9201 -1.0689
 7684TIP3    H223017   5.442   3.817   4.733  1.0828 -0.1765  1.0741
 7685TIP3   OH223018   0.627   1.855   5.745  0.5222 -0.3304 -0.3657
 7685TIP3    H123019   0.569   1.793   5.788  1.4563 -0.1151  1.3046
 7685TIP3    H223020   0.587   1.872   5.660 -1.9242 -0.0893  0.7670
 7686TIP3   OH223021   5.319   4.908   3.348  0.2790  0.0101  0.1670
 7686TIP3    H123022   5.253   4.929   3.281 -1.1342 -1.7885  0.8991
 7686TIP3    H223023   5.380   4.849   3.303  0.8287  0.8670 -0.2302
 7687TIP3   OH223024   2.784   4.977   2.249  0.2805 -0.2687  0.2466
 7687TIP3    H123025   2.702   4.973   2.200  1.6257  0.7182 -2.2690
 7687TIP3    H223026   2.822   4.889   2.239  0.9149  0.1393 -1.2952
 7688TIP3   OH223027   1.232   5.908   1.373 -0.1619  0.6098  0.1382
 7688TIP3    H123028   1.174   5.832   1.367  1.8593 -0.8847 -2.0737
 7688TIP3    H223029   1.227   5.935   1.465 -1.5694 -1.6687  0.8044
 7689TIP3   OH223030   3.371   2.709   1.361 -0.3198 -0.2600  0.0625
 7689TIP3    H123031   3.374   2.794   1.404  0.3765 -0.3496  0.1953
 7689TIP3    H223032   3.295   2.714   1.303 -1.1552 -0.0622  1.1398
 7690TIP3   OH223033   5.761   1.639   5.480  0.3395  0.0277 -0.1611
 7690TIP3    H123034   5.782   1.615   5.390 -1.2305 -0.4470 -0.4343
 7690TIP3    H223035   5.702   1.714   5.472 -2.2409 -1.8200  0.2860
 7691TIP3   OH223036   3.278   1.765   1.151 -0.6835 -0.6003  0.6832
 7691TIP3    H123037   3.346   1.709   1.190 -0.3852  0.7661  2.2500
 7691TIP3    H223038   3.255   1.722   1.069  0.4150 -2.3394  1.2404
 7692TIP3   OH223039   4.666   3.793   3.246  0.4231 -0.2022 -0.0940
 7692TIP3    H123040   4.642   3.756   3.161 -0.2403  0.8655 -0.3934
 7692TIP3    H223041   4.761   3.804   3.241  0.4263 -0.4106 -0.5843
 7693TIP3   OH223042   3.479   5.105   4.213 -0.0858 -0.4204 -0.2478
 7693TIP3    H123043   3.553   5.045   4.220  0.1385 -0.0060  1.8458
 7693TIP3    H223044   3.402   5.052   4.235  0.0527 -0.1308  1.0765
 7694TIP3   OH223045   2.433   5.723   3.185 -0.0960 -0.2251  0.3289
 7694TIP3    H123046   2.381   5.681   3.254  0.3467  0.2710  0.9791
 7694TIP3    H223047   2.386   5.804   3.166  0.4576  0.2586  0.9679
 7695TIP3   OH223048   2.317   0.341   1.925 -0.0462 -0.7462 -0.6242
 7695TIP3    H123049   2.278   0.368   2.009  1.3637 -0.9583  0.1298
 7695TIP3    H223050   2.351   0.422   1.888 -1.5654 -0.4838 -1.5078
 7696TIP3   OH223051   4.042   6.737   0.397  0.1875 -0.3257 -0.1005
 7696TIP3    H123052   4.086   6.745   0.481 -0.6648  0.7629  0.2757
 7696TIP3    H223053   4.103   6.774   0.333  0.7738 -1.0159  0.0605
 7697TIP3   OH223054   7.175   3.354   5.274 -0.4381 -0.0341 -0.2465
 7697TIP3    H123055   7.191   3.408   5.351  3.0944  0.7188 -1.3364
 7697TIP3    H223056   7.196   3.265   5.303 -1.0907 -0.0585  0.1668
 7698TIP3   OH223057   4.003   1.605   2.222  0.0687 -0.7387 -0.1619
 7698TIP3    H123058   3.995   1.545   2.295 -0.8221  0.2894  0.6240
 7698TIP3    H223059   4.091   1.640   2.229  0.0350 -0.7508  0.3490
 7699TIP3   OH223060   2.084   3.133   2.318  0.0287  0.9194 -0.1344
 7699TIP3    H123061   2.054   3.172   2.236 -2.2170  1.0283  0.6769
 7699TIP3    H223062   2.019   3.160   2.383  0.4343 -1.0807  1.2025
 7700TIP3   OH223063   4.776   0.295   5.890 -0.3541 -0.6003 -0.5860
 7700TIP3    H123064   4.686   0.304   5.922 -0.6512 -0.1864 -1.5046
 7700TIP3    H223065   4.767   0.251   5.805  0.3945 -1.4351 -0.2550
 7701TIP3   OH223066   3.091   4.354   3.515  0.1302 -0.5146 -0.2054
 7701TIP3    H123067   3.150   4.361   3.440  0.7193 -0.3905  0.2646
 7701TIP3    H223068   3.017   4.410   3.492 -0.4545 -1.6897 -1.3820
 7702TIP3   OH223069   6.324   1.241   0.183 -0.0350  0.4379  0.2464
 7702TIP3    H123070   6.311   1.147   0.196  0.0023 -0.1990 -3.2999
 7702TIP3    H223071   6.240   1.272   0.149  0.7732  1.0380 -1.2863
 7703TIP3   OH223072   3.809   3.543   4.182  0.0608  0.2454  0.4616
 7703TIP3    H123073   3.811   3.571   4.274  1.8225 -2.9121  1.5334
 7703TIP3    H223074   3.727   3.495   4.174  0.1757  0.0303  0.5621
 7704TIP3   OH223075   3.214   5.076   3.011  0.0210  0.1820 -0.3259
 7704TIP3    H123076   3.288   5.119   2.968  0.5259 -0.6162 -0.2700
 7704TIP3    H223077   3.239   4.984   3.016 -1.9771 -0.5594 -2.4712
 7705TIP3   OH223078   1.141   6.384   4.551 -0.2717 -0.2684 -0.4329
 7705TIP3    H123079   1.047   6.391   4.532 -0.4200  0.7557  0.5772
 7705TIP3    H223080   1.160   6.291   4.545 -1.6827 -0.6652  0.8222
 7706TIP3   OH223081   0.770   0.453   3.235  0.1891 -0.6267  0.6448
 7706TIP3    H123082   0.726   0.434   3.318  0.7060  0.4631  1.1915
 7706TIP3    H223083   0.713   0.414   3.168 -1.6468  0.7231  1.3209
 7707TIP3   OH223084   6.791   5.090   5.559 -0.0785 -0.1772  0.5176
 7707TIP3    H123085   6.710   5.077   5.608  0.0275 -1.5399  0.3942
 7707TIP3    H223086   6.859   5.098   5.626  0.0779 -2.1265  0.6640
 7708TIP3   OH223087   2.983   2.246   0.780  0.3366 -0.0549  0.0761
 7708TIP3    H123088   2.941   2.330   0.799 -1.4962 -0.4047 -1.9173
 7708TIP3    H223089   2.925   2.206   0.715  2.1148 -2.0752 -0.3546
 7709TIP3   OH223090   2.280   6.813   5.426  0.1341 -0.0226  0.1606
 7709TIP3    H123091   2.239   6.734   5.393 -0.0267 -0.6431  1.7453
 7709TIP3    H223092   2.340   6.782   5.494  0.9458  1.1248  0.0023
 7710TIP3   OH223093   5.828   6.016   0.146  0.5223 -0.3604 -0.1995
 7710TIP3    H123094   5.890   5.943   0.141  0.2259 -0.6553  0.2947
 7710TIP3    H223095   5.743   5.974   0.160  0.2725  0.0574 -0.4501
 7711TIP3   OH223096   6.506   4.305   1.190 -0.1610 -0.5429 -0.4401
 7711TIP3    H123097   6.594   4.269   1.199 -0.1852 -0.0824  3.0688
 7711TIP3    H223098   6.518   4.400   1.199 -0.9547 -0.4381 -0.4200
 7712TIP3   OH223099   3.342   3.302   2.746 -0.6552  0.8379  0.2568
 7712TIP3    H123100   3.290   3.262   2.676 -1.3940  1.1896  0.5998
 7712TIP3    H223101   3.304   3.268   2.827 -0.0956  0.7888  0.5064
 7713TIP3   OH223102   0.220   3.347   0.427  0.0436 -0.5592  0.2979
 7713TIP3    H123103   0.265   3.303   0.499  0.4439  0.7319  0.8886
 7713TIP3    H223104   0.168   3.415   0.471 -1.4392 -1.1606 -0.4845
 7714TIP3   OH223105   3.212   6.424   4.008 -0.6932 -0.0287  0.3335
 7714TIP3    H123106   3.219   6.425   4.103 -1.0210  0.2731  0.3544
 7714TIP3    H223107   3.118   6.420   3.990 -0.6062 -1.2551  0.0254
 7715TIP3   OH223108   2.064   2.065   5.380 -0.2504  0.1962 -0.6325
 7715TIP3    H123109   2.154   2.056   5.350  0.0637 -1.0604  0.5981
 7715TIP3    H223110   2.069   2.057   5.475 -1.5987  0.6976 -0.4922
 7716TIP3   OH223111  -0.023   2.475   4.313  0.5332  0.4359 -0.1395
 7716TIP3    H123112   0.059   2.519   4.290  0.1655  1.3620  0.2539
 7716TIP3    H223113  -0.028   2.481   4.408  0.7789 -1.0505 -0.0150
 7717TIP3   OH223114   6.430   4.113   0.207 -0.0246  0.0448  0.5834
 7717TIP3    H123115   6.472   4.191   0.172 -0.0032  0.6832  1.9514
 7717TIP3    H223116   6.492   4.079   0.272 -0.8408 -0.0130  1.3521
 7718TIP3   OH223117   5.094   2.791   1.115 -0.4361 -0.7239 -0.1977
 7718TIP3    H123118   5.088   2.805   1.209  0.8644  0.1330 -0.2165
 7718TIP3    H223119   5.145   2.710   1.106 -0.2829 -0.6321 -0.1619
 7719TIP3   OH223120   0.133   3.811   1.595 -0.2252 -0.1915 -0.3275
 7719TIP3    H123121   0.150   3.895   1.638  0.4422  0.4421 -1.7450
 7719TIP3    H223122   0.217   3.766   1.596 -0.7764 -1.2637  1.2046
 7720TIP3   OH223123   0.691   5.131   0.876  0.0334  0.1548 -0.1133
 7720TIP3    H123124   0.779   5.152   0.907 -0.4597  1.1949  0.6433
 7720TIP3    H223125   0.668   5.049   0.920 -0.1032  0.8782  1.1963
 7721TIP3   OH223126   6.860   5.691   5.908  0.0418 -0.1510 -0.4921
 7721TIP3    H123127   6.906   5.775   5.912  1.7969 -1.1188  0.4585
 7721TIP3    H223128   6.832   5.684   5.816  0.4320  1.1678 -0.7332
 7722TIP3   OH223129   4.066   0.901   0.023 -0.1959 -0.2192  0.5057
 7722TIP3    H123130   3.978   0.922   0.055  0.9697  2.1052  2.5876
 7722TIP3    H223131   4.091   0.978  -0.028  0.3644 -1.1865 -0.7095
 7723TIP3   OH223132   5.547   3.427   1.745 -0.3180  0.3612 -0.2995
 7723TIP3    H123133   5.452   3.415   1.747 -0.4574  1.4564  0.8953
 7723TIP3    H223134   5.579   3.374   1.818 -0.0276  0.1984 -0.5421
 7724TIP3   OH223135   5.122   5.993   2.544 -0.3613  0.1890 -0.2122
 7724TIP3    H123136   5.171   5.955   2.617 -0.8033  1.0538  0.5597
 7724TIP3    H223137   5.183   6.054   2.503 -0.6098  0.8927  0.4400
 7725TIP3   OH223138   1.320   3.606   0.629  0.3079 -0.0019 -0.2574
 7725TIP3    H123139   1.318   3.660   0.550  1.4378  1.1610  0.4827
 7725TIP3    H223140   1.408   3.568   0.630  0.2089 -0.2303  0.3022
 7726TIP3   OH223141   6.939   4.594   2.562 -0.1595 -0.3581  0.1224
 7726TIP3    H123142   6.956   4.511   2.517 -1.6152 -1.2950  1.1580
 7726TIP3    H223143   6.848   4.614   2.541  0.6473  1.9178 -1.4670
 7727TIP3   OH223144   0.642   6.772   4.077 -0.5791 -0.0718  0.4934
 7727TIP3    H123145   0.634   6.828   4.000  0.4893 -0.0292  0.3920
 7727TIP3    H223146   0.552   6.750   4.100 -1.0047  1.2027  0.1788
 7728TIP3   OH223147   6.951   6.362   1.090 -0.0633 -0.2120  0.3981
 7728TIP3    H123148   6.878   6.420   1.112  0.6051  0.0661  2.0564
 7728TIP3    H223149   7.029   6.414   1.111  0.5573 -1.5793  1.5707
 7729TIP3   OH223150   3.770   5.239   3.852  0.3406 -0.0300  0.3508
 7729TIP3    H123151   3.690   5.286   3.874  0.1314 -0.7179  1.1444
 7729TIP3    H223152   3.832   5.306   3.825 -0.7067  0.4555 -0.9220
 7730TIP3   OH223153   5.216   4.541   1.831  0.8008 -0.6731 -0.2782
 7730TIP3    H123154   5.257   4.569   1.912  1.3712  0.5342 -0.9516
 7730TIP3    H223155   5.283   4.555   1.764 -0.0922 -0.4138 -1.1430
 7731TIP3   OH223156   3.668   3.688   4.561 -0.7422 -0.4039 -0.0366
 7731TIP3    H123157   3.675   3.708   4.654  0.0961  0.3965 -0.2669
 7731TIP3    H223158   3.573   3.682   4.545 -0.8893 -0.6475  0.8749
 7732TIP3   OH223159   0.136   4.857   4.091  0.1579  0.7720  0.3352
 7732TIP3    H123160   0.168   4.944   4.115  0.0536  1.0345 -0.4402
 7732TIP3    H223161   0.044   4.872   4.067  0.0162  0.3694  0.6197
 7733TIP3   OH223162   5.782   2.760   1.331  0.0044  0.0504  0.5052
 7733TIP3    H123163   5.805   2.748   1.423 -0.7827 -0.1997  0.6827
 7733TIP3    H223164   5.746   2.848   1.326 -0.0505  0.0264  0.4654
 7734TIP3   OH223165   6.531   6.406   0.844  0.1292  0.0244  0.0324
 7734TIP3    H123166   6.586   6.447   0.911  2.5022 -1.0660 -1.1055
 7734TIP3    H223167   6.512   6.476   0.782  1.6731  0.1217 -0.3856
 7735TIP3   OH223168   0.668   5.882   3.375 -0.1977  0.2626 -0.5658
 7735TIP3    H123169   0.739   5.896   3.312 -0.0464 -1.8140 -0.9327
 7735TIP3    H223170   0.593   5.860   3.320 -0.4362 -0.1555 -0.0723
 7736TIP3   OH223171   0.289   1.022   5.529  0.5976 -0.4121  0.0724
 7736TIP3    H123172   0.277   0.982   5.443 -0.9428  0.0149  0.0652
 7736TIP3    H223173   0.318   1.112   5.510  0.2614 -0.3193 -0.0027
 7737TIP3   OH223174   6.386   5.268   3.235 -0.2225  0.3380  0.1751
 7737TIP3    H123175   6.399   5.216   3.155 -0.5499 -0.8939  0.8962
 7737TIP3    H223176   6.464   5.252   3.287  0.0109  1.1770  0.1079
 7738TIP3   OH223177   0.922   4.733   0.518 -0.8782  0.0792 -0.1733
 7738TIP3    H123178   0.881   4.763   0.438 -2.3128 -1.2537  0.0238
 7738TIP3    H223179   0.947   4.643   0.501 -1.9605 -0.5049  1.1245
 7739TIP3   OH223180   4.912   5.499   3.302 -0.1256  0.3417  0.6204
 7739TIP3    H123181   4.975   5.501   3.231  0.3149 -1.1832  0.9399
 7739TIP3    H223182   4.944   5.430   3.361 -0.0837  2.0014  2.6570
 7740TIP3   OH223183   5.150   5.760   3.549 -0.2758 -0.0398 -0.3776
 7740TIP3    H123184   5.177   5.691   3.609  0.3308  0.7176  0.2471
 7740TIP3    H223185   5.197   5.740   3.467 -0.7158 -0.7923 -0.4581
 7741TIP3   OH223186   5.814   5.075   0.736 -0.5964  0.3490 -0.2659
 7741TIP3    H123187   5.875   5.093   0.665  0.9804  0.2860  1.0234
 7741TIP3    H223188   5.791   5.162   0.769 -1.0341  0.3626 -0.5974
 7742TIP3   OH223189   3.292   1.522   3.477  0.3287  0.5826 -0.2119
 7742TIP3    H123190   3.374   1.531   3.525  0.3842  1.6662 -0.4806
 7742TIP3    H223191   3.236   1.469   3.534  1.2101 -0.1755 -0.0406
 7743TIP3   OH223192   5.210   4.402   2.322 -0.2391  0.4558 -0.3609
 7743TIP3    H123193   5.185   4.470   2.384 -0.4862 -0.4979  0.6274
 7743TIP3    H223194   5.226   4.448   2.240 -0.0214  1.7357  0.3811
 7744TIP3   OH223195   6.403   3.528   3.404  0.4394  0.3039 -0.2267
 7744TIP3    H123196   6.451   3.542   3.322 -0.6304 -0.7523 -1.0542
 7744TIP3    H223197   6.446   3.453   3.445 -0.0488 -0.1899 -0.6167
 7745TIP3   OH223198   2.400   4.008   2.979  0.3244 -0.3491 -0.1555
 7745TIP3    H123199   2.464   4.067   2.939 -0.1833 -0.5492 -1.3213
 7745TIP3    H223200   2.428   3.999   3.070  1.9588 -0.4692 -0.6459
 7746TIP3   OH223201   0.097   4.110   0.922 -0.1776  0.3323  0.4774
 7746TIP3    H123202   0.042   4.188   0.930 -0.9129 -0.0845 -0.4210
 7746TIP3    H223203   0.147   4.124   0.842  0.3500  0.2824  0.7950
 7747TIP3   OH223204   6.017   0.108   2.031  0.3929  0.1110  0.1532
 7747TIP3    H123205   6.076   0.036   2.055  0.9275 -0.0203 -1.4427
 7747TIP3    H223206   5.963   0.122   2.109  0.7487 -1.5523  0.7336
 7748TIP3   OH223207   4.319   2.892   3.347  0.2872  0.0754  0.0916
 7748TIP3    H123208   4.396   2.853   3.388  0.2535  0.0821  0.1629
 7748TIP3    H223209   4.347   2.980   3.323  0.9745 -0.6450 -1.8892
 7749TIP3   OH223210   1.057   4.424   5.424  0.3972  0.1477 -0.0368
 7749TIP3    H123211   0.970   4.429   5.384  0.1975 -1.3186  0.1566
 7749TIP3    H223212   1.111   4.485   5.373 -0.2124 -0.5909 -1.6200
 7750TIP3   OH223213   3.648   1.518   2.313 -0.2787  0.4423  0.1000
 7750TIP3    H123214   3.728   1.567   2.330 -0.8892  1.7140 -0.5330
 7750TIP3    H223215   3.657   1.488   2.222 -1.3127  2.2724 -0.6670
 7751TIP3   OH223216   1.241   3.027   1.966 -0.1462  0.2164 -0.1424
 7751TIP3    H123217   1.286   2.992   1.888 -1.8479  0.4488 -1.2883
 7751TIP3    H223218   1.175   2.961   1.987 -0.2899  0.5802  0.5741
 7752TIP3   OH223219   5.002   5.971   3.584 -0.5051  0.2526 -0.0047
 7752TIP3    H123220   5.036   5.893   3.542 -0.7128  1.2857 -2.2384
 7752TIP3    H223221   4.919   5.943   3.624  0.3937 -1.0796  0.9749
 7753TIP3   OH223222   0.413   6.335   1.409  0.3017 -0.5086  0.1800
 7753TIP3    H123223   0.320   6.339   1.386  0.0822 -0.7772  0.9589
 7753TIP3    H223224   0.459   6.360   1.329 -0.4925  2.4996  0.5486
 7754TIP3   OH223225   3.035   6.372   2.111 -0.1112 -0.3559 -0.0392
 7754TIP3    H123226   3.053   6.298   2.053 -0.1895 -0.4053 -0.0002
 7754TIP3    H223227   2.971   6.339   2.173 -0.4344 -0.1442 -0.2549
 7755TIP3   OH223228   6.237   1.653   5.345  0.1880  0.1848 -0.9091
 7755TIP3    H123229   6.216   1.621   5.258 -0.4258  1.0683 -1.0927
 7755TIP3    H223230   6.153   1.681   5.382  0.4304 -0.2570 -0.0041
 7756TIP3   OH223231   2.126   6.288   0.525  0.0965  0.2252 -0.1318
 7756TIP3    H123232   2.142   6.208   0.475 -2.9464 -0.1695 -0.6487
 7756TIP3    H223233   2.175   6.275   0.606  0.4453 -1.7322 -0.5948
 7757TIP3   OH223234   0.476   2.177   0.948 -0.4313 -0.0640  0.4300
 7757TIP3    H123235   0.511   2.089   0.960  0.0821  0.2262  1.1450
 7757TIP3    H223236   0.503   2.225   1.027  0.5237  1.1231 -0.5658
 7758TIP3   OH223237   5.136   5.796   2.314  0.3229  0.2010  0.3041
 7758TIP3    H123238   5.124   5.798   2.409  1.3742  0.4917  0.4424
 7758TIP3    H223239   5.098   5.713   2.286  0.1931  0.0238  1.0115
 7759TIP3   OH223240   2.127   1.258   4.275 -0.3904  0.1773  0.2285
 7759TIP3    H123241   2.146   1.320   4.346  0.9570  1.6429 -1.3243
 7759TIP3    H223242   2.085   1.311   4.208 -1.0196 -1.0332 -0.3551
 7760TIP3   OH223243   4.050   5.125   1.211  0.4288  0.0293 -0.0826
 7760TIP3    H123244   3.985   5.127   1.282 -0.4236  0.2768 -0.8496
 7760TIP3    H223245   4.017   5.058   1.151  0.6575  0.4607 -0.6926
 7761TIP3   OH223246   7.216   5.444   1.157 -0.0893 -0.1336 -0.2823
 7761TIP3    H123247   7.257   5.523   1.122 -0.8975 -0.4173 -1.9764
 7761TIP3    H223248   7.140   5.475   1.206  1.1580  0.2807  1.5018
 7762TIP3   OH223249   2.155   6.347   1.648  0.0248 -1.1643 -0.0938
 7762TIP3    H123250   2.117   6.312   1.567 -0.8759 -0.7248  0.1177
 7762TIP3    H223251   2.111   6.298   1.718 -0.3400 -0.4863  0.1654
 7763TIP3   OH223252   2.900   3.307   5.652  0.0327 -0.0934  0.3412
 7763TIP3    H123253   2.973   3.263   5.694 -0.3487 -0.9804  0.0907
 7763TIP3    H223254   2.862   3.361   5.722 -0.2162 -1.0763  0.9860
 7764TIP3   OH223255   6.881   2.354   1.315 -0.4298  0.1741  0.1423
 7764TIP3    H123256   6.852   2.367   1.406 -1.0388 -0.1223 -0.0052
 7764TIP3    H223257   6.891   2.260   1.306 -2.1838  0.0237 -0.6270
 7765TIP3   OH223258   3.219   5.752   1.484  0.6896 -0.4476 -0.1922
 7765TIP3    H123259   3.289   5.799   1.438 -1.7319  1.3119 -2.4297
 7765TIP3    H223260   3.201   5.805   1.562 -1.0763  1.8117 -1.9822
 7766TIP3   OH223261   4.336   1.413   2.041 -0.8824 -0.9029  0.0300
 7766TIP3    H123262   4.422   1.400   2.000 -0.0133  0.1513  1.4463
 7766TIP3    H223263   4.324   1.508   2.042 -1.9869 -1.0334  0.0234
 7767TIP3   OH223264   4.244   4.914   2.767 -0.1319 -0.3885  0.5697
 7767TIP3    H123265   4.337   4.902   2.750 -0.1033 -0.5445  0.8260
 7767TIP3    H223266   4.229   5.007   2.752 -0.7104 -0.9163 -3.1140
 7768TIP3   OH223267   6.876   1.969   2.427 -0.4135 -0.1065  0.2420
 7768TIP3    H123268   6.807   1.921   2.473 -0.2841  0.6258  1.2474
 7768TIP3    H223269   6.830   2.033   2.374 -0.5274 -0.0907  0.3606
 7769TIP3   OH223270   4.859   3.599   0.814  0.3912 -0.0961 -0.2301
 7769TIP3    H123271   4.774   3.557   0.799  0.6895 -1.1692  0.8773
 7769TIP3    H223272   4.889   3.562   0.898  1.4825  1.0364 -0.0991
 7770TIP3   OH223273   3.568   4.591   0.532  0.3153  0.0413  0.3656
 7770TIP3    H123274   3.559   4.594   0.437  2.4765  0.0710  0.1002
 7770TIP3    H223275   3.560   4.499   0.554  3.1468 -0.4658 -0.3372
 7771TIP3   OH223276   1.150   0.538   2.709  0.0178  0.7294  0.0735
 7771TIP3    H123277   1.156   0.592   2.787  0.6684  0.5861  0.1313
 7771TIP3    H223278   1.094   0.587   2.650 -0.2240  0.9846  0.5118
 7772TIP3   OH223279   3.543   6.458   0.076 -0.2128  0.4127 -0.0929
 7772TIP3    H123280   3.503   6.380   0.037  1.1428  0.7724 -2.4094
 7772TIP3    H223281   3.637   6.446   0.062  0.2435  1.3103  1.8333
 7773TIP3   OH223282   1.706   6.638   2.933 -0.4452  0.4262 -0.1878
 7773TIP3    H123283   1.693   6.544   2.918 -1.6246 -0.0403  2.9081
 7773TIP3    H223284   1.732   6.673   2.848 -0.8586 -2.5429 -1.6607
 7774TIP3   OH223285   0.619   3.679   3.862  0.8570  1.0370  0.0610
 7774TIP3    H123286   0.662   3.653   3.781  2.3966  0.7470  0.9407
 7774TIP3    H223287   0.685   3.730   3.909 -0.2310  1.7646  0.8493
 7775TIP3   OH223288   1.494   4.706   5.043 -0.2952 -0.2556 -0.5876
 7775TIP3    H123289   1.430   4.640   5.019  0.5744 -0.8960 -1.2106
 7775TIP3    H223290   1.534   4.672   5.123 -1.0650  0.3913  0.0907
 7776TIP3   OH223291   5.140   5.048   5.591 -0.4778  0.0042  0.2480
 7776TIP3    H123292   5.090   5.077   5.514 -0.7787 -0.3273  0.3173
 7776TIP3    H223293   5.087   4.977   5.628 -0.0715 -0.1861  0.4589
 7777TIP3   OH223294   6.266   5.458   3.977 -0.1725  0.1221  0.4524
 7777TIP3    H123295   6.279   5.379   4.029  0.0926 -0.0419  0.1415
 7777TIP3    H223296   6.172   5.463   3.963 -0.1558 -0.3195  0.1921
 7778TIP3   OH223297   1.631   3.722   5.306 -0.5929 -0.1679  0.8113
 7778TIP3    H123298   1.658   3.642   5.351  0.5123 -0.6789 -0.6705
 7778TIP3    H223299   1.579   3.691   5.232  1.0416  0.3236 -0.6218
 7779TIP3   OH223300   2.186   4.442   3.925 -0.1469  0.3117 -0.9137
 7779TIP3    H123301   2.166   4.434   4.018 -1.4651  0.1223 -1.1832
 7779TIP3    H223302   2.273   4.405   3.915  0.3559  1.1126  0.3668
 7780TIP3   OH223303   3.371   0.711   0.761  0.1642 -0.9321  0.3245
 7780TIP3    H123304   3.426   0.659   0.701  1.3086  1.7942 -1.1615
 7780TIP3    H223305   3.430   0.736   0.832  1.0147  2.0090 -1.2769
 7781TIP3   OH223306   5.264   2.862   5.538  0.4414 -0.3689  0.5248
 7781TIP3    H123307   5.352   2.827   5.545  0.9476  1.1071  2.4505
 7781TIP3    H223308   5.276   2.955   5.519 -0.6547 -0.0241  1.3877
 7782TIP3   OH223309   2.017   2.709   2.143  0.4228  0.7532 -0.4382
 7782TIP3    H123310   2.006   2.709   2.048  0.3016 -1.4887 -0.4972
 7782TIP3    H223311   2.092   2.651   2.158  0.6994  1.4046  0.8129
 7783TIP3   OH223312   1.751   2.071   1.886  0.0421  0.0167  0.1851
 7783TIP3    H123313   1.725   2.136   1.951 -1.2446  0.0366 -0.3149
 7783TIP3    H223314   1.760   2.121   1.804  0.0941 -0.2625  0.0193
 7784TIP3   OH223315   1.907   3.245   4.755  0.1988 -0.5369  0.6439
 7784TIP3    H123316   1.912   3.303   4.679  1.8090 -0.7062  0.5903
 7784TIP3    H223317   1.883   3.303   4.828 -1.0844 -0.3271  0.0925
 7785TIP3   OH223318   3.362   0.591   4.151  0.1586  0.0827 -0.2229
 7785TIP3    H123319   3.331   0.595   4.241  0.4683 -0.6467 -0.0788
 7785TIP3    H223320   3.329   0.671   4.111 -0.9394 -0.1270  0.2340
 7786TIP3   OH223321   2.364   1.700   4.611 -0.2586 -0.0779  0.6204
 7786TIP3    H123322   2.382   1.794   4.614  2.8885 -0.5583  0.3822
 7786TIP3    H223323   2.303   1.689   4.538  0.3908  1.6334 -0.2282
 7787TIP3   OH223324   1.696   4.393   2.973  0.3779  0.1351 -0.0468
 7787TIP3    H123325   1.657   4.318   2.929  0.4572  0.1698 -0.1772
 7787TIP3    H223326   1.683   4.375   3.066 -2.0961  1.2741 -0.0917
 7788TIP3   OH223327   6.158   3.514   2.825 -0.3491  0.0738 -0.0984
 7788TIP3    H123328   6.195   3.468   2.750 -1.0545 -2.1460  0.8246
 7788TIP3    H223329   6.064   3.505   2.814 -0.5303 -3.4720  2.7296
 7789TIP3   OH223330   0.655   2.836   2.800  0.3668 -0.2864 -0.3913
 7789TIP3    H123331   0.722   2.769   2.786 -1.0700 -2.0105  0.5714
 7789TIP3    H223332   0.633   2.829   2.893 -1.4535 -0.0929 -0.7662
 7790TIP3   OH223333   5.323   2.100   2.039 -0.2979  0.1329 -0.1705
 7790TIP3    H123334   5.370   2.183   2.054  0.9066 -0.3510 -1.1250
 7790TIP3    H223335   5.259   2.096   2.110 -0.6690  2.0765 -0.3290
 7791TIP3   OH223336   4.766   1.918   1.039 -0.0916 -0.1053 -0.1644
 7791TIP3    H123337   4.696   1.972   1.074 -0.9218 -2.2117  1.6804
 7791TIP3    H223338   4.776   1.847   1.103  2.0299 -1.2527 -1.6260
 7792TIP3   OH223339   0.480   3.436   0.242  0.1093  0.0728 -0.3115
 7792TIP3    H123340   0.449   3.373   0.307 -1.9180  1.8775  0.6075
 7792TIP3    H223341   0.479   3.520   0.288  0.5867  1.1056 -2.1024
 7793TIP3   OH223342   1.508   6.346   1.088 -0.5977  0.3026 -0.5023
 7793TIP3    H123343   1.538   6.281   1.151 -0.1959 -0.2491 -1.2507
 7793TIP3    H223344   1.454   6.406   1.139 -0.1233 -0.0277  0.3975
 7794TIP3   OH223345   5.648   2.929   3.538 -0.0341 -1.1846  0.9032
 7794TIP3    H123346   5.731   2.893   3.508 -0.7030 -1.2790 -0.9614
 7794TIP3    H223347   5.584   2.861   3.516 -1.2736  0.8214 -2.3858
 7795TIP3   OH223348   0.162   0.818   1.207  0.0760 -0.0605 -0.1922
 7795TIP3    H123349   0.093   0.881   1.184  0.2242  0.0318 -0.3839
 7795TIP3    H223350   0.167   0.823   1.303  2.2362  2.5628 -0.2965
 7796TIP3   OH223351   5.423   1.696   4.201 -0.5351  0.4967  0.2101
 7796TIP3    H123352   5.336   1.713   4.164 -0.3589  2.2949  0.5000
 7796TIP3    H223353   5.433   1.762   4.270  0.9041  0.0603  0.4616
 7797TIP3   OH223354   1.043   0.799   1.517 -0.3502 -0.4362  0.3124
 7797TIP3    H123355   1.052   0.799   1.613 -2.2314 -0.2627  0.5196
 7797TIP3    H223356   1.055   0.708   1.492  1.3655 -0.3135  0.5495
 7798TIP3   OH223357   3.359   6.628   2.169 -0.0813 -0.2958  0.1277
 7798TIP3    H123358   3.409   6.705   2.143  1.4873 -1.2288  0.2452
 7798TIP3    H223359   3.423   6.557   2.169 -0.1797 -0.7290  4.9737
 7799TIP3   OH223360   0.422   3.479   2.331  0.0198  0.2388 -0.2669
 7799TIP3    H123361   0.368   3.406   2.302 -0.4769  1.6781 -3.3357
 7799TIP3    H223362   0.432   3.465   2.426 -3.4061 -1.5507 -0.0064
 7800TIP3   OH223363   2.519   2.505   0.842 -0.9626 -0.8103 -0.3150
 7800TIP3    H123364   2.594   2.559   0.867 -1.7316  0.3990 -0.5212
 7800TIP3    H223365   2.549   2.415   0.855  0.2844 -0.3412  0.2651
 7801TIP3   OH223366   3.382   5.999   3.014 -0.3905 -0.4709  0.1971
 7801TIP3    H123367   3.311   6.050   2.976  1.0381  1.7583  0.3661
 7801TIP3    H223368   3.437   5.976   2.940 -0.5049 -0.9405  0.2523
 7802TIP3   OH223369   6.295   0.989   0.223  0.1421 -0.2629 -0.3389
 7802TIP3    H123370   6.258   0.921   0.279  0.2609  0.4959  0.6760
 7802TIP3    H223371   6.342   0.940   0.155 -0.5174 -1.1986 -0.1397
 7803TIP3   OH223372   3.152   2.722   2.741 -0.1318 -0.1472  0.4538
 7803TIP3    H123373   3.126   2.797   2.793 -0.5959 -0.1726  0.2583
 7803TIP3    H223374   3.225   2.682   2.790 -0.6887 -0.2863  1.1762
 7804TIP3   OH223375   3.784   2.176   4.836  0.1202  0.3753  0.0933
 7804TIP3    H123376   3.727   2.253   4.830 -0.1307  0.2979  1.2364
 7804TIP3    H223377   3.732   2.112   4.885  0.5318 -0.3347 -0.3875
 7805TIP3   OH223378   1.460   2.594   3.154 -0.2715  0.8826  0.3402
 7805TIP3    H123379   1.372   2.615   3.188 -0.3520 -0.3285  0.9315
 7805TIP3    H223380   1.498   2.538   3.221 -0.4036 -1.5456 -1.4878
 7806TIP3   OH223381   1.484   1.465   2.974 -0.3194  0.0376 -0.2347
 7806TIP3    H123382   1.535   1.421   2.906 -0.8718  1.6642 -1.7731
 7806TIP3    H223383   1.525   1.551   2.984 -0.2397 -0.1772  1.5301
 7807TIP3   OH223384   3.177   5.041   4.789 -0.0717  0.4311 -0.9733
 7807TIP3    H123385   3.258   4.993   4.802 -0.4594  0.2906  1.3638
 7807TIP3    H223386   3.183   5.075   4.699  1.5623 -1.3844 -1.6190
 7808TIP3   OH223387   3.251   2.067   1.354 -0.0566  0.5723 -0.7297
 7808TIP3    H123388   3.239   1.972   1.352  0.0050  0.5679 -2.5620
 7808TIP3    H223389   3.162   2.102   1.359 -0.0608  0.4941  3.6739
 7809TIP3   OH223390   6.815   4.866   4.867  0.4136  0.7978  0.1468
 7809TIP3    H123391   6.832   4.943   4.922 -1.6203  0.5928  1.1818
 7809TIP3    H223392   6.719   4.865   4.858  0.4196 -1.4882 -0.0389
 7810TIP3   OH223393   5.640   6.632   4.813  0.1059 -0.7413 -0.2787
 7810TIP3    H123394   5.730   6.623   4.844  0.4795 -0.4471 -1.2333
 7810TIP3    H223395   5.644   6.701   4.747 -1.1830  0.6090  1.0098
 7811TIP3   OH223396   6.482   1.043   4.403 -0.1993  0.7483 -0.2600
 7811TIP3    H123397   6.445   0.996   4.477 -0.6687 -0.4659 -1.2345
 7811TIP3    H223398   6.435   1.127   4.402 -1.2625  0.1688 -0.0770
 7812TIP3   OH223399   0.421   5.814   4.742  0.6331 -0.5333  0.3981
 7812TIP3    H123400   0.410   5.799   4.648  0.3626 -0.6875  0.4524
 7812TIP3    H223401   0.343   5.774   4.782  0.1099  0.6228  0.5845
 7813TIP3   OH223402   4.084   4.447   0.467 -0.4711 -0.2736  0.0054
 7813TIP3    H123403   4.067   4.365   0.514  0.8579 -0.7898 -0.3749
 7813TIP3    H223404   4.000   4.468   0.425 -1.1545 -0.7845  1.0930
 7814TIP3   OH223405   3.023   3.406   5.179  0.4362 -0.3075  0.3860
 7814TIP3    H123406   3.071   3.433   5.256  1.0805  0.9997 -0.4447
 7814TIP3    H223407   2.953   3.350   5.213  0.4423  0.5856  1.9493
 7815TIP3   OH223408   4.479   3.142   0.912 -0.2677  0.1121  0.3948
 7815TIP3    H123409   4.494   3.058   0.956  0.1699 -0.0537 -0.0616
 7815TIP3    H223410   4.567   3.171   0.886 -0.6157 -0.3960 -1.4717
 7816TIP3   OH223411   0.930   2.442   1.488 -0.0761 -0.0465  0.1195
 7816TIP3    H123412   0.901   2.404   1.571 -0.9806  2.2234  0.9266
 7816TIP3    H223413   1.024   2.458   1.500  0.1185 -1.0786  0.1026
 7817TIP3   OH223414   4.799   1.268   3.005 -0.3820 -0.3821 -0.3400
 7817TIP3    H123415   4.713   1.230   2.988 -0.4671  0.1702 -1.1551
 7817TIP3    H223416   4.780   1.354   3.043 -0.1934 -0.2375 -0.5720
 7818TIP3   OH223417   0.465   2.130   1.727  0.6406 -0.3017  0.2310
 7818TIP3    H123418   0.506   2.127   1.641 -1.3556 -0.8801 -0.7573
 7818TIP3    H223419   0.444   2.038   1.747 -1.6800  0.0878 -0.1174
 7819TIP3   OH223420   1.041   6.679   3.388  0.4115  0.1737 -0.1287
 7819TIP3    H123421   0.982   6.674   3.463 -0.0646 -0.1197 -0.5093
 7819TIP3    H223422   0.984   6.661   3.313  0.0604  3.9061 -0.9589
 7820TIP3   OH223423   6.079   5.692   0.543 -0.2529 -0.7901  0.0083
 7820TIP3    H123424   6.028   5.612   0.549 -0.3464 -0.6529  1.0943
 7820TIP3    H223425   6.161   5.664   0.501 -0.1684 -1.5109  0.6311
 7821TIP3   OH223426   2.600   3.128   4.815 -0.6406 -0.8332  0.3404
 7821TIP3    H123427   2.681   3.143   4.766 -0.3710 -2.5048  0.2036
 7821TIP3    H223428   2.590   3.033   4.815 -1.2767 -0.8202  2.4950
 7822TIP3   OH223429   0.803   6.418   3.732 -0.1023 -0.8638 -0.2677
 7822TIP3    H123430   0.860   6.417   3.809 -1.2220 -1.0243  0.5750
 7822TIP3    H223431   0.833   6.344   3.680 -0.4874 -1.8575  0.8832
 7823TIP3   OH223432   3.898   6.343   4.517  0.0733 -0.0869  0.5605
 7823TIP3    H123433   3.805   6.352   4.537 -0.0378  2.9929 -0.8350
 7823TIP3    H223434   3.942   6.368   4.598 -0.2388 -1.3157  1.1469
 7824TIP3   OH223435   4.003   4.602   1.047  0.0612 -0.1700  0.5115
 7824TIP3    H123436   3.922   4.643   1.076  0.4225  1.0104 -0.0677
 7824TIP3    H223437   4.071   4.668   1.065  0.5315 -0.1104 -1.3018
 7825TIP3   OH223438   3.048   2.466   1.434  0.0558 -0.5343 -0.0889
 7825TIP3    H123439   3.018   2.552   1.463  2.2306  0.6967 -1.1946
 7825TIP3    H223440   3.052   2.473   1.339  0.7277 -1.6670 -0.1628
 7826TIP3   OH223441   4.022   5.110   5.187 -1.0066 -0.3116  0.1916
 7826TIP3    H123442   4.045   5.140   5.099 -0.0064  0.4371  0.6887
 7826TIP3    H223443   4.050   5.019   5.190  0.4219  0.1079  0.2310
 7827TIP3   OH223444   3.551   2.984   1.791 -0.2230  0.1245  0.6552
 7827TIP3    H123445   3.585   3.074   1.790  1.7321 -0.5712  0.7002
 7827TIP3    H223446   3.586   2.944   1.712  0.8939 -1.2656  1.8154
 7828TIP3   OH223447   3.733   1.028   3.359  0.2924 -0.2082  0.5637
 7828TIP3    H123448   3.698   1.093   3.420  1.2081 -0.8440  1.8227
 7828TIP3    H223449   3.656   0.989   3.318 -0.3231  0.6175  0.9069
 7829TIP3   OH223450   4.345   2.408   0.994  0.0088 -0.3513 -0.1178
 7829TIP3    H123451   4.433   2.433   1.024  0.9137 -1.9387 -1.2997
 7829TIP3    H223452   4.306   2.364   1.070  0.2826  0.2156  0.3611
 7830TIP3   OH223453   0.165   3.130   3.927  0.4460  0.2584 -0.4512
 7830TIP3    H123454   0.174   3.193   3.855 -0.0877 -1.3001 -1.9513
 7830TIP3    H223455   0.073   3.136   3.953  0.6583  0.8835  0.2015
 7831TIP3   OH223456   4.884   4.753   4.132 -0.3278 -0.1247 -0.4076
 7831TIP3    H123457   4.884   4.691   4.205 -0.6049  0.6799  0.2920
 7831TIP3    H223458   4.798   4.794   4.135 -0.3197 -0.0305 -1.1512
 7832TIP3   OH223459   0.871   6.741   0.242 -0.0669 -0.0366  0.0455
 7832TIP3    H123460   0.925   6.694   0.306 -1.1058 -0.0236  0.9453
 7832TIP3    H223461   0.929   6.809   0.207  0.5101 -0.0473  0.9650
 7833TIP3   OH223462   0.636   6.103   3.853  0.7353  0.1688 -0.6645
 7833TIP3    H123463   0.650   6.090   3.947 -0.5932 -1.9623 -0.7086
 7833TIP3    H223464   0.571   6.174   3.848  1.4689  0.9010 -0.0335
 7834TIP3   OH223465   4.896   3.337   1.991 -0.1012  0.6578 -0.1942
 7834TIP3    H123466   4.811   3.362   1.955  0.9210  2.0694 -1.7609
 7834TIP3    H223467   4.908   3.394   2.067 -1.0924 -0.4914  0.8851
 7835TIP3   OH223468   6.385   0.599   1.161  0.2547  0.1211 -0.0381
 7835TIP3    H123469   6.302   0.629   1.199  0.3742  0.2982  0.0802
 7835TIP3    H223470   6.393   0.649   1.079 -0.3515 -0.7634 -0.6666
 7836TIP3   OH223471   6.113   4.811   5.463 -0.3117  0.3502 -0.3837
 7836TIP3    H123472   6.128   4.717   5.469  0.3008  0.4842  0.3056
 7836TIP3    H223473   6.120   4.830   5.369  0.3629 -0.1681 -0.4493
 7837TIP3   OH223474   1.197   1.897   3.476 -0.5419 -0.1283 -0.6588
 7837TIP3    H123475   1.218   1.986   3.506 -0.0361 -0.8098  1.1233
 7837TIP3    H223476   1.106   1.904   3.446 -0.5131  0.9978 -0.5440
 7838TIP3   OH223477   2.163   5.923   1.794  0.1500  0.5431 -0.4155
 7838TIP3    H123478   2.175   5.921   1.699  1.7552  2.7936 -0.3265
 7838TIP3    H223479   2.101   5.994   1.809 -0.0457  0.2375  0.2261
 7839TIP3   OH223480   2.358   3.707   5.826 -0.3949 -0.4636  0.3570
 7839TIP3    H123481   2.424   3.753   5.878  0.0599  2.4059 -2.4514
 7839TIP3    H223482   2.274   3.739   5.859 -0.1855 -0.0632  0.4954
 7840TIP3   OH223483   1.463   5.017   0.058  0.1612 -0.3954 -0.0411
 7840TIP3    H123484   1.394   5.016  -0.009  0.7290 -2.4480 -0.6436
 7840TIP3    H223485   1.463   5.108   0.089 -1.1813  0.2445 -1.7038
 7841TIP3   OH223486   4.284   1.635   4.564  0.2848 -0.3935 -0.1209
 7841TIP3    H123487   4.259   1.706   4.505 -1.8107 -0.5278  0.4968
 7841TIP3    H223488   4.282   1.557   4.509 -2.3449 -0.6231  0.1455
 7842TIP3   OH223489   3.979   5.342   4.619  0.1829  0.1443  0.0303
 7842TIP3    H123490   3.916   5.328   4.548 -0.0655  1.0329  0.0635
 7842TIP3    H223491   4.060   5.364   4.574  0.1496  0.2286  0.0111
 7843TIP3   OH223492   4.168   4.747   1.209  0.2406  0.1924  0.6420
 7843TIP3    H123493   4.148   4.764   1.301  0.4302 -2.2986  1.2072
 7843TIP3    H223494   4.249   4.696   1.211 -0.9081 -1.8380 -0.7093
 7844TIP3   OH223495   6.289   3.207   1.078 -0.0616  0.2815  0.1422
 7844TIP3    H123496   6.283   3.217   1.173 -1.6746  0.8444  0.0164
 7844TIP3    H223497   6.201   3.230   1.046  0.8878  1.7115 -1.6293
 7845TIP3   OH223498   3.115   3.402   1.385  0.5023 -0.3210  0.1252
 7845TIP3    H123499   3.089   3.403   1.477 -1.5165 -0.1393 -0.3966
 7845TIP3    H223500   3.078   3.321   1.350 -3.1770  1.7770 -1.5664
 7846TIP3   OH223501   6.260   0.598   0.601  0.6952  0.2372 -0.3550
 7846TIP3    H123502   6.356   0.591   0.601  0.6506 -0.5958 -1.5393
 7846TIP3    H223503   6.241   0.681   0.558  0.8677  0.0221 -0.8454
 7847TIP3   OH223504   4.499   5.469   4.492  0.4287  0.4981 -0.0613
 7847TIP3    H123505   4.481   5.535   4.560 -0.2267 -0.2939  0.5612
 7847TIP3    H223506   4.484   5.515   4.410 -1.4949  0.7604  0.3711
 7848TIP3   OH223507   6.322   0.848   1.879 -0.2834  0.5714  0.2881
 7848TIP3    H123508   6.398   0.854   1.820  0.3636 -0.9619  0.9205
 7848TIP3    H223509   6.360   0.857   1.967 -0.8969  0.2271  0.5922
 7849TIP3   OH223510   3.407   2.296  -0.001 -0.3591 -0.2162 -0.7101
 7849TIP3    H123511   3.449   2.282   0.083  0.6765  1.1604 -0.9661
 7849TIP3    H223512   3.328   2.346   0.019 -0.4875 -0.5026 -0.4947
 7850TIP3   OH223513   1.431   0.057   3.474 -0.2961 -0.3936 -0.2874
 7850TIP3    H123514   1.394  -0.030   3.459 -0.9377 -0.2303  0.2673
 7850TIP3    H223515   1.364   0.118   3.441 -0.3496 -0.0984  0.3447
 7851TIP3   OH223516   5.680   4.357   3.404  0.0022  0.0627 -0.3895
 7851TIP3    H123517   5.675   4.403   3.321  0.0639 -0.7425 -0.8500
 7851TIP3    H223518   5.742   4.286   3.388  0.3312  0.1452  0.4647
 7852TIP3   OH223519   4.774   3.253   0.725  0.1080 -0.3739 -0.3460
 7852TIP3    H123520   4.769   3.299   0.809  1.1855 -1.0791  0.1292
 7852TIP3    H223521   4.717   3.303   0.666 -2.3654 -1.0267  1.3261
 7853TIP3   OH223522   3.458   5.483   5.251  0.0615  0.1588 -0.3885
 7853TIP3    H123523   3.403   5.415   5.212 -1.4499  0.6964  0.6735
 7853TIP3    H223524   3.395   5.551   5.279  1.1743  0.4684  1.5816
 7854TIP3   OH223525   2.946   6.526   1.557  0.5165  0.2882 -0.1263
 7854TIP3    H123526   2.980   6.470   1.487 -0.0851 -1.8304  1.1555
 7854TIP3    H223527   3.023   6.567   1.594  1.0316  0.0566 -0.9095
 7855TIP3   OH223528   7.018   1.790   4.192 -0.1104  0.3974  0.3067
 7855TIP3    H123529   7.071   1.781   4.113  2.4106  2.0673  1.7054
 7855TIP3    H223530   7.069   1.845   4.250 -2.2017 -0.1521  2.8710
 7856TIP3   OH223531   3.110   1.208   5.388 -0.8608 -0.6365  0.5070
 7856TIP3    H123532   3.154   1.131   5.423 -1.2782 -0.8165  0.6419
 7856TIP3    H223533   3.156   1.282   5.426 -1.0023 -0.8294  1.0524
 7857TIP3   OH223534   0.794   3.941   0.925  0.1389 -0.1337 -0.0941
 7857TIP3    H123535   0.843   3.860   0.936 -1.0682 -0.6576  2.0716
 7857TIP3    H223536   0.861   4.008   0.910  1.3639 -1.1354  0.6965
 7858TIP3   OH223537   2.302   0.802   0.073  0.7422  0.0357 -0.0090
 7858TIP3    H123538   2.267   0.771   0.157 -3.3640 -1.6384 -2.0455
 7858TIP3    H223539   2.341   0.724   0.033 -2.2263 -0.7260 -1.7298
 7859TIP3   OH223540   3.895   0.826   2.855  0.5909  0.4694  0.2086
 7859TIP3    H123541   3.941   0.743   2.866  1.2226  0.8545  0.5308
 7859TIP3    H223542   3.807   0.809   2.889  0.3910 -0.3486 -0.6577
 7860TIP3   OH223543   7.131   0.937   0.111  0.6128  0.4173  0.4994
 7860TIP3    H123544   7.101   0.871   0.173 -3.1939  0.1504 -1.3449
 7860TIP3    H223545   7.113   1.021   0.153  0.4637  0.2571  0.7513
 7861TIP3   OH223546   6.109   6.036   4.453  0.2395  0.0791  0.1931
 7861TIP3    H123547   6.018   6.037   4.484  0.8280  0.1105  2.0320
 7861TIP3    H223548   6.117   6.115   4.400 -0.9078 -0.1274 -0.3069
 7862TIP3   OH223549   4.520   0.339   0.498  0.0510  0.0898  0.0325
 7862TIP3    H123550   4.483   0.319   0.412  2.8963  0.5048 -1.3728
 7862TIP3    H223551   4.480   0.423   0.522  1.1839  1.3376 -2.1734
 7863TIP3   OH223552   7.141   3.363   2.963  0.3287 -0.2318  1.0288
 7863TIP3    H123553   7.224   3.338   3.004  0.5152 -1.5447 -0.0747
 7863TIP3    H223554   7.165   3.435   2.904  0.8347 -1.0104  0.2499
 7864TIP3   OH223555   0.765   0.769   2.763 -0.5739 -0.6416 -0.3443
 7864TIP3    H123556   0.743   0.859   2.738 -2.5351 -1.1585 -0.6297
 7864TIP3    H223557   0.842   0.748   2.710 -0.3701  0.6810 -0.6259
 7865TIP3   OH223558   4.364   5.745   3.469 -0.1901  0.0276 -0.3042
 7865TIP3    H123559   4.302   5.717   3.402  1.4894  0.5086 -2.1445
 7865TIP3    H223560   4.404   5.664   3.501  0.6714 -0.0759 -1.5956
 7866TIP3   OH223561   6.192   4.411   2.063 -0.8506  0.2923  0.0804
 7866TIP3    H123562   6.234   4.393   1.979  0.9789 -0.6686  1.1436
 7866TIP3    H223563   6.185   4.506   2.066 -0.0907  0.3921 -0.7859
 7867TIP3   OH223564   6.437   6.511   5.641  0.2362  0.0685 -0.4246
 7867TIP3    H123565   6.532   6.506   5.632  0.3712 -0.7703  1.1738
 7867TIP3    H223566   6.422   6.531   5.733 -1.1468 -1.7320 -0.1935
 7868TIP3   OH223567   3.934   4.781   2.805  0.1321 -0.5361 -0.4873
 7868TIP3    H123568   3.844   4.796   2.775  0.1824 -1.2640 -1.0477
 7868TIP3    H223569   3.929   4.787   2.900 -0.3261  0.3471 -0.5546
 7869TIP3   OH223570   6.035   2.057   5.506 -0.1408  0.1008 -0.4331
 7869TIP3    H123571   6.019   1.973   5.462  0.2743 -1.1619  1.7106
 7869TIP3    H223572   6.078   2.111   5.440  3.2685 -2.7150 -0.8043
 7870TIP3   OH223573   1.689   5.094   0.282  0.2155  0.4067 -0.6184
 7870TIP3    H123574   1.778   5.099   0.247  0.2655 -0.2167 -0.5939
 7870TIP3    H223575   1.689   5.015   0.337  0.0296  1.1517  0.4817
 7871TIP3   OH223576   4.882   1.302   2.743 -0.3958  0.0829  0.1304
 7871TIP3    H123577   4.867   1.247   2.820  1.7570 -2.1697 -0.9271
 7871TIP3    H223578   4.885   1.241   2.670 -0.9255  1.9960 -1.5771
 7872TIP3   OH223579   0.236   3.483   3.423 -0.1351 -0.8093 -0.4188
 7872TIP3    H123580   0.194   3.539   3.489 -1.3671 -0.8893 -1.1084
 7872TIP3    H223581   0.165   3.431   3.388  1.2641 -4.8669  2.0671
 7873TIP3   OH223582   2.198   1.857   1.803  0.0619  0.4082  0.2326
 7873TIP3    H123583   2.275   1.863   1.747  0.2067  0.9290  0.4755
 7873TIP3    H223584   2.127   1.892   1.749  0.4108  1.9811  0.7351
 7874TIP3   OH223585   3.210   5.000   5.071 -0.2932 -0.4480  0.1101
 7874TIP3    H123586   3.143   4.946   5.030 -1.4168  0.8952  0.0941
 7874TIP3    H223587   3.259   5.038   4.998 -1.7915  1.3207 -0.0480
 7875TIP3   OH223588   1.263   5.941   4.117  0.0868  0.5437 -0.1540
 7875TIP3    H123589   1.212   5.862   4.097  0.0819  0.7545 -0.9984
 7875TIP3    H223590   1.206   6.014   4.092 -0.1116  0.8475  1.1018
 7876TIP3   OH223591   2.702   4.458   0.842  0.1187  0.3284 -0.0075
 7876TIP3    H123592   2.628   4.484   0.897  0.8131 -0.4795  1.3483
 7876TIP3    H223593   2.669   4.384   0.791 -0.4075  0.8428 -0.4408
 7877TIP3   OH223594   5.864   0.677   0.582  0.2687 -0.4582  0.0335
 7877TIP3    H123595   5.925   0.606   0.561 -0.5363 -1.3483  0.6255
 7877TIP3    H223596   5.805   0.639   0.647 -0.9607  0.3569 -0.5756
 7878TIP3   OH223597   2.176   3.620   1.617  0.2232 -0.3940 -0.8183
 7878TIP3    H123598   2.151   3.591   1.705  1.0547  1.1062 -0.0370
 7878TIP3    H223599   2.104   3.593   1.561 -1.5827  0.8507  0.7698
 7879TIP3   OH223600   4.426   3.103   1.637 -0.2746  0.0219  1.0684
 7879TIP3    H123601   4.385   3.029   1.682 -2.7140 -0.2126 -1.2810
 7879TIP3    H223602   4.433   3.171   1.705  1.1549 -1.9449  3.0289
 7880TIP3   OH223603   0.190   5.302   3.482 -0.7192 -0.6749 -0.1078
 7880TIP3    H123604   0.096   5.320   3.478 -0.7336 -0.5920  0.5886
 7880TIP3    H223605   0.219   5.310   3.391 -1.1392  0.6572 -0.1417
 7881TIP3   OH223606   3.637   1.968   2.081  0.3896  0.3827 -0.7042
 7881TIP3    H123607   3.666   1.881   2.109 -1.1060  0.6876  2.2488
 7881TIP3    H223608   3.546   1.955   2.053 -0.0534  1.0204  0.3581
 7882TIP3   OH223609   6.796   4.067   3.058 -0.1801  0.3813 -0.6225
 7882TIP3    H123610   6.887   4.092   3.076  0.1213  1.7791 -3.4552
 7882TIP3    H223611   6.748   4.150   3.063 -0.9436 -0.0352 -1.0116
 7883TIP3   OH223612   4.100   6.332   0.950 -1.3479  0.4868 -0.3710
 7883TIP3    H123613   4.120   6.373   1.035 -1.7005 -0.1317  0.0222
 7883TIP3    H223614   4.007   6.310   0.955 -1.1614 -0.3892 -0.5490
 7884TIP3   OH223615   0.278   0.565   2.040  0.4799 -0.1081 -0.4550
 7884TIP3    H123616   0.328   0.646   2.046  0.5636 -0.2257  0.5017
 7884TIP3    H223617   0.207   0.576   2.103 -0.1371 -0.3507 -1.0852
 7885TIP3   OH223618   0.661   4.278   2.811  0.0497  0.4955 -0.0391
 7885TIP3    H123619   0.612   4.229   2.877  0.7490  0.3832  0.4050
 7885TIP3    H223620   0.689   4.212   2.747 -0.7826  0.6306 -0.5509
 7886TIP3   OH223621   6.575   4.242   1.982 -0.4946 -0.0004  0.0292
 7886TIP3    H123622   6.536   4.280   2.061 -1.0281  0.0199 -0.2414
 7886TIP3    H223623   6.651   4.297   1.964 -0.0437 -0.3438  0.8505
 7887TIP3   OH223624   3.883   3.589   0.285 -0.4628  0.2079 -0.1862
 7887TIP3    H123625   3.924   3.520   0.232  1.4700  1.3149 -0.2318
 7887TIP3    H223626   3.795   3.598   0.249  0.2155 -0.2744 -2.0929
 7888TIP3   OH223627   0.872   1.579   0.960  0.6491  0.3009 -0.2812
 7888TIP3    H123628   0.875   1.623   1.045 -1.2830  0.9590 -0.5036
 7888TIP3    H223629   0.869   1.486   0.982  1.0559  0.4288  0.3464
 7889TIP3   OH223630   1.095   3.898   1.262 -0.7612  0.1807 -0.0699
 7889TIP3    H123631   1.090   3.987   1.298 -0.8195  0.5161 -0.8840
 7889TIP3    H223632   1.034   3.847   1.316 -1.2333  0.7798 -0.0225
 7890TIP3   OH223633   6.395   1.668   5.600 -0.3345  0.0759 -0.5500
 7890TIP3    H123634   6.417   1.595   5.657  0.7413  1.3561  0.7445
 7890TIP3    H223635   6.354   1.627   5.523 -0.2698 -1.8133  0.3668
 7891TIP3   OH223636   3.650   4.582   5.906  0.0841  0.0111 -0.0797
 7891TIP3    H123637   3.664   4.663   5.858 -0.0875 -0.0379 -0.2132
 7891TIP3    H223638   3.650   4.514   5.838  1.8792 -0.3090  0.1721
 7892TIP3   OH223639   7.201   0.658   3.033 -0.2571 -1.1357  0.2280
 7892TIP3    H123640   7.141   0.718   3.078  0.3836  0.4778 -0.9598
 7892TIP3    H223641   7.156   0.636   2.952  0.6089 -0.1108 -0.5558
 7893TIP3   OH223642   6.400   2.996   2.163 -0.3629  0.1864  0.2728
 7893TIP3    H123643   6.360   2.972   2.079  0.1306 -0.6020  0.2517
 7893TIP3    H223644   6.494   2.990   2.147 -0.2523  0.6765  0.7073
 7894TIP3   OH223645   1.097   0.930   0.947  0.4335 -0.1801 -0.0994
 7894TIP3    H123646   1.069   0.866   1.012  1.5230  1.2338  1.8818
 7894TIP3    H223647   1.017   0.976   0.922  0.0877 -0.3022  0.7657
 7895TIP3   OH223648   3.724   6.475   3.250 -0.3418  0.2019 -0.0808
 7895TIP3    H123649   3.710   6.463   3.156 -1.2675 -0.0716  0.0839
 7895TIP3    H223650   3.752   6.566   3.258 -2.5583  0.9905 -0.4191
 7896TIP3   OH223651   4.736   3.309   0.982  0.0742  0.4114 -0.0604
 7896TIP3    H123652   4.809   3.250   1.000  0.1311  0.2712 -0.7274
 7896TIP3    H223653   4.730   3.365   1.059  1.0870  0.6360 -0.1383
 7897TIP3   OH223654   1.705   6.417   5.301 -0.0025  0.4480 -0.2913
 7897TIP3    H123655   1.671   6.362   5.231  0.6771  2.5882 -2.4302
 7897TIP3    H223656   1.633   6.478   5.321  0.1744  0.5298  0.1081
 7898TIP3   OH223657   3.087   4.650   5.779  0.1087  0.5039 -0.3633
 7898TIP3    H123658   3.053   4.563   5.760  1.2659  0.1309 -0.7993
 7898TIP3    H223659   3.012   4.698   5.815 -0.7597 -0.3937 -0.9445
 7899TIP3   OH223660   6.533   4.402   0.780  0.1269  0.1032  0.6857
 7899TIP3    H123661   6.491   4.487   0.791  0.1945 -0.0458  2.3141
 7899TIP3    H223662   6.492   4.346   0.846  1.4120 -0.5908  0.9353
 7900TIP3   OH223663   3.157   5.296   4.212  0.0973 -0.1318 -0.2964
 7900TIP3    H123664   3.234   5.343   4.244  1.8582 -2.6421 -0.6376
 7900TIP3    H223665   3.136   5.340   4.129  0.7741  0.9614  0.0819
 7901TIP3   OH223666   0.633   2.385   2.957 -0.3405 -0.3118  0.0001
 7901TIP3    H123667   0.575   2.309   2.961 -0.3936 -0.3311 -0.8787
 7901TIP3    H223668   0.616   2.424   2.871  1.2029 -0.5185 -0.4329
 7902TIP3   OH223669   4.191   5.613   3.282 -0.0862 -1.1802  0.2202
 7902TIP3    H123670   4.174   5.524   3.314 -1.3826 -1.1811 -0.4120
 7902TIP3    H223671   4.105   5.646   3.256  0.3119  0.4141  0.8075
 7903TIP3   OH223672   4.252   1.215   0.037 -0.0316  0.1015  0.1576
 7903TIP3    H123673   4.286   1.198   0.125  0.1607  1.5359  0.3765
 7903TIP3    H223674   4.313   1.279  -0.000  0.1953 -0.8787 -1.2398
 7904TIP3   OH223675   3.394   6.258   5.353  0.2922  0.0795 -0.0884
 7904TIP3    H123676   3.433   6.177   5.321  1.4958  1.3789 -2.1671
 7904TIP3    H223677   3.305   6.258   5.317  0.2421 -0.3809  0.0328
 7905TIP3   OH223678   4.169   6.129   1.685  0.4201  0.3690 -0.2783
 7905TIP3    H123679   4.258   6.138   1.720 -0.1889  0.8940  1.2124
 7905TIP3    H223680   4.130   6.060   1.737  0.0260 -0.0731 -1.1378
 7906TIP3   OH223681   2.159   4.073   0.177  0.0465  0.3400 -0.3926
 7906TIP3    H123682   2.201   4.112   0.100  0.8392 -0.2641 -0.2748
 7906TIP3    H223683   2.197   3.985   0.183 -0.3629  0.2135  0.4154
 7907TIP3   OH223684   1.555   6.124   2.631  0.2358  0.5745 -0.3331
 7907TIP3    H123685   1.463   6.139   2.655  0.0570 -0.3515 -0.4151
 7907TIP3    H223686   1.557   6.034   2.599  1.5240 -0.0817  1.4526
 7908TIP3   OH223687   5.641   1.740   0.312  0.4241 -0.1602  0.0150
 7908TIP3    H123688   5.726   1.782   0.301  0.2756 -0.0068 -0.5913
 7908TIP3    H223689   5.596   1.754   0.229 -0.3667  0.1486  0.4751
 7909TIP3   OH223690   4.201   3.632   0.721 -0.2247 -0.6025 -0.3361
 7909TIP3    H123691   4.193   3.722   0.688 -1.6717  0.0924  1.7138
 7909TIP3    H223692   4.190   3.640   0.815  0.9431 -2.8161  0.0504
 7910TIP3   OH223693   3.272   6.686   4.915 -0.6456  0.0022 -0.2081
 7910TIP3    H123694   3.283   6.743   4.991  0.8571  1.5336 -1.5248
 7910TIP3    H223695   3.202   6.727   4.864  0.5537  0.7985 -1.2429
 7911TIP3   OH223696   6.521   1.731   1.746  0.3070 -0.2344 -0.3949
 7911TIP3    H123697   6.490   1.792   1.813  1.2423 -1.2805  1.0334
 7911TIP3    H223698   6.480   1.648   1.769 -1.2308 -0.1414 -2.5180
 7912TIP3   OH223699   3.745   1.584   4.141  0.0797 -0.3051 -0.3503
 7912TIP3    H123700   3.739   1.588   4.046 -1.8554 -0.1075 -0.2650
 7912TIP3    H223701   3.686   1.512   4.166 -0.3921  0.4399  0.7561
 7913TIP3   OH223702   6.024   5.268   1.482 -0.3393 -0.9667  0.2137
 7913TIP3    H123703   5.974   5.348   1.500 -2.9700 -1.9079 -2.1388
 7913TIP3    H223704   6.032   5.225   1.567 -1.7895  0.2572  1.0204
 7914TIP3   OH223705   7.011   2.407   2.270  0.2389 -0.2191  0.0964
 7914TIP3    H123706   7.002   2.386   2.363 -0.3414 -0.6854 -0.0577
 7914TIP3    H223707   6.921   2.414   2.238  0.4078  1.7526 -0.0498
 7915TIP3   OH223708   3.574   0.721   4.032  0.4091  0.2481  0.4036
 7915TIP3    H123709   3.651   0.664   4.041 -0.3250 -1.3007 -2.1318
 7915TIP3    H223710   3.518   0.696   4.105  0.4396 -1.8002 -0.2193
 7916TIP3   OH223711   2.133   1.209   5.364  0.1273 -0.0035  0.7473
 7916TIP3    H123712   2.163   1.279   5.421 -0.4001  0.4106  0.5282
 7916TIP3    H223713   2.165   1.234   5.277 -2.2339  1.3450  0.1893
 7917TIP3   OH223714   4.858   3.441   4.533  0.2587  0.2445  0.3750
 7917TIP3    H123715   4.918   3.386   4.584  0.6068  1.3661  1.2134
 7917TIP3    H223716   4.866   3.408   4.443 -1.5758 -2.8632  1.1703
 7918TIP3   OH223717   4.309   5.873   4.361  0.7553 -0.1077  0.4532
 7918TIP3    H123718   4.390   5.827   4.337 -0.3691 -1.1927 -1.4867
 7918TIP3    H223719   4.254   5.806   4.401  0.3898  0.3893  0.8064
 7919TIP3   OH223720   0.694   0.207   3.692 -0.5578  0.0127  0.7162
 7919TIP3    H123721   0.750   0.159   3.753  1.3740  1.0006 -0.2022
 7919TIP3    H223722   0.614   0.224   3.742  0.0721 -1.1357  2.1977
 7920TIP3   OH223723   0.376   4.009   4.069 -0.1389 -0.2389 -0.0211
 7920TIP3    H123724   0.471   4.003   4.071 -0.2158 -2.1085  0.0344
 7920TIP3    H223725   0.351   4.034   4.158  0.2972  0.6122 -0.1270
 7921TIP3   OH223726   2.030   3.117   4.496  0.4665  0.6579 -0.0594
 7921TIP3    H123727   1.954   3.106   4.554  0.8973  0.4271  0.4693
 7921TIP3    H223728   2.086   3.042   4.515  0.7399  0.7180 -0.5938
 7922TIP3   OH223729   1.974   0.956   2.537  0.5347  0.3962  0.5717
 7922TIP3    H123730   1.878   0.961   2.537  0.5495  1.3678 -0.8965
 7922TIP3    H223731   1.993   0.867   2.566 -0.7637  0.5760  2.1118
 7923TIP3   OH223732   1.033   3.591   0.344 -0.6269  0.1147  0.4466
 7923TIP3    H123733   0.967   3.537   0.301 -1.2621  0.2147  1.2653
 7923TIP3    H223734   0.994   3.613   0.429  0.2747  0.5542  0.7568
 7924TIP3   OH223735   2.616   6.668   0.387 -0.6164 -0.4963  0.1345
 7924TIP3    H123736   2.528   6.675   0.350 -0.2756 -0.3234 -0.6520
 7924TIP3    H223737   2.672   6.645   0.313 -0.0536 -0.9855  0.6974
 7925TIP3   OH223738   0.739   1.115   5.459 -0.2965 -0.0811 -0.0919
 7925TIP3    H123739   0.799   1.102   5.532 -0.4094 -1.4651 -0.2124
 7925TIP3    H223740   0.661   1.153   5.498 -0.4066 -0.9322  0.5456
 7926TIP3   OH223741   6.129   4.541   0.680  0.1571  0.1638  0.1731
 7926TIP3    H123742   6.123   4.548   0.775 -0.1774  0.7496  0.1127
 7926TIP3    H223743   6.057   4.595   0.647 -0.3013 -0.7744 -0.4013
 7927TIP3   OH223744   2.378   1.535   0.173  0.3701  0.2977 -0.1422
 7927TIP3    H123745   2.283   1.543   0.161  0.3977  0.8789 -0.0064
 7927TIP3    H223746   2.393   1.441   0.182 -0.3434  0.2803  1.0269
 7928TIP3   OH223747   2.510   2.959   0.109  0.0638 -1.0037 -0.1676
 7928TIP3    H123748   2.507   2.864   0.119 -1.3100 -0.9936 -0.2969
 7928TIP3    H223749   2.433   2.990   0.156  0.9720  0.1248  0.6071
 7929TIP3   OH223750   3.230   4.352   0.432  1.0562  0.2446  0.0794
 7929TIP3    H123751   3.170   4.381   0.500 -0.5458  2.4861 -2.1536
 7929TIP3    H223752   3.203   4.262   0.413  1.5841 -0.4709  2.3090
 7930TIP3   OH223753   4.802   2.759   2.037 -0.3913 -0.3078  0.3226
 7930TIP3    H123754   4.750   2.752   2.116 -0.9803  1.5215  0.1547
 7930TIP3    H223755   4.877   2.814   2.062  1.1493 -2.3381  0.3915
 7931TIP3   OH223756   5.324   5.852   2.704  1.0361  0.3870  0.1039
 7931TIP3    H123757   5.379   5.774   2.716  1.2370  0.6358  0.8460
 7931TIP3    H223758   5.359   5.916   2.765  1.1834  1.2409 -0.8641
 7932TIP3   OH223759   0.139   2.223   1.445 -0.0192 -0.1802 -0.0963
 7932TIP3    H123760   0.199   2.281   1.492  2.3178 -1.2036 -1.6331
 7932TIP3    H223761   0.105   2.275   1.373 -0.0724  0.0529  0.0956
 7933TIP3   OH223762   1.983   0.022   2.741 -0.0499  0.4755 -0.0111
 7933TIP3    H123763   1.894   0.049   2.719  0.2049 -0.1123 -1.9418
 7933TIP3    H223764   2.039   0.089   2.702  0.4076 -0.0192 -0.2100
 7934TIP3   OH223765   2.351   0.460   0.768  0.0612 -0.0613  0.0874
 7934TIP3    H123766   2.312   0.404   0.700 -0.6325 -1.7154  1.7663
 7934TIP3    H223767   2.417   0.405   0.810  0.3733  0.8747  0.8634
 7935TIP3   OH223768   6.502   6.195   5.270  0.5457 -0.5027  0.3433
 7935TIP3    H123769   6.434   6.133   5.298  0.0100  0.5045  1.3687
 7935TIP3    H223770   6.547   6.151   5.198 -0.4837 -1.6505  0.3724
 7936TIP3   OH223771   1.268   6.408   3.448  0.6409 -0.2026 -0.1230
 7936TIP3    H123772   1.234   6.496   3.464 -0.1598 -0.4917 -0.2132
 7936TIP3    H223773   1.332   6.420   3.378 -1.7915 -0.1380 -2.5031
 7937TIP3   OH223774   3.938   0.133   0.510 -0.0682 -0.2440  0.3360
 7937TIP3    H123775   3.950   0.121   0.604 -0.0463 -0.4416  0.3082
 7937TIP3    H223776   3.985   0.060   0.470 -2.8419 -2.1809  0.2837
 7938TIP3   OH223777   4.498   1.150   0.347 -0.0742  0.3500  0.4973
 7938TIP3    H123778   4.503   1.228   0.292  1.9054 -0.8269 -1.1610
 7938TIP3    H223779   4.409   1.117   0.335 -0.5300  1.6338  0.2123
 7939TIP3   OH223780   6.076   3.194   4.681 -0.3159 -0.0293  0.7130
 7939TIP3    H123781   6.136   3.186   4.755  0.9253  0.9248 -0.1612
 7939TIP3    H223782   6.068   3.105   4.646 -0.4263 -0.3751  1.5991
 7940TIP3   OH223783   1.855   3.629   2.912  0.5479  0.1702 -0.2446
 7940TIP3    H123784   1.932   3.574   2.925  0.1870 -1.0264 -2.7279
 7940TIP3    H223785   1.795   3.576   2.860 -0.9450  1.9701 -0.4817
 7941TIP3   OH223786   7.129   2.948   3.599  0.2598 -0.2635 -0.1900
 7941TIP3    H123787   7.038   2.919   3.609  0.2493  0.1265  0.9411
 7941TIP3    H223788   7.135   2.977   3.508 -0.6009 -0.7710 -0.4212
 7942TIP3   OH223789   1.070   4.422   4.541 -0.2889 -0.4023 -0.0108
 7942TIP3    H123790   1.000   4.476   4.506 -0.5077 -0.9701 -0.4700
 7942TIP3    H223791   1.090   4.360   4.471  1.0449  0.0964 -0.0991
 7943TIP3   OH223792   3.758   6.778   0.019 -0.0124  0.0465  0.1471
 7943TIP3    H123793   3.722   6.856   0.061 -0.3847 -0.7237  1.3194
 7943TIP3    H223794   3.682   6.737  -0.023  0.1615  0.2471 -0.3702
 7944TIP3   OH223795   6.597   5.332   5.264 -0.1049  0.1185  0.1475
 7944TIP3    H123796   6.563   5.421   5.276 -1.5751 -0.3662 -0.1851
 7944TIP3    H223797   6.541   5.278   5.319  0.1560 -0.7224 -0.4031
 7945TIP3   OH223798   6.346   4.626   4.450  0.0969  0.1478  0.2629
 7945TIP3    H123799   6.396   4.544   4.448  0.5048  0.4132 -0.8338
 7945TIP3    H223800   6.404   4.687   4.496  0.1816  0.0699  0.2624
 7946TIP3   OH223801   0.297   4.216   5.076 -0.4716 -0.5172 -0.2633
 7946TIP3    H123802   0.389   4.190   5.069 -0.3582 -0.3567  0.5622
 7946TIP3    H223803   0.274   4.198   5.167 -1.4452 -1.1524 -0.6212
 7947TIP3   OH223804   0.440   2.667   3.654  0.2951  0.4778 -0.0182
 7947TIP3    H123805   0.397   2.703   3.576 -0.3749 -1.2808 -0.5241
 7947TIP3    H223806   0.436   2.737   3.718 -2.0504  0.9248 -0.5427
 7948TIP3   OH223807   1.083   0.328   0.148 -0.3892 -0.5444 -0.4827
 7948TIP3    H123808   1.164   0.373   0.172 -0.1611 -1.7787  1.2671
 7948TIP3    H223809   1.093   0.240   0.185 -2.6018 -0.6717 -0.0450
 7949TIP3   OH223810   1.160   5.651   1.979 -0.8006  0.2612 -0.2741
 7949TIP3    H123811   1.106   5.730   1.975 -0.5352  0.3980 -1.9435
 7949TIP3    H223812   1.122   5.600   2.051 -1.3012  1.6567  0.4923
 7950TIP3   OH223813   4.690   3.052   2.130  0.0402  0.2235  0.4206
 7950TIP3    H123814   4.739   3.012   2.201  0.0893 -1.0568 -0.2972
 7950TIP3    H223815   4.672   3.142   2.159  0.2574 -0.2060  1.9194
 7951TIP3   OH223816   4.025   1.389   1.556 -0.7400 -0.3087 -0.0159
 7951TIP3    H123817   4.092   1.404   1.623  0.5650 -0.3367 -1.2684
 7951TIP3    H223818   3.954   1.448   1.580 -0.5091 -0.6701  1.6549
 7952TIP3   OH223819   1.543   2.917   1.150 -0.0417  0.1694 -0.2371
 7952TIP3    H123820   1.516   2.972   1.223 -0.4890 -1.1492  0.6010
 7952TIP3    H223821   1.621   2.871   1.182 -0.0857 -0.2241 -0.6917
 7953TIP3   OH223822   1.577   1.322   0.189  0.2850  0.1135 -0.0303
 7953TIP3    H123823   1.597   1.359   0.275 -1.2047 -1.1113  0.8870
 7953TIP3    H223824   1.505   1.375   0.156  0.2207 -0.0259 -0.1112
 7954TIP3   OH223825   4.482   5.126   0.779 -0.5889 -0.1222  0.4461
 7954TIP3    H123826   4.402   5.174   0.758  0.6673  1.3502 -1.4395
 7954TIP3    H223827   4.508   5.087   0.696  2.0210  1.7381  0.2440
 7955TIP3   OH223828   2.958   3.291   0.405  0.1866 -0.0448  0.2922
 7955TIP3    H123829   2.887   3.228   0.420  0.9985 -0.9079  0.6212
 7955TIP3    H223830   2.978   3.282   0.312 -1.4464  1.6529 -0.2871
 7956TIP3   OH223831   1.227   1.080   1.202 -0.4791  0.4166  0.3603
 7956TIP3    H123832   1.157   1.145   1.199 -2.3635 -1.5363 -1.6337
 7956TIP3    H223833   1.276   1.094   1.121  1.4845  1.6971  1.6887
 7957TIP3   OH223834   3.461   2.602   0.345 -0.1330  0.0604  0.5534
 7957TIP3    H123835   3.490   2.691   0.326  1.0299 -0.2091  0.9339
 7957TIP3    H223836   3.376   2.612   0.386  0.9267  1.1945  2.6581
 7958TIP3   OH223837   6.338   3.265   1.636 -0.3624 -0.2069  0.3162
 7958TIP3    H123838   6.267   3.329   1.636 -0.0969  0.1900  2.8314
 7958TIP3    H223839   6.332   3.222   1.721  1.3722 -1.3452 -0.0865
 7959TIP3   OH223840   4.215   4.578   0.710  0.4375  0.0821  0.4863
 7959TIP3    H123841   4.123   4.554   0.722  0.6029 -0.2534  1.1210
 7959TIP3    H223842   4.230   4.571   0.615 -0.7745  2.2980  0.0685
 7960TIP3   OH223843   0.610   4.347   5.178 -0.0686  0.3175 -0.1973
 7960TIP3    H123844   0.595   4.256   5.151  0.8606  0.2489 -0.5406
 7960TIP3    H223845   0.537   4.395   5.140  0.0936 -0.1085 -1.0867
 7961TIP3   OH223846   0.039   4.299   5.579  0.7199  0.0133 -0.1103
 7961TIP3    H123847  -0.024   4.238   5.617  0.5187 -0.1910 -0.7444
 7961TIP3    H223848   0.013   4.385   5.611  0.3298 -0.1094 -0.0893
 7962TIP3   OH223849   2.239   1.893   5.797 -0.2064 -1.0622  0.2745
 7962TIP3    H123850   2.320   1.902   5.748 -0.6890  0.2014 -0.3390
 7962TIP3    H223851   2.258   1.931   5.883 -0.3835  0.0733 -0.1696
 7963TIP3   OH223852   5.725   6.204   1.394  0.1360 -0.1806  0.0536
 7963TIP3    H123853   5.764   6.242   1.316  0.4924 -0.3497  0.1452
 7963TIP3    H223854   5.758   6.258   1.466  0.4031 -0.4726  0.1541
 7964TIP3   OH223855   6.119   5.725   3.015 -0.3796  0.4879 -0.5296
 7964TIP3    H123856   6.188   5.785   2.987  0.2254 -1.0318 -2.5809
 7964TIP3    H223857   6.059   5.722   2.940 -0.9985 -0.5673 -0.0056
 7965TIP3   OH223858   0.149   5.060   0.182  0.3868  0.2537  0.2353
 7965TIP3    H123859   0.141   4.966   0.202 -0.8379  0.5428  1.2019
 7965TIP3    H223860   0.155   5.102   0.267  0.5267  1.0962 -0.1864
 7966TIP3   OH223861   3.886   6.713   3.192 -0.2089  0.0175  0.1232
 7966TIP3    H123862   3.845   6.760   3.265  0.3769  0.4704  0.1609
 7966TIP3    H223863   3.923   6.635   3.231 -0.1456  0.1172  0.2599
 7967TIP3   OH223864   3.602   1.813   4.377  0.2069  0.3993  0.3390
 7967TIP3    H123865   3.567   1.738   4.330  0.3010  0.5729 -0.0120
 7967TIP3    H223866   3.660   1.856   4.315 -1.3599  1.9005 -0.1810
 7968TIP3   OH223867   6.487   4.584   1.215 -0.0464 -0.3368  0.2871
 7968TIP3    H123868   6.496   4.662   1.160 -1.5667  1.1027  1.9941
 7968TIP3    H223869   6.573   4.575   1.258  0.6089 -0.5095 -1.0011
 7969TIP3   OH223870   0.934   2.215   4.782 -0.2461 -0.2312 -0.5966
 7969TIP3    H123871   0.856   2.206   4.837  0.7848 -1.6245  0.7374
 7969TIP3    H223872   0.918   2.292   4.729 -1.3345  1.1842  1.6508
 7970TIP3   OH223873   3.360   6.275   2.462  0.1259 -0.4253  0.0788
 7970TIP3    H123874   3.362   6.367   2.489 -0.2978 -0.6388  0.8695
 7970TIP3    H223875   3.430   6.233   2.513 -1.0100 -0.9313  1.2875
 7971TIP3   OH223876   5.862   2.032   3.827  0.1071  0.3860  0.0648
 7971TIP3    H123877   5.893   2.116   3.791 -1.1985  0.8413 -0.0380
 7971TIP3    H223878   5.915   2.019   3.905 -0.0686  1.6121  0.4102
 7972TIP3   OH223879   1.112   1.543   2.946 -0.4158  0.5773 -0.5178
 7972TIP3    H123880   1.052   1.513   2.878 -1.0663  2.7391 -0.9686
 7972TIP3    H223881   1.058   1.550   3.024  0.2621 -1.6018  0.1995
 7973TIP3   OH223882   6.037   3.661   4.453  0.0035 -0.0256  0.4997
 7973TIP3    H123883   6.015   3.689   4.542 -0.6093 -1.2838  0.7767
 7973TIP3    H223884   6.027   3.566   4.455 -0.5514 -0.0327 -1.0616
 7974TIP3   OH223885   5.583   1.019   1.782  0.1946  0.2399 -0.3065
 7974TIP3    H123886   5.573   1.078   1.707 -0.8647 -0.8011 -1.0233
 7974TIP3    H223887   5.505   1.034   1.835 -0.0828 -0.4841 -0.4942
 7975TIP3   OH223888   5.950   3.965   3.156 -0.1524 -0.2982 -0.0020
 7975TIP3    H123889   5.919   3.909   3.085 -1.3282 -2.0427  1.7715
 7975TIP3    H223890   6.036   3.931   3.178 -1.2034 -2.1461  1.6397
 7976TIP3   OH223891   5.606   1.115   5.140 -0.4032 -0.2908 -0.5258
 7976TIP3    H123892   5.641   1.184   5.197  0.0051 -0.2230 -0.8544
 7976TIP3    H223893   5.535   1.076   5.191  0.8896 -1.2136  0.6595
 7977TIP3   OH223894   1.393   1.353   1.596  0.2873 -0.1534  0.4477
 7977TIP3    H123895   1.337   1.293   1.547  0.1238  0.0005  0.4415
 7977TIP3    H223896   1.403   1.313   1.682 -0.5993  0.2647  0.7572
 7978TIP3   OH223897   2.694   6.625   1.289 -0.3368  0.4439  0.5898
 7978TIP3    H123898   2.691   6.645   1.383 -0.0268  0.8616  0.5181
 7978TIP3    H223899   2.699   6.530   1.285  3.6825  0.4229  1.1888
 7979TIP3   OH223900   5.077   6.301   2.817 -0.1482 -0.8992 -0.6239
 7979TIP3    H123901   5.166   6.267   2.827  0.1362 -0.2415 -0.8989
 7979TIP3    H223902   5.075   6.338   2.729 -0.2364  0.4212 -0.0916
 7980TIP3   OH223903   1.642   5.207   1.316 -0.3396  0.5949 -0.3057
 7980TIP3    H123904   1.719   5.151   1.303  1.6692  3.1102 -0.0918
 7980TIP3    H223905   1.625   5.203   1.410 -0.8238 -0.3359 -0.4176
 7981TIP3   OH223906   4.105   5.368   5.783  0.2008 -0.2930  0.0235
 7981TIP3    H123907   4.158   5.410   5.850 -0.8186 -0.5564  1.0308
 7981TIP3    H223908   4.072   5.288   5.824  0.0037 -0.7531 -0.9842
 7982TIP3   OH223909   6.430   0.727   3.540 -0.2168  0.5637 -0.5742
 7982TIP3    H123910   6.484   0.652   3.514  1.1977  1.0036  0.9301
 7982TIP3    H223911   6.492   0.800   3.547 -1.2977  1.4913 -0.4259
 7983TIP3   OH223912   3.662   5.780   2.605  0.5797  0.2893 -0.1263
 7983TIP3    H123913   3.704   5.825   2.532  1.8235 -1.1643 -0.3732
 7983TIP3    H223914   3.732   5.767   2.669  0.2507 -1.1485 -0.0190
 7984TIP3   OH223915   2.942   4.449   5.039 -0.6922  0.6737  0.5079
 7984TIP3    H123916   2.883   4.483   4.971 -0.4997  0.8062  0.4064
 7984TIP3    H223917   2.884   4.403   5.100 -0.9178  0.9221  0.4832
 7985TIP3   OH223918   2.638   2.628   2.548  0.1709 -0.6318  0.4371
 7985TIP3    H123919   2.545   2.603   2.555 -0.6750  1.8908 -0.6918
 7985TIP3    H223920   2.636   2.716   2.511  3.0853 -1.0257 -0.9005
 7986TIP3   OH223921   0.511   0.600   3.431  0.1042  0.6579 -0.3370
 7986TIP3    H123922   0.603   0.605   3.409 -0.1849 -0.4811 -2.0154
 7986TIP3    H223923   0.467   0.583   3.348 -1.7197  2.0169  0.2792
 7987TIP3   OH223924   4.384   0.757   1.516  0.1173  0.3915 -0.1042
 7987TIP3    H123925   4.416   0.812   1.587  1.5010 -1.3008  0.6545
 7987TIP3    H223926   4.297   0.730   1.544 -0.0655  1.1673  0.0965
 7988TIP3   OH223927   7.051   0.269   1.403  0.4649  0.1036  0.1215
 7988TIP3    H123928   6.966   0.241   1.368  1.0899 -2.5486  0.5171
 7988TIP3    H223929   7.085   0.328   1.336 -0.7989 -0.4138 -1.0377
 7989TIP3   OH223930   3.635   1.528   1.768 -0.3499  0.0041 -0.1611
 7989TIP3    H123931   3.641   1.615   1.728 -0.6393 -0.7734 -1.9531
 7989TIP3    H223932   3.554   1.532   1.820  1.5509  2.0151  3.0083
 7990TIP3   OH223933   3.359   2.083   0.285  0.4422 -0.2372 -0.4218
 7990TIP3    H123934   3.371   2.178   0.290  0.6463 -0.2621 -0.4352
 7990TIP3    H223935   3.427   2.054   0.224  1.7933 -0.6435  1.1928
 7991TIP3   OH223936   3.409   1.535   5.604 -0.6108 -0.2565  0.2156
 7991TIP3    H123937   3.450   1.618   5.582  0.2476 -0.2484  1.7635
 7991TIP3    H223938   3.346   1.521   5.533  0.4552  0.8325 -1.0158
 7992TIP3   OH223939   5.207   4.028   0.621  0.3032 -0.0768 -0.0782
 7992TIP3    H123940   5.228   3.954   0.679  0.9552  0.5491  0.5091
 7992TIP3    H223941   5.116   4.049   0.640 -0.1258 -1.2096 -0.8037
 7993TIP3   OH223942   5.027   6.428   5.199 -0.1454  0.3460 -0.3454
 7993TIP3    H123943   4.975   6.348   5.185 -0.6714  0.8407 -1.2905
 7993TIP3    H223944   5.060   6.419   5.288  0.0785 -1.0917 -0.5478
 7994TIP3   OH223945   7.092   0.245   4.575 -0.1576  0.2717 -0.2196
 7994TIP3    H123946   7.003   0.255   4.610  0.2202  1.0437  0.5372
 7994TIP3    H223947   7.094   0.155   4.542 -1.9508  0.9347 -2.3853
 7995TIP3   OH223948   0.931   1.906   3.423 -0.4172 -0.2835  0.4394
 7995TIP3    H123949   0.914   1.938   3.512 -1.0889  2.0406 -0.4289
 7995TIP3    H223950   0.847   1.917   3.378  0.2475 -0.1759 -0.8090
 7996TIP3   OH223951   4.914   2.398   2.164  0.0941  0.0344 -0.4636
 7996TIP3    H123952   4.985   2.456   2.191 -0.4611  0.8367 -0.6837
 7996TIP3    H223953   4.869   2.446   2.095 -2.7449  1.1566  1.9114
 7997TIP3   OH223954   1.293   2.848   1.634  0.4485 -1.3022 -0.2116
 7997TIP3    H123955   1.355   2.776   1.632 -0.1184 -1.8718  1.2709
 7997TIP3    H223956   1.207   2.805   1.638  0.0683 -0.5322 -0.0034
 7998TIP3   OH223957   1.304   5.557   1.767  0.3240 -0.2032 -0.4036
 7998TIP3    H123958   1.259   5.495   1.709 -1.2922  0.4711  0.0566
 7998TIP3    H223959   1.238   5.579   1.834  1.7591 -0.0806  1.0294
 7999TIP3   OH223960   3.728   3.502   0.573 -0.5516  0.9745 -0.4795
 7999TIP3    H123961   3.712   3.589   0.536 -1.2778  1.2135  0.3611
 7999TIP3    H223962   3.751   3.518   0.665  0.9186  0.3711 -0.7028
 8000TIP3   OH223963   3.897   1.081   0.866 -0.0142  0.2375  0.3376
 8000TIP3    H123964   3.971   1.024   0.845 -0.9038 -0.3294 -1.4776
 8000TIP3    H223965   3.907   1.101   0.959  2.1390 -0.2073  0.2443
 8001TIP3   OH223966   4.717   2.507   1.681 -0.2655 -0.1235  0.1438
 8001TIP3    H123967   4.803   2.547   1.695  0.5684 -1.8049  0.0564
 8001TIP3    H223968   4.664   2.576   1.642  0.1830  1.8088  2.6858
 8002TIP3   OH223969   5.081   0.478   2.760  0.0780 -0.3349  0.1026
 8002TIP3    H123970   5.112   0.567   2.776 -2.3040  0.3345  1.5676
 8002TIP3    H223971   5.114   0.427   2.834 -1.1324  0.0824  0.9600
 8003TIP3   OH223972   1.834   4.859   1.056 -0.2843 -0.2769  0.0657
 8003TIP3    H123973   1.853   4.900   1.141  0.9130 -0.4154 -0.1102
 8003TIP3    H223974   1.765   4.913   1.018  0.4966  0.9444  0.3088
 8004TIP3   OH223975   0.146   0.288   3.758  0.3226  0.5667 -0.3821
 8004TIP3    H123976   0.165   0.330   3.842  0.5927 -1.2017  0.4831
 8004TIP3    H223977   0.053   0.304   3.744 -0.0211 -0.1733  0.9001
 8005TIP3   OH223978   1.428   2.151   3.157 -0.0326  0.0260  0.0665
 8005TIP3    H123979   1.423   2.128   3.065  0.1652 -0.9617  0.2914
 8005TIP3    H223980   1.497   2.217   3.161 -0.7770  0.8604 -0.6253
 8006TIP3   OH223981   2.281   5.075   4.141 -0.2378 -0.0893  0.0742
 8006TIP3    H123982   2.231   5.074   4.222 -1.2387  0.9602 -0.5020
 8006TIP3    H223983   2.356   5.018   4.158 -1.1453 -0.9794  1.2597
 8007TIP3   OH223984   6.205   1.835   5.689  0.1975 -0.3141 -0.1027
 8007TIP3    H123985   6.278   1.790   5.645 -0.2983 -0.3774 -0.8836
 8007TIP3    H223986   6.241   1.861   5.773  1.5074  0.7080 -0.9351
 8008TIP3   OH223987   0.942   2.876   5.435 -0.2621 -0.2750  0.7607
 8008TIP3    H123988   0.922   2.896   5.344  1.6957 -0.1067  0.3377
 8008TIP3    H223989   1.037   2.880   5.441 -0.3788  1.6895  3.2586
 8009TIP3   OH223990   0.513   5.473   0.657 -0.5793  0.5899 -0.0049
 8009TIP3    H123991   0.463   5.437   0.730  0.0585 -0.0919  0.1104
 8009TIP3    H223992   0.449   5.521   0.604 -1.1666  0.5266  0.6398
 8010TIP3   OH223993   4.375   2.850   4.354  0.2289 -0.1031  0.2439
 8010TIP3    H123994   4.351   2.797   4.277 -0.3041 -1.2231  1.1494
 8010TIP3    H223995   4.334   2.935   4.338 -1.5557 -0.9316  0.1907
 8011TIP3   OH223996   6.980   1.786   2.999  0.2404 -0.3715 -0.4311
 8011TIP3    H123997   7.049   1.748   2.944 -0.2198 -1.9959  0.0407
 8011TIP3    H223998   6.898   1.757   2.958 -0.1155 -1.0985  0.7381
 8012TIP3   OH223999   2.294   6.549   0.583 -0.3533  0.5069  0.0429
 8012TIP3    H124000   2.304   6.534   0.489 -2.7767  3.3806 -0.8096
 8012TIP3    H224001   2.371   6.601   0.607 -0.7586  1.5797 -0.8791
 8013TIP3   OH224002   4.778   4.577   4.648 -0.1243 -0.1923  0.1880
 8013TIP3    H124003   4.758   4.483   4.652 -0.2013 -0.1508  1.2418
 8013TIP3    H224004   4.783   4.603   4.740  1.5678  0.4845 -0.0778
 8014TIP3   OH224005   4.863   2.109   2.071  0.5168  0.4905  0.3710
 8014TIP3    H124006   4.878   2.204   2.069  0.8653  0.4357 -1.3540
 8014TIP3    H224007   4.945   2.072   2.103  1.8582  0.5977 -2.6163
 8015TIP3   OH224008   4.635   3.557   2.180 -0.1698 -0.3252  0.8182
 8015TIP3    H124009   4.572   3.585   2.114 -0.9432 -0.4666  1.4809
 8015TIP3    H224010   4.709   3.617   2.170 -0.4410 -0.1068  0.0847
 8016TIP3   OH224011   6.505   4.133   4.495  0.2687 -0.0435 -0.2897
 8016TIP3    H124012   6.533   4.073   4.564  1.2029  0.8019  0.0882
 8016TIP3    H224013   6.548   4.216   4.516 -2.2727  1.2704  0.1350
 8017TIP3   OH224014   3.831   2.852   0.765  0.0918  0.3604  0.0235
 8017TIP3    H124015   3.869   2.767   0.742 -0.0198  0.7709 -1.8530
 8017TIP3    H224016   3.835   2.903   0.684 -0.2447  2.0115  0.9906
 8018TIP3   OH224017   4.949   1.240   1.748 -0.2564  0.7632 -0.1581
 8018TIP3    H124018   4.904   1.156   1.739 -0.1007  0.5766  0.6728
 8018TIP3    H224019   4.880   1.305   1.740 -0.5472  0.5115  0.2498
 8019TIP3   OH224020   0.221   4.568   1.340 -0.4288  1.0967 -0.4569
 8019TIP3    H124021   0.251   4.490   1.387 -2.2566  1.3970  1.2957
 8019TIP3    H224022   0.173   4.619   1.404 -1.0368  2.7003 -2.0887
 8020TIP3   OH224023   6.675   3.643   4.374 -0.4409 -0.1495  0.5352
 8020TIP3    H124024   6.766   3.629   4.399 -1.0233  1.2271  4.0006
 8020TIP3    H224025   6.671   3.735   4.348 -0.7926 -0.3009  0.0263
 8021TIP3   OH224026   6.047   5.240   3.314 -0.5240 -0.0550  0.1730
 8021TIP3    H124027   6.125   5.289   3.287  0.1154 -0.2294  1.5760
 8021TIP3    H224028   5.974   5.299   3.296  0.2941  1.9710  2.8112
 8022TIP3   OH224029   3.406   5.289   3.326  0.4692  0.0391  0.0872
 8022TIP3    H124030   3.313   5.284   3.305  0.5691  1.6433 -0.8485
 8022TIP3    H224031   3.416   5.233   3.403 -1.3927  0.3842  0.6207
 8023TIP3   OH224032   5.154   0.319   1.014 -0.1326  0.2168 -0.2430
 8023TIP3    H124033   5.131   0.234   1.052  2.4725 -1.4575 -2.1223
 8023TIP3    H224034   5.169   0.375   1.090 -0.2828 -1.4725  1.1042
 8024TIP3   OH224035   3.928   3.967   4.792  0.3393 -0.0235  0.2730
 8024TIP3    H124036   3.960   4.042   4.842  1.2824  0.6833 -1.3196
 8024TIP3    H224037   3.997   3.949   4.728  0.4855 -2.7557  1.0767
 8025TIP3   OH224038   1.978   3.729   5.233  0.1649  0.3559 -0.0072
 8025TIP3    H124039   1.903   3.788   5.220  0.6278  0.9882  0.1253
 8025TIP3    H224040   1.992   3.689   5.147  1.4655  2.4124 -0.8537
 8026TIP3   OH224041   3.437   2.459   4.285  0.0500  0.4354 -0.4846
 8026TIP3    H124042   3.374   2.434   4.353  0.9677  0.8262  0.5450
 8026TIP3    H224043   3.434   2.555   4.283  1.1815  0.5009  0.1597
 8027TIP3   OH224044   5.190   5.180   0.074  0.6449 -0.4980 -0.4691
 8027TIP3    H124045   5.268   5.147   0.118  0.6399 -0.8373 -0.7103
 8027TIP3    H224046   5.182   5.126  -0.005  0.6716  0.1234 -0.9065
 8028TIP3   OH224047   2.624   2.904   2.485  0.1239 -0.8692 -0.0925
 8028TIP3    H124048   2.631   2.976   2.421  0.8539 -1.4776 -0.7150
 8028TIP3    H224049   2.539   2.918   2.526  0.6281  0.8967  0.4605
 8029TIP3   OH224050   4.727   1.605   0.776 -0.0551 -0.2952 -0.7408
 8029TIP3    H124051   4.761   1.612   0.687  0.6862  1.0290 -0.3767
 8029TIP3    H224052   4.798   1.564   0.825 -0.3057 -0.6496 -0.6715
 8030TIP3   OH224053   7.212   0.667   5.278  0.5209  0.3358  0.2684
 8030TIP3    H124054   7.232   0.583   5.237 -0.0437 -1.3487  3.1655
 8030TIP3    H224055   7.119   0.680   5.263  0.6913  0.6865 -0.5367
 8031TIP3   OH224056   1.213   4.794   0.981 -0.1306 -0.4111 -1.5033
 8031TIP3    H124057   1.232   4.799   1.075  2.5813 -0.2746 -1.9918
 8031TIP3    H224058   1.162   4.713   0.972  0.6595 -1.1253 -0.0529
 8032TIP3   OH224059   2.578   5.894   0.420  0.0075  0.3489 -0.0642
 8032TIP3    H124060   2.647   5.946   0.462  0.8859 -0.0233 -1.0115
 8032TIP3    H224061   2.624   5.843   0.353 -1.1113 -0.3278 -0.3367
 8033TIP3   OH224062   3.350   0.270   5.263  0.5259  0.3649  0.1934
 8033TIP3    H124063   3.325   0.260   5.171  0.2851 -1.6292  0.4309
 8033TIP3    H224064   3.443   0.293   5.261  0.6164 -0.0637 -0.5330
 8034TIP3   OH224065   4.034   2.706   4.123  0.4455  0.1494  0.6312
 8034TIP3    H124066   3.977   2.640   4.160 -0.7844  0.2349 -1.0064
 8034TIP3    H224067   4.114   2.701   4.175 -0.7898 -0.4318  2.5533
 8035TIP3   OH224068   1.500   6.711   3.084 -0.1341  0.0571  1.0424
 8035TIP3    H124069   1.426   6.714   3.023  0.6105  1.0829  0.1469
 8035TIP3    H224070   1.575   6.691   3.029  0.2798 -0.8952  1.9329
 8036TIP3   OH224071   5.614   2.010   0.113 -0.4359  0.0845  0.6947
 8036TIP3    H124072   5.600   2.096   0.151  0.8298  1.5877 -1.9154
 8036TIP3    H224073   5.688   2.022   0.053 -0.3647 -2.7740  0.0376
 8037TIP3   OH224074   6.789   4.935   3.827 -0.5284  0.5875  0.3661
 8037TIP3    H124075   6.783   4.872   3.899  0.4980 -1.0591 -0.8936
 8037TIP3    H224076   6.883   4.941   3.808 -0.6617  2.0459  0.0514
 8038TIP3   OH224077   1.005   2.855   2.089 -0.3418 -0.5142 -0.2688
 8038TIP3    H124078   1.069   2.787   2.067  0.9662  1.0309 -1.4489
 8038TIP3    H224079   1.020   2.873   2.182  0.8943 -0.2455 -0.5054
 8039TIP3   OH224080   1.292   2.752   3.934  0.2032  0.4832 -0.2753
 8039TIP3    H124081   1.229   2.742   4.005  1.3121 -0.6232  0.5880
 8039TIP3    H224082   1.294   2.667   3.891  1.6025  0.2924  0.1402
 8040TIP3   OH224083   5.411   1.005   0.845 -0.2962  0.2434 -0.1351
 8040TIP3    H124084   5.373   0.929   0.890 -4.5662  3.0778  1.7355
 8040TIP3    H224085   5.406   1.076   0.909  0.5190  2.8426 -2.7201
 8041TIP3   OH224086   5.319   2.524   1.679  0.3454  0.4048 -0.2907
 8041TIP3    H124087   5.363   2.484   1.754 -1.1861  2.2895  1.7369
 8041TIP3    H224088   5.390   2.544   1.618  2.0087  1.0638  1.7377
 8042TIP3   OH224089   0.832   0.481   2.211  0.6138  0.7432 -0.0997
 8042TIP3    H124090   0.767   0.411   2.213  2.8242 -1.4539  1.3239
 8042TIP3    H224091   0.843   0.501   2.118  0.7685 -1.7478 -0.6958
 8043TIP3   OH224092   3.516   4.329   1.938  0.0824  0.5767 -0.4350
 8043TIP3    H124093   3.498   4.238   1.961 -0.1313  0.7422  0.0683
 8043TIP3    H224094   3.598   4.326   1.890  1.8424  0.4473  2.3628
 8044TIP3   OH224095   4.836   1.233   0.696  0.3850  0.6537 -0.1343
 8044TIP3    H124096   4.807   1.300   0.757  0.2455  0.3400  0.1519
 8044TIP3    H224097   4.764   1.224   0.634  0.9568  1.7017 -0.9641
 8045TIP3   OH224098   1.701   4.505   3.445 -0.0891  0.1229  0.0374
 8045TIP3    H124099   1.741   4.446   3.509  2.5036 -1.0665 -2.4446
 8045TIP3    H224100   1.675   4.448   3.373 -1.5300  1.5750 -0.6393
 8046TIP3   OH224101   1.264   6.485   1.240  0.2378 -0.0223 -0.3941
 8046TIP3    H124102   1.208   6.410   1.260 -2.6774  2.0733 -0.0820
 8046TIP3    H224103   1.208   6.544   1.189  2.1766  2.2332 -0.1158
 8047TIP3   OH224104   3.683   3.296   4.595  0.5285  0.3080  0.2222
 8047TIP3    H124105   3.669   3.238   4.520  0.7241 -1.0966  1.2368
 8047TIP3    H224106   3.595   3.315   4.628  0.5266 -1.3480  1.2806
 8048TIP3   OH224107   1.219   2.891   5.430 -0.1053 -0.0298  0.0890
 8048TIP3    H124108   1.214   2.807   5.383 -1.0205  0.9095 -1.5655
 8048TIP3    H224109   1.275   2.946   5.375  0.8071  0.3497  1.3577
 8049TIP3   OH224110   6.807   1.257   0.444  0.3523 -0.2554 -0.1373
 8049TIP3    H124111   6.884   1.233   0.495  2.0793  2.6402 -1.1146
 8049TIP3    H224112   6.818   1.211   0.361  2.4467  1.8821 -1.1788
 8050TIP3   OH224113   3.139   6.418   4.279  0.6398 -0.1547 -0.1864
 8050TIP3    H124114   3.054   6.405   4.321  1.4320 -0.4200  1.4120
 8050TIP3    H224115   3.152   6.512   4.278 -0.4614  0.0277 -2.1534
 8051TIP3   OH224116   0.403   0.742   2.192 -0.2066 -0.1718 -0.0425
 8051TIP3    H124117   0.378   0.674   2.255  0.2314  0.0386  0.3641
 8051TIP3    H224118   0.350   0.818   2.217  1.2976  0.4975  1.2680
 8052TIP3   OH224119   1.774   0.955   0.839  0.1177 -0.1754 -0.2179
 8052TIP3    H124120   1.813   0.876   0.802  1.1798  0.5938 -0.7953
 8052TIP3    H224121   1.764   0.936   0.932 -0.4190 -1.2828 -0.4885
 8053TIP3   OH224122   5.543   0.912   0.318  0.8137  0.2014 -0.1869
 8053TIP3    H124123   5.449   0.928   0.319  0.7432 -0.2193  0.0673
 8053TIP3    H224124   5.566   0.909   0.225  0.5664  0.2403 -0.2506
 8054TIP3   OH224125   2.038   5.565   5.088  0.3097  0.0032  0.2278
 8054TIP3    H124126   1.966   5.584   5.027  1.8205  0.7766 -1.4019
 8054TIP3    H224127   2.029   5.472   5.106  0.0591 -0.3785 -1.5968
 8055TIP3   OH224128   2.671   2.184   5.203  0.4326 -0.2348 -0.4215
 8055TIP3    H124129   2.606   2.146   5.144  0.6553 -1.8622  0.3157
 8055TIP3    H224130   2.733   2.228   5.145  0.1866 -1.0810 -1.3570
 8056TIP3   OH224131   1.051   0.649   5.688 -0.0088  0.0824  0.0108
 8056TIP3    H124132   1.133   0.667   5.641 -0.3508 -1.8653 -1.4522
 8056TIP3    H224133   1.073   0.576   5.746 -0.3098  0.6328  0.8275
 8057TIP3   OH224134   1.523   4.804   4.664 -0.1007 -0.3174 -0.5025
 8057TIP3    H124135   1.573   4.777   4.587 -0.0886  0.2328 -0.6930
 8057TIP3    H224136   1.448   4.744   4.666 -0.9218  0.6141 -1.8360
 8058TIP3   OH224137   4.663   6.542   2.914 -0.3927 -0.8383 -0.0093
 8058TIP3    H124138   4.578   6.540   2.957 -0.1091  1.6451  0.7870
 8058TIP3    H224139   4.720   6.489   2.969 -0.5596  0.5621  1.5807
 8059TIP3   OH224140   6.698   2.866   0.701 -1.0117 -0.2304 -0.2112
 8059TIP3    H124141   6.784   2.862   0.744 -0.4478  0.6329 -1.1887
 8059TIP3    H224142   6.669   2.775   0.697  0.1879 -0.6246 -0.4704
 8060TIP3   OH224143   4.088   2.659   1.701 -0.3893  0.2356 -1.0310
 8060TIP3    H124144   4.027   2.715   1.654 -1.5176 -1.2459 -1.3730
 8060TIP3    H224145   4.090   2.577   1.652  0.0433 -0.5876  0.2967
 8061TIP3   OH224146   6.795   0.400   4.876  0.3991  0.1974 -0.6852
 8061TIP3    H124147   6.843   0.469   4.831 -0.1029  0.4064 -0.9065
 8061TIP3    H224148   6.798   0.325   4.816  0.2605  0.2818 -0.7986
 8062TIP3   OH224149   2.140   1.128   2.211  0.5772 -0.2972 -0.7987
 8062TIP3    H124150   2.078   1.191   2.175 -0.3835 -0.5971  0.2633
 8062TIP3    H224151   2.193   1.179   2.272  0.4965 -0.3004 -0.7255
 8063TIP3   OH224152   5.549   0.260   3.905 -0.0374  0.4162 -1.0087
 8063TIP3    H124153   5.545   0.340   3.853  1.1702  1.0691 -0.1610
 8063TIP3    H224154   5.622   0.210   3.867 -0.5387 -0.1079 -1.2906
 8064TIP3   OH224155   6.555   6.120   3.061  0.4225  0.2297  0.1170
 8064TIP3    H124156   6.590   6.089   3.144 -0.0163 -0.2394  0.1263
 8064TIP3    H224157   6.518   6.207   3.081 -1.5213 -0.7124  0.8964
 8065TIP3   OH224158   1.453   4.554   3.175 -0.5098 -0.1222  1.0776
 8065TIP3    H124159   1.498   4.607   3.241 -1.7569 -0.9304  2.6556
 8065TIP3    H224160   1.508   4.477   3.165  0.4346  0.6522  0.0377
 8066TIP3   OH224161   6.170   5.192   1.726 -0.2917  0.3872 -0.6612
 8066TIP3    H124162   6.261   5.222   1.716  0.7268 -2.0458  0.3584
 8066TIP3    H224163   6.178   5.098   1.742 -3.0812 -0.0669 -1.3751
 8067TIP3   OH224164   2.666   5.558   1.016 -0.1238  0.0905 -0.1575
 8067TIP3    H124165   2.686   5.608   0.936  0.9871  1.1242  0.7303
 8067TIP3    H224166   2.609   5.616   1.066  1.0522  0.4399  0.8174
 8068TIP3   OH224167   4.709   5.523   1.928 -0.6292 -0.0763 -0.1255
 8068TIP3    H124168   4.666   5.602   1.896 -1.8154 -1.1774 -1.3640
 8068TIP3    H224169   4.672   5.509   2.016 -3.1832 -1.1723 -1.2680
 8069TIP3   OH224170   0.302   2.021   5.043 -0.1286 -0.3350  0.9484
 8069TIP3    H124171   0.273   2.085   5.108  0.6773  1.6155 -0.5272
 8069TIP3    H224172   0.353   2.072   4.980 -1.3097 -2.0462 -1.5298
 8070TIP3   OH224173   4.106   2.125   1.789  0.2256 -0.2335 -0.1168
 8070TIP3    H124174   4.072   2.153   1.704 -1.3559 -0.4618  0.4020
 8070TIP3    H224175   4.030   2.129   1.847  0.8022 -2.0656  0.8171
 8071TIP3   OH224176   5.144   6.331   1.046  0.6190  0.2018  0.4045
 8071TIP3    H124177   5.162   6.400   1.110  0.9597  0.7251 -0.2461
 8071TIP3    H224178   5.053   6.346   1.020  0.5341  0.0920  0.6309
 8072TIP3   OH224179   4.778   2.763   2.788  0.2344  0.4414  0.0520
 8072TIP3    H124180   4.788   2.854   2.760  1.6423  0.1622 -0.4292
 8072TIP3    H224181   4.709   2.766   2.855 -0.1329  1.7685 -0.3559
 8073TIP3   OH224182   3.363   1.364   4.187  0.5192 -0.0020  0.1758
 8073TIP3    H124183   3.393   1.422   4.118  1.5629 -2.5156 -1.6001
 8073TIP3    H224184   3.427   1.293   4.190 -1.7178 -2.1505  0.7921
 8074TIP3   OH224185   4.785   2.131   1.509 -0.0218  0.0098 -0.5717
 8074TIP3    H124186   4.775   2.200   1.443  0.9333 -0.6044 -1.3852
 8074TIP3    H224187   4.850   2.166   1.570 -0.1416  0.1656 -0.5340
 8075TIP3   OH224188   1.364   0.195   0.080 -0.7967 -0.0897 -0.4046
 8075TIP3    H124189   1.357   0.280   0.124  1.6651 -0.3924  0.7211
 8075TIP3    H224190   1.331   0.132   0.144  1.9129 -0.4266  0.7967
 8076TIP3   OH224191   2.313   6.796   3.551  0.5906  0.3922 -0.0000
 8076TIP3    H124192   2.250   6.724   3.549  0.2562  0.6174  1.2174
 8076TIP3    H224193   2.300   6.836   3.637  2.0321  0.7896  0.0533
 8077TIP3   OH224194   4.756   6.795   4.236  0.3937  0.2340  0.6849
 8077TIP3    H124195   4.719   6.790   4.324 -0.3868 -0.7400  0.3067
 8077TIP3    H224196   4.815   6.720   4.230  0.4436  0.2955  0.3812
 8078TIP3   OH224197   0.726   2.818   4.030 -0.1532 -0.4140  0.1614
 8078TIP3    H124198   0.732   2.723   4.023  0.3602 -0.5736  2.2717
 8078TIP3    H224199   0.816   2.847   4.041 -0.3978  0.2297  0.4715
 8079TIP3   OH224200   2.747   4.092   4.758 -0.2892  0.3749  0.6126
 8079TIP3    H124201   2.809   4.047   4.814  1.2061  1.9891  0.3477
 8079TIP3    H224202   2.702   4.153   4.816 -0.3627  0.4543  0.4728
 8080TIP3   OH224203   2.707   2.313   1.327 -0.6645 -0.3863  0.1414
 8080TIP3    H124204   2.638   2.247   1.322  0.1891 -1.3357  0.5148
 8080TIP3    H224205   2.663   2.392   1.359 -1.3741 -1.3048  1.5413
 8081TIP3   OH224206   1.906   3.819   2.028  0.2019  0.2257 -0.5658
 8081TIP3    H124207   1.847   3.748   2.002  1.2610 -1.1134  0.4928
 8081TIP3    H224208   1.880   3.840   2.117  0.8123  0.1628 -0.3684
 8082TIP3   OH224209   1.629   3.530   1.885  0.1036  0.2406 -0.0197
 8082TIP3    H124210   1.594   3.532   1.974 -0.0987  0.2353 -0.0992
 8082TIP3    H224211   1.552   3.534   1.828  0.1970 -0.3554 -0.1978
 8083TIP3   OH224212   5.414   5.458   5.265  0.0932  0.1363  0.8194
 8083TIP3    H124213   5.342   5.520   5.277  0.9621  1.5675 -0.9149
 8083TIP3    H224214   5.458   5.457   5.349 -1.4006 -0.0804  1.6418
 8084TIP3   OH224215   0.665   1.663   4.059  0.2168  0.1423  0.0705
 8084TIP3    H124216   0.686   1.755   4.074 -0.4333  0.1422  1.0605
 8084TIP3    H224217   0.720   1.615   4.121 -0.8761  0.0032  0.9710
 8085TIP3   OH224218   0.164   5.684   1.139 -0.0111  1.4077  0.3134
 8085TIP3    H124219   0.181   5.711   1.229  0.4249  2.6688 -0.1276
 8085TIP3    H224220   0.250   5.685   1.098 -0.3645  2.0098 -0.4228
 8086TIP3   OH224221   6.169   6.463   4.662 -0.3927 -0.3981 -0.3114
 8086TIP3    H124222   6.114   6.438   4.735 -0.1276 -0.3751 -0.1035
 8086TIP3    H224223   6.108   6.473   4.588 -0.5031 -1.6512 -0.4015
 8087TIP3   OH224224   0.830   4.144   5.306  0.0200  0.0309 -0.8159
 8087TIP3    H124225   0.878   4.171   5.385  1.0354  2.2059 -2.0658
 8087TIP3    H224226   0.788   4.225   5.276 -1.8459 -1.1480 -1.5404
 8088TIP3   OH224227   6.756   3.479   2.710 -0.5693 -0.4828  0.3356
 8088TIP3    H124228   6.729   3.392   2.681 -1.8049 -0.0418  0.1077
 8088TIP3    H224229   6.719   3.539   2.646 -1.1218  0.3243  1.3753
 8089TIP3   OH224230   5.137   6.743   4.798  0.3282  0.5714 -0.1188
 8089TIP3    H124231   5.211   6.787   4.841  2.4200 -1.1216 -1.7287
 8089TIP3    H224232   5.067   6.808   4.798  2.4675  3.0393 -0.2916
 8090TIP3   OH224233   4.183   0.875   3.512  0.5979  0.5153  0.0603
 8090TIP3    H124234   4.266   0.883   3.465  1.0329  0.3416  0.7989
 8090TIP3    H224235   4.190   0.795   3.562  0.1742  0.7521  0.5133
 8091TIP3   OH224236   1.888   2.823   0.978 -0.4773  0.2430 -0.5638
 8091TIP3    H124237   1.940   2.748   1.007 -0.2145  1.3847  2.2658
 8091TIP3    H224238   1.941   2.863   0.910  1.3932  0.1265  0.7252
 8092TIP3   OH224239   2.258   4.573   4.480  0.5580  0.0423 -0.0963
 8092TIP3    H124240   2.315   4.534   4.546  1.4026 -0.4995 -1.1194
 8092TIP3    H224241   2.296   4.658   4.462 -0.4415  0.7757  1.0517
 8093TIP3   OH224242   1.803   4.542   5.690  0.3438  0.0596  0.2660
 8093TIP3    H124243   1.727   4.543   5.748 -0.5750  2.9978 -0.7709
 8093TIP3    H224244   1.794   4.462   5.639 -1.2828 -0.3500  1.1306
 8094TIP3   OH224245   5.905   1.911   0.729 -0.1696 -0.3256  0.4486
 8094TIP3    H124246   5.837   1.850   0.758  2.4645 -3.2427  1.1025
 8094TIP3    H224247   5.954   1.863   0.662  1.3314  1.5646  0.0854
 8095TIP3   OH224248   7.122   5.317   0.767 -0.4722 -0.1307 -0.2936
 8095TIP3    H124249   7.134   5.285   0.856  1.6901  0.4508 -0.3163
 8095TIP3    H224250   7.192   5.276   0.717 -0.1113  1.4591 -1.1702
 8096TIP3   OH224251   2.223   0.170   5.420 -0.3913  0.1572 -0.2139
 8096TIP3    H124252   2.282   0.199   5.350  2.8447 -2.4640  1.1042
 8096TIP3    H224253   2.243   0.228   5.494 -0.1125 -0.1495 -0.0440
 8097TIP3   OH224254   5.553   2.161   4.783  0.2801 -0.6344 -0.7208
 8097TIP3    H124255   5.492   2.224   4.823  0.2319 -0.8961 -0.3788
 8097TIP3    H224256   5.635   2.210   4.775  0.7125 -1.0069  1.0356
 8098TIP3   OH224257   0.526   0.983   0.854 -0.1029  0.0584  0.0301
 8098TIP3    H124258   0.467   1.007   0.782  2.0482  0.0042 -1.8715
 8098TIP3    H224259   0.547   0.891   0.837  2.0065  0.5843 -0.5559
 8099TIP3   OH224260   6.091   2.014   5.235 -0.0264  0.2013  0.4104
 8099TIP3    H124261   6.117   2.056   5.153 -1.4995 -1.9381 -1.2625
 8099TIP3    H224262   6.153   1.942   5.246  0.6757  0.9702  1.6762
 8100TIP3   OH224263   1.897   1.948   0.869  0.1819  0.2902  0.3449
 8100TIP3    H124264   1.817   2.001   0.871 -0.6767 -0.9699  0.9794
 8100TIP3    H224265   1.877   1.874   0.926  0.0496 -2.5033 -3.0024
 8101TIP3   OH224266   4.939   5.640   5.532 -0.6653 -0.3758 -0.1822
 8101TIP3    H124267   4.915   5.614   5.443 -0.1662  1.5820 -0.9256
 8101TIP3    H224268   4.858   5.628   5.582 -1.1688 -0.7637 -1.0538
 8102TIP3   OH224269   4.326   3.091   2.043 -0.4325  0.2906 -0.6678
 8102TIP3    H124270   4.338   2.999   2.021 -0.7837  0.1961 -0.4782
 8102TIP3    H224271   4.309   3.091   2.138  0.9613  0.6790 -0.3965
 8103TIP3   OH224272   5.825   0.665   2.735  0.1696  0.4058  0.0280
 8103TIP3    H124273   5.915   0.653   2.704 -0.0542  0.1044 -0.5014
 8103TIP3    H224274   5.776   0.593   2.697 -0.7101  1.6379 -1.2599
 8104TIP3   OH224275   4.979   4.214   2.165  0.1244  0.2258  0.4962
 8104TIP3    H124276   5.015   4.257   2.088  0.8040 -1.0128  0.1000
 8104TIP3    H224277   4.907   4.271   2.192  0.5602  1.2468 -0.3955
 8105TIP3   OH224278   2.464   2.051   3.848 -0.1151 -0.0406 -0.5234
 8105TIP3    H124279   2.488   1.970   3.803  0.8818  0.8524 -1.6345
 8105TIP3    H224280   2.539   2.070   3.905  0.3984  0.9523 -1.4905
 8106TIP3   OH224281   1.347   6.708   5.524  0.2068 -0.2377 -0.4149
 8106TIP3    H124282   1.394   6.785   5.556  0.1675 -0.7025  0.8174
 8106TIP3    H224283   1.255   6.726   5.545  0.1146 -0.3169 -0.7514
 8107TIP3   OH224284   2.935   6.565   0.397  0.0787  0.4191 -0.1242
 8107TIP3    H124285   2.887   6.605   0.324  0.8459 -0.4583 -1.1446
 8107TIP3    H224286   3.025   6.597   0.387 -0.1367  1.5961  1.4324
 8108TIP3   OH224287   0.818   0.768   1.025 -0.1922  0.4048 -0.2695
 8108TIP3    H124288   0.797   0.814   0.944 -0.9992  0.9058  0.2049
 8108TIP3    H224289   0.745   0.708   1.039 -0.6254  1.1074  0.6366
 8109TIP3   OH224290   6.356   5.893   0.951  0.1570 -0.2251  0.3256
 8109TIP3    H124291   6.336   5.802   0.929  0.9288 -0.3820  0.2498
 8109TIP3    H224292   6.321   5.904   1.040 -2.8604  0.3698 -0.8256
 8110TIP3   OH224293   2.618   4.094   5.725 -0.3809 -0.1003 -0.0348
 8110TIP3    H124294   2.676   4.165   5.696  0.2305 -1.0251 -1.1159
 8110TIP3    H224295   2.537   4.139   5.749 -0.2991  0.9041 -1.4756
 8111TIP3   OH224296   3.051   1.573   1.453  0.1534 -0.3690  0.1034
 8111TIP3    H124297   3.002   1.494   1.478  0.6248 -0.5278  0.5409
 8111TIP3    H224298   3.019   1.640   1.512  0.1131 -0.3549  0.0654
 8112TIP3   OH224299   3.958   0.276   2.246  0.3427  0.3180  0.3720
 8112TIP3    H124300   3.931   0.296   2.156  1.3105  3.1590  0.6042
 8112TIP3    H224301   4.025   0.208   2.236 -0.6446 -0.4988 -0.9040
 8113TIP3   OH224302   0.675   4.178   3.129 -0.4498  0.0697  0.6578
 8113TIP3    H124303   0.648   4.235   3.201  0.7729  1.7809 -0.1627
 8113TIP3    H224304   0.595   4.167   3.077 -0.5735  1.7008  0.4433
 8114TIP3   OH224305   2.304   3.011   0.256 -0.2230  0.3734 -0.3194
 8114TIP3    H124306   2.292   3.106   0.248  0.5045  0.4830 -0.2067
 8114TIP3    H224307   2.241   2.985   0.323  1.5961  1.2651  1.8796
 8115TIP3   OH224308   4.254   6.724   5.837 -0.1944 -0.0393  0.3476
 8115TIP3    H124309   4.215   6.792   5.892 -1.1076 -0.3383  0.0983
 8115TIP3    H224310   4.183   6.697   5.779  0.1893 -1.1075  0.3473
 8116TIP3   OH224311   2.782   3.620   1.349  0.4920 -0.0005  0.2742
 8116TIP3    H124312   2.844   3.590   1.283 -0.0076  1.6388 -1.0140
 8116TIP3    H224313   2.697   3.592   1.316  0.3123  0.1066  0.6452
 8117TIP3   OH224314   2.909   0.103   5.718  0.1227 -0.1641  0.0598
 8117TIP3    H124315   2.955   0.184   5.695  0.6633 -0.8994 -1.6347
 8117TIP3    H224316   2.943   0.079   5.804  0.5849  0.9505  0.2028
 8118TIP3   OH224317   6.848   3.620   2.162 -0.2491  0.4334  0.0902
 8118TIP3    H124318   6.864   3.714   2.150  0.5511  0.1631 -1.1659
 8118TIP3    H224319   6.830   3.588   2.074 -0.5068 -0.6010  0.5129
 8119TIP3   OH224320   3.389   1.271   5.708  0.0121 -0.1244 -0.2734
 8119TIP3    H124321   3.391   1.353   5.658  0.0680  0.2617  0.3434
 8119TIP3    H224322   3.463   1.279   5.768  1.3186 -1.5512 -1.6008
 8120TIP3   OH224323   1.664   6.015   4.772 -0.4661  0.4568  0.1566
 8120TIP3    H124324   1.677   6.067   4.693  0.6652  0.3621  0.2737
 8120TIP3    H224325   1.610   5.941   4.744  0.1077  0.3084 -0.5781
 8121TIP3   OH224326   1.308   1.108   0.919 -0.5846  0.1287  0.2275
 8121TIP3    H124327   1.249   1.033   0.916 -0.3527 -0.0384 -0.8463
 8121TIP3    H224328   1.386   1.078   0.872 -0.0628  0.6879  0.7217
 8122TIP3   OH224329   5.045   2.539   1.388 -0.6359 -0.2782 -0.4357
 8122TIP3    H124330   5.058   2.624   1.346  2.0642  0.6559  1.9882
 8122TIP3    H224331   4.999   2.559   1.469 -0.1393 -1.1268  0.0738
 8123TIP3   OH224332   0.904   6.698   2.065 -0.4608 -0.6090  0.0600
 8123TIP3    H124333   0.941   6.779   2.099  0.8969 -1.1723  0.0012
 8123TIP3    H224334   0.826   6.725   2.017  0.4687  0.7717 -0.7454
 8124TIP3   OH224335   5.043   5.678   1.016 -0.0007 -0.1409  0.2717
 8124TIP3    H124336   5.077   5.763   1.043  0.0977 -0.0703 -0.0677
 8124TIP3    H224337   4.978   5.655   1.082 -0.7487  0.6608 -0.1586
 8125TIP3   OH224338   6.377   0.908   3.890  0.1375  0.4778 -0.1314
 8125TIP3    H124339   6.439   0.835   3.899  0.6399  0.9889  0.6754
 8125TIP3    H224340   6.398   0.966   3.963 -0.1696  1.4972 -0.8360
 8126TIP3   OH224341   0.289   3.633   4.217 -0.2162  0.1349 -0.1452
 8126TIP3    H124342   0.269   3.557   4.163  0.1849  0.4213 -0.7025
 8126TIP3    H224343   0.234   3.703   4.182 -0.7647  0.0527  0.5186
 8127TIP3   OH224344   3.118   3.367   2.551 -0.5873 -0.5410  0.4844
 8127TIP3    H124345   3.059   3.293   2.569  0.1760 -1.3497 -0.2839
 8127TIP3    H224346   3.106   3.425   2.626 -1.3096 -1.3705  1.0357
 8128TIP3   OH224347   4.637   3.896   2.636  0.1700 -0.1844  0.1668
 8128TIP3    H124348   4.547   3.924   2.652  0.0975  0.1931 -0.8147
 8128TIP3    H224349   4.692   3.962   2.677 -0.0080  0.4576 -0.6069
 8129TIP3   OH224350   1.493   2.352   3.671 -0.5032 -0.0565  0.3816
 8129TIP3    H124351   1.452   2.290   3.731  0.5896 -1.2119 -0.0082
 8129TIP3    H224352   1.489   2.309   3.585 -1.2754  1.1890 -0.2313
 8130TIP3   OH224353   2.238   2.061   2.041 -0.6154 -0.0125  0.5043
 8130TIP3    H124354   2.201   2.149   2.038 -0.4096  0.0683  0.2694
 8130TIP3    H224355   2.165   2.004   2.015 -0.8771  0.0417  1.0956
 8131TIP3   OH224356   5.920   4.385   4.147 -0.1938  0.3708 -0.0043
 8131TIP3    H124357   5.939   4.479   4.151  2.0855  0.0001 -0.3527
 8131TIP3    H224358   5.896   4.370   4.055  0.1712  0.5003 -0.1225
 8132TIP3   OH224359   1.533   4.739   2.997 -0.0837 -0.1748  0.5273
 8132TIP3    H124360   1.496   4.658   3.031  0.9143 -1.1301 -0.6065
 8132TIP3    H224361   1.545   4.794   3.075  0.5100 -1.6165  1.4899
 8133TIP3   OH224362   5.058   1.551   4.893  0.0295 -0.2712  0.1208
 8133TIP3    H124363   5.152   1.532   4.884 -0.1446 -0.9168 -0.4506
 8133TIP3    H224364   5.019   1.465   4.911 -0.6555 -0.2855 -1.3807
 8134TIP3   OH224365   5.454   5.614   3.684 -0.1165  0.2459  0.8157
 8134TIP3    H124366   5.506   5.642   3.759 -0.0119  0.4971  0.6526
 8134TIP3    H224367   5.501   5.538   3.649 -1.1184 -1.0006  2.0573
 8135TIP3   OH224368   0.289   2.165   2.277  0.2919 -0.3555  0.1853
 8135TIP3    H124369   0.284   2.140   2.185 -1.2694  0.1710  0.1075
 8135TIP3    H224370   0.199   2.162   2.309  0.7455 -0.0962  1.5891
 8136TIP3   OH224371   2.751   1.386   0.205 -0.0741 -0.0155  0.0552
 8136TIP3    H124372   2.844   1.365   0.216  0.1778  1.5472  1.4943
 8136TIP3    H224373   2.708   1.301   0.194  1.5342 -0.7551 -0.8667
 8137TIP3   OH224374   5.874   1.860   0.270  0.2165  0.4838 -0.4297
 8137TIP3    H124375   5.864   1.951   0.295 -0.5881  0.5338 -0.9072
 8137TIP3    H224376   5.854   1.858   0.176  1.6539  0.0561 -0.7541
 8138TIP3   OH224377   5.502   6.362   2.616 -0.0312  0.2456 -0.1746
 8138TIP3    H124378   5.565   6.289   2.622  0.5251  0.8084  1.5562
 8138TIP3    H224379   5.521   6.416   2.693 -2.4085  0.6328  0.2146
 8139TIP3   OH224380   1.912   6.805   1.493 -0.5376 -0.2194  0.0345
 8139TIP3    H124381   1.954   6.725   1.461 -0.3244 -0.5926  1.1971
 8139TIP3    H224382   1.974   6.875   1.473 -0.9181 -0.2494 -1.3936
 8140TIP3   OH224383   2.318   3.149   4.084 -0.7550  0.1959  0.1937
 8140TIP3    H124384   2.390   3.091   4.059 -0.8396  0.0165  0.3677
 8140TIP3    H224385   2.358   3.236   4.089 -0.0876 -0.1683  2.2224
 8141TIP3   OH224386   2.489   0.786   2.980  0.0575 -0.3694 -0.3289
 8141TIP3    H124387   2.478   0.717   3.044 -1.0960 -1.8598 -2.0208
 8141TIP3    H224388   2.423   0.767   2.913 -1.0532  2.9738 -0.3760
 8142TIP3   OH224389   1.848   0.309   1.579  0.0512  0.8902 -0.0906
 8142TIP3    H124390   1.783   0.241   1.597 -0.0134  1.1055  0.5375
 8142TIP3    H224391   1.799   0.391   1.582  0.3516  1.0615  0.4745
 8143TIP3   OH224392   0.142   6.070   2.218 -0.7034  0.3864  0.2199
 8143TIP3    H124393   0.125   6.157   2.180 -1.2176  0.0824 -0.2655
 8143TIP3    H224394   0.213   6.034   2.165 -1.5761 -0.1329 -0.6502
 8144TIP3   OH224395   2.693   1.238   0.962  0.6530  0.5224  0.6745
 8144TIP3    H124396   2.638   1.161   0.950  1.6172  0.0663 -1.4489
 8144TIP3    H224397   2.747   1.218   1.038 -1.0786  0.3708  1.8999
 8145TIP3   OH224398   4.313   6.116   5.012  0.7474  0.3543 -0.0371
 8145TIP3    H124399   4.316   6.156   5.099 -0.8064 -0.6967  0.5455
 8145TIP3    H224400   4.404   6.096   4.991  1.1812  0.9311  1.1945
 8146TIP3   OH224401   2.412   1.566   1.611 -0.1906  0.2605 -0.2299
 8146TIP3    H124402   2.446   1.563   1.701 -0.3644 -1.2835 -0.2043
 8146TIP3    H224403   2.317   1.561   1.621 -0.2873  1.2468 -0.4724
 8147TIP3   OH224404   2.453   0.238   0.520  0.4663  0.4565 -0.4601
 8147TIP3    H124405   2.467   0.158   0.471  0.2952  1.0934 -1.5722
 8147TIP3    H224406   2.372   0.275   0.485 -0.1037  0.5361  0.8526
 8148TIP3   OH224407   1.643   0.022   4.242  0.2335  0.4551 -0.4271
 8148TIP3    H124408   1.697   0.096   4.211 -0.3902  0.4698 -1.5265
 8148TIP3    H224409   1.562   0.063   4.271  0.2645  0.2953 -0.1209
 8149TIP3   OH224410   4.582   2.190   4.345 -0.0722 -0.0401 -0.2445
 8149TIP3    H124411   4.623   2.261   4.394 -2.8485  0.2629  1.9067
 8149TIP3    H224412   4.528   2.234   4.280  0.5114 -0.3044 -0.9112
 8150TIP3   OH224413   1.479   5.928   2.259  0.2434  0.1368 -0.3570
 8150TIP3    H124414   1.461   6.020   2.239 -0.7471 -0.0273 -0.2932
 8150TIP3    H224415   1.466   5.883   2.175  0.1565 -0.0149 -0.2626
 8151TIP3   OH224416   3.317   4.262   2.371  0.5704 -0.0194  0.2427
 8151TIP3    H124417   3.294   4.299   2.287 -0.5239  1.2398  1.0688
 8151TIP3    H224418   3.352   4.175   2.350 -3.1502 -1.3405 -1.2829
 8152TIP3   OH224419   5.722   5.201   4.408  0.0511 -0.1358 -0.3510
 8152TIP3    H124420   5.778   5.250   4.468 -1.0558  0.0062  0.6019
 8152TIP3    H224421   5.678   5.136   4.464  0.5703 -1.4172 -1.3748
 8153TIP3   OH224422   3.571   2.737   4.060  0.2263 -0.0515  0.2300
 8153TIP3    H124423   3.505   2.768   4.122  0.2004  0.1601  0.0995
 8153TIP3    H224424   3.654   2.771   4.094  0.7309 -2.7368  2.0512
 8154TIP3   OH224425   4.336   0.753   4.996 -0.6247 -0.1680 -0.4280
 8154TIP3    H124426   4.263   0.729   5.053  0.0621  0.3346  0.7070
 8154TIP3    H224427   4.414   0.730   5.046  0.0805  3.1535  0.2368
 8155TIP3   OH224428   4.068   3.714   2.316  0.5697  0.8971 -0.2700
 8155TIP3    H124429   4.038   3.670   2.237  1.7494 -0.7986  0.1600
 8155TIP3    H224430   4.164   3.704   2.314  0.8678  3.0317  0.1410
 8156TIP3   OH224431   1.215   0.617   0.766 -0.0621  0.4047  0.1650
 8156TIP3    H124432   1.181   0.637   0.853  0.7429  0.7631  0.4118
 8156TIP3    H224433   1.270   0.693   0.744  1.2021 -0.4996  0.1309
 8157TIP3   OH224434   2.852   2.939   1.259  0.4587 -0.0373  0.1543
 8157TIP3    H124435   2.808   3.001   1.202 -0.6148 -0.8656  0.0570
 8157TIP3    H224436   2.794   2.863   1.263  1.6985 -1.0280  0.3252
 8158TIP3   OH224437   2.739   0.955   2.925 -0.4313 -0.2641  0.1938
 8158TIP3    H124438   2.764   1.020   2.860 -0.9109  0.1244  0.3928
 8158TIP3    H224439   2.822   0.924   2.962 -0.2293  0.9408  0.7873
 8159TIP3   OH224440   1.724   0.492   4.385  0.0445 -0.6993  0.0485
 8159TIP3    H124441   1.793   0.556   4.369 -1.0923  0.8408  1.0609
 8159TIP3    H224442   1.660   0.507   4.315 -1.0952  0.5665  1.3111
 8160TIP3   OH224443   1.904   4.620   4.311  0.3742 -0.3307  0.3709
 8160TIP3    H124444   1.958   4.553   4.353  0.6785  1.2215  2.6303
 8160TIP3    H224445   1.962   4.661   4.247  0.8576 -0.7991  0.4988
 8161TIP3   OH224446   6.585   5.730   4.091  0.5042 -0.0776 -0.2678
 8161TIP3    H124447   6.548   5.646   4.117  0.1067 -0.1137 -0.9338
 8161TIP3    H224448   6.651   5.708   4.026  1.4179  0.0207  0.6127
 8162TIP3   OH224449   4.310   3.081   1.166  0.4687  0.4394 -0.4293
 8162TIP3    H124450   4.368   3.137   1.219  1.2131  1.3339 -2.1299
 8162TIP3    H224451   4.261   3.141   1.111 -0.4850 -0.4608 -0.5892
 8163TIP3   OH224452   1.691   5.369   2.778  0.0404 -0.6778 -0.3017
 8163TIP3    H124453   1.704   5.463   2.768 -2.8831  0.7766  5.0916
 8163TIP3    H224454   1.742   5.346   2.856 -2.6093 -2.3236  1.1368
 8164TIP3   OH224455   5.959   1.025   1.991  0.3063 -0.4185  0.5533
 8164TIP3    H124456   6.053   1.013   1.975  0.5769  0.8637  1.0865
 8164TIP3    H224457   5.919   1.003   1.907  1.0835 -0.9994  0.3181
 8165TIP3   OH224458   5.761   0.677   5.170 -0.0064 -0.4985 -0.3914
 8165TIP3    H124459   5.755   0.762   5.127 -0.6929 -0.5334 -0.3694
 8165TIP3    H224460   5.707   0.685   5.248 -0.8481 -1.2446 -0.8749
 8166TIP3   OH224461   4.091   0.879   2.523 -0.5173  0.3465  0.5436
 8166TIP3    H124462   4.167   0.821   2.520 -0.3565  0.5913 -0.4337
 8166TIP3    H224463   4.023   0.833   2.473 -0.0821  1.3890 -1.1146
 8167TIP3   OH224464   4.766   6.798   2.846 -0.1779 -0.1685  0.0295
 8167TIP3    H124465   4.722   6.729   2.895 -2.6492  1.1992 -0.1065
 8167TIP3    H224466   4.781   6.761   2.759  3.1504 -2.1880  1.2725
 8168TIP3   OH224467   0.180   3.112   5.530 -0.0487  0.3581 -0.0722
 8168TIP3    H124468   0.245   3.087   5.465 -0.2620  0.9366 -0.5143
 8168TIP3    H224469   0.231   3.148   5.602  0.3963 -2.5178  1.2065
 8169TIP3   OH224470   2.721   1.644   0.732 -0.2817  0.3170 -0.9382
 8169TIP3    H124471   2.735   1.611   0.821 -2.6860 -0.2974 -0.7245
 8169TIP3    H224472   2.764   1.580   0.676 -0.3813 -0.3150 -0.3053
 8170TIP3   OH224473   1.748   3.622   4.990  0.0011 -0.2830  0.5515
 8170TIP3    H124474   1.779   3.664   4.910  1.2025  0.2697  1.2716
 8170TIP3    H224475   1.787   3.534   4.987 -0.5974 -0.5385  0.1623
 8171TIP3   OH224476   0.139   3.933   4.894  0.1929  0.1400 -0.0368
 8171TIP3    H124477   0.229   3.934   4.928  0.4234  1.2902 -0.6227
 8171TIP3    H224478   0.123   4.024   4.868 -0.7201 -0.3000 -1.0399
 8172TIP3   OH224479   7.070   5.896   3.402  0.0168  0.2812 -0.3279
 8172TIP3    H124480   7.000   5.930   3.457 -1.1540 -0.1811 -1.4650
 8172TIP3    H224481   7.106   5.973   3.358  2.2857  0.9593  2.3719
 8173TIP3   OH224482   1.600   5.991   1.717 -0.0292  0.6404  0.0725
 8173TIP3    H124483   1.549   6.043   1.780 -0.0152 -1.6481  2.0893
 8173TIP3    H224484   1.536   5.929   1.681  0.7824 -0.6707  0.8302
 8174TIP3   OH224485   3.419   3.240   5.200 -0.0629  0.4018 -0.0162
 8174TIP3    H124486   3.456   3.162   5.241  0.5366  0.2475 -0.8214
 8174TIP3    H224487   3.341   3.208   5.154  0.1199  0.2939 -0.2530
 8175TIP3   OH224488   5.541   3.844   0.822  0.1127 -0.3157 -0.2184
 8175TIP3    H124489   5.447   3.847   0.841  0.0314  0.0112 -0.6564
 8175TIP3    H224490   5.582   3.896   0.891  0.0344 -0.9416  0.3153
 8176TIP3   OH224491   5.368   5.518   4.019  0.2969 -0.0221  0.0202
 8176TIP3    H124492   5.374   5.459   3.943 -0.2729  0.2681 -0.2591
 8176TIP3    H224493   5.303   5.583   3.993  0.1338  0.1098  0.7456
 8177TIP3   OH224494   0.407   4.723   4.756  0.0683 -0.0661 -0.0569
 8177TIP3    H124495   0.317   4.743   4.730 -0.6961 -1.9622  0.9174
 8177TIP3    H224496   0.456   4.803   4.737 -2.0541  1.4646  0.5316
 8178TIP3   OH224497   2.352   4.025   4.162  0.6170 -0.0441  0.5357
 8178TIP3    H124498   2.392   3.956   4.110  1.8838  1.2238 -0.2475
 8178TIP3    H224499   2.270   4.044   4.117  1.9437  1.4096 -1.4275
 8179TIP3   OH224500   1.870   6.673   4.964  0.0765  0.0185  0.0690
 8179TIP3    H124501   1.805   6.743   4.973 -1.6273 -1.3933 -0.6765
 8179TIP3    H224502   1.912   6.691   4.880  0.1662  0.5377  0.2167
 8180TIP3   OH224503   3.848   6.129   2.652 -0.3519 -0.3015  0.4489
 8180TIP3    H124504   3.921   6.071   2.631 -2.2912 -3.1685  1.0519
 8180TIP3    H224505   3.828   6.111   2.744 -1.3471  1.0127  0.5341
 8181TIP3   OH224506   5.197   6.222   4.318  0.6052 -0.4840  0.5068
 8181TIP3    H124507   5.169   6.266   4.398 -2.1371 -2.0085  0.4998
 8181TIP3    H224508   5.205   6.130   4.343  1.9135 -0.6840 -0.5056
 8182TIP3   OH224509   0.998   4.425   3.750 -0.2720  0.3727 -0.0261
 8182TIP3    H124510   1.076   4.480   3.762 -0.2834  0.4689 -0.3714
 8182TIP3    H224511   0.972   4.442   3.659  0.3509 -1.0076 -0.4819
 8183TIP3   OH224512   4.257   2.484   5.831 -0.1930  0.0839  0.1555
 8183TIP3    H124513   4.349   2.471   5.852  0.1881  1.0528 -0.7836
 8183TIP3    H224514   4.229   2.402   5.791  1.3388  0.9386 -2.9905
 8184TIP3   OH224515   4.353   6.360   3.811 -0.3055  0.1141  0.2870
 8184TIP3    H124516   4.265   6.349   3.776 -0.0781  1.1562 -0.7224
 8184TIP3    H224517   4.408   6.373   3.733  0.4886  0.9725  0.9531
 8185TIP3   OH224518   1.674   5.679   0.251 -0.4635  0.1169 -0.2224
 8185TIP3    H124519   1.737   5.745   0.221 -0.7058 -0.0565 -1.1656
 8185TIP3    H224520   1.694   5.601   0.198 -0.6334 -0.3464  0.3826
 8186TIP3   OH224521   6.330   3.808   5.036 -0.1765  0.1842  0.4560
 8186TIP3    H124522   6.393   3.806   4.964  0.9070 -1.0480  1.4186
 8186TIP3    H224523   6.345   3.727   5.084 -3.2599 -0.7402  0.0941
 8187TIP3   OH224524   2.023   5.495   2.982  0.1971 -0.3240 -0.2642
 8187TIP3    H124525   1.954   5.561   2.974  0.7914  0.3037 -0.2546
 8187TIP3    H224526   2.104   5.544   2.976  0.6692 -1.2318 -1.7998
 8188TIP3   OH224527   0.245   4.132   0.224  0.1230  0.5626 -0.6154
 8188TIP3    H124528   0.287   4.052   0.191 -1.9489 -0.9021  0.0577
 8188TIP3    H224529   0.312   4.175   0.277  1.4478 -0.4554 -1.4011
 8189TIP3   OH224530   2.702   1.828   0.411 -0.1754  0.1928  0.2516
 8189TIP3    H124531   2.735   1.740   0.425 -0.1884 -0.3445 -2.4838
 8189TIP3    H224532   2.615   1.828   0.450 -0.0824 -0.9167  0.4781
 8190TIP3   OH224533   4.341   5.858   1.406  0.5437 -0.6668 -0.2669
 8190TIP3    H124534   4.347   5.891   1.496  0.1197  0.7818 -0.7361
 8190TIP3    H224535   4.351   5.937   1.352 -0.0247 -1.4053 -1.4708
 8191TIP3   OH224536   6.071   3.983   3.901  0.2453  0.1908 -0.2887
 8191TIP3    H124537   6.152   4.017   3.862  1.6937 -1.7083  0.8975
 8191TIP3    H224538   6.066   3.892   3.870 -1.0412  0.0516  0.2700
 8192TIP3   OH224539   2.357   6.001   0.046  0.4878 -0.0285 -0.3007
 8192TIP3    H124540   2.382   5.928  -0.011  0.7800 -0.0706 -0.1189
 8192TIP3    H224541   2.426   6.004   0.113  0.8999  0.9027 -0.7511
 8193TIP3   OH224542   3.415   1.355   1.366  0.1085  0.0308  0.2751
 8193TIP3    H124543   3.491   1.334   1.420 -1.2950 -0.2594  2.2771
 8193TIP3    H224544   3.351   1.391   1.428 -1.6020 -0.2906 -1.2080
 8194TIP3   OH224545   5.084   3.166   2.162 -0.1782  0.3412 -0.4293
 8194TIP3    H124546   4.996   3.203   2.168  0.1734  1.1660 -0.1654
 8194TIP3    H224547   5.142   3.242   2.156  0.6046 -0.1607  0.5265
 8195TIP3   OH224548   0.921   6.560   1.311 -0.2371 -0.3232 -0.0308
 8195TIP3    H124549   1.004   6.541   1.354 -0.5522 -0.9068  0.3409
 8195TIP3    H224550   0.907   6.653   1.327  0.6637 -0.0638 -0.6831
 8196TIP3   OH224551   4.323   2.765   5.692  0.4343  0.4487  0.1564
 8196TIP3    H124552   4.279   2.810   5.763 -0.0969  1.5127 -0.8130
 8196TIP3    H224553   4.318   2.672   5.715 -1.2303  0.6462  0.6694
 8197TIP3   OH224554   0.665   1.924   0.460  0.3761  0.7166 -0.0093
 8197TIP3    H124555   0.702   1.987   0.397  0.0516  0.3604 -0.5618
 8197TIP3    H224556   0.580   1.901   0.423  0.9770 -0.9423 -0.4274
 8198TIP3   OH224557   1.070   3.162   4.000 -0.0390 -0.2493  0.3507
 8198TIP3    H124558   0.984   3.134   4.033 -0.0984 -0.2999  0.1506
 8198TIP3    H224559   1.102   3.086   3.951  0.0261 -0.1519  0.2439
 8199TIP3   OH224560   6.255   2.357   4.278  0.6359  0.1023 -0.2362
 8199TIP3    H124561   6.265   2.293   4.207  1.1827 -0.9584  0.7564
 8199TIP3    H224562   6.161   2.372   4.284  0.6203  0.5308 -1.4565
 8200TIP3   OH224563   6.357   0.171   0.781 -0.2765  0.2642  0.2148
 8200TIP3    H124564   6.294   0.154   0.711  1.6706 -0.8960 -1.3585
 8200TIP3    H224565   6.409   0.244   0.748  0.1936  0.1947  0.7990
 8201TIP3   OH224566   1.756   0.914   1.115  0.1440 -0.3820  0.3743
 8201TIP3    H124567   1.848   0.895   1.100 -0.0305 -0.4052 -0.6928
 8201TIP3    H224568   1.757   0.979   1.185  0.9425 -0.7299  0.6996
 8202TIP3   OH224569   1.535   6.064   4.118  0.0220 -0.3267 -0.3041
 8202TIP3    H124570   1.582   5.989   4.154 -0.5479 -0.8497 -0.6295
 8202TIP3    H224571   1.443   6.040   4.124 -0.1969  0.5797  0.0968
 8203TIP3   OH224572   2.197   6.094   5.657 -0.7419 -0.1990  0.1429
 8203TIP3    H124573   2.163   6.043   5.730 -0.1345 -0.1338  0.4770
 8203TIP3    H224574   2.227   6.029   5.593 -2.1309 -0.2680 -0.4791
 8204TIP3   OH224575   3.483   0.491   3.558  0.3402  0.2103  0.2730
 8204TIP3    H124576   3.560   0.502   3.503 -0.3514 -0.7914 -0.9550
 8204TIP3    H224577   3.472   0.396   3.565 -0.0607  0.3229  1.5059
 8205TIP3   OH224578   5.432   3.948   5.888  0.0371 -0.2163  0.3232
 8205TIP3    H124579   5.507   3.903   5.927 -1.4393 -2.6507  0.5918
 8205TIP3    H224580   5.455   3.957   5.796  0.1560 -2.1601  0.1315
 8206TIP3   OH224581   4.444   2.495   2.369  0.2348 -0.1852  0.1242
 8206TIP3    H124582   4.506   2.565   2.352 -0.0072 -0.2845 -1.3278
 8206TIP3    H224583   4.491   2.434   2.427  0.7280  0.7488  0.7243
 8207TIP3   OH224584   3.573   3.508   5.795 -0.2363  0.4444 -0.1698
 8207TIP3    H124585   3.623   3.485   5.716 -0.8420 -0.4881 -0.2910
 8207TIP3    H224586   3.639   3.544   5.855  0.5460 -0.5347 -0.4167
 8208TIP3   OH224587   4.770   5.460   3.934  0.2288 -0.7276  0.3614
 8208TIP3    H124588   4.825   5.396   3.980 -0.5119 -2.6186 -1.2552
 8208TIP3    H224589   4.696   5.409   3.900 -1.4271  1.3396  0.6008
 8209TIP3   OH224590   5.120   4.801   4.293 -0.0708  0.1271  0.2250
 8209TIP3    H124591   5.084   4.836   4.375  2.2281 -0.3830  1.5719
 8209TIP3    H224592   5.045   4.795   4.234 -1.6708  1.3392  2.0012
 8210TIP3   OH224593   1.732   0.089   1.348  0.1517 -0.4746 -0.2903
 8210TIP3    H124594   1.746   0.101   1.442 -1.3187 -2.8709  0.3218
 8210TIP3    H224595   1.645   0.127   1.332  0.9049  1.0420 -0.9901
 8211TIP3   OH224596   0.173   0.002   3.234 -0.0481  0.2008  0.7469
 8211TIP3    H124597   0.264   0.033   3.232  0.2092 -0.3017  2.4990
 8211TIP3    H224598   0.160  -0.026   3.325 -1.1498 -2.1824 -0.0688
 8212TIP3   OH224599   1.238   3.724   4.289  0.4328  0.2750 -0.2183
 8212TIP3    H124600   1.155   3.770   4.303  0.2874 -0.0452 -0.0076
 8212TIP3    H224601   1.224   3.638   4.328  1.3920  0.7290  1.2330
 8213TIP3   OH224602   5.386   2.228   1.029  0.4761 -0.7425 -0.0679
 8213TIP3    H124603   5.394   2.322   1.013 -0.5627 -0.4915  0.7555
 8213TIP3    H224604   5.450   2.210   1.098  0.6382 -0.6201 -0.1867
 8214TIP3   OH224605   1.058   4.954   3.402  0.0095  0.3477  0.2033
 8214TIP3    H124606   1.123   4.940   3.471  0.9705 -0.5675 -0.8378
 8214TIP3    H224607   1.094   5.025   3.349  0.4430 -0.4973 -0.6683
 8215TIP3   OH224608   5.940   2.980   1.517  0.3068 -0.1033  0.1083
 8215TIP3    H124609   5.964   3.058   1.567  0.9740 -1.3135  1.7746
 8215TIP3    H224610   5.850   2.996   1.489  0.5324  1.3627  0.1798
 8216TIP3   OH224611   5.000   6.021   1.063 -0.1732 -0.1497 -0.3408
 8216TIP3    H124612   5.086   6.031   1.022  0.4993 -0.3651  0.9458
 8216TIP3    H224613   4.947   6.092   1.025  0.0903 -0.9225 -2.2708
 8217TIP3   OH224614   1.912   0.932   2.116 -0.4481  0.1534  0.6064
 8217TIP3    H124615   1.899   1.019   2.153 -1.3830 -0.5964  2.2064
 8217TIP3    H224616   1.985   0.896   2.166  1.0350  0.5788 -1.1852
 8218TIP3   OH224617   5.060   1.564   0.272 -0.3355 -0.2743 -0.4800
 8218TIP3    H124618   5.065   1.492   0.209 -3.3876 -0.4587 -0.6930
 8218TIP3    H224619   5.024   1.638   0.222 -0.0632  0.4870  0.4071
 8219TIP3   OH224620   2.906   5.586   3.695 -0.5188  0.3747  0.2239
 8219TIP3    H124621   2.846   5.563   3.624  0.5916  0.7480 -0.8678
 8219TIP3    H224622   2.990   5.549   3.669 -0.2605 -0.2235  1.7763
 8220TIP3   OH224623   0.264   3.618   2.604  0.4248 -0.7825 -0.0161
 8220TIP3    H124624   0.179   3.578   2.584 -0.6118  1.3297 -0.0903
 8220TIP3    H224625   0.243   3.690   2.663  1.6245  2.0272 -2.7454
 8221TIP3   OH224626   2.197   3.076   3.439  0.0083  0.1614  0.5658
 8221TIP3    H124627   2.180   3.170   3.435 -1.5984 -0.1485 -1.2567
 8221TIP3    H224628   2.178   3.044   3.351  1.5466 -1.7337  0.8543
 8222TIP3   OH224629   0.638   1.451   5.460  0.0909  0.8697  0.1806
 8222TIP3    H124630   0.619   1.425   5.551 -1.0750  3.5679  0.8256
 8222TIP3    H224631   0.552   1.475   5.425  0.5260 -0.1631 -1.7054
 8223TIP3   OH224632   6.939   2.911   0.244 -0.6010 -0.3699  0.2111
 8223TIP3    H124633   6.951   2.995   0.288  2.7751  0.0395 -1.2036
 8223TIP3    H224634   6.880   2.930   0.171 -0.5227  0.5656  0.3798
 8224TIP3   OH224635   5.257   1.869   2.895 -0.1549  0.1415 -0.4650
 8224TIP3    H124636   5.264   1.860   2.800 -0.9552 -0.2952 -0.4886
 8224TIP3    H224637   5.309   1.948   2.915  2.1542 -1.1544 -0.9446
 8225TIP3   OH224638   2.379   0.736   3.455  0.3252  0.0545 -0.3875
 8225TIP3    H124639   2.330   0.699   3.529 -0.1318 -0.7196 -1.0497
 8225TIP3    H224640   2.432   0.806   3.493 -1.2505  0.8893  0.3797
 8226TIP3   OH224641   3.054   5.515   5.161  0.4407  0.5366 -0.1393
 8226TIP3    H124642   3.066   5.455   5.088  0.4535  0.8718 -0.4134
 8226TIP3    H224643   3.076   5.463   5.238  0.6414  0.2466 -0.3904
 8227TIP3   OH224644   2.707   0.488   0.884  0.0971  0.6112 -0.0262
 8227TIP3    H124645   2.800   0.476   0.864 -0.1452  1.7059 -2.0155
 8227TIP3    H224646   2.700   0.579   0.915 -0.4665  0.9001 -0.9764
 8228TIP3   OH224647   3.279   4.946   3.909  0.0273 -0.6654 -0.0084
 8228TIP3    H124648   3.323   5.030   3.923 -1.2632 -0.1741  1.4084
 8228TIP3    H224649   3.322   4.886   3.970  1.1323 -1.1394 -1.2130
 8229TIP3   OH224650   1.823   1.212   1.810 -0.7028  0.0348 -0.3095
 8229TIP3    H124651   1.821   1.187   1.717  0.1061  1.9748 -0.8915
 8229TIP3    H224652   1.899   1.269   1.818 -0.7554 -0.0966  1.5712
 8230TIP3   OH224653   6.581   2.292   0.211  0.6499 -0.3501 -0.6221
 8230TIP3    H124654   6.599   2.227   0.278  1.7001  0.4918 -0.0472
 8230TIP3    H224655   6.649   2.277   0.145  0.3827 -0.3754 -0.8912
 8231TIP3   OH224656   2.898   2.307   1.092  0.2788  0.4012 -0.1317
 8231TIP3    H124657   2.964   2.240   1.112  0.9648  0.7628 -1.1322
 8231TIP3    H224658   2.855   2.324   1.176  1.3103 -0.0015  0.4931
 8232TIP3   OH224659   4.024   6.129   1.280  0.1876  0.1820 -0.3446
 8232TIP3    H124660   4.023   6.222   1.258  0.8836  0.4418  0.6723
 8232TIP3    H224661   4.115   6.102   1.268 -0.0329 -0.3991 -0.7483
 8233TIP3   OH224662   1.661   4.977   1.778 -0.3108  0.5587  0.4085
 8233TIP3    H124663   1.588   5.025   1.818 -0.4336 -0.1660  1.0856
 8233TIP3    H224664   1.738   5.004   1.828 -0.3827  0.0594  0.8029
 8234TIP3   OH224665   6.933   4.913   4.494 -0.4028  0.1573 -0.0120
 8234TIP3    H124666   6.970   4.960   4.569 -0.3584 -1.3196  0.9292
 8234TIP3    H224667   6.842   4.942   4.490 -0.4470  0.1444  0.7093
 8235TIP3   OH224668   4.726   0.427   4.703 -0.2726  0.4950  0.1223
 8235TIP3    H124669   4.821   0.426   4.692 -0.4475  0.4735 -1.8414
 8235TIP3    H224670   4.711   0.400   4.794  1.5710 -0.1348  0.2728
 8236TIP3   OH224671   1.144   3.107   5.599 -0.1781  0.3790 -0.8225
 8236TIP3    H124672   1.207   3.170   5.562 -0.7019  0.3456 -1.8043
 8236TIP3    H224673   1.125   3.048   5.526 -0.2907 -0.4536 -0.1291
 8237TIP3   OH224674   4.511   2.242   1.530 -0.1460 -0.2455  0.0587
 8237TIP3    H124675   4.476   2.170   1.584  0.3421  0.0670  0.7998
 8237TIP3    H224676   4.604   2.244   1.551  0.1426 -0.3939 -1.1302
 8238TIP3   OH224677   6.260   3.896   0.216 -0.3881  0.4534  0.1309
 8238TIP3    H124678   6.328   3.957   0.187 -0.7839  0.6881 -0.3286
 8238TIP3    H224679   6.303   3.811   0.220 -0.5196  0.2202 -2.1006
 8239TIP3   OH224680   4.475   3.935   3.395  0.0840  0.0803  0.0856
 8239TIP3    H124681   4.416   3.962   3.325  1.2461 -0.7260 -1.2585
 8239TIP3    H224682   4.551   3.899   3.350  1.6491  1.1195  1.7543
 8240TIP3   OH224683   6.715   4.209   4.306 -0.6656  0.5514  0.0019
 8240TIP3    H124684   6.628   4.249   4.313 -0.6369  0.4252  1.1293
 8240TIP3    H224685   6.726   4.193   4.212 -1.9252  0.4185 -0.1386
 8241TIP3   OH224686   4.872   4.864   3.107 -0.1289 -0.0149 -0.4619
 8241TIP3    H124687   4.907   4.775   3.106  0.4759  0.1646  1.1015
 8241TIP3    H224688   4.780   4.854   3.132  0.0591 -0.1821  0.1763
 8242TIP3   OH224689   4.184   5.619   4.175  0.2815 -0.2428 -0.1705
 8242TIP3    H124690   4.136   5.690   4.218  0.8885  0.5012 -0.7018
 8242TIP3    H224691   4.276   5.641   4.188  0.4699 -0.4591 -1.0999
 8243TIP3   OH224692   3.483   1.156   0.709 -0.9504 -0.6889 -0.2438
 8243TIP3    H124693   3.550   1.092   0.683  1.3470  0.4108  2.4080
 8243TIP3    H224694   3.431   1.111   0.775 -1.2777 -0.7848 -0.5682
 8244TIP3   OH224695   2.964   0.827   2.639 -0.0319 -0.0339  0.9804
 8244TIP3    H124696   2.963   0.898   2.703  0.2439  1.2216 -0.3410
 8244TIP3    H224697   3.057   0.806   2.629 -0.0000  0.3625  0.3925
 8245TIP3   OH224698   4.082   1.899   3.141 -0.2200 -0.4355  0.0419
 8245TIP3    H124699   4.040   1.836   3.199 -0.3307 -0.7314 -0.3553
 8245TIP3    H224700   4.009   1.938   3.092 -0.0411 -0.9835 -0.6842
 8246TIP3   OH224701   2.206   4.957   1.835  0.2777  0.5520 -0.0165
 8246TIP3    H124702   2.120   4.917   1.851  0.1753  0.8008  0.0473
 8246TIP3    H224703   2.268   4.887   1.855  0.1093  0.5213  0.4059
 8247TIP3   OH224704   6.799   3.814   1.096  0.7114  0.4701  0.1403
 8247TIP3    H124705   6.761   3.851   1.017  1.1940 -0.7470 -0.6925
 8247TIP3    H224706   6.757   3.729   1.105  1.8624 -0.1023  0.2481
 8248TIP3   OH224707   3.069   3.043   2.090  0.2772 -0.1155  0.0663
 8248TIP3    H124708   2.992   3.074   2.137  1.2135  0.5074  1.2478
 8248TIP3    H224709   3.051   2.951   2.072 -0.3052 -0.2626  1.2797
 8249TIP3   OH224710   4.781   0.689   4.972 -0.1331 -0.1318 -0.5678
 8249TIP3    H124711   4.838   0.652   5.040 -1.3605  0.0923  0.6081
 8249TIP3    H224712   4.842   0.730   4.911  1.0782 -1.4265 -0.2956
 8250TIP3   OH224713   4.125   3.400   3.521  0.5151 -0.3594 -0.0108
 8250TIP3    H124714   4.165   3.356   3.596 -0.0875 -0.4429  0.2698
 8250TIP3    H224715   4.194   3.457   3.487  0.3591  0.8050  1.5268
 8251TIP3   OH224716   4.784   5.170   2.565 -0.0870 -0.1865  0.2639
 8251TIP3    H124717   4.764   5.077   2.555 -0.8835  0.0506 -0.4840
 8251TIP3    H224718   4.852   5.173   2.633  0.8659 -1.4089 -0.5846
 8252TIP3   OH224719   6.709   2.385   1.928 -0.2492  0.0116  0.1035
 8252TIP3    H124720   6.693   2.468   1.883 -0.3607 -0.4311 -0.6959
 8252TIP3    H224721   6.658   2.320   1.879  1.1522 -0.8164 -0.3383
 8253TIP3   OH224722   7.167   6.362   1.618 -0.0244  0.3125  0.1734
 8253TIP3    H124723   7.138   6.445   1.578  0.4344  0.3028 -0.1802
 8253TIP3    H224724   7.260   6.376   1.636 -0.2561  0.3781  1.4017
 8254TIP3   OH224725   0.223   3.170   4.496  0.1174  0.0842 -0.2688
 8254TIP3    H124726   0.318   3.169   4.485  0.1401 -0.8604 -0.1189
 8254TIP3    H224727   0.191   3.225   4.425  0.7148 -0.3569 -0.8973
 8255TIP3   OH224728   4.398   2.270   4.746 -0.7638  0.3089 -0.2624
 8255TIP3    H124729   4.492   2.255   4.745 -0.9352 -0.8698  0.4114
 8255TIP3    H224730   4.385   2.341   4.809 -0.3793  0.1791 -0.0393
 8256TIP3   OH224731   4.199   6.557   1.846 -0.3319 -0.0356  0.3208
 8256TIP3    H124732   4.168   6.648   1.849  1.1714  0.5006  0.3975
 8256TIP3    H224733   4.262   6.551   1.918  1.1172 -0.5224 -0.9264
 8257TIP3   OH224734   2.669   1.795   2.838 -0.1272 -0.1877 -0.1902
 8257TIP3    H124735   2.715   1.775   2.919  2.0942 -2.4317 -1.8360
 8257TIP3    H224736   2.731   1.849   2.789 -0.1875 -1.2440 -1.4964
 8258TIP3   OH224737   3.626   2.021   1.590  0.3527 -0.2104  0.0413
 8258TIP3    H124738   3.675   2.085   1.538  1.5637 -1.7348 -0.8081
 8258TIP3    H224739   3.691   1.955   1.613 -0.5648 -0.4773  2.0387
 8259TIP3   OH224740   4.471   3.797   3.632 -0.6589  0.0639 -0.5122
 8259TIP3    H124741   4.489   3.837   3.547 -1.5047 -1.3858 -1.4034
 8259TIP3    H224742   4.409   3.857   3.674 -0.7176  0.4641 -1.1610
 8260TIP3   OH224743   1.405   0.387   0.783  0.3687  0.5950  0.1496
 8260TIP3    H124744   1.422   0.348   0.697 -0.3495  0.2219  0.1749
 8260TIP3    H224745   1.341   0.456   0.766 -1.2760 -0.7567  0.6482
 8261TIP3   OH224746   4.711   5.059   0.156  0.2705  0.7857  0.0653
 8261TIP3    H124747   4.674   4.978   0.191  0.4436 -0.6279 -2.7770
 8261TIP3    H224748   4.634   5.112   0.133  0.1137  0.4786 -0.1259
 8262TIP3   OH224749   5.186   1.209   1.482 -0.1081 -0.4435 -0.2006
 8262TIP3    H124750   5.204   1.123   1.444 -0.5085 -1.2515  1.3398
 8262TIP3    H224751   5.148   1.189   1.568 -2.2297  1.2527 -0.6793
 8263TIP3   OH224752   6.353   3.863   0.966  0.5628  0.4194  0.0769
 8263TIP3    H124753   6.313   3.856   0.880 -0.8528  0.5523  0.6940
 8263TIP3    H224754   6.299   3.926   1.013 -0.2642 -1.5150  1.8872
 8264TIP3   OH224755   2.924   4.592   4.460 -0.1075  0.3167  1.2805
 8264TIP3    H124756   2.864   4.629   4.395 -0.1136 -0.3929  0.8712
 8264TIP3    H224757   2.925   4.498   4.441  0.8537  0.2713  1.5044
 8265TIP3   OH224758   0.141   2.481   2.393  0.3175  0.0372 -0.2904
 8265TIP3    H124759   0.160   2.429   2.315  1.0753  0.1649 -0.1989
 8265TIP3    H224760   0.188   2.437   2.464 -0.9148 -0.4656  0.2427
 8266TIP3   OH224761   7.061   6.268   1.995  0.4049  0.2573 -0.0794
 8266TIP3    H124762   7.042   6.236   2.083  0.7283  1.1776  0.3409
 8266TIP3    H224763   7.115   6.199   1.955 -0.7848 -0.7323 -0.0181
 8267TIP3   OH224764   0.637   5.123   3.801 -0.5511 -0.0072 -0.3170
 8267TIP3    H124765   0.677   5.037   3.812  0.4464  0.6411  1.7788
 8267TIP3    H224766   0.620   5.153   3.890 -0.8408  1.9688 -0.9762
 8268TIP3   OH224767   2.962   1.460   1.144 -0.2127 -0.2968 -0.5755
 8268TIP3    H124768   3.037   1.459   1.204 -1.8776  3.8764  2.0239
 8268TIP3    H224769   2.910   1.385   1.170  1.0574 -0.8833  0.3962
 8269TIP3   OH224770   2.678   4.742   2.101  0.3841  0.1099 -0.2225
 8269TIP3    H124771   2.680   4.789   2.017  1.8589 -0.5219 -0.5743
 8269TIP3    H224772   2.607   4.678   2.091 -0.8877  1.4631 -0.1549
 8270TIP3   OH224773   3.557   6.373   4.245  0.0607 -0.3760  0.0448
 8270TIP3    H124774   3.556   6.345   4.337  0.5450 -1.6065 -0.3067
 8270TIP3    H224775   3.610   6.307   4.200 -1.2479 -0.5375 -1.3456
 8271TIP3   OH224776   0.559   0.668   2.462 -0.0765  0.3849 -0.5656
 8271TIP3    H124777   0.468   0.637   2.464 -0.0680  0.3484  1.3539
 8271TIP3    H224778   0.552   0.763   2.466 -0.0446  0.3528  0.5442
 8272TIP3   OH224779   2.333   1.184   4.084  0.5032 -0.1447 -0.8373
 8272TIP3    H124780   2.366   1.147   4.166  1.6969  1.2555 -0.6458
 8272TIP3    H224781   2.241   1.202   4.101  0.6397 -0.2508  0.0670
 8273TIP3   OH224782   5.038   4.857   1.336 -0.1163 -0.3418 -0.3973
 8273TIP3    H124783   5.048   4.946   1.303  0.6620 -0.0713  0.5377
 8273TIP3    H224784   5.020   4.868   1.429 -2.9489 -1.0625 -0.7737
 8274TIP3   OH224785   5.025   6.450   1.331  0.7643 -0.3542 -0.5101
 8274TIP3    H124786   4.976   6.463   1.411  1.0862  0.0631 -0.3771
 8274TIP3    H224787   4.982   6.506   1.266 -0.3330 -1.7057 -0.9968
 8275TIP3   OH224788   6.003   0.566   4.888 -0.0831  0.0072  0.4092
 8275TIP3    H124789   6.062   0.503   4.846  0.6726  0.0188  1.4068
 8275TIP3    H224790   5.924   0.516   4.908  0.4502 -0.5919  1.0491
 8276TIP3   OH224791   1.959   4.296   0.535  0.4942 -0.1137  0.3356
 8276TIP3    H124792   2.042   4.298   0.489 -0.0532 -0.7506 -0.7025
 8276TIP3    H224793   1.925   4.386   0.527  0.1795 -0.3290 -0.9528
 8277TIP3   OH224794   1.333   0.667   0.069  0.2410 -0.0243 -0.0626
 8277TIP3    H124795   1.273   0.657  -0.005 -1.1233  0.8535  0.8761
 8277TIP3    H224796   1.309   0.750   0.109  2.4955  0.6562  0.0327
 8278TIP3   OH224797   1.509   0.144   2.519 -0.2454 -0.4276  0.1130
 8278TIP3    H124798   1.478   0.103   2.438 -2.3175 -0.3474  0.7991
 8278TIP3    H224799   1.432   0.188   2.555  1.3411  2.1482  0.6103
 8279TIP3   OH224800   1.077   3.576   1.894 -0.0445 -0.5768  0.3031
 8279TIP3    H124801   1.071   3.669   1.872  1.3572 -0.9657 -2.0019
 8279TIP3    H224802   0.987   3.552   1.919 -1.1498  0.7172 -2.0450
 8280TIP3   OH224803   3.832   3.922   5.541  0.1585 -0.7055  0.3828
 8280TIP3    H124804   3.896   3.852   5.556  0.4043 -0.7113 -0.6263
 8280TIP3    H224805   3.752   3.875   5.517  1.0833 -0.6742 -3.2735
 8281TIP3   OH224806   2.016   0.468   4.313  0.3584 -0.7779  0.2272
 8281TIP3    H124807   1.991   0.453   4.221 -1.2289 -1.9464  0.8109
 8281TIP3    H224808   2.024   0.563   4.320 -1.5048 -0.4978 -0.6695
 8282TIP3   OH224809   0.327   1.535   3.650  0.3178  0.3972  0.1059
 8282TIP3    H124810   0.315   1.462   3.589  1.6712  0.3909 -0.1862
 8282TIP3    H224811   0.251   1.591   3.636 -0.5283 -0.7332  0.0296
 8283TIP3   OH224812   5.144   3.444   2.938  0.3465 -0.1544 -0.2805
 8283TIP3    H124813   5.052   3.459   2.914 -0.1607  0.1168  1.6946
 8283TIP3    H224814   5.185   3.415   2.856 -1.5605 -0.5814 -1.1511
 8284TIP3   OH224815   3.135   3.838   5.563  0.2334 -0.1829 -0.1204
 8284TIP3    H124816   3.080   3.910   5.594 -1.5368 -0.0663 -3.1598
 8284TIP3    H224817   3.078   3.761   5.570  0.8272 -0.6423 -0.3108
 8285TIP3   OH224818   3.412   0.702   2.087  0.0254  0.0085 -0.1943
 8285TIP3    H124819   3.481   0.671   2.146 -0.1920 -1.2393 -0.5642
 8285TIP3    H224820   3.332   0.662   2.121 -0.4641  1.1144 -0.0118
 8286TIP3   OH224821   6.004   6.731   4.631  0.2009  0.2721  0.1279
 8286TIP3    H124822   5.956   6.648   4.631 -0.4932  0.6632  0.3753
 8286TIP3    H224823   6.095   6.706   4.649 -0.0903 -0.3849  0.7514
 8287TIP3   OH224824   1.796   5.068   5.006  0.0589  0.7129  0.3425
 8287TIP3    H124825   1.848   5.072   5.086  1.4616  0.5351 -0.5231
 8287TIP3    H224826   1.773   4.976   4.996  0.5598  0.6040  0.1449
 8288TIP3   OH224827   3.314   0.443   2.214 -0.1876 -0.6620 -0.1725
 8288TIP3    H124828   3.318   0.390   2.294 -0.5087  0.0527  0.3180
 8288TIP3    H224829   3.388   0.412   2.162 -0.1944 -1.3920  0.2319
 8289TIP3   OH224830   2.703   4.750   5.232  0.4006  0.1708  0.1548
 8289TIP3    H124831   2.794   4.749   5.260  0.3587  1.8648  0.4462
 8289TIP3    H224832   2.653   4.750   5.314  0.2348  2.3627  0.1205
 8290TIP3   OH224833   2.855   0.450   4.918 -0.3342 -0.3672 -0.1037
 8290TIP3    H124834   2.808   0.445   5.001 -0.5078 -2.6804 -0.2737
 8290TIP3    H224835   2.786   0.453   4.852 -0.1948  0.8738 -0.2133
 8291TIP3   OH224836   1.961   4.028   3.035  0.5695 -0.0883  0.0647
 8291TIP3    H124837   2.000   3.949   2.998  0.5911 -0.0872  0.0857
 8291TIP3    H224838   2.016   4.099   3.003  0.5307 -0.0789  0.0189
 8292TIP3   OH224839   3.324   3.116   0.079 -0.4694 -0.3771  0.2984
 8292TIP3    H124840   3.311   3.114  -0.016 -1.8077  1.1921  0.4023
 8292TIP3    H224841   3.315   3.025   0.106  1.4782 -1.0967 -1.2217
 8293TIP3   OH224842   2.353   0.776   2.429  0.7013  0.7121  0.6529
 8293TIP3    H124843   2.358   0.871   2.420  2.0866  0.6594  0.5980
 8293TIP3    H224844   2.360   0.742   2.340  2.0518  0.5288  0.8077
 8294TIP3   OH224845   2.421   0.207   5.793  0.2281 -0.2414  0.2442
 8294TIP3    H124846   2.503   0.169   5.762 -0.3694 -1.4622  0.0783
 8294TIP3    H224847   2.361   0.132   5.797 -1.7682  1.0403 -2.5607
 8295TIP3   OH224848   1.121   2.182   0.240  0.3295  0.4227  0.1267
 8295TIP3    H124849   1.117   2.258   0.182  1.5177 -0.7132 -1.5492
 8295TIP3    H224850   1.141   2.108   0.182  1.8722 -0.7456  2.0064
 8296TIP3   OH224851   6.014   3.783   4.973 -0.1619 -0.4895 -0.0711
 8296TIP3    H124852   5.963   3.746   5.045  0.5109 -1.2646  0.0152
 8296TIP3    H224853   6.079   3.716   4.952 -0.0329 -0.0706 -1.0776
 8297TIP3   OH224854   4.148   2.425   0.605  0.5472 -0.6683  0.6303
 8297TIP3    H124855   4.236   2.420   0.642  2.2463 -1.0111 -2.9764
 8297TIP3    H224856   4.099   2.482   0.665  2.6804 -1.7339  3.6099
 8298TIP3   OH224857   6.681   1.426   2.256 -0.2054 -0.5390 -0.2199
 8298TIP3    H124858   6.661   1.474   2.337 -0.4285 -0.2312 -0.4529
 8298TIP3    H224859   6.749   1.479   2.214  1.0184 -1.5113  0.5064
 8299TIP3   OH224860   2.701   6.504   5.618 -0.4766 -0.3970  0.6224
 8299TIP3    H124861   2.747   6.586   5.601  0.9391 -1.4629 -1.0244
 8299TIP3    H224862   2.735   6.473   5.701  0.8742 -0.5352  0.0334
 8300TIP3   OH224863   2.949   5.994   2.848 -0.3694 -0.0218 -0.2835
 8300TIP3    H124864   3.029   6.043   2.865 -1.4636  2.4175 -1.6384
 8300TIP3    H224865   2.940   5.935   2.924  2.1950  0.2502  0.3034
 8301TIP3   OH224866   2.068   5.253   4.051  0.5373  0.5372  0.2240
 8301TIP3    H124867   2.150   5.203   4.057  1.1801  1.5656  0.2287
 8301TIP3    H224868   2.096   5.340   4.023 -0.5478  0.9536  0.4232
 8302TIP3   OH224869   2.083   5.816   1.356  0.4840 -0.0293 -0.4434
 8302TIP3    H124870   2.140   5.885   1.389 -0.0831  0.6468 -0.8250
 8302TIP3    H224871   2.116   5.736   1.396 -0.6386  0.8054  2.4371
 8303TIP3   OH224872   6.304   4.831   4.177 -0.1079 -1.0365  0.1325
 8303TIP3    H124873   6.221   4.787   4.197  0.6933 -2.6520  0.0922
 8303TIP3    H224874   6.365   4.759   4.161  1.2519  0.1287 -0.0493
 8304TIP3   OH224875   0.517   5.161   4.106  0.1162  0.0710 -0.7931
 8304TIP3    H124876   0.504   5.253   4.132  0.3407  0.3657 -1.6754
 8304TIP3    H224877   0.596   5.134   4.151  1.2669  0.9932 -2.1825
 8305TIP3   OH224878   6.118   0.236   0.356  0.9093  0.0143  0.9240
 8305TIP3    H124879   6.057   0.215   0.286  1.5643 -0.7773  0.5642
 8305TIP3    H224880   6.200   0.256   0.311  0.6504  2.2054  1.3309
 8306TIP3   OH224881   2.757   3.014   5.661  0.0902  0.2104  0.3528
 8306TIP3    H124882   2.829   3.076   5.648  0.1754 -0.0438 -0.4582
 8306TIP3    H224883   2.783   2.962   5.737  0.4586  0.5489  0.4613
 8307TIP3   OH224884   0.090   0.603   3.848 -0.0163 -0.2964 -0.4885
 8307TIP3    H124885   0.111   0.623   3.757 -0.1393 -0.6924 -0.6090
 8307TIP3    H224886   0.165   0.552   3.879 -0.3817 -0.9395 -0.6459
 8308TIP3   OH224887   3.250   0.380   1.734 -0.6998  0.3095  0.2978
 8308TIP3    H124888   3.245   0.339   1.821 -1.4743 -0.0577  0.0885
 8308TIP3    H224889   3.190   0.329   1.680 -1.3032  1.4141 -0.1051
 8309TIP3   OH224890   6.584   6.591   4.298  0.3305  0.3830  0.7658
 8309TIP3    H124891   6.519   6.522   4.309 -0.1824  0.6059 -0.7182
 8309TIP3    H224892   6.533   6.670   4.280  0.9884  0.4453 -1.0194
 8310TIP3   OH224893   1.009   6.067   4.018  0.2466 -0.1959  0.3071
 8310TIP3    H124894   0.963   6.143   4.056  2.2029  0.7434  0.9136
 8310TIP3    H224895   0.965   5.991   4.057 -1.4478  0.6056  0.0615
 8311TIP3   OH224896   2.469   0.737   2.184  0.6660  0.4111  0.2177
 8311TIP3    H124897   2.489   0.818   2.137 -1.8285  0.1355 -1.5391
 8311TIP3    H224898   2.543   0.680   2.165  1.6204  1.6658 -0.0060
 8312TIP3   OH224899   1.834   4.273   1.513 -0.3114 -0.4372  0.2364
 8312TIP3    H124900   1.897   4.345   1.516 -0.3390 -0.4137  0.2479
 8312TIP3    H224901   1.879   4.199   1.553 -1.3473  0.3551  3.1393
 8313TIP3   OH224902   3.874   3.552   0.813 -0.1924  0.4905  0.7303
 8313TIP3    H124903   3.886   3.505   0.896 -1.2298  0.6932  1.0081
 8313TIP3    H224904   3.914   3.637   0.828 -0.6801  0.6514  1.1504
 8314TIP3   OH224905   6.607   5.228   5.024 -0.2908  0.3296  0.0539
 8314TIP3    H124906   6.617   5.281   5.103 -2.2166 -0.3982  0.8480
 8314TIP3    H224907   6.515   5.235   5.002 -0.4804 -2.1189 -0.1884
 8315TIP3   OH224908   4.603   1.008   4.062 -0.6273 -0.2438  0.0380
 8315TIP3    H124909   4.527   0.956   4.091  0.1054 -1.0981  0.4729
 8315TIP3    H224910   4.653   0.948   4.008 -1.2280  0.9048 -1.8708
 8316TIP3   OH224911   5.260   1.042   3.531 -0.3750  0.5821  0.1982
 8316TIP3    H124912   5.181   1.050   3.585  0.5540  1.4225  1.4887
 8316TIP3    H224913   5.332   1.058   3.591  0.7147  1.7222 -1.3354
 8317TIP3   OH224914   7.040   5.069   3.181  0.0107  0.8161  0.2979
 8317TIP3    H124915   7.131   5.043   3.196  0.2994  2.3154  1.4758
 8317TIP3    H224916   7.007   5.090   3.268 -0.7338  2.4828 -0.3416
 8318TIP3   OH224917   4.077   5.486   2.647  0.7868 -0.3915  0.3936
 8318TIP3    H124918   4.148   5.519   2.592  1.9811 -2.6539  0.4247
 8318TIP3    H224919   4.019   5.440   2.587  1.1429 -1.3552  0.7681
 8319TIP3   OH224920   2.740   0.592   1.724 -0.0016  0.4264  0.2483
 8319TIP3    H124921   2.755   0.536   1.801 -1.7976 -0.9975 -0.3672
 8319TIP3    H224922   2.784   0.546   1.652 -0.1962  0.6058  0.0145
 8320TIP3   OH224923   0.222   0.611   4.638  0.3431  0.0666 -0.1502
 8320TIP3    H124924   0.233   0.519   4.661  3.3724  0.5047  0.6300
 8320TIP3    H224925   0.270   0.659   4.706 -0.4430  2.1910 -0.9932
 8321TIP3   OH224926   3.724   0.392   3.292  0.6140 -0.1547  0.0598
 8321TIP3    H124927   3.801   0.412   3.238  2.1871 -0.4079  2.1086
 8321TIP3    H224928   3.722   0.296   3.296  0.2102 -0.1475  0.0535
 8322TIP3   OH224929   1.580   4.362   4.042 -0.3325 -0.1999 -0.0985
 8322TIP3    H124930   1.597   4.453   4.018 -0.8104 -0.4945 -1.6649
 8322TIP3    H224931   1.666   4.328   4.069 -0.3501  0.9916  1.5995
 8323TIP3   OH224932   3.465   5.398   3.091 -0.0206  0.2142  0.2180
 8323TIP3    H124933   3.398   5.464   3.108 -0.3696 -0.0347 -0.1859
 8323TIP3    H224934   3.492   5.368   3.178  2.4090  3.1020  0.6456
 8324TIP3   OH224935   3.171   3.401   3.709 -0.0659 -0.2404 -0.6903
 8324TIP3    H124936   3.182   3.325   3.765  1.8619  1.1658  0.9825
 8324TIP3    H224937   3.260   3.428   3.687 -0.7267  0.5828 -2.6638
 8325TIP3   OH224938   4.438   2.537   3.921  0.3902 -0.3375 -0.0897
 8325TIP3    H124939   4.522   2.570   3.954  0.4442  0.1303 -0.6776
 8325TIP3    H224940   4.461   2.488   3.841  0.1566 -0.6344  0.0207
 8326TIP3   OH224941   6.031   4.557   0.291 -0.1687 -0.0013 -0.6835
 8326TIP3    H124942   6.056   4.501   0.365 -1.1810  0.0339 -0.2927
 8326TIP3    H224943   6.081   4.638   0.304  1.0000 -0.6510 -1.0323
 8327TIP3   OH224944   3.500   3.547   3.526 -0.2199 -0.4997  0.5813
 8327TIP3    H124945   3.473   3.638   3.509 -0.8215 -0.5901  1.0128
 8327TIP3    H224946   3.587   3.541   3.488 -0.4115  0.0921  0.0289
 8328TIP3   OH224947   4.450   6.690   3.404 -0.4800 -0.3112 -0.2539
 8328TIP3    H124948   4.383   6.715   3.469 -0.0699  1.6563 -0.5111
 8328TIP3    H224949   4.523   6.749   3.422  1.6275 -2.9558  0.5814
 8329TIP3   OH224950   5.106   6.625   1.038  0.1962 -0.0374 -0.8817
 8329TIP3    H124951   5.098   6.649   0.946  0.9846  0.1908 -0.8997
 8329TIP3    H224952   5.024   6.655   1.078  1.1659  2.9379 -0.8709
 8330TIP3   OH224953   1.308   5.268   4.598  0.2310  0.3724  0.0625
 8330TIP3    H124954   1.387   5.238   4.554  0.1067 -1.0998  0.7909
 8330TIP3    H224955   1.283   5.196   4.656  0.6223  2.3167  2.8962
 8331TIP3   OH224956   1.047   5.847   1.128 -0.3781  0.5004 -0.2464
 8331TIP3    H124957   1.006   5.761   1.142  0.1238  0.4679  1.2124
 8331TIP3    H224958   1.049   5.857   1.033 -0.4624 -1.1061 -0.4563
 8332TIP3   OH224959   2.792   4.697   3.607 -0.3494 -0.5854  0.1940
 8332TIP3    H124960   2.878   4.714   3.646 -0.6297 -2.5114  1.8302
 8332TIP3    H224961   2.758   4.621   3.655 -1.7890 -1.6278 -2.2397
 8333TIP3   OH224962   3.058   3.791   0.215  0.1772 -0.0286 -0.2101
 8333TIP3    H124963   3.005   3.747   0.281 -0.6827 -0.4411 -1.1374
 8333TIP3    H224964   3.064   3.727   0.143  0.0586  0.8430 -1.0223
 8334TIP3   OH224965   1.899   4.164   1.914 -0.4181 -0.5831 -0.0599
 8334TIP3    H124966   1.860   4.085   1.876 -0.1462 -1.6420  1.7622
 8334TIP3    H224967   1.828   4.228   1.914 -0.6815 -0.8244 -1.4399
 8335TIP3   OH224968   0.891   4.727   4.759  0.0325 -0.4031  0.1627
 8335TIP3    H124969   0.982   4.719   4.732 -0.1480  0.7766 -0.8800
 8335TIP3    H224970   0.891   4.697   4.850  1.0213 -2.5672 -0.4709
 8336TIP3   OH224971   4.506   5.709   4.324  0.2265 -0.2725 -1.0502
 8336TIP3    H124972   4.573   5.739   4.385 -0.3435  0.3802 -0.7352
 8336TIP3    H224973   4.548   5.714   4.238 -0.1479  2.4766 -1.1562
 8337TIP3   OH224974   0.027   2.768   3.116  0.1376 -0.4603 -0.0430
 8337TIP3    H124975   0.077   2.758   3.036  2.3308  0.9733  1.0683
 8337TIP3    H224976   0.066   2.705   3.177  0.2492  0.2746  0.6679
 8338TIP3   OH224977   5.505   1.632   1.669  0.5441 -0.5052  0.0820
 8338TIP3    H124978   5.517   1.727   1.673 -2.0095 -0.0344 -1.3779
 8338TIP3    H224979   5.438   1.613   1.735  1.8319 -1.5282  1.1730
 8339TIP3   OH224980   4.539   3.491   4.060 -0.0158 -0.1623 -0.3169
 8339TIP3    H124981   4.551   3.579   4.098 -0.5292  0.3264 -1.2653
 8339TIP3    H224982   4.588   3.494   3.978 -0.6949 -0.5054 -0.7369
 8340TIP3   OH224983   7.095   0.956   5.606  0.4722 -0.1752 -0.2542
 8340TIP3    H124984   7.059   1.012   5.537 -0.9964 -0.0444  0.5841
 8340TIP3    H224985   7.128   0.879   5.559  0.8751  0.5780 -1.2410
 8341TIP3   OH224986   2.575   1.358   4.259  0.3655 -0.1515  0.2005
 8341TIP3    H124987   2.579   1.399   4.172  0.7050  0.2830  0.4175
 8341TIP3    H224988   2.665   1.332   4.278  0.7398  1.7938  1.3758
 8342TIP3   OH224989   2.758   6.410   0.069  0.2366  0.4861  0.0337
 8342TIP3    H124990   2.772   6.364   0.151  1.0380 -0.6442 -0.7185
 8342TIP3    H224991   2.668   6.387   0.044  0.5166 -0.4103 -0.1674
 8343TIP3   OH224992   6.200   5.251   0.502  0.5344  0.3252 -0.4783
 8343TIP3    H124993   6.195   5.259   0.597  0.2782  1.6380 -0.5789
 8343TIP3    H224994   6.122   5.202   0.477  1.0322 -0.7568  0.0481
 8344TIP3   OH224995   5.236   5.868   0.790 -0.7448 -0.1678  0.0982
 8344TIP3    H124996   5.214   5.925   0.863 -0.9410  1.6021 -1.2705
 8344TIP3    H224997   5.153   5.858   0.742 -1.0470 -2.7362  0.9743
 8345TIP3   OH224998   5.641   0.297   0.008 -0.3634 -0.3272  0.2205
 8345TIP3    H124999   5.659   0.214   0.053 -1.4304  0.2279  1.7248
 8345TIP3    H225000   5.702   0.359   0.047 -0.5730 -0.0748  0.1484
 8346TIP3   OH225001   6.540   0.235   5.230  0.6136  0.1991 -0.1680
 8346TIP3    H125002   6.455   0.278   5.229  1.8086  2.7345 -0.0932
 8346TIP3    H225003   6.523   0.148   5.194 -1.6521  1.3161 -2.0701
 8347TIP3   OH225004   6.879   2.440   5.491  0.0571  0.0001 -0.2732
 8347TIP3    H125005   6.931   2.521   5.493 -1.0494  0.7158  1.2885
 8347TIP3    H225006   6.888   2.404   5.580 -0.6987 -0.7743 -0.5010
 8348TIP3   OH225007   3.398   4.593   2.776 -0.3004 -0.2784  0.0027
 8348TIP3    H125008   3.433   4.669   2.730  1.5332 -1.4843 -0.7383
 8348TIP3    H225009   3.435   4.599   2.864  0.0269 -0.4088 -0.1226
 8349TIP3   OH225010   0.237   3.367   3.014 -0.1366 -0.2190  0.0350
 8349TIP3    H125011   0.249   3.358   2.920  2.3539 -0.7931  0.3399
 8349TIP3    H225012   0.250   3.461   3.031  0.3452 -0.2525 -0.1161
 8350TIP3   OH225013   6.080   1.270   2.432  0.2979  0.3108 -0.0075
 8350TIP3    H125014   6.062   1.356   2.394 -0.5680  0.8276  1.5151
 8350TIP3    H225015   6.175   1.264   2.436  0.4109  0.4259 -1.7830
 8351TIP3   OH225016   6.316   1.472   2.913 -0.0591  0.0567  0.4020
 8351TIP3    H125017   6.374   1.540   2.877  0.5797  0.1207  1.4984
 8351TIP3    H225018   6.374   1.397   2.927 -0.4603 -0.2198  0.5750
 8352TIP3   OH225019   6.262   0.693   5.662 -0.1833 -0.0083  0.7139
 8352TIP3    H125020   6.233   0.668   5.750 -2.8914 -0.5818 -0.2492
 8352TIP3    H225021   6.206   0.642   5.603  1.4464  0.4818 -1.3752
 8353TIP3   OH225022   2.400   3.417   3.883 -0.4621  0.1046 -0.1223
 8353TIP3    H125023   2.470   3.400   3.946  0.7886 -0.5823 -1.6085
 8353TIP3    H225024   2.405   3.343   3.823 -3.0063 -0.3539  0.1449
 8354TIP3   OH225025   6.301   0.990   3.114 -0.4209  0.3817  0.4925
 8354TIP3    H125026   6.241   1.044   3.165  0.8290  3.2393 -0.8240
 8354TIP3    H225027   6.388   1.027   3.133  0.5784 -1.5705 -0.0567
 8355TIP3   OH225028   0.122   1.967   3.333  0.2762 -0.8934 -0.0352
 8355TIP3    H125029   0.054   1.918   3.288 -0.0318 -0.9454  0.4757
 8355TIP3    H225030   0.128   1.927   3.420  0.7333 -0.6820  0.0369
 8356TIP3   OH225031   3.678   2.640   4.508 -0.4027 -0.8749  0.2366
 8356TIP3    H125032   3.756   2.624   4.562  0.0144 -0.1313 -0.1326
 8356TIP3    H225033   3.685   2.731   4.482 -2.0008 -0.4353  1.1515
 8357TIP3   OH225034   0.125   0.157   2.992  0.6854  0.0583  0.1547
 8357TIP3    H125035   0.132   0.095   3.064 -0.1386  0.4305  0.5592
 8357TIP3    H225036   0.087   0.105   2.920  1.3388 -0.2648  0.0322
 8358TIP3   OH225037   0.827   2.842   1.886  0.6056 -0.6322  0.2715
 8358TIP3    H125038   0.906   2.878   1.926 -0.8282  1.7908  1.0765
 8358TIP3    H225039   0.768   2.825   1.959  0.0128 -1.5195 -0.3927
 8359TIP3   OH225040   1.605   5.037   1.030 -0.2882  0.2190 -0.5143
 8359TIP3    H125041   1.530   5.088   1.000  0.6527  1.1731 -1.3190
 8359TIP3    H225042   1.597   4.953   0.985 -0.8592  0.3250 -0.6141
 8360TIP3   OH225043   4.280   0.671   3.645 -0.3384 -0.3592  0.6061
 8360TIP3    H125044   4.354   0.635   3.596 -0.3111  0.7335 -0.2009
 8360TIP3    H225045   4.240   0.595   3.687 -0.5642 -1.4100 -1.3938
 8361TIP3   OH225046   5.908   0.095   0.998  0.4723  0.6991 -0.2865
 8361TIP3    H125047   5.936   0.167   1.054 -2.5622  1.0463  0.9521
 8361TIP3    H225048   5.910   0.018   1.055 -0.8312  0.7049 -0.2139
 8362TIP3   OH225049   7.179   2.118   0.355  0.2187 -0.7380  0.5356
 8362TIP3    H125050   7.226   2.037   0.335  0.3275 -0.5630  0.0756
 8362TIP3    H225051   7.209   2.180   0.289  1.5419  0.2270  1.9658
 8363TIP3   OH225052   4.558   6.758   1.432  0.0701  0.2258 -0.3989
 8363TIP3    H125053   4.538   6.709   1.352  0.0869  0.5904 -0.6307
 8363TIP3    H225054   4.498   6.832   1.430 -0.9732 -0.5656  0.7010
 8364TIP3   OH225055  -0.006   3.195   0.987 -0.6529 -0.2427  0.3715
 8364TIP3    H125056   0.082   3.190   1.023 -0.9936  1.5802  1.6301
 8364TIP3    H225057  -0.002   3.268   0.925 -1.5422  0.7329  1.4112
 8365TIP3   OH225058   4.201   1.186   2.019  0.2946  0.2089 -0.0044
 8365TIP3    H125059   4.249   1.268   2.008  1.4163 -0.4290  0.0640
 8365TIP3    H225060   4.180   1.158   1.930 -0.1247  0.5722 -0.0274
 8366TIP3   OH225061   2.154   3.284   1.536 -0.7161  0.2862  0.8786
 8366TIP3    H125062   2.141   3.373   1.567 -0.0703  1.6331 -2.3661
 8366TIP3    H225063   2.198   3.239   1.608 -0.2658  2.8087  2.2715
 8367TIP3   OH225064   0.158   5.618   2.625 -0.7896 -0.3661  0.2077
 8367TIP3    H125065   0.240   5.625   2.674 -0.6927  2.7219 -0.1984
 8367TIP3    H225066   0.090   5.645   2.687 -0.7399  2.9592 -1.0056
 8368TIP3   OH225067   2.844   0.481   3.193  0.0746 -0.3707  0.2021
 8368TIP3    H125068   2.855   0.472   3.098 -0.8965 -2.1269  0.2012
 8368TIP3    H225069   2.867   0.395   3.227 -1.9501 -0.5408  1.2862
 8369TIP3   OH225070   3.293   6.367   3.605  0.3302  0.1344  0.2089
 8369TIP3    H125071   3.352   6.321   3.664 -2.0876 -0.6538  2.1796
 8369TIP3    H225072   3.213   6.314   3.604 -0.7814  1.7053 -1.4513
 8370TIP3   OH225073   2.908   5.285   5.359  0.1840  0.2488 -0.2840
 8370TIP3    H125074   2.887   5.220   5.292  2.5054 -0.4248 -0.4575
 8370TIP3    H225075   2.824   5.324   5.383 -1.0707 -1.6635 -1.3590
 8371TIP3   OH225076   3.978   5.476   0.506  0.1411  0.1324  0.5105
 8371TIP3    H125077   3.919   5.524   0.448 -0.0334  2.1553  2.2331
 8371TIP3    H225078   3.921   5.426   0.563  0.1284  0.7914  1.0937
 8372TIP3   OH225079   1.822   6.452   4.351 -0.2546 -0.3650 -0.3975
 8372TIP3    H125080   1.794   6.459   4.442 -1.0658 -0.0088 -0.6597
 8372TIP3    H225081   1.768   6.516   4.305  3.2214  2.8394 -0.4762
 8373TIP3   OH225082   0.568   4.392   1.654 -0.3935 -0.0561  0.2986
 8373TIP3    H125083   0.569   4.325   1.722 -0.8612 -1.7641 -1.2861
 8373TIP3    H225084   0.476   4.419   1.648 -0.4080 -0.1378  0.1422
 8374TIP3   OH225085   2.848   3.571   2.568 -0.1948  0.1407 -0.6478
 8374TIP3    H125086   2.914   3.574   2.638 -0.5620 -1.3975 -0.1997
 8374TIP3    H225087   2.899   3.578   2.487  0.4770 -0.3462 -0.2853
 8375TIP3   OH225088   3.083   5.355   0.534 -0.1419  0.3049  0.2570
 8375TIP3    H125089   3.004   5.322   0.490  0.0219  0.6550 -0.3100
 8375TIP3    H225090   3.053   5.430   0.584 -0.0271  0.9462 -0.6190
 8376TIP3   OH225091   5.395   5.705   5.695  0.2079 -0.0433 -0.0530
 8376TIP3    H125092   5.312   5.725   5.651 -0.4707 -1.0998  0.6921
 8376TIP3    H225093   5.423   5.622   5.657  0.4262 -0.1741  0.3862
 8377TIP3   OH225094   7.057   1.357   1.725 -0.0268 -0.1710 -0.3455
 8377TIP3    H125095   7.058   1.443   1.685 -0.3446 -0.1063 -0.2189
 8377TIP3    H225096   7.094   1.299   1.659  0.3622  0.0919 -0.3604
 8378TIP3   OH225097   6.226   5.465   5.656  0.4806 -0.5821 -0.0090
 8378TIP3    H125098   6.210   5.513   5.737  0.3534 -0.0118 -0.3704
 8378TIP3    H225099   6.205   5.527   5.586  0.5331 -1.0855 -0.4816
 8379TIP3   OH225100   1.518   5.189   3.345  0.0753  0.6748  0.5113
 8379TIP3    H125101   1.424   5.183   3.326  0.1388  0.8050  0.1565
 8379TIP3    H225102   1.560   5.156   3.266  0.3163 -0.0973  0.9557
 8380TIP3   OH225103   4.339   4.242   2.196  0.5018  0.1970  0.1222
 8380TIP3    H125104   4.260   4.196   2.224  1.1254  0.1932  1.9435
 8380TIP3    H225105   4.319   4.335   2.210  0.0220  0.3971 -1.5794
 8381TIP3   OH225106   6.033   6.617   1.332  0.5161  0.3087  0.8972
 8381TIP3    H125107   6.050   6.710   1.319 -1.0668  0.4240 -0.8132
 8381TIP3    H225108   5.998   6.611   1.421  1.7144  1.1351  1.4619
 8382TIP3   OH225109   4.960   2.639   0.435 -0.2751  0.4346  0.3909
 8382TIP3    H125110   4.989   2.712   0.381 -1.3042  1.3499  1.0291
 8382TIP3    H225111   5.028   2.629   0.502  0.8293 -0.4793 -0.8062
 8383TIP3   OH225112   3.068   1.988   0.193 -0.6278  0.3010  0.1550
 8383TIP3    H125113   3.136   1.964   0.130  0.3994 -1.0039  1.7024
 8383TIP3    H225114   3.097   2.074   0.227  1.0602 -0.8165  1.7661
 8384TIP3   OH225115   0.975   6.137   2.080 -0.1102 -0.0558  0.2655
 8384TIP3    H125116   1.013   6.197   2.017 -1.0947  0.2053 -0.0969
 8384TIP3    H225117   0.944   6.193   2.151  0.6210 -0.3108  0.8008
 8385TIP3   OH225118   1.503   0.903   1.686 -0.1998  0.3012  0.3492
 8385TIP3    H125119   1.595   0.881   1.673 -0.4566 -0.5123 -0.2060
 8385TIP3    H225120   1.460   0.872   1.606 -1.3169 -1.5490  1.5793
 8386TIP3   OH225121   3.056   3.874   3.087  0.6359  0.1476 -0.3051
 8386TIP3    H125122   3.126   3.917   3.137  0.3074  2.2694 -1.5544
 8386TIP3    H225123   3.038   3.934   3.014 -1.6201 -0.9480 -0.7348
 8387TIP3   OH225124   0.497   3.830   1.292  0.2917  0.3606  0.2925
 8387TIP3    H125125   0.498   3.870   1.206 -0.8138 -0.6272 -0.2165
 8387TIP3    H225126   0.418   3.864   1.334 -0.8344 -1.3890 -0.2606
 8388TIP3   OH225127   5.262   5.115   1.091  0.5667 -0.8308 -0.3820
 8388TIP3    H125128   5.281   5.153   1.177  0.4923  1.1426 -1.1849
 8388TIP3    H225129   5.346   5.083   1.059  1.1488  0.9256 -0.6997
 8389TIP3   OH225130   6.090   1.878   2.217  0.4283 -0.0743  0.5447
 8389TIP3    H125131   6.006   1.833   2.233 -0.1692  0.0808 -1.7679
 8389TIP3    H225132   6.145   1.811   2.176 -0.0126  0.8364 -1.6873
 8390TIP3   OH225133   3.640   2.851   2.257  0.5904 -0.3621  0.3013
 8390TIP3    H125134   3.719   2.838   2.310 -0.0568 -1.3287  1.0746
 8390TIP3    H225135   3.662   2.921   2.197  2.1457 -0.8043  0.3173
 8391TIP3   OH225136   5.108   3.632   0.965 -0.1411 -0.1624 -0.5460
 8391TIP3    H125137   5.112   3.633   1.060  0.0200  0.5676 -0.5482
 8391TIP3    H225138   5.131   3.543   0.940  1.6742  0.1060  0.0360
 8392TIP3   OH225139   6.991   4.955   5.440  0.3395  0.2289  0.2283
 8392TIP3    H125140   7.070   4.957   5.495  0.9394  1.2953 -0.6260
 8392TIP3    H225141   6.931   5.016   5.483  0.3649  0.1913  0.3182
 8393TIP3   OH225142   4.457   5.056   2.633 -0.1531  0.2149  0.1701
 8393TIP3    H125143   4.464   5.139   2.680  0.7808 -0.4528  1.2680
 8393TIP3    H225144   4.547   5.023   2.630 -0.5367 -0.8471 -0.0517
 8394TIP3   OH225145   2.980   4.341   3.899 -0.3270 -0.2176  0.3194
 8394TIP3    H125146   2.905   4.397   3.880 -0.3033 -0.0621  0.6802
 8394TIP3    H225147   3.012   4.371   3.984 -0.3560 -0.8266  0.5463
 8395TIP3   OH225148   3.985   0.292   3.923  0.3186 -0.1392 -0.2401
 8395TIP3    H125149   4.005   0.293   4.016  3.4992  0.4046 -0.8299
 8395TIP3    H225150   3.951   0.203   3.907 -1.5083  0.1540  1.5673
 8396TIP3   OH225151   7.023   3.340   2.406  0.1479 -0.6264  0.0480
 8396TIP3    H125152   6.957   3.389   2.455  1.1752  0.7149  0.1626
 8396TIP3    H225153   6.993   3.343   2.315  0.4603  0.7190 -0.0279
 8397TIP3   OH225154   1.880   6.262   4.993 -0.2764 -0.4331 -0.2677
 8397TIP3    H125155   1.902   6.287   4.904  1.9266 -1.3843 -0.0473
 8397TIP3    H225156   1.786   6.244   4.990 -1.3759  4.2259 -1.2098
 8398TIP3   OH225157   0.579   1.866   3.780 -0.6385 -0.1036  0.0223
 8398TIP3    H125158   0.540   1.953   3.784  1.0470  0.6793  0.0380
 8398TIP3    H225159   0.630   1.858   3.861 -0.2840 -0.8623 -0.2620
 8399TIP3   OH225160   0.882   1.426   1.974 -0.3348  0.2316 -0.0395
 8399TIP3    H125161   0.928   1.433   1.890 -0.9426  1.9574 -0.2875
 8399TIP3    H225162   0.821   1.353   1.963  2.2007 -2.0672  0.2812
 8400TIP3   OH225163   6.018   3.733   2.407 -0.1050 -0.2400 -0.9772
 8400TIP3    H125164   6.095   3.790   2.415  1.2562 -1.9898 -1.0151
 8400TIP3    H225165   6.005   3.724   2.312  0.7541 -1.3056 -1.0183
 8401TIP3   OH225166   3.435   5.021   2.153 -0.4568 -0.5519 -0.5962
 8401TIP3    H125167   3.497   4.978   2.212 -1.3129 -0.6282  0.2881
 8401TIP3    H225168   3.365   4.956   2.142 -1.8306  0.6142  0.8475
 8402TIP3   OH225169   3.541   5.108   2.479  0.4868 -0.3604  0.1045
 8402TIP3    H125170   3.594   5.188   2.485  0.4150 -0.4154  2.0809
 8402TIP3    H225171   3.457   5.138   2.443 -0.1594  0.8529  2.3971
 8403TIP3   OH225172   3.388   2.673   1.658  0.6316  0.4951 -0.4159
 8403TIP3    H125173   3.387   2.581   1.634  1.5911  0.4664 -0.3535
 8403TIP3    H225174   3.337   2.717   1.589 -1.2112 -0.2588  0.3918
 8404TIP3   OH225175   5.922   1.696   3.423 -0.0325  0.0661 -0.0436
 8404TIP3    H125176   5.852   1.745   3.380 -0.5267 -0.7246 -0.1444
 8404TIP3    H225177   5.997   1.757   3.422 -0.4863  0.6313 -0.6153
 8405TIP3   OH225178   6.697   1.193   5.699 -0.7557  0.3260 -0.0525
 8405TIP3    H125179   6.671   1.121   5.642  0.0355  0.9430 -1.2182
 8405TIP3    H225180   6.710   1.268   5.640 -0.5149  1.1440  1.0015
 8406TIP3   OH225181   4.232   3.508   0.286  0.3941 -0.3296 -0.5217
 8406TIP3    H125182   4.151   3.487   0.333  0.3564 -0.4551 -0.6434
 8406TIP3    H225183   4.265   3.424   0.256  0.5393 -0.2718 -0.5232
 8407TIP3   OH225184   6.914   2.242   5.295  0.6586 -0.0905 -0.0289
 8407TIP3    H125185   6.866   2.295   5.232  1.6863  1.7500  0.6484
 8407TIP3    H225186   6.926   2.299   5.371 -0.5307 -2.2213  1.8879
 8408TIP3   OH225187   1.561   5.979   0.418 -0.0127 -0.2946  0.4722
 8408TIP3    H125188   1.501   6.026   0.475  0.8363  0.8505  0.4598
 8408TIP3    H225189   1.646   5.986   0.461  0.0404 -2.4013  0.7881
 8409TIP3   OH225190   6.330   2.013   3.569 -0.4450  0.2174  0.4530
 8409TIP3    H125191   6.310   2.103   3.543 -0.5235 -0.7369 -3.4631
 8409TIP3    H225192   6.247   1.966   3.558 -0.6585 -0.2665  3.3918
 8410TIP3   OH225193   0.710   2.847   0.814  0.3067  0.1610 -0.4594
 8410TIP3    H125194   0.804   2.837   0.832  0.3301  0.2028 -0.5563
 8410TIP3    H225195   0.675   2.759   0.820  0.2862  0.1969 -0.0518
 8411TIP3   OH225196   2.773   3.201   1.974  0.5730  0.5315 -0.0629
 8411TIP3    H125197   2.855   3.185   2.020  1.0732 -0.0889 -1.1422
 8411TIP3    H225198   2.793   3.183   1.882 -1.3051 -1.7537 -0.1004
 8412TIP3   OH225199   0.668   1.906   3.355 -0.3985  0.3103 -0.0378
 8412TIP3    H125200   0.655   1.813   3.371  0.6822 -0.0855 -1.2844
 8412TIP3    H225201   0.580   1.943   3.356 -0.7484 -0.4355  1.9052
 8413TIP3   OH225202   5.075   2.340   4.823 -0.1744  0.4083 -0.3950
 8413TIP3    H125203   5.038   2.360   4.909  1.6330  0.3444  0.4516
 8413TIP3    H225204   5.004   2.356   4.761 -2.2123 -1.6839  1.2730
 8414TIP3   OH225205   5.378   3.709   5.626 -0.3808 -0.3742  0.5895
 8414TIP3    H125206   5.288   3.726   5.597 -0.1329  1.1844  0.6567
 8414TIP3    H225207   5.369   3.641   5.693 -1.2722 -1.8161 -0.8868
 8415TIP3   OH225208   2.025   0.974   4.638 -0.0987  0.6590 -0.2652
 8415TIP3    H125209   2.092   1.038   4.661 -0.9959  1.2774  0.7240
 8415TIP3    H225210   1.971   0.966   4.717 -1.6082  0.7250 -1.2415
 8416TIP3   OH225211   2.819   0.514   2.689 -0.5052  0.3593 -0.4364
 8416TIP3    H125212   2.824   0.458   2.611 -1.1096  0.1804 -0.3530
 8416TIP3    H225213   2.753   0.580   2.666  0.5569  1.3426 -0.7200
 8417TIP3   OH225214   2.089   4.805   4.138  0.1349  0.1025 -0.1761
 8417TIP3    H125215   2.105   4.862   4.063  1.7319 -0.5991 -0.4244
 8417TIP3    H225216   2.126   4.852   4.213  0.2688 -0.0270 -0.1594
 8418TIP3   OH225217   5.270   5.975   5.736  0.1744  0.2687  0.2329
 8418TIP3    H125218   5.278   5.915   5.661 -2.5576 -0.1527  0.1732
 8418TIP3    H225219   5.201   5.935   5.790  0.0224  2.1062  1.4562
 8419TIP3   OH225220   4.191   0.495   3.303  0.0386 -0.0781  0.0734
 8419TIP3    H125221   4.186   0.401   3.324 -0.5796 -0.6488 -2.3364
 8419TIP3    H225222   4.266   0.501   3.244 -1.0048  0.6269 -1.2115
 8420TIP3   OH225223   4.728   3.429   2.514  0.6175  0.0665 -0.1741
 8420TIP3    H125224   4.808   3.391   2.550  0.5622  0.9265  0.8998
 8420TIP3    H225225   4.659   3.370   2.541  0.8084 -0.3300 -0.5454
 8421TIP3   OH225226   0.378   1.277   5.473 -0.2213  0.3620  0.0562
 8421TIP3    H125227   0.436   1.284   5.549 -1.0563  1.5650  0.6148
 8421TIP3    H225228   0.383   1.364   5.432 -1.8079  0.5877  0.2689
 8422TIP3   OH225229   1.761   6.279   1.692  0.0579  0.2076  0.2505
 8422TIP3    H125230   1.762   6.262   1.598 -1.6472  0.7428  0.0946
 8422TIP3    H225231   1.797   6.367   1.702  0.5793  0.0094  0.1519
 8423TIP3   OH225232   4.697   1.709   2.031 -0.3234 -0.1623  0.2152
 8423TIP3    H125233   4.660   1.624   2.008 -1.0272  0.4287 -0.9436
 8423TIP3    H225234   4.775   1.688   2.083 -1.3772 -1.4664  1.3588
 8424TIP3   OH225235   6.321   2.404   3.182 -0.3079  0.3043 -0.0586
 8424TIP3    H125236   6.376   2.327   3.169  2.3341  1.4883  2.7126
 8424TIP3    H225237   6.343   2.462   3.109  2.5224  0.8455  1.0874
 8425TIP3   OH225238   5.228   2.175   2.667 -0.2284  0.0615  0.3721
 8425TIP3    H125239   5.213   2.268   2.651 -0.6692 -0.1268 -0.3390
 8425TIP3    H225240   5.143   2.133   2.653  0.0291 -0.4860  0.4022
 8426TIP3   OH225241   5.898   5.060   1.654 -0.6478 -0.2653 -0.7717
 8426TIP3    H125242   5.942   4.976   1.646 -1.1301 -0.6643  0.4858
 8426TIP3    H225243   5.905   5.082   1.747 -0.2643  1.2356 -1.1212
 8427TIP3   OH225244   6.184   2.070   0.887 -0.3353  0.6720 -0.1173
 8427TIP3    H125245   6.112   2.051   0.946  0.0727 -0.5571  0.0167
 8427TIP3    H225246   6.233   1.987   0.881 -0.1033  0.8999 -1.8060
 8428TIP3   OH225247   2.008   5.926   5.821 -0.5120  0.6689  0.1182
 8428TIP3    H125248   1.985   5.833   5.817  2.1570 -0.0930  0.5618
 8428TIP3    H225249   1.928   5.969   5.851 -1.3462 -1.7206  1.6379
 8429TIP3   OH225250   0.131   3.596   4.508 -0.0146 -0.6386  0.0303
 8429TIP3    H125251   0.089   3.669   4.463  0.7027  0.6992  1.4273
 8429TIP3    H225252   0.133   3.622   4.600  3.1227 -0.9354  0.1802
 8430TIP3   OH225253   4.160   6.037   4.160  0.3655 -0.1588  0.0545
 8430TIP3    H125254   4.145   5.962   4.217 -1.3905 -0.2982 -0.5075
 8430TIP3    H225255   4.247   6.024   4.123  0.4076 -1.4894  0.5927
 8431TIP3   OH225256   6.392   2.690   5.268 -0.5164 -0.0221 -0.0088
 8431TIP3    H125257   6.439   2.643   5.199 -1.2326 -0.6576 -0.0781
 8431TIP3    H225258   6.447   2.766   5.288 -0.5168  0.4120 -1.5915
 8432TIP3   OH225259   0.453   4.379   3.721  0.1656 -0.3684 -0.4303
 8432TIP3    H125260   0.414   4.356   3.637  0.2900 -1.2286 -0.2640
 8432TIP3    H225261   0.391   4.346   3.786 -0.7121  1.6476 -0.1478
 8433TIP3   OH225262   1.451   6.358   0.719 -0.0567  0.1689 -0.3837
 8433TIP3    H125263   1.391   6.425   0.753  0.7834  1.1787 -0.8296
 8433TIP3    H225264   1.529   6.366   0.774 -0.1404 -0.8132 -0.1083
 8434TIP3   OH225265   2.990   6.218   3.663  0.0659 -0.0751 -0.3960
 8434TIP3    H125266   2.932   6.142   3.665  1.7643 -1.4225 -0.1145
 8434TIP3    H225267   2.951   6.280   3.724 -0.1759 -1.6335  1.0977
 8435TIP3   OH225268   2.075   6.707   5.789  0.1816  0.3386 -0.4810
 8435TIP3    H125269   2.137   6.777   5.770  0.8299 -0.4044 -1.1879
 8435TIP3    H225270   2.097   6.638   5.727 -0.7308 -0.3246 -0.0943
 8436TIP3   OH225271   4.259   4.182   2.512  0.8977 -0.1302 -0.4516
 8436TIP3    H125272   4.201   4.139   2.449  1.2903 -0.4172 -0.6250
 8436TIP3    H225273   4.216   4.265   2.531  0.1124 -0.5992 -0.1016
 8437TIP3   OH225274   3.064   5.956   0.306 -0.3858  0.5777  0.0276
 8437TIP3    H125275   3.064   5.942   0.401  1.3116  1.2818  0.1632
 8437TIP3    H225276   2.972   5.968   0.284 -1.1473 -2.4090  1.1282
 8438TIP3   OH225277   5.484   3.061   1.170 -0.0108 -0.1887  0.7770
 8438TIP3    H125278   5.438   3.124   1.115  1.0556 -1.3474 -1.5499
 8438TIP3    H225279   5.415   3.017   1.219 -0.9104  1.5394  1.1504
 8439TIP3   OH225280   0.811   6.466   5.324 -0.0886  0.3116 -0.0325
 8439TIP3    H125281   0.782   6.411   5.250  0.7312 -0.7048  0.3679
 8439TIP3    H225282   0.763   6.431   5.399  0.3550  0.2140  0.2049
 8440TIP3   OH225283   0.121   5.892   0.956  0.6070 -0.0953 -0.0641
 8440TIP3    H125284   0.147   5.968   1.008  0.1185  0.7755 -1.0366
 8440TIP3    H225285   0.121   5.819   1.018  0.3798  0.8297  1.0650
 8441TIP3   OH225286   7.189   3.718   3.759 -0.2296 -0.5479 -0.4086
 8441TIP3    H125287   7.200   3.714   3.663 -0.9144 -2.1883 -0.4429
 8441TIP3    H225288   7.245   3.791   3.785  1.2764 -1.0868 -1.8903
 8442TIP3   OH225289   1.506   2.902   4.268 -0.3313 -0.0259  0.3571
 8442TIP3    H125290   1.561   2.970   4.307  0.2080  0.4872 -1.2184
 8442TIP3    H225291   1.483   2.845   4.341  1.3484  0.3967  1.2767
 8443TIP3   OH225292   4.254   1.543   5.554 -0.3681 -0.2601  0.5927
 8443TIP3    H125293   4.254   1.633   5.522  0.2438 -0.1740  0.8190
 8443TIP3    H225294   4.196   1.544   5.630  1.0739  0.3745  1.7346
 8444TIP3   OH225295   0.912   1.175   1.725 -0.6805 -0.5059  0.4166
 8444TIP3    H125296   0.943   1.139   1.642  0.7799 -0.1529  0.7803
 8444TIP3    H225297   0.817   1.168   1.720 -0.5860 -1.1584 -0.9778
 8445TIP3   OH225298   3.078   0.986   1.152  0.2930  0.3834  0.1330
 8445TIP3    H125299   3.078   1.072   1.109 -0.8468  1.9010  2.8896
 8445TIP3    H225300   3.115   0.927   1.087 -0.3296  2.6441 -2.4957
 8446TIP3   OH225301   2.581   3.412   1.953 -0.2194  0.5083  0.0719
 8446TIP3    H125302   2.571   3.396   2.047 -2.5447 -0.5558 -0.2917
 8446TIP3    H225303   2.669   3.380   1.933 -0.2667 -0.7328  1.6024
 8447TIP3   OH225304   6.916   4.009   4.960  0.8129 -0.0072  0.3652
 8447TIP3    H125305   6.985   4.072   4.979  0.8052  0.3950 -0.8858
 8447TIP3    H225306   6.927   3.987   4.868 -1.4909  1.0375 -0.2420
 8448TIP3   OH225307   0.947   5.224   0.943  0.3733  0.1071  0.6181
 8448TIP3    H125308   0.955   5.293   0.877  0.3554 -0.0415  0.4632
 8448TIP3    H225309   1.020   5.165   0.926  0.9287  0.5663  1.3174
 8449TIP3   OH225310   6.553   3.556   2.288  0.4304 -0.3278  0.4065
 8449TIP3    H125311   6.467   3.519   2.308 -0.3710  0.3219 -1.5871
 8449TIP3    H225312   6.608   3.480   2.268  0.1723 -0.7159  1.1792
 8450TIP3   OH225313   3.591   0.825   2.901  0.2831  0.1541  0.5800
 8450TIP3    H125314   3.513   0.769   2.905 -0.7820  1.4288 -1.0088
 8450TIP3    H225315   3.571   0.898   2.959  0.1731  0.5835  0.0182
 8451TIP3   OH225316   4.841   1.914   2.331  0.0897  0.1820 -0.3023
 8451TIP3    H125317   4.849   1.844   2.266 -1.2933  0.0141 -0.3238
 8451TIP3    H225318   4.875   1.992   2.286  0.3127 -0.1840 -0.7795
 8452TIP3   OH225319   0.581   3.361   4.901  0.0191 -0.1230 -0.1190
 8452TIP3    H125320   0.654   3.299   4.905 -0.5769 -0.7612  1.6444
 8452TIP3    H225321   0.621   3.446   4.921  0.7213  0.0276 -1.9065
 8453TIP3   OH225322   3.562   0.436   2.781  0.3424  0.0857 -0.1596
 8453TIP3    H125323   3.528   0.359   2.827  0.4862  0.5653  0.7597
 8453TIP3    H225324   3.657   0.420   2.775  0.5359  0.6752  1.0063
 8454TIP3   OH225325   3.698   2.694   5.827  0.0468 -0.0289  0.1878
 8454TIP3    H125326   3.604   2.704   5.843 -0.1508  0.4906 -1.2329
 8454TIP3    H225327   3.738   2.773   5.863 -0.1188  0.0150  0.2731
 8455TIP3   OH225328   4.471   4.029   5.188 -0.0770  0.0105 -0.2542
 8455TIP3    H125329   4.508   3.941   5.185 -1.3432 -0.6270  1.1303
 8455TIP3    H225330   4.399   4.027   5.125 -0.1656  0.0168 -0.1536
 8456TIP3   OH225331   1.825   5.502   5.480 -0.0280 -0.0318  0.2525
 8456TIP3    H125332   1.838   5.441   5.407  0.4824 -0.6779  0.8635
 8456TIP3    H225333   1.761   5.565   5.448  0.3249 -0.1924 -0.8217
 8457TIP3   OH225334   1.254   0.937   0.178 -0.2468 -0.1741 -0.8338
 8457TIP3    H125335   1.199   1.015   0.171  0.3504  0.4050  0.5046
 8457TIP3    H225336   1.253   0.915   0.271  2.1093  0.1557 -0.6509
 8458TIP3   OH225337   4.790   4.387   1.756 -0.0047  0.3813 -0.2114
 8458TIP3    H125338   4.874   4.432   1.756  0.9133 -1.2302  1.4427
 8458TIP3    H225339   4.806   4.306   1.707 -0.7457  0.3141 -0.3600
 8459TIP3   OH225340   4.864   5.481   0.565  0.1651  0.4185  0.2230
 8459TIP3    H125341   4.893   5.531   0.641 -0.9445 -0.2921  1.1333
 8459TIP3    H225342   4.796   5.535   0.524 -0.1629  0.2098  0.4929
 8460TIP3   OH225343   3.009   6.766   3.968  0.3689 -0.2681  0.1180
 8460TIP3    H125344   3.095   6.744   4.004  0.2347 -1.6236 -0.3218
 8460TIP3    H225345   3.001   6.861   3.980  1.6815 -0.2077  0.6701
 8461TIP3   OH225346   4.644   1.754   0.505 -0.4371  0.0923  0.2590
 8461TIP3    H125347   4.632   1.845   0.476 -2.6200  0.5794  2.3678
 8461TIP3    H225348   4.738   1.745   0.518 -0.3698  2.9703  2.5759
 8462TIP3   OH225349   3.596   4.834   5.796  0.3618  0.2990 -0.1407
 8462TIP3    H125350   3.631   4.910   5.751  0.2907  0.5593  0.2334
 8462TIP3    H225351   3.507   4.824   5.764  0.8246 -0.4778 -1.2384
 8463TIP3   OH225352   6.141   4.085   1.472 -0.3990  0.3470 -0.6523
 8463TIP3    H125353   6.089   4.160   1.444  0.9736  3.1139  3.2713
 8463TIP3    H225354   6.226   4.097   1.429  0.0011  1.4641  0.4026
 8464TIP3   OH225355   1.076   2.506   0.124  0.7943  0.5747 -0.1776
 8464TIP3    H125356   0.987   2.541   0.117 -0.2674 -2.1267 -1.6956
 8464TIP3    H225357   1.116   2.525   0.039 -0.0418 -2.2006 -1.3113
 8465TIP3   OH225358   6.331   3.734   1.394 -0.2169 -0.1131  0.3315
 8465TIP3    H125359   6.364   3.651   1.360 -1.0148  0.3930 -1.8281
 8465TIP3    H225360   6.238   3.719   1.408 -0.0037 -0.1433  1.8620
 8466TIP3   OH225361   6.442   5.441   1.559 -0.0347  0.1886 -0.2848
 8466TIP3    H125362   6.514   5.452   1.497  1.0184 -0.0729  0.8309
 8466TIP3    H225363   6.455   5.510   1.624 -0.1092 -0.5381  0.5375
 8467TIP3   OH225364   1.674   4.843   4.902  0.2808 -0.4209  0.0584
 8467TIP3    H125365   1.633   4.825   4.817 -1.2437  0.9638  0.4629
 8467TIP3    H225366   1.616   4.801   4.965  0.5646 -0.1104  0.5251
 8468TIP3   OH225367   1.307   6.586   0.809  0.3450  0.2395  0.5414
 8468TIP3    H125368   1.337   6.620   0.893  0.3437  0.6347  0.3859
 8468TIP3    H225369   1.217   6.557   0.826  0.4433  0.0566  0.7442
 8469TIP3   OH225370   2.769   2.411   3.904 -0.2595  0.5365  0.0678
 8469TIP3    H125371   2.834   2.467   3.863  0.8595 -1.8885 -1.7686
 8469TIP3    H225372   2.697   2.408   3.840  1.5234 -3.3195 -2.1581
 8470TIP3   OH225373   1.593   3.879   1.989 -0.1465  0.5118  0.0247
 8470TIP3    H125374   1.646   3.895   1.911  1.2837 -0.5409  0.7342
 8470TIP3    H225375   1.652   3.897   2.062 -1.0779  0.2665  0.8622
 8471TIP3   OH225376   3.396   2.351   0.285  0.4527 -0.9805  0.6859
 8471TIP3    H125377   3.335   2.414   0.247 -2.0682 -1.9397  2.7767
 8471TIP3    H225378   3.446   2.401   0.349 -1.9047 -1.0301  2.7267
 8472TIP3   OH225379   2.594   1.135   2.140 -0.4318  0.1133 -0.2051
 8472TIP3    H125380   2.654   1.185   2.195 -0.7274  0.2178  0.0215
 8472TIP3    H225381   2.512   1.183   2.143 -0.6575 -0.2665 -0.1577
 8473TIP3   OH225382   1.307   3.322   5.215 -0.3508 -0.5110 -0.2075
 8473TIP3    H125383   1.392   3.329   5.172 -0.3326  1.6622  0.0803
 8473TIP3    H225384   1.255   3.393   5.176 -2.3009 -2.2307 -0.9168
 8474TIP3   OH225385   6.507   1.118   1.802  0.2515 -0.8214  0.1074
 8474TIP3    H125386   6.576   1.179   1.829 -1.6492  1.8934 -0.7598
 8474TIP3    H225387   6.440   1.125   1.869 -0.0729 -1.9039 -0.0806
 8475TIP3   OH225388   3.616   2.508   3.930  0.2174  0.6251 -0.7167
 8475TIP3    H125389   3.604   2.462   4.013  0.5636  0.7348 -0.6062
 8475TIP3    H225390   3.613   2.601   3.953 -1.9058  0.7158 -1.1228
 8476TIP3   OH225391   3.379   5.821   5.101 -0.9355 -0.0741  0.7914
 8476TIP3    H125392   3.364   5.754   5.033 -0.2108  0.1387  0.4195
 8476TIP3    H225393   3.305   5.810   5.161 -1.4408 -0.4492  0.1160
 8477TIP3   OH225394   2.731   1.918   1.424 -0.1831  0.2967 -0.0146
 8477TIP3    H125395   2.653   1.971   1.444 -0.7895 -0.5720 -0.0499
 8477TIP3    H225396   2.739   1.922   1.329 -2.5439 -2.7840 -0.5033
 8478TIP3   OH225397   0.913   5.970   0.300 -0.9136  0.9759  0.0433
 8478TIP3    H125398   0.841   5.965   0.237 -0.9034 -3.8165  0.0759
 8478TIP3    H225399   0.992   5.961   0.247 -0.5366  2.0958  0.3801
 8479TIP3   OH225400   3.812   2.887   4.116  0.0221 -0.1507 -0.1389
 8479TIP3    H125401   3.896   2.846   4.095 -0.0551 -0.2290 -0.3030
 8479TIP3    H225402   3.799   2.952   4.046  0.0545  0.0204  0.0133
 8480TIP3   OH225403   5.157   1.831   4.452  0.5176  0.5240 -0.7295
 8480TIP3    H125404   5.249   1.853   4.437  0.4321  0.3247 -1.6378
 8480TIP3    H225405   5.149   1.820   4.547  1.7517 -0.9127 -0.7591
 8481TIP3   OH225406   3.033   3.508   2.782 -0.3882  0.1860 -0.1740
 8481TIP3    H125407   3.077   3.580   2.829 -2.3207  1.3068  0.0480
 8481TIP3    H225408   3.047   3.431   2.837 -0.4099  0.9386  0.9183
 8482TIP3   OH225409   1.126   2.262   0.692  0.8068 -0.3793  0.0012
 8482TIP3    H125410   1.085   2.288   0.609  1.0341 -1.8039 -0.5752
 8482TIP3    H225411   1.052   2.249   0.752  0.6944  2.4394  0.6407
 8483TIP3   OH225412   5.633   6.068   5.124  0.0766 -0.6791 -0.2473
 8483TIP3    H125413   5.564   6.006   5.097 -0.7619 -1.0227  2.3371
 8483TIP3    H225414   5.714   6.025   5.099 -0.5822 -1.6149 -0.8702
 8484TIP3   OH225415   6.867   0.667   3.575  0.4680  0.0886  0.1740
 8484TIP3    H125416   6.922   0.601   3.532 -0.8134  0.1926 -1.7614
 8484TIP3    H225417   6.928   0.718   3.628  1.8892 -1.0664 -0.2659
 8485TIP3   OH225418   0.506   5.057   3.165  0.3731  0.0943  0.1784
 8485TIP3    H125419   0.513   5.116   3.240 -1.2009 -0.5962  0.9073
 8485TIP3    H225420   0.596   5.052   3.130  1.6457 -1.2075  3.2604
 8486TIP3   OH225421   6.621   2.822   1.053  0.5239 -0.6070 -0.5202
 8486TIP3    H125422   6.553   2.860   1.108  2.1388  0.3217  0.9292
 8486TIP3    H225423   6.602   2.728   1.052 -0.4065 -0.4449  0.3680
 8487TIP3   OH225424   3.089   0.278   2.374  0.1566 -0.0598 -0.7528
 8487TIP3    H125425   3.099   0.186   2.347  0.3973  0.0174 -0.9339
 8487TIP3    H225426   3.168   0.296   2.424  0.1057  0.0467 -0.7116
 8488TIP3   OH225427   1.912   4.797   3.763  0.2085  0.7200 -0.2251
 8488TIP3    H125428   1.818   4.792   3.745  0.5203  0.8987 -2.0264
 8488TIP3    H225429   1.925   4.884   3.801 -0.4513  0.3648  0.8797
 8489TIP3   OH225430   6.803   6.431   3.062 -0.1862  0.3089  0.1170
 8489TIP3    H125431   6.754   6.470   2.990 -0.9834 -0.6735  0.0919
 8489TIP3    H225432   6.892   6.464   3.052 -0.3647  0.4646 -1.1136
 8490TIP3   OH225433   6.439   2.205   4.640 -0.3955  0.0734 -0.4041
 8490TIP3    H125434   6.381   2.200   4.716 -0.9877 -0.5368 -0.8796
 8490TIP3    H225435   6.515   2.152   4.664  0.5918  1.9203  0.7242
 8491TIP3   OH225436   4.594   1.094   3.049  0.0209 -0.3348 -0.1282
 8491TIP3    H125437   4.550   1.009   3.051  1.7495 -1.2490  0.7797
 8491TIP3    H225438   4.597   1.123   3.140 -0.6388  0.7731 -0.4347
 8492TIP3   OH225439   5.099   6.366   5.687 -0.2417  0.1420 -0.0090
 8492TIP3    H125440   5.008   6.335   5.685 -0.4517  0.7729 -0.9424
 8492TIP3    H225441   5.122   6.380   5.595  0.2275  1.6181  0.2988
 8493TIP3   OH225442   1.290   2.525   1.746 -0.3645 -0.0508  0.1402
 8493TIP3    H125443   1.197   2.509   1.730 -0.4547 -1.7250  2.0285
 8493TIP3    H225444   1.328   2.438   1.755  1.7446  0.5267 -2.1032
 8494TIP3   OH225445   4.684   4.361   2.674  0.2562 -0.3206  0.1048
 8494TIP3    H125446   4.767   4.399   2.644 -1.3439  2.9733 -0.6419
 8494TIP3    H225447   4.709   4.297   2.741  3.4022  0.2123 -0.4345
 8495TIP3   OH225448   5.947   0.207   3.655 -0.0472  0.3552  0.4384
 8495TIP3    H125449   5.860   0.224   3.620  0.0583  0.7110  0.3419
 8495TIP3    H225450   5.941   0.120   3.695  0.1886 -0.7356 -1.6859
 8496TIP3   OH225451   2.718   4.239   4.046  0.2125  0.4421 -0.4030
 8496TIP3    H125452   2.785   4.206   3.986  0.7488  1.1448 -0.2046
 8496TIP3    H225453   2.767   4.278   4.118 -0.4106  0.7725 -0.1481
 8497TIP3   OH225454   4.944   0.340   2.094  0.7274  0.1497  0.2947
 8497TIP3    H125455   4.942   0.335   2.189  2.5192 -0.9479  0.3283
 8497TIP3    H225456   4.976   0.254   2.066 -0.4964  0.1697 -1.3588
 8498TIP3   OH225457   4.420   4.046   1.103 -0.4513 -0.7602 -0.1761
 8498TIP3    H125458   4.421   3.950   1.105 -0.7493 -0.9107 -2.8269
 8498TIP3    H225459   4.361   4.067   1.030 -0.5134  1.4551  0.4467
 8499TIP3   OH225460   5.714   5.273   1.624 -0.9359  0.2560  0.7758
 8499TIP3    H125461   5.659   5.237   1.555  0.2486  0.3722 -0.2584
 8499TIP3    H225462   5.784   5.208   1.634 -1.2369  0.0944  2.0917
 8500TIP3   OH225463   6.225   3.855   3.162 -0.0950  0.3128  0.1084
 8500TIP3    H125464   6.259   3.790   3.101  0.2759  0.1885  0.4443
 8500TIP3    H225465   6.289   3.858   3.232  0.7422  2.1730 -0.6432
 8501TIP3   OH225466   0.684   3.417   0.594  0.3532  0.4833  0.0404
 8501TIP3    H125467   0.680   3.511   0.579  1.1698  0.4358 -0.5273
 8501TIP3    H225468   0.596   3.394   0.625  0.2810  1.4941  0.6337
 8502TIP3   OH225469   3.949   5.607   0.775  0.4561  0.2341 -0.5412
 8502TIP3    H125470   3.971   5.699   0.785  0.3991  0.4296 -1.9393
 8502TIP3    H225471   4.020   5.571   0.722 -0.7364  0.0662 -2.1037
 8503TIP3   OH225472   1.736   4.458   2.134 -0.4130  0.8220  0.0263
 8503TIP3    H125473   1.806   4.523   2.137 -1.2940  1.8154 -0.4090
 8503TIP3    H225474   1.709   4.456   2.042  0.4554 -1.1178 -0.2404
 8504TIP3   OH225475   0.739   1.374   3.596  0.0153 -0.2190  0.1217
 8504TIP3    H125476   0.723   1.407   3.685 -3.2855 -0.5118 -0.2314
 8504TIP3    H225477   0.803   1.304   3.607  0.1564  0.1656  2.1689
 8505TIP3   OH225478   3.462   6.722   0.211 -0.0645 -0.3497 -0.0569
 8505TIP3    H125479   3.418   6.640   0.188  1.5771 -0.8254 -1.7678
 8505TIP3    H225480   3.521   6.698   0.283 -1.6960  0.0457  1.4784
 8506TIP3   OH225481   6.962   4.424   4.939  0.5995 -0.1086 -0.1001
 8506TIP3    H125482   6.992   4.496   4.995  0.6876 -1.3426  1.5043
 8506TIP3    H225483   6.892   4.463   4.886  1.1100  1.3261  0.2300
 8507TIP3   OH225484   0.367   0.423   5.229  0.1496 -0.2017  0.2553
 8507TIP3    H125485   0.282   0.448   5.194  1.3189  2.6698 -0.8571
 8507TIP3    H225486   0.386   0.490   5.295  1.6227 -0.6325  0.2989
 8508TIP3   OH225487   4.077   0.762   2.085 -0.1641  0.3790 -0.0742
 8508TIP3    H125488   4.032   0.777   2.168  1.4439  0.9846  0.7175
 8508TIP3    H225489   4.164   0.799   2.098  0.7694 -1.2682 -1.3820
 8509TIP3   OH225490   1.580   1.996   4.631 -0.1550  0.1317 -0.4719
 8509TIP3    H125491   1.514   2.013   4.565 -1.1623 -1.5248  0.0692
 8509TIP3    H225492   1.589   2.079   4.678 -1.5196  0.5102 -0.8478
 8510TIP3   OH225493   1.167   3.837   2.601 -0.3552  0.7176 -0.3682
 8510TIP3    H125494   1.254   3.843   2.563 -0.9422  0.9716 -1.7295
 8510TIP3    H225495   1.109   3.874   2.535 -1.4224  1.2770  0.8253
 8511TIP3   OH225496   1.530   1.334   2.462  0.4031 -0.1530 -0.0705
 8511TIP3    H125497   1.579   1.365   2.386  0.8312  0.7388  0.5518
 8511TIP3    H225498   1.594   1.282   2.511 -0.2796 -1.9771 -1.0489
 8512TIP3   OH225499   6.054   6.096   5.174 -0.1370  0.2340  0.0951
 8512TIP3    H125500   6.120   6.133   5.115 -2.6058  1.3099 -2.2462
 8512TIP3    H225501   6.059   6.149   5.253  0.1147  2.0163 -1.0572
 8513TIP3   OH225502   1.785   2.161   0.652 -0.5682  0.4699 -0.0593
 8513TIP3    H125503   1.847   2.118   0.593 -0.0103 -0.1114  0.9195
 8513TIP3    H225504   1.723   2.092   0.674 -1.4218  0.9720 -0.8000
 8514TIP3   OH225505   5.782   4.541   1.501 -0.0828 -0.3252 -0.1369
 8514TIP3    H125506   5.739   4.563   1.418  0.3520 -1.7941 -0.7834
 8514TIP3    H225507   5.722   4.480   1.543  0.0447 -0.1596  0.2878
 8515TIP3   OH225508   5.113   2.009   1.853  0.3158 -0.2191  0.2246
 8515TIP3    H125509   5.055   1.936   1.875  0.5300 -0.5375 -0.2564
 8515TIP3    H225510   5.174   2.013   1.927  0.0395 -0.2543  0.4568
 8516TIP3   OH225511   4.477   2.437   3.410  0.0619 -0.6164  0.0002
 8516TIP3    H125512   4.438   2.415   3.495 -1.5560 -0.3894 -0.6531
 8516TIP3    H225513   4.487   2.352   3.366 -2.3186 -0.5308 -0.8841
 8517TIP3   OH225514   4.953   5.861   1.599  0.1723 -0.6220 -0.2182
 8517TIP3    H125515   4.947   5.849   1.504  0.0768 -2.4530 -0.0096
 8517TIP3    H225516   4.863   5.876   1.627  0.1861 -0.1922 -0.3909
 8518TIP3   OH225517   2.609   0.409   1.420  0.5179 -0.4440 -0.0774
 8518TIP3    H125518   2.692   0.369   1.394  0.2770 -1.1387  0.1947
 8518TIP3    H225519   2.620   0.503   1.402  0.0272 -0.9522 -3.5304
 8519TIP3   OH225520   5.629   5.383   4.233 -0.0716 -0.3337  0.0919
 8519TIP3    H125521   5.622   5.316   4.165  1.1015 -0.4079  0.0231
 8519TIP3    H225522   5.664   5.336   4.309  0.1490  0.0774  0.2459
 8520TIP3   OH225523   1.869   1.222   5.256  0.1633  0.1131  0.1992
 8520TIP3    H125524   1.925   1.216   5.333 -1.3334 -0.5258  1.2872
 8520TIP3    H225525   1.829   1.309   5.262 -1.0502 -0.4607  0.9895
 8521TIP3   OH225526   5.872   6.700   2.433  0.0256 -0.2013 -0.0732
 8521TIP3    H125527   5.814   6.623   2.439 -0.7434  0.2581 -1.3036
 8521TIP3    H225528   5.869   6.738   2.520 -0.1010 -1.1953  0.3777
 8522TIP3   OH225529   1.362   2.247   3.913 -0.6048  0.3562 -0.5148
 8522TIP3    H125530   1.405   2.282   3.991  1.5584 -1.0959 -0.9341
 8522TIP3    H225531   1.272   2.232   3.939 -0.0896  0.4976  1.5206
 8523TIP3   OH225532   0.613   2.090   4.486  0.1506 -0.8225 -0.2439
 8523TIP3    H125533   0.519   2.108   4.491  0.0310 -0.9269 -1.8147
 8523TIP3    H225534   0.621   1.997   4.505  0.0517 -0.6318  0.8119
 8524TIP3   OH225535   4.139   3.086   5.363 -0.4724 -0.5193  0.1064
 8524TIP3    H125536   4.121   3.050   5.276  1.3937  0.2788 -0.6798
 8524TIP3    H225537   4.217   3.038   5.392  0.2248  0.7075  0.3472
 8525TIP3   OH225538   1.509   2.925   3.988  0.2884  0.1595  0.3000
 8525TIP3    H125539   1.518   2.916   4.083 -0.8819  0.6855  0.4780
 8525TIP3    H225540   1.439   2.864   3.965 -0.2572  0.8888 -0.0371
 8526TIP3   OH225541   0.055   2.711   5.237  0.2033  0.2661  0.5259
 8526TIP3    H125542  -0.033   2.742   5.220  0.7749  1.6455 -0.0560
 8526TIP3    H225543   0.048   2.662   5.319 -1.0050  0.7689  0.7399
 8527TIP3   OH225544   1.310   4.655   4.337  0.1153  0.6700  0.2423
 8527TIP3    H125545   1.364   4.588   4.296  0.7726  1.6428 -0.5081
 8527TIP3    H225546   1.324   4.642   4.431  0.2060 -0.2552  0.1130
 8528TIP3   OH225547   1.882   5.517   0.637 -0.3704  0.3903 -0.0687
 8528TIP3    H125548   1.830   5.455   0.586  0.3668  0.3066 -0.7231
 8528TIP3    H225549   1.913   5.581   0.574  0.8748  0.0696  0.1964
 8529TIP3   OH225550   0.913   5.457   3.983 -0.2004 -0.3651  0.5479
 8529TIP3    H125551   0.882   5.542   3.951 -2.1052 -0.4621  1.9394
 8529TIP3    H225552   0.997   5.477   4.025 -0.5617  0.8238  0.7654
 8530TIP3   OH225553   6.004   0.452   2.422 -0.5556 -0.4956  0.4266
 8530TIP3    H125554   5.911   0.464   2.409 -0.1713  1.3504 -0.9749
 8530TIP3    H225555   6.026   0.508   2.497 -0.6518 -1.4062  1.1527
 8531TIP3   OH225556   1.697   1.316   4.185  0.1529  0.0226  0.2368
 8531TIP3    H125557   1.726   1.292   4.097 -0.7193  2.2441 -0.7345
 8531TIP3    H225558   1.605   1.340   4.174 -0.1540 -0.2764  1.9081
 8532TIP3   OH225559   4.326   6.011   5.562  0.6288  0.0971 -0.0454
 8532TIP3    H125560   4.322   5.917   5.584 -1.1779  0.0845 -0.2477
 8532TIP3    H225561   4.234   6.040   5.566  1.0350  1.6125 -1.0773
 8533TIP3   OH225562   6.262   5.995   0.351 -0.1195  0.0607 -0.3154
 8533TIP3    H125563   6.317   5.961   0.280  1.2491  0.1729  0.6613
 8533TIP3    H225564   6.270   5.931   0.421  0.1787  0.9355  0.4742
 8534TIP3   OH225565   7.128   2.120   5.175 -0.0224  0.7634 -0.3947
 8534TIP3    H125566   7.053   2.171   5.207 -0.3173  0.7850 -1.0912
 8534TIP3    H225567   7.177   2.183   5.122  1.0731  1.0399  0.8994
 8535TIP3   OH225568   1.206   4.690   3.145 -0.1970 -0.3088  0.3063
 8535TIP3    H125569   1.258   4.762   3.181 -1.6390  0.3449  1.1606
 8535TIP3    H225570   1.268   4.617   3.138  1.4905  1.1500 -1.2431
 8536TIP3   OH225571   6.785   4.046   1.894  0.3376 -0.3569 -0.1790
 8536TIP3    H125572   6.860   4.106   1.899 -0.3626  0.5422 -0.2223
 8536TIP3    H225573   6.717   4.087   1.947 -0.7961 -0.1414 -1.7251
 8537TIP3   OH225574   6.367   3.872   3.993 -0.0227  1.0149  0.3210
 8537TIP3    H125575   6.308   3.851   3.920  0.4139  1.0089 -0.0347
 8537TIP3    H225576   6.436   3.806   3.988 -0.7845  0.0643  1.6837
 8538TIP3   OH225577   6.275   6.178   5.028 -0.1511  0.2194 -0.4997
 8538TIP3    H125578   6.362   6.137   5.025 -0.0716  0.3432 -0.0219
 8538TIP3    H225579   6.293   6.271   5.043 -0.3817  0.1262  0.4189
 8539TIP3   OH225580   3.780   5.497   4.736  0.6214 -0.4951  0.1439
 8539TIP3    H125581   3.797   5.524   4.826  0.0196 -1.6627  0.6321
 8539TIP3    H225582   3.853   5.438   4.714  1.3999  0.6898 -0.5676
 8540TIP3   OH225583   1.318   1.149   3.696 -0.6535 -0.0763  0.1043
 8540TIP3    H125584   1.280   1.061   3.692  1.4553 -1.1732  2.1899
 8540TIP3    H225585   1.285   1.192   3.616 -1.0585 -3.0185 -1.4630
 8541TIP3   OH225586   3.710   0.601   4.580  0.7182 -0.0732  0.2522
 8541TIP3    H125587   3.626   0.610   4.625  1.8400  0.0551  2.4678
 8541TIP3    H225588   3.699   0.647   4.497 -1.4208 -0.1792  0.4377
 8542TIP3   OH225589   5.792   3.593   1.167  0.0094  0.3824 -0.1372
 8542TIP3    H125590   5.823   3.580   1.257  0.1326 -0.2363 -0.2652
 8542TIP3    H225591   5.757   3.682   1.166  0.2648  0.4903  0.4500
 8543TIP3   OH225592   2.766   6.421   3.729 -0.2358 -0.2536 -0.0814
 8543TIP3    H125593   2.712   6.365   3.672 -3.9761  1.5436  1.3713
 8543TIP3    H225594   2.705   6.486   3.763  3.3287  3.1988  0.3450
 8544TIP3   OH225595   5.315   4.397   5.116 -0.0683  0.1147  0.0015
 8544TIP3    H125596   5.254   4.467   5.137  0.1866  0.3543 -0.0542
 8544TIP3    H225597   5.263   4.334   5.065 -0.6836 -0.4446  1.2647
 8545TIP3   OH225598   6.564   0.625   2.234 -0.3201  0.1456 -0.0365
 8545TIP3    H125599   6.609   0.598   2.314 -0.6230  1.1596  0.4928
 8545TIP3    H225600   6.603   0.571   2.165 -0.3689 -1.0618  0.8558
 8546TIP3   OH225601   7.180   3.715   3.329  0.3320  0.3048 -0.2912
 8546TIP3    H125602   7.107   3.770   3.357  0.1502 -0.8708  1.8428
 8546TIP3    H225603   7.139   3.633   3.302  0.7786  0.0324 -0.1563
 8547TIP3   OH225604   5.537   6.641   4.351 -0.5778  0.0423 -0.5115
 8547TIP3    H125605   5.501   6.632   4.263  0.2897  0.3217 -0.8989
 8547TIP3    H225606   5.622   6.684   4.339  0.2998 -1.3731  0.2955
 8548TIP3   OH225607   6.352   3.914   5.749  0.3673 -0.3494  0.1437
 8548TIP3    H125608   6.324   3.976   5.816 -0.6610 -0.2762 -0.3278
 8548TIP3    H225609   6.446   3.905   5.762  0.4763  1.0430  0.4301
 8549TIP3   OH225610   0.144   1.669   2.725 -0.5097  0.6278  0.1305
 8549TIP3    H125611   0.239   1.656   2.730 -0.5137  0.4335 -0.2728
 8549TIP3    H225612   0.129   1.753   2.769 -0.0511  1.0878 -0.5710
 8550TIP3   OH225613   6.888   6.442   4.844 -0.1212  0.0952  0.7436
 8550TIP3    H125614   6.796   6.422   4.830 -0.9012  2.9964  0.9960
 8550TIP3    H225615   6.901   6.527   4.801  2.7117 -0.6631 -0.1235
 8551TIP3   OH225616   2.748   5.248   0.105 -0.4067 -0.1386  0.3177
 8551TIP3    H125617   2.814   5.276   0.169 -0.8884 -0.1131  0.8094
 8551TIP3    H225618   2.691   5.324   0.095  0.3780  0.3102 -1.1027
 8552TIP3   OH225619   0.267   5.658   1.846 -0.6871 -0.7638 -0.2633
 8552TIP3    H125620   0.258   5.753   1.850 -1.6047 -0.8302 -0.5995
 8552TIP3    H225621   0.232   5.634   1.760  2.1231 -1.1341 -1.4284
 8553TIP3   OH225622   2.416   1.454   0.715 -0.2902 -0.1349  0.2404
 8553TIP3    H125623   2.419   1.440   0.809  0.9437 -0.2292  0.2058
 8553TIP3    H225624   2.501   1.494   0.694 -0.5108 -0.1967 -0.8333
 8554TIP3   OH225625   2.133   4.003   3.369  0.1247  0.3406 -0.1216
 8554TIP3    H125626   2.041   3.980   3.374  0.1810  0.3491  1.0901
 8554TIP3    H225627   2.179   3.920   3.384  0.3231  0.4266 -0.2399
 8555TIP3   OH225628   2.824   5.295   5.047  0.1135 -0.1759 -0.9716
 8555TIP3    H125629   2.792   5.226   5.104  1.2394 -0.0254 -0.1177
 8555TIP3    H225630   2.757   5.364   5.052 -0.0102 -0.3480 -0.1652
 8556TIP3   OH225631   4.371   4.313   0.503  0.2528  0.6606 -0.3430
 8556TIP3    H125632   4.443   4.319   0.440 -0.4386 -0.7943 -1.3113
 8556TIP3    H225633   4.309   4.380   0.476 -0.0587  0.0143 -1.2535
 8557TIP3   OH225634   1.429   5.806   0.817 -0.2944  0.3210  0.8142
 8557TIP3    H125635   1.447   5.897   0.842  2.2033  0.0564  0.2083
 8557TIP3    H225636   1.408   5.811   0.724  1.8139  0.1372  0.2779
 8558TIP3   OH225637   5.050   5.240   0.446  0.0992  0.0874  0.3267
 8558TIP3    H125638   5.070   5.247   0.353  0.1268 -0.9382  0.2474
 8558TIP3    H225639   5.136   5.230   0.488  0.1317  1.1351  0.5278
 8559TIP3   OH225640   0.452   0.367   4.942 -0.2185  0.1654  0.1018
 8559TIP3    H125641   0.485   0.450   4.908 -2.9182  0.9502 -0.8883
 8559TIP3    H225642   0.449   0.379   5.037  1.6806  0.2507  0.1759
 8560TIP3   OH225643   3.413   6.571   3.882  0.2114 -0.2278  0.0826
 8560TIP3    H125644   3.324   6.539   3.895 -0.3619  0.4108 -1.8966
 8560TIP3    H225645   3.468   6.493   3.893 -0.5293 -0.5944  1.5040
 8561TIP3   OH225646   4.646   5.974   3.041 -0.4625  0.4485 -0.3098
 8561TIP3    H125647   4.580   6.032   3.004 -0.6755  0.4891  0.1204
 8561TIP3    H225648   4.730   6.018   3.024 -0.5713  0.5595 -0.5593
 8562TIP3   OH225649   3.143   4.738   0.570 -0.6270  0.2354  0.5313
 8562TIP3    H125650   3.110   4.792   0.498  2.7569  0.5958 -0.9713
 8562TIP3    H225651   3.082   4.665   0.576 -1.8684  0.9922 -1.7148
 8563TIP3   OH225652   4.249   4.901   1.998 -0.2088  0.0279  0.1282
 8563TIP3    H125653   4.226   4.925   1.909 -0.9099  0.3723  0.4000
 8563TIP3    H225654   4.280   4.810   1.991 -0.1632  0.0860 -0.4706
 8564TIP3   OH225655   1.870   4.966   1.301 -0.0163  0.4858  0.0013
 8564TIP3    H125656   1.831   4.897   1.355  1.2426  0.1938  0.5905
 8564TIP3    H225657   1.955   4.984   1.343 -0.0175  1.9126 -0.5412
 8565TIP3   OH225658   2.842   5.108   4.539 -0.1792  0.2584 -0.5354
 8565TIP3    H125659   2.865   5.157   4.618  0.5123 -1.1838  0.1795
 8565TIP3    H225660   2.892   5.150   4.469  1.1532 -0.0166  0.2332
 8566TIP3   OH225661   6.097   5.003   5.895 -0.0181 -0.2806  0.0395
 8566TIP3    H125662   6.030   4.937   5.911  1.3555 -1.4739  1.1661
 8566TIP3    H225663   6.160   4.960   5.838  0.3171  0.4506 -0.1552
 8567TIP3   OH225664   3.637   6.340   1.378  0.4428  0.6687 -0.1160
 8567TIP3    H125665   3.598   6.253   1.370  3.3070 -0.5777 -2.1847
 8567TIP3    H225666   3.697   6.333   1.452  0.5056  0.9780 -0.1372
 8568TIP3   OH225667   6.253   6.455   5.034  0.6601  0.3057 -0.4723
 8568TIP3    H125668   6.304   6.536   5.041  1.7745 -0.3485 -0.9178
 8568TIP3    H225669   6.206   6.464   4.951 -0.3924  1.1404  0.1870
 8569TIP3   OH225670   0.075   4.517   4.960 -0.2581  0.7473 -0.4306
 8569TIP3    H125671   0.121   4.472   5.031 -2.1038 -2.4141 -1.0324
 8569TIP3    H225672  -0.001   4.557   5.003 -1.2944 -1.0376 -0.5003
 8570TIP3   OH225673   3.055   3.698   5.135  0.5537  0.4907 -0.4062
 8570TIP3    H125674   3.059   3.603   5.123 -0.9173  0.1331  1.4565
 8570TIP3    H225675   2.964   3.716   5.158  1.2149  2.0415  1.3358
 8571TIP3   OH225676   1.427   5.763   0.271 -0.0695 -0.3271 -0.0311
 8571TIP3    H125677   1.448   5.840   0.324 -0.4242 -1.0773  1.2669
 8571TIP3    H225678   1.510   5.714   0.267  0.4557  0.6028 -1.7908
 8572TIP3   OH225679   6.794   2.208   3.594  0.4286  0.3107  0.4749
 8572TIP3    H125680   6.847   2.145   3.544  1.0106 -0.4617  1.9915
 8572TIP3    H225681   6.761   2.158   3.668 -0.0319  1.5305  1.1188
 8573TIP3   OH225682   2.268   2.583   0.979 -0.2938 -0.5789  0.1401
 8573TIP3    H125683   2.207   2.581   0.906  0.5313  1.0653 -0.6599
 8573TIP3    H225684   2.354   2.572   0.939  0.1981  0.6535  0.7912
 8574TIP3   OH225685   5.947   2.614   4.477  0.5231  0.1149  0.3082
 8574TIP3    H125686   6.016   2.614   4.412 -0.9413 -1.3509 -1.3421
 8574TIP3    H225687   5.869   2.643   4.430 -0.2063  0.8675  1.8921
 8575TIP3   OH225688   3.543   1.626   2.530  0.1381 -0.4386  0.3183
 8575TIP3    H125689   3.581   1.579   2.455  1.1808  0.6858  0.1126
 8575TIP3    H225690   3.559   1.718   2.511 -1.1232 -0.0305  1.1190
 8576TIP3   OH225691   2.051   1.918   2.355  0.3050  0.4905  0.1560
 8576TIP3    H125692   2.052   2.012   2.377 -2.2256  0.5245  0.4817
 8576TIP3    H225693   1.965   1.905   2.315  0.3901 -1.8093  0.6286
 8577TIP3   OH225694   2.414   6.531   2.024 -0.3194 -0.5166 -0.4788
 8577TIP3    H125695   2.433   6.459   2.084 -1.0856 -0.4209 -0.1101
 8577TIP3    H225696   2.432   6.610   2.074 -1.9026 -0.4150 -0.0145
 8578TIP3   OH225697   5.151   4.153   2.380 -0.0148  0.4281 -0.1780
 8578TIP3    H125698   5.065   4.139   2.339  0.7811 -2.1778 -1.1305
 8578TIP3    H225699   5.179   4.238   2.347 -1.2936  0.3424 -1.6237
 8579TIP3   OH225700   3.049   3.125   1.317  0.2200  0.1875 -0.5139
 8579TIP3    H125701   3.056   3.116   1.412  1.3426  3.1204 -0.2220
 8579TIP3    H225702   2.986   3.057   1.291 -1.0511  0.0925  2.4438
 8580TIP3   OH225703   3.556   5.972   2.380  0.6008 -0.0326 -0.1605
 8580TIP3    H125704   3.600   6.047   2.419  0.5011  0.0047 -0.1206
 8580TIP3    H225705   3.481   5.955   2.437 -1.0874  1.6642 -1.7388
 8581TIP3   OH225706   4.800   0.074   4.670  0.5018 -0.5014  0.0484
 8581TIP3    H125707   4.805   0.075   4.766  0.3344 -0.7321  0.0602
 8581TIP3    H225708   4.891   0.086   4.641  0.5483 -0.4021  0.2338
 8582TIP3   OH225709   4.311   3.963   4.697 -0.2212 -0.5706 -0.0344
 8582TIP3    H125710   4.353   3.941   4.614 -0.3517  1.0981 -0.5718
 8582TIP3    H225711   4.218   3.947   4.682 -0.0047 -3.0753  0.7679
 8583TIP3   OH225712   6.258   1.469   4.998 -0.4245 -0.3686 -0.1293
 8583TIP3    H125713   6.265   1.513   4.913  0.7972 -2.2035 -1.0281
 8583TIP3    H225714   6.347   1.471   5.033 -0.4310 -1.6726  0.0121
 8584TIP3   OH225715   1.829   1.243   3.009 -0.6881 -0.3885  0.2498
 8584TIP3    H125716   1.795   1.332   3.020  0.4722 -0.1015  1.8347
 8584TIP3    H225717   1.904   1.238   3.068 -0.7640 -2.4602  0.2524
 8585TIP3   OH225718   6.183   4.713   4.873 -0.0067  0.1520  0.4862
 8585TIP3    H125719   6.151   4.661   4.799  2.0281 -0.6659  0.1127
 8585TIP3    H225720   6.197   4.650   4.943  2.0441  0.2006  0.1793
 8586TIP3   OH225721   4.784   1.876   1.386  0.4671 -0.1283  0.2544
 8586TIP3    H125722   4.777   1.969   1.405  1.0018 -0.4519  2.2789
 8586TIP3    H225723   4.875   1.854   1.407  1.1387 -0.6227 -2.7674
 8587TIP3   OH225724   3.131   3.614   3.040 -0.1971 -0.2477 -0.1897
 8587TIP3    H125725   3.220   3.580   3.031 -0.5475 -0.9350 -1.2623
 8587TIP3    H225726   3.141   3.709   3.036  0.5888 -0.2784  0.7876
 8588TIP3   OH225727   6.097   3.668   2.104  0.2026  0.4813 -0.3707
 8588TIP3    H125728   6.138   3.596   2.152 -1.6285 -0.6015 -0.3191
 8588TIP3    H225729   6.134   3.664   2.016 -0.3717 -1.0018 -0.5667
 8589TIP3   OH225730   4.997   4.067   1.086 -0.3534  0.4039  0.2700
 8589TIP3    H125731   5.043   4.137   1.040 -0.9290  0.3184 -0.4567
 8589TIP3    H225732   4.988   3.997   1.020  0.1938 -0.3502  0.9696
 8590TIP3   OH225733   3.242   1.614   3.210 -0.5425  0.2477  0.4263
 8590TIP3    H125734   3.159   1.661   3.210  0.2138  1.6297  1.1226
 8590TIP3    H225735   3.253   1.585   3.301 -1.2464 -1.8109 -0.0805
 8591TIP3   OH225736   5.885   5.000   4.291  0.0547  0.3642 -0.3771
 8591TIP3    H125737   5.881   4.920   4.343  2.5702  1.1695  1.2073
 8591TIP3    H225738   5.808   5.050   4.319 -0.2799 -0.4959  0.3083
 8592TIP3   OH225739   4.890   2.756   3.331  0.1470  0.2021  0.6047
 8592TIP3    H125740   4.949   2.747   3.406 -0.8823  0.5382  1.4860
 8592TIP3    H225741   4.831   2.680   3.337  0.2684  0.0437 -0.0750
 8593TIP3   OH225742   0.241   5.871   4.973 -0.1461 -0.4831  0.3023
 8593TIP3    H125743   0.204   5.840   5.056 -0.6762  1.9561  1.0465
 8593TIP3    H225744   0.167   5.912   4.927  0.6530  0.3413 -0.2844
 8594TIP3   OH225745   3.453   1.130   0.377 -0.0848  0.0875 -0.5028
 8594TIP3    H125746   3.527   1.109   0.434 -0.1627  0.7615 -0.1490
 8594TIP3    H225747   3.384   1.069   0.404  0.1784 -0.2167 -0.5090
 8595TIP3   OH225748   2.402   5.006   3.058 -0.3642 -0.7992 -0.2782
 8595TIP3    H125749   2.358   4.926   3.029  1.6890 -2.0664 -0.1052
 8595TIP3    H225750   2.495   4.983   3.059  0.3311  1.7293 -0.6050
 8596TIP3   OH225751   5.068   4.021   1.783  0.8569  0.2571  0.2932
 8596TIP3    H125752   5.026   4.003   1.699 -0.3894 -0.2477  0.9899
 8596TIP3    H225753   5.157   3.988   1.773  0.4767 -0.5673 -0.5556
 8597TIP3   OH225754   5.353   0.810   5.852 -0.4352  0.1709  0.3639
 8597TIP3    H125755   5.320   0.749   5.786 -0.8798  2.0968 -1.3002
 8597TIP3    H225756   5.436   0.842   5.816  0.2312 -0.0488  1.6259
 8598TIP3   OH225757   5.238   4.412   3.236  0.5421 -0.4670 -0.3193
 8598TIP3    H125758   5.303   4.341   3.227  0.8748 -0.3633  1.0483
 8598TIP3    H225759   5.220   4.416   3.330  0.8159  1.5244 -0.3135
 8599TIP3   OH225760   5.065   4.154   3.967  0.5391  0.3832  0.6068
 8599TIP3    H125761   5.030   4.120   4.050  0.5389  0.9679  0.8483
 8599TIP3    H225762   5.104   4.238   3.990  1.4752  0.0686  0.2052
 8600TIP3   OH225763   3.967   0.490   5.185 -0.1784  0.3424 -0.1263
 8600TIP3    H125764   3.990   0.557   5.249  1.3709  0.2797 -0.5667
 8600TIP3    H225765   3.882   0.458   5.213  0.1692  0.7676  1.5280
 8601TIP3   OH225766   6.594   6.370   5.047 -0.5382 -0.6277 -0.0227
 8601TIP3    H125767   6.570   6.461   5.031 -1.0835 -0.9067 -0.8212
 8601TIP3    H225768   6.535   6.342   5.117 -0.6407 -0.4897 -0.0539
 8602TIP3   OH225769   0.719   6.077   1.097 -0.1595 -0.2175 -0.1573
 8602TIP3    H125770   0.764   6.020   1.159 -0.5944  0.1537  0.5101
 8602TIP3    H225771   0.780   6.150   1.082 -0.5665  0.3432  0.8326
 8603TIP3   OH225772   5.855   0.347   1.511  0.4942 -0.1813 -0.2288
 8603TIP3    H125773   5.815   0.271   1.470 -0.9084  1.7085 -2.6093
 8603TIP3    H225774   5.796   0.369   1.583  0.4590 -0.8308 -0.0527
 8604TIP3   OH225775   1.562   0.820   4.117  0.2359  0.1890 -0.4018
 8604TIP3    H125776   1.557   0.833   4.023 -1.4043  2.4446 -0.0940
 8604TIP3    H225777   1.633   0.877   4.146  0.9714 -0.7636 -0.2793
 8605TIP3   OH225778   3.925   5.697   3.235 -0.4489  0.4850 -0.0852
 8605TIP3    H125779   3.951   5.784   3.265  0.2995  0.3100 -0.2157
 8605TIP3    H225780   3.829   5.699   3.237 -0.4357  1.2309  0.1367
 8606TIP3   OH225781   4.037   5.958   4.575 -0.2592 -0.7767 -0.1040
 8606TIP3    H125782   4.040   6.038   4.628 -0.3732 -0.9433  0.1583
 8606TIP3    H225783   4.072   5.890   4.633  1.9113 -0.5358 -1.0313
 8607TIP3   OH225784   0.427   5.826   0.873 -0.2410  0.7281 -0.7190
 8607TIP3    H125785   0.513   5.861   0.850  0.0204  1.6314  1.4362
 8607TIP3    H225786   0.440   5.731   0.877  0.8442  0.8958  0.1940
 8608TIP3   OH225787   2.370   5.634   4.369  0.2874  0.3087 -0.4030
 8608TIP3    H125788   2.293   5.632   4.312  0.1727  0.4828 -0.2562
 8608TIP3    H225789   2.441   5.602   4.314  0.4139  1.5752 -1.0185
 8609TIP3   OH225790   6.579   5.791   4.547 -0.4553  0.7793  0.1680
 8609TIP3    H125791   6.615   5.702   4.543  0.4163  1.1003  0.4860
 8609TIP3    H225792   6.605   5.831   4.464  1.2284  1.4626  0.9580
 8610TIP3   OH225793   6.902   1.035   5.402  0.2580  0.3741 -0.7499
 8610TIP3    H125794   6.915   1.117   5.355  0.2849  0.6383 -0.2911
 8610TIP3    H225795   6.879   0.971   5.334 -2.7089  1.3942 -0.8287
 8611TIP3   OH225796   5.371   2.286   3.326 -0.3350  0.1751 -0.0670
 8611TIP3    H125797   5.454   2.306   3.282 -0.6801  0.9989 -0.3616
 8611TIP3    H225798   5.355   2.363   3.382 -1.2404  0.3328 -0.5358
 8612TIP3   OH225799   4.152   3.545   2.840 -0.0424 -0.7038 -0.3224
 8612TIP3    H125800   4.156   3.458   2.880  0.2709 -0.3097  0.5282
 8612TIP3    H225801   4.131   3.528   2.748  2.4901 -1.8357 -0.7834
 8613TIP3   OH225802   7.146   1.764   4.933  0.4917  0.3734 -0.1448
 8613TIP3    H125803   7.104   1.787   5.015 -0.0237 -1.6818  0.2048
 8613TIP3    H225804   7.239   1.754   4.955  0.9961  3.2214 -0.5773
 8614TIP3   OH225805   5.877   0.568   3.539  0.0289  0.3725  0.0041
 8614TIP3    H125806   5.944   0.572   3.607 -0.1539 -0.4251  0.2354
 8614TIP3    H225807   5.809   0.512   3.575 -1.1342  1.7722  0.0705
 8615TIP3   OH225808   1.629   3.364   5.841 -0.0321  0.3647 -0.3670
 8615TIP3    H125809   1.539   3.380   5.871  0.0143  1.8848 -0.9351
 8615TIP3    H225810   1.684   3.396   5.912  0.0704 -0.5191 -0.0413
 8616TIP3   OH225811   0.059   6.425   0.378  0.0277  0.0934  0.3850
 8616TIP3    H125812  -0.019   6.372   0.361 -0.1356  0.7247 -1.0020
 8616TIP3    H225813   0.127   6.362   0.403 -0.2200 -0.7531 -1.0087
 8617TIP3   OH225814   1.470   3.678   4.042 -0.1315 -0.4649 -0.1533
 8617TIP3    H125815   1.436   3.714   3.960  0.9370  1.8200  0.2998
 8617TIP3    H225816   1.415   3.603   4.061 -0.6377 -0.8316 -2.7654
 8618TIP3   OH225817   5.734   0.069   1.754  0.4594  0.5029  0.1972
 8618TIP3    H125818   5.706   0.099   1.840  0.3265  1.7302 -0.2524
 8618TIP3    H225819   5.827   0.052   1.764  0.4071  0.4528  0.6358
 8619TIP3   OH225820   6.634   1.308   2.527  0.8460 -0.2048  0.1427
 8619TIP3    H125821   6.605   1.218   2.543  2.0383 -0.7561 -0.7280
 8619TIP3    H225822   6.696   1.301   2.455  0.4617  1.4120 -0.3819
 8620TIP3   OH225823   6.562   5.524   0.537 -0.0835 -0.4369  0.0749
 8620TIP3    H125824   6.587   5.565   0.620 -0.8905  0.3489 -0.0537
 8620TIP3    H225825   6.626   5.557   0.474 -1.9817  2.5418 -0.5127
 8621TIP3   OH225826   3.100   2.972   3.283 -0.7775 -0.2206  0.0141
 8621TIP3    H125827   3.031   2.976   3.216  0.1648  0.8666 -0.9285
 8621TIP3    H225828   3.156   3.047   3.263  0.3576 -0.7555  1.1272
 8622TIP3   OH225829   6.521   1.512   5.139 -0.3430  0.0365 -0.3761
 8622TIP3    H125830   6.542   1.437   5.193  0.9715  0.4747 -0.2530
 8622TIP3    H225831   6.539   1.588   5.194  0.9150  0.4906 -1.3505
 8623TIP3   OH225832   1.946   5.812   3.934  0.1384  0.0351 -0.1479
 8623TIP3    H125833   1.902   5.749   3.877  2.2061 -0.5237 -1.2508
 8623TIP3    H225834   2.026   5.834   3.887  2.4400 -1.1233  2.9180
 8624TIP3   OH225835   0.127   5.592   3.123  0.2509  0.7885  0.3170
 8624TIP3    H125836   0.200   5.560   3.071 -1.0087  0.9700 -1.6706
 8624TIP3    H225837   0.125   5.687   3.106 -1.0143  0.6488 -0.4731
 8625TIP3   OH225838   4.518   4.872   1.066  0.3694 -0.1555 -0.0809
 8625TIP3    H125839   4.602   4.914   1.085 -0.0729  0.0335  1.6552
 8625TIP3    H225840   4.510   4.805   1.134 -0.5986 -0.5966 -0.6178
 8626TIP3   OH225841   6.512   2.008   1.575 -0.0256  0.0235  0.4612
 8626TIP3    H125842   6.604   2.035   1.579 -0.1009  0.1653  1.4853
 8626TIP3    H225843   6.515   1.922   1.534  0.6676 -0.3527  1.2602
 8627TIP3   OH225844   6.261   2.484   1.479  0.6124 -0.2707  0.0867
 8627TIP3    H125845   6.310   2.404   1.465 -2.2449 -2.0283 -0.6911
 8627TIP3    H225846   6.217   2.471   1.563  2.4169  1.8397  1.4491
 8628TIP3   OH225847   5.838   0.416   0.196  0.4447 -0.1089  0.1303
 8628TIP3    H125848   5.862   0.494   0.245 -0.8102  0.9679 -0.9010
 8628TIP3    H225849   5.816   0.351   0.263  0.8902  0.6101  0.9970
 8629TIP3   OH225850   2.139   2.359   3.495 -0.3848  0.5446 -0.5521
 8629TIP3    H125851   2.047   2.337   3.481 -0.4803  0.2247  0.4623
 8629TIP3    H225852   2.154   2.340   3.588  0.1941  2.3973 -0.2133
 8630TIP3   OH225853   5.246   4.086   2.077 -0.0345  0.7872 -0.0615
 8630TIP3    H125854   5.189   4.104   2.152 -0.2371 -3.7676  1.1277
 8630TIP3    H225855   5.190   4.103   2.000 -1.7161  0.1773  0.9728
 8631TIP3   OH225856   2.156   0.391   1.190 -0.0466 -0.5188  0.4274
 8631TIP3    H125857   2.128   0.412   1.279 -0.1758 -1.0745  0.5210
 8631TIP3    H225858   2.241   0.347   1.201 -1.2077 -2.9045  0.4916
 8632TIP3   OH225859   2.628   6.353   0.923  0.1886 -0.1385 -0.1619
 8632TIP3    H125860   2.700   6.290   0.919  1.0326  0.8005 -0.1852
 8632TIP3    H225861   2.620   6.386   0.834 -0.0658 -0.0197 -0.0965
 8633TIP3   OH225862   1.649   3.039   3.350  0.4105 -0.2224 -0.0353
 8633TIP3    H125863   1.560   3.058   3.320  1.1523  2.4328 -0.8664
 8633TIP3    H225864   1.705   3.080   3.284  2.1513  4.2268  3.6575
 8634TIP3   OH225865   2.718   2.833   3.813 -0.4101  0.0188  0.5826
 8634TIP3    H125866   2.709   2.890   3.737 -0.0440  1.3526  1.4978
 8634TIP3    H225867   2.629   2.803   3.832 -0.8090  1.2978  0.8180
 8635TIP3   OH225868   3.505   0.786   1.705  0.4250 -0.0915 -0.0726
 8635TIP3    H125869   3.538   0.825   1.787 -0.0173 -0.6647  0.3856
 8635TIP3    H225870   3.486   0.861   1.649  1.3594  0.2882  0.1020
 8636TIP3   OH225871   0.159   2.799   4.330  0.1069  0.6348 -0.0348
 8636TIP3    H125872   0.203   2.741   4.392 -0.8946 -0.0139  0.1009
 8636TIP3    H225873   0.159   2.750   4.247 -0.2777  0.6638 -0.0518
 8637TIP3   OH225874   1.127   0.766   2.011 -0.1821  0.1017  0.1391
 8637TIP3    H125875   1.204   0.807   1.972  0.1685  1.4834  2.1597
 8637TIP3    H225876   1.162   0.714   2.083 -1.0431 -0.2124  0.3408
 8638TIP3   OH225877   5.620   0.543   0.375 -0.7220  0.0720  0.8533
 8638TIP3    H125878   5.687   0.538   0.442 -0.1119  0.4471  0.2815
 8638TIP3    H225879   5.569   0.462   0.385  0.2592 -0.5581  0.8236
 8639TIP3   OH225880   0.398   0.954   3.851  0.5127  0.1739  0.3129
 8639TIP3    H125881   0.313   0.967   3.808 -0.4608  0.3431  2.1752
 8639TIP3    H225882   0.411   0.860   3.850  1.5837  0.2629 -2.2060
 8640TIP3   OH225883   0.103   4.964   5.005 -0.4342  0.0705 -0.8382
 8640TIP3    H125884   0.085   4.937   4.915 -2.9762  1.0972 -0.7247
 8640TIP3    H225885   0.019   4.954   5.050  0.9234 -1.0628  1.6339
 8641TIP3   OH225886   0.436   3.442   5.365 -0.2479 -0.3039 -0.1653
 8641TIP3    H125887   0.440   3.485   5.451  1.6847 -0.4319 -0.1489
 8641TIP3    H225888   0.463   3.510   5.303  1.1029 -0.9411 -0.3285
 8642TIP3   OH225889   2.761   0.060   0.320  0.5008 -0.0429  0.4416
 8642TIP3    H125890   2.820   0.009   0.265 -1.3284  0.1334 -1.8502
 8642TIP3    H225891   2.726  -0.003   0.383  1.1234 -0.7469  0.0891
 8643TIP3   OH225892   3.512   4.861   4.564  0.8347 -0.1057 -0.4533
 8643TIP3    H125893   3.538   4.888   4.475 -0.6439  0.2575 -0.7998
 8643TIP3    H225894   3.445   4.794   4.550 -0.3413  0.8557  0.3612
 8644TIP3   OH225895   2.291   4.137   4.414 -0.5292 -0.2332 -0.1482
 8644TIP3    H125896   2.321   4.081   4.343  0.0736  0.0688 -0.1392
 8644TIP3    H225897   2.369   4.151   4.468 -0.4467  1.3545 -0.6409
 8645TIP3   OH225898   3.179   2.000   3.633  0.0368 -0.1744  0.3967
 8645TIP3    H125899   3.169   2.042   3.547  0.3287 -1.0950 -0.0982
 8645TIP3    H225900   3.181   2.073   3.695 -0.3737  0.4937 -0.3587
 8646TIP3   OH225901   5.654   5.807   0.677  0.2622  0.1185 -0.4577
 8646TIP3    H125902   5.567   5.842   0.657  0.0151 -0.6484 -0.7689
 8646TIP3    H225903   5.674   5.841   0.764 -1.0009 -0.8845  0.2723
 8647TIP3   OH225904   4.680   4.008   0.835  0.0898  0.2466 -0.3882
 8647TIP3    H125905   4.613   4.075   0.823  1.6236  1.6794 -1.3775
 8647TIP3    H225906   4.662   3.943   0.767 -0.3754  0.5604 -0.5681
 8648TIP3   OH225907   3.184   4.119   0.273 -0.1061 -0.2014  0.3145
 8648TIP3    H125908   3.226   4.081   0.196  1.1958 -0.4265  1.0998
 8648TIP3    H225909   3.180   4.046   0.336  0.1067  0.3152  0.9401
 8649TIP3   OH225910   0.392   3.922   0.061 -0.1052  0.3906 -0.7841
 8649TIP3    H125911   0.471   3.907   0.008  0.2967 -0.4374  0.0387
 8649TIP3    H225912   0.360   3.835   0.082 -0.1970  0.7098  0.4390
 8650TIP3   OH225913   2.491   6.482   0.173  0.3448 -0.2287 -0.2411
 8650TIP3    H125914   2.480   6.570   0.138 -1.4743  0.2013  1.2667
 8650TIP3    H225915   2.404   6.456   0.202  0.9736 -2.2410  0.0369
 8651TIP3   OH225916   4.911   5.555   4.475 -0.0479 -0.7093 -0.2144
 8651TIP3    H125917   4.840   5.524   4.532 -1.1183  1.4034 -0.2850
 8651TIP3    H225918   4.873   5.556   4.388 -0.6658  2.1689 -0.0162
 8652TIP3   OH225919   4.863   2.961   5.301 -0.3310 -0.2059 -0.3056
 8652TIP3    H125920   4.847   2.997   5.214  1.9442  1.6931 -0.0576
 8652TIP3    H225921   4.948   2.917   5.294  0.6120  1.2451  1.2287
 8653TIP3   OH225922   0.603   5.040   0.137  0.1812 -0.0432  0.1926
 8653TIP3    H125923   0.638   5.005   0.055 -0.6904 -0.3952 -0.0411
 8653TIP3    H225924   0.672   5.097   0.171  0.4405  0.3090 -0.9111
 8654TIP3   OH225925   1.643   3.267   2.607 -0.1084 -0.1627  0.0744
 8654TIP3    H125926   1.549   3.250   2.596 -0.7578  2.4327  1.0168
 8654TIP3    H225927   1.667   3.217   2.685 -1.0290  0.1433  0.5735
 8655TIP3   OH225928   1.986   6.258   5.490 -0.1410  0.6994 -0.5018
 8655TIP3    H125929   1.958   6.170   5.518  0.7238  0.7063  0.4953
 8655TIP3    H225930   2.037   6.242   5.411 -0.6134  0.3799 -0.7447
 8656TIP3   OH225931   1.396   2.112   4.817 -0.4262  0.8070 -0.1160
 8656TIP3    H125932   1.421   2.083   4.905 -0.6444  0.3012 -0.2165
 8656TIP3    H225933   1.308   2.077   4.804 -0.7798  1.6880 -0.1715
 8657TIP3   OH225934   6.784   6.152   5.338 -0.0390 -0.0495  0.4641
 8657TIP3    H125935   6.812   6.064   5.365  2.7156  0.7009  0.3497
 8657TIP3    H225936   6.694   6.159   5.370  0.1514 -2.3758  1.7434
 8658TIP3   OH225937   0.390   0.323   4.611  0.0180 -0.1245 -0.1096
 8658TIP3    H125938   0.418   0.323   4.703 -0.5403  1.1557  0.0902
 8658TIP3    H225939   0.297   0.302   4.614  0.0199 -0.1823 -0.3977
 8659TIP3   OH225940   6.677   0.086   1.586  0.4351 -0.4474  0.2847
 8659TIP3    H125941   6.647   0.006   1.543  2.1486 -1.4637  0.8711
 8659TIP3    H225942   6.710   0.057   1.671  2.4376  0.6237 -0.0619
 8660TIP3   OH225943   1.746   4.946   3.416 -0.2232  0.0447  0.2153
 8660TIP3    H125944   1.740   4.883   3.488 -1.9731 -0.1526 -0.0557
 8660TIP3    H225945   1.836   4.938   3.385  0.3924 -0.2811  1.9953
 8661TIP3   OH225946   5.283   3.443   3.178  0.1240 -0.2987 -0.1777
 8661TIP3    H125947   5.241   3.463   3.095 -1.3744  0.0736  0.6335
 8661TIP3    H225948   5.348   3.512   3.190 -0.6813  0.5094 -0.3473
 8662TIP3   OH225949   1.854   5.673   1.349  0.1977 -0.1605  0.1984
 8662TIP3    H125950   1.841   5.615   1.424  1.7083 -1.2497 -0.3509
 8662TIP3    H225951   1.912   5.742   1.383 -0.2641  0.1469  0.3895
 8663TIP3   OH225952   4.812  -0.007   2.139  0.3643 -0.0519  0.4267
 8663TIP3    H125953   4.739  -0.008   2.076  0.5624 -1.1901  0.1988
 8663TIP3    H225954   4.884   0.035   2.091  0.8259 -1.8143 -0.5044
 8664TIP3   OH225955   3.391   5.884   1.284 -0.1912  0.4324  0.1468
 8664TIP3    H125956   3.337   5.823   1.234  0.0013 -0.4269  0.9617
 8664TIP3    H225957   3.475   5.883   1.239 -1.2202  3.0478 -2.1570
 8665TIP3   OH225958   4.753   1.438   1.715  0.2069 -0.3213 -0.6827
 8665TIP3    H125959   4.730   1.449   1.623 -0.1940  1.5535 -0.4009
 8665TIP3    H225960   4.823   1.502   1.730 -1.7251  1.5664  0.9492
 8666TIP3   OH225961   4.110   0.698   1.545  0.8366 -0.5418  0.4055
 8666TIP3    H125962   4.063   0.737   1.619  0.3371  1.1379 -0.7447
 8666TIP3    H225963   4.046   0.696   1.474  1.3657 -1.9357 -0.0833
 8667TIP3   OH225964   4.323   0.273   4.292 -0.2360 -0.1249  0.0607
 8667TIP3    H125965   4.376   0.266   4.371 -0.5067 -1.4174  0.1585
 8667TIP3    H225966   4.298   0.182   4.272 -0.1453  0.1630 -1.5166
 8668TIP3   OH225967   5.465   2.795   1.312  0.4100 -0.2976  0.6534
 8668TIP3    H125968   5.523   2.816   1.384 -2.0337  4.2471  1.6555
 8668TIP3    H225969   5.513   2.820   1.233  1.5211 -1.3291  0.9644
 8669TIP3   OH225970   6.138   6.572   4.278  0.8133  0.2516  0.7345
 8669TIP3    H125971   6.201   6.511   4.241 -0.7637 -1.0583  0.0830
 8669TIP3    H225972   6.092   6.522   4.346 -0.4996  0.6787  0.1995
 8670TIP3   OH225973   1.793   3.993   4.863  0.0267 -0.2422 -0.2739
 8670TIP3    H125974   1.847   3.993   4.784 -0.2901 -0.8878 -0.4952
 8670TIP3    H225975   1.714   3.945   4.839 -0.9491  1.2650 -0.1508
 8671TIP3   OH225976   0.565   5.445   3.210 -0.1837  0.0902 -0.2460
 8671TIP3    H125977   0.557   5.364   3.260 -2.4887 -0.1741 -0.9186
 8671TIP3    H225978   0.619   5.421   3.135  0.2157 -0.4859  0.2221
 8672TIP3   OH225979   2.223   1.713   5.086 -0.2544 -0.3841  0.3670
 8672TIP3    H125980   2.304   1.728   5.133 -0.4248 -0.8435  0.8191
 8672TIP3    H225981   2.250   1.667   5.006  0.0280  0.3520  0.0310
 8673TIP3   OH225982   5.761   4.492   3.628 -0.0035  0.5385  0.0375
 8673TIP3    H125983   5.727   4.455   3.546  0.4569 -0.4638  0.2742
 8673TIP3    H225984   5.845   4.532   3.604 -0.3082  1.0749 -0.1457
 8674TIP3   OH225985   4.520   2.019   0.428  0.0056 -0.4842 -0.3285
 8674TIP3    H125986   4.432   2.046   0.454  0.8773  1.1139  1.2415
 8674TIP3    H225987   4.541   2.073   0.352 -0.3796 -0.9285 -0.7573
 8675TIP3   OH225988   1.524   1.390   4.659  0.2371 -0.1671 -0.3653
 8675TIP3    H125989   1.591   1.413   4.724 -0.9097  0.4625  0.6456
 8675TIP3    H225990   1.573   1.353   4.586  1.8491  1.8456 -0.3919
 8676TIP3   OH225991   1.303   2.551   0.284 -0.2117 -0.4390  0.0574
 8676TIP3    H125992   1.258   2.566   0.367 -0.8637 -1.5980 -0.0631
 8676TIP3    H225993   1.232   2.546   0.220  0.3359  1.5653 -0.7875
 8677TIP3   OH225994   6.611   1.379   1.590 -0.3319 -0.3129  0.1036
 8677TIP3    H125995   6.638   1.418   1.674  0.4786 -1.8576  0.6088
 8677TIP3    H225996   6.661   1.428   1.524 -0.4249  0.4433  0.5838
 8678TIP3   OH225997   1.593   5.882   3.233 -0.8589  0.1903  0.5082
 8678TIP3    H125998   1.564   5.964   3.273 -0.1864  1.3620 -1.2915
 8678TIP3    H225999   1.688   5.880   3.250 -0.4331  1.0607 -1.5197
 8679TIP3   OH226000   0.082   1.130   4.941  0.0481  0.6171 -0.3300
 8679TIP3    H126001   0.139   1.058   4.914 -1.3500  0.0940 -2.0531
 8679TIP3    H226002   0.001   1.087   4.970  0.8450  1.2470  3.3859
 8680TIP3   OH226003   4.377   0.937   0.770  0.4816 -0.5630 -0.3410
 8680TIP3    H126004   4.469   0.912   0.781  0.4213 -1.0173 -0.8272
 8680TIP3    H226005   4.380   1.030   0.749  0.9083 -0.8019 -1.4153
 8681TIP3   OH226006   6.468   3.921   3.274 -0.4537 -0.2658  0.4968
 8681TIP3    H126007   6.546   3.909   3.220 -0.9716 -0.4016 -0.2224
 8681TIP3    H226008   6.494   3.889   3.361  0.6894  0.8381  0.5894
 8682TIP3   OH226009   6.474   5.075   3.055 -0.8021 -0.1938  0.3411
 8682TIP3    H126010   6.485   4.980   3.047 -1.2241 -0.2265  0.1542
 8682TIP3    H226011   6.536   5.112   2.993  0.2092 -0.3146  1.2359
 8683TIP3   OH226012   7.019   4.484   5.713 -0.2410 -0.2894 -0.4552
 8683TIP3    H126013   7.069   4.497   5.793  0.7233 -1.1856 -0.8914
 8683TIP3    H226014   6.941   4.436   5.742  1.3230 -2.9608 -0.3439
 8684TIP3   OH226015   1.803   3.589   2.321 -0.4212 -0.4626 -0.4025
 8684TIP3    H126016   1.771   3.594   2.411  0.4619  0.8918 -0.1368
 8684TIP3    H226017   1.781   3.673   2.282  0.5992 -0.4372 -0.9667
 8685TIP3   OH226018   5.908   6.522   4.808  0.3720 -0.2205 -0.4954
 8685TIP3    H126019   5.899   6.439   4.763  1.3227 -0.0906 -0.9430
 8685TIP3    H226020   5.933   6.498   4.898 -2.0949 -0.5017  0.1990
 8686TIP3   OH226021   6.239   0.423   4.696  0.3299 -0.4670 -0.0490
 8686TIP3    H126022   6.257   0.511   4.664  0.5862  0.0307  1.3906
 8686TIP3    H226023   6.314   0.402   4.751  0.7233 -1.9730 -1.0898
 8687TIP3   OH226024   3.924   3.610   2.117  0.2633 -0.3899 -0.1544
 8687TIP3    H126025   3.947   3.546   2.049 -0.3917  0.5083 -1.2580
 8687TIP3    H226026   3.881   3.681   2.069  1.6673  1.2568  0.9392
 8688TIP3   OH226027   0.866   6.147   2.595  0.0004 -0.0539  0.3213
 8688TIP3    H126028   0.783   6.107   2.621 -0.9620  2.5965  1.7167
 8688TIP3    H226029   0.926   6.128   2.666 -0.7404  1.6433  1.4737
 8689TIP3   OH226030   4.374   0.576   0.579  0.2322 -0.1773 -0.4536
 8689TIP3    H126031   4.448   0.637   0.570  0.1109  0.1324  0.5024
 8689TIP3    H226032   4.297   0.632   0.576 -0.1184 -0.6784 -3.3798
 8690TIP3   OH226033   0.748   0.132   3.304 -0.4738  0.0143  0.2583
 8690TIP3    H126034   0.689   0.057   3.303 -1.5997  0.8575 -1.0575
 8690TIP3    H226035   0.696   0.203   3.342 -0.8558  1.1012 -2.0610
 8691TIP3   OH226036   2.571   3.160   0.908 -0.4256  0.0212 -0.3189
 8691TIP3    H126037   2.507   3.229   0.889 -1.7830 -1.1469 -0.1664
 8691TIP3    H226038   2.609   3.139   0.823 -2.2398 -1.1301 -0.9091
 8692TIP3   OH226039   4.241   4.439   1.261 -0.3617 -0.3384 -0.0182
 8692TIP3    H126040   4.186   4.425   1.184 -0.3538  0.9594 -0.2677
 8692TIP3    H226041   4.191   4.399   1.333 -1.0979 -0.1789 -0.4325
 8693TIP3   OH226042   2.404   5.210   1.712  0.3558  0.5207 -0.1070
 8693TIP3    H126043   2.344   5.251   1.774  0.0853  1.6846 -1.1015
 8693TIP3    H226044   2.350   5.147   1.664  0.9102 -1.5917  1.8572
 8694TIP3   OH226045   4.033   3.081   0.003  0.0491 -0.6294 -0.2740
 8694TIP3    H126046   4.078   3.085   0.087  1.4288 -0.8188 -0.9761
 8694TIP3    H226047   4.041   2.990  -0.025 -2.3077 -1.1135  0.3412
 8695TIP3   OH226048   0.385   5.960   5.740 -0.4651 -0.5623 -0.8141
 8695TIP3    H126049   0.403   5.882   5.688 -2.3207 -0.6046 -1.4464
 8695TIP3    H226050   0.290   5.971   5.736 -0.3723  1.0153  0.3067
 8696TIP3   OH226051   4.295   1.984   1.632  0.4066 -0.3064  0.1155
 8696TIP3    H126052   4.215   1.997   1.683  0.4555  2.3831 -0.3359
 8696TIP3    H226053   4.366   2.004   1.692  0.4973  1.9747 -0.6589
 8697TIP3   OH226054   0.394   1.138   5.221  0.6477 -0.2624 -0.1641
 8697TIP3    H126055   0.358   1.206   5.164  0.6109 -0.8293 -0.8237
 8697TIP3    H226056   0.382   1.173   5.310  0.7124  0.6265 -0.4990
 8698TIP3   OH226057   4.580   0.377   5.521 -0.1233 -0.3444 -0.6588
 8698TIP3    H126058   4.664   0.406   5.557  0.5685 -1.2627 -1.4862
 8698TIP3    H226059   4.515   0.415   5.580  0.8458  0.6537 -0.1832
 8699TIP3   OH226060   5.407   5.318   3.782 -0.0914  0.4948 -0.1600
 8699TIP3    H126061   5.495   5.284   3.793 -0.0810  0.0418 -1.4759
 8699TIP3    H226062   5.352   5.241   3.767 -0.8310  0.7182  1.2598
 8700TIP3   OH226063   3.358   5.674   2.959 -0.1326 -0.3588 -0.3071
 8700TIP3    H126064   3.303   5.605   2.997  1.1963 -1.7708 -0.8409
 8700TIP3    H226065   3.320   5.755   2.991  0.2590 -1.4053  3.1912
 8701TIP3   OH226066   2.419   4.799   0.761 -0.6880  0.4667 -0.0360
 8701TIP3    H126067   2.341   4.758   0.799 -0.7978 -0.2607 -1.0024
 8701TIP3    H226068   2.389   4.835   0.678  0.2289 -0.8329 -0.9678
 8702TIP3   OH226069   4.981   2.328   5.094  0.1723 -0.0876 -0.9910
 8702TIP3    H126070   4.982   2.267   5.168  0.1550  0.3742 -0.6025
 8702TIP3    H226071   4.889   2.342   5.075  0.1734 -0.0618 -0.9785
 8703TIP3   OH226072   5.879   5.497   2.380  0.8188  0.5698 -0.0381
 8703TIP3    H126073   5.875   5.500   2.285 -3.1555 -1.4485 -0.1582
 8703TIP3    H226074   5.925   5.416   2.401  1.9798  1.1769 -0.1822
 8704TIP3   OH226075   5.706   5.704   3.391 -1.0725  0.0390 -0.2559
 8704TIP3    H126076   5.727   5.763   3.463  1.1722 -1.5119  0.4716
 8704TIP3    H226077   5.730   5.752   3.312 -1.5141  0.9428  0.1424
 8705TIP3   OH226078   7.014   2.276   2.547 -0.0209 -0.7171  0.1863
 8705TIP3    H126079   7.005   2.310   2.636  1.1062 -0.6247  0.2785
 8705TIP3    H226080   7.103   2.242   2.543 -0.0514 -0.7012 -0.9191
 8706TIP3   OH226081   6.123   3.001   4.026  0.2095 -0.5359  0.4112
 8706TIP3    H126082   6.031   3.019   4.043  0.2395  0.2894 -0.1892
 8706TIP3    H226083   6.125   2.911   3.995 -0.3110 -0.7591  1.0082
 8707TIP3   OH226084   4.616   5.974   0.906 -0.9959 -0.0788 -0.0249
 8707TIP3    H126085   4.657   6.060   0.891  0.0545 -0.9810 -2.9755
 8707TIP3    H226086   4.669   5.913   0.856 -1.1145 -2.7169  2.8002
 8708TIP3   OH226087   6.456   5.498   2.902 -0.1971 -0.6204  0.0423
 8708TIP3    H126088   6.549   5.475   2.901 -0.6060 -2.3712 -0.1882
 8708TIP3    H226089   6.446   5.557   2.828  0.7177 -0.4151  0.0627
 8709TIP3   OH226090   2.939   5.326   3.434  0.1438  0.1180  0.3253
 8709TIP3    H126091   2.869   5.392   3.430  0.2056  0.1376 -2.1409
 8709TIP3    H226092   3.004   5.364   3.492 -0.7668  1.2590  0.6559
 8710TIP3   OH226093   6.749   2.020   5.272  0.4011  0.8212  0.1384
 8710TIP3    H126094   6.817   2.088   5.274  0.5809  0.6390  0.2983
 8710TIP3    H226095   6.785   1.949   5.324  1.1856 -0.3080 -1.8436
 8711TIP3   OH226096   1.039   4.493   3.015 -0.2197 -0.0687  0.6851
 8711TIP3    H126097   1.084   4.555   3.073 -0.1489  2.6535 -1.9921
 8711TIP3    H226098   1.108   4.462   2.956 -0.8250 -0.2759  0.0805
 8712TIP3   OH226099   2.090   2.942   0.792 -0.3257  0.1737 -0.4088
 8712TIP3    H126100   2.114   3.034   0.787 -0.0331  0.0338 -2.0714
 8712TIP3    H226101   2.173   2.895   0.785 -0.5050 -0.2343  0.0905
 8713TIP3   OH226102   5.823   4.855   5.400  0.1422 -0.3152  0.3319
 8713TIP3    H126103   5.861   4.938   5.372  0.1889 -0.5956 -0.4645
 8713TIP3    H226104   5.873   4.830   5.477  1.5964 -0.6781 -0.6949
 8714TIP3   OH226105   1.239   2.430   1.368  0.1941  0.1459 -0.5286
 8714TIP3    H126106   1.216   2.522   1.351  0.6489  0.0777 -1.6022
 8714TIP3    H226107   1.335   2.429   1.365  0.1948 -0.3330 -0.3562
 8715TIP3   OH226108   0.902   3.094   2.922  0.1596 -0.0992 -0.1255
 8715TIP3    H126109   0.906   3.001   2.947 -1.0536 -0.4973 -1.2697
 8715TIP3    H226110   0.919   3.141   3.004 -1.0960 -1.3395  0.9084
 8716TIP3   OH226111   2.926   2.160   3.005 -0.1441 -0.8004 -0.2201
 8716TIP3    H126112   2.884   2.245   3.008  0.4033 -0.5126 -0.5855
 8716TIP3    H226113   2.990   2.167   2.934 -1.2878 -2.0535 -1.4451
 8717TIP3   OH226114   1.386   6.729   3.506 -0.0671  0.1166  0.4868
 8717TIP3    H126115   1.313   6.721   3.567  0.2463  1.1775  1.0225
 8717TIP3    H226116   1.348   6.770   3.428  0.0036  0.9432  0.8768
 8718TIP3   OH226117   5.978   1.468   1.224 -0.0268  0.4104 -0.2641
 8718TIP3    H126118   5.935   1.536   1.277 -0.1815  0.9399 -1.0551
 8718TIP3    H226119   5.906   1.422   1.181  0.1359  0.4392 -0.5642
 8719TIP3   OH226120   5.746   2.137   2.679 -0.0003 -0.6255 -0.2682
 8719TIP3    H126121   5.820   2.117   2.736  0.1290 -0.9588 -0.5434
 8719TIP3    H226122   5.676   2.078   2.708  0.0842 -0.8366 -0.4857
 8720TIP3   OH226123   4.043   5.836   0.566  0.3407 -0.1125  0.2602
 8720TIP3    H126124   4.097   5.768   0.525  1.4245 -0.0209  1.4515
 8720TIP3    H226125   4.105   5.888   0.617 -0.7286  0.7124  0.7569
 8721TIP3   OH226126   1.542   1.048   0.258  0.2932  0.3071  0.3738
 8721TIP3    H126127   1.574   1.138   0.247  1.3005 -0.1261 -0.3064
 8721TIP3    H226128   1.504   1.026   0.173 -1.4067  0.6199  1.0021
 8722TIP3   OH226129   6.827   6.155   3.030 -0.2260 -0.0668 -0.1694
 8722TIP3    H126130   6.807   6.247   3.012  1.0007  0.6928  1.9961
 8722TIP3    H226131   6.744   6.117   3.059 -0.4667  0.7289  0.2089
 8723TIP3   OH226132   3.807   6.424   2.701 -0.7969 -0.1385  0.3460
 8723TIP3    H126133   3.867   6.368   2.652  0.3138  0.4143  1.0195
 8723TIP3    H226134   3.829   6.513   2.672 -1.4246  0.0586  0.4659
 8724TIP3   OH226135   2.583   4.020   3.951  0.2776  0.5029  0.2529
 8724TIP3    H126136   2.582   4.107   3.991  1.3965  0.1618  1.0753
 8724TIP3    H226137   2.675   3.993   3.954 -0.1897 -1.1185  0.9376
 8725TIP3   OH226138   0.470   2.214   5.257 -0.2731 -0.1100 -0.1084
 8725TIP3    H126139   0.518   2.199   5.339 -0.0204 -1.3324 -0.4586
 8725TIP3    H226140   0.383   2.179   5.273  0.3815 -2.2917 -1.0037
 8726TIP3   OH226141   2.464   5.866   5.806 -0.2003  0.9416  0.1501
 8726TIP3    H126142   2.393   5.894   5.863  0.0138 -0.2398  1.0268
 8726TIP3    H226143   2.421   5.834   5.727 -0.7532 -0.8577  1.1301
 8727TIP3   OH226144   3.404   5.647   0.461  0.4353 -0.2362 -0.5995
 8727TIP3    H126145   3.315   5.682   0.451  1.2836  2.7160  1.0855
 8727TIP3    H226146   3.460   5.724   0.465  2.9050 -1.9525  0.0336
 8728TIP3   OH226147   5.507   5.871   3.591 -0.5012  0.5606 -0.1399
 8728TIP3    H126148   5.460   5.788   3.594 -2.2461  1.4936  2.6765
 8728TIP3    H226149   5.458   5.924   3.528 -1.8917  0.7303  1.0255
 8729TIP3   OH226150   5.096   2.810   0.246 -0.2073  0.5079 -0.1224
 8729TIP3    H126151   5.081   2.800   0.152 -1.1190 -1.6914  0.2013
 8729TIP3    H226152   5.174   2.757   0.264  0.2287  1.2691  0.3274
 8730TIP3   OH226153   4.118   0.470   3.774 -0.0023 -0.7361  0.3131
 8730TIP3    H126154   4.159   0.387   3.750  0.7762 -0.7043  1.4353
 8730TIP3    H226155   4.077   0.453   3.859 -1.2241 -0.3942 -0.1859
 8731TIP3   OH226156   3.206   1.026   3.757  0.0075  0.0208 -0.5094
 8731TIP3    H126157   3.275   1.089   3.779 -0.6128  0.5834 -0.1275
 8731TIP3    H226158   3.124   1.074   3.771 -0.5583 -1.4049  1.6958
 8732TIP3   OH226159   3.136   5.075   0.585  0.2069 -0.2144 -0.1587
 8732TIP3    H126160   3.104   4.990   0.614 -0.9884  0.1110 -0.4753
 8732TIP3    H226161   3.057   5.123   0.559  0.9062  0.8170 -0.4395
 8733TIP3   OH226162   0.306   6.455   4.153  0.6577 -0.0752 -0.6303
 8733TIP3    H126163   0.238   6.440   4.219  1.0926  0.1768 -0.1167
 8733TIP3    H226164   0.260   6.450   4.069 -0.0689  0.5331 -0.2741
 8734TIP3   OH226165   5.859   3.062   2.113  0.1133  0.0652  0.0350
 8734TIP3    H126166   5.916   3.074   2.038 -1.5210  0.4189 -1.2208
 8734TIP3    H226167   5.796   2.995   2.086  0.6005 -1.1828  1.8060
 8735TIP3   OH226168   2.652   0.266   4.488  0.7299 -0.0366  0.1900
 8735TIP3    H126169   2.644   0.171   4.495  0.0207 -0.0734 -0.9019
 8735TIP3    H226170   2.565   0.299   4.505  1.1295  0.4829  1.2858
 8736TIP3   OH226171   4.984   1.016   4.058 -0.0933 -0.0868  0.6254
 8736TIP3    H126172   4.952   0.926   4.059  0.8572 -0.5424 -1.9723
 8736TIP3    H226173   4.916   1.065   4.011 -0.0396  0.3042  0.9501
 8737TIP3   OH226174   1.830   4.701   2.349 -0.1893 -0.2877 -0.5252
 8737TIP3    H126175   1.824   4.737   2.438 -1.4597  0.0285 -0.7203
 8737TIP3    H226176   1.923   4.696   2.332  0.0559  1.1423  0.2300
 8738TIP3   OH226177   2.657   6.124   3.862  0.1958 -0.4091  0.2852
 8738TIP3    H126178   2.648   6.032   3.887  1.7827 -0.3132  1.3563
 8738TIP3    H226179   2.736   6.154   3.907  0.9104  0.9302 -1.6849
 8739TIP3   OH226180   3.210   2.276   1.534 -0.1806  0.0907 -0.0955
 8739TIP3    H126181   3.152   2.335   1.486 -0.4686  0.3872  0.5897
 8739TIP3    H226182   3.198   2.191   1.492 -1.0393  0.1713 -0.0435
 8740TIP3   OH226183   6.105   2.915   2.327  0.5582 -0.0534 -0.6412
 8740TIP3    H126184   6.015   2.909   2.358  0.8579  2.1101  0.8668
 8740TIP3    H226185   6.101   2.888   2.235 -1.4078 -1.0136 -0.3337
 8741TIP3   OH226186   1.444   4.853   3.815  0.1251  0.0571  0.0571
 8741TIP3    H126187   1.483   4.859   3.903 -0.5056 -0.3820  0.3808
 8741TIP3    H226188   1.471   4.933   3.771 -0.0880  0.5989  0.8826
 8742TIP3   OH226189   5.449   1.677   4.739  0.5163 -0.3981  0.0478
 8742TIP3    H126190   5.475   1.754   4.789 -0.3672 -0.1561  0.1479
 8742TIP3    H226191   5.361   1.697   4.707 -0.1752 -1.7618  0.9687
 8743TIP3   OH226192   4.908   1.348   4.988 -0.1995 -0.3559  0.0319
 8743TIP3    H126193   4.824   1.371   4.950 -0.9162 -1.8202  0.6786
 8743TIP3    H226194   4.890   1.337   5.082  0.4821 -1.6574  0.0354
 8744TIP3   OH226195   2.426   3.688   4.879 -0.2857 -0.0169 -0.3570
 8744TIP3    H126196   2.477   3.713   4.802  0.6822 -0.4472  0.1240
 8744TIP3    H226197   2.477   3.618   4.920 -1.0625 -0.1747  0.3730
 8745TIP3   OH226198   5.121   3.715   3.351  0.1493  0.2180 -0.1540
 8745TIP3    H126199   5.187   3.726   3.419  0.4116 -1.4665 -0.0850
 8745TIP3    H226200   5.172   3.700   3.271 -0.1605  1.0532 -0.5172
 8746TIP3   OH226201   6.952   6.217   3.863 -0.5621 -0.4963  0.3032
 8746TIP3    H126202   7.004   6.144   3.832  0.5029  0.1211  0.5945
 8746TIP3    H226203   6.869   6.209   3.816  1.0811  0.6339 -3.0839
 8747TIP3   OH226204   5.574   1.805   2.971  0.3219 -0.2152  0.2042
 8747TIP3    H126205   5.668   1.816   2.957  0.1844  0.7030 -0.0794
 8747TIP3    H226206   5.546   1.749   2.899  0.3896  0.8122 -0.6442
 8748TIP3   OH226207   6.031   4.698   5.221  0.1332  0.0578 -0.1848
 8748TIP3    H126208   6.048   4.627   5.160  1.2911  1.3555 -1.4581
 8748TIP3    H226209   5.936   4.700   5.230  0.0044 -0.7576 -1.1994
 8749TIP3   OH226210   6.701   0.501   1.491  0.3828  0.0497 -0.1290
 8749TIP3    H126211   6.775   0.533   1.439  0.9108 -1.6226 -0.4728
 8749TIP3    H226212   6.692   0.565   1.561  2.3130  0.1784  0.0641
 8750TIP3   OH226213   4.702   2.764   4.514 -0.2204 -0.1154 -0.4247
 8750TIP3    H126214   4.723   2.736   4.425  1.6584  0.0553 -0.0798
 8750TIP3    H226215   4.622   2.716   4.536 -0.6540 -0.2494 -2.1433
 8751TIP3   OH226216   5.707   6.702   3.255  0.0015  0.4329 -0.0632
 8751TIP3    H126217   5.668   6.785   3.285 -0.6223  0.0208  0.2812
 8751TIP3    H226218   5.796   6.703   3.292 -0.7486 -0.0810  1.8841
 8752TIP3   OH226219   5.296   1.390   4.046 -0.0829 -0.3309 -0.1608
 8752TIP3    H126220   5.221   1.330   4.038 -0.9127  0.7174 -0.3646
 8752TIP3    H226221   5.295   1.417   4.137 -1.1081  1.1184 -0.5646
 8753TIP3   OH226222   5.472   1.327   2.053 -0.0899 -0.0189 -0.0320
 8753TIP3    H126223   5.567   1.318   2.064 -0.2423 -2.0623  0.1128
 8753TIP3    H226224   5.462   1.357   1.963  0.7109  1.2583  0.2834
 8754TIP3   OH226225   2.307   6.688   4.958 -0.6083  0.3613 -0.2403
 8754TIP3    H126226   2.394   6.727   4.970 -0.8917  0.5900  1.3490
 8754TIP3    H226227   2.324   6.597   4.934  0.0590  0.8023 -1.5097
 8755TIP3   OH226228   2.262   2.362   2.594 -0.3396 -0.6695 -0.6907
 8755TIP3    H126229   2.356   2.380   2.592 -0.4116 -0.1501  0.1680
 8755TIP3    H226230   2.257   2.266   2.593  0.3040 -0.7838  1.4874
 8756TIP3   OH226231   1.926   3.839   4.007 -0.3410 -0.2276  0.5107
 8756TIP3    H126232   1.952   3.805   4.093  1.1600  3.0149  1.5021
 8756TIP3    H226233   1.983   3.792   3.946  1.4269  0.1658  1.7505
 8757TIP3   OH226234   2.468   2.026   5.091  0.5295  0.1696  0.0333
 8757TIP3    H126235   2.540   1.968   5.117 -0.0317 -0.6089 -0.1467
 8757TIP3    H226236   2.409   1.971   5.041 -0.6567  0.5804  0.9336
 8758TIP3   OH226237   6.860   1.730   0.633 -0.1880  0.1000 -0.3599
 8758TIP3    H126238   6.920   1.722   0.707 -1.5533  0.8998  0.9080
 8758TIP3    H226239   6.804   1.653   0.639 -0.6113  0.4106 -0.2407
 8759TIP3   OH226240   3.674   1.984   1.059  0.0911  0.2506 -0.4823
 8759TIP3    H126241   3.631   2.001   1.142 -0.4912  0.6101 -0.8511
 8759TIP3    H226242   3.612   2.014   0.993  0.4932 -0.1408 -1.0518
 8760TIP3   OH226243   4.197   5.232   3.050 -0.0839  0.0460  0.9758
 8760TIP3    H126244   4.274   5.285   3.071  0.3732 -0.1313 -0.1820
 8760TIP3    H226245   4.132   5.295   3.017 -0.3183  0.1482  1.6168
 8761TIP3   OH226246   3.057   0.483   4.328  0.3393  0.3102  0.0031
 8761TIP3    H126247   2.988   0.522   4.381 -0.3694  1.7069 -1.8169
 8761TIP3    H226248   3.121   0.554   4.316  0.3578  0.1109 -1.1806
 8762TIP3   OH226249   6.433   0.309   2.465  0.0123  0.4650  0.1633
 8762TIP3    H126250   6.418   0.375   2.398 -0.3433  0.8045  0.5693
 8762TIP3    H226251   6.373   0.332   2.536  0.5304  0.2373  0.6898
 8763TIP3   OH226252   4.096   0.729   5.731 -0.1027 -0.1323 -0.0387
 8763TIP3    H126253   4.126   0.755   5.644  1.2011  0.8726  0.6745
 8763TIP3    H226254   4.162   0.765   5.791 -1.0667 -0.6431  1.3807
 8764TIP3   OH226255   3.830   2.509   4.291 -0.3439 -0.7679  0.6210
 8764TIP3    H126256   3.759   2.507   4.355 -1.3711 -0.3927 -0.4878
 8764TIP3    H226257   3.799   2.455   4.219  0.1648  0.0350 -0.2146
 8765TIP3   OH226258   1.009   2.011   4.404 -0.0487 -0.2246 -0.0521
 8765TIP3    H126259   1.097   1.973   4.405  0.7313  1.4954  0.7747
 8765TIP3    H226260   0.960   1.959   4.468  0.3303 -1.2011 -0.5256
 8766TIP3   OH226261   3.823   1.154   5.497  0.1881  0.7315 -0.0951
 8766TIP3    H126262   3.847   1.171   5.588  0.5446 -1.6278  0.3097
 8766TIP3    H226263   3.906   1.158   5.449  0.7766 -2.3057  0.4662
 8767TIP3   OH226264   4.607   0.588   0.195 -0.2640 -0.0355 -0.0485
 8767TIP3    H126265   4.617   0.517   0.132 -3.7003 -0.1348 -0.6487
 8767TIP3    H226266   4.639   0.666   0.148 -1.2295 -0.3773 -1.3344
 8768TIP3   OH226267   0.504   5.253   4.527 -0.1243  0.2251  0.2373
 8768TIP3    H126268   0.450   5.299   4.464 -0.0418 -1.4060 -1.0715
 8768TIP3    H226269   0.534   5.322   4.587 -0.2215  1.8219 -1.4625
 8769TIP3   OH226270   5.544   4.073   4.518  0.1141 -0.4314 -0.2920
 8769TIP3    H126271   5.629   4.057   4.560 -0.3722  1.3611  1.5056
 8769TIP3    H226272   5.488   4.002   4.550  0.1400  0.1095  1.0076
 8770TIP3   OH226273   3.933   4.389   3.338 -0.0530  0.0485  0.1364
 8770TIP3    H126274   4.001   4.357   3.397 -0.7701  0.9966  1.5262
 8770TIP3    H226275   3.955   4.481   3.324 -1.0215  0.3499  0.5680
 8771TIP3   OH226276   7.060   1.507   3.546  0.2676 -0.2235  0.0907
 8771TIP3    H126277   7.095   1.533   3.631  0.7462 -1.6663  0.3704
 8771TIP3    H226278   7.121   1.441   3.514 -0.6647 -0.7250 -0.7323
 8772TIP3   OH226279   1.391   6.461   2.532 -0.4617 -0.0818  0.3127
 8772TIP3    H126280   1.476   6.419   2.522  0.2819  1.2361  0.7847
 8772TIP3    H226281   1.373   6.500   2.447 -1.1260 -1.2501 -0.1086
 8773TIP3   OH226282   0.235   6.754   5.109  0.5239  0.2756  0.6273
 8773TIP3    H126283   0.154   6.740   5.158  0.1406  0.3221  0.0129
 8773TIP3    H226284   0.303   6.721   5.167  0.0931  0.4430  1.2472
 8774TIP3   OH226285   3.273   4.844   2.770  0.2041 -0.3126  0.3904
 8774TIP3    H126286   3.181   4.834   2.793 -0.2238  2.6988  0.4095
 8774TIP3    H226287   3.320   4.839   2.853 -0.3210  1.1527  0.8072
 8775TIP3   OH226288   6.327   4.349   1.518 -0.0613 -0.1904  0.2044
 8775TIP3    H126289   6.281   4.398   1.449 -0.9380  0.2527  1.0815
 8775TIP3    H226290   6.420   4.362   1.498 -0.2733  1.2118 -0.0240
 8776TIP3   OH226291   3.179   2.821   1.881  0.4913 -0.3104  0.5005
 8776TIP3    H126292   3.130   2.755   1.832  1.6354 -0.8883  0.1184
 8776TIP3    H226293   3.202   2.778   1.964  1.7348 -0.6215  0.0167
 8777TIP3   OH226294   0.475   4.552   3.944 -0.7420  0.1231 -0.5696
 8777TIP3    H126295   0.421   4.490   3.993 -1.9436 -0.2621 -2.2849
 8777TIP3    H226296   0.474   4.519   3.854  0.9323  1.1000 -0.9908
 8778TIP3   OH226297   2.535   4.167   1.789  0.3893  0.0875 -0.1978
 8778TIP3    H126298   2.516   4.109   1.863 -0.5483  0.5876 -0.0273
 8778TIP3    H226299   2.629   4.183   1.794  0.0783  1.5975  2.0201
 8779TIP3   OH226300   3.808   1.470   2.681  0.3167 -0.0270  0.3173
 8779TIP3    H126301   3.768   1.413   2.746  0.4711  0.9664  1.3293
 8779TIP3    H226302   3.790   1.559   2.712  0.5646  0.4772 -0.9019
 8780TIP3   OH226303   5.088   0.978   1.052 -0.1911 -0.0949 -0.1778
 8780TIP3    H126304   5.161   0.917   1.061 -0.2674 -0.0557  0.7476
 8780TIP3    H226305   5.010   0.922   1.054 -0.1975 -0.2160 -1.8639
 8781TIP3   OH226306   2.453   3.990   0.268  0.2557 -0.4001 -0.5327
 8781TIP3    H126307   2.402   3.998   0.349  0.7304 -1.4591 -0.1016
 8781TIP3    H226308   2.517   3.921   0.287  0.8727 -0.1333 -1.5616
 8782TIP3   OH226309   2.222   5.166   2.942  0.0029 -0.6024 -0.3378
 8782TIP3    H126310   2.291   5.115   2.985 -0.5470 -0.7902  0.3388
 8782TIP3    H226311   2.145   5.153   2.997 -0.5824 -0.4079 -1.0976
 8783TIP3   OH226312   7.142   3.517   3.954 -0.0193 -0.3866  0.8346
 8783TIP3    H126313   7.135   3.597   3.903 -1.1998 -0.1210  1.3742
 8783TIP3    H226314   7.226   3.524   3.999  0.3937  0.0167  0.0225
 8784TIP3   OH226315   0.053   2.950   4.869 -0.2801  0.2025 -0.0014
 8784TIP3    H126316   0.083   2.948   4.778 -0.1770  0.7872  0.0171
 8784TIP3    H226317  -0.024   3.006   4.868 -0.3099  0.1696  0.2642
 8785TIP3   OH226318   4.897   6.830   4.905  0.0208  0.3392 -0.2815
 8785TIP3    H126319   4.917   6.811   4.997  1.8511 -1.5457 -1.0159
 8785TIP3    H226320   4.869   6.746   4.868  1.9341  0.3920 -2.0543
 8786TIP3   OH226321   0.774   6.144   4.162  0.6339 -0.6286 -0.2040
 8786TIP3    H126322   0.716   6.220   4.158  1.4363 -0.0224 -0.7613
 8786TIP3    H226323   0.788   6.131   4.256  0.7525  0.1331 -0.1026
 8787TIP3   OH226324   3.040   6.348   1.370 -0.1803 -0.5173  0.3802
 8787TIP3    H126325   2.995   6.274   1.330  0.8677 -0.2292 -1.4453
 8787TIP3    H226326   3.051   6.411   1.299 -0.3557  1.0816  1.7071
 8788TIP3   OH226327   0.451   1.151   4.785 -0.0118  0.0872  0.0542
 8788TIP3    H126328   0.383   1.145   4.718 -0.3294  0.4532  0.3392
 8788TIP3    H226329   0.518   1.208   4.746 -0.9020  1.5855  0.6166
 8789TIP3   OH226330   3.612   5.852   1.505 -0.8054 -0.6976 -0.2503
 8789TIP3    H126331   3.675   5.782   1.522  0.3291  0.1713 -0.6722
 8789TIP3    H226332   3.614   5.863   1.410  0.4654  1.1105 -0.0815
 8790TIP3   OH226333   0.442   1.160   4.092  0.2006  0.4651 -0.6789
 8790TIP3    H126334   0.440   1.090   4.027 -0.5892  0.2427 -0.4297
 8790TIP3    H226335   0.360   1.207   4.080 -0.0260  0.3304  0.2406
 8791TIP3   OH226336   2.975   2.547   3.014  0.6479 -0.3280  0.0324
 8791TIP3    H126337   2.887   2.513   3.002  0.9777 -0.5668 -2.0334
 8791TIP3    H226338   3.006   2.505   3.094 -1.3360  0.3212  1.2125
 8792TIP3   OH226339   6.849   2.519   4.424  0.4074 -0.1361  0.0621
 8792TIP3    H126340   6.772   2.463   4.417 -0.4606  1.0286  0.0790
 8792TIP3    H226341   6.922   2.464   4.393 -0.4903 -1.0955 -0.3964
 8793TIP3   OH226342   6.128   2.255   4.029  0.3546 -0.0207  0.0068
 8793TIP3    H126343   6.157   2.307   3.953  1.4490 -1.2025 -0.4340
 8793TIP3    H226344   6.108   2.169   3.992 -0.8309 -0.1161  0.8157
 8794TIP3   OH226345   6.851   3.073   5.102 -0.7100  0.2213  0.0855
 8794TIP3    H126346   6.822   3.147   5.155 -0.5760  1.1744 -1.1309
 8794TIP3    H226347   6.803   3.082   5.020 -0.6459 -1.0219 -0.1091
 8795TIP3   OH226348   1.784   0.960   4.172 -0.0488  0.0860  0.2850
 8795TIP3    H126349   1.798   1.035   4.116 -1.8727 -0.5102 -1.0790
 8795TIP3    H226350   1.821   0.985   4.257  2.1481  1.2673 -0.9667
 8796TIP3   OH226351   4.732   5.243   3.273  0.1811 -0.0545 -0.0593
 8796TIP3    H126352   4.763   5.237   3.182 -0.7850 -1.4974 -0.3134
 8796TIP3    H226353   4.813   5.245   3.325  0.7338 -0.0795 -0.8910
 8797TIP3   OH226354   3.236   4.013   3.544  0.0751  0.1661  0.3489
 8797TIP3    H126355   3.169   3.964   3.495 -0.1186  1.5483 -0.8844
 8797TIP3    H226356   3.187   4.057   3.614 -0.5376  1.7747 -0.9982
 8798TIP3   OH226357   4.877   3.348   0.188 -0.4056 -0.2889  0.3960
 8798TIP3    H126358   4.915   3.431   0.215 -0.1100 -0.6837  1.2189
 8798TIP3    H226359   4.881   3.293   0.266 -1.7620 -0.6647  0.2289
 8799TIP3   OH226360   1.484   3.005   1.479  0.2986 -0.2307  0.2248
 8799TIP3    H126361   1.437   3.062   1.419  0.6189 -0.1772  0.0236
 8799TIP3    H226362   1.416   2.969   1.536 -0.1282 -0.9973 -0.7429
 8800TIP3   OH226363   3.076   0.285   0.980  0.2650 -0.1474  0.0153
 8800TIP3    H126364   3.105   0.196   0.998  1.3259  0.1956  0.0537
 8800TIP3    H226365   3.105   0.335   1.057  0.9906  0.5050 -0.6684
 8801TIP3   OH226366   7.223   4.170   3.918 -0.3632 -0.2618  0.5527
 8801TIP3    H126367   7.223   4.117   3.998 -2.8764 -0.5269  0.4605
 8801TIP3    H226368   7.145   4.225   3.925  0.6000  1.3519 -0.7056
 8802TIP3   OH226369   4.595   0.148   4.163  0.3215 -0.1286 -0.0910
 8802TIP3    H126370   4.521   0.208   4.165 -0.0744 -0.4993 -1.7983
 8802TIP3    H226371   4.558   0.065   4.133  0.8028 -1.3922  2.5108
 8803TIP3   OH226372   0.278   0.556   5.833 -0.2069  0.5536 -0.5004
 8803TIP3    H126373   0.278   0.501   5.755 -1.1076 -0.0388 -0.0992
 8803TIP3    H226374   0.233   0.503   5.900  1.3066  0.6814  0.6825
 8804TIP3   OH226375   3.341   3.567   1.662 -0.0422 -0.0092  0.6756
 8804TIP3    H126376   3.413   3.550   1.602 -1.5432 -1.3189 -0.8509
 8804TIP3    H226377   3.326   3.484   1.707 -0.2022  0.4217  1.4523
 8805TIP3   OH226378   1.813   5.689   3.026 -0.0182 -0.6597 -0.4452
 8805TIP3    H126379   1.763   5.685   2.945 -0.1043  2.0698 -0.6225
 8805TIP3    H226380   1.749   5.668   3.095 -1.2066  1.5620 -0.7668
 8806TIP3   OH226381   3.536   6.489   2.599  0.1915 -0.5191 -0.0811
 8806TIP3    H126382   3.588   6.434   2.658  1.0649  0.5894  0.2213
 8806TIP3    H226383   3.461   6.516   2.651  1.4324  1.2229  0.9045
 8807TIP3   OH226384   0.767   3.749   1.316  0.2041 -0.0740  0.2949
 8807TIP3    H126385   0.777   3.700   1.235 -1.1768 -1.5912  0.9811
 8807TIP3    H226386   0.686   3.798   1.305  0.9056  1.1044  0.1260
 8808TIP3   OH226387   4.221   2.519   3.728  0.3200 -0.2911 -0.5839
 8808TIP3    H126388   4.133   2.556   3.742  0.9087  0.6627  0.8296
 8808TIP3    H226389   4.268   2.540   3.809  1.8133 -0.9230 -1.2685
 8809TIP3   OH226390   2.275   3.019   5.411  0.2972 -0.5949 -0.3002
 8809TIP3    H126391   2.289   3.077   5.336 -1.4191 -1.2202 -1.1619
 8809TIP3    H226392   2.208   3.064   5.463 -0.6223 -1.5090 -0.6727
 8810TIP3   OH226393   0.145   5.443   5.254  0.3628 -0.4154 -0.6642
 8810TIP3    H126394   0.142   5.374   5.188  0.2914  1.5192 -2.7906
 8810TIP3    H226395   0.219   5.498   5.229 -1.1978  1.8052 -0.7135
 8811TIP3   OH226396   4.066   1.105   1.786 -0.2273 -0.4561 -0.2724
 8811TIP3    H126397   4.026   1.142   1.708  0.5374  0.2370 -0.3468
 8811TIP3    H226398   4.004   1.038   1.815 -1.6987  0.9283 -0.0840
 8812TIP3   OH226399   3.448   3.568   3.781  0.1435 -0.0528  0.0287
 8812TIP3    H126400   3.453   3.552   3.687  0.9170 -0.0016  0.0564
 8812TIP3    H226401   3.533   3.539   3.815  0.7535  2.0316  0.3928
 8813TIP3   OH226402   0.600   0.609   1.047 -0.0508 -0.0588 -0.7345
 8813TIP3    H126403   0.547   0.534   1.022 -1.0689  0.5656 -0.5055
 8813TIP3    H226404   0.651   0.578   1.122 -0.9222 -0.3439 -0.2407
 8814TIP3   OH226405   5.055   2.940   3.679  0.7425  0.5568 -0.2143
 8814TIP3    H126406   5.136   2.897   3.652  0.7969 -0.0140  0.8062
 8814TIP3    H226407   5.082   3.000   3.748 -0.1632 -2.7431  3.3130
 8815TIP3   OH226408   1.656   4.453   0.378  0.0133  0.0565 -0.1127
 8815TIP3    H126409   1.748   4.443   0.403 -0.5284 -0.4304  1.8835
 8815TIP3    H226410   1.645   4.397   0.302  0.7821 -2.1058  1.2821
 8816TIP3   OH226411   2.720   0.942   1.998 -0.7260 -0.0051 -0.4988
 8816TIP3    H126412   2.651   0.987   2.048 -1.8081 -1.5686 -0.4994
 8816TIP3    H226413   2.705   0.968   1.908  0.5898  2.0069 -0.2093
 8817TIP3   OH226414   3.081   5.937   0.583 -0.4963 -0.3947 -0.3726
 8817TIP3    H126415   3.059   5.979   0.667 -2.8448 -0.7771 -0.7304
 8817TIP3    H226416   3.169   5.969   0.563 -0.8838  1.7618  0.9793
 8818TIP3   OH226417   6.145   3.170   3.219 -0.3617  0.6262 -0.1802
 8818TIP3    H126418   6.188   3.176   3.134 -0.5432  0.7429 -0.2647
 8818TIP3    H226419   6.137   3.076   3.236  0.6162  0.6041  0.1895
 8819TIP3   OH226420   5.665   5.137   2.643  0.6509 -0.4620  0.0529
 8819TIP3    H126421   5.708   5.108   2.723 -2.2709 -1.0291  1.5490
 8819TIP3    H226422   5.668   5.061   2.584  0.1475 -1.0787  0.8150
 8820TIP3   OH226423   0.066   6.019   4.759  0.3697 -0.1481  0.5438
 8820TIP3    H126424   0.058   5.924   4.746 -0.7484  0.0093 -0.0872
 8820TIP3    H226425  -0.018   6.045   4.796  0.6106  0.6269  0.5660
 8821TIP3   OH226426   2.330   0.515   4.300  0.2832  0.0919  0.5971
 8821TIP3    H126427   2.249   0.466   4.287 -0.1041  1.0797 -0.9796
 8821TIP3    H226428   2.375   0.469   4.371 -2.2997  0.3540  2.5625
 8822TIP3   OH226429   3.279   6.546   2.406 -0.8909  0.5921  0.4343
 8822TIP3    H126430   3.303   6.628   2.449  1.1306 -0.3861  1.3150
 8822TIP3    H226431   3.305   6.558   2.315  0.2218  0.6635  0.7418
 8823TIP3   OH226432   1.388   3.219   2.568  0.0422 -0.5250 -0.1014
 8823TIP3    H126433   1.342   3.136   2.579 -1.0229  0.2202  1.4029
 8823TIP3    H226434   1.329   3.284   2.605  0.9072  0.9009 -1.1473
 8824TIP3   OH226435   3.016   5.994   4.511  0.0255 -0.4878 -0.3500
 8824TIP3    H126436   2.921   5.993   4.496 -0.0010 -0.4334 -0.1874
 8824TIP3    H226437   3.036   6.085   4.532  0.3892 -0.1321 -2.1320
 8825TIP3   OH226438   1.065   5.557   4.321 -0.5306 -0.5459  0.1705
 8825TIP3    H126439   1.126   5.491   4.354 -0.9146 -1.0985 -0.1941
 8825TIP3    H226440   0.980   5.514   4.324 -0.8378  0.0654  0.2634
 8826TIP3   OH226441   5.410   6.567   1.058 -0.5312  0.1309 -0.1947
 8826TIP3    H126442   5.454   6.509   1.120 -0.3414  1.3603  0.8626
 8826TIP3    H226443   5.320   6.534   1.056 -0.1468 -0.9568 -0.5826
 8827TIP3   OH226444   1.310   1.372   1.866 -0.0838  0.0895 -0.4935
 8827TIP3    H126445   1.304   1.284   1.903 -1.6419 -0.3149 -1.5819
 8827TIP3    H226446   1.277   1.430   1.935  2.3322  0.0563  0.7905
 8828TIP3   OH226447   1.757   1.942   5.582  0.3709  0.6330 -0.1507
 8828TIP3    H126448   1.718   2.030   5.588  3.1310  1.9573 -0.1375
 8828TIP3    H226449   1.835   1.947   5.638  0.7040 -1.7928 -0.3066
 8829TIP3   OH226450   5.831   4.766   4.435 -0.0639 -0.2679 -0.1417
 8829TIP3    H126451   5.741   4.740   4.416  0.2788 -0.7492 -1.1606
 8829TIP3    H226452   5.885   4.694   4.402  0.9193  1.6470 -3.0781
 8830TIP3   OH226453   0.434   5.042   2.263 -0.4445  0.5826  0.0619
 8830TIP3    H126454   0.361   5.099   2.289 -0.8801  0.6132 -1.1847
 8830TIP3    H226455   0.399   4.953   2.269 -0.0386  0.4845  1.1400
 8831TIP3   OH226456   3.416   5.204   4.618 -0.1603 -0.2845  0.3501
 8831TIP3    H126457   3.357   5.263   4.664 -1.1645  0.3281 -1.6059
 8831TIP3    H226458   3.359   5.141   4.573  0.7538 -0.8799 -0.0361
 8832TIP3   OH226459   4.850   1.439   0.992  0.1517 -0.1234 -0.2091
 8832TIP3    H126460   4.934   1.398   0.969  0.3128 -0.5907  1.1449
 8832TIP3    H226461   4.863   1.470   1.082 -1.6938 -1.7830  0.6902
 8833TIP3   OH226462   5.822   3.369   4.958  0.3410 -0.4828 -0.1181
 8833TIP3    H126463   5.789   3.420   5.032 -0.9641 -0.4299 -0.7087
 8833TIP3    H226464   5.886   3.310   4.997  0.0042 -0.1531  0.9845
 8834TIP3   OH226465   2.781   5.220   4.783  0.8259 -0.2002  0.0412
 8834TIP3    H126466   2.774   5.252   4.873 -0.6222 -0.6692  0.1284
 8834TIP3    H226467   2.700   5.248   4.742  1.7064  0.4748 -1.2985
 8835TIP3   OH226468   3.032   6.346   0.019 -0.1683  0.0979  0.0468
 8835TIP3    H126469   3.007   6.268  -0.030 -0.3736 -0.1139  0.4853
 8835TIP3    H226470   2.952   6.399   0.022 -0.8877 -1.0136  2.2813
 8836TIP3   OH226471   2.133   1.799   0.318  0.4776  0.4445 -0.5081
 8836TIP3    H126472   2.140   1.837   0.406 -0.9014 -1.7623  0.6620
 8836TIP3    H226473   2.175   1.713   0.326  0.0749  0.0898 -1.9422
 8837TIP3   OH226474   1.397   2.689   5.223  0.3735 -0.3070  0.0791
 8837TIP3    H126475   1.373   2.712   5.133 -0.4676 -0.1840  0.3305
 8837TIP3    H226476   1.318   2.650   5.260  0.6749 -0.2338  0.8111
 8838TIP3   OH226477   1.998   5.094   5.193 -0.5353 -0.4920  0.9419
 8838TIP3    H126478   2.079   5.067   5.151 -0.5976  1.8710 -0.9148
 8838TIP3    H226479   2.009   5.071   5.285  1.4971 -1.7644  0.4341
 8839TIP3   OH226480   4.405   2.163   3.960  0.3188 -0.3180 -0.1992
 8839TIP3    H126481   4.333   2.153   4.022  0.4334  1.0943  0.1944
 8839TIP3    H226482   4.482   2.179   4.014  0.1971  2.2624 -0.6603
 8840TIP3   OH226483   3.169   0.790   5.822  0.0313  0.1244  0.4203
 8840TIP3    H126484   3.223   0.734   5.878  0.3128 -1.2986 -1.1909
 8840TIP3    H226485   3.213   0.790   5.738 -2.9184 -2.0833 -1.3600
 8841TIP3   OH226486   2.833   5.990   1.585  0.6110 -0.0157 -0.1523
 8841TIP3    H126487   2.750   6.036   1.595  0.3201 -0.8193  1.4813
 8841TIP3    H226488   2.818   5.930   1.512 -0.7064 -1.0431  0.9093
 8842TIP3   OH226489   5.472   4.418   4.064 -0.0613  0.5369  0.2448
 8842TIP3    H126490   5.524   4.498   4.057 -0.4664  0.6875 -1.1883
 8842TIP3    H226491   5.536   4.347   4.056 -0.0672  0.7181 -1.7484
 8843TIP3   OH226492   0.116   0.093   5.751  0.1076 -0.2220 -0.2888
 8843TIP3    H126493   0.180   0.065   5.817  0.9521 -0.5991 -1.2377
 8843TIP3    H226494   0.055   0.150   5.799  1.5953  0.7859  0.4791
 8844TIP3   OH226495   5.479   2.414   1.873 -0.4980 -0.3393 -0.2133
 8844TIP3    H126496   5.573   2.403   1.890 -0.3255  0.4491 -0.6303
 8844TIP3    H226497   5.437   2.372   1.948  0.2101  0.5366  0.7114
 8845TIP3   OH226498   4.690   4.155   3.307  0.2349 -0.3324  0.4016
 8845TIP3    H126499   4.710   4.198   3.224  1.6537 -0.8063  0.4823
 8845TIP3    H226500   4.682   4.062   3.285  0.1212 -0.4013  0.7232
 8846TIP3   OH226501   6.816   3.705   2.494 -0.7689  0.4086 -0.0266
 8846TIP3    H126502   6.730   3.745   2.487 -0.9429 -0.0950 -1.0563
 8846TIP3    H226503   6.835   3.674   2.405  0.4542  0.4715  0.1919
 8847TIP3   OH226504   2.925   5.333   3.060  0.2990  0.0268 -0.3214
 8847TIP3    H126505   2.961   5.382   2.985 -0.6508  2.8816  0.9629
 8847TIP3    H226506   2.836   5.365   3.069 -0.2346 -1.6705  0.9108
 8848TIP3   OH226507   2.528   2.902   2.202 -0.0118  0.0426  0.8416
 8848TIP3    H126508   2.519   2.831   2.138  1.8742  0.1384  0.4129
 8848TIP3    H226509   2.616   2.891   2.237  0.5351  2.4665  0.3945
 8849TIP3   OH226510   4.798   1.134   3.551  0.3597  0.2296 -0.0301
 8849TIP3    H126511   4.830   1.052   3.514  0.7176 -0.0735  0.9208
 8849TIP3    H226512   4.777   1.112   3.642  0.6656  1.2434  0.2930
 8850TIP3   OH226513   5.482   4.020   1.935 -0.8780  0.3569 -0.4052
 8850TIP3    H126514   5.526   4.105   1.931  0.3811 -0.2551  0.0914
 8850TIP3    H226515   5.428   4.025   2.014  0.5145  0.1116  0.6077
 8851TIP3   OH226516   2.327   3.217   5.229 -0.4455 -0.2088  0.9151
 8851TIP3    H126517   2.409   3.261   5.207  1.1165 -2.2677  2.2427
 8851TIP3    H226518   2.268   3.287   5.256  1.0578  1.2710  0.5052
 8852TIP3   OH226519   0.738   3.157   5.140 -0.4888 -0.2294 -0.2340
 8852TIP3    H126520   0.786   3.220   5.193 -1.1150 -1.2708  1.6539
 8852TIP3    H226521   0.731   3.199   5.054  0.7366  1.4267  0.4166
 8853TIP3   OH226522   1.966   0.279   0.268  0.3010  0.2738 -0.2794
 8853TIP3    H126523   1.920   0.302   0.187 -0.4598 -0.5179 -0.0926
 8853TIP3    H226524   1.927   0.336   0.335 -0.4267 -0.3937 -0.1224
 8854TIP3   OH226525   0.812   3.607   2.448  0.2502  0.3827  0.5296
 8854TIP3    H126526   0.850   3.554   2.378 -1.9231 -2.8333  1.5470
 8854TIP3    H226527   0.746   3.661   2.405 -1.3307 -1.8334 -0.0090
 8855TIP3   OH226528   5.865   1.013   5.636  0.2461  0.1680 -0.1392
 8855TIP3    H126529   5.886   0.955   5.710  0.1217  0.4460  0.1183
 8855TIP3    H226530   5.913   0.976   5.562  1.2537  0.4986  0.3219
 8856TIP3   OH226531   1.016   4.405   5.055  0.2754 -0.1032  0.2354
 8856TIP3    H126532   1.070   4.341   5.101 -0.5495 -1.1396 -0.1841
 8856TIP3    H226533   1.062   4.420   4.972 -0.2096 -1.2498 -0.2724
 8857TIP3   OH226534   6.820   3.814   1.699  0.0738  0.6205 -0.0600
 8857TIP3    H126535   6.783   3.892   1.741  0.5259  0.9336 -0.2286
 8857TIP3    H226536   6.913   3.817   1.721  0.2078  0.4725 -0.5963
 8858TIP3   OH226537   1.050   5.089   0.406 -0.0545 -0.0573  0.3195
 8858TIP3    H126538   0.973   5.130   0.365 -0.6659  0.6835  2.1026
 8858TIP3    H226539   1.124   5.126   0.359 -0.7502 -0.6048 -1.2899
 8859TIP3   OH226540   1.643   1.297   3.368  0.0121  0.5100  0.0425
 8859TIP3    H126541   1.608   1.245   3.296  1.6949  1.4431 -1.5641
 8859TIP3    H226542   1.680   1.233   3.428 -1.2592 -0.2844  0.0175
 8860TIP3   OH226543   3.233   1.294   4.790 -0.1539  0.4867  0.4431
 8860TIP3    H126544   3.155   1.347   4.810 -0.4176  0.3727 -0.2600
 8860TIP3    H226545   3.246   1.306   4.696 -0.3775 -0.9083  0.2166
 8861TIP3   OH226546   1.985   2.113   4.177 -0.2596  0.4794  0.0395
 8861TIP3    H126547   1.922   2.135   4.245 -0.6431 -2.0885  0.6063
 8861TIP3    H226548   2.060   2.076   4.224  0.5279  0.9612 -0.8016
 8862TIP3   OH226549   3.492   3.054   3.020  0.2556  0.3056 -0.5417
 8862TIP3    H126550   3.492   3.023   2.929 -0.0991  0.1497 -0.4917
 8862TIP3    H226551   3.551   2.994   3.065  0.0413  0.0724 -0.5687
 8863TIP3   OH226552   0.761   2.196   3.968 -0.1618 -0.2352  0.5683
 8863TIP3    H126553   0.687   2.206   3.909 -1.3239 -3.8526  1.1700
 8863TIP3    H226554   0.737   2.246   4.046 -0.9794  0.3271 -0.0336
 8864TIP3   OH226555   4.962   2.132   0.374  0.6175  0.3454 -0.6360
 8864TIP3    H126556   4.966   2.228   0.370  1.2140  0.2880 -1.7947
 8864TIP3    H226557   5.053   2.105   0.382  0.5154 -0.1557 -1.1347
 8865TIP3   OH226558   0.589   6.442   1.241 -0.3478 -0.3686  0.1318
 8865TIP3    H126559   0.684   6.446   1.255 -0.2409 -0.7642 -0.4451
 8865TIP3    H226560   0.562   6.533   1.234  0.0402 -0.2649 -0.0475
 8866TIP3   OH226561   0.994   4.779   5.084  0.4646  0.3971 -0.0819
 8866TIP3    H126562   1.033   4.716   5.023  0.3173  1.4195 -1.2877
 8866TIP3    H226563   0.908   4.742   5.104  0.6087 -0.0687 -0.3067
 8867TIP3   OH226564   4.299   1.312   5.428 -0.2740 -0.0029 -0.1855
 8867TIP3    H126565   4.285   1.392   5.478  1.6978  0.1226  0.2219
 8867TIP3    H226566   4.370   1.333   5.368 -0.0666 -1.3074 -0.4291
 8868TIP3   OH226567   0.884   3.944   2.451 -0.7884  0.2282 -0.0711
 8868TIP3    H126568   0.811   3.894   2.414  0.1314 -0.6022 -0.8216
 8868TIP3    H226569   0.950   3.943   2.382  0.2058  0.3432  0.8644
 8869TIP3   OH226570   5.400   1.099   4.360  0.8216 -0.3601 -0.0736
 8869TIP3    H126571   5.418   1.115   4.268  0.7155  0.4730  0.0435
 8869TIP3    H226572   5.428   1.179   4.405 -2.1746  0.6118  0.2453
 8870TIP3   OH226573   4.946   3.523   4.094 -0.0414 -0.3147 -0.1609
 8870TIP3    H126574   4.991   3.600   4.129 -1.6132  0.8749 -0.6480
 8870TIP3    H226575   5.015   3.474   4.049  0.5641  2.2467 -2.3051
 8871TIP3   OH226576   3.686   1.716   2.822  0.6987  0.1292  0.1812
 8871TIP3    H126577   3.723   1.771   2.891  0.5697 -2.7144  2.7587
 8871TIP3    H226578   3.612   1.671   2.864 -1.1379  0.1834 -2.6667
 8872TIP3   OH226579   5.989   5.275   3.872 -0.0012  0.7227 -0.6245
 8872TIP3    H126580   5.898   5.290   3.845  0.0162  0.0220 -1.1120
 8872TIP3    H226581   5.987   5.284   3.967 -0.8505 -0.4693 -0.4933
 8873TIP3   OH226582   0.751   4.890   3.862  0.3116  0.3702 -0.0947
 8873TIP3    H126583   0.758   4.883   3.957 -1.1850 -0.8394 -0.0390
 8873TIP3    H226584   0.736   4.801   3.832 -0.5544  0.9031 -1.3467
 8874TIP3   OH226585   2.164   1.922   3.428 -0.1826  0.0986 -0.0136
 8874TIP3    H126586   2.229   1.851   3.427 -0.9401 -0.6329 -2.1966
 8874TIP3    H226587   2.215   2.002   3.441  0.7842 -0.7243  1.5816
 8875TIP3   OH226588   1.053   1.536   4.105  0.0574 -0.0753 -0.2248
 8875TIP3    H126589   1.145   1.512   4.115  0.1856  0.4101 -0.2099
 8875TIP3    H226590   1.055   1.621   4.060 -0.2782  1.3700  2.3253
 8876TIP3   OH226591   3.512   4.324   4.636  0.1593  0.2109  0.0429
 8876TIP3    H126592   3.539   4.236   4.661  2.7960  1.0275  0.3570
 8876TIP3    H226593   3.558   4.381   4.698 -3.8787  1.7996  1.9388
 8877TIP3   OH226594   7.053   5.669   5.084  0.5162  1.0874  0.2733
 8877TIP3    H126595   7.069   5.620   5.004  1.4072  1.7323  0.0341
 8877TIP3    H226596   7.012   5.750   5.054 -2.5526 -0.1399  0.8001
 8878TIP3   OH226597   3.770   4.748   0.966  0.0729  0.0319  0.4715
 8878TIP3    H126598   3.820   4.829   0.978 -0.5135  0.5478 -0.4183
 8878TIP3    H226599   3.741   4.752   0.875  0.3195 -1.3552  0.3134
 8879TIP3   OH226600   5.311   5.016   1.678 -0.3158 -0.0311  0.6770
 8879TIP3    H126601   5.374   4.948   1.655  0.1740 -0.6561  3.4879
 8879TIP3    H226602   5.226   4.972   1.670 -0.2847  0.1076 -0.7975
 8880TIP3   OH226603   5.597   2.242   5.850  0.0113  0.2500 -0.4097
 8880TIP3    H126604   5.581   2.162   5.799 -1.2662 -0.8426  1.5824
 8880TIP3    H226605   5.655   2.214   5.921  0.8816  1.4917 -0.6030
 8881TIP3   OH226606   2.580   4.164   2.831 -0.0724 -0.7153 -0.1558
 8881TIP3    H126607   2.520   4.184   2.759 -2.9186 -3.3385  1.2258
 8881TIP3    H226608   2.650   4.113   2.791  0.5161  1.0552 -1.5574
 8882TIP3   OH226609   2.255   4.523   0.204  0.4626 -0.2360  0.2549
 8882TIP3    H126610   2.314   4.479   0.143  2.9141 -0.7359  2.7531
 8882TIP3    H226611   2.220   4.451   0.258  0.8878  0.4113  1.4332
 8883TIP3   OH226612   4.663   1.877   5.359 -0.0000 -0.3198 -0.0751
 8883TIP3    H126613   4.638   1.837   5.275  0.6689 -1.3865  0.2089
 8883TIP3    H226614   4.627   1.966   5.355  0.2101 -0.2749 -1.5781
 8884TIP3   OH226615   4.830   5.252   5.575 -0.0407 -0.3075 -0.3833
 8884TIP3    H126616   4.773   5.224   5.646 -2.5883  0.0554 -2.1553
 8884TIP3    H226617   4.830   5.178   5.514 -0.1574  0.4196 -1.2908
 8885TIP3   OH226618   0.431   0.539   1.350 -0.1982  0.8992 -0.1988
 8885TIP3    H126619   0.453   0.451   1.319 -2.7012  0.3644 -0.7031
 8885TIP3    H226620   0.414   0.528   1.443  0.2891  1.0313 -0.0915
 8886TIP3   OH226621   6.824   2.426   0.307  0.2524 -0.0780 -0.6277
 8886TIP3    H126622   6.856   2.354   0.362 -0.3629 -0.2108 -0.4256
 8886TIP3    H226623   6.837   2.504   0.359 -0.5181 -0.2261 -0.1883
 8887TIP3   OH226624   0.731   6.512   0.377 -0.2248  0.4629  0.7798
 8887TIP3    H126625   0.797   6.553   0.320 -0.9342 -0.1324 -0.5193
 8887TIP3    H226626   0.706   6.432   0.331  0.0919 -0.7211  2.5699
 8888TIP3   OH226627   6.402   2.875   3.582  0.3341  0.5824  0.7035
 8888TIP3    H126628   6.354   2.941   3.533 -0.6023 -0.7375 -0.2233
 8888TIP3    H226629   6.483   2.918   3.608  0.6616  1.4904 -1.6180
 8889TIP3   OH226630   5.970   2.355   0.085  0.1802  0.2176 -0.2290
 8889TIP3    H126631   6.037   2.288   0.102  0.6547  0.3620 -1.4320
 8889TIP3    H226632   5.915   2.354   0.163  0.0211 -1.7452 -0.3066
 8890TIP3   OH226633   1.420   5.450   2.721  0.3403 -0.3951  0.5313
 8890TIP3    H126634   1.473   5.370   2.720  0.7788 -0.1110  0.4033
 8890TIP3    H226635   1.397   5.462   2.813 -0.8748 -1.3960  0.3812
 8891TIP3   OH226636   4.882   5.934   1.338  0.1576  0.1909 -0.0660
 8891TIP3    H126637   4.851   6.013   1.294 -0.0082  0.8532  1.1932
 8891TIP3    H226638   4.830   5.863   1.300 -0.1030  0.7645 -0.8002
 8892TIP3   OH226639   4.173   3.911   5.726  0.4430  0.1224  0.2463
 8892TIP3    H126640   4.235   3.972   5.687  2.3869 -1.4939  0.6868
 8892TIP3    H226641   4.172   3.836   5.668 -1.7817  0.4186 -0.1890
 8893TIP3   OH226642   2.645   2.864   0.562  0.6418 -0.2941  0.1678
 8893TIP3    H126643   2.677   2.792   0.617  0.2771  1.1362  2.3851
 8893TIP3    H226644   2.563   2.831   0.525  2.3464 -2.3738 -2.0112
 8894TIP3   OH226645   2.293   3.637   3.735 -0.3386 -0.1341 -0.0852
 8894TIP3    H126646   2.373   3.688   3.724 -0.7165  0.2474 -1.2989
 8894TIP3    H226647   2.311   3.578   3.808  0.3335  1.3007  0.9446
 8895TIP3   OH226648   3.552   6.158   0.335  0.8443 -0.0421  0.3726
 8895TIP3    H126649   3.490   6.230   0.338 -0.5062 -1.1881  1.4228
 8895TIP3    H226650   3.638   6.199   0.342  0.2387  1.5905 -1.1300
 8896TIP3   OH226651   1.349   0.996   4.152  0.4591 -0.0618 -0.0868
 8896TIP3    H126652   1.403   0.919   4.168 -1.1867 -1.4936 -1.0184
 8896TIP3    H226653   1.295   0.972   4.076  1.7716  3.0375 -2.2463
 8897TIP3   OH226654   6.891   0.121   4.154 -0.2361  0.1615  0.3330
 8897TIP3    H126655   6.831   0.113   4.229  1.4591 -1.3811  1.6227
 8897TIP3    H226656   6.956   0.052   4.168  0.8998  0.6921 -1.8878
 8898TIP3   OH226657   3.811   3.841   4.386  0.8530  0.0689 -0.1766
 8898TIP3    H126658   3.757   3.792   4.448 -1.0008 -0.1246 -1.8507
 8898TIP3    H226659   3.794   3.933   4.406  0.3783  0.0082 -0.2964
 8899TIP3   OH226660   3.123   0.950   5.179 -0.1543 -0.3985  0.5905
 8899TIP3    H126661   3.084   1.027   5.220 -0.6785 -0.2037 -0.2580
 8899TIP3    H226662   3.145   0.892   5.252  0.0499  0.4608  1.2203
 8900TIP3   OH226663   3.295   4.272   4.466 -0.0126  0.4239 -0.4659
 8900TIP3    H126664   3.305   4.306   4.555 -0.4872 -2.9401  1.0615
 8900TIP3    H226665   3.382   4.239   4.443 -0.5162 -1.4306  0.1018
 8901TIP3   OH226666   4.444   6.134   1.534  0.1839 -0.1134  0.1232
 8901TIP3    H126667   4.491   6.217   1.527 -1.5523  1.0055  0.9890
 8901TIP3    H226668   4.369   6.144   1.475  0.3750 -1.3827 -0.3548
 8902TIP3   OH226669   4.953   6.314   2.160 -0.0909 -0.0610  0.0452
 8902TIP3    H126670   5.009   6.249   2.118 -1.3170 -1.3951  0.4220
 8902TIP3    H226671   4.871   6.310   2.112 -0.4812  0.5741  0.6402
 8903TIP3   OH226672   6.573   2.998   2.503  0.0482 -0.1593 -0.5537
 8903TIP3    H126673   6.493   2.956   2.470  0.1740 -0.8340 -0.0119
 8903TIP3    H226674   6.636   2.988   2.432 -0.4336  0.6719 -1.1189
 8904TIP3   OH226675   4.062   1.574   5.201  0.0276 -0.1955  0.0625
 8904TIP3    H126676   4.019   1.584   5.117  0.6846  1.0293 -0.1564
 8904TIP3    H226677   4.156   1.581   5.182  0.2238 -0.6155  0.8044
 8905TIP3   OH226678   3.739   5.584   0.349  0.7884 -0.4273  0.1424
 8905TIP3    H126679   3.660   5.530   0.340 -0.0579  0.6494  0.8464
 8905TIP3    H226680   3.724   5.635   0.429  1.9677  0.1706 -0.0029
 8906TIP3   OH226681   5.961   3.555   2.624  0.3221  0.4616  0.7651
 8906TIP3    H126682   5.891   3.620   2.631 -0.4147 -0.1688 -0.4289
 8906TIP3    H226683   6.023   3.592   2.562  0.3829  0.4394  0.8126
 8907TIP3   OH226684   1.720   1.662   4.051  0.5005  0.1765 -0.2531
 8907TIP3    H126685   1.796   1.691   4.102  0.9502  0.3918 -1.0422
 8907TIP3    H226686   1.659   1.736   4.055  1.2302  0.8672 -1.4165
 8908TIP3   OH226687   6.549   4.939   1.352  0.2676  0.2779  0.3569
 8908TIP3    H126688   6.552   5.034   1.345 -1.5289  0.3937  0.6006
 8908TIP3    H226689   6.526   4.922   1.443 -0.3976 -0.3476  0.0853
 8909TIP3   OH226690   2.795   6.652   4.112  0.1936 -0.1485  0.0076
 8909TIP3    H126691   2.866   6.696   4.065  3.3622 -1.5597  3.0119
 8909TIP3    H226692   2.794   6.693   4.199 -1.1288 -1.6953  0.7925
 8910TIP3   OH226693   1.161   5.284   4.378  0.0700 -0.5661 -0.1589
 8910TIP3    H126694   1.234   5.260   4.321  1.1699  2.3515 -0.1570
 8910TIP3    H226695   1.203   5.308   4.461 -0.8128  1.3914 -0.2332
 8911TIP3   OH226696   4.903   6.689   3.754 -0.2072 -0.3297 -0.4166
 8911TIP3    H126697   4.907   6.776   3.794  2.3419 -1.1673  1.3814
 8911TIP3    H226698   4.850   6.637   3.815 -0.1468 -0.4964 -0.5061
 8912TIP3   OH226699   2.140   5.646   1.048  0.5511 -0.0319  0.1234
 8912TIP3    H126700   2.146   5.610   1.136  0.9514  0.1935  0.1871
 8912TIP3    H226701   2.222   5.620   1.005  0.5864  0.3047 -0.0157
 8913TIP3   OH226702   1.792   5.791   5.338  0.0308 -0.4639 -0.4962
 8913TIP3    H126703   1.780   5.728   5.267  0.5411 -0.2861 -0.7446
 8913TIP3    H226704   1.723   5.856   5.325  0.0600 -0.4869 -0.7688
 8914TIP3   OH226705   5.449   1.577   3.897 -0.2840 -0.4695  0.6078
 8914TIP3    H126706   5.407   1.566   3.983  0.8316 -1.1903  1.0852
 8914TIP3    H226707   5.525   1.519   3.900  0.9308  1.0158 -0.1175
 8915TIP3   OH226708   0.895   5.809   5.088 -0.4243  0.5835  0.3389
 8915TIP3    H126709   0.954   5.736   5.069 -1.7209 -0.6328  0.8428
 8915TIP3    H226710   0.831   5.807   5.016 -1.2612  0.3529  1.0745
 8916TIP3   OH226711   7.110   3.996   3.037 -0.2989  0.1614  0.4517
 8916TIP3    H126712   7.178   3.929   3.039 -0.1494  0.2604 -0.5719
 8916TIP3    H226713   7.148   4.067   2.985 -0.6755  0.7897  1.0242
 8917TIP3   OH226714   0.632   3.799   2.350 -0.4015  0.4014 -0.1516
 8917TIP3    H126715   0.590   3.808   2.435 -0.0105  2.3656 -0.1167
 8917TIP3    H226716   0.562   3.813   2.286 -1.2258 -3.3319 -0.3428
 8918TIP3   OH226717   0.517   0.568   2.775  0.3109 -0.0254  0.2774
 8918TIP3    H126718   0.535   0.556   2.868  1.5997  0.0051  0.0484
 8918TIP3    H226719   0.594   0.613   2.741 -0.8333  1.4392 -0.5024
 8919TIP3   OH226720   5.130   5.794   1.274  0.3963 -0.7998 -0.3190
 8919TIP3    H126721   5.211   5.845   1.275  0.7802 -1.3727  2.1418
 8919TIP3    H226722   5.062   5.860   1.260  0.9110  0.4891  2.4990
 8920TIP3   OH226723   0.054   4.946   1.824 -0.2612 -0.1119  0.1308
 8920TIP3    H126724   0.057   5.013   1.756 -1.2908 -0.0424  0.1402
 8920TIP3    H226725   0.144   4.938   1.854  0.1894 -0.0604 -1.1545
 8921TIP3   OH226726   0.176   6.364   1.297 -0.3393 -0.1980  0.3235
 8921TIP3    H126727   0.134   6.285   1.329 -0.0599 -0.7440 -0.6318
 8921TIP3    H226728   0.109   6.432   1.305 -0.9028 -0.7392  0.2180
 8922TIP3   OH226729   3.830   6.308   4.896 -0.6811 -0.3033 -0.1714
 8922TIP3    H126730   3.763   6.376   4.898  0.1139  0.4863  0.9374
 8922TIP3    H226731   3.803   6.246   4.963 -0.3436 -0.0065  0.2462
 8923TIP3   OH226732   1.296   4.453   0.633  0.4154 -0.3859 -0.1123
 8923TIP3    H126733   1.257   4.369   0.656  0.7420 -0.7717 -0.9394
 8923TIP3    H226734   1.283   4.462   0.539  1.8702 -0.3054 -0.3339
 8924TIP3   OH226735   6.419   0.284   5.521  0.0491  0.5610 -0.0226
 8924TIP3    H126736   6.510   0.311   5.516  0.0672  0.9200  1.6693
 8924TIP3    H226737   6.379   0.317   5.440  0.9179  2.3405  0.2354
 8925TIP3   OH226738   2.604   1.690   0.025  0.2118 -0.1345 -0.0666
 8925TIP3    H126739   2.525   1.647   0.055  0.6941 -1.3163 -0.4160
 8925TIP3    H226740   2.634   1.740   0.100 -0.7397  0.1466  0.1362
 8926TIP3   OH226741   5.772   3.982   2.346  0.7071  0.0432 -0.0960
 8926TIP3    H126742   5.694   4.034   2.326  1.1427  0.2928 -1.1481
 8926TIP3    H226743   5.807   3.956   2.261  1.7723 -0.0821  0.3679
 8927TIP3   OH226744   4.062   2.490   2.828 -0.3210 -0.1491  0.4680
 8927TIP3    H126745   4.133   2.455   2.881  1.8154  2.2804 -0.5719
 8927TIP3    H226746   4.063   2.439   2.748 -0.3320 -0.6751  0.8014
 8928TIP3   OH226747   3.837   5.547   5.038  0.6217  0.1050  0.6440
 8928TIP3    H126748   3.810   5.456   5.050  0.6777  0.0866  0.6325
 8928TIP3    H226749   3.777   5.597   5.093 -0.2625  0.1777 -0.3477
 8929TIP3   OH226750   0.940   5.503   5.551  0.3477  0.1112 -0.0487
 8929TIP3    H126751   0.953   5.507   5.456  1.1507 -0.5043  0.0259
 8929TIP3    H226752   0.857   5.548   5.565 -0.8887 -1.6527 -1.2839
 8930TIP3   OH226753   0.702   0.859   4.711 -0.2386 -0.6358 -0.3653
 8930TIP3    H126754   0.610   0.875   4.691 -0.2725 -0.5778 -0.1587
 8930TIP3    H226755   0.746   0.859   4.625 -0.2167  0.6547 -0.3655
 8931TIP3   OH226756   6.361   4.234   0.967 -0.3532  0.0372  0.0980
 8931TIP3    H126757   6.430   4.258   1.030 -0.6736  1.4628 -0.0613
 8931TIP3    H226758   6.285   4.214   1.021 -0.7265  1.5861  0.2010
 8932TIP3   OH226759   1.449   0.969   2.155 -0.1269 -0.2148  0.1531
 8932TIP3    H126760   1.519   0.991   2.217  0.0179  0.1459 -0.1348
 8932TIP3    H226761   1.381   0.928   2.209  0.5558 -1.1293  0.3590
 8933TIP3   OH226762   5.633   4.957   5.548 -0.2808 -0.0196 -0.1342
 8933TIP3    H126763   5.692   4.985   5.618 -0.0869  1.1572 -0.7457
 8933TIP3    H226764   5.691   4.935   5.475 -0.5598  0.6925 -0.5817
 8934TIP3   OH226765   5.996   3.451   2.262 -0.1845  0.4673  0.0247
 8934TIP3    H126766   5.962   3.450   2.173  1.2528 -0.9635 -0.5562
 8934TIP3    H226767   5.953   3.527   2.303 -1.3449  0.7878 -1.6656
 8935TIP3   OH226768   5.903   3.243   5.286  0.0048  0.4590 -0.3712
 8935TIP3    H126769   5.834   3.294   5.329 -0.1002  1.9938 -2.2293
 8935TIP3    H226770   5.934   3.183   5.354 -0.9955  1.8939  1.4542
 8936TIP3   OH226771   1.383   3.817   4.539 -0.2916 -0.2386  0.0210
 8936TIP3    H126772   1.440   3.887   4.507 -1.2675  0.2881 -0.6289
 8936TIP3    H226773   1.309   3.817   4.479 -1.0559 -0.7980  0.9271
 8937TIP3   OH226774   1.472   0.251   0.554 -0.0920  0.0083  0.2750
 8937TIP3    H126775   1.514   0.214   0.477 -1.7362  1.6228 -1.5112
 8937TIP3    H226776   1.413   0.182   0.585 -0.8057 -0.0284 -1.0902
 8938TIP3   OH226777   1.773   5.425   2.035  0.3589  0.0444  0.2191
 8938TIP3    H126778   1.681   5.404   2.022  0.0005  0.8714  1.2329
 8938TIP3    H226779   1.820   5.356   1.990 -0.7611 -1.5727  1.4129
 8939TIP3   OH226780   5.469   3.409   1.259 -0.5717  0.2210  0.5093
 8939TIP3    H126781   5.446   3.501   1.270 -0.5561  0.2183  0.5654
 8939TIP3    H226782   5.454   3.391   1.166  0.7965  0.6690  0.1802
 8940TIP3   OH226783   4.493   0.234   1.457  0.4410  0.3005 -0.4497
 8940TIP3    H126784   4.511   0.326   1.479  1.8272  0.0801 -0.5910
 8940TIP3    H226785   4.553   0.215   1.384  0.2283 -0.7450 -0.3612
 8941TIP3   OH226786   3.582   2.153   2.875  0.1182  0.2069  0.3066
 8941TIP3    H126787   3.565   2.126   2.965 -1.7058 -0.2230 -0.1199
 8941TIP3    H226788   3.677   2.163   2.870  0.5895 -2.8066  1.4165
 8942TIP3   OH226789   5.845   1.491   5.693  0.2249  0.4059  0.1176
 8942TIP3    H126790   5.821   1.534   5.612 -1.2267  0.0783  0.3277
 8942TIP3    H226791   5.770   1.507   5.751  0.3247 -1.0421  0.7037
 8943TIP3   OH226792   2.262   1.395   5.519 -0.5467 -0.1693  0.7266
 8943TIP3    H126793   2.260   1.397   5.615  1.8459 -0.2982  0.8504
 8943TIP3    H226794   2.351   1.367   5.498 -0.9345  0.1272 -1.5506
 8944TIP3   OH226795   5.145   2.355   1.205  0.3880  0.0949  0.1336
 8944TIP3    H126796   5.150   2.397   1.119 -2.4995 -2.4126 -1.4847
 8944TIP3    H226797   5.121   2.426   1.265 -0.0167  1.5189 -1.6046
 8945TIP3   OH226798   5.396   5.236   2.691  0.5428 -0.4092 -0.2225
 8945TIP3    H126799   5.378   5.172   2.623 -0.5918 -0.8387  0.4435
 8945TIP3    H226800   5.487   5.262   2.677  0.9948 -2.0914 -0.5707
 8946TIP3   OH226801   3.093   2.448   3.339 -0.0943  0.2258 -0.5410
 8946TIP3    H126802   3.041   2.370   3.321 -0.6912  0.5567 -0.2931
 8946TIP3    H226803   3.118   2.440   3.431 -1.6541  1.1571  0.0130
 8947TIP3   OH226804   2.955   2.755   5.253 -0.7462 -0.4125  0.3105
 8947TIP3    H126805   2.972   2.661   5.257 -2.8277 -0.8733 -0.2273
 8947TIP3    H226806   2.879   2.768   5.310 -2.2805  0.4321 -1.8018
 8948TIP3   OH226807   3.969   4.751   1.510 -0.1822 -0.6094  0.0059
 8948TIP3    H126808   3.902   4.790   1.454  0.1426 -0.8375 -0.5578
 8948TIP3    H226809   4.042   4.812   1.506 -0.8183  0.3002  1.6766
 8949TIP3   OH226810   5.322   0.322   4.493 -0.1061 -0.3215 -0.4710
 8949TIP3    H126811   5.244   0.306   4.440  0.1673 -0.7591 -0.7438
 8949TIP3    H226812   5.347   0.236   4.525  0.6278 -0.2761 -0.8991
 8950TIP3   OH226813   0.648   0.209   5.884  0.5068  0.4129  0.5195
 8950TIP3    H126814   0.585   0.137   5.881 -0.3185  1.0858  0.9839
 8950TIP3    H226815   0.614   0.273   5.821  1.8004 -0.0323 -0.6652
 8951TIP3   OH226816   1.273   1.992   0.600 -0.0440 -0.5630  0.3040
 8951TIP3    H126817   1.269   2.087   0.608  0.2047 -0.4839 -0.3967
 8951TIP3    H226818   1.353   1.967   0.645  0.0097 -0.4115  0.2931
 8952TIP3   OH226819   5.361   6.285   5.820  0.3382 -0.0855  0.6307
 8952TIP3    H126820   5.289   6.292   5.757  0.5039  1.1154  0.5411
 8952TIP3    H226821   5.410   6.208   5.792  0.0146  0.0288 -0.3036
 8953TIP3   OH226822   5.199   2.409   0.470  0.5209 -0.0464  0.4939
 8953TIP3    H126823   5.164   2.342   0.411 -0.0230 -1.6723  2.5383
 8953TIP3    H226824   5.279   2.370   0.506  0.2398  0.4191  1.6666
 8954TIP3   OH226825   3.738   5.034   3.676  0.2274  0.0737  0.5347
 8954TIP3    H126826   3.654   5.049   3.632  0.2810  0.6629  0.6318
 8954TIP3    H226827   3.766   5.120   3.707  0.5949 -0.2020  1.0030
 8955TIP3   OH226828   3.869   3.153   1.976  0.3667  0.1583  0.1016
 8955TIP3    H126829   3.796   3.107   2.017  0.6785  0.5053  1.0814
 8955TIP3    H226830   3.885   3.106   1.894 -0.2071 -0.6165  0.4294
 8956TIP3   OH226831   0.026   0.759   4.478 -0.6285  0.3883 -0.1836
 8956TIP3    H126832  -0.002   0.771   4.569  0.2591  1.9569 -0.0797
 8956TIP3    H226833   0.104   0.704   4.484 -1.5299 -0.9328 -0.1688
 8957TIP3   OH226834   5.535   1.955   3.562  0.2501  0.0816 -0.2370
 8957TIP3    H126835   5.506   1.906   3.639  0.8969 -1.5351 -0.9793
 8957TIP3    H226836   5.454   1.989   3.523 -0.0891  0.9006  1.0952
 8958TIP3   OH226837   1.390   2.114   0.116  0.7468 -0.4550  0.0779
 8958TIP3    H126838   1.338   2.091   0.039  0.7669  1.0492 -0.4149
 8958TIP3    H226839   1.371   2.045   0.179 -0.2534 -1.0400 -0.8284
 8959TIP3   OH226840   2.895   5.850   3.068 -0.1348 -0.6415  0.0855
 8959TIP3    H126841   2.827   5.782   3.070 -0.0337 -0.7276  1.2226
 8959TIP3    H226842   2.948   5.833   3.146 -0.0668  0.6986  0.3518
 8960TIP3   OH226843   6.671   2.531   4.035 -0.6219 -0.1288 -0.1312
 8960TIP3    H126844   6.596   2.511   4.090 -0.4381 -1.9220 -0.4699
 8960TIP3    H226845   6.725   2.590   4.088 -2.0322  0.8369  0.2717
 8961TIP3   OH226846   1.716   4.860   5.277  0.4500  0.2523  0.0816
 8961TIP3    H126847   1.674   4.945   5.286 -1.2231 -0.5269  0.1819
 8961TIP3    H226848   1.796   4.866   5.330  0.6992  1.9335 -0.4293
 8962TIP3   OH226849   4.105   2.966   4.509 -0.0873 -0.2665  0.2565
 8962TIP3    H126850   4.131   2.886   4.463 -0.8843 -1.2717  1.4819
 8962TIP3    H226851   4.161   3.034   4.472  1.4157 -1.5915 -0.0281
 8963TIP3   OH226852   3.380   1.331   0.225  0.1316 -0.4717  0.0372
 8963TIP3    H126853   3.290   1.310   0.201 -0.4532  1.1915  0.6939
 8963TIP3    H226854   3.409   1.256   0.278  0.1319 -2.3616 -2.4408
 8964TIP3   OH226855   3.183   0.778   2.781 -0.0099  0.3183 -0.2028
 8964TIP3    H126856   3.225   0.762   2.696  1.1434  2.6655 -0.1537
 8964TIP3    H226857   3.238   0.732   2.844 -0.1492 -0.3847 -0.5746
 8965TIP3   OH226858   3.807   0.573   4.038  0.2549  0.5301 -0.3328
 8965TIP3    H126859   3.895   0.542   4.059  0.0909 -0.5061 -1.1381
 8965TIP3    H226860   3.779   0.520   3.964 -0.7510  1.3845 -0.5967
 8966TIP3   OH226861   1.774   4.894   0.666 -0.0306 -0.1744 -0.1549
 8966TIP3    H126862   1.749   4.868   0.577  0.9773  1.4471 -0.9519
 8966TIP3    H226863   1.835   4.966   0.654  1.0191 -0.6515  1.8433
 8967TIP3   OH226864   3.101   6.440   2.980 -0.0002  0.0901 -0.0060
 8967TIP3    H126865   3.076   6.445   3.072 -0.9585  0.8712 -0.2910
 8967TIP3    H226866   3.144   6.523   2.961  0.3171 -0.1223 -0.2312
 8968TIP3   OH226867   6.847   3.640   5.684  0.0184  0.1584 -0.1690
 8968TIP3    H126868   6.939   3.649   5.662 -0.4259  0.4998 -2.0771
 8968TIP3    H226869   6.801   3.657   5.602 -1.8136  1.3511  1.0258
 8969TIP3   OH226870   3.923   5.834   1.267 -0.2073  0.5312  0.3872
 8969TIP3    H126871   4.012   5.799   1.267 -0.6175 -0.5637  0.2332
 8969TIP3    H226872   3.931   5.920   1.307  0.7374 -0.0358  1.4879
 8970TIP3   OH226873   3.349   2.845   2.267 -0.5545  0.0119 -0.1118
 8970TIP3    H126874   3.333   2.827   2.360  1.0713 -0.9927  0.0067
 8970TIP3    H226875   3.444   2.845   2.258 -0.6803 -0.1342 -1.8350
 8971TIP3   OH226876   4.351   6.317   2.079  0.6205  0.1564 -0.6747
 8971TIP3    H126877   4.259   6.304   2.101  1.0606 -1.2177  0.4951
 8971TIP3    H226878   4.375   6.398   2.124  0.3596 -0.2859  0.2819
 8972TIP3   OH226879   2.429   6.471   4.609  0.9275  0.0721  0.1127
 8972TIP3    H126880   2.370   6.491   4.681  0.9844 -0.9753  0.4774
 8972TIP3    H226881   2.504   6.428   4.651  0.0693 -2.4186 -0.7005
 8973TIP3   OH226882   4.727   3.215   5.151  0.6737  0.3097  0.0278
 8973TIP3    H126883   4.777   3.238   5.229  0.5031  1.1467 -0.0944
 8973TIP3    H226884   4.781   3.244   5.078  0.7761 -0.3566 -0.1629
 8974TIP3   OH226885   2.336   2.533   2.988  0.3618 -0.1275  0.2028
 8974TIP3    H126886   2.374   2.583   2.916  0.1156  0.6898  0.6243
 8974TIP3    H226887   2.381   2.449   2.986  1.0868  0.2654 -0.2593
 8975TIP3   OH226888   1.653   5.498   5.854  0.6885  0.2097  0.2983
 8975TIP3    H126889   1.606   5.425   5.814 -0.6045  1.7912 -1.1960
 8975TIP3    H226890   1.716   5.456   5.913  0.5616 -2.1258 -1.1001
 8976TIP3   OH226891   1.364   3.992   1.323  0.1798 -0.2937  0.1944
 8976TIP3    H126892   1.320   4.027   1.401 -0.6175  0.1071 -0.4206
 8976TIP3    H226893   1.343   3.899   1.324 -2.9786  0.2642 -1.4714
 8977TIP3   OH226894   3.730   2.874   3.544 -0.5174  0.0077  0.3092
 8977TIP3    H126895   3.797   2.807   3.556  0.5111  1.1357  1.2135
 8977TIP3    H226896   3.703   2.897   3.633 -1.3390  0.3413 -0.0116
 8978TIP3   OH226897   4.501   5.448   4.111  0.0125 -0.1618 -0.3804
 8978TIP3    H126898   4.550   5.529   4.128 -0.4203  0.0038  0.1097
 8978TIP3    H226899   4.514   5.431   4.018  2.1260 -0.8509 -0.0145
 8979TIP3   OH226900   1.928   1.448   4.141 -0.1818 -0.3117  0.8150
 8979TIP3    H126901   1.852   1.402   4.175  0.0740  0.2665  2.2501
 8979TIP3    H226902   1.913   1.540   4.163  2.3252 -0.4964  4.1863
 8980TIP3   OH226903   1.096   3.036   3.548 -0.3384 -0.6831 -0.3456
 8980TIP3    H126904   1.143   2.972   3.601  0.1838 -1.2504 -1.4723
 8980TIP3    H226905   1.145   3.118   3.561 -0.6095 -0.6482  0.5579
 8981TIP3   OH226906   0.719   3.732   4.401 -0.0129  0.0235 -0.3394
 8981TIP3    H126907   0.693   3.696   4.316  0.0048 -0.4803 -0.1289
 8981TIP3    H226908   0.638   3.771   4.435 -0.2447 -0.6159 -0.1581
 8982TIP3   OH226909   1.219   4.494   0.358  0.2676  0.6118  0.5675
 8982TIP3    H126910   1.246   4.402   0.355  0.9672  0.7472  2.0030
 8982TIP3    H226911   1.235   4.526   0.269  1.8343 -0.1513  0.5389
 8983TIP3   OH226912   6.938   6.483   3.690 -0.5258  0.7542  0.4300
 8983TIP3    H126913   6.862   6.535   3.715 -1.3164  0.2615 -0.8500
 8983TIP3    H226914   6.914   6.393   3.710  0.7349  0.8076  2.3854
 8984TIP3   OH226915   1.408   1.802   0.942 -0.3631 -0.5937 -0.2825
 8984TIP3    H126916   1.347   1.738   0.904  2.7489 -2.3279 -2.8268
 8984TIP3    H226917   1.445   1.757   1.019  2.4167 -2.4779 -2.5175
 8985TIP3   OH226918   2.055   2.777   2.411  0.4355  0.3098 -0.0429
 8985TIP3    H126919   2.045   2.741   2.323 -0.5520  1.0378 -0.2507
 8985TIP3    H226920   2.068   2.871   2.398  2.1140  0.1862  0.5265
 8986TIP3   OH226921   0.350   2.816   2.936  0.8256 -0.0507 -0.4008
 8986TIP3    H126922   0.430   2.794   2.984 -0.0303 -0.3282  0.9607
 8986TIP3    H226923   0.319   2.897   2.977 -1.0742 -1.4325  1.0843
 8987TIP3   OH226924   1.044   0.330   5.775  0.1487  0.3766  0.1473
 8987TIP3    H126925   1.014   0.282   5.853 -0.6218 -0.1786 -0.4737
 8987TIP3    H226926   1.134   0.300   5.762 -0.7561 -2.1134 -1.0831
 8988TIP3   OH226927   0.042   3.863   4.402 -0.1591 -0.0195  0.4046
 8988TIP3    H126928   0.015   3.925   4.470 -2.2330 -1.0729  0.6364
 8988TIP3    H226929   0.017   3.905   4.320  1.4991  0.8495  0.3068
 8989TIP3   OH226930   5.751   2.858   4.383  0.0878  0.0913  0.0093
 8989TIP3    H126931   5.688   2.912   4.335  0.7846 -0.0218 -1.0451
 8989TIP3    H226932   5.827   2.854   4.326  1.8494  1.8506  2.0517
 8990TIP3   OH226933   5.073   5.114   5.319  0.0953  0.1220 -0.0007
 8990TIP3    H126934   5.156   5.082   5.283  1.6497  1.0462  2.4663
 8990TIP3    H226935   5.049   5.187   5.261  2.0808  1.0948  0.2971
 8991TIP3   OH226936   2.101   0.923   5.458  0.0738 -0.1601 -0.0369
 8991TIP3    H126937   2.140   1.007   5.437 -0.4831 -0.0231 -0.5499
 8991TIP3    H226938   2.024   0.917   5.402 -0.7702 -0.3271  1.0912
 8992TIP3   OH226939   4.203   4.958   3.045 -0.4706  0.4096  0.5523
 8992TIP3    H126940   4.203   5.052   3.026  0.5641  0.3382  0.0939
 8992TIP3    H226941   4.238   4.918   2.966 -0.7648 -0.3538  0.7997
 8993TIP3   OH226942   2.853   0.333   1.291  0.2898 -0.3106  0.0935
 8993TIP3    H126943   2.920   0.266   1.302 -0.7207 -1.0699  2.1779
 8993TIP3    H226944   2.820   0.319   1.202  1.4089 -1.3162 -0.1863
 8994TIP3   OH226945   6.534   6.509   2.584 -0.2421 -0.4585 -0.0557
 8994TIP3    H126946   6.626   6.533   2.570  0.3598 -1.7142  1.3756
 8994TIP3    H226947   6.500   6.576   2.643  0.1158 -0.6247  0.3465
 8995TIP3   OH226948   2.005   2.858   1.506  0.0218 -0.1549  0.3672
 8995TIP3    H126949   1.930   2.883   1.561 -1.4565  0.1572 -1.6800
 8995TIP3    H226950   1.967   2.803   1.438  1.5568  0.4982 -1.0683
 8996TIP3   OH226951   4.058   4.221   3.855 -0.2897  0.2507  0.5833
 8996TIP3    H126952   4.015   4.172   3.785  0.0327  1.0410 -0.1764
 8996TIP3    H226953   4.051   4.313   3.828  2.9199  0.3601 -0.1669
 8997TIP3   OH226954   1.129   2.980   0.862 -0.4765  0.2682 -0.6067
 8997TIP3    H126955   1.166   2.926   0.933 -0.3801  1.0640 -0.0359
 8997TIP3    H226956   1.165   3.067   0.878 -1.5023  0.7456 -0.8819
 8998TIP3   OH226957   0.155   0.850   2.294  0.5242  0.1190 -0.2450
 8998TIP3    H126958   0.177   0.940   2.319  0.9194 -0.4147  1.4872
 8998TIP3    H226959   0.071   0.857   2.250 -1.0415  1.0426  2.6813
 8999TIP3   OH226960   0.974   0.543   0.683 -0.1856 -0.2979  0.6863
 8999TIP3    H126961   1.065   0.545   0.711 -0.1145 -0.5021  0.4706
 8999TIP3    H226962   0.959   0.453   0.656 -0.1801 -0.0529 -0.1707
 9000TIP3   OH226963   2.660   0.909   4.519  0.5060 -0.0878 -0.0274
 9000TIP3    H126964   2.726   0.857   4.565 -1.4325 -1.6821  1.1611
 9000TIP3    H226965   2.602   0.844   4.480 -0.5619  1.2313 -0.7201
 9001TIP3   OH226966   5.599   5.674   3.946  0.3777 -0.1910 -0.5590
 9001TIP3    H126967   5.526   5.629   3.989 -0.9476  1.5328 -0.8598
 9001TIP3    H226968   5.677   5.638   3.988 -0.7674  0.0093  1.9539
 9002TIP3   OH226969   6.977   4.319   0.303  0.2992 -0.1765 -0.0527
 9002TIP3    H126970   6.956   4.408   0.333 -0.4637  0.0546 -1.1938
 9002TIP3    H226971   7.072   4.313   0.311  0.8722  1.9945 -3.0594
 9003TIP3   OH226972   5.195   1.871   5.020 -0.9381  0.3981  0.4649
 9003TIP3    H126973   5.130   1.878   5.090 -1.8693  2.6952 -0.5420
 9003TIP3    H226974   5.270   1.923   5.052 -1.7969  2.4209 -0.5952
 9004TIP3   OH226975   2.035   4.034   4.989 -0.3630 -0.3584  0.2580
 9004TIP3    H126976   2.078   3.952   4.965 -1.2410 -0.1776 -2.2313
 9004TIP3    H226977   1.942   4.015   4.981 -0.6050  0.6300  0.6259
 9005TIP3   OH226978   5.528   2.493   5.340 -0.0699  0.4881 -0.5123
 9005TIP3    H126979   5.434   2.512   5.337 -0.2496 -0.2929  0.0026
 9005TIP3    H226980   5.569   2.569   5.299 -1.0421  0.0602 -2.4087
 9006TIP3   OH226981   1.083   1.165   0.227  0.1149  0.0310 -0.1749
 9006TIP3    H126982   1.131   1.202   0.153 -0.1417 -0.7045 -0.7251
 9006TIP3    H226983   0.993   1.156   0.195 -0.1574  0.3478  0.4683
 9007TIP3   OH226984   2.027   3.002   4.884 -0.0002  0.2997 -0.1390
 9007TIP3    H126985   2.093   3.002   4.954 -0.7720 -0.0581  0.5962
 9007TIP3    H226986   2.013   3.095   4.866 -1.7113  0.5577  2.0544
 9008TIP3   OH226987   2.244   0.694   1.947  0.5444  0.3222  0.1391
 9008TIP3    H126988   2.327   0.679   1.901 -0.0971  0.0866 -0.9748
 9008TIP3    H226989   2.240   0.624   2.012  1.3352  0.4985  0.3959
 9009TIP3   OH226990   2.477   5.734   5.336  0.0830  0.2624 -0.7765
 9009TIP3    H126991   2.403   5.678   5.310  0.3339 -0.6961  0.5047
 9009TIP3    H226992   2.471   5.809   5.276 -2.1776  0.4256 -0.4537
 9010TIP3   OH226993   7.172   3.931   5.405 -0.8201 -0.1863 -0.4004
 9010TIP3    H126994   7.103   3.884   5.358 -2.7964  1.0086  1.1321
 9010TIP3    H226995   7.152   4.023   5.392 -2.5080  0.3159  3.8566
 9011TIP3   OH226996   1.829   6.519   0.238  0.3148 -0.2448 -0.1330
 9011TIP3    H126997   1.897   6.469   0.193  1.8333  0.7114  0.9946
 9011TIP3    H226998   1.804   6.466   0.313 -0.1063 -0.5294 -0.4664
 9012TIP3   OH226999   4.762   6.276   4.236  0.3873 -0.0794  0.1337
 9012TIP3    H127000   4.836   6.316   4.190 -2.1158  3.1063 -1.5065
 9012TIP3    H227001   4.716   6.226   4.169 -0.9545  1.0959  0.1268
 9013TIP3   OH227002   0.334   3.040   5.306 -0.0553  0.5568  0.2579
 9013TIP3    H127003   0.419   3.069   5.339  0.4130 -0.8299  0.3489
 9013TIP3    H227004   0.355   2.968   5.247 -1.2430 -0.8210  1.4485
 9014TIP3   OH227005   7.093   1.278   3.984 -0.0472 -0.1086  0.0882
 9014TIP3    H127006   7.120   1.346   4.045 -1.6641 -0.6861  1.5171
 9014TIP3    H227007   6.998   1.272   3.994 -0.4604  0.0540 -2.8155
 9015TIP3   OH227008   1.351   1.125   1.946  0.2328  0.0327 -0.0931
 9015TIP3    H127009   1.370   1.054   2.007 -1.5884 -0.5664 -0.1613
 9015TIP3    H227010   1.311   1.081   1.871  0.4532  0.9952 -0.7865
 9016TIP3   OH227011   3.459   2.369   1.582 -0.1179  0.3005 -0.1524
 9016TIP3    H127012   3.373   2.332   1.564 -0.4934  0.9590  0.2741
 9016TIP3    H227013   3.495   2.390   1.496 -0.2317 -0.2935 -0.3507
 9017TIP3   OH227014   6.664   1.393   4.224  0.7059 -0.3870  0.0687
 9017TIP3    H127015   6.660   1.298   4.235  1.1404 -0.2097  2.0001
 9017TIP3    H227016   6.592   1.427   4.277 -2.0166  0.2640 -3.6353
 9018TIP3   OH227017   2.703   2.620   4.135 -0.8215  0.1136  0.4215
 9018TIP3    H127018   2.691   2.537   4.180 -1.0652 -1.0417 -1.6575
 9018TIP3    H227019   2.746   2.597   4.053 -1.2361  1.9992 -0.3754
 9019TIP3   OH227020   4.892   3.920   3.561  0.7535 -0.4217  0.0104
 9019TIP3    H127021   4.807   3.949   3.527 -0.0647 -2.1107  0.5364
 9019TIP3    H227022   4.881   3.827   3.579  2.2496 -0.3430  1.5903
 9020TIP3   OH227023   1.869   1.515   5.345 -0.7510  0.2038  0.2134
 9020TIP3    H127024   1.885   1.521   5.440 -1.0733  2.0236  0.1870
 9020TIP3    H227025   1.875   1.605   5.314  0.2301 -0.4626 -1.6726
 9021TIP3   OH227026   0.845   3.131   0.353 -0.1413  0.2636  0.1680
 9021TIP3    H127027   0.830   3.112   0.446 -1.3660 -0.6900 -0.1884
 9021TIP3    H227028   0.885   3.051   0.319 -0.2604  0.3796 -0.2467
 9022TIP3   OH227029   1.834   4.686   1.418 -0.1493  0.0152  0.0028
 9022TIP3    H127030   1.912   4.631   1.431  0.5541  0.8542 -0.5676
 9022TIP3    H227031   1.822   4.688   1.323 -0.9326 -0.1796  0.0913
 9023TIP3   OH227032   4.873   0.025   3.075  0.0051  0.5008 -0.3836
 9023TIP3    H127033   4.944   0.050   3.135  0.5101  1.0350 -1.1935
 9023TIP3    H227034   4.915   0.017   2.990 -0.8070  0.2468 -0.7714
 9024TIP3   OH227035   3.510   1.151   4.299 -0.0512 -0.3004 -0.2464
 9024TIP3    H127036   3.431   1.116   4.340 -0.9954  0.5228 -1.2926
 9024TIP3    H227037   3.577   1.084   4.315 -0.7180 -0.6258  1.3893
 9025TIP3   OH227038   1.939   0.139   5.071  0.5165  0.0531  0.6586
 9025TIP3    H127039   1.978   0.197   5.136  0.8564 -0.9215  1.3482
 9025TIP3    H227040   1.884   0.079   5.122  2.2599 -1.9524  0.3250
 9026TIP3   OH227041   4.780   4.790   4.501 -0.2491  0.0390  0.1484
 9026TIP3    H127042   4.729   4.792   4.419  1.0769  1.3338 -0.7107
 9026TIP3    H227043   4.748   4.714   4.548 -1.3239 -0.5256 -1.4242
 9027TIP3   OH227044   6.393   4.484   1.764  0.0636  0.3219  0.0553
 9027TIP3    H127045   6.468   4.526   1.808 -0.3534  1.4803 -0.2987
 9027TIP3    H227046   6.433   4.418   1.708  0.8032  0.6969  0.1191
 9028TIP3   OH227047   3.510   4.046   1.693  0.0305 -0.2460  0.5306
 9028TIP3    H127048   3.532   3.977   1.755 -0.2549 -1.0319 -0.2262
 9028TIP3    H227049   3.456   4.107   1.742  1.9974  0.5804  1.8205
 9029TIP3   OH227050   5.978   5.298   4.160  0.1321  0.2158 -0.0827
 9029TIP3    H127051   6.035   5.329   4.230 -2.4312  2.0527  1.3518
 9029TIP3    H227052   5.957   5.208   4.184  0.9722  0.1232  0.3231
 9030TIP3   OH227053   6.343   5.530   1.886 -0.0557  0.0095 -0.0794
 9030TIP3    H127054   6.336   5.620   1.918 -2.7189 -1.0174  2.6895
 9030TIP3    H227055   6.414   5.491   1.937 -0.2839  0.0011  0.2349
 9031TIP3   OH227056   7.175   4.193   0.025  0.0714 -0.8088  0.3730
 9031TIP3    H127057   7.259   4.178   0.069  0.0950  0.1470  0.6758
 9031TIP3    H227058   7.175   4.286   0.004 -1.0219 -0.7404  0.5970
 9032TIP3   OH227059   0.490   6.501   3.701  0.5863 -0.7398 -0.5120
 9032TIP3    H127060   0.490   6.597   3.704 -0.0404 -0.7264 -0.6539
 9032TIP3    H227061   0.582   6.476   3.712  1.0548 -0.0631 -2.5206
 9033TIP3   OH227062   3.561   4.558   3.706 -0.8508  0.0981  0.0079
 9033TIP3    H127063   3.509   4.492   3.660 -1.6892  1.6025 -1.3011
 9033TIP3    H227064   3.567   4.631   3.644 -0.7396  1.6134  1.7435
 9034TIP3   OH227065   0.488   4.436   0.279 -0.1014 -0.0178  0.2941
 9034TIP3    H127066   0.429   4.405   0.211 -0.3039  0.2044  0.3656
 9034TIP3    H227067   0.510   4.526   0.253 -0.1824  0.0708  0.5209
 9035TIP3   OH227068   3.605   3.903   1.350  0.4486  0.5015 -0.2792
 9035TIP3    H127069   3.519   3.889   1.390  0.0268  1.0893 -0.9377
 9035TIP3    H227070   3.624   3.995   1.367  0.4850  0.6294 -0.9815
 9036TIP3   OH227071   2.864   4.330   4.240  0.1561  0.4967  0.5945
 9036TIP3    H127072   2.957   4.310   4.250  0.0734 -0.1972  0.0638
 9036TIP3    H227073   2.825   4.306   4.324  0.2992 -0.2139  0.4694
 9037TIP3   OH227074   4.359   1.422   2.324 -0.2612  0.0469  0.5095
 9037TIP3    H127075   4.328   1.478   2.252  0.3328 -0.3820 -0.0953
 9037TIP3    H227076   4.283   1.368   2.347  0.1830 -1.5311 -1.4735
 9038TIP3   OH227077   3.096   4.084   1.891  0.6538 -0.1345  0.6102
 9038TIP3    H127078   3.025   4.138   1.926 -0.0690 -0.8448  0.2895
 9038TIP3    H227079   3.055   4.032   1.821  1.7326  0.1880 -0.2924
 9039TIP3   OH227080   4.211   0.101   0.338  0.3399  0.0943 -0.5865
 9039TIP3    H127081   4.211   0.080   0.431  0.3268 -1.2209 -0.8592
 9039TIP3    H227082   4.303   0.118   0.317  0.7360 -2.1012 -0.8255
 9040TIP3   OH227083   4.359   2.845   5.054 -0.2072 -1.0162  0.5065
 9040TIP3    H127084   4.353   2.822   4.962 -1.5506  0.4234  0.2029
 9040TIP3    H227085   4.442   2.892   5.063 -0.5353 -0.3057 -0.1691
 9041TIP3   OH227086   5.616   1.959   3.908 -0.0086 -0.3183 -0.0186
 9041TIP3    H127087   5.710   1.970   3.894  0.0791 -0.4282  0.4665
 9041TIP3    H227088   5.605   1.966   4.003 -0.3776 -1.1338  0.0042
 9042TIP3   OH227089   1.000   3.141   1.392 -0.2648  0.6175 -0.0598
 9042TIP3    H127090   0.917   3.108   1.357 -0.0611 -0.2203  0.2291
 9042TIP3    H227091   1.011   3.226   1.350 -1.7098  1.1432  0.5739
 9043TIP3   OH227092   2.023   6.645   0.605 -0.1090 -0.6275  0.0636
 9043TIP3    H127093   2.019   6.736   0.632 -1.9828 -0.4730 -0.6103
 9043TIP3    H227094   2.114   6.619   0.622  0.5623  1.4480 -0.0964
 9044TIP3   OH227095   1.899   3.921   0.477  0.6785  0.5301 -0.0656
 9044TIP3    H127096   1.975   3.934   0.534 -0.1305 -1.7675  1.7237
 9044TIP3    H227097   1.874   3.830   0.493 -1.4591  0.7487 -1.8502
 9045TIP3   OH227098   5.087   6.196   1.407  0.2866 -0.1271 -0.2654
 9045TIP3    H127099   5.048   6.195   1.494  2.0520 -1.4247  0.5952
 9045TIP3    H227100   5.073   6.285   1.375 -0.7040  0.2820  1.1921
 9046TIP3   OH227101   3.237   0.805   4.676 -0.0516 -0.3933 -0.1464
 9046TIP3    H127102   3.308   0.741   4.678 -1.1060 -1.5963  0.0160
 9046TIP3    H227103   3.236   0.843   4.764  1.7291  1.2068 -0.7554
 9047TIP3   OH227104   7.057   1.146   0.959 -0.0997 -0.6238  0.5331
 9047TIP3    H127105   7.086   1.211   1.024  1.3856 -0.8441  0.1196
 9047TIP3    H227106   6.964   1.166   0.946 -0.0576  0.4050  1.5810
 9048TIP3   OH227107   3.252   2.805   3.114  0.0261  0.3752  0.4414
 9048TIP3    H127108   3.209   2.821   3.198 -1.1204 -2.2684  0.4555
 9048TIP3    H227109   3.180   2.800   3.051  0.5741 -1.0306 -0.0955
 9049TIP3   OH227110   2.588   4.550   2.704  0.3674 -0.0316 -0.0111
 9049TIP3    H127111   2.645   4.522   2.633  1.5357  0.5818  0.6550
 9049TIP3    H227112   2.548   4.631   2.674  1.1194  0.4062  0.1504
 9050TIP3   OH227113   5.340   4.112   2.829 -0.0156 -0.2425  0.5874
 9050TIP3    H127114   5.272   4.172   2.799  0.8708  0.7880  0.5601
 9050TIP3    H227115   5.404   4.110   2.757 -0.8114 -2.5492 -0.1364
 9051TIP3   OH227116   7.101   3.062  -0.012  0.6730 -0.0232  0.0734
 9051TIP3    H127117   7.029   3.080   0.049  0.7964 -0.9412  0.5128
 9051TIP3    H227118   7.139   2.980   0.020  2.6971  1.0399  0.5817
 9052TIP3   OH227119   6.993   4.835   0.081  0.0133  0.5206  0.4712
 9052TIP3    H127120   6.915   4.890   0.076 -0.0197  0.3803 -0.8906
 9052TIP3    H227121   7.013   4.813  -0.010  1.8322  0.8205  0.7582
 9053TIP3   OH227122   0.764   4.438   2.354  0.0729  0.1274 -0.3625
 9053TIP3    H127123   0.692   4.500   2.340 -0.9365 -0.5038  1.7131
 9053TIP3    H227124   0.741   4.362   2.300 -0.5513  0.1307 -0.1092
 9054TIP3   OH227125   3.923   1.465   2.437  0.4102 -0.2364  0.1381
 9054TIP3    H127126   3.862   1.456   2.510 -0.7111 -1.8961 -0.9301
 9054TIP3    H227127   3.957   1.377   2.423  0.5595  0.0246 -1.3622
 9055TIP3   OH227128   2.387   0.670   4.954  0.8457 -0.0837  0.2009
 9055TIP3    H127129   2.361   0.579   4.943  2.5893 -0.3119 -3.0239
 9055TIP3    H227130   2.315   0.720   4.917  0.5707 -0.2101  0.5581
 9056TIP3   OH227131   1.090   0.355   3.816  0.3313  0.3079  0.3771
 9056TIP3    H127132   1.151   0.300   3.865 -0.7499  0.4414  1.9406
 9056TIP3    H227133   1.024   0.381   3.880 -0.5485  1.4001 -0.9126
 9057TIP3   OH227134   2.672   0.693   1.369 -0.0302  0.4627  0.3624
 9057TIP3    H127135   2.641   0.745   1.443  0.0836  2.3391 -0.8214
 9057TIP3    H227136   2.646   0.744   1.292  0.7369 -0.9083 -0.8582
 9058TIP3   OH227137   5.901   5.321   4.585  0.1579  0.6170  0.4254
 9058TIP3    H127138   5.988   5.316   4.547  1.5732  0.8292  3.3309
 9058TIP3    H227139   5.896   5.245   4.644 -1.7488  0.4564  0.1372
 9059TIP3   OH227140   5.142   0.962   2.238 -0.4386  0.2123 -0.1726
 9059TIP3    H127141   5.145   1.043   2.289 -0.7921  0.0188  0.1537
 9059TIP3    H227142   5.123   0.990   2.149  1.5561  0.6848 -0.4976
 9060TIP3   OH227143   1.784   1.281   4.556  0.1594  0.2265  0.1513
 9060TIP3    H127144   1.874   1.315   4.558  0.4056 -0.4446  1.6091
 9060TIP3    H227145   1.773   1.236   4.639 -1.2230 -0.5382 -0.4028
 9061TIP3   OH227146   2.325   2.013   5.324 -0.3710 -0.3805  0.3240
 9061TIP3    H127147   2.350   1.922   5.339  1.8206  0.3402  1.4113
 9061TIP3    H227148   2.376   2.040   5.248 -1.8768 -0.3398 -0.7223
 9062TIP3   OH227149   1.503   2.290   1.484  0.3542 -0.2766  0.0741
 9062TIP3    H127150   1.490   2.254   1.396 -0.7191 -0.4276  0.2853
 9062TIP3    H227151   1.514   2.384   1.471  0.4393 -0.3295 -0.2334
 9063TIP3   OH227152   0.106   3.327   4.303  0.4621 -0.3241  0.1003
 9063TIP3    H127153   0.037   3.335   4.237 -1.4260 -2.0327  1.7022
 9063TIP3    H227154   0.105   3.410   4.350 -1.6554 -0.8024  1.0343
 9064TIP3   OH227155   5.204   1.386   5.652  0.1598 -0.2200  0.1688
 9064TIP3    H127156   5.220   1.451   5.720 -0.8725 -0.9876  1.1680
 9064TIP3    H227157   5.288   1.380   5.605  0.3547  1.6033  0.2245
 9065TIP3   OH227158   2.688   2.924   5.395  0.2621  0.6409 -0.7259
 9065TIP3    H127159   2.703   2.936   5.489  1.4272  0.1374 -0.8350
 9065TIP3    H227160   2.716   3.007   5.356 -1.2880  1.2783 -0.5432
 9066TIP3   OH227161   1.333   0.427   0.217 -0.2348 -0.0435  0.1261
 9066TIP3    H127162   1.332   0.512   0.174  0.4385  0.0598  0.3112
 9066TIP3    H227163   1.404   0.433   0.281  1.3706 -1.5363 -1.4384
 9067TIP3   OH227164   3.237   5.589   0.839 -0.2355  0.6960 -0.6363
 9067TIP3    H127165   3.308   5.545   0.794  0.7040  0.7343  0.7278
 9067TIP3    H227166   3.171   5.522   0.854  0.9276 -0.1788  0.9060
 9068TIP3   OH227167   0.023   0.048   1.342  0.3718 -0.0890  0.2366
 9068TIP3    H127168  -0.053   0.104   1.358  0.4328  0.4210 -1.1658
 9068TIP3    H227169   0.052   0.022   1.430 -0.7801  0.5593  0.8308
 9069TIP3   OH227170   1.953   3.284   2.558  0.0444 -0.1806  0.2659
 9069TIP3    H127171   1.872   3.281   2.508 -0.2045 -1.0080  0.6814
 9069TIP3    H227172   2.006   3.351   2.516 -0.2775 -0.6429 -0.9021
 9070TIP3   OH227173   1.180   1.758   2.627  0.1214  0.1806 -0.7856
 9070TIP3    H127174   1.179   1.850   2.601 -2.2529  0.3160 -0.4497
 9070TIP3    H227175   1.235   1.756   2.705 -0.6307  1.5187 -0.1879
 9071TIP3   OH227176   6.488   3.870   1.223 -0.0033 -0.1461 -0.4648
 9071TIP3    H127177   6.419   3.823   1.270  0.1662  0.2938  0.2430
 9071TIP3    H227178   6.459   3.869   1.132 -0.2081 -1.2471 -0.4106
 9072TIP3   OH227179   1.470   4.524   1.059  0.0518  0.3259 -0.8704
 9072TIP3    H127180   1.403   4.475   1.012  1.0399 -2.5058  0.4434
 9072TIP3    H227181   1.432   4.539   1.146  0.0482  1.3097 -1.0290
 9073TIP3   OH227182   6.794   0.455   5.282 -0.3716 -0.2875  0.4991
 9073TIP3    H127183   6.865   0.394   5.263  1.0726  0.9733  1.5572
 9073TIP3    H227184   6.741   0.409   5.348 -0.2047 -1.0052  0.1476
 9074TIP3   OH227185   3.252   6.113   0.784  0.0767  0.4217 -0.0258
 9074TIP3    H127186   3.282   6.031   0.743 -1.9329  0.1927 -1.1612
 9074TIP3    H227187   3.313   6.179   0.752  1.0346 -0.4440 -0.0397
 9075TIP3   OH227188   4.349   3.118   0.652  0.2462  0.1665  0.6515
 9075TIP3    H127189   4.409   3.089   0.722  0.2180 -0.9872  0.2241
 9075TIP3    H227190   4.317   3.203   0.682  0.6414 -0.0623  1.8006
 9076TIP3   OH227191   6.401   4.533   3.251 -0.0687  0.3562  0.8074
 9076TIP3    H127192   6.489   4.493   3.246  1.7950  4.0729  0.3759
 9076TIP3    H227193   6.408   4.598   3.321 -3.1471 -0.4263  1.9904
 9077TIP3   OH227194   7.049   4.917   3.965  0.5511  0.1434  0.0972
 9077TIP3    H127195   7.011   4.833   3.938  0.7067  0.3305 -0.7341
 9077TIP3    H227196   7.034   4.921   4.060  3.7494 -2.5163  0.8966
 9078TIP3   OH227197   4.937   4.958   2.103 -0.0422 -0.0045 -0.1614
 9078TIP3    H127198   4.976   5.039   2.138  1.5914 -0.7966 -0.0414
 9078TIP3    H227199   5.006   4.893   2.112  0.3888 -0.4194 -4.4044
 9079TIP3   OH227200   3.170   5.579   0.316 -0.1786  0.0016  0.0085
 9079TIP3    H127201   3.199   5.492   0.343  0.7111 -0.0141 -0.9336
 9079TIP3    H227202   3.106   5.605   0.382 -1.0170 -1.6672 -0.1091
 9080TIP3   OH227203   4.349   4.597   5.041  0.0297  0.5405 -0.8038
 9080TIP3    H127204   4.380   4.630   5.126 -0.2766  2.1229 -1.2899
 9080TIP3    H227205   4.259   4.569   5.058 -0.4825  2.0650 -0.8723
 9081TIP3   OH227206   5.546   2.458   4.378  0.1680  0.4751 -0.4612
 9081TIP3    H127207   5.638   2.449   4.354 -0.2117 -1.2008 -1.4837
 9081TIP3    H227208   5.541   2.541   4.425  2.7712 -0.8419  2.4737
 9082TIP3   OH227209   3.593   2.731   0.849  0.3446 -0.0338  0.2173
 9082TIP3    H127210   3.676   2.775   0.831  0.4065 -0.1170  0.2936
 9082TIP3    H227211   3.563   2.768   0.932  0.6498 -0.4940  0.5401
 9083TIP3   OH227212   6.830   1.746   3.814 -0.1782  0.2980  0.4430
 9083TIP3    H127213   6.814   1.767   3.906 -0.5717  0.7665  0.2735
 9083TIP3    H227214   6.911   1.792   3.793 -0.0311  0.1041  0.5835
 9084TIP3   OH227215   5.672   6.008   4.796  0.1726 -0.2370  0.6187
 9084TIP3    H127216   5.697   5.984   4.706  0.2158  1.4706  0.1435
 9084TIP3    H227217   5.732   5.958   4.851  0.8821 -0.4811 -0.3440
 9085TIP3   OH227218   1.881   1.133   2.307 -0.1355 -0.0208 -0.2007
 9085TIP3    H127219   1.826   1.143   2.385  0.0247  0.9766 -0.2037
 9085TIP3    H227220   1.962   1.094   2.341 -0.2054  0.0664  0.0737
 9086TIP3   OH227221   5.415   0.462   3.233 -0.3813 -0.0059 -0.0756
 9086TIP3    H127222   5.436   0.373   3.205  2.5708 -0.2873  2.5213
 9086TIP3    H227223   5.453   0.518   3.165  0.6064 -0.7094 -0.1225
 9087TIP3   OH227224   2.182   5.143   4.704 -0.8208 -0.1422 -0.1360
 9087TIP3    H127225   2.211   5.069   4.758 -2.3125 -0.4677  0.2546
 9087TIP3    H227226   2.092   5.159   4.731 -1.6370 -0.3203 -2.4983
 9088TIP3   OH227227   5.818   1.939   2.080  0.1368 -0.1497 -0.2677
 9088TIP3    H127228   5.810   2.029   2.112 -0.9968 -0.4673  0.3900
 9088TIP3    H227229   5.813   1.886   2.159  1.4238 -0.7907 -0.5812
 9089TIP3   OH227230   4.363   3.205   2.790  0.0627 -0.3134  0.4587
 9089TIP3    H127231   4.302   3.230   2.859  0.3826  0.3789  0.4987
 9089TIP3    H227232   4.320   3.233   2.709 -0.0923 -0.6809  0.4125
 9090TIP3   OH227233   2.739   4.203   0.410  0.4633  0.2635 -0.6043
 9090TIP3    H127234   2.657   4.215   0.361  0.5241 -0.4050 -0.8748
 9090TIP3    H227235   2.808   4.207   0.344  0.5810 -0.1649 -0.5103
 9091TIP3   OH227236   3.965   1.618   4.305  0.2123 -0.4750 -0.3674
 9091TIP3    H127237   4.004   1.538   4.272  1.8549  0.7986 -1.6805
 9091TIP3    H227238   3.890   1.634   4.248 -0.4331 -1.3244  0.2275
 9092TIP3   OH227239   0.258   5.755   2.398  0.1075 -0.1106 -0.8545
 9092TIP3    H127240   0.228   5.846   2.406  1.1004  0.0932  1.8992
 9092TIP3    H227241   0.216   5.710   2.471  3.6109 -0.5574  1.1200
 9093TIP3   OH227242   0.851   2.225   0.817  0.5676 -0.3445  0.2763
 9093TIP3    H127243   0.820   2.305   0.860 -1.8444 -1.6003  1.1178
 9093TIP3    H227244   0.771   2.184   0.783  1.4894 -3.0935  1.1355
 9094TIP3   OH227245   3.798   5.770   0.060  0.9800 -0.1226 -0.4847
 9094TIP3    H127246   3.861   5.806   0.123 -0.0779  1.1323 -0.0860
 9094TIP3    H227247   3.713   5.801   0.092  0.5357  2.5907 -3.7199
 9095TIP3   OH227248   6.532   6.325   4.023 -0.3596  0.2768 -0.1725
 9095TIP3    H127249   6.601   6.388   4.044  0.3403 -0.6417  0.3486
 9095TIP3    H227250   6.574   6.239   4.031 -0.9809 -0.2510 -1.9544
 9096TIP3   OH227251   4.558   2.596   5.277 -0.3479 -0.5751 -0.0048
 9096TIP3    H127252   4.619   2.653   5.231 -0.7339  0.5849  0.8852
 9096TIP3    H227253   4.476   2.645   5.279 -0.2195 -0.3843  2.2867
 9097TIP3   OH227254   0.027   2.726   0.988 -0.5501  0.6680 -0.0150
 9097TIP3    H127255   0.027   2.803   0.931 -0.3914  1.0748  0.5229
 9097TIP3    H227256   0.088   2.665   0.945  0.0500  1.2150  0.0360
 9098TIP3   OH227257   4.019   4.425   5.712 -0.1359 -0.4887  0.1711
 9098TIP3    H127258   4.072   4.369   5.770  2.4129 -1.3500 -2.6815
 9098TIP3    H227259   3.949   4.367   5.681  0.0137 -0.8123  0.4234
 9099TIP3   OH227260   5.248   5.721   1.512 -0.0666 -0.3268  0.2869
 9099TIP3    H127261   5.205   5.745   1.430 -0.1350  0.1662  0.4609
 9099TIP3    H227262   5.296   5.641   1.491 -0.2815 -0.3422 -0.1689
 9100TIP3   OH227263   4.643   0.939   2.429 -0.8469 -0.3899 -0.0937
 9100TIP3    H127264   4.591   0.875   2.477  0.5334 -0.7907  0.9316
 9100TIP3    H227265   4.614   1.024   2.464 -0.4170 -0.6386  0.9041
 9101TIP3   OH227266   4.432   6.478   1.588 -0.6652 -0.3961  0.0155
 9101TIP3    H127267   4.336   6.478   1.585 -0.6784 -1.6643 -0.2102
 9101TIP3    H227268   4.458   6.543   1.523 -1.3710  0.4921  0.6030
 9102TIP3   OH227269   4.028   2.320   2.606 -0.0253  0.0909  0.1374
 9102TIP3    H127270   4.091   2.275   2.550 -0.6873 -0.5307 -0.1223
 9102TIP3    H227271   3.953   2.261   2.610  0.7508 -0.8311  3.3118
 9103TIP3   OH227272   5.717   6.173   0.373 -0.2660 -0.3847  0.1331
 9103TIP3    H127273   5.774   6.148   0.300  1.4000 -1.1232  1.6158
 9103TIP3    H227274   5.763   6.143   0.451 -1.4587  1.3471  1.5908
 9104TIP3   OH227275   0.458   3.268   3.273  0.4779 -0.3233 -0.2363
 9104TIP3    H127276   0.434   3.284   3.182  1.8676 -0.3984 -0.6350
 9104TIP3    H227277   0.421   3.342   3.322 -0.2847 -0.2928 -0.8472
 9105TIP3   OH227278   3.876   3.656   2.558 -0.0828  0.2783  0.3774
 9105TIP3    H127279   3.958   3.628   2.517  0.0197 -0.1252  0.8539
 9105TIP3    H227280   3.817   3.581   2.548 -0.5694  0.7369 -0.4027
 9106TIP3   OH227281   6.307   0.388   2.718  0.5352  0.1736 -0.2149
 9106TIP3    H127282   6.235   0.325   2.721  0.1804  0.4628 -1.6490
 9106TIP3    H227283   6.316   0.418   2.808 -0.1027 -1.0125  0.2763
 9107TIP3   OH227284   3.212   5.683   0.034  0.6913 -0.5581 -0.2052
 9107TIP3    H127285   3.138   5.676  -0.025 -0.0935 -0.9410  0.8013
 9107TIP3    H227286   3.183   5.642   0.115  2.4093 -1.8026 -0.1594
 9108TIP3   OH227287   1.944   1.691   5.013  0.0010 -0.2730  0.3582
 9108TIP3    H127288   2.035   1.682   5.043 -0.3614 -1.8705  1.0746
 9108TIP3    H227289   1.898   1.728   5.088 -0.3525 -1.5765  0.8079
 9109TIP3   OH227290   0.515   1.663   0.936 -0.1493  0.3592 -0.2744
 9109TIP3    H127291   0.563   1.674   1.018 -0.7009  1.0729 -0.0353
 9109TIP3    H227292   0.562   1.594   0.890  0.1920 -0.0226  0.6236
 9110TIP3   OH227293   1.473   5.272   0.349  0.2690 -0.2727  0.3550
 9110TIP3    H127294   1.554   5.321   0.355  0.1832 -0.0536 -0.2070
 9110TIP3    H227295   1.499   5.183   0.324  0.4642 -0.6662  1.8457
 9111TIP3   OH227296   3.361   1.241   3.374 -0.3169 -0.5555  0.1698
 9111TIP3    H127297   3.406   1.158   3.391  0.1773  0.2664  3.4454
 9111TIP3    H227298   3.429   1.307   3.381 -1.2454  0.3679  0.6276
 9112TIP3   OH227299   4.455   3.939   2.917 -0.2707  0.3789  0.0674
 9112TIP3    H127300   4.408   3.925   2.835  1.6348  1.0879 -1.2236
 9112TIP3    H227301   4.504   3.859   2.931  0.0319  0.5632  0.0758
 9113TIP3   OH227302   3.534   5.840   1.943 -0.2976  0.0815  0.2149
 9113TIP3    H127303   3.580   5.886   1.873  0.3770  0.3151  0.8006
 9113TIP3    H227304   3.471   5.905   1.977 -1.7361 -0.5169 -1.1743
 9114TIP3   OH227305   7.163   1.575   1.148 -0.4394 -0.0870  0.2578
 9114TIP3    H127306   7.166   1.480   1.157 -0.0072  0.0142  1.3071
 9114TIP3    H227307   7.247   1.599   1.109 -1.0019 -0.2201 -1.1027
 9115TIP3   OH227308   5.428   0.197   5.364  0.0310  0.5634  0.0524
 9115TIP3    H127309   5.423   0.246   5.446 -2.2502 -1.5209  1.3039
 9115TIP3    H227310   5.488   0.125   5.383 -2.0273 -1.0779  0.6671
 9116TIP3   OH227311   0.865   1.024   5.056 -0.3411 -0.9259  0.3703
 9116TIP3    H127312   0.780   1.036   5.099 -0.4774  1.9463 -0.4472
 9116TIP3    H227313   0.849   1.047   4.965  1.3850  0.2722  0.3099
 9117TIP3   OH227314   2.399   0.959   3.941 -0.4133 -0.5508  0.5950
 9117TIP3    H127315   2.378   1.035   3.995  1.3892 -0.7996  1.7328
 9117TIP3    H227316   2.391   0.885   4.002  0.8444 -0.9265  0.3216
 9118TIP3   OH227317   6.349   4.846   2.425 -0.3192  0.1913 -0.0478
 9118TIP3    H127318   6.432   4.893   2.426 -0.8577  1.5108  4.0229
 9118TIP3    H227319   6.296   4.892   2.360  1.5134  0.4046 -1.4752
 9119TIP3   OH227320   1.432   1.402   4.285  0.3841 -0.3391  0.2058
 9119TIP3    H127321   1.447   1.322   4.337 -0.6593  0.0084  1.0941
 9119TIP3    H227322   1.401   1.466   4.349  0.9377  0.7058 -0.5475
 9120TIP3   OH227323   2.838   1.282   3.221 -0.0555 -0.0845  0.1775
 9120TIP3    H127324   2.772   1.330   3.170  0.8261 -0.4046 -1.3287
 9120TIP3    H227325   2.866   1.344   3.288 -2.2871 -0.1465  1.2563
 9121TIP3   OH227326   3.837   0.355   2.653 -0.0283 -0.0574 -0.2237
 9121TIP3    H127327   3.924   0.317   2.664 -0.3184 -1.4786 -2.3228
 9121TIP3    H227328   3.844   0.409   2.575 -0.7898  0.7096  0.2131
 9122TIP3   OH227329   0.275   4.921   5.496  0.5759 -0.4537  0.6770
 9122TIP3    H127330   0.299   4.884   5.581  0.0349 -1.8470  0.2540
 9122TIP3    H227331   0.356   4.918   5.445  0.3825 -1.7817  0.4137
 9123TIP3   OH227332   7.111   1.998   4.533 -0.1395  0.3060  0.1401
 9123TIP3    H127333   7.069   2.083   4.519  0.2809  0.2272 -1.8797
 9123TIP3    H227334   7.038   1.938   4.554 -0.4636  1.0842  1.3185
 9124TIP3   OH227335   1.242   5.243   3.013 -0.2381  0.2854  0.2929
 9124TIP3    H127336   1.298   5.186   2.960 -1.2827 -0.5304  0.0369
 9124TIP3    H227337   1.277   5.331   2.999  0.9275 -0.2030  0.0839
 9125TIP3   OH227338   3.022   6.034   2.314  0.9252 -0.5712  0.1312
 9125TIP3    H127339   2.939   6.081   2.308  1.5940  0.5133 -1.2113
 9125TIP3    H227340   3.088   6.098   2.287  2.1414 -1.5863  0.5749
 9126TIP3   OH227341   5.820   5.953   3.550 -0.3035 -0.0615 -0.2692
 9126TIP3    H127342   5.771   5.973   3.630  1.7695  1.8864  0.6459
 9126TIP3    H227343   5.809   6.031   3.495  0.0230 -0.4760 -0.9290
 9127TIP3   OH227344   4.891   2.559   2.502  0.1020 -0.3182 -0.0016
 9127TIP3    H127345   4.934   2.611   2.434 -1.1606 -0.0588 -0.6333
 9127TIP3    H227346   4.963   2.518   2.549  1.2214  2.4835  0.9584
 9128TIP3   OH227347   1.463   1.573   3.225  0.3256 -0.0199  0.3645
 9128TIP3    H127348   1.488   1.490   3.265 -1.6178  0.0666  1.9101
 9128TIP3    H227349   1.436   1.550   3.136 -1.8051 -1.4038  1.2841
 9129TIP3   OH227350   5.357   1.045   1.905 -0.2322 -0.0214  0.3868
 9129TIP3    H127351   5.352   0.990   1.982 -0.4127  0.2331  0.5595
 9129TIP3    H227352   5.275   1.095   1.906 -1.3600 -1.6843 -1.2412
 9130TIP3   OH227353   4.074   4.474   3.773  0.3148 -0.0490 -0.6858
 9130TIP3    H127354   4.024   4.529   3.714  0.7931  1.0175 -0.1422
 9130TIP3    H227355   4.077   4.524   3.855 -0.3047 -1.4662  0.2287
 9131TIP3   OH227356   6.006   1.311   5.323 -0.1997  0.5187  0.0944
 9131TIP3    H127357   5.931   1.319   5.381 -1.5478 -2.8744 -0.9016
 9131TIP3    H227358   6.078   1.282   5.379 -1.0209 -1.0139  0.4069
 9132TIP3   OH227359   6.205   1.427   3.552  0.2194  0.3447 -0.2766
 9132TIP3    H127360   6.143   1.402   3.483 -1.9889 -1.3100  2.1559
 9132TIP3    H227361   6.267   1.355   3.556 -0.0461  0.1282 -0.0782
 9133TIP3   OH227362   0.603   3.053   1.901 -0.0160 -0.1129  0.2841
 9133TIP3    H127363   0.676   3.062   1.840 -1.9296  3.7615 -1.7931
 9133TIP3    H227364   0.645   3.033   1.985  3.1899 -0.3522 -1.2195
 9134TIP3   OH227365   6.245   1.787   1.272 -0.5419 -0.3173 -0.5488
 9134TIP3    H127366   6.244   1.705   1.321 -0.0896  0.0219  0.0319
 9134TIP3    H227367   6.298   1.769   1.195  1.8098  0.1392  0.8652
 9135TIP3   OH227368   5.450   6.460   5.592  0.3036 -0.3807  0.4412
 9135TIP3    H127369   5.465   6.376   5.548  0.9945 -0.0867  0.0907
 9135TIP3    H227370   5.484   6.446   5.681 -0.2299 -0.6867  0.6000
 9136TIP3   OH227371   6.710   4.918   0.548 -0.3086 -0.0604  0.2787
 9136TIP3    H127372   6.767   4.964   0.610 -1.9177  2.3318  0.1304
 9136TIP3    H227373   6.770   4.878   0.485  1.2552  0.2512  1.5159
 9137TIP3   OH227374   3.396   5.541   3.493  0.1934 -0.8378 -0.0446
 9137TIP3    H127375   3.452   5.472   3.455 -0.1123 -2.1588  1.7954
 9137TIP3    H227376   3.423   5.546   3.584 -1.7503 -0.5492  0.5580
 9138TIP3   OH227377   5.449   3.406   0.197  0.1704  0.3549  0.2062
 9138TIP3    H127378   5.472   3.478   0.139 -2.4474 -0.3061 -1.8701
 9138TIP3    H227379   5.393   3.445   0.264 -0.7327  0.4088 -0.5566
 9139TIP3   OH227380   3.382   4.299   1.514 -0.0036 -0.3925 -0.1069
 9139TIP3    H127381   3.396   4.205   1.502  1.7998 -0.4115  1.5877
 9139TIP3    H227382   3.463   4.330   1.554 -0.5721  1.9010 -0.5949
 9140TIP3   OH227383   6.840   0.277   5.890 -0.1488  0.1373 -0.0013
 9140TIP3    H127384   6.836   0.356   5.836  0.5402 -0.0073 -0.2659
 9140TIP3    H227385   6.866   0.208   5.830 -1.8405 -0.5445 -0.0284
 9141TIP3   OH227386   5.132   3.045   0.527 -0.6841  0.1676  0.0025
 9141TIP3    H127387   5.169   2.957   0.517  0.9260  0.4206  2.6613
 9141TIP3    H227388   5.041   3.030   0.554 -0.9806 -0.5972 -1.3460
 9142TIP3   OH227389   4.035   4.948   0.515 -0.5885 -0.0902 -0.4979
 9142TIP3    H127390   4.097   4.944   0.588 -1.2981  0.1483  0.1407
 9142TIP3    H227391   4.048   4.866   0.468  2.9538  1.5363 -2.7527
 9143TIP3   OH227392   2.888   3.701   4.157  0.2819 -0.0725  0.2677
 9143TIP3    H127393   2.900   3.606   4.157  0.0648 -0.1165  1.4881
 9143TIP3    H227394   2.793   3.713   4.159  0.3065  0.1109  2.7409
 9144TIP3   OH227395   5.267   6.092   0.994  0.4846  0.3567  0.0643
 9144TIP3    H127396   5.244   6.183   1.011  1.2591  0.3646  1.1924
 9144TIP3    H227397   5.357   6.096   0.961  0.2216  0.0609 -0.6965
 9145TIP3   OH227398   2.169   4.572   5.075 -0.1661  0.4145  0.1289
 9145TIP3    H127399   2.149   4.480   5.058  0.6921  0.2225  0.0907
 9145TIP3    H227400   2.128   4.590   5.160  0.6576 -0.3533  0.7098
 9146TIP3   OH227401   2.876   6.381   4.369 -0.4559  0.3128  0.0788
 9146TIP3    H127402   2.818   6.339   4.306 -1.1806 -0.9320  1.5064
 9146TIP3    H227403   2.837   6.361   4.454  1.2912  0.6747  1.0092
 9147TIP3   OH227404   2.337   0.371   2.797  0.3085  0.0393  0.0740
 9147TIP3    H127405   2.316   0.281   2.773 -0.5103  0.1984  0.1843
 9147TIP3    H227406   2.359   0.367   2.890 -1.8799  0.2778  0.6539
 9148TIP3   OH227407   4.112   3.606   4.716 -0.6767 -0.2144  0.0379
 9148TIP3    H127408   4.114   3.680   4.776 -0.7852 -2.0661  2.4708
 9148TIP3    H227409   4.186   3.622   4.657 -0.0484  1.3071  1.1503
 9149TIP3   OH227410   6.881   5.873   2.583  0.1603 -0.2865  0.0292
 9149TIP3    H127411   6.856   5.966   2.577 -2.6496 -0.9850 -0.7729
 9149TIP3    H227412   6.846   5.834   2.503  0.8153 -2.1341  0.5980
 9150TIP3   OH227413   2.063   6.617   2.175  0.3065 -0.1136 -0.2019
 9150TIP3    H127414   2.102   6.680   2.114  0.9842 -0.2830  0.0470
 9150TIP3    H227415   1.980   6.593   2.135  0.8510 -0.4070 -1.1891
 9151TIP3   OH227416   4.072   0.461   1.952 -0.7630 -0.2086  0.1335
 9151TIP3    H127417   4.118   0.544   1.965 -1.1782 -0.1188  1.0588
 9151TIP3    H227418   4.079   0.445   1.858  1.6898 -0.5158  0.3254
 9152TIP3   OH227419   6.480   6.613   2.191  0.2969  0.3780 -0.2035
 9152TIP3    H127420   6.472   6.522   2.221 -1.7061  0.5276 -0.1610
 9152TIP3    H227421   6.397   6.653   2.213  0.8061  1.9937 -1.0600
 9153TIP3   OH227422   0.771   1.949   1.983 -0.0836 -0.5975  0.7803
 9153TIP3    H127423   0.740   1.943   2.073 -1.0252  1.1664  0.6238
 9153TIP3    H227424   0.861   1.983   1.991 -0.4304  0.2786  1.0456
 9154TIP3   OH227425   2.610   2.018   4.784  0.0933  0.3339  0.2004
 9154TIP3    H127426   2.550   2.087   4.814 -1.9406 -0.9560 -0.7150
 9154TIP3    H227427   2.582   1.940   4.831  2.0068 -0.0419  0.7949
 9155TIP3   OH227428   4.049   4.138   5.205  0.2300  0.1609  0.1325
 9155TIP3    H127429   4.007   4.167   5.287 -0.4990  0.1934 -0.2442
 9155TIP3    H227430   4.005   4.055   5.184 -0.6252  0.8677 -0.9852
 9156TIP3   OH227431   0.311   4.404   4.142 -0.1333 -0.3026  0.0434
 9156TIP3    H127432   0.288   4.489   4.180 -2.5690 -0.2909 -1.2898
 9156TIP3    H227433   0.345   4.353   4.216  0.3732  1.4416  1.0777
 9157TIP3   OH227434   3.492   0.491   5.007 -0.0592  0.0610 -0.2208
 9157TIP3    H127435   3.567   0.469   5.062  1.2510  1.4070 -1.3734
 9157TIP3    H227436   3.439   0.411   5.003  1.5083 -1.0299  0.3179
 9158TIP3   OH227437   1.161   3.383   0.465 -0.2128 -0.2019  0.1412
 9158TIP3    H127438   1.113   3.443   0.408  0.2180 -0.1540 -0.1774
 9158TIP3    H227439   1.187   3.437   0.540 -2.1415 -0.6367  1.1783
 9159TIP3   OH227440   4.366   1.439   0.597  0.2883 -0.2662  0.7863
 9159TIP3    H127441   4.334   1.518   0.555 -0.1930 -0.6308  0.4506
 9159TIP3    H227442   4.330   1.441   0.685 -1.1847 -0.9619  0.2303
 9160TIP3   OH227443   6.479   2.109   2.142 -0.7887 -0.1300 -0.2632
 9160TIP3    H127444   6.485   2.205   2.144 -1.0097 -0.1098 -0.4966
 9160TIP3    H227445   6.420   2.088   2.215 -0.6874 -0.0927 -0.1703
 9161TIP3   OH227446   5.100   1.980   4.189 -0.2329  0.2725 -0.1989
 9161TIP3    H127447   5.027   1.996   4.250 -0.6348 -1.2481 -0.2524
 9161TIP3    H227448   5.146   1.905   4.226  0.8912  0.7575 -0.5657
 9162TIP3   OH227449   0.499   2.342   3.313 -0.9648 -0.1071  0.3652
 9162TIP3    H127450   0.586   2.319   3.281 -1.0930 -0.9161  0.5721
 9162TIP3    H227451   0.439   2.308   3.247 -1.2248 -1.7009  1.3668
 9163TIP3   OH227452   0.081   5.674   4.406 -0.1732 -0.3632  0.5541
 9163TIP3    H127453   0.019   5.628   4.464 -2.3434  1.1186 -0.4513
 9163TIP3    H227454   0.086   5.618   4.328 -0.3419 -0.4320  0.5913
 9164TIP3   OH227455   6.232   1.874   1.816  0.1816  0.5220  0.3657
 9164TIP3    H127456   6.168   1.925   1.867 -0.3495  1.1098 -0.8463
 9164TIP3    H227457   6.315   1.887   1.863 -0.3843  0.6166  1.3674
 9165TIP3   OH227458   1.692   0.418   2.918 -0.2614 -0.3455  0.6991
 9165TIP3    H127459   1.614   0.364   2.903  0.4275 -1.0180 -0.6077
 9165TIP3    H227460   1.749   0.400   2.844  0.8209  0.7403  1.2238
 9166TIP3   OH227461   4.540   1.807   0.787  0.1143 -0.4391  0.4950
 9166TIP3    H127462   4.616   1.751   0.801 -1.4099 -3.5761 -2.2360
 9166TIP3    H227463   4.524   1.802   0.692 -1.5178  2.9287  0.4319
 9167TIP3   OH227464   5.197   6.712   2.095 -0.1862 -0.3378  0.2616
 9167TIP3    H127465   5.219   6.773   2.025  0.7760 -0.3628  0.5261
 9167TIP3    H227466   5.119   6.666   2.064 -1.4819  1.6349  0.4291
 9168TIP3   OH227467   3.859   6.747   4.741  0.6081 -0.2701 -0.4084
 9168TIP3    H127468   3.933   6.717   4.688 -0.8474 -0.8446 -2.2005
 9168TIP3    H227469   3.790   6.767   4.678 -0.8737  0.0118  1.2166
 9169TIP3   OH227470   3.692   3.760   2.963 -0.5309 -0.9391  0.1929
 9169TIP3    H127471   3.685   3.754   3.058  1.5528  0.4212  0.4917
 9169TIP3    H227472   3.776   3.720   2.942  0.4794  1.4463 -0.6719
 9170TIP3   OH227473   3.530   1.627   3.572 -0.0012 -0.1408 -0.2958
 9170TIP3    H127474   3.557   1.715   3.600 -1.6528  0.0731  0.7675
 9170TIP3    H227475   3.546   1.571   3.647 -3.1974  0.1821  0.7789
 9171TIP3   OH227476   1.100   3.314   5.828 -1.0605  0.0273  0.4264
 9171TIP3    H127477   1.101   3.229   5.784 -0.1019 -0.1487  0.7539
 9171TIP3    H227478   1.096   3.293   5.921 -1.7551  0.3677  0.4792
 9172TIP3   OH227479   0.874   2.688   0.630 -0.5303  0.4485  0.4995
 9172TIP3    H127480   0.933   2.711   0.702 -0.6703 -0.1376  0.8063
 9172TIP3    H227481   0.798   2.649   0.672  0.2631 -1.8229 -0.0335
 9173TIP3   OH227482   7.074   1.461   5.360  1.0486  0.0447 -0.5130
 9173TIP3    H127483   7.060   1.506   5.443  0.3284  0.6763 -0.9619
 9173TIP3    H227484   7.164   1.428   5.365  0.9439 -0.1107  0.5899
 9174TIP3   OH227485   3.925   5.145   2.098 -0.1245 -0.2357  0.4037
 9174TIP3    H127486   3.856   5.210   2.088 -0.3076 -0.7585 -3.9957
 9174TIP3    H227487   4.002   5.194   2.126 -1.0712  1.2641  0.4672
 9175TIP3   OH227488   3.385   0.634   5.372 -0.0083 -0.9960  0.2902
 9175TIP3    H127489   3.330   0.606   5.299 -1.8795  0.2204  1.1592
 9175TIP3    H227490   3.443   0.700   5.334 -1.0318 -0.2980 -0.1106
 9176TIP3   OH227491   5.310   5.008   2.580 -0.4122 -0.6576  0.3959
 9176TIP3    H127492   5.327   4.939   2.645  1.4083 -0.7106 -0.0823
 9176TIP3    H227493   5.367   4.985   2.506 -0.0024  1.1950  0.1002
 9177TIP3   OH227494   7.107   6.050   3.157  0.6030 -0.1301 -0.8941
 9177TIP3    H127495   7.158   6.123   3.121 -1.2195  0.7973 -1.7058
 9177TIP3    H227496   7.035   6.038   3.095  0.4258 -2.1370 -0.3655
 9178TIP3   OH227497   4.209   4.642   3.420  0.1258 -0.7556  0.0116
 9178TIP3    H127498   4.271   4.604   3.357  1.0488  0.1176  0.3544
 9178TIP3    H227499   4.244   4.730   3.436 -1.4399 -0.0798 -0.0936
 9179TIP3   OH227500   0.947   0.160   0.729  0.1129 -0.0715  0.4411
 9179TIP3    H127501   0.899   0.108   0.665  0.1865  0.7019 -0.2562
 9179TIP3    H227502   1.039   0.144   0.709  0.1367  0.5090  0.0634
 9180TIP3   OH227503   4.397   2.204   3.168 -0.1619 -0.1585 -0.0042
 9180TIP3    H127504   4.303   2.218   3.157  0.1570  2.9738  0.1385
 9180TIP3    H227505   4.405   2.156   3.250 -1.6386  0.8853  0.7959
 9181TIP3   OH227506   0.717   2.247   3.194 -0.2557  0.4647  0.9602
 9181TIP3    H127507   0.761   2.297   3.125 -1.7431  0.3181 -0.1385
 9181TIP3    H227508   0.691   2.166   3.151 -1.5147  0.5129  1.5905
 9182TIP3   OH227509   3.274   2.822   0.096  0.0703 -0.7505 -0.3107
 9182TIP3    H127510   3.361   2.839   0.060 -0.0997  0.0981 -0.3366
 9182TIP3    H227511   3.224   2.789   0.021  0.3696 -1.2644 -0.2902
 9183TIP3   OH227512   4.876   3.341   4.943  0.6698 -0.7201  0.5159
 9183TIP3    H127513   4.882   3.434   4.960  0.0101 -0.9866  2.3382
 9183TIP3    H227514   4.923   3.329   4.860 -0.0876  1.3406 -0.2650
 9184TIP3   OH227515   1.401   4.254   1.195 -0.1159 -0.1717 -0.8931
 9184TIP3    H127516   1.466   4.249   1.125  2.6344 -0.5136  1.5039
 9184TIP3    H227517   1.404   4.167   1.236 -0.1039  0.6390  0.9039
 9185TIP3   OH227518   5.784   3.493   2.072 -0.4486 -0.1058  0.9806
 9185TIP3    H127519   5.758   3.553   2.003  1.7488  1.9376  1.7633
 9185TIP3    H227520   5.755   3.536   2.153  2.2415  0.6759  1.6411
 9186TIP3   OH227521   3.753   3.200   4.193  0.4404  0.1008  0.1428
 9186TIP3    H127522   3.720   3.158   4.273  0.1945 -0.2890 -0.1589
 9186TIP3    H227523   3.727   3.141   4.123  0.0217  0.7981 -0.3027
 9187TIP3   OH227524   1.720   0.091   2.669 -0.1810  0.2293  0.1716
 9187TIP3    H127525   1.678   0.109   2.753  0.5590  0.6138  0.4656
 9187TIP3    H227526   1.648   0.087   2.606 -0.7273  0.0571  0.8031
 9188TIP3   OH227527   5.698   6.457   4.592  0.7733 -0.2455  0.0246
 9188TIP3    H127528   5.693   6.363   4.612  0.4077 -0.3384 -0.4908
 9188TIP3    H227529   5.652   6.499   4.665 -0.1667 -0.5563 -0.3676
 9189TIP3   OH227530   2.039   3.711   4.238  0.5470 -0.0486 -0.1304
 9189TIP3    H127531   2.076   3.647   4.178 -2.8570 -2.1203 -0.2636
 9189TIP3    H227532   2.073   3.685   4.324 -0.7498 -2.1380 -0.1795
 9190TIP3   OH227533   5.772   1.843   4.996  0.5928 -0.0538 -0.0612
 9190TIP3    H127534   5.699   1.888   4.952  0.3195  0.7849  1.2128
 9190TIP3    H227535   5.823   1.806   4.924 -0.9097 -0.4092 -1.0053
 9191TIP3   OH227536   0.041   4.281   1.265  0.1389 -0.4423 -0.1218
 9191TIP3    H127537   0.066   4.277   1.357 -0.6315 -0.1994  0.1039
 9191TIP3    H227538   0.124   4.286   1.218  0.5242  0.0176  0.5876
 9192TIP3   OH227539   3.790   6.701   4.285 -0.0047  0.7649  0.1961
 9192TIP3    H127540   3.708   6.676   4.244  0.7684  1.7248 -2.1594
 9192TIP3    H227541   3.765   6.763   4.353 -1.3691 -0.9515  1.3439
 9193TIP3   OH227542   4.087   5.998   2.605  0.7102 -0.2549  0.2448
 9193TIP3    H127543   4.169   5.972   2.562  1.1134  1.1819  0.0725
 9193TIP3    H227544   4.114   6.023   2.693  0.8046  1.8417 -0.3057
 9194TIP3   OH227545   3.364   0.140   2.178  0.4686 -0.1424 -0.0885
 9194TIP3    H127546   3.311   0.118   2.254 -1.9552  0.4685 -1.5029
 9194TIP3    H227547   3.451   0.157   2.213  0.0528 -2.2121  2.2319
 9195TIP3   OH227548   3.559   6.612   0.431  0.0627  0.2367 -0.0758
 9195TIP3    H127549   3.649   6.612   0.397  0.1108 -0.1169  0.0505
 9195TIP3    H227550   3.569   6.606   0.526 -0.1262 -3.0090 -0.1818
 9196TIP3   OH227551   3.759   2.300   0.249 -0.3122  0.0882 -0.2988
 9196TIP3    H127552   3.710   2.376   0.215  0.9705  1.0419 -0.0844
 9196TIP3    H227553   3.842   2.301   0.202 -0.0030 -0.7871  0.1977
 9197TIP3   OH227554   5.324   0.663   1.522  0.0702  0.0930  0.0696
 9197TIP3    H127555   5.327   0.624   1.609 -3.2502  0.4608  0.4606
 9197TIP3    H227556   5.234   0.694   1.512  0.7222  1.4003 -2.9424
 9198TIP3   OH227557   1.030   4.119   4.065  0.0291 -0.1107  0.0259
 9198TIP3    H127558   1.068   4.160   3.987 -1.1339  0.6229 -0.1812
 9198TIP3    H227559   1.069   4.031   4.067 -1.6174 -1.0159 -2.7231
 9199TIP3   OH227560   0.324   6.666   0.514  0.0314 -0.1337  0.3854
 9199TIP3    H127561   0.336   6.676   0.609  2.8748  0.0495  0.1002
 9199TIP3    H227562   0.339   6.573   0.498 -1.9697 -0.4736  0.2257
 9200TIP3   OH227563   0.619   6.113   1.418 -0.1600  0.1633  0.0543
 9200TIP3    H127564   0.702   6.068   1.403  0.2071  0.0921  2.1132
 9200TIP3    H227565   0.635   6.203   1.387  0.6444  0.1175  0.3209
 9201TIP3   OH227566   3.295   2.121   2.689  0.3241 -0.1193 -0.5402
 9201TIP3    H127567   3.246   2.163   2.760 -0.2530 -2.0305  0.2384
 9201TIP3    H227568   3.240   2.133   2.612 -0.3436 -0.3962 -0.1096
 9202TIP3   OH227569   5.715   5.850   0.940  0.4249  0.0428  0.5897
 9202TIP3    H127570   5.690   5.895   1.021  1.6723 -2.9848  2.8869
 9202TIP3    H227571   5.797   5.807   0.961  1.2213 -0.2581 -2.6404
 9203TIP3   OH227572   3.429   2.720   4.362 -0.1495  0.7376 -0.2943
 9203TIP3    H127573   3.486   2.677   4.426 -1.0881  0.1056  0.1548
 9203TIP3    H227574   3.418   2.809   4.396 -0.9203  0.3102  0.6634
 9204TIP3   OH227575   5.776   2.178   2.182  0.1199 -0.2953 -0.1693
 9204TIP3    H127576   5.820   2.204   2.263  0.7571 -0.8048 -0.3516
 9204TIP3    H227577   5.693   2.226   2.184  1.8172  2.9241 -1.1787
 9205TIP3   OH227578   1.993   0.691   2.663  0.3438  0.1605 -0.2593
 9205TIP3    H127579   2.047   0.623   2.622  2.5243  1.2735  0.6061
 9205TIP3    H227580   2.009   0.681   2.757  0.8592  1.9589 -0.1207
 9206TIP3   OH227581   2.425   2.458   3.420  0.1947  0.6230 -0.2735
 9206TIP3    H127582   2.452   2.543   3.454  0.1879  1.0547 -1.3234
 9206TIP3    H227583   2.337   2.445   3.456 -0.0370  1.3249 -0.5766
 9207TIP3   OH227584   2.016   4.575   5.351  0.4150 -0.0767  0.0786
 9207TIP3    H127585   2.110   4.566   5.361  0.4570  0.5860  0.2875
 9207TIP3    H227586   1.986   4.616   5.432 -0.3816 -2.3924  1.0259
 9208TIP3   OH227587   5.495   6.161   3.524  0.0198  0.0678  0.6404
 9208TIP3    H127588   5.436   6.090   3.495 -1.5059  0.4987  2.4528
 9208TIP3    H227589   5.573   6.151   3.470 -0.2756 -2.7941  0.5833
 9209TIP3   OH227590   2.753   4.309   5.635 -0.5232 -0.2203 -0.3442
 9209TIP3    H127591   2.822   4.293   5.570 -0.5288  0.4604 -0.5281
 9209TIP3    H227592   2.790   4.373   5.695 -0.2308 -1.4298  0.8063
 9210TIP3   OH227593   2.182   1.260   2.481  0.7414 -0.1320 -0.0640
 9210TIP3    H127594   2.106   1.297   2.436  0.2372 -0.9643  0.0865
 9210TIP3    H227595   2.234   1.337   2.507  0.5571  0.3952 -1.2015
 9211TIP3   OH227596   2.175   3.765   5.627  0.3829  0.1686  1.1558
 9211TIP3    H127597   2.242   3.794   5.566  0.6960 -1.3385  0.7460
 9211TIP3    H227598   2.224   3.723   5.698 -0.0776 -0.0347  1.3582
 9212TIP3   OH227599   4.789   5.147   4.387  0.2971  0.0159  0.5253
 9212TIP3    H127600   4.806   5.162   4.480 -0.1060 -0.2364  0.6406
 9212TIP3    H227601   4.876   5.134   4.348  0.3435 -3.4317  1.4668
 9213TIP3   OH227602   0.892   2.681   2.482 -0.4279 -0.5056  0.0841
 9213TIP3    H127603   0.901   2.593   2.518  0.6914 -0.7155 -0.6806
 9213TIP3    H227604   0.798   2.690   2.464 -0.6823 -1.1860  1.0104
 9214TIP3   OH227605   2.161   2.468   3.890 -0.1458 -0.3246  0.0943
 9214TIP3    H127606   2.134   2.436   3.804  1.7456 -1.5622 -0.1157
 9214TIP3    H227607   2.080   2.475   3.940 -1.2122 -0.2350 -1.5691
 9215TIP3   OH227608   1.936   2.314   2.672 -0.5512 -0.0027 -0.8108
 9215TIP3    H127609   1.840   2.311   2.671 -0.5562  0.0762 -0.3807
 9215TIP3    H227610   1.957   2.397   2.715 -0.2806 -0.7694  0.5752
 9216TIP3   OH227611   6.542   4.328   2.920 -0.1893 -0.2689 -0.4029
 9216TIP3    H127612   6.594   4.306   2.843  0.7539 -0.6186  0.3035
 9216TIP3    H227613   6.569   4.418   2.942 -2.1513  0.7370 -1.7874
 9217TIP3   OH227614   4.420   6.201   2.660 -0.7458 -0.1874  0.9429
 9217TIP3    H127615   4.417   6.297   2.657 -1.0734 -0.0739 -4.2166
 9217TIP3    H227616   4.503   6.181   2.702  0.7469  2.5232 -0.4501
 9218TIP3   OH227617   5.776   2.295   1.005 -0.4516 -0.0554 -0.1071
 9218TIP3    H127618   5.789   2.366   0.941  0.5700  0.7539  0.9456
 9218TIP3    H227619   5.851   2.237   0.991 -0.8491 -0.4943 -0.4174
 9219TIP3   OH227620   2.100   4.581   2.424  0.4573  0.2164  0.0073
 9219TIP3    H127621   2.046   4.634   2.482  0.9166  2.0264 -1.1500
 9219TIP3    H227622   2.172   4.552   2.479  0.6552  1.5385  0.4782
 9220TIP3   OH227623   3.481   2.177   5.365 -0.4020  0.3508 -0.7908
 9220TIP3    H127624   3.428   2.106   5.402 -0.9320  1.0435 -0.2068
 9220TIP3    H227625   3.558   2.180   5.421  0.0944 -0.3957 -1.4048
 9221TIP3   OH227626   1.817   3.861   2.516  0.0360  0.5248 -0.3813
 9221TIP3    H127627   1.743   3.805   2.537  1.8388 -2.0166 -0.3431
 9221TIP3    H227628   1.830   3.915   2.594 -1.9343  1.2748 -0.5332
 9222TIP3   OH227629   3.407   1.737   5.354 -0.4917  0.2716 -0.1860
 9222TIP3    H127630   3.469   1.743   5.281  0.3368 -0.0054  0.4920
 9222TIP3    H227631   3.328   1.700   5.314 -0.1279  0.3333 -0.9906
 9223TIP3   OH227632   4.944   3.395   1.592 -0.1761  0.4283 -0.6985
 9223TIP3    H127633   4.981   3.326   1.646 -2.5999 -2.3509 -2.2873
 9223TIP3    H227634   5.012   3.462   1.588  2.0849 -1.5600  1.4648
 9224TIP3   OH227635   3.211   6.497   5.443  0.5167 -0.3589 -0.0261
 9224TIP3    H127636   3.172   6.433   5.383  0.9487 -0.8947  0.2543
 9224TIP3    H227637   3.139   6.522   5.501  0.1727 -0.0630 -0.5771
 9225TIP3   OH227638   0.575   1.855   1.432 -0.2712  0.4375 -0.0578
 9225TIP3    H127639   0.552   1.945   1.453  0.1522  0.2756  1.1643
 9225TIP3    H227640   0.665   1.845   1.463 -0.2793 -0.3738 -0.2705
 9226TIP3   OH227641   3.267   0.642   4.401  0.1328 -0.3607  0.5491
 9226TIP3    H127642   3.248   0.600   4.485 -0.4102  0.1214  0.6716
 9226TIP3    H227643   3.356   0.678   4.412  0.6075 -1.4568  0.4419
 9227TIP3   OH227644   3.459   4.344   0.565 -0.1289 -0.0387  0.9365
 9227TIP3    H127645   3.389   4.348   0.499  1.6424  3.0902 -0.9736
 9227TIP3    H227646   3.501   4.260   0.550  0.3956  0.6809 -2.2506
 9228TIP3   OH227647   6.603   1.149   1.432 -0.6883 -0.1057 -0.1857
 9228TIP3    H127648   6.560   1.067   1.455  2.3526 -1.6328  0.5932
 9228TIP3    H227649   6.592   1.204   1.510 -0.2687 -0.8958  0.4490
 9229TIP3   OH227650   1.196   5.967   2.201  0.0631 -0.4142  0.2361
 9229TIP3    H127651   1.234   6.006   2.279 -1.8878  0.9342  0.5593
 9229TIP3    H227652   1.165   6.041   2.149 -2.2219 -1.3956  0.0735
 9230TIP3   OH227653   2.375   5.195   2.234 -0.1082 -0.2953  0.2299
 9230TIP3    H127654   2.436   5.240   2.292  1.1254 -0.2690 -1.0233
 9230TIP3    H227655   2.350   5.116   2.281  0.1351  0.1669  1.1615
 9231TIP3   OH227656   5.051   4.640   3.947 -0.2965  0.1121 -0.4706
 9231TIP3    H127657   5.096   4.581   4.008 -2.2776 -1.2914 -0.2556
 9231TIP3    H227658   4.983   4.681   4.000  0.3772  1.8283 -0.8842
 9232TIP3   OH227659   7.043   5.454   2.898  0.2852  0.0545  0.3059
 9232TIP3    H127660   7.044   5.370   2.853 -1.2386  0.6709 -0.9511
 9232TIP3    H227661   7.069   5.433   2.988 -0.1158 -1.7658  0.0312
 9233TIP3   OH227662   3.974   3.766   4.088  0.1338  0.1911 -0.1173
 9233TIP3    H127663   3.886   3.758   4.051 -0.4190 -2.1669  1.5285
 9233TIP3    H227664   4.018   3.685   4.063  0.7579 -0.0747  1.7258
 9234TIP3   OH227665   4.501   6.061   5.332  0.3135  0.0646 -0.9258
 9234TIP3    H127666   4.469   5.978   5.298 -0.9542  0.2083 -0.1442
 9234TIP3    H227667   4.462   6.068   5.419  2.2108  0.4399 -0.0609
 9235TIP3   OH227668   4.256   4.927   1.001  0.2940  0.2394  0.2477
 9235TIP3    H127669   4.208   4.848   1.025 -0.4316  0.2170 -1.1360
 9235TIP3    H227670   4.348   4.901   1.005  0.1786  0.0126  2.0279
 9236TIP3   OH227671   4.479   4.645   1.263 -0.4684 -0.1773  0.9122
 9236TIP3    H127672   4.433   4.589   1.325 -1.0974 -0.7617 -0.0447
 9236TIP3    H227673   4.513   4.584   1.197 -1.5733  0.5565 -0.4027
 9237TIP3   OH227674   2.380   3.818   4.407  0.3280  0.1349 -0.4570
 9237TIP3    H127675   2.331   3.838   4.327  0.3519 -0.9240 -0.7513
 9237TIP3    H227676   2.334   3.743   4.445  0.7447  0.1798  0.1411
 9238TIP3   OH227677   4.739   6.543   3.956 -0.1471 -0.1478 -0.0061
 9238TIP3    H127678   4.790   6.553   4.037 -0.9030  0.2258  0.4430
 9238TIP3    H227679   4.660   6.495   3.984 -0.1515 -0.5119 -0.6374
 9239TIP3   OH227680   5.127   2.543   3.215 -0.2659  0.3585  0.2881
 9239TIP3    H127681   5.035   2.525   3.195  0.0637 -0.6140 -0.4812
 9239TIP3    H227682   5.165   2.570   3.131  0.3676 -0.2766  0.3573
 9240TIP3   OH227683   0.966   3.826   4.347  0.2554  0.3197  0.4987
 9240TIP3    H127684   0.881   3.793   4.376 -0.5819  1.3566 -0.6988
 9240TIP3    H227685   0.964   3.919   4.368  0.6347  0.5725 -0.5415
 9241TIP3   OH227686   3.416   2.284   3.345  0.0697  0.3396 -0.3995
 9241TIP3    H127687   3.402   2.244   3.431  1.9119 -0.3234 -0.3763
 9241TIP3    H227688   3.461   2.366   3.364  2.0129 -0.5934 -0.7801
 9242TIP3   OH227689   0.484   1.034   5.874 -0.3928 -0.3025  0.0435
 9242TIP3    H127690   0.466   0.962   5.814  0.2713 -1.7279  1.4883
 9242TIP3    H227691   0.563   1.008   5.921 -1.5541  0.1552  2.4167
 9243TIP3   OH227692   3.503   3.256   0.793 -0.0341 -0.2982  0.0193
 9243TIP3    H127693   3.482   3.164   0.809  1.9110 -0.7543  0.1566
 9243TIP3    H227694   3.592   3.255   0.758  1.0284  1.6585  2.3385
 9244TIP3   OH227695   1.757   1.931   4.864 -0.0445 -1.0018  0.0491
 9244TIP3    H127696   1.700   1.909   4.790  1.9284 -1.5803 -1.3680
 9244TIP3    H227697   1.760   2.027   4.863 -0.6133 -0.9779 -0.1251
 9245TIP3   OH227698   2.995   2.556   0.266  0.3966  0.8071  0.0773
 9245TIP3    H127699   3.000   2.465   0.235 -0.1963  0.4367  1.0370
 9245TIP3    H227700   2.927   2.596   0.212  2.2867  1.3935 -2.0165
 9246TIP3   OH227701   5.106   2.866   5.303  0.1843 -0.4439 -0.0707
 9246TIP3    H127702   5.147   2.889   5.220 -1.0189  0.2188 -0.5080
 9246TIP3    H227703   5.180   2.848   5.362  1.0911  0.4621 -0.8847
 9247TIP3   OH227704   5.942   3.833   1.771  0.0655  0.0089  0.4287
 9247TIP3    H127705   5.999   3.771   1.816 -1.0201 -0.2538  1.4996
 9247TIP3    H227706   6.000   3.902   1.741  1.0068 -0.4781  1.0773
 9248TIP3   OH227707   3.401   6.464   5.636  0.6779  0.2184  0.7221
 9248TIP3    H127708   3.330   6.492   5.578  0.7108  0.4243  0.7780
 9248TIP3    H227709   3.389   6.370   5.646  0.2131  0.3020  0.9981
 9249TIP3   OH227710   1.054   3.346   3.400 -0.4249 -0.2508  0.3226
 9249TIP3    H127711   1.121   3.325   3.464 -0.7445  2.1078  1.5756
 9249TIP3    H227712   1.079   3.432   3.367 -1.7636 -0.1957 -0.6372
 9250TIP3   OH227713   1.830   6.382   3.762 -0.3950  0.1361 -0.3076
 9250TIP3    H127714   1.768   6.356   3.831 -1.9819  1.6219 -1.1054
 9250TIP3    H227715   1.906   6.326   3.777 -2.4607 -2.9445 -0.2086
 9251TIP3   OH227716   2.606   1.517   3.638 -0.5581  0.5452  0.1351
 9251TIP3    H127717   2.512   1.526   3.653 -0.7981  0.6883 -1.3373
 9251TIP3    H227718   2.624   1.425   3.655 -0.8737  0.6068  0.8476
 9252TIP3   OH227719   2.391   2.750   0.475 -0.4798 -0.1867  0.9403
 9252TIP3    H127720   2.349   2.744   0.389  0.2339  0.6447  0.5183
 9252TIP3    H227721   2.412   2.659   0.498 -2.5466 -0.6438  1.2155
 9253TIP3   OH227722   6.140   2.037   1.307  0.1039  0.3162  0.6145
 9253TIP3    H127723   6.165   1.946   1.290 -1.1077 -0.0677  0.7715
 9253TIP3    H227724   6.186   2.060   1.388  0.0585 -0.3148  0.8243
 9254TIP3   OH227725   3.431   5.846   5.747 -0.0594  0.3151 -0.1271
 9254TIP3    H127726   3.416   5.755   5.723 -1.0103  0.8107 -1.5342
 9254TIP3    H227727   3.501   5.875   5.690  0.2249  0.4791  0.2997
 9255TIP3   OH227728   0.820   5.256   0.643 -0.0981 -0.5545 -0.4341
 9255TIP3    H127729   0.871   5.182   0.611 -2.5540 -2.1133 -1.0688
 9255TIP3    H227730   0.739   5.217   0.676  0.5169  1.3601  4.0694
 9256TIP3   OH227731   2.839   3.129   2.268 -0.1213  0.2534  0.1600
 9256TIP3    H127732   2.767   3.184   2.237 -0.5489  0.0482  0.7568
 9256TIP3    H227733   2.900   3.189   2.310  0.6809  0.5931 -1.4280
 9257TIP3   OH227734   3.576   3.768   3.218  0.2359  0.4810  0.0408
 9257TIP3    H127735   3.662   3.746   3.253  1.2423  0.4129 -2.2653
 9257TIP3    H227736   3.519   3.773   3.294  2.4217  1.2610  1.7329
 9258TIP3   OH227737   5.851   3.018   4.024 -0.0126 -0.0391 -0.1180
 9258TIP3    H127738   5.756   3.022   4.036  0.1411  0.0492  1.3244
 9258TIP3    H227739   5.863   2.984   3.936 -1.3845  0.4770 -0.5321
 9259TIP3   OH227740   1.968   1.683   1.022  0.3296 -0.4626  0.1985
 9259TIP3    H127741   1.973   1.656   0.930  0.8381  0.1410  0.0367
 9259TIP3    H227742   1.889   1.641   1.055 -0.8241  0.6622 -0.9914
 9260TIP3   OH227743   2.346   4.929   2.393 -0.3370 -1.0100  0.3901
 9260TIP3    H127744   2.349   4.867   2.466 -1.3184 -0.0569  1.2666
 9260TIP3    H227745   2.260   4.971   2.400 -0.8800 -1.5837 -1.9148
 9261TIP3   OH227746   1.669   1.446   4.887  0.2232 -0.2192  0.1296
 9261TIP3    H127747   1.664   1.447   4.983  1.6914  1.3619  0.2364
 9261TIP3    H227748   1.714   1.527   4.864  0.1314 -0.6859 -1.8955
 9262TIP3   OH227749   5.776   6.376   0.681  0.0515  0.0547  0.0414
 9262TIP3    H127750   5.697   6.330   0.708  0.6173 -1.1652 -0.2936
 9262TIP3    H227751   5.839   6.357   0.751 -0.1836  1.7654  0.7696
 9263TIP3   OH227752   7.115   5.822   5.506  0.1071  0.0140 -0.0833
 9263TIP3    H127753   7.110   5.728   5.490  0.0378  0.0958 -0.5621
 9263TIP3    H227754   7.205   5.846   5.483 -0.6997  0.6086 -3.1348
 9264TIP3   OH227755   3.315   4.595   5.310  0.6757  0.4252  0.6465
 9264TIP3    H127756   3.293   4.579   5.218  1.1195  0.9255  0.4472
 9264TIP3    H227757   3.402   4.558   5.320 -1.1481 -4.1414  2.1560
 9265TIP3   OH227758   1.053   6.510   0.839  0.4236  0.3866 -0.4383
 9265TIP3    H127759   0.998   6.541   0.911  1.0358  0.1087  0.1515
 9265TIP3    H227760   0.993   6.508   0.764 -0.3931  0.0654  0.1964
 9266TIP3   OH227761   0.604   6.300   2.053  0.4306  0.4690  0.1695
 9266TIP3    H127762   0.690   6.293   2.011  1.2540  1.0894  1.6785
 9266TIP3    H227763   0.619   6.271   2.143 -1.5576 -2.0928 -0.2124
 9267TIP3   OH227764   0.383   5.048   3.718  0.1411  0.3975 -0.2402
 9267TIP3    H127765   0.321   5.104   3.764  0.1363 -0.2480  0.5453
 9267TIP3    H227766   0.467   5.092   3.728  0.0488  0.5393 -0.0894
 9268TIP3   OH227767   1.819   1.807   2.278 -0.2717 -0.2901  0.0802
 9268TIP3    H127768   1.742   1.864   2.274 -0.0498 -0.0336 -0.9381
 9268TIP3    H227769   1.821   1.775   2.368 -0.8141  0.7439  0.4764
 9269TIP3   OH227770   5.809   3.771   5.441 -0.2994  0.1959 -0.2790
 9269TIP3    H127771   5.826   3.856   5.483  0.9333 -0.1842  0.0441
 9269TIP3    H227772   5.784   3.714   5.513 -1.5847  0.3872 -0.5610
 9270TIP3   OH227773   6.393   2.207   2.802  1.0823 -0.2236  0.0540
 9270TIP3    H127774   6.357   2.196   2.714 -0.3795  0.2179  0.5701
 9270TIP3    H227775   6.473   2.259   2.789  1.2978 -0.7985 -1.0730
 9271TIP3   OH227776   3.481   1.893   2.735  0.3618 -0.1056 -0.5198
 9271TIP3    H127777   3.404   1.856   2.780  1.7614  0.5606  2.7402
 9271TIP3    H227778   3.545   1.822   2.736  1.6748  0.9772  2.1160
 9272TIP3   OH227779   5.513   2.478   0.986 -0.2792  0.5365 -0.1274
 9272TIP3    H127780   5.557   2.431   0.915 -0.5754 -0.9815  0.6352
 9272TIP3    H227781   5.447   2.531   0.942 -0.6300 -0.5773 -1.0048
 9273TIP3   OH227782   1.679   3.921   0.014 -0.6811  0.1953 -0.1910
 9273TIP3    H127783   1.644   3.833   0.031  0.3462 -0.2791 -0.4021
 9273TIP3    H227784   1.748   3.932   0.081  1.1862 -0.3674 -1.9225
 9274TIP3   OH227785   6.640   5.473   2.605 -0.5371 -0.5526  0.1199
 9274TIP3    H127786   6.598   5.532   2.543  0.8439 -0.4279 -0.7397
 9274TIP3    H227787   6.722   5.517   2.627  0.3051 -1.9181 -0.1705
 9275TIP3   OH227788   0.220   3.322   3.723  0.7747 -0.3412  0.3003
 9275TIP3    H127789   0.146   3.382   3.715  0.6442 -0.5741 -0.2726
 9275TIP3    H227790   0.243   3.300   3.633  1.5933 -0.2087  0.4644
 9276TIP3   OH227791   2.478   5.855   3.545  0.3431 -0.2080 -0.1713
 9276TIP3    H127792   2.538   5.828   3.615  2.0975  1.5243 -0.9112
 9276TIP3    H227793   2.420   5.780   3.533  2.5126 -2.0988  0.4239
 9277TIP3   OH227794   3.328   2.728   3.425  0.7136 -0.1909  0.1266
 9277TIP3    H127795   3.355   2.812   3.388 -0.5809 -0.1974 -0.8819
 9277TIP3    H227796   3.364   2.662   3.366 -2.6729 -0.1726 -2.2491
 9278TIP3   OH227797   2.857   5.598   4.859 -0.0598 -0.4538  0.3670
 9278TIP3    H127798   2.887   5.515   4.896 -2.9276 -0.3853  3.3246
 9278TIP3    H227799   2.777   5.575   4.811  0.7795  0.2545 -1.4646
 9279TIP3   OH227800   4.843   5.229   4.067  0.1171 -0.5231  0.4948
 9279TIP3    H127801   4.900   5.180   4.126  0.2898  0.6721  1.3591
 9279TIP3    H227802   4.767   5.172   4.055  0.6421 -1.3239  0.8355
 9280TIP3   OH227803   2.987   3.894   2.143  0.2381  0.2446  0.6819
 9280TIP3    H127804   2.896   3.873   2.120  0.3362  1.0585 -0.5431
 9280TIP3    H227805   2.981   3.974   2.195  0.2720  0.6140  0.1320
 9281TIP3   OH227806   6.100   1.110   0.859 -0.0449 -0.2311 -0.7016
 9281TIP3    H127807   6.036   1.127   0.928  0.7010 -2.3197  0.6208
 9281TIP3    H227808   6.061   1.038   0.808  0.3162 -0.0784 -1.2026
 9282TIP3   OH227809   0.633   3.113   5.650  0.1901 -0.7655  0.4286
 9282TIP3    H127810   0.635   3.131   5.556  0.6003  0.1331  0.5988
 9282TIP3    H227811   0.705   3.052   5.665 -1.2578 -2.7305 -0.1683
 9283TIP3   OH227812   5.799   2.717   5.035  0.0734 -0.3914  0.1389
 9283TIP3    H127813   5.772   2.708   4.943  0.4902  0.9718 -0.1301
 9283TIP3    H227814   5.879   2.665   5.042 -1.0083 -2.1287  0.2457
 9284TIP3   OH227815   3.248   5.029   4.520 -0.1617 -0.3802  0.0008
 9284TIP3    H127816   3.163   5.013   4.479 -0.0884 -0.5140 -0.1040
 9284TIP3    H227817   3.293   4.944   4.514 -0.0267 -0.3131  0.0652
 9285TIP3   OH227818   0.143   1.963   4.632 -0.6678 -0.5746  0.3357
 9285TIP3    H127819   0.056   1.956   4.594 -1.3189  1.8301  1.2339
 9285TIP3    H227820   0.131   2.013   4.712  1.5584 -0.0547  0.4092
 9286TIP3   OH227821   1.519   4.885   0.813 -0.5223  0.1150 -0.2406
 9286TIP3    H127822   1.587   4.855   0.753 -1.5793 -2.9796 -0.0840
 9286TIP3    H227823   1.437   4.856   0.774 -1.4959  0.7897  1.1910
 9287TIP3   OH227824   0.960   6.292   5.722  0.2196 -0.2850  0.5983
 9287TIP3    H127825   1.002   6.312   5.806 -0.5049  0.9481  0.6839
 9287TIP3    H227826   0.875   6.335   5.727 -0.5571 -1.6947 -0.0805
 9288TIP3   OH227827   5.977   2.757   1.871 -0.1271  0.0405  0.2825
 9288TIP3    H127828   6.005   2.703   1.797  1.3990  1.9762 -0.6359
 9288TIP3    H227829   5.914   2.702   1.918 -1.0736 -1.3008 -2.3611
 9289TIP3   OH227830   6.748   3.998   5.485 -0.3606 -0.6178 -0.1832
 9289TIP3    H127831   6.781   4.081   5.518 -0.1647 -0.8136  0.1200
 9289TIP3    H227832   6.754   4.006   5.390 -1.1903  0.0553 -0.1917
 9290TIP3   OH227833   0.316   4.172   4.701  0.1084 -0.5838 -0.7043
 9290TIP3    H127834   0.350   4.246   4.650  1.5095 -1.2514 -0.7757
 9290TIP3    H227835   0.393   4.138   4.747 -0.3033 -2.6336 -1.4642
 9291TIP3   OH227836   3.420   2.056   5.102  0.3887 -0.1297  0.1187
 9291TIP3    H127837   3.403   2.095   5.188  1.6524  0.6921  0.0171
 9291TIP3    H227838   3.414   1.961   5.118 -0.1480  0.0257  0.9311
 9292TIP3   OH227839   6.580   3.205   2.971  0.1188 -0.4499 -0.8043
 9292TIP3    H127840   6.575   3.109   2.974  0.6120 -0.4618 -0.0428
 9292TIP3    H227841   6.667   3.225   3.005 -0.5018  0.3323  0.4004
 9293TIP3   OH227842   4.057   1.031   4.033  0.4576 -0.5606  0.3490
 9293TIP3    H127843   4.077   1.023   3.940  0.5459  0.8071  0.2272
 9293TIP3    H227844   4.138   1.064   4.072 -0.5067  2.0789  0.3323
 9294TIP3   OH227845   5.291   0.866   5.099 -0.3264  0.3490 -0.0078
 9294TIP3    H127846   5.262   0.792   5.154 -2.1417  0.6933 -0.4183
 9294TIP3    H227847   5.210   0.901   5.062  0.6775  1.3682 -1.3459
 9295TIP3   OH227848   3.649   4.402   1.569 -0.0412 -0.0757  0.0368
 9295TIP3    H127849   3.738   4.410   1.533 -0.0897 -1.7409 -0.5325
 9295TIP3    H227850   3.636   4.483   1.618  1.1694  0.9378 -1.2220
 9296TIP3   OH227851   0.406   6.107   5.060  0.1213  0.2963 -0.0506
 9296TIP3    H127852   0.414   6.188   5.110  0.4435  0.3074 -0.1212
 9296TIP3    H227853   0.325   6.117   5.009 -0.1529  0.3286  0.3861
 9297TIP3   OH227854   0.398   1.893   5.274 -0.5180  0.0229  0.5702
 9297TIP3    H127855   0.368   1.961   5.213  0.0835  1.0087  1.3417
 9297TIP3    H227856   0.420   1.819   5.217  1.9096  1.5629 -0.6981
 9298TIP3   OH227857   4.230   1.608   3.581 -0.1857  0.2122 -0.2935
 9298TIP3    H127858   4.175   1.681   3.552 -0.2073  0.4752  0.3917
 9298TIP3    H227859   4.309   1.650   3.614 -0.3318 -0.0484  0.4071
 9299TIP3   OH227860   4.724   3.733   3.675 -0.0744 -0.4629 -0.4591
 9299TIP3    H127861   4.725   3.651   3.724 -0.2351  0.2735  0.8280
 9299TIP3    H227862   4.632   3.758   3.672 -0.3157 -1.4016 -2.7749
 9300TIP3   OH227863   5.012   5.637   3.813 -0.6125 -0.0189  0.4649
 9300TIP3    H127864   5.058   5.564   3.772  1.7179  1.4145  0.2994
 9300TIP3    H227865   4.972   5.600   3.892 -0.4677 -1.6644 -0.2008
 9301TIP3   OH227866   0.519   1.343   0.642  0.1339  0.2647  0.2785
 9301TIP3    H127867   0.605   1.306   0.621 -0.0292 -0.2267  0.4662
 9301TIP3    H227868   0.510   1.330   0.736 -0.4035 -0.2292  0.1607
 9302TIP3   OH227869   1.970   4.605   1.125  0.4783 -0.4720 -0.3689
 9302TIP3    H127870   2.054   4.626   1.166 -0.3621 -1.9967  2.3985
 9302TIP3    H227871   1.932   4.691   1.105  1.7091  0.3261  0.5233
 9303TIP3   OH227872   3.500   2.405   0.927 -0.5546 -0.3078 -0.1260
 9303TIP3    H127873   3.553   2.396   1.007  1.9509 -1.1205 -1.7628
 9303TIP3    H227874   3.529   2.488   0.890  0.5371 -1.3086 -1.6366
 9304TIP3   OH227875   2.751   1.222   2.351  0.4745 -0.1224  0.5290
 9304TIP3    H127876   2.843   1.230   2.327  0.2088 -0.1040 -0.5808
 9304TIP3    H227877   2.740   1.131   2.377  0.7847 -0.1550  0.5464
 9305TIP3   OH227878   0.550   5.668   3.535  0.2298  0.3201  0.1931
 9305TIP3    H127879   0.488   5.628   3.474 -0.8990  1.3979  0.5827
 9305TIP3    H227880   0.579   5.748   3.491 -0.9167  1.3274  1.1943
 9306TIP3   OH227881   5.474   4.659   0.358  0.2068 -0.1043  0.2915
 9306TIP3    H127882   5.464   4.671   0.263  0.7232 -0.5318  0.1795
 9306TIP3    H227883   5.518   4.574   0.367 -0.9992 -0.6995  0.9556
 9307TIP3   OH227884   2.991   2.545   4.966  0.4208 -0.0449 -0.3803
 9307TIP3    H127885   2.918   2.510   5.017  0.2605  0.2309 -0.4168
 9307TIP3    H227886   3.059   2.565   5.031 -0.4021  1.8929 -0.0375
 9308TIP3   OH227887   0.870   6.554   1.054  0.0962 -0.6130  0.1343
 9308TIP3    H127888   0.815   6.482   1.023  1.6551 -1.9148  0.2669
 9308TIP3    H227889   0.874   6.542   1.149 -1.8186  1.2994  0.5335
 9309TIP3   OH227890   3.807   5.958   1.971  0.2641 -0.3090 -0.3289
 9309TIP3    H127891   3.752   5.879   1.965 -2.3554  1.2450  1.2929
 9309TIP3    H227892   3.758   6.024   1.923  1.1108  0.9802  0.5280
 9310TIP3   OH227893   1.481   1.241   2.766 -0.6169 -0.3884 -0.5657
 9310TIP3    H127894   1.537   1.178   2.811  0.7406  0.7640 -0.5676
 9310TIP3    H227895   1.473   1.206   2.677 -1.4485 -1.5057 -0.0775
 9311TIP3   OH227896   5.761   3.983   5.813  0.4842 -0.1480  0.0733
 9311TIP3    H127897   5.733   3.977   5.721 -0.5752  0.0508  0.3713
 9311TIP3    H227898   5.707   3.919   5.859  0.4274  0.3265  0.6847
 9312TIP3   OH227899   4.322   5.524   1.623  0.5447 -0.4349 -0.0893
 9312TIP3    H127900   4.413   5.556   1.623  1.0504 -1.7787  0.0566
 9312TIP3    H227901   4.294   5.533   1.714  0.7239 -0.5139 -0.0246
 9313TIP3   OH227902   2.898   1.897   4.632 -0.4691  0.0789  0.1929
 9313TIP3    H127903   2.952   1.954   4.686 -2.0760 -0.7879  2.8996
 9313TIP3    H227904   2.808   1.917   4.657 -1.1798 -1.9377 -0.5222
 9314TIP3   OH227905   4.520   5.100   4.274  0.2268 -0.0586  0.0679
 9314TIP3    H127906   4.605   5.143   4.284  0.8687 -1.2078 -0.1884
 9314TIP3    H227907   4.540   5.019   4.226 -1.2909  0.5159 -1.6242
 9315TIP3   OH227908   6.356   5.208   4.150  0.3712  0.0169  0.1715
 9315TIP3    H127909   6.287   5.168   4.203 -0.0784 -0.6099 -0.8580
 9315TIP3    H227910   6.434   5.157   4.170  0.6007  0.8028  1.4309
 9316TIP3   OH227911   1.253   6.285   5.205 -0.0849  0.1942  1.0720
 9316TIP3    H127912   1.318   6.310   5.271  0.8725  0.2010  0.1501
 9316TIP3    H227913   1.168   6.304   5.246  0.5261  2.3779  1.4431
 9317TIP3   OH227914   4.115   4.642   3.999 -0.0788  0.1359 -0.1061
 9317TIP3    H127915   4.128   4.624   4.092  2.3044 -0.8937 -0.5613
 9317TIP3    H227916   4.186   4.702   3.976  1.1757 -1.8668 -1.8212
 9318TIP3   OH227917   2.813   4.507   2.511 -0.0117 -0.0559 -0.1826
 9318TIP3    H127918   2.829   4.527   2.419  0.5310  2.1475  0.3255
 9318TIP3    H227919   2.867   4.570   2.559 -0.5061 -0.9560  1.6551
 9319TIP3   OH227920   0.600   2.120   0.702 -0.0210  0.2386 -0.4169
 9319TIP3    H127921   0.602   2.187   0.633 -1.2249 -1.5265 -2.2950
 9319TIP3    H227922   0.543   2.156   0.770  0.0401  1.4537 -0.9942
 9320TIP3   OH227923   6.637   4.298   0.317 -0.1073 -0.5549 -0.1652
 9320TIP3    H127924   6.552   4.341   0.312 -0.2131 -0.8409 -0.8724
 9320TIP3    H227925   6.626   4.232   0.386 -0.9771 -1.6900 -1.3212
 9321TIP3   OH227926   0.131   2.004   3.614  0.2203 -0.0029 -0.3871
 9321TIP3    H127927   0.071   2.079   3.609 -0.2384 -0.3153  0.2588
 9321TIP3    H227928   0.215   2.043   3.639  0.1226  0.3655 -0.6194
 9322TIP3   OH227929   6.162   6.175   0.996  0.3693  0.5764  0.7640
 9322TIP3    H127930   6.118   6.090   0.984 -0.1364  0.3864  3.3605
 9322TIP3    H227931   6.141   6.224   0.917  2.6203 -2.4426 -1.9977
 9323TIP3   OH227932   3.926   3.214   3.450  0.4418 -0.2301 -0.0630
 9323TIP3    H127933   3.981   3.139   3.472 -0.6877 -0.7449  1.1463
 9323TIP3    H227934   3.963   3.287   3.499  0.2506 -0.5086  0.5059
 9324TIP3   OH227935   4.960   3.075   0.222 -0.4113  0.0834  0.1830
 9324TIP3    H127936   4.989   2.984   0.229 -2.3164 -0.6515 -0.8218
 9324TIP3    H227937   4.893   3.085   0.289  0.6031  1.1377  1.0821
 9325TIP3   OH227938   5.278   0.654   3.599 -0.4158  0.6169 -0.7771
 9325TIP3    H127939   5.313   0.736   3.636 -0.6202 -0.1203  1.1471
 9325TIP3    H227940   5.184   0.661   3.612 -0.4285  0.0615 -0.5830
 9326TIP3   OH227941   6.593   4.902   2.713  0.4295  0.0656 -0.5324
 9326TIP3    H127942   6.661   4.947   2.665 -0.5875 -0.2055 -2.3353
 9326TIP3    H227943   6.513   4.918   2.663 -0.8011  0.1482  1.3486
 9327TIP3   OH227944   6.218   2.581   4.561 -0.3229  0.0853 -0.8881
 9327TIP3    H127945   6.298   2.539   4.593  0.2206  1.7970  0.1326
 9327TIP3    H227946   6.243   2.618   4.476  0.3138  1.4819 -0.1263
 9328TIP3   OH227947   3.113   0.226   1.544  0.1833  0.5502 -0.2890
 9328TIP3    H127948   3.164   0.148   1.566 -0.1076  0.2295 -0.7484
 9328TIP3    H227949   3.079   0.209   1.456 -3.6711 -0.8422  1.2513
 9329TIP3   OH227950   2.993   5.584   1.325 -0.1243 -0.4587  0.4789
 9329TIP3    H127951   3.023   5.601   1.236 -0.6658 -0.9671  0.1889
 9329TIP3    H227952   3.026   5.658   1.376 -0.8555  0.4831 -0.3735
 9330TIP3   OH227953   6.195   6.495   5.509  0.3633 -0.0275  0.8302
 9330TIP3    H127954   6.269   6.488   5.569  0.4882 -1.3041  0.5432
 9330TIP3    H227955   6.206   6.581   5.468  0.3859  0.7843  2.4551
 9331TIP3   OH227956   3.205   2.554   5.161 -0.2084 -0.1099  0.3500
 9331TIP3    H127957   3.198   2.645   5.192 -2.8617  0.4894 -1.6054
 9331TIP3    H227958   3.290   2.550   5.118  0.7345  0.8702  2.0024
 9332TIP3   OH227959   3.107   4.781   4.291 -0.6242  0.7355  0.2550
 9332TIP3    H127960   3.101   4.803   4.198  0.3716 -1.0799 -0.2825
 9332TIP3    H227961   3.054   4.701   4.300  0.3912  0.1206  0.9433
 9333TIP3   OH227962   2.662   0.878   5.915  0.0138  0.5022  0.4695
 9333TIP3    H127963   2.678   0.963   5.874 -0.9589  0.5163  0.0849
 9333TIP3    H227964   2.722   0.818   5.870 -0.3204  0.7192 -0.2844
 9334TIP3   OH227965   3.704   0.296   4.347 -0.3884 -0.0003  0.6370
 9334TIP3    H127966   3.739   0.292   4.436  0.7662 -1.1556  0.1522
 9334TIP3    H227967   3.638   0.226   4.344 -2.1782  1.5733  1.2665
 9335TIP3   OH227968   5.459   1.486   0.061  0.3909 -0.0139  0.1000
 9335TIP3    H127969   5.423   1.480  -0.027 -0.3140  0.4187  0.3528
 9335TIP3    H227970   5.509   1.406   0.072 -0.0901 -0.3937 -0.4399
 9336TIP3   OH227971   0.870   1.976   1.108 -0.0490 -0.2757 -0.1008
 9336TIP3    H127972   0.906   2.054   1.065 -0.7955 -0.3497 -0.8779
 9336TIP3    H227973   0.940   1.911   1.102 -0.7309 -0.8830 -2.8785
 9337TIP3   OH227974   1.396   0.670   4.994  0.3579 -0.8914  0.0271
 9337TIP3    H127975   1.344   0.748   5.014  1.9583  0.4392 -0.7952
 9337TIP3    H227976   1.334   0.612   4.948 -0.3213  0.8370 -1.3567
 9338TIP3   OH227977   0.191   1.765   1.275 -0.2852 -0.1200 -0.6511
 9338TIP3    H127978   0.218   1.835   1.216 -1.9843  0.6018 -0.6197
 9338TIP3    H227979   0.201   1.685   1.223  0.6957  0.2295 -1.0275
 9339TIP3   OH227980   1.000   4.436   3.471  0.0289 -1.1047 -0.3763
 9339TIP3    H127981   1.068   4.409   3.409  2.0699  1.3499  0.6070
 9339TIP3    H227982   0.936   4.483   3.417  0.9421 -0.4105 -0.8962
 9340TIP3   OH227983   4.500   2.237   5.559  0.5680  0.0078 -0.0451
 9340TIP3    H127984   4.520   2.331   5.567  1.6001 -0.0969 -1.0707
 9340TIP3    H227985   4.568   2.194   5.611 -0.5843 -0.1605  1.3885
 9341TIP3   OH227986   2.031   5.706   2.270 -0.5902 -0.2145  0.3209
 9341TIP3    H127987   1.950   5.741   2.234 -1.4448 -0.2765  2.0825
 9341TIP3    H227988   2.057   5.769   2.336  0.3310 -0.6376  0.3723
 9342TIP3   OH227989   0.717   4.526   5.502  0.1784 -0.2928 -0.4192
 9342TIP3    H127990   0.622   4.522   5.489  0.3021 -0.2113 -1.4517
 9342TIP3    H227991   0.753   4.531   5.414  1.1533 -0.3797 -0.0413
 9343TIP3   OH227992   2.136   4.405   3.476  0.5230  0.0356 -0.7119
 9343TIP3    H127993   2.182   4.339   3.529  1.9372  0.1179 -1.7778
 9343TIP3    H227994   2.149   4.375   3.386  0.2966  1.2264 -1.1449
 9344TIP3   OH227995   6.954   2.328   4.248  0.5126 -0.6641 -0.7870
 9344TIP3    H127996   6.950   2.377   4.165  3.2194 -2.0988 -1.9093
 9344TIP3    H227997   7.044   2.343   4.279 -0.0880 -1.1534  1.2835
 9345TIP3   OH227998   6.863   0.381   3.188 -0.5487 -0.0504 -0.2286
 9345TIP3    H127999   6.875   0.345   3.100 -2.0242 -1.0664 -0.0562
 9345TIP3    H228000   6.936   0.344   3.238 -0.3237 -0.3538 -0.7610
 9346TIP3   OH228001   0.874   4.134   5.694  0.0232  0.3415  0.2746
 9346TIP3    H128002   0.924   4.103   5.770  0.1201  1.4561  0.6864
 9346TIP3    H228003   0.938   4.137   5.623 -0.1221 -0.9407  0.0751
 9347TIP3   OH228004   2.429   3.442   4.635 -0.2420  0.3403 -0.0486
 9347TIP3    H128005   2.358   3.440   4.570 -2.3628 -0.2941  2.1465
 9347TIP3    H228006   2.409   3.370   4.694  1.7211  0.7599  1.2073
 9348TIP3   OH228007   2.351   5.617   3.481 -0.2890 -0.0188 -0.2800
 9348TIP3    H128008   2.282   5.595   3.418  0.3158  1.4470 -1.5497
 9348TIP3    H228009   2.410   5.542   3.479  0.3085  0.4328 -2.3890
 9349TIP3   OH228010   7.111   0.811   4.728 -0.0139 -0.1118  0.0008
 9349TIP3    H128011   7.104   0.853   4.814 -1.6256  2.1618 -1.1334
 9349TIP3    H228012   7.021   0.808   4.695  0.7105  0.7029 -2.2832
 9350TIP3   OH228013   1.083   5.907   5.269 -1.0210  0.3603  0.2087
 9350TIP3    H128014   1.154   5.907   5.204 -0.7630 -1.1451  0.4537
 9350TIP3    H228015   1.003   5.901   5.217 -0.7703 -2.5255 -0.0399
 9351TIP3   OH228016   1.352   4.141   3.121 -0.5173 -0.1907 -0.3925
 9351TIP3    H128017   1.348   4.171   3.030 -0.6297 -0.5964 -0.5242
 9351TIP3    H228018   1.366   4.046   3.114 -0.5996 -0.2340  0.0125
 9352TIP3   OH228019   3.585   5.575   1.194 -0.1091 -0.1142 -0.4961
 9352TIP3    H128020   3.643   5.517   1.146  0.7893  1.7340 -1.7683
 9352TIP3    H228021   3.572   5.532   1.279  1.4589 -1.5435 -0.9300
 9353TIP3   OH228022   2.475   5.096   3.542  0.5750  0.1371  0.0035
 9353TIP3    H128023   2.503   5.039   3.471  0.9975 -0.9737  1.0286
 9353TIP3    H228024   2.392   5.061   3.571  1.5550 -0.9560  1.6486
 9354TIP3   OH228025   1.002   0.088   5.123 -0.1262  0.2314  0.5794
 9354TIP3    H128026   0.974   0.002   5.157 -3.3582  1.5727  1.6886
 9354TIP3    H228027   1.049   0.067   5.042 -0.6498 -2.5941  0.8884
 9355TIP3   OH228028   5.223   5.631   2.897 -0.0230 -0.3417  0.1073
 9355TIP3    H128029   5.312   5.633   2.861  0.2948  2.2192  0.7893
 9355TIP3    H228030   5.197   5.723   2.901 -2.8433 -1.0408 -0.2979
 9356TIP3   OH228031   6.077   1.371   1.911  0.3279  0.2407  0.4778
 9356TIP3    H128032   6.045   1.339   1.827  1.7530  0.1132 -0.0332
 9356TIP3    H228033   6.033   1.456   1.922 -0.3570 -0.0289 -0.0711
 9357TIP3   OH228034   3.146   1.747   3.450 -0.1785 -0.0248 -0.4197
 9357TIP3    H128035   3.203   1.804   3.501 -0.8493 -0.0396  0.3630
 9357TIP3    H228036   3.182   1.660   3.462  1.4832  0.3106 -2.4742
 9358TIP3   OH228037   2.081   1.579   2.326  0.2267 -0.1680 -0.3437
 9358TIP3    H128038   2.065   1.638   2.253 -0.3698 -0.2653 -0.2942
 9358TIP3    H228039   2.166   1.607   2.361  0.3366  0.1205 -0.8339
 9359TIP3   OH228040   2.471   2.497   4.464 -0.6179  0.2889  0.1901
 9359TIP3    H128041   2.546   2.534   4.511 -0.2915  0.8743 -0.7676
 9359TIP3    H228042   2.430   2.571   4.420 -0.1644 -0.3922 -1.4706
 9360TIP3   OH228043   3.357   5.805   4.571 -0.1618  0.1359  0.0498
 9360TIP3    H128044   3.269   5.816   4.606 -0.7396 -0.5131 -1.1405
 9360TIP3    H228045   3.389   5.723   4.610 -0.1332  0.2990  0.3725
 9361TIP3   OH228046   1.513   0.595   3.657  0.3712  0.2089 -0.4772
 9361TIP3    H128047   1.530   0.501   3.654  0.6506  0.2535 -0.4061
 9361TIP3    H228048   1.586   0.630   3.709  1.4645  0.7361 -2.2701
 9362TIP3   OH228049   4.907   5.290   1.124 -0.0761  0.4782 -0.4738
 9362TIP3    H128050   4.984   5.294   1.067 -0.6628  3.0019 -1.2399
 9362TIP3    H228051   4.837   5.258   1.068  0.4168 -2.1537  0.3145
 9363TIP3   OH228052   5.848   2.793   2.229 -0.2171  0.0482  0.5922
 9363TIP3    H128053   5.753   2.805   2.236  0.0089  1.8546  1.0531
 9363TIP3    H228054   5.880   2.877   2.197  1.3306 -0.2287  1.3286
 9364TIP3   OH228055   4.605   3.508   5.336 -0.2355 -0.4932 -0.1706
 9364TIP3    H128056   4.677   3.543   5.389 -0.4367 -1.3540  0.6938
 9364TIP3    H228057   4.553   3.456   5.397 -1.4794 -0.0640 -0.8386
 9365TIP3   OH228058   3.831   5.261   2.724 -0.0347  0.4774 -0.3849
 9365TIP3    H128059   3.866   5.176   2.697 -0.5972  0.1771 -0.1901
 9365TIP3    H228060   3.828   5.312   2.644 -0.5654 -0.0011 -0.6723
 9366TIP3   OH228061   4.464   3.761   4.956 -0.3432 -0.5835 -0.4772
 9366TIP3    H128062   4.525   3.753   4.883 -1.4826 -1.6532 -1.3523
 9366TIP3    H228063   4.377   3.760   4.916 -0.9850 -0.5748  0.8389
 9367TIP3   OH228064   0.893   2.518   1.952 -0.2323  0.0924 -0.3360
 9367TIP3    H128065   0.836   2.572   2.006 -1.0184 -0.2183 -0.8529
 9367TIP3    H228066   0.866   2.428   1.970  0.2359 -0.0697 -0.4239
 9368TIP3   OH228067   3.910   6.434   0.710 -0.4292 -0.4194 -0.4892
 9368TIP3    H128068   3.970   6.368   0.674  1.5523  1.0102  0.0226
 9368TIP3    H228069   3.959   6.516   0.705 -2.2026  0.7553  0.3855
 9369TIP3   OH228070   5.243   0.058   1.151  0.2160 -0.0104  0.0794
 9369TIP3    H128071   5.286   0.082   1.233  0.2624  0.0283  0.0438
 9369TIP3    H228072   5.310   0.071   1.084 -0.1441  0.9941 -0.0945
 9370TIP3   OH228073   4.617   1.454   4.367  0.0033  0.1810  0.4513
 9370TIP3    H128074   4.579   1.538   4.340 -1.7627 -0.8109 -0.3092
 9370TIP3    H228075   4.678   1.432   4.297 -0.6738  0.1088 -0.1237
 9371TIP3   OH228076   6.168   2.827   2.085  0.5101 -0.7253  1.0583
 9371TIP3    H128077   6.086   2.800   2.043 -0.0697  0.6097  1.3010
 9371TIP3    H228078   6.219   2.746   2.090 -0.2387 -1.3223 -0.3280
 9372TIP3   OH228079   6.400   3.368   4.837  0.2740  0.3393 -0.1064
 9372TIP3    H128080   6.357   3.283   4.848  0.5830  0.2653  0.5737
 9372TIP3    H228081   6.413   3.377   4.742 -0.2416 -0.1286 -0.2230
 9373TIP3   OH228082   6.118   5.858   2.744 -0.3607 -0.1030  0.3677
 9373TIP3    H128083   6.136   5.952   2.741  1.0209 -0.3558  0.4041
 9373TIP3    H228084   6.025   5.853   2.767 -0.9551  1.2838 -1.3976
 9374TIP3   OH228085   2.331   1.538   3.960 -0.9260 -0.2960 -0.7064
 9374TIP3    H128086   2.421   1.516   3.986 -0.3192  2.9346  0.4082
 9374TIP3    H228087   2.342   1.599   3.887 -2.0777  1.2212  0.3088
 9375TIP3   OH228088   6.261   5.722   3.813 -1.0737 -0.8002  0.0861
 9375TIP3    H128089   6.204   5.785   3.857 -0.5157  0.3882 -0.8201
 9375TIP3    H228090   6.278   5.655   3.878 -0.1184  0.9916  1.7831
 9376TIP3   OH228091   1.031   5.759   1.468 -0.3983 -0.6139 -0.1416
 9376TIP3    H128092   1.021   5.744   1.562 -0.4079 -1.5774 -0.2831
 9376TIP3    H228093   0.959   5.709   1.428 -0.9970  0.5903 -0.6138
 9377TIP3   OH228094   5.687   6.470   3.406  0.0965  0.3435  0.2725
 9377TIP3    H128095   5.673   6.562   3.387  0.2596  0.2453 -0.3257
 9377TIP3    H228096   5.779   6.454   3.385  0.0580  0.0358  0.3263
 9378TIP3   OH228097   2.065   1.442   4.881  0.6648 -0.0453 -0.3322
 9378TIP3    H128098   1.992   1.503   4.884  1.3280  0.7798 -0.5390
 9378TIP3    H228099   2.142   1.497   4.898  1.1363 -1.0800  1.0781
 9379TIP3   OH228100   0.723   5.638   5.211  0.7605 -0.4307 -0.5456
 9379TIP3    H128101   0.724   5.584   5.131  2.4069 -1.7820  0.3269
 9379TIP3    H228102   0.780   5.711   5.191 -0.6329  0.4822 -1.3602
 9380TIP3   OH228103   1.627   5.726   1.530  0.0314  0.2043 -0.2476
 9380TIP3    H128104   1.681   5.651   1.554  2.3961  1.9100  0.0265
 9380TIP3    H228105   1.537   5.693   1.538  0.9475 -2.3979  0.4548
 9381TIP3   OH228106   3.205   1.058   5.720  0.2004 -0.4003  0.1185
 9381TIP3    H128107   3.232   1.049   5.812  1.3566  0.2476 -0.1457
 9381TIP3    H228108   3.261   1.127   5.685 -0.8311 -0.0323 -0.8581
 9382TIP3   OH228109   7.130   5.187   1.013 -0.4342 -0.5256 -0.6049
 9382TIP3    H128110   7.169   5.257   1.066  2.1189 -1.2748 -1.3539
 9382TIP3    H228111   7.189   5.113   1.025 -1.7676 -1.8278 -1.7189
 9383TIP3   OH228112   0.170   4.371   0.549 -0.3456  0.7017 -0.2603
 9383TIP3    H128113   0.234   4.430   0.588 -1.5874  1.8127  0.2014
 9383TIP3    H228114   0.111   4.429   0.500 -2.5283  0.1096  1.4727
 9384TIP3   OH228115   5.789   0.174   3.431 -0.2153 -0.3231  0.2328
 9384TIP3    H128116   5.813   0.083   3.448  0.2369 -0.2985 -0.2825
 9384TIP3    H228117   5.741   0.172   3.348 -0.4396 -0.1252  0.3548
 9385TIP3   OH228118   5.603   2.038   3.156 -0.1236 -0.0899  0.1782
 9385TIP3    H128119   5.609   2.037   3.061 -0.3628 -0.2377  0.1656
 9385TIP3    H228120   5.517   2.001   3.176 -0.8507  1.6263  0.3894
 9386TIP3   OH228121   0.264   6.233   0.761 -0.0787 -0.2835  0.1859
 9386TIP3    H128122   0.178   6.272   0.777 -0.4442 -1.0497  0.1751
 9386TIP3    H228123   0.245   6.152   0.714  0.7157 -0.0415 -0.5751
 9387TIP3   OH228124   3.871   2.970   5.091 -0.3800  0.0005 -0.3128
 9387TIP3    H128125   3.888   3.064   5.093  0.0489 -0.0411 -1.3129
 9387TIP3    H228126   3.956   2.930   5.110 -0.5328 -0.1844 -0.0232
 9388TIP3   OH228127   5.828   0.643   5.788  0.1740 -0.2039 -0.1491
 9388TIP3    H128128   5.897   0.656   5.853  1.3478  3.2838 -1.8516
 9388TIP3    H228129   5.874   0.603   5.713  0.1844  1.0908 -0.8687
 9389TIP3   OH228130   2.235   4.618   5.489 -0.4392  0.1579 -0.1325
 9389TIP3    H128131   2.216   4.618   5.583  0.1083 -1.8278  0.0158
 9389TIP3    H228132   2.330   4.607   5.483 -0.5950 -0.9541 -0.9086
 9390TIP3   OH228133   4.531   3.356   3.316  0.1860  0.5064  0.2476
 9390TIP3    H128134   4.619   3.347   3.281  0.0993  1.1097 -0.1391
 9390TIP3    H228135   4.541   3.413   3.392  0.1099  0.7238  0.0975
 9391TIP3   OH228136   3.988   5.097   4.924 -0.1175 -0.0939 -0.2155
 9391TIP3    H128137   3.950   5.013   4.948  0.5431 -0.9335 -1.9795
 9391TIP3    H228138   4.035   5.081   4.843  1.2481  1.6636  0.1522
 9392TIP3   OH228139   7.046   2.669   3.461 -0.6229 -0.0471  0.3174
 9392TIP3    H128140   7.087   2.597   3.413 -0.3473  0.5820 -0.4009
 9392TIP3    H228141   7.053   2.643   3.553  0.2492 -0.5333  0.1231
 9393TIP3   OH228142   3.028   6.430   4.871 -0.6145  0.4292 -0.4327
 9393TIP3    H128143   2.957   6.460   4.927 -0.9633 -0.8627 -0.1450
 9393TIP3    H228144   3.106   6.473   4.905 -0.9803  0.4533  0.3998
 9394TIP3   OH228145   0.503   2.191   1.229  0.2511 -0.1535  0.2253
 9394TIP3    H128146   0.475   2.156   1.313 -2.7512  1.1553 -0.0780
 9394TIP3    H228147   0.544   2.275   1.250 -1.1686  0.5238  0.3946
 9395TIP3   OH228148   3.093   2.644   2.365  0.5985  0.4268 -0.2527
 9395TIP3    H128149   3.077   2.563   2.414  2.2494 -0.2693 -0.7562
 9395TIP3    H228150   3.145   2.698   2.424  0.5939  0.5729 -0.3805
 9396TIP3   OH228151   0.618   0.610   4.879  0.3480  0.4039 -0.0997
 9396TIP3    H128152   0.683   0.546   4.850  0.1868  0.3050 -0.2476
 9396TIP3    H228153   0.651   0.641   4.964  1.5202  1.6764 -0.9767
 9397TIP3   OH228154   1.327   5.992   5.156 -0.3833  0.0336 -0.4080
 9397TIP3    H128155   1.420   5.984   5.179 -0.3497 -0.7537 -0.7908
 9397TIP3    H228156   1.304   6.082   5.182  0.4607  0.2142 -0.2408
 9398TIP3   OH228157   4.784   0.394   5.113 -0.5949 -0.3287 -0.2292
 9398TIP3    H128158   4.821   0.474   5.152  0.2061 -0.9615  0.3412
 9398TIP3    H228159   4.822   0.323   5.164  0.4822 -1.1970 -2.1592
 9399TIP3   OH228160   3.107   0.251   4.447  0.6039  0.1192  0.5520
 9399TIP3    H128161   3.119   0.345   4.433  2.3580 -0.2541 -0.8728
 9399TIP3    H228162   3.013   0.237   4.434  0.3720  1.6149  0.4086
 9400TIP3   OH228163   0.869   1.066   1.258  0.2734 -0.3339 -0.0405
 9400TIP3    H128164   0.886   1.125   1.185  0.5857  1.0442  1.1004
 9400TIP3    H228165   0.779   1.034   1.243 -0.6704  1.9852  0.3004
 9401TIP3   OH228166   2.627   5.991   0.122  0.4395 -0.5069  0.7089
 9401TIP3    H128167   2.712   6.003   0.081  0.6206  1.1303  1.4960
 9401TIP3    H228168   2.612   5.896   0.120  0.9269 -0.5902 -2.0605
 9402TIP3   OH228169   5.503   4.034   2.303 -0.0471 -0.0612 -0.1742
 9402TIP3    H128170   5.467   3.982   2.231 -1.1046  0.5235 -0.0942
 9402TIP3    H228171   5.437   4.029   2.371  0.5336  0.1403  0.4103
 9403TIP3   OH228172   2.120   4.661   2.170 -0.1962  0.0086  0.2187
 9403TIP3    H128173   2.108   4.752   2.198 -0.0847 -0.0081  0.3212
 9403TIP3    H228174   2.120   4.611   2.252 -0.2780 -0.0869  0.1611
 9404TIP3   OH228175   1.345   0.846   2.363  0.2986 -0.1095 -0.0364
 9404TIP3    H128176   1.388   0.812   2.441 -2.2469 -2.1271  0.6337
 9404TIP3    H228177   1.318   0.767   2.314  0.1913  1.0804 -2.0007
 9405TIP3   OH228178   2.383   0.364   3.071  0.2423  0.1076 -0.5080
 9405TIP3    H128179   2.428   0.399   3.148  0.3468  0.1275 -0.5781
 9405TIP3    H228180   2.290   0.362   3.096  0.2269  0.5085 -0.5309
 9406TIP3   OH228181   6.105   5.761   1.566  0.6969  0.5137 -0.0344
 9406TIP3    H128182   6.195   5.787   1.585  0.3149  2.0267 -0.1493
 9406TIP3    H228183   6.063   5.841   1.534 -0.8602  0.0090  0.6274
 9407TIP3   OH228184   3.194   5.985   4.971  0.2102 -0.4459 -0.0082
 9407TIP3    H128185   3.203   6.080   4.966 -1.2875 -0.2038  1.2013
 9407TIP3    H228186   3.274   5.956   5.016  0.5763  0.2649 -0.1834
 9408TIP3   OH228187   5.796   4.241   4.350  0.0320  0.4933  0.8862
 9408TIP3    H128188   5.832   4.282   4.271  0.5932 -0.9969  0.3282
 9408TIP3    H228189   5.824   4.150   4.344 -2.5753 -0.3946  1.2275
 9409TIP3   OH228190   6.450   2.383   4.453 -0.3332 -0.1991  0.1831
 9409TIP3    H128191   6.432   2.310   4.513  1.5302 -1.8652 -1.1756
 9409TIP3    H228192   6.370   2.392   4.401 -1.0979 -0.2901  1.3078
 9410TIP3   OH228193   4.152   4.068   2.285  0.2058 -0.0421  0.2023
 9410TIP3    H128194   4.223   4.004   2.283 -0.1959 -0.4918  0.1695
 9410TIP3    H228195   4.081   4.027   2.237  0.4250  1.0329 -1.1155
 9411TIP3   OH228196   6.173   1.170   5.478  0.1355 -0.4368  0.1705
 9411TIP3    H128197   6.194   1.099   5.539  1.9111  0.3403  0.5485
 9411TIP3    H228198   6.211   1.141   5.395 -0.3196 -0.5178 -0.0096
 9412TIP3   OH228199   6.205   4.330   4.426 -0.5431  0.1842 -0.1988
 9412TIP3    H128200   6.207   4.234   4.426  0.5025  0.1423  2.0630
 9412TIP3    H228201   6.139   4.353   4.492 -0.3378  1.0097 -0.2745
 9413TIP3   OH228202   1.822   1.223   4.829 -0.3270 -0.4611 -0.0064
 9413TIP3    H128203   1.900   1.222   4.884  0.1914 -1.2519 -0.7308
 9413TIP3    H228204   1.767   1.292   4.866  0.5872 -0.0903  0.6884
 9414TIP3   OH228205   3.048   5.884   2.556  0.2406  0.3721  0.0189
 9414TIP3    H128206   3.043   5.961   2.613  2.7142 -0.2313  1.2290
 9414TIP3    H228207   3.037   5.918   2.468 -0.3946  1.8461  0.6335
 9415TIP3   OH228208   5.081   4.124   3.528 -0.6480 -0.0734  0.1922
 9415TIP3    H128209   5.025   4.188   3.484 -1.7024 -0.6332  0.6802
 9415TIP3    H228210   5.029   4.044   3.529  0.5383 -0.8654 -0.1477
 9416TIP3   OH228211   5.572   3.929   0.525 -0.1774  0.0824  0.2929
 9416TIP3    H128212   5.565   3.890   0.612  0.2095 -1.8218 -0.4717
 9416TIP3    H228213   5.493   3.899   0.479 -1.1669  2.3430  0.4209
 9417TIP3   OH228214   6.559   1.469   4.511 -0.8119 -0.3006 -0.3293
 9417TIP3    H128215   6.589   1.531   4.576 -1.3465  3.4861 -3.3368
 9417TIP3    H228216   6.629   1.403   4.506  1.0812  1.4660  1.2364
 9418TIP3   OH228217   0.760   4.439   1.915  0.3024  0.1293  0.4423
 9418TIP3    H128218   0.759   4.467   1.823 -1.2485 -2.4657 -0.4384
 9418TIP3    H228219   0.850   4.411   1.931  0.5510  0.4591 -0.3258
 9419TIP3   OH228220   0.493   4.958   4.652  0.4884 -0.0148 -0.2123
 9419TIP3    H128221   0.588   4.974   4.654  0.3817  0.9347 -1.3893
 9419TIP3    H228222   0.463   5.007   4.575 -0.5957 -2.2520 -1.2923
 9420TIP3   OH228223   4.085   0.358   4.426 -0.0228  0.0088  0.0103
 9420TIP3    H128224   4.078   0.451   4.447 -0.3498  0.1971 -0.9016
 9420TIP3    H228225   4.167   0.350   4.377 -0.1371 -0.1377 -0.1583
 9421TIP3   OH228226   1.314   2.756   4.963 -0.0017 -0.2109 -0.3592
 9421TIP3    H128227   1.272   2.729   4.881  1.2843 -0.1423 -1.0581
 9421TIP3    H228228   1.303   2.851   4.964 -1.2911 -0.3458  0.2860
 9422TIP3   OH228229   5.146   1.845   1.381 -0.5685  0.1139  0.0845
 9422TIP3    H128230   5.203   1.780   1.340  0.7459  1.0437  0.3771
 9422TIP3    H228231   5.166   1.927   1.336 -2.3747  0.3049 -0.4421
 9423TIP3   OH228232   6.552   2.650   2.243  0.4036 -0.2012  0.1714
 9423TIP3    H128233   6.517   2.708   2.310  1.8250  0.5708  0.2835
 9423TIP3    H228234   6.475   2.620   2.194 -0.4232  1.2252  0.5374
 9424TIP3   OH228235   5.356   0.601   2.931  0.1357 -0.4286  0.4217
 9424TIP3    H128236   5.364   0.665   2.861 -1.4217 -1.8466 -1.1708
 9424TIP3    H228237   5.344   0.653   3.010  0.4957  1.2348 -0.5746
 9425TIP3   OH228238   4.238   4.183   2.951 -0.0220 -0.3192  0.6595
 9425TIP3    H128239   4.220   4.240   2.876  1.5845  0.5475  0.8884
 9425TIP3    H228240   4.222   4.094   2.918  0.3789  0.0702 -0.6319
 9426TIP3   OH228241   6.062   6.666   0.501 -0.6863  0.2848  0.3811
 9426TIP3    H128242   6.112   6.599   0.454 -1.1008 -0.2313  0.6602
 9426TIP3    H228243   6.063   6.638   0.593 -0.8249  0.6837  0.5100
 9427TIP3   OH228244   2.531   1.943   5.784  0.0862  0.9267  0.0955
 9427TIP3    H128245   2.495   1.998   5.714  0.3629 -0.1887 -0.9583
 9427TIP3    H228246   2.613   1.987   5.808 -0.0973  1.4182 -0.1613
 9428TIP3   OH228247   2.111   4.596   1.735  0.4782 -0.1862 -0.0138
 9428TIP3    H128248   2.069   4.673   1.773  1.2777  0.0131  0.5031
 9428TIP3    H228249   2.146   4.548   1.811  2.0655  0.1967 -0.4584
 9429TIP3   OH228250   1.071   4.725   4.235 -0.0573 -0.5292 -0.7000
 9429TIP3    H128251   1.166   4.709   4.240  0.0370 -0.3047 -1.6105
 9429TIP3    H228252   1.053   4.781   4.311  0.2974 -1.6348  0.2417
 9430TIP3   OH228253   6.279   1.014   3.619  0.4612 -0.4296  0.1672
 9430TIP3    H128254   6.274   0.974   3.532 -0.7620 -0.9870  0.4651
 9430TIP3    H228255   6.304   1.105   3.602 -3.8404  0.7527 -1.2302
 9431TIP3   OH228256   3.844   4.131   2.420 -0.1997 -0.0526 -0.6767
 9431TIP3    H128257   3.866   4.038   2.418  1.0210  0.1362  1.1902
 9431TIP3    H228258   3.786   4.141   2.496 -2.0860  0.4217 -2.0976
 9432TIP3   OH228259   4.599   4.889   4.123 -0.1203 -0.0646 -0.5235
 9432TIP3    H128260   4.547   4.848   4.053 -0.9561  0.8992 -0.4814
 9432TIP3    H228261   4.581   4.835   4.200 -1.5840  0.6125 -0.3556
 9433TIP3   OH228262   3.352   1.538   1.836  0.3425 -0.5058 -0.3521
 9433TIP3    H128263   3.402   1.521   1.916 -0.2578 -0.4793  0.0363
 9433TIP3    H228264   3.282   1.598   1.864 -0.2722 -1.0235 -0.7592
 9434TIP3   OH228265   5.462   4.822   4.729 -0.3571 -0.1800 -0.4511
 9434TIP3    H128266   5.396   4.763   4.767 -1.3058 -0.0647 -1.8589
 9434TIP3    H228267   5.540   4.768   4.722 -0.0031 -0.1064  1.9684
 9435TIP3   OH228268   1.570   1.494   3.902 -0.1386 -0.0971 -0.2483
 9435TIP3    H128269   1.621   1.555   3.955  0.5388 -0.9881  0.1533
 9435TIP3    H228270   1.560   1.538   3.818  2.0296 -0.2238 -0.6236
 9436TIP3   OH228271   0.741   0.603   4.199 -0.1510 -0.4657 -0.4205
 9436TIP3    H128272   0.776   0.575   4.283 -0.1596  1.7851  0.4106
 9436TIP3    H228273   0.646   0.602   4.211 -0.1890 -1.0645 -0.7415
 9437TIP3   OH228274   6.262   6.549   3.406 -0.6331 -0.3021 -0.1557
 9437TIP3    H128275   6.305   6.564   3.490 -1.8866 -0.8390  0.6025
 9437TIP3    H228276   6.260   6.454   3.396 -0.9747 -0.2560 -0.5463
 9438TIP3   OH228277   0.968   1.356   2.536  0.3131 -0.1776  0.2835
 9438TIP3    H128278   1.048   1.317   2.501  0.6208  0.7772 -0.1107
 9438TIP3    H228279   0.987   1.450   2.540 -0.2286 -0.0948  1.6527
 9439TIP3   OH228280   2.511   5.605   3.901 -0.7125 -0.1561 -0.1341
 9439TIP3    H128281   2.478   5.521   3.868 -0.1464 -0.7399  0.7427
 9439TIP3    H228282   2.453   5.670   3.862  0.0456 -0.7623 -2.4562
 9440TIP3   OH228283   5.838   3.854   2.083  0.4619  0.4032 -0.2578
 9440TIP3    H128284   5.890   3.781   2.117  1.0098  1.1030  0.4569
 9440TIP3    H228285   5.873   3.871   1.996  0.0322 -0.4694 -0.6052
 9441TIP3   OH228286   3.938   3.031   1.753  0.2709 -0.1203  0.4586
 9441TIP3    H128287   4.017   2.977   1.757  0.4213 -0.2073 -2.2145
 9441TIP3    H228288   3.922   3.044   1.660 -2.4134  0.6016  0.9294
 9442TIP3   OH228289   3.035   1.507   5.176 -0.2785  0.3728 -0.1044
 9442TIP3    H128290   3.100   1.438   5.161 -1.0808 -1.0977  2.6119
 9442TIP3    H228291   2.952   1.468   5.150 -0.6436  0.5887  0.7220
 9443TIP3   OH228292   2.345   6.729   1.351 -0.3139  0.2830 -0.3312
 9443TIP3    H128293   2.427   6.752   1.396  0.2224 -1.1007 -0.5423
 9443TIP3    H228294   2.311   6.812   1.318  1.2445  0.8364 -0.6232
 9444TIP3   OH228295   4.071   3.194   3.202 -0.1801 -0.4746  0.2472
 9444TIP3    H128296   4.004   3.256   3.233  0.9623  1.3372 -0.7193
 9444TIP3    H228297   4.037   3.108   3.226 -2.5946  0.4036  0.2646
 9445TIP3   OH228298   2.164   6.210   2.912  0.1576 -0.0028 -0.5118
 9445TIP3    H128299   2.204   6.137   2.866  0.0621  0.2295 -0.9627
 9445TIP3    H228300   2.070   6.196   2.902  0.1368  0.7022 -1.4351
 9446TIP3   OH228301   3.142   2.732   3.630 -0.2854 -0.5163 -0.7720
 9446TIP3    H128302   3.211   2.730   3.564 -0.9461  1.7702 -1.6321
 9446TIP3    H228303   3.074   2.787   3.591 -1.2128 -0.0785  1.3539
 9447TIP3   OH228304   6.716   5.079   4.464  0.1401  0.2824  0.0500
 9447TIP3    H128305   6.623   5.064   4.448 -0.3870  1.4587  1.7132
 9447TIP3    H228306   6.718   5.154   4.523  2.1434  0.1886  0.1524
 9448TIP3   OH228307   0.359   5.505   1.442  0.4181 -0.0970 -0.4340
 9448TIP3    H128308   0.383   5.476   1.531  0.3886  0.8658 -0.0988
 9448TIP3    H228309   0.413   5.451   1.384  0.2361 -0.9345  0.1582
 9449TIP3   OH228310   2.509   2.982   3.955  0.0051  0.2215  0.5403
 9449TIP3    H128311   2.469   2.906   3.914 -1.0032 -1.1650  3.7862
 9449TIP3    H228312   2.602   2.962   3.957 -0.2173 -0.8145  1.0769
 9450TIP3   OH228313   1.711   1.956   4.260  0.3590  0.3433  0.2832
 9450TIP3    H128314   1.771   1.938   4.333  0.0183 -0.9938  0.2688
 9450TIP3    H228315   1.628   1.916   4.287 -0.2455  1.2866 -0.1368
 9451TIP3   OH228316   3.497   2.541   2.567  0.3175  0.6263 -0.2744
 9451TIP3    H128317   3.473   2.541   2.660  0.2294  0.2622 -0.2970
 9451TIP3    H228318   3.592   2.554   2.567  0.1131  2.3380 -0.1951
 9452TIP3   OH228319   3.899   6.674   3.983 -0.1016 -0.5418  0.0875
 9452TIP3    H128320   3.990   6.677   4.013  0.4461  0.4764 -1.5865
 9452TIP3    H228321   3.860   6.756   4.015 -1.0082 -1.7747  2.3756
 9453TIP3   OH228322   6.138   0.006   2.983  0.2886 -0.3089 -0.5949
 9453TIP3    H128323   6.161   0.097   3.001 -0.6970  0.7165 -3.7820
 9453TIP3    H228324   6.176  -0.044   3.056  3.9339  2.2136 -0.4913
 9454TIP3   OH228325   6.198   4.905   3.881  0.6694  0.7967  0.0323
 9454TIP3    H128326   6.167   4.873   3.966  0.1480  1.2886  0.0394
 9454TIP3    H228327   6.117   4.925   3.833  0.9836  2.0514  0.0172
 9455TIP3   OH228328   1.203   0.042   2.750 -0.3102 -0.7742  0.6625
 9455TIP3    H128329   1.196   0.067   2.842  2.0687  0.6185  0.5440
 9455TIP3    H228330   1.171   0.118   2.701  1.8451  0.0155  0.3637
 9456TIP3   OH228331   2.868   0.687   1.033  0.2901  0.7443 -0.4384
 9456TIP3    H128332   2.944   0.732   0.996  2.0720 -1.0636  0.7683
 9456TIP3    H228333   2.900   0.649   1.115 -1.7067 -0.7312 -0.2557
 9457TIP3   OH228334   6.886   2.091   1.316 -0.4808  0.4952  0.3856
 9457TIP3    H128335   6.936   2.013   1.337  0.6675  1.3071  0.7702
 9457TIP3    H228336   6.834   2.067   1.239 -0.3619 -0.7214  0.6709
 9458TIP3   OH228337   4.028   1.944   2.291 -0.0843  0.0579 -0.6771
 9458TIP3    H128338   3.983   1.996   2.358  1.8930 -0.3600  1.1032
 9458TIP3    H228339   4.019   1.994   2.211  0.2258  2.2734  0.5971
 9459TIP3   OH228340   2.874   5.263   3.807  0.0432 -0.2800  0.1111
 9459TIP3    H128341   2.827   5.222   3.880  0.3986 -0.6227  0.1512
 9459TIP3    H228342   2.958   5.289   3.844 -0.4250  1.0773  0.2435
 9460TIP3   OH228343   5.451   2.603   5.587 -0.2919 -0.4368  0.1957
 9460TIP3    H128344   5.518   2.545   5.552  0.3324 -0.6459  1.6704
 9460TIP3    H228345   5.499   2.678   5.620 -0.9092 -0.0025  0.1100
 9461TIP3   OH228346   5.753   5.575   0.277  0.1854 -0.2488 -0.3276
 9461TIP3    H128347   5.777   5.640   0.343  2.6715 -0.3394 -1.0549
 9461TIP3    H228348   5.719   5.627   0.204  2.0391  0.2793 -0.8537
 9462TIP3   OH228349   1.741   1.593   0.061  0.3051 -0.1773  0.0585
 9462TIP3    H128350   1.788   1.527   0.010 -0.2008  0.3020 -1.0810
 9462TIP3    H228351   1.800   1.614   0.133  0.3589 -2.0492  0.6046
 9463TIP3   OH228352   2.154   0.274   0.681 -0.2823 -0.2885  0.5321
 9463TIP3    H128353   2.096   0.264   0.756 -1.4863 -2.5204 -0.6071
 9463TIP3    H228354   2.194   0.188   0.669  1.4128  0.5534 -0.2086
 9464TIP3   OH228355   0.700   4.101   4.492  0.0084 -0.2489 -0.9358
 9464TIP3    H128356   0.634   4.171   4.487 -0.3725 -0.5337 -0.0572
 9464TIP3    H228357   0.745   4.105   4.408 -1.9589 -0.8686 -2.0923
 9465TIP3   OH228358   7.143   1.309   1.198  0.2333  0.0005 -0.2284
 9465TIP3    H128359   7.187   1.226   1.213  0.3647 -0.1109 -1.1958
 9465TIP3    H228360   7.057   1.299   1.240  0.9634  0.0992  1.3622
 9466TIP3   OH228361   3.707   4.347   0.199 -0.3470 -0.4387 -0.2772
 9466TIP3    H128362   3.739   4.361   0.109  1.3316  3.3683  0.7116
 9466TIP3    H228363   3.612   4.345   0.191 -0.2247 -0.6995 -2.1460
 9467TIP3   OH228364   2.320   3.174   4.753  0.6342  0.2955  0.3332
 9467TIP3    H128365   2.277   3.088   4.752  1.3646 -0.1031 -1.4516
 9467TIP3    H228366   2.407   3.157   4.788  0.4883  0.4769  0.7897
 9468TIP3   OH228367   3.425   3.886   5.566  0.0460 -0.1156  0.2733
 9468TIP3    H128368   3.361   3.944   5.525  0.0257 -0.6841 -0.5431
 9468TIP3    H228369   3.374   3.832   5.626 -0.0738  0.1201  0.3824
 9469TIP3   OH228370   5.561   6.394   1.699 -0.0559 -0.3420  0.0137
 9469TIP3    H128371   5.607   6.423   1.777  0.7276 -0.6640 -0.3233
 9469TIP3    H228372   5.624   6.405   1.627 -1.2132  1.2825 -0.8188
 9470TIP3   OH228373   0.443   2.878   1.368  0.9466  0.2991 -0.2152
 9470TIP3    H128374   0.536   2.896   1.361  0.5891  2.1843 -0.6452
 9470TIP3    H228375   0.411   2.940   1.434 -0.3349  1.1220 -1.5576
 9471TIP3   OH228376   5.421   3.762   0.331 -0.1814 -0.3225  0.5862
 9471TIP3    H128377   5.368   3.683   0.336 -0.8637 -0.1601 -2.4027
 9471TIP3    H228378   5.508   3.731   0.306 -0.4461 -0.1683 -0.5769
 9472TIP3   OH228379   3.724   6.308   2.321 -0.2636 -0.6268 -0.0802
 9472TIP3    H128380   3.744   6.215   2.313  0.4230 -0.5724  0.7541
 9472TIP3    H228381   3.798   6.344   2.370 -1.2491  0.0803  0.9397
 9473TIP3   OH228382   5.355   1.988   2.488 -0.5102  0.3067 -0.0555
 9473TIP3    H128383   5.386   2.050   2.554  1.2909 -1.9334  1.3815
 9473TIP3    H228384   5.312   1.918   2.538 -1.5777 -0.1402 -1.5140
 9474TIP3   OH228385   5.040   1.421   3.721  0.3389  0.4369 -0.2483
 9474TIP3    H128386   5.134   1.411   3.729  0.4078  0.8281 -0.5440
 9474TIP3    H228387   5.015   1.470   3.800  0.5945  1.6141 -0.8713
 9475TIP3   OH228388   3.646   2.334   4.639 -0.3575 -0.3350  0.2450
 9475TIP3    H128389   3.724   2.337   4.584 -1.2762  1.0971 -1.0712
 9475TIP3    H228390   3.668   2.389   4.714 -0.4730  1.0959 -0.7198
 9476TIP3   OH228391   5.623   2.009   5.348 -0.2001 -0.2155 -0.1137
 9476TIP3    H128392   5.674   2.084   5.317 -0.9465 -0.0191 -0.9396
 9476TIP3    H228393   5.570   1.984   5.272  0.5430 -2.0370 -0.0875
 9477TIP3   OH228394   0.026   3.622   5.758  0.2241  0.0134  0.1714
 9477TIP3    H128395   0.092   3.553   5.750 -0.0541 -0.2732  0.3339
 9477TIP3    H228396  -0.019   3.622   5.674 -0.4637 -0.7109  0.5310
 9478TIP3   OH228397   4.211   4.687   0.316  0.3865 -0.1336  0.0722
 9478TIP3    H128398   4.267   4.618   0.280  1.0073 -0.2750  1.2747
 9478TIP3    H228399   4.123   4.663   0.288  0.5696 -1.5201  0.6301
 9479TIP3   OH228400   6.646   6.763   3.335 -0.6560 -0.6173 -0.4816
 9479TIP3    H128401   6.627   6.691   3.395 -1.8630 -0.0769 -0.1942
 9479TIP3    H228402   6.638   6.724   3.248  0.3481 -1.2193 -0.3221
 9480TIP3   OH228403   1.483   5.748   5.001  0.8808 -0.0267 -0.1797
 9480TIP3    H128404   1.503   5.716   4.914 -0.4743 -0.1327 -0.4873
 9480TIP3    H228405   1.566   5.781   5.036  1.4981 -0.3064 -1.3648
 9481TIP3   OH228406   4.980   4.956   4.479  0.2237 -0.1211  0.4235
 9481TIP3    H128407   4.900   4.903   4.483 -0.2300  0.5068 -0.2397
 9481TIP3    H228408   4.970   5.020   4.550  0.1016  0.0084  0.2893
 9482TIP3   OH228409   2.262   5.434   3.214  0.6350  0.1209  0.2342
 9482TIP3    H128410   2.300   5.347   3.228  0.6289  0.1165  0.2242
 9482TIP3    H228411   2.221   5.428   3.127 -0.9766 -0.4485  0.9808
 9483TIP3   OH228412   3.387   6.349   1.188  0.5484 -0.2816 -0.2834
 9483TIP3    H128413   3.460   6.381   1.242 -0.7632  1.1353  0.7639
 9483TIP3    H228414   3.312   6.351   1.247  0.1179 -4.8271 -0.2958
 9484TIP3   OH228415   6.985   1.779   1.219 -0.4081  0.1067  0.0347
 9484TIP3    H128416   6.965   1.763   1.312  0.3126 -1.7316 -0.0672
 9484TIP3    H228417   7.049   1.710   1.197  1.2851  1.9772 -1.2136
 9485TIP3   OH228418   3.396   3.852   0.358  0.1569  0.2796  0.2792
 9485TIP3    H128419   3.371   3.819   0.444  0.3157  0.1754  0.2855
 9485TIP3    H228420   3.326   3.821   0.300  1.5929 -2.3632 -0.1979
 9486TIP3   OH228421   6.472   4.347   3.919 -0.0794 -0.0653 -0.0792
 9486TIP3    H128422   6.379   4.372   3.925  0.0178  0.5112 -0.8239
 9486TIP3    H228423   6.519   4.419   3.962 -0.0355 -0.9634  1.4436
 9487TIP3   OH228424   6.423   2.713   1.566  0.3134 -0.1127  0.0203
 9487TIP3    H128425   6.359   2.770   1.609  0.3332  0.5540 -0.8281
 9487TIP3    H228426   6.379   2.628   1.562 -0.0186  0.0217  0.5987
 9488TIP3   OH228427   5.333   0.142   1.429 -0.3333  0.0911  0.1545
 9488TIP3    H128428   5.378   0.058   1.417 -0.7962  0.0112 -1.2395
 9488TIP3    H228429   5.403   0.206   1.432  0.1553 -0.4422  2.9588
 9489TIP3   OH228430   1.304   4.233   0.344 -0.4895  0.1442 -0.3202
 9489TIP3    H128431   1.259   4.186   0.414  0.3239 -0.0514  0.0793
 9489TIP3    H228432   1.387   4.188   0.333 -0.2658  0.6665 -0.8568
 9490TIP3   OH228433   4.729   6.377   0.222  0.1097 -0.8183  0.4786
 9490TIP3    H128434   4.751   6.464   0.256 -1.2880 -0.4605  0.5035
 9490TIP3    H228435   4.803   6.356   0.165 -0.4512  1.3121 -1.1979
 9491TIP3   OH228436   6.800   0.654   3.124  0.2013  0.4639  0.6079
 9491TIP3    H128437   6.726   0.652   3.063  1.0523  2.7677 -0.6204
 9491TIP3    H228438   6.832   0.564   3.125 -1.1704 -0.0875 -0.6555
 9492TIP3   OH228439   4.915   6.179   2.561 -0.6454  0.0897  0.0622
 9492TIP3    H128440   4.850   6.128   2.511 -0.0196  0.8367 -1.5943
 9492TIP3    H228441   4.988   6.119   2.572 -1.8572 -1.0589  2.7063
 9493TIP3   OH228442   4.150   3.545   2.564 -0.0825  0.2035  0.2481
 9493TIP3    H128443   4.233   3.558   2.518  0.4809 -2.1816  0.4609
 9493TIP3    H228444   4.108   3.474   2.517 -0.9659 -0.1350  1.5168
 9494TIP3   OH228445   3.601   1.923   4.870  0.0721 -0.3452  0.1109
 9494TIP3    H128446   3.601   1.870   4.790  2.3543  1.0092 -0.9143
 9494TIP3    H228447   3.512   1.956   4.877 -0.4148 -1.2268 -1.3787
 9495TIP3   OH228448   6.975   0.146   0.954  0.2468  0.5457  0.1726
 9495TIP3    H128449   6.981   0.240   0.971 -1.1783  0.6584  0.1273
 9495TIP3    H228450   6.903   0.137   0.891  1.0772 -0.4793 -0.6703
 9496TIP3   OH228451   4.373   5.702   0.516 -0.3933 -0.3012 -0.8272
 9496TIP3    H128452   4.403   5.791   0.494  1.1893 -0.7166 -0.4573
 9496TIP3    H228453   4.360   5.660   0.431  3.1427 -1.0584 -1.1340
 9497TIP3   OH228454   6.232   0.415   3.948  0.2307  0.6396  0.2334
 9497TIP3    H128455   6.236   0.417   3.852  0.2961 -1.0794  0.1727
 9497TIP3    H228456   6.140   0.399   3.967  0.5648 -1.5426  0.3295
 9498TIP3   OH228457   4.585   4.821   0.255  0.1010  0.4517  0.2787
 9498TIP3    H128458   4.505   4.808   0.204 -0.3730  1.9543  0.5968
 9498TIP3    H228459   4.561   4.791   0.343 -0.1453  0.9759  0.3932
 9499TIP3   OH228460   3.107   0.316   5.682  0.0256  0.1391 -0.5205
 9499TIP3    H128461   3.140   0.405   5.694  1.9790 -0.4459 -1.1011
 9499TIP3    H228462   3.145   0.288   5.598  0.1916 -1.5381  0.0814
 9500TIP3   OH228463   2.597   5.627   4.797  0.0050  0.0602 -0.0002
 9500TIP3    H128464   2.586   5.631   4.702 -3.1072 -1.7616  0.1753
 9500TIP3    H228465   2.538   5.694   4.831  1.6126  1.1867  0.7242
 9501TIP3   OH228466   6.304   6.723   4.707 -0.6930  0.3149  0.0919
 9501TIP3    H128467   6.388   6.759   4.681  0.3915  1.4946  4.5035
 9501TIP3    H228468   6.303   6.635   4.668  1.0115  1.3999 -2.7255
 9502TIP3   OH228469   3.394   1.871   2.328 -0.1176 -0.2845 -0.1015
 9502TIP3    H128470   3.364   1.916   2.248 -1.5086  1.2048  1.1820
 9502TIP3    H228471   3.313   1.851   2.376  0.6964 -1.0589  1.0005
 9503TIP3   OH228472   6.258   4.894   5.703  0.1557 -0.4142  0.4009
 9503TIP3    H128473   6.201   4.845   5.644  0.0857  0.8103 -0.5959
 9503TIP3    H228474   6.339   4.905   5.655  0.5312 -0.4112  1.0182
 9504TIP3   OH228475   0.658   2.118   1.507  0.2017 -0.7301  0.3172
 9504TIP3    H128476   0.729   2.150   1.451 -0.0659  1.4292  1.1104
 9504TIP3    H228477   0.702   2.083   1.584  0.4639  0.8285  0.9178
 9505TIP3   OH228478   3.482   0.085   2.459 -0.0225  0.3659  0.0034
 9505TIP3    H128479   3.438   0.023   2.516 -0.7232 -0.1806 -1.0999
 9505TIP3    H228480   3.555   0.036   2.421 -0.3577  0.3090 -0.5850
 9506TIP3   OH228481   6.842   1.268   3.412 -0.1753  0.4312 -0.1782
 9506TIP3    H128482   6.827   1.243   3.503  0.8403  3.6553  1.0242
 9506TIP3    H228483   6.818   1.191   3.361 -2.2521 -0.9892  2.6930
 9507TIP3   OH228484   2.210   0.682   4.725 -0.2089  0.3027  0.2596
 9507TIP3    H128485   2.117   0.672   4.744 -0.0009 -0.6305  0.8350
 9507TIP3    H228486   2.220   0.649   4.635 -0.1840 -1.1149  0.7594
 9508TIP3   OH228487   4.073   4.203   0.606  0.0090  0.0012 -0.0151
 9508TIP3    H128488   4.135   4.145   0.561 -1.4674 -0.5897 -1.3712
 9508TIP3    H228489   4.079   4.177   0.698  1.1505 -0.6029 -0.2369
 9509TIP3   OH228490   6.802   1.141   0.857  0.6448  0.1217  0.0579
 9509TIP3    H128491   6.767   1.069   0.909  0.3790 -1.5310 -2.2745
 9509TIP3    H228492   6.730   1.204   0.852  0.2519 -0.2724  0.6045
 9510TIP3   OH228493   1.605   6.182   5.651  0.3928  0.1681  0.4024
 9510TIP3    H128494   1.635   6.132   5.727 -0.5525  0.8731  1.2650
 9510TIP3    H228495   1.677   6.242   5.632  0.9909 -0.5962  0.1786
 9511TIP3   OH228496   4.586   5.348   5.309  0.2376  0.6249 -0.1820
 9511TIP3    H128497   4.498   5.375   5.284 -0.2112 -0.0069  0.6568
 9511TIP3    H228498   4.583   5.343   5.405  1.3482  1.1414 -0.1054
 9512TIP3   OH228499   2.303   6.129   3.662  0.2928  0.1179  0.1752
 9512TIP3    H128500   2.385   6.082   3.642  0.1274 -0.3078  0.4874
 9512TIP3    H228501   2.311   6.211   3.614  0.6276 -0.1891 -0.3121
 9513TIP3   OH228502   6.628   2.706   3.135  0.5276  0.2191  0.0554
 9513TIP3    H128503   6.611   2.615   3.158 -0.5147  0.2921 -0.3601
 9513TIP3    H228504   6.586   2.717   3.049 -1.3769  1.6879  1.1121
 9514TIP3   OH228505   5.690   4.838   1.488 -0.2820 -0.0165  0.2742
 9514TIP3    H128506   5.695   4.826   1.393  0.8433 -0.0919  0.3304
 9514TIP3    H228507   5.767   4.890   1.510 -0.8073  0.4384  1.0900
 9515TIP3   OH228508   4.744   2.134   0.525 -0.0812  0.0181  0.0761
 9515TIP3    H128509   4.826   2.134   0.474 -0.5712  1.3713 -0.7683
 9515TIP3    H228510   4.689   2.068   0.482 -0.3141  0.8159 -0.8882
 9516TIP3   OH228511   4.456   1.519   1.314 -0.3248  0.3540  0.5733
 9516TIP3    H128512   4.502   1.561   1.387  1.0489 -0.4917  0.2418
 9516TIP3    H228513   4.506   1.439   1.297  0.5271  1.3937 -2.4796
 9517TIP3   OH228514   4.188   4.393   2.805  0.0100  0.0995 -0.7921
 9517TIP3    H128515   4.126   4.384   2.733  0.0872  0.6891 -0.9389
 9517TIP3    H228516   4.169   4.480   2.842 -1.6050 -1.1000  1.3954
 9518TIP3   OH228517   0.108   0.456   3.432 -0.8643 -0.6333 -0.1051
 9518TIP3    H128518   0.141   0.373   3.466  1.3809  0.5279  0.7654
 9518TIP3    H228519   0.114   0.448   3.337 -0.4623 -1.3677 -0.0215
 9519TIP3   OH228520   0.335   4.374   0.060 -0.2309 -0.0119 -0.3505
 9519TIP3    H128521   0.396   4.311   0.021  0.9621  1.5836 -1.2118
 9519TIP3    H228522   0.263   4.380  -0.003  0.1611  0.2362 -0.7802
 9520TIP3   OH228523   4.625   4.193   5.548 -0.3911  0.0885 -0.7281
 9520TIP3    H128524   4.610   4.116   5.492  1.2232 -0.6372 -0.2275
 9520TIP3    H228525   4.605   4.162   5.636 -1.0262  0.6635 -0.6608
 9521TIP3   OH228526   1.899   6.155   2.976  0.1437  0.5925  0.8965
 9521TIP3    H128527   1.849   6.192   3.049 -2.0297 -0.7106  0.1600
 9521TIP3    H228528   1.917   6.065   3.003 -1.6715 -0.2726 -0.5478
 9522TIP3   OH228529   3.257   4.567   1.026 -0.4715 -0.1815  0.2056
 9522TIP3    H128530   3.216   4.481   1.029  0.5878 -0.6775  1.5307
 9522TIP3    H228531   3.297   4.572   0.940 -1.3600 -0.6041 -0.2440
 9523TIP3   OH228532   1.542   0.825   0.986 -0.4704  0.0115  0.6051
 9523TIP3    H128533   1.612   0.869   1.034 -1.7205  2.1540  0.6053
 9523TIP3    H228534   1.587   0.771   0.921  1.1779 -0.2571  1.9110
 9524TIP3   OH228535   3.368   4.108   1.912  0.1175  0.3400 -0.3194
 9524TIP3    H128536   3.392   4.045   1.979  1.4033  0.1485 -0.9213
 9524TIP3    H228537   3.273   4.104   1.906  0.1124 -0.7055  0.4481
 9525TIP3   OH228538   6.753   4.543   0.007 -0.3159 -0.0159 -0.7934
 9525TIP3    H128539   6.830   4.533  -0.050  0.9688  0.8497  0.6952
 9525TIP3    H228540   6.790   4.565   0.093 -2.2090 -0.6900  0.2476
 9526TIP3   OH228541   5.612   1.277   4.453 -0.6964 -0.1428 -0.4464
 9526TIP3    H128542   5.601   1.314   4.541 -1.2582 -0.8465 -0.2106
 9526TIP3    H228543   5.705   1.253   4.449 -1.0331 -1.7333  0.6215
 9527TIP3   OH228544   3.182   0.403   0.169 -0.0190  0.3476 -0.1058
 9527TIP3    H128545   3.124   0.328   0.185 -0.2864  0.4318 -0.6448
 9527TIP3    H228546   3.210   0.430   0.256  0.7117 -0.8675  0.0584
 9528TIP3   OH228547   5.985   3.075   1.793 -0.1827 -0.7270  0.1295
 9528TIP3    H128548   6.016   3.153   1.746 -0.8899  0.3049  1.3002
 9528TIP3    H228549   5.896   3.061   1.762  0.1772 -1.4895 -0.5732
 9529TIP3   OH228550   0.804   1.623   0.702 -0.1799 -0.0066 -0.4165
 9529TIP3    H128551   0.808   1.623   0.798 -3.0409 -0.1188 -0.2231
 9529TIP3    H228552   0.883   1.575   0.675  0.9779  0.4976  1.8143
 9530TIP3   OH228553   1.703   5.947   3.587 -0.1620  0.0231 -0.0925
 9530TIP3    H128554   1.741   5.884   3.649 -1.1584 -1.4902 -0.9614
 9530TIP3    H228555   1.609   5.944   3.604 -0.1527  2.2527  0.6797
 9531TIP3   OH228556   2.064   5.554   3.350  0.3284 -0.1310 -0.2530
 9531TIP3    H128557   2.121   5.513   3.285  1.0254 -1.2724  1.0315
 9531TIP3    H228558   2.005   5.484   3.378  0.0861  0.3247  0.3918
 9532TIP3   OH228559   5.524   2.730   4.126  0.2507 -0.1727  0.1510
 9532TIP3    H128560   5.466   2.680   4.069  0.2898  0.4597 -0.4772
 9532TIP3    H228561   5.477   2.738   4.208 -0.9047  0.9625 -0.5805
 9533TIP3   OH228562   1.626   6.812   3.645 -0.6858  0.4692 -0.1939
 9533TIP3    H128563   1.554   6.794   3.585  0.7418  1.4516 -2.3136
 9533TIP3    H228564   1.692   6.746   3.624  0.1960  1.3843 -0.3577
 9534TIP3   OH228565   2.845   5.266   0.410 -0.4818 -0.2329  0.2051
 9534TIP3    H128566   2.818   5.354   0.435  0.0843 -0.3674  1.3716
 9534TIP3    H228567   2.800   5.209   0.472  0.8696 -0.5898  0.8970
 9535TIP3   OH228568   3.773   1.092   3.739  0.5136  0.4580 -0.5326
 9535TIP3    H128569   3.707   1.034   3.778  2.9261  0.0710  3.4729
 9535TIP3    H228570   3.854   1.042   3.742  1.9565  2.6690 -0.4693
 9536TIP3   OH228571   0.085   1.279   5.313  0.6729 -0.7229 -0.1731
 9536TIP3    H128572   0.042   1.195   5.296  1.8451 -1.5587  0.8550
 9536TIP3    H228573   0.116   1.307   5.227 -0.3858 -0.9597 -0.6457
 9537TIP3   OH228574   5.218   0.626   0.418  0.4401 -0.2239  0.0175
 9537TIP3    H128575   5.268   0.569   0.361  0.5580  0.2714 -0.3858
 9537TIP3    H228576   5.174   0.687   0.358 -1.4496 -1.2550  0.2829
 9538TIP3   OH228577   3.876   4.524   1.971 -0.3813  0.0239  0.3239
 9538TIP3    H128578   3.822   4.500   2.046 -1.3911  2.6203  0.5166
 9538TIP3    H228579   3.831   4.599   1.932  0.4767 -0.8051 -2.5045
 9539TIP3   OH228580   7.187   4.931   2.871  0.0409  0.1748  0.0126
 9539TIP3    H128581   7.263   4.985   2.895  0.3041 -0.1426 -0.0950
 9539TIP3    H228582   7.111   4.983   2.897  0.2694  0.9065 -0.7384
 9540TIP3   OH228583   0.577   6.389   2.616  0.4979 -0.2618  0.0878
 9540TIP3    H128584   0.483   6.407   2.613  0.3341 -0.8608  1.0901
 9540TIP3    H228585   0.592   6.354   2.704  1.5351 -0.8905 -0.3200
 9541TIP3   OH228586   3.156   3.713   1.252 -0.4656  0.3533  0.0816
 9541TIP3    H128587   3.109   3.652   1.309  1.2272 -1.6283 -0.5040
 9541TIP3    H228588   3.146   3.798   1.293  0.0069 -0.8583  2.9033
 9542TIP3   OH228589   0.592   1.104   3.714 -0.2055 -0.1970 -0.4774
 9542TIP3    H128590   0.533   1.034   3.742 -0.0230 -0.3602 -0.4964
 9542TIP3    H228591   0.539   1.183   3.717 -0.7019 -0.4836 -1.4228
 9543TIP3   OH228592   2.450   2.690   4.249  0.1367  0.0162  0.1914
 9543TIP3    H128593   2.540   2.680   4.220  0.3277  2.4919 -0.3324
 9543TIP3    H228594   2.398   2.652   4.178  0.7250 -0.9150  0.2375
 9544TIP3   OH228595   2.657   5.422   2.019 -0.1783 -0.1222 -0.1584
 9544TIP3    H128596   2.751   5.435   2.010 -0.1318 -0.2936  0.0538
 9544TIP3    H228597   2.649   5.353   2.085 -0.3899 -1.4009 -1.4570
 9545TIP3   OH228598   4.525   1.677   4.228 -0.1043 -0.3795 -0.2883
 9545TIP3    H128599   4.444   1.634   4.200  1.1308 -1.6311 -2.1804
 9545TIP3    H228600   4.498   1.767   4.247 -2.0618 -0.9515 -0.0986
 9546TIP3   OH228601   3.333   0.040   0.519 -0.2730  0.3344 -0.3591
 9546TIP3    H128602   3.241   0.025   0.496  0.0578 -1.3549 -0.7285
 9546TIP3    H228603   3.330   0.097   0.595 -1.5886  1.2752 -1.0695
 9547TIP3   OH228604   6.119   6.177   1.265  0.4441 -0.1103 -0.0084
 9547TIP3    H128605   6.127   6.173   1.170 -2.1472  2.4783 -0.4792
 9547TIP3    H228606   6.174   6.252   1.290  2.4917 -1.7977  0.8579
 9548TIP3   OH228607   2.390   2.514   0.586 -0.1767  0.0269 -0.1113
 9548TIP3    H128608   2.431   2.521   0.672  2.1455  0.4083 -1.1844
 9548TIP3    H228609   2.349   2.428   0.586  0.4323 -0.2838  1.1056
 9549TIP3   OH228610   6.709   4.178   4.020 -0.1060 -0.0695 -0.5305
 9549TIP3    H128611   6.643   4.235   3.981 -0.9569 -1.1585 -0.7260
 9549TIP3    H228612   6.707   4.099   3.967 -0.8861 -1.3677  1.3397
 9550TIP3   OH228613   6.139   5.184   0.112  0.4203  0.2810 -0.1493
 9550TIP3    H128614   6.200   5.243   0.067  0.7968  0.2324  0.2917
 9550TIP3    H228615   6.137   5.105   0.057  0.0023  0.6541 -0.6807
 9551TIP3   OH228616   2.726   1.698   2.508  0.1440  0.3276 -0.5724
 9551TIP3    H128617   2.689   1.609   2.502  1.2265 -0.1038 -1.0684
 9551TIP3    H228618   2.780   1.706   2.430  0.3642  1.2903 -0.3260
 9552TIP3   OH228619   2.983   0.880   3.641 -0.7838  0.4680 -0.1805
 9552TIP3    H128620   3.062   0.885   3.694 -0.0506 -1.6862 -0.9388
 9552TIP3    H228621   3.004   0.928   3.561 -0.9611  1.5274  0.3977
 9553TIP3   OH228622   2.171   3.872   0.602 -0.0523 -0.3240  0.6116
 9553TIP3    H128623   2.232   3.945   0.589 -1.3924  0.8563  0.5963
 9553TIP3    H228624   2.153   3.873   0.696  2.1348 -2.5653  1.1607
 9554TIP3   OH228625   0.518   1.284   3.451 -0.0614 -0.0292  0.3887
 9554TIP3    H128626   0.502   1.209   3.508  0.8805 -0.3602  0.2403
 9554TIP3    H228627   0.584   1.336   3.497  0.8532 -0.4002 -0.4619
 9555TIP3   OH228628   2.939   2.202   2.079 -0.7846 -0.5474 -0.0732
 9555TIP3    H128629   2.984   2.286   2.069  2.7539 -2.4869 -2.5957
 9555TIP3    H228630   2.951   2.180   2.172  0.4227  0.6253  0.0828
 9556TIP3   OH228631   7.003   5.441   5.592  0.0614  0.1248  0.0769
 9556TIP3    H128632   7.041   5.451   5.505 -2.5060  1.4744 -0.9814
 9556TIP3    H228633   6.930   5.502   5.594 -0.2661 -0.2004  3.0479
 9557TIP3   OH228634   7.006   3.527   3.171 -0.2475 -0.2500  0.2656
 9557TIP3    H128635   6.939   3.466   3.138 -0.4336 -0.0669  0.3066
 9557TIP3    H228636   6.993   3.607   3.120 -1.0954  0.3356  1.3737
 9558TIP3   OH228637   4.639   1.443   1.965 -0.1854 -0.3852 -0.1299
 9558TIP3    H128638   4.702   1.388   2.010 -0.5704 -1.7506 -1.1799
 9558TIP3    H228639   4.660   1.432   1.872  0.9124  2.7227 -0.3820
 9559TIP3   OH228640   2.516   5.680   2.532  0.6578 -0.0337 -0.0078
 9559TIP3    H128641   2.490   5.615   2.466 -0.5469  0.5720 -0.1565
 9559TIP3    H228642   2.438   5.733   2.546 -0.1928 -1.9683  4.1465
 9560TIP3   OH228643   2.523   1.018   0.942 -0.1633  0.0348  0.6425
 9560TIP3    H128644   2.497   0.937   0.985  0.0988 -0.1559  0.4487
 9560TIP3    H228645   2.548   0.991   0.853 -0.1677  0.3412  0.5460
 9561TIP3   OH228646   3.987   3.903   1.653  0.6198  0.3480 -0.0802
 9561TIP3    H128647   4.056   3.959   1.616  1.1842 -0.6444 -0.5543
 9561TIP3    H228648   3.913   3.963   1.666 -0.1260  0.5954 -4.0625
 9562TIP3   OH228649   7.188   4.691   4.326  0.6933 -0.3930 -0.1281
 9562TIP3    H128650   7.212   4.781   4.346 -1.9684  0.4404 -0.3223
 9562TIP3    H228651   7.230   4.639   4.394 -1.5207  1.5091  2.9263
 9563TIP3   OH228652   4.324   2.420   2.994  0.3117  0.1771 -0.1883
 9563TIP3    H128653   4.381   2.485   2.952  0.0329  0.0927 -0.7143
 9563TIP3    H228654   4.303   2.458   3.079  2.2322 -0.3981  0.5769
 9564TIP3   OH228655   0.639   6.127   3.108  0.4591  0.0692 -0.3950
 9564TIP3    H128656   0.661   6.096   3.196  0.1140 -0.9115 -0.6445
 9564TIP3    H228657   0.696   6.203   3.095  2.0886 -1.0656 -0.1623
 9565TIP3   OH228658   0.701   5.871   4.112 -0.1588  0.0396  0.3324
 9565TIP3    H128659   0.694   5.964   4.136  1.3458 -0.0251  1.1028
 9565TIP3    H228660   0.794   5.853   4.113 -0.3483 -1.1458 -1.2336
 9566TIP3   OH228661   2.410   4.635   4.994  0.4003  0.2628 -0.6192
 9566TIP3    H128662   2.436   4.722   5.025 -1.5904  0.2946  1.2509
 9566TIP3    H228663   2.326   4.619   5.038  0.9883 -2.8616 -0.4408
 9567TIP3   OH228664   1.119   2.033   4.803  0.3921  0.3080 -0.4037
 9567TIP3    H128665   1.135   1.951   4.755  0.5550  0.1572 -0.0969
 9567TIP3    H228666   1.070   2.088   4.742  0.0063 -0.1374 -0.5028
 9568TIP3   OH228667   6.677   1.452   5.618  0.1872 -0.4334 -0.2929
 9568TIP3    H128668   6.586   1.432   5.595 -0.2602  2.0591 -1.0046
 9568TIP3    H228669   6.672   1.492   5.704  0.5256  0.2718 -0.5931
 9569TIP3   OH228670   6.421   2.932   1.298  0.0015  0.4263 -0.0308
 9569TIP3    H128671   6.360   2.926   1.225 -0.2495 -0.1975  0.2275
 9569TIP3    H228672   6.385   2.874   1.365  1.5936 -1.0541 -0.3793
 9570TIP3   OH228673   6.593   6.467   3.701  0.7207  0.3693 -0.0727
 9570TIP3    H128674   6.521   6.434   3.755 -0.2079  0.8376 -0.9736
 9570TIP3    H228675   6.635   6.534   3.756 -0.0394  0.6551  0.1801
 9571TIP3   OH228676   4.004   6.302   5.499  0.2987  0.0205  0.2139
 9571TIP3    H128677   4.050   6.341   5.573  0.7177 -0.4233  0.1962
 9571TIP3    H228678   3.999   6.209   5.520  0.8556 -0.1883 -0.5396
 9572TIP3   OH228679   6.597   6.001   2.805 -0.1345 -0.3015 -0.0874
 9572TIP3    H128680   6.532   6.039   2.747 -1.1502  0.4359  1.4494
 9572TIP3    H228681   6.576   6.037   2.891  1.2594 -1.3908  0.7602
 9573TIP3   OH228682   1.027   3.933   1.936 -0.4671 -0.3354  0.1906
 9573TIP3    H128683   1.104   3.955   1.988 -1.1130 -2.1162  2.0496
 9573TIP3    H228684   1.062   3.909   1.850  1.2047 -1.9306  1.2291
 9574TIP3   OH228685   6.811   2.806   3.361 -0.2762  0.4182  0.4223
 9574TIP3    H128686   6.774   2.732   3.313  1.1234  1.0009 -1.6849
 9574TIP3    H228687   6.889   2.771   3.403  0.6710  0.7652 -0.9936
 9575TIP3   OH228688   2.695   6.701   4.383 -0.2520  0.3454  0.1072
 9575TIP3    H128689   2.645   6.730   4.459 -0.4854  0.3594 -0.0488
 9575TIP3    H228690   2.637   6.720   4.308  0.4482  1.4397 -0.1891
 9576TIP3   OH228691   5.653   0.604   0.786  0.0506 -0.2381  0.0780
 9576TIP3    H128692   5.578   0.575   0.734 -0.2415 -0.2888  0.5279
 9576TIP3    H228693   5.644   0.699   0.791  1.1417  0.0129 -1.6074
 9577TIP3   OH228694   1.638   5.160   5.340  0.3919 -0.4055  0.2799
 9577TIP3    H128695   1.660   5.121   5.425 -1.0888 -1.4915  0.2102
 9577TIP3    H228696   1.545   5.177   5.345  0.6208  1.2131 -0.4984
 9578TIP3   OH228697   4.204   4.759   4.804  0.1400  0.3682 -0.1993
 9578TIP3    H128698   4.284   4.762   4.856 -0.3796 -0.1489  0.6663
 9578TIP3    H228699   4.198   4.846   4.765  1.8124 -0.0066 -1.3865
 9579TIP3   OH228700   1.739   3.644   3.388 -0.2226 -0.2250  0.6696
 9579TIP3    H128701   1.799   3.671   3.319  0.2103  0.6652  1.3738
 9579TIP3    H228702   1.697   3.564   3.354  0.7830 -0.4225 -0.1453
 9580TIP3   OH228703   7.162   6.610   0.544 -0.3272 -0.0741 -0.5898
 9580TIP3    H128704   7.208   6.567   0.473 -3.3698 -0.6851 -2.3687
 9580TIP3    H228705   7.133   6.539   0.602  0.0431  0.1976 -0.0595
 9581TIP3   OH228706   2.824   0.470   0.181 -0.0366  0.0053  0.4444
 9581TIP3    H128707   2.846   0.537   0.246 -0.9358  1.8272 -1.0174
 9581TIP3    H228708   2.900   0.466   0.124  0.0530 -0.2912  0.5847
 9582TIP3   OH228709   4.621   6.711   1.056  0.1719 -0.3780  0.1587
 9582TIP3    H128710   4.526   6.697   1.061 -0.4538  1.3475 -3.3597
 9582TIP3    H228711   4.630   6.806   1.046  2.1662 -0.6033 -0.5030
 9583TIP3   OH228712   4.158   1.177   2.795 -0.3383 -0.1388 -0.2615
 9583TIP3    H128713   4.251   1.156   2.798 -0.6145 -1.3824  2.1605
 9583TIP3    H228714   4.114   1.092   2.797 -1.5136  0.4464 -0.1441
 9584TIP3   OH228715   6.620   3.004   2.015  0.3373 -0.1471 -0.0891
 9584TIP3    H128716   6.580   3.088   1.992 -0.7023 -0.7619 -0.6302
 9584TIP3    H228717   6.691   2.993   1.951  1.1042  0.7473  0.5865
 9585TIP3   OH228718   3.614   3.859   3.820  1.1808 -0.1237  0.0338
 9585TIP3    H128719   3.677   3.808   3.872  0.9447 -0.6343 -0.1730
 9585TIP3    H228720   3.549   3.888   3.883  1.0803 -0.4549  0.0889
 9586TIP3   OH228721   6.281   3.942   5.484  0.2977  0.1101 -0.7015
 9586TIP3    H128722   6.292   3.913   5.575 -0.3860  2.6835  0.2994
 9586TIP3    H228723   6.201   3.900   5.455 -0.6988  0.9249  0.7072
 9587TIP3   OH228724   6.124   2.338   0.727 -0.6171 -0.4100  0.2521
 9587TIP3    H128725   6.204   2.299   0.762 -0.3659 -1.2343 -1.1732
 9587TIP3    H228726   6.122   2.426   0.765  0.5041 -0.6810  0.9945
 9588TIP3   OH228727   5.477   2.290   5.147  0.1268  0.1585 -0.7957
 9588TIP3    H128728   5.422   2.349   5.096 -0.4573 -0.3076 -0.7142
 9588TIP3    H228729   5.509   2.344   5.220 -1.2997  0.1021 -0.0918
 9589TIP3   OH228730   6.714   5.203   3.772 -0.2009 -0.1609  0.9207
 9589TIP3    H128731   6.727   5.109   3.787  0.7391 -0.9188 -3.3076
 9589TIP3    H228732   6.621   5.212   3.755 -0.1734 -0.4946  0.5841
 9590TIP3   OH228733   4.008   4.977   5.677 -1.1083 -0.4955 -0.2859
 9590TIP3    H128734   4.079   5.034   5.706 -1.7371  0.0681  0.1949
 9590TIP3    H228735   4.010   4.904   5.739 -2.7320  0.9235  1.5748
 9591TIP3   OH228736   6.862   4.846   1.304 -0.4396 -0.0446 -0.2990
 9591TIP3    H128737   6.946   4.892   1.315 -1.7336  2.0270  1.7504
 9591TIP3    H228738   6.883   4.754   1.317  1.4570  0.4693  0.5783
 9592TIP3   OH228739   5.694   4.950   3.048  0.1480  0.2782 -0.3179
 9592TIP3    H128740   5.754   4.884   3.014 -0.9705 -0.0638 -1.7032
 9592TIP3    H228741   5.607   4.921   3.021 -0.7193  0.6311  1.8209
 9593TIP3   OH228742   4.015   2.575   3.430 -0.3757 -0.5088  1.0211
 9593TIP3    H128743   4.050   2.664   3.441  1.6135 -1.2019  0.8147
 9593TIP3    H228744   3.955   2.563   3.503  0.1733  0.6297  1.6787
 9594TIP3   OH228745   1.975   3.962   3.694  0.2531 -0.3614  0.3198
 9594TIP3    H128746   1.973   3.885   3.751 -1.3447 -1.0870 -0.6354
 9594TIP3    H228747   1.937   3.931   3.611 -0.5539  1.4775 -0.0422
 9595TIP3   OH228748   6.545   1.891   5.629  0.4773 -0.4845  0.1765
 9595TIP3    H128749   6.576   1.886   5.719 -1.9567  1.8199  1.2863
 9595TIP3    H228750   6.482   1.820   5.621  0.1956 -0.2770  0.5291
 9596TIP3   OH228751   4.308   5.236   1.550 -0.1001  0.2855 -0.3709
 9596TIP3    H128752   4.335   5.318   1.592  0.5871  0.2032 -0.6327
 9596TIP3    H228753   4.218   5.223   1.579 -0.3639  1.3525 -0.6477
 9597TIP3   OH228754   0.809   4.841   0.285 -0.2621 -0.4559  0.0127
 9597TIP3    H128755   0.886   4.868   0.236 -0.2140 -1.7683 -0.6964
 9597TIP3    H228756   0.738   4.894   0.250  0.2957  0.7391  0.6512
 9598TIP3   OH228757   6.791   0.838   2.422 -0.2582  0.5052  0.0704
 9598TIP3    H128758   6.743   0.756   2.433  1.1801 -0.3560  0.1521
 9598TIP3    H228759   6.831   0.855   2.507  2.0818 -0.4712 -0.7379
 9599TIP3   OH228760   4.814   1.897   4.811  0.1368 -0.4471 -0.1689
 9599TIP3    H128761   4.787   1.831   4.875 -0.8847 -0.0336 -0.1467
 9599TIP3    H228762   4.905   1.917   4.833  0.0084 -0.8060  0.7135
 9600TIP3   OH228763   1.619   5.995   1.067 -0.2565  0.1747  0.0806
 9600TIP3    H128764   1.641   5.923   1.009  0.9032  0.4587  0.1349
 9600TIP3    H228765   1.636   5.961   1.155 -0.9937  0.0896  0.1981
 9601TIP3   OH228766   3.833   3.300   5.066  0.5892  0.0510 -0.0184
 9601TIP3    H128767   3.809   3.383   5.107 -0.4001 -0.0034 -0.4738
 9601TIP3    H228768   3.762   3.281   5.004  0.0432 -1.8533  1.0917
 9602TIP3   OH228769   4.020   0.215   5.196 -0.5603 -0.3572  0.5473
 9602TIP3    H128770   4.100   0.232   5.245  1.6123 -0.2138 -2.7364
 9602TIP3    H228771   3.991   0.302   5.166 -0.7853 -0.5797  0.1040
 9603TIP3   OH228772   0.203   6.609   0.777 -0.3753 -0.2862  0.2661
 9603TIP3    H128773   0.131   6.617   0.716  0.3642 -0.2191 -0.6167
 9603TIP3    H228774   0.161   6.607   0.863 -1.4429 -0.6588 -0.2440
 9604TIP3   OH228775   6.385   4.403   0.306 -0.0472 -0.7970 -0.8981
 9604TIP3    H128776   6.302   4.361   0.325  0.2565 -0.7217  0.8097
 9604TIP3    H228777   6.381   4.486   0.353  0.2958  0.0394 -2.2766
 9605TIP3   OH228778   4.508   2.972   2.773 -0.2956  0.0856  0.0180
 9605TIP3    H128779   4.478   3.061   2.792 -0.9469 -0.1888  0.2994
 9605TIP3    H228780   4.430   2.917   2.783 -0.0913 -0.4099 -1.0061
 9606TIP3   OH228781   3.204   6.624   0.377  0.2768  0.4746  0.0439
 9606TIP3    H128782   3.235   6.534   0.366 -1.8185 -0.0854 -1.9304
 9606TIP3    H228783   3.249   6.655   0.456  3.0256 -1.4056 -0.6191
 9607TIP3   OH228784   6.119   6.580   0.743 -0.3929 -0.2394  0.0530
 9607TIP3    H128785   6.090   6.489   0.747 -3.1835  0.5584 -0.0590
 9607TIP3    H228786   6.133   6.606   0.834 -0.6010 -0.4810  0.1526
 9608TIP3   OH228787   4.022   2.728   4.903 -0.0638 -0.4723  0.1799
 9608TIP3    H128788   4.022   2.756   4.995  0.6497  0.7892 -0.1810
 9608TIP3    H228789   4.108   2.754   4.870 -0.9616  0.7511 -1.3177
 9609TIP3   OH228790   4.146   1.007   5.272 -0.2737  0.2570  0.3165
 9609TIP3    H128791   4.113   1.096   5.273  0.6026  0.5969  0.4261
 9609TIP3    H228792   4.105   0.966   5.196  0.1309  1.0823 -0.3533
 9610TIP3   OH228793   4.960   5.163   4.624 -0.0299 -0.1366 -0.4686
 9610TIP3    H128794   5.044   5.153   4.668 -0.6505 -2.0913  0.3876
 9610TIP3    H228795   4.898   5.182   4.695 -0.6009 -0.6250 -0.8213
 9611TIP3   OH228796   3.934   0.644   1.350 -0.0512 -0.2365 -0.1727
 9611TIP3    H128797   3.997   0.623   1.280  0.0775  1.2034 -0.5181
 9611TIP3    H228798   3.898   0.729   1.325  0.6441  0.7442  1.9442
 9612TIP3   OH228799   3.716   2.180   3.915 -0.0814 -0.1864 -0.2148
 9612TIP3    H128800   3.804   2.185   3.879 -0.5873  0.9343 -1.4043
 9612TIP3    H228801   3.714   2.248   3.983  0.5091 -1.4974  1.1822
 9613TIP3   OH228802   5.400   4.675   3.187 -0.0895 -0.1374 -0.1571
 9613TIP3    H128803   5.347   4.724   3.124 -0.0113  0.9324  0.5823
 9613TIP3    H228804   5.381   4.583   3.167 -2.8030  0.1722  0.5301
 9614TIP3   OH228805   6.898   1.492   4.304  0.3621  0.5999 -0.3812
 9614TIP3    H128806   6.830   1.444   4.258 -1.8020  0.4632  2.6303
 9614TIP3    H228807   6.860   1.579   4.319  0.9915  0.6809  0.9563
 9615TIP3   OH228808   1.660   5.290   3.971 -0.1041  0.1829  0.3542
 9615TIP3    H128809   1.581   5.295   3.916 -0.2105 -0.1138  0.4756
 9615TIP3    H228810   1.631   5.322   4.057 -0.1302 -0.0572  0.4365
 9616TIP3   OH228811   2.659   5.281   2.832  0.2018 -0.1598  0.1946
 9616TIP3    H128812   2.574   5.241   2.815  0.0994  0.1676 -0.0564
 9616TIP3    H228813   2.681   5.327   2.752  1.1397 -1.1668 -0.1495
 9617TIP3   OH228814   4.214   6.521   3.540 -0.3327  0.0341 -0.0425
 9617TIP3    H128815   4.205   6.535   3.634 -0.0669  0.5504 -0.0922
 9617TIP3    H228816   4.216   6.609   3.503  0.2465 -0.1543 -0.4691
 9618TIP3   OH228817   1.738   5.577   5.184  0.2711  0.4562  0.1188
 9618TIP3    H128818   1.803   5.507   5.188  1.5922  1.5544 -1.0588
 9618TIP3    H228819   1.657   5.537   5.215  1.7472 -0.6227  2.8594
 9619TIP3   OH228820   0.467   5.435   5.606 -0.3051 -0.4371  0.3053
 9619TIP3    H128821   0.536   5.415   5.542 -0.9435  0.9669 -0.8969
 9619TIP3    H228822   0.387   5.400   5.566 -0.7208  0.5319  0.2688
 9620TIP3   OH228823   6.387   0.734   1.600  0.2493 -0.1909 -0.1903
 9620TIP3    H128824   6.460   0.693   1.646  1.2786  0.8111 -0.8997
 9620TIP3    H228825   6.400   0.711   1.508  0.2840  0.8830 -0.4663
 9621TIP3   OH228826   5.724   5.453   5.756 -0.6321  0.3817 -0.4611
 9621TIP3    H128827   5.783   5.379   5.745  0.0506  0.8830 -0.2511
 9621TIP3    H228828   5.773   5.514   5.812 -2.7202 -0.7298  2.8626
 9622TIP3   OH228829   1.771   1.750   1.408  0.3069 -0.0847  0.1682
 9622TIP3    H128830   1.788   1.842   1.389 -1.2315  0.1333 -0.2934
 9622TIP3    H228831   1.680   1.737   1.381 -0.1013 -1.2654  1.9709
 9623TIP3   OH228832   0.710   4.630   4.052 -0.3696  0.3485  0.2663
 9623TIP3    H128833   0.618   4.630   4.024  0.2180  0.1412 -1.8590
 9623TIP3    H228834   0.744   4.545   4.024  0.7280  0.8412  0.0585
 9624TIP3   OH228835   5.301   2.056   3.425 -0.1517  0.0461 -0.2377
 9624TIP3    H128836   5.277   1.985   3.366  0.8171 -0.6165  0.1289
 9624TIP3    H228837   5.345   2.120   3.370  0.7241 -0.5576 -0.2590
 9625TIP3   OH228838   0.389   2.483   5.200 -0.2411  0.1130  0.0813
 9625TIP3    H128839   0.406   2.517   5.112  1.9964  1.9344  1.1046
 9625TIP3    H228840   0.420   2.393   5.197  3.5413  1.2242 -0.1261
 9626TIP3   OH228841   5.038   0.776   5.554  0.5519 -0.2918  0.2487
 9626TIP3    H128842   5.091   0.846   5.591  0.9487 -0.1166 -0.6282
 9626TIP3    H228843   5.047   0.704   5.616 -0.8750  0.8114  1.8379
 9627TIP3   OH228844   2.563   3.182   5.524  0.5253  0.0207  0.7946
 9627TIP3    H128845   2.634   3.139   5.571  1.5352  1.2643  0.4661
 9627TIP3    H228846   2.483   3.151   5.567  1.3334 -0.3102  2.1100
 9628TIP3   OH228847   5.870   4.144   3.348  0.3233  0.7412 -0.0001
 9628TIP3    H128848   5.907   4.074   3.293 -1.3132  0.6674 -1.0561
 9628TIP3    H228849   5.795   4.103   3.391  0.5372  1.3123  0.9465
 9629TIP3   OH228850   2.265   1.154   5.108  0.8963 -0.0884  0.0651
 9629TIP3    H128851   2.337   1.106   5.150 -0.0037 -0.0439  1.7503
 9629TIP3    H228852   2.309   1.211   5.045  2.6252  1.5367  2.5445
 9630TIP3   OH228853   5.427   4.792   1.014 -0.0709  0.4486 -0.2179
 9630TIP3    H128854   5.410   4.872   0.964  1.2108  1.6680  1.1884
 9630TIP3    H228855   5.439   4.823   1.104 -1.5143 -1.5723  0.7292
 9631TIP3   OH228856   0.816   4.822   2.317 -0.5392  0.0769 -0.3929
 9631TIP3    H128857   0.866   4.748   2.281 -2.9484 -1.7886 -0.2086
 9631TIP3    H228858   0.859   4.900   2.281  1.3636 -1.4423 -1.6331
 9632TIP3   OH228859   5.448   4.875   2.976  0.4237  0.1407 -0.8714
 9632TIP3    H128860   5.411   4.852   2.891  1.2559  1.3531 -1.5951
 9632TIP3    H228861   5.414   4.962   2.994  0.6746  0.1013 -0.2079
 9633TIP3   OH228862   6.749   3.832   1.413  0.0242  0.1743  0.3349
 9633TIP3    H128863   6.800   3.811   1.335 -0.3771 -0.7910  0.3132
 9633TIP3    H228864   6.739   3.927   1.411 -1.4278  0.0534 -1.7502
 9634TIP3   OH228865   0.341   5.881   1.665  0.0701 -0.3321 -0.7143
 9634TIP3    H128866   0.352   5.946   1.596  3.8819 -0.5674 -0.5363
 9634TIP3    H228867   0.328   5.932   1.745  3.0552  0.3762 -0.5730
 9635TIP3   OH228868   1.890   4.064   0.197  0.7774 -0.1328 -0.1511
 9635TIP3    H128869   1.888   4.022   0.283  1.3087  2.9331  1.4685
 9635TIP3    H228870   1.977   4.102   0.191 -0.3042  2.4785 -0.5619
 9636TIP3   OH228871   1.258   6.589   5.782  0.0092  0.4347  0.5566
 9636TIP3    H128872   1.197   6.621   5.715  0.4153 -1.6570 -0.9113
 9636TIP3    H228873   1.280   6.667   5.833 -2.4502  1.5999 -0.0063
 9637TIP3   OH228874   2.719   5.863   4.959 -0.3824 -0.7259 -0.4601
 9637TIP3    H128875   2.774   5.785   4.964 -0.4077 -0.6853  0.6955
 9637TIP3    H228876   2.641   5.834   4.912  0.6163 -0.7703 -2.1672
 9638TIP3   OH228877   1.327   4.476   5.017 -0.0542 -0.8320  0.0229
 9638TIP3    H128878   1.332   4.382   4.999 -1.0820 -0.8223 -0.3758
 9638TIP3    H228879   1.305   4.482   5.110  1.8524 -0.9355  0.5252
 9639TIP3   OH228880   2.269   2.418   1.225 -0.0381 -0.3614  0.2710
 9639TIP3    H128881   2.342   2.366   1.191 -1.4656 -2.3649  0.1133
 9639TIP3    H228882   2.256   2.487   1.159  2.6913  1.0905  1.1039
 9640TIP3   OH228883   2.821   0.812   5.276 -0.2862 -0.1422 -0.2051
 9640TIP3    H128884   2.794   0.802   5.368  0.5018  0.2737  0.0772
 9640TIP3    H228885   2.893   0.751   5.266  0.0548  0.2876 -0.3682
 9641TIP3   OH228886   2.739   3.366   5.428 -0.2078  0.5166  0.9478
 9641TIP3    H128887   2.667   3.312   5.462  0.0434  0.0461  0.7468
 9641TIP3    H228888   2.807   3.360   5.495 -0.5443  1.3808  1.3795
 9642TIP3   OH228889   1.996   4.871   3.337 -0.5859 -0.3734  0.1675
 9642TIP3    H128890   1.975   4.787   3.378 -0.2117 -0.7149 -0.3323
 9642TIP3    H228891   2.088   4.886   3.359 -0.6336 -0.1264  0.1986
 9643TIP3   OH228892   4.388   2.031   5.439  0.0001  0.0393  0.8699
 9643TIP3    H128893   4.411   2.029   5.346 -0.0590 -0.3460  0.8613
 9643TIP3    H228894   4.421   2.115   5.470  1.5278 -0.5288  0.8866
 9644TIP3   OH228895   2.623   0.350   2.823  0.0817  0.2655 -0.3080
 9644TIP3    H128896   2.535   0.387   2.811 -0.5759 -0.3451  2.0521
 9644TIP3    H228897   2.681   0.412   2.779 -1.4592  1.1083 -1.2478
 9645TIP3   OH228898   1.892   0.674   5.802 -0.6092  0.3198 -0.5739
 9645TIP3    H128899   1.926   0.727   5.731  1.0354  0.0789 -0.0003
 9645TIP3    H228900   1.798   0.669   5.786 -0.3268  0.6314 -2.4684
 9646TIP3   OH228901   4.706   6.582   5.868  0.5108  0.3596  0.3282
 9646TIP3    H128902   4.694   6.611   5.778 -1.1369  0.9864  0.7124
 9646TIP3    H228903   4.661   6.498   5.873 -0.0204  0.6614  0.7343
 9647TIP3   OH228904   5.125   5.441   3.091 -0.0415 -0.1086  0.3466
 9647TIP3    H128905   5.192   5.509   3.078 -0.7243  0.4132 -0.6182
 9647TIP3    H228906   5.077   5.440   3.009 -1.1568 -0.5442  0.9908
 9648TIP3   OH228907   3.366   3.781   2.661  0.0173  0.3102  0.4115
 9648TIP3    H128908   3.399   3.789   2.750 -2.5577 -0.9593  1.5473
 9648TIP3    H228909   3.382   3.690   2.637  1.8815  0.9385 -1.0110
 9649TIP3   OH228910   2.450   2.952   1.383  0.2696  0.1997  0.4948
 9649TIP3    H128911   2.412   2.885   1.326 -1.1543  0.4142  1.1519
 9649TIP3    H228912   2.454   3.030   1.328  0.4567 -0.0285  0.1869
 9650TIP3   OH228913   6.866   1.180   3.707 -0.8120  0.0776 -0.1705
 9650TIP3    H128914   6.882   1.228   3.788  0.6926  1.5160 -1.2633
 9650TIP3    H228915   6.772   1.165   3.706 -1.2185  2.3431  0.5924
 9651TIP3   OH228916   6.643   3.639   0.741  0.8481 -0.1474 -0.1253
 9651TIP3    H128917   6.580   3.627   0.670 -0.2462  0.2899  0.7416
 9651TIP3    H228918   6.634   3.731   0.765 -1.6172 -1.0465  3.0915
 9652TIP3   OH228919   6.220   1.029   1.312 -0.2543 -0.0343 -0.2081
 9652TIP3    H128920   6.276   1.008   1.387 -0.6652 -1.4516 -0.2768
 9652TIP3    H228921   6.212   1.124   1.314 -2.4175 -0.1575  3.1391
 9653TIP3   OH228922   4.565   5.909   3.791 -0.3310 -0.4881 -0.2768
 9653TIP3    H128923   4.620   5.985   3.771  1.2324 -1.4542  0.1754
 9653TIP3    H228924   4.603   5.837   3.740 -1.1334 -1.1906  0.0956
 9654TIP3   OH228925   2.483   4.450   4.218  0.3743 -0.0145 -0.2477
 9654TIP3    H128926   2.536   4.454   4.297  0.2055  1.4323 -0.1814
 9654TIP3    H228927   2.394   4.465   4.248  0.1581 -0.5836 -0.5853
 9655TIP3   OH228928   3.316   4.362   3.327 -0.1652  0.0337  0.7822
 9655TIP3    H128929   3.384   4.303   3.358  1.8362  1.9899  0.4017
 9655TIP3    H228930   3.264   4.310   3.266  1.3787 -1.3944  0.6237
 9656TIP3   OH228931   4.557   6.666   5.236 -0.2710 -0.5165 -0.2399
 9656TIP3    H128932   4.575   6.760   5.237 -1.0838 -0.2638 -2.6030
 9656TIP3    H228933   4.630   6.628   5.188  0.4834 -1.2559  1.4192
 9657TIP3   OH228934   1.969   0.956   1.611  0.1745  0.3033  0.4805
 9657TIP3    H128935   2.016   0.878   1.584 -0.1348  0.1704  0.3262
 9657TIP3    H228936   1.995   0.970   1.702  0.3750  0.1308  0.4489
 9658TIP3   OH228937   5.625   5.269   0.197 -0.1527  0.5717 -0.3810
 9658TIP3    H128938   5.719   5.280   0.181 -0.4277  2.0933 -1.0550
 9658TIP3    H228939   5.616   5.176   0.220  1.3343  0.0990 -1.5382
 9659TIP3   OH228940   5.327   1.192   5.429 -0.1332 -0.0656 -0.1063
 9659TIP3    H128941   5.379   1.158   5.502  2.7871  1.1185 -1.5029
 9659TIP3    H228942   5.349   1.284   5.424 -3.4048  0.8627 -0.0726
 9660TIP3   OH228943   4.409   3.423   2.586 -0.3097 -0.5346  0.3004
 9660TIP3    H128944   4.471   3.351   2.600  0.5809 -0.6452 -3.3386
 9660TIP3    H228945   4.334   3.382   2.543 -0.6528  0.4142 -0.0309
 9661TIP3   OH228946   5.965   2.881   3.250 -0.6687 -0.0927  0.1267
 9661TIP3    H128947   5.940   2.971   3.272 -1.3009  0.6487 -3.1511
 9661TIP3    H228948   5.882   2.840   3.223  0.0613 -0.7435 -1.1836
 9662TIP3   OH228949   5.884   0.281   2.667  0.5954 -0.4310  0.1917
 9662TIP3    H128950   5.914   0.228   2.594  0.3098  0.1492 -0.3574
 9662TIP3    H228951   5.818   0.340   2.629  2.4598  1.8703  0.2603
 9663TIP3   OH228952   6.753   6.399   2.793  0.3018 -0.0455  0.4434
 9663TIP3    H128953   6.683   6.350   2.750  3.7436 -4.3985 -1.0518
 9663TIP3    H228954   6.786   6.459   2.725  0.1681 -0.5296 -0.0609
 9664TIP3   OH228955   4.344   6.635   3.118 -0.6201  0.3516  0.2802
 9664TIP3    H128956   4.392   6.647   3.200  1.9029  0.0720 -1.0306
 9664TIP3    H228957   4.333   6.540   3.110  0.9267  0.1997 -0.5571
 9665TIP3   OH228958   4.092   5.522   5.300 -0.1759  0.3563 -0.5365
 9665TIP3    H128959   4.015   5.556   5.346 -1.1233  0.2440 -1.9995
 9665TIP3    H228960   4.112   5.589   5.235  1.6340  0.8795  0.4877
 9666TIP3   OH228961   6.952   3.789   0.732  0.0944  0.3622 -0.3058
 9666TIP3    H128962   6.900   3.735   0.672  0.9797 -0.3597 -0.4338
 9666TIP3    H228963   6.953   3.875   0.691 -2.7723  1.0147  0.7330
 9667TIP3   OH228964   5.854   3.230   4.223  0.2750 -0.6865  0.2921
 9667TIP3    H128965   5.804   3.237   4.304 -0.8006 -0.9350 -0.3244
 9667TIP3    H228966   5.837   3.140   4.193 -1.1597  0.0648 -1.3237
 9668TIP3   OH228967   6.561   3.278   2.026 -0.4926 -0.0134  0.1710
 9668TIP3    H128968   6.491   3.342   2.038  0.4961  0.9430  1.1231
 9668TIP3    H228969   6.587   3.255   2.116 -0.0031 -0.8102 -0.1666
 9669TIP3   OH228970   1.685   3.141   1.348  0.2668 -0.2296 -0.2702
 9669TIP3    H128971   1.621   3.084   1.390  1.3215 -0.4415  1.1577
 9669TIP3    H228972   1.744   3.166   1.419  0.2125  2.1514 -0.9807
 9670TIP3   OH228973   4.640   0.846   3.570  0.3823 -0.1086 -0.3515
 9670TIP3    H128974   4.684   0.777   3.520  0.1838 -0.7810  0.3768
 9670TIP3    H228975   4.566   0.873   3.515  0.6793 -0.2109 -0.8045
 9671TIP3   OH228976   0.168   4.795   4.626 -0.3024 -0.0131 -0.1715
 9671TIP3    H128977   0.145   4.861   4.560  1.9524 -1.4664 -2.6204
 9671TIP3    H228978   0.133   4.713   4.591  1.9839 -1.0216 -0.2805
 9672TIP3   OH228979   3.649   6.242   3.052 -1.1417 -0.1685 -0.6358
 9672TIP3    H128980   3.645   6.150   3.027 -0.6067  0.2645 -2.4398
 9672TIP3    H228981   3.586   6.249   3.124 -1.0239 -1.9780 -0.2965
 9673TIP3   OH228982   6.424   1.942   2.890  0.1277  0.1248  0.3675
 9673TIP3    H128983   6.334   1.938   2.856  1.0664 -1.5542 -2.1825
 9673TIP3    H228984   6.446   2.035   2.886 -1.9945  0.8465  2.7009
 9674TIP3   OH228985   1.561   3.199   4.122  0.9205  0.1428  0.4988
 9674TIP3    H128986   1.490   3.173   4.064  0.2764 -0.2524  1.4268
 9674TIP3    H228987   1.641   3.174   4.076  0.5183  1.3559 -0.9302
 9675TIP3   OH228988   4.764   5.851   4.935 -0.0575  0.3525 -0.3204
 9675TIP3    H128989   4.839   5.872   4.879 -0.3987  0.0780 -0.8974
 9675TIP3    H228990   4.756   5.755   4.927  1.3793 -0.0545  2.1226
 9676TIP3   OH228991   5.600   3.329   0.433  0.7633  0.7693  0.4510
 9676TIP3    H128992   5.549   3.328   0.352  0.7607  0.9109  0.4514
 9676TIP3    H228993   5.542   3.287   0.497  1.6952 -1.6700 -0.1759
 9677TIP3   OH228994   0.790   5.892   0.040  0.0451 -0.1106  0.3502
 9677TIP3    H128995   0.780   5.802   0.007  0.5168 -0.6295  1.5641
 9677TIP3    H228996   0.882   5.912   0.024 -0.4964  0.9324 -1.7405
 9678TIP3   OH228997   1.430   4.148   2.221 -0.1181  0.3420 -0.1563
 9678TIP3    H128998   1.431   4.199   2.302  0.9799 -0.9917  0.7093
 9678TIP3    H228999   1.522   4.144   2.194 -0.4600  0.6925 -1.4434
 9679TIP3   OH229000   0.839   0.107   0.410 -0.2274 -0.2425 -0.3011
 9679TIP3    H129001   0.887   0.027   0.387  0.0326 -0.4350  0.8484
 9679TIP3    H229002   0.753   0.076   0.437 -0.4577 -0.0415 -0.8005
 9680TIP3   OH229003   7.083   2.671   4.010  0.9211 -0.3836 -0.8651
 9680TIP3    H129004   7.054   2.704   3.925  0.8879 -0.8666 -1.0456
 9680TIP3    H229005   7.023   2.599   4.030 -0.9671  1.5375  0.9518
 9681TIP3   OH229006   5.118   1.596   5.266  0.0066  0.2591 -0.2460
 9681TIP3    H129007   5.045   1.560   5.317  0.1145  0.2570 -0.0904
 9681TIP3    H229008   5.152   1.522   5.217 -0.8701  0.5175 -1.2641
 9682TIP3   OH229009   5.824   4.374   5.050 -0.2279 -0.1624 -0.4076
 9682TIP3    H129010   5.872   4.412   5.124 -0.2142 -1.3260  0.1913
 9682TIP3    H229011   5.734   4.402   5.064 -0.2936 -0.6834  0.2600
 9683TIP3   OH229012   0.188   1.525   0.055  0.1269  0.0290  0.1576
 9683TIP3    H129013   0.099   1.489   0.061  0.4327 -0.8478 -0.3148
 9683TIP3    H229014   0.210   1.552   0.144 -1.2228  1.8141  0.0074
 9684TIP3   OH229015   4.902   1.787   5.678 -0.8950  0.6965  0.5493
 9684TIP3    H129016   4.968   1.778   5.747 -0.7236 -1.2969  0.1616
 9684TIP3    H229017   4.819   1.771   5.722 -0.8175 -0.1972  0.3798
 9685TIP3   OH229018   2.945   1.814   0.800 -0.2801  0.8090  0.4925
 9685TIP3    H129019   2.974   1.871   0.729  0.6609  0.3863  0.5243
 9685TIP3    H229020   2.863   1.776   0.769 -1.0603  2.3519  0.5733
 9686TIP3   OH229021   7.097   6.727   3.823 -0.0007  0.2823  0.5591
 9686TIP3    H129022   7.014   6.691   3.854  1.0926 -0.5775  2.7307
 9686TIP3    H229023   7.163   6.665   3.854  1.3661 -0.7269 -3.6499
 9687TIP3   OH229024   4.690   2.307   5.012  0.2494 -0.0307  0.1759
 9687TIP3    H129025   4.710   2.236   5.073  1.7766  0.7517  0.6137
 9687TIP3    H229026   4.675   2.263   4.928 -5.2387 -1.5519  1.4975
 9688TIP3   OH229027   1.438   0.239   5.115  0.3318 -0.7959  0.1017
 9688TIP3    H129028   1.388   0.165   5.080  0.3969 -0.2496 -1.2106
 9688TIP3    H229029   1.460   0.291   5.038  0.1066  0.7080  1.0173
 9689TIP3   OH229030   2.538   6.464   2.917  0.0791  0.5778  0.1742
 9689TIP3    H129031   2.522   6.395   2.853 -1.2419  0.6666  0.3799
 9689TIP3    H229032   2.459   6.518   2.914  1.2709  2.3407 -0.2904
 9690TIP3   OH229033   7.010   0.706   3.806  0.2063  0.6015  0.1094
 9690TIP3    H129034   6.949   0.724   3.878  0.5132  2.4474 -0.0682
 9690TIP3    H229035   7.064   0.633   3.839 -1.4038 -0.4064  0.6554
 9691TIP3   OH229036   2.526   6.643   3.514  0.5264 -0.4660 -0.5258
 9691TIP3    H129037   2.453   6.705   3.507  0.3324 -0.3822  1.6429
 9691TIP3    H229038   2.497   6.568   3.461 -1.0026 -0.2998  0.0128
 9692TIP3   OH229039   0.580   4.098   5.092  0.1250  0.2238  0.4804
 9692TIP3    H129040   0.551   4.007   5.097 -0.7342  0.5223  1.0498
 9692TIP3    H229041   0.676   4.092   5.091  0.0955 -0.7568 -1.2069
 9693TIP3   OH229042   4.099   5.175   0.909 -0.0946 -0.7390 -0.5256
 9693TIP3    H129043   4.159   5.112   0.951 -0.3859 -0.4048  0.4050
 9693TIP3    H229044   4.147   5.205   0.832  0.9815 -0.4350  0.2332
 9694TIP3   OH229045   0.995   4.260   2.812  0.7906 -0.3106  0.6696
 9694TIP3    H129046   0.948   4.316   2.750  1.1097 -0.6346  0.1248
 9694TIP3    H229047   0.993   4.173   2.772 -0.1882 -0.8277  1.7658
 9695TIP3   OH229048   3.282   1.419   0.773 -0.2219  0.0010 -0.3343
 9695TIP3    H129049   3.357   1.376   0.816  1.1794  1.1415 -1.5540
 9695TIP3    H229050   3.243   1.473   0.842 -1.2895 -2.2161  0.9035
 9696TIP3   OH229051   0.551   5.155   5.754 -0.0435  0.2690  0.2526
 9696TIP3    H129052   0.465   5.195   5.756  0.1470  0.7371 -0.5220
 9696TIP3    H229053   0.587   5.169   5.842 -0.4920  0.6422  0.3772
 9697TIP3   OH229054   6.460   6.354   2.247  0.5256  0.2452 -0.1732
 9697TIP3    H129055   6.534   6.297   2.266 -1.2385 -2.4404 -0.7107
 9697TIP3    H229056   6.393   6.327   2.310 -0.9708  0.4541 -1.6111
 9698TIP3   OH229057   3.793   0.823   1.162 -0.0647  0.0030 -0.3680
 9698TIP3    H129058   3.801   0.805   1.068  1.9951  1.1489 -0.4921
 9698TIP3    H229059   3.707   0.790   1.186 -1.1977  0.8177 -2.9296
 9699TIP3   OH229060   6.112   5.685   4.652 -0.0417  1.2127 -0.5179
 9699TIP3    H129061   6.104   5.711   4.560  3.2546  0.6672 -1.0721
 9699TIP3    H229062   6.196   5.721   4.681  0.3015 -0.9053  1.4417
 9700TIP3   OH229063   5.868   3.855   0.490 -0.4904  0.8791 -0.4000
 9700TIP3    H129064   5.901   3.854   0.400  2.6201 -1.4517  0.6057
 9700TIP3    H229065   5.784   3.809   0.484  0.2449 -0.3818 -1.9840
 9701TIP3   OH229066   3.182   2.278   5.229 -0.4648  0.8087 -0.0659
 9701TIP3    H129067   3.237   2.260   5.305  1.6595 -0.7333 -1.8192
 9701TIP3    H229068   3.194   2.371   5.212  2.0551  0.4787 -0.6002
 9702TIP3   OH229069   0.659   1.095   4.226 -0.5055  0.0800  0.2281
 9702TIP3    H129070   0.580   1.119   4.177  0.3806  1.0798 -0.7878
 9702TIP3    H229071   0.689   1.014   4.184  0.4540  1.1231 -1.2343
 9703TIP3   OH229072   0.763   0.821   2.403  0.2980  0.5722 -0.0474
 9703TIP3    H129073   0.719   0.744   2.441  0.7081  0.2277 -0.2578
 9703TIP3    H229074   0.791   0.791   2.316 -1.9998  1.8057 -1.3328
 9704TIP3   OH229075   6.459   4.799   3.051  0.1965 -0.2521  0.2090
 9704TIP3    H129076   6.467   4.784   3.145  1.0160  0.6928  0.3165
 9704TIP3    H229077   6.373   4.764   3.028  0.9063 -2.6189  0.8568
 9705TIP3   OH229078   0.211   2.201   1.785  0.0102  0.0951 -0.3032
 9705TIP3    H129079   0.225   2.294   1.806 -1.4799  0.2556  0.0854
 9705TIP3    H229080   0.297   2.171   1.754  0.4360  1.6872 -0.7932
 9706TIP3   OH229081   0.332   4.747   2.781 -0.0418 -0.6244  0.1974
 9706TIP3    H129082   0.260   4.760   2.719 -0.1625  0.9053  0.6334
 9706TIP3    H229083   0.362   4.658   2.763 -0.0156 -0.2113 -2.1305
 9707TIP3   OH229084   2.133   3.490   1.849  0.1169 -0.6122  0.1575
 9707TIP3    H129085   2.157   3.431   1.920 -0.3237 -2.4073 -1.1215
 9707TIP3    H229086   2.044   3.465   1.826 -0.2551  0.8753 -0.1409
 9708TIP3   OH229087   5.884   5.578   5.350  0.0942 -0.3191 -0.0108
 9708TIP3    H129088   5.924   5.663   5.369  1.0391 -0.7792  0.1375
 9708TIP3    H229089   5.854   5.586   5.260 -0.1432  0.2898  0.1142
 9709TIP3   OH229090   5.743   6.135   3.122 -0.6876 -0.0735 -0.7098
 9709TIP3    H129091   5.791   6.153   3.042 -0.8258 -0.7466 -0.9490
 9709TIP3    H229092   5.654   6.116   3.092 -0.7029 -0.4758 -0.4101
 9710TIP3   OH229093   1.793   4.791   2.078 -0.1730  0.0116 -0.1129
 9710TIP3    H129094   1.794   4.764   2.169  1.0714 -3.1259 -0.9235
 9710TIP3    H229095   1.700   4.794   2.055 -0.5740  2.0038  1.4458
 9711TIP3   OH229096   4.452   3.811   1.245  0.4440  0.4435 -0.1698
 9711TIP3    H129097   4.448   3.811   1.341  0.3292  0.9612 -0.1679
 9711TIP3    H229098   4.544   3.797   1.225  0.6403  1.3425  0.0409
 9712TIP3   OH229099   6.345   4.234   4.696  0.3478  0.0973 -0.5225
 9712TIP3    H129100   6.254   4.206   4.686  0.4311 -0.3335 -0.1281
 9712TIP3    H229101   6.389   4.201   4.618 -0.1400  1.6945 -1.5387
 9713TIP3   OH229102   0.596   3.568   1.443  0.2797  0.5036  0.1275
 9713TIP3    H129103   0.666   3.624   1.410  0.7804 -1.2464 -1.9990
 9713TIP3    H229104   0.640   3.504   1.500  0.2318  0.1710 -0.2052
 9714TIP3   OH229105   0.041   3.331   1.861  0.1965  0.2304 -0.0973
 9714TIP3    H129106   0.060   3.327   1.767  0.7921  0.6548  0.0037
 9714TIP3    H229107   0.066   3.245   1.894  0.1042  0.1232 -0.3044
 9715TIP3   OH229108   3.583   4.349   5.719  0.1230 -0.2650  0.4906
 9715TIP3    H129109   3.538   4.304   5.790 -0.3279 -0.9869 -0.2350
 9715TIP3    H229110   3.591   4.283   5.650  0.5789  0.4112 -0.1160
 9716TIP3   OH229111   4.714   1.184   3.304 -0.0623 -0.1974 -0.2638
 9716TIP3    H129112   4.794   1.152   3.261  0.0645  0.4929 -0.5502
 9716TIP3    H229113   4.733   1.176   3.397  0.6023  0.5561 -0.3184
 9717TIP3   OH229114   5.425   1.728   2.707  0.0388  0.1174 -0.0255
 9717TIP3    H129115   5.425   1.660   2.774  0.6503 -0.3538 -0.4966
 9717TIP3    H229116   5.487   1.697   2.641 -0.2906  0.7457 -0.6392
 9718TIP3   OH229117   1.365   3.788   0.132  0.1187 -0.1032  0.4054
 9718TIP3    H129118   1.336   3.705   0.094 -0.5657 -0.2912  1.2923
 9718TIP3    H229119   1.447   3.767   0.176 -0.6909 -0.6592  1.7478
 9719TIP3   OH229120   6.854   4.434   5.407  0.1962  0.7179  0.2650
 9719TIP3    H129121   6.889   4.522   5.398  1.0057  0.2598 -1.7788
 9719TIP3    H229122   6.797   4.424   5.330  0.0497 -0.4930  0.5181
 9720TIP3   OH229123   4.562   6.081   4.897 -0.4857 -0.4193 -0.1507
 9720TIP3    H129124   4.550   6.095   4.803  1.9790 -1.8448 -0.7743
 9720TIP3    H229125   4.615   6.001   4.903 -0.0463 -0.0356  2.4229
 9721TIP3   OH229126   4.079   1.447   2.882  0.1037  0.0563 -0.5560
 9721TIP3    H129127   4.145   1.464   2.949  0.5184  1.3410 -1.2658
 9721TIP3    H229128   4.085   1.352   2.867  1.7799  0.1423 -0.5951
 9722TIP3   OH229129   5.232   4.959   5.872  0.0258  0.2470  0.4031
 9722TIP3    H129130   5.159   4.914   5.914  0.2458  0.1374  0.6655
 9722TIP3    H229131   5.190   5.023   5.815 -0.2816 -0.1338  0.1996
 9723TIP3   OH229132   1.014   2.164   3.819  0.0087 -0.7837 -0.4253
 9723TIP3    H129133   0.976   2.229   3.759 -2.2446 -1.4091  0.2141
 9723TIP3    H229134   0.969   2.180   3.902  0.3890 -2.3018  0.0959
 9724TIP3   OH229135   2.678   4.752   0.754  0.0274  0.3259  0.4578
 9724TIP3    H129136   2.719   4.668   0.774  0.7817  0.7307  0.6538
 9724TIP3    H229137   2.584   4.733   0.750  0.2046 -0.5613  0.2885
 9725TIP3   OH229138   6.321   2.192   1.523  0.2638  0.0380 -0.3429
 9725TIP3    H129139   6.376   2.114   1.523 -0.3631 -0.4446 -1.8094
 9725TIP3    H229140   6.235   2.161   1.551  0.6213  0.7258  1.6369
 9726TIP3   OH229141   0.692   2.235   5.091  0.2888 -0.1395  1.0202
 9726TIP3    H129142   0.624   2.290   5.130  0.3799  0.6400  0.1379
 9726TIP3    H229143   0.682   2.249   4.996 -0.6450 -2.7914  0.6343
 9727TIP3   OH229144   3.045   3.271   2.972  0.0228  0.4163 -0.0361
 9727TIP3    H129145   2.972   3.230   3.019 -0.3289  0.2773 -0.6851
 9727TIP3    H229146   3.078   3.338   3.032  0.2047 -0.3907  0.7948
 9728TIP3   OH229147   0.578   6.148   4.786 -0.4114  0.7098 -0.2982
 9728TIP3    H129148   0.515   6.164   4.716 -1.1952 -1.0826 -0.0628
 9728TIP3    H229149   0.526   6.151   4.866  0.0004  0.3336 -0.0081
 9729TIP3   OH229150   6.318   3.633   0.247 -0.4613  0.4497 -0.4429
 9729TIP3    H129151   6.226   3.626   0.272 -0.4978 -0.1812 -0.7218
 9729TIP3    H229152   6.320   3.600   0.157 -0.0970  1.2473 -0.7352
 9730TIP3   OH229153   5.499   2.863   3.161 -0.0818 -0.2681  0.5356
 9730TIP3    H129154   5.426   2.828   3.211 -0.3559 -0.9953 -0.3419
 9730TIP3    H229155   5.538   2.786   3.118 -0.4820  0.4351 -1.1737
 9731TIP3   OH229156   2.701   6.546   4.720  0.3717 -0.1675  0.6724
 9731TIP3    H129157   2.690   6.580   4.809 -0.1898  0.0666  0.5189
 9731TIP3    H229158   2.692   6.623   4.664 -0.9715 -0.5616  0.3194
 9732TIP3   OH229159   2.066   0.291   4.828  0.6079 -0.4740 -0.1188
 9732TIP3    H129160   1.990   0.249   4.790 -0.3033  1.7224 -0.8590
 9732TIP3    H229161   2.117   0.322   4.753  1.2472 -0.2475  0.3985
 9733TIP3   OH229162   0.055   5.797   5.183  0.2859 -0.1752  0.6122
 9733TIP3    H129163   0.007   5.880   5.180 -0.1434 -0.4454 -0.3207
 9733TIP3    H229164  -0.007   5.733   5.148  0.6516 -0.8788  1.2314
 9734TIP3   OH229165   6.081   2.546   3.170 -0.5070  0.0352 -0.0384
 9734TIP3    H129166   6.132   2.500   3.237  0.2744  1.1236  0.1529
 9734TIP3    H229167   6.145   2.603   3.127 -1.3954  0.7971 -0.3844
 9735TIP3   OH229168   2.666   1.822   3.314 -0.2490 -0.3908 -0.0164
 9735TIP3    H129169   2.729   1.891   3.293 -0.4053  0.1719  1.2432
 9735TIP3    H229170   2.714   1.763   3.372  0.0650 -1.7019 -1.5429
 9736TIP3   OH229171   1.080   2.933   3.293 -0.0425 -0.0293 -0.5587
 9736TIP3    H129172   1.084   2.990   3.370 -0.1407  2.3826 -2.2259
 9736TIP3    H229173   0.987   2.915   3.281  0.0692 -1.6602  0.6706
 9737TIP3   OH229174   6.618   3.053   3.721  0.2472  0.1748 -0.1942
 9737TIP3    H129175   6.555   3.053   3.793  0.1243 -1.2790 -0.2853
 9737TIP3    H229176   6.660   3.139   3.727 -1.2021  0.8777  0.3327
 9738TIP3   OH229177   7.132   2.830   2.332 -0.0524  0.1345  0.4816
 9738TIP3    H129178   7.224   2.826   2.303 -0.5973 -1.5980 -1.2595
 9738TIP3    H229179   7.099   2.912   2.293  0.2645 -0.2134 -0.5592
 9739TIP3   OH229180   0.167   5.118   4.695  0.1927  0.6054  0.1404
 9739TIP3    H129181   0.218   5.165   4.762 -0.7263 -0.4778  1.6717
 9739TIP3    H229182   0.229   5.057   4.656  0.3117 -0.1419  1.4294
 9740TIP3   OH229183   2.126   4.107   4.051  0.1399  0.4369  0.1471
 9740TIP3    H129184   2.100   4.195   4.075 -0.6605  0.6473 -1.4155
 9740TIP3    H229185   2.049   4.053   4.070 -0.6862  0.6822 -2.2628
 9741TIP3   OH229186   2.770   2.074   1.873  0.1698  0.3439 -0.2648
 9741TIP3    H129187   2.821   2.121   1.939  1.3400 -0.8556 -0.2738
 9741TIP3    H229188   2.820   2.083   1.792 -0.2017  0.0984 -0.5249
 9742TIP3   OH229189   2.215   2.548   2.247 -0.1639 -0.5781 -0.3300
 9742TIP3    H129190   2.306   2.544   2.275 -0.3482 -0.2831  0.3466
 9742TIP3    H229191   2.203   2.471   2.192  0.6633 -0.2610 -0.9751
 9743TIP3   OH229192   0.967   6.029   1.562 -0.1197 -0.5730  0.4358
 9743TIP3    H129193   0.923   6.049   1.645  1.2679 -0.6853  1.2314
 9743TIP3    H229194   0.905   5.974   1.515 -1.1494 -0.0762  1.1752
 9744TIP3   OH229195   4.098   5.012   4.056  0.1217 -0.1383  0.4122
 9744TIP3    H129196   4.128   5.063   3.981 -1.3356  0.1903  0.0227
 9744TIP3    H229197   4.115   5.068   4.131 -0.8788  0.6847  0.0485
 9745TIP3   OH229198   1.094   6.368   5.465  0.0322  0.3446  0.2217
 9745TIP3    H129199   1.134   6.360   5.552  1.3721 -2.5867 -0.5652
 9745TIP3    H229200   1.013   6.317   5.471  0.3277 -0.1950 -0.3614
 9746TIP3   OH229201   4.573   6.034   5.717  1.1560 -0.3043 -0.2085
 9746TIP3    H129202   4.521   5.991   5.785 -0.7447  1.7448 -0.2347
 9746TIP3    H229203   4.516   6.032   5.640  1.2150  1.6996 -0.3416
 9747TIP3   OH229204   2.897   6.684   2.141  0.4215 -0.0225  0.5030
 9747TIP3    H129205   2.927   6.741   2.071 -0.7619  1.3761  1.0892
 9747TIP3    H229206   2.879   6.600   2.098 -1.2058  1.0784 -1.0924
 9748TIP3   OH229207   1.062   2.499   3.943  0.0962 -0.2620  0.3536
 9748TIP3    H129208   1.140   2.487   3.890  0.6575  0.2668  1.0389
 9748TIP3    H229209   1.063   2.425   4.004  0.0211 -0.2920  0.3191
 9749TIP3   OH229210   4.482   3.255   1.306  0.4865 -0.0474 -0.2334
 9749TIP3    H129211   4.515   3.343   1.287  1.6736 -0.3697  0.2055
 9749TIP3    H229212   4.517   3.235   1.393 -1.1846 -0.3075  0.4215
   7.21490   6.80228   5.89094   0.00000   0.00000  -2.40497   0.00000  -2.40497  -3.40114
