* SET NIONTYPES = 1
* SET NPOSTOT = 65
* SET NNEGTOT = 65
* SET NIONTOT = 130
*  DATE:     6/13/26     10:36:52      CREATED BY USER: charmm-gui
*
       130  EXT
         1         1  SOD       SOD            35.1215086266      -25.7138084948       15.9652885973  IONS      1               1.0000000000
         2         2  SOD       SOD            -0.8737677675      -43.6612666535      -36.9309074992  IONS      2               1.0000000000
         3         3  SOD       SOD            -4.7631567654       -7.6502529748       44.9198953570  IONS      3               1.0000000000
         4         4  SOD       SOD            -7.2672368841       22.1180450750        1.8858495006  IONS      4               1.0000000000
         5         5  SOD       SOD           -43.9035505941       -8.9555305749       15.3615382227  IONS      5               1.0000000000
         6         6  SOD       SOD           -23.3205581622        1.8734038416      -35.1241719001  IONS      6               1.0000000000
         7         7  SOD       SOD           -50.6424428722      -30.6626450743        6.9994044968  IONS      7               1.0000000000
         8         8  SOD       SOD            -2.6567202747       17.4590705149      -35.6571462298  IONS      8               1.0000000000
         9         9  SOD       SOD            37.9914495202      -21.7931542900       27.1017216144  IONS      9               1.0000000000
        10        10  SOD       SOD            10.9450834019      -25.3208880814      -11.1586476405  IONS      10              1.0000000000
        11        11  SOD       SOD           -10.9211107982      -37.6793684821      -23.2370483142  IONS      11              1.0000000000
        12        12  SOD       SOD           -41.0843721139      -19.1118192995      -13.3323199319  IONS      12              1.0000000000
        13        13  SOD       SOD            31.1885675074       38.2918710940      -28.9476052011  IONS      13              1.0000000000
        14        14  SOD       SOD            37.4933098577       34.6336688072        9.3594496777  IONS      14              1.0000000000
        15        15  SOD       SOD            16.7545788432      -28.7353037874       27.2265540049  IONS      15              1.0000000000
        16        16  SOD       SOD            15.3002220365       48.4832557900       16.8844746002  IONS      16              1.0000000000
        17        17  SOD       SOD           -10.7781159628       -5.0630064358      -17.2461573952  IONS      17              1.0000000000
        18        18  SOD       SOD           -20.2643457863        9.3952954405      -21.7818042196  IONS      18              1.0000000000
        19        19  SOD       SOD            25.7186118729       -9.5884462350        9.9143501149  IONS      19              1.0000000000
        20        20  SOD       SOD           -29.3436986896       -2.3327131921      -46.5577621399  IONS      20              1.0000000000
        21        21  SOD       SOD             4.6611270542        0.0894127830       13.2227363647  IONS      21              1.0000000000
        22        22  SOD       SOD            10.8319375218      -14.3474505244      -19.0263321152  IONS      22              1.0000000000
        23        23  SOD       SOD            24.3127449146      -34.6256169878       17.3507744530  IONS      23              1.0000000000
        24        24  SOD       SOD            17.1761150176       38.5655229282       27.5851628852  IONS      24              1.0000000000
        25        25  SOD       SOD           -10.5024543440      -54.8997036047      -11.2801951558  IONS      25              1.0000000000
        26        26  SOD       SOD           -28.9990962790      -16.5563403905      -32.7394073266  IONS      26              1.0000000000
        27        27  SOD       SOD            36.2599017912       -2.0047642322       -9.0429772720  IONS      27              1.0000000000
        28        28  SOD       SOD            21.0170186296       -9.5621351750       23.7822159966  IONS      28              1.0000000000
        29        29  SOD       SOD           -36.1612981017      -31.9342293623       23.3253495121  IONS      29              1.0000000000
        30        30  SOD       SOD           -40.9036426021       -5.7884530351       38.5105936309  IONS      30              1.0000000000
        31        31  SOD       SOD           -12.7778742463      -22.0051706201        9.1157748674  IONS      31              1.0000000000
        32        32  SOD       SOD           -18.3010070749      -28.1571726044      -12.7428011375  IONS      32              1.0000000000
        33        33  SOD       SOD            22.5228269185      -19.5499389118       18.7300437248  IONS      33              1.0000000000
        34        34  SOD       SOD           -20.4947705576      -32.4407338118       -5.9525542657  IONS      34              1.0000000000
        35        35  SOD       SOD            43.3957292993       20.8547998124       12.6866295917  IONS      35              1.0000000000
        36        36  SOD       SOD            32.9611197200      -17.7653853979       36.1876854618  IONS      36              1.0000000000
        37        37  SOD       SOD            17.1097000830       -0.6211334604      -42.2254691986  IONS      37              1.0000000000
        38        38  SOD       SOD           -42.9742318797       16.9491732232      -26.8346987682  IONS      38              1.0000000000
        39        39  SOD       SOD            -5.0019212694       17.7948598181       44.0741054880  IONS      39              1.0000000000
        40        40  SOD       SOD           -34.2174151110        4.9670763113       15.1414542524  IONS      40              1.0000000000
        41        41  SOD       SOD            23.9866302355      -36.5067694367       -4.8867655719  IONS      41              1.0000000000
        42        42  SOD       SOD           -14.4021359632      -21.4071028775      -14.0919335824  IONS      42              1.0000000000
        43        43  SOD       SOD            47.6189679576        7.7162160052       15.7894445075  IONS      43              1.0000000000
        44        44  SOD       SOD            37.7409394159       19.3311409210       -9.2052691863  IONS      44              1.0000000000
        45        45  SOD       SOD           -13.8401037751       41.2011213002        7.8120785122  IONS      45              1.0000000000
        46        46  SOD       SOD            13.8341112814      -38.1896339317      -37.4794858775  IONS      46              1.0000000000
        47        47  SOD       SOD             9.9487623776      -10.7663232300       -7.8653019383  IONS      47              1.0000000000
        48        48  SOD       SOD           -12.3468427062       -8.4414873556      -48.0342104915  IONS      48              1.0000000000
        49        49  SOD       SOD             1.7526273991       20.3433624740       -6.8916794888  IONS      49              1.0000000000
        50        50  SOD       SOD             7.9396172842       44.3656289552        9.4196727030  IONS      50              1.0000000000
        51        51  SOD       SOD            14.1931933490       32.5869872648       29.6572235985  IONS      51              1.0000000000
        52        52  SOD       SOD            30.2700949727      -40.3477354350      -23.7869790032  IONS      52              1.0000000000
        53        53  SOD       SOD           -33.0252305748      -34.5832401921      -12.4117794538  IONS      53              1.0000000000
        54        54  SOD       SOD           -16.6897243091       35.7192580688       -4.6684886338  IONS      54              1.0000000000
        55        55  SOD       SOD           -37.3940673026        4.8280612338      -14.6447524660  IONS      55              1.0000000000
        56        56  SOD       SOD            41.5864962700      -12.1862779900      -15.8592631032  IONS      56              1.0000000000
        57        57  SOD       SOD            18.2658161081      -20.3865768390        0.9477777738  IONS      57              1.0000000000
        58        58  SOD       SOD           -10.0343589042        1.5926566460       24.9275714897  IONS      58              1.0000000000
        59        59  SOD       SOD             1.6911901136       38.6638497490       34.8979718011  IONS      59              1.0000000000
        60        60  SOD       SOD            -0.1533095457       40.7513853966      -30.1090637949  IONS      60              1.0000000000
        61        61  SOD       SOD           -22.3542269184      -39.3882606121       27.2542594753  IONS      61              1.0000000000
        62        62  SOD       SOD             9.3173699782      -19.2633644864       29.9290809602  IONS      62              1.0000000000
        63        63  SOD       SOD            -1.1382252301       33.3485679406       -3.5139576012  IONS      63              1.0000000000
        64        64  SOD       SOD           -38.0073711633       26.0162970263       34.1897522602  IONS      64              1.0000000000
        65        65  SOD       SOD           -21.1305254559      -10.7730990043      -16.7317461831  IONS      65              1.0000000000
        66        66  CLA       CLA           -33.7284502145        0.2173859609        0.4368887813  IONS      66             -1.0000000000
        67        67  CLA       CLA            25.1449254675       -8.8120481092       49.5779470473  IONS      67             -1.0000000000
        68        68  CLA       CLA           -48.3684154539       -3.1450367482       10.9180677042  IONS      68             -1.0000000000
        69        69  CLA       CLA            -9.8488334995      -42.5681323023       -4.9196046211  IONS      69             -1.0000000000
        70        70  CLA       CLA            39.0286315750        3.8305340248       20.7737139261  IONS      70             -1.0000000000
        71        71  CLA       CLA             6.9423145857       16.1463722725      -27.0061129695  IONS      71             -1.0000000000
        72        72  CLA       CLA           -31.5872715370      -12.1900722249      -31.9614676191  IONS      72             -1.0000000000
        73        73  CLA       CLA           -27.1804674106        7.5227147026      -15.2534867878  IONS      73             -1.0000000000
        74        74  CLA       CLA            31.0071371197      -24.2505356603       24.4654823720  IONS      74             -1.0000000000
        75        75  CLA       CLA             4.1948557956       24.3785249748       33.2905903272  IONS      75             -1.0000000000
        76        76  CLA       CLA            -0.6704999220        8.2780693595      -46.5925138345  IONS      76             -1.0000000000
        77        77  CLA       CLA            -4.8581972055       27.9578322203       47.3317714706  IONS      77             -1.0000000000
        78        78  CLA       CLA            -2.2925081607        6.7010293458       35.7676101915  IONS      78             -1.0000000000
        79        79  CLA       CLA           -48.9813627941       -5.8617548853      -15.5806908537  IONS      79             -1.0000000000
        80        80  CLA       CLA           -31.4462692937        1.1186871128      -28.2194235695  IONS      80             -1.0000000000
        81        81  CLA       CLA            31.8993018657       39.3828581859      -24.6183441934  IONS      81             -1.0000000000
        82        82  CLA       CLA            -6.1758586792      -14.2565067101       14.6641524746  IONS      82             -1.0000000000
        83        83  CLA       CLA           -35.6151941492      -42.0232207817        4.6593721706  IONS      83             -1.0000000000
        84        84  CLA       CLA           -30.9174756630      -30.1732513317       23.4728206182  IONS      84             -1.0000000000
        85        85  CLA       CLA            40.8169338979      -21.4461068093       22.1165769551  IONS      85             -1.0000000000
        86        86  CLA       CLA           -43.0103734724      -29.3511753240       20.8502991828  IONS      86             -1.0000000000
        87        87  CLA       CLA           -20.2381953726      -34.9683648762       14.8816060678  IONS      87             -1.0000000000
        88        88  CLA       CLA            -2.3985601911       46.9108687493      -16.5359061631  IONS      88             -1.0000000000
        89        89  CLA       CLA           -13.5229129139       37.4661713550       15.8023529777  IONS      89             -1.0000000000
        90        90  CLA       CLA           -23.4401256838       29.5128842187       17.1205157233  IONS      90             -1.0000000000
        91        91  CLA       CLA            33.6651829098      -45.1221895172       -8.9752176345  IONS      91             -1.0000000000
        92        92  CLA       CLA           -30.8271506044      -29.8484183497      -16.0158841223  IONS      92             -1.0000000000
        93        93  CLA       CLA            -1.1509094040      -41.2128371652       23.1368484289  IONS      93             -1.0000000000
        94        94  CLA       CLA           -41.1110416943      -26.9729876226        7.7835796818  IONS      94             -1.0000000000
        95        95  CLA       CLA             2.5265319761       19.4455932915      -11.9992295267  IONS      95             -1.0000000000
        96        96  CLA       CLA           -31.6579650526      -19.1002054121      -13.2959904243  IONS      96             -1.0000000000
        97        97  CLA       CLA             7.1582177754      -49.7592306768       -3.0194536062  IONS      97             -1.0000000000
        98        98  CLA       CLA            52.6679958479       21.0375799539        7.7169686445  IONS      98             -1.0000000000
        99        99  CLA       CLA           -16.8683013894      -11.2449601182      -19.2610337950  IONS      99             -1.0000000000
       100       100  CLA       CLA            44.1478619151      -30.2488164379       25.3612068656  IONS      100            -1.0000000000
       101       101  CLA       CLA            39.8105323774       16.7356699261       10.8824327612  IONS      101            -1.0000000000
       102       102  CLA       CLA           -25.6467395819      -39.8572008160       -7.1091107510  IONS      102            -1.0000000000
       103       103  CLA       CLA             4.7722305810        9.4331030978       52.4412860529  IONS      103            -1.0000000000
       104       104  CLA       CLA            43.7021191191        0.6369430833       10.4994048302  IONS      104            -1.0000000000
       105       105  CLA       CLA           -38.5811939865       35.7257657955       10.2511404109  IONS      105            -1.0000000000
       106       106  CLA       CLA            26.6379322899      -13.0174941772       17.6057248896  IONS      106            -1.0000000000
       107       107  CLA       CLA            16.4939470383       53.1995296198       14.7635328213  IONS      107            -1.0000000000
       108       108  CLA       CLA            45.7569649041      -25.9913854503       12.4600775309  IONS      108            -1.0000000000
       109       109  CLA       CLA           -15.9757138736       27.7914306696       35.5094375684  IONS      109            -1.0000000000
       110       110  CLA       CLA           -12.9128987909      -27.2579334606      -14.6485587209  IONS      110            -1.0000000000
       111       111  CLA       CLA            17.6007429775       34.4361879537       32.3823084101  IONS      111            -1.0000000000
       112       112  CLA       CLA           -27.5642769081       -9.8246271672      -29.0815921691  IONS      112            -1.0000000000
       113       113  CLA       CLA             8.7594309290       -5.6225143829       -4.6586477987  IONS      113            -1.0000000000
       114       114  CLA       CLA            -6.6723109133      -17.7345448301       -8.7742853919  IONS      114            -1.0000000000
       115       115  CLA       CLA            -2.7180057506      -23.8798417959       42.5067901841  IONS      115            -1.0000000000
       116       116  CLA       CLA           -33.6134713798       26.1408221443       27.3544839924  IONS      116            -1.0000000000
       117       117  CLA       CLA           -21.9127376174       40.0458447098       -1.1921325236  IONS      117            -1.0000000000
       118       118  CLA       CLA            35.4991592009       30.3563077551       -3.6861463461  IONS      118            -1.0000000000
       119       119  CLA       CLA            -1.1139848249        0.6782542156        7.4453711316  IONS      119            -1.0000000000
       120       120  CLA       CLA           -36.8207735834      -36.9956324551       14.1085925457  IONS      120            -1.0000000000
       121       121  CLA       CLA           -23.9806804053      -40.7449904312      -19.2294960139  IONS      121            -1.0000000000
       122       122  CLA       CLA           -20.8350754510      -23.9224119120      -11.2577341929  IONS      122            -1.0000000000
       123       123  CLA       CLA            37.8688634591       -9.6497631600      -21.3502174201  IONS      123            -1.0000000000
       124       124  CLA       CLA           -16.2534345910       -5.0931216797      -19.3099474774  IONS      124            -1.0000000000
       125       125  CLA       CLA            10.5123658960       13.6039213542       33.4682445266  IONS      125            -1.0000000000
       126       126  CLA       CLA             6.5030811803      -12.1324069873      -18.4675208749  IONS      126            -1.0000000000
       127       127  CLA       CLA            13.0476475588      -40.8148759805       22.7560900947  IONS      127            -1.0000000000
       128       128  CLA       CLA            39.4085617222       21.2870184739      -15.6687037496  IONS      128            -1.0000000000
       129       129  CLA       CLA             5.6990215599       33.2225930152      -20.7125807458  IONS      129            -1.0000000000
       130       130  CLA       CLA            27.8941171405      -37.7911939020      -27.0482858238  IONS      130            -1.0000000000
