PSF EXT CMAP XPLOR

         3 !NTITLE
* GENERATED BY CHARMM-GUI (HTTP://WWW.CHARMM-GUI.ORG) V3.7 ON JUN, 13. 2026. JOB
* READ PDB, MANIPULATE STRUCTURE IF NEEDED, AND GENERATE TOPOLOGY FILE          
*  DATE:     6/13/26     10:34:45      CREATED BY USER: charmm-gui              

       195 !NATOM
         1 PROA     1        GLY      N        NH3     -0.300000       14.0070           0
         2 PROA     1        GLY      HT1      HC       0.330000       1.00800           0
         3 PROA     1        GLY      HT2      HC       0.330000       1.00800           0
         4 PROA     1        GLY      HT3      HC       0.330000       1.00800           0
         5 PROA     1        GLY      CA       CT2      0.130000       12.0110           0
         6 PROA     1        GLY      HA1      HB2      0.900000E-01   1.00800           0
         7 PROA     1        GLY      HA2      HB2      0.900000E-01   1.00800           0
         8 PROA     1        GLY      C        C        0.510000       12.0110           0
         9 PROA     1        GLY      O        O       -0.510000       15.9994           0
        10 PROA     2        PRO      N        N       -0.290000       14.0070           0
        11 PROA     2        PRO      CD       CP3       0.00000       12.0110           0
        12 PROA     2        PRO      HD1      HA2      0.900000E-01   1.00800           0
        13 PROA     2        PRO      HD2      HA2      0.900000E-01   1.00800           0
        14 PROA     2        PRO      CA       CP1      0.200000E-01   12.0110           0
        15 PROA     2        PRO      HA       HB1      0.900000E-01   1.00800           0
        16 PROA     2        PRO      CB       CP2     -0.180000       12.0110           0
        17 PROA     2        PRO      HB1      HA2      0.900000E-01   1.00800           0
        18 PROA     2        PRO      HB2      HA2      0.900000E-01   1.00800           0
        19 PROA     2        PRO      CG       CP2     -0.180000       12.0110           0
        20 PROA     2        PRO      HG1      HA2      0.900000E-01   1.00800           0
        21 PROA     2        PRO      HG2      HA2      0.900000E-01   1.00800           0
        22 PROA     2        PRO      C        C        0.510000       12.0110           0
        23 PROA     2        PRO      O        O       -0.510000       15.9994           0
        24 PROA     3        GLY      N        NH1     -0.470000       14.0070           0
        25 PROA     3        GLY      HN       H        0.310000       1.00800           0
        26 PROA     3        GLY      CA       CT2     -0.200000E-01   12.0110           0
        27 PROA     3        GLY      HA1      HB2      0.900000E-01   1.00800           0
        28 PROA     3        GLY      HA2      HB2      0.900000E-01   1.00800           0
        29 PROA     3        GLY      C        C        0.510000       12.0110           0
        30 PROA     3        GLY      O        O       -0.510000       15.9994           0
        31 PROA     4        ALA      N        NH1     -0.470000       14.0070           0
        32 PROA     4        ALA      HN       H        0.310000       1.00800           0
        33 PROA     4        ALA      CA       CT1      0.700000E-01   12.0110           0
        34 PROA     4        ALA      HA       HB1      0.900000E-01   1.00800           0
        35 PROA     4        ALA      CB       CT3     -0.270000       12.0110           0
        36 PROA     4        ALA      HB1      HA3      0.900000E-01   1.00800           0
        37 PROA     4        ALA      HB2      HA3      0.900000E-01   1.00800           0
        38 PROA     4        ALA      HB3      HA3      0.900000E-01   1.00800           0
        39 PROA     4        ALA      C        C        0.510000       12.0110           0
        40 PROA     4        ALA      O        O       -0.510000       15.9994           0
        41 PROA     5        PRO      N        N       -0.290000       14.0070           0
        42 PROA     5        PRO      CD       CP3       0.00000       12.0110           0
        43 PROA     5        PRO      HD1      HA2      0.900000E-01   1.00800           0
        44 PROA     5        PRO      HD2      HA2      0.900000E-01   1.00800           0
        45 PROA     5        PRO      CA       CP1      0.200000E-01   12.0110           0
        46 PROA     5        PRO      HA       HB1      0.900000E-01   1.00800           0
        47 PROA     5        PRO      CB       CP2     -0.180000       12.0110           0
        48 PROA     5        PRO      HB1      HA2      0.900000E-01   1.00800           0
        49 PROA     5        PRO      HB2      HA2      0.900000E-01   1.00800           0
        50 PROA     5        PRO      CG       CP2     -0.180000       12.0110           0
        51 PROA     5        PRO      HG1      HA2      0.900000E-01   1.00800           0
        52 PROA     5        PRO      HG2      HA2      0.900000E-01   1.00800           0
        53 PROA     5        PRO      C        C        0.510000       12.0110           0
        54 PROA     5        PRO      O        O       -0.510000       15.9994           0
        55 PROA     6        GLY      N        NH1     -0.470000       14.0070           0
        56 PROA     6        GLY      HN       H        0.310000       1.00800           0
        57 PROA     6        GLY      CA       CT2     -0.200000E-01   12.0110           0
        58 PROA     6        GLY      HA1      HB2      0.900000E-01   1.00800           0
        59 PROA     6        GLY      HA2      HB2      0.900000E-01   1.00800           0
        60 PROA     6        GLY      C        C        0.510000       12.0110           0
        61 PROA     6        GLY      O        O       -0.510000       15.9994           0
        62 PROA     7        SER      N        NH1     -0.470000       14.0070           0
        63 PROA     7        SER      HN       H        0.310000       1.00800           0
        64 PROA     7        SER      CA       CT1      0.700000E-01   12.0110           0
        65 PROA     7        SER      HA       HB1      0.900000E-01   1.00800           0
        66 PROA     7        SER      CB       CT2      0.500000E-01   12.0110           0
        67 PROA     7        SER      HB1      HA2      0.900000E-01   1.00800           0
        68 PROA     7        SER      HB2      HA2      0.900000E-01   1.00800           0
        69 PROA     7        SER      OG       OH1     -0.660000       15.9994           0
        70 PROA     7        SER      HG1      H        0.430000       1.00800           0
        71 PROA     7        SER      C        C        0.510000       12.0110           0
        72 PROA     7        SER      O        O       -0.510000       15.9994           0
        73 PROA     8        GLY      N        NH1     -0.470000       14.0070           0
        74 PROA     8        GLY      HN       H        0.310000       1.00800           0
        75 PROA     8        GLY      CA       CT2     -0.200000E-01   12.0110           0
        76 PROA     8        GLY      HA1      HB2      0.900000E-01   1.00800           0
        77 PROA     8        GLY      HA2      HB2      0.900000E-01   1.00800           0
        78 PROA     8        GLY      C        C        0.510000       12.0110           0
        79 PROA     8        GLY      O        O       -0.510000       15.9994           0
        80 PROA     9        PRO      N        N       -0.290000       14.0070           0
        81 PROA     9        PRO      CD       CP3       0.00000       12.0110           0
        82 PROA     9        PRO      HD1      HA2      0.900000E-01   1.00800           0
        83 PROA     9        PRO      HD2      HA2      0.900000E-01   1.00800           0
        84 PROA     9        PRO      CA       CP1      0.200000E-01   12.0110           0
        85 PROA     9        PRO      HA       HB1      0.900000E-01   1.00800           0
        86 PROA     9        PRO      CB       CP2     -0.180000       12.0110           0
        87 PROA     9        PRO      HB1      HA2      0.900000E-01   1.00800           0
        88 PROA     9        PRO      HB2      HA2      0.900000E-01   1.00800           0
        89 PROA     9        PRO      CG       CP2     -0.180000       12.0110           0
        90 PROA     9        PRO      HG1      HA2      0.900000E-01   1.00800           0
        91 PROA     9        PRO      HG2      HA2      0.900000E-01   1.00800           0
        92 PROA     9        PRO      C        C        0.510000       12.0110           0
        93 PROA     9        PRO      O        O       -0.510000       15.9994           0
        94 PROA     10       GLY      N        NH1     -0.470000       14.0070           0
        95 PROA     10       GLY      HN       H        0.310000       1.00800           0
        96 PROA     10       GLY      CA       CT2     -0.200000E-01   12.0110           0
        97 PROA     10       GLY      HA1      HB2      0.900000E-01   1.00800           0
        98 PROA     10       GLY      HA2      HB2      0.900000E-01   1.00800           0
        99 PROA     10       GLY      C        C        0.510000       12.0110           0
       100 PROA     10       GLY      O        O       -0.510000       15.9994           0
       101 PROA     11       ALA      N        NH1     -0.470000       14.0070           0
       102 PROA     11       ALA      HN       H        0.310000       1.00800           0
       103 PROA     11       ALA      CA       CT1      0.700000E-01   12.0110           0
       104 PROA     11       ALA      HA       HB1      0.900000E-01   1.00800           0
       105 PROA     11       ALA      CB       CT3     -0.270000       12.0110           0
       106 PROA     11       ALA      HB1      HA3      0.900000E-01   1.00800           0
       107 PROA     11       ALA      HB2      HA3      0.900000E-01   1.00800           0
       108 PROA     11       ALA      HB3      HA3      0.900000E-01   1.00800           0
       109 PROA     11       ALA      C        C        0.510000       12.0110           0
       110 PROA     11       ALA      O        O       -0.510000       15.9994           0
       111 PROA     12       PRO      N        N       -0.290000       14.0070           0
       112 PROA     12       PRO      CD       CP3       0.00000       12.0110           0
       113 PROA     12       PRO      HD1      HA2      0.900000E-01   1.00800           0
       114 PROA     12       PRO      HD2      HA2      0.900000E-01   1.00800           0
       115 PROA     12       PRO      CA       CP1      0.200000E-01   12.0110           0
       116 PROA     12       PRO      HA       HB1      0.900000E-01   1.00800           0
       117 PROA     12       PRO      CB       CP2     -0.180000       12.0110           0
       118 PROA     12       PRO      HB1      HA2      0.900000E-01   1.00800           0
       119 PROA     12       PRO      HB2      HA2      0.900000E-01   1.00800           0
       120 PROA     12       PRO      CG       CP2     -0.180000       12.0110           0
       121 PROA     12       PRO      HG1      HA2      0.900000E-01   1.00800           0
       122 PROA     12       PRO      HG2      HA2      0.900000E-01   1.00800           0
       123 PROA     12       PRO      C        C        0.510000       12.0110           0
       124 PROA     12       PRO      O        O       -0.510000       15.9994           0
       125 PROA     13       GLY      N        NH1     -0.470000       14.0070           0
       126 PROA     13       GLY      HN       H        0.310000       1.00800           0
       127 PROA     13       GLY      CA       CT2     -0.200000E-01   12.0110           0
       128 PROA     13       GLY      HA1      HB2      0.900000E-01   1.00800           0
       129 PROA     13       GLY      HA2      HB2      0.900000E-01   1.00800           0
       130 PROA     13       GLY      C        C        0.510000       12.0110           0
       131 PROA     13       GLY      O        O       -0.510000       15.9994           0
       132 PROA     14       SER      N        NH1     -0.470000       14.0070           0
       133 PROA     14       SER      HN       H        0.310000       1.00800           0
       134 PROA     14       SER      CA       CT1      0.700000E-01   12.0110           0
       135 PROA     14       SER      HA       HB1      0.900000E-01   1.00800           0
       136 PROA     14       SER      CB       CT2      0.500000E-01   12.0110           0
       137 PROA     14       SER      HB1      HA2      0.900000E-01   1.00800           0
       138 PROA     14       SER      HB2      HA2      0.900000E-01   1.00800           0
       139 PROA     14       SER      OG       OH1     -0.660000       15.9994           0
       140 PROA     14       SER      HG1      H        0.430000       1.00800           0
       141 PROA     14       SER      C        C        0.510000       12.0110           0
       142 PROA     14       SER      O        O       -0.510000       15.9994           0
       143 PROA     15       GLY      N        NH1     -0.470000       14.0070           0
       144 PROA     15       GLY      HN       H        0.310000       1.00800           0
       145 PROA     15       GLY      CA       CT2     -0.200000E-01   12.0110           0
       146 PROA     15       GLY      HA1      HB2      0.900000E-01   1.00800           0
       147 PROA     15       GLY      HA2      HB2      0.900000E-01   1.00800           0
       148 PROA     15       GLY      C        C        0.510000       12.0110           0
       149 PROA     15       GLY      O        O       -0.510000       15.9994           0
       150 PROA     16       PRO      N        N       -0.290000       14.0070           0
       151 PROA     16       PRO      CD       CP3       0.00000       12.0110           0
       152 PROA     16       PRO      HD1      HA2      0.900000E-01   1.00800           0
       153 PROA     16       PRO      HD2      HA2      0.900000E-01   1.00800           0
       154 PROA     16       PRO      CA       CP1      0.200000E-01   12.0110           0
       155 PROA     16       PRO      HA       HB1      0.900000E-01   1.00800           0
       156 PROA     16       PRO      CB       CP2     -0.180000       12.0110           0
       157 PROA     16       PRO      HB1      HA2      0.900000E-01   1.00800           0
       158 PROA     16       PRO      HB2      HA2      0.900000E-01   1.00800           0
       159 PROA     16       PRO      CG       CP2     -0.180000       12.0110           0
       160 PROA     16       PRO      HG1      HA2      0.900000E-01   1.00800           0
       161 PROA     16       PRO      HG2      HA2      0.900000E-01   1.00800           0
       162 PROA     16       PRO      C        C        0.510000       12.0110           0
       163 PROA     16       PRO      O        O       -0.510000       15.9994           0
       164 PROA     17       GLY      N        NH1     -0.470000       14.0070           0
       165 PROA     17       GLY      HN       H        0.310000       1.00800           0
       166 PROA     17       GLY      CA       CT2     -0.200000E-01   12.0110           0
       167 PROA     17       GLY      HA1      HB2      0.900000E-01   1.00800           0
       168 PROA     17       GLY      HA2      HB2      0.900000E-01   1.00800           0
       169 PROA     17       GLY      C        C        0.510000       12.0110           0
       170 PROA     17       GLY      O        O       -0.510000       15.9994           0
       171 PROA     18       ALA      N        NH1     -0.470000       14.0070           0
       172 PROA     18       ALA      HN       H        0.310000       1.00800           0
       173 PROA     18       ALA      CA       CT1      0.700000E-01   12.0110           0
       174 PROA     18       ALA      HA       HB1      0.900000E-01   1.00800           0
       175 PROA     18       ALA      CB       CT3     -0.270000       12.0110           0
       176 PROA     18       ALA      HB1      HA3      0.900000E-01   1.00800           0
       177 PROA     18       ALA      HB2      HA3      0.900000E-01   1.00800           0
       178 PROA     18       ALA      HB3      HA3      0.900000E-01   1.00800           0
       179 PROA     18       ALA      C        C        0.510000       12.0110           0
       180 PROA     18       ALA      O        O       -0.510000       15.9994           0
       181 PROA     19       PRO      N        N       -0.290000       14.0070           0
       182 PROA     19       PRO      CD       CP3       0.00000       12.0110           0
       183 PROA     19       PRO      HD1      HA2      0.900000E-01   1.00800           0
       184 PROA     19       PRO      HD2      HA2      0.900000E-01   1.00800           0
       185 PROA     19       PRO      CA       CP1      0.200000E-01   12.0110           0
       186 PROA     19       PRO      HA       HB1      0.900000E-01   1.00800           0
       187 PROA     19       PRO      CB       CP2     -0.180000       12.0110           0
       188 PROA     19       PRO      HB1      HA2      0.900000E-01   1.00800           0
       189 PROA     19       PRO      HB2      HA2      0.900000E-01   1.00800           0
       190 PROA     19       PRO      CG       CP2     -0.180000       12.0110           0
       191 PROA     19       PRO      HG1      HA2      0.900000E-01   1.00800           0
       192 PROA     19       PRO      HG2      HA2      0.900000E-01   1.00800           0
       193 PROA     19       PRO      C        CC       0.340000       12.0110           0
       194 PROA     19       PRO      OT1      OC      -0.670000       15.9994           0
       195 PROA     19       PRO      OT2      OC      -0.670000       15.9994           0

       200 !NBOND: bonds
         2         1         3         1         4         1         1         5
         8         5         8        10         5         6         5         7
         9         8        22        14        22        24        10        14
        14        16        16        19        19        11        10        11
        15        14        20        19        21        19        12        11
        13        11        17        16        18        16        23        22
        24        25        24        26        29        26        29        31
        26        27        26        28        30        29        35        33
        31        32        31        33        39        33        39        41
        33        34        35        36        35        37        35        38
        40        39        53        45        53        55        41        45
        45        47        47        50        50        42        41        42
        46        45        51        50        52        50        43        42
        44        42        48        47        49        47        54        53
        55        56        55        57        60        57        60        62
        57        58        57        59        61        60        66        64
        69        66        62        63        62        64        71        64
        71        73        64        65        66        67        66        68
        69        70        72        71        73        74        73        75
        78        75        78        80        75        76        75        77
        79        78        92        84        92        94        80        84
        84        86        86        89        89        81        80        81
        85        84        90        89        91        89        82        81
        83        81        87        86        88        86        93        92
        94        95        94        96        99        96        99       101
        96        97        96        98       100        99       105       103
       101       102       101       103       109       103       109       111
       103       104       105       106       105       107       105       108
       110       109       123       115       123       125       111       115
       115       117       117       120       120       112       111       112
       116       115       121       120       122       120       113       112
       114       112       118       117       119       117       124       123
       125       126       125       127       130       127       130       132
       127       128       127       129       131       130       136       134
       139       136       132       133       132       134       141       134
       141       143       134       135       136       137       136       138
       139       140       142       141       143       144       143       145
       148       145       148       150       145       146       145       147
       149       148       162       154       162       164       150       154
       154       156       156       159       159       151       150       151
       155       154       160       159       161       159       152       151
       153       151       157       156       158       156       163       162
       164       165       164       166       169       166       169       171
       166       167       166       168       170       169       175       173
       171       172       171       173       179       173       179       181
       173       174       175       176       175       177       175       178
       180       179       193       185       181       185       185       187
       187       190       190       182       181       182       186       185
       191       190       192       190       183       182       184       182
       188       187       189       187       193       195       193       194

       371 !NTHETA: angles
         2         1         3         2         1         4         2         1         5
         3         1         4         3         1         5         4         1         5
         1         5         6         1         5         7         1         5         8
         6         5         7         6         5         8         7         5         8
         5         8         9         5         8        10         9         8        10
         8        10        11         8        10        14        11        10        14
        10        11        12        10        11        13        10        11        19
        12        11        13        12        11        19        13        11        19
        10        14        15        10        14        16        10        14        22
        15        14        16        15        14        22        16        14        22
        14        16        17        14        16        18        14        16        19
        17        16        18        17        16        19        18        16        19
        11        19        16        11        19        20        11        19        21
        16        19        20        16        19        21        20        19        21
        14        22        23        14        22        24        23        22        24
        22        24        25        22        24        26        25        24        26
        24        26        27        24        26        28        24        26        29
        27        26        28        27        26        29        28        26        29
        26        29        30        26        29        31        30        29        31
        29        31        32        29        31        33        32        31        33
        31        33        34        31        33        35        31        33        39
        34        33        35        34        33        39        35        33        39
        33        35        36        33        35        37        33        35        38
        36        35        37        36        35        38        37        35        38
        33        39        40        33        39        41        40        39        41
        39        41        42        39        41        45        42        41        45
        41        42        43        41        42        44        41        42        50
        43        42        44        43        42        50        44        42        50
        41        45        46        41        45        47        41        45        53
        46        45        47        46        45        53        47        45        53
        45        47        48        45        47        49        45        47        50
        48        47        49        48        47        50        49        47        50
        42        50        47        42        50        51        42        50        52
        47        50        51        47        50        52        51        50        52
        45        53        54        45        53        55        54        53        55
        53        55        56        53        55        57        56        55        57
        55        57        58        55        57        59        55        57        60
        58        57        59        58        57        60        59        57        60
        57        60        61        57        60        62        61        60        62
        60        62        63        60        62        64        63        62        64
        62        64        65        62        64        66        62        64        71
        65        64        66        65        64        71        66        64        71
        64        66        67        64        66        68        64        66        69
        67        66        68        67        66        69        68        66        69
        66        69        70        64        71        72        64        71        73
        72        71        73        71        73        74        71        73        75
        74        73        75        73        75        76        73        75        77
        73        75        78        76        75        77        76        75        78
        77        75        78        75        78        79        75        78        80
        79        78        80        78        80        81        78        80        84
        81        80        84        80        81        82        80        81        83
        80        81        89        82        81        83        82        81        89
        83        81        89        80        84        85        80        84        86
        80        84        92        85        84        86        85        84        92
        86        84        92        84        86        87        84        86        88
        84        86        89        87        86        88        87        86        89
        88        86        89        81        89        86        81        89        90
        81        89        91        86        89        90        86        89        91
        90        89        91        84        92        93        84        92        94
        93        92        94        92        94        95        92        94        96
        95        94        96        94        96        97        94        96        98
        94        96        99        97        96        98        97        96        99
        98        96        99        96        99       100        96        99       101
       100        99       101        99       101       102        99       101       103
       102       101       103       101       103       104       101       103       105
       101       103       109       104       103       105       104       103       109
       105       103       109       103       105       106       103       105       107
       103       105       108       106       105       107       106       105       108
       107       105       108       103       109       110       103       109       111
       110       109       111       109       111       112       109       111       115
       112       111       115       111       112       113       111       112       114
       111       112       120       113       112       114       113       112       120
       114       112       120       111       115       116       111       115       117
       111       115       123       116       115       117       116       115       123
       117       115       123       115       117       118       115       117       119
       115       117       120       118       117       119       118       117       120
       119       117       120       112       120       117       112       120       121
       112       120       122       117       120       121       117       120       122
       121       120       122       115       123       124       115       123       125
       124       123       125       123       125       126       123       125       127
       126       125       127       125       127       128       125       127       129
       125       127       130       128       127       129       128       127       130
       129       127       130       127       130       131       127       130       132
       131       130       132       130       132       133       130       132       134
       133       132       134       132       134       135       132       134       136
       132       134       141       135       134       136       135       134       141
       136       134       141       134       136       137       134       136       138
       134       136       139       137       136       138       137       136       139
       138       136       139       136       139       140       134       141       142
       134       141       143       142       141       143       141       143       144
       141       143       145       144       143       145       143       145       146
       143       145       147       143       145       148       146       145       147
       146       145       148       147       145       148       145       148       149
       145       148       150       149       148       150       148       150       151
       148       150       154       151       150       154       150       151       152
       150       151       153       150       151       159       152       151       153
       152       151       159       153       151       159       150       154       155
       150       154       156       150       154       162       155       154       156
       155       154       162       156       154       162       154       156       157
       154       156       158       154       156       159       157       156       158
       157       156       159       158       156       159       151       159       156
       151       159       160       151       159       161       156       159       160
       156       159       161       160       159       161       154       162       163
       154       162       164       163       162       164       162       164       165
       162       164       166       165       164       166       164       166       167
       164       166       168       164       166       169       167       166       168
       167       166       169       168       166       169       166       169       170
       166       169       171       170       169       171       169       171       172
       169       171       173       172       171       173       171       173       174
       171       173       175       171       173       179       174       173       175
       174       173       179       175       173       179       173       175       176
       173       175       177       173       175       178       176       175       177
       176       175       178       177       175       178       173       179       180
       173       179       181       180       179       181       179       181       182
       179       181       185       182       181       185       181       182       183
       181       182       184       181       182       190       183       182       184
       183       182       190       184       182       190       181       185       186
       181       185       187       181       185       193       186       185       187
       186       185       193       187       185       193       185       187       188
       185       187       189       185       187       190       188       187       189
       188       187       190       189       187       190       182       190       187
       182       190       191       182       190       192       187       190       191
       187       190       192       191       190       192       185       193       194
       185       193       195       194       193       195

       552 !NPHI: dihedrals
         1         5         8         9         1         5         8        10
         2         1         5         6         2         1         5         7
         2         1         5         8         3         1         5         6
         3         1         5         7         3         1         5         8
         4         1         5         6         4         1         5         7
         4         1         5         8         5         8        10        11
         5         8        10        14         6         5         8         9
         6         5         8        10         7         5         8         9
         7         5         8        10         8        10        11        12
         8        10        11        13         8        10        11        19
         8        10        14        15         8        10        14        16
         8        10        14        22         9         8        10        11
         9         8        10        14        10        11        19        16
        10        11        19        20        10        11        19        21
        10        14        16        17        10        14        16        18
        10        14        16        19        10        14        22        23
        10        14        22        24        11        10        14        15
        11        10        14        16        11        10        14        22
        11        19        16        14        11        19        16        17
        11        19        16        18        12        11        10        14
        12        11        19        16        12        11        19        20
        12        11        19        21        13        11        10        14
        13        11        19        16        13        11        19        20
        13        11        19        21        14        10        11        19
        14        16        19        20        14        16        19        21
        14        22        24        25        14        22        24        26
        15        14        16        17        15        14        16        18
        15        14        16        19        15        14        22        23
        15        14        22        24        16        14        22        23
        16        14        22        24        17        16        14        22
        17        16        19        20        17        16        19        21
        18        16        14        22        18        16        19        20
        18        16        19        21        19        16        14        22
        22        24        26        27        22        24        26        28
        22        24        26        29        23        22        24        25
        23        22        24        26        24        26        29        30
        24        26        29        31        25        24        26        27
        25        24        26        28        25        24        26        29
        26        29        31        32        26        29        31        33
        27        26        29        30        27        26        29        31
        28        26        29        30        28        26        29        31
        29        31        33        34        29        31        33        35
        29        31        33        39        30        29        31        32
        30        29        31        33        31        33        35        36
        31        33        35        37        31        33        35        38
        31        33        39        40        31        33        39        41
        32        31        33        34        32        31        33        35
        32        31        33        39        33        39        41        42
        33        39        41        45        34        33        35        36
        34        33        35        37        34        33        35        38
        34        33        39        40        34        33        39        41
        35        33        39        40        35        33        39        41
        36        35        33        39        37        35        33        39
        38        35        33        39        39        41        42        43
        39        41        42        44        39        41        42        50
        39        41        45        46        39        41        45        47
        39        41        45        53        40        39        41        42
        40        39        41        45        41        42        50        47
        41        42        50        51        41        42        50        52
        41        45        47        48        41        45        47        49
        41        45        47        50        41        45        53        54
        41        45        53        55        42        41        45        46
        42        41        45        47        42        41        45        53
        42        50        47        45        42        50        47        48
        42        50        47        49        43        42        41        45
        43        42        50        47        43        42        50        51
        43        42        50        52        44        42        41        45
        44        42        50        47        44        42        50        51
        44        42        50        52        45        41        42        50
        45        47        50        51        45        47        50        52
        45        53        55        56        45        53        55        57
        46        45        47        48        46        45        47        49
        46        45        47        50        46        45        53        54
        46        45        53        55        47        45        53        54
        47        45        53        55        48        47        45        53
        48        47        50        51        48        47        50        52
        49        47        45        53        49        47        50        51
        49        47        50        52        50        47        45        53
        53        55        57        58        53        55        57        59
        53        55        57        60        54        53        55        56
        54        53        55        57        55        57        60        61
        55        57        60        62        56        55        57        58
        56        55        57        59        56        55        57        60
        57        60        62        63        57        60        62        64
        58        57        60        61        58        57        60        62
        59        57        60        61        59        57        60        62
        60        62        64        65        60        62        64        66
        60        62        64        71        61        60        62        63
        61        60        62        64        62        64        66        67
        62        64        66        68        62        64        66        69
        62        64        71        72        62        64        71        73
        63        62        64        65        63        62        64        66
        63        62        64        71        64        66        69        70
        64        71        73        74        64        71        73        75
        65        64        66        67        65        64        66        68
        65        64        66        69        65        64        71        72
        65        64        71        73        66        64        71        72
        66        64        71        73        67        66        64        71
        67        66        69        70        68        66        64        71
        68        66        69        70        69        66        64        71
        71        73        75        76        71        73        75        77
        71        73        75        78        72        71        73        74
        72        71        73        75        73        75        78        79
        73        75        78        80        74        73        75        76
        74        73        75        77        74        73        75        78
        75        78        80        81        75        78        80        84
        76        75        78        79        76        75        78        80
        77        75        78        79        77        75        78        80
        78        80        81        82        78        80        81        83
        78        80        81        89        78        80        84        85
        78        80        84        86        78        80        84        92
        79        78        80        81        79        78        80        84
        80        81        89        86        80        81        89        90
        80        81        89        91        80        84        86        87
        80        84        86        88        80        84        86        89
        80        84        92        93        80        84        92        94
        81        80        84        85        81        80        84        86
        81        80        84        92        81        89        86        84
        81        89        86        87        81        89        86        88
        82        81        80        84        82        81        89        86
        82        81        89        90        82        81        89        91
        83        81        80        84        83        81        89        86
        83        81        89        90        83        81        89        91
        84        80        81        89        84        86        89        90
        84        86        89        91        84        92        94        95
        84        92        94        96        85        84        86        87
        85        84        86        88        85        84        86        89
        85        84        92        93        85        84        92        94
        86        84        92        93        86        84        92        94
        87        86        84        92        87        86        89        90
        87        86        89        91        88        86        84        92
        88        86        89        90        88        86        89        91
        89        86        84        92        92        94        96        97
        92        94        96        98        92        94        96        99
        93        92        94        95        93        92        94        96
        94        96        99       100        94        96        99       101
        95        94        96        97        95        94        96        98
        95        94        96        99        96        99       101       102
        96        99       101       103        97        96        99       100
        97        96        99       101        98        96        99       100
        98        96        99       101        99       101       103       104
        99       101       103       105        99       101       103       109
       100        99       101       102       100        99       101       103
       101       103       105       106       101       103       105       107
       101       103       105       108       101       103       109       110
       101       103       109       111       102       101       103       104
       102       101       103       105       102       101       103       109
       103       109       111       112       103       109       111       115
       104       103       105       106       104       103       105       107
       104       103       105       108       104       103       109       110
       104       103       109       111       105       103       109       110
       105       103       109       111       106       105       103       109
       107       105       103       109       108       105       103       109
       109       111       112       113       109       111       112       114
       109       111       112       120       109       111       115       116
       109       111       115       117       109       111       115       123
       110       109       111       112       110       109       111       115
       111       112       120       117       111       112       120       121
       111       112       120       122       111       115       117       118
       111       115       117       119       111       115       117       120
       111       115       123       124       111       115       123       125
       112       111       115       116       112       111       115       117
       112       111       115       123       112       120       117       115
       112       120       117       118       112       120       117       119
       113       112       111       115       113       112       120       117
       113       112       120       121       113       112       120       122
       114       112       111       115       114       112       120       117
       114       112       120       121       114       112       120       122
       115       111       112       120       115       117       120       121
       115       117       120       122       115       123       125       126
       115       123       125       127       116       115       117       118
       116       115       117       119       116       115       117       120
       116       115       123       124       116       115       123       125
       117       115       123       124       117       115       123       125
       118       117       115       123       118       117       120       121
       118       117       120       122       119       117       115       123
       119       117       120       121       119       117       120       122
       120       117       115       123       123       125       127       128
       123       125       127       129       123       125       127       130
       124       123       125       126       124       123       125       127
       125       127       130       131       125       127       130       132
       126       125       127       128       126       125       127       129
       126       125       127       130       127       130       132       133
       127       130       132       134       128       127       130       131
       128       127       130       132       129       127       130       131
       129       127       130       132       130       132       134       135
       130       132       134       136       130       132       134       141
       131       130       132       133       131       130       132       134
       132       134       136       137       132       134       136       138
       132       134       136       139       132       134       141       142
       132       134       141       143       133       132       134       135
       133       132       134       136       133       132       134       141
       134       136       139       140       134       141       143       144
       134       141       143       145       135       134       136       137
       135       134       136       138       135       134       136       139
       135       134       141       142       135       134       141       143
       136       134       141       142       136       134       141       143
       137       136       134       141       137       136       139       140
       138       136       134       141       138       136       139       140
       139       136       134       141       141       143       145       146
       141       143       145       147       141       143       145       148
       142       141       143       144       142       141       143       145
       143       145       148       149       143       145       148       150
       144       143       145       146       144       143       145       147
       144       143       145       148       145       148       150       151
       145       148       150       154       146       145       148       149
       146       145       148       150       147       145       148       149
       147       145       148       150       148       150       151       152
       148       150       151       153       148       150       151       159
       148       150       154       155       148       150       154       156
       148       150       154       162       149       148       150       151
       149       148       150       154       150       151       159       156
       150       151       159       160       150       151       159       161
       150       154       156       157       150       154       156       158
       150       154       156       159       150       154       162       163
       150       154       162       164       151       150       154       155
       151       150       154       156       151       150       154       162
       151       159       156       154       151       159       156       157
       151       159       156       158       152       151       150       154
       152       151       159       156       152       151       159       160
       152       151       159       161       153       151       150       154
       153       151       159       156       153       151       159       160
       153       151       159       161       154       150       151       159
       154       156       159       160       154       156       159       161
       154       162       164       165       154       162       164       166
       155       154       156       157       155       154       156       158
       155       154       156       159       155       154       162       163
       155       154       162       164       156       154       162       163
       156       154       162       164       157       156       154       162
       157       156       159       160       157       156       159       161
       158       156       154       162       158       156       159       160
       158       156       159       161       159       156       154       162
       162       164       166       167       162       164       166       168
       162       164       166       169       163       162       164       165
       163       162       164       166       164       166       169       170
       164       166       169       171       165       164       166       167
       165       164       166       168       165       164       166       169
       166       169       171       172       166       169       171       173
       167       166       169       170       167       166       169       171
       168       166       169       170       168       166       169       171
       169       171       173       174       169       171       173       175
       169       171       173       179       170       169       171       172
       170       169       171       173       171       173       175       176
       171       173       175       177       171       173       175       178
       171       173       179       180       171       173       179       181
       172       171       173       174       172       171       173       175
       172       171       173       179       173       179       181       182
       173       179       181       185       174       173       175       176
       174       173       175       177       174       173       175       178
       174       173       179       180       174       173       179       181
       175       173       179       180       175       173       179       181
       176       175       173       179       177       175       173       179
       178       175       173       179       179       181       182       183
       179       181       182       184       179       181       182       190
       179       181       185       186       179       181       185       187
       179       181       185       193       180       179       181       182
       180       179       181       185       181       182       190       187
       181       182       190       191       181       182       190       192
       181       185       187       188       181       185       187       189
       181       185       187       190       181       185       193       194
       181       185       193       195       182       181       185       186
       182       181       185       187       182       181       185       193
       182       190       187       185       182       190       187       188
       182       190       187       189       183       182       181       185
       183       182       190       187       183       182       190       191
       183       182       190       192       184       182       181       185
       184       182       190       187       184       182       190       191
       184       182       190       192       185       181       182       190
       185       187       190       191       185       187       190       192
       186       185       187       188       186       185       187       189
       186       185       187       190       186       185       193       194
       186       185       193       195       187       185       193       194
       187       185       193       195       188       187       185       193
       188       187       190       191       188       187       190       192
       189       187       185       193       189       187       190       191
       189       187       190       192       190       187       185       193

        37 !NIMPHI: impropers
         8         5        10         9        10         8        14        11
        22        14        24        23        24        22        26        25
        29        26        31        30        31        29        33        32
        39        33        41        40        41        39        45        42
        53        45        55        54        55        53        57        56
        60        57        62        61        62        60        64        63
        71        64        73        72        73        71        75        74
        78        75        80        79        80        78        84        81
        92        84        94        93        94        92        96        95
        99        96       101       100       101        99       103       102
       109       103       111       110       111       109       115       112
       123       115       125       124       125       123       127       126
       130       127       132       131       132       130       134       133
       141       134       143       142       143       141       145       144
       148       145       150       149       150       148       154       151
       162       154       164       163       164       162       166       165
       169       166       171       170       171       169       173       172
       179       173       181       180       181       179       185       182
       193       185       195       194

        17 !NDON: donors
         1         2         1         3         1         4        24        25
        31        32        55        56        62        63        69        70
        73        74        94        95       101       102       125       126
       132       133       139       140       143       144       164       165
       171       172

        22 !NACC: acceptors
         9         8        23        22        30        29        40        39
        54        53        61        60        69         0        72        71
        79        78        93        92       100        99       110       109
       124       123       131       130       139         0       142       141
       149       148       163       162       170       169       180       179
       194       193       195       193

         0 !NNB

         0         0         0         0         0         0         0         0
         0         0         0         0         0         0         0         0
         0         0         0         0         0         0         0         0
         0         0         0         0         0         0         0         0
         0         0         0         0         0         0         0         0
         0         0         0         0         0         0         0         0
         0         0         0         0         0         0         0         0
         0         0         0         0         0         0         0         0
         0         0         0         0         0         0         0         0
         0         0         0         0         0         0         0         0
         0         0         0         0         0         0         0         0
         0         0         0         0         0         0         0         0
         0         0         0         0         0         0         0         0
         0         0         0         0         0         0         0         0
         0         0         0         0         0         0         0         0
         0         0         0         0         0         0         0         0
         0         0         0         0         0         0         0         0
         0         0         0         0         0         0         0         0
         0         0         0         0         0         0         0         0
         0         0         0         0         0         0         0         0
         0         0         0         0         0         0         0         0
         0         0         0         0         0         0         0         0
         0         0         0         0         0         0         0         0
         0         0         0         0         0         0         0         0
         0         0         0

        55         0 !NGRP NST2
         0         2         0         7         1         0         9         1         0
        15         1         0        18         1         0        21         1         0
        23         1         0        28         1         0        30         1         0
        34         1         0        38         1         0        40         1         0
        46         1         0        49         1         0        52         1         0
        54         1         0        59         1         0        61         1         0
        65         1         0        70         1         0        72         1         0
        77         1         0        79         1         0        85         1         0
        88         1         0        91         1         0        93         1         0
        98         1         0       100         1         0       104         1         0
       108         1         0       110         1         0       116         1         0
       119         1         0       122         1         0       124         1         0
       129         1         0       131         1         0       135         1         0
       140         1         0       142         1         0       147         1         0
       149         1         0       155         1         0       158         1         0
       161         1         0       163         1         0       168         1         0
       170         1         0       174         1         0       178         1         0
       180         1         0       186         1         0       189         1         0
       192         2         0

         0         0 !NUMLP NUMLPH

        17 !NCRTERM: cross-terms
         8        10        14        22        10        14        22        24
        22        24        26        29        24        26        29        31
        29        31        33        39        31        33        39        41
        39        41        45        53        41        45        53        55
        53        55        57        60        55        57        60        62
        60        62        64        71        62        64        71        73
        71        73        75        78        73        75        78        80
        78        80        84        92        80        84        92        94
        92        94        96        99        94        96        99       101
        99       101       103       109       101       103       109       111
       109       111       115       123       111       115       123       125
       123       125       127       130       125       127       130       132
       130       132       134       141       132       134       141       143
       141       143       145       148       143       145       148       150
       148       150       154       162       150       154       162       164
       162       164       166       169       164       166       169       171
       169       171       173       179       171       173       179       181
