Generated by CHARMM-GUI FF-Converter
35726
    1GLY      N    1   5.709   4.167   3.412
    1GLY    HT1    2   5.803   4.203   3.436
    1GLY    HT2    3   5.655   4.240   3.360
    1GLY    HT3    4   5.725   4.090   3.339
    1GLY     CA    5   5.632   4.109   3.521
    1GLY    HA1    6   5.620   4.185   3.596
    1GLY    HA2    7   5.686   4.021   3.554
    1GLY      C    8   5.493   4.065   3.479
    1GLY      O    9   5.446   4.101   3.371
    2SER      N   10   5.434   3.993   3.541
    2SER     HN   11   5.470   3.952   3.624
    2SER     CA   12   5.297   3.954   3.509
    2SER     HA   13   5.287   3.933   3.403
    2SER     CB   14   5.259   3.826   3.584
    2SER    HB1   15   5.153   3.799   3.563
    2SER    HB2   16   5.270   3.843   3.693
    2SER     OG   17   5.343   3.719   3.544
    2SER    HG1   18   5.283   3.645   3.524
    2SER      C   19   5.198   4.065   3.545
    2SER      O   20   5.225   4.147   3.632
    3GLY      N   21   5.101   4.076   3.464
    3GLY     HN   22   5.091   4.018   3.383
    3GLY     CA   23   4.993   4.169   3.492
    3GLY    HA1   24   4.917   4.153   3.418
    3GLY    HA2   25   5.034   4.269   3.490
    3GLY      C   26   4.930   4.146   3.628
    3GLY      O   27   4.955   4.045   3.693
    4ASP      N   28   4.856   4.247   3.659
    4ASP     HN   29   4.855   4.334   3.611
    4ASP     CA   30   4.780   4.230   3.782
    4ASP     HA   31   4.856   4.210   3.857
    4ASP     CB   32   4.710   4.361   3.821
    4ASP    HB1   33   4.637   4.348   3.903
    4ASP    HB2   34   4.655   4.401   3.733
    4ASP     CG   35   4.807   4.468   3.867
    4ASP    OD1   36   4.921   4.435   3.907
    4ASP    OD2   37   4.769   4.588   3.863
    4ASP      C   38   4.677   4.118   3.768
    4ASP      O   39   4.621   4.098   3.660
    5PRO      N   40   4.646   4.054   3.859
    5PRO     CD   41   4.704   4.073   3.978
    5PRO    HD1   42   4.676   4.172   4.021
    5PRO    HD2   43   4.816   4.060   3.976
    5PRO     CA   44   4.536   3.958   3.855
    5PRO     HA   45   4.558   3.884   3.780
    5PRO     CB   46   4.532   3.902   3.997
    5PRO    HB1   47   4.543   3.791   3.995
    5PRO    HB2   48   4.438   3.926   4.051
    5PRO     CG   49   4.649   3.964   4.066
    5PRO    HG1   50   4.623   4.002   4.167
    5PRO    HG2   51   4.729   3.888   4.080
    5PRO      C   52   4.402   4.024   3.819
    5PRO      O   53   4.385   4.144   3.839
    6GLY      N   54   4.325   3.934   3.758
    6GLY     HN   55   4.350   3.840   3.736
    6GLY     CA   56   4.193   3.987   3.727
    6GLY    HA1   57   4.137   3.908   3.680
    6GLY    HA2   58   4.204   4.073   3.662
    6GLY      C   59   4.115   4.030   3.850
    6GLY      O   60   4.152   3.995   3.962
    7ASN      N   61   3.999   4.094   3.807
    7ASN     HN   62   3.969   4.101   3.712
    7ASN     CA   63   3.905   4.120   3.916
    7ASN     HA   64   3.958   4.161   4.001
    7ASN     CB   65   3.798   4.220   3.872
    7ASN    HB1   66   3.713   4.219   3.943
    7ASN    HB2   67   3.759   4.190   3.772
    7ASN     CG   68   3.850   4.362   3.867
    7ASN    OD1   69   3.963   4.390   3.908
    7ASN    ND2   70   3.768   4.453   3.816
    7ASN   HD21   71   3.803   4.547   3.809
    7ASN   HD22   72   3.677   4.428   3.785
    7ASN      C   73   3.840   3.991   3.966
    7ASN      O   74   3.832   3.892   3.892
    8GLY      N   75   3.798   3.992   4.090
    8GLY     HN   76   3.811   4.070   4.150
    8GLY     CA   77   3.726   3.876   4.140
    8GLY    HA1   78   3.708   3.887   4.245
    8GLY    HA2   79   3.785   3.787   4.120
    8GLY      C   80   3.592   3.854   4.072
    8GLY      O   81   3.545   3.941   3.999
    9ASP      N   82   3.530   3.749   4.098
    9ASP     HN   83   3.571   3.679   4.155
    9ASP     CA   84   3.397   3.716   4.049
    9ASP     HA   85   3.406   3.727   3.942
    9ASP     CB   86   3.362   3.571   4.083
    9ASP    HB1   87   3.254   3.548   4.067
    9ASP    HB2   88   3.384   3.553   4.190
    9ASP     CG   89   3.439   3.470   4.000
    9ASP    OD1   90   3.490   3.507   3.892
    9ASP    OD2   91   3.448   3.353   4.042
    9ASP      C   92   3.292   3.811   4.108
    9ASP      O   93   3.308   3.861   4.219
   10PRO      N   94   3.191   3.827   4.044
   10PRO     CD   95   3.170   3.786   3.915
   10PRO    HD1   96   3.144   3.677   3.914
   10PRO    HD2   97   3.256   3.806   3.846
   10PRO     CA   98   3.084   3.908   4.103
   10PRO     HA   99   3.123   4.003   4.135
   10PRO     CB  100   2.983   3.923   3.989
   10PRO    HB1  101   2.954   4.029   3.973
   10PRO    HB2  102   2.891   3.863   4.006
   10PRO     CG  103   3.053   3.868   3.868
   10PRO    HG1  104   2.986   3.811   3.802
   10PRO    HG2  105   3.093   3.954   3.809
   10PRO      C  106   3.019   3.841   4.224
   10PRO      O  107   3.025   3.719   4.238
   11GLY      N  108   2.962   3.917   4.326
   11GLY     HN  109   2.968   4.016   4.319
   11GLY     CA  110   2.890   3.866   4.442
   11GLY    HA1  111   2.852   3.951   4.496
   11GLY    HA2  112   2.958   3.804   4.498
   11GLY      C  113   2.770   3.781   4.404
   11GLY      O  114   2.721   3.789   4.291
   12SER      N  115   2.723   3.703   4.475
   12SER     HN  116   2.766   3.686   4.563
   12SER     CA  117   2.602   3.624   4.458
   12SER     HA  118   2.606   3.576   4.361
   12SER     CB  119   2.591   3.518   4.567
   12SER    HB1  120   2.502   3.453   4.549
   12SER    HB2  121   2.578   3.566   4.667
   12SER     OG  122   2.707   3.437   4.570
   12SER    HG1  123   2.744   3.438   4.481
   12SER      C  124   2.477   3.713   4.459
   12SER      O  125   2.473   3.814   4.529
   13GLY      N  126   2.380   3.719   4.366
   13GLY     HN  127   2.390   3.657   4.289
   13GLY     CA  128   2.259   3.798   4.354
   13GLY    HA1  129   2.205   3.763   4.267
   13GLY    HA2  130   2.287   3.902   4.348
   13GLY      C  131   2.166   3.783   4.473
   13GLY    OT1  132   2.201   3.706   4.566
   13GLY    OT2  133   2.057   3.847   4.472
   14SOD    SOD  134   3.785   5.751   5.746
   15SOD    SOD  135   4.868   6.649   4.315
   16SOD    SOD  136   1.532   1.261   3.890
   17SOD    SOD  137   3.040   0.387   1.570
   18SOD    SOD  138   5.287   5.561   6.964
   19SOD    SOD  139   6.475   3.482   4.754
   20SOD    SOD  140   4.772   5.338   6.191
   21SOD    SOD  141   4.675   2.794   5.012
   22SOD    SOD  142   2.849   2.278   1.471
   23SOD    SOD  143   5.250   2.905   2.034
   24SOD    SOD  144   5.842   0.981   2.395
   25SOD    SOD  145   7.389   6.296   4.361
   26SOD    SOD  146   7.267   3.803   2.070
   27SOD    SOD  147   5.503   3.469   0.339
   28SOD    SOD  148   1.020   5.747   5.376
   29SOD    SOD  149   2.699   5.116   6.954
   30SOD    SOD  150   0.884   6.963   5.340
   31SOD    SOD  151   4.891   0.170   4.370
   32SOD    SOD  152   6.196   3.312   3.215
   33SOD    SOD  153   6.513   5.569   0.693
   34SOD    SOD  154   4.157   4.521   2.209
   35SOD    SOD  155   4.410   0.904   1.151
   36SOD    SOD  156   0.587   2.206   2.557
   37SOD    SOD  157   4.086   5.031   3.487
   38SOD    SOD  158   0.841   3.849   4.375
   39SOD    SOD  159   2.633   6.798   5.866
   40SOD    SOD  160   2.939   4.788   4.468
   41SOD    SOD  161   1.274   4.711   4.176
   42SOD    SOD  162   2.584   5.643   3.953
   43SOD    SOD  163   3.746   6.787   3.077
   44SOD    SOD  164   5.323   5.858   3.778
   45SOD    SOD  165   4.021   2.950   3.270
   46SOD    SOD  166   1.164   7.264   2.890
   47SOD    SOD  167   7.779   4.723   2.365
   48SOD    SOD  168   3.285   7.982   4.916
   49SOD    SOD  169   3.954   2.379   1.548
   50CLA    CLA  170   3.368   2.988   1.625
   51CLA    CLA  171   7.610   4.393   5.847
   52CLA    CLA  172   5.756   3.942   3.208
   53CLA    CLA  173   2.031   3.134   0.173
   54CLA    CLA  174   0.956   3.863   4.602
   55CLA    CLA  175   1.296   5.432   1.929
   56CLA    CLA  176   2.859   0.603   1.996
   57CLA    CLA  177   3.477   1.075   7.110
   58CLA    CLA  178   1.752   5.497   6.115
   59CLA    CLA  179   1.312   5.227   5.248
   60CLA    CLA  180   1.952   0.272   4.478
   61CLA    CLA  181   5.047   6.214   2.677
   62CLA    CLA  182   3.007   7.385   4.500
   63CLA    CLA  183   5.011   1.236   5.015
   64CLA    CLA  184   5.934   0.771   2.518
   65CLA    CLA  185   1.917   5.978   0.739
   66CLA    CLA  186   5.196   3.192   2.595
   67CLA    CLA  187   3.319   5.679   5.090
   68CLA    CLA  188   5.896   4.444   2.586
   69CLA    CLA  189   5.812   3.572   0.658
   70CLA    CLA  190   2.553   1.327   1.630
   71CLA    CLA  191   5.595   5.346   7.168
   72CLA    CLA  192   4.679   3.147   6.923
   73CLA    CLA  193   6.612   1.074   1.899
   74CLA    CLA  194   1.165   4.620   7.027
   75CLA    CLA  195   4.359   6.576   6.462
   76CLA    CLA  196   3.552   0.714   1.170
   77CLA    CLA  197   1.445   6.362   5.815
   78CLA    CLA  198   2.989   0.226   3.509
   79CLA    CLA  199   3.055   1.554   3.469
   80CLA    CLA  200   4.545   1.027   1.346
   81CLA    CLA  201   6.900   6.332   1.575
   82CLA    CLA  202   1.255   1.458   5.853
   83CLA    CLA  203   3.093   4.269   0.631
   84TIP3   OH2  204   3.058   0.178   2.042
   84TIP3    H1  205   3.057   0.115   1.969
   84TIP3    H2  206   2.998   0.247   2.011
   85TIP3   OH2  207   3.310   0.507   2.111
   85TIP3    H1  208   3.308   0.412   2.131
   85TIP3    H2  209   3.232   0.539   2.163
   86TIP3   OH2  210   3.192  -0.368   2.386
   86TIP3    H1  211   3.109  -0.318   2.385
   86TIP3    H2  212   3.163  -0.454   2.350
   87TIP3   OH2  213   3.007   0.859   2.218
   87TIP3    H1  214   2.989   0.873   2.124
   87TIP3    H2  215   3.088   0.911   2.232
   88TIP3   OH2  216   2.683   0.232   2.201
   88TIP3    H1  217   2.668   0.273   2.114
   88TIP3    H2  218   2.692   0.309   2.261
   89TIP3   OH2  219   3.316   0.213   2.139
   89TIP3    H1  220   3.218   0.215   2.128
   89TIP3    H2  221   3.342   0.184   2.049
   90TIP3   OH2  222   2.854   0.509   1.631
   90TIP3    H1  223   2.834   0.532   1.536
   90TIP3    H2  224   2.884   0.594   1.667
   91TIP3   OH2  225   2.113   0.513   2.677
   91TIP3    H1  226   2.206   0.489   2.671
   91TIP3    H2  227   2.072   0.444   2.620
   92TIP3   OH2  228   2.737   0.422   2.400
   92TIP3    H1  229   2.732   0.352   2.470
   92TIP3    H2  230   2.815   0.474   2.427
   93TIP3   OH2  231   2.873   0.037   2.198
   93TIP3    H1  232   2.947   0.094   2.170
   93TIP3    H2  233   2.800   0.103   2.200
   94TIP3   OH2  234   2.745  -0.016   2.611
   94TIP3    H1  235   2.803  -0.065   2.552
   94TIP3    H2  236   2.738  -0.079   2.686
   95TIP3   OH2  237   2.979  -0.335   2.671
   95TIP3    H1  238   2.957  -0.401   2.602
   95TIP3    H2  239   3.019  -0.264   2.621
   96TIP3   OH2  240   2.996  -0.103   2.396
   96TIP3    H1  241   2.930  -0.066   2.334
   96TIP3    H2  242   3.078  -0.075   2.348
   97TIP3   OH2  243   3.127   0.598   1.591
   97TIP3    H1  244   3.149   0.636   1.678
   97TIP3    H2  245   3.202   0.630   1.536
   98TIP3   OH2  246   3.145   0.613   1.873
   98TIP3    H1  247   3.055   0.600   1.911
   98TIP3    H2  248   3.201   0.578   1.944
   99TIP3   OH2  249   3.182   0.305   2.452
   99TIP3    H1  250   3.110   0.315   2.517
   99TIP3    H2  251   3.224   0.393   2.456
  100TIP3   OH2  252   3.228  -0.025   2.272
  100TIP3    H1  253   3.294  -0.098   2.263
  100TIP3    H2  254   3.265   0.043   2.214
  101TIP3   OH2  255   3.409  -0.227   2.283
  101TIP3    H1  256   3.349  -0.292   2.325
  101TIP3    H2  257   3.497  -0.267   2.297
  102TIP3   OH2  258   2.395   0.568   2.302
  102TIP3    H1  259   2.437   0.560   2.391
  102TIP3    H2  260   2.472   0.601   2.251
  103TIP3   OH2  261   2.600   0.700   2.164
  103TIP3    H1  262   2.673   0.670   2.106
  103TIP3    H2  263   2.651   0.752   2.229
  104TIP3   OH2  264   3.073   0.591   2.221
  104TIP3    H1  265   3.000   0.572   2.157
  104TIP3    H2  266   3.054   0.687   2.234
  105TIP3   OH2  267   4.294  -0.011   1.387
  105TIP3    H1  268   4.367  -0.032   1.447
  105TIP3    H2  269   4.301  -0.080   1.319
  106TIP3   OH2  270   3.632  -0.165   1.700
  106TIP3    H1  271   3.664  -0.195   1.788
  106TIP3    H2  272   3.715  -0.128   1.664
  107TIP3   OH2  273   3.658   0.261   1.542
  107TIP3    H1  274   3.670   0.175   1.501
  107TIP3    H2  275   3.603   0.313   1.476
  108TIP3   OH2  276   4.256   0.731   1.085
  108TIP3    H1  277   4.287   0.655   1.031
  108TIP3    H2  278   4.201   0.687   1.152
  109TIP3   OH2  279   4.120   0.198   1.403
  109TIP3    H1  280   4.169   0.114   1.395
  109TIP3    H2  281   4.196   0.257   1.419
  110TIP3   OH2  282   3.980   0.112   1.620
  110TIP3    H1  283   3.926   0.181   1.665
  110TIP3    H2  284   4.018   0.163   1.544
  111TIP3   OH2  285   3.829   0.301   1.756
  111TIP3    H1  286   3.791   0.348   1.678
  111TIP3    H2  287   3.746   0.284   1.803
  112TIP3   OH2  288   4.649   0.527   1.209
  112TIP3    H1  289   4.558   0.510   1.239
  112TIP3    H2  290   4.657   0.469   1.131
  113TIP3   OH2  291   4.345   0.571   0.887
  113TIP3    H1  292   4.421   0.511   0.879
  113TIP3    H2  293   4.380   0.646   0.834
  114TIP3   OH2  294   4.867   0.453   1.569
  114TIP3    H1  295   4.842   0.375   1.513
  114TIP3    H2  296   4.850   0.527   1.507
  115TIP3   OH2  297   4.730  -0.057   1.700
  115TIP3    H1  298   4.734   0.025   1.752
  115TIP3    H2  299   4.647  -0.045   1.651
  116TIP3   OH2  300   3.880   0.331   1.330
  116TIP3    H1  301   3.828   0.287   1.259
  116TIP3    H2  302   3.956   0.272   1.344
  117TIP3   OH2  303   3.874  -0.145   1.579
  117TIP3    H1  304   3.858  -0.171   1.485
  117TIP3    H2  305   3.920  -0.058   1.571
  118TIP3   OH2  306   4.397   0.492   1.307
  118TIP3    H1  307   4.386   0.573   1.359
  118TIP3    H2  308   4.382   0.422   1.375
  119TIP3   OH2  309   4.026   0.430   1.879
  119TIP3    H1  310   3.962   0.492   1.921
  119TIP3    H2  311   3.961   0.374   1.829
  120TIP3   OH2  312   3.768  -0.037   1.979
  120TIP3    H1  313   3.778   0.051   2.019
  120TIP3    H2  314   3.671  -0.048   1.984
  121TIP3   OH2  315   4.067   0.465   0.884
  121TIP3    H1  316   4.160   0.488   0.900
  121TIP3    H2  317   4.019   0.545   0.906
  122TIP3   OH2  318   3.809   0.585   1.958
  122TIP3    H1  319   3.777   0.585   1.864
  122TIP3    H2  320   3.727   0.561   2.006
  123TIP3   OH2  321   3.384   0.108   1.897
  123TIP3    H1  322   3.337   0.086   1.814
  123TIP3    H2  323   3.421   0.022   1.924
  124TIP3   OH2  324   3.271   0.329   1.541
  124TIP3    H1  325   3.334   0.319   1.468
  124TIP3    H2  326   3.323   0.388   1.599
  125TIP3   OH2  327   5.102   0.767   1.594
  125TIP3    H1  328   5.101   0.672   1.615
  125TIP3    H2  329   5.019   0.796   1.638
  126TIP3   OH2  330   4.212   0.549   1.727
  126TIP3    H1  331   4.206   0.642   1.760
  126TIP3    H2  332   4.141   0.508   1.781
  127TIP3   OH2  333   3.965   0.701   0.668
  127TIP3    H1  334   3.897   0.683   0.601
  127TIP3    H2  335   3.937   0.788   0.704
  128TIP3   OH2  336   4.226   0.654   0.614
  128TIP3    H1  337   4.129   0.659   0.626
  128TIP3    H2  338   4.239   0.563   0.644
  129TIP3   OH2  339   5.011  -0.128   1.815
  129TIP3    H1  340   4.931  -0.079   1.789
  129TIP3    H2  341   4.972  -0.217   1.827
  130TIP3   OH2  342   3.585   0.300   1.889
  130TIP3    H1  343   3.634   0.283   1.972
  130TIP3    H2  344   3.512   0.236   1.893
  131TIP3   OH2  345   4.806  -0.310   1.761
  131TIP3    H1  346   4.746  -0.331   1.836
  131TIP3    H2  347   4.770  -0.223   1.734
  132TIP3   OH2  348   3.901  -0.392   1.694
  132TIP3    H1  349   3.858  -0.370   1.780
  132TIP3    H2  350   3.888  -0.308   1.647
  133TIP3   OH2  351   4.475  -0.093   2.012
  133TIP3    H1  352   4.449  -0.163   2.075
  133TIP3    H2  353   4.570  -0.081   2.035
  134TIP3   OH2  354   3.761  -0.315   1.920
  134TIP3    H1  355   3.799  -0.233   1.958
  134TIP3    H2  356   3.708  -0.348   1.993
  135TIP3   OH2  357   4.463  -0.112   1.584
  135TIP3    H1  358   4.416  -0.191   1.553
  135TIP3    H2  359   4.457  -0.131   1.680
  136TIP3   OH2  360   4.799   1.114   1.695
  136TIP3    H1  361   4.792   1.134   1.600
  136TIP3    H2  362   4.881   1.160   1.720
  137TIP3   OH2  363   3.753   0.217   2.108
  137TIP3    H1  364   3.833   0.250   2.153
  137TIP3    H2  365   3.688   0.222   2.181
  138TIP3   OH2  366   4.168  -0.437   1.795
  138TIP3    H1  367   4.107  -0.409   1.725
  138TIP3    H2  368   4.253  -0.407   1.759
  139TIP3   OH2  369   4.784   0.234   1.436
  139TIP3    H1  370   4.848   0.197   1.372
  139TIP3    H2  371   4.708   0.177   1.422
  140TIP3   OH2  372   4.329   0.291   1.749
  140TIP3    H1  373   4.356   0.268   1.839
  140TIP3    H2  374   4.284   0.377   1.761
  141TIP3   OH2  375   3.503  -0.098   2.043
  141TIP3    H1  376   3.533  -0.087   2.136
  141TIP3    H2  377   3.445  -0.175   2.053
  142TIP3   OH2  378   4.231   0.032   2.058
  142TIP3    H1  379   4.168  -0.030   2.017
  142TIP3    H2  380   4.316  -0.002   2.022
  143TIP3   OH2  381   4.478   0.564   1.638
  143TIP3    H1  382   4.384   0.550   1.660
  143TIP3    H2  383   4.510   0.607   1.721
  144TIP3   OH2  384   5.124   0.474   1.653
  144TIP3    H1  385   5.025   0.478   1.648
  144TIP3    H2  386   5.145   0.442   1.563
  145TIP3   OH2  387   3.722   0.286   1.109
  145TIP3    H1  388   3.745   0.353   1.046
  145TIP3    H2  389   3.625   0.290   1.107
  146TIP3   OH2  390   4.000   0.637   1.541
  146TIP3    H1  391   4.040   0.697   1.477
  146TIP3    H2  392   4.078   0.598   1.584
  147TIP3   OH2  393   3.651   0.534   0.921
  147TIP3    H1  394   3.564   0.530   0.963
  147TIP3    H2  395   3.676   0.624   0.946
  148TIP3   OH2  396   4.373   0.280   1.484
  148TIP3    H1  397   4.355   0.285   1.580
  148TIP3    H2  398   4.437   0.209   1.481
  149TIP3   OH2  399   4.638   0.794   1.532
  149TIP3    H1  400   4.562   0.734   1.538
  149TIP3    H2  401   4.608   0.863   1.468
  150TIP3   OH2  402   3.445   0.483   1.680
  150TIP3    H1  403   3.517   0.428   1.716
  150TIP3    H2  404   3.453   0.562   1.736
  151TIP3   OH2  405   4.417  -0.262   1.805
  151TIP3    H1  406   4.434  -0.200   1.879
  151TIP3    H2  407   4.448  -0.345   1.843
  152TIP3   OH2  408   3.427   0.819   2.100
  152TIP3    H1  409   3.513   0.818   2.148
  152TIP3    H2  410   3.407   0.724   2.096
  153TIP3   OH2  411   3.898   0.762   2.148
  153TIP3    H1  412   3.992   0.743   2.149
  153TIP3    H2  413   3.868   0.701   2.077
  154TIP3   OH2  414   4.540   0.675   1.880
  154TIP3    H1  415   4.535   0.606   1.950
  154TIP3    H2  416   4.616   0.728   1.909
  155TIP3   OH2  417   3.549   0.218   2.300
  155TIP3    H1  418   3.565   0.122   2.310
  155TIP3    H2  419   3.462   0.218   2.255
  156TIP3   OH2  420   4.159   0.304   2.080
  156TIP3    H1  421   4.117   0.329   1.995
  156TIP3    H2  422   4.187   0.211   2.064
  157TIP3   OH2  423   4.640   0.318   1.700
  157TIP3    H1  424   4.713   0.360   1.651
  157TIP3    H2  425   4.568   0.381   1.683
  158TIP3   OH2  426   3.662  -0.044   2.283
  158TIP3    H1  427   3.734  -0.103   2.254
  158TIP3    H2  428   3.698  -0.013   2.369
  159TIP3   OH2  429   4.020  -0.148   1.954
  159TIP3    H1  430   3.938  -0.095   1.947
  159TIP3    H2  431   4.068  -0.120   1.873
  160TIP3   OH2  432   4.524   0.235   2.080
  160TIP3    H1  433   4.599   0.196   2.034
  160TIP3    H2  434   4.511   0.172   2.154
  161TIP3   OH2  435   4.120  -0.375   2.051
  161TIP3    H1  436   4.137  -0.414   1.962
  161TIP3    H2  437   4.077  -0.292   2.021
  162TIP3   OH2  438   4.157  -0.044   1.753
  162TIP3    H1  439   4.225  -0.054   1.686
  162TIP3    H2  440   4.095   0.018   1.709
  163TIP3   OH2  441   4.730  -0.078   2.122
  163TIP3    H1  442   4.772  -0.165   2.128
  163TIP3    H2  443   4.806  -0.019   2.109
  164TIP3   OH2  444   4.787   0.163   1.865
  164TIP3    H1  445   4.726   0.223   1.815
  164TIP3    H2  446   4.872   0.187   1.821
  165TIP3   OH2  447   3.976  -0.257   2.290
  165TIP3    H1  448   3.952  -0.341   2.330
  165TIP3    H2  449   4.029  -0.284   2.214
  166TIP3   OH2  450   4.373  -0.309   2.139
  166TIP3    H1  451   4.342  -0.311   2.233
  166TIP3    H2  452   4.290  -0.338   2.096
  167TIP3   OH2  453   4.665  -0.352   1.991
  167TIP3    H1  454   4.590  -0.370   2.049
  167TIP3    H2  455   4.736  -0.394   2.043
  168TIP3   OH2  456   4.892   0.891   1.068
  168TIP3    H1  457   4.899   0.902   1.164
  168TIP3    H2  458   4.983   0.905   1.039
  169TIP3   OH2  459   4.941   0.894   1.361
  169TIP3    H1  460   4.891   0.810   1.359
  169TIP3    H2  461   5.021   0.865   1.408
  170TIP3   OH2  462   4.977   0.563   1.937
  170TIP3    H1  463   4.907   0.574   2.004
  170TIP3    H2  464   5.022   0.650   1.941
  171TIP3   OH2  465   4.816   0.651   1.383
  171TIP3    H1  466   4.750   0.698   1.438
  171TIP3    H2  467   4.759   0.611   1.314
  172TIP3   OH2  468   5.028   0.226   1.756
  172TIP3    H1  469   5.107   0.172   1.777
  172TIP3    H2  470   5.065   0.302   1.707
  173TIP3   OH2  471   5.200   0.060   1.887
  173TIP3    H1  472   5.146  -0.018   1.860
  173TIP3    H2  473   5.285   0.045   1.841
  174TIP3   OH2  474   3.640  -0.378   2.309
  174TIP3    H1  475   3.723  -0.422   2.330
  174TIP3    H2  476   3.575  -0.446   2.337
  175TIP3   OH2  477   4.460   0.827   0.756
  175TIP3    H1  478   4.404   0.855   0.681
  175TIP3    H2  479   4.536   0.887   0.742
  176TIP3   OH2  480   3.587   0.540   2.119
  176TIP3    H1  481   3.493   0.519   2.103
  176TIP3    H2  482   3.595   0.523   2.214
  177TIP3   OH2  483   3.766   0.585   1.681
  177TIP3    H1  484   3.722   0.659   1.634
  177TIP3    H2  485   3.853   0.590   1.638
  178TIP3   OH2  486   4.205   0.813   1.808
  178TIP3    H1  487   4.245   0.811   1.897
  178TIP3    H2  488   4.272   0.864   1.758
  179TIP3   OH2  489   4.385   0.970   1.672
  179TIP3    H1  490   4.461   0.953   1.614
  179TIP3    H2  491   4.429   1.028   1.738
  180TIP3   OH2  492   3.445   0.827   1.693
  180TIP3    H1  493   3.352   0.854   1.676
  180TIP3    H2  494   3.461   0.872   1.777
  181TIP3   OH2  495   3.681   0.810   1.553
  181TIP3    H1  496   3.592   0.819   1.593
  181TIP3    H2  497   3.666   0.845   1.463
  182TIP3   OH2  498   4.099   0.837   1.347
  182TIP3    H1  499   4.019   0.847   1.291
  182TIP3    H2  500   4.101   0.922   1.395
  183TIP3   OH2  501   4.363   0.783   1.353
  183TIP3    H1  502   4.266   0.797   1.358
  183TIP3    H2  503   4.398   0.864   1.395
  184TIP3   OH2  504   3.365   0.633   1.455
  184TIP3    H1  505   3.410   0.590   1.529
  184TIP3    H2  506   3.428   0.616   1.383
  185TIP3   OH2  507   3.539   0.430   1.331
  185TIP3    H1  508   3.492   0.395   1.256
  185TIP3    H2  509   3.584   0.507   1.293
  186TIP3   OH2  510   3.878   0.604   1.280
  186TIP3    H1  511   3.876   0.507   1.276
  186TIP3    H2  512   3.875   0.614   1.377
  187TIP3   OH2  513   4.857   0.844   1.696
  187TIP3    H1  514   4.780   0.814   1.643
  187TIP3    H2  515   4.837   0.940   1.703
  188TIP3   OH2  516   5.812   0.701   1.405
  188TIP3    H1  517   5.734   0.747   1.442
  188TIP3    H2  518   5.770   0.652   1.331
  189TIP3   OH2  519   5.595   0.851   1.466
  189TIP3    H1  520   5.558   0.863   1.376
  189TIP3    H2  521   5.513   0.828   1.516
  190TIP3   OH2  522   5.174   0.382   1.405
  190TIP3    H1  523   5.125   0.433   1.337
  190TIP3    H2  524   5.213   0.314   1.345
  191TIP3   OH2  525   5.085   0.495   1.180
  191TIP3    H1  526   5.113   0.559   1.111
  191TIP3    H2  527   5.007   0.540   1.215
  192TIP3   OH2  528   5.930   0.859   1.212
  192TIP3    H1  529   5.944   0.946   1.256
  192TIP3    H2  530   5.882   0.811   1.282
  193TIP3   OH2  531   5.387   0.564   1.356
  193TIP3    H1  532   5.452   0.557   1.429
  193TIP3    H2  533   5.319   0.502   1.386
  194TIP3   OH2  534   6.582   1.390   1.196
  194TIP3    H1  535   6.578   1.365   1.102
  194TIP3    H2  536   6.674   1.417   1.208
  195TIP3   OH2  537   5.536   0.521   1.594
  195TIP3    H1  538   5.621   0.523   1.642
  195TIP3    H2  539   5.476   0.493   1.665
  196TIP3   OH2  540   5.243   0.764   1.190
  196TIP3    H1  541   5.285   0.689   1.237
  196TIP3    H2  542   5.305   0.836   1.213
  197TIP3   OH2  543   5.222   1.073   1.589
  197TIP3    H1  544   5.309   1.072   1.633
  197TIP3    H2  545   5.203   0.978   1.584
  198TIP3   OH2  546   5.701   1.022   1.646
  198TIP3    H1  547   5.794   0.996   1.641
  198TIP3    H2  548   5.664   0.963   1.577
  199TIP3   OH2  549   6.330   0.943   1.386
  199TIP3    H1  550   6.320   0.877   1.459
  199TIP3    H2  551   6.404   0.999   1.416
  200TIP3   OH2  552   5.354   0.469   1.802
  200TIP3    H1  553   5.374   0.373   1.801
  200TIP3    H2  554   5.267   0.472   1.757
  201TIP3   OH2  555   5.452   0.210   1.774
  201TIP3    H1  556   5.526   0.164   1.729
  201TIP3    H2  557   5.495   0.236   1.858
  202TIP3   OH2  558   5.373   0.809   1.613
  202TIP3    H1  559   5.282   0.780   1.594
  202TIP3    H2  560   5.390   0.767   1.698
  203TIP3   OH2  561   5.526   0.862   1.204
  203TIP3    H1  562   5.536   0.933   1.137
  203TIP3    H2  563   5.596   0.798   1.182
  204TIP3   OH2  564   6.000   1.104   1.309
  204TIP3    H1  565   6.043   1.096   1.396
  204TIP3    H2  566   6.073   1.142   1.256
  205TIP3   OH2  567   6.190   1.219   1.152
  205TIP3    H1  568   6.260   1.166   1.113
  205TIP3    H2  569   6.242   1.279   1.211
  206TIP3   OH2  570   5.251   1.100   1.178
  206TIP3    H1  571   5.157   1.124   1.161
  206TIP3    H2  572   5.261   1.132   1.268
  207TIP3   OH2  573   5.485   1.068   1.025
  207TIP3    H1  574   5.401   1.074   1.077
  207TIP3    H2  575   5.458   1.118   0.945
  208TIP3   OH2  576   5.197   0.905   0.950
  208TIP3    H1  577   5.192   0.864   1.039
  208TIP3    H2  578   5.278   0.862   0.918
  209TIP3   OH2  579   1.161   2.088   2.264
  209TIP3    H1  580   1.162   1.990   2.265
  209TIP3    H2  581   1.084   2.106   2.321
  210TIP3   OH2  582   0.849   2.418   2.352
  210TIP3    H1  583   0.843   2.444   2.258
  210TIP3    H2  584   0.934   2.461   2.377
  211TIP3   OH2  585   1.159   1.809   2.301
  211TIP3    H1  586   1.071   1.814   2.341
  211TIP3    H2  587   1.165   1.712   2.283
  212TIP3   OH2  588   0.628   1.974   2.590
  212TIP3    H1  589   0.597   1.900   2.647
  212TIP3    H2  590   0.722   1.975   2.616
  213TIP3   OH2  591   0.935   2.179   2.081
  213TIP3    H1  592   0.926   2.175   1.983
  213TIP3    H2  593   1.024   2.143   2.094
  214TIP3   OH2  594   1.016   1.870   2.591
  214TIP3    H1  595   0.951   1.875   2.664
  214TIP3    H2  596   1.065   1.954   2.603
  215TIP3   OH2  597   1.022   1.510   2.498
  215TIP3    H1  598   1.090   1.439   2.504
  215TIP3    H2  599   1.030   1.532   2.403
  216TIP3   OH2  600   1.216   1.325   2.536
  216TIP3    H1  601   1.168   1.241   2.530
  216TIP3    H2  602   1.308   1.297   2.523
  217TIP3   OH2  603   0.447   2.234   2.366
  217TIP3    H1  604   0.499   2.226   2.284
  217TIP3    H2  605   0.384   2.307   2.340
  218TIP3   OH2  606   0.898   2.144   2.357
  218TIP3    H1  607   0.884   2.126   2.262
  218TIP3    H2  608   0.879   2.240   2.359
  219TIP3   OH2  609   2.189   1.491   1.522
  219TIP3    H1  610   2.212   1.506   1.616
  219TIP3    H2  611   2.208   1.395   1.518
  220TIP3   OH2  612   2.414   1.815   1.209
  220TIP3    H1  613   2.419   1.752   1.283
  220TIP3    H2  614   2.442   1.898   1.253
  221TIP3   OH2  615   2.052   2.286   1.197
  221TIP3    H1  616   2.094   2.215   1.144
  221TIP3    H2  617   2.045   2.245   1.283
  222TIP3   OH2  618   1.958   1.785   1.583
  222TIP3    H1  619   1.951   1.714   1.518
  222TIP3    H2  620   2.056   1.794   1.593
  223TIP3   OH2  621   2.987   1.060   1.556
  223TIP3    H1  622   3.023   1.142   1.597
  223TIP3    H2  623   2.996   1.081   1.462
  224TIP3   OH2  624   2.278   1.228   1.507
  224TIP3    H1  625   2.250   1.164   1.574
  224TIP3    H2  626   2.369   1.250   1.538
  225TIP3   OH2  627   3.077   1.263   1.725
  225TIP3    H1  628   3.002   1.322   1.699
  225TIP3    H2  629   3.059   1.259   1.820
  226TIP3   OH2  630   1.847   1.691   1.812
  226TIP3    H1  631   1.771   1.750   1.828
  226TIP3    H2  632   1.885   1.730   1.730
  227TIP3   OH2  633   2.597   1.041   1.409
  227TIP3    H1  634   2.644   1.035   1.493
  227TIP3    H2  635   2.648   1.114   1.369
  228TIP3   OH2  636   1.646   1.865   1.876
  228TIP3    H1  637   1.620   1.955   1.842
  228TIP3    H2  638   1.566   1.842   1.926
  229TIP3   OH2  639   2.485   2.054   1.339
  229TIP3    H1  640   2.399   2.051   1.386
  229TIP3    H2  641   2.485   2.147   1.310
  230TIP3   OH2  642   2.822   0.956   1.749
  230TIP3    H1  643   2.725   0.954   1.724
  230TIP3    H2  644   2.863   0.987   1.666
  231TIP3   OH2  645   2.182   2.105   1.029
  231TIP3    H1  646   2.236   2.026   1.011
  231TIP3    H2  647   2.233   2.173   0.979
  232TIP3   OH2  648   2.323   1.873   0.956
  232TIP3    H1  649   2.314   1.782   0.924
  232TIP3    H2  650   2.359   1.856   1.046
  233TIP3   OH2  651   2.695   1.995   1.666
  233TIP3    H1  652   2.700   1.904   1.629
  233TIP3    H2  653   2.612   2.024   1.625
  234TIP3   OH2  654   2.905   1.634   1.538
  234TIP3    H1  655   2.813   1.669   1.540
  234TIP3    H2  656   2.927   1.645   1.443
  235TIP3   OH2  657   2.595   1.494   1.893
  235TIP3    H1  658   2.548   1.577   1.910
  235TIP3    H2  659   2.570   1.473   1.801
  236TIP3   OH2  660   1.753   1.911   1.454
  236TIP3    H1  661   1.746   1.825   1.412
  236TIP3    H2  662   1.822   1.891   1.520
  237TIP3   OH2  663   2.253   2.056   1.475
  237TIP3    H1  664   2.236   2.139   1.523
  237TIP3    H2  665   2.230   1.986   1.539
  238TIP3   OH2  666   1.859   1.977   2.017
  238TIP3    H1  667   1.795   2.037   2.061
  238TIP3    H2  668   1.798   1.921   1.964
  239TIP3   OH2  669   1.589   1.550   2.097
  239TIP3    H1  670   1.607   1.637   2.138
  239TIP3    H2  671   1.522   1.515   2.157
  240TIP3   OH2  672   1.651   2.139   2.104
  240TIP3    H1  673   1.612   2.148   2.014
  240TIP3    H2  674   1.571   2.119   2.158
  241TIP3   OH2  675   2.902   2.283   1.697
  241TIP3    H1  676   2.922   2.205   1.754
  241TIP3    H2  677   2.840   2.331   1.757
  242TIP3   OH2  678   2.057   2.105   1.883
  242TIP3    H1  679   2.054   2.197   1.916
  242TIP3    H2  680   1.987   2.063   1.937
  243TIP3   OH2  681   2.832   1.454   2.021
  243TIP3    H1  682   2.748   1.468   1.972
  243TIP3    H2  683   2.848   1.360   2.002
  244TIP3   OH2  684   1.430   1.851   2.047
  244TIP3    H1  685   1.493   1.846   2.122
  244TIP3    H2  686   1.352   1.810   2.086
  245TIP3   OH2  687   2.378   0.839   2.064
  245TIP3    H1  688   2.449   0.794   2.115
  245TIP3    H2  689   2.321   0.765   2.040
  246TIP3   OH2  690   2.606   1.212   1.953
  246TIP3    H1  691   2.556   1.229   2.035
  246TIP3    H2  692   2.590   1.293   1.901
  247TIP3   OH2  693   2.315   1.449   2.180
  247TIP3    H1  694   2.293   1.373   2.239
  247TIP3    H2  695   2.411   1.456   2.196
  248TIP3   OH2  696   2.305   1.457   1.761
  248TIP3    H1  697   2.384   1.413   1.723
  248TIP3    H2  698   2.282   1.394   1.833
  249TIP3   OH2  699   2.557   0.965   1.677
  249TIP3    H1  700   2.499   0.988   1.752
  249TIP3    H2  701   2.517   1.018   1.607
  250TIP3   OH2  702   2.646   2.673   1.850
  250TIP3    H1  703   2.640   2.704   1.758
  250TIP3    H2  704   2.727   2.718   1.880
  251TIP3   OH2  705   1.597   1.784   2.262
  251TIP3    H1  706   1.679   1.810   2.309
  251TIP3    H2  707   1.534   1.779   2.337
  252TIP3   OH2  708   2.664   1.763   1.526
  252TIP3    H1  709   2.683   1.812   1.444
  252TIP3    H2  710   2.581   1.715   1.502
  253TIP3   OH2  711   2.187   1.850   1.896
  253TIP3    H1  712   2.203   1.820   1.985
  253TIP3    H2  713   2.137   1.933   1.908
  254TIP3   OH2  714   2.078   1.584   2.200
  254TIP3    H1  715   2.035   1.546   2.122
  254TIP3    H2  716   2.168   1.546   2.189
  255TIP3   OH2  717   2.337   2.107   1.794
  255TIP3    H1  718   2.241   2.098   1.808
  255TIP3    H2  719   2.362   2.158   1.874
  256TIP3   OH2  720   2.950   2.021   1.783
  256TIP3    H1  721   2.853   2.020   1.769
  256TIP3    H2  722   2.980   1.992   1.694
  257TIP3   OH2  723   2.432   1.638   1.434
  257TIP3    H1  724   2.351   1.602   1.474
  257TIP3    H2  725   2.469   1.556   1.395
  258TIP3   OH2  726   1.840   2.186   1.699
  258TIP3    H1  727   1.885   2.246   1.634
  258TIP3    H2  728   1.912   2.158   1.752
  259TIP3   OH2  729   2.230   1.816   1.632
  259TIP3    H1  730   2.216   1.822   1.729
  259TIP3    H2  731   2.317   1.777   1.628
  260TIP3   OH2  732   2.465   2.370   1.694
  260TIP3    H1  733   2.406   2.293   1.684
  260TIP3    H2  734   2.450   2.418   1.610
  261TIP3   OH2  735   2.532   2.200   0.343
  261TIP3    H1  736   2.581   2.257   0.281
  261TIP3    H2  737   2.460   2.260   0.369
  262TIP3   OH2  738   1.258   2.029   1.889
  262TIP3    H1  739   1.340   1.995   1.928
  262TIP3    H2  740   1.281   2.118   1.860
  263TIP3   OH2  741   2.393   1.052   1.895
  263TIP3    H1  742   2.476   1.097   1.922
  263TIP3    H2  743   2.383   0.984   1.966
  264TIP3   OH2  744   2.237   1.285   1.956
  264TIP3    H1  745   2.271   1.327   2.038
  264TIP3    H2  746   2.282   1.199   1.955
  265TIP3   OH2  747   2.872   1.183   1.935
  265TIP3    H1  748   2.775   1.184   1.954
  265TIP3    H2  749   2.871   1.118   1.862
  266TIP3   OH2  750   2.513   1.404   1.328
  266TIP3    H1  751   2.539   1.337   1.263
  266TIP3    H2  752   2.539   1.362   1.413
  267TIP3   OH2  753   2.503   2.332   1.273
  267TIP3    H1  754   2.457   2.375   1.197
  267TIP3    H2  755   2.594   2.362   1.259
  268TIP3   OH2  756   1.268   2.376   2.255
  268TIP3    H1  757   1.354   2.378   2.303
  268TIP3    H2  758   1.252   2.281   2.248
  269TIP3   OH2  759   1.735   2.319   2.297
  269TIP3    H1  760   1.830   2.308   2.305
  269TIP3    H2  761   1.715   2.256   2.225
  270TIP3   OH2  762   2.382   2.235   2.031
  270TIP3    H1  763   2.376   2.165   2.101
  270TIP3    H2  764   2.459   2.287   2.062
  271TIP3   OH2  765   1.395   1.769   2.454
  271TIP3    H1  766   1.401   1.672   2.462
  271TIP3    H2  767   1.308   1.781   2.411
  272TIP3   OH2  768   1.996   1.858   2.227
  272TIP3    H1  769   1.958   1.881   2.140
  272TIP3    H2  770   2.029   1.767   2.214
  273TIP3   OH2  771   2.492   1.867   1.828
  273TIP3    H1  772   2.564   1.923   1.795
  273TIP3    H2  773   2.416   1.928   1.822
  274TIP3   OH2  774   1.522   1.498   2.436
  274TIP3    H1  775   1.607   1.459   2.413
  274TIP3    H2  776   1.542   1.537   2.524
  275TIP3   OH2  777   1.813   1.356   2.057
  275TIP3    H1  778   1.751   1.430   2.066
  275TIP3    H2  779   1.887   1.400   2.009
  276TIP3   OH2  780   2.369   1.791   2.225
  276TIP3    H1  781   2.443   1.755   2.175
  276TIP3    H2  782   2.361   1.728   2.299
  277TIP3   OH2  783   1.961   1.185   2.227
  277TIP3    H1  784   1.971   1.099   2.184
  277TIP3    H2  785   1.919   1.239   2.156
  278TIP3   OH2  786   2.000   1.505   1.935
  278TIP3    H1  787   2.078   1.495   1.878
  278TIP3    H2  788   1.946   1.570   1.883
  279TIP3   OH2  789   2.579   1.466   2.280
  279TIP3    H1  790   2.615   1.377   2.286
  279TIP3    H2  791   2.649   1.512   2.230
  280TIP3   OH2  792   2.615   1.752   2.040
  280TIP3    H1  793   2.560   1.794   1.969
  280TIP3    H2  794   2.701   1.749   1.994
  281TIP3   OH2  795   1.839   1.288   2.457
  281TIP3    H1  796   1.779   1.213   2.477
  281TIP3    H2  797   1.877   1.260   2.371
  282TIP3   OH2  798   2.227   1.230   2.320
  282TIP3    H1  799   2.215   1.212   2.415
  282TIP3    H2  800   2.136   1.211   2.288
  283TIP3   OH2  801   2.470   1.197   2.184
  283TIP3    H1  802   2.394   1.184   2.244
  283TIP3    H2  803   2.544   1.155   2.232
  284TIP3   OH2  804   2.703   1.124   2.318
  284TIP3    H1  805   2.714   1.027   2.329
  284TIP3    H2  806   2.699   1.155   2.411
  285TIP3   OH2  807   1.699   1.057   2.517
  285TIP3    H1  808   1.745   0.984   2.474
  285TIP3    H2  809   1.729   1.044   2.609
  286TIP3   OH2  810   2.206   0.766   2.360
  286TIP3    H1  811   2.271   0.694   2.344
  286TIP3    H2  812   2.134   0.745   2.300
  287TIP3   OH2  813   2.267   0.963   2.530
  287TIP3    H1  814   2.253   0.893   2.462
  287TIP3    H2  815   2.185   1.016   2.519
  288TIP3   OH2  816   2.774   2.429   1.285
  288TIP3    H1  817   2.776   2.528   1.296
  288TIP3    H2  818   2.804   2.424   1.193
  289TIP3   OH2  819   2.818   2.124   2.083
  289TIP3    H1  820   2.749   2.131   2.152
  289TIP3    H2  821   2.863   2.210   2.092
  290TIP3   OH2  822   2.645   1.683   0.721
  290TIP3    H1  823   2.716   1.739   0.685
  290TIP3    H2  824   2.688   1.643   0.799
  291TIP3   OH2  825   2.778   1.528   0.902
  291TIP3    H1  826   2.713   1.475   0.952
  291TIP3    H2  827   2.844   1.550   0.972
  292TIP3   OH2  828   2.826   1.903   1.343
  292TIP3    H1  829   2.877   1.828   1.304
  292TIP3    H2  830   2.812   1.961   1.267
  293TIP3   OH2  831   2.865   1.784   1.913
  293TIP3    H1  832   2.929   1.709   1.905
  293TIP3    H2  833   2.905   1.850   1.855
  294TIP3   OH2  834   3.049   1.583   1.919
  294TIP3    H1  835   2.971   1.533   1.952
  294TIP3    H2  836   3.120   1.520   1.942
  295TIP3   OH2  837   2.779   1.244   1.418
  295TIP3    H1  838   2.867   1.286   1.419
  295TIP3    H2  839   2.737   1.277   1.499
  296TIP3   OH2  840   2.852   1.405   1.693
  296TIP3    H1  841   2.757   1.382   1.688
  296TIP3    H2  842   2.856   1.490   1.645
  297TIP3   OH2  843   1.439   1.150   2.553
  297TIP3    H1  844   1.532   1.122   2.535
  297TIP3    H2  845   1.402   1.065   2.580
  298TIP3   OH2  846   3.258   0.994   2.226
  298TIP3    H1  847   3.319   0.929   2.185
  298TIP3    H2  848   3.226   1.043   2.147
  299TIP3   OH2  849   3.124   1.123   2.027
  299TIP3    H1  850   3.037   1.165   2.041
  299TIP3    H2  851   3.094   1.043   1.979
  300TIP3   OH2  852   2.332   2.285   0.888
  300TIP3    H1  853   2.384   2.282   0.806
  300TIP3    H2  854   2.369   2.361   0.935
  301TIP3   OH2  855   1.437   2.095   2.267
  301TIP3    H1  856   1.340   2.086   2.259
  301TIP3    H2  857   1.451   2.081   2.362
  302TIP3   OH2  858   1.602   2.130   1.824
  302TIP3    H1  859   1.562   2.212   1.785
  302TIP3    H2  860   1.693   2.143   1.789
  303TIP3   OH2  861   2.046   2.373   1.957
  303TIP3    H1  862   2.090   2.372   2.045
  303TIP3    H2  863   2.111   2.425   1.905
  304TIP3   OH2  864   2.229   2.526   1.819
  304TIP3    H1  865   2.300   2.472   1.779
  304TIP3    H2  866   2.282   2.583   1.879
  305TIP3   OH2  867   3.017   0.892   1.918
  305TIP3    H1  868   2.937   0.910   1.863
  305TIP3    H2  869   3.007   0.796   1.930
  306TIP3   OH2  870   1.288   2.383   1.854
  306TIP3    H1  871   1.194   2.403   1.835
  306TIP3    H2  872   1.308   2.448   1.923
  307TIP3   OH2  873   1.522   2.363   1.712
  307TIP3    H1  874   1.434   2.372   1.753
  307TIP3    H2  875   1.504   2.394   1.621
  308TIP3   OH2  876   1.951   2.387   1.505
  308TIP3    H1  877   1.888   2.406   1.434
  308TIP3    H2  878   1.962   2.475   1.545
  309TIP3   OH2  879   2.216   2.324   1.549
  309TIP3    H1  880   2.120   2.340   1.535
  309TIP3    H2  881   2.255   2.404   1.510
  310TIP3   OH2  882   2.441   2.521   1.464
  310TIP3    H1  883   2.419   2.603   1.416
  310TIP3    H2  884   2.451   2.456   1.390
  311TIP3   OH2  885   1.675   2.172   1.451
  311TIP3    H1  886   1.708   2.080   1.433
  311TIP3    H2  887   1.683   2.169   1.548
  312TIP3   OH2  888   2.479   2.255   0.648
  312TIP3    H1  889   2.480   2.170   0.602
  312TIP3    H2  890   2.433   2.311   0.581
  313TIP3   OH2  891   1.919   0.802   2.577
  313TIP3    H1  892   1.999   0.772   2.531
  313TIP3    H2  893   1.897   0.721   2.628
  314TIP3   OH2  894   2.758   0.849   2.344
  314TIP3    H1  895   2.775   0.819   2.435
  314TIP3    H2  896   2.848   0.842   2.305
  315TIP3   OH2  897   2.699   2.404   1.832
  315TIP3    H1  898   2.613   2.380   1.791
  315TIP3    H2  899   2.684   2.498   1.851
  316TIP3   OH2  900   3.966   1.779   0.605
  316TIP3    H1  901   3.931   1.867   0.580
  316TIP3    H2  902   3.895   1.722   0.569
  317TIP3   OH2  903   3.964   1.787   1.003
  317TIP3    H1  904   4.004   1.747   1.083
  317TIP3    H2  905   3.928   1.708   0.959
  318TIP3   OH2  906   3.258   1.663   1.354
  318TIP3    H1  907   3.285   1.591   1.414
  318TIP3    H2  908   3.338   1.717   1.355
  319TIP3   OH2  909   4.212   2.079   0.673
  319TIP3    H1  910   4.200   2.009   0.738
  319TIP3    H2  911   4.249   2.152   0.726
  320TIP3   OH2  912   3.235   2.083   1.077
  320TIP3    H1  913   3.229   1.985   1.074
  320TIP3    H2  914   3.331   2.094   1.071
  321TIP3   OH2  915   2.945   1.299   0.847
  321TIP3    H1  916   2.884   1.374   0.856
  321TIP3    H2  917   2.890   1.228   0.885
  322TIP3   OH2  918   3.010   1.571   1.043
  322TIP3    H1  919   3.058   1.492   1.077
  322TIP3    H2  920   3.066   1.597   0.969
  323TIP3   OH2  921   3.865   2.542   0.689
  323TIP3    H1  922   3.901   2.470   0.633
  323TIP3    H2  923   3.842   2.495   0.770
  324TIP3   OH2  924   3.753   2.001   1.028
  324TIP3    H1  925   3.792   1.916   1.001
  324TIP3    H2  926   3.831   2.059   1.023
  325TIP3   OH2  927   4.804   1.324   1.026
  325TIP3    H1  928   4.821   1.404   1.079
  325TIP3    H2  929   4.807   1.358   0.936
  326TIP3   OH2  930   4.177   1.506   1.063
  326TIP3    H1  931   4.215   1.418   1.088
  326TIP3    H2  932   4.144   1.484   0.974
  327TIP3   OH2  933   3.516   1.162   1.027
  327TIP3    H1  934   3.494   1.233   0.964
  327TIP3    H2  935   3.478   1.084   0.981
  328TIP3   OH2  936   4.214   1.255   0.650
  328TIP3    H1  937   4.285   1.240   0.717
  328TIP3    H2  938   4.267   1.292   0.577
  329TIP3   OH2  939   3.160   1.363   1.135
  329TIP3    H1  940   3.243   1.340   1.182
  329TIP3    H2  941   3.164   1.299   1.061
  330TIP3   OH2  942   3.587   1.561   0.939
  330TIP3    H1  943   3.681   1.538   0.952
  330TIP3    H2  944   3.550   1.476   0.906
  331TIP3   OH2  945   4.854   1.533   1.202
  331TIP3    H1  946   4.767   1.574   1.184
  331TIP3    H2  947   4.862   1.551   1.297
  332TIP3   OH2  948   3.505   1.147   1.473
  332TIP3    H1  949   3.447   1.183   1.405
  332TIP3    H2  950   3.450   1.162   1.553
  333TIP3   OH2  951   3.843   1.992   0.480
  333TIP3    H1  952   3.814   1.989   0.387
  333TIP3    H2  953   3.801   2.076   0.509
  334TIP3   OH2  954   3.617   1.922   1.253
  334TIP3    H1  955   3.555   1.989   1.292
  334TIP3    H2  956   3.652   1.970   1.175
  335TIP3   OH2  957   4.414   1.260   0.834
  335TIP3    H1  958   4.389   1.226   0.921
  335TIP3    H2  959   4.468   1.338   0.859
  336TIP3   OH2  960   3.390   1.263   1.249
  336TIP3    H1  961   3.456   1.331   1.275
  336TIP3    H2  962   3.439   1.219   1.175
  337TIP3   OH2  963   3.448   2.118   1.358
  337TIP3    H1  964   3.420   2.206   1.325
  337TIP3    H2  965   3.369   2.096   1.412
  338TIP3   OH2  966   2.848   1.823   0.591
  338TIP3    H1  967   2.827   1.867   0.507
  338TIP3    H2  968   2.888   1.899   0.639
  339TIP3   OH2  969   4.277   2.324   0.834
  339TIP3    H1  970   4.186   2.315   0.871
  339TIP3    H2  971   4.270   2.409   0.788
  340TIP3   OH2  972   3.877   0.868   1.181
  340TIP3    H1  973   3.858   0.773   1.199
  340TIP3    H2  974   3.803   0.910   1.229
  341TIP3   OH2  975   3.974   2.365   0.504
  341TIP3    H1  976   4.023   2.281   0.487
  341TIP3    H2  977   4.039   2.430   0.469
  342TIP3   OH2  978   4.117   2.148   0.422
  342TIP3    H1  979   4.103   2.066   0.373
  342TIP3    H2  980   4.156   2.115   0.506
  343TIP3   OH2  981   4.498   2.232   1.181
  343TIP3    H1  982   4.490   2.155   1.120
  343TIP3    H2  983   4.486   2.307   1.120
  344TIP3   OH2  984   3.801   1.629   0.442
  344TIP3    H1  985   3.722   1.684   0.422
  344TIP3    H2  986   3.840   1.617   0.354
  345TIP3   OH2  987   3.763   1.401   0.168
  345TIP3    H1  988   3.837   1.461   0.190
  345TIP3    H2  989   3.809   1.325   0.132
  346TIP3   OH2  990   4.697   1.875   1.028
  346TIP3    H1  991   4.612   1.925   1.029
  346TIP3    H2  992   4.729   1.898   0.938
  347TIP3   OH2  993   4.143   1.709   0.406
  347TIP3    H1  994   4.090   1.733   0.485
  347TIP3    H2  995   4.228   1.684   0.449
  348TIP3   OH2  996   4.379   1.745   1.332
  348TIP3    H1  997   4.375   1.824   1.389
  348TIP3    H2  998   4.293   1.750   1.286
  349TIP3   OH2  999   3.375   1.701   0.826
  349TIP3    H1 1000   3.339   1.641   0.757
  349TIP3    H2 1001   3.452   1.650   0.859
  350TIP3   OH2 1002   3.499   2.120   0.969
  350TIP3    H1 1003   3.477   2.093   0.879
  350TIP3    H2 1004   3.586   2.076   0.983
  351TIP3   OH2 1005   3.510   1.674   1.183
  351TIP3    H1 1006   3.542   1.646   1.094
  351TIP3    H2 1007   3.553   1.762   1.195
  352TIP3   OH2 1008   4.039   2.313   0.968
  352TIP3    H1 1009   4.022   2.405   0.997
  352TIP3    H2 1010   4.028   2.261   1.048
  353TIP3   OH2 1011   3.657   2.223   1.508
  353TIP3    H1 1012   3.594   2.286   1.549
  353TIP3    H2 1013   3.594   2.170   1.454
  354TIP3   OH2 1014   3.980   1.569   0.229
  354TIP3    H1 1015   4.039   1.630   0.279
  354TIP3    H2 1016   4.008   1.591   0.136
  355TIP3   OH2 1017   3.405   1.791   1.609
  355TIP3    H1 1018   3.410   1.877   1.654
  355TIP3    H2 1019   3.313   1.765   1.629
  356TIP3   OH2 1020   3.731   2.244   0.515
  356TIP3    H1 1021   3.815   2.293   0.513
  356TIP3    H2 1022   3.673   2.300   0.463
  357TIP3   OH2 1023   3.447   2.393   1.589
  357TIP3    H1 1024   3.409   2.403   1.500
  357TIP3    H2 1025   3.366   2.378   1.643
  358TIP3   OH2 1026   3.255   1.538   0.625
  358TIP3    H1 1027   3.189   1.591   0.574
  358TIP3    H2 1028   3.201   1.463   0.653
  359TIP3   OH2 1029   4.276   2.183  -0.181
  359TIP3    H1 1030   4.302   2.277  -0.180
  359TIP3    H2 1031   4.364   2.139  -0.184
  360TIP3   OH2 1032   3.023   1.933   1.539
  360TIP3    H1 1033   2.953   1.907   1.475
  360TIP3    H2 1034   3.059   1.845   1.565
  361TIP3   OH2 1035   2.888   2.144   1.172
  361TIP3    H1 1036   2.971   2.097   1.156
  361TIP3    H2 1037   2.921   2.231   1.197
  362TIP3   OH2 1038   4.742   2.581   1.232
  362TIP3    H1 1039   4.741   2.485   1.248
  362TIP3    H2 1040   4.658   2.606   1.276
  363TIP3   OH2 1041   3.615   2.487   0.314
  363TIP3    H1 1042   3.569   2.472   0.229
  363TIP3    H2 1043   3.580   2.573   0.341
  364TIP3   OH2 1044   3.047   2.337   0.703
  364TIP3    H1 1045   3.096   2.329   0.787
  364TIP3    H2 1046   3.004   2.250   0.697
  365TIP3   OH2 1047   3.800   2.389  -0.034
  365TIP3    H1 1048   3.859   2.330  -0.086
  365TIP3    H2 1049   3.848   2.398   0.050
  366TIP3   OH2 1050   3.870   2.448   0.231
  366TIP3    H1 1051   3.779   2.454   0.265
  366TIP3    H2 1052   3.917   2.409   0.307
  367TIP3   OH2 1053   4.627   1.707   1.504
  367TIP3    H1 1054   4.544   1.710   1.454
  367TIP3    H2 1055   4.650   1.612   1.498
  368TIP3   OH2 1056   3.225   2.116   1.521
  368TIP3    H1 1057   3.279   2.100   1.601
  368TIP3    H2 1058   3.157   2.046   1.529
  369TIP3   OH2 1059   3.658   0.961   1.320
  369TIP3    H1 1060   3.609   0.895   1.266
  369TIP3    H2 1061   3.585   1.012   1.362
  370TIP3   OH2 1062   4.160   1.053   1.508
  370TIP3    H1 1063   4.229   1.029   1.573
  370TIP3    H2 1064   4.077   1.036   1.557
  371TIP3   OH2 1065   4.400   1.483   1.430
  371TIP3    H1 1066   4.346   1.478   1.512
  371TIP3    H2 1067   4.374   1.569   1.393
  372TIP3   OH2 1068   4.059   1.617  -0.027
  372TIP3    H1 1069   4.033   1.587  -0.115
  372TIP3    H2 1070   4.143   1.663  -0.049
  373TIP3   OH2 1071   3.798   1.001   0.286
  373TIP3    H1 1072   3.762   0.991   0.376
  373TIP3    H2 1073   3.760   0.926   0.240
  374TIP3   OH2 1074   3.566   1.457   1.337
  374TIP3    H1 1075   3.512   1.473   1.417
  374TIP3    H2 1076   3.546   1.538   1.284
  375TIP3   OH2 1077   3.442   1.343   0.839
  375TIP3    H1 1078   3.350   1.312   0.857
  375TIP3    H2 1079   3.451   1.318   0.745
  376TIP3   OH2 1080   3.934   1.425   0.577
  376TIP3    H1 1081   3.887   1.497   0.531
  376TIP3    H2 1082   3.991   1.389   0.506
  377TIP3   OH2 1083   4.108   1.700   1.656
  377TIP3    H1 1084   4.083   1.628   1.718
  377TIP3    H2 1085   4.202   1.711   1.679
  378TIP3   OH2 1086   4.091   1.452   0.808
  378TIP3    H1 1087   4.025   1.472   0.738
  378TIP3    H2 1088   4.130   1.372   0.766
  379TIP3   OH2 1089   3.374   1.480   1.536
  379TIP3    H1 1090   3.402   1.536   1.609
  379TIP3    H2 1091   3.356   1.395   1.582
  380TIP3   OH2 1092   2.993   1.061   1.101
  380TIP3    H1 1093   3.050   1.089   1.174
  380TIP3    H2 1094   2.944   0.989   1.146
  381TIP3   OH2 1095   4.103   1.702   1.231
  381TIP3    H1 1096   4.138   1.631   1.172
  381TIP3    H2 1097   4.074   1.647   1.307
  382TIP3   OH2 1098   3.779   1.169   0.911
  382TIP3    H1 1099   3.700   1.164   0.968
  382TIP3    H2 1100   3.851   1.148   0.974
  383TIP3   OH2 1101   3.200   1.229   0.888
  383TIP3    H1 1102   3.110   1.263   0.868
  383TIP3    H2 1103   3.180   1.133   0.877
  384TIP3   OH2 1104   3.484   1.249   0.581
  384TIP3    H1 1105   3.577   1.232   0.608
  384TIP3    H2 1106   3.499   1.290   0.495
  385TIP3   OH2 1107   4.230   1.237   1.097
  385TIP3    H1 1108   4.221   1.248   1.194
  385TIP3    H2 1109   4.151   1.184   1.076
  386TIP3   OH2 1110   4.440   2.926   1.329
  386TIP3    H1 1111   4.437   2.956   1.236
  386TIP3    H2 1112   4.519   2.973   1.362
  387TIP3   OH2 1113   3.389   2.044   1.743
  387TIP3    H1 1114   3.469   2.070   1.793
  387TIP3    H2 1115   3.326   2.034   1.817
  388TIP3   OH2 1116   3.848   1.498   1.007
  388TIP3    H1 1117   3.921   1.450   0.965
  388TIP3    H2 1118   3.845   1.455   1.095
  389TIP3   OH2 1119   3.450   0.952   0.858
  389TIP3    H1 1120   3.521   0.891   0.886
  389TIP3    H2 1121   3.485   0.984   0.774
  390TIP3   OH2 1122   3.830   1.407   1.270
  390TIP3    H1 1123   3.739   1.426   1.302
  390TIP3    H2 1124   3.886   1.454   1.335
  391TIP3   OH2 1125   3.571   1.786   0.386
  391TIP3    H1 1126   3.498   1.721   0.376
  391TIP3    H2 1127   3.551   1.821   0.476
  392TIP3   OH2 1128   4.459   2.018   1.009
  392TIP3    H1 1129   4.488   2.068   0.930
  392TIP3    H2 1130   4.378   1.972   0.977
  393TIP3   OH2 1131   4.058   1.086   0.255
  393TIP3    H1 1132   3.964   1.056   0.251
  393TIP3    H2 1133   4.049   1.181   0.273
  394TIP3   OH2 1134   4.091   1.345   0.360
  394TIP3    H1 1135   4.188   1.350   0.369
  394TIP3    H2 1136   4.072   1.423   0.304
  395TIP3   OH2 1137   3.263   1.811   1.059
  395TIP3    H1 1138   3.300   1.775   0.976
  395TIP3    H2 1139   3.296   1.748   1.125
  396TIP3   OH2 1140   3.715   1.930   0.202
  396TIP3    H1 1141   3.667   2.016   0.211
  396TIP3    H2 1142   3.665   1.876   0.267
  397TIP3   OH2 1143   3.141   1.721   1.678
  397TIP3    H1 1144   3.150   1.702   1.773
  397TIP3    H2 1145   3.071   1.657   1.653
  398TIP3   OH2 1146   3.868   1.842   1.696
  398TIP3    H1 1147   3.803   1.779   1.661
  398TIP3    H2 1148   3.952   1.802   1.665
  399TIP3   OH2 1149   4.534   1.430   0.215
  399TIP3    H1 1150   4.455   1.394   0.167
  399TIP3    H2 1151   4.546   1.511   0.161
  400TIP3   OH2 1152   4.752   2.292   1.269
  400TIP3    H1 1153   4.654   2.283   1.262
  400TIP3    H2 1154   4.778   2.261   1.179
  401TIP3   OH2 1155   4.243   2.249   0.096
  401TIP3    H1 1156   4.207   2.185   0.158
  401TIP3    H2 1157   4.237   2.201   0.011
  402TIP3   OH2 1158   4.223   1.882   0.928
  402TIP3    H1 1159   4.132   1.851   0.942
  402TIP3    H2 1160   4.263   1.803   0.887
  403TIP3   OH2 1161   3.364   2.111   0.696
  403TIP3    H1 1162   3.361   2.190   0.638
  403TIP3    H2 1163   3.271   2.086   0.697
  404TIP3   OH2 1164   3.488   1.869   0.630
  404TIP3    H1 1165   3.458   1.960   0.652
  404TIP3    H2 1166   3.453   1.818   0.704
  405TIP3   OH2 1167   3.622   2.460   1.155
  405TIP3    H1 1168   3.663   2.526   1.095
  405TIP3    H2 1169   3.684   2.463   1.228
  406TIP3   OH2 1170   3.279   2.345   0.543
  406TIP3    H1 1171   3.192   2.358   0.586
  406TIP3    H2 1172   3.314   2.437   0.544
  407TIP3   OH2 1173   4.060   2.078   1.144
  407TIP3    H1 1174   4.030   2.004   1.198
  407TIP3    H2 1175   4.105   2.034   1.071
  408TIP3   OH2 1176   3.981   1.990   0.018
  408TIP3    H1 1177   4.049   1.960   0.080
  408TIP3    H2 1178   3.900   1.966   0.065
  409TIP3   OH2 1179   4.256   2.612   1.157
  409TIP3    H1 1180   4.167   2.577   1.135
  409TIP3    H2 1181   4.260   2.684   1.089
  410TIP3   OH2 1182   4.325   2.455  -0.173
  410TIP3    H1 1183   4.373   2.534  -0.201
  410TIP3    H2 1184   4.242   2.496  -0.140
  411TIP3   OH2 1185   3.341   1.230   1.677
  411TIP3    H1 1186   3.243   1.236   1.689
  411TIP3    H2 1187   3.363   1.172   1.752
  412TIP3   OH2 1188   4.158   1.916   0.222
  412TIP3    H1 1189   4.147   1.844   0.287
  412TIP3    H2 1190   4.255   1.909   0.206
  413TIP3   OH2 1191   3.055   2.307   1.368
  413TIP3    H1 1192   3.128   2.246   1.394
  413TIP3    H2 1193   3.099   2.393   1.374
  414TIP3   OH2 1194   3.352   1.935  -0.016
  414TIP3    H1 1195   3.442   1.896  -0.017
  414TIP3    H2 1196   3.331   1.939   0.079
  415TIP3   OH2 1197   3.300   1.964   0.259
  415TIP3    H1 1198   3.373   1.933   0.314
  415TIP3    H2 1199   3.306   2.062   0.271
  416TIP3   OH2 1200   3.058   1.671   0.494
  416TIP3    H1 1201   2.986   1.716   0.543
  416TIP3    H2 1202   3.063   1.732   0.417
  417TIP3   OH2 1203   4.195   1.290   1.367
  417TIP3    H1 1204   4.284   1.319   1.396
  417TIP3    H2 1205   4.183   1.209   1.421
  418TIP3   OH2 1206   4.045   1.061   0.539
  418TIP3    H1 1207   4.048   1.071   0.442
  418TIP3    H2 1208   4.097   1.138   0.569
  419TIP3   OH2 1209   3.573   2.157   0.225
  419TIP3    H1 1210   3.487   2.185   0.262
  419TIP3    H2 1211   3.582   2.220   0.152
  420TIP3   OH2 1212   3.747   1.234   0.647
  420TIP3    H1 1213   3.815   1.302   0.626
  420TIP3    H2 1214   3.763   1.221   0.743
  421TIP3   OH2 1215   4.030   1.536   1.434
  421TIP3    H1 1216   4.055   1.582   1.517
  421TIP3    H2 1217   4.082   1.453   1.439
  422TIP3   OH2 1218   3.908   0.955   0.746
  422TIP3    H1 1219   3.906   1.031   0.807
  422TIP3    H2 1220   3.965   0.991   0.674
  423TIP3   OH2 1221   3.320   2.233   0.295
  423TIP3    H1 1222   3.290   2.302   0.232
  423TIP3    H2 1223   3.302   2.276   0.382
  424TIP3   OH2 1224   4.668   1.444   1.424
  424TIP3    H1 1225   4.570   1.442   1.432
  424TIP3    H2 1226   4.680   1.383   1.350
  425TIP3   OH2 1227   4.313   1.640   0.814
  425TIP3    H1 1228   4.239   1.578   0.823
  425TIP3    H2 1229   4.386   1.592   0.860
  426TIP3   OH2 1230   3.040   1.862   0.302
  426TIP3    H1 1231   3.123   1.914   0.299
  426TIP3    H2 1232   3.023   1.848   0.209
  427TIP3   OH2 1233   4.287   2.593   0.757
  427TIP3    H1 1234   4.244   2.640   0.682
  427TIP3    H2 1235   4.381   2.612   0.737
  428TIP3   OH2 1236   3.334   0.875   1.320
  428TIP3    H1 1237   3.399   0.817   1.274
  428TIP3    H2 1238   3.313   0.816   1.394
  429TIP3   OH2 1239   2.902   2.081   0.668
  429TIP3    H1 1240   2.839   2.112   0.736
  429TIP3    H2 1241   2.863   2.122   0.587
  430TIP3   OH2 1242   3.064   2.629   1.747
  430TIP3    H1 1243   3.145   2.643   1.803
  430TIP3    H2 1244   3.073   2.534   1.733
  431TIP3   OH2 1245   3.526   2.561   1.801
  431TIP3    H1 1246   3.621   2.569   1.801
  431TIP3    H2 1247   3.508   2.509   1.720
  432TIP3   OH2 1248   3.513   2.158  -0.073
  432TIP3    H1 1249   3.442   2.091  -0.063
  432TIP3    H2 1250   3.585   2.104  -0.107
  433TIP3   OH2 1251   3.976   2.203  -0.152
  433TIP3    H1 1252   3.965   2.121  -0.099
  433TIP3    H2 1253   4.071   2.200  -0.169
  434TIP3   OH2 1254   3.188   2.029   1.936
  434TIP3    H1 1255   3.209   1.934   1.949
  434TIP3    H2 1256   3.098   2.024   1.897
  435TIP3   OH2 1257   3.802   2.119   1.712
  435TIP3    H1 1258   3.751   2.135   1.630
  435TIP3    H2 1259   3.831   2.026   1.701
  436TIP3   OH2 1260   3.612   1.850  -0.037
  436TIP3    H1 1261   3.655   1.880   0.045
  436TIP3    H2 1262   3.665   1.774  -0.061
  437TIP3   OH2 1263   4.285   2.142   1.330
  437TIP3    H1 1264   4.360   2.188   1.290
  437TIP3    H2 1265   4.227   2.124   1.252
  438TIP3   OH2 1266   3.313   1.775   1.922
  438TIP3    H1 1267   3.377   1.707   1.899
  438TIP3    H2 1268   3.342   1.800   2.012
  439TIP3   OH2 1269   3.383   1.587   0.377
  439TIP3    H1 1270   3.369   1.554   0.467
  439TIP3    H2 1271   3.428   1.512   0.330
  440TIP3   OH2 1272   3.645   1.653   1.588
  440TIP3    H1 1273   3.563   1.706   1.585
  440TIP3    H2 1274   3.697   1.691   1.514
  441TIP3   OH2 1275   3.497   1.383   0.236
  441TIP3    H1 1276   3.464   1.318   0.171
  441TIP3    H2 1277   3.591   1.393   0.209
  442TIP3   OH2 1278   4.176   2.049   1.718
  442TIP3    H1 1279   4.254   2.007   1.679
  442TIP3    H2 1280   4.153   1.985   1.787
  443TIP3   OH2 1281   4.292   1.707  -0.148
  443TIP3    H1 1282   4.272   1.651  -0.225
  443TIP3    H2 1283   4.288   1.796  -0.186
  444TIP3   OH2 1284   3.768   1.438   1.703
  444TIP3    H1 1285   3.766   1.360   1.645
  444TIP3    H2 1286   3.722   1.506   1.649
  445TIP3   OH2 1287   3.765   1.227   1.514
  445TIP3    H1 1288   3.793   1.249   1.424
  445TIP3    H2 1289   3.673   1.197   1.499
  446TIP3   OH2 1290   3.789   1.762   1.395
  446TIP3    H1 1291   3.865   1.744   1.339
  446TIP3    H2 1292   3.734   1.823   1.341
  447TIP3   OH2 1293   4.373   1.719   1.766
  447TIP3    H1 1294   4.411   1.631   1.779
  447TIP3    H2 1295   4.449   1.767   1.729
  448TIP3   OH2 1296   4.416   1.979   1.502
  448TIP3    H1 1297   4.360   2.043   1.454
  448TIP3    H2 1298   4.504   1.998   1.462
  449TIP3   OH2 1299   3.649   1.537   1.942
  449TIP3    H1 1300   3.581   1.468   1.960
  449TIP3    H2 1301   3.679   1.511   1.853
  450TIP3   OH2 1302   3.899   0.986   1.587
  450TIP3    H1 1303   3.845   1.064   1.564
  450TIP3    H2 1304   3.834   0.914   1.577
  451TIP3   OH2 1305   4.024   1.485   1.801
  451TIP3    H1 1306   4.006   1.467   1.896
  451TIP3    H2 1307   3.936   1.462   1.764
  452TIP3   OH2 1308   4.266   1.443   1.661
  452TIP3    H1 1309   4.191   1.439   1.724
  452TIP3    H2 1310   4.341   1.409   1.714
  453TIP3   OH2 1311   4.497   1.384   1.804
  453TIP3    H1 1312   4.511   1.287   1.816
  453TIP3    H2 1313   4.494   1.415   1.897
  454TIP3   OH2 1314   3.489   1.318   1.997
  454TIP3    H1 1315   3.486   1.226   1.964
  454TIP3    H2 1316   3.526   1.304   2.087
  455TIP3   OH2 1317   3.993   0.994   1.846
  455TIP3    H1 1318   4.057   0.919   1.839
  455TIP3    H2 1319   3.952   0.990   1.758
  456TIP3   OH2 1320   4.063   1.208   2.002
  456TIP3    H1 1321   4.041   1.136   1.939
  456TIP3    H2 1322   3.983   1.264   1.996
  457TIP3   OH2 1323   3.274   2.426   0.104
  457TIP3    H1 1324   3.368   2.427   0.078
  457TIP3    H2 1325   3.233   2.483   0.038
  458TIP3   OH2 1326   2.683   2.426   0.732
  458TIP3    H1 1327   2.619   2.364   0.690
  458TIP3    H2 1328   2.726   2.366   0.796
  459TIP3   OH2 1329   2.812   2.265   0.916
  459TIP3    H1 1330   2.799   2.201   0.988
  459TIP3    H2 1331   2.872   2.329   0.960
  460TIP3   OH2 1332   4.544   2.678   0.723
  460TIP3    H1 1333   4.570   2.715   0.809
  460TIP3    H2 1334   4.609   2.718   0.663
  461TIP3   OH2 1335   4.568   2.703   1.006
  461TIP3    H1 1336   4.527   2.614   1.000
  461TIP3    H2 1337   4.645   2.682   1.061
  462TIP3   OH2 1338   4.614   2.379   1.575
  462TIP3    H1 1339   4.543   2.391   1.642
  462TIP3    H2 1340   4.658   2.467   1.578
  463TIP3   OH2 1341   4.434   1.889   0.193
  463TIP3    H1 1342   4.499   1.955   0.159
  463TIP3    H2 1343   4.482   1.854   0.271
  464TIP3   OH2 1344   4.561   1.756   0.398
  464TIP3    H1 1345   4.493   1.717   0.458
  464TIP3    H2 1346   4.627   1.792   0.461
  465TIP3   OH2 1347   4.616   2.152   0.827
  465TIP3    H1 1348   4.671   2.083   0.785
  465TIP3    H2 1349   4.620   2.225   0.762
  466TIP3   OH2 1350   4.443   2.452   1.021
  466TIP3    H1 1351   4.368   2.495   1.067
  466TIP3    H2 1352   4.398   2.407   0.946
  467TIP3   OH2 1353   4.484   1.657   0.049
  467TIP3    H1 1354   4.419   1.672  -0.023
  467TIP3    H2 1355   4.464   1.734   0.105
  468TIP3   OH2 1356   4.320   1.363   0.067
  468TIP3    H1 1357   4.333   1.440   0.010
  468TIP3    H2 1358   4.306   1.293   0.001
  469TIP3   OH2 1359   4.370   1.620   0.543
  469TIP3    H1 1360   4.376   1.524   0.534
  469TIP3    H2 1361   4.355   1.631   0.640
  470TIP3   OH2 1362   2.997   1.701   1.284
  470TIP3    H1 1363   2.996   1.657   1.196
  470TIP3    H2 1364   3.093   1.697   1.304
  471TIP3   OH2 1365   4.665   2.042   1.400
  471TIP3    H1 1366   4.733   1.972   1.390
  471TIP3    H2 1367   4.695   2.109   1.336
  472TIP3   OH2 1368   4.844   1.838   1.405
  472TIP3    H1 1369   4.769   1.789   1.444
  472TIP3    H2 1370   4.917   1.776   1.426
  473TIP3   OH2 1371   4.373   1.343   0.437
  473TIP3    H1 1372   4.416   1.256   0.453
  473TIP3    H2 1373   4.431   1.378   0.367
  474TIP3   OH2 1374   4.526   1.503   0.926
  474TIP3    H1 1375   4.612   1.529   0.886
  474TIP3    H2 1376   4.542   1.529   1.018
  475TIP3   OH2 1377   4.604   1.650   1.158
  475TIP3    H1 1378   4.528   1.682   1.210
  475TIP3    H2 1379   4.636   1.732   1.115
  476TIP3   OH2 1380   3.225   1.385   1.986
  476TIP3    H1 1381   3.322   1.370   1.981
  476TIP3    H2 1382   3.195   1.295   2.009
  477TIP3   OH2 1383   5.052   1.246   1.714
  477TIP3    H1 1384   5.114   1.182   1.673
  477TIP3    H2 1385   5.021   1.296   1.636
  478TIP3   OH2 1386   4.488   1.094   0.473
  478TIP3    H1 1387   4.544   1.075   0.552
  478TIP3    H2 1388   4.418   1.028   0.489
  479TIP3   OH2 1389   3.172   1.090   1.305
  479TIP3    H1 1390   3.217   1.005   1.312
  479TIP3    H2 1391   3.248   1.150   1.296
  480TIP3   OH2 1392   3.019   1.370   1.387
  480TIP3    H1 1393   3.061   1.350   1.302
  480TIP3    H2 1394   3.054   1.456   1.408
  481TIP3   OH2 1395   4.920   1.378   1.516
  481TIP3    H1 1396   4.831   1.419   1.526
  481TIP3    H2 1397   4.894   1.298   1.466
  482TIP3   OH2 1398   4.129   2.546   0.380
  482TIP3    H1 1399   4.179   2.539   0.296
  482TIP3    H2 1400   4.177   2.617   0.426
  483TIP3   OH2 1401   3.189   0.917   1.685
  483TIP3    H1 1402   3.137   0.907   1.766
  483TIP3    H2 1403   3.122   0.958   1.625
  484TIP3   OH2 1404   3.215   2.359   1.744
  484TIP3    H1 1405   3.144   2.293   1.746
  484TIP3    H2 1406   3.240   2.366   1.837
  485TIP3   OH2 1407   3.396   2.385   1.299
  485TIP3    H1 1408   3.354   2.466   1.264
  485TIP3    H2 1409   3.481   2.393   1.250
  486TIP3   OH2 1410   3.893   2.562   1.427
  486TIP3    H1 1411   3.904   2.603   1.515
  486TIP3    H2 1412   3.924   2.638   1.372
  487TIP3   OH2 1413   4.023   2.780   1.312
  487TIP3    H1 1414   4.098   2.751   1.259
  487TIP3    H2 1415   4.069   2.841   1.374
  488TIP3   OH2 1416   4.831   1.141   1.408
  488TIP3    H1 1417   4.739   1.117   1.381
  488TIP3    H2 1418   4.874   1.053   1.396
  489TIP3   OH2 1419   3.073   2.632   1.336
  489TIP3    H1 1420   2.980   2.660   1.325
  489TIP3    H2 1421   3.102   2.699   1.403
  490TIP3   OH2 1422   3.309   2.618   1.190
  490TIP3    H1 1423   3.224   2.638   1.236
  490TIP3    H2 1424   3.293   2.656   1.102
  491TIP3   OH2 1425   3.740   2.644   0.991
  491TIP3    H1 1426   3.672   2.663   0.923
  491TIP3    H2 1427   3.751   2.732   1.033
  492TIP3   OH2 1428   4.010   2.580   1.036
  492TIP3    H1 1429   3.915   2.602   1.024
  492TIP3    H2 1430   4.051   2.653   0.986
  493TIP3   OH2 1431   4.215   2.778   0.948
  493TIP3    H1 1432   4.201   2.864   0.903
  493TIP3    H2 1433   4.242   2.720   0.874
  494TIP3   OH2 1434   2.981   2.422   1.077
  494TIP3    H1 1435   3.026   2.454   1.158
  494TIP3    H2 1436   3.058   2.385   1.028
  495TIP3   OH2 1437   3.185   2.311   0.938
  495TIP3    H1 1438   3.202   2.225   0.984
  495TIP3    H2 1439   3.277   2.345   0.930
  496TIP3   OH2 1440   3.452   2.396   0.941
  496TIP3    H1 1441   3.481   2.303   0.933
  496TIP3    H2 1442   3.502   2.422   1.020
  497TIP3   OH2 1443   4.015   1.058   1.024
  497TIP3    H1 1444   3.975   0.987   1.078
  497TIP3    H2 1445   4.096   1.015   0.989
  498TIP3   OH2 1446   4.646   1.010   0.685
  498TIP3    H1 1447   4.732   0.972   0.706
  498TIP3    H2 1448   4.663   1.106   0.701
  499TIP3   OH2 1449   3.240   0.818   1.020
  499TIP3    H1 1450   3.318   0.839   1.073
  499TIP3    H2 1451   3.233   0.895   0.961
  500TIP3   OH2 1452   3.685   0.825   0.903
  500TIP3    H1 1453   3.774   0.859   0.887
  500TIP3    H2 1454   3.681   0.814   1.000
  501TIP3   OH2 1455   4.271   0.953   0.942
  501TIP3    H1 1456   4.317   0.938   0.857
  501TIP3    H2 1457   4.248   0.862   0.968
  502TIP3   OH2 1458   4.300   0.909   0.560
  502TIP3    H1 1459   4.237   0.938   0.493
  502TIP3    H2 1460   4.259   0.823   0.586
  503TIP3   OH2 1461   2.768   2.215   0.482
  503TIP3    H1 1462   2.691   2.180   0.433
  503TIP3    H2 1463   2.765   2.307   0.452
  504TIP3   OH2 1464   3.712   0.978   0.550
  504TIP3    H1 1465   3.775   0.945   0.619
  504TIP3    H2 1466   3.724   1.075   0.568
  505TIP3   OH2 1467   3.541   2.401   0.045
  505TIP3    H1 1468   3.631   2.421   0.012
  505TIP3    H2 1469   3.523   2.322  -0.010
  506TIP3   OH2 1470   4.271   2.517   0.143
  506TIP3    H1 1471   4.267   2.419   0.132
  506TIP3    H2 1472   4.220   2.547   0.066
  507TIP3   OH2 1473   3.481   1.048   1.933
  507TIP3    H1 1474   3.443   0.975   1.985
  507TIP3    H2 1475   3.575   1.045   1.962
  508TIP3   OH2 1476   3.734   1.044   2.050
  508TIP3    H1 1477   3.817   1.015   2.009
  508TIP3    H2 1478   3.719   0.973   2.116
  509TIP3   OH2 1479   2.840   2.200   0.169
  509TIP3    H1 1480   2.830   2.284   0.213
  509TIP3    H2 1481   2.910   2.218   0.105
  510TIP3   OH2 1482   4.557   1.113   1.836
  510TIP3    H1 1483   4.575   1.081   1.926
  510TIP3    H2 1484   4.645   1.105   1.794
  511TIP3   OH2 1485   4.490   2.654   1.324
  511TIP3    H1 1486   4.411   2.626   1.274
  511TIP3    H2 1487   4.472   2.750   1.334
  512TIP3   OH2 1488   5.764   1.991   0.088
  512TIP3    H1 1489   5.760   2.088   0.077
  512TIP3    H2 1490   5.681   1.968   0.046
  513TIP3   OH2 1491   5.757   2.029   0.487
  513TIP3    H1 1492   5.794   2.016   0.577
  513TIP3    H2 1493   5.727   1.939   0.465
  514TIP3   OH2 1494   5.055   1.919   0.846
  514TIP3    H1 1495   5.085   1.851   0.908
  514TIP3    H2 1496   5.137   1.970   0.834
  515TIP3   OH2 1497   6.037   2.323   0.170
  515TIP3    H1 1498   6.003   2.266   0.240
  515TIP3    H2 1499   6.048   2.408   0.216
  516TIP3   OH2 1500   5.036   2.337   0.560
  516TIP3    H1 1501   5.026   2.240   0.561
  516TIP3    H2 1502   5.132   2.346   0.551
  517TIP3   OH2 1503   4.739   1.545   0.350
  517TIP3    H1 1504   4.679   1.621   0.366
  517TIP3    H2 1505   4.678   1.484   0.305
  518TIP3   OH2 1506   4.792   1.829   0.530
  518TIP3    H1 1507   4.845   1.752   0.561
  518TIP3    H2 1508   4.854   1.873   0.470
  519TIP3   OH2 1509   5.630   2.816   0.202
  519TIP3    H1 1510   5.703   2.758   0.171
  519TIP3    H2 1511   5.617   2.786   0.293
  520TIP3   OH2 1512   5.557   2.260   0.523
  520TIP3    H1 1513   5.599   2.182   0.483
  520TIP3    H2 1514   5.639   2.307   0.552
  521TIP3   OH2 1515   5.951   1.768   0.583
  521TIP3    H1 1516   5.974   1.673   0.591
  521TIP3    H2 1517   5.955   1.781   0.487
  522TIP3   OH2 1518   5.286   1.413   0.521
  522TIP3    H1 1519   5.269   1.477   0.449
  522TIP3    H2 1520   5.270   1.328   0.477
  523TIP3   OH2 1521   4.946   1.626   0.629
  523TIP3    H1 1522   5.029   1.613   0.679
  523TIP3    H2 1523   4.963   1.567   0.553
  524TIP3   OH2 1524   5.385   1.815   0.428
  524TIP3    H1 1525   5.481   1.801   0.439
  524TIP3    H2 1526   5.356   1.726   0.400
  525TIP3   OH2 1527   6.608   1.781   0.712
  525TIP3    H1 1528   6.529   1.833   0.687
  525TIP3    H2 1529   6.654   1.841   0.775
  526TIP3   OH2 1530   5.302   1.418   0.963
  526TIP3    H1 1531   5.243   1.462   0.899
  526TIP3    H2 1532   5.251   1.431   1.046
  527TIP3   OH2 1533   5.668   2.232  -0.014
  527TIP3    H1 1534   5.637   2.229  -0.107
  527TIP3    H2 1535   5.633   2.315   0.019
  528TIP3   OH2 1536   5.413   2.178   0.740
  528TIP3    H1 1537   5.357   2.250   0.777
  528TIP3    H2 1538   5.459   2.224   0.667
  529TIP3   OH2 1539   5.180   1.529   0.742
  529TIP3    H1 1540   5.246   1.598   0.764
  529TIP3    H2 1541   5.226   1.485   0.667
  530TIP3   OH2 1542   5.247   2.378   0.846
  530TIP3    H1 1543   5.220   2.466   0.812
  530TIP3    H2 1544   5.167   2.358   0.900
  531TIP3   OH2 1545   4.631   2.061   0.079
  531TIP3    H1 1546   4.593   2.085  -0.007
  531TIP3    H2 1547   4.668   2.146   0.110
  532TIP3   OH2 1548   6.068   2.579   0.320
  532TIP3    H1 1549   5.982   2.561   0.363
  532TIP3    H2 1550   6.049   2.666   0.282
  533TIP3   OH2 1551   5.827   2.657   0.099
  533TIP3    H1 1552   5.839   2.572   0.054
  533TIP3    H2 1553   5.850   2.718   0.027
  534TIP3   OH2 1554   6.300   2.484   0.671
  534TIP3    H1 1555   6.285   2.407   0.611
  534TIP3    H2 1556   6.280   2.559   0.611
  535TIP3   OH2 1557   6.492   2.130   0.528
  535TIP3    H1 1558   6.410   2.184   0.523
  535TIP3    H2 1559   6.530   2.142   0.440
  536TIP3   OH2 1560   6.158   2.010   0.819
  536TIP3    H1 1561   6.161   2.090   0.874
  536TIP3    H2 1562   6.068   2.016   0.782
  537TIP3   OH2 1563   5.172   1.960   0.321
  537TIP3    H1 1564   5.127   1.899   0.259
  537TIP3    H2 1565   5.250   1.908   0.351
  538TIP3   OH2 1566   5.301   2.376   0.458
  538TIP3    H1 1567   5.284   2.346   0.368
  538TIP3    H2 1568   5.389   2.336   0.477
  539TIP3   OH2 1569   5.299   1.938   0.668
  539TIP3    H1 1570   5.338   1.909   0.583
  539TIP3    H2 1571   5.348   2.022   0.686
  540TIP3   OH2 1572   5.834   2.567   0.450
  540TIP3    H1 1573   5.823   2.650   0.500
  540TIP3    H2 1574   5.817   2.497   0.516
  541TIP3   OH2 1575   5.449   2.492   0.993
  541TIP3    H1 1576   5.386   2.552   1.039
  541TIP3    H2 1577   5.387   2.438   0.941
  542TIP3   OH2 1578   5.204   2.044   1.100
  542TIP3    H1 1579   5.207   2.134   1.138
  542TIP3    H2 1580   5.110   2.023   1.114
  543TIP3   OH2 1581   5.513   2.525   0.066
  543TIP3    H1 1582   5.581   2.569   0.119
  543TIP3    H2 1583   5.444   2.592   0.065
  544TIP3   OH2 1584   5.240   2.655   1.080
  544TIP3    H1 1585   5.206   2.661   0.989
  544TIP3    H2 1586   5.158   2.633   1.131
  545TIP3   OH2 1587   5.032   1.790   0.147
  545TIP3    H1 1588   4.992   1.847   0.079
  545TIP3    H2 1589   4.968   1.718   0.144
  546TIP3   OH2 1590   4.818   2.191   1.027
  546TIP3    H1 1591   4.753   2.168   0.957
  546TIP3    H2 1592   4.858   2.104   1.049
  547TIP3   OH2 1593   4.676   2.380   0.661
  547TIP3    H1 1594   4.772   2.375   0.648
  547TIP3    H2 1595   4.668   2.460   0.715
  548TIP3   OH2 1596   6.542   2.842   0.721
  548TIP3    H1 1597   6.542   2.745   0.737
  548TIP3    H2 1598   6.458   2.866   0.767
  549TIP3   OH2 1599   5.641   2.621   0.848
  549TIP3    H1 1600   5.637   2.713   0.882
  549TIP3    H2 1601   5.572   2.578   0.903
  550TIP3   OH2 1602   4.841   2.593   0.190
  550TIP3    H1 1603   4.888   2.585   0.275
  550TIP3    H2 1604   4.801   2.505   0.182
  551TIP3   OH2 1605   6.426   1.965   0.990
  551TIP3    H1 1606   6.344   1.963   0.937
  551TIP3    H2 1607   6.442   1.870   1.004
  552TIP3   OH2 1608   5.023   2.373   1.007
  552TIP3    H1 1609   5.072   2.357   1.090
  552TIP3    H2 1610   4.948   2.310   1.015
  553TIP3   OH2 1611   5.400   1.213   0.818
  553TIP3    H1 1612   5.326   1.191   0.761
  553TIP3    H2 1613   5.366   1.289   0.870
  554TIP3   OH2 1614   5.968   1.330   0.998
  554TIP3    H1 1615   6.032   1.304   1.066
  554TIP3    H2 1616   5.882   1.300   1.032
  555TIP3   OH2 1617   6.200   1.747   0.915
  555TIP3    H1 1618   6.142   1.740   0.995
  555TIP3    H2 1619   6.167   1.828   0.873
  556TIP3   OH2 1620   5.357   1.719   0.820
  556TIP3    H1 1621   5.310   1.739   0.904
  556TIP3    H2 1622   5.340   1.801   0.769
  557TIP3   OH2 1623   5.226   1.598   0.320
  557TIP3    H1 1624   5.137   1.568   0.349
  557TIP3    H2 1625   5.202   1.653   0.243
  558TIP3   OH2 1626   5.905   1.959   1.148
  558TIP3    H1 1627   5.882   1.884   1.206
  558TIP3    H2 1628   6.001   1.967   1.167
  559TIP3   OH2 1629   5.173   1.738   1.028
  559TIP3    H1 1630   5.215   1.798   1.093
  559TIP3    H2 1631   5.160   1.657   1.081
  560TIP3   OH2 1632   4.748   1.259   0.648
  560TIP3    H1 1633   4.819   1.301   0.701
  560TIP3    H2 1634   4.774   1.284   0.558
  561TIP3   OH2 1635   5.880   1.973   0.736
  561TIP3    H1 1636   5.914   1.901   0.678
  561TIP3    H2 1637   5.852   1.916   0.812
  562TIP3   OH2 1638   5.555   1.473   0.445
  562TIP3    H1 1639   5.482   1.460   0.507
  562TIP3    H2 1640   5.601   1.387   0.454
  563TIP3   OH2 1641   4.992   1.479   0.399
  563TIP3    H1 1642   4.900   1.510   0.376
  563TIP3    H2 1643   4.980   1.384   0.386
  564TIP3   OH2 1644   6.237   3.188   0.831
  564TIP3    H1 1645   6.230   3.212   0.737
  564TIP3    H2 1646   6.318   3.237   0.857
  565TIP3   OH2 1647   5.185   2.297   1.231
  565TIP3    H1 1648   5.266   2.323   1.280
  565TIP3    H2 1649   5.121   2.293   1.305
  566TIP3   OH2 1650   5.641   1.740   0.492
  566TIP3    H1 1651   5.636   1.648   0.461
  566TIP3    H2 1652   5.650   1.723   0.589
  567TIP3   OH2 1653   5.624   1.670   0.759
  567TIP3    H1 1654   5.535   1.693   0.793
  567TIP3    H2 1655   5.684   1.715   0.822
  568TIP3   OH2 1656   5.360   2.040  -0.111
  568TIP3    H1 1657   5.269   2.010  -0.111
  568TIP3    H2 1658   5.364   2.084  -0.023
  569TIP3   OH2 1659   6.253   2.271   0.504
  569TIP3    H1 1660   6.285   2.308   0.420
  569TIP3    H2 1661   6.166   2.233   0.478
  570TIP3   OH2 1662   5.753   2.352   0.873
  570TIP3    H1 1663   5.799   2.339   0.957
  570TIP3    H2 1664   5.722   2.444   0.879
  571TIP3   OH2 1665   5.053   2.059   0.549
  571TIP3    H1 1666   5.091   2.031   0.463
  571TIP3    H2 1667   5.107   2.008   0.611
  572TIP3   OH2 1668   4.938   1.979   1.165
  572TIP3    H1 1669   4.955   1.963   1.260
  572TIP3    H2 1670   4.872   1.910   1.146
  573TIP3   OH2 1671   5.667   2.097   1.182
  573TIP3    H1 1672   5.606   2.036   1.137
  573TIP3    H2 1673   5.753   2.059   1.155
  574TIP3   OH2 1674   5.917   2.613   0.773
  574TIP3    H1 1675   5.821   2.614   0.785
  574TIP3    H2 1676   5.946   2.666   0.850
  575TIP3   OH2 1677   6.550   2.553   0.753
  575TIP3    H1 1678   6.453   2.545   0.748
  575TIP3    H2 1679   6.574   2.516   0.665
  576TIP3   OH2 1680   6.013   2.146   0.424
  576TIP3    H1 1681   5.918   2.123   0.432
  576TIP3    H2 1682   6.050   2.057   0.407
  577TIP3   OH2 1683   5.154   2.367   0.182
  577TIP3    H1 1684   5.146   2.449   0.129
  577TIP3    H2 1685   5.062   2.338   0.185
  578TIP3   OH2 1686   4.684   1.667  -0.146
  578TIP3    H1 1687   4.752   1.732  -0.123
  578TIP3    H2 1688   4.630   1.667  -0.064
  579TIP3   OH2 1689   5.293   2.135   0.137
  579TIP3    H1 1690   5.254   2.222   0.155
  579TIP3    H2 1691   5.254   2.080   0.209
  580TIP3   OH2 1692   5.430   2.702   0.642
  580TIP3    H1 1693   5.474   2.776   0.595
  580TIP3    H2 1694   5.505   2.664   0.690
  581TIP3   OH2 1695   5.082   2.596   0.046
  581TIP3    H1 1696   4.992   2.609   0.082
  581TIP3    H2 1697   5.112   2.690   0.039
  582TIP3   OH2 1698   5.808   2.337   0.606
  582TIP3    H1 1699   5.796   2.334   0.704
  582TIP3    H2 1700   5.889   2.287   0.596
  583TIP3   OH2 1701   6.063   2.866   0.648
  583TIP3    H1 1702   5.981   2.813   0.644
  583TIP3    H2 1703   6.045   2.935   0.581
  584TIP3   OH2 1704   5.138   1.488   1.171
  584TIP3    H1 1705   5.041   1.486   1.179
  584TIP3    H2 1706   5.165   1.427   1.242
  585TIP3   OH2 1707   4.864   2.567   0.800
  585TIP3    H1 1708   4.919   2.497   0.838
  585TIP3    H2 1709   4.892   2.644   0.851
  586TIP3   OH2 1710   5.116   2.206  -0.208
  586TIP3    H1 1711   5.170   2.232  -0.132
  586TIP3    H2 1712   5.062   2.286  -0.224
  587TIP3   OH2 1713   4.845   1.897  -0.036
  587TIP3    H1 1714   4.779   1.959   0.002
  587TIP3    H2 1715   4.870   1.942  -0.118
  588TIP3   OH2 1716   5.975   1.573   0.865
  588TIP3    H1 1717   6.070   1.587   0.874
  588TIP3    H2 1718   5.964   1.482   0.901
  589TIP3   OH2 1719   5.820   1.789   0.927
  589TIP3    H1 1720   5.858   1.824   1.009
  589TIP3    H2 1721   5.876   1.709   0.911
  590TIP3   OH2 1722   6.462   1.689   0.942
  590TIP3    H1 1723   6.363   1.686   0.939
  590TIP3    H2 1724   6.483   1.707   0.850
  591TIP3   OH2 1725   6.108   1.890   0.366
  591TIP3    H1 1726   6.124   1.865   0.272
  591TIP3    H2 1727   6.172   1.838   0.415
  592TIP3   OH2 1728   4.806   2.182  -0.193
  592TIP3    H1 1729   4.853   2.267  -0.204
  592TIP3    H2 1730   4.868   2.121  -0.237
  593TIP3   OH2 1731   6.071   2.854   0.260
  593TIP3    H1 1732   6.049   2.837   0.166
  593TIP3    H2 1733   6.168   2.867   0.253
  594TIP3   OH2 1734   5.126   1.103   0.777
  594TIP3    H1 1735   5.041   1.058   0.770
  594TIP3    H2 1736   5.165   1.052   0.852
  595TIP3   OH2 1737   4.701   2.336   0.150
  595TIP3    H1 1738   4.635   2.362   0.215
  595TIP3    H2 1739   4.663   2.375   0.067
  596TIP3   OH2 1740   4.858   2.887   1.225
  596TIP3    H1 1741   4.946   2.890   1.271
  596TIP3    H2 1742   4.842   2.791   1.223
  597TIP3   OH2 1743   5.331   2.827   1.276
  597TIP3    H1 1744   5.427   2.814   1.272
  597TIP3    H2 1745   5.302   2.768   1.204
  598TIP3   OH2 1746   5.967   2.750   1.007
  598TIP3    H1 1747   5.966   2.680   1.077
  598TIP3    H2 1748   6.044   2.803   1.034
  599TIP3   OH2 1749   4.983   2.286   1.425
  599TIP3    H1 1750   5.001   2.190   1.432
  599TIP3    H2 1751   4.897   2.287   1.378
  600TIP3   OH2 1752   5.588   2.372   1.201
  600TIP3    H1 1753   5.550   2.395   1.113
  600TIP3    H2 1754   5.621   2.281   1.187
  601TIP3   OH2 1755   6.081   2.388   0.810
  601TIP3    H1 1756   6.161   2.425   0.767
  601TIP3    H2 1757   6.016   2.459   0.790
  602TIP3   OH2 1758   5.105   2.027   1.409
  602TIP3    H1 1759   5.180   1.977   1.376
  602TIP3    H2 1760   5.136   2.054   1.498
  603TIP3   OH2 1761   5.435   1.899   1.068
  603TIP3    H1 1762   5.360   1.962   1.068
  603TIP3    H2 1763   5.490   1.935   0.994
  604TIP3   OH2 1764   5.960   2.304   1.201
  604TIP3    H1 1765   6.032   2.265   1.149
  604TIP3    H2 1766   5.951   2.240   1.274
  605TIP3   OH2 1767   5.561   1.694   1.193
  605TIP3    H1 1768   5.567   1.616   1.133
  605TIP3    H2 1769   5.518   1.760   1.136
  606TIP3   OH2 1770   5.569   1.485   1.001
  606TIP3    H1 1771   5.601   1.508   0.913
  606TIP3    H2 1772   5.475   1.462   0.984
  607TIP3   OH2 1773   5.585   2.014   0.880
  607TIP3    H1 1774   5.674   2.026   0.844
  607TIP3    H2 1775   5.533   2.078   0.828
  608TIP3   OH2 1776   6.170   1.979   1.254
  608TIP3    H1 1777   6.209   1.890   1.262
  608TIP3    H2 1778   6.242   2.029   1.215
  609TIP3   OH2 1779   6.207   2.238   0.996
  609TIP3    H1 1780   6.151   2.294   0.937
  609TIP3    H2 1781   6.295   2.258   0.957
  610TIP3   OH2 1782   5.443   1.794   1.431
  610TIP3    H1 1783   5.376   1.724   1.447
  610TIP3    H2 1784   5.475   1.770   1.342
  611TIP3   OH2 1785   5.705   1.248   1.079
  611TIP3    H1 1786   5.658   1.329   1.050
  611TIP3    H2 1787   5.642   1.178   1.054
  612TIP3   OH2 1788   5.820   1.740   1.287
  612TIP3    H1 1789   5.803   1.722   1.382
  612TIP3    H2 1790   5.732   1.717   1.251
  613TIP3   OH2 1791   6.066   1.708   1.148
  613TIP3    H1 1792   5.990   1.695   1.208
  613TIP3    H2 1793   6.140   1.669   1.200
  614TIP3   OH2 1794   6.290   1.636   1.292
  614TIP3    H1 1795   6.304   1.540   1.306
  614TIP3    H2 1796   6.291   1.670   1.384
  615TIP3   OH2 1797   5.281   1.577   1.487
  615TIP3    H1 1798   5.281   1.485   1.454
  615TIP3    H2 1799   5.321   1.563   1.576
  616TIP3   OH2 1800   5.773   1.254   1.344
  616TIP3    H1 1801   5.850   1.193   1.338
  616TIP3    H2 1802   5.744   1.253   1.251
  617TIP3   OH2 1803   5.857   1.468   1.490
  617TIP3    H1 1804   5.832   1.395   1.429
  617TIP3    H2 1805   5.778   1.525   1.485
  618TIP3   OH2 1806   4.549   2.096  -0.198
  618TIP3    H1 1807   4.640   2.134  -0.192
  618TIP3    H2 1808   4.562   2.041  -0.278
  619TIP3   OH2 1809   4.475   2.690   0.217
  619TIP3    H1 1810   4.410   2.627   0.179
  619TIP3    H2 1811   4.520   2.631   0.282
  620TIP3   OH2 1812   4.604   2.536   0.407
  620TIP3    H1 1813   4.592   2.465   0.473
  620TIP3    H2 1814   4.662   2.596   0.458
  621TIP3   OH2 1815   6.339   2.907   0.237
  621TIP3    H1 1816   6.357   2.939   0.328
  621TIP3    H2 1817   6.367   2.985   0.185
  622TIP3   OH2 1818   6.354   2.950   0.510
  622TIP3    H1 1819   6.320   2.858   0.516
  622TIP3    H2 1820   6.437   2.942   0.558
  623TIP3   OH2 1821   6.413   2.635   1.063
  623TIP3    H1 1822   6.343   2.644   1.130
  623TIP3    H2 1823   6.456   2.723   1.066
  624TIP3   OH2 1824   6.430   2.364   0.312
  624TIP3    H1 1825   6.442   2.314   0.230
  624TIP3    H2 1826   6.430   2.457   0.278
  625TIP3   OH2 1827   6.236   2.698   0.512
  625TIP3    H1 1828   6.165   2.745   0.561
  625TIP3    H2 1829   6.186   2.658   0.438
  626TIP3   OH2 1830   4.792   1.948   0.780
  626TIP3    H1 1831   4.788   1.911   0.689
  626TIP3    H2 1832   4.890   1.947   0.795
  627TIP3   OH2 1833   6.452   2.305   0.889
  627TIP3    H1 1834   6.525   2.239   0.879
  627TIP3    H2 1835   6.475   2.371   0.822
  628TIP3   OH2 1836   6.640   2.111   0.904
  628TIP3    H1 1837   6.562   2.060   0.936
  628TIP3    H2 1838   6.710   2.043   0.917
  629TIP3   OH2 1839   6.381   1.919   0.664
  629TIP3    H1 1840   6.298   1.952   0.702
  629TIP3    H2 1841   6.414   1.996   0.614
  630TIP3   OH2 1842   5.015   1.634   1.462
  630TIP3    H1 1843   5.113   1.625   1.462
  630TIP3    H2 1844   4.991   1.544   1.492
  631TIP3   OH2 1845   6.856   1.513   1.204
  631TIP3    H1 1846   6.917   1.461   1.150
  631TIP3    H2 1847   6.802   1.559   1.136
  632TIP3   OH2 1848   4.975   1.344   0.775
  632TIP3    H1 1849   5.034   1.269   0.793
  632TIP3    H2 1850   5.039   1.418   0.770
  633TIP3   OH2 1851   4.772   1.597   0.849
  633TIP3    H1 1852   4.825   1.601   0.768
  633TIP3    H2 1853   4.805   1.673   0.899
  634TIP3   OH2 1854   6.713   1.640   1.021
  634TIP3    H1 1855   6.615   1.650   1.016
  634TIP3    H2 1856   6.733   1.602   0.933
  635TIP3   OH2 1857   4.804   1.196   0.374
  635TIP3    H1 1858   4.724   1.155   0.407
  635TIP3    H2 1859   4.813   1.154   0.286
  636TIP3   OH2 1860   4.991   1.188   1.172
  636TIP3    H1 1861   4.934   1.172   1.249
  636TIP3    H2 1862   4.924   1.220   1.107
  637TIP3   OH2 1863   5.019   2.613   1.240
  637TIP3    H1 1864   4.925   2.589   1.226
  637TIP3    H2 1865   5.032   2.593   1.333
  638TIP3   OH2 1866   5.203   2.649   0.794
  638TIP3    H1 1867   5.157   2.726   0.755
  638TIP3    H2 1868   5.289   2.661   0.748
  639TIP3   OH2 1869   5.637   2.887   0.930
  639TIP3    H1 1870   5.682   2.888   1.017
  639TIP3    H2 1871   5.699   2.940   0.876
  640TIP3   OH2 1872   5.807   3.042   0.781
  640TIP3    H1 1873   5.879   2.991   0.743
  640TIP3    H2 1874   5.859   3.097   0.845
  641TIP3   OH2 1875   4.875   2.900   0.821
  641TIP3    H1 1876   4.782   2.927   0.800
  641TIP3    H2 1877   4.892   2.958   0.897
  642TIP3   OH2 1878   5.110   2.880   0.680
  642TIP3    H1 1879   5.022   2.890   0.723
  642TIP3    H2 1880   5.091   2.911   0.589
  643TIP3   OH2 1881   5.537   2.902   0.474
  643TIP3    H1 1882   5.461   2.919   0.416
  643TIP3    H2 1883   5.549   2.989   0.516
  644TIP3   OH2 1884   5.808   2.837   0.529
  644TIP3    H1 1885   5.715   2.860   0.511
  644TIP3    H2 1886   5.855   2.912   0.488
  645TIP3   OH2 1887   5.994   3.038   0.442
  645TIP3    H1 1888   5.987   3.121   0.391
  645TIP3    H2 1889   6.021   2.975   0.372
  646TIP3   OH2 1890   4.785   2.690   0.560
  646TIP3    H1 1891   4.812   2.661   0.650
  646TIP3    H2 1892   4.858   2.648   0.509
  647TIP3   OH2 1893   4.983   2.566   0.423
  647TIP3    H1 1894   4.998   2.482   0.472
  647TIP3    H2 1895   5.075   2.600   0.418
  648TIP3   OH2 1896   5.255   2.659   0.426
  648TIP3    H1 1897   5.281   2.565   0.413
  648TIP3    H2 1898   5.304   2.677   0.509
  649TIP3   OH2 1899   4.568   2.465  -0.042
  649TIP3    H1 1900   4.478   2.437  -0.068
  649TIP3    H2 1901   4.569   2.555  -0.077
  650TIP3   OH2 1902   5.276   1.307   1.422
  650TIP3    H1 1903   5.241   1.233   1.474
  650TIP3    H2 1904   5.371   1.304   1.448
  651TIP3   OH2 1905   5.530   1.302   1.533
  651TIP3    H1 1906   5.614   1.278   1.488
  651TIP3    H2 1907   5.521   1.230   1.598
  652TIP3   OH2 1908   6.344   1.366   1.327
  652TIP3    H1 1909   6.364   1.334   1.418
  652TIP3    H2 1910   6.435   1.369   1.288
  653TIP3   OH2 1911   6.288   2.916   0.819
  653TIP3    H1 1912   6.211   2.889   0.764
  653TIP3    H2 1913   6.269   3.011   0.829
  654TIP3   OH2 1914   6.783   2.216   0.346
  654TIP3    H1 1915   6.846   2.166   0.398
  654TIP3    H2 1916   6.840   2.271   0.290
  655TIP3   OH2 1917   6.935   2.574   0.276
  655TIP3    H1 1918   6.941   2.671   0.275
  655TIP3    H2 1919   6.883   2.564   0.358
  656TIP3   OH2 1920   6.974   2.327   0.578
  656TIP3    H1 1921   6.981   2.412   0.626
  656TIP3    H2 1922   6.886   2.297   0.610
  657TIP3   OH2 1923   7.059   2.920   0.594
  657TIP3    H1 1924   7.035   2.894   0.503
  657TIP3    H2 1925   6.974   2.900   0.640
  658TIP3   OH2 1926   6.611   2.445   0.512
  658TIP3    H1 1927   6.550   2.416   0.441
  658TIP3    H2 1928   6.658   2.361   0.532
  659TIP3   OH2 1929   6.454   2.615   0.211
  659TIP3    H1 1930   6.546   2.643   0.203
  659TIP3    H2 1931   6.410   2.701   0.222
  660TIP3   OH2 1932   6.801   2.643   0.509
  660TIP3    H1 1933   6.858   2.630   0.588
  660TIP3    H2 1934   6.732   2.575   0.522
  661TIP3   OH2 1935   6.984   2.561   0.725
  661TIP3    H1 1936   7.071   2.550   0.766
  661TIP3    H2 1937   6.926   2.562   0.804
  662TIP3   OH2 1938   6.725   2.236   0.656
  662TIP3    H1 1939   6.735   2.221   0.752
  662TIP3    H2 1940   6.653   2.175   0.633
  663TIP3   OH2 1941   6.669   2.813   0.279
  663TIP3    H1 1942   6.699   2.773   0.362
  663TIP3    H2 1943   6.663   2.908   0.303
  664TIP3   OH2 1944   6.651   3.140   0.713
  664TIP3    H1 1945   6.735   3.144   0.766
  664TIP3    H2 1946   6.635   3.044   0.712
  665TIP3   OH2 1947   7.118   3.115   0.785
  665TIP3    H1 1948   7.180   3.084   0.853
  665TIP3    H2 1949   7.100   3.036   0.730
  666TIP3   OH2 1950   6.777   2.548   0.916
  666TIP3    H1 1951   6.797   2.453   0.916
  666TIP3    H2 1952   6.691   2.550   0.868
  667TIP3   OH2 1953   6.901   2.297   0.890
  667TIP3    H1 1954   6.897   2.203   0.915
  667TIP3    H2 1955   6.943   2.332   0.971
  668TIP3   OH2 1956   6.778   1.878   0.902
  668TIP3    H1 1957   6.876   1.870   0.898
  668TIP3    H2 1958   6.756   1.803   0.961
  669TIP3   OH2 1959   6.826   2.870   0.737
  669TIP3    H1 1960   6.736   2.848   0.708
  669TIP3    H2 1961   6.819   2.854   0.832
  670TIP3   OH2 1962   6.989   2.851   0.305
  670TIP3    H1 1963   6.903   2.887   0.279
  670TIP3    H2 1964   7.039   2.858   0.220
  671TIP3   OH2 1965   6.685   3.085   0.345
  671TIP3    H1 1966   6.632   3.136   0.282
  671TIP3    H2 1967   6.695   3.152   0.414
  672TIP3   OH2 1968  -0.130   3.858   1.336
  672TIP3    H1 1969  -0.064   3.787   1.349
  672TIP3    H2 1970  -0.198   3.825   1.398
  673TIP3   OH2 1971   0.963   2.700   1.636
  673TIP3    H1 1972   0.900   2.713   1.707
  673TIP3    H2 1973   0.911   2.730   1.561
  674TIP3   OH2 1974   0.924   2.855   1.914
  674TIP3    H1 1975   0.860   2.907   1.864
  674TIP3    H2 1976   0.893   2.869   2.005
  675TIP3   OH2 1977   0.333   3.635   1.520
  675TIP3    H1 1978   0.240   3.616   1.545
  675TIP3    H2 1979   0.322   3.718   1.468
  676TIP3   OH2 1980   0.550   3.535   1.850
  676TIP3    H1 1981   0.541   3.461   1.786
  676TIP3    H2 1982   0.532   3.613   1.792
  677TIP3   OH2 1983   0.745   3.171   1.695
  677TIP3    H1 1984   0.661   3.220   1.703
  677TIP3    H2 1985   0.772   3.199   1.605
  678TIP3   OH2 1986   0.459   3.053   2.004
  678TIP3    H1 1987   0.447   3.137   2.053
  678TIP3    H2 1988   0.370   3.046   1.963
  679TIP3   OH2 1989   0.077   3.607   1.611
  679TIP3    H1 1990   0.069   3.689   1.664
  679TIP3    H2 1991   0.075   3.537   1.681
  680TIP3   OH2 1992  -0.303   3.532   2.165
  680TIP3    H1 1993  -0.359   3.585   2.224
  680TIP3    H2 1994  -0.367   3.507   2.096
  681TIP3   OH2 1995   0.787   3.884   1.897
  681TIP3    H1 1996   0.785   3.788   1.911
  681TIP3    H2 1997   0.702   3.910   1.941
  682TIP3   OH2 1998  -0.095   3.657   2.037
  682TIP3    H1 1999  -0.100   3.750   2.069
  682TIP3    H2 2000  -0.173   3.618   2.083
  683TIP3   OH2 2001   0.678   3.003   2.170
  683TIP3    H1 2002   0.599   3.022   2.116
  683TIP3    H2 2003   0.674   2.906   2.177
  684TIP3   OH2 2004   0.451   2.785   2.095
  684TIP3    H1 2005   0.390   2.781   2.173
  684TIP3    H2 2006   0.425   2.869   2.054
  685TIP3   OH2 2007   0.158   3.005   2.333
  685TIP3    H1 2008   0.137   2.927   2.388
  685TIP3    H2 2009   0.253   3.016   2.353
  686TIP3   OH2 2010   0.202   3.011   1.921
  686TIP3    H1 2011   0.136   3.023   1.849
  686TIP3    H2 2012   0.152   2.954   1.982
  687TIP3   OH2 2013   0.484   4.229   1.993
  687TIP3    H1 2014   0.479   4.254   1.899
  687TIP3    H2 2015   0.565   4.275   2.022
  688TIP3   OH2 2016  -0.554   3.331   2.457
  688TIP3    H1 2017  -0.476   3.383   2.484
  688TIP3    H2 2018  -0.580   3.294   2.542
  689TIP3   OH2 2019   0.518   3.326   1.675
  689TIP3    H1 2020   0.553   3.378   1.598
  689TIP3    H2 2021   0.426   3.314   1.650
  690TIP3   OH2 2022  -0.004   3.398   2.044
  690TIP3    H1 2023   0.056   3.388   2.119
  690TIP3    H2 2024  -0.027   3.493   2.048
  691TIP3   OH2 2025  -0.077   3.142   2.358
  691TIP3    H1 2026  -0.124   3.105   2.280
  691TIP3    H2 2027   0.012   3.105   2.343
  692TIP3   OH2 2028   0.171   3.660   1.950
  692TIP3    H1 2029   0.075   3.663   1.963
  692TIP3    H2 2030   0.200   3.714   2.027
  693TIP3   OH2 2031   0.801   3.592   1.933
  693TIP3    H1 2032   0.703   3.587   1.926
  693TIP3    H2 2033   0.826   3.562   1.843
  694TIP3   OH2 2034  -0.292   3.775   1.855
  694TIP3    H1 2035  -0.264   3.838   1.786
  694TIP3    H2 2036  -0.207   3.739   1.884
  695TIP3   OH2 2037   0.096   3.392   1.785
  695TIP3    H1 2038   0.063   3.402   1.876
  695TIP3    H2 2039   0.129   3.302   1.787
  696TIP3   OH2 2040   0.307   3.918   1.829
  696TIP3    H1 2041   0.228   3.862   1.820
  696TIP3    H2 2042   0.293   3.982   1.756
  697TIP3   OH2 2043   0.070   2.854   2.117
  697TIP3    H1 2044   0.104   2.913   2.188
  697TIP3    H2 2045   0.087   2.766   2.156
  698TIP3   OH2 2046   0.707   2.727   2.061
  698TIP3    H1 2047   0.610   2.735   2.079
  698TIP3    H2 2048   0.710   2.756   1.969
  699TIP3   OH2 2049   0.329   3.892   1.420
  699TIP3    H1 2050   0.284   3.935   1.344
  699TIP3    H2 2051   0.423   3.913   1.400
  700TIP3   OH2 2052  -0.384   3.907   2.418
  700TIP3    H1 2053  -0.306   3.854   2.440
  700TIP3    H2 2054  -0.432   3.849   2.358
  701TIP3   OH2 2055   0.219   3.794   2.185
  701TIP3    H1 2056   0.215   3.723   2.254
  701TIP3    H2 2057   0.297   3.846   2.213
  702TIP3   OH2 2058  -0.161   3.418   2.376
  702TIP3    H1 2059  -0.196   3.438   2.287
  702TIP3    H2 2060  -0.123   3.328   2.364
  703TIP3   OH2 2061   0.333   3.436   1.987
  703TIP3    H1 2062   0.414   3.473   1.945
  703TIP3    H2 2063   0.268   3.504   1.960
  704TIP3   OH2 2064   0.205   3.347   2.377
  704TIP3    H1 2065   0.283   3.315   2.330
  704TIP3    H2 2066   0.200   3.286   2.452
  705TIP3   OH2 2067   0.420   3.031   2.430
  705TIP3    H1 2068   0.459   2.943   2.425
  705TIP3    H2 2069   0.492   3.087   2.396
  706TIP3   OH2 2070   0.461   3.287   2.170
  706TIP3    H1 2071   0.403   3.342   2.113
  706TIP3    H2 2072   0.549   3.310   2.132
  707TIP3   OH2 2073  -0.300   2.830   2.589
  707TIP3    H1 2074  -0.370   2.843   2.657
  707TIP3    H2 2075  -0.353   2.817   2.510
  708TIP3   OH2 2076   0.070   2.777   2.471
  708TIP3    H1 2077   0.111   2.768   2.559
  708TIP3    H2 2078  -0.023   2.774   2.498
  709TIP3   OH2 2079   0.320   2.763   2.329
  709TIP3    H1 2080   0.243   2.735   2.382
  709TIP3    H2 2081   0.395   2.725   2.379
  710TIP3   OH2 2082   0.544   2.694   2.469
  710TIP3    H1 2083   0.555   2.598   2.486
  710TIP3    H2 2084   0.534   2.730   2.559
  711TIP3   OH2 2085   0.095   2.496   2.655
  711TIP3    H1 2086   0.049   2.423   2.610
  711TIP3    H2 2087   0.023   2.563   2.662
  712TIP3   OH2 2088   0.586   3.977   1.387
  712TIP3    H1 2089   0.615   4.017   1.471
  712TIP3    H2 2090   0.645   4.020   1.323
  713TIP3   OH2 2091   0.614   4.006   1.671
  713TIP3    H1 2092   0.570   3.919   1.666
  713TIP3    H2 2093   0.693   3.983   1.722
  714TIP3   OH2 2094   0.661   3.678   2.241
  714TIP3    H1 2095   0.590   3.690   2.307
  714TIP3    H2 2096   0.705   3.766   2.243
  715TIP3   OH2 2097   0.658   3.452   1.483
  715TIP3    H1 2098   0.720   3.388   1.442
  715TIP3    H2 2099   0.664   3.529   1.422
  716TIP3   OH2 2100   0.495   3.758   1.698
  716TIP3    H1 2101   0.421   3.801   1.744
  716TIP3    H2 2102   0.448   3.712   1.624
  717TIP3   OH2 2103   0.710   3.342   2.065
  717TIP3    H1 2104   0.780   3.275   2.051
  717TIP3    H2 2105   0.734   3.411   2.000
  718TIP3   OH2 2106   0.892   3.138   2.069
  718TIP3    H1 2107   0.817   3.088   2.110
  718TIP3    H2 2108   0.968   3.090   2.107
  719TIP3   OH2 2109   0.622   2.770   1.618
  719TIP3    H1 2110   0.666   2.829   1.554
  719TIP3    H2 2111   0.618   2.828   1.696
  720TIP3   OH2 2112   0.667   2.947   1.836
  720TIP3    H1 2113   0.594   2.986   1.887
  720TIP3    H2 2114   0.695   3.025   1.783
  721TIP3   OH2 2115   1.091   2.543   2.378
  721TIP3    H1 2116   1.157   2.481   2.339
  721TIP3    H2 2117   1.065   2.596   2.299
  722TIP3   OH2 2118   0.967   2.690   2.185
  722TIP3    H1 2119   0.889   2.731   2.228
  722TIP3    H2 2120   0.922   2.635   2.118
  723TIP3   OH2 2121   0.215   3.885   0.987
  723TIP3    H1 2122   0.280   3.816   1.010
  723TIP3    H2 2123   0.224   3.947   1.061
  724TIP3   OH2 2124  -0.502   3.647   1.968
  724TIP3    H1 2125  -0.547   3.716   2.022
  724TIP3    H2 2126  -0.424   3.699   1.938
  725TIP3   OH2 2127  -0.101   3.921   2.104
  725TIP3    H1 2128  -0.061   3.925   2.194
  725TIP3    H2 2129  -0.039   3.978   2.054
  726TIP3   OH2 2130   0.075   4.083   1.970
  726TIP3    H1 2131   0.148   4.034   1.929
  726TIP3    H2 2132   0.126   4.142   2.031
  727TIP3   OH2 2133   0.863   2.443   2.065
  727TIP3    H1 2134   0.792   2.432   2.000
  727TIP3    H2 2135   0.897   2.351   2.072
  728TIP3   OH2 2136  -0.201   3.949   1.650
  728TIP3    H1 2137  -0.254   3.973   1.572
  728TIP3    H2 2138  -0.187   4.037   1.690
  729TIP3   OH2 2139   0.062   3.873   1.700
  729TIP3    H1 2140  -0.032   3.895   1.681
  729TIP3    H2 2141   0.107   3.947   1.656
  730TIP3   OH2 2142   0.251   4.074   1.612
  730TIP3    H1 2143   0.243   4.161   1.568
  730TIP3    H2 2144   0.283   4.017   1.537
  731TIP3   OH2 2145   0.640   2.437   2.527
  731TIP3    H1 2146   0.678   2.445   2.616
  731TIP3    H2 2147   0.720   2.442   2.469
  732TIP3   OH2 2148   0.535   3.958   1.993
  732TIP3    H1 2149   0.458   3.931   1.939
  732TIP3    H2 2150   0.519   4.054   1.999
  733TIP3   OH2 2151   1.789   3.339   0.778
  733TIP3    H1 2152   1.760   3.427   0.746
  733TIP3    H2 2153   1.724   3.283   0.732
  734TIP3   OH2 2154   1.809   3.344   1.146
  734TIP3    H1 2155   1.843   3.309   1.231
  734TIP3    H2 2156   1.773   3.264   1.104
  735TIP3   OH2 2157   1.104   3.226   1.506
  735TIP3    H1 2158   1.133   3.154   1.566
  735TIP3    H2 2159   1.187   3.275   1.496
  736TIP3   OH2 2160   2.056   3.640   0.829
  736TIP3    H1 2161   2.037   3.573   0.896
  736TIP3    H2 2162   2.089   3.715   0.882
  737TIP3   OH2 2163   1.084   3.642   1.228
  737TIP3    H1 2164   1.076   3.545   1.228
  737TIP3    H2 2165   1.180   3.653   1.217
  738TIP3   OH2 2166   0.855   3.165   1.178
  738TIP3    H1 2167   0.884   3.077   1.210
  738TIP3    H2 2168   0.937   3.209   1.152
  739TIP3   OH2 2169   1.707   4.098   0.842
  739TIP3    H1 2170   1.744   4.027   0.785
  739TIP3    H2 2171   1.696   4.051   0.925
  740TIP3   OH2 2172   1.602   3.560   1.189
  740TIP3    H1 2173   1.646   3.484   1.148
  740TIP3    H2 2174   1.683   3.610   1.215
  741TIP3   OH2 2175   2.631   2.876   1.187
  741TIP3    H1 2176   2.656   2.960   1.229
  741TIP3    H2 2177   2.647   2.896   1.093
  742TIP3   OH2 2178   2.012   3.053   1.214
  742TIP3    H1 2179   2.056   2.968   1.236
  742TIP3    H2 2180   1.985   3.035   1.122
  743TIP3   OH2 2181   1.313   2.722   1.177
  743TIP3    H1 2182   1.363   2.789   1.127
  743TIP3    H2 2183   1.363   2.641   1.155
  744TIP3   OH2 2184   2.069   2.816   0.799
  744TIP3    H1 2185   2.142   2.801   0.863
  744TIP3    H2 2186   2.118   2.853   0.723
  745TIP3   OH2 2187   1.001   2.942   1.295
  745TIP3    H1 2188   1.078   2.916   1.349
  745TIP3    H2 2189   1.012   2.885   1.217
  746TIP3   OH2 2190   1.449   3.152   1.099
  746TIP3    H1 2191   1.543   3.123   1.107
  746TIP3    H2 2192   1.408   3.069   1.066
  747TIP3   OH2 2193   2.693   3.086   1.363
  747TIP3    H1 2194   2.611   3.136   1.343
  747TIP3    H2 2195   2.728   3.136   1.439
  748TIP3   OH2 2196   1.345   2.699   1.625
  748TIP3    H1 2197   1.288   2.742   1.558
  748TIP3    H2 2198   1.293   2.718   1.705
  749TIP3   OH2 2199   1.688   3.551   0.626
  749TIP3    H1 2200   1.663   3.545   0.532
  749TIP3    H2 2201   1.642   3.633   0.653
  750TIP3   OH2 2202   1.459   3.482   1.408
  750TIP3    H1 2203   1.402   3.554   1.441
  750TIP3    H2 2204   1.504   3.525   1.332
  751TIP3   OH2 2205   2.259   2.817   0.989
  751TIP3    H1 2206   2.223   2.784   1.072
  751TIP3    H2 2207   2.308   2.897   1.018
  752TIP3   OH2 2208   1.225   2.831   1.410
  752TIP3    H1 2209   1.294   2.898   1.432
  752TIP3    H2 2210   1.264   2.788   1.331
  753TIP3   OH2 2211   1.291   3.680   1.509
  753TIP3    H1 2212   1.266   3.768   1.475
  753TIP3    H2 2213   1.211   3.661   1.563
  754TIP3   OH2 2214   2.118   3.883   0.986
  754TIP3    H1 2215   2.027   3.874   1.024
  754TIP3    H2 2216   2.111   3.969   0.939
  755TIP3   OH2 2217   2.414   2.775   1.349
  755TIP3    H1 2218   2.325   2.797   1.316
  755TIP3    H2 2219   2.472   2.810   1.278
  756TIP3   OH2 2220   1.709   2.427   1.349
  756TIP3    H1 2221   1.702   2.331   1.372
  756TIP3    H2 2222   1.647   2.464   1.416
  757TIP3   OH2 2223   1.812   3.924   0.650
  757TIP3    H1 2224   1.863   3.841   0.635
  757TIP3    H2 2225   1.877   3.989   0.616
  758TIP3   OH2 2226   1.957   3.706   0.582
  758TIP3    H1 2227   1.917   3.623   0.553
  758TIP3    H2 2228   2.004   3.678   0.664
  759TIP3   OH2 2229   2.344   3.787   1.331
  759TIP3    H1 2230   2.332   3.711   1.270
  759TIP3    H2 2231   2.326   3.863   1.272
  760TIP3   OH2 2232   1.628   3.185   0.604
  760TIP3    H1 2233   1.556   3.244   0.576
  760TIP3    H2 2234   1.677   3.170   0.520
  761TIP3   OH2 2235   2.539   3.429   1.180
  761TIP3    H1 2236   2.455   3.480   1.181
  761TIP3    H2 2237   2.572   3.454   1.091
  762TIP3   OH2 2238   1.968   3.221   0.602
  762TIP3    H1 2239   1.928   3.272   0.675
  762TIP3    H2 2240   2.064   3.236   0.616
  763TIP3   OH2 2241   2.218   3.302   1.479
  763TIP3    H1 2242   2.216   3.387   1.529
  763TIP3    H2 2243   2.132   3.307   1.433
  764TIP3   OH2 2244   1.222   3.265   0.991
  764TIP3    H1 2245   1.206   3.206   0.917
  764TIP3    H2 2246   1.307   3.230   1.026
  765TIP3   OH2 2247   1.347   3.675   1.123
  765TIP3    H1 2248   1.333   3.648   1.031
  765TIP3    H2 2249   1.436   3.638   1.142
  766TIP3   OH2 2250   1.351   3.242   1.339
  766TIP3    H1 2251   1.392   3.218   1.253
  766TIP3    H2 2252   1.395   3.327   1.359
  767TIP3   OH2 2253   1.877   3.875   1.108
  767TIP3    H1 2254   1.865   3.955   1.162
  767TIP3    H2 2255   1.861   3.803   1.172
  768TIP3   OH2 2256   1.494   3.791   1.658
  768TIP3    H1 2257   1.431   3.852   1.702
  768TIP3    H2 2258   1.431   3.738   1.604
  769TIP3   OH2 2259   1.814   3.124   0.406
  769TIP3    H1 2260   1.874   3.167   0.471
  769TIP3    H2 2261   1.870   3.133   0.325
  770TIP3   OH2 2262   1.250   3.342   1.768
  770TIP3    H1 2263   1.254   3.433   1.803
  770TIP3    H2 2264   1.155   3.322   1.779
  771TIP3   OH2 2265   1.570   3.799   0.659
  771TIP3    H1 2266   1.656   3.847   0.662
  771TIP3    H2 2267   1.513   3.865   0.618
  772TIP3   OH2 2268   1.286   3.954   1.743
  772TIP3    H1 2269   1.252   3.962   1.652
  772TIP3    H2 2270   1.204   3.934   1.794
  773TIP3   OH2 2271   2.353   2.391   0.446
  773TIP3    H1 2272   2.283   2.433   0.500
  773TIP3    H2 2273   2.369   2.460   0.378
  774TIP3   OH2 2274   2.129   3.745  -0.020
  774TIP3    H1 2275   2.153   3.837  -0.041
  774TIP3    H2 2276   2.215   3.700  -0.026
  775TIP3   OH2 2277   0.863   3.489   1.691
  775TIP3    H1 2278   0.802   3.467   1.618
  775TIP3    H2 2279   0.905   3.404   1.712
  776TIP3   OH2 2280   0.722   3.678   1.333
  776TIP3    H1 2281   0.816   3.680   1.311
  776TIP3    H2 2282   0.712   3.761   1.381
  777TIP3   OH2 2283   2.582   4.141   1.383
  777TIP3    H1 2284   2.581   4.044   1.396
  777TIP3    H2 2285   2.498   4.166   1.427
  778TIP3   OH2 2286   1.688   3.919   1.514
  778TIP3    H1 2287   1.683   4.012   1.545
  778TIP3    H2 2288   1.617   3.877   1.568
  779TIP3   OH2 2289   1.451   4.043   0.462
  779TIP3    H1 2290   1.397   4.040   0.381
  779TIP3    H2 2291   1.423   4.128   0.501
  780TIP3   OH2 2292   0.898   3.919   0.855
  780TIP3    H1 2293   0.939   3.900   0.942
  780TIP3    H2 2294   0.846   3.837   0.838
  781TIP3   OH2 2295   1.663   3.955   0.111
  781TIP3    H1 2296   1.719   3.895   0.058
  781TIP3    H2 2297   1.709   3.955   0.197
  782TIP3   OH2 2298   1.710   4.006   0.383
  782TIP3    H1 2299   1.619   4.012   0.419
  782TIP3    H2 2300   1.758   3.966   0.458
  783TIP3   OH2 2301   2.470   3.260   1.655
  783TIP3    H1 2302   2.386   3.269   1.607
  783TIP3    H2 2303   2.483   3.163   1.652
  784TIP3   OH2 2304   1.069   3.672   1.670
  784TIP3    H1 2305   1.117   3.658   1.754
  784TIP3    H2 2306   0.993   3.611   1.680
  785TIP3   OH2 2307   1.470   2.497   1.480
  785TIP3    H1 2308   1.397   2.468   1.423
  785TIP3    H2 2309   1.427   2.568   1.532
  786TIP3   OH2 2310   2.007   2.611   1.660
  786TIP3    H1 2311   2.076   2.583   1.723
  786TIP3    H2 2312   1.924   2.591   1.707
  787TIP3   OH2 2313   2.237   3.042   1.575
  787TIP3    H1 2314   2.186   3.040   1.659
  787TIP3    H2 2315   2.214   3.129   1.538
  788TIP3   OH2 2316   1.407   3.020   1.486
  788TIP3    H1 2317   1.355   3.038   1.568
  788TIP3    H2 2318   1.390   3.102   1.435
  789TIP3   OH2 2319   1.288   2.949   1.004
  789TIP3    H1 2320   1.199   2.927   1.035
  789TIP3    H2 2321   1.299   2.883   0.933
  790TIP3   OH2 2322   1.780   2.986   0.727
  790TIP3    H1 2323   1.736   3.061   0.681
  790TIP3    H2 2324   1.838   2.952   0.655
  791TIP3   OH2 2325   1.949   3.256   1.805
  791TIP3    H1 2326   1.927   3.184   1.868
  791TIP3    H2 2327   2.043   3.271   1.828
  792TIP3   OH2 2328   1.927   3.001   0.959
  792TIP3    H1 2329   1.870   3.029   0.884
  792TIP3    H2 2330   1.968   2.923   0.916
  793TIP3   OH2 2331   1.218   3.043   1.689
  793TIP3    H1 2332   1.249   3.104   1.757
  793TIP3    H2 2333   1.205   2.960   1.739
  794TIP3   OH2 2334   1.941   3.251   1.381
  794TIP3    H1 2335   1.974   3.180   1.321
  794TIP3    H2 2336   1.909   3.197   1.455
  795TIP3   OH2 2337   1.590   2.775   1.071
  795TIP3    H1 2338   1.568   2.696   1.125
  795TIP3    H2 2339   1.672   2.805   1.113
  796TIP3   OH2 2340   2.109   2.798   1.263
  796TIP3    H1 2341   2.079   2.816   1.355
  796TIP3    H2 2342   2.044   2.728   1.240
  797TIP3   OH2 2343   2.280   4.486   1.480
  797TIP3    H1 2344   2.276   4.510   1.386
  797TIP3    H2 2345   2.360   4.533   1.509
  798TIP3   OH2 2346   1.231   3.595   1.896
  798TIP3    H1 2347   1.311   3.625   1.944
  798TIP3    H2 2348   1.166   3.595   1.970
  799TIP3   OH2 2349   1.702   3.048   1.150
  799TIP3    H1 2350   1.782   3.022   1.101
  799TIP3    H2 2351   1.715   3.007   1.237
  800TIP3   OH2 2352   1.670   2.950   1.446
  800TIP3    H1 2353   1.581   2.988   1.461
  800TIP3    H2 2354   1.729   3.011   1.495
  801TIP3   OH2 2355   1.381   3.339   0.562
  801TIP3    H1 2356   1.284   3.327   0.566
  801TIP3    H2 2357   1.395   3.375   0.653
  802TIP3   OH2 2358   2.304   3.572   1.161
  802TIP3    H1 2359   2.329   3.624   1.082
  802TIP3    H2 2360   2.220   3.530   1.133
  803TIP3   OH2 2361   1.799   3.653   1.538
  803TIP3    H1 2362   1.843   3.645   1.624
  803TIP3    H2 2363   1.766   3.744   1.538
  804TIP3   OH2 2364   1.929   2.883   0.517
  804TIP3    H1 2365   2.025   2.901   0.514
  804TIP3    H2 2366   1.896   2.946   0.451
  805TIP3   OH2 2367   1.098   3.362   1.216
  805TIP3    H1 2368   1.145   3.339   1.133
  805TIP3    H2 2369   1.147   3.310   1.281
  806TIP3   OH2 2370   1.551   3.500   0.384
  806TIP3    H1 2371   1.509   3.589   0.380
  806TIP3    H2 2372   1.492   3.451   0.444
  807TIP3   OH2 2373   0.984   3.277   1.827
  807TIP3    H1 2374   0.998   3.260   1.922
  807TIP3    H2 2375   0.914   3.212   1.807
  808TIP3   OH2 2376   1.711   3.398   1.846
  808TIP3    H1 2377   1.649   3.338   1.802
  808TIP3    H2 2378   1.797   3.360   1.816
  809TIP3   OH2 2379   1.963   3.912   1.438
  809TIP3    H1 2380   1.866   3.915   1.449
  809TIP3    H2 2381   1.991   3.968   1.513
  810TIP3   OH2 2382   2.371   2.995   0.341
  810TIP3    H1 2383   2.315   2.950   0.273
  810TIP3    H2 2384   2.363   3.086   0.304
  811TIP3   OH2 2385   2.595   3.850   1.419
  811TIP3    H1 2386   2.497   3.843   1.409
  811TIP3    H2 2387   2.622   3.820   1.329
  812TIP3   OH2 2388   2.084   3.809   0.246
  812TIP3    H1 2389   2.069   3.730   0.299
  812TIP3    H2 2390   2.089   3.772   0.156
  813TIP3   OH2 2391   2.071   3.438   1.078
  813TIP3    H1 2392   1.977   3.416   1.093
  813TIP3    H2 2393   2.102   3.355   1.035
  814TIP3   OH2 2394   1.200   3.671   0.839
  814TIP3    H1 2395   1.196   3.754   0.786
  814TIP3    H2 2396   1.107   3.655   0.856
  815TIP3   OH2 2397   1.343   3.439   0.807
  815TIP3    H1 2398   1.300   3.527   0.811
  815TIP3    H2 2399   1.298   3.393   0.880
  816TIP3   OH2 2400   1.474   4.005   1.305
  816TIP3    H1 2401   1.515   4.079   1.255
  816TIP3    H2 2402   1.551   3.968   1.350
  817TIP3   OH2 2403   1.125   3.906   0.699
  817TIP3    H1 2404   1.040   3.922   0.746
  817TIP3    H2 2405   1.159   3.999   0.696
  818TIP3   OH2 2406   1.851   3.644   1.269
  818TIP3    H1 2407   1.841   3.639   1.367
  818TIP3    H2 2408   1.929   3.589   1.255
  819TIP3   OH2 2409   1.830   3.551   0.161
  819TIP3    H1 2410   1.894   3.479   0.172
  819TIP3    H2 2411   1.748   3.512   0.194
  820TIP3   OH2 2412   2.104   4.171   1.315
  820TIP3    H1 2413   2.022   4.119   1.308
  820TIP3    H2 2414   2.090   4.236   1.243
  821TIP3   OH2 2415   2.176   4.015  -0.039
  821TIP3    H1 2416   2.230   4.086  -0.079
  821TIP3    H2 2417   2.100   4.067  -0.005
  822TIP3   OH2 2418   1.187   2.795   1.836
  822TIP3    H1 2419   1.090   2.805   1.843
  822TIP3    H2 2420   1.204   2.736   1.911
  823TIP3   OH2 2421   0.909   3.870   1.463
  823TIP3    H1 2422   0.965   3.801   1.503
  823TIP3    H2 2423   0.938   3.949   1.511
  824TIP3   OH2 2424   1.223   3.529   0.392
  824TIP3    H1 2425   1.272   3.537   0.475
  824TIP3    H2 2426   1.182   3.618   0.389
  825TIP3   OH2 2427   2.033   2.852   1.522
  825TIP3    H1 2428   2.114   2.888   1.560
  825TIP3    H2 2429   2.020   2.769   1.574
  826TIP3   OH2 2430   1.923   2.626   0.675
  826TIP3    H1 2431   1.901   2.672   0.592
  826TIP3    H2 2432   1.976   2.696   0.719
  827TIP3   OH2 2433   1.432   3.743   0.358
  827TIP3    H1 2434   1.348   3.762   0.403
  827TIP3    H2 2435   1.449   3.829   0.315
  828TIP3   OH2 2436   1.607   2.787   0.795
  828TIP3    H1 2437   1.662   2.865   0.769
  828TIP3    H2 2438   1.583   2.812   0.886
  829TIP3   OH2 2439   1.867   3.091   1.589
  829TIP3    H1 2440   1.896   3.143   1.668
  829TIP3    H2 2441   1.921   3.010   1.596
  830TIP3   OH2 2442   1.806   2.619   0.940
  830TIP3    H1 2443   1.721   2.662   0.924
  830TIP3    H2 2444   1.849   2.631   0.854
  831TIP3   OH2 2445   1.177   3.787   0.458
  831TIP3    H1 2446   1.151   3.863   0.401
  831TIP3    H2 2447   1.152   3.823   0.546
  832TIP3   OH2 2448   2.501   2.986   1.579
  832TIP3    H1 2449   2.402   2.988   1.581
  832TIP3    H2 2450   2.517   2.986   1.484
  833TIP3   OH2 2451   2.154   3.188   0.964
  833TIP3    H1 2452   2.079   3.126   0.970
  833TIP3    H2 2453   2.225   3.140   1.011
  834TIP3   OH2 2454   2.128   4.153   0.907
  834TIP3    H1 2455   2.085   4.200   0.832
  834TIP3    H2 2456   2.223   4.172   0.886
  835TIP3   OH2 2457   0.755   3.683   0.807
  835TIP3    H1 2458   0.695   3.661   0.879
  835TIP3    H2 2459   0.743   3.609   0.747
  836TIP3   OH2 2460   0.903   4.188   1.891
  836TIP3    H1 2461   0.990   4.191   1.938
  836TIP3    H2 2462   0.887   4.093   1.888
  837TIP3   OH2 2463   1.373   4.131   1.937
  837TIP3    H1 2464   1.469   4.122   1.939
  837TIP3    H2 2465   1.349   4.070   1.865
  838TIP3   OH2 2466   1.410   3.740   0.024
  838TIP3    H1 2467   1.352   3.675   0.067
  838TIP3    H2 2468   1.498   3.707   0.047
  839TIP3   OH2 2469   2.014   4.051   1.671
  839TIP3    H1 2470   2.011   3.981   1.739
  839TIP3    H2 2471   2.092   4.103   1.698
  840TIP3   OH2 2472   1.817   3.758  -0.013
  840TIP3    H1 2473   1.814   3.681   0.047
  840TIP3    H2 2474   1.911   3.757  -0.037
  841TIP3   OH2 2475   1.029   3.586   2.090
  841TIP3    H1 2476   1.046   3.490   2.095
  841TIP3    H2 2477   0.943   3.589   2.043
  842TIP3   OH2 2478   1.634   3.674   1.864
  842TIP3    H1 2479   1.595   3.698   1.778
  842TIP3    H2 2480   1.666   3.583   1.849
  843TIP3   OH2 2481   1.519   3.441   0.116
  843TIP3    H1 2482   1.531   3.474   0.207
  843TIP3    H2 2483   1.506   3.347   0.135
  844TIP3   OH2 2484   2.128   3.689   1.474
  844TIP3    H1 2485   2.206   3.726   1.428
  844TIP3    H2 2486   2.062   3.759   1.455
  845TIP3   OH2 2487   1.148   3.326   2.076
  845TIP3    H1 2488   1.226   3.283   2.040
  845TIP3    H2 2489   1.180   3.356   2.164
  846TIP3   OH2 2490   1.486   3.203   1.733
  846TIP3    H1 2491   1.407   3.261   1.734
  846TIP3    H2 2492   1.537   3.238   1.657
  847TIP3   OH2 2493   2.002   3.605   1.865
  847TIP3    H1 2494   2.076   3.569   1.815
  847TIP3    H2 2495   1.995   3.542   1.939
  848TIP3   OH2 2496   2.203   3.300  -0.067
  848TIP3    H1 2497   2.174   3.256  -0.149
  848TIP3    H2 2498   2.133   3.277  -0.004
  849TIP3   OH2 2499   1.610   2.996   1.856
  849TIP3    H1 2500   1.608   2.917   1.798
  849TIP3    H2 2501   1.565   3.063   1.800
  850TIP3   OH2 2502   1.607   2.780   1.670
  850TIP3    H1 2503   1.636   2.821   1.586
  850TIP3    H2 2504   1.514   2.756   1.650
  851TIP3   OH2 2505   1.631   3.313   1.539
  851TIP3    H1 2506   1.719   3.333   1.505
  851TIP3    H2 2507   1.575   3.379   1.492
  852TIP3   OH2 2508   2.214   3.279   1.914
  852TIP3    H1 2509   2.262   3.196   1.928
  852TIP3    H2 2510   2.282   3.337   1.878
  853TIP3   OH2 2511   2.256   3.535   1.655
  853TIP3    H1 2512   2.199   3.592   1.598
  853TIP3    H2 2513   2.344   3.557   1.617
  854TIP3   OH2 2514   1.489   3.097   2.093
  854TIP3    H1 2515   1.424   3.025   2.108
  854TIP3    H2 2516   1.521   3.075   2.003
  855TIP3   OH2 2517   1.744   2.542   1.741
  855TIP3    H1 2518   1.691   2.622   1.716
  855TIP3    H2 2519   1.678   2.471   1.731
  856TIP3   OH2 2520   1.869   3.040   1.951
  856TIP3    H1 2521   1.851   3.024   2.046
  856TIP3    H2 2522   1.780   3.019   1.915
  857TIP3   OH2 2523   2.106   2.996   1.806
  857TIP3    H1 2524   2.032   2.996   1.869
  857TIP3    H2 2525   2.181   2.966   1.862
  858TIP3   OH2 2526   2.335   2.938   1.955
  858TIP3    H1 2527   2.349   2.842   1.969
  858TIP3    H2 2528   2.331   2.972   2.047
  859TIP3   OH2 2529   1.332   2.873   2.147
  859TIP3    H1 2530   1.333   2.783   2.110
  859TIP3    H2 2531   1.372   2.857   2.235
  860TIP3   OH2 2532   1.831   2.549   2.000
  860TIP3    H1 2533   1.898   2.478   1.993
  860TIP3    H2 2534   1.795   2.548   1.910
  861TIP3   OH2 2535   1.902   2.765   2.154
  861TIP3    H1 2536   1.881   2.693   2.091
  861TIP3    H2 2537   1.823   2.823   2.147
  862TIP3   OH2 2538   1.139   4.002   0.295
  862TIP3    H1 2539   1.204   4.000   0.223
  862TIP3    H2 2540   1.053   4.008   0.248
  863TIP3   OH2 2541   0.522   3.987   0.860
  863TIP3    H1 2542   0.438   3.939   0.851
  863TIP3    H2 2543   0.567   3.932   0.929
  864TIP3   OH2 2544   0.638   3.850   1.070
  864TIP3    H1 2545   0.611   3.782   1.132
  864TIP3    H2 2546   0.699   3.903   1.124
  865TIP3   OH2 2547   2.385   4.240   0.871
  865TIP3    H1 2548   2.414   4.270   0.958
  865TIP3    H2 2549   2.454   4.274   0.812
  866TIP3   OH2 2550   2.408   4.259   1.155
  866TIP3    H1 2551   2.363   4.172   1.150
  866TIP3    H2 2552   2.488   4.233   1.205
  867TIP3   OH2 2553   2.458   3.935   1.728
  867TIP3    H1 2554   2.387   3.947   1.794
  867TIP3    H2 2555   2.501   4.023   1.730
  868TIP3   OH2 2556   2.294   3.453   0.338
  868TIP3    H1 2557   2.360   3.520   0.312
  868TIP3    H2 2558   2.333   3.415   0.419
  869TIP3   OH2 2559   2.411   3.312   0.545
  869TIP3    H1 2560   2.341   3.272   0.601
  869TIP3    H2 2561   2.471   3.351   0.611
  870TIP3   OH2 2562   2.462   3.712   0.980
  870TIP3    H1 2563   2.511   3.642   0.933
  870TIP3    H2 2564   2.462   3.785   0.914
  871TIP3   OH2 2565   2.283   4.008   1.174
  871TIP3    H1 2566   2.210   4.051   1.222
  871TIP3    H2 2567   2.236   3.964   1.100
  872TIP3   OH2 2568   2.347   3.225   0.196
  872TIP3    H1 2569   2.266   3.210   0.143
  872TIP3    H2 2570   2.318   3.306   0.244
  873TIP3   OH2 2571   2.218   2.894   0.137
  873TIP3    H1 2572   2.162   2.974   0.151
  873TIP3    H2 2573   2.161   2.847   0.074
  874TIP3   OH2 2574   2.229   3.181   0.697
  874TIP3    H1 2575   2.219   3.086   0.678
  874TIP3    H2 2576   2.207   3.187   0.792
  875TIP3   OH2 2577   0.841   3.252   1.447
  875TIP3    H1 2578   0.840   3.229   1.352
  875TIP3    H2 2579   0.938   3.253   1.464
  876TIP3   OH2 2580   2.504   3.600   1.553
  876TIP3    H1 2581   2.574   3.533   1.539
  876TIP3    H2 2582   2.526   3.667   1.485
  877TIP3   OH2 2583   2.682   3.397   1.554
  877TIP3    H1 2584   2.609   3.348   1.596
  877TIP3    H2 2585   2.756   3.335   1.571
  878TIP3   OH2 2586   2.221   2.902   0.580
  878TIP3    H1 2587   2.266   2.816   0.589
  878TIP3    H2 2588   2.269   2.940   0.504
  879TIP3   OH2 2589   2.369   3.055   1.084
  879TIP3    H1 2590   2.454   3.079   1.040
  879TIP3    H2 2591   2.385   3.096   1.171
  880TIP3   OH2 2592   2.445   3.207   1.312
  880TIP3    H1 2593   2.367   3.242   1.360
  880TIP3    H2 2594   2.477   3.287   1.266
  881TIP3   OH2 2595   1.076   2.962   2.179
  881TIP3    H1 2596   1.171   2.944   2.161
  881TIP3    H2 2597   1.044   2.870   2.186
  882TIP3   OH2 2598   2.893   2.805   1.870
  882TIP3    H1 2599   2.954   2.739   1.830
  882TIP3    H2 2600   2.862   2.854   1.791
  883TIP3   OH2 2601   2.324   2.648   0.626
  883TIP3    H1 2602   2.371   2.634   0.711
  883TIP3    H2 2603   2.253   2.582   0.633
  884TIP3   OH2 2604   1.114   2.567   1.437
  884TIP3    H1 2605   1.079   2.556   1.527
  884TIP3    H2 2606   1.106   2.664   1.430
  885TIP3   OH2 2607   0.818   2.933   1.505
  885TIP3    H1 2608   0.875   2.944   1.426
  885TIP3    H2 2609   0.835   3.014   1.553
  886TIP3   OH2 2610   2.757   2.936   1.676
  886TIP3    H1 2611   2.674   2.982   1.698
  886TIP3    H2 2612   2.722   2.865   1.619
  887TIP3   OH2 2613   2.441   2.554   0.236
  887TIP3    H1 2614   2.533   2.528   0.253
  887TIP3    H2 2615   2.448   2.651   0.243
  888TIP3   OH2 2616   1.967   4.107   0.528
  888TIP3    H1 2617   2.016   4.096   0.444
  888TIP3    H2 2618   2.021   4.172   0.575
  889TIP3   OH2 2619   1.028   2.464   1.832
  889TIP3    H1 2620   0.979   2.484   1.913
  889TIP3    H2 2621   0.968   2.501   1.764
  890TIP3   OH2 2622   1.064   3.912   1.904
  890TIP3    H1 2623   0.970   3.891   1.892
  890TIP3    H2 2624   1.077   3.897   1.998
  891TIP3   OH2 2625   1.249   3.950   1.457
  891TIP3    H1 2626   1.201   4.026   1.418
  891TIP3    H2 2627   1.334   3.963   1.410
  892TIP3   OH2 2628   1.682   4.186   1.593
  892TIP3    H1 2629   1.724   4.186   1.681
  892TIP3    H2 2630   1.747   4.239   1.542
  893TIP3   OH2 2631   1.862   4.343   1.459
  893TIP3    H1 2632   1.932   4.294   1.412
  893TIP3    H2 2633   1.916   4.400   1.518
  894TIP3   OH2 2634   2.638   2.716   1.554
  894TIP3    H1 2635   2.559   2.766   1.527
  894TIP3    H2 2636   2.605   2.625   1.545
  895TIP3   OH2 2637   0.923   4.197   1.488
  895TIP3    H1 2638   0.831   4.223   1.466
  895TIP3    H2 2639   0.940   4.260   1.560
  896TIP3   OH2 2640   1.156   4.179   1.342
  896TIP3    H1 2641   1.068   4.191   1.384
  896TIP3    H2 2642   1.138   4.211   1.251
  897TIP3   OH2 2643   1.580   4.202   1.140
  897TIP3    H1 2644   1.511   4.220   1.073
  897TIP3    H2 2645   1.592   4.291   1.181
  898TIP3   OH2 2646   1.851   4.142   1.194
  898TIP3    H1 2647   1.757   4.162   1.174
  898TIP3    H2 2648   1.897   4.212   1.145
  899TIP3   OH2 2649   2.052   4.333   1.100
  899TIP3    H1 2650   2.040   4.418   1.053
  899TIP3    H2 2651   2.082   4.274   1.027
  900TIP3   OH2 2652   0.827   3.989   1.224
  900TIP3    H1 2653   0.854   3.961   1.314
  900TIP3    H2 2654   0.902   3.949   1.173
  901TIP3   OH2 2655   1.030   3.870   1.090
  901TIP3    H1 2656   1.044   3.786   1.141
  901TIP3    H2 2657   1.122   3.905   1.086
  902TIP3   OH2 2658   1.297   3.956   1.094
  902TIP3    H1 2659   1.327   3.864   1.084
  902TIP3    H2 2660   1.348   3.981   1.173
  903TIP3   OH2 2661   1.902   2.618   1.226
  903TIP3    H1 2662   1.843   2.548   1.257
  903TIP3    H2 2663   1.904   2.602   1.130
  904TIP3   OH2 2664   2.399   2.491   1.079
  904TIP3    H1 2665   2.427   2.545   1.002
  904TIP3    H2 2666   2.302   2.508   1.079
  905TIP3   OH2 2667   2.485   2.587   0.840
  905TIP3    H1 2668   2.559   2.537   0.800
  905TIP3    H2 2669   2.520   2.679   0.829
  906TIP3   OH2 2670   1.525   2.527   1.160
  906TIP3    H1 2671   1.583   2.502   1.085
  906TIP3    H2 2672   1.574   2.491   1.236
  907TIP3   OH2 2673   2.131   2.507   1.055
  907TIP3    H1 2674   2.091   2.481   0.971
  907TIP3    H2 2675   2.096   2.437   1.115
  908TIP3   OH2 2676   2.135   2.439   0.608
  908TIP3    H1 2677   2.049   2.485   0.623
  908TIP3    H2 2678   2.108   2.345   0.611
  909TIP3   OH2 2679   1.399   3.976   0.169
  909TIP3    H1 2680   1.494   3.997   0.154
  909TIP3    H2 2681   1.393   3.900   0.107
  910TIP3   OH2 2682   2.111   4.075   0.294
  910TIP3    H1 2683   2.107   3.977   0.283
  910TIP3    H2 2684   2.068   4.103   0.210
  911TIP3   OH2 2685   1.324   2.594   2.078
  911TIP3    H1 2686   1.288   2.525   2.137
  911TIP3    H2 2687   1.418   2.596   2.108
  912TIP3   OH2 2688   1.575   2.601   2.198
  912TIP3    H1 2689   1.660   2.579   2.155
  912TIP3    H2 2690   1.567   2.528   2.263
  913TIP3   OH2 2691   2.401   2.668   1.985
  913TIP3    H1 2692   2.417   2.637   2.077
  913TIP3    H2 2693   2.492   2.662   1.948
  914TIP3   OH2 2694   2.330   4.214   1.480
  914TIP3    H1 2695   2.254   4.185   1.426
  914TIP3    H2 2696   2.313   4.310   1.486
  915TIP3   OH2 2697   3.600   3.589   0.245
  915TIP3    H1 2698   3.571   3.680   0.219
  915TIP3    H2 2699   3.522   3.539   0.213
  916TIP3   OH2 2700   3.618   3.586   0.625
  916TIP3    H1 2701   3.644   3.565   0.717
  916TIP3    H2 2702   3.564   3.510   0.600
  917TIP3   OH2 2703   2.899   3.480   0.995
  917TIP3    H1 2704   2.932   3.412   1.056
  917TIP3    H2 2705   2.978   3.533   0.982
  918TIP3   OH2 2706   3.858   3.891   0.311
  918TIP3    H1 2707   3.826   3.831   0.380
  918TIP3    H2 2708   3.884   3.969   0.362
  919TIP3   OH2 2709   2.865   3.888   0.721
  919TIP3    H1 2710   2.852   3.791   0.720
  919TIP3    H2 2711   2.961   3.890   0.699
  920TIP3   OH2 2712   2.580   3.089   0.494
  920TIP3    H1 2713   2.536   3.173   0.515
  920TIP3    H2 2714   2.509   3.047   0.442
  921TIP3   OH2 2715   2.636   3.385   0.684
  921TIP3    H1 2716   2.689   3.307   0.710
  921TIP3    H2 2717   2.696   3.432   0.624
  922TIP3   OH2 2718   3.493   4.359   0.320
  922TIP3    H1 2719   3.535   4.276   0.289
  922TIP3    H2 2720   3.465   4.336   0.410
  923TIP3   OH2 2721   3.408   3.810   0.686
  923TIP3    H1 2722   3.445   3.746   0.624
  923TIP3    H2 2723   3.491   3.856   0.712
  924TIP3   OH2 2724   4.420   3.134   0.676
  924TIP3    H1 2725   4.449   3.218   0.717
  924TIP3    H2 2726   4.437   3.152   0.582
  925TIP3   OH2 2727   3.815   3.311   0.702
  925TIP3    H1 2728   3.856   3.224   0.721
  925TIP3    H2 2729   3.780   3.295   0.612
  926TIP3   OH2 2730   3.160   2.973   0.667
  926TIP3    H1 2731   3.139   3.048   0.607
  926TIP3    H2 2732   3.108   2.902   0.624
  927TIP3   OH2 2733   3.850   3.068   0.291
  927TIP3    H1 2734   3.922   3.054   0.357
  927TIP3    H2 2735   3.902   3.103   0.216
  928TIP3   OH2 2736   2.784   3.174   0.780
  928TIP3    H1 2737   2.869   3.159   0.826
  928TIP3    H2 2738   2.800   3.122   0.699
  929TIP3   OH2 2739   3.224   3.373   0.576
  929TIP3    H1 2740   3.318   3.350   0.586
  929TIP3    H2 2741   3.186   3.290   0.541
  930TIP3   OH2 2742   4.492   3.346   0.843
  930TIP3    H1 2743   4.407   3.391   0.824
  930TIP3    H2 2744   4.514   3.385   0.929
  931TIP3   OH2 2745   3.147   2.956   1.106
  931TIP3    H1 2746   3.091   2.998   1.037
  931TIP3    H2 2747   3.094   2.976   1.186
  932TIP3   OH2 2748   3.489   3.805   0.126
  932TIP3    H1 2749   3.464   3.790   0.032
  932TIP3    H2 2750   3.437   3.886   0.144
  933TIP3   OH2 2751   3.252   3.734   0.895
  933TIP3    H1 2752   3.195   3.808   0.925
  933TIP3    H2 2753   3.297   3.774   0.816
  934TIP3   OH2 2754   4.053   3.074   0.474
  934TIP3    H1 2755   4.021   3.041   0.560
  934TIP3    H2 2756   4.101   3.155   0.501
  935TIP3   OH2 2757   3.024   3.073   0.887
  935TIP3    H1 2758   3.083   3.148   0.910
  935TIP3    H2 2759   3.074   3.035   0.811
  936TIP3   OH2 2760   3.087   3.936   0.997
  936TIP3    H1 2761   3.064   4.021   0.954
  936TIP3    H2 2762   3.006   3.921   1.050
  937TIP3   OH2 2763   2.490   3.629   0.239
  937TIP3    H1 2764   2.445   3.646   0.154
  937TIP3    H2 2765   2.519   3.718   0.265
  938TIP3   OH2 2766   3.920   4.139   0.470
  938TIP3    H1 2767   3.832   4.129   0.513
  938TIP3    H2 2768   3.908   4.224   0.423
  939TIP3   OH2 2769   4.212   3.030   0.838
  939TIP3    H1 2770   4.125   3.056   0.804
  939TIP3    H2 2771   4.272   3.064   0.769
  940TIP3   OH2 2772   3.502   2.673   0.826
  940TIP3    H1 2773   3.480   2.579   0.839
  940TIP3    H2 2774   3.426   2.715   0.872
  941TIP3   OH2 2775   3.611   4.166   0.158
  941TIP3    H1 2776   3.652   4.080   0.133
  941TIP3    H2 2777   3.689   4.223   0.140
  942TIP3   OH2 2778   3.754   3.959   0.064
  942TIP3    H1 2779   3.744   3.877   0.011
  942TIP3    H2 2780   3.796   3.924   0.146
  943TIP3   OH2 2781   4.142   4.044   0.817
  943TIP3    H1 2782   4.126   3.968   0.757
  943TIP3    H2 2783   4.120   4.120   0.758
  944TIP3   OH2 2784   3.424   3.441   0.091
  944TIP3    H1 2785   3.345   3.497   0.073
  944TIP3    H2 2786   3.465   3.439   0.002
  945TIP3   OH2 2787   3.379   3.212  -0.190
  945TIP3    H1 2788   3.448   3.275  -0.160
  945TIP3    H2 2789   3.432   3.143  -0.231
  946TIP3   OH2 2790   4.336   3.688   0.667
  946TIP3    H1 2791   4.251   3.738   0.669
  946TIP3    H2 2792   4.367   3.713   0.577
  947TIP3   OH2 2793   3.772   3.493   0.061
  947TIP3    H1 2794   3.721   3.524   0.140
  947TIP3    H2 2795   3.861   3.482   0.099
  948TIP3   OH2 2796   4.015   3.559   0.966
  948TIP3    H1 2797   4.011   3.645   1.012
  948TIP3    H2 2798   3.928   3.560   0.920
  949TIP3   OH2 2799   3.009   3.514   0.466
  949TIP3    H1 2800   2.975   3.457   0.395
  949TIP3    H2 2801   3.088   3.464   0.497
  950TIP3   OH2 2802   3.117   3.877   0.622
  950TIP3    H1 2803   3.108   3.902   0.529
  950TIP3    H2 2804   3.209   3.899   0.641
  951TIP3   OH2 2805   3.145   3.493   0.818
  951TIP3    H1 2806   3.178   3.469   0.729
  951TIP3    H2 2807   3.187   3.580   0.834
  952TIP3   OH2 2808   3.686   4.130   0.599
  952TIP3    H1 2809   3.660   4.210   0.648
  952TIP3    H2 2810   3.660   4.058   0.659
  953TIP3   OH2 2811   3.289   4.044   1.148
  953TIP3    H1 2812   3.226   4.109   1.186
  953TIP3    H2 2813   3.227   3.993   1.090
  954TIP3   OH2 2814   3.594   3.394  -0.124
  954TIP3    H1 2815   3.660   3.428  -0.060
  954TIP3    H2 2816   3.612   3.451  -0.201
  955TIP3   OH2 2817   3.047   3.596   1.254
  955TIP3    H1 2818   3.051   3.688   1.288
  955TIP3    H2 2819   2.951   3.578   1.265
  956TIP3   OH2 2820   3.365   4.048   0.149
  956TIP3    H1 2821   3.450   4.096   0.161
  956TIP3    H2 2822   3.306   4.118   0.118
  957TIP3   OH2 2823   3.084   4.215   1.226
  957TIP3    H1 2824   3.055   4.222   1.133
  957TIP3    H2 2825   3.000   4.193   1.273
  958TIP3   OH2 2826   4.132   2.628  -0.076
  958TIP3    H1 2827   4.049   2.638  -0.023
  958TIP3    H2 2828   4.135   2.715  -0.118
  959TIP3   OH2 2829   2.885   3.357   0.254
  959TIP3    H1 2830   2.818   3.411   0.207
  959TIP3    H2 2831   2.831   3.282   0.280
  960TIP3   OH2 2832   2.659   3.749   1.177
  960TIP3    H1 2833   2.592   3.731   1.108
  960TIP3    H2 2834   2.699   3.661   1.192
  961TIP3   OH2 2835   2.520   3.938   0.810
  961TIP3    H1 2836   2.615   3.929   0.792
  961TIP3    H2 2837   2.518   4.016   0.866
  962TIP3   OH2 2838   4.378   4.398   0.871
  962TIP3    H1 2839   4.376   4.301   0.883
  962TIP3    H2 2840   4.293   4.423   0.914
  963TIP3   OH2 2841   3.504   4.166   1.025
  963TIP3    H1 2842   3.486   4.262   1.035
  963TIP3    H2 2843   3.420   4.128   1.059
  964TIP3   OH2 2844   3.236   4.314  -0.041
  964TIP3    H1 2845   3.166   4.291  -0.103
  964TIP3    H2 2846   3.208   4.403  -0.010
  965TIP3   OH2 2847   2.692   4.153   0.344
  965TIP3    H1 2848   2.741   4.145   0.429
  965TIP3    H2 2849   2.647   4.066   0.341
  966TIP3   OH2 2850   3.498   4.256  -0.090
  966TIP3    H1 2851   3.405   4.277  -0.069
  966TIP3    H2 2852   3.530   4.219  -0.006
  967TIP3   OH2 2853   4.266   3.521   1.142
  967TIP3    H1 2854   4.182   3.531   1.095
  967TIP3    H2 2855   4.282   3.425   1.133
  968TIP3   OH2 2856   2.864   3.932   1.159
  968TIP3    H1 2857   2.914   3.913   1.241
  968TIP3    H2 2858   2.789   3.870   1.165
  969TIP3   OH2 2859   3.265   2.752   0.956
  969TIP3    H1 2860   3.177   2.724   0.922
  969TIP3    H2 2861   3.239   2.834   1.002
  970TIP3   OH2 2862   3.798   2.864   1.149
  970TIP3    H1 2863   3.863   2.847   1.219
  970TIP3    H2 2864   3.713   2.853   1.197
  971TIP3   OH2 2865   4.033   3.298   1.067
  971TIP3    H1 2866   3.980   3.297   1.150
  971TIP3    H2 2867   4.010   3.385   1.029
  972TIP3   OH2 2868   3.426   2.816  -0.075
  972TIP3    H1 2869   3.388   2.803   0.014
  972TIP3    H2 2870   3.357   2.778  -0.131
  973TIP3   OH2 2871   3.197   3.271   0.966
  973TIP3    H1 2872   3.149   3.292   1.049
  973TIP3    H2 2873   3.181   3.353   0.914
  974TIP3   OH2 2874   3.081   3.155   0.484
  974TIP3    H1 2875   2.988   3.133   0.502
  974TIP3    H2 2876   3.091   3.115   0.394
  975TIP3   OH2 2877   3.570   3.237   0.212
  975TIP3    H1 2878   3.518   3.310   0.171
  975TIP3    H2 2879   3.625   3.208   0.136
  976TIP3   OH2 2880   3.745   3.513   1.294
  976TIP3    H1 2881   3.720   3.442   1.358
  976TIP3    H2 2882   3.838   3.526   1.317
  977TIP3   OH2 2883   3.723   3.265   0.448
  977TIP3    H1 2884   3.660   3.295   0.380
  977TIP3    H2 2885   3.759   3.187   0.400
  978TIP3   OH2 2886   3.019   3.298   1.177
  978TIP3    H1 2887   3.050   3.364   1.241
  978TIP3    H2 2888   3.009   3.218   1.232
  979TIP3   OH2 2889   3.078   2.742  -0.101
  979TIP3    H1 2890   3.064   2.765  -0.007
  979TIP3    H2 2891   3.018   2.802  -0.146
  980TIP3   OH2 2892   2.615   2.808   0.764
  980TIP3    H1 2893   2.683   2.851   0.820
  980TIP3    H2 2894   2.655   2.809   0.677
  981TIP3   OH2 2895   2.566   2.808   0.274
  981TIP3    H1 2896   2.612   2.844   0.195
  981TIP3    H2 2897   2.506   2.883   0.293
  982TIP3   OH2 2898   3.744   3.509   0.870
  982TIP3    H1 2899   3.774   3.439   0.808
  982TIP3    H2 2900   3.707   3.454   0.943
  983TIP3   OH2 2901   3.416   2.965   0.540
  983TIP3    H1 2902   3.334   2.971   0.592
  983TIP3    H2 2903   3.484   2.974   0.609
  984TIP3   OH2 2904   2.840   3.037   0.549
  984TIP3    H1 2905   2.746   3.047   0.519
  984TIP3    H2 2906   2.862   2.946   0.521
  985TIP3   OH2 2907   3.107   3.027   0.244
  985TIP3    H1 2908   3.201   3.045   0.224
  985TIP3    H2 2909   3.062   3.045   0.158
  986TIP3   OH2 2910   3.902   3.050   0.741
  986TIP3    H1 2911   3.876   3.065   0.835
  986TIP3    H2 2912   3.828   2.993   0.712
  987TIP3   OH2 2913   2.962   3.044   0.017
  987TIP3    H1 2914   2.866   3.053   0.006
  987TIP3    H2 2915   2.999   3.092  -0.060
  988TIP3   OH2 2916   4.077   4.741   0.967
  988TIP3    H1 2917   4.071   4.766   0.873
  988TIP3    H2 2918   4.157   4.790   0.995
  989TIP3   OH2 2919   3.026   3.851   1.382
  989TIP3    H1 2920   3.106   3.881   1.429
  989TIP3    H2 2921   2.961   3.850   1.456
  990TIP3   OH2 2922   3.487   3.304   0.640
  990TIP3    H1 2923   3.567   3.272   0.594
  990TIP3    H2 2924   3.493   3.261   0.727
  991TIP3   OH2 2925   3.007   2.792   0.524
  991TIP3    H1 2926   2.970   2.715   0.573
  991TIP3    H2 2927   3.040   2.751   0.444
  992TIP3   OH2 2928   3.465   3.210   0.929
  992TIP3    H1 2929   3.375   3.244   0.943
  992TIP3    H2 2930   3.520   3.273   0.979
  993TIP3   OH2 2931   3.194   3.587   0.027
  993TIP3    H1 2932   3.120   3.524   0.013
  993TIP3    H2 2933   3.173   3.622   0.117
  994TIP3   OH2 2934   4.100   3.828   0.650
  994TIP3    H1 2935   4.122   3.881   0.571
  994TIP3    H2 2936   4.015   3.786   0.622
  995TIP3   OH2 2937   3.691   2.895  -0.103
  995TIP3    H1 2938   3.597   2.867  -0.109
  995TIP3    H2 2939   3.684   2.992  -0.090
  996TIP3   OH2 2940   3.608   3.911   1.024
  996TIP3    H1 2941   3.627   3.897   1.117
  996TIP3    H2 2942   3.572   4.002   1.024
  997TIP3   OH2 2943   3.730   3.159  -0.008
  997TIP3    H1 2944   3.825   3.161   0.013
  997TIP3    H2 2945   3.722   3.231  -0.073
  998TIP3   OH2 2946   2.886   3.608   0.698
  998TIP3    H1 2947   2.929   3.592   0.611
  998TIP3    H2 2948   2.947   3.561   0.757
  999TIP3   OH2 2949   3.371   3.747  -0.111
  999TIP3    H1 2950   3.321   3.827  -0.137
  999TIP3    H2 2951   3.302   3.695  -0.066
 1000TIP3   OH2 2952   2.781   3.534   1.314
 1000TIP3    H1 2953   2.797   3.519   1.409
 1000TIP3    H2 2954   2.709   3.471   1.296
 1001TIP3   OH2 2955   3.505   3.655   1.332
 1001TIP3    H1 2956   3.441   3.595   1.291
 1001TIP3    H2 2957   3.589   3.615   1.302
 1002TIP3   OH2 2958   3.768   4.170   0.928
 1002TIP3    H1 2959   3.671   4.166   0.939
 1002TIP3    H2 2960   3.792   4.228   1.003
 1003TIP3   OH2 2961   4.141   3.215  -0.145
 1003TIP3    H1 2962   4.078   3.175  -0.206
 1003TIP3    H2 2963   4.155   3.301  -0.187
 1004TIP3   OH2 2964   4.392   4.109   0.904
 1004TIP3    H1 2965   4.294   4.100   0.895
 1004TIP3    H2 2966   4.419   4.076   0.816
 1005TIP3   OH2 2967   3.871   3.693   0.567
 1005TIP3    H1 2968   3.777   3.669   0.581
 1005TIP3    H2 2969   3.902   3.613   0.520
 1006TIP3   OH2 2970   3.001   3.919   0.322
 1006TIP3    H1 2971   2.998   4.004   0.276
 1006TIP3    H2 2972   2.908   3.907   0.346
 1007TIP3   OH2 2973   2.588   3.221   0.053
 1007TIP3    H1 2974   2.619   3.313   0.059
 1007TIP3    H2 2975   2.498   3.229   0.090
 1008TIP3   OH2 2976   3.122   3.677   0.268
 1008TIP3    H1 2977   3.093   3.769   0.286
 1008TIP3    H2 2978   3.090   3.633   0.349
 1009TIP3   OH2 2979   2.907   4.165   0.171
 1009TIP3    H1 2980   2.826   4.168   0.226
 1009TIP3    H2 2981   2.940   4.257   0.183
 1010TIP3   OH2 2982   3.657   3.897   0.757
 1010TIP3    H1 2983   3.644   3.897   0.855
 1010TIP3    H2 2984   3.737   3.844   0.748
 1011TIP3   OH2 2985   3.903   4.428   0.802
 1011TIP3    H1 2986   3.820   4.376   0.794
 1011TIP3    H2 2987   3.889   4.494   0.730
 1012TIP3   OH2 2988   2.987   3.036   1.321
 1012TIP3    H1 2989   2.892   3.043   1.339
 1012TIP3    H2 2990   3.020   2.993   1.402
 1013TIP3   OH2 2991   3.771   3.727  -0.090
 1013TIP3    H1 2992   3.754   3.658  -0.023
 1013TIP3    H2 2993   3.812   3.673  -0.160
 1014TIP3   OH2 2994   2.700   4.124   0.950
 1014TIP3    H1 2995   2.761   4.058   0.985
 1014TIP3    H2 2996   2.731   4.205   0.993
 1015TIP3   OH2 2997   2.977   3.748  -0.363
 1015TIP3    H1 2998   3.071   3.756  -0.345
 1015TIP3    H2 2999   2.939   3.766  -0.275
 1016TIP3   OH2 3000   2.940   3.791  -0.086
 1016TIP3    H1 3001   3.012   3.752  -0.035
 1016TIP3    H2 3002   2.958   3.886  -0.075
 1017TIP3   OH2 3003   2.681   3.476   0.115
 1017TIP3    H1 3004   2.614   3.521   0.172
 1017TIP3    H2 3005   2.687   3.540   0.042
 1018TIP3   OH2 3006   3.837   3.097   1.001
 1018TIP3    H1 3007   3.909   3.143   1.047
 1018TIP3    H2 3008   3.820   3.020   1.059
 1019TIP3   OH2 3009   3.707   2.850   0.175
 1019TIP3    H1 3010   3.696   2.868   0.079
 1019TIP3    H2 3011   3.744   2.934   0.207
 1020TIP3   OH2 3012   3.206   3.957  -0.169
 1020TIP3    H1 3013   3.133   4.006  -0.127
 1020TIP3    H2 3014   3.206   3.991  -0.259
 1021TIP3   OH2 3015   3.388   3.038   0.273
 1021TIP3    H1 3016   3.452   3.110   0.254
 1021TIP3    H2 3017   3.398   3.030   0.370
 1022TIP3   OH2 3018   3.664   3.351   1.078
 1022TIP3    H1 3019   3.687   3.407   1.155
 1022TIP3    H2 3020   3.714   3.270   1.095
 1023TIP3   OH2 3021   3.532   2.752   0.370
 1023TIP3    H1 3022   3.515   2.832   0.423
 1023TIP3    H2 3023   3.597   2.787   0.304
 1024TIP3   OH2 3024   2.968   4.065  -0.073
 1024TIP3    H1 3025   2.891   4.104  -0.116
 1024TIP3    H2 3026   2.954   4.094   0.020
 1025TIP3   OH2 3027   3.049   2.765   0.179
 1025TIP3    H1 3028   3.045   2.859   0.208
 1025TIP3    H2 3029   3.146   2.752   0.181
 1026TIP3   OH2 3030   4.299   3.254   1.064
 1026TIP3    H1 3031   4.201   3.253   1.071
 1026TIP3    H2 3032   4.310   3.215   0.976
 1027TIP3   OH2 3033   3.953   3.444   0.449
 1027TIP3    H1 3034   3.874   3.390   0.464
 1027TIP3    H2 3035   4.021   3.397   0.501
 1028TIP3   OH2 3036   2.669   3.679  -0.077
 1028TIP3    H1 3037   2.743   3.741  -0.069
 1028TIP3    H2 3038   2.710   3.614  -0.139
 1029TIP3   OH2 3039   2.623   2.955   0.045
 1029TIP3    H1 3040   2.622   3.053   0.049
 1029TIP3    H2 3041   2.540   2.940  -0.000
 1030TIP3   OH2 3042   3.921   4.410   0.394
 1030TIP3    H1 3043   3.876   4.457   0.321
 1030TIP3    H2 3044   4.015   4.429   0.372
 1031TIP3   OH2 3045   3.000   2.669   0.918
 1031TIP3    H1 3046   2.971   2.642   0.828
 1031TIP3    H2 3047   2.979   2.590   0.970
 1032TIP3   OH2 3048   2.538   3.901   0.303
 1032TIP3    H1 3049   2.477   3.923   0.374
 1032TIP3    H2 3050   2.495   3.944   0.225
 1033TIP3   OH2 3051   2.699   4.444   1.377
 1033TIP3    H1 3052   2.787   4.444   1.422
 1033TIP3    H2 3053   2.680   4.349   1.373
 1034TIP3   OH2 3054   3.172   4.386   1.425
 1034TIP3    H1 3055   3.267   4.373   1.421
 1034TIP3    H2 3056   3.143   4.327   1.352
 1035TIP3   OH2 3057   3.808   4.313   1.163
 1035TIP3    H1 3058   3.808   4.240   1.228
 1035TIP3    H2 3059   3.888   4.363   1.188
 1036TIP3   OH2 3060   2.825   3.842   1.576
 1036TIP3    H1 3061   2.839   3.746   1.585
 1036TIP3    H2 3062   2.739   3.846   1.529
 1037TIP3   OH2 3063   2.812   3.495  -0.207
 1037TIP3    H1 3064   2.889   3.464  -0.155
 1037TIP3    H2 3065   2.829   3.462  -0.296
 1038TIP3   OH2 3066   3.431   3.933   1.351
 1038TIP3    H1 3067   3.387   3.957   1.266
 1038TIP3    H2 3068   3.459   3.840   1.335
 1039TIP3   OH2 3069   3.927   3.941   0.962
 1039TIP3    H1 3070   4.001   3.984   0.915
 1039TIP3    H2 3071   3.856   4.007   0.947
 1040TIP3   OH2 3072   2.952   3.575   1.561
 1040TIP3    H1 3073   3.036   3.540   1.526
 1040TIP3    H2 3074   2.981   3.608   1.649
 1041TIP3   OH2 3075   3.001   3.393  -0.017
 1041TIP3    H1 3076   2.972   3.363   0.071
 1041TIP3    H2 3077   3.041   3.313  -0.056
 1042TIP3   OH2 3078   3.282   3.457   1.216
 1042TIP3    H1 3079   3.204   3.516   1.219
 1042TIP3    H2 3080   3.333   3.495   1.141
 1043TIP3   OH2 3081   3.109   3.181  -0.172
 1043TIP3    H1 3082   3.106   3.160  -0.267
 1043TIP3    H2 3083   3.206   3.195  -0.162
 1044TIP3   OH2 3084   3.802   3.863   1.355
 1044TIP3    H1 3085   3.865   3.819   1.297
 1044TIP3    H2 3086   3.790   3.798   1.426
 1045TIP3   OH2 3087   3.408   3.258   1.351
 1045TIP3    H1 3088   3.403   3.176   1.299
 1045TIP3    H2 3089   3.361   3.322   1.294
 1046TIP3   OH2 3090   3.409   3.033   1.151
 1046TIP3    H1 3091   3.435   3.081   1.070
 1046TIP3    H2 3092   3.314   3.014   1.134
 1047TIP3   OH2 3093   3.429   3.573   1.025
 1047TIP3    H1 3094   3.514   3.597   0.987
 1047TIP3    H2 3095   3.368   3.635   0.979
 1048TIP3   OH2 3096   4.010   3.533   1.401
 1048TIP3    H1 3097   4.060   3.452   1.417
 1048TIP3    H2 3098   4.077   3.590   1.360
 1049TIP3   OH2 3099   4.053   3.793   1.147
 1049TIP3    H1 3100   3.996   3.848   1.088
 1049TIP3    H2 3101   4.141   3.814   1.109
 1050TIP3   OH2 3102   3.248   3.385   1.564
 1050TIP3    H1 3103   3.197   3.304   1.583
 1050TIP3    H2 3104   3.312   3.351   1.498
 1051TIP3   OH2 3105   3.533   2.794   1.226
 1051TIP3    H1 3106   3.486   2.877   1.203
 1051TIP3    H2 3107   3.461   2.728   1.216
 1052TIP3   OH2 3108   3.665   3.300   1.445
 1052TIP3    H1 3109   3.644   3.291   1.540
 1052TIP3    H2 3110   3.576   3.280   1.408
 1053TIP3   OH2 3111   3.898   3.247   1.295
 1053TIP3    H1 3112   3.824   3.251   1.359
 1053TIP3    H2 3113   3.973   3.220   1.352
 1054TIP3   OH2 3114   4.136   3.197   1.442
 1054TIP3    H1 3115   4.148   3.101   1.456
 1054TIP3    H2 3116   4.129   3.231   1.533
 1055TIP3   OH2 3117   3.112   3.150   1.622
 1055TIP3    H1 3118   3.182   3.090   1.585
 1055TIP3    H2 3119   3.146   3.154   1.712
 1056TIP3   OH2 3120   3.696   2.804   1.449
 1056TIP3    H1 3121   3.699   2.708   1.453
 1056TIP3    H2 3122   3.618   2.818   1.393
 1057TIP3   OH2 3123   3.692   3.016   1.631
 1057TIP3    H1 3124   3.701   2.947   1.563
 1057TIP3    H2 3125   3.595   3.026   1.632
 1058TIP3   OH2 3126   2.395   3.641  -0.022
 1058TIP3    H1 3127   2.483   3.666  -0.057
 1058TIP3    H2 3128   2.381   3.553  -0.062
 1059TIP3   OH2 3129   2.317   4.244   0.373
 1059TIP3    H1 3130   2.253   4.182   0.332
 1059TIP3    H2 3131   2.362   4.184   0.436
 1060TIP3   OH2 3132   2.450   4.088   0.559
 1060TIP3    H1 3133   2.437   4.022   0.629
 1060TIP3    H2 3134   2.509   4.150   0.605
 1061TIP3   OH2 3135   4.179   4.493   0.362
 1061TIP3    H1 3136   4.200   4.527   0.451
 1061TIP3    H2 3137   4.254   4.524   0.310
 1062TIP3   OH2 3138   4.205   4.514   0.643
 1062TIP3    H1 3139   4.157   4.428   0.638
 1062TIP3    H2 3140   4.282   4.487   0.695
 1063TIP3   OH2 3141   4.258   4.193   1.216
 1063TIP3    H1 3142   4.185   4.204   1.280
 1063TIP3    H2 3143   4.299   4.282   1.218
 1064TIP3   OH2 3144   2.767   2.263   7.431
 1064TIP3    H1 3145   2.692   2.301   7.382
 1064TIP3    H2 3146   2.724   2.197   7.488
 1065TIP3   OH2 3147   4.206   3.557   0.022
 1065TIP3    H1 3148   4.130   3.525   0.074
 1065TIP3    H2 3149   4.263   3.597   0.091
 1066TIP3   OH2 3150   4.259   3.968   0.471
 1066TIP3    H1 3151   4.307   3.899   0.421
 1066TIP3    H2 3152   4.259   4.042   0.406
 1067TIP3   OH2 3153   4.079   4.265   0.660
 1067TIP3    H1 3154   4.006   4.307   0.709
 1067TIP3    H2 3155   4.032   4.221   0.586
 1068TIP3   OH2 3156   4.014   3.428   0.180
 1068TIP3    H1 3157   4.013   3.331   0.174
 1068TIP3    H2 3158   3.998   3.443   0.276
 1069TIP3   OH2 3159   2.634   3.499   0.934
 1069TIP3    H1 3160   2.629   3.466   0.841
 1069TIP3    H2 3161   2.732   3.502   0.946
 1070TIP3   OH2 3162   4.301   3.856   1.041
 1070TIP3    H1 3163   4.371   3.789   1.024
 1070TIP3    H2 3164   4.318   3.921   0.971
 1071TIP3   OH2 3165   4.481   3.651   1.037
 1071TIP3    H1 3166   4.406   3.605   1.080
 1071TIP3    H2 3167   4.554   3.590   1.058
 1072TIP3   OH2 3168   3.951   2.917  -0.362
 1072TIP3    H1 3169   4.028   2.862  -0.338
 1072TIP3    H2 3170   3.878   2.871  -0.318
 1073TIP3   OH2 3171   4.007   3.145   0.080
 1073TIP3    H1 3172   4.051   3.057   0.090
 1073TIP3    H2 3173   4.056   3.179   0.003
 1074TIP3   OH2 3174   4.166   3.310   0.572
 1074TIP3    H1 3175   4.250   3.335   0.528
 1074TIP3    H2 3176   4.180   3.352   0.659
 1075TIP3   OH2 3177   4.240   3.465   0.797
 1075TIP3    H1 3178   4.163   3.498   0.847
 1075TIP3    H2 3179   4.272   3.547   0.753
 1076TIP3   OH2 3180   2.845   3.180   1.586
 1076TIP3    H1 3181   2.943   3.179   1.594
 1076TIP3    H2 3182   2.824   3.095   1.631
 1077TIP3   OH2 3183   4.689   3.060   1.355
 1077TIP3    H1 3184   4.751   2.996   1.313
 1077TIP3    H2 3185   4.657   3.110   1.277
 1078TIP3   OH2 3186   4.124   2.895   0.108
 1078TIP3    H1 3187   4.164   2.880   0.196
 1078TIP3    H2 3188   4.057   2.824   0.106
 1079TIP3   OH2 3189   2.819   2.883   0.934
 1079TIP3    H1 3190   2.883   2.810   0.939
 1079TIP3    H2 3191   2.878   2.959   0.923
 1080TIP3   OH2 3192   2.615   3.151   1.005
 1080TIP3    H1 3193   2.664   3.152   0.921
 1080TIP3    H2 3194   2.633   3.239   1.039
 1081TIP3   OH2 3195   4.554   3.191   1.159
 1081TIP3    H1 3196   4.471   3.237   1.179
 1081TIP3    H2 3197   4.519   3.119   1.102
 1082TIP3   OH2 3198   4.215   2.836  -0.281
 1082TIP3    H1 3199   4.261   2.751  -0.284
 1082TIP3    H2 3200   4.287   2.893  -0.249
 1083TIP3   OH2 3201   2.601   2.651   0.494
 1083TIP3    H1 3202   2.514   2.655   0.536
 1083TIP3    H2 3203   2.592   2.718   0.422
 1084TIP3   OH2 3204   3.797   4.331   0.054
 1084TIP3    H1 3205   3.776   4.315  -0.040
 1084TIP3    H2 3206   3.823   4.424   0.050
 1085TIP3   OH2 3207   2.800   2.698   1.311
 1085TIP3    H1 3208   2.767   2.727   1.397
 1085TIP3    H2 3209   2.747   2.755   1.251
 1086TIP3   OH2 3210   2.860   4.172   1.392
 1086TIP3    H1 3211   2.767   4.148   1.375
 1086TIP3    H2 3212   2.871   4.150   1.485
 1087TIP3   OH2 3213   3.043   4.210   0.932
 1087TIP3    H1 3214   3.011   4.301   0.921
 1087TIP3    H2 3215   3.081   4.200   0.841
 1088TIP3   OH2 3216   3.477   4.443   1.084
 1088TIP3    H1 3217   3.523   4.444   1.171
 1088TIP3    H2 3218   3.540   4.495   1.029
 1089TIP3   OH2 3219   3.656   4.599   0.947
 1089TIP3    H1 3220   3.721   4.549   0.895
 1089TIP3    H2 3221   3.714   4.655   1.003
 1090TIP3   OH2 3222   4.458   2.958   1.038
 1090TIP3    H1 3223   4.370   2.950   0.998
 1090TIP3    H2 3224   4.493   2.866   1.029
 1091TIP3   OH2 3225   2.700   4.444   0.976
 1091TIP3    H1 3226   2.610   4.480   0.954
 1091TIP3    H2 3227   2.725   4.503   1.047
 1092TIP3   OH2 3228   2.954   4.460   0.854
 1092TIP3    H1 3229   2.858   4.461   0.869
 1092TIP3    H2 3230   2.963   4.426   0.763
 1093TIP3   OH2 3231   3.408   4.487   0.586
 1093TIP3    H1 3232   3.318   4.450   0.590
 1093TIP3    H2 3233   3.400   4.568   0.641
 1094TIP3   OH2 3234   3.653   4.403   0.681
 1094TIP3    H1 3235   3.560   4.422   0.654
 1094TIP3    H2 3236   3.699   4.470   0.628
 1095TIP3   OH2 3237   3.859   4.594   0.587
 1095TIP3    H1 3238   3.840   4.677   0.538
 1095TIP3    H2 3239   3.882   4.533   0.514
 1096TIP3   OH2 3240   2.631   4.246   0.708
 1096TIP3    H1 3241   2.656   4.216   0.798
 1096TIP3    H2 3242   2.706   4.206   0.658
 1097TIP3   OH2 3243   2.829   4.119   0.577
 1097TIP3    H1 3244   2.847   4.038   0.630
 1097TIP3    H2 3245   2.917   4.164   0.584
 1098TIP3   OH2 3246   3.673   2.874   0.671
 1098TIP3    H1 3247   3.626   2.801   0.715
 1098TIP3    H2 3248   3.742   2.828   0.620
 1099TIP3   OH2 3249   4.180   2.753   0.565
 1099TIP3    H1 3250   4.216   2.806   0.491
 1099TIP3    H2 3251   4.085   2.775   0.559
 1100TIP3   OH2 3252   4.279   2.849   0.330
 1100TIP3    H1 3253   4.354   2.797   0.294
 1100TIP3    H2 3254   4.313   2.941   0.317
 1101TIP3   OH2 3255   2.910   2.578   0.672
 1101TIP3    H1 3256   2.817   2.548   0.676
 1101TIP3    H2 3257   2.956   2.491   0.669
 1102TIP3   OH2 3258   2.689   2.453   0.324
 1102TIP3    H1 3259   2.744   2.505   0.260
 1102TIP3    H2 3260   2.671   2.520   0.394
 1103TIP3   OH2 3261   3.363   2.607   0.558
 1103TIP3    H1 3262   3.414   2.653   0.490
 1103TIP3    H2 3263   3.386   2.658   0.637
 1104TIP3   OH2 3264   3.897   2.761   0.535
 1104TIP3    H1 3265   3.899   2.721   0.447
 1104TIP3    H2 3266   3.888   2.683   0.593
 1105TIP3   OH2 3267   3.934   2.689   0.108
 1105TIP3    H1 3268   3.847   2.731   0.118
 1105TIP3    H2 3269   3.917   2.602   0.152
 1106TIP3   OH2 3270   2.414   4.033   0.104
 1106TIP3    H1 3271   2.345   3.983   0.058
 1106TIP3    H2 3272   2.386   4.124   0.082
 1107TIP3   OH2 3273   2.840   2.581   0.138
 1107TIP3    H1 3274   2.845   2.578   0.042
 1107TIP3    H2 3275   2.906   2.649   0.159
 1108TIP3   OH2 3276   3.326   2.787   0.185
 1108TIP3    H1 3277   3.389   2.742   0.243
 1108TIP3    H2 3278   3.344   2.880   0.210
 1109TIP3   OH2 3279   3.119   2.813   1.533
 1109TIP3    H1 3280   3.099   2.760   1.613
 1109TIP3    H2 3281   3.201   2.859   1.561
 1110TIP3   OH2 3282   2.457   4.042  -0.219
 1110TIP3    H1 3283   2.493   4.087  -0.142
 1110TIP3    H2 3284   2.529   4.044  -0.284
 1111TIP3   OH2 3285   4.199   2.924   1.472
 1111TIP3    H1 3286   4.216   2.895   1.564
 1111TIP3    H2 3287   4.288   2.919   1.433
 1112TIP3   OH2 3288   4.126   4.469   0.968
 1112TIP3    H1 3289   4.050   4.441   0.913
 1112TIP3    H2 3290   4.109   4.566   0.972
 1113TIP3   OH2 3291   5.349   3.831   0.096
 1113TIP3    H1 3292   5.384   3.767   0.160
 1113TIP3    H2 3293   5.314   3.770   0.029
 1114TIP3   OH2 3294   4.693   3.735   0.486
 1114TIP3    H1 3295   4.727   3.663   0.541
 1114TIP3    H2 3296   4.770   3.793   0.481
 1115TIP3   OH2 3297   4.627   4.132   0.239
 1115TIP3    H1 3298   4.631   4.035   0.231
 1115TIP3    H2 3299   4.710   4.158   0.199
 1116TIP3   OH2 3300   4.379   3.330  -0.042
 1116TIP3    H1 3301   4.343   3.418  -0.015
 1116TIP3    H2 3302   4.295   3.281  -0.048
 1117TIP3   OH2 3303   4.430   3.637   0.166
 1117TIP3    H1 3304   4.485   3.562   0.200
 1117TIP3    H2 3305   4.496   3.692   0.120
 1118TIP3   OH2 3306   5.224   4.046   0.221
 1118TIP3    H1 3307   5.269   3.966   0.187
 1118TIP3    H2 3308   5.301   4.104   0.236
 1119TIP3   OH2 3309   4.959   3.209   0.179
 1119TIP3    H1 3310   4.943   3.286   0.119
 1119TIP3    H2 3311   4.907   3.141   0.130
 1120TIP3   OH2 3312   4.583   3.434   0.270
 1120TIP3    H1 3313   4.664   3.418   0.320
 1120TIP3    H2 3314   4.601   3.380   0.190
 1121TIP3   OH2 3315   5.043   3.632   0.085
 1121TIP3    H1 3316   5.118   3.580   0.055
 1121TIP3    H2 3317   4.971   3.584   0.039
 1122TIP3   OH2 3318   6.332   3.517   0.362
 1122TIP3    H1 3319   6.312   3.562   0.276
 1122TIP3    H2 3320   6.287   3.577   0.423
 1123TIP3   OH2 3321   4.940   3.214   0.595
 1123TIP3    H1 3322   4.882   3.253   0.527
 1123TIP3    H2 3323   4.887   3.231   0.675
 1124TIP3   OH2 3324   5.036   3.983   0.406
 1124TIP3    H1 3325   4.981   4.058   0.437
 1124TIP3    H2 3326   5.098   4.028   0.345
 1125TIP3   OH2 3327   4.817   3.331   0.379
 1125TIP3    H1 3328   4.879   3.404   0.398
 1125TIP3    H2 3329   4.867   3.283   0.309
 1126TIP3   OH2 3330   4.878   4.195   0.482
 1126TIP3    H1 3331   4.852   4.284   0.452
 1126TIP3    H2 3332   4.799   4.173   0.536
 1127TIP3   OH2 3333   5.992   3.281   0.303
 1127TIP3    H1 3334   5.917   3.339   0.288
 1127TIP3    H2 3335   6.059   3.319   0.244
 1128TIP3   OH2 3336   5.289   2.924   0.319
 1128TIP3    H1 3337   5.273   2.829   0.340
 1128TIP3    H2 3338   5.212   2.964   0.365
 1129TIP3   OH2 3339   5.789   3.856   0.434
 1129TIP3    H1 3340   5.800   3.881   0.528
 1129TIP3    H2 3341   5.725   3.920   0.404
 1130TIP3   OH2 3342   4.933   3.748   0.308
 1130TIP3    H1 3343   4.978   3.721   0.226
 1130TIP3    H2 3344   4.978   3.832   0.332
 1131TIP3   OH2 3345   5.082   4.299   0.634
 1131TIP3    H1 3346   5.023   4.364   0.678
 1131TIP3    H2 3347   5.017   4.251   0.579
 1132TIP3   OH2 3348   4.843   3.852   0.740
 1132TIP3    H1 3349   4.848   3.943   0.775
 1132TIP3    H2 3350   4.748   3.833   0.754
 1133TIP3   OH2 3351   4.878   4.467   0.721
 1133TIP3    H1 3352   4.843   4.472   0.630
 1133TIP3    H2 3353   4.796   4.447   0.772
 1134TIP3   OH2 3354   4.456   4.005   0.664
 1134TIP3    H1 3355   4.386   3.990   0.597
 1134TIP3    H2 3356   4.493   3.915   0.676
 1135TIP3   OH2 3357   4.318   4.185   0.306
 1135TIP3    H1 3358   4.414   4.187   0.291
 1135TIP3    H2 3359   4.303   4.269   0.352
 1136TIP3   OH2 3360   5.300   4.405   0.504
 1136TIP3    H1 3361   5.298   4.501   0.528
 1136TIP3    H2 3362   5.215   4.378   0.545
 1137TIP3   OH2 3363   6.058   3.784   0.639
 1137TIP3    H1 3364   5.965   3.767   0.618
 1137TIP3    H2 3365   6.088   3.691   0.647
 1138TIP3   OH2 3366   4.661   4.185   0.645
 1138TIP3    H1 3367   4.709   4.169   0.729
 1138TIP3    H2 3368   4.585   4.124   0.653
 1139TIP3   OH2 3369   5.058   3.010   0.444
 1139TIP3    H1 3370   4.972   2.980   0.407
 1139TIP3    H2 3371   5.026   3.088   0.495
 1140TIP3   OH2 3372   5.595   3.129   0.619
 1140TIP3    H1 3373   5.669   3.107   0.680
 1140TIP3    H2 3374   5.516   3.113   0.675
 1141TIP3   OH2 3375   5.003   3.524   0.450
 1141TIP3    H1 3376   4.954   3.539   0.534
 1141TIP3    H2 3377   4.979   3.605   0.401
 1142TIP3   OH2 3378   4.894   3.401   0.004
 1142TIP3    H1 3379   4.798   3.387   0.003
 1142TIP3    H2 3380   4.916   3.374  -0.087
 1143TIP3   OH2 3381   5.544   3.792   0.783
 1143TIP3    H1 3382   5.513   3.711   0.830
 1143TIP3    H2 3383   5.640   3.776   0.785
 1144TIP3   OH2 3384   4.823   3.548   0.658
 1144TIP3    H1 3385   4.838   3.617   0.724
 1144TIP3    H2 3386   4.806   3.470   0.714
 1145TIP3   OH2 3387   4.410   3.069   0.241
 1145TIP3    H1 3388   4.475   3.107   0.304
 1145TIP3    H2 3389   4.465   3.042   0.168
 1146TIP3   OH2 3390   5.196   3.238   0.029
 1146TIP3    H1 3391   5.129   3.221   0.097
 1146TIP3    H2 3392   5.276   3.195   0.068
 1147TIP3   OH2 3393   4.637   3.289   0.047
 1147TIP3    H1 3394   4.545   3.289   0.012
 1147TIP3    H2 3395   4.672   3.201   0.021
 1148TIP3   OH2 3396   5.653   3.318   0.239
 1148TIP3    H1 3397   5.684   3.288   0.325
 1148TIP3    H2 3398   5.681   3.244   0.181
 1149TIP3   OH2 3399   4.825   4.106   0.870
 1149TIP3    H1 3400   4.904   4.136   0.918
 1149TIP3    H2 3401   4.759   4.106   0.943
 1150TIP3   OH2 3402   5.354   3.539   0.177
 1150TIP3    H1 3403   5.369   3.524   0.082
 1150TIP3    H2 3404   5.273   3.490   0.196
 1151TIP3   OH2 3405   4.798   3.052   0.013
 1151TIP3    H1 3406   4.766   2.971   0.058
 1151TIP3    H2 3407   4.839   3.016  -0.067
 1152TIP3   OH2 3408   5.278   3.472   0.446
 1152TIP3    H1 3409   5.184   3.495   0.429
 1152TIP3    H2 3410   5.293   3.519   0.529
 1153TIP3   OH2 3411   5.388   4.149   0.514
 1153TIP3    H1 3412   5.429   4.148   0.602
 1153TIP3    H2 3413   5.354   4.241   0.510
 1154TIP3   OH2 3414   4.684   3.858   0.187
 1154TIP3    H1 3415   4.741   3.891   0.114
 1154TIP3    H2 3416   4.746   3.809   0.243
 1155TIP3   OH2 3417   4.579   3.785   0.799
 1155TIP3    H1 3418   4.587   3.771   0.895
 1155TIP3    H2 3419   4.504   3.727   0.778
 1156TIP3   OH2 3420   5.302   3.912   0.817
 1156TIP3    H1 3421   5.247   3.837   0.791
 1156TIP3    H2 3422   5.392   3.878   0.796
 1157TIP3   OH2 3423   5.569   4.401   0.432
 1157TIP3    H1 3424   5.471   4.406   0.439
 1157TIP3    H2 3425   5.593   4.464   0.503
 1158TIP3   OH2 3426   5.055   4.521   0.320
 1158TIP3    H1 3427   5.050   4.574   0.241
 1158TIP3    H2 3428   5.142   4.478   0.305
 1159TIP3   OH2 3429   5.486   4.133   0.263
 1159TIP3    H1 3430   5.448   4.134   0.353
 1159TIP3    H2 3431   5.573   4.171   0.284
 1160TIP3   OH2 3432   4.779   3.295   0.804
 1160TIP3    H1 3433   4.682   3.298   0.816
 1160TIP3    H2 3434   4.807   3.245   0.882
 1161TIP3   OH2 3435   4.506   4.377   0.450
 1161TIP3    H1 3436   4.561   4.304   0.482
 1161TIP3    H2 3437   4.532   4.449   0.508
 1162TIP3   OH2 3438   5.618   3.387   0.515
 1162TIP3    H1 3439   5.677   3.445   0.571
 1162TIP3    H2 3440   5.619   3.305   0.568
 1163TIP3   OH2 3441   6.100   3.510   0.579
 1163TIP3    H1 3442   6.012   3.511   0.622
 1163TIP3    H2 3443   6.076   3.479   0.491
 1164TIP3   OH2 3444   4.796   2.928   0.405
 1164TIP3    H1 3445   4.766   2.892   0.319
 1164TIP3    H2 3446   4.785   2.850   0.464
 1165TIP3   OH2 3447   4.496   4.702   0.863
 1165TIP3    H1 3448   4.583   4.701   0.909
 1165TIP3    H2 3449   4.477   4.607   0.859
 1166TIP3   OH2 3450   4.968   4.646   0.909
 1166TIP3    H1 3451   5.063   4.628   0.914
 1166TIP3    H2 3452   4.941   4.583   0.839
 1167TIP3   OH2 3453   5.625   4.564   0.643
 1167TIP3    H1 3454   5.613   4.497   0.714
 1167TIP3    H2 3455   5.699   4.618   0.676
 1168TIP3   OH2 3456   4.621   4.100   1.062
 1168TIP3    H1 3457   4.635   4.004   1.070
 1168TIP3    H2 3458   4.535   4.104   1.015
 1169TIP3   OH2 3459   5.227   4.189   0.839
 1169TIP3    H1 3460   5.186   4.213   0.753
 1169TIP3    H2 3461   5.258   4.097   0.823
 1170TIP3   OH2 3462   5.724   4.181   0.417
 1170TIP3    H1 3463   5.797   4.219   0.367
 1170TIP3    H2 3464   5.669   4.260   0.435
 1171TIP3   OH2 3465   4.743   3.837   1.050
 1171TIP3    H1 3466   4.823   3.795   1.016
 1171TIP3    H2 3467   4.774   3.869   1.137
 1172TIP3   OH2 3468   5.086   3.718   0.701
 1172TIP3    H1 3469   5.005   3.774   0.704
 1172TIP3    H2 3470   5.133   3.753   0.623
 1173TIP3   OH2 3471   5.596   4.121   0.836
 1173TIP3    H1 3472   5.677   4.084   0.798
 1173TIP3    H2 3473   5.577   4.055   0.906
 1174TIP3   OH2 3474   5.177   3.501   0.836
 1174TIP3    H1 3475   5.188   3.426   0.774
 1174TIP3    H2 3476   5.144   3.572   0.778
 1175TIP3   OH2 3477   5.197   3.287   0.642
 1175TIP3    H1 3478   5.224   3.319   0.554
 1175TIP3    H2 3479   5.102   3.265   0.627
 1176TIP3   OH2 3480   5.229   3.812   0.491
 1176TIP3    H1 3481   5.305   3.872   0.495
 1176TIP3    H2 3482   5.158   3.871   0.459
 1177TIP3   OH2 3483   5.812   3.775   0.899
 1177TIP3    H1 3484   5.814   3.693   0.845
 1177TIP3    H2 3485   5.889   3.822   0.866
 1178TIP3   OH2 3486   5.854   4.057   0.628
 1178TIP3    H1 3487   5.797   4.100   0.561
 1178TIP3    H2 3488   5.942   4.072   0.589
 1179TIP3   OH2 3489   5.075   3.612   1.070
 1179TIP3    H1 3490   5.009   3.542   1.088
 1179TIP3    H2 3491   5.108   3.582   0.982
 1180TIP3   OH2 3492   5.334   3.053   0.710
 1180TIP3    H1 3493   5.282   3.135   0.690
 1180TIP3    H2 3494   5.265   2.984   0.701
 1181TIP3   OH2 3495   5.435   3.588   0.924
 1181TIP3    H1 3496   5.468   3.556   1.009
 1181TIP3    H2 3497   5.350   3.542   0.915
 1182TIP3   OH2 3498   4.915   3.389   1.125
 1182TIP3    H1 3499   4.922   3.298   1.091
 1182TIP3    H2 3500   4.956   3.379   1.214
 1183TIP3   OH2 3501   5.422   3.060   0.971
 1183TIP3    H1 3502   5.491   2.991   0.964
 1183TIP3    H2 3503   5.386   3.058   0.880
 1184TIP3   OH2 3504   5.487   3.274   1.132
 1184TIP3    H1 3505   5.468   3.205   1.065
 1184TIP3    H2 3506   5.409   3.333   1.125
 1185TIP3   OH2 3507   4.257   4.346   0.024
 1185TIP3    H1 3508   4.193   4.286   0.064
 1185TIP3    H2 3509   4.285   4.399   0.100
 1186TIP3   OH2 3510   6.046   4.446   0.698
 1186TIP3    H1 3511   5.978   4.459   0.767
 1186TIP3    H2 3512   6.094   4.531   0.701
 1187TIP3   OH2 3513   4.430   3.753   0.419
 1187TIP3    H1 3514   4.425   3.721   0.326
 1187TIP3    H2 3515   4.527   3.756   0.432
 1188TIP3   OH2 3516   6.103   4.124   0.509
 1188TIP3    H1 3517   6.171   4.053   0.514
 1188TIP3    H2 3518   6.107   4.148   0.416
 1189TIP3   OH2 3519   6.277   3.921   0.548
 1189TIP3    H1 3520   6.197   3.870   0.574
 1189TIP3    H2 3521   6.346   3.852   0.561
 1190TIP3   OH2 3522   5.991   3.758   0.269
 1190TIP3    H1 3523   5.924   3.765   0.340
 1190TIP3    H2 3524   6.005   3.851   0.249
 1191TIP3   OH2 3525   4.649   3.441   1.084
 1191TIP3    H1 3526   4.747   3.438   1.093
 1191TIP3    H2 3527   4.626   3.354   1.124
 1192TIP3   OH2 3528   6.491   3.317   0.844
 1192TIP3    H1 3529   6.550   3.255   0.796
 1192TIP3    H2 3530   6.455   3.370   0.769
 1193TIP3   OH2 3531   4.611   3.136   0.416
 1193TIP3    H1 3532   4.675   3.062   0.424
 1193TIP3    H2 3533   4.672   3.212   0.409
 1194TIP3   OH2 3534   4.410   3.409   0.492
 1194TIP3    H1 3535   4.461   3.412   0.408
 1194TIP3    H2 3536   4.427   3.496   0.528
 1195TIP3   OH2 3537   6.358   3.460   0.657
 1195TIP3    H1 3538   6.269   3.496   0.673
 1195TIP3    H2 3539   6.337   3.404   0.580
 1196TIP3   OH2 3540   4.370   2.930  -0.030
 1196TIP3    H1 3541   4.298   2.908   0.033
 1196TIP3    H2 3542   4.349   3.022  -0.050
 1197TIP3   OH2 3543   4.618   2.989   0.803
 1197TIP3    H1 3544   4.569   2.992   0.887
 1197TIP3    H2 3545   4.554   3.031   0.742
 1198TIP3   OH2 3546   4.656   4.426   0.879
 1198TIP3    H1 3547   4.561   4.404   0.866
 1198TIP3    H2 3548   4.668   4.407   0.973
 1199TIP3   OH2 3549   4.824   4.468   0.446
 1199TIP3    H1 3550   4.784   4.550   0.413
 1199TIP3    H2 3551   4.915   4.480   0.408
 1200TIP3   OH2 3552   5.289   4.665   0.577
 1200TIP3    H1 3553   5.339   4.705   0.649
 1200TIP3    H2 3554   5.271   4.740   0.516
 1201TIP3   OH2 3555   5.542   4.864   0.394
 1201TIP3    H1 3556   5.487   4.783   0.396
 1201TIP3    H2 3557   5.544   4.893   0.486
 1202TIP3   OH2 3558   6.236   3.198   0.551
 1202TIP3    H1 3559   6.146   3.187   0.518
 1202TIP3    H2 3560   6.273   3.109   0.536
 1203TIP3   OH2 3561   4.510   4.701   0.493
 1203TIP3    H1 3562   4.424   4.726   0.452
 1203TIP3    H2 3563   4.512   4.765   0.566
 1204TIP3   OH2 3564   4.741   4.729   0.355
 1204TIP3    H1 3565   4.667   4.721   0.419
 1204TIP3    H2 3566   4.693   4.771   0.282
 1205TIP3   OH2 3567   4.418   4.489   0.216
 1205TIP3    H1 3568   4.443   4.463   0.308
 1205TIP3    H2 3569   4.491   4.446   0.169
 1206TIP3   OH2 3570   5.406   3.109   0.146
 1206TIP3    H1 3571   5.377   3.040   0.209
 1206TIP3    H2 3572   5.502   3.097   0.145
 1207TIP3   OH2 3573   4.704   2.833   0.159
 1207TIP3    H1 3574   4.614   2.797   0.169
 1207TIP3    H2 3575   4.755   2.749   0.156
 1208TIP3   OH2 3576   4.455   2.708  -0.177
 1208TIP3    H1 3577   4.529   2.750  -0.226
 1208TIP3    H2 3578   4.435   2.778  -0.111
 1209TIP3   OH2 3579   5.148   2.864   0.060
 1209TIP3    H1 3580   5.169   2.924  -0.012
 1209TIP3    H2 3581   5.189   2.905   0.137
 1210TIP3   OH2 3582   5.685   3.071   0.102
 1210TIP3    H1 3583   5.760   3.055   0.043
 1210TIP3    H2 3584   5.667   2.979   0.133
 1211TIP3   OH2 3585   4.913   3.114   1.050
 1211TIP3    H1 3586   4.877   3.045   1.108
 1211TIP3    H2 3587   5.007   3.115   1.080
 1212TIP3   OH2 3588   5.164   3.115   1.170
 1212TIP3    H1 3589   5.251   3.097   1.130
 1212TIP3    H2 3590   5.155   3.042   1.234
 1213TIP3   OH2 3591   5.987   3.149   0.951
 1213TIP3    H1 3592   6.003   3.144   1.047
 1213TIP3    H2 3593   6.077   3.168   0.918
 1214TIP3   OH2 3594   5.948   4.747   0.458
 1214TIP3    H1 3595   5.914   4.666   0.420
 1214TIP3    H2 3596   5.877   4.810   0.440
 1215TIP3   OH2 3597   6.600   3.574   0.339
 1215TIP3    H1 3598   6.504   3.560   0.347
 1215TIP3    H2 3599   6.634   3.485   0.354
 1216TIP3   OH2 3600   6.408   4.346   0.570
 1216TIP3    H1 3601   6.445   4.257   0.556
 1216TIP3    H2 3602   6.325   4.342   0.522
 1217TIP3   OH2 3603   6.563   4.103   0.523
 1217TIP3    H1 3604   6.544   4.009   0.524
 1217TIP3    H2 3605   6.590   4.122   0.616
 1218TIP3   OH2 3606   6.894   3.863   0.564
 1218TIP3    H1 3607   6.827   3.792   0.571
 1218TIP3    H2 3608   6.871   3.908   0.482
 1219TIP3   OH2 3609   6.721   3.650   0.605
 1219TIP3    H1 3610   6.710   3.565   0.557
 1219TIP3    H2 3611   6.745   3.619   0.694
 1220TIP3   OH2 3612   7.190   3.473   0.585
 1220TIP3    H1 3613   7.274   3.471   0.538
 1220TIP3    H2 3614   7.176   3.569   0.598
 1221TIP3   OH2 3615   6.454   3.720   0.597
 1221TIP3    H1 3616   6.547   3.700   0.573
 1221TIP3    H2 3617   6.425   3.631   0.626
 1222TIP3   OH2 3618   6.418   3.225   0.334
 1222TIP3    H1 3619   6.364   3.240   0.413
 1222TIP3    H2 3620   6.404   3.308   0.286
 1223TIP3   OH2 3621   6.707   3.365   0.542
 1223TIP3    H1 3622   6.669   3.294   0.597
 1223TIP3    H2 3623   6.798   3.369   0.578
 1224TIP3   OH2 3624   6.951   3.383   0.672
 1224TIP3    H1 3625   7.039   3.413   0.638
 1224TIP3    H2 3626   6.975   3.299   0.714
 1225TIP3   OH2 3627   0.473   4.426   1.345
 1225TIP3    H1 3628   0.502   4.514   1.376
 1225TIP3    H2 3629   0.466   4.440   1.250
 1226TIP3   OH2 3630   0.544   4.644   1.514
 1226TIP3    H1 3631   0.456   4.686   1.503
 1226TIP3    H2 3632   0.576   4.688   1.594
 1227TIP3   OH2 3633   0.152   4.314   1.208
 1227TIP3    H1 3634   0.082   4.354   1.263
 1227TIP3    H2 3635   0.183   4.392   1.160
 1228TIP3   OH2 3636   0.261   4.328   1.502
 1228TIP3    H1 3637   0.175   4.352   1.461
 1228TIP3    H2 3638   0.323   4.360   1.433
 1229TIP3   OH2 3639   0.390   4.971   1.364
 1229TIP3    H1 3640   0.373   5.059   1.325
 1229TIP3    H2 3641   0.359   4.915   1.290
 1230TIP3   OH2 3642   0.043   4.867   1.646
 1230TIP3    H1 3643   0.057   4.937   1.714
 1230TIP3    H2 3644  -0.054   4.880   1.633
 1231TIP3   OH2 3645   0.459   5.685   1.564
 1231TIP3    H1 3646   0.413   5.604   1.537
 1231TIP3    H2 3647   0.398   5.753   1.532
 1232TIP3   OH2 3648   0.307   4.810   1.815
 1232TIP3    H1 3649   0.238   4.819   1.748
 1232TIP3    H2 3650   0.329   4.715   1.807
 1233TIP3   OH2 3651  -0.128   4.167   1.803
 1233TIP3    H1 3652  -0.055   4.139   1.862
 1233TIP3    H2 3653  -0.207   4.147   1.857
 1234TIP3   OH2 3654   0.072   4.590   1.711
 1234TIP3    H1 3655   0.033   4.585   1.801
 1234TIP3    H2 3656   0.050   4.681   1.684
 1235TIP3   OH2 3657  -0.198   4.820   1.947
 1235TIP3    H1 3658  -0.226   4.748   2.006
 1235TIP3    H2 3659  -0.107   4.835   1.977
 1236TIP3   OH2 3660  -0.014   4.351   1.417
 1236TIP3    H1 3661  -0.067   4.359   1.498
 1236TIP3    H2 3662  -0.032   4.259   1.387
 1237TIP3   OH2 3663   0.458   5.357   1.625
 1237TIP3    H1 3664   0.383   5.416   1.601
 1237TIP3    H2 3665   0.500   5.347   1.536
 1238TIP3   OH2 3666  -0.131   4.402   1.661
 1238TIP3    H1 3667  -0.047   4.450   1.678
 1238TIP3    H2 3668  -0.122   4.322   1.716
 1239TIP3   OH2 3669  -0.296   4.606   1.768
 1239TIP3    H1 3670  -0.234   4.657   1.822
 1239TIP3    H2 3671  -0.240   4.532   1.737
 1240TIP3   OH2 3672   0.342   4.548   1.730
 1240TIP3    H1 3673   0.244   4.546   1.725
 1240TIP3    H2 3674   0.364   4.514   1.643
 1241TIP3   OH2 3675  -0.145   5.153   2.062
 1241TIP3    H1 3676  -0.062   5.124   2.023
 1241TIP3    H2 3677  -0.148   5.097   2.142
 1242TIP3   OH2 3678   0.062   4.833   2.064
 1242TIP3    H1 3679   0.101   4.745   2.075
 1242TIP3    H2 3680   0.135   4.880   2.021
 1243TIP3   OH2 3681   0.079   5.091   1.806
 1243TIP3    H1 3682   0.017   5.163   1.782
 1243TIP3    H2 3683   0.161   5.115   1.757
 1244TIP3   OH2 3684  -0.391   4.108   1.888
 1244TIP3    H1 3685  -0.445   4.185   1.866
 1244TIP3    H2 3686  -0.453   4.037   1.867
 1245TIP3   OH2 3687  -0.274   4.597   2.091
 1245TIP3    H1 3688  -0.286   4.624   2.183
 1245TIP3    H2 3689  -0.361   4.558   2.071
 1246TIP3   OH2 3690  -0.038   4.553   1.952
 1246TIP3    H1 3691  -0.114   4.553   2.013
 1246TIP3    H2 3692   0.035   4.524   2.011
 1247TIP3   OH2 3693   0.180   4.495   2.111
 1247TIP3    H1 3694   0.194   4.399   2.125
 1247TIP3    H2 3695   0.173   4.529   2.202
 1248TIP3   OH2 3696  -0.300   4.105   2.149
 1248TIP3    H1 3697  -0.239   4.028   2.142
 1248TIP3    H2 3698  -0.342   4.102   2.061
 1249TIP3   OH2 3699  -0.313   4.329   2.297
 1249TIP3    H1 3700  -0.293   4.240   2.258
 1249TIP3    H2 3701  -0.377   4.359   2.230
 1250TIP3   OH2 3702   0.294   5.490   1.878
 1250TIP3    H1 3703   0.218   5.510   1.936
 1250TIP3    H2 3704   0.348   5.571   1.885
 1251TIP3   OH2 3705   0.321   5.134   1.692
 1251TIP3    H1 3706   0.395   5.069   1.692
 1251TIP3    H2 3707   0.367   5.213   1.656
 1252TIP3   OH2 3708   0.520   4.954   1.729
 1252TIP3    H1 3709   0.450   4.897   1.766
 1252TIP3    H2 3710   0.598   4.894   1.738
 1253TIP3   OH2 3711   0.233   4.609   1.268
 1253TIP3    H1 3712   0.302   4.650   1.214
 1253TIP3    H2 3713   0.248   4.652   1.354
 1254TIP3   OH2 3714   0.285   4.762   1.503
 1254TIP3    H1 3715   0.196   4.786   1.532
 1254TIP3    H2 3716   0.319   4.848   1.470
 1255TIP3   OH2 3717   0.732   4.360   2.017
 1255TIP3    H1 3718   0.795   4.297   1.975
 1255TIP3    H2 3719   0.700   4.410   1.939
 1256TIP3   OH2 3720   0.598   4.490   1.819
 1256TIP3    H1 3721   0.512   4.534   1.830
 1256TIP3    H2 3722   0.569   4.414   1.764
 1257TIP3   OH2 3723   0.502   4.257   1.705
 1257TIP3    H1 3724   0.416   4.250   1.661
 1257TIP3    H2 3725   0.537   4.165   1.695
 1258TIP3   OH2 3726   0.226   4.046   1.224
 1258TIP3    H1 3727   0.298   4.082   1.166
 1258TIP3    H2 3728   0.176   4.129   1.234
 1259TIP3   OH2 3729   0.381   4.152   1.038
 1259TIP3    H1 3730   0.423   4.114   0.959
 1259TIP3    H2 3731   0.362   4.243   1.007
 1260TIP3   OH2 3732  -0.071   4.121   1.279
 1260TIP3    H1 3733  -0.034   4.108   1.189
 1260TIP3    H2 3734  -0.087   4.027   1.304
 1261TIP3   OH2 3735   0.243   4.225   2.136
 1261TIP3    H1 3736   0.261   4.194   2.227
 1261TIP3    H2 3737   0.333   4.220   2.096
 1262TIP3   OH2 3738   1.434   5.142   0.388
 1262TIP3    H1 3739   1.477   5.227   0.408
 1262TIP3    H2 3740   1.345   5.156   0.424
 1263TIP3   OH2 3741   1.446   5.139   0.780
 1263TIP3    H1 3742   1.485   5.130   0.869
 1263TIP3    H2 3743   1.401   5.053   0.772
 1264TIP3   OH2 3744   0.726   5.052   1.119
 1264TIP3    H1 3745   0.746   4.997   1.196
 1264TIP3    H2 3746   0.815   5.057   1.078
 1265TIP3   OH2 3747   1.663   5.417   0.490
 1265TIP3    H1 3748   1.686   5.376   0.575
 1265TIP3    H2 3749   1.696   5.507   0.503
 1266TIP3   OH2 3750   1.258   5.362   0.826
 1266TIP3    H1 3751   1.303   5.284   0.790
 1266TIP3    H2 3752   1.336   5.414   0.853
 1267TIP3   OH2 3753   2.257   4.694   0.822
 1267TIP3    H1 3754   2.288   4.777   0.863
 1267TIP3    H2 3755   2.282   4.708   0.729
 1268TIP3   OH2 3756   1.660   4.871   0.853
 1268TIP3    H1 3757   1.701   4.785   0.875
 1268TIP3    H2 3758   1.626   4.852   0.763
 1269TIP3   OH2 3759   0.993   4.519   0.816
 1269TIP3    H1 3760   0.967   4.587   0.751
 1269TIP3    H2 3761   0.953   4.441   0.772
 1270TIP3   OH2 3762   1.689   4.625   0.437
 1270TIP3    H1 3763   1.758   4.611   0.505
 1270TIP3    H2 3764   1.746   4.656   0.363
 1271TIP3   OH2 3765   0.631   4.715   0.928
 1271TIP3    H1 3766   0.720   4.705   0.967
 1271TIP3    H2 3767   0.635   4.654   0.854
 1272TIP3   OH2 3768   1.060   4.904   0.781
 1272TIP3    H1 3769   1.156   4.889   0.775
 1272TIP3    H2 3770   1.022   4.828   0.734
 1273TIP3   OH2 3771   2.332   4.903   0.992
 1273TIP3    H1 3772   2.247   4.948   0.973
 1273TIP3    H2 3773   2.353   4.941   1.079
 1274TIP3   OH2 3774   0.991   4.515   1.259
 1274TIP3    H1 3775   0.937   4.556   1.189
 1274TIP3    H2 3776   0.937   4.535   1.338
 1275TIP3   OH2 3777   1.107   5.289   1.038
 1275TIP3    H1 3778   1.057   5.367   1.071
 1275TIP3    H2 3779   1.153   5.327   0.959
 1276TIP3   OH2 3780   1.888   4.636   0.622
 1276TIP3    H1 3781   1.869   4.594   0.707
 1276TIP3    H2 3782   1.941   4.713   0.649
 1277TIP3   OH2 3783   0.872   4.628   1.037
 1277TIP3    H1 3784   0.931   4.703   1.061
 1277TIP3    H2 3785   0.923   4.587   0.964
 1278TIP3   OH2 3786   0.946   5.496   1.136
 1278TIP3    H1 3787   0.923   5.583   1.101
 1278TIP3    H2 3788   0.877   5.484   1.206
 1279TIP3   OH2 3789   1.759   5.661   0.607
 1279TIP3    H1 3790   1.668   5.669   0.644
 1279TIP3    H2 3791   1.799   5.744   0.637
 1280TIP3   OH2 3792   2.054   4.589   0.988
 1280TIP3    H1 3793   1.966   4.615   0.955
 1280TIP3    H2 3794   2.114   4.623   0.919
 1281TIP3   OH2 3795   1.339   4.230   0.972
 1281TIP3    H1 3796   1.322   4.136   0.990
 1281TIP3    H2 3797   1.264   4.271   1.019
 1282TIP3   OH2 3798   1.972   5.626   0.950
 1282TIP3    H1 3799   1.961   5.546   0.895
 1282TIP3    H2 3800   1.945   5.697   0.889
 1283TIP3   OH2 3801   2.176   5.247   0.818
 1283TIP3    H1 3802   2.093   5.298   0.821
 1283TIP3    H2 3803   2.207   5.270   0.727
 1284TIP3   OH2 3804   1.615   5.023   0.209
 1284TIP3    H1 3805   1.569   5.068   0.283
 1284TIP3    H2 3806   1.708   5.029   0.240
 1285TIP3   OH2 3807   1.855   5.118   1.116
 1285TIP3    H1 3808   1.853   5.201   1.167
 1285TIP3    H2 3809   1.769   5.123   1.070
 1286TIP3   OH2 3810   0.968   5.053   0.995
 1286TIP3    H1 3811   0.993   5.019   0.906
 1286TIP3    H2 3812   1.018   5.138   0.999
 1287TIP3   OH2 3813   1.522   5.682   0.737
 1287TIP3    H1 3814   1.512   5.770   0.777
 1287TIP3    H2 3815   1.503   5.621   0.811
 1288TIP3   OH2 3816   1.137   5.615   1.294
 1288TIP3    H1 3817   1.070   5.674   1.334
 1288TIP3    H2 3818   1.079   5.557   1.240
 1289TIP3   OH2 3819   0.898   5.159   1.412
 1289TIP3    H1 3820   0.898   5.250   1.447
 1289TIP3    H2 3821   0.803   5.136   1.421
 1290TIP3   OH2 3822   0.919   5.767   1.380
 1290TIP3    H1 3823   0.855   5.803   1.318
 1290TIP3    H2 3824   0.859   5.733   1.450
 1291TIP3   OH2 3825   1.982   4.185   0.070
 1291TIP3    H1 3826   1.899   4.198   0.121
 1291TIP3    H2 3827   1.986   4.269   0.020
 1292TIP3   OH2 3828   0.548   5.317   1.374
 1292TIP3    H1 3829   0.481   5.311   1.305
 1292TIP3    H2 3830   0.582   5.225   1.381
 1293TIP3   OH2 3831   2.233   5.958   1.038
 1293TIP3    H1 3832   2.220   5.862   1.037
 1293TIP3    H2 3833   2.143   5.987   1.064
 1294TIP3   OH2 3834   1.335   5.735   1.154
 1294TIP3    H1 3835   1.332   5.827   1.188
 1294TIP3    H2 3836   1.263   5.694   1.207
 1295TIP3   OH2 3837   2.108   5.079   1.293
 1295TIP3    H1 3838   2.023   5.090   1.247
 1295TIP3    H2 3839   2.124   4.983   1.282
 1296TIP3   OH2 3840   0.749   5.493   1.316
 1296TIP3    H1 3841   0.795   5.487   1.402
 1296TIP3    H2 3842   0.669   5.441   1.336
 1297TIP3   OH2 3843   1.105   4.310   1.105
 1297TIP3    H1 3844   1.018   4.279   1.072
 1297TIP3    H2 3845   1.077   4.389   1.155
 1298TIP3   OH2 3846   1.642   4.423   1.296
 1298TIP3    H1 3847   1.712   4.397   1.360
 1298TIP3    H2 3848   1.559   4.406   1.346
 1299TIP3   OH2 3849   1.875   4.856   1.214
 1299TIP3    H1 3850   1.822   4.854   1.297
 1299TIP3    H2 3851   1.851   4.944   1.177
 1300TIP3   OH2 3852   1.251   4.348   0.065
 1300TIP3    H1 3853   1.225   4.345   0.160
 1300TIP3    H2 3854   1.313   4.274   0.059
 1301TIP3   OH2 3855   1.040   4.826   1.123
 1301TIP3    H1 3856   0.991   4.846   1.205
 1301TIP3    H2 3857   1.024   4.909   1.074
 1302TIP3   OH2 3858   0.920   4.697   0.627
 1302TIP3    H1 3859   0.828   4.703   0.598
 1302TIP3    H2 3860   0.965   4.707   0.540
 1303TIP3   OH2 3861   1.416   4.812   0.357
 1303TIP3    H1 3862   1.410   4.906   0.335
 1303TIP3    H2 3863   1.467   4.777   0.282
 1304TIP3   OH2 3864   1.582   5.073   1.445
 1304TIP3    H1 3865   1.559   5.003   1.510
 1304TIP3    H2 3866   1.673   5.092   1.472
 1305TIP3   OH2 3867   1.569   4.820   0.599
 1305TIP3    H1 3868   1.503   4.847   0.532
 1305TIP3    H2 3869   1.606   4.742   0.551
 1306TIP3   OH2 3870   0.851   4.859   1.323
 1306TIP3    H1 3871   0.894   4.923   1.381
 1306TIP3    H2 3872   0.842   4.780   1.380
 1307TIP3   OH2 3873   0.447   4.402   0.918
 1307TIP3    H1 3874   0.526   4.412   0.976
 1307TIP3    H2 3875   0.486   4.378   0.833
 1308TIP3   OH2 3876   1.577   5.070   1.015
 1308TIP3    H1 3877   1.611   4.998   0.956
 1308TIP3    H2 3878   1.545   5.015   1.090
 1309TIP3   OH2 3879   1.254   4.532   0.697
 1309TIP3    H1 3880   1.174   4.529   0.753
 1309TIP3    H2 3881   1.326   4.525   0.763
 1310TIP3   OH2 3882   1.742   4.609   0.894
 1310TIP3    H1 3883   1.715   4.623   0.987
 1310TIP3    H2 3884   1.670   4.551   0.863
 1311TIP3   OH2 3885   1.916   6.300   1.124
 1311TIP3    H1 3886   1.911   6.313   1.027
 1311TIP3    H2 3887   1.998   6.347   1.147
 1312TIP3   OH2 3888   0.882   5.409   1.545
 1312TIP3    H1 3889   0.965   5.435   1.592
 1312TIP3    H2 3890   0.819   5.415   1.618
 1313TIP3   OH2 3891   1.340   4.865   0.793
 1313TIP3    H1 3892   1.414   4.827   0.743
 1313TIP3    H2 3893   1.346   4.820   0.879
 1314TIP3   OH2 3894   0.848   4.341   0.654
 1314TIP3    H1 3895   0.814   4.268   0.709
 1314TIP3    H2 3896   0.872   4.295   0.571
 1315TIP3   OH2 3897   1.308   4.768   1.080
 1315TIP3    H1 3898   1.217   4.802   1.094
 1315TIP3    H2 3899   1.363   4.832   1.129
 1316TIP3   OH2 3900   1.941   5.391   0.801
 1316TIP3    H1 3901   1.966   5.442   0.721
 1316TIP3    H2 3902   1.857   5.348   0.774
 1317TIP3   OH2 3903   1.517   4.473   0.058
 1317TIP3    H1 3904   1.430   4.452   0.020
 1317TIP3    H2 3905   1.521   4.570   0.051
 1318TIP3   OH2 3906   1.442   5.465   1.176
 1318TIP3    H1 3907   1.472   5.446   1.266
 1318TIP3    H2 3908   1.409   5.556   1.182
 1319TIP3   OH2 3909   1.578   4.753   0.127
 1319TIP3    H1 3910   1.664   4.720   0.159
 1319TIP3    H2 3911   1.596   4.849   0.124
 1320TIP3   OH2 3912   0.639   5.076   1.472
 1320TIP3    H1 3913   0.657   5.071   1.568
 1320TIP3    H2 3914   0.565   5.014   1.462
 1321TIP3   OH2 3915   1.346   5.232   1.452
 1321TIP3    H1 3916   1.292   5.161   1.416
 1321TIP3    H2 3917   1.433   5.189   1.458
 1322TIP3   OH2 3918   1.607   5.728   1.079
 1322TIP3    H1 3919   1.509   5.726   1.084
 1322TIP3    H2 3920   1.627   5.782   1.159
 1323TIP3   OH2 3921   1.999   4.791  -0.018
 1323TIP3    H1 3922   1.954   4.748  -0.094
 1323TIP3    H2 3923   1.997   4.883  -0.053
 1324TIP3   OH2 3924   2.225   5.652   1.055
 1324TIP3    H1 3925   2.128   5.658   1.039
 1324TIP3    H2 3926   2.255   5.626   0.965
 1325TIP3   OH2 3927   1.710   5.253   0.713
 1325TIP3    H1 3928   1.617   5.229   0.729
 1325TIP3    H2 3929   1.742   5.171   0.671
 1326TIP3   OH2 3930   1.107   5.851   1.011
 1326TIP3    H1 3931   1.114   5.837   0.914
 1326TIP3    H2 3932   1.193   5.817   1.042
 1327TIP3   OH2 3933   1.499   5.454   0.911
 1327TIP3    H1 3934   1.483   5.451   1.008
 1327TIP3    H2 3935   1.586   5.412   0.905
 1328TIP3   OH2 3936   1.734   6.002   0.985
 1328TIP3    H1 3937   1.683   5.919   0.981
 1328TIP3    H2 3938   1.792   5.992   0.906
 1329TIP3   OH2 3939   0.825   4.597   1.466
 1329TIP3    H1 3940   0.727   4.600   1.476
 1329TIP3    H2 3941   0.851   4.544   1.543
 1330TIP3   OH2 3942   1.675   4.658   1.153
 1330TIP3    H1 3943   1.750   4.702   1.196
 1330TIP3    H2 3944   1.661   4.579   1.210
 1331TIP3   OH2 3945   1.550   4.402   0.325
 1331TIP3    H1 3946   1.537   4.426   0.231
 1331TIP3    H2 3947   1.587   4.485   0.362
 1332TIP3   OH2 3948   1.266   4.578   0.425
 1332TIP3    H1 3949   1.311   4.663   0.409
 1332TIP3    H2 3950   1.253   4.579   0.522
 1333TIP3   OH2 3951   1.508   4.911   1.226
 1333TIP3    H1 3952   1.530   4.966   1.305
 1333TIP3    H2 3953   1.558   4.830   1.243
 1334TIP3   OH2 3954   1.376   4.306   0.525
 1334TIP3    H1 3955   1.362   4.388   0.575
 1334TIP3    H2 3956   1.437   4.338   0.454
 1335TIP3   OH2 3957   0.899   4.269   0.392
 1335TIP3    H1 3958   0.892   4.353   0.342
 1335TIP3    H2 3959   0.990   4.243   0.370
 1336TIP3   OH2 3960   2.141   4.812   1.214
 1336TIP3    H1 3961   2.042   4.812   1.220
 1336TIP3    H2 3962   2.152   4.768   1.129
 1337TIP3   OH2 3963   1.794   5.005   0.602
 1337TIP3    H1 3964   1.719   4.945   0.616
 1337TIP3    H2 3965   1.866   4.959   0.651
 1338TIP3   OH2 3966   0.843   4.226   1.070
 1338TIP3    H1 3967   0.809   4.195   0.983
 1338TIP3    H2 3968   0.829   4.147   1.127
 1339TIP3   OH2 3969   0.591   5.978   1.522
 1339TIP3    H1 3970   0.671   5.982   1.578
 1339TIP3    H2 3971   0.585   5.883   1.503
 1340TIP3   OH2 3972   1.017   5.940   1.579
 1340TIP3    H1 3973   1.112   5.922   1.586
 1340TIP3    H2 3974   0.992   5.882   1.505
 1341TIP3   OH2 3975   1.648   5.868   1.311
 1341TIP3    H1 3976   1.648   5.797   1.379
 1341TIP3    H2 3977   1.727   5.920   1.335
 1342TIP3   OH2 3978   0.696   5.396   1.751
 1342TIP3    H1 3979   0.722   5.303   1.759
 1342TIP3    H2 3980   0.606   5.387   1.715
 1343TIP3   OH2 3981   1.280   5.496   1.501
 1343TIP3    H1 3982   1.242   5.512   1.412
 1343TIP3    H2 3983   1.309   5.403   1.494
 1344TIP3   OH2 3984   1.771   5.504   1.105
 1344TIP3    H1 3985   1.845   5.548   1.059
 1344TIP3    H2 3986   1.702   5.572   1.095
 1345TIP3   OH2 3987   0.795   5.124   1.715
 1345TIP3    H1 3988   0.879   5.107   1.670
 1345TIP3    H2 3989   0.826   5.153   1.804
 1346TIP3   OH2 3990   1.115   5.005   1.363
 1346TIP3    H1 3991   1.045   5.073   1.370
 1346TIP3    H2 3992   1.169   5.040   1.289
 1347TIP3   OH2 3993   1.636   5.419   1.506
 1347TIP3    H1 3994   1.710   5.372   1.466
 1347TIP3    H2 3995   1.617   5.362   1.583
 1348TIP3   OH2 3996   1.246   4.808   1.494
 1348TIP3    H1 3997   1.248   4.731   1.434
 1348TIP3    H2 3998   1.201   4.876   1.438
 1349TIP3   OH2 3999   1.250   4.595   1.304
 1349TIP3    H1 4000   1.278   4.639   1.221
 1349TIP3    H2 4001   1.157   4.573   1.285
 1350TIP3   OH2 4002   1.267   5.114   1.172
 1350TIP3    H1 4003   1.356   5.142   1.148
 1350TIP3    H2 4004   1.211   5.180   1.125
 1351TIP3   OH2 4005   1.860   5.085   1.543
 1351TIP3    H1 4006   1.912   5.004   1.553
 1351TIP3    H2 4007   1.925   5.147   1.506
 1352TIP3   OH2 4008   1.894   5.348   1.290
 1352TIP3    H1 4009   1.836   5.406   1.235
 1352TIP3    H2 4010   1.981   5.371   1.252
 1353TIP3   OH2 4011   1.123   4.912   1.729
 1353TIP3    H1 4012   1.056   4.843   1.745
 1353TIP3    H2 4013   1.154   4.890   1.640
 1354TIP3   OH2 4014   1.378   4.355   1.378
 1354TIP3    H1 4015   1.330   4.437   1.352
 1354TIP3    H2 4016   1.310   4.287   1.365
 1355TIP3   OH2 4017   1.507   4.850   1.588
 1355TIP3    H1 4018   1.491   4.842   1.683
 1355TIP3    H2 4019   1.417   4.831   1.554
 1356TIP3   OH2 4020   1.741   4.803   1.441
 1356TIP3    H1 4021   1.666   4.810   1.504
 1356TIP3    H2 4022   1.815   4.779   1.500
 1357TIP3   OH2 4023   1.977   4.756   1.593
 1357TIP3    H1 4024   1.988   4.660   1.606
 1357TIP3    H2 4025   1.970   4.789   1.685
 1358TIP3   OH2 4026   0.958   4.690   1.787
 1358TIP3    H1 4027   0.963   4.598   1.755
 1358TIP3    H2 4028   0.999   4.680   1.876
 1359TIP3   OH2 4029   1.468   4.363   1.637
 1359TIP3    H1 4030   1.535   4.292   1.628
 1359TIP3    H2 4031   1.430   4.362   1.547
 1360TIP3   OH2 4032   1.535   4.578   1.794
 1360TIP3    H1 4033   1.515   4.508   1.728
 1360TIP3    H2 4034   1.458   4.637   1.785
 1361TIP3   OH2 4035   2.004   6.102   0.465
 1361TIP3    H1 4036   1.974   6.054   0.545
 1361TIP3    H2 4037   2.099   6.096   0.470
 1362TIP3   OH2 4038   2.097   5.748   1.367
 1362TIP3    H1 4039   2.025   5.760   1.432
 1362TIP3    H2 4040   2.138   5.837   1.367
 1363TIP3   OH2 4041   1.936   5.237  -0.023
 1363TIP3    H1 4042   2.004   5.304  -0.041
 1363TIP3    H2 4043   1.966   5.204   0.064
 1364TIP3   OH2 4044   2.050   5.116   0.193
 1364TIP3    H1 4045   1.980   5.082   0.253
 1364TIP3    H2 4046   2.109   5.163   0.255
 1365TIP3   OH2 4047   2.100   5.526   0.619
 1365TIP3    H1 4048   2.149   5.458   0.570
 1365TIP3    H2 4049   2.086   5.595   0.550
 1366TIP3   OH2 4050   1.992   5.018  -0.169
 1366TIP3    H1 4051   1.930   5.035  -0.240
 1366TIP3    H2 4052   1.967   5.093  -0.110
 1367TIP3   OH2 4053   1.865   4.712  -0.249
 1367TIP3    H1 4054   1.784   4.768  -0.241
 1367TIP3    H2 4055   1.828   4.621  -0.243
 1368TIP3   OH2 4056   1.858   4.986   0.338
 1368TIP3    H1 4057   1.867   4.890   0.335
 1368TIP3    H2 4058   1.841   5.004   0.433
 1369TIP3   OH2 4059   2.141   5.414   1.188
 1369TIP3    H1 4060   2.211   5.347   1.173
 1369TIP3    H2 4061   2.169   5.487   1.129
 1370TIP3   OH2 4062   2.322   5.210   1.188
 1370TIP3    H1 4063   2.247   5.164   1.231
 1370TIP3    H2 4064   2.395   5.148   1.210
 1371TIP3   OH2 4065   1.777   4.454  -0.224
 1371TIP3    H1 4066   1.865   4.420  -0.198
 1371TIP3    H2 4067   1.720   4.415  -0.156
 1372TIP3   OH2 4068   1.843   4.699   0.217
 1372TIP3    H1 4069   1.886   4.611   0.230
 1372TIP3    H2 4070   1.900   4.736   0.148
 1373TIP3   OH2 4071   2.006   4.872   0.720
 1373TIP3    H1 4072   2.092   4.895   0.677
 1373TIP3    H2 4073   2.022   4.911   0.808
 1374TIP3   OH2 4074   2.081   5.023   0.947
 1374TIP3    H1 4075   2.004   5.056   0.998
 1374TIP3    H2 4076   2.113   5.105   0.904
 1375TIP3   OH2 4077   0.692   4.741   1.748
 1375TIP3    H1 4078   0.789   4.740   1.755
 1375TIP3    H2 4079   0.671   4.655   1.789
 1376TIP3   OH2 4080   2.532   4.619   1.504
 1376TIP3    H1 4081   2.593   4.555   1.461
 1376TIP3    H2 4082   2.498   4.668   1.426
 1377TIP3   OH2 4083   1.959   4.454   0.258
 1377TIP3    H1 4084   2.004   4.439   0.344
 1377TIP3    H2 4085   1.897   4.377   0.258
 1378TIP3   OH2 4086   0.665   4.438   1.078
 1378TIP3    H1 4087   0.725   4.361   1.088
 1378TIP3    H2 4088   0.729   4.511   1.075
 1379TIP3   OH2 4089   0.472   4.730   1.155
 1379TIP3    H1 4090   0.511   4.710   1.068
 1379TIP3    H2 4091   0.526   4.807   1.178
 1380TIP3   OH2 4092   2.395   4.747   1.307
 1380TIP3    H1 4093   2.310   4.793   1.322
 1380TIP3    H2 4094   2.363   4.673   1.251
 1381TIP3   OH2 4095   2.038   4.390  -0.129
 1381TIP3    H1 4096   2.110   4.326  -0.145
 1381TIP3    H2 4097   2.091   4.469  -0.107
 1382TIP3   OH2 4098   0.668   4.286   1.473
 1382TIP3    H1 4099   0.616   4.290   1.554
 1382TIP3    H2 4100   0.607   4.329   1.410
 1383TIP3   OH2 4101   0.731   5.707   1.565
 1383TIP3    H1 4102   0.635   5.688   1.565
 1383TIP3    H2 4103   0.751   5.701   1.659
 1384TIP3   OH2 4104   1.323   6.003   1.229
 1384TIP3    H1 4105   1.369   6.001   1.316
 1384TIP3    H2 4106   1.389   6.052   1.174
 1385TIP3   OH2 4107   1.506   6.155   1.089
 1385TIP3    H1 4108   1.582   6.109   1.048
 1385TIP3    H2 4109   1.553   6.217   1.149
 1386TIP3   OH2 4110   2.297   4.511   1.192
 1386TIP3    H1 4111   2.208   4.499   1.153
 1386TIP3    H2 4112   2.334   4.420   1.182
 1387TIP3   OH2 4113   1.509   5.950   0.807
 1387TIP3    H1 4114   1.429   5.995   0.775
 1387TIP3    H2 4115   1.568   6.024   0.826
 1388TIP3   OH2 4116   1.706   6.200   0.718
 1388TIP3    H1 4117   1.663   6.193   0.632
 1388TIP3    H2 4118   1.768   6.123   0.715
 1389TIP3   OH2 4119   1.505   4.430   0.814
 1389TIP3    H1 4120   1.464   4.356   0.862
 1389TIP3    H2 4121   1.578   4.386   0.766
 1390TIP3   OH2 4122   2.020   4.313   0.715
 1390TIP3    H1 4123   2.057   4.363   0.638
 1390TIP3    H2 4124   1.925   4.332   0.707
 1391TIP3   OH2 4125   2.119   4.408   0.477
 1391TIP3    H1 4126   2.193   4.354   0.442
 1391TIP3    H2 4127   2.155   4.498   0.464
 1392TIP3   OH2 4128   0.746   4.143   0.821
 1392TIP3    H1 4129   0.658   4.098   0.824
 1392TIP3    H2 4130   0.805   4.064   0.819
 1393TIP3   OH2 4131   1.207   4.168   0.710
 1393TIP3    H1 4132   1.259   4.214   0.643
 1393TIP3    H2 4133   1.235   4.212   0.791
 1394TIP3   OH2 4134   1.735   4.317   0.687
 1394TIP3    H1 4135   1.744   4.273   0.602
 1394TIP3    H2 4136   1.727   4.240   0.748
 1395TIP3   OH2 4137   1.777   4.243   0.255
 1395TIP3    H1 4138   1.690   4.285   0.271
 1395TIP3    H2 4139   1.763   4.156   0.299
 1396TIP3   OH2 4140   1.178   4.339   0.329
 1396TIP3    H1 4141   1.228   4.290   0.396
 1396TIP3    H2 4142   1.200   4.431   0.357
 1397TIP3   OH2 4143   0.958   4.413   1.716
 1397TIP3    H1 4144   0.923   4.343   1.773
 1397TIP3    H2 4145   1.052   4.415   1.745
 1398TIP3   OH2 4146   1.209   4.416   1.834
 1398TIP3    H1 4147   1.295   4.396   1.793
 1398TIP3    H2 4148   1.201   4.344   1.899
 1399TIP3   OH2 4149   2.039   4.483   1.621
 1399TIP3    H1 4150   2.056   4.452   1.713
 1399TIP3    H2 4151   2.128   4.477   1.582
 1400TIP3   OH2 4152   1.977   6.031   1.124
 1400TIP3    H1 4153   1.901   5.999   1.072
 1400TIP3    H2 4154   1.953   6.126   1.130
 1401TIP3   OH2 4155   3.222   5.399   0.277
 1401TIP3    H1 4156   3.277   5.390   0.357
 1401TIP3    H2 4157   3.185   5.308   0.271
 1402TIP3   OH2 4158   2.539   5.294   0.625
 1402TIP3    H1 4159   2.566   5.222   0.686
 1402TIP3    H2 4160   2.615   5.352   0.632
 1403TIP3   OH2 4161   2.516   5.715   0.346
 1403TIP3    H1 4162   2.505   5.617   0.351
 1403TIP3    H2 4163   2.613   5.721   0.343
 1404TIP3   OH2 4164   2.220   4.904   0.121
 1404TIP3    H1 4165   2.175   4.987   0.149
 1404TIP3    H2 4166   2.143   4.853   0.090
 1405TIP3   OH2 4167   2.281   5.201   0.315
 1405TIP3    H1 4168   2.333   5.123   0.344
 1405TIP3    H2 4169   2.327   5.226   0.233
 1406TIP3   OH2 4170   3.039   5.630   0.310
 1406TIP3    H1 4171   3.080   5.548   0.278
 1406TIP3    H2 4172   3.120   5.677   0.338
 1407TIP3   OH2 4173   4.079   4.945   0.300
 1407TIP3    H1 4174   4.101   5.025   0.353
 1407TIP3    H2 4175   4.006   4.978   0.245
 1408TIP3   OH2 4176   3.439   5.118   0.358
 1408TIP3    H1 4177   3.486   5.035   0.379
 1408TIP3    H2 4178   3.406   5.098   0.269
 1409TIP3   OH2 4179   2.790   4.788   0.307
 1409TIP3    H1 4180   2.770   4.860   0.244
 1409TIP3    H2 4181   2.744   4.713   0.264
 1410TIP3   OH2 4182   2.424   4.990   0.415
 1410TIP3    H1 4183   2.506   4.971   0.464
 1410TIP3    H2 4184   2.439   4.934   0.336
 1411TIP3   OH2 4185   2.863   5.190   0.211
 1411TIP3    H1 4186   2.957   5.167   0.228
 1411TIP3    H2 4187   2.827   5.104   0.183
 1412TIP3   OH2 4188   4.122   5.153   0.478
 1412TIP3    H1 4189   4.036   5.199   0.464
 1412TIP3    H2 4190   4.152   5.198   0.560
 1413TIP3   OH2 4191   2.785   4.775   0.747
 1413TIP3    H1 4192   2.728   4.809   0.676
 1413TIP3    H2 4193   2.729   4.794   0.825
 1414TIP3   OH2 4194   2.892   5.552   0.530
 1414TIP3    H1 4195   2.833   5.622   0.566
 1414TIP3    H2 4196   2.936   5.598   0.456
 1415TIP3   OH2 4197   3.767   4.868   0.116
 1415TIP3    H1 4198   3.687   4.825   0.150
 1415TIP3    H2 4199   3.775   4.945   0.176
 1416TIP3   OH2 4200   2.659   4.887   0.526
 1416TIP3    H1 4201   2.722   4.959   0.550
 1416TIP3    H2 4202   2.710   4.845   0.453
 1417TIP3   OH2 4203   2.725   5.749   0.632
 1417TIP3    H1 4204   2.701   5.839   0.600
 1417TIP3    H2 4205   2.645   5.730   0.685
 1418TIP3   OH2 4206   2.156   5.393  -0.081
 1418TIP3    H1 4207   2.088   5.426  -0.142
 1418TIP3    H2 4208   2.200   5.476  -0.059
 1419TIP3   OH2 4209   3.847   4.851   0.476
 1419TIP3    H1 4210   3.758   4.874   0.445
 1419TIP3    H2 4211   3.901   4.873   0.399
 1420TIP3   OH2 4212   3.116   4.502   0.435
 1420TIP3    H1 4213   3.121   4.417   0.484
 1420TIP3    H2 4214   3.044   4.544   0.488
 1421TIP3   OH2 4215   3.778   5.849   0.466
 1421TIP3    H1 4216   3.773   5.784   0.392
 1421TIP3    H2 4217   3.761   5.934   0.420
 1422TIP3   OH2 4218   3.969   5.509   0.360
 1422TIP3    H1 4219   3.893   5.567   0.336
 1422TIP3    H2 4220   3.998   5.482   0.269
 1423TIP3   OH2 4221   3.645   5.374   0.606
 1423TIP3    H1 4222   3.646   5.458   0.656
 1423TIP3    H2 4223   3.560   5.382   0.559
 1424TIP3   OH2 4224   2.650   5.329   0.106
 1424TIP3    H1 4225   2.585   5.264   0.073
 1424TIP3    H2 4226   2.722   5.272   0.139
 1425TIP3   OH2 4227   2.789   5.745   0.245
 1425TIP3    H1 4228   2.767   5.696   0.165
 1425TIP3    H2 4229   2.878   5.709   0.266
 1426TIP3   OH2 4230   2.793   5.305   0.457
 1426TIP3    H1 4231   2.825   5.282   0.367
 1426TIP3    H2 4232   2.831   5.393   0.473
 1427TIP3   OH2 4233   3.330   5.938   0.239
 1427TIP3    H1 4234   3.303   6.009   0.299
 1427TIP3    H2 4235   3.313   5.859   0.292
 1428TIP3   OH2 4236   2.926   5.862   0.782
 1428TIP3    H1 4237   2.863   5.923   0.825
 1428TIP3    H2 4238   2.864   5.809   0.728
 1429TIP3   OH2 4239   2.681   5.413   0.887
 1429TIP3    H1 4240   2.685   5.504   0.924
 1429TIP3    H2 4241   2.586   5.393   0.903
 1430TIP3   OH2 4242   2.720   6.026   0.868
 1430TIP3    H1 4243   2.685   6.032   0.777
 1430TIP3    H2 4244   2.640   6.004   0.919
 1431TIP3   OH2 4245   2.447   5.173  -0.005
 1431TIP3    H1 4246   2.379   5.222  -0.054
 1431TIP3    H2 4247   2.442   5.086  -0.046
 1432TIP3   OH2 4248   2.298   5.563   0.812
 1432TIP3    H1 4249   2.228   5.547   0.745
 1432TIP3    H2 4250   2.335   5.473   0.827
 1433TIP3   OH2 4251   2.148   5.758   0.444
 1433TIP3    H1 4252   2.244   5.768   0.445
 1433TIP3    H2 4253   2.121   5.816   0.517
 1434TIP3   OH2 4254   4.025   6.205   0.528
 1434TIP3    H1 4255   4.018   6.108   0.534
 1434TIP3    H2 4256   3.935   6.232   0.557
 1435TIP3   OH2 4257   3.123   5.989   0.640
 1435TIP3    H1 4258   3.117   6.083   0.669
 1435TIP3    H2 4259   3.050   5.949   0.692
 1436TIP3   OH2 4260   2.290   5.918   0.003
 1436TIP3    H1 4261   2.367   5.935   0.061
 1436TIP3    H2 4262   2.220   5.913   0.073
 1437TIP3   OH2 4263   3.899   5.330   0.784
 1437TIP3    H1 4264   3.817   5.340   0.734
 1437TIP3    H2 4265   3.917   5.234   0.772
 1438TIP3   OH2 4266   2.503   5.744   0.792
 1438TIP3    H1 4267   2.549   5.730   0.877
 1438TIP3    H2 4268   2.427   5.683   0.801
 1439TIP3   OH2 4269   2.896   4.585   0.577
 1439TIP3    H1 4270   2.811   4.544   0.555
 1439TIP3    H2 4271   2.868   4.646   0.647
 1440TIP3   OH2 4272   3.437   4.686   0.786
 1440TIP3    H1 4273   3.504   4.651   0.848
 1440TIP3    H2 4274   3.353   4.661   0.829
 1441TIP3   OH2 4275   3.670   5.113   0.701
 1441TIP3    H1 4276   3.618   5.111   0.785
 1441TIP3    H2 4277   3.645   5.200   0.664
 1442TIP3   OH2 4278   2.836   5.083   0.607
 1442TIP3    H1 4279   2.784   5.103   0.687
 1442TIP3    H2 4280   2.820   5.166   0.554
 1443TIP3   OH2 4281   2.713   4.974   0.124
 1443TIP3    H1 4282   2.621   4.950   0.147
 1443TIP3    H2 4283   2.721   4.932   0.036
 1444TIP3   OH2 4284   3.382   5.328   0.931
 1444TIP3    H1 4285   3.359   5.256   0.994
 1444TIP3    H2 4286   3.476   5.341   0.953
 1445TIP3   OH2 4287   3.349   5.069   0.098
 1445TIP3    H1 4288   3.287   5.094   0.029
 1445TIP3    H2 4289   3.408   5.008   0.050
 1446TIP3   OH2 4290   2.654   5.111   0.812
 1446TIP3    H1 4291   2.678   5.175   0.880
 1446TIP3    H2 4292   2.642   5.029   0.865
 1447TIP3   OH2 4293   2.246   4.631   0.396
 1447TIP3    H1 4294   2.319   4.665   0.452
 1447TIP3    H2 4295   2.291   4.596   0.318
 1448TIP3   OH2 4296   2.201   4.605  -0.074
 1448TIP3    H1 4297   2.250   4.634  -0.154
 1448TIP3    H2 4298   2.148   4.685  -0.054
 1449TIP3   OH2 4299   3.369   5.332   0.505
 1449TIP3    H1 4300   3.401   5.258   0.448
 1449TIP3    H2 4301   3.337   5.279   0.581
 1450TIP3   OH2 4302   3.050   4.791   0.198
 1450TIP3    H1 4303   2.971   4.786   0.255
 1450TIP3    H2 4304   3.121   4.769   0.260
 1451TIP3   OH2 4305   2.479   4.849   0.185
 1451TIP3    H1 4306   2.385   4.859   0.155
 1451TIP3    H2 4307   2.498   4.756   0.164
 1452TIP3   OH2 4308   2.757   4.868  -0.128
 1452TIP3    H1 4309   2.854   4.860  -0.113
 1452TIP3    H2 4310   2.751   4.950  -0.178
 1453TIP3   OH2 4311   3.540   4.862   0.383
 1453TIP3    H1 4312   3.509   4.873   0.476
 1453TIP3    H2 4313   3.476   4.797   0.351
 1454TIP3   OH2 4314   3.717   6.557   0.609
 1454TIP3    H1 4315   3.711   6.594   0.520
 1454TIP3    H2 4316   3.802   6.596   0.640
 1455TIP3   OH2 4317   2.665   5.665   1.020
 1455TIP3    H1 4318   2.743   5.695   1.070
 1455TIP3    H2 4319   2.598   5.665   1.092
 1456TIP3   OH2 4320   3.124   5.127   0.284
 1456TIP3    H1 4321   3.197   5.080   0.241
 1456TIP3    H2 4322   3.121   5.083   0.371
 1457TIP3   OH2 4323   2.645   4.599   0.161
 1457TIP3    H1 4324   2.600   4.532   0.217
 1457TIP3    H2 4325   2.703   4.542   0.110
 1458TIP3   OH2 4326   3.103   5.033   0.550
 1458TIP3    H1 4327   3.012   5.057   0.576
 1458TIP3    H2 4328   3.158   5.088   0.608
 1459TIP3   OH2 4329   3.744   5.651   0.270
 1459TIP3    H1 4330   3.722   5.723   0.208
 1459TIP3    H2 4331   3.661   5.599   0.267
 1460TIP3   OH2 4332   3.233   5.728   0.658
 1460TIP3    H1 4333   3.272   5.715   0.746
 1460TIP3    H2 4334   3.199   5.819   0.663
 1461TIP3   OH2 4335   2.536   5.441   0.345
 1461TIP3    H1 4336   2.572   5.403   0.263
 1461TIP3    H2 4337   2.565   5.377   0.412
 1462TIP3   OH2 4338   2.419   5.344   0.948
 1462TIP3    H1 4339   2.427   5.329   1.045
 1462TIP3    H2 4340   2.344   5.285   0.927
 1463TIP3   OH2 4341   3.142   5.468   0.971
 1463TIP3    H1 4342   3.078   5.409   0.929
 1463TIP3    H2 4343   3.227   5.430   0.940
 1464TIP3   OH2 4344   3.400   5.990   0.561
 1464TIP3    H1 4345   3.303   5.989   0.570
 1464TIP3    H2 4346   3.424   6.039   0.642
 1465TIP3   OH2 4347   4.030   5.915   0.542
 1465TIP3    H1 4348   3.932   5.907   0.540
 1465TIP3    H2 4349   4.051   5.891   0.449
 1466TIP3   OH2 4350   3.496   5.523   0.241
 1466TIP3    H1 4351   3.399   5.518   0.237
 1466TIP3    H2 4352   3.517   5.437   0.197
 1467TIP3   OH2 4353   1.121   4.209   7.570
 1467TIP3    H1 4354   1.148   4.269   7.497
 1467TIP3    H2 4355   1.035   4.247   7.593
 1468TIP3   OH2 4356   2.813   5.525  -0.005
 1468TIP3    H1 4357   2.739   5.588  -0.017
 1468TIP3    H2 4358   2.768   5.453   0.043
 1469TIP3   OH2 4359   2.906   6.075   0.429
 1469TIP3    H1 4360   2.944   6.149   0.377
 1469TIP3    H2 4361   2.985   6.040   0.473
 1470TIP3   OH2 4362   3.292   5.705   0.393
 1470TIP3    H1 4363   3.273   5.707   0.489
 1470TIP3    H2 4364   3.381   5.666   0.393
 1471TIP3   OH2 4365   3.517   6.247   0.441
 1471TIP3    H1 4366   3.447   6.183   0.464
 1471TIP3    H2 4367   3.486   6.276   0.354
 1472TIP3   OH2 4368   2.619   4.858   0.954
 1472TIP3    H1 4369   2.521   4.857   0.964
 1472TIP3    H2 4370   2.646   4.800   1.028
 1473TIP3   OH2 4371   2.349   5.932   0.586
 1473TIP3    H1 4372   2.406   5.868   0.631
 1473TIP3    H2 4373   2.345   6.003   0.652
 1474TIP3   OH2 4374   3.469   4.916   0.642
 1474TIP3    H1 4375   3.549   4.956   0.681
 1474TIP3    H2 4376   3.455   4.837   0.698
 1475TIP3   OH2 4377   3.022   4.835  -0.070
 1475TIP3    H1 4378   3.102   4.883  -0.096
 1475TIP3    H2 4379   3.034   4.825   0.028
 1476TIP3   OH2 4380   3.302   5.166   0.712
 1476TIP3    H1 4381   3.330   5.215   0.792
 1476TIP3    H2 4382   3.353   5.084   0.718
 1477TIP3   OH2 4383   3.181   4.575   0.029
 1477TIP3    H1 4384   3.176   4.633   0.107
 1477TIP3    H2 4385   3.263   4.609  -0.011
 1478TIP3   OH2 4386   2.681   4.564  -0.169
 1478TIP3    H1 4387   2.677   4.639  -0.109
 1478TIP3    H2 4388   2.778   4.551  -0.177
 1479TIP3   OH2 4389   3.935   5.063   0.704
 1479TIP3    H1 4390   3.837   5.065   0.707
 1479TIP3    H2 4391   3.947   5.018   0.619
 1480TIP3   OH2 4392   3.527   5.284   0.122
 1480TIP3    H1 4393   3.457   5.216   0.118
 1480TIP3    H2 4394   3.608   5.231   0.118
 1481TIP3   OH2 4395   2.245   4.737  -0.314
 1481TIP3    H1 4396   2.279   4.827  -0.329
 1481TIP3    H2 4397   2.153   4.744  -0.340
 1482TIP3   OH2 4398   2.632   4.486   0.559
 1482TIP3    H1 4399   2.606   4.449   0.472
 1482TIP3    H2 4400   2.628   4.407   0.616
 1483TIP3   OH2 4401   2.221   5.666  -0.076
 1483TIP3    H1 4402   2.126   5.682  -0.058
 1483TIP3    H2 4403   2.260   5.747  -0.035
 1484TIP3   OH2 4404   2.333   6.256   1.009
 1484TIP3    H1 4405   2.419   6.249   1.056
 1484TIP3    H2 4406   2.305   6.162   1.008
 1485TIP3   OH2 4407   2.809   6.203   1.060
 1485TIP3    H1 4408   2.904   6.187   1.061
 1485TIP3    H2 4409   2.781   6.141   0.989
 1486TIP3   OH2 4410   3.449   6.123   0.795
 1486TIP3    H1 4411   3.446   6.052   0.864
 1486TIP3    H2 4412   3.528   6.174   0.823
 1487TIP3   OH2 4413   2.459   5.658   1.210
 1487TIP3    H1 4414   2.475   5.562   1.218
 1487TIP3    H2 4415   2.372   5.660   1.165
 1488TIP3   OH2 4416   3.067   5.746   0.988
 1488TIP3    H1 4417   3.026   5.769   0.902
 1488TIP3    H2 4418   3.098   5.654   0.972
 1489TIP3   OH2 4419   3.556   5.754   0.595
 1489TIP3    H1 4420   3.637   5.789   0.553
 1489TIP3    H2 4421   3.493   5.828   0.578
 1490TIP3   OH2 4422   2.583   5.398   1.200
 1490TIP3    H1 4423   2.661   5.353   1.165
 1490TIP3    H2 4424   2.615   5.428   1.288
 1491TIP3   OH2 4425   2.920   5.277   0.862
 1491TIP3    H1 4426   2.839   5.333   0.859
 1491TIP3    H2 4427   2.970   5.311   0.784
 1492TIP3   OH2 4428   3.437   5.677   0.989
 1492TIP3    H1 4429   3.510   5.640   0.939
 1492TIP3    H2 4430   3.427   5.612   1.061
 1493TIP3   OH2 4431   3.043   5.067   0.980
 1493TIP3    H1 4432   3.042   4.990   0.919
 1493TIP3    H2 4433   2.998   5.135   0.925
 1494TIP3   OH2 4434   3.043   4.859   0.790
 1494TIP3    H1 4435   3.070   4.889   0.702
 1494TIP3    H2 4436   2.951   4.829   0.774
 1495TIP3   OH2 4437   3.063   5.386   0.666
 1495TIP3    H1 4438   3.150   5.401   0.626
 1495TIP3    H2 4439   3.007   5.450   0.617
 1496TIP3   OH2 4440   3.649   5.349   1.040
 1496TIP3    H1 4441   3.695   5.264   1.043
 1496TIP3    H2 4442   3.717   5.407   1.001
 1497TIP3   OH2 4443   3.688   5.606   0.779
 1497TIP3    H1 4444   3.631   5.662   0.721
 1497TIP3    H2 4445   3.777   5.628   0.742
 1498TIP3   OH2 4446   2.924   5.164   1.219
 1498TIP3    H1 4447   2.855   5.096   1.234
 1498TIP3    H2 4448   2.953   5.143   1.129
 1499TIP3   OH2 4449   3.179   4.623   0.868
 1499TIP3    H1 4450   3.128   4.702   0.840
 1499TIP3    H2 4451   3.110   4.554   0.859
 1500TIP3   OH2 4452   3.300   5.110   1.075
 1500TIP3    H1 4453   3.278   5.094   1.169
 1500TIP3    H2 4454   3.212   5.089   1.036
 1501TIP3   OH2 4455   3.540   5.070   0.933
 1501TIP3    H1 4456   3.464   5.067   0.995
 1501TIP3    H2 4457   3.614   5.038   0.988
 1502TIP3   OH2 4458   3.772   5.012   1.081
 1502TIP3    H1 4459   3.785   4.916   1.091
 1502TIP3    H2 4460   3.768   5.043   1.173
 1503TIP3   OH2 4461   2.758   4.947   1.274
 1503TIP3    H1 4462   2.759   4.855   1.240
 1503TIP3    H2 4463   2.796   4.934   1.363
 1504TIP3   OH2 4464   3.264   4.620   1.127
 1504TIP3    H1 4465   3.329   4.547   1.116
 1504TIP3    H2 4466   3.227   4.622   1.036
 1505TIP3   OH2 4467   3.336   4.835   1.279
 1505TIP3    H1 4468   3.315   4.763   1.216
 1505TIP3    H2 4469   3.257   4.893   1.271
 1506TIP3   OH2 4470   2.103   5.904   0.193
 1506TIP3    H1 4471   2.090   5.835   0.260
 1506TIP3    H2 4472   2.123   5.980   0.251
 1507TIP3   OH2 4473   3.890   6.005   0.852
 1507TIP3    H1 4474   3.820   6.018   0.919
 1507TIP3    H2 4475   3.935   6.092   0.854
 1508TIP3   OH2 4476   3.723   6.084   0.334
 1508TIP3    H1 4477   3.644   6.126   0.372
 1508TIP3    H2 4478   3.685   6.029   0.262
 1509TIP3   OH2 4479   2.272   5.310   0.568
 1509TIP3    H1 4480   2.269   5.278   0.475
 1509TIP3    H2 4481   2.369   5.313   0.582
 1510TIP3   OH2 4482   3.937   5.669   0.679
 1510TIP3    H1 4483   4.005   5.599   0.666
 1510TIP3    H2 4484   3.961   5.733   0.610
 1511TIP3   OH2 4485   4.114   5.464   0.686
 1511TIP3    H1 4486   4.040   5.414   0.726
 1511TIP3    H2 4487   4.188   5.402   0.701
 1512TIP3   OH2 4488   3.839   5.089   0.250
 1512TIP3    H1 4489   3.824   5.148   0.173
 1512TIP3    H2 4490   3.843   5.155   0.323
 1513TIP3   OH2 4491   3.868   5.274   0.451
 1513TIP3    H1 4492   3.785   5.302   0.496
 1513TIP3    H2 4493   3.905   5.362   0.426
 1514TIP3   OH2 4494   2.491   5.000   1.239
 1514TIP3    H1 4495   2.588   4.995   1.244
 1514TIP3    H2 4496   2.467   4.913   1.276
 1515TIP3   OH2 4497   4.328   4.875   0.991
 1515TIP3    H1 4498   4.389   4.811   0.948
 1515TIP3    H2 4499   4.293   4.924   0.914
 1516TIP3   OH2 4500   2.452   4.697   0.568
 1516TIP3    H1 4501   2.512   4.620   0.576
 1516TIP3    H2 4502   2.516   4.769   0.559
 1517TIP3   OH2 4503   2.250   4.968   0.638
 1517TIP3    H1 4504   2.302   4.968   0.556
 1517TIP3    H2 4505   2.274   5.054   0.675
 1518TIP3   OH2 4506   4.190   5.001   0.795
 1518TIP3    H1 4507   4.106   5.049   0.810
 1518TIP3    H2 4508   4.157   4.929   0.739
 1519TIP3   OH2 4509   2.243   4.467   0.155
 1519TIP3    H1 4510   2.152   4.457   0.187
 1519TIP3    H2 4511   2.230   4.524   0.076
 1520TIP3   OH2 4512   2.454   4.559   0.959
 1520TIP3    H1 4513   2.400   4.553   1.040
 1520TIP3    H2 4514   2.390   4.594   0.895
 1521TIP3   OH2 4515   2.505   5.983   1.032
 1521TIP3    H1 4516   2.409   5.968   1.021
 1521TIP3    H2 4517   2.515   5.966   1.127
 1522TIP3   OH2 4518   2.685   6.019   0.582
 1522TIP3    H1 4519   2.632   6.092   0.544
 1522TIP3    H2 4520   2.768   6.034   0.534
 1523TIP3   OH2 4521   3.117   6.257   0.717
 1523TIP3    H1 4522   3.161   6.255   0.805
 1523TIP3    H2 4523   3.178   6.315   0.667
 1524TIP3   OH2 4524   3.291   6.425   0.584
 1524TIP3    H1 4525   3.356   6.366   0.542
 1524TIP3    H2 4526   3.348   6.477   0.644
 1525TIP3   OH2 4527   4.094   4.766   0.678
 1525TIP3    H1 4528   4.005   4.753   0.641
 1525TIP3    H2 4529   4.131   4.675   0.670
 1526TIP3   OH2 4530   2.359   6.272   0.606
 1526TIP3    H1 4531   2.270   6.308   0.588
 1526TIP3    H2 4532   2.373   6.308   0.694
 1527TIP3   OH2 4533   2.595   6.250   0.464
 1527TIP3    H1 4534   2.507   6.262   0.507
 1527TIP3    H2 4535   2.576   6.281   0.373
 1528TIP3   OH2 4536   3.006   6.272   0.270
 1528TIP3    H1 4537   2.936   6.277   0.201
 1528TIP3    H2 4538   3.008   6.364   0.302
 1529TIP3   OH2 4539   3.258   6.194   0.351
 1529TIP3    H1 4540   3.168   6.223   0.327
 1529TIP3    H2 4541   3.304   6.206   0.265
 1530TIP3   OH2 4542   2.278   6.067   0.353
 1530TIP3    H1 4543   2.305   6.038   0.442
 1530TIP3    H2 4544   2.344   6.018   0.300
 1531TIP3   OH2 4545   2.465   5.938   0.206
 1531TIP3    H1 4546   2.478   5.856   0.260
 1531TIP3    H2 4547   2.556   5.975   0.209
 1532TIP3   OH2 4548   2.726   6.018   0.222
 1532TIP3    H1 4549   2.756   5.925   0.217
 1532TIP3    H2 4550   2.780   6.048   0.298
 1533TIP3   OH2 4551   3.288   4.668   0.284
 1533TIP3    H1 4552   3.250   4.603   0.347
 1533TIP3    H2 4553   3.372   4.626   0.259
 1534TIP3   OH2 4554   3.809   4.586   0.219
 1534TIP3    H1 4555   3.825   4.615   0.127
 1534TIP3    H2 4556   3.712   4.590   0.222
 1535TIP3   OH2 4557   2.547   4.390   0.310
 1535TIP3    H1 4558   2.455   4.356   0.315
 1535TIP3    H2 4559   2.597   4.305   0.309
 1536TIP3   OH2 4560   2.310   4.274  -0.041
 1536TIP3    H1 4561   2.364   4.321  -0.109
 1536TIP3    H2 4562   2.306   4.339   0.031
 1537TIP3   OH2 4563   2.991   4.423   0.203
 1537TIP3    H1 4564   3.057   4.469   0.149
 1537TIP3    H2 4565   3.025   4.445   0.293
 1538TIP3   OH2 4566   3.535   4.574   0.173
 1538TIP3    H1 4567   3.557   4.530   0.090
 1538TIP3    H2 4568   3.521   4.496   0.232
 1539TIP3   OH2 4569   2.464   4.403  -0.229
 1539TIP3    H1 4570   2.486   4.375  -0.319
 1539TIP3    H2 4571   2.539   4.461  -0.208
 1540TIP3   OH2 4572   2.957   4.582  -0.148
 1540TIP3    H1 4573   3.023   4.552  -0.084
 1540TIP3    H2 4574   2.970   4.678  -0.140
 1541TIP3   OH2 4575   2.754   4.676   1.205
 1541TIP3    H1 4576   2.719   4.603   1.260
 1541TIP3    H2 4577   2.849   4.673   1.231
 1542TIP3   OH2 4578   3.008   4.674   1.321
 1542TIP3    H1 4579   3.090   4.649   1.276
 1542TIP3    H2 4580   2.997   4.602   1.386
 1543TIP3   OH2 4581   3.836   4.741   1.106
 1543TIP3    H1 4582   3.852   4.709   1.197
 1543TIP3    H2 4583   3.925   4.734   1.067
 1544TIP3   OH2 4584   3.761   6.283   0.606
 1544TIP3    H1 4585   3.683   6.259   0.553
 1544TIP3    H2 4586   3.750   6.381   0.609
 1545TIP3   OH2 4587   4.614   5.010   0.267
 1545TIP3    H1 4588   4.600   5.063   0.185
 1545TIP3    H2 4589   4.544   5.045   0.325
 1546TIP3   OH2 4590   4.475   5.631   0.432
 1546TIP3    H1 4591   4.493   5.727   0.435
 1546TIP3    H2 4592   4.377   5.632   0.424
 1547TIP3   OH2 4593   4.098   5.810   0.291
 1547TIP3    H1 4594   4.113   5.770   0.204
 1547TIP3    H2 4595   4.137   5.741   0.348
 1548TIP3   OH2 4596   4.298   6.005   0.294
 1548TIP3    H1 4597   4.362   5.982   0.363
 1548TIP3    H2 4598   4.233   5.934   0.299
 1549TIP3   OH2 4599   5.234   4.866   0.411
 1549TIP3    H1 4600   5.287   4.915   0.346
 1549TIP3    H2 4601   5.143   4.876   0.378
 1550TIP3   OH2 4602   5.208   5.582   0.455
 1550TIP3    H1 4603   5.175   5.508   0.511
 1550TIP3    H2 4604   5.298   5.594   0.492
 1551TIP3   OH2 4605   4.440   5.373   0.331
 1551TIP3    H1 4606   4.465   5.463   0.359
 1551TIP3    H2 4607   4.453   5.320   0.411
 1552TIP3   OH2 4608   4.463   5.907   0.515
 1552TIP3    H1 4609   4.535   5.950   0.565
 1552TIP3    H2 4610   4.389   5.918   0.578
 1553TIP3   OH2 4611   4.200   5.625   0.462
 1553TIP3    H1 4612   4.219   5.597   0.554
 1553TIP3    H2 4613   4.127   5.564   0.439
 1554TIP3   OH2 4614   4.892   5.704   0.506
 1554TIP3    H1 4615   4.869   5.626   0.453
 1554TIP3    H2 4616   4.967   5.739   0.453
 1555TIP3   OH2 4617   4.426   5.104   0.461
 1555TIP3    H1 4618   4.329   5.114   0.458
 1555TIP3    H2 4619   4.438   5.038   0.530
 1556TIP3   OH2 4620   4.113   6.487   0.530
 1556TIP3    H1 4621   4.198   6.487   0.578
 1556TIP3    H2 4622   4.100   6.393   0.512
 1557TIP3   OH2 4623   4.645   6.426   0.550
 1557TIP3    H1 4624   4.741   6.407   0.554
 1557TIP3    H2 4625   4.613   6.340   0.519
 1558TIP3   OH2 4626   4.257   5.911   0.703
 1558TIP3    H1 4627   4.270   5.815   0.710
 1558TIP3    H2 4628   4.172   5.916   0.654
 1559TIP3   OH2 4629   4.821   5.986   0.481
 1559TIP3    H1 4630   4.746   5.979   0.418
 1559TIP3    H2 4631   4.848   5.893   0.491
 1560TIP3   OH2 4632   4.371   5.647   0.698
 1560TIP3    H1 4633   4.444   5.638   0.634
 1560TIP3    H2 4634   4.416   5.679   0.779
 1561TIP3   OH2 4635   4.831   5.335   0.449
 1561TIP3    H1 4636   4.788   5.249   0.439
 1561TIP3    H2 4637   4.805   5.381   0.368
 1562TIP3   OH2 4638   5.455   5.599   0.566
 1562TIP3    H1 4639   5.491   5.523   0.614
 1562TIP3    H2 4640   5.515   5.600   0.487
 1563TIP3   OH2 4641   4.724   5.421   0.710
 1563TIP3    H1 4642   4.650   5.357   0.722
 1563TIP3    H2 4643   4.744   5.411   0.615
 1564TIP3   OH2 4644   4.967   4.892   0.342
 1564TIP3    H1 4645   4.911   4.968   0.322
 1564TIP3    H2 4646   4.901   4.820   0.341
 1565TIP3   OH2 4647   5.094   5.361   0.569
 1565TIP3    H1 4648   5.067   5.340   0.661
 1565TIP3    H2 4649   5.008   5.356   0.525
 1566TIP3   OH2 4650   5.348   5.314   0.436
 1566TIP3    H1 4651   5.270   5.306   0.494
 1566TIP3    H2 4652   5.421   5.278   0.489
 1567TIP3   OH2 4653   5.599   5.269   0.577
 1567TIP3    H1 4654   5.593   5.173   0.594
 1567TIP3    H2 4655   5.580   5.308   0.664
 1568TIP3   OH2 4656   4.553   5.204   0.759
 1568TIP3    H1 4657   4.551   5.112   0.727
 1568TIP3    H2 4658   4.590   5.191   0.849
 1569TIP3   OH2 4659   5.023   4.873   0.630
 1569TIP3    H1 4660   5.088   4.801   0.630
 1569TIP3    H2 4661   5.002   4.879   0.535
 1570TIP3   OH2 4662   5.129   5.092   0.765
 1570TIP3    H1 4663   5.097   5.019   0.706
 1570TIP3    H2 4664   5.052   5.153   0.763
 1571TIP3   OH2 4665   4.284   5.252   0.719
 1571TIP3    H1 4666   4.381   5.251   0.725
 1571TIP3    H2 4667   4.263   5.166   0.760
 1572TIP3   OH2 4668   4.263   4.805   0.449
 1572TIP3    H1 4669   4.205   4.803   0.527
 1572TIP3    H2 4670   4.203   4.845   0.383
 1573TIP3   OH2 4671   4.299   6.247   0.521
 1573TIP3    H1 4672   4.209   6.215   0.505
 1573TIP3    H2 4673   4.303   6.247   0.617
 1574TIP3   OH2 4674   4.549   4.927   0.697
 1574TIP3    H1 4675   4.516   4.857   0.755
 1574TIP3    H2 4676   4.644   4.928   0.722
 1575TIP3   OH2 4677   4.805   4.928   0.806
 1575TIP3    H1 4678   4.887   4.901   0.758
 1575TIP3    H2 4679   4.797   4.856   0.871
 1576TIP3   OH2 4680   5.626   5.000   0.626
 1576TIP3    H1 4681   5.636   4.961   0.716
 1576TIP3    H2 4682   5.718   5.004   0.599
 1577TIP3   OH2 4683   1.971   6.688   0.641
 1577TIP3    H1 4684   1.937   6.724   0.558
 1577TIP3    H2 4685   1.986   6.765   0.696
 1578TIP3   OH2 4686   1.749   6.894   0.980
 1578TIP3    H1 4687   1.667   6.922   0.938
 1578TIP3    H2 4688   1.751   6.799   0.958
 1579TIP3   OH2 4689   1.254   6.213   0.962
 1579TIP3    H1 4690   1.347   6.229   0.988
 1579TIP3    H2 4691   1.214   6.199   1.047
 1580TIP3   OH2 4692   1.740   6.644   0.841
 1580TIP3    H1 4693   1.690   6.561   0.853
 1580TIP3    H2 4694   1.800   6.623   0.768
 1581TIP3   OH2 4695   1.500   6.853   1.191
 1581TIP3    H1 4696   1.568   6.786   1.194
 1581TIP3    H2 4697   1.549   6.934   1.209
 1582TIP3   OH2 4698   1.402   6.555   1.092
 1582TIP3    H1 4699   1.376   6.646   1.072
 1582TIP3    H2 4700   1.483   6.566   1.143
 1583TIP3   OH2 4701   1.650   6.575   1.246
 1583TIP3    H1 4702   1.650   6.477   1.255
 1583TIP3    H2 4703   1.633   6.604   1.338
 1584TIP3   OH2 4704   1.111   6.160   1.314
 1584TIP3    H1 4705   1.173   6.091   1.283
 1584TIP3    H2 4706   1.071   6.194   1.232
 1585TIP3   OH2 4707   1.173   6.397   1.431
 1585TIP3    H1 4708   1.183   6.307   1.395
 1585TIP3    H2 4709   1.091   6.422   1.383
 1586TIP3   OH2 4710   1.967   7.027   0.886
 1586TIP3    H1 4711   1.882   6.989   0.916
 1586TIP3    H2 4712   2.024   6.947   0.889
 1587TIP3   OH2 4713   2.172   6.435   1.139
 1587TIP3    H1 4714   2.231   6.368   1.098
 1587TIP3    H2 4715   2.139   6.481   1.060
 1588TIP3   OH2 4716   2.032   6.564   0.945
 1588TIP3    H1 4717   1.960   6.603   0.998
 1588TIP3    H2 4718   1.985   6.498   0.890
 1589TIP3   OH2 4719   1.925   6.309   0.842
 1589TIP3    H1 4720   1.839   6.281   0.804
 1589TIP3    H2 4721   1.976   6.227   0.826
 1590TIP3   OH2 4722   0.893   6.207   1.514
 1590TIP3    H1 4723   0.975   6.184   1.467
 1590TIP3    H2 4724   0.883   6.128   1.570
 1591TIP3   OH2 4725   1.673   6.296   1.260
 1591TIP3    H1 4726   1.690   6.260   1.350
 1591TIP3    H2 4727   1.761   6.285   1.218
 1592TIP3   OH2 4728   2.423   6.572   0.391
 1592TIP3    H1 4729   2.389   6.620   0.312
 1592TIP3    H2 4730   2.355   6.594   0.458
 1593TIP3   OH2 4731   2.386   6.703   0.147
 1593TIP3    H1 4732   2.417   6.790   0.182
 1593TIP3    H2 4733   2.414   6.711   0.055
 1594TIP3   OH2 4734   2.781   6.277   0.108
 1594TIP3    H1 4735   2.742   6.190   0.127
 1594TIP3    H2 4736   2.705   6.336   0.123
 1595TIP3   OH2 4737   2.534   6.380   0.226
 1595TIP3    H1 4738   2.447   6.346   0.196
 1595TIP3    H2 4739   2.504   6.453   0.285
 1596TIP3   OH2 4740   3.078   6.500   0.419
 1596TIP3    H1 4741   3.148   6.472   0.482
 1596TIP3    H2 4742   2.996   6.472   0.465
 1597TIP3   OH2 4743   3.318   6.944   0.344
 1597TIP3    H1 4744   3.268   6.914   0.423
 1597TIP3    H2 4745   3.363   7.022   0.380
 1598TIP3   OH2 4746   2.447   6.948   0.237
 1598TIP3    H1 4747   2.395   6.947   0.320
 1598TIP3    H2 4748   2.446   7.043   0.215
 1599TIP3   OH2 4749   3.036   7.118   0.703
 1599TIP3    H1 4750   3.021   7.025   0.678
 1599TIP3    H2 4751   2.953   7.159   0.674
 1600TIP3   OH2 4752   2.317   6.910   0.474
 1600TIP3    H1 4753   2.309   6.967   0.551
 1600TIP3    H2 4754   2.295   6.822   0.512
 1601TIP3   OH2 4755   2.698   6.844   0.284
 1601TIP3    H1 4756   2.610   6.879   0.258
 1601TIP3    H2 4757   2.753   6.921   0.263
 1602TIP3   OH2 4758   2.250   6.665   0.593
 1602TIP3    H1 4759   2.153   6.651   0.600
 1602TIP3    H2 4760   2.281   6.607   0.665
 1603TIP3   OH2 4761   3.082   6.737   0.285
 1603TIP3    H1 4762   3.154   6.785   0.328
 1603TIP3    H2 4763   3.075   6.657   0.342
 1604TIP3   OH2 4764   2.927   6.989   0.433
 1604TIP3    H1 4765   2.918   7.002   0.337
 1604TIP3    H2 4766   2.974   6.906   0.438
 1605TIP3   OH2 4767   2.281   6.282   0.176
 1605TIP3    H1 4768   2.248   6.241   0.093
 1605TIP3    H2 4769   2.275   6.208   0.239
 1606TIP3   OH2 4770   2.672   6.867   0.625
 1606TIP3    H1 4771   2.665   6.775   0.590
 1606TIP3    H2 4772   2.678   6.917   0.543
 1607TIP3   OH2 4773   2.675   6.642   0.471
 1607TIP3    H1 4774   2.691   6.706   0.399
 1607TIP3    H2 4775   2.583   6.613   0.449
 1608TIP3   OH2 4776   3.357   7.157   0.621
 1608TIP3    H1 4777   3.361   7.073   0.667
 1608TIP3    H2 4778   3.381   7.220   0.692
 1609TIP3   OH2 4779   2.535   6.996   0.828
 1609TIP3    H1 4780   2.473   6.926   0.856
 1609TIP3    H2 4781   2.577   6.955   0.749
 1610TIP3   OH2 4782   2.824   6.413   0.500
 1610TIP3    H1 4783   2.768   6.492   0.487
 1610TIP3    H2 4784   2.758   6.342   0.486
 1611TIP3   OH2 4785   2.934   6.859   0.724
 1611TIP3    H1 4786   2.900   6.893   0.809
 1611TIP3    H2 4787   2.851   6.859   0.672
 1612TIP3   OH2 4788   3.185   6.846   0.562
 1612TIP3    H1 4789   3.112   6.838   0.626
 1612TIP3    H2 4790   3.263   6.832   0.621
 1613TIP3   OH2 4791   3.418   6.825   0.719
 1613TIP3    H1 4792   3.432   6.729   0.738
 1613TIP3    H2 4793   3.409   6.863   0.808
 1614TIP3   OH2 4794   2.400   6.764   0.907
 1614TIP3    H1 4795   2.396   6.671   0.876
 1614TIP3    H2 4796   2.435   6.751   0.997
 1615TIP3   OH2 4797   2.908   6.434   0.759
 1615TIP3    H1 4798   2.973   6.361   0.753
 1615TIP3    H2 4799   2.870   6.429   0.669
 1616TIP3   OH2 4800   2.962   6.645   0.922
 1616TIP3    H1 4801   2.952   6.567   0.862
 1616TIP3    H2 4802   2.913   6.711   0.872
 1617TIP3   OH2 4803   2.132   6.813   0.876
 1617TIP3    H1 4804   2.229   6.804   0.878
 1617TIP3    H2 4805   2.104   6.721   0.898
 1618TIP3   OH2 4806   3.962   6.683   0.631
 1618TIP3    H1 4807   4.020   6.615   0.590
 1618TIP3    H2 4808   3.936   6.736   0.553
 1619TIP3   OH2 4809   2.089   6.438   0.325
 1619TIP3    H1 4810   2.159   6.382   0.285
 1619TIP3    H2 4811   2.099   6.521   0.275
 1620TIP3   OH2 4812   3.839   6.843   0.444
 1620TIP3    H1 4813   3.751   6.882   0.453
 1620TIP3    H2 4814   3.829   6.787   0.365
 1621TIP3   OH2 4815   2.116   6.389   0.606
 1621TIP3    H1 4816   2.033   6.376   0.653
 1621TIP3    H2 4817   2.086   6.396   0.513
 1622TIP3   OH2 4818   2.393   6.493   0.848
 1622TIP3    H1 4819   2.353   6.418   0.896
 1622TIP3    H2 4820   2.486   6.488   0.878
 1623TIP3   OH2 4821   2.646   6.491   0.963
 1623TIP3    H1 4822   2.731   6.466   0.924
 1623TIP3    H2 4823   2.632   6.419   1.027
 1624TIP3   OH2 4824   3.476   6.552   0.749
 1624TIP3    H1 4825   3.492   6.520   0.840
 1624TIP3    H2 4826   3.566   6.545   0.710
 1625TIP3   OH2 4827   1.426   0.201   3.847
 1625TIP3    H1 4828   1.427   0.137   3.919
 1625TIP3    H2 4829   1.458   0.282   3.892
 1626TIP3   OH2 4830   1.076   0.655   3.865
 1626TIP3    H1 4831   1.118   0.585   3.811
 1626TIP3    H2 4832   1.065   0.610   3.949
 1627TIP3   OH2 4833   2.037  -0.378   4.404
 1627TIP3    H1 4834   1.979  -0.314   4.357
 1627TIP3    H2 4835   2.112  -0.322   4.428
 1628TIP3   OH2 4836   1.488   0.437   3.991
 1628TIP3    H1 4837   1.400   0.433   4.034
 1628TIP3    H2 4838   1.486   0.528   3.954
 1629TIP3   OH2 4839   1.201   0.478   3.688
 1629TIP3    H1 4840   1.245   0.393   3.668
 1629TIP3    H2 4841   1.271   0.539   3.656
 1630TIP3   OH2 4842   1.328   0.250   3.596
 1630TIP3    H1 4843   1.340   0.166   3.551
 1630TIP3    H2 4844   1.371   0.231   3.683
 1631TIP3   OH2 4845   1.911  -0.033   4.172
 1631TIP3    H1 4846   1.848   0.035   4.204
 1631TIP3    H2 4847   1.948   0.013   4.094
 1632TIP3   OH2 4848   1.630  -0.092   4.484
 1632TIP3    H1 4849   1.631  -0.024   4.556
 1632TIP3    H2 4850   1.601  -0.035   4.411
 1633TIP3   OH2 4851   1.250   0.434   4.120
 1633TIP3    H1 4852   1.237   0.511   4.179
 1633TIP3    H2 4853   1.233   0.358   4.180
 1634TIP3   OH2 4854   0.935   0.385   3.672
 1634TIP3    H1 4855   1.030   0.396   3.686
 1634TIP3    H2 4856   0.906   0.475   3.655
 1635TIP3   OH2 4857   1.950   0.684   4.390
 1635TIP3    H1 4858   1.934   0.588   4.390
 1635TIP3    H2 4859   1.871   0.714   4.441
 1636TIP3   OH2 4860   1.048   0.476   4.553
 1636TIP3    H1 4861   1.034   0.571   4.573
 1636TIP3    H2 4862   0.961   0.435   4.569
 1637TIP3   OH2 4863   1.041   0.635   3.488
 1637TIP3    H1 4864   1.030   0.582   3.407
 1637TIP3    H2 4865   1.108   0.586   3.538
 1638TIP3   OH2 4866   1.859  -0.146   4.668
 1638TIP3    H1 4867   1.776  -0.109   4.635
 1638TIP3    H2 4868   1.844  -0.242   4.655
 1639TIP3   OH2 4869   1.654   1.039   4.518
 1639TIP3    H1 4870   1.646   1.055   4.423
 1639TIP3    H2 4871   1.739   1.083   4.540
 1640TIP3   OH2 4872   1.667   0.119   4.195
 1640TIP3    H1 4873   1.708   0.182   4.131
 1640TIP3    H2 4874   1.590   0.088   4.145
 1641TIP3   OH2 4875   1.199   0.249   4.555
 1641TIP3    H1 4876   1.174   0.235   4.648
 1641TIP3    H2 4877   1.142   0.327   4.536
 1642TIP3   OH2 4878   1.356   0.499   4.436
 1642TIP3    H1 4879   1.263   0.477   4.450
 1642TIP3    H2 4880   1.378   0.541   4.523
 1643TIP3   OH2 4881   1.456   0.354   3.249
 1643TIP3    H1 4882   1.433   0.311   3.332
 1643TIP3    H2 4883   1.510   0.287   3.204
 1644TIP3   OH2 4884   1.438  -0.015   4.091
 1644TIP3    H1 4885   1.396  -0.064   4.163
 1644TIP3    H2 4886   1.471  -0.088   4.035
 1645TIP3   OH2 4887   0.892   0.520   4.265
 1645TIP3    H1 4888   0.930   0.608   4.248
 1645TIP3    H2 4889   0.890   0.516   4.362
 1646TIP3   OH2 4890   1.247   0.207   4.281
 1646TIP3    H1 4891   1.228   0.209   4.377
 1646TIP3    H2 4892   1.333   0.164   4.279
 1647TIP3   OH2 4893   1.464   0.743   4.354
 1647TIP3    H1 4894   1.412   0.662   4.375
 1647TIP3    H2 4895   1.465   0.738   4.258
 1648TIP3   OH2 4896   1.549   0.577   2.992
 1648TIP3    H1 4897   1.595   0.643   2.937
 1648TIP3    H2 4898   1.467   0.625   3.015
 1649TIP3   OH2 4899   1.812  -0.405   4.575
 1649TIP3    H1 4900   1.752  -0.367   4.509
 1649TIP3    H2 4901   1.897  -0.399   4.529
 1650TIP3   OH2 4902   1.515  -0.259   3.983
 1650TIP3    H1 4903   1.449  -0.314   4.029
 1650TIP3    H2 4904   1.599  -0.295   4.021
 1651TIP3   OH2 4905   1.502   0.705   3.910
 1651TIP3    H1 4906   1.453   0.769   3.856
 1651TIP3    H2 4907   1.592   0.744   3.904
 1652TIP3   OH2 4908   1.400   0.618   4.673
 1652TIP3    H1 4909   1.393   0.554   4.747
 1652TIP3    H2 4910   1.473   0.675   4.705
 1653TIP3   OH2 4911   1.508   0.233   4.465
 1653TIP3    H1 4912   1.574   0.255   4.398
 1653TIP3    H2 4913   1.450   0.311   4.465
 1654TIP3   OH2 4914   1.406   0.198   4.908
 1654TIP3    H1 4915   1.496   0.178   4.879
 1654TIP3    H2 4916   1.373   0.108   4.927
 1655TIP3   OH2 4917   1.672   0.120   4.653
 1655TIP3    H1 4918   1.601   0.168   4.605
 1655TIP3    H2 4919   1.750   0.169   4.620
 1656TIP3   OH2 4920   1.751   0.843   3.888
 1656TIP3    H1 4921   1.781   0.837   3.981
 1656TIP3    H2 4922   1.831   0.826   3.837
 1657TIP3   OH2 4923   1.807   0.812   4.155
 1657TIP3    H1 4924   1.743   0.738   4.160
 1657TIP3    H2 4925   1.868   0.785   4.226
 1658TIP3   OH2 4926   1.833   0.493   4.757
 1658TIP3    H1 4927   1.762   0.508   4.822
 1658TIP3    H2 4928   1.876   0.580   4.753
 1659TIP3   OH2 4929   1.637   0.060   3.382
 1659TIP3    H1 4930   1.711   0.112   3.348
 1659TIP3    H2 4931   1.677   0.012   3.457
 1660TIP3   OH2 4932   1.780  -0.122   3.545
 1660TIP3    H1 4933   1.716  -0.165   3.607
 1660TIP3    H2 4934   1.848  -0.091   3.608
 1661TIP3   OH2 4935   1.802   0.251   3.990
 1661TIP3    H1 4936   1.876   0.194   3.966
 1661TIP3    H2 4937   1.807   0.322   3.924
 1662TIP3   OH2 4938   1.653   0.588   4.177
 1662TIP3    H1 4939   1.615   0.547   4.255
 1662TIP3    H2 4940   1.627   0.526   4.107
 1663TIP3   OH2 4941   1.622  -0.261   3.721
 1663TIP3    H1 4942   1.611  -0.356   3.710
 1663TIP3    H2 4943   1.581  -0.246   3.809
 1664TIP3   OH2 4944   2.107  -0.027   4.687
 1664TIP3    H1 4945   2.010  -0.043   4.682
 1664TIP3    H2 4946   2.129  -0.035   4.594
 1665TIP3   OH2 4947   1.743  -0.356   4.096
 1665TIP3    H1 4948   1.832  -0.356   4.056
 1665TIP3    H2 4949   1.763  -0.316   4.182
 1666TIP3   OH2 4950   1.818  -0.229   4.331
 1666TIP3    H1 4951   1.756  -0.175   4.385
 1666TIP3    H2 4952   1.855  -0.157   4.274
 1667TIP3   OH2 4953   1.354   0.653   3.549
 1667TIP3    H1 4954   1.396   0.645   3.461
 1667TIP3    H2 4955   1.400   0.729   3.586
 1668TIP3   OH2 4956   1.052   0.749   4.610
 1668TIP3    H1 4957   1.096   0.743   4.698
 1668TIP3    H2 4958   1.120   0.799   4.559
 1669TIP3   OH2 4959   1.240   0.900   4.473
 1669TIP3    H1 4960   1.309   0.851   4.426
 1669TIP3    H2 4961   1.294   0.954   4.535
 1670TIP3   OH2 4962   0.956   0.773   4.153
 1670TIP3    H1 4963   0.888   0.791   4.085
 1670TIP3    H2 4964   0.967   0.861   4.193
 1671TIP3   OH2 4965   1.219   0.706   4.194
 1671TIP3    H1 4966   1.123   0.726   4.193
 1671TIP3    H2 4967   1.249   0.752   4.115
 1672TIP3   OH2 4968   0.687   0.548   4.091
 1672TIP3    H1 4969   0.721   0.478   4.035
 1672TIP3    H2 4970   0.753   0.545   4.165
 1673TIP3   OH2 4971   1.482   0.629   3.302
 1673TIP3    H1 4972   1.477   0.533   3.279
 1673TIP3    H2 4973   1.443   0.668   3.221
 1674TIP3   OH2 4974   1.706   0.771   4.496
 1674TIP3    H1 4975   1.625   0.748   4.447
 1674TIP3    H2 4976   1.689   0.864   4.516
 1675TIP3   OH2 4977   2.280   0.053   4.010
 1675TIP3    H1 4978   2.321  -0.022   4.057
 1675TIP3    H2 4979   2.358   0.090   3.964
 1676TIP3   OH2 4980   3.207   0.434   3.323
 1676TIP3    H1 4981   3.138   0.383   3.370
 1676TIP3    H2 4982   3.238   0.496   3.390
 1677TIP3   OH2 4983   2.252   0.454   3.728
 1677TIP3    H1 4984   2.244   0.356   3.729
 1677TIP3    H2 4985   2.348   0.464   3.714
 1678TIP3   OH2 4986   1.948  -0.354   3.513
 1678TIP3    H1 4987   1.883  -0.282   3.519
 1678TIP3    H2 4988   1.895  -0.430   3.482
 1679TIP3   OH2 4989   2.012  -0.061   3.691
 1679TIP3    H1 4990   2.060  -0.140   3.724
 1679TIP3    H2 4991   2.078  -0.018   3.636
 1680TIP3   OH2 4992   2.878   0.909   3.346
 1680TIP3    H1 4993   2.914   0.839   3.287
 1680TIP3    H2 4994   2.866   0.861   3.428
 1681TIP3   OH2 4995   2.771   0.370   3.684
 1681TIP3    H1 4996   2.814   0.311   3.618
 1681TIP3    H2 4997   2.853   0.417   3.711
 1682TIP3   OH2 4998   3.169  -0.142   3.743
 1682TIP3    H1 4999   3.220  -0.224   3.751
 1682TIP3    H2 5000   3.143  -0.144   3.648
 1683TIP3   OH2 5001   2.523  -0.442   3.712
 1683TIP3    H1 5002   2.501  -0.374   3.644
 1683TIP3    H2 5003   2.516  -0.523   3.657
 1684TIP3   OH2 5004   3.201  -0.346   3.315
 1684TIP3    H1 5005   3.285  -0.353   3.364
 1684TIP3    H2 5006   3.229  -0.349   3.222
 1685TIP3   OH2 5007   2.158  -0.270   3.798
 1685TIP3    H1 5008   2.235  -0.295   3.854
 1685TIP3    H2 5009   2.178  -0.323   3.719
 1686TIP3   OH2 5010   2.590  -0.070   3.602
 1686TIP3    H1 5011   2.686  -0.088   3.614
 1686TIP3    H2 5012   2.561  -0.153   3.559
 1687TIP3   OH2 5013   3.850  -0.108   3.850
 1687TIP3    H1 5014   3.775  -0.052   3.822
 1687TIP3    H2 5015   3.890  -0.052   3.918
 1688TIP3   OH2 5016   2.893   0.410   3.093
 1688TIP3    H1 5017   2.843   0.328   3.100
 1688TIP3    H2 5018   2.828   0.475   3.126
 1689TIP3   OH2 5019   2.632   0.292   3.911
 1689TIP3    H1 5020   2.577   0.367   3.942
 1689TIP3    H2 5021   2.678   0.331   3.833
 1690TIP3   OH2 5022   2.383  -0.351   3.928
 1690TIP3    H1 5023   2.451  -0.288   3.955
 1690TIP3    H2 5024   2.429  -0.396   3.854
 1691TIP3   OH2 5025   2.457   0.491   4.019
 1691TIP3    H1 5026   2.432   0.578   3.983
 1691TIP3    H2 5027   2.376   0.467   4.067
 1692TIP3   OH2 5028   1.851   0.191   3.247
 1692TIP3    H1 5029   1.839   0.231   3.160
 1692TIP3    H2 5030   1.891   0.267   3.294
 1693TIP3   OH2 5031   3.293   0.703   3.495
 1693TIP3    H1 5032   3.203   0.690   3.531
 1693TIP3    H2 5033   3.281   0.787   3.447
 1694TIP3   OH2 5034   2.984   0.735   3.155
 1694TIP3    H1 5035   3.038   0.654   3.140
 1694TIP3    H2 5036   3.046   0.801   3.116
 1695TIP3   OH2 5037   3.137   0.520   3.072
 1695TIP3    H1 5038   3.052   0.469   3.072
 1695TIP3    H2 5039   3.180   0.483   3.151
 1696TIP3   OH2 5040   3.517   0.604   3.837
 1696TIP3    H1 5041   3.503   0.528   3.777
 1696TIP3    H2 5042   3.494   0.679   3.778
 1697TIP3   OH2 5043   2.793  -0.023   3.080
 1697TIP3    H1 5044   2.726   0.046   3.065
 1697TIP3    H2 5045   2.852  -0.012   3.003
 1698TIP3   OH2 5046   2.772  -0.212   2.803
 1698TIP3    H1 5047   2.833  -0.161   2.859
 1698TIP3    H2 5048   2.834  -0.280   2.768
 1699TIP3   OH2 5049   3.716   0.257   3.688
 1699TIP3    H1 5050   3.629   0.304   3.688
 1699TIP3    H2 5051   3.743   0.274   3.594
 1700TIP3   OH2 5052   3.144   0.100   3.076
 1700TIP3    H1 5053   3.099   0.131   3.157
 1700TIP3    H2 5054   3.230   0.070   3.113
 1701TIP3   OH2 5055   3.400   0.129   3.979
 1701TIP3    H1 5056   3.392   0.214   4.026
 1701TIP3    H2 5057   3.308   0.120   3.945
 1702TIP3   OH2 5058   2.386   0.075   3.482
 1702TIP3    H1 5059   2.353   0.016   3.412
 1702TIP3    H2 5060   2.463   0.025   3.517
 1703TIP3   OH2 5061   2.515   0.484   3.629
 1703TIP3    H1 5062   2.499   0.463   3.535
 1703TIP3    H2 5063   2.603   0.444   3.644
 1704TIP3   OH2 5064   2.514   0.049   3.842
 1704TIP3    H1 5065   2.547   0.016   3.756
 1704TIP3    H2 5066   2.566   0.132   3.853
 1705TIP3   OH2 5067   3.050   0.692   3.612
 1705TIP3    H1 5068   3.038   0.768   3.670
 1705TIP3    H2 5069   3.033   0.615   3.671
 1706TIP3   OH2 5070   2.663   0.606   4.162
 1706TIP3    H1 5071   2.601   0.667   4.207
 1706TIP3    H2 5072   2.601   0.552   4.110
 1707TIP3   OH2 5073   2.993  -0.045   2.892
 1707TIP3    H1 5074   3.049   0.021   2.939
 1707TIP3    H2 5075   3.021  -0.031   2.799
 1708TIP3   OH2 5076   2.412   0.146   4.273
 1708TIP3    H1 5077   2.421   0.225   4.330
 1708TIP3    H2 5078   2.329   0.168   4.228
 1709TIP3   OH2 5079   2.735   0.624   3.171
 1709TIP3    H1 5080   2.823   0.669   3.172
 1709TIP3    H2 5081   2.681   0.686   3.120
 1710TIP3   OH2 5082   2.454   0.770   4.248
 1710TIP3    H1 5083   2.423   0.778   4.155
 1710TIP3    H2 5084   2.371   0.751   4.296
 1711TIP3   OH2 5085   2.269  -0.083   3.274
 1711TIP3    H1 5086   2.202  -0.028   3.227
 1711TIP3    H2 5087   2.216  -0.160   3.297
 1712TIP3   OH2 5088   3.312   0.543   2.489
 1712TIP3    H1 5089   3.317   0.640   2.473
 1712TIP3    H2 5090   3.405   0.516   2.477
 1713TIP3   OH2 5091   1.895   0.503   3.817
 1713TIP3    H1 5092   1.987   0.479   3.800
 1713TIP3    H2 5093   1.905   0.561   3.894
 1714TIP3   OH2 5094   3.753   0.959   3.887
 1714TIP3    H1 5095   3.751   0.862   3.899
 1714TIP3    H2 5096   3.669   0.983   3.931
 1715TIP3   OH2 5097   2.860   0.732   4.020
 1715TIP3    H1 5098   2.854   0.826   4.049
 1715TIP3    H2 5099   2.789   0.691   4.073
 1716TIP3   OH2 5100   2.624   0.857   2.969
 1716TIP3    H1 5101   2.577   0.843   2.886
 1716TIP3    H2 5102   2.591   0.945   2.996
 1717TIP3   OH2 5103   2.057   0.710   3.357
 1717TIP3    H1 5104   2.105   0.703   3.443
 1717TIP3    H2 5105   2.017   0.622   3.350
 1718TIP3   OH2 5106   2.820   0.769   2.604
 1718TIP3    H1 5107   2.878   0.698   2.568
 1718TIP3    H2 5108   2.856   0.780   2.694
 1719TIP3   OH2 5109   2.875   0.818   2.873
 1719TIP3    H1 5110   2.786   0.825   2.915
 1719TIP3    H2 5111   2.927   0.779   2.945
 1720TIP3   OH2 5112   3.642   0.107   4.189
 1720TIP3    H1 5113   3.561   0.136   4.144
 1720TIP3    H2 5114   3.652   0.016   4.152
 1721TIP3   OH2 5115   2.228   0.466   4.184
 1721TIP3    H1 5116   2.291   0.462   4.260
 1721TIP3    H2 5117   2.149   0.429   4.224
 1722TIP3   OH2 5118   3.402  -0.149   4.023
 1722TIP3    H1 5119   3.366  -0.145   4.114
 1722TIP3    H2 5120   3.386  -0.057   3.993
 1723TIP3   OH2 5121   3.083  -0.020   2.640
 1723TIP3    H1 5122   3.042  -0.039   2.553
 1723TIP3    H2 5123   3.162   0.031   2.614
 1724TIP3   OH2 5124   2.579  -0.171   3.998
 1724TIP3    H1 5125   2.527  -0.145   4.077
 1724TIP3    H2 5126   2.564  -0.094   3.939
 1725TIP3   OH2 5127   2.454  -0.293   3.494
 1725TIP3    H1 5128   2.361  -0.320   3.507
 1725TIP3    H2 5129   2.469  -0.322   3.402
 1726TIP3   OH2 5130   2.937  -0.191   3.240
 1726TIP3    H1 5131   2.884  -0.125   3.190
 1726TIP3    H2 5132   2.997  -0.225   3.171
 1727TIP3   OH2 5133   3.132   0.095   4.292
 1727TIP3    H1 5134   3.117   0.027   4.361
 1727TIP3    H2 5135   3.224   0.119   4.312
 1728TIP3   OH2 5136   3.093  -0.153   3.481
 1728TIP3    H1 5137   3.029  -0.103   3.426
 1728TIP3    H2 5138   3.114  -0.225   3.417
 1729TIP3   OH2 5139   2.393  -0.128   4.197
 1729TIP3    H1 5140   2.398  -0.050   4.255
 1729TIP3    H2 5141   2.308  -0.167   4.221
 1730TIP3   OH2 5142   3.142   0.066   3.915
 1730TIP3    H1 5143   3.155   0.015   3.832
 1730TIP3    H2 5144   3.057   0.030   3.943
 1731TIP3   OH2 5145   2.757  -0.450   3.547
 1731TIP3    H1 5146   2.686  -0.436   3.612
 1731TIP3    H2 5147   2.832  -0.466   3.608
 1732TIP3   OH2 5148   2.208  -0.404   3.556
 1732TIP3    H1 5149   2.114  -0.378   3.536
 1732TIP3    H2 5150   2.199  -0.500   3.547
 1733TIP3   OH2 5151   2.500  -0.393   3.227
 1733TIP3    H1 5152   2.592  -0.415   3.255
 1733TIP3    H2 5153   2.521  -0.337   3.151
 1734TIP3   OH2 5154   3.451   1.301   3.985
 1734TIP3    H1 5155   3.445   1.325   3.891
 1734TIP3    H2 5156   3.529   1.351   4.014
 1735TIP3   OH2 5157   2.405   0.412   4.397
 1735TIP3    H1 5158   2.483   0.440   4.449
 1735TIP3    H2 5159   2.337   0.408   4.468
 1736TIP3   OH2 5160   2.842  -0.158   3.663
 1736TIP3    H1 5161   2.917  -0.135   3.607
 1736TIP3    H2 5162   2.883  -0.216   3.729
 1737TIP3   OH2 5163   2.837  -0.272   3.996
 1737TIP3    H1 5164   2.756  -0.220   3.978
 1737TIP3    H2 5165   2.898  -0.205   4.032
 1738TIP3   OH2 5166   2.581   0.160   3.039
 1738TIP3    H1 5167   2.508   0.098   3.023
 1738TIP3    H2 5168   2.558   0.193   3.130
 1739TIP3   OH2 5169   3.483   0.392   3.673
 1739TIP3    H1 5170   3.493   0.440   3.589
 1739TIP3    H2 5171   3.401   0.338   3.654
 1740TIP3   OH2 5172   3.106  -0.504   2.876
 1740TIP3    H1 5173   3.016  -0.500   2.836
 1740TIP3    H2 5174   3.105  -0.418   2.921
 1741TIP3   OH2 5175   2.970   0.467   4.047
 1741TIP3    H1 5176   3.017   0.472   4.131
 1741TIP3    H2 5177   2.936   0.558   4.037
 1742TIP3   OH2 5178   3.101  -0.267   3.022
 1742TIP3    H1 5179   3.197  -0.252   3.022
 1742TIP3    H2 5180   3.067  -0.190   2.971
 1743TIP3   OH2 5181   2.271   0.174   3.711
 1743TIP3    H1 5182   2.306   0.152   3.622
 1743TIP3    H2 5183   2.327   0.118   3.766
 1744TIP3   OH2 5184   2.712   0.298   2.842
 1744TIP3    H1 5185   2.676   0.388   2.859
 1744TIP3    H2 5186   2.671   0.248   2.916
 1745TIP3   OH2 5187   2.885   0.213   4.350
 1745TIP3    H1 5188   2.820   0.161   4.299
 1745TIP3    H2 5189   2.969   0.186   4.307
 1746TIP3   OH2 5190   3.135   0.732   3.942
 1746TIP3    H1 5191   3.038   0.731   3.950
 1746TIP3    H2 5192   3.160   0.787   4.018
 1747TIP3   OH2 5193   3.544  -0.192   2.836
 1747TIP3    H1 5194   3.490  -0.240   2.768
 1747TIP3    H2 5195   3.534  -0.101   2.799
 1748TIP3   OH2 5196   3.766   0.669   3.920
 1748TIP3    H1 5197   3.669   0.661   3.911
 1748TIP3    H2 5198   3.793   0.635   3.832
 1749TIP3   OH2 5199   3.252   0.624   2.759
 1749TIP3    H1 5200   3.215   0.562   2.824
 1749TIP3    H2 5201   3.259   0.571   2.678
 1750TIP3   OH2 5202   3.276   0.237   3.605
 1750TIP3    H1 5203   3.180   0.244   3.582
 1750TIP3    H2 5204   3.298   0.159   3.551
 1751TIP3   OH2 5205   2.376   0.488   3.352
 1751TIP3    H1 5206   2.375   0.567   3.294
 1751TIP3    H2 5207   2.284   0.461   3.348
 1752TIP3   OH2 5208   2.488   0.244   3.277
 1752TIP3    H1 5209   2.464   0.335   3.304
 1752TIP3    H2 5210   2.465   0.193   3.358
 1753TIP3   OH2 5211   2.642   0.818   3.809
 1753TIP3    H1 5212   2.683   0.891   3.757
 1753TIP3    H2 5213   2.721   0.780   3.851
 1754TIP3   OH2 5214   2.288   0.723   3.195
 1754TIP3    H1 5215   2.203   0.733   3.241
 1754TIP3    H2 5216   2.322   0.815   3.198
 1755TIP3   OH2 5217   3.021   0.464   3.772
 1755TIP3    H1 5218   3.019   0.449   3.869
 1755TIP3    H2 5219   3.075   0.389   3.741
 1756TIP3   OH2 5220   3.003   0.350   2.653
 1756TIP3    H1 5221   3.064   0.320   2.725
 1756TIP3    H2 5222   2.918   0.329   2.695
 1757TIP3   OH2 5223   3.276   0.995   3.809
 1757TIP3    H1 5224   3.193   0.944   3.801
 1757TIP3    H2 5225   3.262   1.063   3.740
 1758TIP3   OH2 5226   3.340   0.820   2.469
 1758TIP3    H1 5227   3.372   0.894   2.415
 1758TIP3    H2 5228   3.261   0.862   2.508
 1759TIP3   OH2 5229   3.173   0.263   2.846
 1759TIP3    H1 5230   3.154   0.227   2.934
 1759TIP3    H2 5231   3.270   0.266   2.848
 1760TIP3   OH2 5232   2.077   0.678   3.968
 1760TIP3    H1 5233   2.135   0.608   4.002
 1760TIP3    H2 5234   2.104   0.753   4.023
 1761TIP3   OH2 5235   2.371   0.339   2.652
 1761TIP3    H1 5236   2.444   0.277   2.641
 1761TIP3    H2 5237   2.347   0.328   2.747
 1762TIP3   OH2 5238   2.321   0.338   2.923
 1762TIP3    H1 5239   2.394   0.317   2.983
 1762TIP3    H2 5240   2.317   0.436   2.932
 1763TIP3   OH2 5241   2.069   0.049   3.149
 1763TIP3    H1 5242   1.994   0.090   3.196
 1763TIP3    H2 5243   2.071   0.106   3.069
 1764TIP3   OH2 5244   2.582   0.535   2.871
 1764TIP3    H1 5245   2.494   0.556   2.909
 1764TIP3    H2 5246   2.597   0.616   2.820
 1765TIP3   OH2 5247   2.763  -0.399   3.284
 1765TIP3    H1 5248   2.818  -0.317   3.276
 1765TIP3    H2 5249   2.767  -0.415   3.381
 1766TIP3   OH2 5250   3.039  -0.102   4.113
 1766TIP3    H1 5251   3.068  -0.024   4.165
 1766TIP3    H2 5252   3.118  -0.119   4.061
 1767TIP3   OH2 5253   2.329   0.608   2.947
 1767TIP3    H1 5254   2.298   0.678   2.884
 1767TIP3    H2 5255   2.312   0.652   3.033
 1768TIP3   OH2 5256   3.665  -0.139   4.072
 1768TIP3    H1 5257   3.572  -0.149   4.042
 1768TIP3    H2 5258   3.713  -0.179   3.997
 1769TIP3   OH2 5259   3.336  -0.001   3.464
 1769TIP3    H1 5260   3.252  -0.047   3.484
 1769TIP3    H2 5261   3.402  -0.052   3.515
 1770TIP3   OH2 5262   2.045   0.241   2.954
 1770TIP3    H1 5263   2.123   0.299   2.944
 1770TIP3    H2 5264   2.064   0.177   2.882
 1771TIP3   OH2 5265   3.297   0.973   3.415
 1771TIP3    H1 5266   3.254   1.014   3.336
 1771TIP3    H2 5267   3.392   0.987   3.393
 1772TIP3   OH2 5268   1.910   0.452   3.319
 1772TIP3    H1 5269   1.850   0.484   3.387
 1772TIP3    H2 5270   1.871   0.493   3.238
 1773TIP3   OH2 5271   2.078   1.005   4.390
 1773TIP3    H1 5272   2.163   1.007   4.440
 1773TIP3    H2 5273   2.062   0.909   4.387
 1774TIP3   OH2 5274   2.542   0.948   4.440
 1774TIP3    H1 5275   2.639   0.940   4.442
 1774TIP3    H2 5276   2.520   0.885   4.368
 1775TIP3   OH2 5277   2.522   0.541   2.545
 1775TIP3    H1 5278   2.469   0.471   2.589
 1775TIP3    H2 5279   2.599   0.491   2.512
 1776TIP3   OH2 5280   3.182   0.869   4.178
 1776TIP3    H1 5281   3.180   0.797   4.245
 1776TIP3    H2 5282   3.261   0.919   4.204
 1777TIP3   OH2 5283   2.963   0.568   2.482
 1777TIP3    H1 5284   3.002   0.501   2.541
 1777TIP3    H2 5285   3.020   0.564   2.402
 1778TIP3   OH2 5286   2.209   0.399   4.589
 1778TIP3    H1 5287   2.239   0.306   4.591
 1778TIP3    H2 5288   2.118   0.382   4.555
 1779TIP3   OH2 5289   2.199   0.059   2.820
 1779TIP3    H1 5290   2.266   0.042   2.889
 1779TIP3    H2 5291   2.252   0.082   2.744
 1780TIP3   OH2 5292   2.803   0.490   4.368
 1780TIP3    H1 5293   2.764   0.516   4.282
 1780TIP3    H2 5294   2.837   0.400   4.350
 1781TIP3   OH2 5295   2.661   0.241   2.587
 1781TIP3    H1 5296   2.683   0.261   2.681
 1781TIP3    H2 5297   2.686   0.146   2.584
 1782TIP3   OH2 5298   3.300   0.508   3.983
 1782TIP3    H1 5299   3.376   0.544   3.934
 1782TIP3    H2 5300   3.231   0.572   3.958
 1783TIP3   OH2 5301   2.346   0.153   4.578
 1783TIP3    H1 5302   2.303   0.068   4.585
 1783TIP3    H2 5303   2.368   0.175   4.670
 1784TIP3   OH2 5304   2.383  -0.035   3.008
 1784TIP3    H1 5305   2.376  -0.058   3.103
 1784TIP3    H2 5306   2.436  -0.110   2.970
 1785TIP3   OH2 5307   2.669   0.033   4.269
 1785TIP3    H1 5308   2.583   0.078   4.258
 1785TIP3    H2 5309   2.712   0.052   4.183
 1786TIP3   OH2 5310   2.510  -0.246   2.890
 1786TIP3    H1 5311   2.473  -0.312   2.828
 1786TIP3    H2 5312   2.602  -0.239   2.858
 1787TIP3   OH2 5313   3.171   0.420   4.372
 1787TIP3    H1 5314   3.241   0.382   4.317
 1787TIP3    H2 5315   3.165   0.356   4.445
 1788TIP3   OH2 5316   3.310   0.076   2.511
 1788TIP3    H1 5317   3.285   0.035   2.426
 1788TIP3    H2 5318   3.275   0.167   2.495
 1789TIP3   OH2 5319   2.802   0.130   4.049
 1789TIP3    H1 5320   2.881   0.154   3.999
 1789TIP3    H2 5321   2.737   0.191   4.007
 1790TIP3   OH2 5322   3.380   0.117   4.408
 1790TIP3    H1 5323   3.414   0.027   4.404
 1790TIP3    H2 5324   3.458   0.169   4.384
 1791TIP3   OH2 5325   3.426   0.352   4.162
 1791TIP3    H1 5326   3.367   0.408   4.106
 1791TIP3    H2 5327   3.513   0.378   4.123
 1792TIP3   OH2 5328   2.647  -0.129   4.506
 1792TIP3    H1 5329   2.597  -0.095   4.582
 1792TIP3    H2 5330   2.645  -0.052   4.444
 1793TIP3   OH2 5331   3.013  -0.114   4.430
 1793TIP3    H1 5332   2.969  -0.137   4.516
 1793TIP3    H2 5333   2.940  -0.081   4.378
 1794TIP3   OH2 5334   3.317  -0.161   4.284
 1794TIP3    H1 5335   3.238  -0.179   4.336
 1794TIP3    H2 5336   3.385  -0.198   4.346
 1795TIP3   OH2 5337   2.300   0.815   2.766
 1795TIP3    H1 5338   2.393   0.802   2.740
 1795TIP3    H2 5339   2.269   0.866   2.689
 1796TIP3   OH2 5340   1.691   0.799   3.388
 1796TIP3    H1 5341   1.626   0.738   3.346
 1796TIP3    H2 5342   1.735   0.739   3.451
 1797TIP3   OH2 5343   1.822   0.642   3.575
 1797TIP3    H1 5344   1.813   0.576   3.646
 1797TIP3    H2 5345   1.876   0.708   3.621
 1798TIP3   OH2 5346   3.558   1.044   3.377
 1798TIP3    H1 5347   3.579   1.081   3.465
 1798TIP3    H2 5348   3.611   1.100   3.318
 1799TIP3   OH2 5349   3.582   1.070   3.658
 1799TIP3    H1 5350   3.534   0.984   3.654
 1799TIP3    H2 5351   3.656   1.044   3.715
 1800TIP3   OH2 5352   3.631   0.749   4.234
 1800TIP3    H1 5353   3.558   0.761   4.298
 1800TIP3    H2 5354   3.672   0.838   4.235
 1801TIP3   OH2 5355   3.451   0.260   2.846
 1801TIP3    H1 5356   3.513   0.329   2.816
 1801TIP3    H2 5357   3.497   0.225   2.926
 1802TIP3   OH2 5358   3.576   0.127   3.053
 1802TIP3    H1 5359   3.503   0.092   3.109
 1802TIP3    H2 5360   3.636   0.166   3.120
 1803TIP3   OH2 5361   3.639   0.532   3.486
 1803TIP3    H1 5362   3.680   0.459   3.435
 1803TIP3    H2 5363   3.629   0.602   3.418
 1804TIP3   OH2 5364   3.456   0.824   3.680
 1804TIP3    H1 5365   3.382   0.870   3.726
 1804TIP3    H2 5366   3.408   0.780   3.607
 1805TIP3   OH2 5367   3.506   0.038   2.694
 1805TIP3    H1 5368   3.436   0.046   2.624
 1805TIP3    H2 5369   3.480   0.114   2.750
 1806TIP3   OH2 5370   3.388  -0.293   2.641
 1806TIP3    H1 5371   3.345  -0.225   2.588
 1806TIP3    H2 5372   3.329  -0.368   2.629
 1807TIP3   OH2 5373   3.379   0.002   3.195
 1807TIP3    H1 5374   3.383  -0.094   3.182
 1807TIP3    H2 5375   3.366   0.009   3.292
 1808TIP3   OH2 5376   2.010   0.071   3.941
 1808TIP3    H1 5377   2.007   0.034   3.850
 1808TIP3    H2 5378   2.107   0.075   3.958
 1809TIP3   OH2 5379   3.671   0.417   4.056
 1809TIP3    H1 5380   3.739   0.350   4.035
 1809TIP3    H2 5381   3.684   0.484   3.986
 1810TIP3   OH2 5382   3.857   0.218   4.046
 1810TIP3    H1 5383   3.796   0.172   4.108
 1810TIP3    H2 5384   3.944   0.180   4.070
 1811TIP3   OH2 5385   3.376  -0.269   3.055
 1811TIP3    H1 5386   3.438  -0.311   3.119
 1811TIP3    H2 5387   3.434  -0.257   2.977
 1812TIP3   OH2 5388   3.553  -0.112   3.599
 1812TIP3    H1 5389   3.637  -0.094   3.553
 1812TIP3    H2 5390   3.565  -0.058   3.679
 1813TIP3   OH2 5391   3.617   0.040   3.818
 1813TIP3    H1 5392   3.540   0.075   3.868
 1813TIP3    H2 5393   3.650   0.121   3.775
 1814TIP3   OH2 5394   2.282  -0.228   4.557
 1814TIP3    H1 5395   2.359  -0.230   4.615
 1814TIP3    H2 5396   2.214  -0.269   4.615
 1815TIP3   OH2 5397   2.008  -0.294   4.038
 1815TIP3    H1 5398   2.052  -0.285   3.951
 1815TIP3    H2 5399   1.987  -0.202   4.059
 1816TIP3   OH2 5400   3.130   0.921   3.028
 1816TIP3    H1 5401   3.190   0.917   2.950
 1816TIP3    H2 5402   3.174   0.988   3.084
 1817TIP3   OH2 5403   2.226   0.729   4.405
 1817TIP3    H1 5404   2.133   0.701   4.396
 1817TIP3    H2 5405   2.246   0.704   4.496
 1818TIP3   OH2 5406   2.419   0.763   3.962
 1818TIP3    H1 5407   2.375   0.841   3.921
 1818TIP3    H2 5408   2.505   0.773   3.916
 1819TIP3   OH2 5409   2.850   1.001   4.097
 1819TIP3    H1 5410   2.894   1.001   4.185
 1819TIP3    H2 5411   2.914   1.054   4.045
 1820TIP3   OH2 5412   3.030   1.159   3.963
 1820TIP3    H1 5413   3.098   1.112   3.913
 1820TIP3    H2 5414   3.086   1.214   4.022
 1821TIP3   OH2 5415   2.103   1.010   3.990
 1821TIP3    H1 5416   2.022   1.041   3.948
 1821TIP3    H2 5417   2.108   1.065   4.070
 1822TIP3   OH2 5418   2.335   0.994   3.842
 1822TIP3    H1 5419   2.248   1.003   3.887
 1822TIP3    H2 5420   2.314   1.025   3.752
 1823TIP3   OH2 5421   2.750   1.011   3.644
 1823TIP3    H1 5422   2.683   1.028   3.575
 1823TIP3    H2 5423   2.763   1.100   3.681
 1824TIP3   OH2 5424   3.022   0.964   3.699
 1824TIP3    H1 5425   2.926   0.974   3.680
 1824TIP3    H2 5426   3.059   1.035   3.644
 1825TIP3   OH2 5427   3.227   1.168   3.598
 1825TIP3    H1 5428   3.185   1.238   3.545
 1825TIP3    H2 5429   3.254   1.104   3.528
 1826TIP3   OH2 5430   1.996   0.802   3.735
 1826TIP3    H1 5431   2.025   0.769   3.823
 1826TIP3    H2 5432   2.068   0.764   3.680
 1827TIP3   OH2 5433   2.194   0.685   3.594
 1827TIP3    H1 5434   2.211   0.600   3.642
 1827TIP3    H2 5435   2.286   0.720   3.589
 1828TIP3   OH2 5436   2.463   0.771   3.597
 1828TIP3    H1 5437   2.495   0.681   3.581
 1828TIP3    H2 5438   2.515   0.792   3.677
 1829TIP3   OH2 5439   1.787   0.584   3.121
 1829TIP3    H1 5440   1.704   0.550   3.081
 1829TIP3    H2 5441   1.774   0.678   3.104
 1830TIP3   OH2 5442   2.563   0.762   2.702
 1830TIP3    H1 5443   2.650   0.786   2.664
 1830TIP3    H2 5444   2.538   0.691   2.638
 1831TIP3   OH2 5445   3.287   0.892   2.798
 1831TIP3    H1 5446   3.280   0.794   2.790
 1831TIP3    H2 5447   3.238   0.921   2.719
 1832TIP3   OH2 5448   1.887   0.612   2.787
 1832TIP3    H1 5449   1.903   0.613   2.881
 1832TIP3    H2 5450   1.971   0.573   2.753
 1833TIP3   OH2 5451   3.501   1.030   3.981
 1833TIP3    H1 5452   3.425   1.002   3.926
 1833TIP3    H2 5453   3.483   1.126   3.989
 1834TIP3   OH2 5454   4.775   0.410   2.742
 1834TIP3    H1 5455   4.740   0.498   2.717
 1834TIP3    H2 5456   4.702   0.354   2.709
 1835TIP3   OH2 5457   4.776   0.407   3.133
 1835TIP3    H1 5458   4.808   0.376   3.219
 1835TIP3    H2 5459   4.735   0.326   3.097
 1836TIP3   OH2 5460   4.072   0.305   3.490
 1836TIP3    H1 5461   4.108   0.235   3.547
 1836TIP3    H2 5462   4.153   0.353   3.468
 1837TIP3   OH2 5463   5.024   0.711   2.814
 1837TIP3    H1 5464   4.998   0.643   2.877
 1837TIP3    H2 5465   5.052   0.785   2.870
 1838TIP3   OH2 5466   4.050   0.712   3.215
 1838TIP3    H1 5467   4.040   0.614   3.215
 1838TIP3    H2 5468   4.147   0.720   3.204
 1839TIP3   OH2 5469   3.739  -0.098   3.006
 1839TIP3    H1 5470   3.694  -0.015   3.030
 1839TIP3    H2 5471   3.671  -0.138   2.948
 1840TIP3   OH2 5472   3.812   0.197   3.185
 1840TIP3    H1 5473   3.863   0.117   3.212
 1840TIP3    H2 5474   3.868   0.233   3.115
 1841TIP3   OH2 5475   4.676   1.172   2.833
 1841TIP3    H1 5476   4.712   1.100   2.776
 1841TIP3    H2 5477   4.656   1.124   2.914
 1842TIP3   OH2 5478   4.568   0.631   3.179
 1842TIP3    H1 5479   4.609   0.555   3.135
 1842TIP3    H2 5480   4.650   0.679   3.205
 1843TIP3   OH2 5481   4.983   0.114   3.223
 1843TIP3    H1 5482   5.021   0.026   3.240
 1843TIP3    H2 5483   4.949   0.105   3.132
 1844TIP3   OH2 5484   4.322  -0.180   3.201
 1844TIP3    H1 5485   4.297  -0.113   3.133
 1844TIP3    H2 5486   4.312  -0.262   3.148
 1845TIP3   OH2 5487   5.008  -0.080   2.796
 1845TIP3    H1 5488   5.087  -0.099   2.851
 1845TIP3    H2 5489   5.040  -0.094   2.706
 1846TIP3   OH2 5490   3.956  -0.016   3.280
 1846TIP3    H1 5491   4.033  -0.040   3.338
 1846TIP3    H2 5492   3.977  -0.071   3.202
 1847TIP3   OH2 5493   4.393   0.191   3.085
 1847TIP3    H1 5494   4.488   0.166   3.096
 1847TIP3    H2 5495   4.356   0.107   3.050
 1848TIP3   OH2 5496   5.636   0.142   3.347
 1848TIP3    H1 5497   5.569   0.204   3.314
 1848TIP3    H2 5498   5.705   0.201   3.380
 1849TIP3   OH2 5499   4.659   0.625   2.613
 1849TIP3    H1 5500   4.620   0.613   2.525
 1849TIP3    H2 5501   4.612   0.706   2.643
 1850TIP3   OH2 5502   4.424   0.551   3.398
 1850TIP3    H1 5503   4.367   0.623   3.432
 1850TIP3    H2 5504   4.468   0.595   3.321
 1851TIP3   OH2 5505   4.181  -0.091   3.414
 1851TIP3    H1 5506   4.249  -0.026   3.440
 1851TIP3    H2 5507   4.226  -0.135   3.339
 1852TIP3   OH2 5508   4.259   0.751   3.500
 1852TIP3    H1 5509   4.233   0.838   3.464
 1852TIP3    H2 5510   4.178   0.731   3.553
 1853TIP3   OH2 5511   3.644   0.439   2.735
 1853TIP3    H1 5512   3.602   0.466   2.651
 1853TIP3    H2 5513   3.676   0.525   2.769
 1854TIP3   OH2 5514   5.086   0.956   2.975
 1854TIP3    H1 5515   4.997   0.945   3.015
 1854TIP3    H2 5516   5.075   1.042   2.929
 1855TIP3   OH2 5517   4.781   0.997   2.643
 1855TIP3    H1 5518   4.831   0.913   2.628
 1855TIP3    H2 5519   4.846   1.061   2.606
 1856TIP3   OH2 5520   4.928   0.781   2.564
 1856TIP3    H1 5521   4.892   0.700   2.526
 1856TIP3    H2 5522   4.970   0.748   2.647
 1857TIP3   OH2 5523   5.310   0.860   3.320
 1857TIP3    H1 5524   5.296   0.784   3.260
 1857TIP3    H2 5525   5.291   0.936   3.261
 1858TIP3   OH2 5526   4.604   0.263   2.581
 1858TIP3    H1 5527   4.523   0.314   2.561
 1858TIP3    H2 5528   4.647   0.258   2.493
 1859TIP3   OH2 5529   4.555   0.050   2.293
 1859TIP3    H1 5530   4.622   0.102   2.339
 1859TIP3    H2 5531   4.613  -0.016   2.248
 1860TIP3   OH2 5532   5.507   0.509   3.170
 1860TIP3    H1 5533   5.421   0.557   3.169
 1860TIP3    H2 5534   5.538   0.528   3.079
 1861TIP3   OH2 5535   4.954   0.342   2.546
 1861TIP3    H1 5536   4.899   0.365   2.625
 1861TIP3    H2 5537   5.038   0.318   2.590
 1862TIP3   OH2 5538   5.178   0.385   3.459
 1862TIP3    H1 5539   5.175   0.466   3.512
 1862TIP3    H2 5540   5.089   0.386   3.418
 1863TIP3   OH2 5541   4.184   0.336   2.969
 1863TIP3    H1 5542   4.141   0.278   2.902
 1863TIP3    H2 5543   4.259   0.280   2.999
 1864TIP3   OH2 5544   4.313   0.749   3.111
 1864TIP3    H1 5545   4.293   0.720   3.021
 1864TIP3    H2 5546   4.400   0.708   3.128
 1865TIP3   OH2 5547   4.321   0.301   3.330
 1865TIP3    H1 5548   4.349   0.273   3.240
 1865TIP3    H2 5549   4.363   0.389   3.339
 1866TIP3   OH2 5550   4.848   0.946   3.100
 1866TIP3    H1 5551   4.832   1.026   3.153
 1866TIP3    H2 5552   4.828   0.874   3.162
 1867TIP3   OH2 5553   4.460   0.862   3.649
 1867TIP3    H1 5554   4.397   0.923   3.693
 1867TIP3    H2 5555   4.397   0.810   3.595
 1868TIP3   OH2 5556   4.784   0.205   2.375
 1868TIP3    H1 5557   4.845   0.266   2.422
 1868TIP3    H2 5558   4.810   0.222   2.281
 1869TIP3   OH2 5559   4.217   0.413   3.763
 1869TIP3    H1 5560   4.221   0.505   3.796
 1869TIP3    H2 5561   4.121   0.397   3.767
 1870TIP3   OH2 5562   4.540   0.871   2.654
 1870TIP3    H1 5563   4.623   0.922   2.653
 1870TIP3    H2 5564   4.479   0.929   2.606
 1871TIP3   OH2 5565   4.253   1.025   3.735
 1871TIP3    H1 5566   4.219   1.033   3.643
 1871TIP3    H2 5567   4.171   1.004   3.785
 1872TIP3   OH2 5568   4.049   0.184   2.775
 1872TIP3    H1 5569   3.977   0.223   2.720
 1872TIP3    H2 5570   4.026   0.090   2.774
 1873TIP3   OH2 5571   5.109   0.801   1.978
 1873TIP3    H1 5572   5.117   0.897   1.959
 1873TIP3    H2 5573   5.202   0.772   1.964
 1874TIP3   OH2 5574   3.831   0.563   3.681
 1874TIP3    H1 5575   3.759   0.553   3.614
 1874TIP3    H2 5576   3.868   0.473   3.685
 1875TIP3   OH2 5577   3.682   0.760   3.309
 1875TIP3    H1 5578   3.779   0.762   3.307
 1875TIP3    H2 5579   3.662   0.840   3.360
 1876TIP3   OH2 5580   5.548   1.213   3.371
 1876TIP3    H1 5581   5.547   1.116   3.387
 1876TIP3    H2 5582   5.464   1.238   3.417
 1877TIP3   OH2 5583   4.655   0.989   3.506
 1877TIP3    H1 5584   4.649   1.083   3.536
 1877TIP3    H2 5585   4.583   0.949   3.559
 1878TIP3   OH2 5586   4.424   1.120   2.455
 1878TIP3    H1 5587   4.373   1.101   2.374
 1878TIP3    H2 5588   4.385   1.204   2.485
 1879TIP3   OH2 5589   3.856   0.968   2.842
 1879TIP3    H1 5590   3.900   0.959   2.929
 1879TIP3    H2 5591   3.807   0.884   2.836
 1880TIP3   OH2 5592   4.618   1.025   2.091
 1880TIP3    H1 5593   4.675   0.954   2.055
 1880TIP3    H2 5594   4.654   1.035   2.181
 1881TIP3   OH2 5595   4.673   1.073   2.359
 1881TIP3    H1 5596   4.584   1.083   2.400
 1881TIP3    H2 5597   4.722   1.033   2.433
 1882TIP3   OH2 5598   5.435   0.358   3.681
 1882TIP3    H1 5599   5.362   0.393   3.628
 1882TIP3    H2 5600   5.445   0.268   3.644
 1883TIP3   OH2 5601   4.036   0.745   3.659
 1883TIP3    H1 5602   4.082   0.730   3.744
 1883TIP3    H2 5603   3.960   0.683   3.667
 1884TIP3   OH2 5604   5.198   0.114   3.512
 1884TIP3    H1 5605   5.169   0.121   3.606
 1884TIP3    H2 5606   5.180   0.205   3.480
 1885TIP3   OH2 5607   4.866   0.235   2.120
 1885TIP3    H1 5608   4.833   0.216   2.030
 1885TIP3    H2 5609   4.952   0.276   2.099
 1886TIP3   OH2 5610   4.382   0.084   3.486
 1886TIP3    H1 5611   4.325   0.109   3.562
 1886TIP3    H2 5612   4.366   0.160   3.426
 1887TIP3   OH2 5613   4.243  -0.025   2.993
 1887TIP3    H1 5614   4.152  -0.060   3.002
 1887TIP3    H2 5615   4.265  -0.060   2.903
 1888TIP3   OH2 5616   4.737   0.071   2.726
 1888TIP3    H1 5617   4.689   0.139   2.674
 1888TIP3    H2 5618   4.794   0.029   2.659
 1889TIP3   OH2 5619   4.915   0.330   3.785
 1889TIP3    H1 5620   4.888   0.271   3.857
 1889TIP3    H2 5621   5.006   0.352   3.810
 1890TIP3   OH2 5622   4.891   0.098   2.961
 1890TIP3    H1 5623   4.823   0.128   2.896
 1890TIP3    H2 5624   4.928   0.026   2.906
 1891TIP3   OH2 5625   4.187   0.126   3.672
 1891TIP3    H1 5626   4.181   0.192   3.743
 1891TIP3    H2 5627   4.120   0.061   3.697
 1892TIP3   OH2 5628   4.259  -0.354   2.375
 1892TIP3    H1 5629   4.238  -0.351   2.470
 1892TIP3    H2 5630   4.191  -0.414   2.344
 1893TIP3   OH2 5631   3.750  -0.371   2.770
 1893TIP3    H1 5632   3.779  -0.320   2.691
 1893TIP3    H2 5633   3.690  -0.304   2.808
 1894TIP3   OH2 5634   4.908   0.325   3.372
 1894TIP3    H1 5635   4.942   0.251   3.316
 1894TIP3    H2 5636   4.864   0.272   3.442
 1895TIP3   OH2 5637   4.559  -0.172   3.028
 1895TIP3    H1 5638   4.480  -0.183   3.082
 1895TIP3    H2 5639   4.628  -0.196   3.094
 1896TIP3   OH2 5640   4.000  -0.154   3.045
 1896TIP3    H1 5641   3.907  -0.129   3.022
 1896TIP3    H2 5642   3.993  -0.250   3.038
 1897TIP3   OH2 5643   4.285  -0.135   2.749
 1897TIP3    H1 5644   4.377  -0.145   2.718
 1897TIP3    H2 5645   4.232  -0.139   2.666
 1898TIP3   OH2 5646   4.128  -0.120   2.518
 1898TIP3    H1 5647   4.059  -0.161   2.464
 1898TIP3    H2 5648   4.185  -0.081   2.448
 1899TIP3   OH2 5649   5.247   1.557   3.471
 1899TIP3    H1 5650   5.243   1.583   3.378
 1899TIP3    H2 5651   5.328   1.604   3.501
 1900TIP3   OH2 5652   4.198   0.666   3.888
 1900TIP3    H1 5653   4.276   0.698   3.936
 1900TIP3    H2 5654   4.131   0.668   3.959
 1901TIP3   OH2 5655   4.654   0.124   3.153
 1901TIP3    H1 5656   4.717   0.073   3.100
 1901TIP3    H2 5657   4.654   0.074   3.237
 1902TIP3   OH2 5658   4.643   0.028   3.420
 1902TIP3    H1 5659   4.552   0.050   3.446
 1902TIP3    H2 5660   4.696   0.081   3.483
 1903TIP3   OH2 5661   4.370   0.408   2.527
 1903TIP3    H1 5662   4.299   0.342   2.515
 1903TIP3    H2 5663   4.349   0.442   2.618
 1904TIP3   OH2 5664   5.269   0.644   3.152
 1904TIP3    H1 5665   5.292   0.696   3.072
 1904TIP3    H2 5666   5.185   0.600   3.125
 1905TIP3   OH2 5667   4.897  -0.242   2.334
 1905TIP3    H1 5668   4.806  -0.265   2.362
 1905TIP3    H2 5669   4.907  -0.157   2.382
 1906TIP3   OH2 5670   4.771   0.729   3.527
 1906TIP3    H1 5671   4.804   0.720   3.616
 1906TIP3    H2 5672   4.732   0.819   3.527
 1907TIP3   OH2 5673   4.896  -0.018   2.500
 1907TIP3    H1 5674   4.992  -0.001   2.511
 1907TIP3    H2 5675   4.864   0.063   2.455
 1908TIP3   OH2 5676   4.071   0.437   3.199
 1908TIP3    H1 5677   4.107   0.408   3.113
 1908TIP3    H2 5678   4.109   0.371   3.259
 1909TIP3   OH2 5679   4.519   0.559   2.356
 1909TIP3    H1 5680   4.469   0.644   2.357
 1909TIP3    H2 5681   4.463   0.503   2.415
 1910TIP3   OH2 5682   3.956   0.336   3.809
 1910TIP3    H1 5683   3.952   0.329   3.907
 1910TIP3    H2 5684   3.873   0.292   3.784
 1911TIP3   OH2 5685   4.673   0.467   3.836
 1911TIP3    H1 5686   4.604   0.413   3.794
 1911TIP3    H2 5687   4.753   0.435   3.790
 1912TIP3   OH2 5688   4.930   0.987   3.426
 1912TIP3    H1 5689   4.834   0.986   3.439
 1912TIP3    H2 5690   4.958   1.041   3.503
 1913TIP3   OH2 5691   5.333   0.069   2.328
 1913TIP3    H1 5692   5.271   0.024   2.266
 1913TIP3    H2 5693   5.329   0.158   2.287
 1914TIP3   OH2 5694   5.560   0.923   3.408
 1914TIP3    H1 5695   5.463   0.916   3.398
 1914TIP3    H2 5696   5.588   0.893   3.319
 1915TIP3   OH2 5697   5.050   0.879   2.243
 1915TIP3    H1 5698   5.014   0.810   2.300
 1915TIP3    H2 5699   5.059   0.834   2.157
 1916TIP3   OH2 5700   5.037   0.508   3.070
 1916TIP3    H1 5701   4.943   0.484   3.083
 1916TIP3    H2 5702   5.070   0.427   3.025
 1917TIP3   OH2 5703   4.170   0.740   2.833
 1917TIP3    H1 5704   4.163   0.819   2.776
 1917TIP3    H2 5705   4.077   0.717   2.844
 1918TIP3   OH2 5706   3.734   0.038   2.535
 1918TIP3    H1 5707   3.778   0.122   2.558
 1918TIP3    H2 5708   3.657   0.040   2.596
 1919TIP3   OH2 5709   4.295   0.499   2.769
 1919TIP3    H1 5710   4.263   0.589   2.791
 1919TIP3    H2 5711   4.261   0.448   2.845
 1920TIP3   OH2 5712   4.440   1.079   3.295
 1920TIP3    H1 5713   4.481   1.152   3.245
 1920TIP3    H2 5714   4.517   1.040   3.340
 1921TIP3   OH2 5715   4.084   0.975   2.680
 1921TIP3    H1 5716   3.999   0.984   2.727
 1921TIP3    H2 5717   4.117   1.067   2.683
 1922TIP3   OH2 5718   4.818   0.714   3.258
 1922TIP3    H1 5719   4.809   0.712   3.356
 1922TIP3    H2 5720   4.896   0.658   3.245
 1923TIP3   OH2 5721   4.804   0.613   2.141
 1923TIP3    H1 5722   4.857   0.586   2.220
 1923TIP3    H2 5723   4.717   0.579   2.165
 1924TIP3   OH2 5724   5.071   1.242   3.305
 1924TIP3    H1 5725   4.989   1.189   3.300
 1924TIP3    H2 5726   5.055   1.307   3.233
 1925TIP3   OH2 5727   5.137   1.077   1.957
 1925TIP3    H1 5728   5.169   1.148   1.899
 1925TIP3    H2 5729   5.058   1.121   1.995
 1926TIP3   OH2 5730   4.965   0.542   2.354
 1926TIP3    H1 5731   4.953   0.476   2.425
 1926TIP3    H2 5732   5.062   0.536   2.341
 1927TIP3   OH2 5733   3.878   0.938   3.451
 1927TIP3    H1 5734   3.933   0.871   3.493
 1927TIP3    H2 5735   3.899   1.017   3.504
 1928TIP3   OH2 5736   4.163   0.587   2.142
 1928TIP3    H1 5737   4.173   0.494   2.116
 1928TIP3    H2 5738   4.141   0.578   2.237
 1929TIP3   OH2 5739   4.105   0.593   2.413
 1929TIP3    H1 5740   4.182   0.565   2.465
 1929TIP3    H2 5741   4.109   0.691   2.422
 1930TIP3   OH2 5742   3.838   0.281   2.617
 1930TIP3    H1 5743   3.772   0.328   2.673
 1930TIP3    H2 5744   3.851   0.348   2.548
 1931TIP3   OH2 5745   4.378   0.789   2.361
 1931TIP3    H1 5746   4.290   0.811   2.398
 1931TIP3    H2 5747   4.390   0.863   2.300
 1932TIP3   OH2 5748   4.574  -0.149   2.757
 1932TIP3    H1 5749   4.621  -0.063   2.755
 1932TIP3    H2 5750   4.562  -0.160   2.855
 1933TIP3   OH2 5751   4.831   0.167   3.578
 1933TIP3    H1 5752   4.857   0.228   3.651
 1933TIP3    H2 5753   4.904   0.105   3.575
 1934TIP3   OH2 5754   4.126   0.865   2.432
 1934TIP3    H1 5755   4.094   0.935   2.371
 1934TIP3    H2 5756   4.107   0.906   2.519
 1935TIP3   OH2 5757   5.462   0.113   3.563
 1935TIP3    H1 5758   5.371   0.102   3.526
 1935TIP3    H2 5759   5.518   0.100   3.484
 1936TIP3   OH2 5760   5.122   0.266   2.955
 1936TIP3    H1 5761   5.046   0.206   2.967
 1936TIP3    H2 5762   5.194   0.218   3.002
 1937TIP3   OH2 5763   3.840   0.484   2.420
 1937TIP3    H1 5764   3.914   0.548   2.428
 1937TIP3    H2 5765   3.880   0.424   2.353
 1938TIP3   OH2 5766   3.774  -0.234   2.542
 1938TIP3    H1 5767   3.786  -0.137   2.541
 1938TIP3    H2 5768   3.695  -0.244   2.486
 1939TIP3   OH2 5769   5.095   1.227   2.897
 1939TIP3    H1 5770   5.052   1.273   2.823
 1939TIP3    H2 5771   5.190   1.242   2.875
 1940TIP3   OH2 5772   3.700   0.707   2.801
 1940TIP3    H1 5773   3.645   0.735   2.875
 1940TIP3    H2 5774   3.658   0.753   2.725
 1941TIP3   OH2 5775   3.870   1.261   3.879
 1941TIP3    H1 5776   3.956   1.260   3.926
 1941TIP3    H2 5777   3.848   1.166   3.878
 1942TIP3   OH2 5778   4.341   1.205   3.927
 1942TIP3    H1 5779   4.437   1.192   3.928
 1942TIP3    H2 5780   4.315   1.143   3.856
 1943TIP3   OH2 5781   4.327   0.786   2.049
 1943TIP3    H1 5782   4.272   0.714   2.088
 1943TIP3    H2 5783   4.403   0.735   2.016
 1944TIP3   OH2 5784   4.983   1.122   3.660
 1944TIP3    H1 5785   4.978   1.052   3.729
 1944TIP3    H2 5786   5.060   1.174   3.689
 1945TIP3   OH2 5787   4.760   0.825   1.967
 1945TIP3    H1 5788   4.797   0.757   2.027
 1945TIP3    H2 5789   4.818   0.818   1.888
 1946TIP3   OH2 5790   3.994   0.660   4.079
 1946TIP3    H1 5791   4.009   0.563   4.083
 1946TIP3    H2 5792   3.907   0.664   4.032
 1947TIP3   OH2 5793   3.975   0.299   2.277
 1947TIP3    H1 5794   4.032   0.272   2.351
 1947TIP3    H2 5795   4.041   0.307   2.205
 1948TIP3   OH2 5796   4.601   0.747   3.853
 1948TIP3    H1 5797   4.558   0.773   3.769
 1948TIP3    H2 5798   4.630   0.655   3.836
 1949TIP3   OH2 5799   4.498   0.508   2.086
 1949TIP3    H1 5800   4.495   0.518   2.183
 1949TIP3    H2 5801   4.496   0.410   2.078
 1950TIP3   OH2 5802   5.095   0.761   3.465
 1950TIP3    H1 5803   5.171   0.801   3.419
 1950TIP3    H2 5804   5.026   0.828   3.446
 1951TIP3   OH2 5805   4.107   0.402   4.072
 1951TIP3    H1 5806   4.180   0.353   4.032
 1951TIP3    H2 5807   4.147   0.434   4.155
 1952TIP3   OH2 5808   4.177   0.213   2.492
 1952TIP3    H1 5809   4.154   0.170   2.576
 1952TIP3    H2 5810   4.217   0.139   2.441
 1953TIP3   OH2 5811   4.464   0.293   3.732
 1953TIP3    H1 5812   4.376   0.337   3.727
 1953TIP3    H2 5813   4.507   0.325   3.649
 1954TIP3   OH2 5814   4.283   0.013   2.333
 1954TIP3    H1 5815   4.259   0.022   2.238
 1954TIP3    H2 5816   4.381   0.014   2.327
 1955TIP3   OH2 5817   4.966   0.676   3.858
 1955TIP3    H1 5818   5.044   0.649   3.808
 1955TIP3    H2 5819   4.966   0.614   3.933
 1956TIP3   OH2 5820   5.097   0.334   2.010
 1956TIP3    H1 5821   5.091   0.284   1.928
 1956TIP3    H2 5822   5.060   0.421   1.981
 1957TIP3   OH2 5823   4.562   0.074   3.845
 1957TIP3    H1 5824   4.556   0.013   3.771
 1957TIP3    H2 5825   4.526   0.156   3.802
 1958TIP3   OH2 5826   4.603   0.396   3.531
 1958TIP3    H1 5827   4.683   0.408   3.480
 1958TIP3    H2 5828   4.540   0.456   3.485
 1959TIP3   OH2 5829   5.195   0.350   3.917
 1959TIP3    H1 5830   5.194   0.279   3.850
 1959TIP3    H2 5831   5.258   0.414   3.881
 1960TIP3   OH2 5832   5.223   0.603   3.640
 1960TIP3    H1 5833   5.163   0.661   3.586
 1960TIP3    H2 5834   5.309   0.632   3.603
 1961TIP3   OH2 5835   4.458   0.185   4.085
 1961TIP3    H1 5836   4.398   0.120   4.121
 1961TIP3    H2 5837   4.486   0.145   4.001
 1962TIP3   OH2 5838   4.789   0.163   3.967
 1962TIP3    H1 5839   4.746   0.234   4.017
 1962TIP3    H2 5840   4.712   0.121   3.922
 1963TIP3   OH2 5841   5.131   0.109   3.778
 1963TIP3    H1 5842   5.058   0.048   3.794
 1963TIP3    H2 5843   5.191   0.075   3.850
 1964TIP3   OH2 5844   4.095   1.071   2.246
 1964TIP3    H1 5845   4.189   1.057   2.223
 1964TIP3    H2 5846   4.066   1.121   2.167
 1965TIP3   OH2 5847   3.570   0.451   2.454
 1965TIP3    H1 5848   3.666   0.471   2.441
 1965TIP3    H2 5849   3.563   0.363   2.413
 1966TIP3   OH2 5850   3.488   1.063   2.878
 1966TIP3    H1 5851   3.424   1.003   2.835
 1966TIP3    H2 5852   3.532   1.001   2.940
 1967TIP3   OH2 5853   3.622   0.901   3.060
 1967TIP3    H1 5854   3.605   0.836   3.130
 1967TIP3    H2 5855   3.675   0.966   3.109
 1968TIP3   OH2 5856   5.358   1.302   2.863
 1968TIP3    H1 5857   5.376   1.334   2.953
 1968TIP3    H2 5858   5.410   1.363   2.809
 1969TIP3   OH2 5859   5.376   1.329   3.144
 1969TIP3    H1 5860   5.329   1.243   3.141
 1969TIP3    H2 5861   5.450   1.306   3.202
 1970TIP3   OH2 5862   5.425   1.006   3.719
 1970TIP3    H1 5863   5.353   1.019   3.784
 1970TIP3    H2 5864   5.468   1.094   3.721
 1971TIP3   OH2 5865   5.242   0.517   2.335
 1971TIP3    H1 5866   5.304   0.585   2.302
 1971TIP3    H2 5867   5.290   0.482   2.413
 1972TIP3   OH2 5868   5.375   0.387   2.541
 1972TIP3    H1 5869   5.305   0.350   2.599
 1972TIP3    H2 5870   5.439   0.425   2.604
 1973TIP3   OH2 5871   5.428   0.783   2.970
 1973TIP3    H1 5872   5.478   0.711   2.926
 1973TIP3    H2 5873   5.422   0.850   2.900
 1974TIP3   OH2 5874   5.249   1.081   3.163
 1974TIP3    H1 5875   5.177   1.123   3.214
 1974TIP3    H2 5876   5.200   1.037   3.090
 1975TIP3   OH2 5877   5.304   0.297   2.182
 1975TIP3    H1 5878   5.231   0.300   2.115
 1975TIP3    H2 5879   5.275   0.373   2.238
 1976TIP3   OH2 5880   5.172  -0.027   2.141
 1976TIP3    H1 5881   5.186   0.024   2.059
 1976TIP3    H2 5882   5.145  -0.113   2.106
 1977TIP3   OH2 5883   5.182   0.257   2.686
 1977TIP3    H1 5884   5.184   0.161   2.674
 1977TIP3    H2 5885   5.163   0.266   2.782
 1978TIP3   OH2 5886   3.805   0.305   3.437
 1978TIP3    H1 5887   3.801   0.274   3.344
 1978TIP3    H2 5888   3.902   0.315   3.448
 1979TIP3   OH2 5889   5.467   0.674   3.541
 1979TIP3    H1 5890   5.537   0.606   3.524
 1979TIP3    H2 5891   5.489   0.743   3.475
 1980TIP3   OH2 5892   5.650   0.474   3.538
 1980TIP3    H1 5893   5.594   0.424   3.601
 1980TIP3    H2 5894   5.737   0.432   3.552
 1981TIP3   OH2 5895   5.169  -0.016   2.546
 1981TIP3    H1 5896   5.234  -0.056   2.607
 1981TIP3    H2 5897   5.225  -0.000   2.467
 1982TIP3   OH2 5898   5.344   0.157   3.079
 1982TIP3    H1 5899   5.431   0.170   3.036
 1982TIP3    H2 5900   5.359   0.200   3.165
 1983TIP3   OH2 5901   5.409   0.296   3.309
 1983TIP3    H1 5902   5.329   0.332   3.352
 1983TIP3    H2 5903   5.443   0.376   3.262
 1984TIP3   OH2 5904   4.084   0.062   4.091
 1984TIP3    H1 5905   4.165   0.011   4.093
 1984TIP3    H2 5906   4.023  -0.001   4.136
 1985TIP3   OH2 5907   3.801  -0.026   3.511
 1985TIP3    H1 5908   3.845  -0.034   3.424
 1985TIP3    H2 5909   3.809   0.069   3.527
 1986TIP3   OH2 5910   4.933   1.180   2.516
 1986TIP3    H1 5911   4.984   1.170   2.433
 1986TIP3    H2 5912   4.985   1.248   2.563
 1987TIP3   OH2 5913   4.032   0.982   3.897
 1987TIP3    H1 5914   3.937   0.963   3.881
 1987TIP3    H2 5915   4.039   0.969   3.992
 1988TIP3   OH2 5916   4.216   1.022   3.448
 1988TIP3    H1 5917   4.165   1.096   3.409
 1988TIP3    H2 5918   4.300   1.037   3.401
 1989TIP3   OH2 5919   4.648   1.257   3.581
 1989TIP3    H1 5920   4.690   1.257   3.670
 1989TIP3    H2 5921   4.713   1.311   3.531
 1990TIP3   OH2 5922   4.829   1.416   3.449
 1990TIP3    H1 5923   4.898   1.365   3.404
 1990TIP3    H2 5924   4.883   1.472   3.509
 1991TIP3   OH2 5925   3.892   1.269   3.477
 1991TIP3    H1 5926   3.800   1.294   3.454
 1991TIP3    H2 5927   3.904   1.324   3.556
 1992TIP3   OH2 5928   4.124   1.253   3.332
 1992TIP3    H1 5929   4.037   1.263   3.376
 1992TIP3    H2 5930   4.104   1.283   3.241
 1993TIP3   OH2 5931   4.547   1.275   3.130
 1993TIP3    H1 5932   4.476   1.290   3.065
 1993TIP3    H2 5933   4.557   1.364   3.170
 1994TIP3   OH2 5934   4.817   1.215   3.184
 1994TIP3    H1 5935   4.723   1.233   3.164
 1994TIP3    H2 5936   4.861   1.286   3.135
 1995TIP3   OH2 5937   5.022   1.407   3.091
 1995TIP3    H1 5938   5.007   1.491   3.043
 1995TIP3    H2 5939   5.048   1.346   3.018
 1996TIP3   OH2 5940   3.798   1.064   3.211
 1996TIP3    H1 5941   3.821   1.034   3.302
 1996TIP3    H2 5942   3.872   1.022   3.162
 1997TIP3   OH2 5943   3.995   0.938   3.076
 1997TIP3    H1 5944   4.009   0.855   3.127
 1997TIP3    H2 5945   4.087   0.973   3.072
 1998TIP3   OH2 5946   4.264   1.029   3.082
 1998TIP3    H1 5947   4.291   0.936   3.072
 1998TIP3    H2 5948   4.313   1.051   3.163
 1999TIP3   OH2 5949   3.584   0.846   2.600
 1999TIP3    H1 5950   3.497   0.813   2.570
 1999TIP3    H2 5951   3.577   0.938   2.568
 2000TIP3   OH2 5952   4.359   1.018   2.188
 2000TIP3    H1 5953   4.447   1.043   2.151
 2000TIP3    H2 5954   4.337   0.944   2.128
 2001TIP3   OH2 5955   5.081   1.147   2.285
 2001TIP3    H1 5956   5.075   1.049   2.275
 2001TIP3    H2 5957   5.033   1.176   2.205
 2002TIP3   OH2 5958   3.662   0.859   2.241
 2002TIP3    H1 5959   3.664   0.874   2.336
 2002TIP3    H2 5960   3.748   0.815   2.224
 2003TIP3   OH2 5961   5.298   1.286   3.468
 2003TIP3    H1 5962   5.220   1.258   3.416
 2003TIP3    H2 5963   5.279   1.382   3.477
 2004TIP3   OH2 5964   6.578   0.660   2.218
 2004TIP3    H1 5965   6.576   0.756   2.226
 2004TIP3    H2 5966   6.489   0.638   2.185
 2005TIP3   OH2 5967   6.560   0.662   2.622
 2005TIP3    H1 5968   6.602   0.652   2.710
 2005TIP3    H2 5969   6.527   0.571   2.610
 2006TIP3   OH2 5970   5.865   0.565   2.972
 2006TIP3    H1 5971   5.901   0.503   3.039
 2006TIP3    H2 5972   5.944   0.577   2.916
 2007TIP3   OH2 5973   6.832   0.939   2.331
 2007TIP3    H1 5974   6.814   0.895   2.415
 2007TIP3    H2 5975   6.852   1.030   2.357
 2008TIP3   OH2 5976   5.838   0.968   2.720
 2008TIP3    H1 5977   5.836   0.878   2.680
 2008TIP3    H2 5978   5.934   0.977   2.729
 2009TIP3   OH2 5979   5.530   0.156   2.495
 2009TIP3    H1 5980   5.487   0.241   2.517
 2009TIP3    H2 5981   5.462   0.118   2.437
 2010TIP3   OH2 5982   5.615   0.458   2.671
 2010TIP3    H1 5983   5.661   0.376   2.699
 2010TIP3    H2 5984   5.682   0.498   2.613
 2011TIP3   OH2 5985   6.477   1.426   2.321
 2011TIP3    H1 5986   6.505   1.357   2.257
 2011TIP3    H2 5987   6.463   1.371   2.399
 2012TIP3   OH2 5988   6.365   0.891   2.667
 2012TIP3    H1 5989   6.407   0.810   2.632
 2012TIP3    H2 5990   6.447   0.940   2.691
 2013TIP3   OH2 5991   6.791   0.379   2.714
 2013TIP3    H1 5992   6.826   0.291   2.734
 2013TIP3    H2 5993   6.752   0.366   2.626
 2014TIP3   OH2 5994   6.128   0.082   2.689
 2014TIP3    H1 5995   6.100   0.147   2.621
 2014TIP3    H2 5996   6.115  -0.002   2.640
 2015TIP3   OH2 5997   5.749   0.241   2.766
 2015TIP3    H1 5998   5.826   0.218   2.823
 2015TIP3    H2 5999   5.771   0.186   2.688
 2016TIP3   OH2 6000   6.223   0.808   2.886
 2016TIP3    H1 6001   6.166   0.880   2.920
 2016TIP3    H2 6002   6.268   0.851   2.810
 2017TIP3   OH2 6003   5.974   0.167   2.899
 2017TIP3    H1 6004   6.040   0.231   2.931
 2017TIP3    H2 6005   6.024   0.124   2.827
 2018TIP3   OH2 6006   6.053   1.009   2.983
 2018TIP3    H1 6007   6.028   1.100   2.954
 2018TIP3    H2 6008   5.974   0.987   3.036
 2019TIP3   OH2 6009   5.431   0.697   2.221
 2019TIP3    H1 6010   5.393   0.717   2.133
 2019TIP3    H2 6011   5.467   0.784   2.248
 2020TIP3   OH2 6012   6.880   1.213   2.470
 2020TIP3    H1 6013   6.788   1.203   2.504
 2020TIP3    H2 6014   6.872   1.297   2.420
 2021TIP3   OH2 6015   6.568   1.240   2.145
 2021TIP3    H1 6016   6.584   1.161   2.088
 2021TIP3    H2 6017   6.628   1.302   2.099
 2022TIP3   OH2 6018   7.105   1.113   2.812
 2022TIP3    H1 6019   7.097   1.042   2.744
 2022TIP3    H2 6020   7.102   1.193   2.757
 2023TIP3   OH2 6021   6.409   0.506   2.042
 2023TIP3    H1 6022   6.323   0.550   2.030
 2023TIP3    H2 6023   6.466   0.556   1.981
 2024TIP3   OH2 6024   6.759   0.580   2.022
 2024TIP3    H1 6025   6.703   0.615   2.094
 2024TIP3    H2 6026   6.837   0.549   2.074
 2025TIP3   OH2 6027   6.959   0.622   2.954
 2025TIP3    H1 6028   6.966   0.706   3.002
 2025TIP3    H2 6029   6.882   0.638   2.897
 2026TIP3   OH2 6030   6.123   1.009   2.583
 2026TIP3    H1 6031   6.082   0.922   2.570
 2026TIP3    H2 6032   6.216   0.983   2.599
 2027TIP3   OH2 6033   6.099   0.569   2.821
 2027TIP3    H1 6034   6.071   0.589   2.730
 2027TIP3    H2 6035   6.154   0.647   2.841
 2028TIP3   OH2 6036   6.635   1.204   2.587
 2028TIP3    H1 6037   6.629   1.282   2.645
 2028TIP3    H2 6038   6.623   1.129   2.649
 2029TIP3   OH2 6039   6.256   1.120   3.134
 2029TIP3    H1 6040   6.193   1.180   3.179
 2029TIP3    H2 6041   6.194   1.067   3.080
 2030TIP3   OH2 6042   6.019   0.671   3.255
 2030TIP3    H1 6043   6.020   0.762   3.290
 2030TIP3    H2 6044   5.923   0.657   3.244
 2031TIP3   OH2 6045   6.284   1.178   2.177
 2031TIP3    H1 6046   6.381   1.173   2.169
 2031TIP3    H2 6047   6.259   1.224   2.095
 2032TIP3   OH2 6048   6.047   1.283   3.220
 2032TIP3    H1 6049   6.013   1.290   3.129
 2032TIP3    H2 6050   5.966   1.263   3.272
 2033TIP3   OH2 6051   5.844   0.399   2.202
 2033TIP3    H1 6052   5.763   0.448   2.177
 2033TIP3    H2 6053   5.826   0.373   2.293
 2034TIP3   OH2 6054   5.626   0.823   3.166
 2034TIP3    H1 6055   5.557   0.803   3.099
 2034TIP3    H2 6056   5.666   0.736   3.183
 2035TIP3   OH2 6057   5.481   1.017   2.794
 2035TIP3    H1 6058   5.578   1.015   2.804
 2035TIP3    H2 6059   5.458   1.093   2.850
 2036TIP3   OH2 6060   7.299   1.447   2.838
 2036TIP3    H1 6061   7.333   1.365   2.876
 2036TIP3    H2 6062   7.225   1.468   2.900
 2037TIP3   OH2 6063   6.449   1.249   2.991
 2037TIP3    H1 6064   6.444   1.342   3.022
 2037TIP3    H2 6065   6.378   1.207   3.044
 2038TIP3   OH2 6066   6.211   1.367   1.948
 2038TIP3    H1 6067   6.179   1.357   1.856
 2038TIP3    H2 6068   6.184   1.458   1.970
 2039TIP3   OH2 6069   5.662   1.208   2.318
 2039TIP3    H1 6070   5.691   1.218   2.410
 2039TIP3    H2 6071   5.592   1.141   2.323
 2040TIP3   OH2 6072   6.411   1.282   1.580
 2040TIP3    H1 6073   6.471   1.214   1.543
 2040TIP3    H2 6074   6.447   1.291   1.671
 2041TIP3   OH2 6075   6.465   1.330   1.843
 2041TIP3    H1 6076   6.388   1.327   1.903
 2041TIP3    H2 6077   6.513   1.248   1.871
 2042TIP3   OH2 6078   5.830   1.006   3.146
 2042TIP3    H1 6079   5.879   0.990   3.229
 2042TIP3    H2 6080   5.756   0.942   3.154
 2043TIP3   OH2 6081   7.024   0.358   3.015
 2043TIP3    H1 6082   6.998   0.386   3.104
 2043TIP3    H2 6083   7.016   0.442   2.967
 2044TIP3   OH2 6084   6.178   0.342   2.967
 2044TIP3    H1 6085   6.123   0.374   3.041
 2044TIP3    H2 6086   6.164   0.416   2.903
 2045TIP3   OH2 6087   6.036   0.201   2.465
 2045TIP3    H1 6088   5.944   0.175   2.483
 2045TIP3    H2 6089   6.053   0.160   2.379
 2046TIP3   OH2 6090   6.548   0.317   2.211
 2046TIP3    H1 6091   6.497   0.396   2.183
 2046TIP3    H2 6092   6.588   0.294   2.125
 2047TIP3   OH2 6093   6.717   0.612   3.258
 2047TIP3    H1 6094   6.681   0.551   3.327
 2047TIP3    H2 6095   6.809   0.622   3.287
 2048TIP3   OH2 6096   6.710   0.349   2.443
 2048TIP3    H1 6097   6.641   0.379   2.380
 2048TIP3    H2 6098   6.756   0.284   2.389
 2049TIP3   OH2 6099   5.980   0.388   3.152
 2049TIP3    H1 6100   6.004   0.443   3.229
 2049TIP3    H2 6101   5.947   0.306   3.192
 2050TIP3   OH2 6102   5.537  -0.108   2.260
 2050TIP3    H1 6103   5.575  -0.056   2.186
 2050TIP3    H2 6104   5.474  -0.043   2.295
 2051TIP3   OH2 6105   6.681   0.587   2.852
 2051TIP3    H1 6106   6.722   0.515   2.798
 2051TIP3    H2 6107   6.655   0.534   2.930
 2052TIP3   OH2 6108   6.363   0.065   2.518
 2052TIP3    H1 6109   6.284   0.083   2.572
 2052TIP3    H2 6110   6.427   0.039   2.588
 2053TIP3   OH2 6111   5.790   0.099   2.530
 2053TIP3    H1 6112   5.697   0.125   2.509
 2053TIP3    H2 6113   5.779   0.003   2.534
 2054TIP3   OH2 6114   6.100   0.062   2.207
 2054TIP3    H1 6115   6.194   0.092   2.217
 2054TIP3    H2 6116   6.060   0.134   2.155
 2055TIP3   OH2 6117   5.932   0.154   1.952
 2055TIP3    H1 6118   5.843   0.147   1.988
 2055TIP3    H2 6119   5.950   0.062   1.925
 2056TIP3   OH2 6120   7.037   1.820   2.962
 2056TIP3    H1 6121   7.032   1.836   2.866
 2056TIP3    H2 6122   7.117   1.869   2.986
 2057TIP3   OH2 6123   5.992   0.927   3.374
 2057TIP3    H1 6124   6.073   0.956   3.421
 2057TIP3    H2 6125   5.928   0.927   3.447
 2058TIP3   OH2 6126   6.481   0.391   2.656
 2058TIP3    H1 6127   6.502   0.320   2.594
 2058TIP3    H2 6128   6.466   0.341   2.739
 2059TIP3   OH2 6129   6.441   0.275   2.915
 2059TIP3    H1 6130   6.351   0.304   2.938
 2059TIP3    H2 6131   6.497   0.329   2.974
 2060TIP3   OH2 6132   6.172   0.656   2.020
 2060TIP3    H1 6133   6.104   0.589   1.999
 2060TIP3    H2 6134   6.135   0.697   2.101
 2061TIP3   OH2 6135   7.058   0.912   2.630
 2061TIP3    H1 6136   7.075   0.919   2.536
 2061TIP3    H2 6137   6.977   0.857   2.630
 2062TIP3   OH2 6138   6.565   0.984   3.011
 2062TIP3    H1 6139   6.603   0.969   3.099
 2062TIP3    H2 6140   6.531   1.075   3.017
 2063TIP3   OH2 6141   6.314   0.812   1.832
 2063TIP3    H1 6142   6.287   0.903   1.858
 2063TIP3    H2 6143   6.269   0.759   1.901
 2064TIP3   OH2 6144   5.746   0.609   3.300
 2064TIP3    H1 6145   5.762   0.600   3.396
 2064TIP3    H2 6146   5.671   0.550   3.287
 2065TIP3   OH2 6147   6.473   0.733   3.319
 2065TIP3    H1 6148   6.413   0.671   3.275
 2065TIP3    H2 6149   6.559   0.703   3.282
 2066TIP3   OH2 6150   6.724   1.249   2.910
 2066TIP3    H1 6151   6.628   1.247   2.923
 2066TIP3    H2 6152   6.752   1.301   2.988
 2067TIP3   OH2 6153   6.841   1.128   1.710
 2067TIP3    H1 6154   6.777   1.121   1.785
 2067TIP3    H2 6155   6.831   1.039   1.674
 2068TIP3   OH2 6156   6.826   0.764   2.565
 2068TIP3    H1 6157   6.733   0.734   2.570
 2068TIP3    H2 6158   6.867   0.687   2.520
 2069TIP3   OH2 6159   5.532   0.294   2.024
 2069TIP3    H1 6160   5.572   0.382   2.042
 2069TIP3    H2 6161   5.452   0.299   2.081
 2070TIP3   OH2 6162   6.089   0.777   2.254
 2070TIP3    H1 6163   6.168   0.816   2.292
 2070TIP3    H2 6164   6.040   0.748   2.334
 2071TIP3   OH2 6165   6.237   1.334   2.782
 2071TIP3    H1 6166   6.279   1.407   2.732
 2071TIP3    H2 6167   6.314   1.295   2.826
 2072TIP3   OH2 6168   6.616   0.970   2.743
 2072TIP3    H1 6169   6.608   0.967   2.841
 2072TIP3    H2 6170   6.695   0.916   2.728
 2073TIP3   OH2 6171   6.553   0.925   1.646
 2073TIP3    H1 6172   6.578   0.972   1.729
 2073TIP3    H2 6173   6.489   0.862   1.683
 2074TIP3   OH2 6174   6.865   1.503   2.798
 2074TIP3    H1 6175   6.787   1.444   2.792
 2074TIP3    H2 6176   6.850   1.563   2.722
 2075TIP3   OH2 6177   6.913   1.343   1.448
 2075TIP3    H1 6178   6.945   1.435   1.450
 2075TIP3    H2 6179   6.820   1.358   1.471
 2076TIP3   OH2 6180   5.676   1.193   2.939
 2076TIP3    H1 6181   5.729   1.128   2.987
 2076TIP3    H2 6182   5.695   1.274   2.988
 2077TIP3   OH2 6183   5.943   0.874   1.627
 2077TIP3    H1 6184   5.950   0.793   1.574
 2077TIP3    H2 6185   5.934   0.841   1.718
 2078TIP3   OH2 6186   5.910   0.853   1.907
 2078TIP3    H1 6187   5.998   0.834   1.942
 2078TIP3    H2 6188   5.907   0.951   1.913
 2079TIP3   OH2 6189   5.630   0.544   2.105
 2079TIP3    H1 6190   5.563   0.589   2.161
 2079TIP3    H2 6191   5.643   0.612   2.036
 2080TIP3   OH2 6192   6.165   1.045   1.863
 2080TIP3    H1 6193   6.082   1.084   1.894
 2080TIP3    H2 6194   6.193   1.111   1.798
 2081TIP3   OH2 6195   6.359   0.112   2.253
 2081TIP3    H1 6196   6.425   0.182   2.241
 2081TIP3    H2 6197   6.362   0.099   2.350
 2082TIP3   OH2 6198   6.636   0.425   3.066
 2082TIP3    H1 6199   6.654   0.488   3.140
 2082TIP3    H2 6200   6.722   0.383   3.055
 2083TIP3   OH2 6201   5.906   1.133   1.919
 2083TIP3    H1 6202   5.878   1.180   1.837
 2083TIP3    H2 6203   5.898   1.206   1.982
 2084TIP3   OH2 6204   6.926   0.524   2.453
 2084TIP3    H1 6205   6.845   0.470   2.452
 2084TIP3    H2 6206   6.987   0.468   2.502
 2085TIP3   OH2 6207   5.639   0.742   1.906
 2085TIP3    H1 6208   5.714   0.804   1.913
 2085TIP3    H2 6209   5.675   0.681   1.838
 2086TIP3   OH2 6210   5.619   0.033   2.043
 2086TIP3    H1 6211   5.585   0.124   2.032
 2086TIP3    H2 6212   5.602  -0.008   1.956
 2087TIP3   OH2 6213   6.886   1.482   2.387
 2087TIP3    H1 6214   6.840   1.527   2.312
 2087TIP3    H2 6215   6.978   1.512   2.369
 2088TIP3   OH2 6216   5.510   0.965   2.292
 2088TIP3    H1 6217   5.448   0.983   2.364
 2088TIP3    H2 6218   5.465   1.009   2.216
 2089TIP3   OH2 6219   5.667   1.518   3.366
 2089TIP3    H1 6220   5.753   1.520   3.413
 2089TIP3    H2 6221   5.649   1.423   3.364
 2090TIP3   OH2 6222   6.136   1.463   3.412
 2090TIP3    H1 6223   6.232   1.448   3.416
 2090TIP3    H2 6224   6.112   1.400   3.340
 2091TIP3   OH2 6225   6.125   1.059   1.544
 2091TIP3    H1 6226   6.069   0.988   1.582
 2091TIP3    H2 6227   6.194   1.007   1.499
 2092TIP3   OH2 6228   6.775   1.381   3.149
 2092TIP3    H1 6229   6.771   1.309   3.216
 2092TIP3    H2 6230   6.854   1.430   3.177
 2093TIP3   OH2 6231   6.557   1.094   1.443
 2093TIP3    H1 6232   6.571   1.027   1.515
 2093TIP3    H2 6233   6.644   1.099   1.403
 2094TIP3   OH2 6234   5.790   0.915   3.566
 2094TIP3    H1 6235   5.806   0.819   3.572
 2094TIP3    H2 6236   5.704   0.918   3.520
 2095TIP3   OH2 6237   5.776   0.561   1.758
 2095TIP3    H1 6238   5.839   0.531   1.826
 2095TIP3    H2 6239   5.832   0.561   1.679
 2096TIP3   OH2 6240   6.396   1.004   3.342
 2096TIP3    H1 6241   6.358   1.026   3.255
 2096TIP3    H2 6242   6.428   0.912   3.328
 2097TIP3   OH2 6243   6.258   0.764   1.574
 2097TIP3    H1 6244   6.268   0.784   1.670
 2097TIP3    H2 6245   6.284   0.670   1.574
 2098TIP3   OH2 6246   6.892   1.018   2.956
 2098TIP3    H1 6247   6.970   1.053   2.908
 2098TIP3    H2 6248   6.825   1.084   2.931
 2099TIP3   OH2 6249   5.905   0.653   3.555
 2099TIP3    H1 6250   5.984   0.617   3.513
 2099TIP3    H2 6251   5.942   0.685   3.641
 2100TIP3   OH2 6252   5.975   0.458   1.975
 2100TIP3    H1 6253   5.932   0.459   2.063
 2100TIP3    H2 6254   5.980   0.361   1.963
 2101TIP3   OH2 6255   6.253   0.537   3.212
 2101TIP3    H1 6256   6.173   0.594   3.214
 2101TIP3    H2 6257   6.302   0.573   3.135
 2102TIP3   OH2 6258   6.767   0.935   3.346
 2102TIP3    H1 6259   6.832   0.889   3.290
 2102TIP3    H2 6260   6.756   0.872   3.419
 2103TIP3   OH2 6261   6.347   0.322   3.331
 2103TIP3    H1 6262   6.372   0.269   3.254
 2103TIP3    H2 6263   6.309   0.401   3.286
 2104TIP3   OH2 6264   6.398   0.644   3.019
 2104TIP3    H1 6265   6.479   0.649   2.967
 2104TIP3    H2 6266   6.340   0.709   2.972
 2105TIP3   OH2 6267   6.967   0.635   3.389
 2105TIP3    H1 6268   6.972   0.544   3.354
 2105TIP3    H2 6269   7.052   0.672   3.361
 2106TIP3   OH2 6270   7.032   0.872   3.135
 2106TIP3    H1 6271   6.969   0.925   3.081
 2106TIP3    H2 6272   7.112   0.883   3.082
 2107TIP3   OH2 6273   6.226   0.441   3.565
 2107TIP3    H1 6274   6.202   0.354   3.597
 2107TIP3    H2 6275   6.275   0.420   3.484
 2108TIP3   OH2 6276   6.585   0.438   3.409
 2108TIP3    H1 6277   6.592   0.398   3.498
 2108TIP3    H2 6278   6.501   0.398   3.380
 2109TIP3   OH2 6279   6.937   0.390   3.273
 2109TIP3    H1 6280   6.855   0.348   3.303
 2109TIP3    H2 6281   7.002   0.335   3.322
 2110TIP3   OH2 6282   5.888   1.322   1.722
 2110TIP3    H1 6283   5.985   1.318   1.708
 2110TIP3    H2 6284   5.863   1.375   1.645
 2111TIP3   OH2 6285   5.368   0.706   1.947
 2111TIP3    H1 6286   5.461   0.728   1.927
 2111TIP3    H2 6287   5.361   0.616   1.907
 2112TIP3   OH2 6288   5.288   1.314   2.364
 2112TIP3    H1 6289   5.221   1.257   2.320
 2112TIP3    H2 6290   5.330   1.250   2.425
 2113TIP3   OH2 6291   5.427   1.154   2.544
 2113TIP3    H1 6292   5.406   1.091   2.616
 2113TIP3    H2 6293   5.475   1.222   2.595
 2114TIP3   OH2 6294   7.125   1.608   2.339
 2114TIP3    H1 6295   7.205   1.606   2.393
 2114TIP3    H2 6296   7.158   1.592   2.249
 2115TIP3   OH2 6297   7.170   1.592   2.649
 2115TIP3    H1 6298   7.124   1.512   2.616
 2115TIP3    H2 6299   7.220   1.551   2.723
 2116TIP3   OH2 6300   7.214   1.242   3.216
 2116TIP3    H1 6301   7.142   1.264   3.277
 2116TIP3    H2 6302   7.262   1.326   3.210
 2117TIP3   OH2 6303   7.051   1.338   2.649
 2117TIP3    H1 6304   6.977   1.374   2.701
 2117TIP3    H2 6305   7.004   1.290   2.578
 2118TIP3   OH2 6306   6.962   0.490   2.179
 2118TIP3    H1 6307   7.013   0.410   2.194
 2118TIP3    H2 6308   6.959   0.528   2.269
 2119TIP3   OH2 6309   5.600   0.571   2.921
 2119TIP3    H1 6310   5.599   0.534   2.830
 2119TIP3    H2 6311   5.697   0.579   2.936
 2120TIP3   OH2 6312   5.867   0.305   3.561
 2120TIP3    H1 6313   5.957   0.285   3.591
 2120TIP3    H2 6314   5.815   0.243   3.617
 2121TIP3   OH2 6315   5.598   0.228   2.999
 2121TIP3    H1 6316   5.639   0.220   2.911
 2121TIP3    H2 6317   5.622   0.318   3.022
 2122TIP3   OH2 6318   6.717   1.435   2.013
 2122TIP3    H1 6319   6.764   1.419   1.928
 2122TIP3    H2 6320   6.780   1.490   2.062
 2123TIP3   OH2 6321   5.826   1.243   3.382
 2123TIP3    H1 6322   5.732   1.221   3.370
 2123TIP3    H2 6323   5.840   1.224   3.476
 2124TIP3   OH2 6324   6.011   1.279   2.933
 2124TIP3    H1 6325   5.965   1.357   2.895
 2124TIP3    H2 6326   6.098   1.292   2.888
 2125TIP3   OH2 6327   6.443   1.516   3.071
 2125TIP3    H1 6328   6.487   1.514   3.159
 2125TIP3    H2 6329   6.509   1.568   3.019
 2126TIP3   OH2 6330   6.623   1.672   2.935
 2126TIP3    H1 6331   6.689   1.622   2.885
 2126TIP3    H2 6332   6.680   1.726   2.994
 2127TIP3   OH2 6333   5.679   1.526   2.962
 2127TIP3    H1 6334   5.588   1.557   2.941
 2127TIP3    H2 6335   5.699   1.582   3.038
 2128TIP3   OH2 6336   5.916   1.508   2.819
 2128TIP3    H1 6337   5.828   1.519   2.860
 2128TIP3    H2 6338   5.900   1.542   2.729
 2129TIP3   OH2 6339   6.341   1.532   2.620
 2129TIP3    H1 6340   6.278   1.551   2.549
 2129TIP3    H2 6341   6.355   1.621   2.659
 2130TIP3   OH2 6342   6.613   1.474   2.675
 2130TIP3    H1 6343   6.520   1.489   2.649
 2130TIP3    H2 6344   6.660   1.536   2.617
 2131TIP3   OH2 6345   6.818   1.662   2.579
 2131TIP3    H1 6346   6.802   1.745   2.530
 2131TIP3    H2 6347   6.846   1.602   2.507
 2132TIP3   OH2 6348   5.606   1.315   2.693
 2132TIP3    H1 6349   5.622   1.289   2.786
 2132TIP3    H2 6350   5.680   1.269   2.650
 2133TIP3   OH2 6351   5.809   1.167   2.548
 2133TIP3    H1 6352   5.815   1.106   2.625
 2133TIP3    H2 6353   5.892   1.219   2.559
 2134TIP3   OH2 6354   6.057   1.278   2.577
 2134TIP3    H1 6355   6.096   1.189   2.562
 2134TIP3    H2 6356   6.113   1.307   2.653
 2135TIP3   OH2 6357   5.378   1.103   2.095
 2135TIP3    H1 6358   5.293   1.068   2.062
 2135TIP3    H2 6359   5.373   1.193   2.056
 2136TIP3   OH2 6360   6.157   1.290   1.681
 2136TIP3    H1 6361   6.245   1.310   1.644
 2136TIP3    H2 6362   6.135   1.213   1.623
 2137TIP3   OH2 6363   6.858   1.394   1.772
 2137TIP3    H1 6364   6.854   1.297   1.757
 2137TIP3    H2 6365   6.810   1.427   1.693
 2138TIP3   OH2 6366   5.461   1.116   1.726
 2138TIP3    H1 6367   5.465   1.134   1.821
 2138TIP3    H2 6368   5.548   1.073   1.710
 2139TIP3   OH2 6369   7.076   1.545   2.970
 2139TIP3    H1 6370   7.002   1.518   2.912
 2139TIP3    H2 6371   7.063   1.642   2.972
 2140TIP3   OH2 6372   7.047   1.572   1.852
 2140TIP3    H1 6373   6.986   1.501   1.823
 2140TIP3    H2 6374   7.080   1.540   1.937
 2141TIP3   OH2 6375   0.820   1.708   3.406
 2141TIP3    H1 6376   0.784   1.796   3.382
 2141TIP3    H2 6377   0.749   1.651   3.372
 2142TIP3   OH2 6378   0.817   1.708   3.802
 2142TIP3    H1 6379   0.857   1.688   3.889
 2142TIP3    H2 6380   0.779   1.622   3.778
 2143TIP3   OH2 6381   0.120   1.608   4.154
 2143TIP3    H1 6382   0.151   1.536   4.212
 2143TIP3    H2 6383   0.197   1.666   4.156
 2144TIP3   OH2 6384   1.066   2.015   3.477
 2144TIP3    H1 6385   1.047   1.947   3.543
 2144TIP3    H2 6386   1.097   2.089   3.533
 2145TIP3   OH2 6387   0.093   2.009   3.877
 2145TIP3    H1 6388   0.083   1.912   3.879
 2145TIP3    H2 6389   0.190   2.018   3.873
 2146TIP3   OH2 6390  -0.136   1.503   3.839
 2146TIP3    H1 6391  -0.092   1.422   3.871
 2146TIP3    H2 6392  -0.064   1.556   3.803
 2147TIP3   OH2 6393   0.717   2.471   3.494
 2147TIP3    H1 6394   0.757   2.398   3.443
 2147TIP3    H2 6395   0.704   2.430   3.580
 2148TIP3   OH2 6396   0.616   1.932   3.840
 2148TIP3    H1 6397   0.662   1.854   3.804
 2148TIP3    H2 6398   0.695   1.983   3.866
 2149TIP3   OH2 6399   1.037   1.432   3.865
 2149TIP3    H1 6400   1.065   1.341   3.888
 2149TIP3    H2 6401   0.994   1.415   3.779
 2150TIP3   OH2 6402   0.366   1.086   3.838
 2150TIP3    H1 6403   0.339   1.141   3.761
 2150TIP3    H2 6404   0.344   0.996   3.809
 2151TIP3   OH2 6405   1.069   1.192   3.460
 2151TIP3    H1 6406   1.143   1.174   3.522
 2151TIP3    H2 6407   1.118   1.223   3.381
 2152TIP3   OH2 6408  -0.013   1.275   3.956
 2152TIP3    H1 6409   0.074   1.265   3.999
 2152TIP3    H2 6410  -0.016   1.195   3.902
 2153TIP3   OH2 6411   0.444   1.484   3.739
 2153TIP3    H1 6412   0.540   1.470   3.754
 2153TIP3    H2 6413   0.413   1.394   3.719
 2154TIP3   OH2 6414   1.643   1.403   4.046
 2154TIP3    H1 6415   1.580   1.477   4.030
 2154TIP3    H2 6416   1.705   1.447   4.107
 2155TIP3   OH2 6417   0.360   1.080   4.265
 2155TIP3    H1 6418   0.302   1.124   4.200
 2155TIP3    H2 6419   0.298   1.061   4.337
 2156TIP3   OH2 6420   0.703   1.924   3.276
 2156TIP3    H1 6421   0.670   1.916   3.186
 2156TIP3    H2 6422   0.658   2.007   3.305
 2157TIP3   OH2 6423   0.468   1.855   4.059
 2157TIP3    H1 6424   0.410   1.925   4.096
 2157TIP3    H2 6425   0.513   1.901   3.985
 2158TIP3   OH2 6426   1.270   1.191   3.640
 2158TIP3    H1 6427   1.234   1.150   3.721
 2158TIP3    H2 6428   1.314   1.271   3.674
 2159TIP3   OH2 6429   0.235   1.204   4.051
 2159TIP3    H1 6430   0.303   1.272   4.072
 2159TIP3    H2 6431   0.282   1.152   3.982
 2160TIP3   OH2 6432   0.299   2.052   4.164
 2160TIP3    H1 6433   0.276   2.141   4.130
 2160TIP3    H2 6434   0.219   2.036   4.219
 2161TIP3   OH2 6435   1.128   2.256   3.637
 2161TIP3    H1 6436   1.039   2.247   3.677
 2161TIP3    H2 6437   1.120   2.344   3.594
 2162TIP3   OH2 6438   0.721   0.800   3.981
 2162TIP3    H1 6439   0.707   0.710   4.015
 2162TIP3    H2 6440   0.645   0.845   4.026
 2163TIP3   OH2 6441   0.826   2.296   3.306
 2163TIP3    H1 6442   0.877   2.214   3.291
 2163TIP3    H2 6443   0.889   2.361   3.269
 2164TIP3   OH2 6444   0.975   2.082   3.227
 2164TIP3    H1 6445   0.942   1.999   3.190
 2164TIP3    H2 6446   1.015   2.052   3.311
 2165TIP3   OH2 6447   1.355   2.161   3.984
 2165TIP3    H1 6448   1.342   2.085   3.924
 2165TIP3    H2 6449   1.337   2.237   3.925
 2166TIP3   OH2 6450   0.655   1.549   3.245
 2166TIP3    H1 6451   0.578   1.604   3.220
 2166TIP3    H2 6452   0.701   1.535   3.159
 2167TIP3   OH2 6453   1.550   1.804   3.837
 2167TIP3    H1 6454   1.466   1.855   3.839
 2167TIP3    H2 6455   1.582   1.829   3.747
 2168TIP3   OH2 6456   1.005   1.655   3.213
 2168TIP3    H1 6457   0.949   1.673   3.292
 2168TIP3    H2 6458   1.087   1.624   3.256
 2169TIP3   OH2 6459   1.232   1.677   4.127
 2169TIP3    H1 6460   1.225   1.759   4.179
 2169TIP3    H2 6461   1.145   1.676   4.084
 2170TIP3   OH2 6462   0.244   1.641   3.643
 2170TIP3    H1 6463   0.212   1.581   3.575
 2170TIP3    H2 6464   0.321   1.591   3.679
 2171TIP3   OH2 6465   0.362   2.051   3.776
 2171TIP3    H1 6466   0.343   2.021   3.686
 2171TIP3    H2 6467   0.450   2.011   3.793
 2172TIP3   OH2 6468   0.364   1.613   3.980
 2172TIP3    H1 6469   0.405   1.586   3.895
 2172TIP3    H2 6470   0.409   1.697   4.001
 2173TIP3   OH2 6471   0.889   2.247   3.762
 2173TIP3    H1 6472   0.877   2.328   3.816
 2173TIP3    H2 6473   0.873   2.175   3.826
 2174TIP3   OH2 6474   0.505   2.164   4.309
 2174TIP3    H1 6475   0.443   2.225   4.355
 2174TIP3    H2 6476   0.441   2.111   4.258
 2175TIP3   OH2 6477   0.846   1.505   3.053
 2175TIP3    H1 6478   0.905   1.558   3.111
 2175TIP3    H2 6479   0.866   1.548   2.966
 2176TIP3   OH2 6480   0.261   1.721   4.414
 2176TIP3    H1 6481   0.264   1.808   4.456
 2176TIP3    H2 6482   0.166   1.700   4.418
 2177TIP3   OH2 6483   0.584   2.170   3.303
 2177TIP3    H1 6484   0.668   2.221   3.312
 2177TIP3    H2 6485   0.520   2.239   3.285
 2178TIP3   OH2 6486   0.297   2.328   4.398
 2178TIP3    H1 6487   0.262   2.337   4.307
 2178TIP3    H2 6488   0.215   2.314   4.450
 2179TIP3   OH2 6489   1.351   0.749   3.083
 2179TIP3    H1 6490   1.270   0.766   3.135
 2179TIP3    H2 6491   1.346   0.821   3.016
 2180TIP3   OH2 6492   1.154   2.102   2.636
 2180TIP3    H1 6493   1.163   2.199   2.624
 2180TIP3    H2 6494   1.247   2.072   2.623
 2181TIP3   OH2 6495  -0.098   1.851   4.336
 2181TIP3    H1 6496  -0.163   1.815   4.274
 2181TIP3    H2 6497  -0.075   1.771   4.388
 2182TIP3   OH2 6498  -0.265   2.079   3.954
 2182TIP3    H1 6499  -0.177   2.040   3.945
 2182TIP3    H2 6500  -0.253   2.135   4.032
 2183TIP3   OH2 6501   1.594   2.514   4.036
 2183TIP3    H1 6502   1.593   2.418   4.052
 2183TIP3    H2 6503   1.510   2.540   4.081
 2184TIP3   OH2 6504   0.698   2.293   4.166
 2184TIP3    H1 6505   0.694   2.386   4.199
 2184TIP3    H2 6506   0.628   2.251   4.220
 2185TIP3   OH2 6507   0.463   2.424   3.117
 2185TIP3    H1 6508   0.400   2.417   3.044
 2185TIP3    H2 6509   0.435   2.508   3.158
 2186TIP3   OH2 6510  -0.092   2.277   3.509
 2186TIP3    H1 6511  -0.052   2.267   3.598
 2186TIP3    H2 6512  -0.148   2.197   3.504
 2187TIP3   OH2 6513   0.664   2.308   2.772
 2187TIP3    H1 6514   0.747   2.262   2.747
 2187TIP3    H2 6515   0.686   2.333   2.864
 2188TIP3   OH2 6516   0.714   2.377   3.027
 2188TIP3    H1 6517   0.627   2.388   3.072
 2188TIP3    H2 6518   0.768   2.341   3.099
 2189TIP3   OH2 6519   1.475   1.625   4.300
 2189TIP3    H1 6520   1.400   1.671   4.260
 2189TIP3    H2 6521   1.437   1.535   4.305
 2190TIP3   OH2 6522   0.079   2.057   4.334
 2190TIP3    H1 6523   0.135   2.028   4.409
 2190TIP3    H2 6524   0.009   1.987   4.334
 2191TIP3   OH2 6525   0.497   0.876   4.119
 2191TIP3    H1 6526   0.436   0.802   4.130
 2191TIP3    H2 6527   0.451   0.946   4.170
 2192TIP3   OH2 6528   1.024   0.990   4.311
 2192TIP3    H1 6529   1.092   0.958   4.374
 2192TIP3    H2 6530   0.941   0.974   4.359
 2193TIP3   OH2 6531   1.295   1.426   4.244
 2193TIP3    H1 6532   1.232   1.408   4.317
 2193TIP3    H2 6533   1.251   1.498   4.196
 2194TIP3   OH2 6534   0.921   1.608   2.816
 2194TIP3    H1 6535   0.892   1.534   2.760
 2194TIP3    H2 6536   1.010   1.627   2.781
 2195TIP3   OH2 6537   0.419   1.392   4.131
 2195TIP3    H1 6538   0.366   1.409   4.212
 2195TIP3    H2 6539   0.399   1.474   4.079
 2196TIP3   OH2 6540   0.297   1.252   3.626
 2196TIP3    H1 6541   0.206   1.245   3.596
 2196TIP3    H2 6542   0.347   1.232   3.545
 2197TIP3   OH2 6543   0.790   1.359   3.390
 2197TIP3    H1 6544   0.742   1.427   3.338
 2197TIP3    H2 6545   0.845   1.317   3.320
 2198TIP3   OH2 6546   0.959   1.630   4.459
 2198TIP3    H1 6547   0.936   1.559   4.523
 2198TIP3    H2 6548   1.052   1.645   4.483
 2199TIP3   OH2 6549   0.942   1.385   3.615
 2199TIP3    H1 6550   0.876   1.406   3.545
 2199TIP3    H2 6551   0.982   1.306   3.571
 2200TIP3   OH2 6552   0.233   1.428   4.327
 2200TIP3    H1 6553   0.262   1.465   4.411
 2200TIP3    H2 6554   0.168   1.360   4.355
 2201TIP3   OH2 6555   0.953   1.627   4.031
 2201TIP3    H1 6556   0.987   1.555   3.972
 2201TIP3    H2 6557   0.920   1.573   4.106
 2202TIP3   OH2 6558   0.639   1.108   3.720
 2202TIP3    H1 6559   0.562   1.090   3.777
 2202TIP3    H2 6560   0.713   1.083   3.779
 2203TIP3   OH2 6561   1.098   1.168   3.905
 2203TIP3    H1 6562   1.082   1.181   4.001
 2203TIP3    H2 6563   1.027   1.105   3.883
 2204TIP3   OH2 6564   1.291   2.858   4.135
 2204TIP3    H1 6565   1.289   2.886   4.042
 2204TIP3    H2 6566   1.372   2.903   4.166
 2205TIP3   OH2 6567   0.243   1.971   4.549
 2205TIP3    H1 6568   0.324   1.996   4.596
 2205TIP3    H2 6569   0.179   1.969   4.622
 2206TIP3   OH2 6570   0.704   1.431   3.808
 2206TIP3    H1 6571   0.771   1.383   3.758
 2206TIP3    H2 6572   0.703   1.383   3.893
 2207TIP3   OH2 6573   0.684   1.333   4.087
 2207TIP3    H1 6574   0.592   1.361   4.106
 2207TIP3    H2 6575   0.737   1.393   4.143
 2208TIP3   OH2 6576   0.424   1.696   3.194
 2208TIP3    H1 6577   0.339   1.707   3.149
 2208TIP3    H2 6578   0.402   1.733   3.283
 2209TIP3   OH2 6579   1.315   1.946   3.814
 2209TIP3    H1 6580   1.340   1.998   3.735
 2209TIP3    H2 6581   1.231   1.904   3.786
 2210TIP3   OH2 6582   0.813   2.028   4.190
 2210TIP3    H1 6583   0.851   2.014   4.277
 2210TIP3    H2 6584   0.777   2.118   4.197
 2211TIP3   OH2 6585   0.939   1.263   3.180
 2211TIP3    H1 6586   1.036   1.271   3.177
 2211TIP3    H2 6587   0.910   1.328   3.114
 2212TIP3   OH2 6588   0.108   1.730   3.867
 2212TIP3    H1 6589   0.157   1.704   3.787
 2212TIP3    H2 6590   0.155   1.681   3.937
 2213TIP3   OH2 6591   0.564   1.867   3.028
 2213TIP3    H1 6592   0.511   1.950   3.027
 2213TIP3    H2 6593   0.513   1.813   3.092
 2214TIP3   OH2 6594  -0.015   1.648   4.504
 2214TIP3    H1 6595   0.033   1.657   4.589
 2214TIP3    H2 6596  -0.094   1.596   4.531
 2215TIP3   OH2 6597   0.720   1.772   4.498
 2215TIP3    H1 6598   0.655   1.706   4.469
 2215TIP3    H2 6599   0.804   1.732   4.467
 2216TIP3   OH2 6600   0.973   2.288   4.087
 2216TIP3    H1 6601   0.877   2.289   4.102
 2216TIP3    H2 6602   1.003   2.341   4.165
 2217TIP3   OH2 6603   1.377   1.367   3.002
 2217TIP3    H1 6604   1.315   1.324   2.939
 2217TIP3    H2 6605   1.379   1.456   2.959
 2218TIP3   OH2 6606   1.605   2.223   4.073
 2218TIP3    H1 6607   1.508   2.216   4.064
 2218TIP3    H2 6608   1.632   2.193   3.983
 2219TIP3   OH2 6609   1.071   2.181   2.900
 2219TIP3    H1 6610   1.058   2.115   2.970
 2219TIP3    H2 6611   1.103   2.128   2.825
 2220TIP3   OH2 6612   1.082   1.810   3.728
 2220TIP3    H1 6613   0.989   1.787   3.744
 2220TIP3    H2 6614   1.115   1.727   3.687
 2221TIP3   OH2 6615   0.211   2.041   3.489
 2221TIP3    H1 6616   0.203   2.122   3.436
 2221TIP3    H2 6617   0.120   2.028   3.517
 2222TIP3   OH2 6618   0.333   1.800   3.428
 2222TIP3    H1 6619   0.301   1.892   3.443
 2222TIP3    H2 6620   0.312   1.759   3.513
 2223TIP3   OH2 6621   0.486   2.379   3.959
 2223TIP3    H1 6622   0.529   2.452   3.911
 2223TIP3    H2 6623   0.562   2.342   4.008
 2224TIP3   OH2 6624   0.130   2.276   3.347
 2224TIP3    H1 6625   0.046   2.286   3.396
 2224TIP3    H2 6626   0.162   2.369   3.348
 2225TIP3   OH2 6627   0.864   2.016   3.922
 2225TIP3    H1 6628   0.851   2.015   4.020
 2225TIP3    H2 6629   0.944   1.964   3.913
 2226TIP3   OH2 6630   0.846   1.921   2.805
 2226TIP3    H1 6631   0.911   1.898   2.876
 2226TIP3    H2 6632   0.767   1.882   2.845
 2227TIP3   OH2 6633   1.116   2.542   3.969
 2227TIP3    H1 6634   1.035   2.488   3.965
 2227TIP3    H2 6635   1.099   2.607   3.897
 2228TIP3   OH2 6636   1.182   2.379   2.622
 2228TIP3    H1 6637   1.224   2.454   2.576
 2228TIP3    H2 6638   1.101   2.423   2.654
 2229TIP3   OH2 6639   1.012   1.854   3.013
 2229TIP3    H1 6640   0.995   1.784   3.081
 2229TIP3    H2 6641   1.109   1.843   3.004
 2230TIP3   OH2 6642  -0.080   2.236   4.121
 2230TIP3    H1 6643  -0.022   2.173   4.165
 2230TIP3    H2 6644  -0.059   2.318   4.168
 2231TIP3   OH2 6645   0.210   1.869   3.062
 2231TIP3    H1 6646   0.189   1.904   3.150
 2231TIP3    H2 6647   0.151   1.924   3.007
 2232TIP3   OH2 6648   1.055   1.224   4.175
 2232TIP3    H1 6649   1.121   1.258   4.237
 2232TIP3    H2 6650   1.030   1.140   4.220
 2233TIP3   OH2 6651   0.922   0.991   3.336
 2233TIP3    H1 6652   0.894   1.045   3.261
 2233TIP3    H2 6653   0.965   1.060   3.391
 2234TIP3   OH2 6654   0.422   2.094   2.995
 2234TIP3    H1 6655   0.335   2.091   3.041
 2234TIP3    H2 6656   0.437   2.190   2.998
 2235TIP3   OH2 6657   0.619   1.150   3.447
 2235TIP3    H1 6658   0.675   1.229   3.433
 2235TIP3    H2 6659   0.618   1.143   3.545
 2236TIP3   OH2 6660   0.881   1.469   4.241
 2236TIP3    H1 6661   0.906   1.522   4.320
 2236TIP3    H2 6662   0.931   1.387   4.255
 2237TIP3   OH2 6663   0.768   0.893   3.564
 2237TIP3    H1 6664   0.732   0.980   3.587
 2237TIP3    H2 6665   0.820   0.913   3.484
 2238TIP3   OH2 6666   0.185   2.168   3.101
 2238TIP3    H1 6667   0.138   2.229   3.041
 2238TIP3    H2 6668   0.161   2.204   3.188
 2239TIP3   OH2 6669   1.173   1.557   3.616
 2239TIP3    H1 6670   1.091   1.506   3.626
 2239TIP3    H2 6671   1.235   1.505   3.670
 2240TIP3   OH2 6672   1.139   2.526   3.560
 2240TIP3    H1 6673   1.097   2.572   3.484
 2240TIP3    H2 6674   1.234   2.545   3.541
 2241TIP3   OH2 6675  -0.244   2.049   3.474
 2241TIP3    H1 6676  -0.321   2.058   3.531
 2241TIP3    H2 6677  -0.284   2.033   3.387
 2242TIP3   OH2 6678  -0.054   2.575   4.508
 2242TIP3    H1 6679   0.020   2.580   4.572
 2242TIP3    H2 6680  -0.094   2.491   4.533
 2243TIP3   OH2 6681   0.387   2.507   4.589
 2243TIP3    H1 6682   0.482   2.493   4.594
 2243TIP3    H2 6683   0.362   2.445   4.518
 2244TIP3   OH2 6684   0.375   2.085   2.712
 2244TIP3    H1 6685   0.308   2.071   2.782
 2244TIP3    H2 6686   0.443   2.024   2.744
 2245TIP3   OH2 6687   1.029   2.422   4.320
 2245TIP3    H1 6688   1.023   2.353   4.391
 2245TIP3    H2 6689   1.106   2.475   4.351
 2246TIP3   OH2 6690   0.837   2.153   2.634
 2246TIP3    H1 6691   0.879   2.096   2.701
 2246TIP3    H2 6692   0.892   2.136   2.555
 2247TIP3   OH2 6693   0.036   1.952   4.737
 2247TIP3    H1 6694   0.070   1.860   4.740
 2247TIP3    H2 6695  -0.058   1.935   4.722
 2248TIP3   OH2 6696   0.646   2.049   4.517
 2248TIP3    H1 6697   0.606   2.070   4.431
 2248TIP3    H2 6698   0.677   1.956   4.504
 2249TIP3   OH2 6699   0.525   1.796   2.768
 2249TIP3    H1 6700   0.536   1.822   2.863
 2249TIP3    H2 6701   0.521   1.700   2.778
 2250TIP3   OH2 6702   1.138   2.061   4.126
 2250TIP3    H1 6703   1.216   2.101   4.083
 2250TIP3    H2 6704   1.071   2.130   4.109
 2251TIP3   OH2 6705   0.147   1.699   4.726
 2251TIP3    H1 6706   0.213   1.633   4.703
 2251TIP3    H2 6707   0.177   1.723   4.817
 2252TIP3   OH2 6708   0.506   1.585   4.392
 2252TIP3    H1 6709   0.423   1.637   4.387
 2252TIP3    H2 6710   0.553   1.616   4.311
 2253TIP3   OH2 6711   1.013   1.980   4.518
 2253TIP3    H1 6712   1.089   1.941   4.474
 2253TIP3    H2 6713   1.001   1.919   4.594
 2254TIP3   OH2 6714   1.161   1.657   2.677
 2254TIP3    H1 6715   1.123   1.598   2.609
 2254TIP3    H2 6716   1.124   1.742   2.646
 2255TIP3   OH2 6717   0.631   1.373   4.503
 2255TIP3    H1 6718   0.624   1.292   4.448
 2255TIP3    H2 6719   0.582   1.438   4.449
 2256TIP3   OH2 6720   0.618   1.162   4.317
 2256TIP3    H1 6721   0.649   1.199   4.232
 2256TIP3    H2 6722   0.525   1.137   4.295
 2257TIP3   OH2 6723   0.642   1.683   4.183
 2257TIP3    H1 6724   0.731   1.706   4.153
 2257TIP3    H2 6725   0.586   1.751   4.140
 2258TIP3   OH2 6726   1.220   1.652   4.568
 2258TIP3    H1 6727   1.269   1.574   4.599
 2258TIP3    H2 6728   1.292   1.712   4.540
 2259TIP3   OH2 6729   1.270   1.905   4.304
 2259TIP3    H1 6730   1.210   1.962   4.250
 2259TIP3    H2 6731   1.357   1.933   4.266
 2260TIP3   OH2 6732   0.525   1.515   4.727
 2260TIP3    H1 6733   0.450   1.454   4.743
 2260TIP3    H2 6734   0.555   1.485   4.639
 2261TIP3   OH2 6735   0.769   0.930   4.394
 2261TIP3    H1 6736   0.703   0.997   4.364
 2261TIP3    H2 6737   0.721   0.845   4.381
 2262TIP3   OH2 6738   0.885   1.412   4.603
 2262TIP3    H1 6739   0.865   1.397   4.697
 2262TIP3    H2 6740   0.796   1.392   4.566
 2263TIP3   OH2 6741   1.122   1.360   4.447
 2263TIP3    H1 6742   1.047   1.367   4.509
 2263TIP3    H2 6743   1.195   1.334   4.507
 2264TIP3   OH2 6744   1.355   1.311   4.603
 2264TIP3    H1 6745   1.363   1.215   4.621
 2264TIP3    H2 6746   1.343   1.349   4.693
 2265TIP3   OH2 6747   0.358   1.308   4.778
 2265TIP3    H1 6748   0.324   1.218   4.764
 2265TIP3    H2 6749   0.407   1.293   4.862
 2266TIP3   OH2 6750   0.840   0.927   4.658
 2266TIP3    H1 6751   0.907   0.857   4.648
 2266TIP3    H2 6752   0.808   0.932   4.565
 2267TIP3   OH2 6753   0.920   1.145   4.803
 2267TIP3    H1 6754   0.898   1.072   4.742
 2267TIP3    H2 6755   0.838   1.199   4.801
 2268TIP3   OH2 6756   0.130   2.368   2.908
 2268TIP3    H1 6757   0.225   2.367   2.887
 2268TIP3    H2 6758   0.095   2.405   2.825
 2269TIP3   OH2 6759  -0.448   2.356   3.515
 2269TIP3    H1 6760  -0.545   2.354   3.519
 2269TIP3    H2 6761  -0.423   2.299   3.591
 2270TIP3   OH2 6762  -0.340   2.220   3.731
 2270TIP3    H1 6763  -0.337   2.152   3.801
 2270TIP3    H2 6764  -0.288   2.289   3.776
 2271TIP3   OH2 6765   1.396   2.611   3.526
 2271TIP3    H1 6766   1.420   2.641   3.615
 2271TIP3    H2 6767   1.465   2.652   3.471
 2272TIP3   OH2 6768   1.421   2.631   3.808
 2272TIP3    H1 6769   1.376   2.543   3.805
 2272TIP3    H2 6770   1.496   2.608   3.865
 2273TIP3   OH2 6771   1.469   2.309   4.381
 2273TIP3    H1 6772   1.398   2.320   4.447
 2273TIP3    H2 6773   1.512   2.396   4.384
 2274TIP3   OH2 6774   1.287   1.824   2.997
 2274TIP3    H1 6775   1.355   1.888   2.965
 2274TIP3    H2 6776   1.331   1.788   3.077
 2275TIP3   OH2 6777   1.413   1.690   3.201
 2275TIP3    H1 6778   1.347   1.648   3.260
 2275TIP3    H2 6779   1.480   1.723   3.264
 2276TIP3   OH2 6780   1.472   2.085   3.631
 2276TIP3    H1 6781   1.524   2.014   3.587
 2276TIP3    H2 6782   1.471   2.155   3.564
 2277TIP3   OH2 6783   1.294   2.382   3.826
 2277TIP3    H1 6784   1.223   2.424   3.877
 2277TIP3    H2 6785   1.244   2.338   3.754
 2278TIP3   OH2 6786   1.357   1.598   2.855
 2278TIP3    H1 6787   1.289   1.608   2.785
 2278TIP3    H2 6788   1.330   1.671   2.914
 2279TIP3   OH2 6789   1.225   1.263   2.806
 2279TIP3    H1 6790   1.215   1.301   2.717
 2279TIP3    H2 6791   1.230   1.169   2.787
 2280TIP3   OH2 6792   1.224   1.548   3.345
 2280TIP3    H1 6793   1.228   1.452   3.332
 2280TIP3    H2 6794   1.210   1.556   3.442
 2281TIP3   OH2 6795  -0.150   1.579   4.113
 2281TIP3    H1 6796  -0.159   1.581   4.016
 2281TIP3    H2 6797  -0.054   1.598   4.124
 2282TIP3   OH2 6798   1.516   1.975   4.204
 2282TIP3    H1 6799   1.586   1.907   4.193
 2282TIP3    H2 6800   1.542   2.043   4.140
 2283TIP3   OH2 6801   1.691   1.767   4.209
 2283TIP3    H1 6802   1.621   1.710   4.247
 2283TIP3    H2 6803   1.768   1.708   4.216
 2284TIP3   OH2 6804   1.228   1.267   3.238
 2284TIP3    H1 6805   1.268   1.179   3.253
 2284TIP3    H2 6806   1.284   1.300   3.165
 2285TIP3   OH2 6807   1.406   1.405   3.756
 2285TIP3    H1 6808   1.472   1.447   3.696
 2285TIP3    H2 6809   1.398   1.478   3.822
 2286TIP3   OH2 6810   1.455   1.577   3.962
 2286TIP3    H1 6811   1.382   1.615   4.016
 2286TIP3    H2 6812   1.494   1.658   3.922
 2287TIP3   OH2 6813   1.900   1.166   4.520
 2287TIP3    H1 6814   1.965   1.102   4.484
 2287TIP3    H2 6815   1.889   1.228   4.446
 2288TIP3   OH2 6816   1.335   1.017   3.278
 2288TIP3    H1 6817   1.379   0.999   3.364
 2288TIP3    H2 6818   1.273   0.941   3.273
 2289TIP3   OH2 6819  -0.163   1.330   4.201
 2289TIP3    H1 6820  -0.119   1.303   4.118
 2289TIP3    H2 6821  -0.168   1.427   4.183
 2290TIP3   OH2 6822   1.775   1.334   4.339
 2290TIP3    H1 6823   1.721   1.373   4.412
 2290TIP3    H2 6824   1.711   1.278   4.295
 2291TIP3   OH2 6825   1.451   0.941   2.875
 2291TIP3    H1 6826   1.528   0.891   2.910
 2291TIP3    H2 6827   1.483   1.032   2.888
 2292TIP3   OH2 6828   0.971   2.482   3.174
 2292TIP3    H1 6829   1.029   2.476   3.096
 2292TIP3    H2 6830   1.019   2.545   3.231
 2293TIP3   OH2 6831   0.076   2.284   4.564
 2293TIP3    H1 6832   0.029   2.204   4.538
 2293TIP3    H2 6833   0.086   2.275   4.659
 2294TIP3   OH2 6834   0.260   2.321   4.110
 2294TIP3    H1 6835   0.211   2.397   4.071
 2294TIP3    H2 6836   0.346   2.336   4.064
 2295TIP3   OH2 6837   0.693   2.560   4.245
 2295TIP3    H1 6838   0.735   2.557   4.334
 2295TIP3    H2 6839   0.759   2.614   4.196
 2296TIP3   OH2 6840   0.875   2.717   4.111
 2296TIP3    H1 6841   0.946   2.666   4.070
 2296TIP3    H2 6842   0.927   2.774   4.172
 2297TIP3   OH2 6843  -0.056   2.569   4.143
 2297TIP3    H1 6844  -0.141   2.587   4.103
 2297TIP3    H2 6845  -0.061   2.617   4.227
 2298TIP3   OH2 6846   0.175   2.554   3.993
 2298TIP3    H1 6847   0.089   2.564   4.041
 2298TIP3    H2 6848   0.150   2.581   3.903
 2299TIP3   OH2 6849   0.593   2.578   3.792
 2299TIP3    H1 6850   0.519   2.593   3.730
 2299TIP3    H2 6851   0.603   2.666   3.834
 2300TIP3   OH2 6852   0.862   2.515   3.845
 2300TIP3    H1 6853   0.769   2.536   3.826
 2300TIP3    H2 6854   0.908   2.588   3.801
 2301TIP3   OH2 6855   1.062   2.706   3.754
 2301TIP3    H1 6856   1.052   2.791   3.707
 2301TIP3    H2 6857   1.093   2.646   3.682
 2302TIP3   OH2 6858  -0.152   2.370   3.879
 2302TIP3    H1 6859  -0.139   2.331   3.968
 2302TIP3    H2 6860  -0.082   2.322   3.830
 2303TIP3   OH2 6861   0.043   2.239   3.743
 2303TIP3    H1 6862   0.055   2.155   3.793
 2303TIP3    H2 6863   0.134   2.274   3.741
 2304TIP3   OH2 6864   0.310   2.329   3.747
 2304TIP3    H1 6865   0.338   2.235   3.741
 2304TIP3    H2 6866   0.359   2.355   3.827
 2305TIP3   OH2 6867   0.881   0.993   3.841
 2305TIP3    H1 6868   0.832   0.921   3.886
 2305TIP3    H2 6869   0.930   0.943   3.772
 2306TIP3   OH2 6870   1.392   0.903   3.748
 2306TIP3    H1 6871   1.428   0.933   3.662
 2306TIP3    H2 6872   1.297   0.896   3.728
 2307TIP3   OH2 6873   1.494   0.962   3.498
 2307TIP3    H1 6874   1.568   0.909   3.460
 2307TIP3    H2 6875   1.529   1.053   3.481
 2308TIP3   OH2 6876   0.570   0.777   3.712
 2308TIP3    H1 6877   0.640   0.805   3.649
 2308TIP3    H2 6878   0.619   0.774   3.795
 2309TIP3   OH2 6879   1.121   0.861   3.691
 2309TIP3    H1 6880   1.098   0.809   3.612
 2309TIP3    H2 6881   1.104   0.794   3.762
 2310TIP3   OH2 6882   1.146   0.812   3.266
 2310TIP3    H1 6883   1.065   0.862   3.285
 2310TIP3    H2 6884   1.124   0.727   3.309
 2311TIP3   OH2 6885   0.395   2.337   2.840
 2311TIP3    H1 6886   0.490   2.347   2.818
 2311TIP3    H2 6887   0.372   2.259   2.786
 2312TIP3   OH2 6888   1.122   2.447   2.944
 2312TIP3    H1 6889   1.110   2.350   2.935
 2312TIP3    H2 6890   1.076   2.478   2.864
 2313TIP3   OH2 6891   0.628   1.012   4.857
 2313TIP3    H1 6892   0.700   0.982   4.799
 2313TIP3    H2 6893   0.570   0.933   4.858
 2314TIP3   OH2 6894   1.408   1.041   4.644
 2314TIP3    H1 6895   1.421   1.009   4.737
 2314TIP3    H2 6896   1.500   1.033   4.610
 2315TIP3   OH2 6897   1.344   2.588   4.131
 2315TIP3    H1 6898   1.265   2.560   4.080
 2315TIP3    H2 6899   1.326   2.684   4.140
 2316TIP3   OH2 6900   2.615   1.969   2.890
 2316TIP3    H1 6901   2.580   2.057   2.866
 2316TIP3    H2 6902   2.541   1.912   2.862
 2317TIP3   OH2 6903   2.610   1.970   3.290
 2317TIP3    H1 6904   2.652   1.937   3.372
 2317TIP3    H2 6905   2.578   1.887   3.252
 2318TIP3   OH2 6906   1.908   1.855   3.649
 2318TIP3    H1 6907   1.937   1.787   3.712
 2318TIP3    H2 6908   1.991   1.899   3.629
 2319TIP3   OH2 6909   2.863   2.270   2.964
 2319TIP3    H1 6910   2.843   2.198   3.026
 2319TIP3    H2 6911   2.893   2.341   3.023
 2320TIP3   OH2 6912   1.887   2.267   3.362
 2320TIP3    H1 6913   1.879   2.169   3.363
 2320TIP3    H2 6914   1.984   2.276   3.357
 2321TIP3   OH2 6915   1.591   1.465   3.145
 2321TIP3    H1 6916   1.546   1.548   3.166
 2321TIP3    H2 6917   1.518   1.416   3.102
 2322TIP3   OH2 6918   1.647   1.754   3.333
 2322TIP3    H1 6919   1.697   1.676   3.364
 2322TIP3    H2 6920   1.711   1.797   3.275
 2323TIP3   OH2 6921   2.515   2.727   2.983
 2323TIP3    H1 6922   2.551   2.656   2.926
 2323TIP3    H2 6923   2.504   2.681   3.067
 2324TIP3   OH2 6924   2.411   2.189   3.328
 2324TIP3    H1 6925   2.455   2.110   3.294
 2324TIP3    H2 6926   2.492   2.240   3.352
 2325TIP3   OH2 6927   3.469   1.508   3.322
 2325TIP3    H1 6928   3.474   1.595   3.366
 2325TIP3    H2 6929   3.443   1.532   3.233
 2326TIP3   OH2 6930   2.161   1.348   3.327
 2326TIP3    H1 6931   2.151   1.420   3.261
 2326TIP3    H2 6932   2.115   1.276   3.280
 2327TIP3   OH2 6933   2.862   1.443   2.954
 2327TIP3    H1 6934   2.920   1.405   3.021
 2327TIP3    H2 6935   2.924   1.475   2.887
 2328TIP3   OH2 6936   1.795   1.547   3.433
 2328TIP3    H1 6937   1.879   1.531   3.480
 2328TIP3    H2 6938   1.812   1.494   3.352
 2329TIP3   OH2 6939   2.238   1.746   3.236
 2329TIP3    H1 6940   2.334   1.725   3.242
 2329TIP3    H2 6941   2.203   1.662   3.200
 2330TIP3   OH2 6942   3.518   1.725   3.499
 2330TIP3    H1 6943   3.436   1.775   3.476
 2330TIP3    H2 6944   3.506   1.722   3.595
 2331TIP3   OH2 6945   2.157   1.330   3.757
 2331TIP3    H1 6946   2.102   1.371   3.687
 2331TIP3    H2 6947   2.104   1.350   3.837
 2332TIP3   OH2 6948   2.497   2.184   2.762
 2332TIP3    H1 6949   2.460   2.174   2.673
 2332TIP3    H2 6950   2.450   2.265   2.793
 2333TIP3   OH2 6951   2.265   2.109   3.544
 2333TIP3    H1 6952   2.209   2.181   3.580
 2333TIP3    H2 6953   2.312   2.153   3.470
 2334TIP3   OH2 6954   2.032   1.449   3.543
 2334TIP3    H1 6955   2.094   1.522   3.565
 2334TIP3    H2 6956   2.080   1.409   3.466
 2335TIP3   OH2 6957   2.099   2.309   3.649
 2335TIP3    H1 6958   2.073   2.398   3.616
 2335TIP3    H2 6959   2.019   2.289   3.703
 2336TIP3   OH2 6960   1.484   1.997   2.885
 2336TIP3    H1 6961   1.448   2.027   2.800
 2336TIP3    H2 6962   1.519   2.081   2.922
 2337TIP3   OH2 6963   2.925   2.514   3.126
 2337TIP3    H1 6964   2.836   2.503   3.166
 2337TIP3    H2 6965   2.915   2.601   3.081
 2338TIP3   OH2 6966   2.507   1.039   3.477
 2338TIP3    H1 6967   2.491   0.945   3.499
 2338TIP3    H2 6968   2.432   1.082   3.524
 2339TIP3   OH2 6969   2.620   2.554   2.791
 2339TIP3    H1 6970   2.671   2.470   2.776
 2339TIP3    H2 6971   2.685   2.618   2.755
 2340TIP3   OH2 6972   2.769   2.339   2.714
 2340TIP3    H1 6973   2.734   2.256   2.678
 2340TIP3    H2 6974   2.810   2.308   2.798
 2341TIP3   OH2 6975   3.154   2.417   3.471
 2341TIP3    H1 6976   3.138   2.339   3.412
 2341TIP3    H2 6977   3.134   2.491   3.411
 2342TIP3   OH2 6978   2.443   1.816   2.732
 2342TIP3    H1 6979   2.365   1.870   2.708
 2342TIP3    H2 6980   2.491   1.811   2.647
 2343TIP3   OH2 6981   2.402   1.606   2.439
 2343TIP3    H1 6982   2.470   1.656   2.489
 2343TIP3    H2 6983   2.460   1.543   2.391
 2344TIP3   OH2 6984   3.353   2.073   3.316
 2344TIP3    H1 6985   3.263   2.112   3.322
 2344TIP3    H2 6986   3.375   2.092   3.222
 2345TIP3   OH2 6987   2.795   1.900   2.697
 2345TIP3    H1 6988   2.740   1.923   2.775
 2345TIP3    H2 6989   2.879   1.874   2.741
 2346TIP3   OH2 6990   3.022   1.953   3.597
 2346TIP3    H1 6991   3.015   2.021   3.666
 2346TIP3    H2 6992   2.933   1.952   3.560
 2347TIP3   OH2 6993   2.028   1.891   3.120
 2347TIP3    H1 6994   1.987   1.833   3.053
 2347TIP3    H2 6995   2.103   1.837   3.152
 2348TIP3   OH2 6996   2.155   2.307   3.263
 2348TIP3    H1 6997   2.138   2.276   3.173
 2348TIP3    H2 6998   2.243   2.268   3.281
 2349TIP3   OH2 6999   2.150   1.869   3.471
 2349TIP3    H1 7000   2.189   1.837   3.386
 2349TIP3    H2 7001   2.200   1.952   3.487
 2350TIP3   OH2 7002   2.685   2.505   3.249
 2350TIP3    H1 7003   2.674   2.583   3.305
 2350TIP3    H2 7004   2.669   2.431   3.311
 2351TIP3   OH2 7005   2.301   2.422   3.797
 2351TIP3    H1 7006   2.239   2.482   3.843
 2351TIP3    H2 7007   2.239   2.368   3.744
 2352TIP3   OH2 7008   2.626   1.760   2.531
 2352TIP3    H1 7009   2.688   1.818   2.580
 2352TIP3    H2 7010   2.655   1.778   2.438
 2353TIP3   OH2 7011   2.058   1.974   3.910
 2353TIP3    H1 7012   2.061   2.065   3.944
 2353TIP3    H2 7013   1.962   1.955   3.918
 2354TIP3   OH2 7014   2.378   2.432   2.801
 2354TIP3    H1 7015   2.464   2.479   2.803
 2354TIP3    H2 7016   2.320   2.495   2.757
 2355TIP3   OH2 7017   2.093   2.584   3.884
 2355TIP3    H1 7018   2.058   2.591   3.794
 2355TIP3    H2 7019   2.012   2.563   3.936
 2356TIP3   OH2 7020   3.149   0.991   2.580
 2356TIP3    H1 7021   3.066   1.014   2.625
 2356TIP3    H2 7022   3.164   1.072   2.526
 2357TIP3   OH2 7023   1.893   1.739   2.922
 2357TIP3    H1 7024   1.820   1.778   2.869
 2357TIP3    H2 7025   1.864   1.647   2.931
 2358TIP3   OH2 7026   2.949   2.359   2.124
 2358TIP3    H1 7027   2.958   2.456   2.111
 2358TIP3    H2 7028   3.043   2.331   2.113
 2359TIP3   OH2 7029   1.670   2.124   3.830
 2359TIP3    H1 7030   1.602   2.103   3.762
 2359TIP3    H2 7031   1.710   2.036   3.848
 2360TIP3   OH2 7032   1.528   2.315   3.458
 2360TIP3    H1 7033   1.624   2.308   3.451
 2360TIP3    H2 7034   1.520   2.390   3.518
 2361TIP3   OH2 7035   3.388   2.775   3.515
 2361TIP3    H1 7036   3.392   2.679   3.531
 2361TIP3    H2 7037   3.306   2.797   3.564
 2362TIP3   OH2 7038   2.494   2.551   3.653
 2362TIP3    H1 7039   2.490   2.643   3.686
 2362TIP3    H2 7040   2.424   2.508   3.707
 2363TIP3   OH2 7041   2.262   2.676   2.607
 2363TIP3    H1 7042   2.214   2.660   2.524
 2363TIP3    H2 7043   2.227   2.762   2.635
 2364TIP3   OH2 7044   1.696   2.525   2.994
 2364TIP3    H1 7045   1.744   2.519   3.080
 2364TIP3    H2 7046   1.651   2.439   2.991
 2365TIP3   OH2 7047   2.458   2.581   2.242
 2365TIP3    H1 7048   2.516   2.511   2.207
 2365TIP3    H2 7049   2.494   2.593   2.333
 2366TIP3   OH2 7050   2.512   2.631   2.510
 2366TIP3    H1 7051   2.424   2.640   2.553
 2366TIP3    H2 7052   2.565   2.594   2.583
 2367TIP3   OH2 7053   3.283   1.902   3.798
 2367TIP3    H1 7054   3.201   1.906   3.745
 2367TIP3    H2 7055   3.290   1.806   3.805
 2368TIP3   OH2 7056   1.876   2.304   3.810
 2368TIP3    H1 7057   1.924   2.290   3.894
 2368TIP3    H2 7058   1.801   2.242   3.819
 2369TIP3   OH2 7059   2.274   1.123   3.608
 2369TIP3    H1 7060   2.187   1.093   3.575
 2369TIP3    H2 7061   2.248   1.205   3.653
 2370TIP3   OH2 7062   2.813   1.237   3.788
 2370TIP3    H1 7063   2.883   1.217   3.852
 2370TIP3    H2 7064   2.731   1.224   3.840
 2371TIP3   OH2 7065   3.079   1.714   3.759
 2371TIP3    H1 7066   3.006   1.676   3.812
 2371TIP3    H2 7067   3.040   1.716   3.669
 2372TIP3   OH2 7068   2.717   1.807   2.285
 2372TIP3    H1 7069   2.672   1.790   2.200
 2372TIP3    H2 7070   2.804   1.838   2.254
 2373TIP3   OH2 7071   2.418   1.181   2.578
 2373TIP3    H1 7072   2.385   1.176   2.670
 2373TIP3    H2 7073   2.380   1.098   2.544
 2374TIP3   OH2 7074   2.204   1.647   3.620
 2374TIP3    H1 7075   2.159   1.671   3.703
 2374TIP3    H2 7076   2.189   1.728   3.566
 2375TIP3   OH2 7077   2.091   1.531   3.137
 2375TIP3    H1 7078   1.999   1.502   3.157
 2375TIP3    H2 7079   2.103   1.488   3.049
 2376TIP3   OH2 7080   2.578   1.611   2.862
 2376TIP3    H1 7081   2.531   1.684   2.816
 2376TIP3    H2 7082   2.636   1.577   2.790
 2377TIP3   OH2 7083   2.754   1.890   3.952
 2377TIP3    H1 7084   2.734   1.814   4.010
 2377TIP3    H2 7085   2.851   1.895   3.963
 2378TIP3   OH2 7086   2.712   1.641   3.102
 2378TIP3    H1 7087   2.657   1.655   3.022
 2378TIP3    H2 7088   2.762   1.563   3.072
 2379TIP3   OH2 7089   2.025   1.675   3.832
 2379TIP3    H1 7090   2.070   1.739   3.889
 2379TIP3    H2 7091   2.026   1.594   3.885
 2380TIP3   OH2 7092   2.069   1.154   2.542
 2380TIP3    H1 7093   2.063   1.150   2.640
 2380TIP3    H2 7094   1.994   1.212   2.521
 2381TIP3   OH2 7095   1.621   1.186   3.417
 2381TIP3    H1 7096   1.695   1.222   3.470
 2381TIP3    H2 7097   1.663   1.163   3.333
 2382TIP3   OH2 7098   1.580   1.178   2.935
 2382TIP3    H1 7099   1.628   1.208   2.855
 2382TIP3    H2 7100   1.522   1.255   2.950
 2383TIP3   OH2 7101   2.747   1.859   3.503
 2383TIP3    H1 7102   2.805   1.789   3.470
 2383TIP3    H2 7103   2.714   1.817   3.586
 2384TIP3   OH2 7104   2.413   1.371   3.194
 2384TIP3    H1 7105   2.347   1.357   3.264
 2384TIP3    H2 7106   2.492   1.326   3.230
 2385TIP3   OH2 7107   1.853   1.408   3.203
 2385TIP3    H1 7108   1.759   1.414   3.172
 2385TIP3    H2 7109   1.879   1.317   3.179
 2386TIP3   OH2 7110   2.112   1.401   2.897
 2386TIP3    H1 7111   2.208   1.415   2.880
 2386TIP3    H2 7112   2.070   1.423   2.811
 2387TIP3   OH2 7113   1.969   1.441   2.666
 2387TIP3    H1 7114   1.900   1.396   2.615
 2387TIP3    H2 7115   2.023   1.480   2.594
 2388TIP3   OH2 7116   3.077   3.111   3.618
 2388TIP3    H1 7117   3.076   3.140   3.525
 2388TIP3    H2 7118   3.162   3.150   3.648
 2389TIP3   OH2 7119   2.038   2.226   4.037
 2389TIP3    H1 7120   2.118   2.255   4.085
 2389TIP3    H2 7121   1.973   2.227   4.110
 2390TIP3   OH2 7122   2.509   1.687   3.291
 2390TIP3    H1 7123   2.584   1.661   3.234
 2390TIP3    H2 7124   2.516   1.623   3.364
 2391TIP3   OH2 7125   2.014   1.166   3.178
 2391TIP3    H1 7126   1.980   1.089   3.228
 2391TIP3    H2 7127   2.064   1.124   3.107
 2392TIP3   OH2 7128   2.475   1.575   3.594
 2392TIP3    H1 7129   2.387   1.617   3.599
 2392TIP3    H2 7130   2.534   1.640   3.636
 2393TIP3   OH2 7131   2.209   1.967   2.674
 2393TIP3    H1 7132   2.138   1.901   2.662
 2393TIP3    H2 7133   2.189   2.000   2.765
 2394TIP3   OH2 7134   3.109   2.204   3.302
 2394TIP3    H1 7135   3.131   2.254   3.221
 2394TIP3    H2 7136   3.027   2.157   3.277
 2395TIP3   OH2 7137   2.672   1.271   2.555
 2395TIP3    H1 7138   2.575   1.252   2.559
 2395TIP3    H2 7139   2.676   1.367   2.572
 2396TIP3   OH2 7140   2.609   2.284   3.676
 2396TIP3    H1 7141   2.651   2.271   3.762
 2396TIP3    H2 7142   2.574   2.375   3.683
 2397TIP3   OH2 7143   2.738   1.528   2.649
 2397TIP3    H1 7144   2.834   1.534   2.666
 2397TIP3    H2 7145   2.720   1.608   2.596
 2398TIP3   OH2 7146   1.906   1.989   3.349
 2398TIP3    H1 7147   1.945   1.962   3.263
 2398TIP3    H2 7148   1.962   1.938   3.410
 2399TIP3   OH2 7149   2.359   2.116   2.503
 2399TIP3    H1 7150   2.309   2.201   2.505
 2399TIP3    H2 7151   2.305   2.061   2.563
 2400TIP3   OH2 7152   1.791   1.911   3.968
 2400TIP3    H1 7153   1.809   1.895   4.063
 2400TIP3    H2 7154   1.719   1.847   3.951
 2401TIP3   OH2 7155   2.520   2.029   3.986
 2401TIP3    H1 7156   2.462   1.973   3.932
 2401TIP3    H2 7157   2.608   1.991   3.964
 2402TIP3   OH2 7158   2.770   2.549   3.573
 2402TIP3    H1 7159   2.673   2.546   3.587
 2402TIP3    H2 7160   2.798   2.600   3.652
 2403TIP3   OH2 7161   3.177   1.622   2.479
 2403TIP3    H1 7162   3.116   1.580   2.415
 2403TIP3    H2 7163   3.174   1.713   2.441
 2404TIP3   OH2 7164   3.404   2.489   3.554
 2404TIP3    H1 7165   3.307   2.476   3.552
 2404TIP3    H2 7166   3.428   2.451   3.467
 2405TIP3   OH2 7167   2.886   2.437   2.391
 2405TIP3    H1 7168   2.855   2.369   2.453
 2405TIP3    H2 7169   2.896   2.388   2.308
 2406TIP3   OH2 7170   2.874   2.071   3.216
 2406TIP3    H1 7171   2.781   2.047   3.232
 2406TIP3    H2 7172   2.906   1.989   3.172
 2407TIP3   OH2 7173   2.012   2.298   2.982
 2407TIP3    H1 7174   2.007   2.377   2.925
 2407TIP3    H2 7175   1.919   2.277   2.994
 2408TIP3   OH2 7176   1.574   1.596   2.686
 2408TIP3    H1 7177   1.620   1.679   2.708
 2408TIP3    H2 7178   1.502   1.597   2.752
 2409TIP3   OH2 7179   2.132   2.055   2.917
 2409TIP3    H1 7180   2.104   2.146   2.940
 2409TIP3    H2 7181   2.104   2.005   2.995
 2410TIP3   OH2 7182   2.281   2.635   3.446
 2410TIP3    H1 7183   2.324   2.708   3.396
 2410TIP3    H2 7184   2.357   2.597   3.492
 2411TIP3   OH2 7185   1.923   2.535   2.829
 2411TIP3    H1 7186   1.839   2.545   2.878
 2411TIP3    H2 7187   1.958   2.628   2.834
 2412TIP3   OH2 7188   2.660   2.275   3.408
 2412TIP3    H1 7189   2.649   2.271   3.505
 2412TIP3    H2 7190   2.737   2.218   3.395
 2413TIP3   OH2 7191   2.647   2.171   2.291
 2413TIP3    H1 7192   2.702   2.144   2.369
 2413TIP3    H2 7193   2.561   2.134   2.317
 2414TIP3   OH2 7194   2.913   2.799   3.456
 2414TIP3    H1 7195   2.832   2.744   3.454
 2414TIP3    H2 7196   2.894   2.863   3.384
 2415TIP3   OH2 7197   2.978   2.633   2.110
 2415TIP3    H1 7198   3.020   2.706   2.062
 2415TIP3    H2 7199   2.898   2.680   2.143
 2416TIP3   OH2 7200   2.008   1.403   3.982
 2416TIP3    H1 7201   1.925   1.431   4.023
 2416TIP3    H2 7202   2.053   1.361   4.057
 2417TIP3   OH2 7203   2.806   2.100   2.504
 2417TIP3    H1 7204   2.793   2.033   2.574
 2417TIP3    H2 7205   2.903   2.094   2.493
 2418TIP3   OH2 7206   1.715   2.497   3.604
 2418TIP3    H1 7207   1.773   2.430   3.645
 2418TIP3    H2 7208   1.738   2.575   3.654
 2419TIP3   OH2 7209   2.001   2.145   2.293
 2419TIP3    H1 7210   2.016   2.052   2.268
 2419TIP3    H2 7211   1.980   2.136   2.388
 2420TIP3   OH2 7212   1.945   2.150   2.565
 2420TIP3    H1 7213   2.024   2.121   2.613
 2420TIP3    H2 7214   1.949   2.248   2.575
 2421TIP3   OH2 7215   1.679   1.839   2.769
 2421TIP3    H1 7216   1.613   1.886   2.824
 2421TIP3    H2 7217   1.695   1.906   2.700
 2422TIP3   OH2 7218   2.832   1.513   3.680
 2422TIP3    H1 7219   2.894   1.512   3.604
 2422TIP3    H2 7220   2.837   1.422   3.711
 2423TIP3   OH2 7221   2.722   1.224   2.830
 2423TIP3    H1 7222   2.707   1.242   2.736
 2423TIP3    H2 7223   2.757   1.309   2.863
 2424TIP3   OH2 7224   2.216   2.345   2.510
 2424TIP3    H1 7225   2.128   2.368   2.547
 2424TIP3    H2 7226   2.232   2.423   2.455
 2425TIP3   OH2 7227   2.392   1.417   2.926
 2425TIP3    H1 7228   2.459   1.487   2.910
 2425TIP3    H2 7229   2.402   1.406   3.024
 2426TIP3   OH2 7230   2.673   1.726   3.728
 2426TIP3    H1 7231   2.708   1.767   3.810
 2426TIP3    H2 7232   2.731   1.646   3.721
 2427TIP3   OH2 7233   2.549   1.117   3.022
 2427TIP3    H1 7234   2.584   1.161   3.102
 2427TIP3    H2 7235   2.606   1.158   2.953
 2428TIP3   OH2 7236   1.963   2.422   2.582
 2428TIP3    H1 7237   1.934   2.493   2.521
 2428TIP3    H2 7238   1.948   2.464   2.670
 2429TIP3   OH2 7239   2.062   1.138   2.817
 2429TIP3    H1 7240   2.061   1.228   2.857
 2429TIP3    H2 7241   2.158   1.119   2.824
 2430TIP3   OH2 7242   3.321   1.615   3.699
 2430TIP3    H1 7243   3.230   1.632   3.731
 2430TIP3    H2 7244   3.299   1.599   3.605
 2431TIP3   OH2 7245   2.942   1.829   3.099
 2431TIP3    H1 7246   2.874   1.763   3.122
 2431TIP3    H2 7247   3.021   1.794   3.147
 2432TIP3   OH2 7248   1.681   2.043   2.569
 2432TIP3    H1 7249   1.757   2.104   2.579
 2432TIP3    H2 7250   1.721   1.982   2.504
 2433TIP3   OH2 7251   1.615   1.323   2.708
 2433TIP3    H1 7252   1.617   1.420   2.702
 2433TIP3    H2 7253   1.546   1.299   2.644
 2434TIP3   OH2 7254   2.935   2.784   3.047
 2434TIP3    H1 7255   2.892   2.831   2.972
 2434TIP3    H2 7256   3.030   2.800   3.026
 2435TIP3   OH2 7257   2.009   1.041   3.576
 2435TIP3    H1 7258   1.982   1.009   3.487
 2435TIP3    H2 7259   1.996   0.961   3.631
 2436TIP3   OH2 7260   1.541   2.262   2.952
 2436TIP3    H1 7261   1.489   2.294   3.026
 2436TIP3    H2 7262   1.501   2.310   2.876
 2437TIP3   OH2 7263   1.712   2.820   4.028
 2437TIP3    H1 7264   1.798   2.823   4.076
 2437TIP3    H2 7265   1.695   2.724   4.029
 2438TIP3   OH2 7266   2.183   2.765   4.074
 2438TIP3    H1 7267   2.278   2.746   4.080
 2438TIP3    H2 7268   2.156   2.702   4.004
 2439TIP3   OH2 7269   2.167   2.344   2.198
 2439TIP3    H1 7270   2.111   2.273   2.238
 2439TIP3    H2 7271   2.243   2.292   2.168
 2440TIP3   OH2 7272   2.822   2.680   3.810
 2440TIP3    H1 7273   2.818   2.610   3.879
 2440TIP3    H2 7274   2.900   2.732   3.838
 2441TIP3   OH2 7275   2.604   2.381   2.119
 2441TIP3    H1 7276   2.635   2.313   2.183
 2441TIP3    H2 7277   2.670   2.374   2.048
 2442TIP3   OH2 7278   1.836   2.216   4.229
 2442TIP3    H1 7279   1.850   2.120   4.238
 2442TIP3    H2 7280   1.749   2.219   4.183
 2443TIP3   OH2 7281   1.817   1.857   2.430
 2443TIP3    H1 7282   1.876   1.830   2.503
 2443TIP3    H2 7283   1.883   1.863   2.357
 2444TIP3   OH2 7284   2.441   2.304   4.005
 2444TIP3    H1 7285   2.403   2.327   3.917
 2444TIP3    H2 7286   2.474   2.213   3.991
 2445TIP3   OH2 7287   2.335   2.064   2.234
 2445TIP3    H1 7288   2.336   2.074   2.331
 2445TIP3    H2 7289   2.338   1.966   2.226
 2446TIP3   OH2 7290   2.934   2.320   3.613
 2446TIP3    H1 7291   3.013   2.356   3.569
 2446TIP3    H2 7292   2.868   2.389   3.593
 2447TIP3   OH2 7293   1.958   1.949   4.217
 2447TIP3    H1 7294   2.041   1.917   4.180
 2447TIP3    H2 7295   1.988   1.983   4.304
 2448TIP3   OH2 7296   2.013   1.772   2.637
 2448TIP3    H1 7297   1.993   1.732   2.723
 2448TIP3    H2 7298   2.056   1.698   2.589
 2449TIP3   OH2 7299   2.281   1.824   3.870
 2449TIP3    H1 7300   2.211   1.891   3.875
 2449TIP3    H2 7301   2.339   1.862   3.800
 2450TIP3   OH2 7302   2.126   1.569   2.482
 2450TIP3    H1 7303   2.103   1.575   2.387
 2450TIP3    H2 7304   2.224   1.568   2.477
 2451TIP3   OH2 7305   2.812   2.235   4.003
 2451TIP3    H1 7306   2.885   2.197   3.953
 2451TIP3    H2 7307   2.802   2.171   4.076
 2452TIP3   OH2 7308   2.941   1.893   2.152
 2452TIP3    H1 7309   2.918   1.846   2.069
 2452TIP3    H2 7310   2.904   1.982   2.130
 2453TIP3   OH2 7311   2.407   1.621   3.998
 2453TIP3    H1 7312   2.415   1.545   3.938
 2453TIP3    H2 7313   2.367   1.689   3.940
 2454TIP3   OH2 7314   2.416   1.409   3.812
 2454TIP3    H1 7315   2.449   1.453   3.730
 2454TIP3    H2 7316   2.324   1.387   3.786
 2455TIP3   OH2 7317   2.433   1.945   3.689
 2455TIP3    H1 7318   2.521   1.950   3.649
 2455TIP3    H2 7319   2.382   2.009   3.635
 2456TIP3   OH2 7320   3.027   1.913   4.062
 2456TIP3    H1 7321   3.042   1.820   4.039
 2456TIP3    H2 7322   3.098   1.957   4.013
 2457TIP3   OH2 7323   3.061   2.171   3.802
 2457TIP3    H1 7324   3.006   2.225   3.741
 2457TIP3    H2 7325   3.149   2.185   3.762
 2458TIP3   OH2 7326   2.294   1.727   4.234
 2458TIP3    H1 7327   2.226   1.659   4.250
 2458TIP3    H2 7328   2.327   1.701   4.145
 2459TIP3   OH2 7329   2.551   1.174   3.884
 2459TIP3    H1 7330   2.500   1.254   3.858
 2459TIP3    H2 7331   2.485   1.103   3.868
 2460TIP3   OH2 7332   2.666   1.670   4.093
 2460TIP3    H1 7333   2.650   1.655   4.188
 2460TIP3    H2 7334   2.578   1.647   4.057
 2461TIP3   OH2 7335   2.923   1.654   3.975
 2461TIP3    H1 7336   2.844   1.629   4.027
 2461TIP3    H2 7337   2.995   1.603   4.017
 2462TIP3   OH2 7338   3.160   1.568   4.103
 2462TIP3    H1 7339   3.167   1.471   4.115
 2462TIP3    H2 7340   3.150   1.602   4.194
 2463TIP3   OH2 7341   2.129   1.507   4.291
 2463TIP3    H1 7342   2.141   1.414   4.265
 2463TIP3    H2 7343   2.167   1.505   4.382
 2464TIP3   OH2 7344   2.637   1.178   4.143
 2464TIP3    H1 7345   2.704   1.108   4.134
 2464TIP3    H2 7346   2.601   1.179   4.052
 2465TIP3   OH2 7347   2.707   1.394   4.297
 2465TIP3    H1 7348   2.687   1.322   4.233
 2465TIP3    H2 7349   2.629   1.452   4.288
 2466TIP3   OH2 7350   1.935   2.626   2.394
 2466TIP3    H1 7351   2.029   2.612   2.374
 2466TIP3    H2 7352   1.909   2.679   2.317
 2467TIP3   OH2 7353   1.411   2.009   2.601
 2467TIP3    H1 7354   1.506   2.031   2.590
 2467TIP3    H2 7355   1.409   1.918   2.565
 2468TIP3   OH2 7356   1.329   2.616   3.028
 2468TIP3    H1 7357   1.265   2.555   2.986
 2468TIP3    H2 7358   1.374   2.555   3.091
 2469TIP3   OH2 7359   1.463   2.457   3.212
 2469TIP3    H1 7360   1.452   2.392   3.284
 2469TIP3    H2 7361   1.516   2.524   3.258
 2470TIP3   OH2 7362   3.196   2.860   3.014
 2470TIP3    H1 7363   3.215   2.896   3.103
 2470TIP3    H2 7364   3.256   2.912   2.958
 2471TIP3   OH2 7365   3.218   2.886   3.294
 2471TIP3    H1 7366   3.170   2.801   3.289
 2471TIP3    H2 7367   3.287   2.860   3.358
 2472TIP3   OH2 7368   3.265   2.566   3.866
 2472TIP3    H1 7369   3.194   2.576   3.933
 2472TIP3    H2 7370   3.307   2.655   3.868
 2473TIP3   OH2 7371   3.083   2.077   2.484
 2473TIP3    H1 7372   3.149   2.143   2.454
 2473TIP3    H2 7373   3.128   2.040   2.564
 2474TIP3   OH2 7374   3.209   1.945   2.691
 2474TIP3    H1 7375   3.141   1.903   2.748
 2474TIP3    H2 7376   3.272   1.980   2.757
 2475TIP3   OH2 7377   3.270   2.344   3.120
 2475TIP3    H1 7378   3.321   2.272   3.078
 2475TIP3    H2 7379   3.265   2.410   3.049
 2476TIP3   OH2 7380   3.091   2.639   3.312
 2476TIP3    H1 7381   3.019   2.680   3.364
 2476TIP3    H2 7382   3.041   2.593   3.241
 2477TIP3   OH2 7383   3.145   1.856   2.331
 2477TIP3    H1 7384   3.072   1.855   2.265
 2477TIP3    H2 7385   3.116   1.930   2.388
 2478TIP3   OH2 7386   3.015   1.527   2.281
 2478TIP3    H1 7387   2.967   1.552   2.201
 2478TIP3    H2 7388   2.996   1.431   2.282
 2479TIP3   OH2 7389   3.018   1.807   2.834
 2479TIP3    H1 7390   3.027   1.711   2.827
 2479TIP3    H2 7391   2.995   1.819   2.929
 2480TIP3   OH2 7392   1.644   1.872   3.585
 2480TIP3    H1 7393   1.641   1.838   3.493
 2480TIP3    H2 7394   1.741   1.877   3.599
 2481TIP3   OH2 7395   3.312   2.229   3.695
 2481TIP3    H1 7396   3.378   2.158   3.682
 2481TIP3    H2 7397   3.328   2.287   3.620
 2482TIP3   OH2 7398   3.498   2.030   3.694
 2482TIP3    H1 7399   3.419   1.981   3.726
 2482TIP3    H2 7400   3.568   1.964   3.718
 2483TIP3   OH2 7401   2.958   1.262   2.273
 2483TIP3    H1 7402   3.026   1.223   2.330
 2483TIP3    H2 7403   2.881   1.203   2.285
 2484TIP3   OH2 7404   3.020   1.522   2.726
 2484TIP3    H1 7405   3.059   1.432   2.736
 2484TIP3    H2 7406   3.075   1.556   2.653
 2485TIP3   OH2 7407   3.163   1.728   3.215
 2485TIP3    H1 7408   3.260   1.733   3.212
 2485TIP3    H2 7409   3.146   1.664   3.288
 2486TIP3   OH2 7410   3.282   1.855   3.484
 2486TIP3    H1 7411   3.187   1.858   3.507
 2486TIP3    H2 7412   3.287   1.924   3.415
 2487TIP3   OH2 7413   1.870   1.555   4.213
 2487TIP3    H1 7414   1.965   1.561   4.237
 2487TIP3    H2 7415   1.843   1.481   4.272
 2488TIP3   OH2 7416   3.702   1.437   4.006
 2488TIP3    H1 7417   3.762   1.372   3.962
 2488TIP3    H2 7418   3.667   1.485   3.928
 2489TIP3   OH2 7419   3.125   1.271   2.764
 2489TIP3    H1 7420   3.176   1.251   2.846
 2489TIP3    H2 7421   3.064   1.194   2.761
 2490TIP3   OH2 7422   1.832   1.254   3.581
 2490TIP3    H1 7423   1.893   1.178   3.586
 2490TIP3    H2 7424   1.894   1.328   3.571
 2491TIP3   OH2 7425   1.621   1.535   3.655
 2491TIP3    H1 7426   1.675   1.522   3.574
 2491TIP3    H2 7427   1.651   1.623   3.682
 2492TIP3   OH2 7428   3.568   1.564   3.807
 2492TIP3    H1 7429   3.482   1.609   3.819
 2492TIP3    H2 7430   3.537   1.490   3.751
 2493TIP3   OH2 7431   3.203   1.197   2.404
 2493TIP3    H1 7432   3.239   1.131   2.341
 2493TIP3    H2 7433   3.269   1.269   2.398
 2494TIP3   OH2 7434   1.615   1.032   3.162
 2494TIP3    H1 7435   1.524   1.025   3.193
 2494TIP3    H2 7436   1.605   1.093   3.085
 2495TIP3   OH2 7437   2.770   2.740   2.665
 2495TIP3    H1 7438   2.823   2.730   2.583
 2495TIP3    H2 7439   2.823   2.802   2.716
 2496TIP3   OH2 7440   1.872   2.541   4.046
 2496TIP3    H1 7441   1.777   2.521   4.034
 2496TIP3    H2 7442   1.884   2.527   4.140
 2497TIP3   OH2 7443   2.055   2.579   3.597
 2497TIP3    H1 7444   2.008   2.657   3.558
 2497TIP3    H2 7445   2.141   2.592   3.551
 2498TIP3   OH2 7446   2.489   2.818   3.733
 2498TIP3    H1 7447   2.532   2.814   3.822
 2498TIP3    H2 7448   2.556   2.870   3.683
 2499TIP3   OH2 7449   2.671   2.975   3.599
 2499TIP3    H1 7450   2.741   2.923   3.556
 2499TIP3    H2 7451   2.724   3.032   3.659
 2500TIP3   OH2 7452   3.473   1.320   3.700
 2500TIP3    H1 7453   3.383   1.307   3.665
 2500TIP3    H2 7454   3.511   1.230   3.687
 2501TIP3   OH2 7455   1.726   2.830   3.625
 2501TIP3    H1 7456   1.634   2.859   3.605
 2501TIP3    H2 7457   1.745   2.887   3.701
 2502TIP3   OH2 7458   1.962   2.811   3.483
 2502TIP3    H1 7459   1.874   2.821   3.525
 2502TIP3    H2 7460   1.944   2.841   3.392
 2503TIP3   OH2 7461   2.388   2.834   3.280
 2503TIP3    H1 7462   2.318   2.851   3.215
 2503TIP3    H2 7463   2.399   2.922   3.322
 2504TIP3   OH2 7464   2.658   2.774   3.334
 2504TIP3    H1 7465   2.565   2.792   3.313
 2504TIP3    H2 7466   2.704   2.845   3.287
 2505TIP3   OH2 7467   2.859   2.963   3.242
 2505TIP3    H1 7468   2.848   3.047   3.194
 2505TIP3    H2 7469   2.888   2.903   3.169
 2506TIP3   OH2 7470   1.638   2.621   3.364
 2506TIP3    H1 7471   1.664   2.592   3.453
 2506TIP3    H2 7472   1.711   2.580   3.313
 2507TIP3   OH2 7473   1.836   2.497   3.227
 2507TIP3    H1 7474   1.850   2.412   3.276
 2507TIP3    H2 7475   1.928   2.531   3.225
 2508TIP3   OH2 7476   2.104   2.585   3.234
 2508TIP3    H1 7477   2.132   2.492   3.225
 2508TIP3    H2 7478   2.155   2.609   3.314
 2509TIP3   OH2 7479   2.630   1.219   3.269
 2509TIP3    H1 7480   2.616   1.163   3.347
 2509TIP3    H2 7481   2.727   1.230   3.269
 2510TIP3   OH2 7482   3.191   1.119   3.213
 2510TIP3    H1 7483   3.229   1.176   3.142
 2510TIP3    H2 7484   3.099   1.153   3.218
 2511TIP3   OH2 7485   3.289   1.229   2.981
 2511TIP3    H1 7486   3.363   1.174   2.947
 2511TIP3    H2 7487   3.326   1.318   2.963
 2512TIP3   OH2 7488   1.921   0.950   3.329
 2512TIP3    H1 7489   1.829   0.918   3.334
 2512TIP3    H2 7490   1.969   0.865   3.324
 2513TIP3   OH2 7491   1.683   0.840   2.969
 2513TIP3    H1 7492   1.738   0.886   2.902
 2513TIP3    H2 7493   1.682   0.904   3.043
 2514TIP3   OH2 7494   2.371   0.987   3.215
 2514TIP3    H1 7495   2.418   1.031   3.143
 2514TIP3    H2 7496   2.415   1.023   3.293
 2515TIP3   OH2 7497   2.903   1.131   3.188
 2515TIP3    H1 7498   2.909   1.081   3.107
 2515TIP3    H2 7499   2.890   1.059   3.254
 2516TIP3   OH2 7500   2.944   1.061   2.759
 2516TIP3    H1 7501   2.859   1.104   2.778
 2516TIP3    H2 7502   2.929   0.973   2.800
 2517TIP3   OH2 7503   1.424   2.403   2.754
 2517TIP3    H1 7504   1.338   2.372   2.721
 2517TIP3    H2 7505   1.419   2.497   2.727
 2518TIP3   OH2 7506   1.827   0.988   2.754
 2518TIP3    H1 7507   1.866   0.918   2.697
 2518TIP3    H2 7508   1.908   1.038   2.780
 2519TIP3   OH2 7509   2.337   1.165   2.841
 2519TIP3    H1 7510   2.400   1.119   2.900
 2519TIP3    H2 7511   2.357   1.258   2.866
 2520TIP3   OH2 7512   2.200   2.575   2.340
 2520TIP3    H1 7513   2.287   2.600   2.303
 2520TIP3    H2 7514   2.178   2.501   2.280
 2521TIP3   OH2 7515   2.920   2.705   2.434
 2521TIP3    H1 7516   2.913   2.607   2.424
 2521TIP3    H2 7517   2.873   2.734   2.354
 2522TIP3   OH2 7518   2.126   1.225   4.217
 2522TIP3    H1 7519   2.094   1.154   4.276
 2522TIP3    H2 7520   2.221   1.227   4.244
 2523TIP3   OH2 7521   2.377   1.232   4.333
 2523TIP3    H1 7522   2.463   1.211   4.293
 2523TIP3    H2 7523   2.369   1.162   4.401
 2524TIP3   OH2 7524   1.502   2.412   2.392
 2524TIP3    H1 7525   1.514   2.433   2.485
 2524TIP3    H2 7526   1.588   2.369   2.370
 2525TIP3   OH2 7527   3.209   1.294   4.126
 2525TIP3    H1 7528   3.227   1.265   4.218
 2525TIP3    H2 7529   3.298   1.291   4.086
 2526TIP3   OH2 7530   3.141   2.845   3.615
 2526TIP3    H1 7531   3.063   2.815   3.566
 2526TIP3    H2 7532   3.119   2.940   3.627
 2527TIP3   OH2 7533   4.413   2.223   2.379
 2527TIP3    H1 7534   4.379   2.312   2.356
 2527TIP3    H2 7535   4.339   2.168   2.348
 2528TIP3   OH2 7536   4.410   2.222   2.775
 2528TIP3    H1 7537   4.450   2.197   2.861
 2528TIP3    H2 7538   4.370   2.137   2.749
 2529TIP3   OH2 7539   3.705   2.108   3.128
 2529TIP3    H1 7540   3.730   2.037   3.190
 2529TIP3    H2 7541   3.788   2.158   3.125
 2530TIP3   OH2 7542   4.660   2.525   2.451
 2530TIP3    H1 7543   4.641   2.458   2.518
 2530TIP3    H2 7544   4.688   2.601   2.505
 2531TIP3   OH2 7545   3.692   2.530   2.854
 2531TIP3    H1 7546   3.678   2.432   2.854
 2531TIP3    H2 7547   3.788   2.533   2.838
 2532TIP3   OH2 7548   3.389   1.727   2.630
 2532TIP3    H1 7549   3.337   1.806   2.654
 2532TIP3    H2 7550   3.319   1.673   2.589
 2533TIP3   OH2 7551   3.445   2.013   2.819
 2533TIP3    H1 7552   3.495   1.934   2.852
 2533TIP3    H2 7553   3.500   2.042   2.745
 2534TIP3   OH2 7554   4.313   2.983   2.469
 2534TIP3    H1 7555   4.350   2.913   2.411
 2534TIP3    H2 7556   4.300   2.934   2.551
 2535TIP3   OH2 7557   4.207   2.448   2.814
 2535TIP3    H1 7558   4.247   2.369   2.774
 2535TIP3    H2 7559   4.289   2.495   2.840
 2536TIP3   OH2 7560   5.228   1.764   2.813
 2536TIP3    H1 7561   5.257   1.848   2.853
 2536TIP3    H2 7562   5.249   1.778   2.720
 2537TIP3   OH2 7563   4.624   1.944   2.841
 2537TIP3    H1 7564   4.665   1.858   2.862
 2537TIP3    H2 7565   4.588   1.926   2.751
 2538TIP3   OH2 7566   3.967   1.606   2.806
 2538TIP3    H1 7567   3.943   1.678   2.744
 2538TIP3    H2 7568   3.917   1.532   2.767
 2539TIP3   OH2 7569   4.659   1.700   2.427
 2539TIP3    H1 7570   4.729   1.685   2.495
 2539TIP3    H2 7571   4.713   1.733   2.353
 2540TIP3   OH2 7572   3.597   1.808   2.917
 2540TIP3    H1 7573   3.678   1.786   2.966
 2540TIP3    H2 7574   3.609   1.751   2.838
 2541TIP3   OH2 7575   4.030   2.005   2.718
 2541TIP3    H1 7576   4.125   1.981   2.728
 2541TIP3    H2 7577   3.992   1.921   2.684
 2542TIP3   OH2 7578   5.300   1.976   2.981
 2542TIP3    H1 7579   5.214   2.019   2.963
 2542TIP3    H2 7580   5.317   2.008   3.071
 2543TIP3   OH2 7581   3.956   1.590   3.247
 2543TIP3    H1 7582   3.897   1.626   3.178
 2543TIP3    H2 7583   3.900   1.606   3.326
 2544TIP3   OH2 7584   4.299   2.442   2.251
 2544TIP3    H1 7585   4.251   2.426   2.169
 2544TIP3    H2 7586   4.254   2.524   2.283
 2545TIP3   OH2 7587   4.064   2.367   3.032
 2545TIP3    H1 7588   4.006   2.438   3.067
 2545TIP3    H2 7589   4.107   2.411   2.956
 2546TIP3   OH2 7590   4.857   1.706   2.613
 2546TIP3    H1 7591   4.836   1.664   2.697
 2546TIP3    H2 7592   4.908   1.785   2.641
 2547TIP3   OH2 7593   3.833   1.706   3.027
 2547TIP3    H1 7594   3.896   1.777   3.052
 2547TIP3    H2 7595   3.881   1.665   2.952
 2548TIP3   OH2 7596   3.899   2.572   3.139
 2548TIP3    H1 7597   3.856   2.647   3.095
 2548TIP3    H2 7598   3.823   2.539   3.192
 2549TIP3   OH2 7599   3.281   2.253   2.373
 2549TIP3    H1 7600   3.239   2.280   2.289
 2549TIP3    H2 7601   3.313   2.339   2.407
 2550TIP3   OH2 7602   4.711   2.765   2.598
 2550TIP3    H1 7603   4.624   2.757   2.643
 2550TIP3    H2 7604   4.704   2.855   2.561
 2551TIP3   OH2 7605   5.019   1.663   2.978
 2551TIP3    H1 7606   4.931   1.687   2.944
 2551TIP3    H2 7607   5.079   1.696   2.908
 2552TIP3   OH2 7608   4.307   1.302   2.965
 2552TIP3    H1 7609   4.288   1.208   2.982
 2552TIP3    H2 7610   4.231   1.344   3.011
 2553TIP3   OH2 7611   4.418   2.810   2.279
 2553TIP3    H1 7612   4.469   2.727   2.265
 2553TIP3    H2 7613   4.482   2.874   2.242
 2554TIP3   OH2 7614   4.566   2.594   2.202
 2554TIP3    H1 7615   4.519   2.515   2.174
 2554TIP3    H2 7616   4.609   2.563   2.285
 2555TIP3   OH2 7617   4.950   2.661   2.969
 2555TIP3    H1 7618   4.938   2.588   2.905
 2555TIP3    H2 7619   4.925   2.738   2.914
 2556TIP3   OH2 7620   4.243   2.072   2.221
 2556TIP3    H1 7621   4.162   2.124   2.199
 2556TIP3    H2 7622   4.286   2.066   2.133
 2557TIP3   OH2 7623   4.198   1.861   1.924
 2557TIP3    H1 7624   4.265   1.913   1.972
 2557TIP3    H2 7625   4.256   1.798   1.877
 2558TIP3   OH2 7626   5.144   2.318   2.805
 2558TIP3    H1 7627   5.059   2.367   2.808
 2558TIP3    H2 7628   5.174   2.342   2.715
 2559TIP3   OH2 7629   4.591   2.156   2.183
 2559TIP3    H1 7630   4.536   2.179   2.262
 2559TIP3    H2 7631   4.675   2.131   2.226
 2560TIP3   OH2 7632   4.822   2.189   3.107
 2560TIP3    H1 7633   4.819   2.273   3.157
 2560TIP3    H2 7634   4.736   2.192   3.060
 2561TIP3   OH2 7635   3.822   2.150   2.603
 2561TIP3    H1 7636   3.780   2.091   2.537
 2561TIP3    H2 7637   3.896   2.095   2.636
 2562TIP3   OH2 7638   3.953   2.566   2.749
 2562TIP3    H1 7639   3.930   2.535   2.660
 2562TIP3    H2 7640   4.040   2.523   2.764
 2563TIP3   OH2 7641   3.958   2.120   2.962
 2563TIP3    H1 7642   3.988   2.092   2.873
 2563TIP3    H2 7643   4.001   2.207   2.974
 2564TIP3   OH2 7644   4.479   2.762   2.737
 2564TIP3    H1 7645   4.471   2.841   2.792
 2564TIP3    H2 7646   4.466   2.688   2.800
 2565TIP3   OH2 7647   4.067   2.726   3.288
 2565TIP3    H1 7648   4.041   2.679   3.369
 2565TIP3    H2 7649   4.017   2.673   3.221
 2566TIP3   OH2 7650   4.424   2.016   2.013
 2566TIP3    H1 7651   4.485   2.075   2.062
 2566TIP3    H2 7652   4.451   2.034   1.920
 2567TIP3   OH2 7653   3.851   2.232   3.389
 2567TIP3    H1 7654   3.854   2.319   3.433
 2567TIP3    H2 7655   3.757   2.208   3.406
 2568TIP3   OH2 7656   4.176   2.685   2.286
 2568TIP3    H1 7657   4.259   2.736   2.289
 2568TIP3    H2 7658   4.114   2.748   2.247
 2569TIP3   OH2 7659   4.946   1.248   2.066
 2569TIP3    H1 7660   4.863   1.272   2.112
 2569TIP3    H2 7661   4.961   1.329   2.012
 2570TIP3   OH2 7662   3.689   1.995   2.405
 2570TIP3    H1 7663   3.615   2.036   2.355
 2570TIP3    H2 7664   3.656   1.906   2.420
 2571TIP3   OH2 7665   4.748   2.616   1.612
 2571TIP3    H1 7666   4.756   2.712   1.597
 2571TIP3    H2 7667   4.840   2.586   1.599
 2572TIP3   OH2 7668   3.468   2.377   3.316
 2572TIP3    H1 7669   3.396   2.359   3.252
 2572TIP3    H2 7670   3.502   2.287   3.335
 2573TIP3   OH2 7671   3.321   2.574   2.942
 2573TIP3    H1 7672   3.418   2.573   2.943
 2573TIP3    H2 7673   3.301   2.650   2.998
 2574TIP3   OH2 7674   5.201   3.021   3.038
 2574TIP3    H1 7675   5.189   2.925   3.037
 2574TIP3    H2 7676   5.112   3.051   3.062
 2575TIP3   OH2 7677   4.296   2.799   3.142
 2575TIP3    H1 7678   4.302   2.892   3.173
 2575TIP3    H2 7679   4.223   2.764   3.196
 2576TIP3   OH2 7680   4.059   2.933   2.092
 2576TIP3    H1 7681   4.007   2.920   2.011
 2576TIP3    H2 7682   4.024   3.017   2.126
 2577TIP3   OH2 7683   3.493   2.782   2.478
 2577TIP3    H1 7684   3.536   2.773   2.566
 2577TIP3    H2 7685   3.445   2.697   2.471
 2578TIP3   OH2 7686   4.256   2.840   1.729
 2578TIP3    H1 7687   4.321   2.775   1.692
 2578TIP3    H2 7688   4.292   2.853   1.819
 2579TIP3   OH2 7689   4.309   2.888   1.997
 2579TIP3    H1 7690   4.220   2.899   2.037
 2579TIP3    H2 7691   4.359   2.852   2.071
 2580TIP3   OH2 7692   5.074   2.151   3.283
 2580TIP3    H1 7693   4.990   2.159   3.235
 2580TIP3    H2 7694   5.092   2.055   3.274
 2581TIP3   OH2 7695   3.673   2.558   3.296
 2581TIP3    H1 7696   3.718   2.543   3.381
 2581TIP3    H2 7697   3.598   2.495   3.303
 2582TIP3   OH2 7698   4.073   1.385   3.094
 2582TIP3    H1 7699   3.986   1.352   3.063
 2582TIP3    H2 7700   4.042   1.463   3.145
 2583TIP3   OH2 7701   4.607   1.497   3.286
 2583TIP3    H1 7702   4.676   1.469   3.350
 2583TIP3    H2 7703   4.524   1.478   3.335
 2584TIP3   OH2 7704   4.841   1.928   3.205
 2584TIP3    H1 7705   4.789   1.926   3.289
 2584TIP3    H2 7706   4.818   2.015   3.167
 2585TIP3   OH2 7707   4.504   2.053   1.757
 2585TIP3    H1 7708   4.472   2.029   1.668
 2585TIP3    H2 7709   4.590   2.093   1.736
 2586TIP3   OH2 7710   4.216   1.429   2.063
 2586TIP3    H1 7711   4.179   1.425   2.153
 2586TIP3    H2 7712   4.175   1.348   2.026
 2587TIP3   OH2 7713   4.009   1.901   3.113
 2587TIP3    H1 7714   3.954   1.917   3.192
 2587TIP3    H2 7715   3.991   1.982   3.061
 2588TIP3   OH2 7716   3.886   1.788   2.622
 2588TIP3    H1 7717   3.795   1.760   2.643
 2588TIP3    H2 7718   3.897   1.746   2.534
 2589TIP3   OH2 7719   4.379   1.871   2.356
 2589TIP3    H1 7720   4.329   1.942   2.309
 2589TIP3    H2 7721   4.434   1.834   2.285
 2590TIP3   OH2 7722   4.552   2.144   3.435
 2590TIP3    H1 7723   4.529   2.072   3.497
 2590TIP3    H2 7724   4.646   2.157   3.458
 2591TIP3   OH2 7725   4.534   1.895   2.586
 2591TIP3    H1 7726   4.468   1.919   2.518
 2591TIP3    H2 7727   4.572   1.817   2.541
 2592TIP3   OH2 7728   3.824   1.925   3.314
 2592TIP3    H1 7729   3.839   1.987   3.387
 2592TIP3    H2 7730   3.805   1.842   3.362
 2593TIP3   OH2 7731   3.876   1.409   2.027
 2593TIP3    H1 7732   3.862   1.406   2.124
 2593TIP3    H2 7733   3.797   1.460   1.999
 2594TIP3   OH2 7734   3.414   1.448   2.889
 2594TIP3    H1 7735   3.489   1.480   2.944
 2594TIP3    H2 7736   3.457   1.414   2.810
 2595TIP3   OH2 7737   3.376   1.429   2.416
 2595TIP3    H1 7738   3.421   1.465   2.337
 2595TIP3    H2 7739   3.314   1.502   2.434
 2596TIP3   OH2 7740   4.546   2.141   3.007
 2596TIP3    H1 7741   4.579   2.070   2.947
 2596TIP3    H2 7742   4.514   2.086   3.081
 2597TIP3   OH2 7743   4.224   1.605   2.682
 2597TIP3    H1 7744   4.142   1.605   2.735
 2597TIP3    H2 7745   4.292   1.596   2.751
 2598TIP3   OH2 7746   3.650   1.667   2.685
 2598TIP3    H1 7747   3.555   1.675   2.658
 2598TIP3    H2 7748   3.669   1.573   2.669
 2599TIP3   OH2 7749   3.910   1.658   2.383
 2599TIP3    H1 7750   4.004   1.672   2.358
 2599TIP3    H2 7751   3.862   1.679   2.300
 2600TIP3   OH2 7752   4.706   1.683   2.887
 2600TIP3    H1 7753   4.677   1.697   2.980
 2600TIP3    H2 7754   4.636   1.623   2.855
 2601TIP3   OH2 7755   3.766   1.697   2.157
 2601TIP3    H1 7756   3.696   1.648   2.111
 2601TIP3    H2 7757   3.818   1.732   2.082
 2602TIP3   OH2 7758   4.879   3.373   3.108
 2602TIP3    H1 7759   4.877   3.389   3.012
 2602TIP3    H2 7760   4.963   3.418   3.133
 2603TIP3   OH2 7761   3.839   2.489   3.524
 2603TIP3    H1 7762   3.915   2.509   3.582
 2603TIP3    H2 7763   3.769   2.479   3.592
 2604TIP3   OH2 7764   4.295   1.940   2.783
 2604TIP3    H1 7765   4.367   1.896   2.737
 2604TIP3    H2 7766   4.294   1.894   2.870
 2605TIP3   OH2 7767   3.814   1.420   2.669
 2605TIP3    H1 7768   3.775   1.347   2.722
 2605TIP3    H2 7769   3.850   1.371   2.594
 2606TIP3   OH2 7770   4.274   1.843   3.061
 2606TIP3    H1 7771   4.182   1.871   3.082
 2606TIP3    H2 7772   4.328   1.902   3.116
 2607TIP3   OH2 7773   4.014   2.225   2.161
 2607TIP3    H1 7774   3.943   2.159   2.149
 2607TIP3    H2 7775   3.992   2.259   2.251
 2608TIP3   OH2 7776   4.906   2.456   2.789
 2608TIP3    H1 7777   4.931   2.510   2.712
 2608TIP3    H2 7778   4.822   2.415   2.760
 2609TIP3   OH2 7779   4.466   1.529   2.041
 2609TIP3    H1 7780   4.370   1.507   2.047
 2609TIP3    H2 7781   4.469   1.625   2.063
 2610TIP3   OH2 7782   4.396   2.534   3.171
 2610TIP3    H1 7783   4.458   2.520   3.244
 2610TIP3    H2 7784   4.386   2.631   3.169
 2611TIP3   OH2 7785   4.532   1.786   2.139
 2611TIP3    H1 7786   4.629   1.790   2.150
 2611TIP3    H2 7787   4.514   1.866   2.085
 2612TIP3   OH2 7788   3.711   2.256   2.837
 2612TIP3    H1 7789   3.746   2.220   2.753
 2612TIP3    H2 7790   3.740   2.191   2.902
 2613TIP3   OH2 7791   4.141   2.371   1.963
 2613TIP3    H1 7792   4.098   2.458   1.977
 2613TIP3    H2 7793   4.096   2.316   2.030
 2614TIP3   OH2 7794   3.587   2.157   3.452
 2614TIP3    H1 7795   3.587   2.136   3.548
 2614TIP3    H2 7796   3.513   2.101   3.422
 2615TIP3   OH2 7797   4.314   2.283   3.476
 2615TIP3    H1 7798   4.248   2.222   3.439
 2615TIP3    H2 7799   4.397   2.243   3.443
 2616TIP3   OH2 7800   4.568   2.798   3.065
 2616TIP3    H1 7801   4.471   2.801   3.074
 2616TIP3    H2 7802   4.596   2.854   3.140
 2617TIP3   OH2 7803   4.973   1.880   1.968
 2617TIP3    H1 7804   4.912   1.836   1.904
 2617TIP3    H2 7805   4.971   1.969   1.927
 2618TIP3   OH2 7806   5.200   2.726   3.051
 2618TIP3    H1 7807   5.102   2.722   3.041
 2618TIP3    H2 7808   5.227   2.701   2.960
 2619TIP3   OH2 7809   4.695   2.693   1.882
 2619TIP3    H1 7810   4.649   2.630   1.940
 2619TIP3    H2 7811   4.691   2.648   1.795
 2620TIP3   OH2 7812   4.672   2.324   2.702
 2620TIP3    H1 7813   4.579   2.298   2.717
 2620TIP3    H2 7814   4.706   2.242   2.660
 2621TIP3   OH2 7815   3.807   2.556   2.471
 2621TIP3    H1 7816   3.799   2.635   2.415
 2621TIP3    H2 7817   3.715   2.530   2.482
 2622TIP3   OH2 7818   3.371   1.853   2.175
 2622TIP3    H1 7819   3.414   1.938   2.199
 2622TIP3    H2 7820   3.292   1.855   2.235
 2623TIP3   OH2 7821   3.932   2.315   2.403
 2623TIP3    H1 7822   3.901   2.404   2.428
 2623TIP3    H2 7823   3.899   2.262   2.478
 2624TIP3   OH2 7824   4.089   2.898   2.936
 2624TIP3    H1 7825   4.124   2.970   2.879
 2624TIP3    H2 7826   4.170   2.848   2.955
 2625TIP3   OH2 7827   3.723   2.787   2.320
 2625TIP3    H1 7828   3.637   2.799   2.364
 2625TIP3    H2 7829   3.758   2.879   2.322
 2626TIP3   OH2 7830   4.456   2.530   2.897
 2626TIP3    H1 7831   4.444   2.521   2.994
 2626TIP3    H2 7832   4.534   2.475   2.882
 2627TIP3   OH2 7833   4.439   2.429   1.779
 2627TIP3    H1 7834   4.497   2.401   1.853
 2627TIP3    H2 7835   4.353   2.396   1.811
 2628TIP3   OH2 7836   4.710   3.067   2.943
 2628TIP3    H1 7837   4.637   3.004   2.935
 2628TIP3    H2 7838   4.690   3.130   2.871
 2629TIP3   OH2 7839   4.783   2.892   1.600
 2629TIP3    H1 7840   4.818   2.966   1.549
 2629TIP3    H2 7841   4.701   2.933   1.634
 2630TIP3   OH2 7842   3.785   1.672   3.452
 2630TIP3    H1 7843   3.688   1.683   3.462
 2630TIP3    H2 7844   3.805   1.616   3.528
 2631TIP3   OH2 7845   4.601   2.352   1.987
 2631TIP3    H1 7846   4.590   2.288   2.060
 2631TIP3    H2 7847   4.699   2.349   1.977
 2632TIP3   OH2 7848   3.524   2.752   3.089
 2632TIP3    H1 7849   3.566   2.680   3.139
 2632TIP3    H2 7850   3.527   2.825   3.153
 2633TIP3   OH2 7851   3.810   2.388   1.771
 2633TIP3    H1 7852   3.808   2.290   1.763
 2633TIP3    H2 7853   3.786   2.396   1.866
 2634TIP3   OH2 7854   3.752   2.408   2.037
 2634TIP3    H1 7855   3.813   2.377   2.105
 2634TIP3    H2 7856   3.747   2.504   2.057
 2635TIP3   OH2 7857   3.476   2.098   2.256
 2635TIP3    H1 7858   3.409   2.142   2.312
 2635TIP3    H2 7859   3.486   2.165   2.186
 2636TIP3   OH2 7860   4.637   1.735   3.148
 2636TIP3    H1 7861   4.718   1.773   3.186
 2636TIP3    H2 7862   4.624   1.654   3.202
 2637TIP3   OH2 7863   4.517   1.479   2.319
 2637TIP3    H1 7864   4.502   1.499   2.225
 2637TIP3    H2 7865   4.557   1.563   2.352
 2638TIP3   OH2 7866   4.015   2.609   1.984
 2638TIP3    H1 7867   3.929   2.620   2.030
 2638TIP3    H2 7868   4.028   2.701   1.953
 2639TIP3   OH2 7869   4.197   1.670   2.415
 2639TIP3    H1 7870   4.261   1.743   2.399
 2639TIP3    H2 7871   4.204   1.659   2.512
 2640TIP3   OH2 7872   4.473   1.981   3.215
 2640TIP3    H1 7873   4.499   2.030   3.296
 2640TIP3    H2 7874   4.522   1.898   3.224
 2641TIP3   OH2 7875   4.339   1.384   2.513
 2641TIP3    H1 7876   4.327   1.464   2.566
 2641TIP3    H2 7877   4.404   1.416   2.446
 2642TIP3   OH2 7878   3.765   2.675   2.073
 2642TIP3    H1 7879   3.735   2.745   2.010
 2642TIP3    H2 7880   3.745   2.718   2.159
 2643TIP3   OH2 7881   3.857   1.394   2.303
 2643TIP3    H1 7882   3.853   1.483   2.344
 2643TIP3    H2 7883   3.953   1.378   2.310
 2644TIP3   OH2 7884   5.107   1.884   3.202
 2644TIP3    H1 7885   5.009   1.884   3.210
 2644TIP3    H2 7886   5.116   1.835   3.119
 2645TIP3   OH2 7887   4.760   2.077   2.588
 2645TIP3    H1 7888   4.683   2.019   2.600
 2645TIP3    H2 7889   4.830   2.029   2.637
 2646TIP3   OH2 7890   3.473   2.298   2.055
 2646TIP3    H1 7891   3.528   2.378   2.055
 2646TIP3    H2 7892   3.523   2.242   1.992
 2647TIP3   OH2 7893   3.416   1.581   2.191
 2647TIP3    H1 7894   3.412   1.678   2.191
 2647TIP3    H2 7895   3.337   1.557   2.140
 2648TIP3   OH2 7896   4.742   3.042   2.539
 2648TIP3    H1 7897   4.703   3.089   2.462
 2648TIP3    H2 7898   4.837   3.052   2.522
 2649TIP3   OH2 7899   3.813   1.300   3.059
 2649TIP3    H1 7900   3.779   1.267   2.973
 2649TIP3    H2 7901   3.798   1.223   3.117
 2650TIP3   OH2 7902   3.341   2.521   2.440
 2650TIP3    H1 7903   3.286   2.548   2.515
 2650TIP3    H2 7904   3.297   2.567   2.365
 2651TIP3   OH2 7905   3.510   3.064   3.506
 2651TIP3    H1 7906   3.596   3.042   3.544
 2651TIP3    H2 7907   3.469   2.976   3.506
 2652TIP3   OH2 7908   3.973   2.582   1.684
 2652TIP3    H1 7909   3.905   2.530   1.732
 2652TIP3    H2 7910   4.050   2.569   1.743
 2653TIP3   OH2 7911   4.612   2.938   3.300
 2653TIP3    H1 7912   4.610   2.867   3.368
 2653TIP3    H2 7913   4.693   2.988   3.324
 2654TIP3   OH2 7914   4.415   2.654   1.611
 2654TIP3    H1 7915   4.427   2.571   1.662
 2654TIP3    H2 7916   4.462   2.634   1.528
 2655TIP3   OH2 7917   3.633   2.475   3.712
 2655TIP3    H1 7918   3.650   2.379   3.721
 2655TIP3    H2 7919   3.545   2.476   3.669
 2656TIP3   OH2 7920   3.615   2.116   1.911
 2656TIP3    H1 7921   3.667   2.085   1.988
 2656TIP3    H2 7922   3.685   2.118   1.843
 2657TIP3   OH2 7923   4.233   2.550   3.479
 2657TIP3    H1 7924   4.221   2.544   3.383
 2657TIP3    H2 7925   4.276   2.462   3.494
 2658TIP3   OH2 7926   4.106   2.309   1.699
 2658TIP3    H1 7927   4.119   2.330   1.798
 2658TIP3    H2 7928   4.138   2.215   1.702
 2659TIP3   OH2 7929   4.727   2.575   3.102
 2659TIP3    H1 7930   4.810   2.606   3.060
 2659TIP3    H2 7931   4.667   2.649   3.079
 2660TIP3   OH2 7932   3.759   2.224   3.701
 2660TIP3    H1 7933   3.821   2.154   3.677
 2660TIP3    H2 7934   3.789   2.247   3.792
 2661TIP3   OH2 7935   3.817   2.031   2.129
 2661TIP3    H1 7936   3.787   1.992   2.213
 2661TIP3    H2 7937   3.854   1.952   2.083
 2662TIP3   OH2 7938   4.095   2.099   3.369
 2662TIP3    H1 7939   4.010   2.149   3.363
 2662TIP3    H2 7940   4.142   2.131   3.288
 2663TIP3   OH2 7941   3.922   1.826   1.970
 2663TIP3    H1 7942   3.897   1.833   1.876
 2663TIP3    H2 7943   4.019   1.824   1.963
 2664TIP3   OH2 7944   4.606   2.492   3.490
 2664TIP3    H1 7945   4.681   2.456   3.442
 2664TIP3    H2 7946   4.599   2.430   3.565
 2665TIP3   OH2 7947   4.735   2.148   1.642
 2665TIP3    H1 7948   4.718   2.105   1.556
 2665TIP3    H2 7949   4.700   2.238   1.621
 2666TIP3   OH2 7950   4.215   1.882   3.482
 2666TIP3    H1 7951   4.212   1.804   3.422
 2666TIP3    H2 7952   4.169   1.951   3.428
 2667TIP3   OH2 7953   4.215   1.669   3.294
 2667TIP3    H1 7954   4.241   1.707   3.208
 2667TIP3    H2 7955   4.121   1.645   3.277
 2668TIP3   OH2 7956   4.235   2.201   3.167
 2668TIP3    H1 7957   4.322   2.214   3.128
 2668TIP3    H2 7958   4.180   2.264   3.118
 2669TIP3   OH2 7959   4.817   2.165   3.543
 2669TIP3    H1 7960   4.863   2.081   3.557
 2669TIP3    H2 7961   4.887   2.219   3.504
 2670TIP3   OH2 7962   4.857   2.423   3.284
 2670TIP3    H1 7963   4.801   2.479   3.226
 2670TIP3    H2 7964   4.946   2.442   3.247
 2671TIP3   OH2 7965   4.095   1.981   3.722
 2671TIP3    H1 7966   4.027   1.913   3.738
 2671TIP3    H2 7967   4.123   1.958   3.631
 2672TIP3   OH2 7968   4.345   1.428   3.367
 2672TIP3    H1 7969   4.294   1.509   3.342
 2672TIP3    H2 7970   4.277   1.358   3.355
 2673TIP3   OH2 7971   4.470   1.927   3.579
 2673TIP3    H1 7972   4.450   1.910   3.673
 2673TIP3    H2 7973   4.383   1.906   3.540
 2674TIP3   OH2 7974   4.709   1.884   3.436
 2674TIP3    H1 7975   4.635   1.882   3.499
 2674TIP3    H2 7976   4.784   1.853   3.491
 2675TIP3   OH2 7977   4.941   1.826   3.582
 2675TIP3    H1 7978   4.954   1.730   3.596
 2675TIP3    H2 7979   4.936   1.859   3.674
 2676TIP3   OH2 7980   3.934   1.762   3.775
 2676TIP3    H1 7981   3.931   1.670   3.742
 2676TIP3    H2 7982   3.969   1.748   3.865
 2677TIP3   OH2 7983   4.437   1.437   3.625
 2677TIP3    H1 7984   4.502   1.364   3.616
 2677TIP3    H2 7985   4.397   1.435   3.536
 2678TIP3   OH2 7986   4.507   1.652   3.781
 2678TIP3    H1 7987   4.485   1.580   3.717
 2678TIP3    H2 7988   4.427   1.709   3.774
 2679TIP3   OH2 7989   3.721   2.866   1.882
 2679TIP3    H1 7990   3.807   2.889   1.845
 2679TIP3    H2 7991   3.662   2.912   1.820
 2680TIP3   OH2 7992   3.205   2.263   2.093
 2680TIP3    H1 7993   3.300   2.284   2.078
 2680TIP3    H2 7994   3.199   2.174   2.052
 2681TIP3   OH2 7995   3.125   2.874   2.514
 2681TIP3    H1 7996   3.060   2.814   2.471
 2681TIP3    H2 7997   3.169   2.812   2.576
 2682TIP3   OH2 7998   3.258   2.716   2.698
 2682TIP3    H1 7999   3.245   2.649   2.768
 2682TIP3    H2 8000   3.309   2.782   2.748
 2683TIP3   OH2 8001   5.061   2.822   3.357
 2683TIP3    H1 8002   4.990   2.834   3.424
 2683TIP3    H2 8003   5.103   2.910   3.358
 2684TIP3   OH2 8004   4.877   2.331   1.973
 2684TIP3    H1 8005   4.944   2.393   1.938
 2684TIP3    H2 8006   4.923   2.294   2.052
 2685TIP3   OH2 8007   5.006   2.203   2.178
 2685TIP3    H1 8008   4.938   2.160   2.235
 2685TIP3    H2 8009   5.071   2.235   2.243
 2686TIP3   OH2 8010   5.061   2.596   2.607
 2686TIP3    H1 8011   5.116   2.528   2.562
 2686TIP3    H2 8012   5.055   2.667   2.541
 2687TIP3   OH2 8013   4.874   2.863   2.809
 2687TIP3    H1 8014   4.832   2.946   2.833
 2687TIP3    H2 8015   4.826   2.835   2.729
 2688TIP3   OH2 8016   4.941   2.112   1.818
 2688TIP3    H1 8017   4.869   2.111   1.751
 2688TIP3    H2 8018   4.910   2.186   1.875
 2689TIP3   OH2 8019   4.809   1.785   1.772
 2689TIP3    H1 8020   4.768   1.811   1.689
 2689TIP3    H2 8021   4.791   1.689   1.771
 2690TIP3   OH2 8022   4.816   2.062   2.318
 2690TIP3    H1 8023   4.822   1.966   2.308
 2690TIP3    H2 8024   4.800   2.072   2.414
 2691TIP3   OH2 8025   3.441   2.138   3.064
 2691TIP3    H1 8026   3.437   2.098   2.974
 2691TIP3    H2 8027   3.537   2.135   3.081
 2692TIP3   OH2 8028   5.106   2.483   3.182
 2692TIP3    H1 8029   5.177   2.416   3.167
 2692TIP3    H2 8030   5.129   2.552   3.118
 2693TIP3   OH2 8031   5.289   2.281   3.178
 2693TIP3    H1 8032   5.214   2.234   3.221
 2693TIP3    H2 8033   5.362   2.220   3.200
 2694TIP3   OH2 8034   4.753   1.520   1.759
 2694TIP3    H1 8035   4.824   1.481   1.813
 2694TIP3    H2 8036   4.678   1.460   1.771
 2695TIP3   OH2 8037   4.816   1.780   2.208
 2695TIP3    H1 8038   4.857   1.691   2.224
 2695TIP3    H2 8039   4.873   1.811   2.136
 2696TIP3   OH2 8040   4.972   1.943   2.711
 2696TIP3    H1 8041   5.057   1.967   2.667
 2696TIP3    H2 8042   4.988   1.983   2.798
 2697TIP3   OH2 8043   5.048   2.094   2.937
 2697TIP3    H1 8044   4.971   2.128   2.987
 2697TIP3    H2 8045   5.080   2.176   2.894
 2698TIP3   OH2 8046   3.669   1.826   3.763
 2698TIP3    H1 8047   3.766   1.812   3.758
 2698TIP3    H2 8048   3.639   1.736   3.788
 2699TIP3   OH2 8049   5.495   1.690   3.493
 2699TIP3    H1 8050   5.558   1.627   3.453
 2699TIP3    H2 8051   5.464   1.740   3.415
 2700TIP3   OH2 8052   4.922   1.530   2.252
 2700TIP3    H1 8053   4.969   1.511   2.336
 2700TIP3    H2 8054   4.861   1.453   2.249
 2701TIP3   OH2 8055   3.630   1.509   3.043
 2701TIP3    H1 8056   3.689   1.435   3.066
 2701TIP3    H2 8057   3.689   1.585   3.055
 2702TIP3   OH2 8058   3.441   1.776   3.159
 2702TIP3    H1 8059   3.482   1.776   3.070
 2702TIP3    H2 8060   3.460   1.865   3.190
 2703TIP3   OH2 8061   5.362   1.820   3.295
 2703TIP3    H1 8062   5.278   1.866   3.313
 2703TIP3    H2 8063   5.329   1.746   3.240
 2704TIP3   OH2 8064   4.998   1.454   1.889
 2704TIP3    H1 8065   5.035   1.387   1.827
 2704TIP3    H2 8066   5.065   1.525   1.885
 2705TIP3   OH2 8067   3.411   1.285   2.643
 2705TIP3    H1 8068   3.319   1.278   2.673
 2705TIP3    H2 8069   3.403   1.345   2.566
 2706TIP3   OH2 8070   4.569   2.992   2.152
 2706TIP3    H1 8071   4.622   2.987   2.069
 2706TIP3    H2 8072   4.615   3.061   2.202
 2707TIP3   OH2 8073   3.637   1.355   3.465
 2707TIP3    H1 8074   3.580   1.359   3.544
 2707TIP3    H2 8075   3.581   1.405   3.401
 2708TIP3   OH2 8076   3.665   2.815   3.568
 2708TIP3    H1 8077   3.581   2.786   3.529
 2708TIP3    H2 8078   3.664   2.768   3.653
 2709TIP3   OH2 8079   3.883   2.873   3.108
 2709TIP3    H1 8080   3.812   2.928   3.069
 2709TIP3    H2 8081   3.946   2.874   3.033
 2710TIP3   OH2 8082   4.285   3.061   3.223
 2710TIP3    H1 8083   4.331   3.062   3.310
 2710TIP3    H2 8084   4.350   3.114   3.171
 2711TIP3   OH2 8085   4.460   3.224   3.090
 2711TIP3    H1 8086   4.529   3.179   3.038
 2711TIP3    H2 8087   4.516   3.282   3.147
 2712TIP3   OH2 8088   5.265   1.583   3.180
 2712TIP3    H1 8089   5.176   1.571   3.145
 2712TIP3    H2 8090   5.302   1.492   3.172
 2713TIP3   OH2 8091   3.526   3.091   3.113
 2713TIP3    H1 8092   3.434   3.113   3.088
 2713TIP3    H2 8093   3.537   3.148   3.190
 2714TIP3   OH2 8094   3.762   3.074   2.972
 2714TIP3    H1 8095   3.673   3.083   3.014
 2714TIP3    H2 8096   3.741   3.101   2.880
 2715TIP3   OH2 8097   4.181   3.090   2.766
 2715TIP3    H1 8098   4.111   3.105   2.699
 2715TIP3    H2 8099   4.195   3.180   2.800
 2716TIP3   OH2 8100   4.451   3.027   2.825
 2716TIP3    H1 8101   4.361   3.050   2.797
 2716TIP3    H2 8102   4.503   3.096   2.778
 2717TIP3   OH2 8103   4.633   3.214   2.726
 2717TIP3    H1 8104   4.634   3.304   2.687
 2717TIP3    H2 8105   4.674   3.160   2.654
 2718TIP3   OH2 8106   3.436   2.880   2.851
 2718TIP3    H1 8107   3.463   2.850   2.940
 2718TIP3    H2 8108   3.506   2.837   2.798
 2719TIP3   OH2 8109   3.630   2.752   2.713
 2719TIP3    H1 8110   3.645   2.670   2.765
 2719TIP3    H2 8111   3.722   2.786   2.707
 2720TIP3   OH2 8112   3.900   2.842   2.717
 2720TIP3    H1 8113   3.927   2.749   2.706
 2720TIP3    H2 8114   3.951   2.866   2.796
 2721TIP3   OH2 8115   4.473   1.501   2.808
 2721TIP3    H1 8116   4.430   1.428   2.856
 2721TIP3    H2 8117   4.545   1.455   2.761
 2722TIP3   OH2 8118   4.989   1.385   2.704
 2722TIP3    H1 8119   5.024   1.436   2.628
 2722TIP3    H2 8120   4.893   1.403   2.697
 2723TIP3   OH2 8121   5.087   1.478   2.467
 2723TIP3    H1 8122   5.162   1.427   2.430
 2723TIP3    H2 8123   5.120   1.570   2.453
 2724TIP3   OH2 8124   3.717   1.208   2.814
 2724TIP3    H1 8125   3.624   1.176   2.819
 2724TIP3    H2 8126   3.764   1.122   2.809
 2725TIP3   OH2 8127   3.515   1.083   2.470
 2725TIP3    H1 8128   3.538   1.138   2.394
 2725TIP3    H2 8129   3.485   1.149   2.535
 2726TIP3   OH2 8130   4.169   1.238   2.697
 2726TIP3    H1 8131   4.224   1.285   2.632
 2726TIP3    H2 8132   4.192   1.282   2.780
 2727TIP3   OH2 8133   4.705   1.390   2.678
 2727TIP3    H1 8134   4.707   1.347   2.592
 2727TIP3    H2 8135   4.697   1.313   2.739
 2728TIP3   OH2 8136   4.740   1.318   2.245
 2728TIP3    H1 8137   4.655   1.360   2.265
 2728TIP3    H2 8138   4.726   1.230   2.287
 2729TIP3   OH2 8139   3.218   2.659   2.247
 2729TIP3    H1 8140   3.134   2.623   2.212
 2729TIP3    H2 8141   3.211   2.749   2.210
 2730TIP3   OH2 8142   3.628   1.237   2.225
 2730TIP3    H1 8143   3.674   1.173   2.168
 2730TIP3    H2 8144   3.703   1.290   2.260
 2731TIP3   OH2 8145   4.133   1.420   2.325
 2731TIP3    H1 8146   4.191   1.370   2.385
 2731TIP3    H2 8147   4.156   1.511   2.351
 2732TIP3   OH2 8148   3.999   2.836   1.825
 2732TIP3    H1 8149   4.087   2.857   1.787
 2732TIP3    H2 8150   3.969   2.770   1.760
 2733TIP3   OH2 8151   4.719   2.962   1.921
 2733TIP3    H1 8152   4.714   2.864   1.911
 2733TIP3    H2 8153   4.670   2.991   1.841
 2734TIP3   OH2 8154   3.926   1.491   3.710
 2734TIP3    H1 8155   3.887   1.420   3.765
 2734TIP3    H2 8156   4.019   1.489   3.740
 2735TIP3   OH2 8157   4.178   1.488   3.828
 2735TIP3    H1 8158   4.262   1.462   3.787
 2735TIP3    H2 8159   4.164   1.417   3.893
 2736TIP3   OH2 8160   3.286   2.646   1.891
 2736TIP3    H1 8161   3.310   2.716   1.952
 2736TIP3    H2 8162   3.374   2.620   1.856
 2737TIP3   OH2 8163   5.005   1.555   3.612
 2737TIP3    H1 8164   5.021   1.524   3.704
 2737TIP3    H2 8165   5.095   1.549   3.574
 2738TIP3   OH2 8166   4.934   3.102   3.110
 2738TIP3    H1 8167   4.861   3.073   3.051
 2738TIP3    H2 8168   4.918   3.198   3.112
 2739TIP3   OH2 8169   6.207   2.478   1.866
 2739TIP3    H1 8170   6.170   2.566   1.843
 2739TIP3    H2 8171   6.136   2.421   1.830
 2740TIP3   OH2 8172   6.201   2.480   2.265
 2740TIP3    H1 8173   6.243   2.455   2.349
 2740TIP3    H2 8174   6.166   2.395   2.235
 2741TIP3   OH2 8175   5.502   2.366   2.618
 2741TIP3    H1 8176   5.528   2.294   2.678
 2741TIP3    H2 8177   5.579   2.424   2.623
 2742TIP3   OH2 8178   6.455   2.780   1.939
 2742TIP3    H1 8179   6.437   2.711   2.004
 2742TIP3    H2 8180   6.485   2.854   1.995
 2743TIP3   OH2 8181   5.473   2.776   2.329
 2743TIP3    H1 8182   5.470   2.678   2.330
 2743TIP3    H2 8183   5.557   2.792   2.375
 2744TIP3   OH2 8184   5.183   1.981   2.118
 2744TIP3    H1 8185   5.133   2.062   2.140
 2744TIP3    H2 8186   5.114   1.929   2.074
 2745TIP3   OH2 8187   5.242   2.267   2.307
 2745TIP3    H1 8188   5.290   2.188   2.340
 2745TIP3    H2 8189   5.299   2.295   2.234
 2746TIP3   OH2 8190   6.106   3.240   1.954
 2746TIP3    H1 8191   6.141   3.168   1.897
 2746TIP3    H2 8192   6.093   3.194   2.038
 2747TIP3   OH2 8193   6.009   2.704   2.302
 2747TIP3    H1 8194   6.052   2.623   2.269
 2747TIP3    H2 8195   6.090   2.753   2.326
 2748TIP3   OH2 8196   7.008   2.013   2.315
 2748TIP3    H1 8197   7.034   2.102   2.346
 2748TIP3    H2 8198   7.037   2.014   2.222
 2749TIP3   OH2 8199   6.417   2.202   2.327
 2749TIP3    H1 8200   6.461   2.117   2.349
 2749TIP3    H2 8201   6.383   2.182   2.238
 2750TIP3   OH2 8202   5.760   1.863   2.296
 2750TIP3    H1 8203   5.742   1.934   2.231
 2750TIP3    H2 8204   5.713   1.788   2.253
 2751TIP3   OH2 8205   6.453   1.957   1.914
 2751TIP3    H1 8206   6.523   1.943   1.982
 2751TIP3    H2 8207   6.508   1.989   1.840
 2752TIP3   OH2 8208   5.389   2.061   2.406
 2752TIP3    H1 8209   5.473   2.043   2.453
 2752TIP3    H2 8210   5.404   2.006   2.326
 2753TIP3   OH2 8211   5.828   2.262   2.203
 2753TIP3    H1 8212   5.923   2.238   2.214
 2753TIP3    H2 8213   5.790   2.177   2.170
 2754TIP3   OH2 8214   7.076   2.235   2.462
 2754TIP3    H1 8215   6.988   2.278   2.454
 2754TIP3    H2 8216   7.110   2.275   2.545
 2755TIP3   OH2 8217   5.752   1.846   2.733
 2755TIP3    H1 8218   5.694   1.883   2.663
 2755TIP3    H2 8219   5.697   1.864   2.812
 2756TIP3   OH2 8220   6.075   2.691   1.744
 2756TIP3    H1 8221   6.057   2.687   1.648
 2756TIP3    H2 8222   6.037   2.778   1.767
 2757TIP3   OH2 8223   5.860   2.622   2.517
 2757TIP3    H1 8224   5.802   2.692   2.552
 2757TIP3    H2 8225   5.907   2.669   2.445
 2758TIP3   OH2 8226   6.652   1.967   2.097
 2758TIP3    H1 8227   6.648   1.912   2.176
 2758TIP3    H2 8228   6.703   2.044   2.128
 2759TIP3   OH2 8229   5.626   1.961   2.514
 2759TIP3    H1 8230   5.688   2.033   2.538
 2759TIP3    H2 8231   5.675   1.921   2.438
 2760TIP3   OH2 8232   5.690   2.821   2.611
 2760TIP3    H1 8233   5.666   2.914   2.591
 2760TIP3    H2 8234   5.615   2.799   2.672
 2761TIP3   OH2 8235   5.062   2.508   1.850
 2761TIP3    H1 8236   5.032   2.512   1.756
 2761TIP3    H2 8237   5.033   2.594   1.882
 2762TIP3   OH2 8238   6.518   3.028   2.101
 2762TIP3    H1 8239   6.428   3.016   2.139
 2762TIP3    H2 8240   6.507   3.113   2.054
 2763TIP3   OH2 8241   6.803   1.918   2.472
 2763TIP3    H1 8242   6.720   1.943   2.430
 2763TIP3    H2 8243   6.871   1.948   2.407
 2764TIP3   OH2 8244   6.103   1.560   2.445
 2764TIP3    H1 8245   6.090   1.466   2.464
 2764TIP3    H2 8246   6.027   1.600   2.491
 2765TIP3   OH2 8247   6.211   3.065   1.764
 2765TIP3    H1 8248   6.260   2.981   1.746
 2765TIP3    H2 8249   6.277   3.129   1.730
 2766TIP3   OH2 8250   6.355   2.846   1.689
 2766TIP3    H1 8251   6.352   2.766   1.636
 2766TIP3    H2 8252   6.396   2.814   1.773
 2767TIP3   OH2 8253   6.745   2.932   2.443
 2767TIP3    H1 8254   6.729   2.854   2.385
 2767TIP3    H2 8255   6.726   3.006   2.382
 2768TIP3   OH2 8256   6.038   2.330   1.705
 2768TIP3    H1 8257   5.959   2.383   1.681
 2768TIP3    H2 8258   6.084   2.323   1.619
 2769TIP3   OH2 8259   5.995   2.118   1.413
 2769TIP3    H1 8260   6.063   2.170   1.460
 2769TIP3    H2 8261   6.051   2.054   1.365
 2770TIP3   OH2 8262   6.931   2.572   2.287
 2770TIP3    H1 8263   6.849   2.625   2.293
 2770TIP3    H2 8264   6.958   2.592   2.195
 2771TIP3   OH2 8265   6.387   2.412   1.670
 2771TIP3    H1 8266   6.333   2.435   1.749
 2771TIP3    H2 8267   6.471   2.385   1.713
 2772TIP3   OH2 8268   6.617   2.446   2.594
 2772TIP3    H1 8269   6.613   2.530   2.644
 2772TIP3    H2 8270   6.532   2.449   2.547
 2773TIP3   OH2 8271   5.623   2.412   2.090
 2773TIP3    H1 8272   5.577   2.352   2.027
 2773TIP3    H2 8273   5.696   2.354   2.122
 2774TIP3   OH2 8274   5.769   2.824   2.228
 2774TIP3    H1 8275   5.735   2.739   2.199
 2774TIP3    H2 8276   5.861   2.800   2.251
 2775TIP3   OH2 8277   5.752   2.377   2.445
 2775TIP3    H1 8278   5.787   2.349   2.358
 2775TIP3    H2 8279   5.798   2.462   2.460
 2776TIP3   OH2 8280   6.278   3.018   2.223
 2776TIP3    H1 8281   6.266   3.097   2.279
 2776TIP3    H2 8282   6.262   2.945   2.286
 2777TIP3   OH2 8283   5.889   2.935   2.768
 2777TIP3    H1 8284   5.823   2.994   2.812
 2777TIP3    H2 8285   5.829   2.881   2.714
 2778TIP3   OH2 8286   6.219   2.273   1.501
 2778TIP3    H1 8287   6.281   2.332   1.548
 2778TIP3    H2 8288   6.246   2.290   1.407
 2779TIP3   OH2 8289   5.649   2.486   2.877
 2779TIP3    H1 8290   5.655   2.576   2.917
 2779TIP3    H2 8291   5.554   2.467   2.891
 2780TIP3   OH2 8292   5.967   2.948   1.776
 2780TIP3    H1 8293   6.054   2.992   1.779
 2780TIP3    H2 8294   5.913   3.013   1.728
 2781TIP3   OH2 8295   5.680   3.097   2.857
 2781TIP3    H1 8296   5.641   3.103   2.768
 2781TIP3    H2 8297   5.601   3.071   2.910
 2782TIP3   OH2 8298   6.723   1.519   1.560
 2782TIP3    H1 8299   6.643   1.541   1.612
 2782TIP3    H2 8300   6.735   1.601   1.508
 2783TIP3   OH2 8301   5.480   2.255   1.905
 2783TIP3    H1 8302   5.410   2.292   1.846
 2783TIP3    H2 8303   5.457   2.161   1.907
 2784TIP3   OH2 8304   6.543   2.873   1.102
 2784TIP3    H1 8305   6.549   2.969   1.083
 2784TIP3    H2 8306   6.636   2.844   1.089
 2785TIP3   OH2 8307   5.262   2.635   2.805
 2785TIP3    H1 8308   5.192   2.617   2.739
 2785TIP3    H2 8309   5.302   2.547   2.820
 2786TIP3   OH2 8310   5.125   2.850   2.444
 2786TIP3    H1 8311   5.218   2.827   2.448
 2786TIP3    H2 8312   5.120   2.919   2.513
 2787TIP3   OH2 8313   6.981   3.287   2.489
 2787TIP3    H1 8314   6.985   3.190   2.505
 2787TIP3    H2 8315   6.899   3.309   2.539
 2788TIP3   OH2 8316   6.085   3.060   2.626
 2788TIP3    H1 8317   6.081   3.151   2.662
 2788TIP3    H2 8318   6.011   3.017   2.676
 2789TIP3   OH2 8319   5.852   3.183   1.584
 2789TIP3    H1 8320   5.813   3.172   1.495
 2789TIP3    H2 8321   5.820   3.272   1.610
 2790TIP3   OH2 8322   6.051   3.098   1.218
 2790TIP3    H1 8323   6.107   3.028   1.178
 2790TIP3    H2 8324   6.091   3.107   1.307
 2791TIP3   OH2 8325   6.105   3.147   1.489
 2791TIP3    H1 8326   6.016   3.152   1.530
 2791TIP3    H2 8327   6.158   3.112   1.563
 2792TIP3   OH2 8328   6.869   2.409   2.764
 2792TIP3    H1 8329   6.786   2.411   2.714
 2792TIP3    H2 8330   6.891   2.313   2.758
 2793TIP3   OH2 8331   5.490   2.793   2.789
 2793TIP3    H1 8332   5.526   2.783   2.879
 2793TIP3    H2 8333   5.402   2.751   2.797
 2794TIP3   OH2 8334   5.867   1.638   2.583
 2794TIP3    H1 8335   5.780   1.611   2.548
 2794TIP3    H2 8336   5.840   1.719   2.631
 2795TIP3   OH2 8337   6.405   1.755   2.773
 2795TIP3    H1 8338   6.476   1.725   2.834
 2795TIP3    H2 8339   6.324   1.734   2.823
 2796TIP3   OH2 8340   6.635   2.183   2.690
 2796TIP3    H1 8341   6.585   2.183   2.775
 2796TIP3    H2 8342   6.614   2.271   2.653
 2797TIP3   OH2 8343   6.302   2.309   1.248
 2797TIP3    H1 8344   6.263   2.290   1.161
 2797TIP3    H2 8345   6.389   2.346   1.221
 2798TIP3   OH2 8346   6.011   1.687   1.551
 2798TIP3    H1 8347   5.976   1.681   1.642
 2798TIP3    H2 8348   5.972   1.606   1.513
 2799TIP3   OH2 8349   5.800   2.158   2.597
 2799TIP3    H1 8350   5.748   2.177   2.678
 2799TIP3    H2 8351   5.783   2.239   2.544
 2800TIP3   OH2 8352   5.682   2.045   2.110
 2800TIP3    H1 8353   5.591   2.015   2.130
 2800TIP3    H2 8354   5.694   2.003   2.022
 2801TIP3   OH2 8355   6.173   2.128   1.842
 2801TIP3    H1 8356   6.124   2.198   1.794
 2801TIP3    H2 8357   6.230   2.090   1.771
 2802TIP3   OH2 8358   6.351   2.401   2.922
 2802TIP3    H1 8359   6.327   2.328   2.984
 2802TIP3    H2 8360   6.446   2.410   2.943
 2803TIP3   OH2 8361   6.328   2.152   2.072
 2803TIP3    H1 8362   6.264   2.174   2.002
 2803TIP3    H2 8363   6.368   2.073   2.029
 2804TIP3   OH2 8364   5.618   2.183   2.802
 2804TIP3    H1 8365   5.644   2.248   2.870
 2804TIP3    H2 8366   5.607   2.102   2.855
 2805TIP3   OH2 8367   5.670   1.665   1.514
 2805TIP3    H1 8368   5.658   1.664   1.611
 2805TIP3    H2 8369   5.592   1.717   1.486
 2806TIP3   OH2 8370   5.211   1.703   2.388
 2806TIP3    H1 8371   5.287   1.737   2.439
 2806TIP3    H2 8372   5.251   1.675   2.304
 2807TIP3   OH2 8373   5.171   1.683   1.905
 2807TIP3    H1 8374   5.217   1.718   1.826
 2807TIP3    H2 8375   5.110   1.757   1.922
 2808TIP3   OH2 8376   6.340   2.398   2.494
 2808TIP3    H1 8377   6.373   2.327   2.433
 2808TIP3    H2 8378   6.309   2.342   2.568
 2809TIP3   OH2 8379   6.023   1.873   2.170
 2809TIP3    H1 8380   5.943   1.860   2.225
 2809TIP3    H2 8381   6.095   1.849   2.231
 2810TIP3   OH2 8382   5.445   1.922   2.176
 2810TIP3    H1 8383   5.352   1.928   2.145
 2810TIP3    H2 8384   5.470   1.830   2.153
 2811TIP3   OH2 8385   5.705   1.917   1.870
 2811TIP3    H1 8386   5.800   1.927   1.849
 2811TIP3    H2 8387   5.661   1.936   1.785
 2812TIP3   OH2 8388   6.503   1.943   2.379
 2812TIP3    H1 8389   6.468   1.955   2.469
 2812TIP3    H2 8390   6.438   1.881   2.341
 2813TIP3   OH2 8391   5.562   1.957   1.642
 2813TIP3    H1 8392   5.495   1.906   1.593
 2813TIP3    H2 8393   5.616   1.992   1.567
 2814TIP3   OH2 8394   6.676   3.630   2.596
 2814TIP3    H1 8395   6.671   3.658   2.503
 2814TIP3    H2 8396   6.752   3.681   2.628
 2815TIP3   OH2 8397   5.639   2.733   3.022
 2815TIP3    H1 8398   5.716   2.772   3.069
 2815TIP3    H2 8399   5.572   2.736   3.093
 2816TIP3   OH2 8400   6.092   2.199   2.269
 2816TIP3    H1 8401   6.160   2.154   2.217
 2816TIP3    H2 8402   6.092   2.149   2.352
 2817TIP3   OH2 8403   5.609   1.678   2.154
 2817TIP3    H1 8404   5.574   1.601   2.204
 2817TIP3    H2 8405   5.670   1.635   2.092
 2818TIP3   OH2 8406   6.068   2.097   2.554
 2818TIP3    H1 8407   5.977   2.130   2.571
 2818TIP3    H2 8408   6.124   2.158   2.605
 2819TIP3   OH2 8409   5.799   2.479   1.645
 2819TIP3    H1 8410   5.730   2.411   1.631
 2819TIP3    H2 8411   5.771   2.516   1.732
 2820TIP3   OH2 8412   6.698   2.719   2.277
 2820TIP3    H1 8413   6.722   2.770   2.197
 2820TIP3    H2 8414   6.617   2.672   2.249
 2821TIP3   OH2 8415   6.263   1.785   1.529
 2821TIP3    H1 8416   6.167   1.764   1.533
 2821TIP3    H2 8417   6.265   1.881   1.548
 2822TIP3   OH2 8418   6.203   2.799   2.648
 2822TIP3    H1 8419   6.234   2.779   2.738
 2822TIP3    H2 8420   6.164   2.887   2.657
 2823TIP3   OH2 8421   6.328   2.044   1.626
 2823TIP3    H1 8422   6.425   2.046   1.637
 2823TIP3    H2 8423   6.311   2.122   1.571
 2824TIP3   OH2 8424   5.503   2.505   2.325
 2824TIP3    H1 8425   5.543   2.469   2.243
 2824TIP3    H2 8426   5.542   2.447   2.393
 2825TIP3   OH2 8427   5.955   2.631   1.479
 2825TIP3    H1 8428   5.903   2.715   1.481
 2825TIP3    H2 8429   5.901   2.574   1.538
 2826TIP3   OH2 8430   5.386   2.417   2.939
 2826TIP3    H1 8431   5.397   2.404   3.035
 2826TIP3    H2 8432   5.313   2.356   2.920
 2827TIP3   OH2 8433   6.109   2.532   2.959
 2827TIP3    H1 8434   6.046   2.471   2.918
 2827TIP3    H2 8435   6.195   2.494   2.929
 2828TIP3   OH2 8436   6.363   3.060   2.546
 2828TIP3    H1 8437   6.267   3.055   2.558
 2828TIP3    H2 8438   6.389   3.115   2.623
 2829TIP3   OH2 8439   6.772   2.136   1.450
 2829TIP3    H1 8440   6.708   2.093   1.389
 2829TIP3    H2 8441   6.767   2.226   1.412
 2830TIP3   OH2 8442   6.995   3.006   2.527
 2830TIP3    H1 8443   6.898   2.991   2.523
 2830TIP3    H2 8444   7.019   2.969   2.439
 2831TIP3   OH2 8445   6.483   2.950   1.366
 2831TIP3    H1 8446   6.448   2.878   1.420
 2831TIP3    H2 8447   6.494   2.908   1.279
 2832TIP3   OH2 8448   6.469   2.581   2.190
 2832TIP3    H1 8449   6.376   2.556   2.204
 2832TIP3    H2 8450   6.503   2.499   2.148
 2833TIP3   OH2 8451   5.168   2.109   1.661
 2833TIP3    H1 8452   5.212   2.193   1.684
 2833TIP3    H2 8453   5.090   2.111   1.721
 2834TIP3   OH2 8454   5.720   2.581   1.885
 2834TIP3    H1 8455   5.777   2.644   1.929
 2834TIP3    H2 8456   5.686   2.526   1.958
 2835TIP3   OH2 8457   5.871   3.153   2.414
 2835TIP3    H1 8458   5.915   3.224   2.361
 2835TIP3    H2 8459   5.948   3.111   2.456
 2836TIP3   OH2 8460   6.255   2.788   2.381
 2836TIP3    H1 8461   6.243   2.784   2.479
 2836TIP3    H2 8462   6.330   2.729   2.369
 2837TIP3   OH2 8463   6.240   2.681   1.268
 2837TIP3    H1 8464   6.292   2.656   1.348
 2837TIP3    H2 8465   6.152   2.649   1.291
 2838TIP3   OH2 8466   6.505   3.313   2.430
 2838TIP3    H1 8467   6.424   3.259   2.424
 2838TIP3    H2 8468   6.489   3.377   2.357
 2839TIP3   OH2 8469   6.568   3.147   1.080
 2839TIP3    H1 8470   6.592   3.211   1.011
 2839TIP3    H2 8471   6.492   3.193   1.120
 2840TIP3   OH2 8472   5.586   1.928   2.943
 2840TIP3    H1 8473   5.489   1.931   2.955
 2840TIP3    H2 8474   5.614   1.875   3.020
 2841TIP3   OH2 8475   6.398   2.621   1.490
 2841TIP3    H1 8476   6.387   2.548   1.553
 2841TIP3    H2 8477   6.494   2.612   1.470
 2842TIP3   OH2 8478   5.594   2.657   1.266
 2842TIP3    H1 8479   5.608   2.564   1.240
 2842TIP3    H2 8480   5.571   2.648   1.360
 2843TIP3   OH2 8481   5.540   2.669   1.540
 2843TIP3    H1 8482   5.623   2.639   1.580
 2843TIP3    H2 8483   5.545   2.766   1.555
 2844TIP3   OH2 8484   5.273   2.354   1.742
 2844TIP3    H1 8485   5.207   2.403   1.795
 2844TIP3    H2 8486   5.289   2.419   1.671
 2845TIP3   OH2 8487   6.427   1.997   2.640
 2845TIP3    H1 8488   6.514   2.030   2.668
 2845TIP3    H2 8489   6.419   1.913   2.692
 2846TIP3   OH2 8490   6.308   1.740   1.805
 2846TIP3    H1 8491   6.297   1.758   1.710
 2846TIP3    H2 8492   6.351   1.822   1.837
 2847TIP3   OH2 8493   5.804   2.856   1.486
 2847TIP3    H1 8494   5.721   2.888   1.524
 2847TIP3    H2 8495   5.824   2.927   1.423
 2848TIP3   OH2 8496   5.989   1.928   1.902
 2848TIP3    H1 8497   6.055   1.999   1.884
 2848TIP3    H2 8498   6.000   1.917   1.999
 2849TIP3   OH2 8499   6.269   2.236   2.701
 2849TIP3    H1 8500   6.300   2.281   2.782
 2849TIP3    H2 8501   6.320   2.152   2.703
 2850TIP3   OH2 8502   6.140   1.638   1.996
 2850TIP3    H1 8503   6.141   1.715   2.056
 2850TIP3    H2 8504   6.203   1.670   1.927
 2851TIP3   OH2 8505   5.554   2.947   1.561
 2851TIP3    H1 8506   5.522   2.992   1.479
 2851TIP3    H2 8507   5.560   3.023   1.619
 2852TIP3   OH2 8508   5.652   1.652   1.788
 2852TIP3    H1 8509   5.649   1.739   1.832
 2852TIP3    H2 8510   5.749   1.634   1.796
 2853TIP3   OH2 8511   6.902   2.141   2.694
 2853TIP3    H1 8512   6.804   2.138   2.697
 2853TIP3    H2 8513   6.917   2.096   2.610
 2854TIP3   OH2 8514   6.554   2.336   2.076
 2854TIP3    H1 8515   6.479   2.275   2.086
 2854TIP3    H2 8516   6.626   2.288   2.124
 2855TIP3   OH2 8517   5.276   2.556   1.541
 2855TIP3    H1 8518   5.353   2.617   1.547
 2855TIP3    H2 8519   5.312   2.493   1.475
 2856TIP3   OH2 8520   5.209   1.837   1.683
 2856TIP3    H1 8521   5.211   1.935   1.679
 2856TIP3    H2 8522   5.139   1.816   1.621
 2857TIP3   OH2 8523   6.528   3.297   2.021
 2857TIP3    H1 8524   6.484   3.344   1.947
 2857TIP3    H2 8525   6.622   3.308   1.997
 2858TIP3   OH2 8526   5.601   1.560   2.547
 2858TIP3    H1 8527   5.574   1.524   2.460
 2858TIP3    H2 8528   5.594   1.480   2.604
 2859TIP3   OH2 8529   5.293   3.322   3.011
 2859TIP3    H1 8530   5.382   3.311   3.048
 2859TIP3    H2 8531   5.274   3.234   2.975
 2860TIP3   OH2 8532   5.773   3.263   3.056
 2860TIP3    H1 8533   5.843   3.306   3.005
 2860TIP3    H2 8534   5.736   3.199   2.990
 2861TIP3   OH2 8535   5.760   2.859   1.172
 2861TIP3    H1 8536   5.708   2.784   1.210
 2861TIP3    H2 8537   5.836   2.811   1.133
 2862TIP3   OH2 8538   6.398   3.207   2.780
 2862TIP3    H1 8539   6.389   3.139   2.851
 2862TIP3    H2 8540   6.481   3.251   2.807
 2863TIP3   OH2 8541   6.191   2.895   1.090
 2863TIP3    H1 8542   6.234   2.830   1.149
 2863TIP3    H2 8543   6.247   2.893   1.010
 2864TIP3   OH2 8544   5.429   2.729   3.206
 2864TIP3    H1 8545   5.443   2.632   3.211
 2864TIP3    H2 8546   5.343   2.733   3.157
 2865TIP3   OH2 8547   5.407   2.368   1.402
 2865TIP3    H1 8548   5.467   2.339   1.474
 2865TIP3    H2 8549   5.472   2.375   1.328
 2866TIP3   OH2 8550   6.030   2.802   2.977
 2866TIP3    H1 8551   5.993   2.831   2.892
 2866TIP3    H2 8552   6.057   2.709   2.960
 2867TIP3   OH2 8553   5.928   2.577   1.210
 2867TIP3    H1 8554   5.929   2.587   1.307
 2867TIP3    H2 8555   5.930   2.479   1.202
 2868TIP3   OH2 8556   6.529   2.833   2.588
 2868TIP3    H1 8557   6.606   2.871   2.543
 2868TIP3    H2 8558   6.461   2.899   2.566
 2869TIP3   OH2 8559   5.549   2.467   3.191
 2869TIP3    H1 8560   5.627   2.422   3.157
 2869TIP3    H2 8561   5.580   2.499   3.278
 2870TIP3   OH2 8562   5.608   2.281   1.612
 2870TIP3    H1 8563   5.586   2.236   1.695
 2870TIP3    H2 8564   5.651   2.209   1.561
 2871TIP3   OH2 8565   5.886   2.348   2.850
 2871TIP3    H1 8566   5.806   2.405   2.849
 2871TIP3    H2 8567   5.936   2.383   2.773
 2872TIP3   OH2 8568   5.720   2.083   1.456
 2872TIP3    H1 8569   5.696   2.090   1.361
 2872TIP3    H2 8570   5.817   2.081   1.449
 2873TIP3   OH2 8571   6.409   2.755   2.981
 2873TIP3    H1 8572   6.476   2.712   2.925
 2873TIP3    H2 8573   6.395   2.688   3.050
 2874TIP3   OH2 8574   6.532   2.403   1.131
 2874TIP3    H1 8575   6.514   2.361   1.044
 2874TIP3    H2 8576   6.499   2.494   1.110
 2875TIP3   OH2 8577   6.008   2.138   2.970
 2875TIP3    H1 8578   6.009   2.060   2.910
 2875TIP3    H2 8579   5.963   2.206   2.914
 2876TIP3   OH2 8580   6.010   1.926   2.782
 2876TIP3    H1 8581   6.040   1.965   2.697
 2876TIP3    H2 8582   5.917   1.902   2.761
 2877TIP3   OH2 8583   6.031   2.456   2.655
 2877TIP3    H1 8584   6.118   2.468   2.616
 2877TIP3    H2 8585   5.976   2.520   2.605
 2878TIP3   OH2 8586   6.615   2.422   3.030
 2878TIP3    H1 8587   6.656   2.335   3.043
 2878TIP3    H2 8588   6.686   2.471   2.988
 2879TIP3   OH2 8589   6.654   2.683   2.774
 2879TIP3    H1 8590   6.598   2.737   2.715
 2879TIP3    H2 8591   6.742   2.702   2.735
 2880TIP3   OH2 8592   5.889   2.238   3.209
 2880TIP3    H1 8593   5.821   2.169   3.225
 2880TIP3    H2 8594   5.919   2.214   3.119
 2881TIP3   OH2 8595   6.141   1.685   2.855
 2881TIP3    H1 8596   6.092   1.765   2.830
 2881TIP3    H2 8597   6.074   1.615   2.841
 2882TIP3   OH2 8598   6.266   2.185   3.066
 2882TIP3    H1 8599   6.248   2.167   3.160
 2882TIP3    H2 8600   6.178   2.163   3.029
 2883TIP3   OH2 8601   6.508   2.146   2.925
 2883TIP3    H1 8602   6.433   2.140   2.987
 2883TIP3    H2 8603   6.582   2.111   2.978
 2884TIP3   OH2 8604   6.737   2.082   3.070
 2884TIP3    H1 8605   6.750   1.986   3.082
 2884TIP3    H2 8606   6.733   2.115   3.162
 2885TIP3   OH2 8607   5.725   2.019   3.264
 2885TIP3    H1 8608   5.727   1.927   3.232
 2885TIP3    H2 8609   5.764   2.008   3.353
 2886TIP3   OH2 8610   6.232   1.694   3.114
 2886TIP3    H1 8611   6.299   1.623   3.106
 2886TIP3    H2 8612   6.194   1.692   3.024
 2887TIP3   OH2 8613   6.303   1.909   3.268
 2887TIP3    H1 8614   6.282   1.837   3.205
 2887TIP3    H2 8615   6.223   1.966   3.261
 2888TIP3   OH2 8616   5.527   3.128   1.361
 2888TIP3    H1 8617   5.623   3.124   1.344
 2888TIP3    H2 8618   5.499   3.185   1.287
 2889TIP3   OH2 8619   5.006   2.515   1.581
 2889TIP3    H1 8620   5.100   2.537   1.561
 2889TIP3    H2 8621   4.997   2.429   1.536
 2890TIP3   OH2 8622   4.926   3.123   2.002
 2890TIP3    H1 8623   4.856   3.070   1.956
 2890TIP3    H2 8624   4.963   3.055   2.061
 2891TIP3   OH2 8625   5.088   2.957   2.170
 2891TIP3    H1 8626   5.050   2.907   2.244
 2891TIP3    H2 8627   5.130   3.031   2.220
 2892TIP3   OH2 8628   6.793   3.364   1.989
 2892TIP3    H1 8629   6.808   3.401   2.078
 2892TIP3    H2 8630   6.834   3.431   1.932
 2893TIP3   OH2 8631   6.816   3.397   2.269
 2893TIP3    H1 8632   6.765   3.313   2.261
 2893TIP3    H2 8633   6.877   3.372   2.340
 2894TIP3   OH2 8634   6.859   3.081   2.837
 2894TIP3    H1 8635   6.790   3.092   2.904
 2894TIP3    H2 8636   6.905   3.167   2.841
 2895TIP3   OH2 8637   6.672   2.593   1.456
 2895TIP3    H1 8638   6.739   2.657   1.424
 2895TIP3    H2 8639   6.718   2.554   1.534
 2896TIP3   OH2 8640   6.795   2.459   1.661
 2896TIP3    H1 8641   6.729   2.416   1.719
 2896TIP3    H2 8642   6.858   2.496   1.725
 2897TIP3   OH2 8643   6.853   2.860   2.095
 2897TIP3    H1 8644   6.903   2.785   2.054
 2897TIP3    H2 8645   6.852   2.926   2.023
 2898TIP3   OH2 8646   6.684   3.155   2.284
 2898TIP3    H1 8647   6.611   3.194   2.336
 2898TIP3    H2 8648   6.635   3.108   2.213
 2899TIP3   OH2 8649   6.736   2.367   1.309
 2899TIP3    H1 8650   6.666   2.366   1.240
 2899TIP3    H2 8651   6.706   2.444   1.362
 2900TIP3   OH2 8652   6.611   2.041   1.256
 2900TIP3    H1 8653   6.567   2.071   1.176
 2900TIP3    H2 8654   6.583   1.947   1.258
 2901TIP3   OH2 8655   6.610   2.318   1.806
 2901TIP3    H1 8656   6.619   2.221   1.796
 2901TIP3    H2 8657   6.596   2.328   1.903
 2902TIP3   OH2 8658   5.237   2.390   2.555
 2902TIP3    H1 8659   5.235   2.352   2.464
 2902TIP3    H2 8660   5.335   2.390   2.571
 2903TIP3   OH2 8661   6.900   2.748   2.664
 2903TIP3    H1 8662   6.971   2.681   2.658
 2903TIP3    H2 8663   6.921   2.806   2.590
 2904TIP3   OH2 8664   7.087   2.556   2.698
 2904TIP3    H1 8665   7.007   2.504   2.722
 2904TIP3    H2 8666   7.154   2.484   2.702
 2905TIP3   OH2 8667   6.538   1.782   1.252
 2905TIP3    H1 8668   6.613   1.740   1.298
 2905TIP3    H2 8669   6.470   1.713   1.251
 2906TIP3   OH2 8670   6.612   2.035   1.696
 2906TIP3    H1 8671   6.653   1.946   1.711
 2906TIP3    H2 8672   6.670   2.066   1.623
 2907TIP3   OH2 8673   6.765   2.202   2.197
 2907TIP3    H1 8674   6.850   2.229   2.155
 2907TIP3    H2 8675   6.781   2.239   2.286
 2908TIP3   OH2 8676   6.837   2.355   2.424
 2908TIP3    H1 8677   6.761   2.392   2.473
 2908TIP3    H2 8678   6.872   2.434   2.377
 2909TIP3   OH2 8679   5.459   2.073   3.230
 2909TIP3    H1 8680   5.557   2.068   3.236
 2909TIP3    H2 8681   5.435   1.985   3.266
 2910TIP3   OH2 8682   7.294   1.947   2.973
 2910TIP3    H1 8683   7.352   1.887   2.924
 2910TIP3    H2 8684   7.252   1.999   2.901
 2911TIP3   OH2 8685   6.716   1.785   1.740
 2911TIP3    H1 8686   6.761   1.771   1.825
 2911TIP3    H2 8687   6.653   1.711   1.740
 2912TIP3   OH2 8688   5.419   1.770   2.560
 2912TIP3    H1 8689   5.480   1.694   2.565
 2912TIP3    H2 8690   5.483   1.843   2.548
 2913TIP3   OH2 8691   5.216   2.039   2.630
 2913TIP3    H1 8692   5.268   2.037   2.547
 2913TIP3    H2 8693   5.246   2.121   2.670
 2914TIP3   OH2 8694   7.151   2.073   2.785
 2914TIP3    H1 8695   7.065   2.117   2.799
 2914TIP3    H2 8696   7.121   2.001   2.725
 2915TIP3   OH2 8697   6.788   1.719   1.377
 2915TIP3    H1 8698   6.825   1.646   1.322
 2915TIP3    H2 8699   6.853   1.790   1.365
 2916TIP3   OH2 8700   5.206   1.545   2.135
 2916TIP3    H1 8701   5.113   1.536   2.162
 2916TIP3    H2 8702   5.199   1.603   2.056
 2917TIP3   OH2 8703   6.368   3.248   1.643
 2917TIP3    H1 8704   6.417   3.238   1.559
 2917TIP3    H2 8705   6.416   3.320   1.686
 2918TIP3   OH2 8706   5.424   1.620   2.944
 2918TIP3    H1 8707   5.374   1.620   3.027
 2918TIP3    H2 8708   5.360   1.663   2.884
 2919TIP3   OH2 8709   5.473   3.052   3.030
 2919TIP3    H1 8710   5.380   3.038   3.003
 2919TIP3    H2 8711   5.465   3.037   3.125
 2920TIP3   OH2 8712   5.653   3.090   2.570
 2920TIP3    H1 8713   5.593   3.162   2.541
 2920TIP3    H2 8714   5.732   3.115   2.519
 2921TIP3   OH2 8715   6.113   3.319   2.724
 2921TIP3    H1 8716   6.196   3.291   2.765
 2921TIP3    H2 8717   6.149   3.382   2.658
 2922TIP3   OH2 8718   6.260   3.487   2.569
 2922TIP3    H1 8719   6.328   3.439   2.520
 2922TIP3    H2 8720   6.315   3.542   2.628
 2923TIP3   OH2 8721   7.048   1.831   2.677
 2923TIP3    H1 8722   6.961   1.811   2.639
 2923TIP3    H2 8723   7.092   1.742   2.667
 2924TIP3   OH2 8724   5.543   3.321   2.464
 2924TIP3    H1 8725   5.453   3.325   2.502
 2924TIP3    H2 8726   5.528   3.357   2.374
 2925TIP3   OH2 8727   5.981   3.347   2.251
 2925TIP3    H1 8728   5.912   3.364   2.185
 2925TIP3    H2 8729   5.991   3.435   2.293
 2926TIP3   OH2 8730   6.250   3.288   2.309
 2926TIP3    H1 8731   6.156   3.305   2.287
 2926TIP3    H2 8732   6.294   3.358   2.258
 2927TIP3   OH2 8733   6.457   3.477   2.216
 2927TIP3    H1 8734   6.441   3.562   2.169
 2927TIP3    H2 8735   6.481   3.417   2.141
 2928TIP3   OH2 8736   5.233   3.138   2.305
 2928TIP3    H1 8737   5.199   3.167   2.394
 2928TIP3    H2 8738   5.316   3.100   2.337
 2929TIP3   OH2 8739   5.444   2.964   2.137
 2929TIP3    H1 8740   5.463   2.900   2.211
 2929TIP3    H2 8741   5.525   3.022   2.148
 2930TIP3   OH2 8742   5.688   3.092   2.207
 2930TIP3    H1 8743   5.724   3.001   2.203
 2930TIP3    H2 8744   5.737   3.124   2.285
 2931TIP3   OH2 8745   6.262   1.755   2.284
 2931TIP3    H1 8746   6.224   1.682   2.335
 2931TIP3    H2 8747   6.339   1.713   2.240
 2932TIP3   OH2 8748   6.781   1.644   2.195
 2932TIP3    H1 8749   6.817   1.694   2.118
 2932TIP3    H2 8750   6.685   1.656   2.183
 2933TIP3   OH2 8751   6.872   1.749   1.962
 2933TIP3    H1 8752   6.943   1.695   1.921
 2933TIP3    H2 8753   6.904   1.840   1.940
 2934TIP3   OH2 8754   5.521   1.457   2.302
 2934TIP3    H1 8755   5.429   1.424   2.307
 2934TIP3    H2 8756   5.570   1.375   2.280
 2935TIP3   OH2 8757   5.314   1.339   1.959
 2935TIP3    H1 8758   5.339   1.393   1.881
 2935TIP3    H2 8759   5.284   1.407   2.022
 2936TIP3   OH2 8760   5.943   1.543   2.176
 2936TIP3    H1 8761   6.011   1.562   2.109
 2936TIP3    H2 8762   5.995   1.541   2.258
 2937TIP3   OH2 8763   6.498   1.644   2.165
 2937TIP3    H1 8764   6.510   1.597   2.082
 2937TIP3    H2 8765   6.493   1.569   2.228
 2938TIP3   OH2 8766   6.529   1.578   1.746
 2938TIP3    H1 8767   6.442   1.618   1.765
 2938TIP3    H2 8768   6.517   1.489   1.785
 2939TIP3   OH2 8769   5.033   2.919   1.752
 2939TIP3    H1 8770   4.957   2.869   1.720
 2939TIP3    H2 8771   5.014   3.005   1.710
 2940TIP3   OH2 8772   5.425   1.492   1.713
 2940TIP3    H1 8773   5.470   1.429   1.654
 2940TIP3    H2 8774   5.500   1.545   1.747
 2941TIP3   OH2 8775   5.928   1.676   1.814
 2941TIP3    H1 8776   5.987   1.627   1.874
 2941TIP3    H2 8777   5.952   1.768   1.839
 2942TIP3   OH2 8778   5.795   3.090   1.316
 2942TIP3    H1 8779   5.881   3.117   1.278
 2942TIP3    H2 8780   5.773   3.018   1.253
 2943TIP3   OH2 8781   6.513   3.217   1.410
 2943TIP3    H1 8782   6.507   3.119   1.399
 2943TIP3    H2 8783   6.465   3.248   1.331
 2944TIP3   OH2 8784   5.722   1.746   3.194
 2944TIP3    H1 8785   5.686   1.675   3.251
 2944TIP3    H2 8786   5.816   1.745   3.223
 2945TIP3   OH2 8787   5.973   1.745   3.312
 2945TIP3    H1 8788   6.058   1.720   3.272
 2945TIP3    H2 8789   5.962   1.674   3.379
 2946TIP3   OH2 8790   5.094   2.926   1.361
 2946TIP3    H1 8791   5.100   2.953   1.454
 2946TIP3    H2 8792   5.181   2.882   1.347
 2947TIP3   OH2 8793   6.798   1.812   3.101
 2947TIP3    H1 8794   6.816   1.780   3.192
 2947TIP3    H2 8795   6.887   1.807   3.060
 2948TIP3   OH2 8796   6.732   3.359   2.590
 2948TIP3    H1 8797   6.654   3.329   2.540
 2948TIP3    H2 8798   6.712   3.454   2.600
 2949TIP3   OH2 8799   7.286   2.642   2.072
 2949TIP3    H1 8800   7.289   2.560   2.125
 2949TIP3    H2 8801   7.347   2.697   2.124
 2950TIP3   OH2 8802   7.264   3.031   1.818
 2950TIP3    H1 8803   7.269   2.935   1.799
 2950TIP3    H2 8804   7.305   3.034   1.907
 2951TIP3   OH2 8805   6.975   2.241   1.605
 2951TIP3    H1 8806   6.922   2.320   1.623
 2951TIP3    H2 8807   6.908   2.187   1.559
 2952TIP3   OH2 8808   7.024   2.534   1.789
 2952TIP3    H1 8809   7.072   2.454   1.822
 2952TIP3    H2 8810   7.076   2.558   1.711
 2953TIP3   OH2 8811   7.167   2.327   1.894
 2953TIP3    H1 8812   7.247   2.323   1.951
 2953TIP3    H2 8813   7.193   2.270   1.820
 2954TIP3   OH2 8814   7.388   3.064   2.056
 2954TIP3    H1 8815   7.404   3.160   2.067
 2954TIP3    H2 8816   7.341   3.046   2.140
 2955TIP3   OH2 8817   6.871   2.767   1.345
 2955TIP3    H1 8818   6.832   2.789   1.259
 2955TIP3    H2 8819   6.903   2.854   1.375
 2956TIP3   OH2 8820   7.396   2.792   2.329
 2956TIP3    H1 8821   7.415   2.867   2.389
 2956TIP3    H2 8822   7.317   2.754   2.373
 2957TIP3   OH2 8823   7.506   3.368   2.374
 2957TIP3    H1 8824   7.485   3.348   2.280
 2957TIP3    H2 8825   7.420   3.345   2.416
 2958TIP3   OH2 8826   7.054   2.905   2.282
 2958TIP3    H1 8827   6.982   2.880   2.221
 2958TIP3    H2 8828   7.080   2.818   2.320
 2959TIP3   OH2 8829   6.906   3.085   1.920
 2959TIP3    H1 8830   7.002   3.090   1.913
 2959TIP3    H2 8831   6.882   3.167   1.966
 2960TIP3   OH2 8832   7.075   3.299   1.465
 2960TIP3    H1 8833   7.124   3.284   1.548
 2960TIP3    H2 8834   7.027   3.214   1.456
 2961TIP3   OH2 8835   7.254   3.088   2.287
 2961TIP3    H1 8836   7.310   3.070   2.365
 2961TIP3    H2 8837   7.184   3.019   2.295
 2962TIP3   OH2 8838   7.289   2.487   2.325
 2962TIP3    H1 8839   7.383   2.507   2.312
 2962TIP3    H2 8840   7.293   2.397   2.364
 2963TIP3   OH2 8841   6.995   1.966   1.855
 2963TIP3    H1 8842   7.049   1.990   1.933
 2963TIP3    H2 8843   7.058   1.927   1.794
 2964TIP3   OH2 8844   6.966   1.947   1.377
 2964TIP3    H1 8845   7.042   1.998   1.339
 2964TIP3    H2 8846   6.904   2.020   1.398
 2965TIP3   OH2 8847   7.235   2.188   1.665
 2965TIP3    H1 8848   7.142   2.206   1.635
 2965TIP3    H2 8849   7.243   2.094   1.646
 2966TIP3   OH2 8850   7.432   3.001   2.504
 2966TIP3    H1 8851   7.518   2.979   2.545
 2966TIP3    H2 8852   7.373   3.001   2.581
 2967TIP3   OH2 8853   7.302   2.760   1.814
 2967TIP3    H1 8854   7.379   2.708   1.785
 2967TIP3    H2 8855   7.284   2.718   1.900
 2968TIP3   OH2 8856   7.150   2.709   2.445
 2968TIP3    H1 8857   7.182   2.687   2.535
 2968TIP3    H2 8858   7.141   2.620   2.406
 2969TIP3   OH2 8859   7.305   3.039   1.443
 2969TIP3    H1 8860   7.331   3.110   1.383
 2969TIP3    H2 8861   7.212   3.025   1.420
 2970TIP3   OH2 8862   6.963   2.353   1.150
 2970TIP3    H1 8863   7.015   2.433   1.174
 2970TIP3    H2 8864   6.888   2.361   1.212
 2971TIP3   OH2 8865   7.271   3.326   1.270
 2971TIP3    H1 8866   7.197   3.328   1.334
 2971TIP3    H2 8867   7.308   3.416   1.279
 2972TIP3   OH2 8868   7.343   2.225   2.405
 2972TIP3    H1 8869   7.247   2.206   2.413
 2972TIP3    H2 8870   7.380   2.158   2.464
 2973TIP3   OH2 8871   7.126   3.277   2.073
 2973TIP3    H1 8872   7.161   3.190   2.098
 2973TIP3    H2 8873   7.108   3.314   2.160
 2974TIP3   OH2 8874   7.068   2.599   1.234
 2974TIP3    H1 8875   7.000   2.650   1.281
 2974TIP3    H2 8876   7.097   2.662   1.166
 2975TIP3   OH2 8877   7.281   3.212   1.018
 2975TIP3    H1 8878   7.322   3.281   0.966
 2975TIP3    H2 8879   7.278   3.252   1.108
 2976TIP3   OH2 8880   7.078   2.824   1.034
 2976TIP3    H1 8881   7.116   2.907   1.064
 2976TIP3    H2 8882   7.149   2.790   0.978
 2977TIP3   OH2 8883   6.933   2.088   1.065
 2977TIP3    H1 8884   6.960   2.172   1.107
 2977TIP3    H2 8885   6.897   2.039   1.139
 2978TIP3   OH2 8886   6.937   3.042   1.410
 2978TIP3    H1 8887   6.875   3.060   1.482
 2978TIP3    H2 8888   6.892   3.086   1.334
 2979TIP3   OH2 8889   7.098   3.587   2.478
 2979TIP3    H1 8890   7.179   3.593   2.535
 2979TIP3    H2 8891   7.077   3.493   2.489
 2980TIP3   OH2 8892   7.556   3.567   2.561
 2980TIP3    H1 8893   7.621   3.548   2.631
 2980TIP3    H2 8894   7.547   3.484   2.511
 2981TIP3   OH2 8895   7.221   2.992   2.690
 2981TIP3    H1 8896   7.237   2.896   2.697
 2981TIP3    H2 8897   7.136   2.994   2.642
 2982TIP3   OH2 8898   7.349   2.734   2.659
 2982TIP3    H1 8899   7.338   2.643   2.694
 2982TIP3    H2 8900   7.389   2.775   2.739
 2983TIP3   OH2 8901   6.804   2.779   1.069
 2983TIP3    H1 8902   6.899   2.795   1.051
 2983TIP3    H2 8903   6.793   2.690   1.028
 2984TIP3   OH2 8904   6.718   3.387   1.486
 2984TIP3    H1 8905   6.652   3.328   1.443
 2984TIP3    H2 8906   6.761   3.325   1.548
 2985TIP3   OH2 8907   6.848   3.229   1.675
 2985TIP3    H1 8908   6.831   3.161   1.742
 2985TIP3    H2 8909   6.898   3.294   1.727
 2986TIP3   OH2 8910   7.015   2.651   2.034
 2986TIP3    H1 8911   7.006   2.613   1.944
 2986TIP3    H2 8912   7.112   2.651   2.044
 2987TIP3   OH2 8913   7.221   2.317   2.682
 2987TIP3    H1 8914   7.318   2.318   2.677
 2987TIP3    H2 8915   7.205   2.231   2.726
 2988TIP3   OH2 8916   7.154   2.000   2.079
 2988TIP3    H1 8917   7.206   1.937   2.133
 2988TIP3    H2 8918   7.227   2.056   2.047
 2989TIP3   OH2 8919   7.005   2.305   2.119
 2989TIP3    H1 8920   7.050   2.306   2.033
 2989TIP3    H2 8921   7.059   2.367   2.170
 2990TIP3   OH2 8922   7.012   1.795   1.599
 2990TIP3    H1 8923   6.930   1.785   1.651
 2990TIP3    H2 8924   6.983   1.857   1.529
 2991TIP3   OH2 8925   7.230   1.948   2.502
 2991TIP3    H1 8926   7.167   1.896   2.555
 2991TIP3    H2 8927   7.183   1.952   2.417
 2992TIP3   OH2 8928   7.267   3.318   2.511
 2992TIP3    H1 8929   7.176   3.290   2.491
 2992TIP3    H2 8930   7.275   3.293   2.604
 2993TIP3   OH2 8931   7.442   3.329   2.094
 2993TIP3    H1 8932   7.363   3.380   2.070
 2993TIP3    H2 8933   7.501   3.353   2.019
 2994TIP3   OH2 8934   7.113   3.637   2.088
 2994TIP3    H1 8935   7.021   3.659   2.061
 2994TIP3    H2 8936   7.098   3.613   2.180
 2995TIP3   OH2 8937   7.342   3.601   1.946
 2995TIP3    H1 8938   7.252   3.571   1.969
 2995TIP3    H2 8939   7.329   3.628   1.852
 2996TIP3   OH2 8940   7.035   3.394   1.829
 2996TIP3    H1 8941   7.059   3.360   1.918
 2996TIP3    H2 8942   7.105   3.351   1.775
 2997TIP3   OH2 8943   7.228   3.266   1.692
 2997TIP3    H1 8944   7.238   3.175   1.731
 2997TIP3    H2 8945   7.320   3.287   1.671
 2998TIP3   OH2 8946  -0.530   3.104   2.951
 2998TIP3    H1 8947  -0.479   3.172   2.905
 2998TIP3    H2 8948  -0.565   3.155   3.027
 2999TIP3   OH2 8949   6.811   3.175   1.212
 2999TIP3    H1 8950   6.725   3.143   1.179
 2999TIP3    H2 8951   6.807   3.265   1.175
 3000TIP3   OH2 8952   6.869   3.180   0.869
 3000TIP3    H1 8953   6.875   3.225   0.954
 3000TIP3    H2 8954   6.963   3.156   0.852
 3001TIP3   OH2 8955   0.457   3.523   3.043
 3001TIP3    H1 8956   0.423   3.612   3.020
 3001TIP3    H2 8957   0.382   3.469   3.012
 3002TIP3   OH2 8958   0.454   3.523   3.438
 3002TIP3    H1 8959   0.494   3.500   3.524
 3002TIP3    H2 8960   0.414   3.438   3.412
 3003TIP3   OH2 8961  -0.245   3.417   3.756
 3003TIP3    H1 8962  -0.239   3.342   3.817
 3003TIP3    H2 8963  -0.164   3.465   3.776
 3004TIP3   OH2 8964   0.703   3.825   3.116
 3004TIP3    H1 8965   0.685   3.757   3.183
 3004TIP3    H2 8966   0.735   3.900   3.170
 3005TIP3   OH2 8967  -0.208   3.822   3.563
 3005TIP3    H1 8968  -0.192   3.725   3.552
 3005TIP3    H2 8969  -0.131   3.857   3.514
 3006TIP3   OH2 8970   0.359   4.286   3.132
 3006TIP3    H1 8971   0.395   4.215   3.075
 3006TIP3    H2 8972   0.344   4.237   3.214
 3007TIP3   OH2 8973   0.260   3.749   3.467
 3007TIP3    H1 8974   0.304   3.670   3.431
 3007TIP3    H2 8975   0.339   3.798   3.496
 3008TIP3   OH2 8976   1.271   3.066   3.478
 3008TIP3    H1 8977   1.301   3.149   3.520
 3008TIP3    H2 8978   1.296   3.082   3.385
 3009TIP3   OH2 8979   0.667   3.247   3.504
 3009TIP3    H1 8980   0.709   3.161   3.526
 3009TIP3    H2 8981   0.633   3.227   3.414
 3010TIP3   OH2 8982   0.016   2.908   3.468
 3010TIP3    H1 8983  -0.011   2.979   3.406
 3010TIP3    H2 8984  -0.033   2.832   3.430
 3011TIP3   OH2 8985   0.704   2.998   3.091
 3011TIP3    H1 8986   0.774   2.986   3.159
 3011TIP3    H2 8987   0.758   3.034   3.018
 3012TIP3   OH2 8988  -0.354   3.098   3.588
 3012TIP3    H1 8989  -0.272   3.075   3.636
 3012TIP3    H2 8990  -0.332   3.064   3.500
 3013TIP3   OH2 8991   0.081   3.305   3.366
 3013TIP3    H1 8992   0.175   3.278   3.380
 3013TIP3    H2 8993   0.039   3.221   3.339
 3014TIP3   OH2 8994   1.343   3.276   3.647
 3014TIP3    H1 8995   1.257   3.320   3.632
 3014TIP3    H2 8996   1.368   3.313   3.733
 3015TIP3   OH2 8997   0.008   2.881   3.902
 3015TIP3    H1 8998  -0.052   2.916   3.833
 3015TIP3    H2 8999  -0.046   2.899   3.982
 3016TIP3   OH2 9000   0.336   3.738   2.915
 3016TIP3    H1 9001   0.301   3.732   2.825
 3016TIP3    H2 9002   0.293   3.820   2.946
 3017TIP3   OH2 9003   0.133   3.654   3.684
 3017TIP3    H1 9004   0.080   3.724   3.727
 3017TIP3    H2 9005   0.170   3.701   3.606
 3018TIP3   OH2 9006   0.900   3.008   3.277
 3018TIP3    H1 9007   0.880   2.970   3.364
 3018TIP3    H2 9008   0.953   3.086   3.302
 3019TIP3   OH2 9009  -0.116   3.002   3.689
 3019TIP3    H1 9010  -0.054   3.073   3.717
 3019TIP3    H2 9011  -0.067   2.964   3.613
 3020TIP3   OH2 9012  -0.027   3.834   3.808
 3020TIP3    H1 9013  -0.057   3.910   3.754
 3020TIP3    H2 9014  -0.113   3.796   3.835
 3021TIP3   OH2 9015   0.766   4.072   3.276
 3021TIP3    H1 9016   0.675   4.062   3.315
 3021TIP3    H2 9017   0.757   4.158   3.230
 3022TIP3   OH2 9018   1.063   2.960   3.639
 3022TIP3    H1 9019   0.977   2.991   3.606
 3022TIP3    H2 9020   1.125   2.996   3.572
 3023TIP3   OH2 9021   0.354   2.604   3.629
 3023TIP3    H1 9022   0.336   2.509   3.646
 3023TIP3    H2 9023   0.277   2.645   3.674
 3024TIP3   OH2 9024   0.462   4.113   2.942
 3024TIP3    H1 9025   0.513   4.030   2.926
 3024TIP3    H2 9026   0.527   4.178   2.906
 3025TIP3   OH2 9027   0.608   3.896   2.867
 3025TIP3    H1 9028   0.579   3.814   2.825
 3025TIP3    H2 9029   0.648   3.863   2.950
 3026TIP3   OH2 9030   0.992   3.977   3.620
 3026TIP3    H1 9031   0.979   3.899   3.561
 3026TIP3    H2 9032   0.974   4.051   3.558
 3027TIP3   OH2 9033   0.288   3.371   2.884
 3027TIP3    H1 9034   0.207   3.424   2.864
 3027TIP3    H2 9035   0.333   3.371   2.798
 3028TIP3   OH2 9036   0.243   3.165   2.592
 3028TIP3    H1 9037   0.308   3.217   2.643
 3028TIP3    H2 9038   0.305   3.107   2.542
 3029TIP3   OH2 9039   1.187   3.619   3.469
 3029TIP3    H1 9040   1.102   3.669   3.471
 3029TIP3    H2 9041   1.219   3.642   3.379
 3030TIP3   OH2 9042   0.635   3.456   2.847
 3030TIP3    H1 9043   0.580   3.480   2.926
 3030TIP3    H2 9044   0.719   3.432   2.890
 3031TIP3   OH2 9045   0.866   3.485   3.772
 3031TIP3    H1 9046   0.870   3.568   3.824
 3031TIP3    H2 9047   0.781   3.497   3.725
 3032TIP3   OH2 9048  -0.127   3.442   3.248
 3032TIP3    H1 9049  -0.165   3.380   3.184
 3032TIP3    H2 9050  -0.051   3.392   3.283
 3033TIP3   OH2 9051   0.009   3.874   3.406
 3033TIP3    H1 9052  -0.016   3.850   3.314
 3033TIP3    H2 9053   0.095   3.828   3.418
 3034TIP3   OH2 9054   0.033   3.408   3.619
 3034TIP3    H1 9055   0.061   3.382   3.528
 3034TIP3    H2 9056   0.076   3.496   3.630
 3035TIP3   OH2 9057   0.526   4.063   3.400
 3035TIP3    H1 9058   0.518   4.141   3.458
 3035TIP3    H2 9059   0.511   3.988   3.461
 3036TIP3   OH2 9060   0.155   3.975   3.953
 3036TIP3    H1 9061   0.091   4.035   3.993
 3036TIP3    H2 9062   0.096   3.921   3.896
 3037TIP3   OH2 9063   0.470   3.314   2.678
 3037TIP3    H1 9064   0.531   3.375   2.726
 3037TIP3    H2 9065   0.497   3.333   2.585
 3038TIP3   OH2 9066  -0.110   3.508   4.067
 3038TIP3    H1 9067  -0.113   3.576   4.137
 3038TIP3    H2 9068  -0.206   3.487   4.055
 3039TIP3   OH2 9069   0.222   3.987   2.953
 3039TIP3    H1 9070   0.305   4.037   2.953
 3039TIP3    H2 9071   0.162   4.046   2.907
 3040TIP3   OH2 9072   0.983   2.549   2.725
 3040TIP3    H1 9073   0.907   2.579   2.779
 3040TIP3    H2 9074   1.004   2.630   2.675
 3041TIP3   OH2 9075  -0.278   3.291   3.058
 3041TIP3    H1 9076  -0.360   3.342   3.047
 3041TIP3    H2 9077  -0.310   3.214   3.107
 3042TIP3   OH2 9078   0.791   3.917   2.278
 3042TIP3    H1 9079   0.799   4.013   2.260
 3042TIP3    H2 9080   0.884   3.888   2.264
 3043TIP3   OH2 9081   1.228   4.327   3.675
 3043TIP3    H1 9082   1.229   4.230   3.685
 3043TIP3    H2 9083   1.140   4.348   3.714
 3044TIP3   OH2 9084   0.341   4.107   3.800
 3044TIP3    H1 9085   0.338   4.201   3.830
 3044TIP3    H2 9086   0.269   4.068   3.854
 3045TIP3   OH2 9087   0.103   4.232   2.757
 3045TIP3    H1 9088   0.054   4.221   2.674
 3045TIP3    H2 9089   0.078   4.323   2.783
 3046TIP3   OH2 9090   0.297   4.139   2.392
 3046TIP3    H1 9091   0.355   4.068   2.357
 3046TIP3    H2 9092   0.334   4.151   2.482
 3047TIP3   OH2 9093   0.353   4.189   2.660
 3047TIP3    H1 9094   0.264   4.196   2.702
 3047TIP3    H2 9095   0.404   4.151   2.733
 3048TIP3   OH2 9096   1.126   3.451   3.936
 3048TIP3    H1 9097   1.035   3.457   3.904
 3048TIP3    H2 9098   1.141   3.355   3.937
 3049TIP3   OH2 9099   0.119   2.679   3.752
 3049TIP3    H1 9100   0.031   2.647   3.722
 3049TIP3    H2 9101   0.089   2.757   3.804
 3050TIP3   OH2 9102   0.655   2.799   3.950
 3050TIP3    H1 9103   0.724   2.770   4.013
 3050TIP3    H2 9104   0.572   2.779   3.999
 3051TIP3   OH2 9105   0.880   3.222   3.863
 3051TIP3    H1 9106   0.835   3.229   3.950
 3051TIP3    H2 9107   0.866   3.311   3.826
 3052TIP3   OH2 9108   0.550   3.351   2.424
 3052TIP3    H1 9109   0.512   3.336   2.335
 3052TIP3    H2 9110   0.635   3.392   2.401
 3053TIP3   OH2 9111   0.243   2.727   2.709
 3053TIP3    H1 9112   0.222   2.728   2.805
 3053TIP3    H2 9113   0.214   2.636   2.687
 3054TIP3   OH2 9114   0.059   3.194   3.780
 3054TIP3    H1 9115  -0.001   3.213   3.855
 3054TIP3    H2 9116   0.047   3.276   3.725
 3055TIP3   OH2 9117  -0.068   3.091   3.284
 3055TIP3    H1 9118  -0.158   3.058   3.306
 3055TIP3    H2 9119  -0.057   3.048   3.196
 3056TIP3   OH2 9120   0.424   3.171   3.017
 3056TIP3    H1 9121   0.375   3.243   2.972
 3056TIP3    H2 9122   0.479   3.136   2.945
 3057TIP3   OH2 9123   0.593   3.461   4.129
 3057TIP3    H1 9124   0.574   3.380   4.181
 3057TIP3    H2 9125   0.684   3.443   4.101
 3058TIP3   OH2 9126   0.578   3.195   3.250
 3058TIP3    H1 9127   0.513   3.222   3.181
 3058TIP3    H2 9128   0.616   3.117   3.204
 3059TIP3   OH2 9129  -0.132   3.216   3.974
 3059TIP3    H1 9130  -0.118   3.283   4.043
 3059TIP3    H2 9131  -0.136   3.134   4.027
 3060TIP3   OH2 9132  -0.087   2.694   2.692
 3060TIP3    H1 9133  -0.094   2.708   2.789
 3060TIP3    H2 9134  -0.167   2.741   2.660
 3061TIP3   OH2 9135  -0.474   2.736   3.126
 3061TIP3    H1 9136  -0.472   2.748   3.031
 3061TIP3    H2 9137  -0.570   2.743   3.143
 3062TIP3   OH2 9138   0.584   3.442   3.670
 3062TIP3    H1 9139   0.621   3.373   3.610
 3062TIP3    H2 9140   0.559   3.385   3.746
 3063TIP3   OH2 9141   0.269   2.905   3.344
 3063TIP3    H1 9142   0.187   2.907   3.398
 3063TIP3    H2 9143   0.337   2.897   3.413
 3064TIP3   OH2 9144  -0.291   2.951   3.347
 3064TIP3    H1 9145  -0.376   2.939   3.302
 3064TIP3    H2 9146  -0.254   2.861   3.342
 3065TIP3   OH2 9147  -0.041   2.964   3.048
 3065TIP3    H1 9148   0.052   2.980   3.022
 3065TIP3    H2 9149  -0.091   2.986   2.966
 3066TIP3   OH2 9150   0.749   2.985   3.551
 3066TIP3    H1 9151   0.719   2.999   3.644
 3066TIP3    H2 9152   0.679   2.926   3.519
 3067TIP3   OH2 9153  -0.189   3.000   2.827
 3067TIP3    H1 9154  -0.265   2.951   2.792
 3067TIP3    H2 9155  -0.145   3.031   2.745
 3068TIP3   OH2 9156   0.927   4.673   3.771
 3068TIP3    H1 9157   0.921   4.696   3.676
 3068TIP3    H2 9158   1.007   4.721   3.797
 3069TIP3   OH2 9159  -0.111   3.739   4.240
 3069TIP3    H1 9160  -0.027   3.788   4.248
 3069TIP3    H2 9161  -0.138   3.737   4.332
 3070TIP3   OH2 9162   0.338   3.240   3.446
 3070TIP3    H1 9163   0.413   3.198   3.402
 3070TIP3    H2 9164   0.337   3.196   3.533
 3071TIP3   OH2 9165  -0.136   2.719   3.336
 3071TIP3    H1 9166  -0.180   2.649   3.390
 3071TIP3    H2 9167  -0.110   2.666   3.259
 3072TIP3   OH2 9168   0.321   3.144   3.719
 3072TIP3    H1 9169   0.229   3.168   3.744
 3072TIP3    H2 9170   0.375   3.202   3.775
 3073TIP3   OH2 9171   0.057   3.516   2.824
 3073TIP3    H1 9172  -0.018   3.454   2.812
 3073TIP3    H2 9173   0.036   3.554   2.913
 3074TIP3   OH2 9174   0.951   3.762   3.452
 3074TIP3    H1 9175   0.976   3.813   3.372
 3074TIP3    H2 9176   0.867   3.718   3.424
 3075TIP3   OH2 9177   0.505   2.831   2.704
 3075TIP3    H1 9178   0.408   2.818   2.706
 3075TIP3    H2 9179   0.516   2.926   2.723
 3076TIP3   OH2 9180   0.453   3.849   3.818
 3076TIP3    H1 9181   0.450   3.814   3.907
 3076TIP3    H2 9182   0.415   3.938   3.826
 3077TIP3   OH2 9183   0.579   3.084   2.798
 3077TIP3    H1 9184   0.675   3.092   2.813
 3077TIP3    H2 9185   0.559   3.165   2.747
 3078TIP3   OH2 9186  -0.184   3.559   3.496
 3078TIP3    H1 9187  -0.168   3.522   3.407
 3078TIP3    H2 9188  -0.151   3.487   3.553
 3079TIP3   OH2 9189   0.199   3.674   2.652
 3079TIP3    H1 9190   0.151   3.760   2.655
 3079TIP3    H2 9191   0.145   3.619   2.712
 3080TIP3   OH2 9192   0.344   3.585   4.132
 3080TIP3    H1 9193   0.285   3.517   4.095
 3080TIP3    H2 9194   0.432   3.546   4.112
 3081TIP3   OH2 9195   0.614   4.111   3.720
 3081TIP3    H1 9196   0.518   4.104   3.735
 3081TIP3    H2 9197   0.641   4.162   3.799
 3082TIP3   OH2 9198   1.015   3.182   2.632
 3082TIP3    H1 9199   0.953   3.137   2.570
 3082TIP3    H2 9200   1.014   3.271   2.591
 3083TIP3   OH2 9201   1.242   4.043   3.706
 3083TIP3    H1 9202   1.145   4.030   3.699
 3083TIP3    H2 9203   1.270   4.009   3.618
 3084TIP3   OH2 9204   0.726   3.995   2.541
 3084TIP3    H1 9205   0.697   3.924   2.600
 3084TIP3    H2 9206   0.740   3.950   2.456
 3085TIP3   OH2 9207   0.718   3.626   3.366
 3085TIP3    H1 9208   0.624   3.601   3.381
 3085TIP3    H2 9209   0.752   3.544   3.325
 3086TIP3   OH2 9210  -0.134   3.853   3.153
 3086TIP3    H1 9211  -0.162   3.924   3.092
 3086TIP3    H2 9212  -0.218   3.804   3.164
 3087TIP3   OH2 9213  -0.020   3.617   3.060
 3087TIP3    H1 9214  -0.040   3.708   3.091
 3087TIP3    H2 9215  -0.053   3.564   3.135
 3088TIP3   OH2 9216   0.142   4.203   3.586
 3088TIP3    H1 9217   0.182   4.273   3.532
 3088TIP3    H2 9218   0.221   4.166   3.630
 3089TIP3   OH2 9219  -0.235   4.073   2.987
 3089TIP3    H1 9220  -0.322   4.113   2.976
 3089TIP3    H2 9221  -0.182   4.153   3.006
 3090TIP3   OH2 9222   0.506   3.831   3.554
 3090TIP3    H1 9223   0.495   3.831   3.652
 3090TIP3    H2 9224   0.583   3.774   3.543
 3091TIP3   OH2 9225   0.486   3.727   2.444
 3091TIP3    H1 9226   0.541   3.701   2.522
 3091TIP3    H2 9227   0.398   3.698   2.473
 3092TIP3   OH2 9228   0.755   4.361   3.610
 3092TIP3    H1 9229   0.676   4.304   3.606
 3092TIP3    H2 9230   0.738   4.423   3.536
 3093TIP3   OH2 9231   0.819   4.193   2.258
 3093TIP3    H1 9232   0.855   4.265   2.204
 3093TIP3    H2 9233   0.739   4.238   2.294
 3094TIP3   OH2 9234  -0.133   2.964   4.123
 3094TIP3    H1 9235  -0.220   2.966   4.167
 3094TIP3    H2 9236  -0.081   2.925   4.195
 3095TIP3   OH2 9237   0.647   3.657   2.657
 3095TIP3    H1 9238   0.636   3.590   2.727
 3095TIP3    H2 9239   0.744   3.652   2.643
 3096TIP3   OH2 9240  -0.162   3.701   2.426
 3096TIP3    H1 9241  -0.143   3.608   2.407
 3096TIP3    H2 9242  -0.167   3.698   2.525
 3097TIP3   OH2 9243  -0.176   3.710   2.697
 3097TIP3    H1 9244  -0.120   3.682   2.771
 3097TIP3    H2 9245  -0.180   3.807   2.709
 3098TIP3   OH2 9246   0.677   3.038   3.813
 3098TIP3    H1 9247   0.762   3.077   3.842
 3098TIP3    H2 9248   0.671   2.956   3.867
 3099TIP3   OH2 9249   0.568   2.779   2.982
 3099TIP3    H1 9250   0.550   2.804   2.889
 3099TIP3    H2 9251   0.607   2.863   3.017
 3100TIP3   OH2 9252   0.068   3.911   2.661
 3100TIP3    H1 9253  -0.021   3.932   2.697
 3100TIP3    H2 9254   0.080   3.988   2.603
 3101TIP3   OH2 9255   0.243   2.971   3.077
 3101TIP3    H1 9256   0.306   3.045   3.063
 3101TIP3    H2 9257   0.249   2.960   3.175
 3102TIP3   OH2 9258   0.519   3.276   3.877
 3102TIP3    H1 9259   0.527   3.303   3.970
 3102TIP3    H2 9260   0.570   3.192   3.875
 3103TIP3   OH2 9261   0.389   2.686   3.179
 3103TIP3    H1 9262   0.379   2.765   3.235
 3103TIP3    H2 9263   0.453   2.719   3.112
 3104TIP3   OH2 9264  -0.190   3.978   2.727
 3104TIP3    H1 9265  -0.233   4.043   2.667
 3104TIP3    H2 9266  -0.214   4.014   2.815
 3105TIP3   OH2 9267  -0.087   2.705   2.968
 3105TIP3    H1 9268  -0.090   2.792   3.013
 3105TIP3    H2 9269   0.009   2.686   2.975
 3106TIP3   OH2 9270   1.149   3.182   3.867
 3106TIP3    H1 9271   1.051   3.179   3.871
 3106TIP3    H2 9272   1.164   3.138   3.783
 3107TIP3   OH2 9273   0.805   3.380   3.253
 3107TIP3    H1 9274   0.729   3.321   3.265
 3107TIP3    H2 9275   0.876   3.333   3.301
 3108TIP3   OH2 9276  -0.438   3.612   2.783
 3108TIP3    H1 9277  -0.390   3.696   2.772
 3108TIP3    H2 9278  -0.401   3.562   2.707
 3109TIP3   OH2 9279  -0.472   2.886   2.787
 3109TIP3    H1 9280  -0.486   2.964   2.846
 3109TIP3    H2 9281  -0.550   2.835   2.813
 3110TIP3   OH2 9282   0.775   4.342   3.198
 3110TIP3    H1 9283   0.732   4.391   3.124
 3110TIP3    H2 9284   0.870   4.360   3.177
 3111TIP3   OH2 9285  -0.142   2.599   3.718
 3111TIP3    H1 9286  -0.180   2.566   3.634
 3111TIP3    H2 9287  -0.158   2.524   3.778
 3112TIP3   OH2 9288   0.055   4.362   4.177
 3112TIP3    H1 9289   0.132   4.328   4.226
 3112TIP3    H2 9290   0.012   4.281   4.148
 3113TIP3   OH2 9291   0.010   3.904   2.350
 3113TIP3    H1 9292  -0.047   3.831   2.383
 3113TIP3    H2 9293   0.087   3.854   2.316
 3114TIP3   OH2 9294   0.665   4.240   3.958
 3114TIP3    H1 9295   0.662   4.164   4.022
 3114TIP3    H2 9296   0.742   4.291   3.990
 3115TIP3   OH2 9297   0.442   3.940   2.266
 3115TIP3    H1 9298   0.484   3.876   2.326
 3115TIP3    H2 9299   0.499   3.936   2.186
 3116TIP3   OH2 9300  -0.325   3.426   2.597
 3116TIP3    H1 9301  -0.263   3.399   2.668
 3116TIP3    H2 9302  -0.263   3.428   2.520
 3117TIP3   OH2 9303   0.305   3.863   4.151
 3117TIP3    H1 9304   0.252   3.887   4.071
 3117TIP3    H2 9305   0.314   3.766   4.141
 3118TIP3   OH2 9306   0.172   3.620   2.385
 3118TIP3    H1 9307   0.174   3.632   2.482
 3118TIP3    H2 9308   0.172   3.522   2.379
 3119TIP3   OH2 9309   0.777   3.878   3.764
 3119TIP3    H1 9310   0.854   3.917   3.719
 3119TIP3    H2 9311   0.708   3.944   3.744
 3120TIP3   OH2 9312  -0.146   3.329   2.792
 3120TIP3    H1 9313  -0.176   3.293   2.878
 3120TIP3    H2 9314  -0.106   3.250   2.749
 3121TIP3   OH2 9315   0.146   3.394   4.027
 3121TIP3    H1 9316   0.060   3.440   4.026
 3121TIP3    H2 9317   0.192   3.430   3.948
 3122TIP3   OH2 9318  -0.033   3.123   2.635
 3122TIP3    H1 9319  -0.057   3.134   2.540
 3122TIP3    H2 9320   0.064   3.127   2.629
 3123TIP3   OH2 9321   0.779   3.447   2.307
 3123TIP3    H1 9322   0.763   3.406   2.220
 3123TIP3    H2 9323   0.747   3.538   2.288
 3124TIP3   OH2 9324   0.265   3.176   4.137
 3124TIP3    H1 9325   0.260   3.097   4.079
 3124TIP3    H2 9326   0.217   3.244   4.085
 3125TIP3   OH2 9327   0.262   2.968   3.952
 3125TIP3    H1 9328   0.289   3.005   3.867
 3125TIP3    H2 9329   0.169   2.941   3.933
 3126TIP3   OH2 9330   0.296   3.501   3.834
 3126TIP3    H1 9331   0.381   3.506   3.790
 3126TIP3    H2 9332   0.240   3.560   3.779
 3127TIP3   OH2 9333   0.910   3.713   3.934
 3127TIP3    H1 9334   0.851   3.774   3.884
 3127TIP3    H2 9335   0.998   3.741   3.900
 3128TIP3   OH2 9336   0.160   3.292   4.370
 3128TIP3    H1 9337   0.085   3.235   4.397
 3128TIP3    H2 9338   0.182   3.254   4.283
 3129TIP3   OH2 9339   0.392   2.729   4.029
 3129TIP3    H1 9340   0.341   2.809   4.005
 3129TIP3    H2 9341   0.324   2.659   4.017
 3130TIP3   OH2 9342   0.511   3.231   4.244
 3130TIP3    H1 9343   0.492   3.207   4.337
 3130TIP3    H2 9344   0.425   3.205   4.204
 3131TIP3   OH2 9345   0.757   3.213   4.104
 3131TIP3    H1 9346   0.684   3.192   4.166
 3131TIP3    H2 9347   0.834   3.178   4.154
 3132TIP3   OH2 9348   0.975   3.124   4.249
 3132TIP3    H1 9349   0.993   3.029   4.263
 3132TIP3    H2 9350   0.977   3.160   4.339
 3133TIP3   OH2 9351  -0.001   3.074   4.429
 3133TIP3    H1 9352  -0.035   2.986   4.404
 3133TIP3    H2 9353   0.032   3.056   4.518
 3134TIP3   OH2 9354   0.483   2.740   4.288
 3134TIP3    H1 9355   0.548   2.667   4.281
 3134TIP3    H2 9356   0.442   2.736   4.199
 3135TIP3   OH2 9357   0.555   2.954   4.443
 3135TIP3    H1 9358   0.532   2.882   4.380
 3135TIP3    H2 9359   0.475   3.011   4.439
 3136TIP3   OH2 9360  -0.233   4.190   2.541
 3136TIP3    H1 9361  -0.138   4.177   2.528
 3136TIP3    H2 9362  -0.255   4.242   2.462
 3137TIP3   OH2 9363   1.033   4.427   3.163
 3137TIP3    H1 9364   1.063   4.459   3.250
 3137TIP3    H2 9365   1.102   4.459   3.103
 3138TIP3   OH2 9366   1.059   4.446   3.448
 3138TIP3    H1 9367   1.010   4.362   3.440
 3138TIP3    H2 9368   1.135   4.416   3.500
 3139TIP3   OH2 9369   1.101   4.125   4.018
 3139TIP3    H1 9370   1.029   4.131   4.085
 3139TIP3    H2 9371   1.147   4.209   4.031
 3140TIP3   OH2 9372   0.924   3.635   2.633
 3140TIP3    H1 9373   0.988   3.702   2.601
 3140TIP3    H2 9374   0.970   3.599   2.712
 3141TIP3   OH2 9375   1.051   3.503   2.839
 3141TIP3    H1 9376   0.984   3.463   2.898
 3141TIP3    H2 9377   1.117   3.537   2.902
 3142TIP3   OH2 9378   1.109   3.900   3.270
 3142TIP3    H1 9379   1.161   3.829   3.227
 3142TIP3    H2 9380   1.108   3.969   3.201
 3143TIP3   OH2 9381   0.932   4.199   3.462
 3143TIP3    H1 9382   0.858   4.237   3.512
 3143TIP3    H2 9383   0.884   4.153   3.389
 3144TIP3   OH2 9384   0.985   3.412   2.483
 3144TIP3    H1 9385   0.914   3.415   2.416
 3144TIP3    H2 9386   0.958   3.488   2.538
 3145TIP3   OH2 9387   0.849   3.081   2.442
 3145TIP3    H1 9388   0.821   3.121   2.360
 3145TIP3    H2 9389   0.834   2.986   2.423
 3146TIP3   OH2 9390   0.860   3.365   2.983
 3146TIP3    H1 9391   0.869   3.269   2.974
 3146TIP3    H2 9392   0.845   3.377   3.079
 3147TIP3   OH2 9393   1.158   3.790   3.842
 3147TIP3    H1 9394   1.227   3.720   3.831
 3147TIP3    H2 9395   1.184   3.853   3.773
 3148TIP3   OH2 9396   1.338   3.587   3.842
 3148TIP3    H1 9397   1.263   3.537   3.881
 3148TIP3    H2 9398   1.411   3.524   3.862
 3149TIP3   OH2 9399   0.808   2.809   2.399
 3149TIP3    H1 9400   0.877   2.786   2.465
 3149TIP3    H2 9401   0.728   2.764   2.434
 3150TIP3   OH2 9402   0.860   3.080   2.872
 3150TIP3    H1 9403   0.902   2.992   2.886
 3150TIP3    H2 9404   0.917   3.115   2.800
 3151TIP3   OH2 9405   1.016   3.244   3.372
 3151TIP3    H1 9406   1.102   3.268   3.329
 3151TIP3    H2 9407   1.033   3.284   3.460
 3152TIP3   OH2 9408   1.091   3.394   3.599
 3152TIP3    H1 9409   1.017   3.428   3.652
 3152TIP3    H2 9410   1.125   3.476   3.556
 3153TIP3   OH2 9411   1.537   2.988   4.156
 3153TIP3    H1 9412   1.602   2.926   4.116
 3153TIP3    H2 9413   1.509   3.040   4.079
 3154TIP3   OH2 9414   0.967   2.830   2.913
 3154TIP3    H1 9415   1.016   2.814   2.997
 3154TIP3    H2 9416   0.905   2.754   2.914
 3155TIP3   OH2 9417  -0.319   2.816   3.756
 3155TIP3    H1 9418  -0.271   2.734   3.742
 3155TIP3    H2 9419  -0.257   2.883   3.724
 3156TIP3   OH2 9420   1.409   3.123   3.959
 3156TIP3    H1 9421   1.327   3.168   3.987
 3156TIP3    H2 9422   1.371   3.051   3.905
 3157TIP3   OH2 9423   1.040   2.758   2.551
 3157TIP3    H1 9424   1.085   2.692   2.495
 3157TIP3    H2 9425   1.105   2.831   2.553
 3158TIP3   OH2 9426   0.615   4.298   2.817
 3158TIP3    H1 9427   0.663   4.286   2.733
 3158TIP3    H2 9428   0.671   4.363   2.862
 3159TIP3   OH2 9429  -0.056   4.107   3.758
 3159TIP3    H1 9430  -0.092   4.191   3.793
 3159TIP3    H2 9431   0.011   4.140   3.693
 3160TIP3   OH2 9432   0.340   4.366   3.879
 3160TIP3    H1 9433   0.380   4.368   3.968
 3160TIP3    H2 9434   0.402   4.425   3.830
 3161TIP3   OH2 9435   0.517   4.530   3.748
 3161TIP3    H1 9436   0.586   4.477   3.705
 3161TIP3    H2 9437   0.570   4.585   3.809
 3162TIP3   OH2 9438   1.310   2.885   3.844
 3162TIP3    H1 9439   1.221   2.871   3.809
 3162TIP3    H2 9440   1.348   2.794   3.836
 3163TIP3   OH2 9441   0.246   4.400   3.427
 3163TIP3    H1 9442   0.172   4.412   3.363
 3163TIP3    H2 9443   0.259   4.492   3.458
 3164TIP3   OH2 9444   0.506   4.332   3.487
 3164TIP3    H1 9445   0.413   4.351   3.462
 3164TIP3    H2 9446   0.553   4.398   3.433
 3165TIP3   OH2 9447   0.704   4.522   3.392
 3165TIP3    H1 9448   0.689   4.605   3.343
 3165TIP3    H2 9449   0.731   4.462   3.319
 3166TIP3   OH2 9450  -0.038   4.153   3.364
 3166TIP3    H1 9451  -0.037   4.056   3.355
 3166TIP3    H2 9452   0.022   4.162   3.440
 3167TIP3   OH2 9453   0.514   2.801   3.468
 3167TIP3    H1 9454   0.473   2.728   3.519
 3167TIP3    H2 9455   0.590   2.757   3.425
 3168TIP3   OH2 9456   1.031   2.678   3.362
 3168TIP3    H1 9457   1.069   2.732   3.289
 3168TIP3    H2 9458   0.938   2.706   3.361
 3169TIP3   OH2 9459   1.130   2.780   3.129
 3169TIP3    H1 9460   1.206   2.727   3.095
 3169TIP3    H2 9461   1.166   2.871   3.116
 3170TIP3   OH2 9462  -0.235   2.510   3.474
 3170TIP3    H1 9463  -0.327   2.474   3.478
 3170TIP3    H2 9464  -0.186   2.426   3.472
 3171TIP3   OH2 9465  -0.453   2.455   3.149
 3171TIP3    H1 9466  -0.407   2.491   3.072
 3171TIP3    H2 9467  -0.474   2.537   3.197
 3172TIP3   OH2 9468   0.216   2.538   3.358
 3172TIP3    H1 9469   0.271   2.592   3.299
 3172TIP3    H2 9470   0.229   2.582   3.444
 3173TIP3   OH2 9471   0.746   2.692   3.345
 3173TIP3    H1 9472   0.754   2.649   3.259
 3173TIP3    H2 9473   0.738   2.614   3.405
 3174TIP3   OH2 9474   0.782   2.618   2.905
 3174TIP3    H1 9475   0.701   2.667   2.932
 3174TIP3    H2 9476   0.769   2.534   2.954
 3175TIP3   OH2 9477  -0.307   2.544   2.907
 3175TIP3    H1 9478  -0.245   2.484   2.864
 3175TIP3    H2 9479  -0.247   2.615   2.936
 3176TIP3   OH2 9480   0.191   2.722   2.982
 3176TIP3    H1 9481   0.244   2.675   3.049
 3176TIP3    H2 9482   0.208   2.815   3.010
 3177TIP3   OH2 9483   0.037   4.137   2.489
 3177TIP3    H1 9484   0.125   4.159   2.452
 3177TIP3    H2 9485   0.015   4.061   2.431
 3178TIP3   OH2 9486   0.759   4.262   2.585
 3178TIP3    H1 9487   0.752   4.164   2.574
 3178TIP3    H2 9488   0.713   4.292   2.504
 3179TIP3   OH2 9489  -0.038   2.801   4.370
 3179TIP3    H1 9490  -0.067   2.722   4.420
 3179TIP3    H2 9491   0.056   2.803   4.399
 3180TIP3   OH2 9492   0.216   2.792   4.492
 3180TIP3    H1 9493   0.301   2.766   4.452
 3180TIP3    H2 9494   0.203   2.719   4.556
 3181TIP3   OH2 9495   1.050   2.855   4.276
 3181TIP3    H1 9496   1.067   2.824   4.368
 3181TIP3    H2 9497   1.140   2.850   4.237
 3182TIP3   OH2 9498   0.979   4.402   3.775
 3182TIP3    H1 9499   0.904   4.371   3.720
 3182TIP3    H2 9500   0.959   4.498   3.778
 3183TIP3   OH2 9501   2.252   3.779   2.529
 3183TIP3    H1 9502   2.218   3.868   2.506
 3183TIP3    H2 9503   2.179   3.725   2.497
 3184TIP3   OH2 9504   2.252   3.781   2.925
 3184TIP3    H1 9505   2.290   3.757   3.012
 3184TIP3    H2 9506   2.212   3.697   2.898
 3185TIP3   OH2 9507   1.545   3.666   3.285
 3185TIP3    H1 9508   1.574   3.597   3.348
 3185TIP3    H2 9509   1.627   3.716   3.275
 3186TIP3   OH2 9510   2.500   4.081   2.603
 3186TIP3    H1 9511   2.480   4.014   2.669
 3186TIP3    H2 9512   2.531   4.156   2.658
 3187TIP3   OH2 9513   1.525   4.083   3.003
 3187TIP3    H1 9514   1.516   3.985   3.002
 3187TIP3    H2 9515   1.622   4.092   2.992
 3188TIP3   OH2 9516   1.228   3.279   2.782
 3188TIP3    H1 9517   1.182   3.361   2.804
 3188TIP3    H2 9518   1.156   3.232   2.735
 3189TIP3   OH2 9519   1.284   3.570   2.971
 3189TIP3    H1 9520   1.335   3.492   3.002
 3189TIP3    H2 9521   1.346   3.612   2.910
 3190TIP3   OH2 9522   2.154   4.542   2.620
 3190TIP3    H1 9523   2.189   4.473   2.561
 3190TIP3    H2 9524   2.138   4.492   2.701
 3191TIP3   OH2 9525   2.048   4.005   2.965
 3191TIP3    H1 9526   2.090   3.928   2.925
 3191TIP3    H2 9527   2.129   4.054   2.991
 3192TIP3   OH2 9528   3.069   3.322   2.966
 3192TIP3    H1 9529   3.098   3.406   3.007
 3192TIP3    H2 9530   3.090   3.339   2.872
 3193TIP3   OH2 9531   2.462   3.502   2.991
 3193TIP3    H1 9532   2.505   3.417   3.013
 3193TIP3    H2 9533   2.429   3.483   2.902
 3194TIP3   OH2 9534   1.806   3.163   2.958
 3194TIP3    H1 9535   1.786   3.236   2.895
 3194TIP3    H2 9536   1.756   3.090   2.916
 3195TIP3   OH2 9537   2.500   3.257   2.578
 3195TIP3    H1 9538   2.570   3.243   2.645
 3195TIP3    H2 9539   2.554   3.290   2.504
 3196TIP3   OH2 9540   1.435   3.364   3.069
 3196TIP3    H1 9541   1.518   3.346   3.117
 3196TIP3    H2 9542   1.450   3.310   2.988
 3197TIP3   OH2 9543   1.871   3.562   2.870
 3197TIP3    H1 9544   1.967   3.539   2.879
 3197TIP3    H2 9545   1.835   3.478   2.835
 3198TIP3   OH2 9546   3.141   3.534   3.132
 3198TIP3    H1 9547   3.054   3.577   3.120
 3198TIP3    H2 9548   3.167   3.570   3.219
 3199TIP3   OH2 9549   1.797   3.146   3.396
 3199TIP3    H1 9550   1.738   3.184   3.327
 3199TIP3    H2 9551   1.743   3.163   3.476
 3200TIP3   OH2 9552   2.132   3.995   2.402
 3200TIP3    H1 9553   2.099   3.988   2.311
 3200TIP3    H2 9554   2.088   4.077   2.433
 3201TIP3   OH2 9555   1.903   3.924   3.183
 3201TIP3    H1 9556   1.846   3.995   3.218
 3201TIP3    H2 9557   1.947   3.969   3.108
 3202TIP3   OH2 9558   2.698   3.264   2.763
 3202TIP3    H1 9559   2.679   3.224   2.849
 3202TIP3    H2 9560   2.749   3.343   2.789
 3203TIP3   OH2 9561   1.670   3.261   3.177
 3203TIP3    H1 9562   1.732   3.334   3.202
 3203TIP3    H2 9563   1.721   3.222   3.103
 3204TIP3   OH2 9564   1.735   4.124   3.289
 3204TIP3    H1 9565   1.708   4.210   3.253
 3204TIP3    H2 9566   1.656   4.103   3.343
 3205TIP3   OH2 9567   1.119   3.810   2.522
 3205TIP3    H1 9568   1.081   3.836   2.436
 3205TIP3    H2 9569   1.153   3.896   2.556
 3206TIP3   OH2 9570   2.563   4.328   2.763
 3206TIP3    H1 9571   2.473   4.318   2.803
 3206TIP3    H2 9572   2.553   4.414   2.717
 3207TIP3   OH2 9573   2.860   3.218   3.127
 3207TIP3    H1 9574   2.773   3.246   3.093
 3207TIP3    H2 9575   2.921   3.253   3.059
 3208TIP3   OH2 9576   2.144   2.859   3.111
 3208TIP3    H1 9577   2.130   2.765   3.133
 3208TIP3    H2 9578   2.069   2.900   3.159
 3209TIP3   OH2 9579   2.258   4.369   2.429
 3209TIP3    H1 9580   2.308   4.286   2.413
 3209TIP3    H2 9581   2.323   4.434   2.393
 3210TIP3   OH2 9582   2.404   4.153   2.353
 3210TIP3    H1 9583   2.378   4.071   2.309
 3210TIP3    H2 9584   2.444   4.119   2.436
 3211TIP3   OH2 9585   2.790   4.234   3.107
 3211TIP3    H1 9586   2.776   4.156   3.048
 3211TIP3    H2 9587   2.772   4.308   3.045
 3212TIP3   OH2 9588   2.082   3.629   2.370
 3212TIP3    H1 9589   2.003   3.683   2.350
 3212TIP3    H2 9590   2.127   3.627   2.283
 3213TIP3   OH2 9591   2.039   3.419   2.075
 3213TIP3    H1 9592   2.106   3.471   2.124
 3213TIP3    H2 9593   2.098   3.356   2.028
 3214TIP3   OH2 9594   2.984   3.878   2.957
 3214TIP3    H1 9595   2.899   3.926   2.959
 3214TIP3    H2 9596   3.014   3.900   2.866
 3215TIP3   OH2 9597   2.431   3.713   2.333
 3215TIP3    H1 9598   2.376   3.736   2.412
 3215TIP3    H2 9599   2.515   3.689   2.377
 3216TIP3   OH2 9600   2.663   3.744   3.258
 3216TIP3    H1 9601   2.663   3.825   3.313
 3216TIP3    H2 9602   2.577   3.752   3.212
 3217TIP3   OH2 9603   1.662   3.706   2.756
 3217TIP3    H1 9604   1.621   3.648   2.689
 3217TIP3    H2 9605   1.737   3.653   2.788
 3218TIP3   OH2 9606   1.790   4.120   2.900
 3218TIP3    H1 9607   1.772   4.092   2.809
 3218TIP3    H2 9608   1.878   4.081   2.916
 3219TIP3   OH2 9609   1.791   3.681   3.110
 3219TIP3    H1 9610   1.826   3.652   3.023
 3219TIP3    H2 9611   1.839   3.766   3.125
 3220TIP3   OH2 9612   2.324   4.320   2.888
 3220TIP3    H1 9613   2.311   4.397   2.945
 3220TIP3    H2 9614   2.307   4.245   2.949
 3221TIP3   OH2 9615   1.938   4.238   3.434
 3221TIP3    H1 9616   1.874   4.298   3.479
 3221TIP3    H2 9617   1.876   4.183   3.382
 3222TIP3   OH2 9618   2.265   3.571   2.164
 3222TIP3    H1 9619   2.326   3.632   2.212
 3222TIP3    H2 9620   2.292   3.590   2.070
 3223TIP3   OH2 9621   1.694   3.791   3.539
 3223TIP3    H1 9622   1.698   3.878   3.582
 3223TIP3    H2 9623   1.601   3.768   3.555
 3224TIP3   OH2 9624   2.016   4.245   2.441
 3224TIP3    H1 9625   2.101   4.294   2.440
 3224TIP3    H2 9626   1.958   4.304   2.392
 3225TIP3   OH2 9627   1.728   4.402   3.521
 3225TIP3    H1 9628   1.696   4.406   3.428
 3225TIP3    H2 9629   1.646   4.382   3.570
 3226TIP3   OH2 9630   2.785   2.806   2.215
 3226TIP3    H1 9631   2.703   2.830   2.263
 3226TIP3    H2 9632   2.800   2.888   2.163
 3227TIP3   OH2 9633   1.529   3.552   2.558
 3227TIP3    H1 9634   1.458   3.595   2.505
 3227TIP3    H2 9635   1.495   3.463   2.567
 3228TIP3   OH2 9636   2.587   4.174   1.766
 3228TIP3    H1 9637   2.595   4.270   1.747
 3228TIP3    H2 9638   2.680   4.144   1.752
 3229TIP3   OH2 9639   1.309   3.937   3.467
 3229TIP3    H1 9640   1.242   3.915   3.400
 3229TIP3    H2 9641   1.349   3.850   3.488
 3230TIP3   OH2 9642   1.165   4.128   3.097
 3230TIP3    H1 9643   1.261   4.119   3.085
 3230TIP3    H2 9644   1.159   4.204   3.156
 3231TIP3   OH2 9645   3.025   4.585   3.158
 3231TIP3    H1 9646   3.027   4.489   3.172
 3231TIP3    H2 9647   2.941   4.608   3.204
 3232TIP3   OH2 9648   2.132   4.365   3.292
 3232TIP3    H1 9649   2.126   4.458   3.324
 3232TIP3    H2 9650   2.061   4.323   3.344
 3233TIP3   OH2 9651   1.901   4.490   2.245
 3233TIP3    H1 9652   1.853   4.473   2.162
 3233TIP3    H2 9653   1.865   4.576   2.272
 3234TIP3   OH2 9654   1.333   4.339   2.630
 3234TIP3    H1 9655   1.379   4.330   2.717
 3234TIP3    H2 9656   1.288   4.253   2.624
 3235TIP3   OH2 9657   2.096   4.397   1.878
 3235TIP3    H1 9658   2.153   4.326   1.843
 3235TIP3    H2 9659   2.132   4.408   1.969
 3236TIP3   OH2 9660   2.151   4.446   2.147
 3236TIP3    H1 9661   2.062   4.455   2.188
 3236TIP3    H2 9662   2.201   4.408   2.221
 3237TIP3   OH2 9663   2.909   3.709   3.425
 3237TIP3    H1 9664   2.829   3.708   3.371
 3237TIP3    H2 9665   2.935   3.615   3.423
 3238TIP3   OH2 9666   1.512   4.122   3.452
 3238TIP3    H1 9667   1.564   4.100   3.533
 3238TIP3    H2 9668   1.439   4.057   3.458
 3239TIP3   OH2 9669   1.911   2.940   3.245
 3239TIP3    H1 9670   1.823   2.911   3.213
 3239TIP3    H2 9671   1.884   3.020   3.295
 3240TIP3   OH2 9672   2.450   3.054   3.437
 3240TIP3    H1 9673   2.521   3.026   3.500
 3240TIP3    H2 9674   2.368   3.035   3.487
 3241TIP3   OH2 9675   2.676   3.481   3.351
 3241TIP3    H1 9676   2.628   3.482   3.438
 3241TIP3    H2 9677   2.657   3.570   3.316
 3242TIP3   OH2 9678   2.346   3.606   1.909
 3242TIP3    H1 9679   2.308   3.590   1.820
 3242TIP3    H2 9680   2.432   3.647   1.885
 3243TIP3   OH2 9681   2.056   2.986   2.214
 3243TIP3    H1 9682   2.020   2.983   2.304
 3243TIP3    H2 9683   2.015   2.905   2.177
 3244TIP3   OH2 9684   1.844   3.459   3.259
 3244TIP3    H1 9685   1.795   3.478   3.342
 3244TIP3    H2 9686   1.827   3.541   3.207
 3245TIP3   OH2 9687   1.728   3.345   2.773
 3245TIP3    H1 9688   1.636   3.319   2.793
 3245TIP3    H2 9689   1.739   3.303   2.684
 3246TIP3   OH2 9690   2.218   3.427   2.504
 3246TIP3    H1 9691   2.169   3.499   2.458
 3246TIP3    H2 9692   2.274   3.392   2.433
 3247TIP3   OH2 9693   2.391   3.701   3.583
 3247TIP3    H1 9694   2.369   3.629   3.647
 3247TIP3    H2 9695   2.485   3.714   3.604
 3248TIP3   OH2 9696   2.373   3.452   2.737
 3248TIP3    H1 9697   2.309   3.478   2.667
 3248TIP3    H2 9698   2.412   3.374   2.691
 3249TIP3   OH2 9699   1.664   3.484   3.468
 3249TIP3    H1 9700   1.700   3.544   3.535
 3249TIP3    H2 9701   1.653   3.401   3.519
 3250TIP3   OH2 9702   1.715   2.965   2.177
 3250TIP3    H1 9703   1.702   2.965   2.274
 3250TIP3    H2 9704   1.638   3.019   2.149
 3251TIP3   OH2 9705   1.260   3.001   3.050
 3251TIP3    H1 9706   1.330   3.039   3.107
 3251TIP3    H2 9707   1.307   2.980   2.968
 3252TIP3   OH2 9708   1.211   2.985   2.567
 3252TIP3    H1 9709   1.256   3.020   2.487
 3252TIP3    H2 9710   1.153   3.061   2.586
 3253TIP3   OH2 9711   2.383   3.699   3.157
 3253TIP3    H1 9712   2.418   3.628   3.097
 3253TIP3    H2 9713   2.353   3.643   3.232
 3254TIP3   OH2 9714   2.065   3.163   2.832
 3254TIP3    H1 9715   1.985   3.163   2.889
 3254TIP3    H2 9716   2.136   3.152   2.897
 3255TIP3   OH2 9717   1.490   3.224   2.839
 3255TIP3    H1 9718   1.396   3.230   2.809
 3255TIP3    H2 9719   1.515   3.133   2.816
 3256TIP3   OH2 9720   1.751   3.215   2.534
 3256TIP3    H1 9721   1.845   3.230   2.512
 3256TIP3    H2 9722   1.705   3.236   2.449
 3257TIP3   OH2 9723   2.548   3.242   3.037
 3257TIP3    H1 9724   2.518   3.255   3.130
 3257TIP3    H2 9725   2.479   3.182   3.004
 3258TIP3   OH2 9726   1.610   3.253   2.305
 3258TIP3    H1 9727   1.541   3.207   2.254
 3258TIP3    H2 9728   1.662   3.292   2.232
 3259TIP3   OH2 9729   2.724   4.932   3.258
 3259TIP3    H1 9730   2.720   4.953   3.163
 3259TIP3    H2 9731   2.806   4.977   3.285
 3260TIP3   OH2 9732   1.673   4.045   3.673
 3260TIP3    H1 9733   1.754   4.070   3.722
 3260TIP3    H2 9734   1.611   4.033   3.748
 3261TIP3   OH2 9735   2.137   3.498   2.932
 3261TIP3    H1 9736   2.211   3.457   2.884
 3261TIP3    H2 9737   2.139   3.451   3.017
 3262TIP3   OH2 9738   1.652   2.980   2.818
 3262TIP3    H1 9739   1.616   2.904   2.868
 3262TIP3    H2 9740   1.697   2.936   2.745
 3263TIP3   OH2 9741   2.113   3.399   3.216
 3263TIP3    H1 9742   2.023   3.432   3.234
 3263TIP3    H2 9743   2.169   3.459   3.268
 3264TIP3   OH2 9744   1.850   3.779   2.315
 3264TIP3    H1 9745   1.777   3.715   2.302
 3264TIP3    H2 9746   1.828   3.814   2.405
 3265TIP3   OH2 9747   2.747   4.018   2.939
 3265TIP3    H1 9748   2.771   4.069   2.859
 3265TIP3    H2 9749   2.663   3.974   2.912
 3266TIP3   OH2 9750   2.308   3.088   2.189
 3266TIP3    H1 9751   2.211   3.067   2.196
 3266TIP3    H2 9752   2.312   3.183   2.211
 3267TIP3   OH2 9753   2.248   4.100   3.313
 3267TIP3    H1 9754   2.287   4.082   3.399
 3267TIP3    H2 9755   2.211   4.189   3.323
 3268TIP3   OH2 9756   2.374   3.343   2.287
 3268TIP3    H1 9757   2.471   3.349   2.300
 3268TIP3    H2 9758   2.355   3.423   2.235
 3269TIP3   OH2 9759   1.545   3.806   2.987
 3269TIP3    H1 9760   1.583   3.777   2.902
 3269TIP3    H2 9761   1.595   3.751   3.050
 3270TIP3   OH2 9762   1.998   3.931   2.142
 3270TIP3    H1 9763   1.948   4.016   2.143
 3270TIP3    H2 9764   1.943   3.876   2.203
 3271TIP3   OH2 9765   1.429   3.726   3.605
 3271TIP3    H1 9766   1.448   3.712   3.700
 3271TIP3    H2 9767   1.362   3.658   3.589
 3272TIP3   OH2 9768   2.154   3.845   3.621
 3272TIP3    H1 9769   2.092   3.782   3.581
 3272TIP3    H2 9770   2.240   3.806   3.593
 3273TIP3   OH2 9771   2.407   4.367   3.211
 3273TIP3    H1 9772   2.311   4.360   3.224
 3273TIP3    H2 9773   2.433   4.418   3.290
 3274TIP3   OH2 9774   2.815   3.437   2.118
 3274TIP3    H1 9775   2.753   3.393   2.054
 3274TIP3    H2 9776   2.813   3.526   2.078
 3275TIP3   OH2 9777   3.040   4.298   3.194
 3275TIP3    H1 9778   2.943   4.287   3.188
 3275TIP3    H2 9779   3.066   4.265   3.106
 3276TIP3   OH2 9780   2.525   4.252   2.029
 3276TIP3    H1 9781   2.493   4.181   2.086
 3276TIP3    H2 9782   2.537   4.207   1.943
 3277TIP3   OH2 9783   2.515   3.882   2.853
 3277TIP3    H1 9784   2.422   3.857   2.868
 3277TIP3    H2 9785   2.548   3.800   2.811
 3278TIP3   OH2 9786   1.650   4.114   2.622
 3278TIP3    H1 9787   1.645   4.192   2.564
 3278TIP3    H2 9788   1.557   4.089   2.627
 3279TIP3   OH2 9789   1.213   3.408   2.327
 3279TIP3    H1 9790   1.257   3.494   2.348
 3279TIP3    H2 9791   1.136   3.413   2.387
 3280TIP3   OH2 9792   1.770   3.871   2.556
 3280TIP3    H1 9793   1.742   3.961   2.578
 3280TIP3    H2 9794   1.738   3.820   2.633
 3281TIP3   OH2 9795   1.917   4.450   3.083
 3281TIP3    H1 9796   1.959   4.522   3.033
 3281TIP3    H2 9797   1.995   4.410   3.127
 3282TIP3   OH2 9798   1.563   4.347   2.468
 3282TIP3    H1 9799   1.477   4.359   2.514
 3282TIP3    H2 9800   1.597   4.439   2.471
 3283TIP3   OH2 9801   2.298   4.088   3.045
 3283TIP3    H1 9802   2.286   4.085   3.143
 3283TIP3    H2 9803   2.375   4.031   3.033
 3284TIP3   OH2 9804   2.283   3.984   1.930
 3284TIP3    H1 9805   2.335   3.958   2.009
 3284TIP3    H2 9806   2.195   3.952   1.955
 3285TIP3   OH2 9807   2.549   4.617   3.095
 3285TIP3    H1 9808   2.469   4.560   3.092
 3285TIP3    H2 9809   2.531   4.679   3.021
 3286TIP3   OH2 9810   2.614   4.449   1.744
 3286TIP3    H1 9811   2.645   4.519   1.685
 3286TIP3    H2 9812   2.536   4.494   1.782
 3287TIP3   OH2 9813   1.633   3.229   3.606
 3287TIP3    H1 9814   1.537   3.230   3.621
 3287TIP3    H2 9815   1.664   3.180   3.685
 3288TIP3   OH2 9816   2.443   3.916   2.145
 3288TIP3    H1 9817   2.432   3.847   2.214
 3288TIP3    H2 9818   2.540   3.910   2.131
 3289TIP3   OH2 9819   1.352   4.311   3.242
 3289TIP3    H1 9820   1.406   4.239   3.278
 3289TIP3    H2 9821   1.385   4.386   3.292
 3290TIP3   OH2 9822   1.642   3.958   1.929
 3290TIP3    H1 9823   1.653   3.865   1.904
 3290TIP3    H2 9824   1.618   3.950   2.024
 3291TIP3   OH2 9825   1.583   3.965   2.201
 3291TIP3    H1 9826   1.662   3.939   2.251
 3291TIP3    H2 9827   1.586   4.063   2.209
 3292TIP3   OH2 9828   1.317   3.655   2.406
 3292TIP3    H1 9829   1.250   3.701   2.461
 3292TIP3    H2 9830   1.331   3.722   2.336
 3293TIP3   OH2 9831   2.475   3.292   3.298
 3293TIP3    H1 9832   2.558   3.333   3.330
 3293TIP3    H2 9833   2.467   3.211   3.353
 3294TIP3   OH2 9834   2.358   3.037   2.469
 3294TIP3    H1 9835   2.344   3.058   2.374
 3294TIP3    H2 9836   2.398   3.120   2.502
 3295TIP3   OH2 9837   1.855   4.160   2.148
 3295TIP3    H1 9838   1.767   4.183   2.184
 3295TIP3    H2 9839   1.869   4.235   2.089
 3296TIP3   OH2 9840   2.034   3.228   2.565
 3296TIP3    H1 9841   2.099   3.300   2.548
 3296TIP3    H2 9842   2.044   3.217   2.662
 3297TIP3   OH2 9843   2.313   3.537   3.365
 3297TIP3    H1 9844   2.339   3.587   3.445
 3297TIP3    H2 9845   2.364   3.455   3.373
 3298TIP3   OH2 9846   2.181   2.940   2.660
 3298TIP3    H1 9847   2.175   3.017   2.719
 3298TIP3    H2 9848   2.246   2.972   2.594
 3299TIP3   OH2 9849   1.602   4.236   2.220
 3299TIP3    H1 9850   1.573   4.306   2.157
 3299TIP3    H2 9851   1.585   4.279   2.306
 3300TIP3   OH2 9852   1.697   2.952   2.453
 3300TIP3    H1 9853   1.694   3.042   2.492
 3300TIP3    H2 9854   1.793   2.935   2.460
 3301TIP3   OH2 9855   2.945   3.443   3.351
 3301TIP3    H1 9856   2.847   3.440   3.356
 3301TIP3    H2 9857   2.960   3.394   3.270
 3302TIP3   OH2 9858   2.601   3.635   2.739
 3302TIP3    H1 9859   2.524   3.577   2.751
 3302TIP3    H2 9860   2.671   3.588   2.788
 3303TIP3   OH2 9861   1.318   3.856   2.207
 3303TIP3    H1 9862   1.392   3.920   2.215
 3303TIP3    H2 9863   1.358   3.796   2.141
 3304TIP3   OH2 9864   1.253   3.134   2.343
 3304TIP3    H1 9865   1.251   3.232   2.339
 3304TIP3    H2 9866   1.183   3.109   2.280
 3305TIP3   OH2 9867   2.571   4.599   2.685
 3305TIP3    H1 9868   2.528   4.647   2.611
 3305TIP3    H2 9869   2.666   4.616   2.664
 3306TIP3   OH2 9870   1.646   2.861   3.211
 3306TIP3    H1 9871   1.617   2.825   3.124
 3306TIP3    H2 9872   1.636   2.783   3.269
 3307TIP3   OH2 9873   1.179   4.079   2.587
 3307TIP3    H1 9874   1.122   4.108   2.660
 3307TIP3    H2 9875   1.139   4.126   2.510
 3308TIP3   OH2 9876   1.348   4.627   3.672
 3308TIP3    H1 9877   1.437   4.625   3.714
 3308TIP3    H2 9878   1.331   4.532   3.660
 3309TIP3   OH2 9879   1.820   4.579   3.708
 3309TIP3    H1 9880   1.914   4.558   3.716
 3309TIP3    H2 9881   1.794   4.516   3.638
 3310TIP3   OH2 9882   1.804   4.160   1.835
 3310TIP3    H1 9883   1.751   4.086   1.873
 3310TIP3    H2 9884   1.880   4.111   1.797
 3311TIP3   OH2 9885   2.456   4.498   3.450
 3311TIP3    H1 9886   2.453   4.425   3.516
 3311TIP3    H2 9887   2.537   4.545   3.476
 3312TIP3   OH2 9888   2.238   4.197   1.753
 3312TIP3    H1 9889   2.278   4.131   1.812
 3312TIP3    H2 9890   2.294   4.191   1.673
 3313TIP3   OH2 9891   1.472   4.034   3.867
 3313TIP3    H1 9892   1.490   3.940   3.882
 3313TIP3    H2 9893   1.386   4.031   3.819
 3314TIP3   OH2 9894   1.453   3.671   2.065
 3314TIP3    H1 9895   1.512   3.646   2.138
 3314TIP3    H2 9896   1.518   3.678   1.992
 3315TIP3   OH2 9897   2.078   4.120   3.643
 3315TIP3    H1 9898   2.038   4.140   3.556
 3315TIP3    H2 9899   2.110   4.028   3.631
 3316TIP3   OH2 9900   1.975   3.878   1.873
 3316TIP3    H1 9901   1.973   3.889   1.970
 3316TIP3    H2 9902   1.974   3.780   1.866
 3317TIP3   OH2 9903   2.572   4.136   3.249
 3317TIP3    H1 9904   2.650   4.174   3.205
 3317TIP3    H2 9905   2.505   4.203   3.228
 3318TIP3   OH2 9906   1.599   3.772   3.846
 3318TIP3    H1 9907   1.671   3.711   3.825
 3318TIP3    H2 9908   1.623   3.798   3.937
 3319TIP3   OH2 9909   1.653   3.586   2.277
 3319TIP3    H1 9910   1.629   3.546   2.362
 3319TIP3    H2 9911   1.694   3.512   2.229
 3320TIP3   OH2 9912   1.927   3.646   3.509
 3320TIP3    H1 9913   1.850   3.706   3.510
 3320TIP3    H2 9914   1.980   3.682   3.434
 3321TIP3   OH2 9915   1.764   3.383   2.120
 3321TIP3    H1 9916   1.739   3.393   2.026
 3321TIP3    H2 9917   1.862   3.383   2.113
 3322TIP3   OH2 9918   2.448   4.052   3.643
 3322TIP3    H1 9919   2.531   4.024   3.603
 3322TIP3    H2 9920   2.440   3.989   3.717
 3323TIP3   OH2 9921   2.577   3.703   1.794
 3323TIP3    H1 9922   2.559   3.662   1.707
 3323TIP3    H2 9923   2.544   3.794   1.774
 3324TIP3   OH2 9924   2.054   3.438   3.629
 3324TIP3    H1 9925   2.054   3.360   3.570
 3324TIP3    H2 9926   2.009   3.506   3.574
 3325TIP3   OH2 9927   2.056   3.226   3.444
 3325TIP3    H1 9928   2.084   3.265   3.359
 3325TIP3    H2 9929   1.962   3.202   3.425
 3326TIP3   OH2 9930   2.075   3.757   3.317
 3326TIP3    H1 9931   2.163   3.772   3.280
 3326TIP3    H2 9932   2.020   3.822   3.268
 3327TIP3   OH2 9933   2.670   3.722   3.704
 3327TIP3    H1 9934   2.710   3.635   3.688
 3327TIP3    H2 9935   2.733   3.781   3.661
 3328TIP3   OH2 9936   2.699   3.974   3.426
 3328TIP3    H1 9937   2.643   4.033   3.370
 3328TIP3    H2 9938   2.788   3.994   3.390
 3329TIP3   OH2 9939   1.927   3.539   3.860
 3329TIP3    H1 9940   1.860   3.471   3.883
 3329TIP3    H2 9941   1.960   3.506   3.774
 3330TIP3   OH2 9942   2.186   2.985   3.517
 3330TIP3    H1 9943   2.136   3.066   3.493
 3330TIP3    H2 9944   2.118   2.916   3.506
 3331TIP3   OH2 9945   2.311   3.484   3.728
 3331TIP3    H1 9946   2.290   3.468   3.822
 3331TIP3    H2 9947   2.223   3.463   3.690
 3332TIP3   OH2 9948   2.553   3.448   3.589
 3332TIP3    H1 9949   2.476   3.443   3.649
 3332TIP3    H2 9950   2.625   3.414   3.646
 3333TIP3   OH2 9951   2.775   3.386   3.744
 3333TIP3    H1 9952   2.791   3.289   3.751
 3333TIP3    H2 9953   2.776   3.414   3.837
 3334TIP3   OH2 9954   1.767   3.320   3.923
 3334TIP3    H1 9955   1.772   3.226   3.897
 3334TIP3    H2 9956   1.804   3.314   4.014
 3335TIP3   OH2 9957   2.278   2.996   3.776
 3335TIP3    H1 9958   2.344   2.924   3.769
 3335TIP3    H2 9959   2.239   2.992   3.687
 3336TIP3   OH2 9960   2.346   3.212   3.932
 3336TIP3    H1 9961   2.326   3.140   3.868
 3336TIP3    H2 9962   2.267   3.269   3.924
 3337TIP3   OH2 9963   1.572   4.438   2.032
 3337TIP3    H1 9964   1.667   4.428   2.011
 3337TIP3    H2 9965   1.544   4.492   1.956
 3338TIP3   OH2 9966   1.048   3.821   2.243
 3338TIP3    H1 9967   1.143   3.842   2.228
 3338TIP3    H2 9968   1.041   3.733   2.201
 3339TIP3   OH2 9969   0.964   4.431   2.665
 3339TIP3    H1 9970   0.901   4.371   2.622
 3339TIP3    H2 9971   1.010   4.369   2.726
 3340TIP3   OH2 9972   1.099   4.272   2.848
 3340TIP3    H1 9973   1.086   4.206   2.919
 3340TIP3    H2 9974   1.152   4.338   2.896
 3341TIP3   OH2 9975   2.830   4.679   2.651
 3341TIP3    H1 9976   2.858   4.712   2.738
 3341TIP3    H2 9977   2.896   4.719   2.592
 3342TIP3   OH2 9978   2.856   4.702   2.934
 3342TIP3    H1 9979   2.807   4.618   2.927
 3342TIP3    H2 9980   2.929   4.673   2.991
 3343TIP3   OH2 9981   2.897   4.387   3.498
 3343TIP3    H1 9982   2.829   4.394   3.568
 3343TIP3    H2 9983   2.944   4.472   3.508
 3344TIP3   OH2 9984   2.719   3.891   2.121
 3344TIP3    H1 9985   2.783   3.958   2.088
 3344TIP3    H2 9986   2.766   3.855   2.199
 3345TIP3   OH2 9987   2.848   3.759   2.327
 3345TIP3    H1 9988   2.779   3.719   2.384
 3345TIP3    H2 9989   2.911   3.795   2.392
 3346TIP3   OH2 9990   2.907   4.157   2.758
 3346TIP3    H1 9991   2.957   4.086   2.714
 3346TIP3    H2 9992   2.904   4.226   2.688
 3347TIP3   OH2 9993   2.728   4.456   2.948
 3347TIP3    H1 9994   2.654   4.494   3.000
 3347TIP3    H2 9995   2.680   4.409   2.876
 3348TIP3   OH2 9996   2.783   3.669   1.970
 3348TIP3    H1 9997   2.711   3.669   1.903
 3348TIP3    H2 9998   2.754   3.744   2.025
 3349TIP3   OH2 9999   2.652   3.340   1.924
 3349TIP3    H110000   2.609   3.375   1.846
 3349TIP3    H210001   2.631   3.244   1.915
 3350TIP3   OH210002   2.656   3.621   2.469
 3350TIP3    H110003   2.664   3.525   2.459
 3350TIP3    H210004   2.641   3.631   2.565
 3351TIP3   OH210005   1.281   3.692   3.220
 3351TIP3    H110006   1.278   3.654   3.130
 3351TIP3    H210007   1.379   3.692   3.236
 3352TIP3   OH210008   2.947   4.044   3.327
 3352TIP3    H110009   3.016   3.974   3.319
 3352TIP3    H210010   2.975   4.108   3.260
 3353TIP3   OH210011   3.129   3.844   3.331
 3353TIP3    H110012   3.056   3.799   3.379
 3353TIP3    H210013   3.201   3.779   3.348
 3354TIP3   OH210014   2.596   3.073   1.901
 3354TIP3    H110015   2.666   3.041   1.961
 3354TIP3    H210016   2.520   3.016   1.923
 3355TIP3   OH210017   2.657   3.337   2.359
 3355TIP3    H110018   2.698   3.249   2.373
 3355TIP3    H210019   2.714   3.370   2.287
 3356TIP3   OH210020   2.813   3.501   2.860
 3356TIP3    H110021   2.898   3.525   2.816
 3356TIP3    H210022   2.829   3.540   2.948
 3357TIP3   OH210023   2.887   3.652   3.086
 3357TIP3    H110024   2.811   3.686   3.137
 3357TIP3    H210025   2.921   3.734   3.044
 3358TIP3   OH210026   1.502   3.373   3.884
 3358TIP3    H110027   1.600   3.373   3.896
 3358TIP3    H210028   1.480   3.287   3.925
 3359TIP3   OH210029   3.328   3.213   3.649
 3359TIP3    H110030   3.394   3.169   3.592
 3359TIP3    H210031   3.309   3.295   3.599
 3360TIP3   OH210032   2.764   3.087   2.401
 3360TIP3    H110033   2.811   3.069   2.485
 3360TIP3    H210034   2.703   3.011   2.399
 3361TIP3   OH210035   1.463   3.071   3.224
 3361TIP3    H110036   1.524   2.995   3.231
 3361TIP3    H210037   1.526   3.144   3.213
 3362TIP3   OH210038   1.260   3.341   3.290
 3362TIP3    H110039   1.312   3.341   3.208
 3362TIP3    H210040   1.292   3.420   3.334
 3363TIP3   OH210041   3.209   3.382   3.456
 3363TIP3    H110042   3.131   3.427   3.494
 3363TIP3    H210043   3.167   3.313   3.403
 3364TIP3   OH210044   2.836   3.014   2.040
 3364TIP3    H110045   2.875   2.946   1.981
 3364TIP3    H210046   2.903   3.085   2.037
 3365TIP3   OH210047   1.251   2.837   2.791
 3365TIP3    H110048   1.161   2.837   2.826
 3365TIP3    H210049   1.243   2.901   2.716
 3366TIP3   OH210050   2.412   4.553   2.305
 3366TIP3    H110051   2.460   4.541   2.221
 3366TIP3    H210052   2.466   4.621   2.348
 3367TIP3   OH210053   1.470   2.923   3.608
 3367TIP3    H110054   1.420   2.922   3.691
 3367TIP3    H210055   1.404   2.962   3.548
 3368TIP3   OH210056   1.507   4.367   3.686
 3368TIP3    H110057   1.417   4.333   3.671
 3368TIP3    H210058   1.530   4.325   3.770
 3369TIP3   OH210059   1.692   4.396   3.237
 3369TIP3    H110060   1.646   4.473   3.196
 3369TIP3    H210061   1.778   4.406   3.190
 3370TIP3   OH210062   2.126   4.632   3.375
 3370TIP3    H110063   2.171   4.630   3.462
 3370TIP3    H210064   2.192   4.684   3.323
 3371TIP3   OH210065   2.306   4.787   3.237
 3371TIP3    H110066   2.372   4.736   3.188
 3371TIP3    H210067   2.363   4.843   3.294
 3372TIP3   OH210068   3.107   3.143   3.330
 3372TIP3    H110069   3.017   3.131   3.295
 3372TIP3    H210070   3.143   3.052   3.323
 3373TIP3   OH210071   1.362   4.644   3.260
 3373TIP3    H110072   1.272   4.676   3.236
 3373TIP3    H210073   1.377   4.695   3.341
 3374TIP3   OH210074   1.601   4.627   3.120
 3374TIP3    H110075   1.512   4.637   3.161
 3374TIP3    H210076   1.583   4.656   3.028
 3375TIP3   OH210077   2.024   4.647   2.919
 3375TIP3    H110078   1.956   4.662   2.850
 3375TIP3    H210079   2.035   4.737   2.955
 3376TIP3   OH210080   2.295   4.591   2.974
 3376TIP3    H110081   2.201   4.606   2.951
 3376TIP3    H210082   2.339   4.657   2.918
 3377TIP3   OH210083   2.501   4.780   2.879
 3377TIP3    H110084   2.486   4.863   2.829
 3377TIP3    H210085   2.527   4.719   2.806
 3378TIP3   OH210086   1.273   4.435   3.003
 3378TIP3    H110087   1.301   4.406   3.092
 3378TIP3    H210088   1.345   4.395   2.950
 3379TIP3   OH210089   1.471   4.312   2.866
 3379TIP3    H110090   1.486   4.227   2.915
 3379TIP3    H210091   1.563   4.346   2.861
 3380TIP3   OH210092   1.740   4.400   2.871
 3380TIP3    H110093   1.768   4.308   2.859
 3380TIP3    H210094   1.792   4.422   2.951
 3381TIP3   OH210095   2.309   3.057   2.951
 3381TIP3    H110096   2.270   2.984   3.002
 3381TIP3    H210097   2.386   3.015   2.908
 3382TIP3   OH210098   2.828   2.941   2.853
 3382TIP3    H110099   2.864   2.992   2.777
 3382TIP3    H210100   2.733   2.962   2.848
 3383TIP3   OH210101   2.926   3.037   2.618
 3383TIP3    H110102   3.000   2.984   2.582
 3383TIP3    H210103   2.961   3.128   2.604
 3384TIP3   OH210104   1.558   2.765   2.964
 3384TIP3    H110105   1.466   2.732   2.970
 3384TIP3    H210106   1.607   2.679   2.961
 3385TIP3   OH210107   1.343   2.639   2.614
 3385TIP3    H110108   1.377   2.694   2.541
 3385TIP3    H210109   1.319   2.706   2.680
 3386TIP3   OH210110   2.008   2.798   2.850
 3386TIP3    H110111   2.061   2.844   2.783
 3386TIP3    H210112   2.043   2.836   2.932
 3387TIP3   OH210113   2.542   2.948   2.831
 3387TIP3    H110114   2.552   2.904   2.745
 3387TIP3    H210115   2.535   2.870   2.891
 3388TIP3   OH210116   2.581   2.875   2.395
 3388TIP3    H110117   2.496   2.919   2.416
 3388TIP3    H210118   2.567   2.788   2.438
 3389TIP3   OH210119   1.061   4.220   2.390
 3389TIP3    H110120   0.975   4.186   2.359
 3389TIP3    H210121   1.055   4.311   2.356
 3390TIP3   OH210122   1.470   2.791   2.379
 3390TIP3    H110123   1.517   2.729   2.320
 3390TIP3    H210124   1.543   2.847   2.413
 3391TIP3   OH210125   1.973   2.977   2.476
 3391TIP3    H110126   2.034   2.931   2.536
 3391TIP3    H210127   1.994   3.070   2.501
 3392TIP3   OH210128   1.838   4.390   1.978
 3392TIP3    H110129   1.925   4.415   1.940
 3392TIP3    H210130   1.815   4.317   1.916
 3393TIP3   OH210131   2.557   4.519   2.072
 3393TIP3    H110132   2.551   4.421   2.061
 3393TIP3    H210133   2.510   4.549   1.992
 3394TIP3   OH210134   1.767   3.045   3.855
 3394TIP3    H110135   1.730   2.976   3.913
 3394TIP3    H210136   1.861   3.045   3.885
 3395TIP3   OH210137   2.018   3.043   3.973
 3395TIP3    H110138   2.104   3.018   3.936
 3395TIP3    H210139   2.005   2.974   4.041
 3396TIP3   OH210140   1.138   4.228   2.027
 3396TIP3    H110141   1.148   4.251   2.121
 3396TIP3    H210142   1.224   4.184   2.008
 3397TIP3   OH210143   2.842   3.117   3.764
 3397TIP3    H110144   2.860   3.085   3.855
 3397TIP3    H210145   2.931   3.111   3.723
 3398TIP3   OH210146   2.775   4.660   3.257
 3398TIP3    H110147   2.699   4.630   3.204
 3398TIP3    H210148   2.755   4.755   3.264
 3399TIP3   OH210149   4.047   4.041   2.012
 3399TIP3    H110150   4.004   4.126   1.989
 3399TIP3    H210151   3.978   3.980   1.982
 3400TIP3   OH210152   4.044   4.038   2.413
 3400TIP3    H110153   4.084   4.014   2.499
 3400TIP3    H210154   4.006   3.954   2.385
 3401TIP3   OH210155   3.342   3.922   2.768
 3401TIP3    H110156   3.370   3.852   2.831
 3401TIP3    H210157   3.422   3.976   2.766
 3402TIP3   OH210158   3.322   4.342   2.489
 3402TIP3    H110159   3.312   4.244   2.488
 3402TIP3    H210160   3.419   4.350   2.485
 3403TIP3   OH210161   3.025   3.538   2.269
 3403TIP3    H110162   2.976   3.619   2.291
 3403TIP3    H210163   2.955   3.488   2.223
 3404TIP3   OH210164   3.082   3.827   2.459
 3404TIP3    H110165   3.132   3.748   2.489
 3404TIP3    H210166   3.136   3.858   2.385
 3405TIP3   OH210167   3.918   4.788   2.077
 3405TIP3    H110168   3.993   4.730   2.059
 3405TIP3    H210169   3.917   4.797   2.173
 3406TIP3   OH210170   3.848   4.263   2.447
 3406TIP3    H110171   3.886   4.179   2.415
 3406TIP3    H210172   3.932   4.307   2.472
 3407TIP3   OH210173   4.835   3.586   2.448
 3407TIP3    H110174   4.887   3.653   2.496
 3407TIP3    H210175   4.877   3.589   2.361
 3408TIP3   OH210176   4.258   3.760   2.477
 3408TIP3    H110177   4.301   3.675   2.499
 3408TIP3    H210178   4.224   3.740   2.388
 3409TIP3   OH210179   3.605   3.416   2.441
 3409TIP3    H110180   3.581   3.490   2.381
 3409TIP3    H210181   3.557   3.343   2.397
 3410TIP3   OH210182   4.298   3.514   2.066
 3410TIP3    H110183   4.368   3.500   2.133
 3410TIP3    H210184   4.351   3.547   1.991
 3411TIP3   OH210185   3.231   3.620   2.556
 3411TIP3    H110186   3.314   3.601   2.604
 3411TIP3    H210187   3.245   3.565   2.476
 3412TIP3   OH210188   3.668   3.819   2.356
 3412TIP3    H110189   3.763   3.795   2.365
 3412TIP3    H210190   3.629   3.736   2.322
 3413TIP3   OH210191   4.939   3.782   2.624
 3413TIP3    H110192   4.853   3.827   2.606
 3413TIP3    H210193   4.970   3.829   2.704
 3414TIP3   OH210194   3.594   3.403   2.883
 3414TIP3    H110195   3.535   3.440   2.814
 3414TIP3    H210196   3.539   3.418   2.963
 3415TIP3   OH210197   3.921   4.260   1.898
 3415TIP3    H110198   3.889   4.242   1.808
 3415TIP3    H210199   3.886   4.350   1.914
 3416TIP3   OH210200   3.701   4.183   2.669
 3416TIP3    H110201   3.641   4.250   2.707
 3416TIP3    H210202   3.742   4.232   2.594
 3417TIP3   OH210203   4.497   3.520   2.250
 3417TIP3    H110204   4.476   3.482   2.337
 3417TIP3    H210205   4.550   3.598   2.275
 3418TIP3   OH210206   3.469   3.516   2.663
 3418TIP3    H110207   3.530   3.589   2.688
 3418TIP3    H210208   3.518   3.477   2.587
 3419TIP3   OH210209   3.532   4.379   2.775
 3419TIP3    H110210   3.504   4.467   2.741
 3419TIP3    H210211   3.452   4.358   2.829
 3420TIP3   OH210212   2.915   4.067   2.009
 3420TIP3    H110213   2.877   4.091   1.922
 3420TIP3    H210214   2.948   4.153   2.040
 3421TIP3   OH210215   4.655   3.469   2.618
 3421TIP3    H110216   4.570   3.501   2.585
 3421TIP3    H210217   4.717   3.507   2.552
 3422TIP3   OH210218   3.946   3.118   2.605
 3422TIP3    H110219   3.923   3.023   2.614
 3422TIP3    H210220   3.868   3.159   2.649
 3423TIP3   OH210221   4.131   4.613   2.002
 3423TIP3    H110222   4.132   4.536   1.940
 3423TIP3    H210223   4.164   4.681   1.937
 3424TIP3   OH210224   4.200   4.393   1.851
 3424TIP3    H110225   4.156   4.355   1.774
 3424TIP3    H210226   4.275   4.332   1.858
 3425TIP3   OH210227   4.583   4.492   2.596
 3425TIP3    H110228   4.575   4.414   2.536
 3425TIP3    H210229   4.565   4.566   2.534
 3426TIP3   OH210230   3.880   3.887   1.856
 3426TIP3    H110231   3.798   3.938   1.837
 3426TIP3    H210232   3.920   3.880   1.768
 3427TIP3   OH210233   3.838   3.674   1.563
 3427TIP3    H110234   3.906   3.727   1.608
 3427TIP3    H210235   3.894   3.609   1.516
 3428TIP3   OH210236   4.778   4.129   2.443
 3428TIP3    H110237   4.696   4.182   2.447
 3428TIP3    H210238   4.810   4.152   2.354
 3429TIP3   OH210239   4.228   3.974   1.818
 3429TIP3    H110240   4.173   3.994   1.897
 3429TIP3    H210241   4.311   3.944   1.862
 3430TIP3   OH210242   4.459   4.002   2.747
 3430TIP3    H110243   4.457   4.085   2.798
 3430TIP3    H210244   4.374   4.008   2.699
 3431TIP3   OH210245   3.459   3.966   2.242
 3431TIP3    H110246   3.414   3.907   2.177
 3431TIP3    H210247   3.533   3.909   2.272
 3432TIP3   OH210248   3.592   4.382   2.383
 3432TIP3    H110249   3.565   4.347   2.296
 3432TIP3    H210250   3.678   4.338   2.398
 3433TIP3   OH210251   3.595   3.935   2.599
 3433TIP3    H110252   3.625   3.907   2.509
 3433TIP3    H210253   3.638   4.022   2.610
 3434TIP3   OH210254   3.733   4.494   2.922
 3434TIP3    H110255   3.670   4.554   2.967
 3434TIP3    H210256   3.670   4.439   2.869
 3435TIP3   OH210257   4.063   3.827   1.650
 3435TIP3    H110258   4.123   3.888   1.698
 3435TIP3    H210259   4.090   3.845   1.557
 3436TIP3   OH210260   3.490   4.046   3.024
 3436TIP3    H110261   3.495   4.132   3.068
 3436TIP3    H210262   3.396   4.023   3.042
 3437TIP3   OH210263   3.828   4.529   1.920
 3437TIP3    H110264   3.815   4.618   1.956
 3437TIP3    H210265   3.756   4.525   1.855
 3438TIP3   OH210266   3.525   4.658   3.009
 3438TIP3    H110267   3.491   4.662   2.918
 3438TIP3    H210268   3.444   4.637   3.060
 3439TIP3   OH210269   4.582   3.062   1.702
 3439TIP3    H110270   4.500   3.086   1.749
 3439TIP3    H210271   4.598   3.143   1.649
 3440TIP3   OH210272   3.321   3.811   2.053
 3440TIP3    H110273   3.251   3.852   1.997
 3440TIP3    H210274   3.295   3.718   2.050
 3441TIP3   OH210275   4.385   4.434   1.255
 3441TIP3    H110276   4.393   4.529   1.231
 3441TIP3    H210277   4.477   4.403   1.239
 3442TIP3   OH210278   3.106   4.193   2.954
 3442TIP3    H110279   3.036   4.173   2.888
 3442TIP3    H210280   3.144   4.105   2.973
 3443TIP3   OH210281   2.959   4.386   2.583
 3443TIP3    H110282   3.055   4.381   2.576
 3443TIP3    H210283   2.947   4.463   2.640
 3444TIP3   OH210284   4.820   4.838   2.646
 3444TIP3    H110285   4.822   4.742   2.663
 3444TIP3    H210286   4.737   4.863   2.692
 3445TIP3   OH210287   3.924   4.623   2.776
 3445TIP3    H110288   3.922   4.715   2.812
 3445TIP3    H210289   3.854   4.581   2.831
 3446TIP3   OH210290   3.698   4.749   1.730
 3446TIP3    H110291   3.648   4.727   1.649
 3446TIP3    H210292   3.658   4.834   1.757
 3447TIP3   OH210293   3.130   4.596   2.115
 3447TIP3    H110294   3.173   4.586   2.203
 3447TIP3    H210295   3.084   4.510   2.107
 3448TIP3   OH210296   3.892   4.655   1.362
 3448TIP3    H110297   3.949   4.583   1.327
 3448TIP3    H210298   3.928   4.666   1.452
 3449TIP3   OH210299   3.945   4.703   1.630
 3449TIP3    H110300   3.856   4.715   1.670
 3449TIP3    H210301   3.989   4.651   1.698
 3450TIP3   OH210302   4.709   3.963   2.919
 3450TIP3    H110303   4.628   3.969   2.867
 3450TIP3    H210304   4.730   3.868   2.913
 3451TIP3   OH210305   3.309   4.376   2.936
 3451TIP3    H110306   3.358   4.358   3.018
 3451TIP3    H210307   3.235   4.313   2.943
 3452TIP3   OH210308   3.709   3.197   2.731
 3452TIP3    H110309   3.621   3.166   2.699
 3452TIP3    H210310   3.679   3.277   2.780
 3453TIP3   OH210311   4.247   3.311   2.921
 3453TIP3    H110312   4.317   3.282   2.983
 3453TIP3    H210313   4.164   3.294   2.970
 3454TIP3   OH210314   4.474   3.737   2.837
 3454TIP3    H110315   4.426   3.738   2.923
 3454TIP3    H210316   4.457   3.827   2.802
 3455TIP3   OH210317   4.146   3.867   1.398
 3455TIP3    H110318   4.103   3.849   1.312
 3455TIP3    H210319   4.232   3.904   1.369
 3456TIP3   OH210320   3.857   3.236   1.692
 3456TIP3    H110321   3.820   3.236   1.783
 3456TIP3    H210322   3.802   3.165   1.653
 3457TIP3   OH210323   3.642   3.714   2.749
 3457TIP3    H110324   3.589   3.732   2.830
 3457TIP3    H210325   3.625   3.796   2.697
 3458TIP3   OH210326   3.525   3.603   2.261
 3458TIP3    H110327   3.432   3.575   2.279
 3458TIP3    H210328   3.536   3.566   2.170
 3459TIP3   OH210329   4.016   3.688   1.994
 3459TIP3    H110330   3.966   3.757   1.945
 3459TIP3    H210331   4.071   3.650   1.922
 3460TIP3   OH210332   4.189   3.957   3.073
 3460TIP3    H110333   4.168   3.885   3.137
 3460TIP3    H210334   4.284   3.971   3.094
 3461TIP3   OH210335   4.169   3.708   2.223
 3461TIP3    H110336   4.105   3.730   2.153
 3461TIP3    H210337   4.211   3.631   2.179
 3462TIP3   OH210338   3.461   3.739   2.954
 3462TIP3    H110339   3.482   3.801   3.025
 3462TIP3    H210340   3.447   3.656   3.004
 3463TIP3   OH210341   3.520   3.256   1.682
 3463TIP3    H110342   3.514   3.219   1.771
 3463TIP3    H210343   3.460   3.196   1.635
 3464TIP3   OH210344   3.054   3.259   2.537
 3464TIP3    H110345   3.127   3.294   2.592
 3464TIP3    H210346   3.097   3.233   2.455
 3465TIP3   OH210347   3.010   3.240   2.053
 3465TIP3    H110348   3.052   3.281   1.974
 3465TIP3    H210349   2.948   3.312   2.075
 3466TIP3   OH210350   4.178   3.956   2.642
 3466TIP3    H110351   4.214   3.886   2.583
 3466TIP3    H210352   4.149   3.901   2.718
 3467TIP3   OH210353   3.863   3.417   2.319
 3467TIP3    H110354   3.779   3.419   2.371
 3467TIP3    H210355   3.930   3.412   2.389
 3468TIP3   OH210356   3.286   3.480   2.326
 3468TIP3    H110357   3.193   3.488   2.296
 3468TIP3    H210358   3.309   3.389   2.302
 3469TIP3   OH210359   3.549   3.488   2.014
 3469TIP3    H110360   3.641   3.494   1.984
 3469TIP3    H210361   3.497   3.505   1.932
 3470TIP3   OH210362   4.340   3.498   2.523
 3470TIP3    H110363   4.310   3.513   2.616
 3470TIP3    H210364   4.270   3.438   2.492
 3471TIP3   OH210365   3.395   3.523   1.793
 3471TIP3    H110366   3.333   3.465   1.746
 3471TIP3    H210367   3.454   3.548   1.719
 3472TIP3   OH210368   4.519   5.189   2.744
 3472TIP3    H110369   4.516   5.214   2.650
 3472TIP3    H210370   4.601   5.234   2.773
 3473TIP3   OH210371   3.471   4.301   3.159
 3473TIP3    H110372   3.549   4.328   3.210
 3473TIP3    H210373   3.406   4.290   3.231
 3474TIP3   OH210374   3.933   3.755   2.419
 3474TIP3    H110375   4.006   3.714   2.370
 3474TIP3    H210376   3.936   3.708   2.504
 3475TIP3   OH210377   3.452   3.238   2.292
 3475TIP3    H110378   3.421   3.157   2.338
 3475TIP3    H210379   3.464   3.205   2.200
 3476TIP3   OH210380   3.909   3.654   2.705
 3476TIP3    H110381   3.818   3.686   2.722
 3476TIP3    H210382   3.964   3.717   2.756
 3477TIP3   OH210383   3.646   4.036   1.805
 3477TIP3    H110384   3.575   3.970   1.792
 3477TIP3    H210385   3.624   4.070   1.895
 3478TIP3   OH210386   4.546   4.279   2.425
 3478TIP3    H110387   4.572   4.322   2.340
 3478TIP3    H210388   4.465   4.229   2.400
 3479TIP3   OH210389   4.106   3.343   1.677
 3479TIP3    H110390   4.010   3.319   1.680
 3479TIP3    H210391   4.106   3.438   1.699
 3480TIP3   OH210392   4.047   4.365   2.776
 3480TIP3    H110393   4.079   4.336   2.862
 3480TIP3    H210394   4.005   4.450   2.796
 3481TIP3   OH210395   4.169   3.600   1.777
 3481TIP3    H110396   4.266   3.605   1.788
 3481TIP3    H210397   4.149   3.678   1.723
 3482TIP3   OH210398   3.346   4.069   2.475
 3482TIP3    H110399   3.382   4.035   2.390
 3482TIP3    H210400   3.382   4.005   2.538
 3483TIP3   OH210401   3.798   4.191   1.642
 3483TIP3    H110402   3.747   4.275   1.640
 3483TIP3    H210403   3.739   4.134   1.696
 3484TIP3   OH210404   3.226   3.977   3.090
 3484TIP3    H110405   3.237   3.963   3.186
 3484TIP3    H210406   3.154   3.914   3.070
 3485TIP3   OH210407   3.950   4.100   3.107
 3485TIP3    H110408   3.884   4.037   3.073
 3485TIP3    H210409   4.033   4.058   3.076
 3486TIP3   OH210410   4.209   4.626   2.693
 3486TIP3    H110411   4.113   4.615   2.703
 3486TIP3    H210412   4.230   4.676   2.775
 3487TIP3   OH210413   4.608   3.695   1.605
 3487TIP3    H110414   4.549   3.650   1.540
 3487TIP3    H210415   4.607   3.784   1.564
 3488TIP3   OH210416   4.835   4.552   2.684
 3488TIP3    H110417   4.738   4.542   2.678
 3488TIP3    H210418   4.861   4.521   2.594
 3489TIP3   OH210419   4.318   4.501   1.515
 3489TIP3    H110420   4.293   4.416   1.555
 3489TIP3    H210421   4.336   4.475   1.423
 3490TIP3   OH210422   4.313   4.138   2.352
 3490TIP3    H110423   4.220   4.112   2.363
 3490TIP3    H210424   4.347   4.060   2.303
 3491TIP3   OH210425   3.443   4.370   2.106
 3491TIP3    H110426   3.431   4.450   2.050
 3491TIP3    H210427   3.351   4.341   2.116
 3492TIP3   OH210428   3.010   3.667   1.812
 3492TIP3    H110429   3.053   3.753   1.834
 3492TIP3    H210430   2.932   3.670   1.872
 3493TIP3   OH210431   3.573   4.131   2.047
 3493TIP3    H110432   3.536   4.219   2.067
 3493TIP3    H210433   3.537   4.077   2.120
 3494TIP3   OH210434   3.715   4.707   2.570
 3494TIP3    H110435   3.758   4.780   2.521
 3494TIP3    H210436   3.790   4.669   2.618
 3495TIP3   OH210437   3.361   4.602   1.957
 3495TIP3    H110438   3.274   4.614   2.001
 3495TIP3    H210439   3.394   4.695   1.958
 3496TIP3   OH210440   4.106   4.344   2.509
 3496TIP3    H110441   4.087   4.354   2.606
 3496TIP3    H210442   4.179   4.281   2.513
 3497TIP3   OH210443   4.079   4.242   1.415
 3497TIP3    H110444   4.123   4.216   1.499
 3497TIP3    H210445   3.990   4.203   1.427
 3498TIP3   OH210446   4.341   4.874   2.581
 3498TIP3    H110447   4.268   4.809   2.576
 3498TIP3    H210448   4.320   4.935   2.506
 3499TIP3   OH210449   4.410   4.708   1.232
 3499TIP3    H110450   4.443   4.778   1.173
 3499TIP3    H210451   4.332   4.753   1.269
 3500TIP3   OH210452   3.427   3.484   3.091
 3500TIP3    H110453   3.331   3.489   3.107
 3500TIP3    H210454   3.458   3.439   3.171
 3501TIP3   OH210455   4.241   4.190   1.644
 3501TIP3    H110456   4.226   4.114   1.704
 3501TIP3    H210457   4.336   4.175   1.622
 3502TIP3   OH210458   3.150   4.567   2.728
 3502TIP3    H110459   3.203   4.495   2.766
 3502TIP3    H210460   3.176   4.641   2.784
 3503TIP3   OH210461   3.442   4.215   1.417
 3503TIP3    H110462   3.446   4.123   1.386
 3503TIP3    H210463   3.413   4.203   1.510
 3504TIP3   OH210464   3.378   4.221   1.688
 3504TIP3    H110465   3.454   4.193   1.740
 3504TIP3    H210466   3.382   4.319   1.696
 3505TIP3   OH210467   3.114   3.912   1.893
 3505TIP3    H110468   3.046   3.957   1.947
 3505TIP3    H210469   3.126   3.979   1.822
 3506TIP3   OH210470   4.270   3.553   2.784
 3506TIP3    H110471   4.354   3.593   2.814
 3506TIP3    H210472   4.265   3.471   2.839
 3507TIP3   OH210473   4.157   3.292   1.956
 3507TIP3    H110474   4.139   3.313   1.862
 3507TIP3    H210475   4.195   3.377   1.988
 3508TIP3   OH210476   3.658   4.423   1.647
 3508TIP3    H110477   3.566   4.444   1.674
 3508TIP3    H210478   3.665   4.477   1.567
 3509TIP3   OH210479   3.840   3.483   2.052
 3509TIP3    H110480   3.901   3.559   2.037
 3509TIP3    H210481   3.843   3.474   2.149
 3510TIP3   OH210482   4.110   3.796   2.851
 3510TIP3    H110483   4.139   3.844   2.932
 3510TIP3    H210484   4.162   3.713   2.856
 3511TIP3   OH210485   3.978   3.198   2.151
 3511TIP3    H110486   3.962   3.280   2.202
 3511TIP3    H210487   4.043   3.231   2.084
 3512TIP3   OH210488   3.402   4.493   1.706
 3512TIP3    H110489   3.371   4.562   1.643
 3512TIP3    H210490   3.382   4.536   1.792
 3513TIP3   OH210491   3.509   3.209   2.006
 3513TIP3    H110492   3.501   3.306   2.000
 3513TIP3    H210493   3.603   3.197   1.983
 3514TIP3   OH210494   4.745   3.700   2.846
 3514TIP3    H110495   4.647   3.694   2.843
 3514TIP3    H210496   4.768   3.662   2.760
 3515TIP3   OH210497   4.393   3.898   2.224
 3515TIP3    H110498   4.319   3.837   2.237
 3515TIP3    H210499   4.466   3.853   2.272
 3516TIP3   OH210500   3.114   4.112   1.694
 3516TIP3    H110501   3.187   4.176   1.700
 3516TIP3    H210502   3.152   4.052   1.627
 3517TIP3   OH210503   3.049   3.394   1.833
 3517TIP3    H110504   3.060   3.491   1.832
 3517TIP3    H210505   2.982   3.383   1.765
 3518TIP3   OH210506   4.367   4.845   2.177
 3518TIP3    H110507   4.323   4.891   2.102
 3518TIP3    H210508   4.461   4.864   2.154
 3519TIP3   OH210509   3.445   3.117   2.696
 3519TIP3    H110510   3.414   3.084   2.610
 3519TIP3    H210511   3.432   3.040   2.754
 3520TIP3   OH210512   2.976   4.339   2.074
 3520TIP3    H110513   2.919   4.365   2.147
 3520TIP3    H210514   2.934   4.385   1.997
 3521TIP3   OH210515   3.143   4.888   3.154
 3521TIP3    H110516   3.230   4.885   3.199
 3521TIP3    H210517   3.122   4.793   3.151
 3522TIP3   OH210518   3.620   4.834   3.199
 3522TIP3    H110519   3.714   4.808   3.198
 3522TIP3    H210520   3.585   4.774   3.130
 3523TIP3   OH210521   3.605   4.417   1.328
 3523TIP3    H110522   3.550   4.341   1.359
 3523TIP3    H210523   3.676   4.370   1.280
 3524TIP3   OH210524   4.249   4.758   2.932
 3524TIP3    H110525   4.246   4.682   2.994
 3524TIP3    H210526   4.333   4.802   2.958
 3525TIP3   OH210527   4.037   4.455   1.240
 3525TIP3    H110528   4.076   4.387   1.298
 3525TIP3    H210529   4.090   4.449   1.159
 3526TIP3   OH210530   3.271   4.289   3.353
 3526TIP3    H110531   3.288   4.193   3.361
 3526TIP3    H210532   3.184   4.289   3.307
 3527TIP3   OH210533   3.248   3.929   1.550
 3527TIP3    H110534   3.306   3.898   1.622
 3527TIP3    H210535   3.313   3.936   1.477
 3528TIP3   OH210536   3.873   4.375   3.129
 3528TIP3    H110537   3.833   4.397   3.042
 3528TIP3    H210538   3.905   4.284   3.115
 3529TIP3   OH210539   3.787   4.137   1.366
 3529TIP3    H110540   3.773   4.145   1.463
 3529TIP3    H210541   3.779   4.040   1.354
 3530TIP3   OH210542   4.369   4.388   2.737
 3530TIP3    H110543   4.447   4.427   2.694
 3530TIP3    H210544   4.301   4.456   2.718
 3531TIP3   OH210545   3.392   4.032   3.338
 3531TIP3    H110546   3.433   3.944   3.335
 3531TIP3    H210547   3.423   4.059   3.427
 3532TIP3   OH210548   3.456   3.841   1.769
 3532TIP3    H110549   3.423   3.793   1.846
 3532TIP3    H210550   3.493   3.768   1.715
 3533TIP3   OH210551   3.730   3.909   3.004
 3533TIP3    H110552   3.648   3.962   3.001
 3533TIP3    H210553   3.778   3.944   2.925
 3534TIP3   OH210554   3.560   3.643   1.607
 3534TIP3    H110555   3.534   3.648   1.513
 3534TIP3    H210556   3.658   3.639   1.599
 3535TIP3   OH210557   4.248   4.301   3.129
 3535TIP3    H110558   4.324   4.266   3.080
 3535TIP3    H210559   4.241   4.238   3.203
 3536TIP3   OH210560   4.375   3.961   1.280
 3536TIP3    H110561   4.357   3.919   1.194
 3536TIP3    H210562   4.342   4.052   1.260
 3537TIP3   OH210563   3.858   3.694   3.112
 3537TIP3    H110564   3.850   3.617   3.051
 3537TIP3    H210565   3.809   3.764   3.063
 3538TIP3   OH210566   3.854   3.479   2.928
 3538TIP3    H110567   3.880   3.522   2.844
 3538TIP3    H210568   3.760   3.457   2.911
 3539TIP3   OH210569   3.871   4.016   2.805
 3539TIP3    H110570   3.957   4.027   2.763
 3539TIP3    H210571   3.815   4.079   2.755
 3540TIP3   OH210572   4.456   3.980   3.180
 3540TIP3    H110573   4.503   3.896   3.193
 3540TIP3    H210574   4.527   4.037   3.146
 3541TIP3   OH210575   4.497   4.238   2.923
 3541TIP3    H110576   4.441   4.293   2.863
 3541TIP3    H210577   4.586   4.256   2.884
 3542TIP3   OH210578   3.750   3.797   3.358
 3542TIP3    H110579   3.664   3.758   3.383
 3542TIP3    H210580   3.761   3.763   3.267
 3543TIP3   OH210581   3.982   3.248   3.013
 3543TIP3    H110582   3.938   3.331   2.984
 3543TIP3    H210583   3.913   3.182   2.991
 3544TIP3   OH210584   4.107   3.739   3.221
 3544TIP3    H110585   4.077   3.730   3.314
 3544TIP3    H210586   4.022   3.721   3.176
 3545TIP3   OH210587   4.345   3.699   3.072
 3545TIP3    H110588   4.271   3.699   3.136
 3545TIP3    H210589   4.421   3.671   3.127
 3546TIP3   OH210590   4.566   3.639   3.223
 3546TIP3    H110591   4.585   3.544   3.240
 3546TIP3    H210592   4.571   3.679   3.312
 3547TIP3   OH210593   3.558   3.582   3.380
 3547TIP3    H110594   3.556   3.487   3.361
 3547TIP3    H210595   3.611   3.582   3.463
 3548TIP3   OH210596   4.044   3.181   3.268
 3548TIP3    H110597   4.141   3.175   3.254
 3548TIP3    H210598   4.016   3.220   3.182
 3549TIP3   OH210599   4.131   3.462   3.414
 3549TIP3    H110600   4.095   3.410   3.341
 3549TIP3    H210601   4.064   3.533   3.423
 3550TIP3   OH210602   3.369   4.698   1.521
 3550TIP3    H110603   3.463   4.688   1.497
 3550TIP3    H210604   3.338   4.748   1.443
 3551TIP3   OH210605   2.844   4.077   1.731
 3551TIP3    H110606   2.938   4.098   1.714
 3551TIP3    H210607   2.836   3.989   1.689
 3552TIP3   OH210608   2.762   4.689   2.151
 3552TIP3    H110609   2.698   4.629   2.107
 3552TIP3    H210610   2.806   4.627   2.212
 3553TIP3   OH210611   2.895   4.530   2.335
 3553TIP3    H110612   2.881   4.463   2.405
 3553TIP3    H210613   2.948   4.595   2.384
 3554TIP3   OH210614   4.621   4.933   2.141
 3554TIP3    H110615   4.650   4.974   2.224
 3554TIP3    H210616   4.682   4.971   2.077
 3555TIP3   OH210617   4.652   4.962   2.425
 3555TIP3    H110618   4.614   4.873   2.420
 3555TIP3    H210619   4.732   4.943   2.477
 3556TIP3   OH210620   4.693   4.643   2.985
 3556TIP3    H110621   4.625   4.653   3.055
 3556TIP3    H210622   4.742   4.728   2.994
 3557TIP3   OH210623   4.514   4.151   1.609
 3557TIP3    H110624   4.580   4.214   1.574
 3557TIP3    H210625   4.563   4.112   1.685
 3558TIP3   OH210626   4.643   4.018   1.813
 3558TIP3    H110627   4.578   3.974   1.873
 3558TIP3    H210628   4.711   4.049   1.876
 3559TIP3   OH210629   4.677   4.406   2.221
 3559TIP3    H110630   4.744   4.339   2.193
 3559TIP3    H210631   4.701   4.483   2.165
 3560TIP3   OH210632   4.516   4.715   2.436
 3560TIP3    H110633   4.456   4.761   2.499
 3560TIP3    H210634   4.471   4.728   2.351
 3561TIP3   OH210635   4.579   3.926   1.458
 3561TIP3    H110636   4.508   3.926   1.389
 3561TIP3    H210637   4.549   4.002   1.512
 3562TIP3   OH210638   4.449   3.596   1.408
 3562TIP3    H110639   4.402   3.630   1.331
 3562TIP3    H210640   4.429   3.500   1.400
 3563TIP3   OH210641   4.451   3.876   1.955
 3563TIP3    H110642   4.461   3.780   1.945
 3563TIP3    H210643   4.437   3.886   2.051
 3564TIP3   OH210644   3.077   3.948   2.707
 3564TIP3    H110645   3.073   3.911   2.616
 3564TIP3    H210646   3.175   3.947   2.722
 3565TIP3   OH210647   4.745   4.299   2.813
 3565TIP3    H110648   4.814   4.229   2.806
 3565TIP3    H210649   4.776   4.364   2.748
 3566TIP3   OH210650   4.925   4.098   2.824
 3566TIP3    H110651   4.852   4.045   2.864
 3566TIP3    H210652   5.000   4.036   2.840
 3567TIP3   OH210653   4.393   3.329   1.389
 3567TIP3    H110654   4.461   3.296   1.450
 3567TIP3    H210655   4.315   3.274   1.408
 3568TIP3   OH210656   4.454   3.594   1.845
 3568TIP3    H110657   4.495   3.506   1.860
 3568TIP3    H210658   4.510   3.627   1.772
 3569TIP3   OH210659   4.605   3.767   2.342
 3569TIP3    H110660   4.691   3.789   2.300
 3569TIP3    H210661   4.626   3.795   2.433
 3570TIP3   OH210662   4.687   3.906   2.578
 3570TIP3    H110663   4.610   3.942   2.625
 3570TIP3    H210664   4.721   3.986   2.531
 3571TIP3   OH210665   3.291   3.629   3.361
 3571TIP3    H110666   3.388   3.634   3.373
 3571TIP3    H210667   3.273   3.545   3.410
 3572TIP3   OH210668   5.132   3.496   3.136
 3572TIP3    H110669   5.197   3.438   3.088
 3572TIP3    H210670   5.101   3.552   3.061
 3573TIP3   OH210671   4.561   3.344   1.888
 3573TIP3    H110672   4.607   3.326   1.972
 3573TIP3    H210673   4.498   3.268   1.885
 3574TIP3   OH210674   3.261   3.327   2.709
 3574TIP3    H110675   3.322   3.251   2.716
 3574TIP3    H210676   3.324   3.400   2.699
 3575TIP3   OH210677   3.056   3.597   2.778
 3575TIP3    H110678   3.108   3.597   2.695
 3575TIP3    H210679   3.087   3.678   2.820
 3576TIP3   OH210680   4.999   3.634   2.944
 3576TIP3    H110681   4.912   3.679   2.949
 3576TIP3    H210682   4.973   3.557   2.889
 3577TIP3   OH210683   4.635   3.269   1.528
 3577TIP3    H110684   4.674   3.203   1.466
 3577TIP3    H210685   4.700   3.342   1.524
 3578TIP3   OH210686   3.046   3.099   2.282
 3578TIP3    H110687   2.955   3.095   2.314
 3578TIP3    H210688   3.038   3.159   2.205
 3579TIP3   OH210689   4.206   4.788   1.807
 3579TIP3    H110690   4.249   4.783   1.719
 3579TIP3    H210691   4.247   4.869   1.843
 3580TIP3   OH210692   3.266   3.173   3.092
 3580TIP3    H110693   3.219   3.178   3.177
 3580TIP3    H210694   3.202   3.217   3.033
 3581TIP3   OH210695   3.304   4.621   3.171
 3581TIP3    H110696   3.212   4.593   3.158
 3581TIP3    H210697   3.323   4.588   3.260
 3582TIP3   OH210698   3.489   4.651   2.723
 3582TIP3    H110699   3.440   4.726   2.684
 3582TIP3    H210700   3.574   4.664   2.676
 3583TIP3   OH210701   3.927   4.889   2.862
 3583TIP3    H110702   3.969   4.889   2.951
 3583TIP3    H210703   3.993   4.938   2.810
 3584TIP3   OH210704   4.111   5.039   2.722
 3584TIP3    H110705   4.185   4.991   2.683
 3584TIP3    H210706   4.159   5.100   2.782
 3585TIP3   OH210707   4.906   3.405   2.827
 3585TIP3    H110708   4.829   3.402   2.768
 3585TIP3    H210709   4.972   3.354   2.777
 3586TIP3   OH210710   3.160   4.903   2.746
 3586TIP3    H110711   3.070   4.933   2.723
 3586TIP3    H210712   3.172   4.950   2.830
 3587TIP3   OH210713   3.397   4.882   2.606
 3587TIP3    H110714   3.309   4.893   2.649
 3587TIP3    H210715   3.378   4.912   2.515
 3588TIP3   OH210716   3.824   4.906   2.394
 3588TIP3    H110717   3.744   4.922   2.340
 3588TIP3    H210718   3.835   4.993   2.438
 3589TIP3   OH210719   4.095   4.830   2.403
 3589TIP3    H110720   4.002   4.859   2.411
 3589TIP3    H210721   4.142   4.914   2.390
 3590TIP3   OH210722   4.289   5.034   2.364
 3590TIP3    H110723   4.280   5.121   2.320
 3590TIP3    H210724   4.320   4.978   2.290
 3591TIP3   OH210725   3.070   4.693   2.490
 3591TIP3    H110726   3.098   4.663   2.579
 3591TIP3    H210727   3.142   4.652   2.437
 3592TIP3   OH210728   3.267   4.569   2.352
 3592TIP3    H110729   3.281   4.485   2.401
 3592TIP3    H210730   3.359   4.602   2.346
 3593TIP3   OH210731   3.538   4.655   2.357
 3593TIP3    H110732   3.562   4.560   2.350
 3593TIP3    H210733   3.587   4.679   2.437
 3594TIP3   OH210734   4.112   3.317   2.448
 3594TIP3    H110735   4.068   3.243   2.493
 3594TIP3    H210736   4.183   3.272   2.399
 3595TIP3   OH210737   4.631   3.190   2.339
 3595TIP3    H110738   4.665   3.246   2.266
 3595TIP3    H210739   4.537   3.214   2.340
 3596TIP3   OH210740   4.725   3.290   2.103
 3596TIP3    H110741   4.800   3.240   2.066
 3596TIP3    H210742   4.757   3.382   2.091
 3597TIP3   OH210743   3.354   3.022   2.451
 3597TIP3    H110744   3.261   2.990   2.457
 3597TIP3    H210745   3.401   2.937   2.446
 3598TIP3   OH210746   3.145   2.892   2.121
 3598TIP3    H110747   3.186   2.950   2.056
 3598TIP3    H210748   3.112   2.956   2.187
 3599TIP3   OH210749   3.814   3.047   2.336
 3599TIP3    H110750   3.861   3.098   2.268
 3599TIP3    H210751   3.827   3.101   2.414
 3600TIP3   OH210752   4.343   3.205   2.319
 3600TIP3    H110753   4.344   3.164   2.231
 3600TIP3    H210754   4.334   3.126   2.377
 3601TIP3   OH210755   4.378   3.132   1.882
 3601TIP3    H110756   4.293   3.178   1.902
 3601TIP3    H210757   4.362   3.045   1.924
 3602TIP3   OH210758   2.857   4.477   1.875
 3602TIP3    H110759   2.771   4.443   1.845
 3602TIP3    H210760   2.851   4.568   1.839
 3603TIP3   OH210761   3.780   3.235   1.957
 3603TIP3    H110762   3.835   3.187   2.021
 3603TIP3    H210763   3.802   3.328   1.981
 3604TIP3   OH210764   3.634   4.651   1.463
 3604TIP3    H110765   3.720   4.676   1.424
 3604TIP3    H210766   3.611   4.577   1.402
 3605TIP3   OH210767   4.344   4.771   1.566
 3605TIP3    H110768   4.339   4.674   1.550
 3605TIP3    H210769   4.301   4.805   1.484
 3606TIP3   OH210770   3.561   3.303   3.335
 3606TIP3    H110771   3.518   3.240   3.395
 3606TIP3    H210772   3.653   3.300   3.369
 3607TIP3   OH210773   3.810   3.283   3.459
 3607TIP3    H110774   3.904   3.278   3.440
 3607TIP3    H210775   3.802   3.223   3.536
 3608TIP3   OH210776   2.937   4.487   1.513
 3608TIP3    H110777   2.943   4.505   1.608
 3608TIP3    H210778   3.022   4.441   1.495
 3609TIP3   OH210779   4.639   3.369   3.249
 3609TIP3    H110780   4.660   3.337   3.340
 3609TIP3    H210781   4.727   3.366   3.206
 3610TIP3   OH210782   4.570   4.917   2.743
 3610TIP3    H110783   4.492   4.891   2.692
 3610TIP3    H210784   4.556   5.014   2.749
 3611TIP3   OH210785   5.846   4.293   1.502
 3611TIP3    H110786   5.812   4.382   1.480
 3611TIP3    H210787   5.773   4.238   1.469
 3612TIP3   OH210788   5.847   4.293   1.899
 3612TIP3    H110789   5.883   4.272   1.987
 3612TIP3    H210790   5.804   4.210   1.874
 3613TIP3   OH210791   5.132   4.178   2.264
 3613TIP3    H110792   5.161   4.109   2.326
 3613TIP3    H210793   5.213   4.229   2.255
 3614TIP3   OH210794   6.093   4.597   1.575
 3614TIP3    H110795   6.070   4.529   1.640
 3614TIP3    H210796   6.122   4.671   1.632
 3615TIP3   OH210797   5.114   4.593   1.974
 3615TIP3    H110798   5.107   4.496   1.974
 3615TIP3    H210799   5.211   4.604   1.970
 3616TIP3   OH210800   4.820   3.791   1.755
 3616TIP3    H110801   4.776   3.875   1.777
 3616TIP3    H210802   4.748   3.745   1.709
 3617TIP3   OH210803   4.874   4.084   1.948
 3617TIP3    H110804   4.926   4.006   1.979
 3617TIP3    H210805   4.940   4.130   1.893
 3618TIP3   OH210806   5.745   5.056   1.593
 3618TIP3    H110807   5.781   4.984   1.538
 3618TIP3    H210808   5.730   5.011   1.677
 3619TIP3   OH210809   5.639   4.520   1.939
 3619TIP3    H110810   5.682   4.442   1.898
 3619TIP3    H210811   5.721   4.568   1.965
 3620TIP3   OH210812   6.667   3.835   1.938
 3620TIP3    H110813   6.690   3.923   1.974
 3620TIP3    H210814   6.678   3.850   1.843
 3621TIP3   OH210815   6.056   4.012   1.965
 3621TIP3    H110816   6.098   3.926   1.985
 3621TIP3    H210817   6.021   3.995   1.875
 3622TIP3   OH210818   5.400   3.676   1.932
 3622TIP3    H110819   5.380   3.750   1.870
 3622TIP3    H210820   5.348   3.605   1.889
 3623TIP3   OH210821   6.094   3.772   1.554
 3623TIP3    H110822   6.167   3.756   1.618
 3623TIP3    H210823   6.143   3.804   1.477
 3624TIP3   OH210824   5.027   3.878   2.042
 3624TIP3    H110825   5.110   3.861   2.090
 3624TIP3    H210826   5.044   3.824   1.961
 3625TIP3   OH210827   5.464   4.076   1.842
 3625TIP3    H110828   5.559   4.054   1.851
 3625TIP3    H210829   5.428   3.992   1.807
 3626TIP3   OH210830   6.735   4.053   2.105
 3626TIP3    H110831   6.651   4.096   2.078
 3626TIP3    H210832   6.731   4.070   2.201
 3627TIP3   OH210833   5.390   3.660   2.369
 3627TIP3    H110834   5.331   3.699   2.302
 3627TIP3    H210835   5.337   3.675   2.450
 3628TIP3   OH210836   5.729   4.511   1.374
 3628TIP3    H110837   5.690   4.499   1.286
 3628TIP3    H210838   5.683   4.592   1.405
 3629TIP3   OH210839   5.495   4.436   2.159
 3629TIP3    H110840   5.438   4.506   2.195
 3629TIP3    H210841   5.541   4.483   2.085
 3630TIP3   OH210842   6.294   3.773   1.741
 3630TIP3    H110843   6.258   3.744   1.826
 3630TIP3    H210844   6.343   3.854   1.766
 3631TIP3   OH210845   5.261   3.775   2.151
 3631TIP3    H110846   5.320   3.850   2.178
 3631TIP3    H210847   5.315   3.737   2.078
 3632TIP3   OH210848   5.323   4.637   2.259
 3632TIP3    H110849   5.297   4.725   2.226
 3632TIP3    H210850   5.245   4.616   2.314
 3633TIP3   OH210851   4.709   4.323   1.496
 3633TIP3    H110852   4.673   4.348   1.409
 3633TIP3    H210853   4.744   4.409   1.529
 3634TIP3   OH210854   6.156   4.840   1.736
 3634TIP3    H110855   6.067   4.831   1.777
 3634TIP3    H210856   6.146   4.927   1.691
 3635TIP3   OH210857   6.454   3.734   2.103
 3635TIP3    H110858   6.364   3.756   2.071
 3635TIP3    H210859   6.510   3.767   2.030
 3636TIP3   OH210860   5.739   3.374   2.087
 3636TIP3    H110861   5.719   3.280   2.103
 3636TIP3    H210862   5.664   3.417   2.133
 3637TIP3   OH210863   5.851   4.881   1.403
 3637TIP3    H110864   5.901   4.798   1.389
 3637TIP3    H210865   5.915   4.945   1.366
 3638TIP3   OH210866   6.000   4.667   1.325
 3638TIP3    H110867   5.964   4.585   1.289
 3638TIP3    H210868   6.041   4.635   1.408
 3639TIP3   OH210869   6.384   4.746   2.081
 3639TIP3    H110870   6.367   4.669   2.024
 3639TIP3    H210871   6.362   4.821   2.021
 3640TIP3   OH210872   5.676   4.143   1.344
 3640TIP3    H110873   5.597   4.196   1.321
 3640TIP3    H210874   5.720   4.134   1.258
 3641TIP3   OH210875   5.632   3.930   1.053
 3641TIP3    H110876   5.703   3.983   1.094
 3641TIP3    H210877   5.685   3.862   1.006
 3642TIP3   OH210878   6.579   4.394   1.933
 3642TIP3    H110879   6.493   4.441   1.936
 3642TIP3    H210880   6.607   4.416   1.841
 3643TIP3   OH210881   6.024   4.229   1.305
 3643TIP3    H110882   5.969   4.251   1.383
 3643TIP3    H210883   6.108   4.203   1.348
 3644TIP3   OH210884   6.255   4.259   2.227
 3644TIP3    H110885   6.255   4.340   2.283
 3644TIP3    H210886   6.167   4.267   2.185
 3645TIP3   OH210887   5.255   4.221   1.730
 3645TIP3    H110888   5.215   4.162   1.662
 3645TIP3    H210889   5.330   4.167   1.762
 3646TIP3   OH210890   5.383   4.635   1.874
 3646TIP3    H110891   5.366   4.604   1.783
 3646TIP3    H210892   5.471   4.597   1.892
 3647TIP3   OH210893   5.378   4.198   2.080
 3647TIP3    H110894   5.418   4.168   1.996
 3647TIP3    H210895   5.429   4.279   2.101
 3648TIP3   OH210896   5.917   4.832   1.861
 3648TIP3    H110897   5.904   4.911   1.916
 3648TIP3    H210898   5.900   4.758   1.923
 3649TIP3   OH210899   5.529   4.756   2.398
 3649TIP3    H110900   5.467   4.814   2.446
 3649TIP3    H210901   5.466   4.700   2.348
 3650TIP3   OH210902   5.854   4.089   1.136
 3650TIP3    H110903   5.916   4.148   1.183
 3650TIP3    H210904   5.879   4.107   1.042
 3651TIP3   OH210905   5.286   4.310   2.510
 3651TIP3    H110906   5.288   4.397   2.553
 3651TIP3    H210907   5.194   4.283   2.529
 3652TIP3   OH210908   5.609   4.757   1.415
 3652TIP3    H110909   5.693   4.807   1.415
 3652TIP3    H210910   5.550   4.816   1.366
 3653TIP3   OH210911   5.320   4.915   2.494
 3653TIP3    H110912   5.286   4.921   2.403
 3653TIP3    H210913   5.238   4.896   2.545
 3654TIP3   OH210914   6.381   3.318   1.191
 3654TIP3    H110915   6.297   3.343   1.236
 3654TIP3    H210916   6.398   3.399   1.138
 3655TIP3   OH210917   5.122   4.065   1.531
 3655TIP3    H110918   5.051   4.108   1.479
 3655TIP3    H210919   5.088   3.976   1.541
 3656TIP3   OH210920   6.175   4.685   0.734
 3656TIP3    H110921   6.186   4.779   0.711
 3656TIP3    H210922   6.267   4.652   0.727
 3657TIP3   OH210923   4.901   4.447   2.442
 3657TIP3    H110924   4.849   4.413   2.368
 3657TIP3    H210925   4.945   4.365   2.475
 3658TIP3   OH210926   4.762   4.638   2.078
 3658TIP3    H110927   4.857   4.629   2.061
 3658TIP3    H210928   4.762   4.718   2.134
 3659TIP3   OH210929   6.621   5.100   2.135
 3659TIP3    H110930   6.619   5.003   2.149
 3659TIP3    H210931   6.536   5.125   2.179
 3660TIP3   OH210932   5.723   4.884   2.256
 3660TIP3    H110933   5.719   4.974   2.294
 3660TIP3    H210934   5.655   4.838   2.309
 3661TIP3   OH210935   5.493   5.006   1.218
 3661TIP3    H110936   5.444   4.989   1.136
 3661TIP3    H210937   5.456   5.092   1.247
 3662TIP3   OH210938   4.926   4.852   1.604
 3662TIP3    H110939   4.973   4.844   1.690
 3662TIP3    H210940   4.881   4.766   1.599
 3663TIP3   OH210941   5.694   4.900   0.866
 3663TIP3    H110942   5.755   4.832   0.831
 3663TIP3    H210943   5.727   4.912   0.958
 3664TIP3   OH210944   5.743   4.958   1.128
 3664TIP3    H110945   5.654   4.967   1.167
 3664TIP3    H210946   5.792   4.919   1.202
 3665TIP3   OH210947   6.517   4.223   2.395
 3665TIP3    H110948   6.425   4.241   2.370
 3665TIP3    H210949   6.521   4.126   2.392
 3666TIP3   OH210950   5.103   4.635   2.424
 3666TIP3    H110951   5.155   4.617   2.505
 3666TIP3    H210952   5.030   4.569   2.433
 3667TIP3   OH210953   5.505   3.453   2.222
 3667TIP3    H110954   5.417   3.427   2.188
 3667TIP3    H210955   5.480   3.535   2.269
 3668TIP3   OH210956   6.036   3.566   2.410
 3668TIP3    H110957   6.107   3.543   2.474
 3668TIP3    H210958   5.954   3.551   2.460
 3669TIP3   OH210959   6.283   4.006   2.334
 3669TIP3    H110960   6.226   4.001   2.413
 3669TIP3    H210961   6.255   4.090   2.293
 3670TIP3   OH210962   5.932   4.126   0.882
 3670TIP3    H110963   5.898   4.102   0.793
 3670TIP3    H210964   6.021   4.160   0.858
 3671TIP3   OH210965   5.641   3.501   1.178
 3671TIP3    H110966   5.610   3.498   1.271
 3671TIP3    H210967   5.607   3.415   1.146
 3672TIP3   OH210968   5.434   3.973   2.226
 3672TIP3    H110969   5.413   4.005   2.316
 3672TIP3    H210970   5.416   4.055   2.174
 3673TIP3   OH210971   5.321   3.858   1.746
 3673TIP3    H110972   5.229   3.832   1.766
 3673TIP3    H210973   5.332   3.816   1.658
 3674TIP3   OH210974   5.808   3.940   1.482
 3674TIP3    H110975   5.761   4.011   1.434
 3674TIP3    H210976   5.867   3.906   1.411
 3675TIP3   OH210977   5.965   3.966   1.711
 3675TIP3    H110978   5.900   3.991   1.642
 3675TIP3    H210979   6.004   3.889   1.664
 3676TIP3   OH210980   5.245   4.000   2.447
 3676TIP3    H110981   5.312   4.052   2.495
 3676TIP3    H210982   5.242   3.917   2.499
 3677TIP3   OH210983   5.293   3.463   1.154
 3677TIP3    H110984   5.289   3.472   1.251
 3677TIP3    H210985   5.226   3.529   1.127
 3678TIP3   OH210986   4.850   3.512   2.025
 3678TIP3    H110987   4.920   3.553   2.080
 3678TIP3    H210988   4.895   3.499   1.940
 3679TIP3   OH210989   4.807   3.498   1.542
 3679TIP3    H110990   4.852   3.533   1.463
 3679TIP3    H210991   4.747   3.573   1.560
 3680TIP3   OH210992   5.982   4.211   2.131
 3680TIP3    H110993   6.013   4.138   2.073
 3680TIP3    H210994   5.951   4.160   2.209
 3681TIP3   OH210995   5.659   3.672   1.805
 3681TIP3    H110996   5.577   3.673   1.859
 3681TIP3    H210997   5.728   3.673   1.873
 3682TIP3   OH210998   5.082   3.738   1.812
 3682TIP3    H110999   4.988   3.744   1.782
 3682TIP3    H211000   5.107   3.647   1.788
 3683TIP3   OH211001   5.343   3.728   1.507
 3683TIP3    H111002   5.437   3.743   1.486
 3683TIP3    H211003   5.298   3.750   1.422
 3684TIP3   OH211004   6.147   3.750   2.001
 3684TIP3    H111005   6.124   3.764   2.096
 3684TIP3    H211006   6.072   3.694   1.974
 3685TIP3   OH211007   5.202   3.764   1.277
 3685TIP3    H111008   5.134   3.720   1.223
 3685TIP3    H211009   5.256   3.806   1.206
 3686TIP3   OH211010   6.317   5.443   2.232
 3686TIP3    H111011   6.313   5.470   2.139
 3686TIP3    H211012   6.397   5.491   2.262
 3687TIP3   OH211013   5.262   4.560   2.646
 3687TIP3    H111014   5.345   4.583   2.693
 3687TIP3    H211015   5.202   4.550   2.722
 3688TIP3   OH211016   5.728   4.010   1.903
 3688TIP3    H111017   5.804   3.972   1.856
 3688TIP3    H211018   5.734   3.967   1.990
 3689TIP3   OH211019   5.242   3.496   1.789
 3689TIP3    H111020   5.208   3.418   1.837
 3689TIP3    H211021   5.294   3.456   1.718
 3690TIP3   OH211022   5.707   3.914   2.198
 3690TIP3    H111023   5.617   3.950   2.207
 3690TIP3    H211024   5.762   3.981   2.242
 3691TIP3   OH211025   5.442   4.293   1.286
 3691TIP3    H111026   5.369   4.228   1.274
 3691TIP3    H211027   5.421   4.327   1.377
 3692TIP3   OH211028   6.341   4.529   1.913
 3692TIP3    H111029   6.362   4.583   1.834
 3692TIP3    H211030   6.256   4.486   1.887
 3693TIP3   OH211031   5.909   3.591   1.175
 3693TIP3    H111032   5.819   3.561   1.150
 3693TIP3    H211033   5.905   3.685   1.155
 3694TIP3   OH211034   5.850   4.601   2.289
 3694TIP3    H111035   5.874   4.554   2.371
 3694TIP3    H211036   5.810   4.682   2.321
 3695TIP3   OH211037   5.970   3.868   1.270
 3695TIP3    H111038   6.067   3.869   1.273
 3695TIP3    H211039   5.948   3.941   1.210
 3696TIP3   OH211040   5.135   4.315   1.961
 3696TIP3    H111041   5.174   4.289   1.875
 3696TIP3    H211042   5.192   4.267   2.023
 3697TIP3   OH211043   5.588   4.443   1.113
 3697TIP3    H111044   5.539   4.528   1.119
 3697TIP3    H211045   5.535   4.386   1.172
 3698TIP3   OH211046   5.019   4.246   2.586
 3698TIP3    H111047   5.049   4.231   2.678
 3698TIP3    H211048   4.961   4.169   2.572
 3699TIP3   OH211049   5.999   4.883   2.183
 3699TIP3    H111050   5.903   4.872   2.197
 3699TIP3    H211051   6.024   4.930   2.265
 3700TIP3   OH211052   6.409   3.953   1.091
 3700TIP3    H111053   6.347   3.910   1.027
 3700TIP3    H211054   6.406   4.043   1.052
 3701TIP3   OH211055   6.633   4.811   2.168
 3701TIP3    H111056   6.536   4.803   2.161
 3701TIP3    H211057   6.659   4.779   2.079
 3702TIP3   OH211058   6.118   4.768   1.002
 3702TIP3    H111059   6.087   4.701   1.064
 3702TIP3    H211060   6.128   4.719   0.919
 3703TIP3   OH211061   6.109   4.395   1.826
 3703TIP3    H111062   6.016   4.371   1.844
 3703TIP3    H211063   6.140   4.313   1.784
 3704TIP3   OH211064   5.241   4.626   1.593
 3704TIP3    H111065   5.237   4.705   1.536
 3704TIP3    H211066   5.148   4.603   1.602
 3705TIP3   OH211067   4.806   3.924   1.301
 3705TIP3    H111068   4.849   4.009   1.321
 3705TIP3    H211069   4.728   3.927   1.360
 3706TIP3   OH211070   5.363   4.384   1.528
 3706TIP3    H111071   5.334   4.474   1.550
 3706TIP3    H211072   5.332   4.333   1.606
 3707TIP3   OH211073   5.510   4.962   2.057
 3707TIP3    H111074   5.553   5.035   2.008
 3707TIP3    H211075   5.586   4.924   2.104
 3708TIP3   OH211076   5.154   4.862   1.441
 3708TIP3    H111077   5.069   4.872   1.488
 3708TIP3    H211078   5.189   4.954   1.444
 3709TIP3   OH211079   5.890   4.601   2.020
 3709TIP3    H111080   5.877   4.600   2.118
 3709TIP3    H211081   5.966   4.543   2.011
 3710TIP3   OH211082   5.874   4.502   0.903
 3710TIP3    H111083   5.929   4.476   0.982
 3710TIP3    H211084   5.789   4.462   0.927
 3711TIP3   OH211085   6.143   5.127   2.068
 3711TIP3    H111086   6.064   5.069   2.068
 3711TIP3    H211087   6.122   5.189   1.995
 3712TIP3   OH211088   6.201   4.961   0.714
 3712TIP3    H111089   6.256   5.041   0.709
 3712TIP3    H211090   6.117   4.999   0.746
 3713TIP3   OH211091   5.228   3.737   2.582
 3713TIP3    H111092   5.132   3.738   2.598
 3713TIP3    H211093   5.262   3.695   2.663
 3714TIP3   OH211094   6.034   4.429   1.113
 3714TIP3    H111095   6.022   4.362   1.183
 3714TIP3    H211096   6.131   4.423   1.102
 3715TIP3   OH211097   4.943   4.825   2.217
 3715TIP3    H111098   5.000   4.758   2.258
 3715TIP3    H211099   4.973   4.905   2.262
 3716TIP3   OH211100   5.231   4.476   0.905
 3716TIP3    H111101   5.245   4.384   0.876
 3716TIP3    H211102   5.210   4.463   1.000
 3717TIP3   OH211103   5.175   4.478   1.177
 3717TIP3    H111104   5.254   4.451   1.225
 3717TIP3    H211105   5.179   4.576   1.184
 3718TIP3   OH211106   4.909   4.168   1.380
 3718TIP3    H111107   4.842   4.214   1.435
 3718TIP3    H211108   4.923   4.235   1.310
 3719TIP3   OH211109   6.087   3.792   2.260
 3719TIP3    H111110   6.143   3.845   2.318
 3719TIP3    H211111   6.061   3.717   2.318
 3720TIP3   OH211112   5.946   3.550   1.444
 3720TIP3    H111113   5.929   3.567   1.348
 3720TIP3    H211114   5.984   3.636   1.472
 3721TIP3   OH211115   5.448   4.672   1.130
 3721TIP3    H111116   5.361   4.700   1.165
 3721TIP3    H211117   5.458   4.734   1.056
 3722TIP3   OH211118   5.625   3.740   1.538
 3722TIP3    H111119   5.690   3.811   1.518
 3722TIP3    H211120   5.637   3.731   1.635
 3723TIP3   OH211121   5.905   4.065   2.354
 3723TIP3    H111122   5.886   4.123   2.429
 3723TIP3    H211123   5.956   3.994   2.395
 3724TIP3   OH211124   5.774   3.453   1.636
 3724TIP3    H111125   5.760   3.534   1.689
 3724TIP3    H211126   5.838   3.486   1.569
 3725TIP3   OH211127   5.194   4.750   1.193
 3725TIP3    H111128   5.164   4.820   1.131
 3725TIP3    H211129   5.177   4.793   1.280
 3726TIP3   OH211130   5.291   3.465   1.430
 3726TIP3    H111131   5.288   3.556   1.467
 3726TIP3    H211132   5.388   3.450   1.435
 3727TIP3   OH211133   6.543   3.945   2.314
 3727TIP3    H111134   6.447   3.956   2.334
 3727TIP3    H211135   6.536   3.897   2.231
 3728TIP3   OH211136   6.194   4.146   1.711
 3728TIP3    H111137   6.115   4.090   1.723
 3728TIP3    H211138   6.262   4.097   1.762
 3729TIP3   OH211139   4.911   4.370   1.181
 3729TIP3    H111140   4.986   4.432   1.189
 3729TIP3    H211141   4.950   4.309   1.115
 3730TIP3   OH211142   4.844   3.651   1.319
 3730TIP3    H111143   4.853   3.748   1.318
 3730TIP3    H211144   4.768   3.638   1.260
 3731TIP3   OH211145   6.165   5.111   1.658
 3731TIP3    H111146   6.122   5.156   1.582
 3731TIP3    H211147   6.259   5.128   1.637
 3732TIP3   OH211148   5.241   3.383   2.179
 3732TIP3    H111149   5.206   3.354   2.093
 3732TIP3    H211150   5.232   3.301   2.232
 3733TIP3   OH211151   4.770   4.591   1.560
 3733TIP3    H111152   4.712   4.623   1.630
 3733TIP3    H211153   4.733   4.638   1.481
 3734TIP3   OH211154   4.941   5.145   2.644
 3734TIP3    H111155   5.028   5.149   2.689
 3734TIP3    H211156   4.929   5.049   2.638
 3735TIP3   OH211157   5.410   5.091   2.687
 3735TIP3    H111158   5.506   5.077   2.690
 3735TIP3    H211159   5.385   5.029   2.615
 3736TIP3   OH211160   5.407   4.675   0.828
 3736TIP3    H111161   5.342   4.607   0.856
 3736TIP3    H211162   5.476   4.618   0.790
 3737TIP3   OH211163   6.047   5.006   2.429
 3737TIP3    H111164   6.050   4.931   2.493
 3737TIP3    H211165   6.128   5.056   2.453
 3738TIP3   OH211166   5.844   4.711   0.736
 3738TIP3    H111167   5.868   4.639   0.799
 3738TIP3    H211168   5.920   4.712   0.675
 3739TIP3   OH211169   5.066   4.544   2.844
 3739TIP3    H111170   5.086   4.449   2.854
 3739TIP3    H211171   4.981   4.543   2.795
 3740TIP3   OH211172   5.046   4.184   1.040
 3740TIP3    H111173   5.106   4.158   1.113
 3740TIP3    H211174   5.112   4.192   0.967
 3741TIP3   OH211175   5.672   4.649   2.624
 3741TIP3    H111176   5.639   4.648   2.533
 3741TIP3    H211177   5.740   4.578   2.621
 3742TIP3   OH211178   5.570   4.395   0.844
 3742TIP3    H111179   5.567   4.404   0.941
 3742TIP3    H211180   5.569   4.297   0.835
 3743TIP3   OH211181   6.170   4.639   2.229
 3743TIP3    H111182   6.242   4.687   2.185
 3743TIP3    H211183   6.095   4.699   2.213
 3744TIP3   OH211184   5.195   4.281   2.821
 3744TIP3    H111185   5.269   4.224   2.797
 3744TIP3    H211186   5.221   4.305   2.912
 3745TIP3   OH211187   5.244   4.101   1.249
 3745TIP3    H111188   5.223   4.060   1.334
 3745TIP3    H211189   5.288   4.027   1.201
 3746TIP3   OH211190   5.504   4.133   2.464
 3746TIP3    H111191   5.448   4.212   2.482
 3746TIP3    H211192   5.571   4.173   2.403
 3747TIP3   OH211193   5.357   3.897   1.096
 3747TIP3    H111194   5.335   3.904   1.001
 3747TIP3    H211195   5.455   3.894   1.090
 3748TIP3   OH211196   6.165   4.214   0.766
 3748TIP3    H111197   6.154   4.177   0.676
 3748TIP3    H211198   6.131   4.304   0.749
 3749TIP3   OH211199   5.652   3.953   2.610
 3749TIP3    H111200   5.646   3.874   2.553
 3749TIP3    H211201   5.600   4.019   2.559
 3750TIP3   OH211202   5.651   3.735   2.416
 3750TIP3    H111203   5.677   3.783   2.335
 3750TIP3    H211204   5.556   3.715   2.398
 3751TIP3   OH211205   5.661   4.244   2.270
 3751TIP3    H111206   5.749   4.285   2.270
 3751TIP3    H211207   5.606   4.316   2.233
 3752TIP3   OH211208   6.349   4.249   2.694
 3752TIP3    H111209   6.305   4.168   2.670
 3752TIP3    H211210   6.311   4.314   2.633
 3753TIP3   OH211211   6.307   4.476   2.402
 3753TIP3    H111212   6.240   4.534   2.358
 3753TIP3    H211213   6.389   4.510   2.363
 3754TIP3   OH211214   5.482   4.085   2.816
 3754TIP3    H111215   5.434   4.011   2.857
 3754TIP3    H211216   5.545   4.039   2.759
 3755TIP3   OH211217   5.776   3.497   2.497
 3755TIP3    H111218   5.729   3.579   2.469
 3755TIP3    H211219   5.706   3.430   2.485
 3756TIP3   OH211220   5.911   3.979   2.698
 3756TIP3    H111221   5.908   4.064   2.745
 3756TIP3    H211222   5.817   3.968   2.672
 3757TIP3   OH211223   6.140   3.949   2.553
 3757TIP3    H111224   6.062   3.952   2.613
 3757TIP3    H211225   6.211   3.923   2.613
 3758TIP3   OH211226   6.382   3.901   2.708
 3758TIP3    H111227   6.390   3.806   2.727
 3758TIP3    H211228   6.371   3.940   2.797
 3759TIP3   OH211229   5.353   3.846   2.893
 3759TIP3    H111230   5.358   3.751   2.870
 3759TIP3    H211231   5.400   3.844   2.980
 3760TIP3   OH211232   5.878   3.500   2.754
 3760TIP3    H111233   5.944   3.429   2.742
 3760TIP3    H211234   5.834   3.500   2.666
 3761TIP3   OH211235   5.926   3.727   2.905
 3761TIP3    H111236   5.911   3.655   2.841
 3761TIP3    H211237   5.857   3.791   2.879
 3762TIP3   OH211238   5.164   4.953   1.006
 3762TIP3    H111239   5.259   4.945   0.985
 3762TIP3    H211240   5.135   5.006   0.929
 3763TIP3   OH211241   4.641   4.334   1.218
 3763TIP3    H111242   4.736   4.355   1.201
 3763TIP3    H211243   4.633   4.246   1.175
 3764TIP3   OH211244   4.556   4.943   1.637
 3764TIP3    H111245   4.490   4.883   1.596
 3764TIP3    H211246   4.601   4.882   1.699
 3765TIP3   OH211247   4.691   4.786   1.822
 3765TIP3    H111248   4.682   4.720   1.892
 3765TIP3    H211249   4.746   4.853   1.867
 3766TIP3   OH211250   6.424   5.192   1.624
 3766TIP3    H111251   6.444   5.222   1.715
 3766TIP3    H211252   6.488   5.242   1.571
 3767TIP3   OH211253   6.445   5.215   1.904
 3767TIP3    H111254   6.399   5.128   1.902
 3767TIP3    H211255   6.520   5.192   1.961
 3768TIP3   OH211256   6.497   4.893   2.478
 3768TIP3    H111257   6.425   4.902   2.544
 3768TIP3    H211258   6.538   4.982   2.482
 3769TIP3   OH211259   6.311   4.405   1.095
 3769TIP3    H111260   6.376   4.470   1.062
 3769TIP3    H211261   6.358   4.368   1.173
 3770TIP3   OH211262   6.440   4.272   1.300
 3770TIP3    H111263   6.370   4.230   1.355
 3770TIP3    H211264   6.501   4.309   1.368
 3771TIP3   OH211265   6.501   4.672   1.732
 3771TIP3    H111266   6.549   4.601   1.685
 3771TIP3    H211267   6.495   4.742   1.664
 3772TIP3   OH211268   6.320   4.967   1.923
 3772TIP3    H111269   6.248   5.008   1.975
 3772TIP3    H211270   6.270   4.922   1.851
 3773TIP3   OH211271   6.373   4.183   0.944
 3773TIP3    H111272   6.301   4.181   0.877
 3773TIP3    H211273   6.344   4.259   0.997
 3774TIP3   OH211274   6.247   3.858   0.896
 3774TIP3    H111275   6.206   3.888   0.814
 3774TIP3    H211276   6.226   3.762   0.893
 3775TIP3   OH211277   6.249   4.133   1.440
 3775TIP3    H111278   6.254   4.036   1.428
 3775TIP3    H211279   6.234   4.141   1.537
 3776TIP3   OH211280   4.872   4.217   2.195
 3776TIP3    H111281   4.869   4.175   2.106
 3776TIP3    H211282   4.969   4.213   2.213
 3777TIP3   OH211283   6.549   4.561   2.299
 3777TIP3    H111284   6.617   4.492   2.284
 3777TIP3    H211285   6.570   4.628   2.233
 3778TIP3   OH211286   6.729   4.356   2.296
 3778TIP3    H111287   6.652   4.312   2.339
 3778TIP3    H211288   6.798   4.291   2.321
 3779TIP3   OH211289   6.190   3.593   0.886
 3779TIP3    H111290   6.261   3.556   0.942
 3779TIP3    H211291   6.112   3.541   0.913
 3780TIP3   OH211292   6.254   3.853   1.334
 3780TIP3    H111293   6.293   3.763   1.349
 3780TIP3    H211294   6.310   3.883   1.260
 3781TIP3   OH211295   6.407   4.010   1.836
 3781TIP3    H111296   6.492   4.035   1.793
 3781TIP3    H211297   6.420   4.054   1.922
 3782TIP3   OH211298   6.481   4.165   2.058
 3782TIP3    H111299   6.406   4.195   2.114
 3782TIP3    H211300   6.512   4.250   2.020
 3783TIP3   OH211301   5.087   3.881   2.855
 3783TIP3    H111302   5.185   3.891   2.866
 3783TIP3    H211303   5.074   3.795   2.899
 3784TIP3   OH211304   6.934   3.764   2.617
 3784TIP3    H111305   6.993   3.699   2.574
 3784TIP3    H211306   6.897   3.812   2.539
 3785TIP3   OH211307   6.358   3.600   1.375
 3785TIP3    H111308   6.403   3.581   1.460
 3785TIP3    H211309   6.294   3.526   1.371
 3786TIP3   OH211310   5.053   3.587   2.195
 3786TIP3    H111311   5.115   3.512   2.208
 3786TIP3    H211312   5.117   3.661   2.185
 3787TIP3   OH211313   4.850   3.861   2.259
 3787TIP3    H111314   4.904   3.858   2.178
 3787TIP3    H211315   4.896   3.927   2.312
 3788TIP3   OH211316   6.800   3.894   2.421
 3788TIP3    H111317   6.725   3.941   2.464
 3788TIP3    H211318   6.750   3.831   2.366
 3789TIP3   OH211319   6.439   3.525   1.017
 3789TIP3    H111320   6.473   3.458   0.954
 3789TIP3    H211321   6.503   3.598   1.008
 3790TIP3   OH211322   4.844   3.350   1.767
 3790TIP3    H111323   4.753   3.349   1.799
 3790TIP3    H211324   4.837   3.413   1.691
 3791TIP3   OH211325   6.003   5.064   1.275
 3791TIP3    H111326   6.060   5.059   1.195
 3791TIP3    H211327   6.049   5.129   1.330
 3792TIP3   OH211328   5.098   4.878   2.655
 3792TIP3    H111329   5.006   4.847   2.642
 3792TIP3    H211330   5.118   4.847   2.744
 3793TIP3   OH211331   5.283   4.908   2.209
 3793TIP3    H111332   5.238   4.986   2.169
 3793TIP3    H211333   5.369   4.918   2.164
 3794TIP3   OH211334   5.718   5.147   2.348
 3794TIP3    H111335   5.762   5.145   2.435
 3794TIP3    H211336   5.784   5.198   2.296
 3795TIP3   OH211337   5.899   5.301   2.210
 3795TIP3    H111338   5.967   5.250   2.165
 3795TIP3    H211339   5.954   5.357   2.269
 3796TIP3   OH211340   6.699   3.655   2.302
 3796TIP3    H111341   6.608   3.649   2.267
 3796TIP3    H211342   6.729   3.562   2.296
 3797TIP3   OH211343   4.955   5.155   2.237
 3797TIP3    H111344   4.863   5.183   2.216
 3797TIP3    H211345   4.975   5.217   2.309
 3798TIP3   OH211346   5.191   5.139   2.094
 3798TIP3    H111347   5.103   5.149   2.135
 3798TIP3    H211348   5.174   5.170   2.002
 3799TIP3   OH211349   5.617   5.161   1.891
 3799TIP3    H111350   5.547   5.179   1.825
 3799TIP3    H211351   5.628   5.249   1.932
 3800TIP3   OH211352   5.887   5.102   1.944
 3800TIP3    H111353   5.794   5.120   1.923
 3800TIP3    H211354   5.932   5.174   1.897
 3801TIP3   OH211355   6.089   5.290   1.853
 3801TIP3    H111356   6.078   5.374   1.805
 3801TIP3    H211357   6.118   5.230   1.780
 3802TIP3   OH211358   4.864   4.946   1.975
 3802TIP3    H111359   4.891   4.920   2.065
 3802TIP3    H211360   4.939   4.907   1.924
 3803TIP3   OH211361   5.065   4.824   1.839
 3803TIP3    H111362   5.080   4.739   1.887
 3803TIP3    H211363   5.156   4.859   1.835
 3804TIP3   OH211364   5.332   4.913   1.846
 3804TIP3    H111365   5.360   4.820   1.836
 3804TIP3    H211366   5.385   4.937   1.925
 3805TIP3   OH211367   5.911   3.575   1.934
 3805TIP3    H111368   5.865   3.502   1.979
 3805TIP3    H211369   5.982   3.529   1.885
 3806TIP3   OH211370   6.422   3.457   1.831
 3806TIP3    H111371   6.456   3.508   1.754
 3806TIP3    H211372   6.326   3.477   1.825
 3807TIP3   OH211373   6.519   3.547   1.594
 3807TIP3    H111374   6.593   3.497   1.553
 3807TIP3    H211375   6.551   3.639   1.580
 3808TIP3   OH211376   5.144   3.282   1.942
 3808TIP3    H111377   5.048   3.261   1.941
 3808TIP3    H211378   5.181   3.194   1.938
 3809TIP3   OH211379   4.951   3.151   1.594
 3809TIP3    H111380   4.976   3.206   1.517
 3809TIP3    H211381   4.918   3.219   1.656
 3810TIP3   OH211382   5.587   3.333   1.816
 3810TIP3    H111383   5.649   3.369   1.750
 3810TIP3    H211384   5.629   3.361   1.899
 3811TIP3   OH211385   6.138   3.462   1.803
 3811TIP3    H111386   6.139   3.424   1.714
 3811TIP3    H211387   6.129   3.382   1.860
 3812TIP3   OH211388   6.175   3.389   1.368
 3812TIP3    H111389   6.088   3.433   1.376
 3812TIP3    H211390   6.156   3.303   1.411
 3813TIP3   OH211391   4.653   4.733   1.363
 3813TIP3    H111392   4.567   4.702   1.331
 3813TIP3    H211393   4.649   4.825   1.330
 3814TIP3   OH211394   5.062   3.306   1.353
 3814TIP3    H111395   5.109   3.247   1.290
 3814TIP3    H211396   5.136   3.362   1.385
 3815TIP3   OH211397   5.567   3.488   1.450
 3815TIP3    H111398   5.630   3.444   1.510
 3815TIP3    H211399   5.588   3.582   1.471
 3816TIP3   OH211400   5.430   4.915   0.951
 3816TIP3    H111401   5.520   4.935   0.919
 3816TIP3    H211402   5.411   4.836   0.895
 3817TIP3   OH211403   6.155   5.035   1.043
 3817TIP3    H111404   6.149   4.937   1.038
 3817TIP3    H211405   6.103   5.060   0.964
 3818TIP3   OH211406   5.355   3.580   2.825
 3818TIP3    H111407   5.319   3.491   2.836
 3818TIP3    H211408   5.445   3.570   2.863
 3819TIP3   OH211409   5.606   3.558   2.947
 3819TIP3    H111410   5.691   3.528   2.912
 3819TIP3    H211411   5.588   3.494   3.019
 3820TIP3   OH211412   4.732   4.742   1.000
 3820TIP3    H111413   4.740   4.766   1.093
 3820TIP3    H211414   4.819   4.699   0.982
 3821TIP3   OH211415   6.435   3.621   2.739
 3821TIP3    H111416   6.457   3.592   2.830
 3821TIP3    H211417   6.523   3.619   2.696
 3822TIP3   OH211418   6.370   5.172   2.229
 3822TIP3    H111419   6.292   5.144   2.177
 3822TIP3    H211420   6.351   5.268   2.237
 3823TIP3   OH211421   7.589   4.541   1.374
 3823TIP3    H111422   7.650   4.485   1.425
 3823TIP3    H211423   7.599   4.504   1.284
 3824TIP3   OH211424   6.937   4.440   1.737
 3824TIP3    H111425   6.968   4.373   1.800
 3824TIP3    H211426   7.014   4.498   1.732
 3825TIP3   OH211427   6.914   4.855   1.463
 3825TIP3    H111428   6.906   4.757   1.462
 3825TIP3    H211429   7.010   4.865   1.450
 3826TIP3   OH211430   6.616   4.053   1.244
 3826TIP3    H111431   6.565   4.134   1.264
 3826TIP3    H211432   6.548   4.002   1.197
 3827TIP3   OH211433   6.675   4.340   1.433
 3827TIP3    H111434   6.727   4.262   1.462
 3827TIP3    H211435   6.725   4.372   1.357
 3828TIP3   OH211436   7.424   4.760   1.435
 3828TIP3    H111437   7.473   4.679   1.409
 3828TIP3    H211438   7.497   4.822   1.446
 3829TIP3   OH211439   7.186   3.930   1.424
 3829TIP3    H111440   7.167   4.003   1.361
 3829TIP3    H211441   7.142   3.856   1.377
 3830TIP3   OH211442   6.826   4.132   1.534
 3830TIP3    H111443   6.908   4.111   1.581
 3830TIP3    H211444   6.837   4.076   1.454
 3831TIP3   OH211445   7.259   4.328   1.326
 3831TIP3    H111446   7.351   4.296   1.335
 3831TIP3    H211447   7.215   4.246   1.294
 3832TIP3   OH211448   7.176   3.924   1.895
 3832TIP3    H111449   7.145   3.961   1.810
 3832TIP3    H211450   7.105   3.960   1.953
 3833TIP3   OH211451   7.292   4.691   1.661
 3833TIP3    H111452   7.234   4.764   1.693
 3833TIP3    H211453   7.332   4.733   1.582
 3834TIP3   OH211454   7.068   4.019   1.652
 3834TIP3    H111455   7.123   4.099   1.667
 3834TIP3    H211456   7.110   3.984   1.570
 3835TIP3   OH211457   7.127   4.893   1.751
 3835TIP3    H111458   7.103   4.980   1.713
 3835TIP3    H211459   7.044   4.875   1.801
 3836TIP3   OH211460   6.508   4.576   0.987
 3836TIP3    H111461   6.471   4.591   0.898
 3836TIP3    H211462   6.543   4.664   1.011
 3837TIP3   OH211463   7.489   3.662   1.536
 3837TIP3    H111464   7.532   3.578   1.563
 3837TIP3    H211465   7.416   3.671   1.601
 3838TIP3   OH211466   7.389   4.302   0.783
 3838TIP3    H111467   7.333   4.380   0.799
 3838TIP3    H211468   7.477   4.339   0.798
 3839TIP3   OH211469   7.047   4.475   1.216
 3839TIP3    H111470   7.006   4.418   1.147
 3839TIP3    H211471   7.124   4.421   1.245
 3840TIP3   OH211472   7.174   4.890   1.358
 3840TIP3    H111473   7.154   4.866   1.266
 3840TIP3    H211474   7.258   4.843   1.375
 3841TIP3   OH211475   7.191   4.449   1.570
 3841TIP3    H111476   7.220   4.426   1.479
 3841TIP3    H211477   7.232   4.537   1.584
 3842TIP3   OH211478   7.325   5.001   1.910
 3842TIP3    H111479   7.260   5.063   1.950
 3842TIP3    H211480   7.264   4.949   1.852
 3843TIP3   OH211481   7.080   4.551   2.007
 3843TIP3    H111482   7.087   4.642   2.041
 3843TIP3    H211483   6.985   4.535   2.022
 3844TIP3   OH211484   7.383   5.053   0.943
 3844TIP3    H111485   7.478   5.057   0.934
 3844TIP3    H211486   7.350   5.092   0.862
 3845TIP3   OH211487   7.117   5.167   1.982
 3845TIP3    H111488   7.084   5.174   1.890
 3845TIP3    H211489   7.036   5.145   2.032
 3846TIP3   OH211490   6.917   4.323   1.015
 3846TIP3    H111491   6.846   4.368   0.964
 3846TIP3    H211492   6.882   4.233   1.021
 3847TIP3   OH211493   6.697   4.704   1.928
 3847TIP3    H111494   6.626   4.691   1.862
 3847TIP3    H211495   6.732   4.614   1.939
 3848TIP3   OH211496   6.552   4.901   1.555
 3848TIP3    H111497   6.649   4.898   1.551
 3848TIP3    H211498   6.537   4.978   1.611
 3849TIP3   OH211499   7.500   5.130   1.745
 3849TIP3    H111500   7.507   5.221   1.780
 3849TIP3    H211501   7.439   5.088   1.809
 3850TIP3   OH211502   6.723   5.115   1.090
 3850TIP3    H111503   6.767   5.104   1.177
 3850TIP3    H211504   6.682   5.027   1.080
 3851TIP3   OH211505   6.901   4.887   1.905
 3851TIP3    H111506   6.948   4.873   1.990
 3851TIP3    H211507   6.826   4.825   1.914
 3852TIP3   OH211508   7.281   3.712   1.710
 3852TIP3    H111509   7.189   3.685   1.685
 3852TIP3    H211510   7.270   3.808   1.719
 3853TIP3   OH211511   7.226   4.227   1.720
 3853TIP3    H111512   7.174   4.251   1.799
 3853TIP3    H211513   7.216   4.308   1.665
 3854TIP3   OH211514   7.109   4.114   1.239
 3854TIP3    H111515   7.017   4.090   1.264
 3854TIP3    H211516   7.112   4.073   1.150
 3855TIP3   OH211517   7.054   4.262   1.931
 3855TIP3    H111518   7.052   4.338   1.993
 3855TIP3    H211519   7.029   4.188   1.989
 3856TIP3   OH211520   7.124   3.738   0.642
 3856TIP3    H111521   7.087   3.734   0.732
 3856TIP3    H211522   7.054   3.791   0.598
 3857TIP3   OH211523   6.641   3.773   1.516
 3857TIP3    H111524   6.720   3.809   1.561
 3857TIP3    H211525   6.673   3.747   1.428
 3858TIP3   OH211526   6.608   3.758   1.032
 3858TIP3    H111527   6.653   3.792   0.951
 3858TIP3    H211528   6.546   3.832   1.047
 3859TIP3   OH211529   7.418   3.928   1.271
 3859TIP3    H111530   7.347   3.925   1.338
 3859TIP3    H211531   7.496   3.945   1.325
 3860TIP3   OH211532   6.874   3.992   1.304
 3860TIP3    H111533   6.781   4.005   1.273
 3860TIP3    H211534   6.894   3.902   1.276
 3861TIP3   OH211535   7.096   3.982   1.000
 3861TIP3    H111536   7.190   3.989   0.976
 3861TIP3    H211537   7.051   4.012   0.917
 3862TIP3   OH211538   6.987   4.041   0.763
 3862TIP3    H111539   6.921   3.984   0.717
 3862TIP3    H211540   7.058   4.041   0.695
 3863TIP3   OH211541   7.064   4.806   2.131
 3863TIP3    H111542   7.141   4.842   2.179
 3863TIP3    H211543   6.998   4.806   2.203
 3864TIP3   OH211544   7.515   4.228   1.373
 3864TIP3    H111545   7.585   4.220   1.307
 3864TIP3    H211546   7.565   4.239   1.455
 3865TIP3   OH211547   7.043   3.747   1.277
 3865TIP3    H111548   7.005   3.674   1.331
 3865TIP3    H211549   7.057   3.702   1.192
 3866TIP3   OH211550   7.482   4.146   1.781
 3866TIP3    H111551   7.391   4.159   1.748
 3866TIP3    H211552   7.533   4.190   1.713
 3867TIP3   OH211553   7.251   4.541   0.791
 3867TIP3    H111554   7.173   4.484   0.775
 3867TIP3    H211555   7.227   4.584   0.876
 3868TIP3   OH211556   7.624   4.863   1.786
 3868TIP3    H111557   7.669   4.887   1.867
 3868TIP3    H211558   7.588   4.948   1.755
 3869TIP3   OH211559   6.937   4.581   1.449
 3869TIP3    H111560   6.973   4.549   1.363
 3869TIP3    H211561   6.972   4.515   1.510
 3870TIP3   OH211562   6.820   4.478   2.060
 3870TIP3    H111563   6.818   4.463   2.157
 3870TIP3    H211564   6.741   4.427   2.033
 3871TIP3   OH211565   7.538   4.599   2.049
 3871TIP3    H111566   7.464   4.537   2.032
 3871TIP3    H211567   7.601   4.572   1.980
 3872TIP3   OH211568   7.037   4.881   1.084
 3872TIP3    H111569   7.037   4.960   1.028
 3872TIP3    H211570   6.944   4.857   1.085
 3873TIP3   OH211571   6.600   4.174   0.786
 3873TIP3    H111572   6.642   4.261   0.802
 3873TIP3    H211573   6.520   4.182   0.843
 3874TIP3   OH211574   7.167   4.644   1.026
 3874TIP3    H111575   7.133   4.733   1.044
 3874TIP3    H211576   7.125   4.592   1.098
 3875TIP3   OH211577   7.303   5.211   1.546
 3875TIP3    H111578   7.342   5.282   1.490
 3875TIP3    H211579   7.382   5.180   1.594
 3876TIP3   OH211580   6.952   5.128   0.934
 3876TIP3    H111581   6.868   5.132   0.983
 3876TIP3    H211582   6.982   5.221   0.940
 3877TIP3   OH211583   7.001   3.992   2.087
 3877TIP3    H111584   6.905   4.011   2.087
 3877TIP3    H211585   7.010   3.944   2.170
 3878TIP3   OH211586   6.742   5.082   1.701
 3878TIP3    H111587   6.799   5.016   1.743
 3878TIP3    H211588   6.762   5.162   1.751
 3879TIP3   OH211589   6.948   4.728   0.718
 3879TIP3    H111590   7.034   4.711   0.758
 3879TIP3    H211591   6.956   4.824   0.698
 3880TIP3   OH211592   6.709   4.426   0.864
 3880TIP3    H111593   6.641   4.472   0.918
 3880TIP3    H211594   6.717   4.489   0.789
 3881TIP3   OH211595   7.370   3.999   1.010
 3881TIP3    H111596   7.386   4.094   1.004
 3881TIP3    H211597   7.399   3.980   1.102
 3882TIP3   OH211598   6.991   4.996   0.696
 3882TIP3    H111599   6.966   5.062   0.631
 3882TIP3    H211600   6.977   5.044   0.781
 3883TIP3   OH211601   7.038   3.724   0.909
 3883TIP3    H111602   7.029   3.813   0.949
 3883TIP3    H211603   7.135   3.711   0.918
 3884TIP3   OH211604   6.704   4.621   0.660
 3884TIP3    H111605   6.792   4.659   0.686
 3884TIP3    H211606   6.712   4.627   0.564
 3885TIP3   OH211607   6.650   3.905   0.807
 3885TIP3    H111608   6.641   4.003   0.804
 3885TIP3    H211609   6.579   3.875   0.749
 3886TIP3   OH211610   7.026   3.627   1.672
 3886TIP3    H111611   6.998   3.597   1.583
 3886TIP3    H211612   7.016   3.546   1.725
 3887TIP3   OH211613   6.579   4.861   1.053
 3887TIP3    H111614   6.516   4.881   1.122
 3887TIP3    H211615   6.535   4.900   0.973
 3888TIP3   OH211616   6.736   5.402   2.127
 3888TIP3    H111617   6.822   5.404   2.175
 3888TIP3    H211618   6.717   5.307   2.127
 3889TIP3   OH211619   7.204   5.343   2.176
 3889TIP3    H111620   7.299   5.322   2.178
 3889TIP3    H211621   7.175   5.284   2.103
 3890TIP3   OH211622   6.862   4.803   2.326
 3890TIP3    H111623   6.877   4.706   2.332
 3890TIP3    H211624   6.775   4.807   2.280
 3891TIP3   OH211625   7.471   4.871   2.101
 3891TIP3    H111626   7.429   4.913   2.022
 3891TIP3    H211627   7.494   4.782   2.067
 3892TIP3   OH211628   6.982   4.548   2.318
 3892TIP3    H111629   7.046   4.481   2.292
 3892TIP3    H211630   7.015   4.576   2.405
 3893TIP3   OH211631   7.076   4.337   0.755
 3893TIP3    H111632   7.014   4.320   0.828
 3893TIP3    H211633   7.093   4.247   0.723
 3894TIP3   OH211634   7.328   4.437   1.976
 3894TIP3    H111635   7.241   4.483   1.974
 3894TIP3    H211636   7.366   4.460   1.889
 3895TIP3   OH211637   7.199   4.076   0.587
 3895TIP3    H111638   7.134   4.089   0.514
 3895TIP3    H211639   7.282   4.106   0.547
 3896TIP3   OH211640   7.409   4.195   2.058
 3896TIP3    H111641   7.434   4.157   1.972
 3896TIP3    H211642   7.369   4.280   2.028
 3897TIP3   OH211643   7.476   4.519   1.763
 3897TIP3    H111644   7.545   4.538   1.698
 3897TIP3    H211645   7.410   4.588   1.738
 3898TIP3   OH211646   7.337   4.300   2.328
 3898TIP3    H111647   7.261   4.245   2.357
 3898TIP3    H211648   7.343   4.273   2.235
 3899TIP3   OH211649   7.641   4.306   2.168
 3899TIP3    H111650   7.651   4.250   2.247
 3899TIP3    H211651   7.567   4.263   2.123
 3900TIP3   OH211652   7.160   4.093   2.387
 3900TIP3    H111653   7.165   4.003   2.350
 3900TIP3    H211654   7.192   4.077   2.478
 3901TIP3   OH211655   7.630   3.913   2.347
 3901TIP3    H111656   7.714   3.881   2.309
 3901TIP3    H211657   7.650   4.007   2.364
 3902TIP3   OH211658   6.431   4.582   0.722
 3902TIP3    H111659   6.519   4.608   0.687
 3902TIP3    H211660   6.419   4.497   0.674
 3903TIP3   OH211661   6.354   5.213   1.121
 3903TIP3    H111662   6.291   5.151   1.078
 3903TIP3    H211663   6.396   5.152   1.185
 3904TIP3   OH211664   6.481   5.056   1.309
 3904TIP3    H111665   6.467   4.985   1.374
 3904TIP3    H211666   6.538   5.115   1.361
 3905TIP3   OH211667   6.670   4.455   1.683
 3905TIP3    H111668   6.665   4.421   1.590
 3905TIP3    H211669   6.768   4.458   1.695
 3906TIP3   OH211670   6.896   4.148   2.357
 3906TIP3    H111671   6.993   4.140   2.364
 3906TIP3    H211672   6.867   4.061   2.391
 3907TIP3   OH211673   6.854   3.842   1.684
 3907TIP3    H111674   6.910   3.762   1.687
 3907TIP3    H211675   6.921   3.912   1.679
 3908TIP3   OH211676   6.653   4.110   1.758
 3908TIP3    H111677   6.702   4.108   1.674
 3908TIP3    H211678   6.668   4.200   1.787
 3909TIP3   OH211679   6.640   3.626   1.265
 3909TIP3    H111680   6.547   3.611   1.286
 3909TIP3    H211681   6.634   3.679   1.183
 3910TIP3   OH211682   6.856   3.690   2.069
 3910TIP3    H111683   6.802   3.689   2.151
 3910TIP3    H211684   6.794   3.735   2.008
 3911TIP3   OH211685   6.898   5.121   2.144
 3911TIP3    H111686   6.804   5.103   2.129
 3911TIP3    H211687   6.905   5.112   2.240
 3912TIP3   OH211688   7.081   5.162   1.696
 3912TIP3    H111689   7.033   5.238   1.657
 3912TIP3    H211690   7.166   5.174   1.648
 3913TIP3   OH211691   7.532   5.403   1.830
 3913TIP3    H111692   7.564   5.394   1.922
 3913TIP3    H211693   7.609   5.444   1.788
 3914TIP3   OH211694   6.752   5.415   1.726
 3914TIP3    H111695   6.660   5.440   1.704
 3914TIP3    H211696   6.771   5.478   1.797
 3915TIP3   OH211697   6.986   5.393   1.581
 3915TIP3    H111698   6.899   5.404   1.624
 3915TIP3    H211699   6.968   5.425   1.490
 3916TIP3   OH211700   7.398   5.405   1.384
 3916TIP3    H111701   7.343   5.440   1.312
 3916TIP3    H211702   7.436   5.485   1.423
 3917TIP3   OH211703   6.665   5.207   1.462
 3917TIP3    H111704   6.690   5.175   1.552
 3917TIP3    H211705   6.738   5.164   1.411
 3918TIP3   OH211706   6.861   5.082   1.324
 3918TIP3    H111707   6.874   4.997   1.374
 3918TIP3    H211708   6.953   5.116   1.322
 3919TIP3   OH211709   7.127   5.173   1.332
 3919TIP3    H111710   7.157   5.081   1.319
 3919TIP3    H211711   7.180   5.195   1.411
 3920TIP3   OH211712   6.942   3.540   1.426
 3920TIP3    H111713   6.848   3.512   1.425
 3920TIP3    H211714   6.985   3.452   1.424
 3921TIP3   OH211715   6.756   3.409   1.082
 3921TIP3    H111716   6.772   3.460   1.000
 3921TIP3    H211717   6.719   3.477   1.141
 3922TIP3   OH211718   7.383   3.578   1.297
 3922TIP3    H111719   7.452   3.618   1.241
 3922TIP3    H211720   7.411   3.612   1.385
 3923TIP3   OH211721   6.451   4.973   0.848
 3923TIP3    H111722   6.369   4.928   0.820
 3923TIP3    H211723   6.427   5.066   0.826
 3924TIP3   OH211724   6.828   3.549   0.849
 3924TIP3    H111725   6.874   3.488   0.786
 3924TIP3    H211726   6.900   3.612   0.870
 3925TIP3   OH211727   7.307   3.735   0.960
 3925TIP3    H111728   7.315   3.718   1.054
 3925TIP3    H211729   7.335   3.829   0.954
 3926TIP3   OH211730   7.171   3.823   2.301
 3926TIP3    H111731   7.114   3.764   2.354
 3926TIP3    H211732   7.252   3.821   2.357
 3927TIP3   OH211733   7.398   3.822   2.443
 3927TIP3    H111734   7.486   3.852   2.411
 3927TIP3    H211735   7.423   3.742   2.494
 3928TIP3   OH211736   0.112   5.317   2.703
 3928TIP3    H111737   0.092   5.412   2.690
 3928TIP3    H211738   0.045   5.276   2.646
 3929TIP3   OH211739   0.120   5.353   3.072
 3929TIP3    H111740   0.145   5.325   3.162
 3929TIP3    H211741   0.042   5.297   3.054
 3930TIP3   OH211742   0.337   5.649   2.758
 3930TIP3    H111743   0.337   5.573   2.819
 3930TIP3    H211744   0.375   5.720   2.813
 3931TIP3   OH211745   0.909   4.878   3.112
 3931TIP3    H111746   0.939   4.963   3.149
 3931TIP3    H211747   0.937   4.887   3.019
 3932TIP3   OH211748   0.316   5.063   3.152
 3932TIP3    H111749   0.361   4.977   3.167
 3932TIP3    H211750   0.297   5.056   3.056
 3933TIP3   OH211751   0.340   4.814   2.728
 3933TIP3    H111752   0.410   4.800   2.796
 3933TIP3    H211753   0.395   4.845   2.654
 3934TIP3   OH211754   0.983   5.090   3.283
 3934TIP3    H111755   0.898   5.133   3.262
 3934TIP3    H211756   1.001   5.127   3.371
 3935TIP3   OH211757   0.045   5.563   2.594
 3935TIP3    H111758   0.006   5.541   2.510
 3935TIP3    H211759   0.102   5.639   2.571
 3936TIP3   OH211760   0.537   4.825   2.912
 3936TIP3    H111761   0.536   4.769   2.990
 3936TIP3    H211762   0.592   4.900   2.941
 3937TIP3   OH211763   0.393   5.887   2.916
 3937TIP3    H111764   0.304   5.890   2.955
 3937TIP3    H211765   0.396   5.973   2.868
 3938TIP3   OH211766   0.701   4.778   3.279
 3938TIP3    H111767   0.613   4.803   3.244
 3938TIP3    H211768   0.761   4.811   3.209
 3939TIP3   OH211769   0.018   4.422   3.274
 3939TIP3    H111770   0.002   4.326   3.259
 3939TIP3    H211771  -0.072   4.450   3.297
 3940TIP3   OH211772   0.115   5.919   2.610
 3940TIP3    H111773   0.164   5.846   2.568
 3940TIP3    H211774   0.170   5.994   2.579
 3941TIP3   OH211775   0.256   5.711   2.500
 3941TIP3    H111776   0.281   5.638   2.440
 3941TIP3    H211777   0.302   5.685   2.584
 3942TIP3   OH211778   0.629   5.790   3.260
 3942TIP3    H111779   0.619   5.714   3.199
 3942TIP3    H211780   0.615   5.866   3.199
 3943TIP3   OH211781  -0.031   5.184   2.508
 3943TIP3    H111782  -0.119   5.192   2.466
 3943TIP3    H211783   0.026   5.171   2.430
 3944TIP3   OH211784  -0.079   4.972   2.255
 3944TIP3    H111785   0.001   5.019   2.285
 3944TIP3    H211786  -0.040   4.904   2.198
 3945TIP3   OH211787   0.826   5.434   3.108
 3945TIP3    H111788   0.742   5.485   3.109
 3945TIP3    H211789   0.858   5.455   3.017
 3946TIP3   OH211790   0.282   5.280   2.488
 3946TIP3    H111791   0.231   5.291   2.571
 3946TIP3    H211792   0.367   5.249   2.525
 3947TIP3   OH211793   0.509   5.306   3.410
 3947TIP3    H111794   0.504   5.388   3.463
 3947TIP3    H211795   0.422   5.309   3.365
 3948TIP3   OH211796   0.161   5.893   3.076
 3948TIP3    H111797   0.198   5.936   3.155
 3948TIP3    H211798   0.168   5.799   3.106
 3949TIP3   OH211799   0.146   5.125   2.307
 3949TIP3    H111800   0.207   5.190   2.350
 3949TIP3    H211801   0.161   5.146   2.211
 3950TIP3   OH211802   0.627   4.364   2.364
 3950TIP3    H111803   0.545   4.389   2.413
 3950TIP3    H211804   0.642   4.445   2.311
 3951TIP3   OH211805   0.436   5.720   1.920
 3951TIP3    H111806   0.449   5.816   1.904
 3951TIP3    H211807   0.528   5.688   1.903
 3952TIP3   OH211808   0.869   6.142   3.310
 3952TIP3    H111809   0.867   6.045   3.324
 3952TIP3    H211810   0.786   6.168   3.355
 3953TIP3   OH211811  -0.005   6.023   2.349
 3953TIP3    H111812  -0.062   6.050   2.423
 3953TIP3    H211813   0.080   6.011   2.394
 3954TIP3   OH211814   0.752   5.264   3.584
 3954TIP3    H111815   0.672   5.272   3.530
 3954TIP3    H211816   0.772   5.169   3.574
 3955TIP3   OH211817   0.315   4.621   3.583
 3955TIP3    H111818   0.390   4.590   3.639
 3955TIP3    H211819   0.238   4.591   3.635
 3956TIP3   OH211820   0.523   5.039   3.489
 3956TIP3    H111821   0.481   5.039   3.578
 3956TIP3    H211822   0.506   5.131   3.459
 3957TIP3   OH211823   0.185   5.172   2.048
 3957TIP3    H111824   0.151   5.145   1.960
 3957TIP3    H211825   0.273   5.207   2.022
 3958TIP3   OH211826  -0.121   4.548   2.351
 3958TIP3    H111827  -0.138   4.537   2.447
 3958TIP3    H211828  -0.163   4.467   2.318
 3959TIP3   OH211829   0.087   4.989   2.660
 3959TIP3    H111830   0.042   5.058   2.606
 3959TIP3    H211831   0.140   4.944   2.591
 3960TIP3   OH211832   0.245   5.279   3.739
 3960TIP3    H111833   0.216   5.201   3.789
 3960TIP3    H211834   0.340   5.281   3.763
 3961TIP3   OH211835   0.232   5.014   2.893
 3961TIP3    H111836   0.167   5.043   2.826
 3961TIP3    H211837   0.265   4.934   2.846
 3962TIP3   OH211838   0.243   5.269   3.308
 3962TIP3    H111839   0.272   5.193   3.252
 3962TIP3    H211840   0.201   5.220   3.383
 3963TIP3   OH211841  -0.073   4.745   2.975
 3963TIP3    H111842  -0.105   4.682   3.041
 3963TIP3    H211843  -0.026   4.812   3.029
 3964TIP3   OH211844   0.383   4.801   3.195
 3964TIP3    H111845   0.344   4.811   3.285
 3964TIP3    H211846   0.320   4.737   3.156
 3965TIP3   OH211847   0.563   6.484   3.405
 3965TIP3    H111848   0.561   6.510   3.311
 3965TIP3    H211849   0.637   6.537   3.438
 3966TIP3   OH211850   0.052   4.963   3.101
 3966TIP3    H111851   0.114   4.975   3.027
 3966TIP3    H211852   0.112   4.966   3.176
 3967TIP3   OH211853  -0.039   4.966   3.402
 3967TIP3    H111854  -0.103   5.039   3.414
 3967TIP3    H211855   0.044   5.010   3.429
 3968TIP3   OH211856   0.593   5.579   3.089
 3968TIP3    H111857   0.622   5.629   3.010
 3968TIP3    H211858   0.511   5.535   3.057
 3969TIP3   OH211859   0.138   4.645   2.342
 3969TIP3    H111860   0.041   4.631   2.345
 3969TIP3    H211861   0.148   4.740   2.365
 3970TIP3   OH211862   0.223   4.895   2.439
 3970TIP3    H111863   0.320   4.895   2.452
 3970TIP3    H211864   0.211   4.974   2.383
 3971TIP3   OH211865   0.231   5.948   3.356
 3971TIP3    H111866   0.156   5.901   3.395
 3971TIP3    H211867   0.272   5.984   3.437
 3972TIP3   OH211868   0.652   4.997   2.271
 3972TIP3    H111869   0.590   4.953   2.207
 3972TIP3    H211870   0.652   5.085   2.228
 3973TIP3   OH211871   0.880   5.853   3.346
 3973TIP3    H111872   0.782   5.844   3.338
 3973TIP3    H211873   0.907   5.822   3.257
 3974TIP3   OH211874   0.361   5.799   2.177
 3974TIP3    H111875   0.346   5.720   2.230
 3974TIP3    H211876   0.389   5.762   2.091
 3975TIP3   OH211877   0.366   5.448   2.992
 3975TIP3    H111878   0.276   5.414   3.011
 3975TIP3    H211879   0.405   5.366   2.953
 3976TIP3   OH211880   0.190   5.646   3.186
 3976TIP3    H111881   0.163   5.596   3.263
 3976TIP3    H211882   0.243   5.580   3.138
 3977TIP3   OH211883   0.100   5.534   2.071
 3977TIP3    H111884   0.150   5.517   2.153
 3977TIP3    H211885   0.019   5.482   2.086
 3978TIP3   OH211886   0.408   6.171   3.236
 3978TIP3    H111887   0.323   6.148   3.275
 3978TIP3    H211888   0.384   6.242   3.172
 3979TIP3   OH211889   0.455   5.989   1.905
 3979TIP3    H111890   0.459   6.036   1.819
 3979TIP3    H211891   0.390   6.045   1.950
 3980TIP3   OH211892   0.281   5.488   2.306
 3980TIP3    H111893   0.271   5.414   2.369
 3980TIP3    H211894   0.375   5.472   2.278
 3981TIP3   OH211895   0.305   4.866   3.458
 3981TIP3    H111896   0.394   4.904   3.473
 3981TIP3    H211897   0.309   4.782   3.509
 3982TIP3   OH211898   0.211   4.587   2.616
 3982TIP3    H111899   0.184   4.609   2.525
 3982TIP3    H211900   0.241   4.673   2.650
 3983TIP3   OH211901  -0.055   4.758   2.702
 3983TIP3    H111902  -0.004   4.841   2.691
 3983TIP3    H211903  -0.086   4.768   2.794
 3984TIP3   OH211904   0.165   5.105   3.513
 3984TIP3    H111905   0.189   5.153   3.594
 3984TIP3    H211906   0.218   5.023   3.519
 3985TIP3   OH211907   0.041   4.495   2.817
 3985TIP3    H111908   0.026   4.576   2.868
 3985TIP3    H211909   0.097   4.531   2.745
 3986TIP3   OH211910   0.790   4.999   3.504
 3986TIP3    H111911   0.692   4.997   3.505
 3986TIP3    H211912   0.806   4.953   3.421
 3987TIP3   OH211913   0.448   5.200   2.890
 3987TIP3    H111914   0.370   5.141   2.893
 3987TIP3    H211915   0.516   5.147   2.937
 3988TIP3   OH211916   0.409   6.151   2.834
 3988TIP3    H111917   0.364   6.205   2.766
 3988TIP3    H211918   0.503   6.174   2.815
 3989TIP3   OH211919   0.302   6.045   3.609
 3989TIP3    H111920   0.303   5.988   3.688
 3989TIP3    H211921   0.378   6.103   3.626
 3990TIP3   OH211922   0.137   5.771   1.878
 3990TIP3    H111923   0.154   5.736   1.966
 3990TIP3    H211924   0.214   5.740   1.829
 3991TIP3   OH211925  -0.163   5.432   2.131
 3991TIP3    H111926  -0.257   5.454   2.144
 3991TIP3    H211927  -0.168   5.336   2.117
 3992TIP3   OH211928   0.415   5.700   3.406
 3992TIP3    H111929   0.497   5.732   3.362
 3992TIP3    H211930   0.350   5.758   3.365
 3993TIP3   OH211931   0.312   5.620   3.816
 3993TIP3    H111932   0.354   5.575   3.742
 3993TIP3    H211933   0.320   5.554   3.887
 3994TIP3   OH211934   0.419   5.259   1.936
 3994TIP3    H111935   0.418   5.216   1.849
 3994TIP3    H211936   0.381   5.347   1.913
 3995TIP3   OH211937   0.505   5.278   3.842
 3995TIP3    H111938   0.548   5.192   3.857
 3995TIP3    H211939   0.574   5.327   3.796
 3996TIP3   OH211940   0.540   5.539   3.582
 3996TIP3    H111941   0.485   5.599   3.528
 3996TIP3    H211942   0.629   5.559   3.545
 3997TIP3   OH211943   0.058   4.542   3.666
 3997TIP3    H111944  -0.000   4.610   3.628
 3997TIP3    H211945   0.006   4.463   3.645
 3998TIP3   OH211946   0.164   5.043   3.857
 3998TIP3    H111947   0.173   5.055   3.953
 3998TIP3    H211948   0.077   5.001   3.851
 3999TIP3   OH211949   0.410   5.007   3.729
 3999TIP3    H111950   0.330   5.002   3.785
 3999TIP3    H211951   0.480   4.972   3.787
 4000TIP3   OH211952   0.628   4.940   3.885
 4000TIP3    H111953   0.640   4.843   3.901
 4000TIP3    H211954   0.617   4.975   3.976
 4001TIP3   OH211955   0.147   4.554   3.926
 4001TIP3    H111956   0.204   4.475   3.924
 4001TIP3    H211957   0.106   4.549   3.837
 4002TIP3   OH211958   0.137   4.777   4.072
 4002TIP3    H111959   0.160   4.690   4.031
 4002TIP3    H211960   0.061   4.798   4.016
 4003TIP3   OH211961   0.665   6.242   2.801
 4003TIP3    H111962   0.696   6.278   2.886
 4003TIP3    H211963   0.734   6.272   2.740
 4004TIP3   OH211964   0.703   6.262   3.086
 4004TIP3    H111965   0.656   6.177   3.075
 4004TIP3    H211966   0.779   6.233   3.138
 4005TIP3   OH211967   0.747   5.939   3.651
 4005TIP3    H111968   0.677   5.950   3.719
 4005TIP3    H211969   0.791   6.026   3.655
 4006TIP3   OH211970   0.554   5.454   2.270
 4006TIP3    H111971   0.620   5.518   2.235
 4006TIP3    H211972   0.603   5.416   2.346
 4007TIP3   OH211973   0.685   5.323   2.475
 4007TIP3    H111974   0.623   5.277   2.535
 4007TIP3    H211975   0.756   5.353   2.536
 4008TIP3   OH211976   0.744   5.711   2.903
 4008TIP3    H111977   0.797   5.642   2.859
 4008TIP3    H211978   0.750   5.785   2.839
 4009TIP3   OH211979   0.578   6.006   3.096
 4009TIP3    H111980   0.508   6.057   3.143
 4009TIP3    H211981   0.527   5.965   3.023
 4010TIP3   OH211982   0.620   5.227   2.123
 4010TIP3    H111983   0.551   5.228   2.053
 4010TIP3    H211984   0.593   5.306   2.174
 4011TIP3   OH211985   0.484   4.902   2.081
 4011TIP3    H111986   0.462   4.931   1.992
 4011TIP3    H211987   0.463   4.806   2.074
 4012TIP3   OH211988   0.499   5.176   2.619
 4012TIP3    H111989   0.509   5.080   2.608
 4012TIP3    H211990   0.488   5.186   2.715
 4013TIP3   OH211991   0.789   5.602   3.480
 4013TIP3    H111992   0.859   5.533   3.469
 4013TIP3    H211993   0.814   5.667   3.413
 4014TIP3   OH211994   0.968   5.398   3.486
 4014TIP3    H111995   0.893   5.348   3.526
 4014TIP3    H211996   1.042   5.336   3.506
 4015TIP3   OH211997   0.437   4.635   2.059
 4015TIP3    H111998   0.510   4.600   2.113
 4015TIP3    H211999   0.364   4.572   2.075
 4016TIP3   OH212000   0.499   4.895   2.508
 4016TIP3    H112001   0.541   4.806   2.522
 4016TIP3    H212002   0.555   4.928   2.436
 4017TIP3   OH212003   0.655   5.060   3.012
 4017TIP3    H112004   0.740   5.083   2.967
 4017TIP3    H212005   0.674   5.098   3.100
 4018TIP3   OH212006   0.733   5.210   3.239
 4018TIP3    H112007   0.656   5.245   3.287
 4018TIP3    H212008   0.766   5.290   3.193
 4019TIP3   OH212009   1.176   4.800   3.797
 4019TIP3    H112010   1.241   4.738   3.757
 4019TIP3    H212011   1.146   4.850   3.718
 4020TIP3   OH212012   0.603   4.645   2.554
 4020TIP3    H112013   0.651   4.626   2.637
 4020TIP3    H212014   0.543   4.568   2.549
 4021TIP3   OH212015   1.044   4.932   3.599
 4021TIP3    H112016   0.958   4.978   3.611
 4021TIP3    H212017   1.014   4.859   3.542
 4022TIP3   OH212018   0.680   4.571   2.189
 4022TIP3    H112019   0.720   4.504   2.129
 4022TIP3    H212020   0.746   4.643   2.187
 4023TIP3   OH212021   0.259   6.099   2.466
 4023TIP3    H112022   0.316   6.082   2.388
 4023TIP3    H212023   0.308   6.170   2.509
 4024TIP3   OH212024   0.946   4.698   3.482
 4024TIP3    H112025   0.858   4.683   3.444
 4024TIP3    H212026   0.985   4.607   3.473
 4025TIP3   OH212027   0.368   6.350   3.031
 4025TIP3    H112028   0.334   6.427   2.982
 4025TIP3    H212029   0.373   6.282   2.961
 4026TIP3   OH212030   0.176   4.615   3.119
 4026TIP3    H112031   0.121   4.544   3.156
 4026TIP3    H212032   0.238   4.567   3.061
 4027TIP3   OH212033   0.669   4.506   3.010
 4027TIP3    H112034   0.705   4.551   2.930
 4027TIP3    H212035   0.573   4.516   2.997
 4028TIP3   OH212036   0.766   4.592   2.770
 4028TIP3    H112037   0.840   4.539   2.732
 4028TIP3    H212038   0.802   4.683   2.756
 4029TIP3   OH212039  -0.140   4.332   3.017
 4029TIP3    H112040  -0.071   4.355   2.953
 4029TIP3    H212041  -0.200   4.409   3.010
 4030TIP3   OH212042   0.391   4.503   2.977
 4030TIP3    H112043   0.387   4.460   2.891
 4030TIP3    H212044   0.381   4.427   3.038
 4031TIP3   OH212045   0.426   4.431   2.545
 4031TIP3    H112046   0.344   4.480   2.568
 4031TIP3    H212047   0.407   4.344   2.586
 4032TIP3   OH212048  -0.157   4.505   2.618
 4032TIP3    H112049  -0.093   4.495   2.691
 4032TIP3    H212050  -0.173   4.601   2.623
 4033TIP3   OH212051   0.410   6.060   2.240
 4033TIP3    H112052   0.402   5.962   2.226
 4033TIP3    H212053   0.365   6.091   2.159
 4034TIP3   OH212054   0.687   4.669   3.914
 4034TIP3    H112055   0.703   4.637   4.006
 4034TIP3    H212056   0.776   4.663   3.875
 4035TIP3   OH212057   0.622   6.217   3.407
 4035TIP3    H112058   0.551   6.190   3.345
 4035TIP3    H212059   0.604   6.314   3.412
 4036TIP3   OH212060   1.880   5.589   2.161
 4036TIP3    H112061   1.852   5.680   2.142
 4036TIP3    H212062   1.803   5.540   2.128
 4037TIP3   OH212063   1.899   5.596   2.555
 4037TIP3    H112064   1.924   5.561   2.642
 4037TIP3    H212065   1.851   5.522   2.516
 4038TIP3   OH212066   1.183   5.485   2.927
 4038TIP3    H112067   1.215   5.415   2.986
 4038TIP3    H212068   1.266   5.519   2.890
 4039TIP3   OH212069   2.140   5.895   2.238
 4039TIP3    H112070   2.112   5.830   2.304
 4039TIP3    H212071   2.168   5.970   2.294
 4040TIP3   OH212072   1.164   5.898   2.642
 4040TIP3    H112073   1.155   5.800   2.642
 4040TIP3    H212074   1.259   5.906   2.621
 4041TIP3   OH212075   0.862   5.088   2.425
 4041TIP3    H112076   0.822   5.176   2.437
 4041TIP3    H212077   0.791   5.044   2.374
 4042TIP3   OH212078   0.921   5.384   2.605
 4042TIP3    H112079   0.974   5.306   2.635
 4042TIP3    H212080   0.977   5.420   2.535
 4043TIP3   OH212081   1.791   6.356   2.258
 4043TIP3    H112082   1.826   6.287   2.197
 4043TIP3    H212083   1.774   6.304   2.337
 4044TIP3   OH212084   1.681   5.822   2.607
 4044TIP3    H112085   1.714   5.752   2.548
 4044TIP3    H212086   1.766   5.864   2.631
 4045TIP3   OH212087   2.706   5.134   2.600
 4045TIP3    H112088   2.735   5.220   2.636
 4045TIP3    H212089   2.727   5.145   2.506
 4046TIP3   OH212090   2.099   5.314   2.629
 4046TIP3    H112091   2.142   5.228   2.647
 4046TIP3    H212092   2.065   5.299   2.539
 4047TIP3   OH212093   1.445   4.977   2.595
 4047TIP3    H112094   1.423   5.049   2.532
 4047TIP3    H212095   1.395   4.904   2.552
 4048TIP3   OH212096   2.135   5.074   2.216
 4048TIP3    H112097   2.207   5.060   2.282
 4048TIP3    H212098   2.187   5.106   2.140
 4049TIP3   OH212099   1.070   5.177   2.708
 4049TIP3    H112100   1.155   5.159   2.753
 4049TIP3    H212101   1.084   5.124   2.626
 4050TIP3   OH212102   1.505   5.374   2.518
 4050TIP3    H112103   1.601   5.354   2.519
 4050TIP3    H212104   1.469   5.294   2.474
 4051TIP3   OH212105   2.779   5.348   2.769
 4051TIP3    H112106   2.695   5.392   2.746
 4051TIP3    H212107   2.792   5.381   2.859
 4052TIP3   OH212108   1.434   4.963   3.034
 4052TIP3    H112109   1.377   4.998   2.963
 4052TIP3    H212110   1.378   4.982   3.112
 4053TIP3   OH212111   1.780   5.815   2.037
 4053TIP3    H112112   1.736   5.796   1.953
 4053TIP3    H212113   1.727   5.891   2.069
 4054TIP3   OH212114   1.540   5.737   2.822
 4054TIP3    H112115   1.483   5.809   2.855
 4054TIP3    H212116   1.585   5.780   2.746
 4055TIP3   OH212117   2.336   5.079   2.398
 4055TIP3    H112118   2.323   5.032   2.481
 4055TIP3    H212119   2.387   5.157   2.427
 4056TIP3   OH212120   1.309   5.074   2.814
 4056TIP3    H112121   1.371   5.147   2.836
 4056TIP3    H212122   1.357   5.035   2.737
 4057TIP3   OH212123   1.374   5.938   2.926
 4057TIP3    H112124   1.347   6.023   2.886
 4057TIP3    H212125   1.294   5.919   2.979
 4058TIP3   OH212126   0.748   5.628   2.163
 4058TIP3    H112127   0.724   5.647   2.071
 4058TIP3    H212128   0.790   5.712   2.192
 4059TIP3   OH212129   2.202   6.143   2.402
 4059TIP3    H112130   2.112   6.133   2.440
 4059TIP3    H212131   2.192   6.227   2.354
 4060TIP3   OH212132   2.496   5.038   2.767
 4060TIP3    H112133   2.408   5.058   2.730
 4060TIP3    H212134   2.556   5.069   2.696
 4061TIP3   OH212135   1.785   4.674   2.752
 4061TIP3    H112136   1.766   4.579   2.768
 4061TIP3    H212137   1.708   4.714   2.797
 4062TIP3   OH212138   1.896   6.184   2.066
 4062TIP3    H112139   1.946   6.100   2.051
 4062TIP3    H212140   1.961   6.248   2.030
 4063TIP3   OH212141   2.044   5.970   1.989
 4063TIP3    H112142   2.005   5.890   1.951
 4063TIP3    H212143   2.085   5.934   2.071
 4064TIP3   OH212144   2.427   6.045   2.746
 4064TIP3    H112145   2.412   5.970   2.685
 4064TIP3    H212146   2.407   6.122   2.687
 4065TIP3   OH212147   1.701   5.431   2.003
 4065TIP3    H112148   1.605   5.428   1.989
 4065TIP3    H212149   1.734   5.437   1.912
 4066TIP3   OH212150   1.704   5.235   1.711
 4066TIP3    H112151   1.774   5.285   1.756
 4066TIP3    H212152   1.756   5.167   1.665
 4067TIP3   OH212153   2.622   5.694   2.597
 4067TIP3    H112154   2.536   5.742   2.597
 4067TIP3    H212155   2.652   5.714   2.506
 4068TIP3   OH212156   2.070   5.534   1.972
 4068TIP3    H112157   2.011   5.553   2.049
 4068TIP3    H212158   2.153   5.509   2.018
 4069TIP3   OH212159   2.300   5.561   2.893
 4069TIP3    H112160   2.295   5.648   2.936
 4069TIP3    H212161   2.213   5.559   2.847
 4070TIP3   OH212162   1.289   5.522   2.400
 4070TIP3    H112163   1.240   5.463   2.338
 4070TIP3    H212164   1.369   5.470   2.420
 4071TIP3   OH212165   1.423   5.930   2.534
 4071TIP3    H112166   1.407   5.899   2.443
 4071TIP3    H212167   1.511   5.891   2.552
 4072TIP3   OH212168   1.420   5.496   2.752
 4072TIP3    H112169   1.453   5.464   2.665
 4072TIP3    H212170   1.470   5.580   2.762
 4073TIP3   OH212171   1.963   6.134   2.525
 4073TIP3    H112172   1.947   6.213   2.580
 4073TIP3    H212173   1.943   6.060   2.586
 4074TIP3   OH212174   1.576   6.050   3.074
 4074TIP3    H112175   1.512   6.111   3.116
 4074TIP3    H212176   1.514   5.997   3.019
 4075TIP3   OH212177   1.917   5.382   1.802
 4075TIP3    H112178   1.968   5.450   1.852
 4075TIP3    H212179   1.940   5.405   1.709
 4076TIP3   OH212180   1.334   5.599   3.190
 4076TIP3    H112181   1.335   5.691   3.221
 4076TIP3    H212182   1.238   5.582   3.188
 4077TIP3   OH212183   1.653   6.062   2.079
 4077TIP3    H112184   1.738   6.110   2.077
 4077TIP3    H212185   1.595   6.119   2.027
 4078TIP3   OH212186   1.367   6.214   3.157
 4078TIP3    H112187   1.335   6.220   3.065
 4078TIP3    H212188   1.285   6.193   3.207
 4079TIP3   OH212189   2.423   4.620   1.853
 4079TIP3    H112190   2.341   4.645   1.900
 4079TIP3    H212191   2.439   4.701   1.800
 4080TIP3   OH212192   1.143   5.362   2.232
 4080TIP3    H112193   1.129   5.413   2.150
 4080TIP3    H212194   1.157   5.275   2.193
 4081TIP3   OH212195   2.224   5.988   1.405
 4081TIP3    H112196   2.231   6.084   1.383
 4081TIP3    H212197   2.316   5.959   1.389
 4082TIP3   OH212198   0.944   5.751   3.104
 4082TIP3    H112199   0.880   5.730   3.034
 4082TIP3    H212200   0.985   5.664   3.124
 4083TIP3   OH212201   0.804   5.938   2.741
 4083TIP3    H112202   0.898   5.930   2.721
 4083TIP3    H212203   0.802   6.018   2.797
 4084TIP3   OH212204   2.665   6.402   2.797
 4084TIP3    H112205   2.663   6.305   2.809
 4084TIP3    H212206   2.580   6.426   2.841
 4085TIP3   OH212207   1.772   6.176   2.931
 4085TIP3    H112208   1.765   6.270   2.960
 4085TIP3    H212209   1.699   6.136   2.983
 4086TIP3   OH212210   1.538   6.304   1.881
 4086TIP3    H112211   1.489   6.285   1.798
 4086TIP3    H212212   1.502   6.390   1.907
 4087TIP3   OH212213   0.970   6.156   2.269
 4087TIP3    H112214   1.017   6.145   2.354
 4087TIP3    H212215   0.929   6.068   2.258
 4088TIP3   OH212216   1.732   6.210   1.517
 4088TIP3    H112217   1.790   6.139   1.480
 4088TIP3    H212218   1.769   6.221   1.607
 4089TIP3   OH212219   1.788   6.261   1.785
 4089TIP3    H112220   1.699   6.270   1.825
 4089TIP3    H212221   1.837   6.220   1.859
 4090TIP3   OH212222   2.548   5.522   3.069
 4090TIP3    H112223   2.467   5.533   3.017
 4090TIP3    H212224   2.566   5.427   3.057
 4091TIP3   OH212225   1.150   5.934   3.087
 4091TIP3    H112226   1.199   5.915   3.169
 4091TIP3    H212227   1.075   5.871   3.093
 4092TIP3   OH212228   1.549   4.754   2.882
 4092TIP3    H112229   1.461   4.724   2.849
 4092TIP3    H212230   1.521   4.835   2.930
 4093TIP3   OH212231   2.087   4.871   3.074
 4093TIP3    H112232   2.156   4.840   3.136
 4093TIP3    H212233   2.004   4.850   3.121
 4094TIP3   OH212234   2.320   5.300   2.993
 4094TIP3    H112235   2.267   5.301   3.075
 4094TIP3    H212236   2.298   5.385   2.952
 4095TIP3   OH212237   1.985   5.422   1.545
 4095TIP3    H112238   1.945   5.405   1.457
 4095TIP3    H212239   2.069   5.464   1.518
 4096TIP3   OH212240   1.695   4.795   1.850
 4096TIP3    H112241   1.656   4.795   1.940
 4096TIP3    H212242   1.652   4.716   1.814
 4097TIP3   OH212243   1.483   5.273   2.896
 4097TIP3    H112244   1.432   5.291   2.977
 4097TIP3    H212245   1.465   5.354   2.844
 4098TIP3   OH212246   1.369   5.158   2.409
 4098TIP3    H112247   1.274   5.140   2.424
 4098TIP3    H212248   1.379   5.120   2.318
 4099TIP3   OH212249   1.854   5.247   2.142
 4099TIP3    H112250   1.802   5.316   2.095
 4099TIP3    H212251   1.907   5.211   2.068
 4100TIP3   OH212252   2.030   5.517   3.224
 4100TIP3    H112253   2.006   5.444   3.286
 4100TIP3    H212254   2.125   5.524   3.242
 4101TIP3   OH212255   2.009   5.269   2.373
 4101TIP3    H112256   1.945   5.296   2.303
 4101TIP3    H212257   2.046   5.192   2.327
 4102TIP3   OH212258   1.304   5.300   3.104
 4102TIP3    H112259   1.335   5.363   3.170
 4102TIP3    H212260   1.291   5.218   3.156
 4103TIP3   OH212261   1.348   4.778   1.816
 4103TIP3    H112262   1.337   4.782   1.913
 4103TIP3    H212263   1.275   4.837   1.787
 4104TIP3   OH212264   0.894   4.815   2.694
 4104TIP3    H112265   0.969   4.853   2.743
 4104TIP3    H212266   0.932   4.796   2.607
 4105TIP3   OH212267   0.850   4.798   2.207
 4105TIP3    H112268   0.894   4.832   2.126
 4105TIP3    H212269   0.791   4.873   2.225
 4106TIP3   OH212270   2.031   5.511   2.799
 4106TIP3    H112271   2.060   5.441   2.736
 4106TIP3    H212272   1.993   5.455   2.871
 4107TIP3   OH212273   1.704   4.972   2.471
 4107TIP3    H112274   1.621   4.976   2.522
 4107TIP3    H212275   1.772   4.970   2.540
 4108TIP3   OH212276   1.125   5.037   2.481
 4108TIP3    H112277   1.033   5.044   2.448
 4108TIP3    H212278   1.152   4.948   2.452
 4109TIP3   OH212279   1.391   5.034   2.164
 4109TIP3    H112280   1.483   5.054   2.141
 4109TIP3    H212281   1.344   5.056   2.080
 4110TIP3   OH212282   2.186   5.055   2.681
 4110TIP3    H112283   2.149   5.070   2.770
 4110TIP3    H212284   2.118   4.995   2.644
 4111TIP3   OH212285   1.255   5.074   1.933
 4111TIP3    H112286   1.201   5.036   1.862
 4111TIP3    H212287   1.261   5.168   1.908
 4112TIP3   OH212288   2.362   6.744   2.895
 4112TIP3    H112289   2.356   6.769   2.801
 4112TIP3    H212290   2.441   6.793   2.924
 4113TIP3   OH212291   1.311   5.855   3.312
 4113TIP3    H112292   1.391   5.885   3.359
 4113TIP3    H212293   1.246   5.854   3.385
 4114TIP3   OH212294   1.775   5.310   2.568
 4114TIP3    H112295   1.848   5.274   2.515
 4114TIP3    H212296   1.782   5.259   2.651
 4115TIP3   OH212297   1.291   4.795   2.452
 4115TIP3    H112298   1.256   4.717   2.500
 4115TIP3    H212299   1.323   4.756   2.370
 4116TIP3   OH212300   1.750   5.206   2.860
 4116TIP3    H112301   1.659   5.241   2.870
 4116TIP3    H212302   1.805   5.272   2.907
 4117TIP3   OH212303   2.384   5.831   2.577
 4117TIP3    H112304   2.407   5.883   2.497
 4117TIP3    H212305   2.300   5.787   2.550
 4118TIP3   OH212306   1.945   4.900   1.831
 4118TIP3    H112307   1.848   4.880   1.833
 4118TIP3    H212308   1.949   4.996   1.849
 4119TIP3   OH212309   1.886   5.915   2.951
 4119TIP3    H112310   1.917   5.904   3.041
 4119TIP3    H212311   1.849   6.005   2.951
 4120TIP3   OH212312   2.012   5.157   1.928
 4120TIP3    H112313   2.108   5.165   1.937
 4120TIP3    H212314   1.989   5.237   1.876
 4121TIP3   OH212315   1.180   5.622   2.628
 4121TIP3    H112316   1.211   5.598   2.538
 4121TIP3    H212317   1.236   5.564   2.682
 4122TIP3   OH212318   1.628   5.736   1.788
 4122TIP3    H112319   1.583   5.824   1.787
 4122TIP3    H212320   1.560   5.681   1.830
 4123TIP3   OH212321   1.064   5.539   3.243
 4123TIP3    H112322   1.078   5.522   3.338
 4123TIP3    H212323   0.995   5.473   3.222
 4124TIP3   OH212324   1.791   5.656   3.262
 4124TIP3    H112325   1.727   5.600   3.215
 4124TIP3    H212326   1.875   5.617   3.231
 4125TIP3   OH212327   2.046   6.173   2.852
 4125TIP3    H112328   1.950   6.173   2.862
 4125TIP3    H212329   2.073   6.229   2.928
 4126TIP3   OH212330   2.453   5.253   1.755
 4126TIP3    H112331   2.392   5.209   1.690
 4126TIP3    H212332   2.449   5.343   1.715
 4127TIP3   OH212333   2.677   6.112   2.832
 4127TIP3    H112334   2.580   6.102   2.823
 4127TIP3    H212335   2.704   6.079   2.743
 4128TIP3   OH212336   2.164   6.066   1.668
 4128TIP3    H112337   2.128   5.995   1.723
 4128TIP3    H212338   2.175   6.022   1.581
 4129TIP3   OH212339   2.155   5.695   2.495
 4129TIP3    H112340   2.061   5.670   2.510
 4129TIP3    H212341   2.186   5.614   2.449
 4130TIP3   OH212342   1.274   5.933   2.258
 4130TIP3    H112343   1.273   6.012   2.200
 4130TIP3    H212344   1.184   5.902   2.250
 4131TIP3   OH212345   0.850   5.218   1.963
 4131TIP3    H112346   0.897   5.303   1.981
 4131TIP3    H212347   0.776   5.227   2.026
 4132TIP3   OH212348   1.453   5.719   2.272
 4132TIP3    H112349   1.393   5.792   2.247
 4132TIP3    H212350   1.391   5.646   2.290
 4133TIP3   OH212351   1.554   6.264   2.720
 4133TIP3    H112352   1.594   6.337   2.669
 4133TIP3    H212353   1.633   6.225   2.761
 4134TIP3   OH212354   1.198   6.168   2.106
 4134TIP3    H112355   1.113   6.178   2.153
 4134TIP3    H212356   1.232   6.260   2.109
 4135TIP3   OH212357   1.934   5.901   2.681
 4135TIP3    H112358   1.926   5.898   2.779
 4135TIP3    H212359   2.009   5.841   2.666
 4136TIP3   OH212360   1.919   5.800   1.565
 4136TIP3    H112361   1.969   5.773   1.645
 4136TIP3    H212362   1.831   5.763   1.585
 4137TIP3   OH212363   2.187   6.431   2.729
 4137TIP3    H112364   2.105   6.378   2.723
 4137TIP3    H212365   2.172   6.496   2.657
 4138TIP3   OH212366   2.252   6.265   1.381
 4138TIP3    H112367   2.284   6.337   1.325
 4138TIP3    H212368   2.172   6.307   1.419
 4139TIP3   OH212369   1.267   5.045   3.244
 4139TIP3    H112370   1.170   5.046   3.252
 4139TIP3    H212371   1.292   4.986   3.317
 4140TIP3   OH212372   2.079   5.731   1.779
 4140TIP3    H112373   2.068   5.665   1.850
 4140TIP3    H212374   2.176   5.725   1.766
 4141TIP3   OH212375   0.988   6.127   2.879
 4141TIP3    H112376   1.045   6.055   2.911
 4141TIP3    H212377   1.023   6.203   2.928
 4142TIP3   OH212378   1.279   5.769   1.567
 4142TIP3    H112379   1.289   5.675   1.541
 4142TIP3    H212380   1.250   5.760   1.660
 4143TIP3   OH212381   1.206   5.780   1.832
 4143TIP3    H112382   1.267   5.724   1.883
 4143TIP3    H212383   1.231   5.872   1.855
 4144TIP3   OH212384   0.944   5.461   2.032
 4144TIP3    H112385   0.891   5.518   2.091
 4144TIP3    H212386   0.981   5.525   1.969
 4145TIP3   OH212387   2.109   5.114   2.943
 4145TIP3    H112388   2.198   5.145   2.969
 4145TIP3    H212389   2.100   5.030   2.992
 4146TIP3   OH212390   1.996   4.850   2.106
 4146TIP3    H112391   1.978   4.869   2.011
 4146TIP3    H212392   2.032   4.936   2.137
 4147TIP3   OH212393   1.495   5.971   1.786
 4147TIP3    H112394   1.408   5.996   1.823
 4147TIP3    H212395   1.506   6.041   1.720
 4148TIP3   OH212396   1.680   5.040   2.202
 4148TIP3    H112397   1.739   5.115   2.183
 4148TIP3    H212398   1.686   5.034   2.299
 4149TIP3   OH212399   1.947   5.349   3.003
 4149TIP3    H112400   1.978   5.396   3.083
 4149TIP3    H212401   1.999   5.267   3.003
 4150TIP3   OH212402   1.816   4.756   2.299
 4150TIP3    H112403   1.797   4.838   2.348
 4150TIP3    H212404   1.882   4.788   2.233
 4151TIP3   OH212405   1.247   6.053   1.861
 4151TIP3    H112406   1.216   6.122   1.798
 4151TIP3    H212407   1.227   6.096   1.947
 4152TIP3   OH212408   1.333   4.769   2.094
 4152TIP3    H112409   1.331   4.863   2.124
 4152TIP3    H212410   1.429   4.754   2.100
 4153TIP3   OH212411   2.586   5.256   2.990
 4153TIP3    H112412   2.488   5.257   2.997
 4153TIP3    H212413   2.596   5.207   2.907
 4154TIP3   OH212414   2.238   5.449   2.377
 4154TIP3    H112415   2.160   5.391   2.385
 4154TIP3    H212416   2.307   5.399   2.426
 4155TIP3   OH212417   0.957   5.671   1.833
 4155TIP3    H112418   1.037   5.728   1.842
 4155TIP3    H212419   0.996   5.603   1.774
 4156TIP3   OH212420   0.885   4.948   1.984
 4156TIP3    H112421   0.900   5.044   1.987
 4156TIP3    H212422   0.826   4.940   1.909
 4157TIP3   OH212423   2.209   6.413   2.323
 4157TIP3    H112424   2.165   6.461   2.249
 4157TIP3    H212425   2.303   6.429   2.301
 4158TIP3   OH212426   1.283   4.676   2.848
 4158TIP3    H112427   1.254   4.642   2.761
 4158TIP3    H212428   1.271   4.597   2.905
 4159TIP3   OH212429   0.822   5.899   2.226
 4159TIP3    H112430   0.759   5.925   2.294
 4159TIP3    H212431   0.785   5.944   2.146
 4160TIP3   OH212432   0.987   6.447   3.303
 4160TIP3    H112433   1.073   6.448   3.351
 4160TIP3    H212434   0.969   6.351   3.300
 4161TIP3   OH212435   1.454   6.392   3.350
 4161TIP3    H112436   1.550   6.382   3.353
 4161TIP3    H212437   1.430   6.329   3.279
 4162TIP3   OH212438   1.441   5.972   1.475
 4162TIP3    H112439   1.389   5.898   1.512
 4162TIP3    H212440   1.517   5.924   1.436
 4163TIP3   OH212441   2.094   6.312   3.087
 4163TIP3    H112442   2.093   6.241   3.155
 4163TIP3    H212443   2.173   6.363   3.113
 4164TIP3   OH212444   1.875   6.012   1.389
 4164TIP3    H112445   1.914   5.944   1.448
 4164TIP3    H212446   1.932   6.007   1.310
 4165TIP3   OH212447   1.109   5.844   3.504
 4165TIP3    H112448   1.125   5.748   3.509
 4165TIP3    H212449   1.023   5.847   3.457
 4166TIP3   OH212450   1.096   5.487   1.699
 4166TIP3    H112451   1.155   5.463   1.774
 4166TIP3    H212452   1.165   5.495   1.629
 4167TIP3   OH212453   1.715   5.933   3.279
 4167TIP3    H112454   1.674   5.958   3.193
 4167TIP3    H212455   1.744   5.841   3.263
 4168TIP3   OH212456   1.619   5.693   1.512
 4168TIP3    H112457   1.610   5.700   1.609
 4168TIP3    H212458   1.614   5.596   1.501
 4169TIP3   OH212459   2.212   5.947   2.892
 4169TIP3    H112460   2.288   5.986   2.844
 4169TIP3    H212461   2.142   6.013   2.872
 4170TIP3   OH212462   1.228   5.584   3.492
 4170TIP3    H112463   1.307   5.549   3.449
 4170TIP3    H212464   1.263   5.613   3.579
 4171TIP3   OH212465   1.568   5.461   3.151
 4171TIP3    H112466   1.489   5.520   3.152
 4171TIP3    H212467   1.618   5.498   3.074
 4172TIP3   OH212468   2.087   5.865   3.281
 4172TIP3    H112469   2.153   5.826   3.222
 4172TIP3    H212470   2.075   5.796   3.348
 4173TIP3   OH212471   2.217   5.517   1.429
 4173TIP3    H112472   2.196   5.475   1.343
 4173TIP3    H212473   2.183   5.608   1.411
 4174TIP3   OH212474   1.691   5.253   3.270
 4174TIP3    H112475   1.691   5.176   3.210
 4174TIP3    H212476   1.647   5.322   3.215
 4175TIP3   OH212477   1.692   5.040   3.085
 4175TIP3    H112478   1.721   5.081   3.001
 4175TIP3    H212479   1.600   5.017   3.064
 4176TIP3   OH212480   1.713   5.576   2.960
 4176TIP3    H112481   1.798   5.590   2.918
 4176TIP3    H212482   1.655   5.638   2.910
 4177TIP3   OH212483   2.307   5.535   3.339
 4177TIP3    H112484   2.345   5.447   3.323
 4177TIP3    H212485   2.369   5.592   3.291
 4178TIP3   OH212486   2.336   5.796   3.076
 4178TIP3    H112487   2.281   5.852   3.017
 4178TIP3    H212488   2.425   5.815   3.038
 4179TIP3   OH212489   1.571   5.353   3.510
 4179TIP3    H112490   1.503   5.284   3.524
 4179TIP3    H212491   1.600   5.333   3.419
 4180TIP3   OH212492   1.824   4.801   3.156
 4180TIP3    H112493   1.774   4.881   3.130
 4180TIP3    H212494   1.757   4.731   3.142
 4181TIP3   OH212495   1.947   5.297   3.366
 4181TIP3    H112496   1.923   5.281   3.459
 4181TIP3    H212497   1.861   5.278   3.325
 4182TIP3   OH212498   2.193   5.269   3.230
 4182TIP3    H112499   2.115   5.259   3.287
 4182TIP3    H212500   2.264   5.229   3.283
 4183TIP3   OH212501   2.421   5.197   3.373
 4183TIP3    H112502   2.434   5.100   3.382
 4183TIP3    H212503   2.418   5.227   3.466
 4184TIP3   OH212504   1.405   5.136   3.566
 4184TIP3    H112505   1.406   5.044   3.531
 4184TIP3    H212506   1.444   5.121   3.654
 4185TIP3   OH212507   1.913   4.809   3.415
 4185TIP3    H112508   1.979   4.738   3.407
 4185TIP3    H212509   1.875   4.808   3.325
 4186TIP3   OH212510   1.984   5.024   3.568
 4186TIP3    H112511   1.963   4.952   3.505
 4186TIP3    H212512   1.905   5.081   3.560
 4187TIP3   OH212513   1.208   6.257   1.675
 4187TIP3    H112514   1.301   6.246   1.648
 4187TIP3    H212515   1.176   6.313   1.603
 4188TIP3   OH212516   0.696   5.635   1.889
 4188TIP3    H112517   0.789   5.660   1.870
 4188TIP3    H212518   0.695   5.545   1.849
 4189TIP3   OH212519   0.601   6.253   2.302
 4189TIP3    H112520   0.543   6.187   2.260
 4189TIP3    H212521   0.650   6.195   2.364
 4190TIP3   OH212522   0.731   6.095   2.486
 4190TIP3    H112523   0.721   6.024   2.551
 4190TIP3    H212524   0.790   6.156   2.536
 4191TIP3   OH212525   2.469   6.491   2.287
 4191TIP3    H112526   2.494   6.529   2.373
 4191TIP3    H212527   2.531   6.533   2.226
 4192TIP3   OH212528   2.491   6.518   2.571
 4192TIP3    H112529   2.443   6.432   2.564
 4192TIP3    H212530   2.567   6.490   2.625
 4193TIP3   OH212531   2.542   6.193   3.144
 4193TIP3    H112532   2.468   6.205   3.207
 4193TIP3    H212533   2.583   6.282   3.145
 4194TIP3   OH212534   2.357   5.705   1.757
 4194TIP3    H112535   2.420   5.772   1.725
 4194TIP3    H212536   2.404   5.669   1.836
 4195TIP3   OH212537   2.486   5.572   1.964
 4195TIP3    H112538   2.416   5.532   2.019
 4195TIP3    H212539   2.547   5.610   2.031
 4196TIP3   OH212540   2.546   5.972   2.397
 4196TIP3    H112541   2.592   5.901   2.350
 4196TIP3    H212542   2.542   6.043   2.330
 4197TIP3   OH212543   2.366   6.268   2.589
 4197TIP3    H112544   2.292   6.311   2.637
 4197TIP3    H212545   2.319   6.224   2.515
 4198TIP3   OH212546   2.420   5.483   1.607
 4198TIP3    H112547   2.349   5.483   1.539
 4198TIP3    H212548   2.390   5.559   1.661
 4199TIP3   OH212549   2.293   5.154   1.559
 4199TIP3    H112550   2.244   5.190   1.485
 4199TIP3    H212551   2.271   5.059   1.551
 4200TIP3   OH212552   2.295   5.436   2.106
 4200TIP3    H112553   2.299   5.339   2.094
 4200TIP3    H212554   2.279   5.444   2.203
 4201TIP3   OH212555   0.919   5.503   2.857
 4201TIP3    H112556   0.917   5.468   2.766
 4201TIP3    H212557   1.016   5.508   2.873
 4202TIP3   OH212558   2.585   5.858   2.969
 4202TIP3    H112559   2.655   5.790   2.954
 4202TIP3    H212560   2.601   5.921   2.898
 4203TIP3   OH212561   2.766   5.654   2.971
 4203TIP3    H112562   2.690   5.606   3.011
 4203TIP3    H212563   2.839   5.592   2.992
 4204TIP3   OH212564   2.232   4.889   1.543
 4204TIP3    H112565   2.300   4.853   1.603
 4204TIP3    H212566   2.155   4.832   1.558
 4205TIP3   OH212567   2.297   5.154   1.999
 4205TIP3    H112568   2.337   5.065   2.013
 4205TIP3    H212569   2.351   5.186   1.924
 4206TIP3   OH212570   2.452   5.314   2.500
 4206TIP3    H112571   2.536   5.339   2.455
 4206TIP3    H212572   2.468   5.355   2.587
 4207TIP3   OH212573   2.528   5.468   2.726
 4207TIP3    H112574   2.449   5.502   2.772
 4207TIP3    H212575   2.560   5.549   2.681
 4208TIP3   OH212576   1.138   5.188   3.534
 4208TIP3    H112577   1.236   5.184   3.536
 4208TIP3    H212578   1.116   5.100   3.569
 4209TIP3   OH212579   2.974   5.063   3.280
 4209TIP3    H112580   3.036   4.998   3.239
 4209TIP3    H212581   2.942   5.112   3.201
 4210TIP3   OH212582   2.402   4.902   2.039
 4210TIP3    H112583   2.448   4.882   2.123
 4210TIP3    H212584   2.339   4.826   2.035
 4211TIP3   OH212585   1.101   4.887   2.870
 4211TIP3    H112586   1.161   4.810   2.870
 4211TIP3    H212587   1.163   4.959   2.852
 4212TIP3   OH212588   0.899   5.157   2.930
 4212TIP3    H112589   0.948   5.150   2.846
 4212TIP3    H212590   0.931   5.241   2.963
 4213TIP3   OH212591   2.838   5.191   3.081
 4213TIP3    H112592   2.751   5.235   3.086
 4213TIP3    H212593   2.812   5.113   3.027
 4214TIP3   OH212594   2.478   4.826   1.679
 4214TIP3    H112595   2.515   4.760   1.616
 4214TIP3    H212596   2.542   4.899   1.672
 4215TIP3   OH212597   0.889   4.660   2.436
 4215TIP3    H112598   0.796   4.652   2.463
 4215TIP3    H212599   0.882   4.718   2.357
 4216TIP3   OH212600   2.051   6.368   1.943
 4216TIP3    H112601   2.098   6.354   1.858
 4216TIP3    H212602   2.104   6.437   1.984
 4217TIP3   OH212603   1.110   4.745   3.250
 4217TIP3    H112604   1.054   4.737   3.329
 4217TIP3    H212605   1.045   4.780   3.185
 4218TIP3   OH212606   1.145   6.176   3.320
 4218TIP3    H112607   1.052   6.150   3.306
 4218TIP3    H212608   1.158   6.153   3.413
 4219TIP3   OH212609   1.330   6.211   2.873
 4219TIP3    H112610   1.283   6.287   2.833
 4219TIP3    H212611   1.415   6.221   2.826
 4220TIP3   OH212612   1.763   6.445   3.008
 4220TIP3    H112613   1.807   6.444   3.095
 4220TIP3    H212614   1.827   6.498   2.956
 4221TIP3   OH212615   1.942   6.603   2.873
 4221TIP3    H112616   2.009   6.554   2.824
 4221TIP3    H212617   1.998   6.659   2.932
 4222TIP3   OH212618   2.744   4.954   2.969
 4222TIP3    H112619   2.655   4.939   2.931
 4222TIP3    H212620   2.781   4.863   2.960
 4223TIP3   OH212621   1.001   6.458   2.898
 4223TIP3    H112622   0.909   6.487   2.876
 4223TIP3    H212623   1.015   6.508   2.979
 4224TIP3   OH212624   1.237   6.440   2.757
 4224TIP3    H112625   1.148   6.451   2.797
 4224TIP3    H212626   1.221   6.470   2.665
 4225TIP3   OH212627   1.661   6.460   2.556
 4225TIP3    H112628   1.596   6.475   2.485
 4225TIP3    H212629   1.672   6.551   2.592
 4226TIP3   OH212630   1.932   6.403   2.612
 4226TIP3    H112631   1.838   6.419   2.589
 4226TIP3    H212632   1.976   6.470   2.556
 4227TIP3   OH212633   2.138   6.594   2.516
 4227TIP3    H112634   2.122   6.678   2.468
 4227TIP3    H212635   2.164   6.534   2.442
 4228TIP3   OH212636   0.909   6.248   2.641
 4228TIP3    H112637   0.938   6.221   2.731
 4228TIP3    H212638   0.983   6.209   2.589
 4229TIP3   OH212639   1.108   6.127   2.505
 4229TIP3    H112640   1.125   6.041   2.551
 4229TIP3    H212641   1.200   6.160   2.496
 4230TIP3   OH212642   1.376   6.215   2.506
 4230TIP3    H112643   1.404   6.123   2.488
 4230TIP3    H212644   1.429   6.233   2.586
 4231TIP3   OH212645   1.957   4.876   2.602
 4231TIP3    H112646   1.910   4.802   2.644
 4231TIP3    H212647   2.025   4.831   2.548
 4232TIP3   OH212648   2.465   4.762   2.497
 4232TIP3    H112649   2.501   4.809   2.418
 4232TIP3    H212650   2.369   4.776   2.485
 4233TIP3   OH212651   2.563   4.848   2.258
 4233TIP3    H112652   2.637   4.797   2.218
 4233TIP3    H212653   2.597   4.940   2.243
 4234TIP3   OH212654   1.195   4.580   2.603
 4234TIP3    H112655   1.102   4.549   2.606
 4234TIP3    H212656   1.242   4.493   2.598
 4235TIP3   OH212657   0.991   4.455   2.255
 4235TIP3    H112658   1.020   4.509   2.179
 4235TIP3    H212659   0.964   4.524   2.319
 4236TIP3   OH212660   1.649   4.609   2.487
 4236TIP3    H112661   1.699   4.656   2.417
 4236TIP3    H212662   1.678   4.656   2.566
 4237TIP3   OH212663   2.183   4.763   2.466
 4237TIP3    H112664   2.184   4.721   2.379
 4237TIP3    H212665   2.174   4.684   2.525
 4238TIP3   OH212666   2.218   4.691   2.032
 4238TIP3    H112667   2.134   4.736   2.051
 4238TIP3    H212668   2.202   4.603   2.074
 4239TIP3   OH212669   0.701   6.041   2.029
 4239TIP3    H112670   0.621   6.001   1.990
 4239TIP3    H212671   0.693   6.131   1.991
 4240TIP3   OH212672   1.106   4.606   2.018
 4240TIP3    H112673   1.153   4.546   1.956
 4240TIP3    H212674   1.179   4.663   2.050
 4241TIP3   OH212675   1.609   4.791   2.113
 4241TIP3    H112676   1.672   4.745   2.171
 4241TIP3    H212677   1.630   4.884   2.136
 4242TIP3   OH212678   1.472   6.206   1.613
 4242TIP3    H112679   1.560   6.230   1.576
 4242TIP3    H212680   1.450   6.131   1.553
 4243TIP3   OH212681   2.195   6.333   1.709
 4243TIP3    H112682   2.189   6.235   1.699
 4243TIP3    H212683   2.147   6.362   1.629
 4244TIP3   OH212684   1.403   4.863   3.499
 4244TIP3    H112685   1.368   4.791   3.554
 4244TIP3    H212686   1.497   4.862   3.525
 4245TIP3   OH212687   1.658   4.861   3.610
 4245TIP3    H112688   1.741   4.837   3.565
 4245TIP3    H212689   1.649   4.789   3.676
 4246TIP3   OH212690   0.792   6.018   1.707
 4246TIP3    H112691   0.808   6.061   1.792
 4246TIP3    H212692   0.880   5.977   1.687
 4247TIP3   OH212693   2.484   4.929   3.399
 4247TIP3    H112694   2.501   4.895   3.489
 4247TIP3    H212695   2.573   4.922   3.358
 4248TIP3   OH212696   2.413   6.472   2.894
 4248TIP3    H112697   2.336   6.444   2.840
 4248TIP3    H212698   2.395   6.568   2.900
 4249TIP3   OH212699   3.684   5.849   1.655
 4249TIP3    H112700   3.651   5.938   1.632
 4249TIP3    H212701   3.612   5.795   1.618
 4250TIP3   OH212702   3.687   5.853   2.047
 4250TIP3    H112703   3.722   5.825   2.133
 4250TIP3    H212704   3.646   5.771   2.014
 4251TIP3   OH212705   2.981   5.740   2.407
 4251TIP3    H112706   3.011   5.670   2.469
 4251TIP3    H212707   3.065   5.784   2.386
 4252TIP3   OH212708   3.934   6.152   1.727
 4252TIP3    H112709   3.914   6.086   1.794
 4252TIP3    H212710   3.965   6.227   1.779
 4253TIP3   OH212711   2.962   6.157   2.129
 4253TIP3    H112712   2.952   6.059   2.128
 4253TIP3    H212713   3.058   6.164   2.113
 4254TIP3   OH212714   2.661   5.352   1.907
 4254TIP3    H112715   2.612   5.433   1.928
 4254TIP3    H212716   2.593   5.302   1.859
 4255TIP3   OH212717   2.719   5.643   2.098
 4255TIP3    H112718   2.770   5.563   2.125
 4255TIP3    H212719   2.771   5.676   2.024
 4256TIP3   OH212720   3.588   6.613   1.745
 4256TIP3    H112721   3.623   6.544   1.684
 4256TIP3    H212722   3.570   6.561   1.824
 4257TIP3   OH212723   3.480   6.076   2.090
 4257TIP3    H112724   3.522   6.000   2.046
 4257TIP3    H212725   3.562   6.124   2.116
 4258TIP3   OH212726   4.501   5.391   2.089
 4258TIP3    H112727   4.530   5.476   2.129
 4258TIP3    H212728   4.525   5.405   1.996
 4259TIP3   OH212729   3.894   5.571   2.116
 4259TIP3    H112730   3.937   5.485   2.136
 4259TIP3    H212731   3.862   5.554   2.026
 4260TIP3   OH212732   3.242   5.233   2.080
 4260TIP3    H112733   3.219   5.306   2.018
 4260TIP3    H212734   3.192   5.159   2.038
 4261TIP3   OH212735   3.934   5.329   1.703
 4261TIP3    H112736   4.006   5.316   1.769
 4261TIP3    H212737   3.986   5.362   1.627
 4262TIP3   OH212738   2.867   5.433   2.194
 4262TIP3    H112739   2.951   5.414   2.240
 4262TIP3    H212740   2.881   5.379   2.113
 4263TIP3   OH212741   3.303   5.632   1.996
 4263TIP3    H112742   3.399   5.609   2.003
 4263TIP3    H212743   3.266   5.549   1.959
 4264TIP3   OH212744   4.573   5.602   2.263
 4264TIP3    H112745   4.489   5.650   2.246
 4264TIP3    H212746   4.609   5.653   2.339
 4265TIP3   OH212747   3.231   5.219   2.521
 4265TIP3    H112748   3.173   5.255   2.450
 4265TIP3    H212749   3.175   5.237   2.599
 4266TIP3   OH212750   3.562   6.063   1.529
 4266TIP3    H112751   3.533   6.059   1.437
 4266TIP3    H212752   3.520   6.147   1.558
 4267TIP3   OH212753   3.337   5.995   2.307
 4267TIP3    H112754   3.279   6.066   2.341
 4267TIP3    H212755   3.381   6.039   2.231
 4268TIP3   OH212756   4.132   5.334   1.889
 4268TIP3    H112757   4.111   5.300   1.977
 4268TIP3    H212758   4.185   5.413   1.911
 4269TIP3   OH212759   3.106   5.331   2.300
 4269TIP3    H112760   3.167   5.404   2.324
 4269TIP3    H212761   3.155   5.292   2.224
 4270TIP3   OH212762   3.171   6.194   2.412
 4270TIP3    H112763   3.144   6.280   2.374
 4270TIP3    H212764   3.090   6.175   2.465
 4271TIP3   OH212765   2.553   5.881   1.646
 4271TIP3    H112766   2.513   5.904   1.560
 4271TIP3    H212767   2.584   5.968   1.677
 4272TIP3   OH212768   3.995   6.399   1.886
 4272TIP3    H112769   3.905   6.390   1.924
 4272TIP3    H212770   3.987   6.484   1.839
 4273TIP3   OH212771   4.292   5.285   2.249
 4273TIP3    H112772   4.207   5.317   2.217
 4273TIP3    H212773   4.355   5.322   2.184
 4274TIP3   OH212774   3.583   4.930   2.245
 4274TIP3    H112775   3.560   4.835   2.256
 4274TIP3    H212776   3.504   4.971   2.288
 4275TIP3   OH212777   3.691   6.441   1.553
 4275TIP3    H112778   3.740   6.357   1.537
 4275TIP3    H212779   3.756   6.505   1.517
 4276TIP3   OH212780   3.834   6.223   1.478
 4276TIP3    H112781   3.819   6.142   1.427
 4276TIP3    H212782   3.875   6.188   1.560
 4277TIP3   OH212783   4.216   6.303   2.230
 4277TIP3    H112784   4.205   6.227   2.169
 4277TIP3    H212785   4.200   6.379   2.169
 4278TIP3   OH212786   3.517   5.701   1.494
 4278TIP3    H112787   3.437   5.755   1.475
 4278TIP3    H212788   3.560   5.697   1.407
 4279TIP3   OH212789   3.474   5.489   1.200
 4279TIP3    H112790   3.540   5.543   1.246
 4279TIP3    H212791   3.532   5.426   1.153
 4280TIP3   OH212792   4.415   5.944   2.080
 4280TIP3    H112793   4.332   5.995   2.081
 4280TIP3    H212794   4.449   5.969   1.991
 4281TIP3   OH212795   3.863   5.784   1.458
 4281TIP3    H112796   3.809   5.808   1.537
 4281TIP3    H212797   3.948   5.761   1.500
 4282TIP3   OH212798   4.096   5.816   2.382
 4282TIP3    H112799   4.095   5.902   2.430
 4282TIP3    H212800   4.011   5.821   2.335
 4283TIP3   OH212801   3.093   5.777   1.881
 4283TIP3    H112802   3.051   5.720   1.813
 4283TIP3    H212803   3.169   5.723   1.910
 4284TIP3   OH212804   3.222   6.190   2.024
 4284TIP3    H112805   3.202   6.165   1.932
 4284TIP3    H212806   3.310   6.150   2.038
 4285TIP3   OH212807   3.226   5.750   2.237
 4285TIP3    H112808   3.258   5.722   2.149
 4285TIP3    H212809   3.272   5.837   2.249
 4286TIP3   OH212810   3.756   6.392   2.011
 4286TIP3    H112811   3.743   6.470   2.067
 4286TIP3    H212812   3.739   6.317   2.072
 4287TIP3   OH212813   3.369   6.308   2.561
 4287TIP3    H112814   3.304   6.369   2.602
 4287TIP3    H212815   3.309   6.254   2.506
 4288TIP3   OH212816   3.698   5.642   1.287
 4288TIP3    H112817   3.759   5.703   1.335
 4288TIP3    H212818   3.725   5.660   1.193
 4289TIP3   OH212819   3.128   5.855   2.673
 4289TIP3    H112820   3.130   5.947   2.706
 4289TIP3    H212821   3.032   5.837   2.678
 4290TIP3   OH212822   3.450   6.315   1.566
 4290TIP3    H112823   3.534   6.365   1.564
 4290TIP3    H212824   3.391   6.373   1.516
 4291TIP3   OH212825   3.163   6.473   2.647
 4291TIP3    H112826   3.130   6.479   2.554
 4291TIP3    H212827   3.081   6.449   2.696
 4292TIP3   OH212828   4.220   4.878   1.342
 4292TIP3    H112829   4.137   4.904   1.386
 4292TIP3    H212830   4.238   4.958   1.287
 4293TIP3   OH212831   2.960   5.623   1.685
 4293TIP3    H112832   2.891   5.669   1.631
 4293TIP3    H212833   2.924   5.534   1.689
 4294TIP3   OH212834   4.019   6.243   0.893
 4294TIP3    H112835   4.028   6.338   0.872
 4294TIP3    H212836   4.111   6.213   0.878
 4295TIP3   OH212837   2.742   6.009   2.591
 4295TIP3    H112838   2.672   5.993   2.524
 4295TIP3    H212839   2.779   5.919   2.605
 4296TIP3   OH212840   2.596   6.198   2.225
 4296TIP3    H112841   2.692   6.197   2.213
 4296TIP3    H212842   2.583   6.279   2.276
 4297TIP3   OH212843   4.457   6.652   2.284
 4297TIP3    H112844   4.457   6.556   2.299
 4297TIP3    H212845   4.374   6.677   2.329
 4298TIP3   OH212846   3.567   6.433   2.421
 4298TIP3    H112847   3.561   6.525   2.452
 4298TIP3    H212848   3.493   6.392   2.470
 4299TIP3   OH212849   3.335   6.561   1.369
 4299TIP3    H112850   3.285   6.544   1.286
 4299TIP3    H212851   3.299   6.647   1.397
 4300TIP3   OH212852   2.767   6.410   1.753
 4300TIP3    H112853   2.811   6.401   1.840
 4300TIP3    H212854   2.721   6.325   1.745
 4301TIP3   OH212855   3.529   6.466   1.005
 4301TIP3    H112856   3.587   6.395   0.969
 4301TIP3    H212857   3.566   6.478   1.095
 4302TIP3   OH212858   3.584   6.518   1.272
 4302TIP3    H112859   3.496   6.526   1.313
 4302TIP3    H212860   3.635   6.479   1.345
 4303TIP3   OH212861   4.342   5.775   2.562
 4303TIP3    H112862   4.263   5.783   2.506
 4303TIP3    H212863   4.362   5.679   2.555
 4304TIP3   OH212864   2.947   6.190   2.573
 4304TIP3    H112865   2.994   6.172   2.656
 4304TIP3    H212866   2.872   6.128   2.579
 4305TIP3   OH212867   3.345   5.012   2.368
 4305TIP3    H112868   3.258   4.981   2.336
 4305TIP3    H212869   3.317   5.091   2.417
 4306TIP3   OH212870   3.883   5.122   2.559
 4306TIP3    H112871   3.951   5.097   2.625
 4306TIP3    H212872   3.799   5.106   2.607
 4307TIP3   OH212873   4.111   5.552   2.473
 4307TIP3    H112874   4.062   5.554   2.559
 4307TIP3    H212875   4.094   5.641   2.437
 4308TIP3   OH212876   3.779   5.678   1.032
 4308TIP3    H112877   3.742   5.660   0.944
 4308TIP3    H212878   3.865   5.718   1.008
 4309TIP3   OH212879   3.491   5.055   1.337
 4309TIP3    H112880   3.451   5.052   1.427
 4309TIP3    H212881   3.449   4.976   1.298
 4310TIP3   OH212882   3.280   5.528   2.384
 4310TIP3    H112883   3.227   5.547   2.465
 4310TIP3    H212884   3.263   5.610   2.332
 4311TIP3   OH212885   3.162   5.415   1.897
 4311TIP3    H112886   3.069   5.390   1.915
 4311TIP3    H212887   3.173   5.375   1.808
 4312TIP3   OH212888   3.652   5.499   1.629
 4312TIP3    H112889   3.603   5.571   1.583
 4312TIP3    H212890   3.708   5.464   1.557
 4313TIP3   OH212891   3.827   5.774   2.710
 4313TIP3    H112892   3.804   5.701   2.772
 4313TIP3    H212893   3.921   5.785   2.730
 4314TIP3   OH212894   3.805   5.524   1.861
 4314TIP3    H112895   3.742   5.551   1.791
 4314TIP3    H212896   3.844   5.447   1.815
 4315TIP3   OH212897   3.100   5.556   2.590
 4315TIP3    H112898   3.124   5.621   2.658
 4315TIP3    H212899   3.086   5.474   2.642
 4316TIP3   OH212900   3.151   5.038   1.302
 4316TIP3    H112901   3.135   5.036   1.398
 4316TIP3    H212902   3.073   5.089   1.272
 4317TIP3   OH212903   2.689   5.073   2.180
 4317TIP3    H112904   2.766   5.108   2.228
 4317TIP3    H212905   2.724   5.048   2.093
 4318TIP3   OH212906   2.649   5.057   1.692
 4318TIP3    H112907   2.693   5.093   1.612
 4318TIP3    H212908   2.587   5.131   1.710
 4319TIP3   OH212909   3.818   5.768   2.282
 4319TIP3    H112910   3.851   5.698   2.222
 4319TIP3    H212911   3.786   5.713   2.357
 4320TIP3   OH212912   3.499   5.228   1.956
 4320TIP3    H112913   3.415   5.231   2.007
 4320TIP3    H212914   3.565   5.232   2.027
 4321TIP3   OH212915   2.922   5.295   1.963
 4321TIP3    H112916   2.828   5.304   1.934
 4321TIP3    H212917   2.943   5.203   1.939
 4322TIP3   OH212918   3.185   5.288   1.657
 4322TIP3    H112919   3.278   5.302   1.630
 4322TIP3    H212920   3.136   5.309   1.574
 4323TIP3   OH212921   3.979   5.310   2.162
 4323TIP3    H112922   3.949   5.327   2.255
 4323TIP3    H212923   3.908   5.252   2.131
 4324TIP3   OH212924   3.042   5.324   1.430
 4324TIP3    H112925   2.974   5.276   1.380
 4324TIP3    H212926   3.095   5.362   1.357
 4325TIP3   OH212927   4.156   7.003   2.382
 4325TIP3    H112928   4.154   7.026   2.287
 4325TIP3    H212929   4.239   7.047   2.410
 4326TIP3   OH212930   3.109   6.111   2.799
 4326TIP3    H112931   3.187   6.142   2.848
 4326TIP3    H212932   3.042   6.110   2.871
 4327TIP3   OH212933   3.570   5.565   2.053
 4327TIP3    H112934   3.647   5.531   2.004
 4327TIP3    H212935   3.577   5.519   2.138
 4328TIP3   OH212936   3.090   5.049   1.941
 4328TIP3    H112937   3.052   4.974   1.991
 4328TIP3    H212938   3.118   5.005   1.859
 4329TIP3   OH212939   3.547   5.465   2.345
 4329TIP3    H112940   3.456   5.499   2.358
 4329TIP3    H212941   3.602   5.529   2.394
 4330TIP3   OH212942   3.284   5.850   1.441
 4330TIP3    H112943   3.212   5.785   1.427
 4330TIP3    H212944   3.262   5.885   1.530
 4331TIP3   OH212945   4.181   6.088   2.062
 4331TIP3    H112946   4.207   6.139   1.982
 4331TIP3    H212947   4.097   6.045   2.033
 4332TIP3   OH212948   3.742   5.155   1.321
 4332TIP3    H112949   3.646   5.135   1.321
 4332TIP3    H212950   3.746   5.251   1.335
 4333TIP3   OH212951   3.677   6.168   2.437
 4333TIP3    H112952   3.714   6.155   2.525
 4333TIP3    H212953   3.644   6.260   2.440
 4334TIP3   OH212954   3.807   5.415   1.413
 4334TIP3    H112955   3.904   5.422   1.422
 4334TIP3    H212956   3.786   5.494   1.358
 4335TIP3   OH212957   2.981   5.881   2.111
 4335TIP3    H112958   3.016   5.852   2.025
 4335TIP3    H212959   3.023   5.818   2.172
 4336TIP3   OH212960   3.431   6.002   1.267
 4336TIP3    H112961   3.381   6.087   1.268
 4336TIP3    H212962   3.377   5.947   1.328
 4337TIP3   OH212963   2.862   5.789   2.727
 4337TIP3    H112964   2.869   5.772   2.823
 4337TIP3    H212965   2.788   5.731   2.703
 4338TIP3   OH212966   3.587   5.915   2.748
 4338TIP3    H112967   3.523   5.856   2.705
 4338TIP3    H212968   3.672   5.875   2.717
 4339TIP3   OH212969   3.841   6.433   2.345
 4339TIP3    H112970   3.744   6.430   2.354
 4339TIP3    H212971   3.864   6.489   2.421
 4340TIP3   OH212972   4.247   5.510   1.243
 4340TIP3    H112973   4.186   5.466   1.178
 4340TIP3    H212974   4.244   5.600   1.201
 4341TIP3   OH212975   4.466   6.360   2.319
 4341TIP3    H112976   4.369   6.354   2.308
 4341TIP3    H212977   4.496   6.332   2.230
 4342TIP3   OH212978   3.956   6.322   1.153
 4342TIP3    H112979   3.927   6.247   1.206
 4342TIP3    H212980   3.972   6.282   1.065
 4343TIP3   OH212981   3.948   5.953   1.979
 4343TIP3    H112982   3.854   5.928   1.993
 4343TIP3    H212983   3.981   5.872   1.936
 4344TIP3   OH212984   3.083   6.185   1.748
 4344TIP3    H112985   3.078   6.264   1.690
 4344TIP3    H212986   2.990   6.159   1.751
 4345TIP3   OH212987   2.648   5.482   1.452
 4345TIP3    H112988   2.689   5.568   1.472
 4345TIP3    H212989   2.569   5.485   1.510
 4346TIP3   OH212990   3.204   5.942   1.682
 4346TIP3    H112991   3.176   6.033   1.703
 4346TIP3    H212992   3.169   5.892   1.757
 4347TIP3   OH212993   3.350   6.522   2.206
 4347TIP3    H112994   3.390   6.595   2.154
 4347TIP3    H212995   3.430   6.481   2.244
 4348TIP3   OH212996   2.997   6.418   1.594
 4348TIP3    H112997   2.911   6.429   1.639
 4348TIP3    H212998   3.031   6.510   1.595
 4349TIP3   OH212999   3.731   6.160   2.168
 4349TIP3    H113000   3.722   6.154   2.266
 4349TIP3    H213001   3.808   6.103   2.153
 4350TIP3   OH213002   3.716   6.055   1.056
 4350TIP3    H113003   3.768   6.030   1.135
 4350TIP3    H213004   3.628   6.023   1.080
 4351TIP3   OH213005   3.980   6.690   2.217
 4351TIP3    H113006   3.898   6.638   2.207
 4351TIP3    H213007   3.969   6.755   2.144
 4352TIP3   OH213008   4.047   6.515   0.872
 4352TIP3    H113009   4.080   6.570   0.800
 4352TIP3    H213010   3.973   6.570   0.904
 4353TIP3   OH213011   3.063   5.301   2.730
 4353TIP3    H113012   2.965   5.303   2.738
 4353TIP3    H213013   3.087   5.243   2.804
 4354TIP3   OH213014   3.876   5.991   1.273
 4354TIP3    H113015   3.865   5.919   1.339
 4354TIP3    H213016   3.972   5.983   1.255
 4355TIP3   OH213017   2.788   6.383   2.364
 4355TIP3    H113018   2.842   6.312   2.401
 4355TIP3    H213019   2.816   6.459   2.416
 4356TIP3   OH213020   3.075   6.030   1.053
 4356TIP3    H113021   3.085   5.936   1.027
 4356TIP3    H213022   3.052   6.021   1.147
 4357TIP3   OH213023   3.017   6.035   1.324
 4357TIP3    H113024   3.096   6.010   1.374
 4357TIP3    H213025   3.020   6.133   1.332
 4358TIP3   OH213026   2.752   5.728   1.531
 4358TIP3    H113027   2.684   5.773   1.584
 4358TIP3    H213028   2.764   5.794   1.460
 4359TIP3   OH213029   3.908   5.365   2.423
 4359TIP3    H113030   3.991   5.406   2.454
 4359TIP3    H213031   3.901   5.284   2.477
 4360TIP3   OH213032   3.792   5.108   1.595
 4360TIP3    H113033   3.773   5.126   1.500
 4360TIP3    H213034   3.830   5.194   1.624
 4361TIP3   OH213035   3.289   6.231   1.273
 4361TIP3    H113036   3.201   6.254   1.309
 4361TIP3    H213037   3.302   6.305   1.212
 4362TIP3   OH213038   3.474   5.296   1.689
 4362TIP3    H113039   3.536   5.370   1.670
 4362TIP3    H213040   3.480   5.290   1.786
 4363TIP3   OH213041   3.745   5.608   2.491
 4363TIP3    H113042   3.774   5.658   2.570
 4363TIP3    H213043   3.797   5.526   2.496
 4364TIP3   OH213044   3.613   5.014   1.788
 4364TIP3    H113045   3.591   5.097   1.836
 4364TIP3    H213046   3.678   5.047   1.722
 4365TIP3   OH213047   3.036   6.306   1.345
 4365TIP3    H113048   3.007   6.377   1.283
 4365TIP3    H213049   3.019   6.349   1.432
 4366TIP3   OH213050   3.129   5.023   1.580
 4366TIP3    H113051   3.127   5.114   1.616
 4366TIP3    H213052   3.226   5.007   1.584
 4367TIP3   OH213053   4.379   5.511   2.484
 4367TIP3    H113054   4.281   5.505   2.480
 4367TIP3    H213055   4.404   5.488   2.394
 4368TIP3   OH213056   4.034   5.706   1.864
 4368TIP3    H113057   3.958   5.647   1.874
 4368TIP3    H213058   4.105   5.658   1.912
 4369TIP3   OH213059   2.752   5.927   1.331
 4369TIP3    H113060   2.825   5.991   1.338
 4369TIP3    H213061   2.791   5.867   1.264
 4370TIP3   OH213062   2.687   5.210   1.469
 4370TIP3    H113063   2.690   5.307   1.468
 4370TIP3    H213064   2.614   5.192   1.409
 4371TIP3   OH213065   4.005   6.669   1.810
 4371TIP3    H113066   3.962   6.718   1.735
 4371TIP3    H213067   4.099   6.688   1.789
 4372TIP3   OH213068   3.082   4.931   2.334
 4372TIP3    H113069   3.051   4.897   2.247
 4372TIP3    H213070   3.069   4.853   2.391
 4373TIP3   OH213071   2.613   6.152   1.711
 4373TIP3    H113072   2.554   6.180   1.783
 4373TIP3    H213073   2.572   6.198   1.634
 4374TIP3   OH213074   2.781   6.703   2.789
 4374TIP3    H113075   2.867   6.702   2.836
 4374TIP3    H213076   2.759   6.608   2.788
 4375TIP3   OH213077   3.253   6.644   2.844
 4375TIP3    H113078   3.348   6.635   2.832
 4375TIP3    H213079   3.220   6.586   2.771
 4376TIP3   OH213080   3.238   6.231   0.959
 4376TIP3    H113081   3.184   6.158   0.997
 4376TIP3    H213082   3.314   6.181   0.924
 4377TIP3   OH213083   3.884   6.570   2.594
 4377TIP3    H113084   3.897   6.497   2.658
 4377TIP3    H213085   3.967   6.621   2.603
 4378TIP3   OH213086   3.672   6.268   0.878
 4378TIP3    H113087   3.713   6.203   0.939
 4378TIP3    H213088   3.730   6.263   0.799
 4379TIP3   OH213089   2.906   6.101   2.990
 4379TIP3    H113090   2.921   6.004   2.995
 4379TIP3    H213091   2.819   6.105   2.943
 4380TIP3   OH213092   2.887   5.743   1.189
 4380TIP3    H113093   2.946   5.717   1.261
 4380TIP3    H213094   2.951   5.750   1.115
 4381TIP3   OH213095   3.512   6.188   2.763
 4381TIP3    H113096   3.469   6.209   2.677
 4381TIP3    H213097   3.543   6.096   2.749
 4382TIP3   OH213098   3.408   5.950   0.997
 4382TIP3    H113099   3.406   5.960   1.094
 4382TIP3    H213100   3.408   5.852   0.989
 4383TIP3   OH213101   4.005   6.205   2.377
 4383TIP3    H113102   4.083   6.241   2.330
 4383TIP3    H213103   3.939   6.274   2.357
 4384TIP3   OH213104   3.026   5.842   2.979
 4384TIP3    H113105   3.103   5.801   2.939
 4384TIP3    H213106   3.060   5.872   3.066
 4385TIP3   OH213107   3.089   5.657   1.403
 4385TIP3    H113108   3.061   5.613   1.485
 4385TIP3    H213109   3.129   5.582   1.353
 4386TIP3   OH213110   3.367   5.722   2.640
 4386TIP3    H113111   3.286   5.777   2.638
 4386TIP3    H213112   3.416   5.757   2.561
 4387TIP3   OH213113   3.197   5.454   1.245
 4387TIP3    H113114   3.172   5.463   1.151
 4387TIP3    H213115   3.295   5.453   1.237
 4388TIP3   OH213116   3.891   6.117   2.761
 4388TIP3    H113117   3.957   6.074   2.706
 4388TIP3    H213118   3.879   6.052   2.833
 4389TIP3   OH213119   4.010   5.774   0.919
 4389TIP3    H113120   3.994   5.733   0.832
 4389TIP3    H213121   3.977   5.865   0.898
 4390TIP3   OH213122   3.488   5.510   2.757
 4390TIP3    H113123   3.487   5.433   2.697
 4390TIP3    H213124   3.444   5.579   2.702
 4391TIP3   OH213125   3.489   5.296   2.571
 4391TIP3    H113126   3.518   5.338   2.487
 4391TIP3    H213127   3.396   5.273   2.551
 4392TIP3   OH213128   3.510   5.832   2.444
 4392TIP3    H113129   3.596   5.846   2.403
 4392TIP3    H213130   3.453   5.894   2.394
 4393TIP3   OH213131   4.095   5.794   2.815
 4393TIP3    H113132   4.143   5.710   2.822
 4393TIP3    H213133   4.162   5.852   2.775
 4394TIP3   OH213134   4.131   6.053   2.561
 4394TIP3    H113135   4.076   6.109   2.501
 4394TIP3    H213136   4.220   6.072   2.523
 4395TIP3   OH213137   3.369   5.609   2.997
 4395TIP3    H113138   3.300   5.540   3.011
 4395TIP3    H213139   3.398   5.589   2.906
 4396TIP3   OH213140   3.620   5.056   2.641
 4396TIP3    H113141   3.570   5.137   2.616
 4396TIP3    H213142   3.551   4.987   2.629
 4397TIP3   OH213143   3.744   5.555   2.853
 4397TIP3    H113144   3.722   5.539   2.947
 4397TIP3    H213145   3.657   5.534   2.813
 4398TIP3   OH213146   3.984   5.515   2.709
 4398TIP3    H113147   3.909   5.514   2.772
 4398TIP3    H213148   4.059   5.485   2.765
 4399TIP3   OH213149   4.209   5.454   2.860
 4399TIP3    H113150   4.225   5.358   2.873
 4399TIP3    H213151   4.208   5.488   2.951
 4400TIP3   OH213152   3.203   5.392   3.052
 4400TIP3    H113153   3.203   5.300   3.018
 4400TIP3    H213154   3.242   5.379   3.140
 4401TIP3   OH213155   3.712   5.066   2.899
 4401TIP3    H113156   3.777   4.994   2.891
 4401TIP3    H213157   3.672   5.064   2.810
 4402TIP3   OH213158   3.780   5.278   3.059
 4402TIP3    H113159   3.759   5.208   2.993
 4402TIP3    H213160   3.702   5.337   3.050
 4403TIP3   OH213161   3.005   6.510   1.161
 4403TIP3    H113162   3.099   6.500   1.137
 4403TIP3    H213163   2.974   6.564   1.086
 4404TIP3   OH213164   2.482   5.891   1.369
 4404TIP3    H113165   2.576   5.911   1.352
 4404TIP3    H213166   2.472   5.804   1.325
 4405TIP3   OH213167   2.400   6.504   1.786
 4405TIP3    H113168   2.334   6.444   1.744
 4405TIP3    H213169   2.443   6.442   1.848
 4406TIP3   OH213170   2.531   6.345   1.971
 4406TIP3    H113171   2.514   6.279   2.040
 4406TIP3    H213172   2.585   6.410   2.021
 4407TIP3   OH213173   4.262   6.753   1.775
 4407TIP3    H113174   4.293   6.787   1.861
 4407TIP3    H213175   4.330   6.787   1.714
 4408TIP3   OH213176   4.289   6.774   2.060
 4408TIP3    H113177   4.243   6.688   2.052
 4408TIP3    H213178   4.365   6.747   2.114
 4409TIP3   OH213179   4.337   6.454   2.625
 4409TIP3    H113180   4.269   6.467   2.694
 4409TIP3    H213181   4.386   6.539   2.629
 4410TIP3   OH213182   4.152   5.962   1.244
 4410TIP3    H113183   4.215   6.029   1.211
 4410TIP3    H213184   4.200   5.927   1.321
 4411TIP3   OH213185   4.282   5.829   1.449
 4411TIP3    H113186   4.213   5.790   1.507
 4411TIP3    H213187   4.347   5.865   1.513
 4412TIP3   OH213188   4.338   6.226   1.880
 4412TIP3    H113189   4.389   6.156   1.835
 4412TIP3    H213190   4.339   6.298   1.814
 4413TIP3   OH213191   4.160   6.526   2.073
 4413TIP3    H113192   4.086   6.566   2.122
 4413TIP3    H213193   4.114   6.481   1.999
 4414TIP3   OH213194   4.217   5.740   1.093
 4414TIP3    H113195   4.145   5.740   1.025
 4414TIP3    H213196   4.187   5.817   1.147
 4415TIP3   OH213197   4.084   5.411   1.050
 4415TIP3    H113198   4.046   5.447   0.969
 4415TIP3    H213199   4.063   5.316   1.039
 4416TIP3   OH213200   4.089   5.693   1.593
 4416TIP3    H113201   4.097   5.597   1.582
 4416TIP3    H213202   4.075   5.703   1.689
 4417TIP3   OH213203   2.715   5.756   2.348
 4417TIP3    H113204   2.711   5.723   2.256
 4417TIP3    H213205   2.813   5.760   2.361
 4418TIP3   OH213206   4.378   6.114   2.453
 4418TIP3    H113207   4.447   6.046   2.440
 4418TIP3    H213208   4.406   6.184   2.391
 4419TIP3   OH213209   4.556   5.909   2.454
 4419TIP3    H113210   4.484   5.860   2.499
 4419TIP3    H213211   4.632   5.850   2.473
 4420TIP3   OH213212   4.029   5.145   1.028
 4420TIP3    H113213   4.097   5.109   1.088
 4420TIP3    H213214   3.952   5.088   1.044
 4421TIP3   OH213215   4.091   5.410   1.484
 4421TIP3    H113216   4.133   5.322   1.497
 4421TIP3    H213217   4.146   5.444   1.411
 4422TIP3   OH213218   4.247   5.572   1.985
 4422TIP3    H113219   4.332   5.596   1.941
 4422TIP3    H213220   4.264   5.612   2.073
 4423TIP3   OH213221   4.323   5.723   2.214
 4423TIP3    H113222   4.245   5.759   2.261
 4423TIP3    H213223   4.356   5.803   2.167
 4424TIP3   OH213224   2.936   5.447   3.024
 4424TIP3    H113225   3.034   5.441   3.025
 4424TIP3    H213226   2.913   5.358   3.057
 4425TIP3   OH213227   4.768   5.315   2.770
 4425TIP3    H113228   4.832   5.253   2.728
 4425TIP3    H213229   4.737   5.366   2.692
 4426TIP3   OH213230   4.199   5.160   1.526
 4426TIP3    H113231   4.246   5.141   1.610
 4426TIP3    H213232   4.137   5.084   1.522
 4427TIP3   OH213233   2.899   5.141   2.351
 4427TIP3    H113234   2.960   5.065   2.354
 4427TIP3    H213235   2.962   5.215   2.337
 4428TIP3   OH213236   2.696   5.413   2.419
 4428TIP3    H113237   2.745   5.407   2.334
 4428TIP3    H213238   2.721   5.501   2.449
 4429TIP3   OH213239   4.635   5.447   2.574
 4429TIP3    H113240   4.551   5.494   2.591
 4429TIP3    H213241   4.602   5.375   2.517
 4430TIP3   OH213242   4.274   5.082   1.166
 4430TIP3    H113243   4.312   5.018   1.103
 4430TIP3    H213244   4.337   5.157   1.161
 4431TIP3   OH213245   2.685   4.922   1.924
 4431TIP3    H113246   2.591   4.910   1.949
 4431TIP3    H213247   2.676   4.978   1.844
 4432TIP3   OH213248   3.844   6.625   1.429
 4432TIP3    H113249   3.892   6.612   1.344
 4432TIP3    H213250   3.900   6.691   1.472
 4433TIP3   OH213251   2.906   4.999   2.736
 4433TIP3    H113252   2.851   4.992   2.815
 4433TIP3    H213253   2.842   5.036   2.672
 4434TIP3   OH213254   2.943   6.428   2.810
 4434TIP3    H113255   2.850   6.407   2.791
 4434TIP3    H213256   2.948   6.408   2.904
 4435TIP3   OH213257   3.128   6.468   2.362
 4435TIP3    H113258   3.078   6.542   2.322
 4435TIP3    H213259   3.212   6.481   2.313
 4436TIP3   OH213260   3.569   6.700   2.507
 4436TIP3    H113261   3.622   6.704   2.588
 4436TIP3    H213262   3.626   6.751   2.445
 4437TIP3   OH213263   3.739   6.857   2.361
 4437TIP3    H113264   3.805   6.811   2.306
 4437TIP3    H213265   3.797   6.913   2.417
 4438TIP3   OH213266   4.539   5.214   2.456
 4438TIP3    H113267   4.451   5.205   2.415
 4438TIP3    H213268   4.576   5.123   2.447
 4439TIP3   OH213269   2.797   6.716   2.386
 4439TIP3    H113270   2.706   6.744   2.360
 4439TIP3    H213271   2.808   6.767   2.467
 4440TIP3   OH213272   3.034   6.697   2.245
 4440TIP3    H113273   2.945   6.708   2.286
 4440TIP3    H213274   3.016   6.727   2.153
 4441TIP3   OH213275   3.457   6.717   2.043
 4441TIP3    H113276   3.389   6.731   1.973
 4441TIP3    H213277   3.467   6.809   2.077
 4442TIP3   OH213278   3.728   6.660   2.099
 4442TIP3    H113279   3.634   6.676   2.075
 4442TIP3    H213280   3.774   6.724   2.042
 4443TIP3   OH213281   3.932   6.850   2.002
 4443TIP3    H113282   3.918   6.934   1.954
 4443TIP3    H213283   3.960   6.791   1.929
 4444TIP3   OH213284   2.707   6.507   2.126
 4444TIP3    H113285   2.734   6.478   2.215
 4444TIP3    H213286   2.779   6.466   2.073
 4445TIP3   OH213287   2.904   6.382   1.990
 4445TIP3    H113288   2.920   6.299   2.040
 4445TIP3    H213289   2.996   6.417   1.983
 4446TIP3   OH213290   3.172   6.472   1.993
 4446TIP3    H113291   3.201   6.380   1.979
 4446TIP3    H213292   3.223   6.494   2.074
 4447TIP3   OH213293   3.751   5.135   2.091
 4447TIP3    H113294   3.704   5.062   2.133
 4447TIP3    H213295   3.816   5.090   2.034
 4448TIP3   OH213296   4.259   5.005   1.981
 4448TIP3    H113297   4.301   5.057   1.908
 4448TIP3    H213298   4.166   5.034   1.973
 4449TIP3   OH213299   4.359   5.103   1.746
 4449TIP3    H113300   4.432   5.052   1.706
 4449TIP3    H213301   4.393   5.195   1.732
 4450TIP3   OH213302   2.991   4.837   2.089
 4450TIP3    H113303   2.898   4.806   2.092
 4450TIP3    H213304   3.037   4.750   2.083
 4451TIP3   OH213305   2.792   4.713   1.745
 4451TIP3    H113306   2.816   4.766   1.667
 4451TIP3    H213307   2.761   4.781   1.808
 4452TIP3   OH213308   3.447   4.865   1.971
 4452TIP3    H113309   3.498   4.913   1.905
 4452TIP3    H213310   3.463   4.916   2.051
 4453TIP3   OH213311   3.974   5.020   1.947
 4453TIP3    H113312   3.973   4.997   1.853
 4453TIP3    H213313   3.952   4.933   1.989
 4454TIP3   OH213314   4.015   4.949   1.520
 4454TIP3    H113315   3.929   4.993   1.536
 4454TIP3    H213316   3.997   4.860   1.558
 4455TIP3   OH213317   2.495   6.289   1.511
 4455TIP3    H113318   2.409   6.255   1.481
 4455TIP3    H213319   2.488   6.381   1.478
 4456TIP3   OH213320   2.902   4.862   1.503
 4456TIP3    H113321   2.947   4.800   1.442
 4456TIP3    H213322   2.976   4.917   1.535
 4457TIP3   OH213323   3.405   5.047   1.600
 4457TIP3    H113324   3.466   4.998   1.657
 4457TIP3    H213325   3.429   5.139   1.625
 4458TIP3   OH213326   3.270   6.462   1.101
 4458TIP3    H113327   3.358   6.485   1.065
 4458TIP3    H213328   3.248   6.388   1.039
 4459TIP3   OH213329   3.988   6.590   1.196
 4459TIP3    H113330   3.983   6.492   1.185
 4459TIP3    H213331   3.944   6.620   1.114
 4460TIP3   OH213332   3.198   5.120   2.987
 4460TIP3    H113333   3.163   5.046   3.040
 4460TIP3    H213334   3.292   5.119   3.013
 4461TIP3   OH213335   3.452   5.119   3.101
 4461TIP3    H113336   3.534   5.091   3.059
 4461TIP3    H213337   3.438   5.048   3.168
 4462TIP3   OH213338   2.575   6.303   1.151
 4462TIP3    H113339   2.579   6.316   1.247
 4462TIP3    H213340   2.661   6.258   1.133
 4463TIP3   OH213341   4.283   5.184   2.890
 4463TIP3    H113342   4.307   5.152   2.979
 4463TIP3    H213343   4.369   5.181   2.844
 4464TIP3   OH213344   4.206   6.731   2.380
 4464TIP3    H113345   4.131   6.704   2.324
 4464TIP3    H213346   4.190   6.828   2.385
 4465TIP3   OH213347   5.477   6.107   1.147
 4465TIP3    H113348   5.448   6.197   1.122
 4465TIP3    H213349   5.403   6.055   1.110
 4466TIP3   OH213350   5.485   6.107   1.534
 4466TIP3    H113351   5.520   6.084   1.622
 4466TIP3    H213352   5.441   6.025   1.507
 4467TIP3   OH213353   4.775   5.995   1.897
 4467TIP3    H113354   4.806   5.926   1.958
 4467TIP3    H213355   4.856   6.047   1.885
 4468TIP3   OH213356   5.732   6.406   1.215
 4468TIP3    H113357   5.708   6.343   1.284
 4468TIP3    H213358   5.763   6.482   1.267
 4469TIP3   OH213359   4.754   6.410   1.613
 4469TIP3    H113360   4.746   6.313   1.613
 4469TIP3    H213361   4.851   6.420   1.603
 4470TIP3   OH213362   4.457   5.606   1.394
 4470TIP3    H113363   4.410   5.689   1.415
 4470TIP3    H213364   4.386   5.559   1.345
 4471TIP3   OH213365   4.514   5.898   1.583
 4471TIP3    H113366   4.565   5.820   1.612
 4471TIP3    H213367   4.573   5.940   1.520
 4472TIP3   OH213368   5.384   6.869   1.236
 4472TIP3    H113369   5.419   6.798   1.179
 4472TIP3    H213370   5.365   6.821   1.317
 4473TIP3   OH213371   5.276   6.333   1.576
 4473TIP3    H113372   5.318   6.258   1.531
 4473TIP3    H213373   5.358   6.380   1.604
 4474TIP3   OH213374   6.297   5.654   1.578
 4474TIP3    H113375   6.327   5.733   1.628
 4474TIP3    H213376   6.307   5.685   1.487
 4475TIP3   OH213377   5.693   5.829   1.602
 4475TIP3    H113378   5.733   5.743   1.624
 4475TIP3    H213379   5.657   5.811   1.513
 4476TIP3   OH213380   5.037   5.490   1.568
 4476TIP3    H113381   5.016   5.563   1.506
 4476TIP3    H213382   4.987   5.417   1.526
 4477TIP3   OH213383   5.729   5.583   1.193
 4477TIP3    H113384   5.801   5.569   1.260
 4477TIP3    H213385   5.782   5.618   1.119
 4478TIP3   OH213386   4.663   5.690   1.681
 4478TIP3    H113387   4.747   5.673   1.728
 4478TIP3    H213388   4.678   5.637   1.600
 4479TIP3   OH213389   5.101   5.889   1.480
 4479TIP3    H113390   5.196   5.866   1.489
 4479TIP3    H213391   5.064   5.806   1.445
 4480TIP3   OH213392   6.367   5.860   1.748
 4480TIP3    H113393   6.281   5.906   1.736
 4480TIP3    H213394   6.402   5.906   1.827
 4481TIP3   OH213395   5.026   5.474   2.006
 4481TIP3    H113396   4.969   5.512   1.937
 4481TIP3    H213397   4.972   5.493   2.086
 4482TIP3   OH213398   5.375   6.328   1.025
 4482TIP3    H113399   5.341   6.309   0.935
 4482TIP3    H213400   5.320   6.406   1.048
 4483TIP3   OH213401   5.132   6.251   1.794
 4483TIP3    H113402   5.075   6.323   1.830
 4483TIP3    H213403   5.177   6.296   1.719
 4484TIP3   OH213404   5.929   5.591   1.378
 4484TIP3    H113405   5.897   5.557   1.463
 4484TIP3    H213406   5.977   5.672   1.406
 4485TIP3   OH213407   4.900   5.588   1.787
 4485TIP3    H113408   4.961   5.662   1.812
 4485TIP3    H213409   4.951   5.549   1.712
 4486TIP3   OH213410   4.965   6.451   1.899
 4486TIP3    H113411   4.938   6.538   1.863
 4486TIP3    H213412   4.886   6.432   1.954
 4487TIP3   OH213413   4.347   6.137   1.134
 4487TIP3    H113414   4.310   6.158   1.047
 4487TIP3    H213415   4.380   6.224   1.163
 4488TIP3   OH213416   5.791   6.657   1.374
 4488TIP3    H113417   5.702   6.646   1.413
 4488TIP3    H213418   5.780   6.741   1.325
 4489TIP3   OH213419   6.089   5.543   1.736
 4489TIP3    H113420   6.002   5.573   1.705
 4489TIP3    H213421   6.150   5.580   1.669
 4490TIP3   OH213422   5.375   5.188   1.723
 4490TIP3    H113423   5.359   5.093   1.743
 4490TIP3    H213424   5.300   5.228   1.771
 4491TIP3   OH213425   5.488   6.695   1.047
 4491TIP3    H113426   5.534   6.609   1.032
 4491TIP3    H213427   5.558   6.755   1.012
 4492TIP3   OH213428   5.633   6.480   0.969
 4492TIP3    H113429   5.594   6.403   0.926
 4492TIP3    H213430   5.673   6.442   1.050
 4493TIP3   OH213431   6.015   6.560   1.718
 4493TIP3    H113432   6.004   6.483   1.658
 4493TIP3    H213433   5.999   6.635   1.657
 4494TIP3   OH213434   5.306   5.959   0.990
 4494TIP3    H113435   5.225   6.013   0.975
 4494TIP3    H213436   5.336   5.948   0.898
 4495TIP3   OH213437   5.263   5.740   0.730
 4495TIP3    H113438   5.342   5.788   0.760
 4495TIP3    H213439   5.301   5.691   0.656
 4496TIP3   OH213440   6.202   6.182   1.550
 4496TIP3    H113441   6.124   6.242   1.559
 4496TIP3    H213442   6.244   6.221   1.470
 4497TIP3   OH213443   5.655   6.013   0.967
 4497TIP3    H113444   5.603   6.046   1.044
 4497TIP3    H213445   5.744   6.002   1.008
 4498TIP3   OH213446   5.892   6.074   1.869
 4498TIP3    H113447   5.893   6.158   1.920
 4498TIP3    H213448   5.807   6.081   1.823
 4499TIP3   OH213449   4.889   6.033   1.368
 4499TIP3    H113450   4.849   5.975   1.300
 4499TIP3    H213451   4.966   5.980   1.398
 4500TIP3   OH213452   5.019   6.449   1.511
 4500TIP3    H113453   5.001   6.421   1.419
 4500TIP3    H213454   5.107   6.409   1.527
 4501TIP3   OH213455   5.021   6.008   1.721
 4501TIP3    H113456   5.056   5.980   1.633
 4501TIP3    H213457   5.068   6.093   1.736
 4502TIP3   OH213458   5.553   6.646   1.499
 4502TIP3    H113459   5.540   6.725   1.554
 4502TIP3    H213460   5.535   6.573   1.561
 4503TIP3   OH213461   5.169   6.563   2.047
 4503TIP3    H113462   5.106   6.623   2.093
 4503TIP3    H213463   5.105   6.510   1.994
 4504TIP3   OH213464   5.491   5.909   0.775
 4504TIP3    H113465   5.552   5.949   0.841
 4504TIP3    H213466   5.473   5.986   0.718
 4505TIP3   OH213467   4.925   6.114   2.157
 4505TIP3    H113468   4.930   6.205   2.194
 4505TIP3    H213469   4.830   6.097   2.167
 4506TIP3   OH213470   5.243   6.571   1.060
 4506TIP3    H113471   5.328   6.619   1.059
 4506TIP3    H213472   5.185   6.626   1.007
 4507TIP3   OH213473   4.959   6.727   2.131
 4507TIP3    H113474   4.925   6.732   2.040
 4507TIP3    H213475   4.878   6.709   2.183
 4508TIP3   OH213476   6.009   5.134   0.824
 4508TIP3    H113477   5.929   5.153   0.877
 4508TIP3    H213478   6.038   5.223   0.797
 4509TIP3   OH213479   4.758   5.879   1.167
 4509TIP3    H113480   4.688   5.926   1.117
 4509TIP3    H213481   4.720   5.791   1.175
 4510TIP3   OH213482   4.538   6.263   2.078
 4510TIP3    H113483   4.472   6.242   2.009
 4510TIP3    H213484   4.578   6.176   2.097
 4511TIP3   OH213485   4.395   6.454   1.712
 4511TIP3    H113486   4.491   6.448   1.698
 4511TIP3    H213487   4.389   6.532   1.768
 4512TIP3   OH213488   6.233   6.888   1.767
 4512TIP3    H113489   6.237   6.792   1.787
 4512TIP3    H213490   6.149   6.912   1.813
 4513TIP3   OH213491   5.360   6.692   1.901
 4513TIP3    H113492   5.356   6.784   1.934
 4513TIP3    H213493   5.290   6.650   1.956
 4514TIP3   OH213494   5.107   6.823   0.878
 4514TIP3    H113495   5.046   6.799   0.807
 4514TIP3    H213496   5.083   6.915   0.896
 4515TIP3   OH213497   4.563   6.668   1.240
 4515TIP3    H113498   4.607   6.658   1.327
 4515TIP3    H213499   4.517   6.583   1.232
 4516TIP3   OH213500   5.366   6.771   0.800
 4516TIP3    H113501   5.274   6.786   0.829
 4516TIP3    H213502   5.406   6.729   0.877
 4517TIP3   OH213503   6.137   6.029   2.051
 4517TIP3    H113504   6.056   6.040   1.998
 4517TIP3    H213505   6.155   5.933   2.040
 4518TIP3   OH213506   4.743   6.446   2.061
 4518TIP3    H113507   4.793   6.428   2.144
 4518TIP3    H213508   4.668   6.384   2.070
 4519TIP3   OH213509   5.141   5.268   1.856
 4519TIP3    H113510   5.053   5.239   1.823
 4519TIP3    H213511   5.114   5.348   1.905
 4520TIP3   OH213512   5.679   5.381   2.048
 4520TIP3    H113513   5.749   5.354   2.111
 4520TIP3    H213514   5.597   5.363   2.097
 4521TIP3   OH213515   5.908   5.811   1.962
 4521TIP3    H113516   5.859   5.811   2.047
 4521TIP3    H213517   5.888   5.900   1.927
 4522TIP3   OH213518   5.290   5.308   0.826
 4522TIP3    H113519   5.250   5.306   0.916
 4522TIP3    H213520   5.246   5.230   0.787
 4523TIP3   OH213521   5.074   5.786   1.869
 4523TIP3    H113522   5.025   5.807   1.952
 4523TIP3    H213523   5.057   5.868   1.817
 4524TIP3   OH213524   4.958   5.672   1.384
 4524TIP3    H113525   4.865   5.647   1.402
 4524TIP3    H213526   4.970   5.630   1.295
 4525TIP3   OH213527   5.448   5.755   1.115
 4525TIP3    H113528   5.397   5.828   1.073
 4525TIP3    H213529   5.502   5.723   1.041
 4526TIP3   OH213530   5.623   6.027   2.193
 4526TIP3    H113531   5.600   5.956   2.257
 4526TIP3    H213532   5.716   6.044   2.217
 4527TIP3   OH213533   5.601   5.781   1.348
 4527TIP3    H113534   5.537   5.808   1.280
 4527TIP3    H213535   5.639   5.703   1.302
 4528TIP3   OH213536   4.894   5.814   2.078
 4528TIP3    H113537   4.929   5.878   2.142
 4528TIP3    H213538   4.885   5.733   2.132
 4529TIP3   OH213539   4.946   5.291   0.791
 4529TIP3    H113540   4.933   5.290   0.887
 4529TIP3    H213541   4.869   5.345   0.763
 4530TIP3   OH213542   4.486   5.327   1.667
 4530TIP3    H113543   4.560   5.365   1.718
 4530TIP3    H213544   4.524   5.308   1.581
 4531TIP3   OH213545   4.443   5.314   1.179
 4531TIP3    H113546   4.486   5.349   1.098
 4531TIP3    H213547   4.383   5.388   1.197
 4532TIP3   OH213548   5.613   6.025   1.768
 4532TIP3    H113549   5.648   5.955   1.709
 4532TIP3    H213550   5.582   5.970   1.843
 4533TIP3   OH213551   5.295   5.486   1.442
 4533TIP3    H113552   5.213   5.488   1.496
 4533TIP3    H213553   5.364   5.484   1.511
 4534TIP3   OH213554   4.718   5.552   1.450
 4534TIP3    H113555   4.625   5.559   1.420
 4534TIP3    H213556   4.742   5.460   1.426
 4535TIP3   OH213557   4.984   5.542   1.146
 4535TIP3    H113558   5.075   5.560   1.118
 4535TIP3    H213559   4.931   5.563   1.065
 4536TIP3   OH213560   5.776   5.567   1.642
 4536TIP3    H113561   5.751   5.581   1.736
 4536TIP3    H213562   5.704   5.508   1.614
 4537TIP3   OH213563   4.829   5.571   0.928
 4537TIP3    H113564   4.765   5.527   0.869
 4537TIP3    H213565   4.886   5.617   0.862
 4538TIP3   OH213566   5.947   7.254   1.869
 4538TIP3    H113567   5.947   7.281   1.776
 4538TIP3    H213568   6.030   7.295   1.901
 4539TIP3   OH213569   4.898   6.367   2.281
 4539TIP3    H113570   4.978   6.403   2.325
 4539TIP3    H213571   4.838   6.363   2.357
 4540TIP3   OH213572   5.366   5.823   1.542
 4540TIP3    H113573   5.441   5.786   1.494
 4540TIP3    H213574   5.370   5.778   1.628
 4541TIP3   OH213575   4.883   5.308   1.427
 4541TIP3    H113576   4.847   5.231   1.478
 4541TIP3    H213577   4.920   5.264   1.350
 4542TIP3   OH213578   5.343   5.725   1.830
 4542TIP3    H113579   5.253   5.760   1.845
 4542TIP3    H213580   5.399   5.787   1.880
 4543TIP3   OH213581   5.071   6.101   0.930
 4543TIP3    H113582   4.997   6.039   0.915
 4543TIP3    H213583   5.049   6.137   1.020
 4544TIP3   OH213584   5.978   6.345   1.550
 4544TIP3    H113585   6.004   6.396   1.471
 4544TIP3    H213586   5.894   6.303   1.522
 4545TIP3   OH213587   5.534   5.421   0.797
 4545TIP3    H113588   5.439   5.394   0.809
 4545TIP3    H213589   5.535   5.514   0.829
 4546TIP3   OH213590   5.476   6.427   1.926
 4546TIP3    H113591   5.513   6.415   2.014
 4546TIP3    H213592   5.438   6.517   1.931
 4547TIP3   OH213593   5.605   5.672   0.896
 4547TIP3    H113594   5.700   5.678   0.916
 4547TIP3    H213595   5.591   5.748   0.837
 4548TIP3   OH213596   4.774   6.133   1.599
 4548TIP3    H113597   4.811   6.105   1.513
 4548TIP3    H213598   4.825   6.078   1.660
 4549TIP3   OH213599   5.250   6.262   0.795
 4549TIP3    H113600   5.202   6.342   0.764
 4549TIP3    H213601   5.178   6.210   0.834
 4550TIP3   OH213602   4.661   6.053   2.220
 4550TIP3    H113603   4.680   6.042   2.315
 4550TIP3    H213604   4.591   5.986   2.207
 4551TIP3   OH213605   5.385   6.170   2.232
 4551TIP3    H113606   5.322   6.109   2.192
 4551TIP3    H213607   5.471   6.131   2.204
 4552TIP3   OH213608   5.636   6.690   1.822
 4552TIP3    H113609   5.540   6.688   1.837
 4552TIP3    H213610   5.665   6.741   1.900
 4553TIP3   OH213611   5.998   5.744   0.746
 4553TIP3    H113612   5.917   5.714   0.702
 4553TIP3    H213613   5.993   5.839   0.728
 4554TIP3   OH213614   6.265   6.613   1.805
 4554TIP3    H113615   6.168   6.602   1.795
 4554TIP3    H213616   6.294   6.584   1.715
 4555TIP3   OH213617   5.744   6.210   1.465
 4555TIP3    H113618   5.651   6.186   1.480
 4555TIP3    H213619   5.777   6.129   1.421
 4556TIP3   OH213620   4.878   6.441   1.233
 4556TIP3    H113621   4.874   6.519   1.174
 4556TIP3    H213622   4.786   6.416   1.238
 4557TIP3   OH213623   4.450   5.738   0.944
 4557TIP3    H113624   4.489   5.826   0.961
 4557TIP3    H213625   4.369   5.742   0.999
 4558TIP3   OH213626   4.998   6.198   1.170
 4558TIP3    H113627   4.971   6.289   1.190
 4558TIP3    H213628   4.964   6.149   1.247
 4559TIP3   OH213629   5.147   6.777   1.694
 4559TIP3    H113630   5.190   6.850   1.645
 4559TIP3    H213631   5.224   6.739   1.741
 4560TIP3   OH213632   4.790   6.675   1.077
 4560TIP3    H113633   4.705   6.684   1.125
 4560TIP3    H213634   4.823   6.768   1.082
 4561TIP3   OH213635   5.526   6.414   1.658
 4561TIP3    H113636   5.515   6.412   1.756
 4561TIP3    H213637   5.606   6.361   1.647
 4562TIP3   OH213638   5.776   6.943   1.705
 4562TIP3    H113639   5.696   6.887   1.700
 4562TIP3    H213640   5.759   7.006   1.632
 4563TIP3   OH213641   4.863   5.555   2.219
 4563TIP3    H113642   4.766   5.555   2.232
 4563TIP3    H213643   4.893   5.505   2.296
 4564TIP3   OH213644   5.663   6.208   0.773
 4564TIP3    H113645   5.649   6.154   0.853
 4564TIP3    H213646   5.761   6.210   0.770
 4565TIP3   OH213647   4.582   6.640   1.853
 4565TIP3    H113648   4.637   6.569   1.890
 4565TIP3    H213649   4.612   6.716   1.904
 4566TIP3   OH213650   4.873   6.266   0.550
 4566TIP3    H113651   4.878   6.172   0.532
 4566TIP3    H213652   4.869   6.269   0.647
 4567TIP3   OH213653   4.823   6.293   0.818
 4567TIP3    H113654   4.900   6.267   0.871
 4567TIP3    H213655   4.827   6.391   0.824
 4568TIP3   OH213656   4.548   5.987   1.020
 4568TIP3    H113657   4.479   6.030   1.074
 4568TIP3    H213658   4.559   6.054   0.950
 4569TIP3   OH213659   5.711   5.615   1.903
 4569TIP3    H113660   5.788   5.660   1.943
 4569TIP3    H213661   5.699   5.537   1.960
 4570TIP3   OH213662   5.592   5.363   1.079
 4570TIP3    H113663   5.574   5.386   0.986
 4570TIP3    H213664   5.630   5.447   1.114
 4571TIP3   OH213665   5.091   6.478   0.742
 4571TIP3    H113666   5.008   6.517   0.776
 4571TIP3    H213667   5.089   6.502   0.649
 4572TIP3   OH213668   5.269   5.553   1.175
 4572TIP3    H113669   5.331   5.627   1.158
 4572TIP3    H213670   5.276   5.544   1.272
 4573TIP3   OH213671   5.542   5.866   1.978
 4573TIP3    H113672   5.568   5.920   2.055
 4573TIP3    H213673   5.594   5.785   1.991
 4574TIP3   OH213674   5.409   5.269   1.272
 4574TIP3    H113675   5.394   5.349   1.326
 4574TIP3    H213676   5.476   5.302   1.208
 4575TIP3   OH213677   4.844   6.567   0.828
 4575TIP3    H113678   4.816   6.637   0.766
 4575TIP3    H213679   4.821   6.607   0.915
 4576TIP3   OH213680   4.927   5.279   1.066
 4576TIP3    H113681   4.922   5.370   1.102
 4576TIP3    H213682   5.024   5.265   1.073
 4577TIP3   OH213683   6.175   5.766   1.970
 4577TIP3    H113684   6.076   5.762   1.970
 4577TIP3    H213685   6.194   5.734   1.880
 4578TIP3   OH213686   5.830   5.961   1.349
 4578TIP3    H113687   5.752   5.905   1.363
 4578TIP3    H213688   5.899   5.914   1.401
 4579TIP3   OH213689   4.539   6.198   0.827
 4579TIP3    H113690   4.607   6.267   0.826
 4579TIP3    H213691   4.582   6.131   0.769
 4580TIP3   OH213692   4.481   5.465   0.955
 4580TIP3    H113693   4.491   5.562   0.957
 4580TIP3    H213694   4.414   5.455   0.886
 4581TIP3   OH213695   5.808   6.935   1.290
 4581TIP3    H113696   5.766   6.978   1.213
 4581TIP3    H213697   5.903   6.943   1.266
 4582TIP3   OH213698   4.876   5.188   1.822
 4582TIP3    H113699   4.847   5.154   1.734
 4582TIP3    H213700   4.864   5.109   1.878
 4583TIP3   OH213701   4.411   6.408   1.199
 4583TIP3    H113702   4.353   6.435   1.271
 4583TIP3    H213703   4.371   6.455   1.122
 4584TIP3   OH213704   4.579   6.960   2.279
 4584TIP3    H113705   4.666   6.962   2.326
 4584TIP3    H213706   4.565   6.864   2.274
 4585TIP3   OH213707   5.047   6.912   2.316
 4585TIP3    H113708   5.140   6.891   2.330
 4585TIP3    H213709   5.023   6.845   2.248
 4586TIP3   OH213710   5.690   6.823   2.057
 4586TIP3    H113711   5.686   6.752   2.126
 4586TIP3    H213712   5.768   6.874   2.086
 4587TIP3   OH213713   4.700   6.364   2.476
 4587TIP3    H113714   4.710   6.274   2.511
 4587TIP3    H213715   4.614   6.360   2.429
 4588TIP3   OH213716   4.671   5.999   0.706
 4588TIP3    H113717   4.732   5.969   0.776
 4588TIP3    H213718   4.733   6.008   0.631
 4589TIP3   OH213719   5.310   6.447   2.258
 4589TIP3    H113720   5.268   6.469   2.173
 4589TIP3    H213721   5.342   6.355   2.243
 4590TIP3   OH213722   5.801   6.460   1.861
 4590TIP3    H113723   5.879   6.499   1.817
 4590TIP3    H213724   5.734   6.529   1.843
 4591TIP3   OH213725   4.839   6.087   2.472
 4591TIP3    H113726   4.911   6.046   2.422
 4591TIP3    H213727   4.892   6.139   2.537
 4592TIP3   OH213728   4.870   5.913   0.891
 4592TIP3    H113729   4.848   5.875   0.978
 4592TIP3    H213730   4.916   5.838   0.847
 4593TIP3   OH213731   5.157   5.971   2.119
 4593TIP3    H113732   5.081   6.033   2.123
 4593TIP3    H213733   5.209   6.009   2.044
 4594TIP3   OH213734   4.991   5.704   0.761
 4594TIP3    H113735   4.961   5.699   0.668
 4594TIP3    H213736   5.089   5.711   0.750
 4595TIP3   OH213737   5.676   6.378   2.252
 4595TIP3    H113738   5.753   6.343   2.206
 4595TIP3    H213739   5.667   6.315   2.327
 4596TIP3   OH213740   5.285   5.765   2.239
 4596TIP3    H113741   5.285   5.688   2.179
 4596TIP3    H213742   5.240   5.834   2.186
 4597TIP3   OH213743   5.285   5.552   2.054
 4597TIP3    H113744   5.314   5.594   1.971
 4597TIP3    H213745   5.192   5.530   2.034
 4598TIP3   OH213746   5.304   6.084   1.927
 4598TIP3    H113747   5.392   6.105   1.893
 4598TIP3    H213748   5.248   6.149   1.881
 4599TIP3   OH213749   5.890   6.050   2.302
 4599TIP3    H113750   5.940   5.968   2.311
 4599TIP3    H213751   5.956   6.110   2.265
 4600TIP3   OH213752   5.932   6.306   2.040
 4600TIP3    H113753   5.875   6.363   1.984
 4600TIP3    H213754   6.021   6.329   2.003
 4601TIP3   OH213755   5.159   5.862   2.470
 4601TIP3    H113756   5.092   5.795   2.490
 4601TIP3    H213757   5.195   5.832   2.384
 4602TIP3   OH213758   5.415   5.313   2.129
 4602TIP3    H113759   5.366   5.394   2.103
 4602TIP3    H213760   5.348   5.244   2.116
 4603TIP3   OH213761   5.542   5.811   2.340
 4603TIP3    H113762   5.523   5.798   2.435
 4603TIP3    H213763   5.453   5.790   2.303
 4604TIP3   OH213764   5.779   5.765   2.194
 4604TIP3    H113765   5.705   5.767   2.258
 4604TIP3    H213766   5.854   5.738   2.251
 4605TIP3   OH213767   6.009   5.712   2.344
 4605TIP3    H113768   6.023   5.616   2.357
 4605TIP3    H213769   6.005   5.745   2.437
 4606TIP3   OH213770   4.992   5.647   2.538
 4606TIP3    H113771   5.000   5.555   2.509
 4606TIP3    H213772   5.032   5.642   2.627
 4607TIP3   OH213773   5.504   5.322   2.388
 4607TIP3    H113774   5.572   5.252   2.381
 4607TIP3    H213775   5.467   5.320   2.298
 4608TIP3   OH213776   5.573   5.538   2.544
 4608TIP3    H113777   5.553   5.467   2.480
 4608TIP3    H213778   5.495   5.596   2.537
 4609TIP3   OH213779   4.818   6.762   0.627
 4609TIP3    H113780   4.879   6.784   0.556
 4609TIP3    H213781   4.733   6.767   0.582
 4610TIP3   OH213782   4.274   6.144   0.862
 4610TIP3    H113783   4.366   6.171   0.842
 4610TIP3    H213784   4.269   6.058   0.813
 4611TIP3   OH213785   4.194   6.761   1.275
 4611TIP3    H113786   4.131   6.700   1.230
 4611TIP3    H213787   4.239   6.699   1.336
 4612TIP3   OH213788   4.328   6.602   1.459
 4612TIP3    H113789   4.314   6.535   1.528
 4612TIP3    H213790   4.382   6.666   1.508
 4613TIP3   OH213791   6.074   7.017   1.245
 4613TIP3    H113792   6.090   7.017   1.342
 4613TIP3    H213793   6.096   7.108   1.223
 4614TIP3   OH213794   6.080   7.023   1.529
 4614TIP3    H113795   6.037   6.935   1.535
 4614TIP3    H213796   6.157   7.007   1.586
 4615TIP3   OH213797   6.131   6.708   2.114
 4615TIP3    H113798   6.060   6.719   2.181
 4615TIP3    H213799   6.176   6.795   2.119
 4616TIP3   OH213800   5.927   6.213   0.739
 4616TIP3    H113801   5.968   6.281   0.683
 4616TIP3    H213802   6.001   6.180   0.793
 4617TIP3   OH213803   6.088   6.070   0.925
 4617TIP3    H113804   6.015   6.041   0.984
 4617TIP3    H213805   6.148   6.116   0.987
 4618TIP3   OH213806   6.129   6.480   1.365
 4618TIP3    H113807   6.185   6.413   1.319
 4618TIP3    H213808   6.137   6.557   1.305
 4619TIP3   OH213809   5.955   6.780   1.561
 4619TIP3    H113810   5.883   6.820   1.612
 4619TIP3    H213811   5.907   6.735   1.488
 4620TIP3   OH213812   5.897   5.946   1.083
 4620TIP3    H113813   5.895   5.849   1.074
 4620TIP3    H213814   5.880   5.959   1.179
 4621TIP3   OH213815   4.511   6.016   1.833
 4621TIP3    H113816   4.507   5.981   1.741
 4621TIP3    H213817   4.609   6.018   1.847
 4622TIP3   OH213818   6.181   6.371   1.940
 4622TIP3    H113819   6.251   6.301   1.932
 4622TIP3    H213820   6.213   6.437   1.876
 4623TIP3   OH213821   6.354   6.163   1.958
 4623TIP3    H113822   6.280   6.113   1.998
 4623TIP3    H213823   6.427   6.099   1.969
 4624TIP3   OH213824   5.867   5.416   0.538
 4624TIP3    H113825   5.863   5.366   0.620
 4624TIP3    H213826   5.780   5.395   0.500
 4625TIP3   OH213827   5.884   5.665   0.983
 4625TIP3    H113828   5.922   5.575   0.996
 4625TIP3    H213829   5.938   5.694   0.907
 4626TIP3   OH213830   6.041   5.826   1.473
 4626TIP3    H113831   6.126   5.851   1.430
 4626TIP3    H213832   6.056   5.866   1.561
 4627TIP3   OH213833   6.114   5.975   1.701
 4627TIP3    H113834   6.039   6.012   1.751
 4627TIP3    H213835   6.145   6.054   1.651
 4628TIP3   OH213836   4.725   5.696   2.488
 4628TIP3    H113837   4.822   5.701   2.502
 4628TIP3    H213838   4.705   5.612   2.533
 4629TIP3   OH213839   6.568   5.575   2.257
 4629TIP3    H113840   6.630   5.512   2.214
 4629TIP3    H213841   6.534   5.625   2.179
 4630TIP3   OH213842   5.974   5.412   1.019
 4630TIP3    H113843   6.033   5.395   1.095
 4630TIP3    H213844   5.918   5.332   1.020
 4631TIP3   OH213845   4.694   5.399   1.839
 4631TIP3    H113846   4.755   5.323   1.842
 4631TIP3    H213847   4.756   5.472   1.825
 4632TIP3   OH213848   4.491   5.668   1.904
 4632TIP3    H113849   4.542   5.666   1.821
 4632TIP3    H213850   4.517   5.753   1.941
 4633TIP3   OH213851   6.431   5.703   2.061
 4633TIP3    H113852   6.347   5.750   2.082
 4633TIP3    H213853   6.395   5.632   2.004
 4634TIP3   OH213854   6.135   5.332   0.643
 4634TIP3    H113855   6.100   5.283   0.567
 4634TIP3    H213856   6.122   5.423   0.613
 4635TIP3   OH213857   4.481   5.173   1.407
 4635TIP3    H113858   4.388   5.166   1.435
 4635TIP3    H213859   4.473   5.232   1.329
 4636TIP3   OH213860   5.657   6.866   0.925
 4636TIP3    H113861   5.672   6.865   0.829
 4636TIP3    H213862   5.717   6.936   0.956
 4637TIP3   OH213863   4.698   5.246   2.219
 4637TIP3    H113864   4.649   5.252   2.302
 4637TIP3    H213865   4.636   5.289   2.157
 4638TIP3   OH213866   4.737   6.693   2.292
 4638TIP3    H113867   4.645   6.662   2.287
 4638TIP3    H213868   4.765   6.663   2.380
 4639TIP3   OH213869   4.921   6.721   1.844
 4639TIP3    H113870   4.874   6.798   1.805
 4639TIP3    H213871   5.007   6.733   1.799
 4640TIP3   OH213872   5.356   6.959   1.982
 4640TIP3    H113873   5.398   6.956   2.070
 4640TIP3    H213874   5.422   7.012   1.932
 4641TIP3   OH213875   5.537   7.116   1.846
 4641TIP3    H113876   5.607   7.063   1.804
 4641TIP3    H213877   5.590   7.172   1.906
 4642TIP3   OH213878   6.336   5.470   1.940
 4642TIP3    H113879   6.246   5.459   1.904
 4642TIP3    H213880   6.370   5.377   1.932
 4643TIP3   OH213881   4.593   6.973   1.871
 4643TIP3    H113882   4.501   7.002   1.850
 4643TIP3    H213883   4.609   7.024   1.951
 4644TIP3   OH213884   4.830   6.953   1.731
 4644TIP3    H113885   4.741   6.964   1.772
 4644TIP3    H213886   4.812   6.983   1.639
 4645TIP3   OH213887   5.254   6.976   1.530
 4645TIP3    H113888   5.185   6.992   1.463
 4645TIP3    H213889   5.264   7.065   1.569
 4646TIP3   OH213890   5.524   6.915   1.582
 4646TIP3    H113891   5.430   6.932   1.561
 4646TIP3    H213892   5.567   6.988   1.534
 4647TIP3   OH213893   5.728   7.107   1.489
 4647TIP3    H113894   5.715   7.190   1.439
 4647TIP3    H213895   5.758   7.046   1.418
 4648TIP3   OH213896   4.502   6.763   1.614
 4648TIP3    H113897   4.531   6.734   1.704
 4648TIP3    H213898   4.575   6.722   1.562
 4649TIP3   OH213899   4.701   6.640   1.477
 4649TIP3    H113900   4.716   6.555   1.525
 4649TIP3    H213901   4.792   6.674   1.472
 4650TIP3   OH213902   4.970   6.729   1.481
 4650TIP3    H113903   4.998   6.636   1.469
 4650TIP3    H213904   5.021   6.751   1.562
 4651TIP3   OH213905   5.545   5.388   1.570
 4651TIP3    H113906   5.501   5.315   1.617
 4651TIP3    H213907   5.618   5.342   1.523
 4652TIP3   OH213908   6.057   5.263   1.459
 4652TIP3    H113909   6.091   5.321   1.388
 4652TIP3    H213910   5.962   5.287   1.460
 4653TIP3   OH213911   6.154   5.374   1.227
 4653TIP3    H113912   6.229   5.321   1.193
 4653TIP3    H213913   6.186   5.465   1.209
 4654TIP3   OH213914   4.787   5.093   1.575
 4654TIP3    H113915   4.694   5.062   1.578
 4654TIP3    H213916   4.834   5.007   1.571
 4655TIP3   OH213917   4.588   4.969   1.231
 4655TIP3    H113918   4.612   5.023   1.154
 4655TIP3    H213919   4.557   5.036   1.295
 4656TIP3   OH213920   5.240   5.124   1.460
 4656TIP3    H113921   5.292   5.171   1.393
 4656TIP3    H213922   5.269   5.166   1.542
 4657TIP3   OH213923   5.773   5.275   1.441
 4657TIP3    H113924   5.776   5.232   1.354
 4657TIP3    H213925   5.765   5.198   1.501
 4658TIP3   OH213926   5.805   5.197   1.004
 4658TIP3    H113927   5.723   5.244   1.028
 4658TIP3    H213928   5.790   5.111   1.050
 4659TIP3   OH213929   4.288   6.551   1.010
 4659TIP3    H113930   4.207   6.511   0.972
 4659TIP3    H213931   4.280   6.640   0.971
 4660TIP3   OH213932   4.699   5.118   0.989
 4660TIP3    H113933   4.747   5.058   0.929
 4660TIP3    H213934   4.771   5.174   1.023
 4661TIP3   OH213935   5.202   5.304   1.086
 4661TIP3    H113936   5.263   5.257   1.146
 4661TIP3    H213937   5.223   5.397   1.111
 4662TIP3   OH213938   4.995   5.371   2.466
 4662TIP3    H113939   4.961   5.301   2.524
 4662TIP3    H213940   5.090   5.372   2.495
 4663TIP3   OH213941   5.246   5.373   2.584
 4663TIP3    H113942   5.332   5.352   2.543
 4663TIP3    H213943   5.238   5.302   2.650
 4664TIP3   OH213944   4.328   6.526   0.691
 4664TIP3    H113945   4.331   6.599   0.755
 4664TIP3    H213946   4.416   6.528   0.651
 4665TIP3   OH213947   6.076   5.441   2.372
 4665TIP3    H113948   6.092   5.410   2.464
 4665TIP3    H213949   6.165   5.434   2.333
 4666TIP3   OH213950   5.998   6.984   1.868
 4666TIP3    H113951   5.919   6.958   1.816
 4666TIP3    H213952   5.983   7.080   1.876
 4667TIP3   OH213953   6.585   6.270   1.387
 4667TIP3    H113954   6.602   6.194   1.446
 4667TIP3    H213955   6.661   6.325   1.412
 4668TIP3   OH213956   6.505   6.649   1.154
 4668TIP3    H113957   6.488   6.554   1.143
 4668TIP3    H213958   6.592   6.656   1.109
 4669TIP3   OH213959   6.250   5.856   0.862
 4669TIP3    H113960   6.204   5.939   0.889
 4669TIP3    H213961   6.175   5.794   0.859
 4670TIP3   OH213962   6.313   6.162   1.065
 4670TIP3    H113963   6.364   6.084   1.098
 4670TIP3    H213964   6.384   6.222   1.036
 4671TIP3   OH213965   6.797   5.749   1.066
 4671TIP3    H113966   6.799   5.818   0.996
 4671TIP3    H213967   6.781   5.670   1.014
 4672TIP3   OH213968   6.462   5.954   1.164
 4672TIP3    H113969   6.541   5.939   1.221
 4672TIP3    H213970   6.487   5.903   1.086
 4673TIP3   OH213971   6.902   6.147   0.981
 4673TIP3    H113972   6.994   6.114   0.984
 4673TIP3    H213973   6.857   6.071   0.939
 4674TIP3   OH213974   6.819   5.731   1.495
 4674TIP3    H113975   6.762   5.778   1.431
 4674TIP3    H213976   6.768   5.748   1.578
 4675TIP3   OH213977   6.689   5.858   1.289
 4675TIP3    H113978   6.749   5.934   1.309
 4675TIP3    H213979   6.738   5.818   1.213
 4676TIP3   OH213980   6.723   6.762   1.350
 4676TIP3    H113981   6.648   6.724   1.301
 4676TIP3    H213982   6.703   6.731   1.440
 4677TIP3   OH213983   7.160   5.443   1.201
 4677TIP3    H113984   7.154   5.350   1.233
 4677TIP3    H213985   7.088   5.485   1.253
 4678TIP3   OH213986   6.827   6.291   1.196
 4678TIP3    H113987   6.860   6.244   1.116
 4678TIP3    H213988   6.901   6.350   1.218
 4679TIP3   OH213989   6.333   6.521   1.560
 4679TIP3    H113990   6.265   6.493   1.496
 4679TIP3    H213991   6.366   6.436   1.596
 4680TIP3   OH213992   6.206   6.704   1.211
 4680TIP3    H113993   6.299   6.698   1.184
 4680TIP3    H213994   6.207   6.787   1.261
 4681TIP3   OH213995   6.533   6.704   1.555
 4681TIP3    H113996   6.562   6.701   1.647
 4681TIP3    H213997   6.463   6.635   1.553
 4682TIP3   OH213998   6.935   5.525   1.345
 4682TIP3    H113999   6.847   5.496   1.314
 4682TIP3    H214000   6.909   5.606   1.394
 4683TIP3   OH214001   7.460   5.628   1.545
 4683TIP3    H114002   7.489   5.659   1.631
 4683TIP3    H214003   7.367   5.602   1.565
 4684TIP3   OH214004   6.860   6.062   1.351
 4684TIP3    H114005   6.818   6.084   1.436
 4684TIP3    H214006   6.850   6.148   1.305
 4685TIP3   OH214007   6.755   5.926   0.862
 4685TIP3    H114008   6.663   5.894   0.866
 4685TIP3    H214009   6.764   5.955   0.771
 4686TIP3   OH214010   6.694   6.090   1.569
 4686TIP3    H114011   6.750   6.162   1.606
 4686TIP3    H214012   6.697   6.022   1.638
 4687TIP3   OH214013   6.304   5.587   1.128
 4687TIP3    H114014   6.352   5.630   1.203
 4687TIP3    H214015   6.368   5.521   1.101
 4688TIP3   OH214016   7.060   5.686   0.955
 4688TIP3    H114017   7.004   5.734   1.018
 4688TIP3    H214018   7.142   5.737   0.960
 4689TIP3   OH214019   6.506   5.789   0.907
 4689TIP3    H114020   6.414   5.817   0.889
 4689TIP3    H214021   6.494   5.725   0.979
 4690TIP3   OH214022   7.145   6.029   1.019
 4690TIP3    H114023   7.230   6.072   0.999
 4690TIP3    H214024   7.150   6.013   1.115
 4691TIP3   OH214025   6.668   5.526   0.866
 4691TIP3    H114026   6.634   5.465   0.936
 4691TIP3    H214027   6.760   5.496   0.861
 4692TIP3   OH214028   7.117   5.955   1.302
 4692TIP3    H114029   7.037   6.007   1.324
 4692TIP3    H214030   7.186   5.998   1.358
 4693TIP3   OH214031   6.553   6.351   1.100
 4693TIP3    H114032   6.631   6.346   1.043
 4693TIP3    H214033   6.595   6.331   1.186
 4694TIP3   OH214034   6.425   6.323   1.722
 4694TIP3    H114035   6.485   6.319   1.799
 4694TIP3    H214036   6.387   6.234   1.722
 4695TIP3   OH214037   7.138   6.385   1.760
 4695TIP3    H114038   7.053   6.359   1.716
 4695TIP3    H214039   7.155   6.470   1.718
 4696TIP3   OH214040   6.664   5.803   1.712
 4696TIP3    H114041   6.568   5.811   1.724
 4696TIP3    H214042   6.690   5.752   1.791
 4697TIP3   OH214043   6.374   6.876   1.378
 4697TIP3    H114044   6.416   6.791   1.399
 4697TIP3    H214045   6.419   6.932   1.441
 4698TIP3   OH214046   7.484   5.843   1.360
 4698TIP3    H114047   7.568   5.863   1.402
 4698TIP3    H214048   7.454   5.764   1.408
 4699TIP3   OH214049   7.297   6.059   1.472
 4699TIP3    H114050   7.314   6.150   1.501
 4699TIP3    H214051   7.380   6.014   1.491
 4700TIP3   OH214052   6.672   5.440   1.307
 4700TIP3    H114053   6.643   5.400   1.224
 4700TIP3    H214054   6.665   5.365   1.370
 4701TIP3   OH214055   6.340   7.139   1.784
 4701TIP3    H114056   6.423   7.109   1.825
 4701TIP3    H214057   6.296   7.053   1.773
 4702TIP3   OH214058   6.492   6.620   1.966
 4702TIP3    H114059   6.532   6.532   1.955
 4702TIP3    H214060   6.407   6.609   1.918
 4703TIP3   OH214061   6.622   6.357   1.936
 4703TIP3    H114062   6.709   6.341   1.895
 4703TIP3    H214063   6.648   6.379   2.028
 4704TIP3   OH214064   7.049   6.021   1.723
 4704TIP3    H114065   7.066   5.940   1.671
 4704TIP3    H214066   7.035   6.087   1.654
 4705TIP3   OH214067   7.077   5.802   1.541
 4705TIP3    H114068   7.104   5.844   1.457
 4705TIP3    H214069   6.983   5.783   1.524
 4706TIP3   OH214070   6.957   6.122   1.971
 4706TIP3    H114071   6.887   6.056   1.986
 4706TIP3    H214072   6.983   6.102   1.879
 4707TIP3   OH214073   7.204   5.567   1.611
 4707TIP3    H114074   7.154   5.649   1.589
 4707TIP3    H214075   7.135   5.498   1.599
 4708TIP3   OH214076   7.319   6.045   1.811
 4708TIP3    H114077   7.313   6.023   1.906
 4708TIP3    H214078   7.226   6.038   1.784
 4709TIP3   OH214079   6.788   5.905   2.028
 4709TIP3    H114080   6.798   5.815   1.993
 4709TIP3    H214081   6.828   5.896   2.116
 4710TIP3   OH214082   7.307   5.576   1.864
 4710TIP3    H114083   7.371   5.503   1.854
 4710TIP3    H214084   7.262   5.573   1.778
 4711TIP3   OH214085   7.362   5.781   2.040
 4711TIP3    H114086   7.343   5.716   1.969
 4711TIP3    H214087   7.286   5.842   2.034
 4712TIP3   OH214088   6.137   6.899   0.968
 4712TIP3    H114089   6.121   6.805   0.966
 4712TIP3    H214090   6.121   6.921   1.061
 4713TIP3   OH214091   6.316   6.278   1.320
 4713TIP3    H114092   6.313   6.244   1.228
 4713TIP3    H214093   6.412   6.283   1.336
 4714TIP3   OH214094   6.522   5.949   1.974
 4714TIP3    H114095   6.619   5.951   1.986
 4714TIP3    H214096   6.501   5.865   2.019
 4715TIP3   OH214097   6.495   5.655   1.307
 4715TIP3    H114098   6.557   5.581   1.323
 4715TIP3    H214099   6.555   5.732   1.317
 4716TIP3   OH214100   6.288   5.919   1.393
 4716TIP3    H114101   6.341   5.935   1.313
 4716TIP3    H214102   6.297   6.002   1.441
 4717TIP3   OH214103   6.494   5.502   1.702
 4717TIP3    H114104   6.446   5.503   1.786
 4717TIP3    H214105   6.430   5.545   1.643
 4718TIP3   OH214106   6.513   6.896   1.830
 4718TIP3    H114107   6.428   6.874   1.789
 4718TIP3    H214108   6.510   6.843   1.911
 4719TIP3   OH214109   7.350   5.632   1.041
 4719TIP3    H114110   7.282   5.597   1.100
 4719TIP3    H214111   7.377   5.554   0.992
 4720TIP3   OH214112   6.580   5.348   1.054
 4720TIP3    H114113   6.492   5.307   1.067
 4720TIP3    H214114   6.635   5.267   1.053
 4721TIP3   OH214115   6.340   5.204   0.759
 4721TIP3    H114116   6.403   5.233   0.691
 4721TIP3    H214117   6.260   5.255   0.734
 4722TIP3   OH214118   7.016   5.401   0.960
 4722TIP3    H114119   7.036   5.485   0.916
 4722TIP3    H214120   7.065   5.414   1.043
 4723TIP3   OH214121   6.790   5.626   1.949
 4723TIP3    H114122   6.754   5.558   2.008
 4723TIP3    H214123   6.884   5.628   1.980
 4724TIP3   OH214124   7.039   5.629   2.073
 4724TIP3    H114125   7.128   5.613   2.038
 4724TIP3    H214126   7.029   5.557   2.138
 4725TIP3   OH214127   0.549   6.685   2.754
 4725TIP3    H114128   0.577   6.771   2.790
 4725TIP3    H214129   0.562   6.699   2.659
 4726TIP3   OH214130   0.625   6.897   2.925
 4726TIP3    H114131   0.548   6.946   2.891
 4726TIP3    H214132   0.649   6.950   3.003
 4727TIP3   OH214133   0.173   6.608   2.574
 4727TIP3    H114134   0.256   6.572   2.605
 4727TIP3    H214135   0.197   6.703   2.568
 4728TIP3   OH214136   0.339   6.608   2.916
 4728TIP3    H114137   0.264   6.643   2.867
 4728TIP3    H214138   0.413   6.629   2.855
 4729TIP3   OH214139   0.260   6.154   2.023
 4729TIP3    H114140   0.193   6.177   2.091
 4729TIP3    H214141   0.269   6.242   1.979
 4730TIP3   OH214142   0.399   7.058   3.274
 4730TIP3    H114143   0.336   7.089   3.207
 4730TIP3    H214144   0.402   6.962   3.255
 4731TIP3   OH214145   0.404   6.811   3.141
 4731TIP3    H114146   0.328   6.752   3.138
 4731TIP3    H214147   0.443   6.796   3.053
 4732TIP3   OH214148   0.606   7.213   3.196
 4732TIP3    H114149   0.523   7.167   3.223
 4732TIP3    H214150   0.665   7.135   3.184
 4733TIP3   OH214151   0.314   6.834   2.617
 4733TIP3    H114152   0.385   6.882   2.571
 4733TIP3    H214153   0.320   6.880   2.703
 4734TIP3   OH214154   0.361   6.990   2.840
 4734TIP3    H114155   0.273   7.027   2.856
 4734TIP3    H214156   0.413   7.070   2.821
 4735TIP3   OH214157   0.819   6.621   3.431
 4735TIP3    H114158   0.878   6.555   3.390
 4735TIP3    H214159   0.784   6.668   3.351
 4736TIP3   OH214160   0.287   6.456   2.188
 4736TIP3    H114161   0.311   6.481   2.278
 4736TIP3    H214162   0.218   6.389   2.206
 4737TIP3   OH214163   0.680   6.751   3.237
 4737TIP3    H114164   0.607   6.789   3.289
 4737TIP3    H214165   0.633   6.685   3.182
 4738TIP3   OH214166   0.584   6.511   3.121
 4738TIP3    H114167   0.497   6.485   3.086
 4738TIP3    H214168   0.631   6.425   3.114
 4739TIP3   OH214169   0.299   6.320   2.652
 4739TIP3    H114170   0.355   6.364   2.584
 4739TIP3    H214171   0.211   6.340   2.618
 4740TIP3   OH214172   0.426   6.417   2.437
 4740TIP3    H114173   0.485   6.357   2.388
 4740TIP3    H214174   0.463   6.503   2.407
 4741TIP3   OH214175   0.095   6.260   2.222
 4741TIP3    H114176   0.010   6.294   2.185
 4741TIP3    H214177   0.063   6.188   2.278
 4742TIP3   OH214178   0.326   6.452   3.555
 4742TIP3    H114179   0.365   6.410   3.633
 4742TIP3    H214180   0.402   6.457   3.494
 4743TIP3   OH214181   2.343   6.946   2.236
 4743TIP3    H114182   2.374   7.031   2.271
 4743TIP3    H214183   2.366   6.954   2.142
 4744TIP3   OH214184   1.764   7.144   2.253
 4744TIP3    H114185   1.800   7.060   2.288
 4744TIP3    H214186   1.706   7.109   2.182
 4745TIP3   OH214187   1.079   6.791   2.232
 4745TIP3    H114188   1.058   6.858   2.164
 4745TIP3    H214189   1.034   6.713   2.194
 4746TIP3   OH214190   1.770   6.882   1.858
 4746TIP3    H114191   1.845   6.872   1.920
 4746TIP3    H214192   1.815   6.922   1.782
 4747TIP3   OH214193   0.697   6.966   2.352
 4747TIP3    H114194   0.788   6.969   2.387
 4747TIP3    H214195   0.712   6.932   2.262
 4748TIP3   OH214196   2.421   7.159   2.403
 4748TIP3    H114197   2.347   7.211   2.367
 4748TIP3    H214198   2.415   7.181   2.497
 4749TIP3   OH214199   1.069   6.774   2.672
 4749TIP3    H114200   1.015   6.812   2.599
 4749TIP3    H214201   1.010   6.790   2.748
 4750TIP3   OH214202   1.976   6.884   2.030
 4750TIP3    H114203   1.962   6.846   2.118
 4750TIP3    H214204   2.023   6.967   2.051
 4751TIP3   OH214205   0.950   6.889   2.454
 4751TIP3    H114206   1.005   6.969   2.473
 4751TIP3    H214207   0.999   6.853   2.377
 4752TIP3   OH214208   2.133   6.851   2.403
 4752TIP3    H114209   2.045   6.871   2.367
 4752TIP3    H214210   2.193   6.882   2.332
 4753TIP3   OH214211   1.421   6.486   2.386
 4753TIP3    H114212   1.403   6.392   2.405
 4753TIP3    H214213   1.345   6.528   2.432
 4754TIP3   OH214214   1.310   7.032   1.359
 4754TIP3    H114215   1.310   6.995   1.448
 4754TIP3    H214216   1.309   6.954   1.303
 4755TIP3   OH214217   2.060   6.433   1.491
 4755TIP3    H114218   1.977   6.458   1.537
 4755TIP3    H214219   2.077   6.515   1.439
 4756TIP3   OH214220   2.223   7.309   2.763
 4756TIP3    H114221   2.152   7.338   2.703
 4756TIP3    H214222   2.216   7.212   2.757
 4757TIP3   OH214223   1.187   6.567   2.519
 4757TIP3    H114224   1.099   6.537   2.487
 4757TIP3    H214225   1.160   6.649   2.565
 4758TIP3   OH214226   1.721   6.687   2.708
 4758TIP3    H114227   1.793   6.659   2.769
 4758TIP3    H214228   1.640   6.663   2.757
 4759TIP3   OH214229   1.963   7.133   2.625
 4759TIP3    H114230   1.915   7.116   2.709
 4759TIP3    H214231   1.905   7.196   2.581
 4760TIP3   OH214232   1.332   6.620   1.490
 4760TIP3    H114233   1.296   6.604   1.580
 4760TIP3    H214234   1.288   6.547   1.442
 4761TIP3   OH214235   1.106   7.106   2.532
 4761TIP3    H114236   1.064   7.145   2.610
 4761TIP3    H214237   1.128   7.184   2.479
 4762TIP3   OH214238   0.978   6.942   2.030
 4762TIP3    H114239   0.887   6.909   2.036
 4762TIP3    H214240   1.002   6.916   1.938
 4763TIP3   OH214241   1.475   7.022   1.771
 4763TIP3    H114242   1.431   7.104   1.740
 4763TIP3    H214243   1.549   7.013   1.708
 4764TIP3   OH214244   1.667   7.310   2.995
 4764TIP3    H114245   1.639   7.220   2.969
 4764TIP3    H214246   1.590   7.366   2.972
 4765TIP3   OH214247   1.631   7.061   2.028
 4765TIP3    H114248   1.594   7.109   1.951
 4765TIP3    H214249   1.667   6.984   1.980
 4766TIP3   OH214250   0.991   7.139   2.806
 4766TIP3    H114251   0.898   7.159   2.789
 4766TIP3    H214252   0.985   7.045   2.832
 4767TIP3   OH214253   0.961   6.635   1.490
 4767TIP3    H114254   0.994   6.595   1.572
 4767TIP3    H214255   0.958   6.558   1.429
 4768TIP3   OH214256   0.552   6.621   2.316
 4768TIP3    H114257   0.606   6.668   2.383
 4768TIP3    H214258   0.618   6.596   2.251
 4769TIP3   OH214259   1.341   6.775   2.112
 4769TIP3    H114260   1.261   6.787   2.168
 4769TIP3    H214261   1.411   6.801   2.174
 4770TIP3   OH214262   0.739   6.828   2.104
 4770TIP3    H114263   0.651   6.799   2.075
 4770TIP3    H214264   0.792   6.746   2.095
 4771TIP3   OH214265   1.032   6.847   1.773
 4771TIP3    H114266   1.129   6.847   1.793
 4771TIP3    H214267   1.028   6.913   1.702
 4772TIP3   OH214268   1.825   6.874   2.320
 4772TIP3    H114269   1.787   6.888   2.410
 4772TIP3    H214270   1.758   6.814   2.282
 4773TIP3   OH214271   1.427   7.098   2.211
 4773TIP3    H114272   1.505   7.083   2.155
 4773TIP3    H214273   1.457   7.078   2.300
 4774TIP3   OH214274   0.916   6.612   2.089
 4774TIP3    H114275   0.890   6.531   2.138
 4774TIP3    H214276   0.951   6.575   2.007
 4775TIP3   OH214277   1.379   7.008   2.505
 4775TIP3    H114278   1.298   7.058   2.484
 4775TIP3    H214279   1.433   7.076   2.550
 4776TIP3   OH214280   1.586   6.715   1.478
 4776TIP3    H114281   1.490   6.693   1.471
 4776TIP3    H214282   1.585   6.812   1.487
 4777TIP3   OH214283   1.670   6.974   1.580
 4777TIP3    H114284   1.768   6.977   1.585
 4777TIP3    H214285   1.653   7.020   1.495
 4778TIP3   OH214286   2.097   7.051   1.406
 4778TIP3    H114287   2.028   7.022   1.341
 4778TIP3    H214288   2.144   7.118   1.351
 4779TIP3   OH214289   0.908   6.857   2.885
 4779TIP3    H114290   0.811   6.857   2.888
 4779TIP3    H214291   0.929   6.793   2.955
 4780TIP3   OH214292   1.738   6.932   2.582
 4780TIP3    H114293   1.819   6.961   2.627
 4780TIP3    H214294   1.723   6.845   2.625
 4781TIP3   OH214295   1.631   6.665   1.746
 4781TIP3    H114296   1.615   6.685   1.652
 4781TIP3    H214297   1.668   6.750   1.778
 4782TIP3   OH214298   1.291   6.841   1.849
 4782TIP3    H114299   1.356   6.910   1.821
 4782TIP3    H214300   1.308   6.839   1.945
 4783TIP3   OH214301   1.550   7.123   2.689
 4783TIP3    H114302   1.609   7.199   2.685
 4783TIP3    H214303   1.608   7.053   2.653
 4784TIP3   OH214304   1.454   6.568   1.937
 4784TIP3    H114305   1.433   6.649   1.988
 4784TIP3    H214306   1.520   6.604   1.873
 4785TIP3   OH214307   0.978   6.574   1.767
 4785TIP3    H114308   0.986   6.671   1.773
 4785TIP3    H214309   1.073   6.549   1.764
 4786TIP3   OH214310   2.223   7.060   2.620
 4786TIP3    H114311   2.127   7.083   2.621
 4786TIP3    H214312   2.226   7.007   2.539
 4787TIP3   OH214313   1.879   7.221   1.985
 4787TIP3    H114314   1.810   7.190   2.046
 4787TIP3    H214315   1.958   7.205   2.040
 4788TIP3   OH214316   0.921   6.488   2.485
 4788TIP3    H114317   0.893   6.454   2.398
 4788TIP3    H214318   0.910   6.410   2.543
 4789TIP3   OH214319   1.327   7.084   2.863
 4789TIP3    H114320   1.298   6.991   2.854
 4789TIP3    H214321   1.399   7.086   2.797
 4790TIP3   OH214322   1.329   6.837   2.718
 4790TIP3    H114323   1.356   6.885   2.636
 4790TIP3    H214324   1.236   6.817   2.698
 4791TIP3   OH214325   1.981   7.336   2.931
 4791TIP3    H114326   2.005   7.245   2.954
 4791TIP3    H214327   2.046   7.387   2.981
 4792TIP3   OH214328   1.165   7.172   3.098
 4792TIP3    H114329   1.104   7.110   3.144
 4792TIP3    H214330   1.251   7.128   3.114
 4793TIP3   OH214331   1.464   6.609   2.795
 4793TIP3    H114332   1.414   6.688   2.764
 4793TIP3    H214333   1.397   6.538   2.780
 4794TIP3   OH214334   1.584   7.049   3.001
 4794TIP3    H114335   1.579   7.079   3.094
 4794TIP3    H214336   1.490   7.046   2.975
 4795TIP3   OH214337   1.830   7.049   2.846
 4795TIP3    H114338   1.753   7.040   2.905
 4795TIP3    H214339   1.905   7.032   2.907
 4796TIP3   OH214340   2.058   7.016   3.008
 4796TIP3    H114341   2.071   6.920   3.021
 4796TIP3    H214342   2.051   7.050   3.099
 4797TIP3   OH214343   1.039   6.944   3.207
 4797TIP3    H114344   1.037   6.852   3.173
 4797TIP3    H214345   1.078   6.930   3.295
 4798TIP3   OH214346   1.553   6.622   3.053
 4798TIP3    H114347   1.619   6.550   3.043
 4798TIP3    H214348   1.514   6.621   2.963
 4799TIP3   OH214349   1.608   6.835   3.212
 4799TIP3    H114350   1.604   6.755   3.155
 4799TIP3    H214351   1.546   6.892   3.165
 4800TIP3   OH214352   1.941   6.960   1.202
 4800TIP3    H114353   1.898   6.994   1.123
 4800TIP3    H214354   1.917   6.866   1.194
 4801TIP3   OH214355   2.000   7.219   1.737
 4801TIP3    H114356   1.995   7.122   1.728
 4801TIP3    H214357   1.978   7.231   1.831
 4802TIP3   OH214358   2.419   7.476   2.690
 4802TIP3    H114359   2.330   7.437   2.698
 4802TIP3    H214360   2.472   7.392   2.683
 4803TIP3   OH214361   1.890   6.686   1.166
 4803TIP3    H114362   1.952   6.664   1.238
 4803TIP3    H214363   1.806   6.646   1.195
 4804TIP3   OH214364   1.947   6.961   1.634
 4804TIP3    H114365   1.984   6.871   1.651
 4804TIP3    H214366   2.001   6.987   1.557
 4805TIP3   OH214367   2.098   7.111   2.113
 4805TIP3    H114368   2.179   7.148   2.071
 4805TIP3    H214369   2.115   7.138   2.205
 4806TIP3   OH214370   2.148   7.264   2.336
 4806TIP3    H114371   2.053   7.286   2.339
 4806TIP3    H214372   2.183   7.332   2.276
 4807TIP3   OH214373   0.772   6.999   3.162
 4807TIP3    H114374   0.869   6.994   3.166
 4807TIP3    H214375   0.748   6.908   3.192
 4808TIP3   OH214376   2.615   6.878   2.918
 4808TIP3    H114377   2.675   6.813   2.875
 4808TIP3    H214378   2.580   6.927   2.840
 4809TIP3   OH214379   2.045   6.709   1.674
 4809TIP3    H114380   2.087   6.692   1.761
 4809TIP3    H214381   1.979   6.637   1.672
 4810TIP3   OH214382   0.736   6.697   2.506
 4810TIP3    H114383   0.803   6.625   2.507
 4810TIP3    H214384   0.792   6.774   2.487
 4811TIP3   OH214385   0.538   6.998   2.574
 4811TIP3    H114386   0.591   6.978   2.494
 4811TIP3    H214387   0.533   7.095   2.567
 4812TIP3   OH214388   2.479   7.004   2.721
 4812TIP3    H114389   2.397   7.051   2.745
 4812TIP3    H214390   2.441   6.933   2.665
 4813TIP3   OH214391   2.120   6.639   1.318
 4813TIP3    H114392   2.154   6.573   1.255
 4813TIP3    H214393   2.185   6.711   1.310
 4814TIP3   OH214394   0.509   6.495   2.018
 4814TIP3    H114395   0.446   6.483   2.093
 4814TIP3    H214396   0.492   6.586   1.991
 4815TIP3   OH214397   0.748   6.555   2.888
 4815TIP3    H114398   0.692   6.553   2.967
 4815TIP3    H214399   0.685   6.591   2.823
 4816TIP3   OH214400   2.379   6.770   2.606
 4816TIP3    H114401   2.290   6.757   2.569
 4816TIP3    H214402   2.416   6.679   2.596
 4817TIP3   OH214403   1.602   6.693   2.244
 4817TIP3    H114404   1.549   6.619   2.278
 4817TIP3    H214405   1.667   6.647   2.187
 4818TIP3   OH214406   2.102   6.577   2.136
 4818TIP3    H114407   2.139   6.624   2.057
 4818TIP3    H214408   2.006   6.591   2.124
 4819TIP3   OH214409   2.202   6.662   1.897
 4819TIP3    H114410   2.276   6.612   1.856
 4819TIP3    H214411   2.234   6.754   1.882
 4820TIP3   OH214412   0.831   6.394   2.240
 4820TIP3    H114413   0.740   6.357   2.246
 4820TIP3    H214414   0.883   6.311   2.233
 4821TIP3   OH214415   0.640   6.279   1.898
 4821TIP3    H114416   0.674   6.329   1.821
 4821TIP3    H214417   0.592   6.350   1.946
 4822TIP3   OH214418   1.283   6.430   2.126
 4822TIP3    H114419   1.332   6.473   2.055
 4822TIP3    H214420   1.321   6.471   2.205
 4823TIP3   OH214421   1.821   6.577   2.103
 4823TIP3    H114422   1.822   6.536   2.016
 4823TIP3    H214423   1.811   6.498   2.162
 4824TIP3   OH214424   1.854   6.505   1.670
 4824TIP3    H114425   1.770   6.550   1.689
 4824TIP3    H214426   1.838   6.418   1.711
 4825TIP3   OH214427   0.742   6.419   1.680
 4825TIP3    H114428   0.782   6.366   1.609
 4825TIP3    H214429   0.820   6.470   1.713
 4826TIP3   OH214430   1.250   6.591   1.751
 4826TIP3    H114431   1.318   6.547   1.806
 4826TIP3    H214432   1.267   6.684   1.778
 4827TIP3   OH214433   1.040   6.673   3.137
 4827TIP3    H114434   1.005   6.599   3.190
 4827TIP3    H214435   1.134   6.671   3.163
 4828TIP3   OH214436   1.296   6.678   3.251
 4828TIP3    H114437   1.381   6.653   3.210
 4828TIP3    H214438   1.284   6.604   3.315
 4829TIP3   OH214439   2.120   6.743   3.037
 4829TIP3    H114440   2.137   6.711   3.128
 4829TIP3    H214441   2.209   6.736   2.997
 4830TIP3   OH214442   2.291   7.175   1.565
 4830TIP3    H114443   2.249   7.244   1.619
 4830TIP3    H214444   2.214   7.129   1.529
 4831TIP3   OH214445   4.137   7.201   1.722
 4831TIP3    H114446   4.170   7.286   1.759
 4831TIP3    H214447   4.163   7.210   1.629
 4832TIP3   OH214448   3.561   7.404   1.737
 4832TIP3    H114449   3.596   7.321   1.774
 4832TIP3    H214450   3.501   7.368   1.669
 4833TIP3   OH214451   2.879   7.043   1.720
 4833TIP3    H114452   2.856   7.113   1.655
 4833TIP3    H214453   2.830   6.968   1.680
 4834TIP3   OH214454   3.568   7.136   1.340
 4834TIP3    H114455   3.640   7.126   1.406
 4834TIP3    H214456   3.618   7.176   1.267
 4835TIP3   OH214457   2.492   7.227   1.844
 4835TIP3    H114458   2.583   7.226   1.878
 4835TIP3    H214459   2.504   7.188   1.755
 4836TIP3   OH214460   4.218   7.411   1.892
 4836TIP3    H114461   4.139   7.461   1.861
 4836TIP3    H214462   4.228   7.447   1.982
 4837TIP3   OH214463   2.867   7.033   2.159
 4837TIP3    H114464   2.812   7.069   2.087
 4837TIP3    H214465   2.808   7.048   2.236
 4838TIP3   OH214466   3.769   7.143   1.517
 4838TIP3    H114467   3.764   7.100   1.603
 4838TIP3    H214468   3.818   7.225   1.538
 4839TIP3   OH214469   2.748   7.146   1.939
 4839TIP3    H114470   2.805   7.224   1.957
 4839TIP3    H214471   2.795   7.106   1.862
 4840TIP3   OH214472   3.928   7.105   1.889
 4840TIP3    H114473   3.841   7.127   1.852
 4840TIP3    H214474   3.990   7.137   1.820
 4841TIP3   OH214475   3.219   6.745   1.877
 4841TIP3    H114476   3.198   6.650   1.891
 4841TIP3    H214477   3.142   6.786   1.921
 4842TIP3   OH214478   3.128   7.290   0.893
 4842TIP3    H114479   3.061   7.281   0.961
 4842TIP3    H214480   3.093   7.230   0.824
 4843TIP3   OH214481   3.856   6.693   0.976
 4843TIP3    H114482   3.775   6.718   1.023
 4843TIP3    H214483   3.873   6.773   0.922
 4844TIP3   OH214484   4.004   7.565   2.257
 4844TIP3    H114485   3.952   7.594   2.180
 4844TIP3    H214486   4.009   7.469   2.242
 4845TIP3   OH214487   2.983   6.825   2.006
 4845TIP3    H114488   2.896   6.795   1.973
 4845TIP3    H214489   2.955   6.906   2.053
 4846TIP3   OH214490   3.516   6.944   2.196
 4846TIP3    H114491   3.586   6.914   2.257
 4846TIP3    H214492   3.434   6.921   2.243
 4847TIP3   OH214493   3.754   7.384   2.110
 4847TIP3    H114494   3.705   7.372   2.195
 4847TIP3    H214495   3.693   7.440   2.060
 4848TIP3   OH214496   3.131   6.871   0.982
 4848TIP3    H114497   3.093   6.861   1.072
 4848TIP3    H214498   3.089   6.796   0.938
 4849TIP3   OH214499   2.914   7.359   2.016
 4849TIP3    H114500   2.862   7.375   2.098
 4849TIP3    H214501   2.899   7.441   1.966
 4850TIP3   OH214502   2.782   7.203   1.528
 4850TIP3    H114503   2.692   7.168   1.541
 4850TIP3    H214504   2.803   7.167   1.438
 4851TIP3   OH214505   3.284   7.286   1.264
 4851TIP3    H114506   3.221   7.353   1.232
 4851TIP3    H214507   3.345   7.277   1.188
 4852TIP3   OH214508   3.467   7.587   2.479
 4852TIP3    H114509   3.444   7.492   2.485
 4852TIP3    H214510   3.379   7.631   2.473
 4853TIP3   OH214511   3.428   7.314   1.514
 4853TIP3    H114512   3.378   7.351   1.438
 4853TIP3    H214513   3.467   7.238   1.468
 4854TIP3   OH214514   2.783   7.361   2.262
 4854TIP3    H114515   2.717   7.413   2.309
 4854TIP3    H214516   2.757   7.271   2.289
 4855TIP3   OH214517   2.777   6.890   0.953
 4855TIP3    H114518   2.775   6.851   1.042
 4855TIP3    H214519   2.686   6.883   0.922
 4856TIP3   OH214520   2.326   6.887   1.815
 4856TIP3    H114521   2.401   6.924   1.865
 4856TIP3    H214522   2.365   6.859   1.731
 4857TIP3   OH214523   2.294   6.863   1.323
 4857TIP3    H114524   2.342   6.900   1.246
 4857TIP3    H214525   2.234   6.936   1.346
 4858TIP3   OH214526   3.136   7.032   1.598
 4858TIP3    H114527   3.054   7.042   1.650
 4858TIP3    H214528   3.204   7.054   1.664
 4859TIP3   OH214529   2.545   7.098   1.600
 4859TIP3    H114530   2.451   7.111   1.576
 4859TIP3    H214531   2.560   7.004   1.581
 4860TIP3   OH214532   2.830   7.091   1.288
 4860TIP3    H114533   2.926   7.112   1.279
 4860TIP3    H214534   2.788   7.138   1.214
 4861TIP3   OH214535   3.618   7.133   1.807
 4861TIP3    H114536   3.579   7.146   1.896
 4861TIP3    H214537   3.553   7.071   1.768
 4862TIP3   OH214538   2.650   7.110   1.076
 4862TIP3    H114539   2.558   7.090   1.057
 4862TIP3    H214540   2.696   7.037   1.031
 4863TIP3   OH214541   3.220   7.357   1.695
 4863TIP3    H114542   3.301   7.336   1.646
 4863TIP3    H214543   3.242   7.335   1.787
 4864TIP3   OH214544   2.726   6.861   1.578
 4864TIP3    H114545   2.688   6.785   1.628
 4864TIP3    H214546   2.757   6.818   1.498
 4865TIP3   OH214547   3.179   7.269   1.995
 4865TIP3    H114548   3.091   7.309   1.980
 4865TIP3    H214549   3.231   7.345   2.029
 4866TIP3   OH214550   3.375   6.982   0.945
 4866TIP3    H114551   3.280   6.959   0.954
 4866TIP3    H214552   3.377   7.076   0.973
 4867TIP3   OH214553   3.460   7.232   1.048
 4867TIP3    H114554   3.556   7.231   1.066
 4867TIP3    H214555   3.456   7.279   0.963
 4868TIP3   OH214556   3.890   7.310   0.896
 4868TIP3    H114557   3.822   7.282   0.830
 4868TIP3    H214558   3.937   7.377   0.842
 4869TIP3   OH214559   2.698   7.110   2.367
 4869TIP3    H114560   2.600   7.117   2.375
 4869TIP3    H214561   2.719   7.051   2.441
 4870TIP3   OH214562   3.535   7.187   2.067
 4870TIP3    H114563   3.620   7.214   2.105
 4870TIP3    H214564   3.520   7.101   2.113
 4871TIP3   OH214565   3.427   6.922   1.228
 4871TIP3    H114566   3.411   6.946   1.135
 4871TIP3    H214567   3.466   7.005   1.264
 4872TIP3   OH214568   3.101   7.098   1.332
 4872TIP3    H114569   3.168   7.166   1.310
 4872TIP3    H214570   3.110   7.094   1.429
 4873TIP3   OH214571   3.379   7.404   2.145
 4873TIP3    H114572   3.414   7.392   2.234
 4873TIP3    H214573   3.419   7.328   2.098
 4874TIP3   OH214574   3.250   6.825   1.424
 4874TIP3    H114575   3.229   6.906   1.475
 4874TIP3    H214576   3.315   6.861   1.359
 4875TIP3   OH214577   2.768   6.829   1.225
 4875TIP3    H114578   2.773   6.922   1.256
 4875TIP3    H214579   2.863   6.807   1.231
 4876TIP3   OH214580   4.018   7.321   2.114
 4876TIP3    H114581   3.921   7.339   2.109
 4876TIP3    H214582   4.030   7.274   2.031
 4877TIP3   OH214583   3.673   7.479   1.473
 4877TIP3    H114584   3.605   7.445   1.534
 4877TIP3    H214585   3.753   7.462   1.527
 4878TIP3   OH214586   2.338   7.022   1.097
 4878TIP3    H114587   2.313   7.101   1.149
 4878TIP3    H214588   2.255   6.998   1.054
 4879TIP3   OH214589   2.720   6.746   1.970
 4879TIP3    H114590   2.688   6.712   1.883
 4879TIP3    H214591   2.706   6.667   2.027
 4880TIP3   OH214592   3.107   7.303   2.385
 4880TIP3    H114593   3.114   7.214   2.344
 4880TIP3    H214594   3.065   7.351   2.312
 4881TIP3   OH214595   3.126   7.099   2.208
 4881TIP3    H114596   3.153   7.148   2.127
 4881TIP3    H214597   3.032   7.079   2.187
 4882TIP3   OH214598   3.787   7.594   2.427
 4882TIP3    H114599   3.781   7.499   2.446
 4882TIP3    H214600   3.882   7.604   2.410
 4883TIP3   OH214601   3.013   7.428   2.618
 4883TIP3    H114602   2.938   7.370   2.644
 4883TIP3    H214603   3.036   7.390   2.531
 4884TIP3   OH214604   3.258   6.869   2.282
 4884TIP3    H114605   3.208   6.949   2.253
 4884TIP3    H214606   3.191   6.799   2.267
 4885TIP3   OH214607   3.372   7.329   2.476
 4885TIP3    H114608   3.348   7.311   2.569
 4885TIP3    H214609   3.285   7.312   2.435
 4886TIP3   OH214610   3.619   7.317   2.337
 4886TIP3    H114611   3.545   7.303   2.398
 4886TIP3    H214612   3.696   7.293   2.393
 4887TIP3   OH214613   3.844   7.269   2.492
 4887TIP3    H114614   3.862   7.174   2.507
 4887TIP3    H214615   3.844   7.306   2.583
 4888TIP3   OH214616   2.843   7.211   2.685
 4888TIP3    H114617   2.842   7.119   2.652
 4888TIP3    H214618   2.881   7.197   2.774
 4889TIP3   OH214619   3.350   6.878   2.539
 4889TIP3    H114620   3.415   6.806   2.529
 4889TIP3    H214621   3.310   6.878   2.449
 4890TIP3   OH214622   3.415   7.092   2.697
 4890TIP3    H114623   3.396   7.022   2.630
 4890TIP3    H214624   3.334   7.146   2.694
 4891TIP3   OH214625   3.735   7.230   0.690
 4891TIP3    H114626   3.713   7.255   0.599
 4891TIP3    H214627   3.702   7.136   0.690
 4892TIP3   OH214628   3.797   7.475   1.226
 4892TIP3    H114629   3.793   7.378   1.219
 4892TIP3    H214630   3.776   7.488   1.320
 4893TIP3   OH214631   4.212   7.729   2.190
 4893TIP3    H114632   4.122   7.692   2.190
 4893TIP3    H214633   4.264   7.647   2.173
 4894TIP3   OH214634   3.665   6.967   0.673
 4894TIP3    H114635   3.736   6.925   0.726
 4894TIP3    H214636   3.589   6.909   0.687
 4895TIP3   OH214637   3.735   7.215   1.119
 4895TIP3    H114638   3.774   7.126   1.135
 4895TIP3    H214639   3.789   7.244   1.043
 4896TIP3   OH214640   3.894   7.369   1.596
 4896TIP3    H114641   3.976   7.406   1.556
 4896TIP3    H214642   3.911   7.393   1.689
 4897TIP3   OH214643   3.945   7.511   1.822
 4897TIP3    H114644   3.852   7.539   1.824
 4897TIP3    H214645   3.989   7.584   1.776
 4898TIP3   OH214646   2.575   7.256   2.661
 4898TIP3    H114647   2.673   7.248   2.658
 4898TIP3    H214648   2.551   7.165   2.686
 4899TIP3   OH214649   4.405   7.130   2.405
 4899TIP3    H114650   4.469   7.066   2.366
 4899TIP3    H214651   4.375   7.180   2.326
 4900TIP3   OH214652   3.839   6.966   1.162
 4900TIP3    H114653   3.882   6.950   1.249
 4900TIP3    H214654   3.774   6.893   1.160
 4901TIP3   OH214655   2.533   6.953   1.993
 4901TIP3    H114656   2.599   6.881   1.993
 4901TIP3    H214657   2.590   7.030   1.974
 4902TIP3   OH214658   2.330   7.248   2.065
 4902TIP3    H114659   2.381   7.233   1.982
 4902TIP3    H214660   2.345   7.342   2.078
 4903TIP3   OH214661   4.275   7.260   2.204
 4903TIP3    H114662   4.189   7.305   2.220
 4903TIP3    H214663   4.243   7.184   2.150
 4904TIP3   OH214664   3.912   6.895   0.799
 4904TIP3    H114665   3.947   6.826   0.739
 4904TIP3    H214666   3.982   6.963   0.796
 4905TIP3   OH214667   2.322   6.735   1.560
 4905TIP3    H114668   2.229   6.723   1.587
 4905TIP3    H214669   2.312   6.788   1.478
 4906TIP3   OH214670   2.542   6.810   2.372
 4906TIP3    H114671   2.488   6.808   2.452
 4906TIP3    H214672   2.479   6.849   2.308
 4907TIP3   OH214673   4.177   7.025   2.093
 4907TIP3    H114674   4.088   7.011   2.055
 4907TIP3    H214675   4.216   6.935   2.085
 4908TIP3   OH214676   3.398   6.949   1.732
 4908TIP3    H114677   3.345   6.875   1.767
 4908TIP3    H214678   3.462   6.903   1.674
 4909TIP3   OH214679   3.898   6.834   1.622
 4909TIP3    H114680   3.935   6.880   1.543
 4909TIP3    H214681   3.802   6.847   1.609
 4910TIP3   OH214682   3.997   6.921   1.384
 4910TIP3    H114683   4.071   6.869   1.344
 4910TIP3    H214684   4.030   7.012   1.369
 4911TIP3   OH214685   2.628   6.651   1.726
 4911TIP3    H114686   2.535   6.619   1.730
 4911TIP3    H214687   2.675   6.565   1.721
 4912TIP3   OH214688   2.428   6.527   1.384
 4912TIP3    H114689   2.449   6.582   1.306
 4912TIP3    H214690   2.397   6.594   1.448
 4913TIP3   OH214691   3.082   6.680   1.610
 4913TIP3    H114692   3.133   6.727   1.541
 4913TIP3    H214693   3.106   6.730   1.689
 4914TIP3   OH214694   3.616   6.833   1.589
 4914TIP3    H114695   3.619   6.791   1.502
 4914TIP3    H214696   3.607   6.755   1.649
 4915TIP3   OH214697   3.650   6.762   1.157
 4915TIP3    H114698   3.566   6.806   1.178
 4915TIP3    H214699   3.635   6.674   1.197
 4916TIP3   OH214700   2.540   6.684   1.137
 4916TIP3    H114701   2.585   6.617   1.082
 4916TIP3    H214702   2.616   6.729   1.179
 4917TIP3   OH214703   3.042   6.848   1.241
 4917TIP3    H114704   3.108   6.806   1.299
 4917TIP3    H214705   3.057   6.942   1.266
 4918TIP3   OH214706   2.835   6.936   2.623
 4918TIP3    H114707   2.798   6.863   2.677
 4918TIP3    H214708   2.929   6.933   2.651
 4919TIP3   OH214709   3.090   6.934   2.739
 4919TIP3    H114710   3.171   6.904   2.696
 4919TIP3    H214711   3.074   6.863   2.804
 4920TIP3   OH214712   3.918   6.998   2.524
 4920TIP3    H114713   3.940   6.965   2.613
 4920TIP3    H214714   4.006   6.995   2.480
 4921TIP3   OH214715   4.086   7.433   1.053
 4921TIP3    H114716   4.044   7.502   1.106
 4921TIP3    H214717   4.009   7.385   1.019
 4922TIP3   OH214718   5.353   7.663   1.229
 4922TIP3    H114719   5.381   7.579   1.270
 4922TIP3    H214720   5.310   7.631   1.148
 4923TIP3   OH214721   4.677   7.297   1.207
 4923TIP3    H114722   4.650   7.368   1.144
 4923TIP3    H214723   4.629   7.221   1.167
 4924TIP3   OH214724   5.358   7.397   0.846
 4924TIP3    H114725   5.435   7.367   0.898
 4924TIP3    H214726   5.392   7.393   0.756
 4925TIP3   OH214727   4.288   7.485   1.329
 4925TIP3    H114728   4.378   7.483   1.365
 4925TIP3    H214729   4.301   7.441   1.243
 4926TIP3   OH214730   4.664   7.288   1.644
 4926TIP3    H114731   4.608   7.326   1.573
 4926TIP3    H214732   4.606   7.304   1.722
 4927TIP3   OH214733   5.576   7.359   1.018
 4927TIP3    H114734   5.525   7.366   1.101
 4927TIP3    H214735   5.635   7.435   1.021
 4928TIP3   OH214736   4.543   7.403   1.425
 4928TIP3    H114737   4.599   7.481   1.444
 4928TIP3    H214738   4.593   7.362   1.351
 4929TIP3   OH214739   5.732   7.363   1.371
 4929TIP3    H114740   5.644   7.390   1.341
 4929TIP3    H214741   5.788   7.380   1.292
 4930TIP3   OH214742   5.013   7.001   1.359
 4930TIP3    H114743   4.996   6.907   1.380
 4930TIP3    H214744   4.938   7.043   1.407
 4931TIP3   OH214745   4.779   7.081   1.492
 4931TIP3    H114746   4.691   7.052   1.460
 4931TIP3    H214747   4.752   7.162   1.541
 4932TIP3   OH214748   5.316   7.200   1.683
 4932TIP3    H114749   5.386   7.171   1.745
 4932TIP3    H214750   5.234   7.179   1.732
 4933TIP3   OH214751   5.569   7.633   1.599
 4933TIP3    H114752   5.516   7.632   1.682
 4933TIP3    H214753   5.542   7.717   1.558
 4934TIP3   OH214754   4.708   7.617   1.502
 4934TIP3    H114755   4.653   7.633   1.582
 4934TIP3    H214756   4.701   7.701   1.455
 4935TIP3   OH214757   4.574   7.459   1.018
 4935TIP3    H114758   4.484   7.424   1.035
 4935TIP3    H214759   4.590   7.427   0.927
 4936TIP3   OH214760   5.278   7.830   1.951
 4936TIP3    H114761   5.237   7.744   1.976
 4936TIP3    H214762   5.372   7.805   1.946
 4937TIP3   OH214763   5.243   7.594   0.995
 4937TIP3    H114764   5.173   7.626   0.937
 4937TIP3    H214765   5.279   7.518   0.943
 4938TIP3   OH214766   4.567   7.619   1.742
 4938TIP3    H114767   4.545   7.667   1.822
 4938TIP3    H214768   4.544   7.528   1.768
 4939TIP3   OH214769   4.120   7.147   1.303
 4939TIP3    H114770   4.197   7.180   1.352
 4939TIP3    H214771   4.157   7.112   1.220
 4940TIP3   OH214772   4.089   7.117   0.820
 4940TIP3    H114773   4.140   7.151   0.743
 4940TIP3    H214774   4.030   7.193   0.839
 4941TIP3   OH214775   4.933   7.291   1.079
 4941TIP3    H114776   4.850   7.298   1.131
 4941TIP3    H214777   4.998   7.314   1.148
 4942TIP3   OH214778   4.339   7.351   1.087
 4942TIP3    H114779   4.243   7.366   1.065
 4942TIP3    H214780   4.350   7.256   1.070
 4943TIP3   OH214781   4.640   7.395   0.758
 4943TIP3    H114782   4.737   7.386   0.770
 4943TIP3    H214783   4.630   7.491   0.743
 4944TIP3   OH214784   5.414   7.383   1.278
 4944TIP3    H114785   5.390   7.398   1.372
 4944TIP3    H214786   5.342   7.323   1.251
 4945TIP3   OH214787   5.022   7.605   1.188
 4945TIP3    H114788   5.116   7.597   1.168
 4945TIP3    H214789   5.021   7.605   1.285
 4946TIP3   OH214790   4.526   7.113   1.063
 4946TIP3    H114791   4.482   7.044   1.117
 4946TIP3    H214792   4.569   7.057   0.996
 4947TIP3   OH214793   4.969   7.522   1.469
 4947TIP3    H114794   4.883   7.567   1.468
 4947TIP3    H214795   5.026   7.584   1.519
 4948TIP3   OH214796   4.497   7.368   1.854
 4948TIP3    H114797   4.399   7.369   1.861
 4948TIP3    H214798   4.522   7.312   1.928
 4949TIP3   OH214799   5.347   7.439   1.542
 4949TIP3    H114800   5.425   7.478   1.586
 4949TIP3    H214801   5.333   7.357   1.595
 4950TIP3   OH214802   4.907   7.370   0.815
 4950TIP3    H114803   4.950   7.456   0.804
 4950TIP3    H214804   4.916   7.355   0.912
 4951TIP3   OH214805   5.148   7.649   1.630
 4951TIP3    H114806   5.196   7.698   1.697
 4951TIP3    H214807   5.213   7.582   1.602
 4952TIP3   OH214808   5.051   7.094   0.923
 4952TIP3    H114809   5.016   7.164   0.982
 4952TIP3    H214810   5.128   7.140   0.885
 4953TIP3   OH214811   4.560   7.078   0.731
 4953TIP3    H114812   4.558   7.162   0.777
 4953TIP3    H214813   4.657   7.064   0.724
 4954TIP3   OH214814   5.838   7.577   1.542
 4954TIP3    H114815   5.753   7.614   1.575
 4954TIP3    H214816   5.804   7.501   1.493
 4955TIP3   OH214817   5.460   7.787   0.973
 4955TIP3    H114818   5.394   7.721   0.997
 4955TIP3    H214819   5.521   7.783   1.047
 4956TIP3   OH214820   4.127   7.274   0.593
 4956TIP3    H114821   4.143   7.361   0.633
 4956TIP3    H214822   4.031   7.277   0.583
 4957TIP3   OH214823   4.514   7.002   1.458
 4957TIP3    H114824   4.484   6.967   1.371
 4957TIP3    H214825   4.502   6.924   1.516
 4958TIP3   OH214826   4.904   7.560   1.882
 4958TIP3    H114827   4.910   7.472   1.839
 4958TIP3    H214828   4.889   7.615   1.804
 4959TIP3   OH214829   4.921   7.360   1.696
 4959TIP3    H114830   4.950   7.405   1.613
 4959TIP3    H214831   4.828   7.339   1.674
 4960TIP3   OH214832   5.565   7.837   1.916
 4960TIP3    H114833   5.611   7.755   1.937
 4960TIP3    H214834   5.612   7.903   1.971
 4961TIP3   OH214835   4.789   7.685   2.102
 4961TIP3    H114836   4.719   7.622   2.127
 4961TIP3    H214837   4.822   7.644   2.018
 4962TIP3   OH214838   5.054   7.126   1.764
 4962TIP3    H114839   5.004   7.206   1.739
 4962TIP3    H214840   4.986   7.056   1.753
 4963TIP3   OH214841   5.174   7.575   1.973
 4963TIP3    H114842   5.146   7.569   2.066
 4963TIP3    H214843   5.088   7.562   1.929
 4964TIP3   OH214844   5.413   7.582   1.822
 4964TIP3    H114845   5.336   7.559   1.878
 4964TIP3    H214846   5.488   7.556   1.879
 4965TIP3   OH214847   5.646   7.530   1.975
 4965TIP3    H114848   5.661   7.434   1.989
 4965TIP3    H214849   5.641   7.564   2.067
 4966TIP3   OH214850   4.634   7.461   2.172
 4966TIP3    H114851   4.636   7.368   2.141
 4966TIP3    H214852   4.673   7.450   2.261
 4967TIP3   OH214853   5.145   7.140   2.022
 4967TIP3    H114854   5.211   7.067   2.017
 4967TIP3    H214855   5.107   7.135   1.932
 4968TIP3   OH214856   5.210   7.350   2.185
 4968TIP3    H114857   5.194   7.279   2.119
 4968TIP3    H214858   5.130   7.404   2.176
 4969TIP3   OH214859   4.367   7.511   2.141
 4969TIP3    H114860   4.465   7.508   2.143
 4969TIP3    H214861   4.346   7.420   2.171
 4970TIP3   OH214862   6.194   7.372   1.902
 4970TIP3    H114863   6.255   7.311   1.857
 4970TIP3    H214864   6.162   7.426   1.827
 4971TIP3   OH214865   4.329   7.210   1.480
 4971TIP3    H114866   4.394   7.137   1.481
 4971TIP3    H214867   4.386   7.286   1.462
 4972TIP3   OH214868   4.127   7.504   1.551
 4972TIP3    H114869   4.176   7.488   1.467
 4972TIP3    H214870   4.148   7.597   1.566
 4973TIP3   OH214871   6.056   7.502   1.708
 4973TIP3    H114872   5.992   7.572   1.689
 4973TIP3    H214873   6.025   7.434   1.645
 4974TIP3   OH214874   4.119   6.994   1.057
 4974TIP3    H114875   4.025   6.977   1.079
 4974TIP3    H214876   4.110   7.042   0.972
 4975TIP3   OH214877   4.338   7.069   1.859
 4975TIP3    H114878   4.284   7.065   1.940
 4975TIP3    H214879   4.274   7.104   1.795
 4976TIP3   OH214880   5.968   7.272   1.578
 4976TIP3    H114881   5.877   7.256   1.548
 4976TIP3    H214882   6.006   7.182   1.568
 4977TIP3   OH214883   5.194   7.199   1.208
 4977TIP3    H114884   5.141   7.130   1.251
 4977TIP3    H214885   5.259   7.148   1.157
 4978TIP3   OH214886   5.699   7.095   1.090
 4978TIP3    H114887   5.711   7.181   1.047
 4978TIP3    H214888   5.601   7.091   1.093
 4979TIP3   OH214889   4.423   6.908   1.213
 4979TIP3    H114890   4.330   6.876   1.216
 4979TIP3    H214891   4.471   6.823   1.207
 4980TIP3   OH214892   4.230   6.780   0.876
 4980TIP3    H114893   4.261   6.833   0.799
 4980TIP3    H214894   4.199   6.849   0.937
 4981TIP3   OH214895   4.869   6.939   1.101
 4981TIP3    H114896   4.927   6.980   1.036
 4981TIP3    H214897   4.901   6.979   1.184
 4982TIP3   OH214898   5.415   7.076   1.069
 4982TIP3    H114899   5.425   7.026   0.988
 4982TIP3    H214900   5.404   7.004   1.135
 4983TIP3   OH214901   4.341   6.917   0.670
 4983TIP3    H114902   4.364   6.882   0.583
 4983TIP3    H214903   4.418   6.975   0.689
 4984TIP3   OH214904   4.830   7.110   0.749
 4984TIP3    H114905   4.902   7.070   0.800
 4984TIP3    H214906   4.858   7.204   0.751
 4985TIP3   OH214907   4.633   7.186   2.109
 4985TIP3    H114908   4.599   7.114   2.164
 4985TIP3    H214909   4.728   7.186   2.136
 4986TIP3   OH214910   4.887   7.190   2.225
 4986TIP3    H114911   4.971   7.163   2.185
 4986TIP3    H214912   4.874   7.120   2.292
 4987TIP3   OH214913   5.710   7.257   2.011
 4987TIP3    H114914   5.727   7.225   2.102
 4987TIP3    H214915   5.799   7.248   1.970
 4988TIP3   OH214916   6.118   7.322   1.339
 4988TIP3    H114917   6.074   7.315   1.426
 4988TIP3    H214918   6.045   7.354   1.282
 4989TIP3   OH214919   1.625   0.363   5.566
 4989TIP3    H114920   1.607   0.444   5.513
 4989TIP3    H214921   1.539   0.354   5.609
 4990TIP3   OH214922   1.871   0.640   5.620
 4990TIP3    H114923   1.862   0.580   5.695
 4990TIP3    H214924   1.900   0.723   5.663
 4991TIP3   OH214925   1.527   1.105   5.631
 4991TIP3    H114926   1.570   1.034   5.580
 4991TIP3    H214927   1.487   1.057   5.704
 4992TIP3   OH214928   2.482   0.066   6.186
 4992TIP3    H114929   2.425   0.128   6.137
 4992TIP3    H214930   2.562   0.118   6.202
 4993TIP3   OH214931   1.508   0.555   5.417
 4993TIP3    H114932   1.485   0.555   5.322
 4993TIP3    H214933   1.466   0.639   5.446
 4994TIP3   OH214934   1.941   0.883   5.773
 4994TIP3    H114935   1.852   0.877   5.817
 4994TIP3    H214936   1.933   0.971   5.731
 4995TIP3   OH214937   1.640   0.923   5.452
 4995TIP3    H114938   1.689   0.840   5.432
 4995TIP3    H214939   1.703   0.988   5.415
 4996TIP3   OH214940   1.783   0.705   5.364
 4996TIP3    H114941   1.773   0.625   5.311
 4996TIP3    H214942   1.819   0.671   5.449
 4997TIP3   OH214943   2.161   0.792   6.127
 4997TIP3    H114944   2.151   0.718   6.064
 4997TIP3    H214945   2.140   0.869   6.069
 4998TIP3   OH214946   2.360   0.432   5.974
 4998TIP3    H114947   2.276   0.485   5.976
 4998TIP3    H214948   2.392   0.457   5.884
 4999TIP3   OH214949   1.808   0.293   5.364
 4999TIP3    H114950   1.759   0.314   5.446
 4999TIP3    H214951   1.893   0.261   5.401
 5000TIP3   OH214952   2.087   0.350   6.272
 5000TIP3    H114953   2.072   0.419   6.340
 5000TIP3    H214954   2.029   0.385   6.201
 5001TIP3   OH214955   1.705   0.878   5.902
 5001TIP3    H114956   1.671   0.959   5.946
 5001TIP3    H214957   1.675   0.806   5.961
 5002TIP3   OH214958   1.669   0.111   5.195
 5002TIP3    H114959   1.716   0.186   5.237
 5002TIP3    H214960   1.675   0.135   5.100
 5003TIP3   OH214961   1.394   0.798   5.457
 5003TIP3    H114962   1.475   0.854   5.459
 5003TIP3    H214963   1.328   0.857   5.419
 5004TIP3   OH214964   1.961   0.736   4.781
 5004TIP3    H114965   1.972   0.832   4.764
 5004TIP3    H214966   2.052   0.703   4.766
 5005TIP3   OH214967   2.402   1.145   6.179
 5005TIP3    H114968   2.399   1.048   6.194
 5005TIP3    H214969   2.317   1.171   6.222
 5006TIP3   OH214970   1.499   0.926   6.334
 5006TIP3    H114971   1.514   1.023   6.342
 5006TIP3    H214972   1.406   0.923   6.358
 5007TIP3   OH214973   1.275   1.054   5.255
 5007TIP3    H114974   1.216   1.042   5.179
 5007TIP3    H214975   1.241   1.137   5.294
 5008TIP3   OH214976   1.464   0.951   4.899
 5008TIP3    H114977   1.525   0.883   4.863
 5008TIP3    H214978   1.500   0.965   4.989
 5009TIP3   OH214979   1.526   1.005   5.163
 5009TIP3    H114980   1.437   1.017   5.204
 5009TIP3    H214981   1.578   0.974   5.238
 5010TIP3   OH214982   2.301   0.287   6.475
 5010TIP3    H114983   2.221   0.329   6.437
 5010TIP3    H214984   2.285   0.194   6.453
 5011TIP3   OH214985   1.727   0.177   4.925
 5011TIP3    H114986   1.701   0.137   4.840
 5011TIP3    H214987   1.813   0.214   4.899
 5012TIP3   OH214988   2.100   1.487   6.275
 5012TIP3    H114989   2.093   1.516   6.182
 5012TIP3    H214990   2.178   1.538   6.305
 5013TIP3   OH214991   2.127   0.578   5.957
 5013TIP3    H114992   2.155   0.631   5.879
 5013TIP3    H214993   2.046   0.534   5.923
 5014TIP3   OH214994   1.637   0.687   6.333
 5014TIP3    H114995   1.613   0.665   6.425
 5014TIP3    H214996   1.595   0.775   6.324
 5015TIP3   OH214997   7.809   5.966   2.295
 5015TIP3    H114998   7.906   5.970   2.286
 5015TIP3    H214999   7.782   6.039   2.236
 5016TIP3   OH215000   1.377   0.501   5.157
 5016TIP3    H115001   1.330   0.588   5.152
 5016TIP3    H215002   1.312   0.448   5.205
 5017TIP3   OH215003   1.800   0.921   6.226
 5017TIP3    H115004   1.704   0.931   6.227
 5017TIP3    H215005   1.825   0.981   6.300
 5018TIP3   OH215006   2.199  -0.003   5.122
 5018TIP3    H115007   2.135  -0.051   5.064
 5018TIP3    H215008   2.181   0.087   5.087
 5019TIP3   OH215009   2.412   0.851   6.214
 5019TIP3    H115010   2.314   0.847   6.203
 5019TIP3    H215011   2.439   0.822   6.124
 5020TIP3   OH215012   1.901   0.812   5.046
 5020TIP3    H115013   1.864   0.744   5.104
 5020TIP3    H215014   1.909   0.766   4.961
 5021TIP3   OH215015   1.906   0.433   5.876
 5021TIP3    H115016   1.840   0.397   5.936
 5021TIP3    H215017   1.929   0.354   5.823
 5022TIP3   OH215018   1.352   0.997   6.039
 5022TIP3    H115019   1.289   1.066   6.066
 5022TIP3    H215020   1.374   0.960   6.125
 5023TIP3   OH215021   0.918   0.931   5.469
 5023TIP3    H115022   0.859   0.921   5.545
 5023TIP3    H215023   0.949   1.023   5.479
 5024TIP3   OH215024   1.690   0.644   6.063
 5024TIP3    H115025   1.671   0.656   6.158
 5024TIP3    H215026   1.784   0.622   6.065
 5025TIP3   OH215027   1.657   0.550   4.953
 5025TIP3    H115028   1.714   0.523   5.029
 5025TIP3    H215029   1.572   0.512   4.979
 5026TIP3   OH215030   1.922   1.175   6.105
 5026TIP3    H115031   1.840   1.124   6.097
 5026TIP3    H215032   1.909   1.241   6.033
 5027TIP3   OH215033   1.994   1.014   4.763
 5027TIP3    H115034   2.035   1.095   4.726
 5027TIP3    H215035   1.909   1.053   4.795
 5028TIP3   OH215036   1.820   0.483   5.165
 5028TIP3    H115037   1.807   0.413   5.232
 5028TIP3    H215038   1.916   0.471   5.147
 5029TIP3   OH215039   1.230   0.723   5.141
 5029TIP3    H115040   1.142   0.725   5.187
 5029TIP3    H215041   1.241   0.818   5.128
 5030TIP3   OH215042   0.999   0.812   5.241
 5030TIP3    H115043   0.954   0.875   5.181
 5030TIP3    H215044   0.970   0.846   5.329
 5031TIP3   OH215045   2.265   0.039   6.364
 5031TIP3    H115046   2.198   0.065   6.299
 5031TIP3    H215047   2.347   0.044   6.311
 5032TIP3   OH215048   1.957   0.181   5.767
 5032TIP3    H115049   1.890   0.123   5.806
 5032TIP3    H215050   2.040   0.142   5.803
 5033TIP3   OH215051   1.950   1.152   5.703
 5033TIP3    H115052   1.907   1.198   5.627
 5033TIP3    H215053   2.044   1.171   5.682
 5034TIP3   OH215054   1.173   0.712   4.856
 5034TIP3    H115055   1.166   0.683   4.949
 5034TIP3    H215056   1.248   0.658   4.826
 5035TIP3   OH215057   1.836   1.072   6.452
 5035TIP3    H115058   1.834   0.999   6.519
 5035TIP3    H215059   1.914   1.123   6.482
 5036TIP3   OH215060   1.617   0.757   4.774
 5036TIP3    H115061   1.647   0.689   4.837
 5036TIP3    H215062   1.679   0.746   4.699
 5037TIP3   OH215063   1.357   0.465   4.887
 5037TIP3    H115064   1.356   0.471   4.985
 5037TIP3    H215065   1.371   0.368   4.877
 5038TIP3   OH215066   1.943   0.682   6.252
 5038TIP3    H115067   2.021   0.726   6.213
 5038TIP3    H215068   1.879   0.757   6.251
 5039TIP3   OH215069   1.862   0.635   6.679
 5039TIP3    H115070   1.938   0.601   6.629
 5039TIP3    H215071   1.829   0.551   6.717
 5040TIP3   OH215072   1.958   0.256   4.781
 5040TIP3    H115073   1.975   0.240   4.686
 5040TIP3    H215074   1.912   0.343   4.770
 5041TIP3   OH215075   2.077   0.559   6.455
 5041TIP3    H115076   2.014   0.608   6.398
 5041TIP3    H215077   2.162   0.588   6.415
 5042TIP3   OH215078   0.928   1.000   5.044
 5042TIP3    H115079   1.023   0.987   5.028
 5042TIP3    H215080   0.906   1.057   4.968
 5043TIP3   OH215081   2.209   1.231   5.668
 5043TIP3    H115082   2.228   1.269   5.756
 5043TIP3    H215083   2.265   1.285   5.610
 5044TIP3   OH215084   2.226   1.260   5.949
 5044TIP3    H115085   2.182   1.173   5.945
 5044TIP3    H215086   2.302   1.238   6.005
 5045TIP3   OH215087   2.278   0.938   6.520
 5045TIP3    H115088   2.204   0.950   6.583
 5045TIP3    H215089   2.320   1.027   6.524
 5046TIP3   OH215090   2.094   0.448   5.135
 5046TIP3    H115091   2.157   0.516   5.104
 5046TIP3    H215092   2.142   0.412   5.213
 5047TIP3   OH215093   2.224   0.315   5.342
 5047TIP3    H115094   2.155   0.278   5.402
 5047TIP3    H215095   2.288   0.353   5.405
 5048TIP3   OH215096   2.282   0.715   5.775
 5048TIP3    H115097   2.330   0.646   5.724
 5048TIP3    H215098   2.279   0.789   5.711
 5049TIP3   OH215099   2.101   1.010   5.969
 5049TIP3    H115100   2.028   1.056   6.016
 5049TIP3    H215101   2.053   0.969   5.894
 5050TIP3   OH215102   2.146   0.225   4.979
 5050TIP3    H115103   2.078   0.228   4.907
 5050TIP3    H215104   2.116   0.302   5.033
 5051TIP3   OH215105   2.037  -0.112   4.940
 5051TIP3    H115106   2.060  -0.063   4.859
 5051TIP3    H215107   1.955  -0.156   4.912
 5052TIP3   OH215108   2.032   0.185   5.493
 5052TIP3    H115109   2.024   0.092   5.464
 5052TIP3    H215110   2.009   0.180   5.588
 5053TIP3   OH215111   2.322   0.608   6.343
 5053TIP3    H115112   2.390   0.540   6.324
 5053TIP3    H215113   2.346   0.679   6.282
 5054TIP3   OH215114   2.507   0.408   6.334
 5054TIP3    H115115   2.448   0.359   6.395
 5054TIP3    H215116   2.592   0.362   6.348
 5055TIP3   OH215117   2.012  -0.071   5.343
 5055TIP3    H115118   2.057  -0.118   5.416
 5055TIP3    H215119   2.080  -0.069   5.273
 5056TIP3   OH215120   2.190   0.084   5.874
 5056TIP3    H115121   2.277   0.091   5.832
 5056TIP3    H215122   2.209   0.126   5.960
 5057TIP3   OH215123   2.265   0.216   6.107
 5057TIP3    H115124   2.204   0.266   6.165
 5057TIP3    H215125   2.303   0.291   6.056
 5058TIP3   OH215126   1.790   1.103   5.319
 5058TIP3    H115127   1.844   1.103   5.237
 5058TIP3    H215128   1.828   1.177   5.369
 5059TIP3   OH215129   1.500   1.191   6.389
 5059TIP3    H115130   1.539   1.192   6.479
 5059TIP3    H215131   1.567   1.244   6.339
 5060TIP3   OH215132   1.692   1.331   6.259
 5060TIP3    H115133   1.767   1.295   6.208
 5060TIP3    H215134   1.739   1.397   6.315
 5061TIP3   OH215135   1.661   1.152   5.986
 5061TIP3    H115136   1.568   1.177   5.973
 5061TIP3    H215137   1.707   1.223   5.939
 5062TIP3   OH215138   1.875   1.338   5.894
 5062TIP3    H115139   1.860   1.423   5.848
 5062TIP3    H215140   1.900   1.279   5.819
 5063TIP3   OH215141   1.122   0.958   5.891
 5063TIP3    H115142   1.130   0.912   5.808
 5063TIP3    H215143   1.214   0.968   5.921
 5064TIP3   OH215144   1.200   0.958   4.989
 5064TIP3    H115145   1.290   0.977   4.957
 5064TIP3    H215146   1.177   0.884   4.930
 5065TIP3   OH215147   1.936   1.080   5.084
 5065TIP3    H115148   1.928   0.982   5.077
 5065TIP3    H215149   1.885   1.108   5.006
 5066TIP3   OH215150   2.150   1.217   6.271
 5066TIP3    H115151   2.072   1.190   6.218
 5066TIP3    H215152   2.133   1.313   6.279
 5067TIP3   OH215153   3.423   0.596   5.031
 5067TIP3    H115154   3.390   0.685   5.009
 5067TIP3    H215155   3.348   0.542   5.002
 5068TIP3   OH215156   3.422   0.592   5.427
 5068TIP3    H115157   3.460   0.572   5.515
 5068TIP3    H215158   3.382   0.507   5.403
 5069TIP3   OH215159   2.717   0.495   5.783
 5069TIP3    H115160   2.749   0.424   5.842
 5069TIP3    H215161   2.800   0.541   5.765
 5070TIP3   OH215162   3.671   0.898   5.106
 5070TIP3    H115163   3.650   0.832   5.174
 5070TIP3    H215164   3.701   0.974   5.160
 5071TIP3   OH215165   2.696   0.897   5.504
 5071TIP3    H115166   2.687   0.799   5.504
 5071TIP3    H215167   2.793   0.906   5.496
 5072TIP3   OH215168   2.388   0.089   5.296
 5072TIP3    H115169   2.343   0.172   5.321
 5072TIP3    H215170   2.320   0.050   5.238
 5073TIP3   OH215171   2.457   0.384   5.476
 5073TIP3    H115172   2.509   0.305   5.504
 5073TIP3    H215173   2.521   0.432   5.420
 5074TIP3   OH215174   3.323   1.358   5.123
 5074TIP3    H115175   3.359   1.286   5.067
 5074TIP3    H215176   3.308   1.312   5.206
 5075TIP3   OH215177   3.217   0.819   5.470
 5075TIP3    H115178   3.260   0.742   5.428
 5075TIP3    H215179   3.298   0.868   5.496
 5076TIP3   OH215180   3.633   0.302   5.513
 5076TIP3    H115181   3.670   0.216   5.535
 5076TIP3    H215182   3.600   0.289   5.422
 5077TIP3   OH215183   2.971   0.008   5.491
 5077TIP3    H115184   2.946   0.075   5.424
 5077TIP3    H215185   2.962  -0.074   5.438
 5078TIP3   OH215186   3.654   0.100   5.089
 5078TIP3    H115187   3.732   0.085   5.147
 5078TIP3    H215188   3.691   0.095   5.000
 5079TIP3   OH215189   2.600   0.171   5.572
 5079TIP3    H115190   2.678   0.150   5.629
 5079TIP3    H215191   2.624   0.119   5.493
 5080TIP3   OH215192   3.042   0.379   5.374
 5080TIP3    H115193   3.137   0.356   5.386
 5080TIP3    H215194   3.006   0.295   5.340
 5081TIP3   OH215195   4.286   0.333   5.625
 5081TIP3    H115196   4.214   0.395   5.606
 5081TIP3    H215197   4.339   0.381   5.690
 5082TIP3   OH215198   3.306   0.812   4.903
 5082TIP3    H115199   3.268   0.805   4.814
 5082TIP3    H215200   3.260   0.893   4.935
 5083TIP3   OH215201   3.072   0.738   5.687
 5083TIP3    H115202   3.015   0.810   5.722
 5083TIP3    H215203   3.117   0.782   5.612
 5084TIP3   OH215204   2.825   0.095   5.702
 5084TIP3    H115205   2.891   0.160   5.734
 5084TIP3    H215206   2.876   0.053   5.629
 5085TIP3   OH215207   2.906   0.939   5.790
 5085TIP3    H115208   2.881   1.027   5.755
 5085TIP3    H215209   2.826   0.920   5.843
 5086TIP3   OH215210   2.290   0.625   5.025
 5086TIP3    H115211   2.249   0.652   4.940
 5086TIP3    H215212   2.322   0.712   5.059
 5087TIP3   OH215213   3.733   1.143   5.265
 5087TIP3    H115214   3.644   1.133   5.305
 5087TIP3    H215215   3.724   1.229   5.220
 5088TIP3   OH215216   3.429   1.183   4.933
 5088TIP3    H115217   3.480   1.101   4.917
 5088TIP3    H215218   3.493   1.249   4.897
 5089TIP3   OH215219   3.576   0.967   4.856
 5089TIP3    H115220   3.538   0.886   4.821
 5089TIP3    H215221   3.618   0.935   4.940
 5090TIP3   OH215222   3.959   1.048   5.611
 5090TIP3    H115223   3.945   0.972   5.551
 5090TIP3    H215224   3.939   1.124   5.552
 5091TIP3   OH215225   3.250   0.448   4.871
 5091TIP3    H115226   3.171   0.502   4.851
 5091TIP3    H215227   3.297   0.448   4.786
 5092TIP3   OH215228   3.202   0.236   4.586
 5092TIP3    H115229   3.266   0.290   4.636
 5092TIP3    H215230   3.264   0.176   4.539
 5093TIP3   OH215231   4.156   0.698   5.462
 5093TIP3    H115232   4.070   0.745   5.462
 5093TIP3    H215233   4.186   0.718   5.370
 5094TIP3   OH215234   3.603   0.528   4.837
 5094TIP3    H115235   3.547   0.551   4.915
 5094TIP3    H215236   3.687   0.504   4.882
 5095TIP3   OH215237   3.826   0.571   5.748
 5095TIP3    H115238   3.824   0.648   5.809
 5095TIP3    H215239   3.737   0.578   5.708
 5096TIP3   OH215240   2.832   0.521   5.259
 5096TIP3    H115241   2.796   0.463   5.189
 5096TIP3    H215242   2.909   0.468   5.292
 5097TIP3   OH215243   2.961   0.935   5.404
 5097TIP3    H115244   2.944   0.908   5.312
 5097TIP3    H215245   3.050   0.896   5.421
 5098TIP3   OH215246   2.964   0.492   5.617
 5098TIP3    H115247   2.997   0.464   5.529
 5098TIP3    H215248   3.010   0.577   5.630
 5099TIP3   OH215249   3.495   1.134   5.391
 5099TIP3    H115250   3.481   1.214   5.444
 5099TIP3    H215251   3.476   1.062   5.454
 5100TIP3   OH215252   3.109   1.051   5.938
 5100TIP3    H115253   3.046   1.112   5.983
 5100TIP3    H215254   3.046   0.998   5.884
 5101TIP3   OH215255   3.430   0.397   4.666
 5101TIP3    H115256   3.493   0.457   4.712
 5101TIP3    H215257   3.458   0.410   4.572
 5102TIP3   OH215258   2.868   0.603   6.052
 5102TIP3    H115259   2.872   0.694   6.087
 5102TIP3    H215260   2.772   0.586   6.057
 5103TIP3   OH215261   3.187   1.059   4.944
 5103TIP3    H115262   3.271   1.109   4.944
 5103TIP3    H215263   3.128   1.119   4.897
 5104TIP3   OH215264   2.901   1.213   6.025
 5104TIP3    H115265   2.866   1.221   5.934
 5104TIP3    H215266   2.820   1.193   6.076
 5105TIP3   OH215267   2.705   0.369   5.050
 5105TIP3    H115268   2.630   0.413   5.004
 5105TIP3    H215269   2.665   0.286   5.078
 5106TIP3   OH215270   3.757   0.990   4.268
 5106TIP3    H115271   3.764   1.086   4.250
 5106TIP3    H215272   3.849   0.961   4.254
 5107TIP3   OH215273   2.477   0.753   5.972
 5107TIP3    H115274   2.410   0.736   5.902
 5107TIP3    H215275   2.520   0.666   5.984
 5108TIP3   OH215276   2.333   0.943   5.607
 5108TIP3    H115277   2.429   0.946   5.599
 5108TIP3    H215278   2.315   1.024   5.656
 5109TIP3   OH215279   4.196   1.401   5.662
 5109TIP3    H115280   4.196   1.305   5.678
 5109TIP3    H215281   4.113   1.426   5.708
 5110TIP3   OH215282   3.303   1.179   5.795
 5110TIP3    H115283   3.297   1.272   5.826
 5110TIP3    H215284   3.231   1.138   5.848
 5111TIP3   OH215285   3.071   1.306   4.748
 5111TIP3    H115286   3.023   1.289   4.665
 5111TIP3    H215287   3.035   1.392   4.776
 5112TIP3   OH215288   2.504   1.156   5.134
 5112TIP3    H115289   2.551   1.148   5.220
 5112TIP3    H215290   2.456   1.071   5.131
 5113TIP3   OH215291   3.266   1.212   4.384
 5113TIP3    H115292   3.324   1.141   4.348
 5113TIP3    H215293   3.302   1.223   4.474
 5114TIP3   OH215294   3.321   1.261   4.652
 5114TIP3    H115295   3.232   1.270   4.693
 5114TIP3    H215296   3.372   1.226   4.726
 5115TIP3   OH215297   4.092   0.549   5.967
 5115TIP3    H115298   4.006   0.576   5.931
 5115TIP3    H215299   4.099   0.457   5.934
 5116TIP3   OH215300   2.684   0.933   5.951
 5116TIP3    H115301   2.732   0.920   6.035
 5116TIP3    H215302   2.608   0.872   5.960
 5117TIP3   OH215303   3.850   0.296   5.793
 5117TIP3    H115304   3.802   0.294   5.878
 5117TIP3    H215305   3.831   0.386   5.762
 5118TIP3   OH215306   3.520   0.421   4.413
 5118TIP3    H115307   3.479   0.404   4.326
 5118TIP3    H215308   3.602   0.468   4.386
 5119TIP3   OH215309   3.026   0.272   5.773
 5119TIP3    H115310   2.971   0.301   5.849
 5119TIP3    H215311   3.011   0.348   5.712
 5120TIP3   OH215312   2.891   0.163   5.283
 5120TIP3    H115313   2.800   0.127   5.294
 5120TIP3    H215314   2.914   0.124   5.195
 5121TIP3   OH215315   3.383   0.257   5.018
 5121TIP3    H115316   3.335   0.326   4.966
 5121TIP3    H215317   3.443   0.220   4.950
 5122TIP3   OH215318   3.571   0.544   6.064
 5122TIP3    H115319   3.533   0.484   6.132
 5122TIP3    H215320   3.664   0.548   6.094
 5123TIP3   OH215321   3.539   0.283   5.252
 5123TIP3    H115322   3.472   0.317   5.189
 5123TIP3    H215323   3.574   0.210   5.196
 5124TIP3   OH215324   2.833   0.317   5.960
 5124TIP3    H115325   2.854   0.380   6.032
 5124TIP3    H215326   2.801   0.239   6.007
 5125TIP3   OH215327   2.899  -0.180   4.659
 5125TIP3    H115328   2.901  -0.123   4.738
 5125TIP3    H215329   2.804  -0.186   4.646
 5126TIP3   OH215330   2.401  -0.179   5.046
 5126TIP3    H115331   2.445  -0.123   4.979
 5126TIP3    H215332   2.339  -0.113   5.084
 5127TIP3   OH215333   3.552   0.514   5.660
 5127TIP3    H115334   3.587   0.441   5.603
 5127TIP3    H215335   3.520   0.461   5.736
 5128TIP3   OH215336   3.206   0.011   5.319
 5128TIP3    H115337   3.129   0.007   5.378
 5128TIP3    H215338   3.276  -0.014   5.382
 5129TIP3   OH215339   2.648   0.035   5.335
 5129TIP3    H115340   2.555   0.059   5.314
 5129TIP3    H215341   2.642  -0.061   5.333
 5130TIP3   OH215342   2.936   0.044   5.044
 5130TIP3    H115343   3.031   0.040   5.021
 5130TIP3    H215344   2.892   0.033   4.957
 5131TIP3   OH215345   2.794   0.035   4.802
 5131TIP3    H115346   2.701   0.059   4.796
 5131TIP3    H215347   2.836   0.094   4.736
 5132TIP3   OH215348   3.895   1.745   5.763
 5132TIP3    H115349   3.892   1.771   5.669
 5132TIP3    H215350   3.976   1.792   5.793
 5133TIP3   OH215351   2.847   0.855   6.179
 5133TIP3    H115352   2.927   0.884   6.227
 5133TIP3    H215353   2.782   0.858   6.251
 5134TIP3   OH215354   3.302   0.312   5.442
 5134TIP3    H115355   3.369   0.264   5.392
 5134TIP3    H215356   3.302   0.264   5.527
 5135TIP3   OH215357   3.292   0.219   5.712
 5135TIP3    H115358   3.202   0.244   5.740
 5135TIP3    H215359   3.349   0.270   5.772
 5136TIP3   OH215360   3.018   0.595   4.817
 5136TIP3    H115361   2.945   0.532   4.804
 5136TIP3    H215362   2.997   0.630   4.908
 5137TIP3   OH215363   3.918   0.833   5.442
 5137TIP3    H115364   3.941   0.885   5.362
 5137TIP3    H215365   3.834   0.790   5.415
 5138TIP3   OH215366   3.553  -0.045   4.632
 5138TIP3    H115367   3.460  -0.074   4.640
 5138TIP3    H215368   3.548   0.037   4.685
 5139TIP3   OH215369   3.416   0.914   5.818
 5139TIP3    H115370   3.457   0.903   5.905
 5139TIP3    H215371   3.381   1.005   5.823
 5140TIP3   OH215372   3.543   0.177   4.798
 5140TIP3    H115373   3.640   0.191   4.804
 5140TIP3    H215374   3.512   0.257   4.750
 5141TIP3   OH215375   2.714   0.617   5.490
 5141TIP3    H115376   2.753   0.591   5.403
 5141TIP3    H215377   2.766   0.564   5.551
 5142TIP3   OH215378   3.168   0.746   4.646
 5142TIP3    H115379   3.118   0.831   4.646
 5142TIP3    H215380   3.112   0.692   4.706
 5143TIP3   OH215381   2.603   0.538   6.102
 5143TIP3    H115382   2.616   0.530   6.198
 5143TIP3    H215383   2.526   0.480   6.089
 5144TIP3   OH215384   3.327   0.665   6.123
 5144TIP3    H115385   3.267   0.599   6.084
 5144TIP3    H215386   3.413   0.636   6.086
 5145TIP3   OH215387   3.577   1.174   5.716
 5145TIP3    H115388   3.481   1.175   5.729
 5145TIP3    H215389   3.606   1.228   5.793
 5146TIP3   OH215390   3.987   0.252   4.615
 5146TIP3    H115391   3.933   0.206   4.546
 5146TIP3    H215392   3.977   0.343   4.579
 5147TIP3   OH215393   4.209   1.111   5.699
 5147TIP3    H115394   4.111   1.104   5.690
 5147TIP3    H215395   4.236   1.080   5.610
 5148TIP3   OH215396   3.696   1.068   4.533
 5148TIP3    H115397   3.661   0.999   4.592
 5148TIP3    H215398   3.706   1.022   4.448
 5149TIP3   OH215399   3.685   0.698   5.357
 5149TIP3    H115400   3.591   0.673   5.372
 5149TIP3    H215401   3.718   0.616   5.315
 5150TIP3   OH215402   2.819   0.927   5.122
 5150TIP3    H115403   2.814   1.007   5.066
 5150TIP3    H215404   2.726   0.908   5.135
 5151TIP3   OH215405   2.387   0.220   4.843
 5151TIP3    H115406   2.424   0.310   4.859
 5151TIP3    H215407   2.303   0.227   4.894
 5152TIP3   OH215408   2.940   0.686   5.059
 5152TIP3    H115409   2.911   0.776   5.079
 5152TIP3    H215410   2.909   0.637   5.137
 5153TIP3   OH215411   3.088   1.266   5.586
 5153TIP3    H115412   3.130   1.339   5.537
 5153TIP3    H215413   3.165   1.228   5.633
 5154TIP3   OH215414   2.733   1.163   4.971
 5154TIP3    H115415   2.648   1.173   5.018
 5154TIP3    H215416   2.766   1.256   4.974
 5155TIP3   OH215417   3.466   0.902   5.550
 5155TIP3    H115418   3.455   0.900   5.648
 5155TIP3    H215419   3.547   0.849   5.539
 5156TIP3   OH215420   3.452   0.799   4.432
 5156TIP3    H115421   3.504   0.772   4.512
 5156TIP3    H215422   3.364   0.769   4.458
 5157TIP3   OH215423   3.719   1.430   5.596
 5157TIP3    H115424   3.638   1.377   5.591
 5157TIP3    H215425   3.703   1.495   5.524
 5158TIP3   OH215426   3.784   1.265   4.247
 5158TIP3    H115427   3.815   1.337   4.190
 5158TIP3    H215428   3.706   1.309   4.286
 5159TIP3   OH215429   3.613   0.726   4.644
 5159TIP3    H115430   3.603   0.662   4.717
 5159TIP3    H215431   3.711   0.723   4.632
 5160TIP3   OH215432   2.526   1.128   5.743
 5160TIP3    H115433   2.582   1.062   5.786
 5160TIP3    H215434   2.546   1.208   5.793
 5161TIP3   OH215435   2.813   0.774   4.433
 5161TIP3    H115436   2.823   0.681   4.407
 5161TIP3    H215437   2.790   0.767   4.527
 5162TIP3   OH215438   2.754   0.780   4.705
 5162TIP3    H115439   2.832   0.756   4.757
 5162TIP3    H215440   2.756   0.878   4.711
 5163TIP3   OH215441   2.486   0.470   4.910
 5163TIP3    H115442   2.419   0.518   4.964
 5163TIP3    H215443   2.499   0.536   4.839
 5164TIP3   OH215444   3.025   0.975   4.652
 5164TIP3    H115445   2.937   0.999   4.688
 5164TIP3    H215446   3.039   1.050   4.592
 5165TIP3   OH215447   3.217   0.041   5.049
 5165TIP3    H115448   3.266   0.126   5.046
 5165TIP3    H215449   3.210   0.028   5.147
 5166TIP3   OH215450   3.489   0.356   5.874
 5166TIP3    H115451   3.509   0.425   5.942
 5166TIP3    H215452   3.552   0.288   5.898
 5167TIP3   OH215453   2.772   1.051   4.723
 5167TIP3    H115454   2.743   1.122   4.661
 5167TIP3    H215455   2.755   1.094   4.810
 5168TIP3   OH215456   4.111   0.297   5.856
 5168TIP3    H115457   4.020   0.293   5.820
 5168TIP3    H215458   4.162   0.258   5.783
 5169TIP3   OH215459   3.771   0.453   5.246
 5169TIP3    H115460   3.695   0.393   5.261
 5169TIP3    H215461   3.843   0.406   5.293
 5170TIP3   OH215462   2.487   0.671   4.711
 5170TIP3    H115463   2.559   0.737   4.720
 5170TIP3    H215464   2.528   0.612   4.645
 5171TIP3   OH215465   2.427  -0.043   4.799
 5171TIP3    H115466   2.428   0.053   4.818
 5171TIP3    H215467   2.331  -0.059   4.793
 5172TIP3   OH215468   3.742   1.413   5.188
 5172TIP3    H115469   3.699   1.460   5.113
 5172TIP3    H215470   3.837   1.431   5.167
 5173TIP3   OH215471   2.348   0.890   5.093
 5173TIP3    H115472   2.293   0.922   5.166
 5173TIP3    H215473   2.308   0.937   5.016
 5174TIP3   OH215474   2.519   1.449   6.169
 5174TIP3    H115475   2.605   1.451   6.217
 5174TIP3    H215476   2.501   1.354   6.168
 5175TIP3   OH215477   2.988   1.393   6.217
 5175TIP3    H115478   3.084   1.382   6.221
 5175TIP3    H215479   2.964   1.331   6.145
 5176TIP3   OH215480   2.975   0.977   4.338
 5176TIP3    H115481   2.923   0.902   4.376
 5176TIP3    H215482   3.050   0.930   4.297
 5177TIP3   OH215483   3.632   1.309   5.949
 5177TIP3    H115484   3.627   1.239   6.019
 5177TIP3    H215485   3.709   1.362   5.979
 5178TIP3   OH215486   3.409   1.013   4.256
 5178TIP3    H115487   3.450   0.947   4.315
 5178TIP3    H215488   3.464   1.008   4.175
 5179TIP3   OH215489   2.643   0.848   6.370
 5179TIP3    H115490   2.658   0.752   6.377
 5179TIP3    H215491   2.556   0.851   6.324
 5180TIP3   OH215492   2.625   0.488   4.571
 5180TIP3    H115493   2.687   0.467   4.644
 5180TIP3    H215494   2.688   0.493   4.496
 5181TIP3   OH215495   3.249   0.936   6.146
 5181TIP3    H115496   3.209   0.959   6.059
 5181TIP3    H215497   3.282   0.845   6.132
 5182TIP3   OH215498   3.145   0.692   4.377
 5182TIP3    H115499   3.143   0.704   4.474
 5182TIP3    H215500   3.143   0.594   4.371
 5183TIP3   OH215501   3.741   0.949   5.754
 5183TIP3    H115502   3.819   0.988   5.709
 5183TIP3    H215503   3.674   1.018   5.735
 5184TIP3   OH215504   2.762   0.584   6.357
 5184TIP3    H115505   2.843   0.545   6.322
 5184TIP3    H215506   2.792   0.615   6.445
 5185TIP3   OH215507   2.821   0.402   4.781
 5185TIP3    H115508   2.804   0.370   4.872
 5185TIP3    H215509   2.866   0.327   4.739
 5186TIP3   OH215510   3.104   0.470   6.017
 5186TIP3    H115511   3.024   0.527   6.016
 5186TIP3    H215512   3.153   0.504   5.939
 5187TIP3   OH215513   2.929   0.194   4.624
 5187TIP3    H115514   2.909   0.210   4.529
 5187TIP3    H215515   3.027   0.197   4.622
 5188TIP3   OH215516   3.617   0.867   6.149
 5188TIP3    H115517   3.689   0.825   6.101
 5188TIP3    H215518   3.605   0.804   6.223
 5189TIP3   OH215519   3.751   0.518   4.295
 5189TIP3    H115520   3.730   0.479   4.208
 5189TIP3    H215521   3.719   0.610   4.278
 5190TIP3   OH215522   3.199   0.253   6.134
 5190TIP3    H115523   3.225   0.201   6.057
 5190TIP3    H215524   3.159   0.331   6.089
 5191TIP3   OH215525   3.247   0.575   5.820
 5191TIP3    H115526   3.332   0.592   5.779
 5191TIP3    H215527   3.188   0.638   5.773
 5192TIP3   OH215528   3.826   0.552   6.190
 5192TIP3    H115529   3.884   0.484   6.230
 5192TIP3    H215530   3.890   0.618   6.162
 5193TIP3   OH215531   3.872   0.791   5.930
 5193TIP3    H115532   3.812   0.848   5.877
 5193TIP3    H215533   3.958   0.820   5.893
 5194TIP3   OH215534   3.081   0.368   6.367
 5194TIP3    H115535   3.048   0.287   6.406
 5194TIP3    H215536   3.123   0.338   6.285
 5195TIP3   OH215537   3.440   0.367   6.216
 5195TIP3    H115538   3.447   0.326   6.304
 5195TIP3    H215539   3.354   0.331   6.188
 5196TIP3   OH215540   3.749   0.283   6.047
 5196TIP3    H115541   3.687   0.289   6.125
 5196TIP3    H215542   3.826   0.247   6.097
 5197TIP3   OH215543   2.742   1.254   4.535
 5197TIP3    H115544   2.837   1.243   4.515
 5197TIP3    H215545   2.716   1.308   4.458
 5198TIP3   OH215546   2.215   0.633   4.744
 5198TIP3    H115547   2.311   0.652   4.729
 5198TIP3    H215548   2.207   0.545   4.700
 5199TIP3   OH215549   2.140   1.247   5.165
 5199TIP3    H115550   2.072   1.189   5.124
 5199TIP3    H215551   2.182   1.186   5.228
 5200TIP3   OH215552   2.271   1.089   5.350
 5200TIP3    H115553   2.252   1.025   5.421
 5200TIP3    H215554   2.324   1.154   5.399
 5201TIP3   OH215555   4.001   1.496   5.153
 5201TIP3    H115556   4.026   1.527   5.242
 5201TIP3    H215557   4.068   1.536   5.097
 5202TIP3   OH215558   4.025   1.518   5.436
 5202TIP3    H115559   3.978   1.432   5.431
 5202TIP3    H215560   4.100   1.492   5.492
 5203TIP3   OH215561   4.073   1.194   6.010
 5203TIP3    H115562   4.002   1.206   6.075
 5203TIP3    H215563   4.116   1.282   6.012
 5204TIP3   OH215564   3.891   0.705   4.623
 5204TIP3    H115565   3.954   0.773   4.592
 5204TIP3    H215566   3.938   0.670   4.702
 5205TIP3   OH215567   4.020   0.571   4.828
 5205TIP3    H115568   3.951   0.536   4.888
 5205TIP3    H215569   4.085   0.610   4.891
 5206TIP3   OH215570   4.078   0.972   5.261
 5206TIP3    H115571   4.127   0.902   5.214
 5206TIP3    H215572   4.075   1.043   5.194
 5207TIP3   OH215573   3.898   1.269   5.454
 5207TIP3    H115574   3.825   1.311   5.504
 5207TIP3    H215575   3.849   1.225   5.381
 5208TIP3   OH215576   3.952   0.483   4.472
 5208TIP3    H115577   3.882   0.488   4.404
 5208TIP3    H215578   3.925   0.559   4.529
 5209TIP3   OH215579   3.833   0.154   4.417
 5209TIP3    H115580   3.779   0.214   4.364
 5209TIP3    H215581   3.786   0.071   4.403
 5210TIP3   OH215582   3.829   0.444   4.978
 5210TIP3    H115583   3.836   0.348   4.971
 5210TIP3    H215584   3.810   0.456   5.074
 5211TIP3   OH215585   2.452   0.496   5.727
 5211TIP3    H115586   2.449   0.465   5.634
 5211TIP3    H215587   2.550   0.506   5.740
 5212TIP3   OH215588   4.118   0.863   5.831
 5212TIP3    H115589   4.186   0.794   5.813
 5212TIP3    H215590   4.140   0.932   5.767
 5213TIP3   OH215591   4.302   0.662   5.823
 5213TIP3    H115592   4.241   0.616   5.885
 5213TIP3    H215593   4.388   0.620   5.845
 5214TIP3   OH215594   3.818   0.170   4.833
 5214TIP3    H115595   3.883   0.131   4.896
 5214TIP3    H215596   3.875   0.186   4.755
 5215TIP3   OH215597   3.992   0.343   5.369
 5215TIP3    H115598   4.079   0.357   5.327
 5215TIP3    H215599   4.006   0.386   5.455
 5216TIP3   OH215600   4.056   0.483   5.598
 5216TIP3    H115601   3.978   0.519   5.645
 5216TIP3    H215602   4.090   0.564   5.553
 5217TIP3   OH215603   2.716   0.221   6.354
 5217TIP3    H115604   2.792   0.237   6.411
 5217TIP3    H215605   2.662   0.162   6.411
 5218TIP3   OH215606   2.449   0.155   5.806
 5218TIP3    H115607   2.492   0.150   5.718
 5218TIP3    H215608   2.456   0.249   5.824
 5219TIP3   OH215609   3.581   1.368   4.807
 5219TIP3    H115610   3.633   1.359   4.725
 5219TIP3    H215611   3.631   1.434   4.856
 5220TIP3   OH215612   2.680   1.170   6.185
 5220TIP3    H115613   2.585   1.151   6.174
 5220TIP3    H215614   2.692   1.158   6.280
 5221TIP3   OH215615   2.863   1.209   5.737
 5221TIP3    H115616   2.814   1.285   5.699
 5221TIP3    H215617   2.948   1.223   5.691
 5222TIP3   OH215618   3.296   1.446   5.873
 5222TIP3    H115619   3.338   1.444   5.962
 5222TIP3    H215620   3.362   1.500   5.823
 5223TIP3   OH215621   3.478   1.603   5.740
 5223TIP3    H115622   3.547   1.553   5.696
 5223TIP3    H215623   3.531   1.660   5.800
 5224TIP3   OH215624   2.533   1.459   5.767
 5224TIP3    H115625   2.442   1.486   5.745
 5224TIP3    H215626   2.551   1.518   5.842
 5225TIP3   OH215627   2.769   1.440   5.624
 5225TIP3    H115628   2.681   1.451   5.666
 5225TIP3    H215629   2.751   1.471   5.533
 5226TIP3   OH215630   3.195   1.463   5.421
 5226TIP3    H115631   3.125   1.480   5.355
 5226TIP3    H215632   3.206   1.552   5.461
 5227TIP3   OH215633   3.465   1.402   5.474
 5227TIP3    H115634   3.371   1.421   5.454
 5227TIP3    H215635   3.510   1.474   5.426
 5228TIP3   OH215636   3.669   1.594   5.382
 5228TIP3    H115637   3.656   1.678   5.334
 5228TIP3    H215638   3.697   1.534   5.309
 5229TIP3   OH215639   2.446   1.252   5.502
 5229TIP3    H115640   2.470   1.223   5.592
 5229TIP3    H215641   2.520   1.210   5.452
 5230TIP3   OH215642   2.644   1.126   5.367
 5230TIP3    H115643   2.658   1.042   5.417
 5230TIP3    H215644   2.735   1.161   5.365
 5231TIP3   OH215645   2.911   1.216   5.375
 5231TIP3    H115646   2.939   1.123   5.365
 5231TIP3    H215647   2.961   1.240   5.455
 5232TIP3   OH215648   2.235   1.032   4.893
 5232TIP3    H115649   2.149   0.999   4.861
 5232TIP3    H215650   2.225   1.126   4.873
 5233TIP3   OH215651   3.008   1.206   4.482
 5233TIP3    H115652   3.095   1.232   4.444
 5233TIP3    H215653   2.985   1.133   4.420
 5234TIP3   OH215654   3.729   1.335   4.576
 5234TIP3    H115655   3.722   1.238   4.565
 5234TIP3    H215656   3.680   1.365   4.496
 5235TIP3   OH215657   2.310   1.047   4.531
 5235TIP3    H115658   2.317   1.058   4.627
 5235TIP3    H215659   2.396   1.003   4.510
 5236TIP3   OH215660   3.946   1.474   5.759
 5236TIP3    H115661   3.868   1.446   5.707
 5236TIP3    H215662   3.928   1.570   5.768
 5237TIP3   OH215663   5.220   0.848   4.515
 5237TIP3    H115664   5.195   0.941   4.498
 5237TIP3    H215665   5.135   0.804   4.502
 5238TIP3   OH215666   5.268   0.824   4.893
 5238TIP3    H115667   5.262   0.847   4.987
 5238TIP3    H215668   5.178   0.798   4.871
 5239TIP3   OH215669   4.514   0.751   5.270
 5239TIP3    H115670   4.548   0.680   5.327
 5239TIP3    H215671   4.596   0.799   5.250
 5240TIP3   OH215672   5.465   1.154   4.596
 5240TIP3    H115673   5.450   1.087   4.664
 5240TIP3    H215674   5.494   1.230   4.649
 5241TIP3   OH215675   4.483   1.151   4.994
 5241TIP3    H115676   4.479   1.053   4.996
 5241TIP3    H215677   4.577   1.165   4.972
 5242TIP3   OH215678   4.185   0.346   4.781
 5242TIP3    H115679   4.142   0.429   4.809
 5242TIP3    H215680   4.114   0.308   4.726
 5243TIP3   OH215681   4.254   0.642   4.961
 5243TIP3    H115682   4.306   0.564   4.989
 5243TIP3    H215683   4.322   0.697   4.917
 5244TIP3   OH215684   5.117   1.614   4.609
 5244TIP3    H115685   5.157   1.542   4.557
 5244TIP3    H215686   5.100   1.570   4.693
 5245TIP3   OH215687   5.426   0.553   5.008
 5245TIP3    H115688   5.465   0.466   5.021
 5245TIP3    H215689   5.393   0.550   4.916
 5246TIP3   OH215690   4.770   0.265   4.976
 5246TIP3    H115691   4.744   0.332   4.910
 5246TIP3    H215692   4.759   0.183   4.925
 5247TIP3   OH215693   5.444   0.345   4.578
 5247TIP3    H115694   5.521   0.339   4.639
 5247TIP3    H215695   5.487   0.352   4.492
 5248TIP3   OH215696   4.400   0.431   5.055
 5248TIP3    H115697   4.476   0.409   5.114
 5248TIP3    H215698   4.421   0.373   4.979
 5249TIP3   OH215699   4.834   0.630   4.856
 5249TIP3    H115700   4.928   0.606   4.874
 5249TIP3    H215701   4.801   0.545   4.820
 5250TIP3   OH215702   6.077   0.586   5.126
 5250TIP3    H115703   6.012   0.649   5.090
 5250TIP3    H215704   6.147   0.645   5.156
 5251TIP3   OH215705   5.110   1.073   4.383
 5251TIP3    H115706   5.065   1.062   4.298
 5251TIP3    H215707   5.062   1.151   4.418
 5252TIP3   OH215708   4.875   1.002   5.168
 5252TIP3    H115709   4.815   1.068   5.208
 5252TIP3    H215710   4.931   1.065   5.115
 5253TIP3   OH215711   4.623   0.355   5.188
 5253TIP3    H115712   4.689   0.418   5.220
 5253TIP3    H215713   4.674   0.310   5.118
 5254TIP3   OH215714   4.701   1.193   5.280
 5254TIP3    H115715   4.680   1.279   5.240
 5254TIP3    H215716   4.620   1.180   5.334
 5255TIP3   OH215717   4.087   0.882   4.513
 5255TIP3    H115718   4.046   0.910   4.429
 5255TIP3    H215719   4.118   0.968   4.547
 5256TIP3   OH215720   5.526   1.397   4.758
 5256TIP3    H115721   5.439   1.380   4.802
 5256TIP3    H215722   5.510   1.483   4.715
 5257TIP3   OH215723   5.226   1.440   4.419
 5257TIP3    H115724   5.279   1.358   4.406
 5257TIP3    H215725   5.290   1.506   4.383
 5258TIP3   OH215726   5.374   1.222   4.344
 5258TIP3    H115727   5.316   1.147   4.325
 5258TIP3    H215728   5.417   1.193   4.428
 5259TIP3   OH215729   5.759   1.308   5.097
 5259TIP3    H115730   5.738   1.229   5.044
 5259TIP3    H215731   5.736   1.380   5.035
 5260TIP3   OH215732   5.038   0.693   4.353
 5260TIP3    H115733   4.962   0.752   4.335
 5260TIP3    H215734   5.092   0.706   4.273
 5261TIP3   OH215735   5.008   0.489   4.070
 5261TIP3    H115736   5.063   0.548   4.125
 5261TIP3    H215737   5.077   0.432   4.031
 5262TIP3   OH215738   5.954   0.954   4.948
 5262TIP3    H115739   5.867   1.002   4.950
 5262TIP3    H215740   5.982   0.975   4.857
 5263TIP3   OH215741   5.400   0.781   4.322
 5263TIP3    H115742   5.344   0.804   4.400
 5263TIP3    H215743   5.484   0.759   4.367
 5264TIP3   OH215744   5.626   0.828   5.235
 5264TIP3    H115745   5.623   0.910   5.288
 5264TIP3    H215746   5.534   0.827   5.201
 5265TIP3   OH215747   4.629   0.775   4.745
 5265TIP3    H115748   4.596   0.717   4.674
 5265TIP3    H215749   4.706   0.725   4.780
 5266TIP3   OH215750   4.731   1.204   4.890
 5266TIP3    H115751   4.756   1.159   4.808
 5266TIP3    H215752   4.818   1.209   4.936
 5267TIP3   OH215753   4.762   0.757   5.103
 5267TIP3    H115754   4.796   0.728   5.016
 5267TIP3    H215755   4.808   0.843   5.115
 5268TIP3   OH215756   5.284   1.371   4.883
 5268TIP3    H115757   5.278   1.446   4.944
 5268TIP3    H215758   5.209   1.315   4.915
 5269TIP3   OH215759   4.905   1.305   5.429
 5269TIP3    H115760   4.842   1.368   5.469
 5269TIP3    H215761   4.846   1.255   5.370
 5270TIP3   OH215762   5.226   0.659   4.150
 5270TIP3    H115763   5.289   0.718   4.197
 5270TIP3    H215764   5.254   0.672   4.056
 5271TIP3   OH215765   4.662   0.855   5.542
 5271TIP3    H115766   4.668   0.947   5.573
 5271TIP3    H215767   4.566   0.841   5.546
 5272TIP3   OH215768   4.985   1.314   4.424
 5272TIP3    H115769   5.067   1.366   4.431
 5272TIP3    H215770   4.923   1.378   4.387
 5273TIP3   OH215771   4.696   1.471   5.511
 5273TIP3    H115772   4.663   1.477   5.419
 5273TIP3    H215773   4.613   1.451   5.561
 5274TIP3   OH215774   4.502   0.619   4.528
 5274TIP3    H115775   4.428   0.668   4.485
 5274TIP3    H215776   4.456   0.542   4.563
 5275TIP3   OH215777   5.553   1.246   3.753
 5275TIP3    H115778   5.561   1.342   3.738
 5275TIP3    H215779   5.646   1.217   3.740
 5276TIP3   OH215780   4.274   1.008   5.458
 5276TIP3    H115781   4.205   0.991   5.391
 5276TIP3    H215782   4.314   0.920   5.471
 5277TIP3   OH215783   4.132   1.199   5.088
 5277TIP3    H115784   4.228   1.194   5.078
 5277TIP3    H215785   4.123   1.277   5.145
 5278TIP3   OH215786   5.992   1.658   5.149
 5278TIP3    H115787   5.992   1.562   5.163
 5278TIP3    H215788   5.909   1.683   5.194
 5279TIP3   OH215789   5.114   1.435   5.298
 5279TIP3    H115790   5.092   1.529   5.314
 5279TIP3    H215791   5.036   1.390   5.335
 5280TIP3   OH215792   4.866   1.564   4.233
 5280TIP3    H115793   4.816   1.547   4.151
 5280TIP3    H215794   4.830   1.649   4.262
 5281TIP3   OH215795   4.301   1.412   4.621
 5281TIP3    H115796   4.348   1.404   4.708
 5281TIP3    H215797   4.253   1.328   4.618
 5282TIP3   OH215798   5.062   1.469   3.869
 5282TIP3    H115799   5.120   1.398   3.834
 5282TIP3    H215800   5.097   1.480   3.960
 5283TIP3   OH215801   5.116   1.517   4.138
 5283TIP3    H115802   5.027   1.527   4.179
 5283TIP3    H215803   5.166   1.480   4.213
 5284TIP3   OH215804   5.888   0.807   5.456
 5284TIP3    H115805   5.803   0.839   5.420
 5284TIP3    H215806   5.890   0.715   5.421
 5285TIP3   OH215807   4.478   1.192   5.440
 5285TIP3    H115808   4.527   1.176   5.522
 5285TIP3    H215809   4.403   1.130   5.448
 5286TIP3   OH215810   5.648   0.552   5.279
 5286TIP3    H115811   5.600   0.551   5.364
 5286TIP3    H215812   5.627   0.642   5.247
 5287TIP3   OH215813   5.312   0.673   3.894
 5287TIP3    H115814   5.277   0.659   3.804
 5287TIP3    H215815   5.395   0.721   3.874
 5288TIP3   OH215816   4.823   0.533   5.257
 5288TIP3    H115817   4.768   0.558   5.335
 5288TIP3    H215818   4.809   0.611   5.199
 5289TIP3   OH215819   4.686   0.403   4.757
 5289TIP3    H115820   4.594   0.380   4.781
 5289TIP3    H215821   4.699   0.343   4.681
 5290TIP3   OH215822   5.179   0.506   4.498
 5290TIP3    H115823   5.132   0.579   4.451
 5290TIP3    H215824   5.245   0.479   4.430
 5291TIP3   OH215825   5.366   0.796   5.553
 5291TIP3    H115826   5.327   0.740   5.625
 5291TIP3    H215827   5.459   0.804   5.584
 5292TIP3   OH215828   5.334   0.535   4.747
 5292TIP3    H115829   5.274   0.586   4.689
 5292TIP3    H215830   5.360   0.465   4.684
 5293TIP3   OH215831   4.630   0.573   5.447
 5293TIP3    H115832   4.641   0.638   5.517
 5293TIP3    H215833   4.575   0.504   5.487
 5294TIP3   OH215834   4.193   0.075   4.543
 5294TIP3    H115835   4.221   0.127   4.465
 5294TIP3    H215836   4.136   0.141   4.586
 5295TIP3   OH215837   5.363   0.768   5.163
 5295TIP3    H115838   5.385   0.700   5.096
 5295TIP3    H215839   5.316   0.713   5.228
 5296TIP3   OH215840   4.998   0.255   4.795
 5296TIP3    H115841   4.927   0.261   4.860
 5296TIP3    H215842   5.073   0.237   4.857
 5297TIP3   OH215843   4.444   0.287   4.820
 5297TIP3    H115844   4.352   0.314   4.797
 5297TIP3    H215845   4.431   0.192   4.830
 5298TIP3   OH215846   4.726   0.274   4.503
 5298TIP3    H115847   4.791   0.345   4.517
 5298TIP3    H215848   4.659   0.315   4.442
 5299TIP3   OH215849   4.566   0.345   4.295
 5299TIP3    H115850   4.496   0.290   4.255
 5299TIP3    H215851   4.617   0.365   4.214
 5300TIP3   OH215852   5.691   2.002   5.250
 5300TIP3    H115853   5.688   2.025   5.155
 5300TIP3    H215854   5.773   2.048   5.279
 5301TIP3   OH215855   4.641   1.110   5.664
 5301TIP3    H115856   4.722   1.142   5.710
 5301TIP3    H215857   4.577   1.113   5.738
 5302TIP3   OH215858   5.086   0.552   4.926
 5302TIP3    H115859   5.173   0.539   4.886
 5302TIP3    H215860   5.095   0.506   5.012
 5303TIP3   OH215861   5.087   0.467   5.205
 5303TIP3    H115862   4.998   0.499   5.228
 5303TIP3    H215863   5.145   0.520   5.264
 5304TIP3   OH215864   4.816   0.852   4.302
 5304TIP3    H115865   4.744   0.786   4.290
 5304TIP3    H215866   4.794   0.886   4.392
 5305TIP3   OH215867   5.718   1.090   4.932
 5305TIP3    H115868   5.738   1.144   4.853
 5305TIP3    H215869   5.634   1.045   4.904
 5306TIP3   OH215870   5.304   0.208   4.155
 5306TIP3    H115871   5.285   0.235   4.064
 5306TIP3    H215872   5.318   0.294   4.200
 5307TIP3   OH215873   5.244   1.166   5.330
 5307TIP3    H115874   5.232   1.203   5.418
 5307TIP3    H215875   5.186   1.222   5.275
 5308TIP3   OH215876   5.342   0.443   4.282
 5308TIP3    H115877   5.440   0.451   4.288
 5308TIP3    H215878   5.317   0.525   4.235
 5309TIP3   OH215879   4.506   0.868   4.975
 5309TIP3    H115880   4.547   0.845   4.889
 5309TIP3    H215881   4.565   0.823   5.037
 5310TIP3   OH215882   4.962   1.002   4.128
 5310TIP3    H115883   4.913   1.088   4.129
 5310TIP3    H215884   4.908   0.948   4.189
 5311TIP3   OH215885   4.398   0.789   5.590
 5311TIP3    H115886   4.403   0.781   5.687
 5311TIP3    H215887   4.318   0.736   5.571
 5312TIP3   OH215888   5.122   0.919   5.611
 5312TIP3    H115889   5.062   0.856   5.570
 5312TIP3    H215890   5.207   0.895   5.569
 5313TIP3   OH215891   5.374   1.466   5.190
 5313TIP3    H115892   5.283   1.436   5.206
 5313TIP3    H215893   5.397   1.499   5.279
 5314TIP3   OH215894   5.780   0.510   4.103
 5314TIP3    H115895   5.727   0.464   4.034
 5314TIP3    H215896   5.772   0.601   4.066
 5315TIP3   OH215897   6.008   1.371   5.185
 5315TIP3    H115898   5.910   1.363   5.176
 5315TIP3    H215899   6.035   1.338   5.096
 5316TIP3   OH215900   5.489   1.325   4.020
 5316TIP3    H115901   5.459   1.258   4.082
 5316TIP3    H215902   5.501   1.275   3.937
 5317TIP3   OH215903   5.503   0.954   4.826
 5317TIP3    H115904   5.415   0.927   4.859
 5317TIP3    H215905   5.531   0.870   4.785
 5318TIP3   OH215906   4.610   1.178   4.587
 5318TIP3    H115907   4.604   1.264   4.540
 5318TIP3    H215908   4.521   1.169   4.623
 5319TIP3   OH215909   4.184   0.482   4.322
 5319TIP3    H115910   4.225   0.570   4.341
 5319TIP3    H215911   4.104   0.486   4.378
 5320TIP3   OH215912   4.738   0.939   4.544
 5320TIP3    H115913   4.704   1.030   4.559
 5320TIP3    H215914   4.706   0.894   4.624
 5321TIP3   OH215915   4.881   1.518   5.072
 5321TIP3    H115916   4.937   1.586   5.032
 5321TIP3    H215917   4.941   1.440   5.072
 5322TIP3   OH215918   4.527   1.423   4.455
 5322TIP3    H115919   4.442   1.431   4.504
 5322TIP3    H215920   4.560   1.516   4.460
 5323TIP3   OH215921   5.247   1.056   3.919
 5323TIP3    H115922   5.302   1.027   3.996
 5323TIP3    H215923   5.159   1.028   3.949
 5324TIP3   OH215924   5.519   1.687   5.088
 5324TIP3    H115925   5.446   1.621   5.098
 5324TIP3    H215926   5.487   1.742   5.013
 5325TIP3   OH215927   5.581   1.522   3.735
 5325TIP3    H115928   5.618   1.597   3.685
 5325TIP3    H215929   5.501   1.565   3.772
 5326TIP3   OH215930   5.410   0.974   4.123
 5326TIP3    H115931   5.401   0.917   4.201
 5326TIP3    H215932   5.508   0.977   4.115
 5327TIP3   OH215933   4.320   1.384   5.230
 5327TIP3    H115934   4.377   1.314   5.265
 5327TIP3    H215935   4.348   1.459   5.283
 5328TIP3   OH215936   4.609   1.032   3.919
 5328TIP3    H115937   4.619   0.938   3.895
 5328TIP3    H215938   4.588   1.025   4.015
 5329TIP3   OH215939   4.552   1.037   4.191
 5329TIP3    H115940   4.625   1.014   4.249
 5329TIP3    H215941   4.552   1.135   4.198
 5330TIP3   OH215942   4.284   0.729   4.397
 5330TIP3    H115943   4.217   0.775   4.453
 5330TIP3    H215944   4.294   0.797   4.327
 5331TIP3   OH215945   4.820   1.231   4.135
 5331TIP3    H115946   4.733   1.253   4.173
 5331TIP3    H215947   4.835   1.312   4.083
 5332TIP3   OH215948   4.999   0.305   4.526
 5332TIP3    H115949   5.060   0.382   4.526
 5332TIP3    H215950   5.001   0.283   4.623
 5333TIP3   OH215951   5.279   0.606   5.367
 5333TIP3    H115952   5.299   0.678   5.431
 5333TIP3    H215953   5.356   0.550   5.378
 5334TIP3   OH215954   4.568   1.308   4.209
 5334TIP3    H115955   4.538   1.379   4.148
 5334TIP3    H215956   4.551   1.350   4.297
 5335TIP3   OH215957   5.909   0.557   5.343
 5335TIP3    H115958   5.819   0.550   5.304
 5335TIP3    H215959   5.966   0.553   5.263
 5336TIP3   OH215960   5.571   0.700   4.728
 5336TIP3    H115961   5.492   0.650   4.756
 5336TIP3    H215962   5.642   0.655   4.779
 5337TIP3   OH215963   4.284   0.929   4.199
 5337TIP3    H115964   4.354   0.995   4.208
 5337TIP3    H215965   4.325   0.871   4.131
 5338TIP3   OH215966   4.225   0.212   4.314
 5338TIP3    H115967   4.229   0.310   4.320
 5338TIP3    H215968   4.145   0.200   4.261
 5339TIP3   OH215969   5.537   1.672   4.675
 5339TIP3    H115970   5.495   1.720   4.600
 5339TIP3    H215971   5.632   1.689   4.655
 5340TIP3   OH215972   4.142   1.148   4.578
 5340TIP3    H115973   4.088   1.180   4.652
 5340TIP3    H215974   4.102   1.197   4.501
 5341TIP3   OH215975   4.315   1.706   5.655
 5341TIP3    H115976   4.401   1.707   5.703
 5341TIP3    H215977   4.296   1.611   5.655
 5342TIP3   OH215978   4.785   1.651   5.702
 5342TIP3    H115979   4.880   1.635   5.706
 5342TIP3    H215980   4.760   1.588   5.630
 5343TIP3   OH215981   4.770   1.233   3.823
 5343TIP3    H115982   4.717   1.161   3.863
 5343TIP3    H215983   4.846   1.183   3.788
 5344TIP3   OH215984   5.422   1.571   5.443
 5344TIP3    H115985   5.418   1.498   5.509
 5344TIP3    H215986   5.503   1.619   5.471
 5345TIP3   OH215987   5.206   1.269   3.743
 5345TIP3    H115988   5.244   1.204   3.805
 5345TIP3    H215989   5.264   1.263   3.665
 5346TIP3   OH215990   4.439   1.105   5.857
 5346TIP3    H115991   4.455   1.009   5.862
 5346TIP3    H215992   4.352   1.108   5.811
 5347TIP3   OH215993   4.420   0.746   4.055
 5347TIP3    H115994   4.481   0.724   4.128
 5347TIP3    H215995   4.485   0.752   3.981
 5348TIP3   OH215996   5.045   1.192   5.633
 5348TIP3    H115997   5.004   1.218   5.548
 5348TIP3    H215998   5.077   1.101   5.616
 5349TIP3   OH215999   4.939   0.949   3.860
 5349TIP3    H116000   4.938   0.962   3.957
 5349TIP3    H216001   4.934   0.851   3.855
 5350TIP3   OH216002   5.543   1.189   5.252
 5350TIP3    H116003   5.591   1.256   5.201
 5350TIP3    H216004   5.450   1.210   5.233
 5351TIP3   OH216005   4.550   0.846   5.848
 5351TIP3    H116006   4.625   0.802   5.807
 5351TIP3    H216007   4.589   0.877   5.933
 5352TIP3   OH216008   4.623   0.653   4.270
 5352TIP3    H116009   4.586   0.631   4.358
 5352TIP3    H216010   4.652   0.567   4.238
 5353TIP3   OH216011   4.905   0.730   5.502
 5353TIP3    H116012   4.823   0.783   5.501
 5353TIP3    H216013   4.953   0.765   5.422
 5354TIP3   OH216014   4.743   0.414   4.098
 5354TIP3    H116015   4.711   0.449   4.012
 5354TIP3    H216016   4.837   0.442   4.095
 5355TIP3   OH216017   5.416   1.126   5.645
 5355TIP3    H116018   5.465   1.079   5.576
 5355TIP3    H216019   5.408   1.058   5.714
 5356TIP3   OH216020   5.543   0.775   3.782
 5356TIP3    H116021   5.525   0.737   3.694
 5356TIP3    H216022   5.512   0.867   3.766
 5357TIP3   OH216023   4.999   0.512   5.618
 5357TIP3    H116024   5.021   0.457   5.542
 5357TIP3    H216025   4.960   0.591   5.572
 5358TIP3   OH216026   5.046   0.837   5.303
 5358TIP3    H116027   5.133   0.870   5.278
 5358TIP3    H216028   4.987   0.898   5.253
 5359TIP3   OH216029   5.621   0.806   5.676
 5359TIP3    H116030   5.686   0.743   5.712
 5359TIP3    H216031   5.678   0.877   5.642
 5360TIP3   OH216032   5.676   1.042   5.429
 5360TIP3    H116033   5.614   1.098   5.375
 5360TIP3    H216034   5.760   1.073   5.389
 5361TIP3   OH216035   4.903   0.616   5.863
 5361TIP3    H116036   4.830   0.556   5.880
 5361TIP3    H216037   4.929   0.593   5.772
 5362TIP3   OH216038   5.236   0.623   5.713
 5362TIP3    H116039   5.254   0.566   5.789
 5362TIP3    H216040   5.152   0.587   5.680
 5363TIP3   OH216041   5.546   0.537   5.531
 5363TIP3    H116042   5.486   0.563   5.605
 5363TIP3    H216043   5.620   0.501   5.586
 5364TIP3   OH216044   4.539   1.513   4.022
 5364TIP3    H116045   4.633   1.500   4.001
 5364TIP3    H216046   4.511   1.565   3.945
 5365TIP3   OH216047   4.013   0.894   4.232
 5365TIP3    H116048   4.109   0.914   4.218
 5365TIP3    H216049   4.006   0.806   4.190
 5366TIP3   OH216050   3.934   1.505   4.654
 5366TIP3    H116051   3.868   1.445   4.612
 5366TIP3    H216052   3.977   1.442   4.716
 5367TIP3   OH216053   4.067   1.344   4.838
 5367TIP3    H116054   4.052   1.280   4.909
 5367TIP3    H216055   4.120   1.410   4.886
 5368TIP3   OH216056   5.796   1.754   4.640
 5368TIP3    H116057   5.821   1.782   4.730
 5368TIP3    H216058   5.866   1.793   4.586
 5369TIP3   OH216059   5.823   1.774   4.922
 5369TIP3    H116060   5.771   1.690   4.919
 5369TIP3    H216061   5.895   1.746   4.980
 5370TIP3   OH216062   5.872   1.451   5.498
 5370TIP3    H116063   5.798   1.463   5.562
 5370TIP3    H216064   5.913   1.540   5.500
 5371TIP3   OH216065   5.688   0.963   4.109
 5371TIP3    H116066   5.752   1.031   4.079
 5371TIP3    H216067   5.734   0.928   4.189
 5372TIP3   OH216068   5.816   0.830   4.315
 5372TIP3    H116069   5.747   0.794   4.375
 5372TIP3    H216070   5.881   0.867   4.377
 5373TIP3   OH216071   5.876   1.230   4.749
 5373TIP3    H116072   5.924   1.159   4.702
 5373TIP3    H216073   5.866   1.298   4.679
 5374TIP3   OH216074   5.693   1.528   4.938
 5374TIP3    H116075   5.621   1.566   4.991
 5374TIP3    H216076   5.644   1.482   4.867
 5375TIP3   OH216077   5.747   0.741   3.959
 5375TIP3    H116078   5.676   0.747   3.891
 5375TIP3    H216079   5.722   0.817   4.015
 5376TIP3   OH216080   5.627   0.411   3.906
 5376TIP3    H116081   5.572   0.469   3.851
 5376TIP3    H216082   5.590   0.324   3.883
 5377TIP3   OH216083   5.625   0.700   4.462
 5377TIP3    H116084   5.641   0.604   4.457
 5377TIP3    H216085   5.606   0.711   4.558
 5378TIP3   OH216086   4.249   0.758   5.212
 5378TIP3    H116087   4.245   0.724   5.120
 5378TIP3    H216088   4.346   0.766   5.225
 5379TIP3   OH216089   5.915   1.119   5.320
 5379TIP3    H116090   5.983   1.052   5.299
 5379TIP3    H216091   5.927   1.186   5.251
 5380TIP3   OH216092   6.098   0.918   5.309
 5380TIP3    H116093   6.038   0.873   5.372
 5380TIP3    H216094   6.183   0.874   5.327
 5381TIP3   OH216095   5.614   0.424   4.318
 5381TIP3    H116096   5.678   0.386   4.382
 5381TIP3    H216097   5.673   0.443   4.242
 5382TIP3   OH216098   5.790   0.594   4.858
 5382TIP3    H116099   5.877   0.610   4.817
 5382TIP3    H216100   5.801   0.641   4.943
 5383TIP3   OH216101   5.852   0.740   5.084
 5383TIP3    H116102   5.774   0.776   5.131
 5383TIP3    H216103   5.886   0.822   5.040
 5384TIP3   OH216104   4.522   0.497   5.866
 5384TIP3    H116105   4.608   0.459   5.889
 5384TIP3    H216106   4.463   0.433   5.912
 5385TIP3   OH216107   4.242   0.419   5.285
 5385TIP3    H116108   4.288   0.415   5.199
 5385TIP3    H216109   4.262   0.508   5.314
 5386TIP3   OH216110   5.375   1.627   4.292
 5386TIP3    H116111   5.428   1.618   4.210
 5386TIP3    H216112   5.428   1.689   4.344
 5387TIP3   OH216113   4.474   1.431   5.674
 5387TIP3    H116114   4.380   1.408   5.661
 5387TIP3    H216115   4.487   1.412   5.768
 5388TIP3   OH216116   4.658   1.468   5.227
 5388TIP3    H116117   4.614   1.545   5.186
 5388TIP3    H216118   4.746   1.478   5.184
 5389TIP3   OH216119   5.089   1.712   5.364
 5389TIP3    H116120   5.135   1.704   5.451
 5389TIP3    H216121   5.157   1.758   5.311
 5390TIP3   OH216122   5.273   1.861   5.222
 5390TIP3    H116123   5.338   1.803   5.181
 5390TIP3    H216124   5.329   1.915   5.282
 5391TIP3   OH216125   4.328   1.718   5.249
 5391TIP3    H116126   4.237   1.749   5.229
 5391TIP3    H216127   4.345   1.764   5.332
 5392TIP3   OH216128   4.567   1.700   5.111
 5392TIP3    H116129   4.478   1.710   5.152
 5392TIP3    H216130   4.549   1.726   5.019
 5393TIP3   OH216131   4.993   1.723   4.904
 5393TIP3    H116132   4.919   1.738   4.843
 5393TIP3    H216133   5.002   1.811   4.947
 5394TIP3   OH216134   5.262   1.662   4.954
 5394TIP3    H116135   5.168   1.676   4.935
 5394TIP3    H216136   5.304   1.737   4.908
 5395TIP3   OH216137   5.467   1.854   4.869
 5395TIP3    H116138   5.454   1.936   4.819
 5395TIP3    H216139   5.494   1.791   4.799
 5396TIP3   OH216140   4.242   1.508   4.991
 5396TIP3    H116141   4.268   1.479   5.081
 5396TIP3    H216142   4.316   1.466   4.940
 5397TIP3   OH216143   4.442   1.382   4.855
 5397TIP3    H116144   4.454   1.299   4.906
 5397TIP3    H216145   4.533   1.417   4.853
 5398TIP3   OH216146   4.708   1.480   4.860
 5398TIP3    H116147   4.729   1.385   4.851
 5398TIP3    H216148   4.763   1.499   4.940
 5399TIP3   OH216149   4.028   1.291   4.378
 5399TIP3    H116150   3.941   1.259   4.348
 5399TIP3    H216151   4.023   1.383   4.345
 5400TIP3   OH216152   4.804   1.462   3.967
 5400TIP3    H116153   4.891   1.487   3.930
 5400TIP3    H216154   4.781   1.388   3.906
 5401TIP3   OH216155   5.525   1.592   4.062
 5401TIP3    H116156   5.517   1.495   4.052
 5401TIP3    H216157   5.477   1.622   3.982
 5402TIP3   OH216158   4.105   1.302   4.018
 5402TIP3    H116159   4.110   1.322   4.113
 5402TIP3    H216160   4.192   1.258   4.002
 5403TIP3   OH216161   5.743   1.731   5.247
 5403TIP3    H116162   5.665   1.702   5.195
 5403TIP3    H216163   5.723   1.826   5.256
 5404TIP3   OH216164   7.017   1.111   4.004
 5404TIP3    H116165   6.983   1.201   3.984
 5404TIP3    H216166   6.941   1.057   3.976
 5405TIP3   OH216167   7.006   1.106   4.397
 5405TIP3    H116168   7.046   1.092   4.485
 5405TIP3    H216169   6.970   1.017   4.380
 5406TIP3   OH216170   6.309   1.007   4.756
 5406TIP3    H116171   6.340   0.936   4.814
 5406TIP3    H216172   6.392   1.053   4.738
 5407TIP3   OH216173   7.261   1.414   4.079
 5407TIP3    H116174   7.241   1.349   4.148
 5407TIP3    H216175   7.294   1.490   4.131
 5408TIP3   OH216176   6.287   1.410   4.477
 5408TIP3    H116177   6.279   1.313   4.477
 5408TIP3    H216178   6.384   1.420   4.472
 5409TIP3   OH216179   5.978   0.599   4.272
 5409TIP3    H116180   5.939   0.684   4.296
 5409TIP3    H216181   5.908   0.564   4.215
 5410TIP3   OH216182   6.051   0.896   4.446
 5410TIP3    H116183   6.102   0.818   4.476
 5410TIP3    H216184   6.116   0.942   4.391
 5411TIP3   OH216185   6.916   1.869   4.096
 5411TIP3    H116186   6.953   1.797   4.041
 5411TIP3    H216187   6.906   1.825   4.181
 5412TIP3   OH216188   6.810   1.332   4.443
 5412TIP3    H116189   6.853   1.254   4.404
 5412TIP3    H216190   6.891   1.381   4.468
 5413TIP3   OH216191   7.227   0.820   4.486
 5413TIP3    H116192   7.261   0.733   4.514
 5413TIP3    H216193   7.193   0.802   4.397
 5414TIP3   OH216194   6.563   0.521   4.464
 5414TIP3    H116195   6.538   0.588   4.397
 5414TIP3    H216196   6.554   0.439   4.411
 5415TIP3   OH216197   7.260   0.618   4.067
 5415TIP3    H116198   7.341   0.602   4.122
 5415TIP3    H216199   7.289   0.595   3.978
 5416TIP3   OH216200   6.195   0.687   4.544
 5416TIP3    H116201   6.272   0.664   4.602
 5416TIP3    H216202   6.218   0.633   4.466
 5417TIP3   OH216203   6.634   0.892   4.348
 5417TIP3    H116204   6.729   0.870   4.359
 5417TIP3    H216205   6.598   0.808   4.314
 5418TIP3   OH216206   6.913   1.336   3.868
 5418TIP3    H116207   6.864   1.315   3.786
 5418TIP3    H216208   6.858   1.410   3.903
 5419TIP3   OH216209   6.665   1.251   4.660
 5419TIP3    H116210   6.609   1.323   4.696
 5419TIP3    H216211   6.711   1.295   4.586
 5420TIP3   OH216212   6.419   0.610   4.676
 5420TIP3    H116213   6.485   0.673   4.707
 5420TIP3    H216214   6.468   0.566   4.603
 5421TIP3   OH216215   6.498   1.452   4.763
 5421TIP3    H116216   6.473   1.540   4.729
 5421TIP3    H216217   6.419   1.432   4.817
 5422TIP3   OH216218   5.883   1.140   3.999
 5422TIP3    H116219   5.844   1.168   3.915
 5422TIP3    H216220   5.917   1.225   4.034
 5423TIP3   OH216221   7.321   1.651   4.235
 5423TIP3    H116222   7.232   1.645   4.277
 5423TIP3    H216223   7.318   1.740   4.194
 5424TIP3   OH216224   7.021   1.693   3.905
 5424TIP3    H116225   7.076   1.612   3.891
 5424TIP3    H216226   7.083   1.761   3.869
 5425TIP3   OH216227   7.167   1.470   3.826
 5425TIP3    H116228   7.092   1.408   3.828
 5425TIP3    H216229   7.213   1.447   3.909
 5426TIP3   OH216230   7.547   1.558   4.592
 5426TIP3    H116231   7.540   1.487   4.524
 5426TIP3    H216232   7.548   1.638   4.537
 5427TIP3   OH216233   6.844   0.962   3.844
 5427TIP3    H116234   6.762   1.012   3.825
 5427TIP3    H216235   6.885   0.957   3.756
 5428TIP3   OH216236   6.793   0.751   3.562
 5428TIP3    H116237   6.861   0.804   3.606
 5428TIP3    H216238   6.851   0.689   3.513
 5429TIP3   OH216239   7.192   1.040   3.809
 5429TIP3    H116240   7.138   1.067   3.887
 5429TIP3    H216241   7.270   1.002   3.855
 5430TIP3   OH216242   7.404   1.070   4.730
 5430TIP3    H116243   7.413   1.149   4.785
 5430TIP3    H216244   7.326   1.091   4.677
 5431TIP3   OH216245   6.426   1.037   4.233
 5431TIP3    H116246   6.385   0.978   4.167
 5431TIP3    H216247   6.501   0.982   4.265
 5432TIP3   OH216248   6.555   1.451   4.377
 5432TIP3    H116249   6.537   1.419   4.287
 5432TIP3    H216250   6.643   1.412   4.396
 5433TIP3   OH216251   6.557   1.005   4.591
 5433TIP3    H116252   6.589   0.976   4.503
 5433TIP3    H216253   6.603   1.090   4.604
 5434TIP3   OH216254   7.082   1.648   4.362
 5434TIP3    H116255   7.074   1.728   4.418
 5434TIP3    H216256   7.068   1.575   4.426
 5435TIP3   OH216257   6.701   1.565   4.912
 5435TIP3    H116258   6.638   1.625   4.957
 5435TIP3    H216259   6.638   1.511   4.859
 5436TIP3   OH216260   7.028   0.899   3.638
 5436TIP3    H116261   7.085   0.962   3.686
 5436TIP3    H216262   7.058   0.916   3.545
 5437TIP3   OH216263   6.459   1.116   5.025
 5437TIP3    H116264   6.463   1.207   5.060
 5437TIP3    H216265   6.363   1.099   5.031
 5438TIP3   OH216266   6.779   1.571   3.917
 5438TIP3    H116267   6.863   1.621   3.918
 5438TIP3    H216268   6.719   1.632   3.873
 5439TIP3   OH216269   6.492   1.727   4.999
 5439TIP3    H116270   6.457   1.733   4.907
 5439TIP3    H216271   6.411   1.707   5.050
 5440TIP3   OH216272   6.292   0.884   4.037
 5440TIP3    H116273   6.218   0.922   3.984
 5440TIP3    H216274   6.268   0.791   4.042
 5441TIP3   OH216275   7.337   1.498   3.234
 5441TIP3    H116276   7.321   1.594   3.221
 5441TIP3    H216277   7.431   1.491   3.214
 5442TIP3   OH216278   6.072   1.266   4.944
 5442TIP3    H116279   6.000   1.250   4.879
 5442TIP3    H216280   6.110   1.177   4.957
 5443TIP3   OH216281   5.927   1.460   4.568
 5443TIP3    H116282   6.023   1.453   4.565
 5443TIP3    H216283   5.915   1.534   4.629
 5444TIP3   OH216284   7.741   1.890   4.612
 5444TIP3    H116285   7.782   1.812   4.654
 5444TIP3    H216286   7.670   1.911   4.675
 5445TIP3   OH216287   6.894   1.694   4.768
 5445TIP3    H116288   6.888   1.787   4.800
 5445TIP3    H216289   6.823   1.652   4.822
 5446TIP3   OH216290   6.662   1.819   3.720
 5446TIP3    H116291   6.613   1.802   3.638
 5446TIP3    H216292   6.626   1.905   3.749
 5447TIP3   OH216293   6.097   1.668   4.107
 5447TIP3    H116294   6.142   1.661   4.194
 5447TIP3    H216295   6.051   1.583   4.102
 5448TIP3   OH216296   6.858   1.728   3.358
 5448TIP3    H116297   6.914   1.655   3.323
 5448TIP3    H216298   6.893   1.737   3.449
 5449TIP3   OH216299   6.912   1.774   3.626
 5449TIP3    H116300   6.823   1.782   3.667
 5449TIP3    H216301   6.963   1.738   3.701
 5450TIP3   OH216302   6.276   1.448   4.924
 5450TIP3    H116303   6.324   1.433   5.008
 5450TIP3    H216304   6.201   1.386   4.933
 5451TIP3   OH216305   7.467   0.803   4.787
 5451TIP3    H116306   7.435   0.824   4.876
 5451TIP3    H216307   7.460   0.890   4.745
 5452TIP3   OH216308   7.119   0.954   3.386
 5452TIP3    H116309   7.084   0.921   3.300
 5452TIP3    H216310   7.157   1.039   3.358
 5453TIP3   OH216311   6.620   0.785   4.747
 5453TIP3    H116312   6.564   0.813   4.823
 5453TIP3    H216313   6.604   0.861   4.687
 5454TIP3   OH216314   6.484   0.676   4.256
 5454TIP3    H116315   6.393   0.641   4.266
 5454TIP3    H216316   6.506   0.640   4.167
 5455TIP3   OH216317   6.981   0.769   3.988
 5455TIP3    H116318   6.934   0.837   3.936
 5455TIP3    H216319   7.046   0.735   3.924
 5456TIP3   OH216320   7.161   1.058   5.037
 5456TIP3    H116321   7.125   0.997   5.105
 5456TIP3    H216322   7.254   1.065   5.064
 5457TIP3   OH216323   7.136   0.798   4.224
 5457TIP3    H116324   7.067   0.824   4.160
 5457TIP3    H216325   7.177   0.726   4.171
 5458TIP3   OH216326   6.424   0.830   4.933
 5458TIP3    H116327   6.440   0.890   5.007
 5458TIP3    H216328   6.382   0.754   4.974
 5459TIP3   OH216329   6.511   0.333   3.651
 5459TIP3    H116330   6.470   0.368   3.732
 5459TIP3    H216331   6.441   0.277   3.616
 5460TIP3   OH216332   5.988   0.328   4.035
 5460TIP3    H116333   6.017   0.378   3.955
 5460TIP3    H216334   5.931   0.397   4.075
 5461TIP3   OH216335   7.123   1.029   4.628
 5461TIP3    H116336   7.165   0.957   4.576
 5461TIP3    H216337   7.102   0.979   4.709
 5462TIP3   OH216338   6.798   0.527   4.292
 5462TIP3    H116339   6.721   0.520   4.351
 5462TIP3    H216340   6.869   0.500   4.355
 5463TIP3   OH216341   6.241   0.548   4.308
 5463TIP3    H116342   6.147   0.570   4.287
 5463TIP3    H216343   6.238   0.452   4.305
 5464TIP3   OH216344   6.525   0.563   4.013
 5464TIP3    H116345   6.618   0.556   3.985
 5464TIP3    H216346   6.475   0.558   3.929
 5465TIP3   OH216347   6.373   0.571   3.779
 5465TIP3    H116348   6.304   0.535   3.720
 5465TIP3    H216349   6.427   0.621   3.714
 5466TIP3   OH216350   7.482   2.264   4.741
 5466TIP3    H116351   7.477   2.282   4.645
 5466TIP3    H216352   7.565   2.310   4.765
 5467TIP3   OH216353   6.438   1.369   5.151
 5467TIP3    H116354   6.518   1.398   5.200
 5467TIP3    H216355   6.373   1.369   5.224
 5468TIP3   OH216356   6.894   0.827   4.416
 5468TIP3    H116357   6.957   0.772   4.367
 5468TIP3    H216358   6.894   0.782   4.503
 5469TIP3   OH216359   6.885   0.735   4.682
 5469TIP3    H116360   6.795   0.758   4.712
 5469TIP3    H216361   6.942   0.782   4.746
 5470TIP3   OH216362   6.610   1.109   3.791
 5470TIP3    H116363   6.538   1.044   3.778
 5470TIP3    H216364   6.589   1.143   3.881
 5471TIP3   OH216365   7.502   1.358   4.410
 5471TIP3    H116366   7.530   1.358   4.318
 5471TIP3    H216367   7.421   1.304   4.405
 5472TIP3   OH216368   7.142   0.454   3.605
 5472TIP3    H116369   7.047   0.440   3.623
 5472TIP3    H216370   7.155   0.542   3.646
 5473TIP3   OH216371   7.007   1.428   4.790
 5473TIP3    H116372   7.048   1.414   4.876
 5473TIP3    H216373   6.973   1.519   4.796
 5474TIP3   OH216374   7.169   0.692   3.755
 5474TIP3    H116375   7.254   0.736   3.743
 5474TIP3    H216376   7.107   0.759   3.718
 5475TIP3   OH216377   6.307   1.132   4.463
 5475TIP3    H116378   6.347   1.105   4.377
 5475TIP3    H216379   6.357   1.078   4.525
 5476TIP3   OH216380   6.760   1.259   3.621
 5476TIP3    H116381   6.710   1.344   3.621
 5476TIP3    H216382   6.704   1.204   3.679
 5477TIP3   OH216383   6.195   1.047   5.076
 5477TIP3    H116384   6.201   1.038   5.173
 5477TIP3    H216385   6.115   0.994   5.057
 5478TIP3   OH216386   6.917   1.177   5.097
 5478TIP3    H116387   6.856   1.113   5.058
 5478TIP3    H216388   7.003   1.148   5.060
 5479TIP3   OH216389   7.168   1.691   4.689
 5479TIP3    H116390   7.072   1.690   4.703
 5479TIP3    H216391   7.197   1.743   4.766
 5480TIP3   OH216392   7.273   1.579   3.501
 5480TIP3    H116393   7.239   1.520   3.569
 5480TIP3    H216394   7.280   1.521   3.423
 5481TIP3   OH216395   7.273   1.209   4.334
 5481TIP3    H116396   7.179   1.183   4.344
 5481TIP3    H216397   7.309   1.128   4.292
 5482TIP3   OH216398   6.411   1.440   4.095
 5482TIP3    H116399   6.404   1.520   4.039
 5482TIP3    H216400   6.318   1.419   4.109
 5483TIP3   OH216401   5.978   0.737   3.805
 5483TIP3    H116402   6.021   0.823   3.826
 5483TIP3    H216403   5.901   0.741   3.865
 5484TIP3   OH216404   6.535   1.200   4.033
 5484TIP3    H116405   6.504   1.290   4.055
 5484TIP3    H216406   6.504   1.149   4.109
 5485TIP3   OH216407   6.681   1.779   4.560
 5485TIP3    H116408   6.725   1.851   4.510
 5485TIP3    H216409   6.757   1.740   4.606
 5486TIP3   OH216410   6.323   1.678   3.944
 5486TIP3    H116411   6.239   1.687   3.992
 5486TIP3    H216412   6.356   1.771   3.948
 5487TIP3   OH216413   7.059   1.416   4.522
 5487TIP3    H116414   7.048   1.413   4.620
 5487TIP3    H216415   7.141   1.366   4.511
 5488TIP3   OH216416   7.033   1.313   3.407
 5488TIP3    H116417   7.086   1.284   3.485
 5488TIP3    H216418   6.945   1.283   3.433
 5489TIP3   OH216419   7.309   1.946   4.575
 5489TIP3    H116420   7.231   1.888   4.568
 5489TIP3    H216421   7.295   2.006   4.499
 5490TIP3   OH216422   7.333   1.778   3.231
 5490TIP3    H116423   7.377   1.864   3.227
 5490TIP3    H216424   7.244   1.810   3.256
 5491TIP3   OH216425   7.193   1.232   3.612
 5491TIP3    H116426   7.179   1.169   3.685
 5491TIP3    H216427   7.283   1.260   3.630
 5492TIP3   OH216428   6.116   1.639   4.717
 5492TIP3    H116429   6.172   1.570   4.757
 5492TIP3    H216430   6.138   1.715   4.772
 5493TIP3   OH216431   6.403   1.288   3.406
 5493TIP3    H116432   6.415   1.194   3.381
 5493TIP3    H216433   6.380   1.279   3.501
 5494TIP3   OH216434   6.345   1.294   3.678
 5494TIP3    H116435   6.422   1.266   3.729
 5494TIP3    H216436   6.349   1.392   3.687
 5495TIP3   OH216437   6.078   0.982   3.882
 5495TIP3    H116438   6.012   1.029   3.937
 5495TIP3    H216439   6.093   1.049   3.813
 5496TIP3   OH216440   6.617   1.488   3.625
 5496TIP3    H116441   6.530   1.511   3.662
 5496TIP3    H216442   6.631   1.563   3.565
 5497TIP3   OH216443   6.812   0.552   4.022
 5497TIP3    H116444   6.861   0.637   4.020
 5497TIP3    H216445   6.802   0.540   4.119
 5498TIP3   OH216446   7.082   0.871   4.845
 5498TIP3    H116447   7.100   0.933   4.918
 5498TIP3    H216448   7.164   0.819   4.844
 5499TIP3   OH216449   6.365   1.566   3.696
 5499TIP3    H116450   6.335   1.637   3.635
 5499TIP3    H216451   6.348   1.608   3.784
 5500TIP3   OH216452   7.363   0.965   4.221
 5500TIP3    H116453   7.282   0.912   4.229
 5500TIP3    H216454   7.422   0.922   4.284
 5501TIP3   OH216455   6.081   1.185   3.684
 5501TIP3    H116456   6.156   1.247   3.693
 5501TIP3    H216457   6.121   1.124   3.618
 5502TIP3   OH216458   6.011   0.464   3.805
 5502TIP3    H116459   6.035   0.559   3.807
 5502TIP3    H216460   5.927   0.467   3.758
 5503TIP3   OH216461   7.330   1.922   4.163
 5503TIP3    H116462   7.287   1.967   4.087
 5503TIP3    H216463   7.423   1.952   4.149
 5504TIP3   OH216464   5.941   1.407   4.066
 5504TIP3    H116465   5.887   1.437   4.140
 5504TIP3    H216466   5.899   1.454   3.989
 5505TIP3   OH216467   6.111   1.963   5.142
 5505TIP3    H116468   6.197   1.964   5.191
 5505TIP3    H216469   6.091   1.868   5.142
 5506TIP3   OH216470   6.580   1.908   5.189
 5506TIP3    H116471   6.676   1.894   5.194
 5506TIP3    H216472   6.556   1.844   5.118
 5507TIP3   OH216473   6.566   1.489   3.312
 5507TIP3    H116474   6.514   1.415   3.351
 5507TIP3    H216475   6.642   1.440   3.275
 5508TIP3   OH216476   7.221   1.824   4.925
 5508TIP3    H116477   7.217   1.753   4.993
 5508TIP3    H216478   7.299   1.875   4.954
 5509TIP3   OH216479   7.000   1.528   3.238
 5509TIP3    H116480   7.036   1.455   3.293
 5509TIP3    H216481   7.049   1.519   3.154
 5510TIP3   OH216482   6.236   1.360   5.343
 5510TIP3    H116483   6.250   1.264   5.350
 5510TIP3    H216484   6.149   1.365   5.298
 5511TIP3   OH216485   6.216   0.999   3.543
 5511TIP3    H116486   6.275   0.973   3.616
 5511TIP3    H216487   6.281   1.006   3.470
 5512TIP3   OH216488   6.841   1.449   5.119
 5512TIP3    H116489   6.802   1.471   5.032
 5512TIP3    H216490   6.873   1.357   5.106
 5513TIP3   OH216491   6.735   1.207   3.351
 5513TIP3    H116492   6.733   1.217   3.448
 5513TIP3    H216493   6.738   1.110   3.343
 5514TIP3   OH216494   7.334   1.461   4.732
 5514TIP3    H116495   7.413   1.497   4.685
 5514TIP3    H216496   7.269   1.530   4.710
 5515TIP3   OH216497   6.352   1.099   5.333
 5515TIP3    H116498   6.430   1.055   5.296
 5515TIP3    H216499   6.387   1.132   5.419
 5516TIP3   OH216500   6.414   0.916   3.754
 5516TIP3    H116501   6.396   0.875   3.840
 5516TIP3    H216502   6.456   0.843   3.704
 5517TIP3   OH216503   6.698   0.985   4.992
 5517TIP3    H116504   6.617   1.040   4.989
 5517TIP3    H216505   6.747   1.018   4.913
 5518TIP3   OH216506   6.521   0.714   3.599
 5518TIP3    H116507   6.501   0.717   3.504
 5518TIP3    H216508   6.619   0.713   3.596
 5519TIP3   OH216509   7.212   1.380   5.124
 5519TIP3    H116510   7.277   1.334   5.069
 5519TIP3    H216511   7.200   1.317   5.197
 5520TIP3   OH216512   6.791   0.767   5.109
 5520TIP3    H116513   6.816   0.714   5.033
 5520TIP3    H216514   6.752   0.846   5.064
 5521TIP3   OH216515   6.841   1.087   4.793
 5521TIP3    H116516   6.924   1.095   4.746
 5521TIP3    H216517   6.784   1.152   4.746
 5522TIP3   OH216518   7.412   1.077   5.166
 5522TIP3    H116519   7.420   0.986   5.131
 5522TIP3    H216520   7.497   1.116   5.142
 5523TIP3   OH216521   7.477   1.315   4.910
 5523TIP3    H116522   7.413   1.368   4.857
 5523TIP3    H216523   7.557   1.330   4.859
 5524TIP3   OH216524   6.675   0.885   5.344
 5524TIP3    H116525   6.640   0.801   5.376
 5524TIP3    H216526   6.719   0.859   5.261
 5525TIP3   OH216527   7.030   0.883   5.188
 5525TIP3    H116528   7.036   0.843   5.277
 5525TIP3    H216529   6.945   0.845   5.159
 5526TIP3   OH216530   7.374   0.830   5.052
 5526TIP3    H116531   7.298   0.797   5.104
 5526TIP3    H216532   7.444   0.778   5.096
 5527TIP3   OH216533   6.335   1.771   3.509
 5527TIP3    H116534   6.430   1.757   3.488
 5527TIP3    H216535   6.309   1.823   3.431
 5528TIP3   OH216536   5.811   1.152   3.718
 5528TIP3    H116537   5.906   1.171   3.704
 5528TIP3    H216538   5.804   1.062   3.678
 5529TIP3   OH216539   5.730   1.761   4.142
 5529TIP3    H116540   5.664   1.701   4.100
 5529TIP3    H216541   5.773   1.699   4.205
 5530TIP3   OH216542   5.862   1.602   4.326
 5530TIP3    H116543   5.851   1.536   4.397
 5530TIP3    H216544   5.914   1.668   4.374
 5531TIP3   OH216545   7.567   2.050   4.118
 5531TIP3    H116546   7.646   2.053   4.173
 5531TIP3    H216547   7.602   2.037   4.029
 5532TIP3   OH216548   7.609   2.035   4.426
 5532TIP3    H116549   7.567   1.953   4.395
 5532TIP3    H216550   7.662   1.996   4.499
 5533TIP3   OH216551   7.659   1.684   4.998
 5533TIP3    H116552   7.586   1.709   5.057
 5533TIP3    H216553   7.706   1.768   4.987
 5534TIP3   OH216554   7.492   1.780   4.423
 5534TIP3    H116555   7.420   1.816   4.477
 5534TIP3    H216556   7.445   1.730   4.353
 5535TIP3   OH216557   7.398   0.928   3.951
 5535TIP3    H116558   7.475   0.871   3.961
 5535TIP3    H216559   7.384   0.958   4.043
 5536TIP3   OH216560   6.044   1.012   4.697
 5536TIP3    H116561   6.041   0.979   4.605
 5536TIP3    H216562   6.141   1.020   4.711
 5537TIP3   OH216563   6.314   0.745   5.337
 5537TIP3    H116564   6.402   0.732   5.376
 5537TIP3    H216565   6.260   0.685   5.393
 5538TIP3   OH216566   6.040   0.674   4.776
 5538TIP3    H116567   6.085   0.668   4.689
 5538TIP3    H216568   6.054   0.767   4.799
 5539TIP3   OH216569   7.166   1.881   3.782
 5539TIP3    H116570   7.219   1.876   3.700
 5539TIP3    H216571   7.217   1.943   3.837
 5540TIP3   OH216572   6.271   1.687   5.160
 5540TIP3    H116573   6.176   1.665   5.148
 5540TIP3    H216574   6.283   1.667   5.254
 5541TIP3   OH216575   6.455   1.723   4.711
 5541TIP3    H116576   6.408   1.799   4.673
 5541TIP3    H216577   6.541   1.735   4.666
 5542TIP3   OH216578   6.888   1.961   4.847
 5542TIP3    H116579   6.931   1.959   4.936
 5542TIP3    H216580   6.954   2.013   4.797
 5543TIP3   OH216581   7.069   2.116   4.711
 5543TIP3    H116582   7.139   2.066   4.667
 5543TIP3    H216583   7.123   2.172   4.772
 5544TIP3   OH216584   6.125   1.975   4.737
 5544TIP3    H116585   6.034   2.005   4.717
 5544TIP3    H216586   6.142   2.024   4.818
 5545TIP3   OH216587   6.362   1.955   4.597
 5545TIP3    H116588   6.274   1.965   4.639
 5545TIP3    H216589   6.344   1.984   4.506
 5546TIP3   OH216590   6.787   1.977   4.394
 5546TIP3    H116591   6.717   1.995   4.329
 5546TIP3    H216592   6.799   2.065   4.435
 5547TIP3   OH216593   7.058   1.915   4.448
 5547TIP3    H116594   6.965   1.936   4.426
 5547TIP3    H216595   7.106   1.985   4.400
 5548TIP3   OH216596   7.257   2.103   4.356
 5548TIP3    H116597   7.245   2.188   4.308
 5548TIP3    H216598   7.289   2.044   4.283
 5549TIP3   OH216599   6.038   1.765   4.479
 5549TIP3    H116600   6.065   1.735   4.568
 5549TIP3    H216601   6.110   1.724   4.427
 5550TIP3   OH216602   6.235   1.640   4.342
 5550TIP3    H116603   6.249   1.556   4.391
 5550TIP3    H216604   6.327   1.674   4.339
 5551TIP3   OH216605   6.504   1.729   4.348
 5551TIP3    H116606   6.532   1.636   4.339
 5551TIP3    H216607   6.556   1.753   4.428
 5552TIP3   OH216608   5.824   1.547   3.865
 5552TIP3    H116609   5.738   1.514   3.834
 5552TIP3    H216610   5.817   1.639   3.835
 5553TIP3   OH216611   6.599   1.719   3.454
 5553TIP3    H116612   6.687   1.744   3.417
 5553TIP3    H216613   6.577   1.645   3.393
 5554TIP3   OH216614   7.303   1.845   3.547
 5554TIP3    H116615   7.295   1.747   3.535
 5554TIP3    H216616   7.255   1.878   3.469
 5555TIP3   OH216617   5.902   1.559   3.505
 5555TIP3    H116618   5.908   1.574   3.600
 5555TIP3    H216619   5.988   1.515   3.486
 5556TIP3   OH216620   7.521   1.989   4.748
 5556TIP3    H116621   7.446   1.964   4.689
 5556TIP3    H216622   7.509   2.087   4.750
 5557TIP3   OH216623   7.492   2.023   3.630
 5557TIP3    H116624   7.436   1.947   3.605
 5557TIP3    H216625   7.536   1.994   3.712
 5558TIP3   OH216626   1.266   2.154   5.180
 5558TIP3    H116627   1.232   2.243   5.159
 5558TIP3    H216628   1.189   2.100   5.155
 5559TIP3   OH216629   1.261   2.149   5.582
 5559TIP3    H116630   1.303   2.129   5.668
 5559TIP3    H216631   1.221   2.062   5.559
 5560TIP3   OH216632   0.560   2.055   5.936
 5560TIP3    H116633   0.592   1.985   5.997
 5560TIP3    H216634   0.644   2.097   5.914
 5561TIP3   OH216635   1.510   2.456   5.257
 5561TIP3    H116636   1.492   2.389   5.324
 5561TIP3    H216637   1.541   2.531   5.311
 5562TIP3   OH216638   0.536   2.451   5.653
 5562TIP3    H116639   0.529   2.353   5.654
 5562TIP3    H216640   0.633   2.462   5.648
 5563TIP3   OH216641   0.248   1.684   5.430
 5563TIP3    H116642   0.248   1.770   5.476
 5563TIP3    H216643   0.156   1.653   5.439
 5564TIP3   OH216644   0.302   1.915   5.589
 5564TIP3    H116645   0.356   1.857   5.646
 5564TIP3    H216646   0.365   1.985   5.565
 5565TIP3   OH216647   1.163   2.915   5.273
 5565TIP3    H116648   1.201   2.843   5.218
 5565TIP3    H216649   1.150   2.870   5.358
 5566TIP3   OH216650   1.059   2.379   5.618
 5566TIP3    H116651   1.102   2.299   5.581
 5566TIP3    H216652   1.141   2.427   5.643
 5567TIP3   OH216653   2.082   1.696   5.619
 5567TIP3    H116654   2.109   1.780   5.660
 5567TIP3    H216655   2.098   1.714   5.525
 5568TIP3   OH216656   1.482   1.875   5.644
 5568TIP3    H116657   1.515   1.787   5.671
 5568TIP3    H216658   1.444   1.854   5.557
 5569TIP3   OH216659   0.812   1.538   5.611
 5569TIP3    H116660   0.794   1.610   5.547
 5569TIP3    H216661   0.764   1.464   5.569
 5570TIP3   OH216662   1.511   1.626   5.230
 5570TIP3    H116663   1.580   1.615   5.300
 5570TIP3    H216664   1.566   1.664   5.159
 5571TIP3   OH216665   0.432   1.712   5.731
 5571TIP3    H116666   0.514   1.696   5.782
 5571TIP3    H216667   0.461   1.672   5.645
 5572TIP3   OH216668   0.882   1.938   5.524
 5572TIP3    H116669   0.978   1.918   5.532
 5572TIP3    H216670   0.848   1.853   5.489
 5573TIP3   OH216671   2.153   1.910   5.784
 5573TIP3    H116672   2.066   1.952   5.764
 5573TIP3    H216673   2.163   1.935   5.877
 5574TIP3   OH216674   0.802   1.530   6.057
 5574TIP3    H116675   0.755   1.566   5.979
 5574TIP3    H216676   0.740   1.550   6.128
 5575TIP3   OH216677   1.149   2.372   5.052
 5575TIP3    H116678   1.108   2.361   4.965
 5575TIP3    H216679   1.103   2.452   5.084
 5576TIP3   OH216680   0.912   2.298   5.834
 5576TIP3    H116681   0.856   2.369   5.872
 5576TIP3    H216682   0.958   2.344   5.761
 5577TIP3   OH216683   1.708   1.638   5.415
 5577TIP3    H116684   1.685   1.591   5.496
 5577TIP3    H216685   1.756   1.716   5.449
 5578TIP3   OH216686   0.679   1.637   5.832
 5578TIP3    H116687   0.742   1.710   5.852
 5578TIP3    H216688   0.727   1.594   5.758
 5579TIP3   OH216689   0.743   2.497   5.943
 5579TIP3    H116690   0.720   2.586   5.908
 5579TIP3    H216691   0.663   2.479   5.997
 5580TIP3   OH216692   0.150   2.183   5.176
 5580TIP3    H116693   0.101   2.203   5.094
 5580TIP3    H216694   0.172   2.272   5.210
 5581TIP3   OH216695   1.573   2.701   5.415
 5581TIP3    H116696   1.484   2.691   5.455
 5581TIP3    H216697   1.564   2.788   5.371
 5582TIP3   OH216698   1.871   1.594   5.785
 5582TIP3    H116699   1.781   1.617   5.755
 5582TIP3    H216700   1.927   1.628   5.712
 5583TIP3   OH216701   1.270   2.741   5.083
 5583TIP3    H116702   1.322   2.659   5.068
 5583TIP3    H216703   1.334   2.807   5.046
 5584TIP3   OH216704   1.418   2.525   5.006
 5584TIP3    H116705   1.373   2.445   4.977
 5584TIP3    H216706   1.460   2.494   5.090
 5585TIP3   OH216707   1.801   2.606   5.761
 5585TIP3    H116708   1.786   2.529   5.702
 5585TIP3    H216709   1.781   2.681   5.701
 5586TIP3   OH216710   1.092   2.001   5.023
 5586TIP3    H116711   1.012   2.055   5.004
 5586TIP3    H216712   1.137   2.002   4.937
 5587TIP3   OH216713   1.049   1.795   4.728
 5587TIP3    H116714   1.115   1.844   4.780
 5587TIP3    H216715   1.106   1.731   4.681
 5588TIP3   OH216716   1.996   2.251   5.611
 5588TIP3    H116717   1.910   2.299   5.613
 5588TIP3    H216718   2.026   2.274   5.520
 5589TIP3   OH216719   1.444   2.085   4.987
 5589TIP3    H116720   1.388   2.109   5.065
 5589TIP3    H216721   1.528   2.062   5.032
 5590TIP3   OH216722   1.673   2.125   5.902
 5590TIP3    H116723   1.668   2.206   5.956
 5590TIP3    H216724   1.584   2.125   5.860
 5591TIP3   OH216725   0.675   2.081   5.409
 5591TIP3    H116726   0.635   2.021   5.343
 5591TIP3    H216727   0.750   2.028   5.443
 5592TIP3   OH216728   0.804   2.494   5.554
 5592TIP3    H116729   0.787   2.463   5.463
 5592TIP3    H216730   0.892   2.456   5.572
 5593TIP3   OH216731   0.797   2.058   5.761
 5593TIP3    H116732   0.837   2.025   5.677
 5593TIP3    H216733   0.850   2.139   5.778
 5594TIP3   OH216734   1.334   2.692   5.540
 5594TIP3    H116735   1.323   2.771   5.595
 5594TIP3    H216736   1.318   2.619   5.603
 5595TIP3   OH216737   0.949   2.610   6.087
 5595TIP3    H116738   0.886   2.670   6.133
 5595TIP3    H216739   0.886   2.556   6.035
 5596TIP3   OH216740   1.279   1.944   4.818
 5596TIP3    H116741   1.338   2.005   4.867
 5596TIP3    H216742   1.306   1.963   4.725
 5597TIP3   OH216743   0.708   2.168   6.194
 5597TIP3    H116744   0.707   2.256   6.237
 5597TIP3    H216745   0.614   2.147   6.191
 5598TIP3   OH216746   1.028   2.617   5.092
 5598TIP3    H116747   1.113   2.667   5.094
 5598TIP3    H216748   0.969   2.681   5.050
 5599TIP3   OH216749   0.738   2.774   6.176
 5599TIP3    H116750   0.707   2.781   6.084
 5599TIP3    H216751   0.655   2.760   6.225
 5600TIP3   OH216752   1.794   1.181   4.867
 5600TIP3    H116753   1.712   1.201   4.918
 5600TIP3    H216754   1.807   1.266   4.820
 5601TIP3   OH216755   0.543   1.925   5.211
 5601TIP3    H116756   0.470   1.965   5.159
 5601TIP3    H216757   0.512   1.835   5.223
 5602TIP3   OH216758   1.598   2.548   4.416
 5602TIP3    H116759   1.606   2.645   4.401
 5602TIP3    H216760   1.691   2.519   4.403
 5603TIP3   OH216761   0.346   2.295   6.112
 5603TIP3    H116762   0.287   2.253   6.048
 5603TIP3    H216763   0.371   2.219   6.169
 5604TIP3   OH216764   0.178   2.524   5.730
 5604TIP3    H116765   0.262   2.478   5.718
 5604TIP3    H216766   0.199   2.580   5.806
 5605TIP3   OH216767   2.038   2.959   5.813
 5605TIP3    H116768   2.038   2.863   5.828
 5605TIP3    H216769   1.954   2.984   5.858
 5606TIP3   OH216770   1.142   2.739   5.944
 5606TIP3    H116771   1.138   2.831   5.977
 5606TIP3    H216772   1.072   2.697   5.997
 5607TIP3   OH216773   0.911   2.864   4.897
 5607TIP3    H116774   0.862   2.848   4.815
 5607TIP3    H216775   0.876   2.950   4.927
 5608TIP3   OH216776   0.347   2.714   5.285
 5608TIP3    H116777   0.394   2.706   5.371
 5608TIP3    H216778   0.296   2.631   5.284
 5609TIP3   OH216779   1.106   2.769   4.533
 5609TIP3    H116780   1.164   2.698   4.498
 5609TIP3    H216781   1.142   2.781   4.623
 5610TIP3   OH216782   1.161   2.818   4.801
 5610TIP3    H116783   1.073   2.827   4.844
 5610TIP3    H216784   1.213   2.783   4.876
 5611TIP3   OH216785   1.927   2.083   6.084
 5611TIP3    H116786   1.839   2.089   6.043
 5611TIP3    H216787   1.942   1.987   6.080
 5612TIP3   OH216788   0.521   2.503   6.114
 5612TIP3    H116789   0.579   2.471   6.187
 5612TIP3    H216790   0.452   2.433   6.113
 5613TIP3   OH216791   0.903   1.283   5.895
 5613TIP3    H116792   0.813   1.277   5.928
 5613TIP3    H216793   0.927   1.375   5.915
 5614TIP3   OH216794   1.478   1.467   6.116
 5614TIP3    H116795   1.530   1.402   6.166
 5614TIP3    H216796   1.397   1.420   6.092
 5615TIP3   OH216797   1.713   1.877   6.023
 5615TIP3    H116798   1.648   1.862   6.095
 5615TIP3    H216799   1.670   1.947   5.971
 5616TIP3   OH216800   1.357   1.975   4.561
 5616TIP3    H116801   1.321   1.961   4.471
 5616TIP3    H216802   1.440   2.022   4.539
 5617TIP3   OH216803   1.074   1.361   4.870
 5617TIP3    H116804   1.036   1.356   4.960
 5617TIP3    H216805   1.031   1.282   4.831
 5618TIP3   OH216806   0.854   1.831   5.908
 5618TIP3    H116807   0.807   1.854   5.991
 5618TIP3    H216808   0.841   1.913   5.857
 5619TIP3   OH216809   0.744   1.721   5.423
 5619TIP3    H116810   0.652   1.694   5.443
 5619TIP3    H216811   0.755   1.678   5.335
 5620TIP3   OH216812   1.227   1.799   5.158
 5620TIP3    H116813   1.179   1.872   5.113
 5620TIP3    H216814   1.283   1.765   5.086
 5621TIP3   OH216815   1.406   2.077   6.243
 5621TIP3    H116816   1.381   2.004   6.303
 5621TIP3    H216817   1.500   2.087   6.265
 5622TIP3   OH216818   1.391   1.826   5.389
 5622TIP3    H116819   1.320   1.853   5.327
 5622TIP3    H216820   1.425   1.748   5.342
 5623TIP3   OH216821   0.674   1.875   6.109
 5623TIP3    H116822   0.715   1.906   6.191
 5623TIP3    H216823   0.611   1.807   6.140
 5624TIP3   OH216824   0.728   1.341   4.830
 5624TIP3    H116825   0.711   1.336   4.926
 5624TIP3    H216826   0.653   1.396   4.800
 5625TIP3   OH216827   1.400   2.072   5.809
 5625TIP3    H116828   1.434   2.000   5.751
 5625TIP3    H216829   1.367   2.018   5.884
 5626TIP3   OH216830   1.086   1.522   5.511
 5626TIP3    H116831   0.996   1.528   5.550
 5626TIP3    H216832   1.138   1.519   5.593
 5627TIP3   OH216833   0.506   1.602   5.488
 5627TIP3    H116834   0.416   1.611   5.452
 5627TIP3    H216835   0.518   1.505   5.490
 5628TIP3   OH216836   0.766   1.585   5.189
 5628TIP3    H116837   0.859   1.603   5.166
 5628TIP3    H216838   0.717   1.612   5.108
 5629TIP3   OH216839   1.557   1.609   5.703
 5629TIP3    H116840   1.523   1.635   5.791
 5629TIP3    H216841   1.500   1.532   5.686
 5630TIP3   OH216842   0.620   1.639   4.971
 5630TIP3    H116843   0.538   1.598   4.938
 5630TIP3    H216844   0.664   1.663   4.887
 5631TIP3   OH216845   1.736   3.304   5.913
 5631TIP3    H116846   1.733   3.329   5.819
 5631TIP3    H216847   1.816   3.350   5.943
 5632TIP3   OH216848   0.686   2.419   6.327
 5632TIP3    H116849   0.768   2.442   6.374
 5632TIP3    H216850   0.623   2.413   6.401
 5633TIP3   OH216851   1.145   1.879   5.573
 5633TIP3    H116852   1.217   1.819   5.550
 5633TIP3    H216853   1.133   1.856   5.669
 5634TIP3   OH216854   0.678   1.346   5.465
 5634TIP3    H116855   0.672   1.257   5.503
 5634TIP3    H216856   0.720   1.328   5.380
 5635TIP3   OH216857   1.124   1.827   5.834
 5635TIP3    H116858   1.039   1.810   5.878
 5635TIP3    H216859   1.185   1.839   5.909
 5636TIP3   OH216860   0.860   2.152   4.967
 5636TIP3    H116861   0.788   2.087   4.954
 5636TIP3    H216862   0.839   2.186   5.057
 5637TIP3   OH216863   1.759   2.391   5.592
 5637TIP3    H116864   1.782   2.443   5.513
 5637TIP3    H216865   1.675   2.347   5.565
 5638TIP3   OH216866   1.316   1.470   4.824
 5638TIP3    H116867   1.223   1.443   4.844
 5638TIP3    H216868   1.322   1.560   4.863
 5639TIP3   OH216869   1.261   2.476   5.965
 5639TIP3    H116870   1.293   2.453   6.053
 5639TIP3    H216871   1.223   2.564   5.977
 5640TIP3   OH216872   1.385   1.715   4.941
 5640TIP3    H116873   1.481   1.722   4.957
 5640TIP3    H216874   1.366   1.797   4.892
 5641TIP3   OH216875   0.551   2.170   5.639
 5641TIP3    H116876   0.593   2.147   5.554
 5641TIP3    H216877   0.611   2.127   5.702
 5642TIP3   OH216878   1.007   2.303   4.793
 5642TIP3    H116879   0.957   2.388   4.795
 5642TIP3    H216880   0.953   2.248   4.854
 5643TIP3   OH216881   0.427   2.097   6.283
 5643TIP3    H116882   0.479   2.104   6.366
 5643TIP3    H216883   0.351   2.042   6.312
 5644TIP3   OH216884   1.166   2.218   6.277
 5644TIP3    H116885   1.102   2.156   6.239
 5644TIP3    H216886   1.251   2.178   6.248
 5645TIP3   OH216887   1.418   2.738   5.863
 5645TIP3    H116888   1.322   2.733   5.878
 5645TIP3    H216889   1.447   2.788   5.942
 5646TIP3   OH216890   1.825   1.810   4.771
 5646TIP3    H116891   1.765   1.764   4.708
 5646TIP3    H216892   1.820   1.900   4.732
 5647TIP3   OH216893   2.051   2.670   5.849
 5647TIP3    H116894   1.953   2.661   5.842
 5647TIP3    H216895   2.077   2.638   5.760
 5648TIP3   OH216896   1.532   2.625   4.682
 5648TIP3    H116897   1.503   2.556   4.744
 5648TIP3    H216898   1.545   2.576   4.599
 5649TIP3   OH216899   1.525   2.256   5.505
 5649TIP3    H116900   1.433   2.230   5.523
 5649TIP3    H216901   1.559   2.173   5.465
 5650TIP3   OH216902   0.660   2.485   5.271
 5650TIP3    H116903   0.654   2.565   5.215
 5650TIP3    H216904   0.567   2.466   5.287
 5651TIP3   OH216905   0.204   1.792   4.977
 5651TIP3    H116906   0.270   1.861   4.997
 5651TIP3    H216907   0.127   1.829   5.022
 5652TIP3   OH216908   0.783   2.244   5.208
 5652TIP3    H116909   0.752   2.334   5.230
 5652TIP3    H216910   0.752   2.193   5.285
 5653TIP3   OH216911   0.930   2.823   5.737
 5653TIP3    H116912   0.972   2.896   5.688
 5653TIP3    H216913   1.006   2.785   5.784
 5654TIP3   OH216914   0.573   2.722   5.120
 5654TIP3    H116915   0.488   2.731   5.169
 5654TIP3    H216916   0.606   2.815   5.124
 5655TIP3   OH216917   1.309   2.461   5.698
 5655TIP3    H116918   1.296   2.460   5.796
 5655TIP3    H216919   1.386   2.404   5.689
 5656TIP3   OH216920   1.293   2.357   4.583
 5656TIP3    H116921   1.347   2.330   4.661
 5656TIP3    H216922   1.205   2.327   4.612
 5657TIP3   OH216923   1.561   2.988   5.747
 5657TIP3    H116924   1.481   2.932   5.745
 5657TIP3    H216925   1.542   3.051   5.675
 5658TIP3   OH216926   1.628   2.825   4.399
 5658TIP3    H116927   1.667   2.902   4.355
 5658TIP3    H216928   1.546   2.867   4.434
 5659TIP3   OH216929   1.455   2.281   4.791
 5659TIP3    H116930   1.444   2.219   4.865
 5659TIP3    H216931   1.552   2.279   4.782
 5660TIP3   OH216932   0.360   2.681   5.896
 5660TIP3    H116933   0.420   2.618   5.940
 5660TIP3    H216934   0.382   2.763   5.942
 5661TIP3   OH216935   0.651   2.332   4.583
 5661TIP3    H116936   0.664   2.238   4.559
 5661TIP3    H216937   0.631   2.325   4.678
 5662TIP3   OH216938   0.596   2.339   4.853
 5662TIP3    H116939   0.671   2.311   4.907
 5662TIP3    H216940   0.599   2.437   4.864
 5663TIP3   OH216941   0.333   2.023   5.055
 5663TIP3    H116942   0.270   2.072   5.112
 5663TIP3    H216943   0.350   2.092   4.987
 5664TIP3   OH216944   1.486   1.692   5.957
 5664TIP3    H116945   1.557   1.683   6.022
 5664TIP3    H216946   1.435   1.610   5.977
 5665TIP3   OH216947   1.373   1.411   5.121
 5665TIP3    H116948   1.357   1.437   5.029
 5665TIP3    H216949   1.414   1.493   5.158
 5666TIP3   OH216950   0.865   2.533   4.799
 5666TIP3    H116951   0.778   2.555   4.837
 5666TIP3    H216952   0.881   2.613   4.747
 5667TIP3   OH216953   1.051   1.599   5.231
 5667TIP3    H116954   1.111   1.673   5.209
 5667TIP3    H216955   1.062   1.593   5.328
 5668TIP3   OH216956   1.328   1.914   6.019
 5668TIP3    H116957   1.359   1.955   6.102
 5668TIP3    H216958   1.382   1.832   6.014
 5669TIP3   OH216959   1.193   1.316   5.318
 5669TIP3    H116960   1.180   1.394   5.375
 5669TIP3    H216961   1.256   1.351   5.251
 5670TIP3   OH216962   0.613   2.610   4.873
 5670TIP3    H116963   0.583   2.681   4.812
 5670TIP3    H216964   0.596   2.652   4.960
 5671TIP3   OH216965   0.709   1.328   5.111
 5671TIP3    H116966   0.711   1.420   5.145
 5671TIP3    H216967   0.805   1.308   5.116
 5672TIP3   OH216968   1.968   1.810   6.004
 5672TIP3    H116969   1.871   1.821   6.020
 5672TIP3    H216970   1.965   1.761   5.920
 5673TIP3   OH216971   1.613   2.009   5.393
 5673TIP3    H116972   1.535   1.952   5.407
 5673TIP3    H216973   1.682   1.961   5.443
 5674TIP3   OH216974   0.335   2.231   4.858
 5674TIP3    H116975   0.409   2.294   4.868
 5674TIP3    H216976   0.376   2.171   4.792
 5675TIP3   OH216977   0.311   1.532   4.990
 5675TIP3    H116978   0.264   1.616   4.998
 5675TIP3    H216979   0.242   1.466   4.980
 5676TIP3   OH216980   1.583   2.971   5.338
 5676TIP3    H116981   1.540   3.018   5.263
 5676TIP3    H216982   1.677   2.989   5.318
 5677TIP3   OH216983   0.183   2.454   5.243
 5677TIP3    H116984   0.130   2.492   5.314
 5677TIP3    H216985   0.147   2.500   5.164
 5678TIP3   OH216986   0.390   3.017   6.290
 5678TIP3    H116987   0.464   3.026   6.354
 5678TIP3    H216988   0.364   2.926   6.304
 5679TIP3   OH216989   0.830   2.951   6.367
 5679TIP3    H116990   0.926   2.939   6.373
 5679TIP3    H216991   0.807   2.889   6.295
 5680TIP3   OH216992   0.813   2.532   4.487
 5680TIP3    H116993   0.759   2.461   4.528
 5680TIP3    H216994   0.891   2.482   4.458
 5681TIP3   OH216995   1.472   2.868   6.100
 5681TIP3    H116996   1.467   2.797   6.169
 5681TIP3    H216997   1.549   2.919   6.129
 5682TIP3   OH216998   1.250   2.570   4.407
 5682TIP3    H116999   1.288   2.505   4.469
 5682TIP3    H217000   1.310   2.564   4.330
 5683TIP3   OH217001   0.480   2.397   6.516
 5683TIP3    H117002   0.516   2.306   6.521
 5683TIP3    H217003   0.387   2.378   6.500
 5684TIP3   OH217004   0.466   2.042   4.719
 5684TIP3    H117005   0.524   2.015   4.792
 5684TIP3    H217006   0.533   2.050   4.647
 5685TIP3   OH217007   1.089   2.492   6.296
 5685TIP3    H117008   1.050   2.513   6.208
 5685TIP3    H217009   1.121   2.400   6.284
 5686TIP3   OH217010   0.983   2.253   4.524
 5686TIP3    H117011   0.983   2.264   4.622
 5686TIP3    H217012   0.983   2.155   4.517
 5687TIP3   OH217013   1.584   2.506   5.905
 5687TIP3    H117014   1.661   2.547   5.860
 5687TIP3    H217015   1.515   2.572   5.886
 5688TIP3   OH217016   0.592   2.146   6.504
 5688TIP3    H117017   0.657   2.078   6.481
 5688TIP3    H217018   0.621   2.168   6.595
 5689TIP3   OH217019   0.662   1.960   4.930
 5689TIP3    H117020   0.639   1.920   5.016
 5689TIP3    H217021   0.703   1.884   4.883
 5690TIP3   OH217022   0.942   2.024   6.170
 5690TIP3    H117023   0.863   2.081   6.167
 5690TIP3    H217024   0.995   2.059   6.095
 5691TIP3   OH217025   0.774   1.759   4.774
 5691TIP3    H117026   0.748   1.765   4.680
 5691TIP3    H217027   0.872   1.759   4.765
 5692TIP3   OH217028   1.460   2.425   6.296
 5692TIP3    H117029   1.531   2.383   6.247
 5692TIP3    H217030   1.447   2.362   6.370
 5693TIP3   OH217031   1.588   2.077   4.446
 5693TIP3    H117032   1.569   2.038   4.359
 5693TIP3    H217033   1.555   2.169   4.428
 5694TIP3   OH217034   1.073   1.813   6.276
 5694TIP3    H117035   1.075   1.739   6.212
 5694TIP3    H217036   1.024   1.881   6.225
 5695TIP3   OH217037   1.075   1.610   6.079
 5695TIP3    H117038   1.120   1.584   5.996
 5695TIP3    H217039   0.982   1.586   6.061
 5696TIP3   OH217040   1.085   2.137   5.978
 5696TIP3    H117041   1.170   2.132   5.933
 5696TIP3    H217042   1.034   2.199   5.923
 5697TIP3   OH217043   1.669   2.098   6.348
 5697TIP3    H117044   1.712   2.011   6.355
 5697TIP3    H217045   1.740   2.152   6.309
 5698TIP3   OH217046   1.712   2.354   6.088
 5698TIP3    H117047   1.655   2.410   6.031
 5698TIP3    H217048   1.800   2.374   6.050
 5699TIP3   OH217049   0.975   1.956   6.506
 5699TIP3    H117050   0.896   1.899   6.521
 5699TIP3    H217051   1.001   1.927   6.417
 5700TIP3   OH217052   1.193   1.366   6.148
 5700TIP3    H117053   1.158   1.457   6.151
 5700TIP3    H217054   1.199   1.356   6.050
 5701TIP3   OH217055   1.324   1.857   6.382
 5701TIP3    H117056   1.299   1.842   6.475
 5701TIP3    H217057   1.238   1.835   6.340
 5702TIP3   OH217058   1.565   1.818   6.241
 5702TIP3    H117059   1.487   1.813   6.300
 5702TIP3    H217060   1.636   1.783   6.297
 5703TIP3   OH217061   1.803   1.759   6.387
 5703TIP3    H117062   1.810   1.662   6.401
 5703TIP3    H217063   1.792   1.793   6.478
 5704TIP3   OH217064   0.798   1.755   6.552
 5704TIP3    H117065   0.767   1.665   6.536
 5704TIP3    H217066   0.847   1.741   6.635
 5705TIP3   OH217067   1.276   1.369   6.423
 5705TIP3    H117068   1.345   1.302   6.413
 5705TIP3    H217069   1.237   1.367   6.333
 5706TIP3   OH217070   1.362   1.584   6.582
 5706TIP3    H117071   1.339   1.517   6.515
 5706TIP3    H217072   1.284   1.642   6.581
 5707TIP3   OH217073   0.583   2.815   4.685
 5707TIP3    H117074   0.678   2.801   4.664
 5707TIP3    H217075   0.557   2.867   4.607
 5708TIP3   OH217076   0.070   2.184   4.903
 5708TIP3    H117077   0.164   2.207   4.885
 5708TIP3    H217078   0.061   2.100   4.855
 5709TIP3   OH217079  -0.013   2.790   5.297
 5709TIP3    H117080  -0.104   2.771   5.319
 5709TIP3    H217081   0.033   2.740   5.368
 5710TIP3   OH217082   0.111   2.660   5.503
 5710TIP3    H117083   0.113   2.597   5.578
 5710TIP3    H217084   0.162   2.732   5.545
 5711TIP3   OH217085   1.841   3.053   5.304
 5711TIP3    H117086   1.866   3.085   5.392
 5711TIP3    H217087   1.908   3.094   5.247
 5712TIP3   OH217088   1.865   3.076   5.586
 5712TIP3    H117089   1.818   2.989   5.581
 5712TIP3    H217090   1.939   3.050   5.644
 5713TIP3   OH217091   1.913   2.754   6.158
 5713TIP3    H117092   1.842   2.764   6.225
 5713TIP3    H217093   1.956   2.841   6.162
 5714TIP3   OH217094   1.733   2.264   4.773
 5714TIP3    H117095   1.796   2.331   4.743
 5714TIP3    H217096   1.778   2.228   4.853
 5715TIP3   OH217097   1.859   2.131   4.979
 5715TIP3    H117098   1.791   2.091   5.038
 5715TIP3    H217099   1.924   2.167   5.043
 5716TIP3   OH217100   1.918   2.531   5.411
 5716TIP3    H117101   1.969   2.460   5.366
 5716TIP3    H217102   1.915   2.601   5.343
 5717TIP3   OH217103   1.739   2.827   5.603
 5717TIP3    H117104   1.667   2.868   5.654
 5717TIP3    H217105   1.689   2.782   5.531
 5718TIP3   OH217106   1.792   2.041   4.623
 5718TIP3    H117107   1.720   2.046   4.556
 5718TIP3    H217108   1.767   2.117   4.679
 5719TIP3   OH217109   1.668   1.701   4.574
 5719TIP3    H117110   1.621   1.751   4.506
 5719TIP3    H217111   1.644   1.609   4.551
 5720TIP3   OH217112   1.668   1.994   5.124
 5720TIP3    H117113   1.675   1.898   5.117
 5720TIP3    H217114   1.652   2.007   5.220
 5721TIP3   OH217115   0.296   2.019   5.882
 5721TIP3    H117116   0.291   2.037   5.787
 5721TIP3    H217117   0.390   2.042   5.901
 5722TIP3   OH217118   1.961   2.418   5.984
 5722TIP3    H117119   2.030   2.349   5.970
 5722TIP3    H217120   1.983   2.484   5.916
 5723TIP3   OH217121   2.142   2.213   5.981
 5723TIP3    H117122   2.066   2.167   6.022
 5723TIP3    H217123   2.214   2.151   6.003
 5724TIP3   OH217124   1.618   1.425   4.536
 5724TIP3    H117125   1.680   1.410   4.610
 5724TIP3    H217126   1.535   1.385   4.567
 5725TIP3   OH217127   1.667   1.709   5.012
 5725TIP3    H117128   1.708   1.621   5.027
 5725TIP3    H217129   1.726   1.743   4.943
 5726TIP3   OH217130   1.825   1.872   5.515
 5726TIP3    H117131   1.910   1.897   5.472
 5726TIP3    H217132   1.838   1.913   5.602
 5727TIP3   OH217133   1.899   2.025   5.740
 5727TIP3    H117134   1.823   2.057   5.792
 5727TIP3    H217135   1.931   2.108   5.699
 5728TIP3   OH217136   2.350   1.622   6.299
 5728TIP3    H117137   2.412   1.559   6.255
 5728TIP3    H217138   2.316   1.672   6.221
 5729TIP3   OH217139   1.776   1.459   5.052
 5729TIP3    H117140   1.822   1.443   5.138
 5729TIP3    H217141   1.713   1.384   5.052
 5730TIP3   OH217142   0.282   1.773   5.980
 5730TIP3    H117143   0.324   1.739   5.898
 5730TIP3    H217144   0.281   1.869   5.957
 5731TIP3   OH217145   2.217   1.751   6.102
 5731TIP3    H117146   2.134   1.798   6.122
 5731TIP3    H217147   2.181   1.680   6.046
 5732TIP3   OH217148   1.849   1.392   4.690
 5732TIP3    H117149   1.901   1.321   4.648
 5732TIP3    H217150   1.914   1.466   4.695
 5733TIP3   OH217151   1.418   2.927   4.956
 5733TIP3    H117152   1.471   2.918   4.874
 5733TIP3    H217153   1.470   2.992   5.007
 5734TIP3   OH217154   0.511   2.731   6.340
 5734TIP3    H117155   0.479   2.644   6.311
 5734TIP3    H217156   0.530   2.718   6.433
 5735TIP3   OH217157   0.705   2.766   5.888
 5735TIP3    H117158   0.658   2.843   5.849
 5735TIP3    H217159   0.790   2.778   5.842
 5736TIP3   OH217160   1.137   3.005   6.024
 5736TIP3    H117161   1.180   3.003   6.113
 5736TIP3    H217162   1.203   3.058   5.974
 5737TIP3   OH217163   1.318   3.161   5.889
 5737TIP3    H117164   1.388   3.110   5.846
 5737TIP3    H217165   1.372   3.218   5.949
 5738TIP3   OH217166   2.118   1.517   5.984
 5738TIP3    H117167   2.028   1.509   5.947
 5738TIP3    H217168   2.150   1.424   5.975
 5739TIP3   OH217169   0.386   3.013   5.921
 5739TIP3    H117170   0.303   3.042   5.883
 5739TIP3    H217171   0.388   3.061   6.005
 5740TIP3   OH217172   0.618   2.998   5.772
 5740TIP3    H117173   0.532   3.008   5.818
 5740TIP3    H217174   0.595   3.027   5.681
 5741TIP3   OH217175   1.036   3.021   5.571
 5741TIP3    H117176   0.966   3.038   5.506
 5741TIP3    H217177   1.047   3.109   5.612
 5742TIP3   OH217178   1.306   2.961   5.624
 5742TIP3    H117179   1.213   2.980   5.604
 5742TIP3    H217180   1.352   3.033   5.577
 5743TIP3   OH217181   1.508   3.151   5.532
 5743TIP3    H117182   1.497   3.236   5.484
 5743TIP3    H217183   1.537   3.091   5.460
 5744TIP3   OH217184   0.291   2.813   5.652
 5744TIP3    H117185   0.303   2.777   5.743
 5744TIP3    H217186   0.363   2.765   5.606
 5745TIP3   OH217187   0.486   2.681   5.518
 5745TIP3    H117188   0.500   2.597   5.568
 5745TIP3    H217189   0.577   2.717   5.516
 5746TIP3   OH217190   0.752   2.773   5.525
 5746TIP3    H117191   0.781   2.680   5.517
 5746TIP3    H217192   0.803   2.798   5.605
 5747TIP3   OH217193   1.852   1.306   5.503
 5747TIP3    H117194   1.884   1.362   5.429
 5747TIP3    H217195   1.756   1.324   5.501
 5748TIP3   OH217196   1.939   1.411   5.268
 5748TIP3    H117197   2.015   1.359   5.232
 5748TIP3    H217198   1.973   1.502   5.255
 5749TIP3   OH217199   1.012   1.181   5.516
 5749TIP3    H117200   1.077   1.228   5.461
 5749TIP3    H217201   1.029   1.219   5.604
 5750TIP3   OH217202   1.583   1.330   5.485
 5750TIP3    H117203   1.529   1.307   5.408
 5750TIP3    H217204   1.556   1.259   5.548
 5751TIP3   OH217205   1.592   1.249   5.048
 5751TIP3    H117206   1.508   1.294   5.072
 5751TIP3    H217207   1.578   1.162   5.091
 5752TIP3   OH217208   0.074   2.588   5.036
 5752TIP3    H117209   0.004   2.545   4.986
 5752TIP3    H217210   0.060   2.682   5.010
 5753TIP3   OH217211   0.481   1.198   4.999
 5753TIP3    H117212   0.538   1.131   4.955
 5753TIP3    H217213   0.546   1.239   5.060
 5754TIP3   OH217214   0.987   1.352   5.131
 5754TIP3    H117215   1.044   1.303   5.193
 5754TIP3    H217216   1.007   1.443   5.159
 5755TIP3   OH217217   0.848   2.763   4.631
 5755TIP3    H117218   0.935   2.787   4.594
 5755TIP3    H217219   0.826   2.689   4.570
 5756TIP3   OH217220   1.566   2.891   4.725
 5756TIP3    H117221   1.558   2.794   4.714
 5756TIP3    H217222   1.520   2.922   4.644
 5757TIP3   OH217223   1.073   1.449   6.635
 5757TIP3    H117224   1.142   1.427   6.570
 5757TIP3    H217225   1.017   1.369   6.631
 5758TIP3   OH217226   0.155   2.607   4.685
 5758TIP3    H117227   0.163   2.630   4.779
 5758TIP3    H217228   0.241   2.561   4.668
 5759TIP3   OH217229   1.858   1.485   6.417
 5759TIP3    H117230   1.874   1.455   6.509
 5759TIP3    H217231   1.948   1.480   6.378
 5760TIP3   OH217232   1.788   3.032   5.909
 5760TIP3    H117233   1.710   3.003   5.858
 5760TIP3    H217234   1.769   3.128   5.918
 5761TIP3   OH217235   3.060   2.409   4.670
 5761TIP3    H117236   3.026   2.498   4.647
 5761TIP3    H217237   2.987   2.355   4.636
 5762TIP3   OH217238   3.062   2.409   5.064
 5762TIP3    H117239   3.098   2.385   5.151
 5762TIP3    H217240   3.020   2.327   5.037
 5763TIP3   OH217241   2.353   2.296   5.423
 5763TIP3    H117242   2.382   2.226   5.484
 5763TIP3    H217243   2.433   2.351   5.420
 5764TIP3   OH217244   3.309   2.711   4.743
 5764TIP3    H117245   3.285   2.646   4.811
 5764TIP3    H217246   3.337   2.787   4.796
 5765TIP3   OH217247   2.333   2.713   5.141
 5765TIP3    H117248   2.324   2.615   5.142
 5765TIP3    H217249   2.429   2.722   5.134
 5766TIP3   OH217250   2.037   1.910   4.921
 5766TIP3    H117251   1.991   1.992   4.946
 5766TIP3    H217252   1.964   1.862   4.878
 5767TIP3   OH217253   2.092   2.200   5.111
 5767TIP3    H117254   2.143   2.122   5.142
 5767TIP3    H217255   2.154   2.243   5.050
 5768TIP3   OH217256   2.959   3.176   4.756
 5768TIP3    H117257   2.996   3.104   4.701
 5768TIP3    H217258   2.936   3.129   4.836
 5769TIP3   OH217259   2.854   2.635   5.106
 5769TIP3    H117260   2.897   2.559   5.063
 5769TIP3    H217261   2.935   2.683   5.133
 5770TIP3   OH217262   3.876   1.952   5.105
 5770TIP3    H117263   3.905   2.037   5.143
 5770TIP3    H217264   3.894   1.966   5.010
 5771TIP3   OH217265   3.271   2.130   5.132
 5771TIP3    H117266   3.313   2.045   5.153
 5771TIP3    H217267   3.236   2.113   5.042
 5772TIP3   OH217268   2.615   1.793   5.098
 5772TIP3    H117269   2.594   1.866   5.036
 5772TIP3    H217270   2.564   1.720   5.057
 5773TIP3   OH217271   3.307   1.888   4.720
 5773TIP3    H117272   3.379   1.874   4.785
 5773TIP3    H217273   3.359   1.921   4.644
 5774TIP3   OH217274   2.242   1.995   5.210
 5774TIP3    H117275   2.325   1.977   5.258
 5774TIP3    H217276   2.258   1.940   5.130
 5775TIP3   OH217277   2.679   2.192   5.008
 5775TIP3    H117278   2.774   2.169   5.018
 5775TIP3    H217279   2.642   2.108   4.974
 5776TIP3   OH217280   3.949   2.167   5.270
 5776TIP3    H117281   3.863   2.209   5.250
 5776TIP3    H217282   3.956   2.186   5.365
 5777TIP3   OH217283   2.604   1.777   5.537
 5777TIP3    H117284   2.546   1.814   5.468
 5777TIP3    H217285   2.549   1.795   5.617
 5778TIP3   OH217286   2.944   2.626   4.541
 5778TIP3    H117287   2.907   2.618   4.452
 5778TIP3    H217288   2.899   2.708   4.572
 5779TIP3   OH217289   2.710   2.554   5.324
 5779TIP3    H117290   2.653   2.625   5.359
 5779TIP3    H217291   2.754   2.599   5.249
 5780TIP3   OH217292   3.507   1.893   4.904
 5780TIP3    H117293   3.483   1.854   4.990
 5780TIP3    H217294   3.557   1.972   4.931
 5781TIP3   OH217295   2.479   1.891   5.318
 5781TIP3    H117296   2.540   1.964   5.343
 5781TIP3    H217297   2.529   1.852   5.243
 5782TIP3   OH217298   2.543   2.753   5.427
 5782TIP3    H117299   2.517   2.841   5.393
 5782TIP3    H217300   2.463   2.733   5.481
 5783TIP3   OH217301   1.927   2.439   4.663
 5783TIP3    H117302   1.888   2.469   4.579
 5783TIP3    H217303   1.960   2.525   4.699
 5784TIP3   OH217304   3.372   2.954   4.903
 5784TIP3    H117305   3.282   2.946   4.944
 5784TIP3    H217306   3.364   3.041   4.860
 5785TIP3   OH217307   3.667   1.852   5.271
 5785TIP3    H117308   3.580   1.875   5.236
 5785TIP3    H217309   3.727   1.884   5.200
 5786TIP3   OH217310   2.954   1.490   5.254
 5786TIP3    H117311   2.936   1.396   5.273
 5786TIP3    H217312   2.878   1.531   5.301
 5787TIP3   OH217313   3.067   2.993   4.575
 5787TIP3    H117314   3.120   2.912   4.556
 5787TIP3    H217315   3.130   3.061   4.540
 5788TIP3   OH217316   3.215   2.779   4.492
 5788TIP3    H117317   3.178   2.699   4.455
 5788TIP3    H217318   3.256   2.746   4.575
 5789TIP3   OH217319   3.597   2.862   5.248
 5789TIP3    H117320   3.581   2.786   5.188
 5789TIP3    H217321   3.576   2.938   5.189
 5790TIP3   OH217322   2.890   2.259   4.511
 5790TIP3    H117323   2.811   2.313   4.490
 5790TIP3    H217324   2.934   2.254   4.425
 5791TIP3   OH217325   2.847   2.048   4.219
 5791TIP3    H117326   2.914   2.102   4.265
 5791TIP3    H217327   2.905   1.987   4.170
 5792TIP3   OH217328   3.793   2.512   5.101
 5792TIP3    H117329   3.707   2.558   5.103
 5792TIP3    H217330   3.821   2.532   5.009
 5793TIP3   OH217331   3.239   2.344   4.474
 5793TIP3    H117332   3.184   2.367   4.553
 5793TIP3    H217333   3.323   2.320   4.518
 5794TIP3   OH217334   3.470   2.377   5.397
 5794TIP3    H117335   3.466   2.461   5.447
 5794TIP3    H217336   3.384   2.380   5.351
 5795TIP3   OH217337   2.469   2.336   4.897
 5795TIP3    H117338   2.429   2.278   4.828
 5795TIP3    H217339   2.545   2.282   4.928
 5796TIP3   OH217340   2.599   2.750   5.040
 5796TIP3    H117341   2.580   2.721   4.950
 5796TIP3    H217342   2.687   2.711   5.057
 5797TIP3   OH217343   2.603   2.310   5.250
 5797TIP3    H117344   2.636   2.283   5.162
 5797TIP3    H217345   2.647   2.396   5.265
 5798TIP3   OH217346   3.134   2.948   5.030
 5798TIP3    H117347   3.118   3.029   5.082
 5798TIP3    H217348   3.114   2.876   5.092
 5799TIP3   OH217349   2.745   2.865   5.575
 5799TIP3    H117350   2.683   2.926   5.620
 5799TIP3    H217351   2.682   2.812   5.522
 5800TIP3   OH217352   3.071   2.202   4.305
 5800TIP3    H117353   3.133   2.263   4.352
 5800TIP3    H217354   3.098   2.220   4.211
 5801TIP3   OH217355   2.501   2.416   5.683
 5801TIP3    H117356   2.505   2.507   5.720
 5801TIP3    H217357   2.406   2.397   5.698
 5802TIP3   OH217358   2.826   2.871   4.583
 5802TIP3    H117359   2.910   2.921   4.583
 5802TIP3    H217360   2.763   2.936   4.548
 5803TIP3   OH217361   2.537   3.028   5.662
 5803TIP3    H117362   2.503   3.035   5.571
 5803TIP3    H217363   2.456   3.008   5.714
 5804TIP3   OH217364   3.593   1.435   4.357
 5804TIP3    H117365   3.511   1.460   4.403
 5804TIP3    H217366   3.610   1.516   4.304
 5805TIP3   OH217367   2.337   2.182   4.696
 5805TIP3    H117368   2.266   2.226   4.645
 5805TIP3    H217369   2.301   2.094   4.710
 5806TIP3   OH217370   3.393   2.807   3.894
 5806TIP3    H117371   3.399   2.904   3.884
 5806TIP3    H217372   3.486   2.780   3.882
 5807TIP3   OH217373   2.116   2.566   5.608
 5807TIP3    H117374   2.046   2.548   5.542
 5807TIP3    H217375   2.153   2.478   5.626
 5808TIP3   OH217376   1.971   2.760   5.236
 5808TIP3    H117377   2.067   2.756   5.231
 5808TIP3    H217378   1.958   2.836   5.294
 5809TIP3   OH217379   3.835   3.217   5.301
 5809TIP3    H117380   3.834   3.120   5.315
 5809TIP3    H217381   3.751   3.242   5.345
 5810TIP3   OH217382   2.941   2.993   5.433
 5810TIP3    H117383   2.935   3.086   5.464
 5810TIP3    H217384   2.868   2.952   5.486
 5811TIP3   OH217385   2.695   3.121   4.370
 5811TIP3    H117386   2.660   3.078   4.290
 5811TIP3    H217387   2.691   3.214   4.345
 5812TIP3   OH217388   2.143   2.961   4.769
 5812TIP3    H117389   2.188   2.956   4.857
 5812TIP3    H217390   2.093   2.878   4.769
 5813TIP3   OH217391   2.897   3.022   4.018
 5813TIP3    H117392   2.958   2.953   3.984
 5813TIP3    H217393   2.939   3.044   4.103
 5814TIP3   OH217394   2.954   3.069   4.293
 5814TIP3    H117395   2.869   3.074   4.340
 5814TIP3    H217396   3.015   3.044   4.364
 5815TIP3   OH217397   3.725   2.341   5.571
 5815TIP3    H117398   3.639   2.349   5.528
 5815TIP3    H217399   3.741   2.245   5.562
 5816TIP3   OH217400   2.321   2.748   5.588
 5816TIP3    H117401   2.369   2.733   5.672
 5816TIP3    H217402   2.246   2.686   5.596
 5817TIP3   OH217403   2.719   1.571   5.386
 5817TIP3    H117404   2.632   1.541   5.354
 5817TIP3    H217405   2.691   1.650   5.436
 5818TIP3   OH217406   3.256   1.684   5.577
 5818TIP3    H117407   3.326   1.657   5.641
 5818TIP3    H217408   3.174   1.666   5.627
 5819TIP3   OH217409   3.491   2.117   5.497
 5819TIP3    H117410   3.437   2.114   5.580
 5819TIP3    H217411   3.466   2.204   5.459
 5820TIP3   OH217412   3.155   2.244   4.053
 5820TIP3    H117413   3.116   2.221   3.966
 5820TIP3    H217414   3.242   2.281   4.025
 5821TIP3   OH217415   2.860   1.615   4.353
 5821TIP3    H117416   2.825   1.612   4.445
 5821TIP3    H217417   2.820   1.534   4.317
 5822TIP3   OH217418   2.653   2.089   5.400
 5822TIP3    H117419   2.602   2.107   5.481
 5822TIP3    H217420   2.636   2.170   5.348
 5823TIP3   OH217421   2.536   1.974   4.913
 5823TIP3    H117422   2.444   1.949   4.933
 5823TIP3    H217423   2.546   1.933   4.824
 5824TIP3   OH217424   3.025   2.057   4.646
 5824TIP3    H117425   2.977   2.129   4.599
 5824TIP3    H217426   3.081   2.022   4.574
 5825TIP3   OH217427   3.201   2.331   5.724
 5825TIP3    H117428   3.177   2.259   5.787
 5825TIP3    H217429   3.294   2.346   5.748
 5826TIP3   OH217430   3.180   2.083   4.878
 5826TIP3    H117431   3.116   2.109   4.809
 5826TIP3    H217432   3.218   2.005   4.831
 5827TIP3   OH217433   2.473   2.114   5.607
 5827TIP3    H117434   2.496   2.179   5.674
 5827TIP3    H217435   2.459   2.033   5.660
 5828TIP3   OH217436   2.518   1.593   4.319
 5828TIP3    H117437   2.508   1.594   4.417
 5828TIP3    H217438   2.444   1.650   4.292
 5829TIP3   OH217439   2.068   1.632   5.187
 5829TIP3    H117440   2.138   1.669   5.246
 5829TIP3    H217441   2.117   1.607   5.108
 5830TIP3   OH217442   2.021   1.615   4.708
 5830TIP3    H117443   2.068   1.651   4.629
 5830TIP3    H217444   1.963   1.691   4.727
 5831TIP3   OH217445   3.195   2.328   5.299
 5831TIP3    H117446   3.228   2.257   5.238
 5831TIP3    H217447   3.162   2.273   5.373
 5832TIP3   OH217448   2.873   1.790   4.973
 5832TIP3    H117449   2.792   1.792   5.027
 5832TIP3    H217450   2.943   1.785   5.040
 5833TIP3   OH217451   2.298   1.855   4.979
 5833TIP3    H117452   2.204   1.862   4.950
 5833TIP3    H217453   2.321   1.763   4.958
 5834TIP3   OH217454   2.558   1.845   4.673
 5834TIP3    H117455   2.652   1.860   4.652
 5834TIP3    H217456   2.512   1.867   4.589
 5835TIP3   OH217457   3.357   1.870   5.177
 5835TIP3    H117458   3.328   1.885   5.270
 5835TIP3    H217459   3.286   1.812   5.145
 5836TIP3   OH217460   2.417   1.881   4.444
 5836TIP3    H117461   2.349   1.836   4.391
 5836TIP3    H217462   2.470   1.923   4.373
 5837TIP3   OH217463   3.532   3.560   5.399
 5837TIP3    H117464   3.528   3.584   5.305
 5837TIP3    H217465   3.613   3.607   5.428
 5838TIP3   OH217466   2.483   2.670   5.814
 5838TIP3    H117467   2.562   2.699   5.863
 5838TIP3    H217468   2.418   2.667   5.886
 5839TIP3   OH217469   2.944   2.127   5.072
 5839TIP3    H117470   3.018   2.087   5.025
 5839TIP3    H217471   2.947   2.080   5.158
 5840TIP3   OH217472   2.460   1.610   4.959
 5840TIP3    H117473   2.423   1.534   5.009
 5840TIP3    H217474   2.502   1.565   4.885
 5841TIP3   OH217475   2.921   2.028   5.358
 5841TIP3    H117476   2.830   2.061   5.374
 5841TIP3    H217477   2.976   2.090   5.409
 5842TIP3   OH217478   2.657   2.409   4.455
 5842TIP3    H117479   2.584   2.345   4.442
 5842TIP3    H217480   2.636   2.443   4.545
 5843TIP3   OH217481   3.554   2.646   5.081
 5843TIP3    H117482   3.577   2.698   5.002
 5843TIP3    H217483   3.470   2.603   5.053
 5844TIP3   OH217484   3.115   1.711   4.340
 5844TIP3    H117485   3.018   1.694   4.337
 5844TIP3    H217486   3.119   1.809   4.346
 5845TIP3   OH217487   3.056   2.731   5.455
 5845TIP3    H117488   3.090   2.717   5.544
 5845TIP3    H217489   3.018   2.820   5.459
 5846TIP3   OH217490   3.181   1.975   4.430
 5846TIP3    H117491   3.278   1.981   4.438
 5846TIP3    H217492   3.159   2.052   4.374
 5847TIP3   OH217493   2.352   2.435   5.128
 5847TIP3    H117494   2.392   2.406   5.044
 5847TIP3    H217495   2.399   2.379   5.192
 5848TIP3   OH217496   2.805   2.559   4.282
 5848TIP3    H117497   2.755   2.644   4.284
 5848TIP3    H217498   2.751   2.504   4.343
 5849TIP3   OH217499   2.237   2.349   5.744
 5849TIP3    H117500   2.246   2.334   5.840
 5849TIP3    H217501   2.164   2.288   5.723
 5850TIP3   OH217502   2.962   2.473   5.764
 5850TIP3    H117503   2.897   2.412   5.724
 5850TIP3    H217504   3.046   2.434   5.733
 5851TIP3   OH217505   3.216   2.990   5.353
 5851TIP3    H117506   3.119   2.989   5.366
 5851TIP3    H217507   3.243   3.044   5.430
 5852TIP3   OH217508   3.623   2.068   4.257
 5852TIP3    H117509   3.562   2.024   4.193
 5852TIP3    H217510   3.619   2.158   4.218
 5853TIP3   OH217511   3.847   2.926   5.335
 5853TIP3    H117512   3.749   2.918   5.328
 5853TIP3    H217513   3.873   2.893   5.246
 5854TIP3   OH217514   3.336   2.892   4.160
 5854TIP3    H117515   3.301   2.833   4.228
 5854TIP3    H217516   3.340   2.836   4.081
 5855TIP3   OH217517   3.323   2.511   4.995
 5855TIP3    H117518   3.229   2.487   5.010
 5855TIP3    H217519   3.355   2.429   4.951
 5856TIP3   OH217520   2.456   2.740   4.760
 5856TIP3    H117521   2.449   2.819   4.702
 5856TIP3    H217522   2.363   2.720   4.775
 5857TIP3   OH217523   2.020   2.041   4.466
 5857TIP3    H117524   2.064   2.127   4.488
 5857TIP3    H217525   1.943   2.045   4.527
 5858TIP3   OH217526   2.578   2.500   4.696
 5858TIP3    H117527   2.548   2.590   4.717
 5858TIP3    H217528   2.546   2.450   4.773
 5859TIP3   OH217529   2.724   3.081   5.221
 5859TIP3    H117530   2.766   3.155   5.171
 5859TIP3    H217531   2.802   3.044   5.267
 5860TIP3   OH217532   2.368   2.966   4.606
 5860TIP3    H117533   2.282   2.976   4.651
 5860TIP3    H217534   2.402   3.058   4.612
 5861TIP3   OH217535   3.104   2.716   5.187
 5861TIP3    H117536   3.093   2.715   5.285
 5861TIP3    H217537   3.182   2.661   5.176
 5862TIP3   OH217538   3.090   2.616   4.069
 5862TIP3    H117539   3.144   2.588   4.147
 5862TIP3    H217540   3.003   2.582   4.095
 5863TIP3   OH217541   3.357   3.245   5.233
 5863TIP3    H117542   3.276   3.191   5.229
 5863TIP3    H217543   3.339   3.310   5.160
 5864TIP3   OH217544   3.417   3.088   3.883
 5864TIP3    H117545   3.394   3.143   3.805
 5864TIP3    H217546   3.372   3.138   3.952
 5865TIP3   OH217547   2.438   1.859   5.747
 5865TIP3    H117548   2.341   1.865   5.758
 5865TIP3    H217549   2.464   1.807   5.824
 5866TIP3   OH217550   3.250   2.541   4.281
 5866TIP3    H117551   3.238   2.475   4.352
 5866TIP3    H217552   3.347   2.538   4.269
 5867TIP3   OH217553   2.161   2.941   5.381
 5867TIP3    H117554   2.217   2.873   5.423
 5867TIP3    H217555   2.184   3.019   5.433
 5868TIP3   OH217556   2.446   2.589   4.070
 5868TIP3    H117557   2.460   2.495   4.045
 5868TIP3    H217558   2.426   2.580   4.165
 5869TIP3   OH217559   2.390   2.595   4.341
 5869TIP3    H117560   2.468   2.568   4.393
 5869TIP3    H217561   2.394   2.693   4.349
 5870TIP3   OH217562   2.124   2.285   4.547
 5870TIP3    H117563   2.057   2.331   4.602
 5870TIP3    H217564   2.137   2.352   4.477
 5871TIP3   OH217565   3.288   1.921   5.438
 5871TIP3    H117566   3.366   1.960   5.479
 5871TIP3    H217567   3.273   1.840   5.492
 5872TIP3   OH217568   3.165   1.666   4.611
 5872TIP3    H117569   3.148   1.685   4.517
 5872TIP3    H217570   3.204   1.751   4.642
 5873TIP3   OH217571   2.661   2.786   4.288
 5873TIP3    H117572   2.574   2.812   4.324
 5873TIP3    H217573   2.677   2.860   4.226
 5874TIP3   OH217574   2.842   1.857   4.705
 5874TIP3    H117575   2.906   1.929   4.687
 5874TIP3    H217576   2.852   1.848   4.802
 5875TIP3   OH217577   3.120   2.168   5.507
 5875TIP3    H117578   3.147   2.220   5.586
 5875TIP3    H217579   3.171   2.086   5.518
 5876TIP3   OH217580   2.987   1.570   4.802
 5876TIP3    H117581   2.976   1.650   4.857
 5876TIP3    H217582   3.053   1.603   4.736
 5877TIP3   OH217583   2.409   2.867   4.356
 5877TIP3    H117584   2.378   2.942   4.299
 5877TIP3    H217585   2.393   2.904   4.445
 5878TIP3   OH217586   2.504   1.582   4.595
 5878TIP3    H117587   2.502   1.672   4.634
 5878TIP3    H217588   2.600   1.565   4.602
 5879TIP3   OH217589   3.756   2.072   5.488
 5879TIP3    H117590   3.658   2.075   5.500
 5879TIP3    H217591   3.760   2.016   5.409
 5880TIP3   OH217592   3.409   2.264   4.879
 5880TIP3    H117593   3.331   2.207   4.890
 5880TIP3    H217594   3.478   2.215   4.929
 5881TIP3   OH217595   2.125   2.486   4.348
 5881TIP3    H117596   2.199   2.550   4.358
 5881TIP3    H217597   2.167   2.426   4.282
 5882TIP3   OH217598   2.060   1.770   4.485
 5882TIP3    H117599   2.074   1.866   4.485
 5882TIP3    H217600   1.978   1.763   4.435
 5883TIP3   OH217601   3.385   3.222   4.835
 5883TIP3    H117602   3.340   3.269   4.761
 5883TIP3    H217603   3.479   3.237   4.809
 5884TIP3   OH217604   2.456   1.490   5.350
 5884TIP3    H117605   2.425   1.456   5.264
 5884TIP3    H217606   2.444   1.412   5.408
 5885TIP3   OH217607   1.982   2.703   4.729
 5885TIP3    H117608   1.929   2.736   4.804
 5885TIP3    H217609   1.943   2.752   4.653
 5886TIP3   OH217610   2.155   3.263   5.806
 5886TIP3    H117611   2.242   3.264   5.854
 5886TIP3    H217612   2.136   3.168   5.806
 5887TIP3   OH217613   2.626   3.208   5.853
 5887TIP3    H117614   2.722   3.192   5.857
 5887TIP3    H217615   2.600   3.146   5.782
 5888TIP3   OH217616   2.609   2.788   3.975
 5888TIP3    H117617   2.556   2.715   4.014
 5888TIP3    H217618   2.687   2.739   3.943
 5889TIP3   OH217619   3.269   3.125   5.587
 5889TIP3    H117620   3.264   3.054   5.656
 5889TIP3    H217621   3.346   3.177   5.617
 5890TIP3   OH217622   3.046   2.825   3.892
 5890TIP3    H117623   3.082   2.759   3.955
 5890TIP3    H217624   3.108   2.819   3.817
 5891TIP3   OH217625   2.281   2.662   6.006
 5891TIP3    H117626   2.295   2.566   6.015
 5891TIP3    H217627   2.194   2.664   5.961
 5892TIP3   OH217628   2.261   2.301   4.206
 5892TIP3    H117629   2.320   2.276   4.279
 5892TIP3    H217630   2.327   2.308   4.133
 5893TIP3   OH217631   2.887   2.750   5.782
 5893TIP3    H117632   2.845   2.772   5.696
 5893TIP3    H217633   2.917   2.658   5.767
 5894TIP3   OH217634   2.780   2.509   4.013
 5894TIP3    H117635   2.780   2.519   4.110
 5894TIP3    H217636   2.782   2.411   4.005
 5895TIP3   OH217637   3.380   2.762   5.392
 5895TIP3    H117638   3.456   2.803   5.347
 5895TIP3    H217639   3.311   2.829   5.374
 5896TIP3   OH217640   2.402   2.402   5.994
 5896TIP3    H117641   2.478   2.352   5.963
 5896TIP3    H217642   2.433   2.432   6.082
 5897TIP3   OH217643   2.459   2.217   4.417
 5897TIP3    H117644   2.436   2.178   4.502
 5897TIP3    H217645   2.502   2.142   4.370
 5898TIP3   OH217646   2.739   2.280   5.654
 5898TIP3    H117647   2.658   2.336   5.653
 5898TIP3    H217648   2.789   2.315   5.577
 5899TIP3   OH217649   2.571   2.013   4.262
 5899TIP3    H117650   2.547   2.021   4.167
 5899TIP3    H217651   2.669   2.012   4.255
 5900TIP3   OH217652   3.254   2.680   5.783
 5900TIP3    H117653   3.328   2.641   5.734
 5900TIP3    H217654   3.245   2.618   5.858
 5901TIP3   OH217655   3.387   2.336   3.933
 5901TIP3    H117656   3.367   2.292   3.848
 5901TIP3    H217657   3.351   2.425   3.913
 5902TIP3   OH217658   2.862   2.070   5.773
 5902TIP3    H117659   2.861   1.992   5.713
 5902TIP3    H217660   2.817   2.138   5.719
 5903TIP3   OH217661   2.863   1.856   5.585
 5903TIP3    H117662   2.891   1.897   5.501
 5903TIP3    H217663   2.770   1.833   5.566
 5904TIP3   OH217664   2.882   2.388   5.458
 5904TIP3    H117665   2.969   2.407   5.421
 5904TIP3    H217666   2.825   2.452   5.410
 5905TIP3   OH217667   3.464   2.352   5.833
 5905TIP3    H117668   3.513   2.270   5.850
 5905TIP3    H217669   3.534   2.410   5.798
 5906TIP3   OH217670   3.508   2.609   5.574
 5906TIP3    H117671   3.451   2.666   5.517
 5906TIP3    H217672   3.596   2.631   5.536
 5907TIP3   OH217673   2.741   2.168   6.012
 5907TIP3    H117674   2.673   2.101   6.029
 5907TIP3    H217675   2.771   2.145   5.922
 5908TIP3   OH217676   2.993   1.615   5.658
 5908TIP3    H117677   2.943   1.696   5.633
 5908TIP3    H217678   2.925   1.546   5.646
 5909TIP3   OH217679   3.120   2.114   5.870
 5909TIP3    H117680   3.101   2.099   5.964
 5909TIP3    H217681   3.031   2.093   5.833
 5910TIP3   OH217682   3.356   2.067   5.725
 5910TIP3    H117683   3.282   2.069   5.789
 5910TIP3    H217684   3.431   2.039   5.781
 5911TIP3   OH217685   3.589   2.014   5.872
 5911TIP3    H117686   3.602   1.918   5.886
 5911TIP3    H217687   3.584   2.048   5.964
 5912TIP3   OH217688   2.577   1.950   6.067
 5912TIP3    H117689   2.579   1.857   6.036
 5912TIP3    H217690   2.615   1.939   6.157
 5913TIP3   OH217691   3.085   1.625   5.917
 5913TIP3    H117692   3.150   1.553   5.908
 5913TIP3    H217693   3.045   1.622   5.827
 5914TIP3   OH217694   3.154   1.840   6.072
 5914TIP3    H117695   3.133   1.769   6.008
 5914TIP3    H217696   3.075   1.898   6.066
 5915TIP3   OH217697   2.385   3.086   4.178
 5915TIP3    H117698   2.475   3.061   4.152
 5915TIP3    H217699   2.355   3.129   4.095
 5916TIP3   OH217700   1.855   2.453   4.381
 5916TIP3    H117701   1.950   2.473   4.368
 5916TIP3    H217702   1.849   2.364   4.341
 5917TIP3   OH217703   1.771   3.057   4.806
 5917TIP3    H117704   1.706   2.997   4.763
 5917TIP3    H217705   1.816   2.995   4.867
 5918TIP3   OH217706   1.909   2.899   4.987
 5918TIP3    H117707   1.896   2.836   5.060
 5918TIP3    H217708   1.961   2.968   5.033
 5919TIP3   OH217709   3.644   3.297   4.790
 5919TIP3    H117710   3.664   3.335   4.878
 5919TIP3    H217711   3.696   3.354   4.731
 5920TIP3   OH217712   3.662   3.332   5.073
 5920TIP3    H117713   3.613   3.247   5.067
 5920TIP3    H217714   3.734   3.305   5.131
 5921TIP3   OH217715   3.710   3.010   5.645
 5921TIP3    H117716   3.638   3.020   5.711
 5921TIP3    H217717   3.752   3.098   5.648
 5922TIP3   OH217718   3.528   2.521   4.262
 5922TIP3    H117719   3.592   2.589   4.232
 5922TIP3    H217720   3.574   2.485   4.341
 5923TIP3   OH217721   3.656   2.389   4.468
 5923TIP3    H117722   3.586   2.347   4.523
 5923TIP3    H217723   3.715   2.427   4.536
 5924TIP3   OH217724   3.716   2.786   4.904
 5924TIP3    H117725   3.762   2.717   4.853
 5924TIP3    H217726   3.717   2.861   4.840
 5925TIP3   OH217727   3.535   3.084   5.091
 5925TIP3    H117728   3.462   3.126   5.141
 5925TIP3    H217729   3.488   3.040   5.018
 5926TIP3   OH217730   3.591   2.300   4.111
 5926TIP3    H117731   3.518   2.299   4.044
 5926TIP3    H217732   3.560   2.375   4.165
 5927TIP3   OH217733   3.462   1.971   4.061
 5927TIP3    H117734   3.414   2.000   3.982
 5927TIP3    H217735   3.441   1.875   4.058
 5928TIP3   OH217736   3.465   2.250   4.609
 5928TIP3    H117737   3.469   2.154   4.598
 5928TIP3    H217738   3.449   2.260   4.705
 5929TIP3   OH217739   2.089   2.320   5.361
 5929TIP3    H117740   2.085   2.284   5.269
 5929TIP3    H217741   2.186   2.320   5.375
 5930TIP3   OH217742   3.757   2.674   5.471
 5930TIP3    H117743   3.827   2.606   5.455
 5930TIP3    H217744   3.776   2.740   5.403
 5931TIP3   OH217745   3.940   2.471   5.466
 5931TIP3    H117746   3.864   2.425   5.508
 5931TIP3    H217747   4.012   2.409   5.489
 5932TIP3   OH217748   3.403   1.706   4.047
 5932TIP3    H117749   3.467   1.666   4.108
 5932TIP3    H217750   3.322   1.652   4.060
 5933TIP3   OH217751   3.466   1.968   4.501
 5933TIP3    H117752   3.506   1.879   4.515
 5933TIP3    H217753   3.521   2.000   4.427
 5934TIP3   OH217754   3.621   2.130   5.002
 5934TIP3    H117755   3.706   2.154   4.959
 5934TIP3    H217756   3.636   2.171   5.089
 5935TIP3   OH217757   3.696   2.284   5.227
 5935TIP3    H117758   3.620   2.315   5.278
 5935TIP3    H217759   3.728   2.367   5.186
 5936TIP3   OH217760   2.311   2.005   6.035
 5936TIP3    H117761   2.409   2.000   6.041
 5936TIP3    H217762   2.287   1.917   6.071
 5937TIP3   OH217763   4.143   1.878   5.783
 5937TIP3    H117764   4.206   1.814   5.743
 5937TIP3    H217765   4.113   1.928   5.704
 5938TIP3   OH217766   3.572   1.717   4.542
 5938TIP3    H117767   3.618   1.699   4.626
 5938TIP3    H217768   3.509   1.642   4.539
 5939TIP3   OH217769   2.272   1.700   5.360
 5939TIP3    H117770   2.334   1.625   5.368
 5939TIP3    H217771   2.334   1.774   5.352
 5940TIP3   OH217772   2.070   1.970   5.434
 5940TIP3    H117773   2.121   1.972   5.351
 5940TIP3    H217774   2.095   2.054   5.475
 5941TIP3   OH217775   4.012   2.010   5.584
 5941TIP3    H117776   3.928   2.055   5.607
 5941TIP3    H217777   3.976   1.936   5.531
 5942TIP3   OH217778   3.650   1.640   4.184
 5942TIP3    H117779   3.684   1.576   4.119
 5942TIP3    H217780   3.713   1.715   4.175
 5943TIP3   OH217781   2.058   1.467   4.931
 5943TIP3    H117782   1.969   1.466   4.970
 5943TIP3    H217783   2.048   1.531   4.858
 5944TIP3   OH217784   3.213   3.182   4.451
 5944TIP3    H117785   3.261   3.175   4.366
 5944TIP3    H217786   3.269   3.246   4.499
 5945TIP3   OH217787   2.277   1.549   5.748
 5945TIP3    H117788   2.227   1.551   5.831
 5945TIP3    H217789   2.213   1.593   5.687
 5946TIP3   OH217790   2.316   2.988   5.824
 5946TIP3    H117791   2.222   2.966   5.810
 5946TIP3    H217792   2.327   2.967   5.918
 5947TIP3   OH217793   2.501   3.024   5.375
 5947TIP3    H117794   2.452   3.099   5.337
 5947TIP3    H217795   2.586   3.037   5.328
 5948TIP3   OH217796   2.933   3.260   5.511
 5948TIP3    H117797   2.976   3.258   5.599
 5948TIP3    H217798   2.998   3.314   5.461
 5949TIP3   OH217799   3.113   3.418   5.377
 5949TIP3    H117800   3.181   3.367   5.331
 5949TIP3    H217801   3.168   3.474   5.436
 5950TIP3   OH217802   3.914   1.771   5.472
 5950TIP3    H117803   3.824   1.757   5.436
 5950TIP3    H217804   3.951   1.680   5.464
 5951TIP3   OH217805   2.170   3.274   5.403
 5951TIP3    H117806   2.079   3.303   5.380
 5951TIP3    H217807   2.186   3.327   5.481
 5952TIP3   OH217808   2.407   3.254   5.260
 5952TIP3    H117809   2.319   3.265   5.303
 5952TIP3    H217810   2.388   3.286   5.170
 5953TIP3   OH217811   2.832   3.277   5.055
 5953TIP3    H117812   2.761   3.287   4.988
 5953TIP3    H217813   2.837   3.367   5.091
 5954TIP3   OH217814   3.101   3.218   5.113
 5954TIP3    H117815   3.007   3.235   5.091
 5954TIP3    H217816   3.145   3.286   5.059
 5955TIP3   OH217817   3.310   3.411   5.019
 5955TIP3    H117818   3.294   3.494   4.968
 5955TIP3    H217819   3.336   3.349   4.947
 5956TIP3   OH217820   2.081   3.066   5.143
 5956TIP3    H117821   2.108   3.035   5.232
 5956TIP3    H217822   2.153   3.025   5.090
 5957TIP3   OH217823   2.278   2.941   5.006
 5957TIP3    H117824   2.292   2.857   5.056
 5957TIP3    H217825   2.370   2.975   5.003
 5958TIP3   OH217826   2.544   3.025   5.016
 5958TIP3    H117827   2.573   2.933   5.005
 5958TIP3    H217828   2.598   3.051   5.093
 5959TIP3   OH217829   3.121   1.689   5.098
 5959TIP3    H117830   3.079   1.616   5.145
 5959TIP3    H217831   3.195   1.645   5.051
 5960TIP3   OH217832   3.635   1.572   4.996
 5960TIP3    H117833   3.672   1.623   4.920
 5960TIP3    H217834   3.540   1.592   4.989
 5961TIP3   OH217835   3.734   1.666   4.760
 5961TIP3    H117836   3.809   1.615   4.722
 5961TIP3    H217837   3.767   1.757   4.746
 5962TIP3   OH217838   2.366   1.395   5.104
 5962TIP3    H117839   2.274   1.362   5.110
 5962TIP3    H217840   2.414   1.310   5.101
 5963TIP3   OH217841   2.142   1.271   4.751
 5963TIP3    H117842   2.182   1.327   4.682
 5963TIP3    H217843   2.122   1.337   4.821
 5964TIP3   OH217844   2.816   1.427   4.990
 5964TIP3    H117845   2.869   1.472   4.922
 5964TIP3    H217846   2.846   1.469   5.071
 5965TIP3   OH217847   3.351   1.579   4.970
 5965TIP3    H117848   3.355   1.537   4.883
 5965TIP3    H217849   3.343   1.500   5.029
 5966TIP3   OH217850   3.388   1.506   4.536
 5966TIP3    H117851   3.303   1.550   4.554
 5966TIP3    H217852   3.373   1.419   4.578
 5967TIP3   OH217853   1.870   2.848   4.531
 5967TIP3    H117854   1.783   2.817   4.499
 5967TIP3    H217855   1.865   2.941   4.503
 5968TIP3   OH217856   2.277   1.426   4.517
 5968TIP3    H117857   2.323   1.364   4.458
 5968TIP3    H217858   2.351   1.480   4.551
 5969TIP3   OH217859   2.780   1.606   4.618
 5969TIP3    H117860   2.842   1.560   4.677
 5969TIP3    H217861   2.801   1.699   4.641
 5970TIP3   OH217862   2.644   3.016   4.117
 5970TIP3    H117863   2.732   3.039   4.081
 5970TIP3    H217864   2.621   2.943   4.056
 5971TIP3   OH217865   3.364   3.170   4.225
 5971TIP3    H117866   3.361   3.080   4.186
 5971TIP3    H217867   3.395   3.228   4.152
 5972TIP3   OH217868   2.574   1.676   5.997
 5972TIP3    H117869   2.537   1.607   6.054
 5972TIP3    H217870   2.668   1.676   6.027
 5973TIP3   OH217871   2.825   1.675   6.117
 5973TIP3    H117872   2.911   1.651   6.078
 5973TIP3    H217873   2.813   1.604   6.183
 5974TIP3   OH217874   1.946   2.859   4.167
 5974TIP3    H117875   1.950   2.881   4.261
 5974TIP3    H217876   2.033   2.817   4.152
 5975TIP3   OH217877   3.653   1.742   5.903
 5975TIP3    H117878   3.669   1.712   5.995
 5975TIP3    H217879   3.743   1.736   5.865
 5976TIP3   OH217880   3.585   3.289   5.395
 5976TIP3    H117881   3.507   3.259   5.344
 5976TIP3    H217882   3.564   3.384   5.405
 5977TIP3   OH217883   4.856   2.666   4.158
 5977TIP3    H117884   4.822   2.755   4.135
 5977TIP3    H217885   4.783   2.611   4.124
 5978TIP3   OH217886   4.855   2.667   4.554
 5978TIP3    H117887   4.893   2.639   4.639
 5978TIP3    H217888   4.818   2.584   4.520
 5979TIP3   OH217889   4.154   2.551   4.904
 5979TIP3    H117890   4.182   2.489   4.973
 5979TIP3    H217891   4.229   2.612   4.901
 5980TIP3   OH217892   5.102   2.969   4.230
 5980TIP3    H117893   5.086   2.901   4.296
 5980TIP3    H217894   5.135   3.044   4.283
 5981TIP3   OH217895   4.132   2.973   4.629
 5981TIP3    H117896   4.123   2.876   4.630
 5981TIP3    H217897   4.228   2.982   4.618
 5982TIP3   OH217898   3.832   2.170   4.410
 5982TIP3    H117899   3.780   2.249   4.432
 5982TIP3    H217900   3.764   2.118   4.364
 5983TIP3   OH217901   3.891   2.459   4.600
 5983TIP3    H117902   3.940   2.379   4.629
 5983TIP3    H217903   3.940   2.486   4.522
 5984TIP3   OH217904   4.748   3.427   4.243
 5984TIP3    H117905   4.792   3.356   4.190
 5984TIP3    H217906   4.734   3.383   4.327
 5985TIP3   OH217907   4.647   2.881   4.604
 5985TIP3    H117908   4.691   2.806   4.558
 5985TIP3    H217909   4.728   2.931   4.628
 5986TIP3   OH217910   5.671   2.209   4.590
 5986TIP3    H117911   5.701   2.292   4.631
 5986TIP3    H217912   5.695   2.223   4.497
 5987TIP3   OH217913   5.063   2.389   4.620
 5987TIP3    H117914   5.106   2.305   4.642
 5987TIP3    H217915   5.030   2.370   4.530
 5988TIP3   OH217916   4.409   2.051   4.585
 5988TIP3    H117917   4.388   2.121   4.521
 5988TIP3    H217918   4.362   1.975   4.544
 5989TIP3   OH217919   5.102   2.144   4.205
 5989TIP3    H117920   5.173   2.130   4.273
 5989TIP3    H217921   5.157   2.177   4.131
 5990TIP3   OH217922   4.039   2.249   4.696
 5990TIP3    H117923   4.122   2.229   4.744
 5990TIP3    H217924   4.051   2.194   4.616
 5991TIP3   OH217925   4.473   2.447   4.502
 5991TIP3    H117926   4.568   2.425   4.508
 5991TIP3    H217927   4.436   2.364   4.464
 5992TIP3   OH217928   5.745   2.420   4.757
 5992TIP3    H117929   5.658   2.462   4.740
 5992TIP3    H217930   5.758   2.445   4.850
 5993TIP3   OH217931   4.401   2.034   5.024
 5993TIP3    H117932   4.340   2.067   4.955
 5993TIP3    H217933   4.346   2.047   5.104
 5994TIP3   OH217934   4.736   2.880   4.030
 5994TIP3    H117935   4.702   2.873   3.940
 5994TIP3    H217936   4.694   2.964   4.059
 5995TIP3   OH217937   4.530   2.823   4.838
 5995TIP3    H117938   4.455   2.885   4.854
 5995TIP3    H217939   4.562   2.854   4.750
 5996TIP3   OH217940   5.301   2.152   4.389
 5996TIP3    H117941   5.290   2.104   4.472
 5996TIP3    H217942   5.353   2.230   4.417
 5997TIP3   OH217943   4.279   2.151   4.805
 5997TIP3    H117944   4.345   2.219   4.827
 5997TIP3    H217945   4.324   2.108   4.728
 5998TIP3   OH217946   4.340   3.006   4.914
 5998TIP3    H117947   4.315   3.094   4.877
 5998TIP3    H217948   4.258   2.989   4.966
 5999TIP3   OH217949   3.724   2.696   4.148
 5999TIP3    H117950   3.678   2.725   4.068
 5999TIP3    H217951   3.752   2.783   4.184
 6000TIP3   OH217952   5.166   3.209   4.390
 6000TIP3    H117953   5.076   3.202   4.429
 6000TIP3    H217954   5.161   3.297   4.348
 6001TIP3   OH217955   5.462   2.111   4.755
 6001TIP3    H117956   5.375   2.136   4.720
 6001TIP3    H217957   5.523   2.143   4.685
 6002TIP3   OH217958   4.747   1.745   4.738
 6002TIP3    H117959   4.735   1.650   4.763
 6002TIP3    H217960   4.671   1.784   4.786
 6003TIP3   OH217961   4.865   3.254   4.058
 6003TIP3    H117962   4.915   3.170   4.041
 6003TIP3    H217963   4.930   3.318   4.022
 6004TIP3   OH217964   5.009   3.037   3.978
 6004TIP3    H117965   4.983   2.954   3.936
 6004TIP3    H217966   5.049   3.005   4.062
 6005TIP3   OH217967   5.391   3.116   4.736
 6005TIP3    H117968   5.379   3.041   4.674
 6005TIP3    H217969   5.373   3.193   4.678
 6006TIP3   OH217970   4.687   2.517   3.997
 6006TIP3    H117971   4.607   2.570   3.977
 6006TIP3    H217972   4.731   2.512   3.911
 6007TIP3   OH217973   4.643   2.308   3.701
 6007TIP3    H117974   4.710   2.358   3.751
 6007TIP3    H217975   4.700   2.243   3.655
 6008TIP3   OH217976   5.588   2.765   4.585
 6008TIP3    H117977   5.502   2.813   4.586
 6008TIP3    H217978   5.618   2.787   4.494
 6009TIP3   OH217979   5.034   2.600   3.961
 6009TIP3    H117980   4.980   2.623   4.040
 6009TIP3    H217981   5.119   2.575   4.004
 6010TIP3   OH217982   5.271   2.632   4.889
 6010TIP3    H117983   5.267   2.715   4.940
 6010TIP3    H217984   5.185   2.635   4.843
 6011TIP3   OH217985   4.265   2.592   4.383
 6011TIP3    H117986   4.223   2.535   4.315
 6011TIP3    H217987   4.339   2.537   4.414
 6012TIP3   OH217988   4.395   3.006   4.527
 6012TIP3    H117989   4.375   2.977   4.437
 6012TIP3    H217990   4.481   2.963   4.545
 6013TIP3   OH217991   4.415   2.568   4.746
 6013TIP3    H117992   4.434   2.537   4.654
 6013TIP3    H217993   4.457   2.655   4.748
 6014TIP3   OH217994   4.927   3.204   4.518
 6014TIP3    H117995   4.912   3.289   4.563
 6014TIP3    H217996   4.905   3.138   4.586
 6015TIP3   OH217997   4.541   3.116   5.066
 6015TIP3    H117998   4.485   3.178   5.117
 6015TIP3    H217999   4.472   3.071   5.014
 6016TIP3   OH218000   4.868   2.459   3.791
 6016TIP3    H118001   4.929   2.519   3.840
 6016TIP3    H218002   4.896   2.477   3.698
 6017TIP3   OH218003   4.295   2.678   5.174
 6017TIP3    H118004   4.295   2.766   5.217
 6017TIP3    H218005   4.202   2.653   5.189
 6018TIP3   OH218006   4.623   3.130   4.066
 6018TIP3    H118007   4.707   3.180   4.067
 6018TIP3    H218008   4.560   3.195   4.035
 6019TIP3   OH218009   4.335   3.283   5.152
 6019TIP3    H118010   4.302   3.290   5.060
 6019TIP3    H218011   4.253   3.262   5.202
 6020TIP3   OH218012   5.388   1.692   3.842
 6020TIP3    H118013   5.306   1.716   3.891
 6020TIP3    H218014   5.404   1.774   3.791
 6021TIP3   OH218015   4.132   2.439   4.185
 6021TIP3    H118016   4.059   2.482   4.134
 6021TIP3    H218017   4.099   2.349   4.195
 6022TIP3   OH218018   5.190   3.063   3.396
 6022TIP3    H118019   5.200   3.158   3.373
 6022TIP3    H218020   5.281   3.030   3.379
 6023TIP3   OH218021   3.913   2.821   5.095
 6023TIP3    H118022   3.841   2.808   5.029
 6023TIP3    H218023   3.947   2.730   5.106
 6024TIP3   OH218024   3.765   3.009   4.742
 6024TIP3    H118025   3.857   3.021   4.717
 6024TIP3    H218026   3.742   3.096   4.777
 6025TIP3   OH218027   5.636   3.475   4.787
 6025TIP3    H118028   5.636   3.379   4.802
 6025TIP3    H218029   5.551   3.498   4.832
 6026TIP3   OH218030   4.731   3.244   4.922
 6026TIP3    H118031   4.727   3.339   4.949
 6026TIP3    H218032   4.660   3.206   4.977
 6027TIP3   OH218033   4.498   3.372   3.858
 6027TIP3    H118034   4.461   3.340   3.773
 6027TIP3    H218035   4.443   3.448   3.877
 6028TIP3   OH218036   3.942   3.233   4.259
 6028TIP3    H118037   3.989   3.223   4.345
 6028TIP3    H218038   3.871   3.168   4.272
 6029TIP3   OH218039   4.696   3.279   3.507
 6029TIP3    H118040   4.753   3.209   3.470
 6029TIP3    H218041   4.737   3.292   3.595
 6030TIP3   OH218042   4.755   3.327   3.779
 6030TIP3    H118043   4.668   3.333   3.823
 6030TIP3    H218044   4.812   3.296   3.852
 6031TIP3   OH218045   5.518   2.596   5.058
 6031TIP3    H118046   5.435   2.601   5.009
 6031TIP3    H218047   5.538   2.500   5.051
 6032TIP3   OH218048   4.118   3.002   5.074
 6032TIP3    H118049   4.163   2.990   5.160
 6032TIP3    H218050   4.042   2.941   5.082
 6033TIP3   OH218051   4.515   1.828   4.871
 6033TIP3    H118052   4.428   1.796   4.839
 6033TIP3    H218053   4.485   1.905   4.924
 6034TIP3   OH218054   5.053   1.945   5.063
 6034TIP3    H118055   5.125   1.914   5.123
 6034TIP3    H218056   4.972   1.920   5.113
 6035TIP3   OH218057   5.282   2.369   4.980
 6035TIP3    H118058   5.233   2.369   5.066
 6035TIP3    H218059   5.265   2.459   4.946
 6036TIP3   OH218060   4.950   2.496   3.537
 6036TIP3    H118061   4.912   2.477   3.449
 6036TIP3    H218062   5.036   2.535   3.512
 6037TIP3   OH218063   4.661   1.873   3.841
 6037TIP3    H118064   4.624   1.869   3.932
 6037TIP3    H218065   4.619   1.792   3.804
 6038TIP3   OH218066   4.460   2.356   4.905
 6038TIP3    H118067   4.390   2.362   4.974
 6038TIP3    H218068   4.435   2.430   4.844
 6039TIP3   OH218069   4.330   2.233   4.400
 6039TIP3    H118070   4.238   2.205   4.420
 6039TIP3    H218071   4.342   2.191   4.312
 6040TIP3   OH218072   4.822   2.316   4.133
 6040TIP3    H118073   4.773   2.386   4.086
 6040TIP3    H218074   4.878   2.279   4.061
 6041TIP3   OH218075   4.998   2.588   5.204
 6041TIP3    H118076   4.971   2.520   5.268
 6041TIP3    H218077   5.090   2.603   5.232
 6042TIP3   OH218078   4.977   2.340   4.364
 6042TIP3    H118079   4.912   2.363   4.293
 6042TIP3    H218080   5.016   2.261   4.320
 6043TIP3   OH218081   4.277   2.374   5.104
 6043TIP3    H118082   4.253   2.436   5.175
 6043TIP3    H218083   4.264   2.287   5.149
 6044TIP3   OH218084   4.321   1.853   3.805
 6044TIP3    H118085   4.306   1.851   3.901
 6044TIP3    H218086   4.242   1.903   3.776
 6045TIP3   OH218087   3.859   1.890   4.679
 6045TIP3    H118088   3.936   1.923   4.730
 6045TIP3    H218089   3.897   1.861   4.595
 6046TIP3   OH218090   3.820   1.873   4.195
 6046TIP3    H118091   3.865   1.909   4.115
 6046TIP3    H218092   3.757   1.946   4.212
 6047TIP3   OH218093   5.002   2.589   4.789
 6047TIP3    H118094   5.030   2.516   4.729
 6047TIP3    H218095   4.960   2.537   4.861
 6048TIP3   OH218096   4.669   2.053   4.460
 6048TIP3    H118097   4.589   2.050   4.516
 6048TIP3    H218098   4.740   2.036   4.525
 6049TIP3   OH218099   4.093   2.110   4.466
 6049TIP3    H118100   3.999   2.118   4.436
 6049TIP3    H218101   4.114   2.018   4.444
 6050TIP3   OH218102   4.355   2.103   4.162
 6050TIP3    H118103   4.448   2.116   4.138
 6050TIP3    H218104   4.307   2.124   4.078
 6051TIP3   OH218105   5.150   2.131   4.670
 6051TIP3    H118106   5.116   2.143   4.761
 6051TIP3    H218107   5.085   2.068   4.635
 6052TIP3   OH218108   4.212   2.142   3.935
 6052TIP3    H118109   4.142   2.093   3.888
 6052TIP3    H218110   4.263   2.178   3.859
 6053TIP3   OH218111   5.328   3.816   4.885
 6053TIP3    H118112   5.324   3.843   4.792
 6053TIP3    H218113   5.408   3.863   4.916
 6054TIP3   OH218114   4.281   2.924   5.304
 6054TIP3    H118115   4.358   2.953   5.355
 6054TIP3    H218116   4.212   2.923   5.374
 6055TIP3   OH218117   4.740   2.385   4.559
 6055TIP3    H118118   4.811   2.343   4.508
 6055TIP3    H218119   4.742   2.334   4.643
 6056TIP3   OH218120   4.259   1.865   4.446
 6056TIP3    H118121   4.220   1.791   4.497
 6056TIP3    H218122   4.298   1.818   4.372
 6057TIP3   OH218123   4.718   2.282   4.835
 6057TIP3    H118124   4.628   2.312   4.860
 6057TIP3    H218125   4.776   2.338   4.890
 6058TIP3   OH218126   4.453   2.666   3.941
 6058TIP3    H118127   4.381   2.600   3.930
 6058TIP3    H218128   4.432   2.701   4.032
 6059TIP3   OH218129   5.349   2.904   4.566
 6059TIP3    H118130   5.376   2.955   4.487
 6059TIP3    H218131   5.266   2.861   4.537
 6060TIP3   OH218132   4.911   1.974   3.816
 6060TIP3    H118133   4.815   1.953   3.824
 6060TIP3    H218134   4.915   2.069   3.839
 6061TIP3   OH218135   4.823   2.965   4.998
 6061TIP3    H118136   4.910   2.982   5.038
 6061TIP3    H218137   4.795   3.055   4.974
 6062TIP3   OH218138   4.977   2.230   3.916
 6062TIP3    H118139   5.074   2.235   3.928
 6062TIP3    H218140   4.958   2.310   3.863
 6063TIP3   OH218141   4.159   2.700   4.617
 6063TIP3    H118142   4.191   2.666   4.531
 6063TIP3    H218143   4.181   2.628   4.677
 6064TIP3   OH218144   4.601   2.815   3.767
 6064TIP3    H118145   4.551   2.900   3.770
 6064TIP3    H218146   4.548   2.760   3.829
 6065TIP3   OH218147   4.038   2.593   5.227
 6065TIP3    H118148   4.038   2.582   5.324
 6065TIP3    H218149   3.957   2.543   5.203
 6066TIP3   OH218150   5.002   3.234   4.853
 6066TIP3    H118151   4.905   3.242   4.864
 6066TIP3    H218152   5.033   3.293   4.925
 6067TIP3   OH218153   5.418   2.325   3.745
 6067TIP3    H118154   5.357   2.281   3.681
 6067TIP3    H218155   5.415   2.415   3.706
 6068TIP3   OH218156   5.642   3.182   4.823
 6068TIP3    H118157   5.545   3.173   4.815
 6068TIP3    H218158   5.668   3.151   4.733
 6069TIP3   OH218159   5.126   3.145   3.657
 6069TIP3    H118160   5.098   3.075   3.717
 6069TIP3    H218161   5.141   3.098   3.573
 6070TIP3   OH218162   5.114   2.770   4.481
 6070TIP3    H118163   5.022   2.740   4.496
 6070TIP3    H218164   5.152   2.689   4.439
 6071TIP3   OH218165   4.250   2.998   4.247
 6071TIP3    H118166   4.242   3.077   4.190
 6071TIP3    H218167   4.158   2.978   4.264
 6072TIP3   OH218168   3.818   2.296   3.957
 6072TIP3    H118169   3.858   2.383   3.979
 6072TIP3    H218170   3.738   2.299   4.014
 6073TIP3   OH218171   4.375   2.757   4.183
 6073TIP3    H118172   4.343   2.847   4.204
 6073TIP3    H218173   4.341   2.706   4.259
 6074TIP3   OH218174   4.521   3.339   4.707
 6074TIP3    H118175   4.562   3.412   4.656
 6074TIP3    H218176   4.598   3.304   4.755
 6075TIP3   OH218177   4.167   3.232   4.094
 6075TIP3    H118178   4.082   3.243   4.141
 6075TIP3    H218179   4.203   3.323   4.094
 6076TIP3   OH218180   4.901   2.964   4.680
 6076TIP3    H118181   4.933   2.953   4.770
 6076TIP3    H218182   4.972   2.922   4.628
 6077TIP3   OH218183   4.885   2.870   3.560
 6077TIP3    H118184   4.941   2.844   3.637
 6077TIP3    H218185   4.798   2.839   3.591
 6078TIP3   OH218186   5.150   3.502   4.716
 6078TIP3    H118187   5.065   3.455   4.704
 6078TIP3    H218188   5.142   3.570   4.646
 6079TIP3   OH218189   5.221   3.342   3.364
 6079TIP3    H118190   5.204   3.379   3.275
 6079TIP3    H218191   5.154   3.392   3.415
 6080TIP3   OH218192   4.234   2.118   5.232
 6080TIP3    H118193   4.137   2.121   5.243
 6080TIP3    H218194   4.260   2.064   5.308
 6081TIP3   OH218195   5.046   2.801   3.772
 6081TIP3    H118196   5.036   2.733   3.841
 6081TIP3    H218197   5.143   2.796   3.758
 6082TIP3   OH218198   3.962   3.202   4.864
 6082TIP3    H118199   4.010   3.128   4.905
 6082TIP3    H218200   3.982   3.274   4.925
 6083TIP3   OH218201   4.234   2.840   3.538
 6083TIP3    H118202   4.256   2.746   3.526
 6083TIP3    H218203   4.209   2.843   3.632
 6084TIP3   OH218204   4.187   2.853   3.815
 6084TIP3    H118205   4.262   2.822   3.867
 6084TIP3    H218206   4.192   2.950   3.829
 6085TIP3   OH218207   3.921   2.544   4.035
 6085TIP3    H118208   3.853   2.588   4.090
 6085TIP3    H218209   3.932   2.611   3.965
 6086TIP3   OH218210   5.071   2.187   4.931
 6086TIP3    H118211   5.156   2.223   4.961
 6086TIP3    H218212   5.063   2.104   4.983
 6087TIP3   OH218213   4.962   1.924   4.096
 6087TIP3    H118214   4.947   1.945   4.002
 6087TIP3    H218215   5.002   2.007   4.129
 6088TIP3   OH218216   4.456   3.042   3.773
 6088TIP3    H118217   4.370   3.067   3.812
 6088TIP3    H218218   4.475   3.121   3.720
 6089TIP3   OH218219   4.640   2.115   4.192
 6089TIP3    H118220   4.704   2.187   4.176
 6089TIP3    H218221   4.649   2.104   4.290
 6090TIP3   OH218222   4.903   2.427   4.992
 6090TIP3    H118223   4.939   2.478   5.068
 6090TIP3    H218224   4.960   2.348   4.993
 6091TIP3   OH218225   4.785   1.827   4.288
 6091TIP3    H118226   4.780   1.905   4.347
 6091TIP3    H218227   4.849   1.859   4.221
 6092TIP3   OH218228   4.206   3.124   3.846
 6092TIP3    H118229   4.173   3.195   3.787
 6092TIP3    H218230   4.188   3.163   3.935
 6093TIP3   OH218231   4.301   1.839   4.081
 6093TIP3    H118232   4.297   1.928   4.121
 6093TIP3    H218233   4.397   1.823   4.087
 6094TIP3   OH218234   5.550   2.329   4.977
 6094TIP3    H118235   5.452   2.329   4.986
 6094TIP3    H218236   5.560   2.272   4.900
 6095TIP3   OH218237   5.204   2.524   4.368
 6095TIP3    H118238   5.128   2.463   4.378
 6095TIP3    H218239   5.275   2.475   4.415
 6096TIP3   OH218240   3.928   2.743   3.837
 6096TIP3    H118241   4.007   2.800   3.847
 6096TIP3    H218242   3.962   2.683   3.768
 6097TIP3   OH218243   3.859   2.024   3.969
 6097TIP3    H118244   3.857   2.122   3.970
 6097TIP3    H218245   3.782   2.002   3.915
 6098TIP3   OH218246   5.181   3.476   4.321
 6098TIP3    H118247   5.134   3.522   4.248
 6098TIP3    H218248   5.274   3.496   4.297
 6099TIP3   OH218249   4.251   1.747   4.838
 6099TIP3    H118250   4.221   1.712   4.752
 6099TIP3    H218251   4.240   1.669   4.896
 6100TIP3   OH218252   3.768   2.960   4.207
 6100TIP3    H118253   3.734   3.001   4.288
 6100TIP3    H218254   3.728   3.016   4.137
 6101TIP3   OH218255   3.951   3.520   5.293
 6101TIP3    H118256   4.037   3.520   5.341
 6101TIP3    H218257   3.930   3.425   5.294
 6102TIP3   OH218258   4.422   3.464   5.341
 6102TIP3    H118259   4.518   3.449   5.342
 6102TIP3    H218260   4.395   3.402   5.270
 6103TIP3   OH218261   4.405   3.044   3.463
 6103TIP3    H118262   4.354   2.970   3.502
 6103TIP3    H218263   4.485   2.998   3.433
 6104TIP3   OH218264   5.065   3.377   5.078
 6104TIP3    H118265   5.059   3.309   5.149
 6104TIP3    H218266   5.142   3.430   5.106
 6105TIP3   OH218267   4.838   3.082   3.377
 6105TIP3    H118268   4.884   3.020   3.437
 6105TIP3    H218269   4.893   3.079   3.296
 6106TIP3   OH218270   4.076   2.918   5.492
 6106TIP3    H118271   4.089   2.822   5.504
 6106TIP3    H218272   3.989   2.921   5.447
 6107TIP3   OH218273   4.060   2.559   3.691
 6107TIP3    H118274   4.114   2.529   3.766
 6107TIP3    H218275   4.128   2.560   3.620
 6108TIP3   OH218276   4.564   2.763   3.499
 6108TIP3    H118277   4.571   2.775   3.596
 6108TIP3    H218278   4.572   2.666   3.492
 6109TIP3   OH218279   5.171   3.021   4.875
 6109TIP3    H118280   5.252   3.052   4.831
 6109TIP3    H218281   5.113   3.099   4.860
 6110TIP3   OH218282   4.202   2.657   5.481
 6110TIP3    H118283   4.271   2.594   5.462
 6110TIP3    H218284   4.230   2.690   5.569
 6111TIP3   OH218285   4.257   2.473   3.905
 6111TIP3    H118286   4.229   2.434   3.989
 6111TIP3    H218287   4.298   2.397   3.859
 6112TIP3   OH218288   4.548   2.621   5.086
 6112TIP3    H118289   4.460   2.644   5.125
 6112TIP3    H218290   4.524   2.539   5.040
 6113TIP3   OH218291   4.368   2.271   3.748
 6113TIP3    H118292   4.343   2.275   3.653
 6113TIP3    H218293   4.465   2.269   3.741
 6114TIP3   OH218294   5.050   2.935   5.263
 6114TIP3    H118295   5.131   2.901   5.223
 6114TIP3    H218296   5.040   2.873   5.338
 6115TIP3   OH218297   5.181   2.590   3.421
 6115TIP3    H118298   5.163   2.548   3.335
 6115TIP3    H218299   5.148   2.681   3.401
 6116TIP3   OH218300   4.654   2.323   5.259
 6116TIP3    H118301   4.659   2.235   5.216
 6116TIP3    H218302   4.638   2.379   5.182
 6117TIP3   OH218303   4.658   2.115   5.074
 6117TIP3    H118304   4.689   2.144   4.987
 6117TIP3    H218305   4.565   2.089   5.055
 6118TIP3   OH218306   5.260   2.611   5.322
 6118TIP3    H118307   5.302   2.525   5.339
 6118TIP3    H218308   5.334   2.661   5.286
 6119TIP3   OH218309   5.302   2.870   5.057
 6119TIP3    H118310   5.246   2.927   5.000
 6119TIP3    H218311   5.391   2.890   5.019
 6120TIP3   OH218312   4.535   2.426   5.491
 6120TIP3    H118313   4.466   2.360   5.515
 6120TIP3    H218314   4.567   2.390   5.406
 6121TIP3   OH218315   4.790   1.873   5.144
 6121TIP3    H118316   4.737   1.952   5.121
 6121TIP3    H218317   4.725   1.801   5.133
 6122TIP3   OH218318   4.911   2.384   5.362
 6122TIP3    H118319   4.904   2.358   5.456
 6122TIP3    H218320   4.824   2.353   5.330
 6123TIP3   OH218321   5.155   2.332   5.215
 6123TIP3    H118322   5.083   2.330   5.280
 6123TIP3    H218323   5.231   2.298   5.267
 6124TIP3   OH218324   5.383   2.269   5.358
 6124TIP3    H118325   5.398   2.173   5.372
 6124TIP3    H218326   5.379   2.302   5.450
 6125TIP3   OH218327   4.376   2.209   5.554
 6125TIP3    H118328   4.376   2.116   5.523
 6125TIP3    H218329   4.416   2.197   5.643
 6126TIP3   OH218330   4.877   1.884   5.404
 6126TIP3    H118331   4.946   1.814   5.399
 6126TIP3    H218332   4.841   1.878   5.314
 6127TIP3   OH218333   4.951   2.099   5.557
 6127TIP3    H118334   4.931   2.024   5.496
 6127TIP3    H218335   4.869   2.151   5.552
 6128TIP3   OH218336   4.175   3.327   3.654
 6128TIP3    H118337   4.269   3.309   3.632
 6128TIP3    H218338   4.149   3.379   3.575
 6129TIP3   OH218339   3.653   2.712   3.859
 6129TIP3    H118340   3.750   2.728   3.853
 6129TIP3    H218341   3.645   2.620   3.825
 6130TIP3   OH218342   3.733   3.150   4.448
 6130TIP3    H118343   3.671   3.105   4.507
 6130TIP3    H218344   3.760   3.225   4.503
 6131TIP3   OH218345   5.437   3.561   4.278
 6131TIP3    H118346   5.457   3.596   4.366
 6131TIP3    H218347   5.497   3.610   4.221
 6132TIP3   OH218348   5.456   3.588   4.560
 6132TIP3    H118349   5.412   3.501   4.555
 6132TIP3    H218350   5.530   3.566   4.619
 6133TIP3   OH218351   5.502   3.267   5.132
 6133TIP3    H118352   5.432   3.278   5.200
 6133TIP3    H218353   5.547   3.354   5.136
 6134TIP3   OH218354   5.323   2.778   3.748
 6134TIP3    H118355   5.387   2.844   3.717
 6134TIP3    H218356   5.369   2.742   3.827
 6135TIP3   OH218357   5.451   2.646   3.954
 6135TIP3    H118358   5.383   2.605   4.012
 6135TIP3    H218359   5.515   2.681   4.019
 6136TIP3   OH218360   5.508   3.041   4.386
 6136TIP3    H118361   5.560   2.972   4.341
 6136TIP3    H218362   5.511   3.115   4.321
 6137TIP3   OH218363   5.332   3.339   4.580
 6137TIP3    H118364   5.258   3.383   4.626
 6137TIP3    H218365   5.285   3.295   4.505
 6138TIP3   OH218366   5.386   2.556   3.597
 6138TIP3    H118367   5.314   2.556   3.530
 6138TIP3    H218368   5.357   2.632   3.652
 6139TIP3   OH218369   5.256   2.227   3.550
 6139TIP3    H118370   5.210   2.259   3.471
 6139TIP3    H218371   5.236   2.131   3.543
 6140TIP3   OH218372   5.259   2.507   4.097
 6140TIP3    H118373   5.267   2.411   4.087
 6140TIP3    H218374   5.245   2.518   4.193
 6141TIP3   OH218375   3.886   2.570   4.850
 6141TIP3    H118376   3.880   2.538   4.758
 6141TIP3    H218377   3.984   2.572   4.862
 6142TIP3   OH218378   5.552   2.931   4.957
 6142TIP3    H118379   5.621   2.862   4.945
 6142TIP3    H218380   5.578   2.997   4.891
 6143TIP3   OH218381   5.734   2.728   4.958
 6143TIP3    H118382   5.659   2.679   4.999
 6143TIP3    H218383   5.807   2.666   4.978
 6144TIP3   OH218384   5.200   1.961   3.531
 6144TIP3    H118385   5.270   1.927   3.590
 6144TIP3    H218386   5.124   1.903   3.550
 6145TIP3   OH218387   5.260   2.224   3.986
 6145TIP3    H118388   5.301   2.135   4.001
 6145TIP3    H218389   5.317   2.256   3.914
 6146TIP3   OH218390   5.416   2.389   4.487
 6146TIP3    H118391   5.502   2.412   4.444
 6146TIP3    H218392   5.433   2.427   4.575
 6147TIP3   OH218393   5.493   2.539   4.713
 6147TIP3    H118394   5.418   2.572   4.766
 6147TIP3    H218395   5.526   2.621   4.671
 6148TIP3   OH218396   4.111   2.265   5.525
 6148TIP3    H118397   4.208   2.258   5.531
 6148TIP3    H218398   4.085   2.176   5.557
 6149TIP3   OH218399   5.939   2.135   5.270
 6149TIP3    H118400   6.002   2.071   5.230
 6149TIP3    H218401   5.909   2.184   5.191
 6150TIP3   OH218402   5.367   1.973   4.029
 6150TIP3    H118403   5.414   1.956   4.112
 6150TIP3    H218404   5.305   1.897   4.027
 6151TIP3   OH218405   4.069   1.958   4.849
 6151TIP3    H118406   4.129   1.881   4.856
 6151TIP3    H218407   4.133   2.030   4.840
 6152TIP3   OH218408   3.866   2.227   4.921
 6152TIP3    H118409   3.916   2.224   4.837
 6152TIP3    H218410   3.887   2.316   4.953
 6153TIP3   OH218411   5.807   2.265   5.069
 6153TIP3    H118412   5.722   2.309   5.091
 6153TIP3    H218413   5.774   2.190   5.017
 6154TIP3   OH218414   5.442   1.900   3.667
 6154TIP3    H118415   5.481   1.832   3.607
 6154TIP3    H218416   5.509   1.971   3.664
 6155TIP3   OH218417   3.855   1.736   4.426
 6155TIP3    H118418   3.762   1.725   4.452
 6155TIP3    H218419   3.846   1.792   4.346
 6156TIP3   OH218420   5.014   3.439   3.930
 6156TIP3    H118421   5.070   3.432   3.850
 6156TIP3    H218422   5.063   3.504   3.982
 6157TIP3   OH218423   4.074   1.814   5.238
 6157TIP3    H118424   4.022   1.809   5.320
 6157TIP3    H218425   4.008   1.852   5.176
 6158TIP3   OH218426   4.113   3.240   5.312
 6158TIP3    H118427   4.019   3.222   5.297
 6158TIP3    H218428   4.121   3.225   5.407
 6159TIP3   OH218429   4.300   3.278   4.863
 6159TIP3    H118430   4.247   3.352   4.825
 6159TIP3    H218431   4.383   3.296   4.814
 6160TIP3   OH218432   4.730   3.513   4.993
 6160TIP3    H118433   4.771   3.517   5.082
 6160TIP3    H218434   4.794   3.569   4.943
 6161TIP3   OH218435   4.911   3.675   4.864
 6161TIP3    H118436   4.982   3.628   4.818
 6161TIP3    H218437   4.963   3.731   4.925
 6162TIP3   OH218438   5.710   2.025   4.959
 6162TIP3    H118439   5.619   2.006   4.928
 6162TIP3    H218440   5.750   1.935   4.952
 6163TIP3   OH218441   3.969   3.535   4.889
 6163TIP3    H118442   3.877   3.561   4.866
 6163TIP3    H218443   3.981   3.585   4.971
 6164TIP3   OH218444   4.204   3.511   4.748
 6164TIP3    H118445   4.117   3.522   4.791
 6164TIP3    H218446   4.184   3.541   4.657
 6165TIP3   OH218447   4.630   3.533   4.541
 6165TIP3    H118448   4.557   3.545   4.476
 6165TIP3    H218449   4.636   3.623   4.579
 6166TIP3   OH218450   4.898   3.471   4.597
 6166TIP3    H118451   4.805   3.492   4.579
 6166TIP3    H218452   4.944   3.542   4.550
 6167TIP3   OH218453   5.099   3.665   4.505
 6167TIP3    H118454   5.090   3.751   4.458
 6167TIP3    H218455   5.130   3.606   4.432
 6168TIP3   OH218456   3.881   3.332   4.627
 6168TIP3    H118457   3.905   3.301   4.717
 6168TIP3    H218458   3.952   3.285   4.577
 6169TIP3   OH218459   4.076   3.200   4.493
 6169TIP3    H118460   4.087   3.116   4.544
 6169TIP3    H218461   4.169   3.232   4.492
 6170TIP3   OH218462   4.342   3.283   4.499
 6170TIP3    H118463   4.371   3.190   4.491
 6170TIP3    H218464   4.394   3.309   4.578
 6171TIP3   OH218465   4.910   1.942   4.578
 6171TIP3    H118466   4.872   1.869   4.630
 6171TIP3    H218467   4.987   1.900   4.537
 6172TIP3   OH218468   5.431   1.830   4.480
 6172TIP3    H118469   5.467   1.879   4.403
 6172TIP3    H218470   5.336   1.848   4.473
 6173TIP3   OH218471   5.530   1.924   4.244
 6173TIP3    H118472   5.605   1.872   4.209
 6173TIP3    H218473   5.565   2.015   4.230
 6174TIP3   OH218474   4.162   1.652   4.592
 6174TIP3    H118475   4.069   1.620   4.596
 6174TIP3    H218476   4.210   1.567   4.588
 6175TIP3   OH218477   3.962   1.528   4.248
 6175TIP3    H118478   3.984   1.583   4.171
 6175TIP3    H218479   3.930   1.595   4.312
 6176TIP3   OH218480   4.613   1.685   4.477
 6176TIP3    H118481   4.666   1.731   4.411
 6176TIP3    H218482   4.649   1.720   4.560
 6177TIP3   OH218483   5.147   1.835   4.459
 6177TIP3    H118484   5.153   1.790   4.373
 6177TIP3    H218485   5.138   1.758   4.520
 6178TIP3   OH218486   5.184   1.761   4.023
 6178TIP3    H118487   5.099   1.804   4.043
 6178TIP3    H218488   5.171   1.674   4.066
 6179TIP3   OH218489   3.654   3.130   4.019
 6179TIP3    H118490   3.580   3.090   3.970
 6179TIP3    H218491   3.616   3.219   4.033
 6180TIP3   OH218492   4.072   1.680   4.005
 6180TIP3    H118493   4.118   1.617   3.946
 6180TIP3    H218494   4.147   1.733   4.039
 6181TIP3   OH218495   4.577   1.864   4.103
 6181TIP3    H118496   4.636   1.816   4.163
 6181TIP3    H218497   4.599   1.957   4.129
 6182TIP3   OH218498   4.440   3.274   3.603
 6182TIP3    H118499   4.528   3.297   3.566
 6182TIP3    H218500   4.419   3.197   3.545
 6183TIP3   OH218501   5.166   3.411   3.703
 6183TIP3    H118502   5.161   3.313   3.692
 6183TIP3    H218503   5.117   3.441   3.625
 6184TIP3   OH218504   4.371   1.938   5.487
 6184TIP3    H118505   4.334   1.866   5.542
 6184TIP3    H218506   4.465   1.935   5.516
 6185TIP3   OH218507   4.623   1.932   5.603
 6185TIP3    H118508   4.707   1.905   5.563
 6185TIP3    H218509   4.610   1.862   5.670
 6186TIP3   OH218510   3.770   3.131   3.681
 6186TIP3    H118511   3.719   3.170   3.754
 6186TIP3    H218512   3.807   3.053   3.723
 6187TIP3   OH218513   5.449   1.999   5.389
 6187TIP3    H118514   5.465   1.968   5.481
 6187TIP3    H218515   5.539   1.992   5.351
 6188TIP3   OH218516   5.381   3.546   4.880
 6188TIP3    H118517   5.303   3.517   4.830
 6188TIP3    H218518   5.362   3.641   4.890
 6189TIP3   OH218519   6.660   2.919   3.651
 6189TIP3    H118520   6.632   3.010   3.633
 6189TIP3    H218521   6.586   2.867   3.614
 6190TIP3   OH218522   6.646   2.925   4.043
 6190TIP3    H118523   6.688   2.900   4.127
 6190TIP3    H218524   6.610   2.839   4.015
 6191TIP3   OH218525   5.946   2.809   4.398
 6191TIP3    H118526   5.974   2.739   4.460
 6191TIP3    H218527   6.027   2.861   4.390
 6192TIP3   OH218528   6.895   3.227   3.718
 6192TIP3    H118529   6.885   3.156   3.783
 6192TIP3    H218530   6.933   3.299   3.772
 6193TIP3   OH218531   5.923   3.227   4.111
 6193TIP3    H118532   5.914   3.129   4.111
 6193TIP3    H218533   6.019   3.236   4.124
 6194TIP3   OH218534   5.628   2.425   3.896
 6194TIP3    H118535   5.580   2.506   3.918
 6194TIP3    H218536   5.558   2.374   3.851
 6195TIP3   OH218537   5.684   2.713   4.087
 6195TIP3    H118538   5.735   2.635   4.117
 6195TIP3    H218539   5.742   2.749   4.018
 6196TIP3   OH218540   6.547   3.683   3.729
 6196TIP3    H118541   6.586   3.613   3.672
 6196TIP3    H218542   6.541   3.638   3.813
 6197TIP3   OH218543   6.449   3.147   4.077
 6197TIP3    H118544   6.491   3.066   4.043
 6197TIP3    H218545   6.530   3.196   4.102
 6198TIP3   OH218546   7.446   2.459   4.092
 6198TIP3    H118547   7.477   2.545   4.127
 6198TIP3    H218548   7.481   2.461   4.000
 6199TIP3   OH218549   6.861   2.649   4.106
 6199TIP3    H118550   6.905   2.565   4.129
 6199TIP3    H218551   6.828   2.627   4.016
 6200TIP3   OH218552   6.206   2.307   4.072
 6200TIP3    H118553   6.185   2.379   4.009
 6200TIP3    H218554   6.156   2.233   4.031
 6201TIP3   OH218555   6.899   2.399   3.692
 6201TIP3    H118556   6.969   2.387   3.761
 6201TIP3    H218557   6.954   2.433   3.619
 6202TIP3   OH218558   5.835   2.506   4.183
 6202TIP3    H118559   5.917   2.487   4.231
 6202TIP3    H218560   5.849   2.452   4.103
 6203TIP3   OH218561   6.272   2.705   3.983
 6203TIP3    H118562   6.366   2.682   3.994
 6203TIP3    H218563   6.234   2.621   3.949
 6204TIP3   OH218564   7.518   2.676   4.242
 6204TIP3    H118565   7.432   2.723   4.235
 6204TIP3    H218566   7.559   2.721   4.319
 6205TIP3   OH218567   6.197   2.290   4.510
 6205TIP3    H118568   6.138   2.326   4.442
 6205TIP3    H218569   6.143   2.306   4.590
 6206TIP3   OH218570   6.536   3.137   3.517
 6206TIP3    H118571   6.456   3.084   3.518
 6206TIP3    H218572   6.502   3.226   3.540
 6207TIP3   OH218573   6.305   3.067   4.296
 6207TIP3    H118574   6.245   3.136   4.332
 6207TIP3    H218575   6.347   3.114   4.221
 6208TIP3   OH218576   7.097   2.411   3.877
 6208TIP3    H118577   7.086   2.365   3.961
 6208TIP3    H218578   7.149   2.489   3.904
 6209TIP3   OH218579   6.071   2.404   4.291
 6209TIP3    H118580   6.133   2.476   4.316
 6209TIP3    H218581   6.121   2.364   4.216
 6210TIP3   OH218582   6.131   3.260   4.391
 6210TIP3    H118583   6.120   3.356   4.376
 6210TIP3    H218584   6.054   3.244   4.450
 6211TIP3   OH218585   5.518   2.950   3.637
 6211TIP3    H118586   5.478   2.978   3.553
 6211TIP3    H218587   5.548   3.037   3.672
 6212TIP3   OH218588   6.962   3.472   3.876
 6212TIP3    H118589   6.871   3.460   3.910
 6212TIP3    H218590   6.955   3.558   3.830
 6213TIP3   OH218591   7.247   2.355   4.247
 6213TIP3    H118592   7.165   2.391   4.209
 6213TIP3    H218593   7.316   2.390   4.185
 6214TIP3   OH218594   6.544   2.002   4.226
 6214TIP3    H118595   6.529   1.908   4.248
 6214TIP3    H218596   6.468   2.043   4.273
 6215TIP3   OH218597   6.656   3.507   3.543
 6215TIP3    H118598   6.709   3.425   3.526
 6215TIP3    H218599   6.721   3.573   3.509
 6216TIP3   OH218600   6.808   3.295   3.466
 6216TIP3    H118601   6.785   3.212   3.423
 6216TIP3    H218602   6.847   3.264   3.551
 6217TIP3   OH218603   7.185   3.376   4.221
 6217TIP3    H118604   7.176   3.299   4.162
 6217TIP3    H218605   7.173   3.451   4.159
 6218TIP3   OH218606   6.489   2.776   3.487
 6218TIP3    H118607   6.404   2.818   3.462
 6218TIP3    H218608   6.530   2.761   3.400
 6219TIP3   OH218609   6.440   2.562   3.190
 6219TIP3    H118610   6.510   2.614   3.235
 6219TIP3    H218611   6.495   2.497   3.142
 6220TIP3   OH218612   7.372   3.013   4.062
 6220TIP3    H118613   7.293   3.069   4.070
 6220TIP3    H218614   7.402   3.034   3.972
 6221TIP3   OH218615   6.831   2.855   3.448
 6221TIP3    H118616   6.779   2.876   3.529
 6221TIP3    H218617   6.916   2.828   3.489
 6222TIP3   OH218618   7.063   2.889   4.375
 6222TIP3    H118619   7.063   2.971   4.428
 6222TIP3    H218620   6.978   2.897   4.328
 6223TIP3   OH218621   6.066   2.852   3.866
 6223TIP3    H118622   6.022   2.793   3.801
 6223TIP3    H218623   6.139   2.796   3.900
 6224TIP3   OH218624   6.200   3.275   4.009
 6224TIP3    H118625   6.170   3.234   3.926
 6224TIP3    H218626   6.284   3.227   4.027
 6225TIP3   OH218627   6.194   2.822   4.225
 6225TIP3    H118628   6.227   2.794   4.138
 6225TIP3    H218629   6.239   2.908   4.239
 6226TIP3   OH218630   6.718   3.461   3.993
 6226TIP3    H118631   6.704   3.542   4.044
 6226TIP3    H218632   6.703   3.389   4.058
 6227TIP3   OH218633   6.662   2.719   3.277
 6227TIP3    H118634   6.725   2.775   3.326
 6227TIP3    H218635   6.691   2.737   3.184
 6228TIP3   OH218636   6.094   2.933   4.655
 6228TIP3    H118637   6.096   3.022   4.696
 6228TIP3    H218638   5.999   2.910   4.668
 6229TIP3   OH218639   6.413   3.386   3.520
 6229TIP3    H118640   6.499   3.432   3.535
 6229TIP3    H218641   6.353   3.461   3.513
 6230TIP3   OH218642   6.176   3.539   4.655
 6230TIP3    H118643   6.149   3.538   4.561
 6230TIP3    H218644   6.091   3.513   4.697
 6231TIP3   OH218645   7.163   1.966   3.334
 6231TIP3    H118646   7.085   1.990   3.388
 6231TIP3    H218647   7.180   2.050   3.286
 6232TIP3   OH218648   5.930   2.697   3.671
 6232TIP3    H118649   5.856   2.737   3.621
 6232TIP3    H218650   5.898   2.606   3.683
 6233TIP3   OH218651   6.989   3.318   2.878
 6233TIP3    H118652   6.996   3.415   2.861
 6233TIP3    H218653   7.082   3.289   2.865
 6234TIP3   OH218654   5.709   3.081   4.581
 6234TIP3    H118655   5.641   3.061   4.514
 6234TIP3    H218656   5.747   2.993   4.600
 6235TIP3   OH218657   5.561   3.267   4.223
 6235TIP3    H118658   5.655   3.271   4.204
 6235TIP3    H218659   5.545   3.352   4.266
 6236TIP3   OH218660   7.427   3.728   4.269
 6236TIP3    H118661   7.430   3.632   4.287
 6236TIP3    H218662   7.345   3.752   4.318
 6237TIP3   OH218663   6.297   3.636   3.364
 6237TIP3    H118664   6.233   3.632   3.293
 6237TIP3    H218665   6.278   3.725   3.401
 6238TIP3   OH218666   5.736   3.492   3.742
 6238TIP3    H118667   5.784   3.485   3.827
 6238TIP3    H218668   5.671   3.421   3.753
 6239TIP3   OH218669   6.496   3.531   2.998
 6239TIP3    H118670   6.559   3.467   2.959
 6239TIP3    H218671   6.539   3.555   3.083
 6240TIP3   OH218672   6.549   3.591   3.264
 6240TIP3    H118673   6.462   3.600   3.308
 6240TIP3    H218674   6.606   3.563   3.338
 6241TIP3   OH218675   7.312   2.851   4.543
 6241TIP3    H118676   7.230   2.852   4.492
 6241TIP3    H218677   7.335   2.756   4.540
 6242TIP3   OH218678   5.915   3.263   4.564
 6242TIP3    H118679   5.963   3.246   4.647
 6242TIP3    H218680   5.840   3.200   4.571
 6243TIP3   OH218681   6.311   2.084   4.359
 6243TIP3    H118682   6.223   2.054   4.327
 6243TIP3    H218683   6.283   2.162   4.410
 6244TIP3   OH218684   6.850   2.198   4.551
 6244TIP3    H118685   6.921   2.170   4.612
 6244TIP3    H218686   6.769   2.178   4.601
 6245TIP3   OH218687   7.076   2.624   4.464
 6245TIP3    H118688   7.029   2.625   4.551
 6245TIP3    H218689   7.060   2.714   4.430
 6246TIP3   OH218690   6.746   2.761   3.026
 6246TIP3    H118691   6.707   2.737   2.939
 6246TIP3    H218692   6.835   2.791   2.998
 6247TIP3   OH218693   6.456   2.130   3.328
 6247TIP3    H118694   6.420   2.126   3.418
 6247TIP3    H218695   6.416   2.049   3.291
 6248TIP3   OH218696   6.246   2.602   4.375
 6248TIP3    H118697   6.193   2.619   4.456
 6248TIP3    H218698   6.228   2.683   4.323
 6249TIP3   OH218699   6.127   2.489   3.887
 6249TIP3    H118700   6.035   2.461   3.908
 6249TIP3    H218701   6.138   2.447   3.799
 6250TIP3   OH218702   6.620   2.571   3.621
 6250TIP3    H118703   6.573   2.643   3.574
 6250TIP3    H218704   6.675   2.534   3.549
 6251TIP3   OH218705   6.792   2.847   4.700
 6251TIP3    H118706   6.770   2.773   4.761
 6251TIP3    H218707   6.887   2.859   4.721
 6252TIP3   OH218708   6.774   2.595   3.851
 6252TIP3    H118709   6.709   2.617   3.781
 6252TIP3    H218710   6.814   2.517   3.808
 6253TIP3   OH218711   6.065   2.626   4.582
 6253TIP3    H118712   6.095   2.687   4.651
 6253TIP3    H218713   6.051   2.543   4.632
 6254TIP3   OH218714   6.115   2.109   3.291
 6254TIP3    H118715   6.102   2.108   3.388
 6254TIP3    H218716   6.038   2.161   3.264
 6255TIP3   OH218717   5.657   2.147   4.164
 6255TIP3    H118718   5.731   2.181   4.218
 6255TIP3    H218719   5.700   2.119   4.082
 6256TIP3   OH218720   5.614   2.128   3.681
 6256TIP3    H118721   5.661   2.164   3.602
 6256TIP3    H218722   5.554   2.203   3.699
 6257TIP3   OH218723   6.780   2.844   4.272
 6257TIP3    H118724   6.816   2.775   4.212
 6257TIP3    H218725   6.753   2.787   4.348
 6258TIP3   OH218726   6.464   2.311   3.947
 6258TIP3    H118727   6.385   2.308   4.004
 6258TIP3    H218728   6.536   2.293   4.010
 6259TIP3   OH218729   5.890   2.367   3.953
 6259TIP3    H118730   5.796   2.374   3.923
 6259TIP3    H218731   5.913   2.274   3.931
 6260TIP3   OH218732   6.150   2.359   3.648
 6260TIP3    H118733   6.244   2.372   3.626
 6260TIP3    H218734   6.104   2.380   3.564
 6261TIP3   OH218735   6.945   2.389   4.153
 6261TIP3    H118736   6.914   2.400   4.246
 6261TIP3    H218737   6.879   2.327   4.119
 6262TIP3   OH218738   6.008   2.399   3.420
 6262TIP3    H118739   5.939   2.350   3.372
 6262TIP3    H218740   6.060   2.436   3.346
 6263TIP3   OH218741   7.121   4.073   4.373
 6263TIP3    H118742   7.120   4.102   4.280
 6263TIP3    H218743   7.202   4.117   4.405
 6264TIP3   OH218744   6.078   3.184   4.791
 6264TIP3    H118745   6.154   3.213   4.843
 6264TIP3    H218746   6.009   3.180   4.860
 6265TIP3   OH218747   6.537   2.643   4.047
 6265TIP3    H118748   6.608   2.599   3.999
 6265TIP3    H218749   6.536   2.595   4.132
 6266TIP3   OH218750   6.053   2.122   3.933
 6266TIP3    H118751   6.015   2.047   3.984
 6266TIP3    H218752   6.097   2.075   3.861
 6267TIP3   OH218753   6.513   2.544   4.326
 6267TIP3    H118754   6.423   2.574   4.348
 6267TIP3    H218755   6.570   2.601   4.382
 6268TIP3   OH218756   6.260   2.927   3.428
 6268TIP3    H118757   6.189   2.861   3.410
 6268TIP3    H218758   6.231   2.959   3.517
 6269TIP3   OH218759   7.143   3.165   4.053
 6269TIP3    H118760   7.169   3.215   3.973
 6269TIP3    H218761   7.062   3.118   4.023
 6270TIP3   OH218762   6.707   2.231   3.305
 6270TIP3    H118763   6.611   2.209   3.311
 6270TIP3    H218764   6.710   2.326   3.326
 6271TIP3   OH218765   6.647   3.242   4.444
 6271TIP3    H118766   6.687   3.173   4.498
 6271TIP3    H218767   6.707   3.317   4.457
 6272TIP3   OH218768   6.774   2.488   3.403
 6272TIP3    H118769   6.870   2.489   3.416
 6272TIP3    H218770   6.759   2.566   3.347
 6273TIP3   OH218771   5.948   2.952   4.100
 6273TIP3    H118772   5.986   2.920   4.015
 6273TIP3    H218773   5.991   2.893   4.164
 6274TIP3   OH218774   6.323   3.134   3.261
 6274TIP3    H118775   6.411   3.147   3.298
 6274TIP3    H218776   6.290   3.058   3.312
 6275TIP3   OH218777   5.829   2.865   4.718
 6275TIP3    H118778   5.842   2.850   4.813
 6275TIP3    H218779   5.758   2.802   4.698
 6276TIP3   OH218780   6.557   2.991   4.737
 6276TIP3    H118781   6.493   2.928   4.701
 6276TIP3    H218782   6.642   2.949   4.710
 6277TIP3   OH218783   6.801   3.488   4.350
 6277TIP3    H118784   6.744   3.549   4.303
 6277TIP3    H218785   6.836   3.545   4.422
 6278TIP3   OH218786   7.212   2.579   3.229
 6278TIP3    H118787   7.147   2.537   3.168
 6278TIP3    H218788   7.209   2.670   3.190
 6279TIP3   OH218789   7.436   3.444   4.308
 6279TIP3    H118790   7.339   3.432   4.303
 6279TIP3    H218791   7.462   3.412   4.219
 6280TIP3   OH218792   6.921   3.397   3.142
 6280TIP3    H118793   6.896   3.326   3.203
 6280TIP3    H218794   6.935   3.350   3.058
 6281TIP3   OH218795   6.912   3.027   3.964
 6281TIP3    H118796   6.819   2.999   3.981
 6281TIP3    H218797   6.948   2.945   3.925
 6282TIP3   OH218798   6.046   3.254   3.731
 6282TIP3    H118799   6.034   3.334   3.676
 6282TIP3    H218800   5.954   3.231   3.751
 6283TIP3   OH218801   5.613   2.554   3.441
 6283TIP3    H118802   5.655   2.640   3.463
 6283TIP3    H218803   5.534   2.556   3.500
 6284TIP3   OH218804   6.182   3.019   3.670
 6284TIP3    H118805   6.140   3.105   3.690
 6284TIP3    H218806   6.146   2.964   3.742
 6285TIP3   OH218807   6.309   3.605   4.190
 6285TIP3    H118808   6.346   3.682   4.141
 6285TIP3    H218809   6.387   3.551   4.203
 6286TIP3   OH218810   5.961   3.485   3.574
 6286TIP3    H118811   5.875   3.495   3.620
 6286TIP3    H218812   5.995   3.577   3.581
 6287TIP3   OH218813   6.695   3.235   4.162
 6287TIP3    H118814   6.684   3.226   4.258
 6287TIP3    H218815   6.773   3.179   4.145
 6288TIP3   OH218816   6.688   3.130   3.041
 6288TIP3    H118817   6.738   3.104   3.121
 6288TIP3    H218818   6.611   3.072   3.045
 6289TIP3   OH218819   6.947   3.756   4.202
 6289TIP3    H118820   6.859   3.718   4.183
 6289TIP3    H218821   6.946   3.830   4.138
 6290TIP3   OH218822   7.013   3.594   2.858
 6290TIP3    H118823   7.047   3.669   2.806
 6290TIP3    H218824   6.934   3.637   2.896
 6291TIP3   OH218825   6.032   2.373   4.720
 6291TIP3    H118826   5.934   2.374   4.731
 6291TIP3    H218827   6.059   2.319   4.796
 6292TIP3   OH218828   6.840   3.058   3.260
 6292TIP3    H118829   6.831   2.989   3.329
 6292TIP3    H218830   6.936   3.054   3.245
 6293TIP3   OH218831   5.759   3.455   4.354
 6293TIP3    H118832   5.811   3.383   4.393
 6293TIP3    H218833   5.776   3.526   4.417
 6294TIP3   OH218834   5.716   2.798   3.523
 6294TIP3    H118835   5.648   2.842   3.579
 6294TIP3    H218836   5.728   2.867   3.455
 6295TIP3   OH218837   6.872   2.438   4.414
 6295TIP3    H118838   6.957   2.477   4.444
 6295TIP3    H218839   6.866   2.356   4.468
 6296TIP3   OH218840   6.753   2.183   3.584
 6296TIP3    H118841   6.742   2.203   3.489
 6296TIP3    H218842   6.796   2.265   3.617
 6297TIP3   OH218843   6.434   2.373   3.680
 6297TIP3    H118844   6.500   2.443   3.664
 6297TIP3    H218845   6.443   2.360   3.777
 6298TIP3   OH218846   6.714   2.681   4.480
 6298TIP3    H118847   6.743   2.727   4.561
 6298TIP3    H218848   6.765   2.598   4.484
 6299TIP3   OH218849   6.581   2.082   3.776
 6299TIP3    H118850   6.581   2.158   3.837
 6299TIP3    H218851   6.644   2.115   3.707
 6300TIP3   OH218852   6.015   3.377   3.324
 6300TIP3    H118853   5.962   3.437   3.267
 6300TIP3    H218854   5.987   3.407   3.414
 6301TIP3   OH218855   6.097   2.095   3.567
 6301TIP3    H118856   6.094   2.184   3.608
 6301TIP3    H218857   6.193   2.078   3.574
 6302TIP3   OH218858   7.345   2.586   4.475
 6302TIP3    H118859   7.248   2.577   4.473
 6302TIP3    H218860   7.369   2.551   4.388
 6303TIP3   OH218861   6.999   2.782   3.854
 6303TIP3    H118862   6.924   2.721   3.866
 6303TIP3    H218863   7.071   2.736   3.902
 6304TIP3   OH218864   5.712   3.004   3.329
 6304TIP3    H118865   5.744   3.093   3.309
 6304TIP3    H218866   5.764   2.950   3.265
 6305TIP3   OH218867   5.655   2.282   3.458
 6305TIP3    H118868   5.658   2.380   3.458
 6305TIP3    H218869   5.578   2.265   3.402
 6306TIP3   OH218870   6.971   3.740   3.799
 6306TIP3    H118871   6.930   3.787   3.723
 6306TIP3    H218872   7.066   3.757   3.779
 6307TIP3   OH218873   6.046   2.004   4.325
 6307TIP3    H118874   6.017   1.968   4.239
 6307TIP3    H218875   6.036   1.926   4.384
 6308TIP3   OH218876   5.573   3.211   3.705
 6308TIP3    H118877   5.532   3.256   3.780
 6308TIP3    H218878   5.534   3.258   3.628
 6309TIP3   OH218879   5.745   3.775   4.777
 6309TIP3    H118880   5.827   3.780   4.830
 6309TIP3    H218881   5.726   3.680   4.781
 6310TIP3   OH218882   6.200   3.746   4.839
 6310TIP3    H118883   6.293   3.750   4.864
 6310TIP3    H218884   6.198   3.680   4.767
 6311TIP3   OH218885   6.848   3.642   4.574
 6311TIP3    H118886   6.849   3.571   4.641
 6311TIP3    H218887   6.930   3.692   4.594
 6312TIP3   OH218888   6.639   3.340   2.865
 6312TIP3    H118889   6.677   3.274   2.926
 6312TIP3    H218890   6.697   3.333   2.787
 6313TIP3   OH218891   5.873   3.174   4.979
 6313TIP3    H118892   5.888   3.078   4.989
 6313TIP3    H218893   5.786   3.176   4.933
 6314TIP3   OH218894   5.859   2.832   3.183
 6314TIP3    H118895   5.915   2.790   3.250
 6314TIP3    H218896   5.922   2.833   3.107
 6315TIP3   OH218897   6.461   3.260   4.721
 6315TIP3    H118898   6.417   3.213   4.649
 6315TIP3    H218899   6.533   3.197   4.739
 6316TIP3   OH218900   6.368   3.028   2.986
 6316TIP3    H118901   6.334   3.034   3.076
 6316TIP3    H218902   6.370   2.931   2.972
 6317TIP3   OH218903   6.971   3.272   4.361
 6317TIP3    H118904   7.053   3.304   4.318
 6317TIP3    H218905   6.912   3.347   4.345
 6318TIP3   OH218906   5.996   2.914   4.966
 6318TIP3    H118907   6.070   2.859   4.938
 6318TIP3    H218908   6.025   2.944   5.055
 6319TIP3   OH218909   6.064   2.733   3.394
 6319TIP3    H118910   6.031   2.693   3.476
 6319TIP3    H218911   6.098   2.655   3.345
 6320TIP3   OH218912   6.330   2.794   4.629
 6320TIP3    H118913   6.249   2.850   4.626
 6320TIP3    H218914   6.381   2.829   4.552
 6321TIP3   OH218915   6.163   2.527   3.234
 6321TIP3    H118916   6.138   2.533   3.139
 6321TIP3    H218917   6.260   2.525   3.227
 6322TIP3   OH218918   6.846   3.187   4.753
 6322TIP3    H118919   6.930   3.160   4.713
 6322TIP3    H218920   6.842   3.126   4.830
 6323TIP3   OH218921   6.976   2.848   2.907
 6323TIP3    H118922   6.960   2.805   2.820
 6323TIP3    H218923   6.943   2.938   2.885
 6324TIP3   OH218924   6.452   2.582   4.748
 6324TIP3    H118925   6.453   2.504   4.689
 6324TIP3    H218926   6.407   2.650   4.692
 6325TIP3   OH218927   6.455   2.371   4.559
 6325TIP3    H118928   6.484   2.407   4.473
 6325TIP3    H218929   6.362   2.346   4.540
 6326TIP3   OH218930   6.476   2.905   4.436
 6326TIP3    H118931   6.561   2.905   4.389
 6326TIP3    H218932   6.421   2.965   4.383
 6327TIP3   OH218933   7.057   2.867   4.807
 6327TIP3    H118934   7.100   2.782   4.826
 6327TIP3    H218935   7.131   2.918   4.771
 6328TIP3   OH218936   7.100   3.123   4.546
 6328TIP3    H118937   7.044   3.179   4.487
 6328TIP3    H218938   7.188   3.144   4.508
 6329TIP3   OH218939   6.331   2.684   4.984
 6329TIP3    H118940   6.264   2.615   5.002
 6329TIP3    H218941   6.363   2.656   4.896
 6330TIP3   OH218942   6.586   2.129   4.631
 6330TIP3    H118943   6.535   2.210   4.607
 6330TIP3    H218944   6.518   2.059   4.620
 6331TIP3   OH218945   6.710   2.631   4.844
 6331TIP3    H118946   6.696   2.612   4.939
 6331TIP3    H218947   6.622   2.607   4.810
 6332TIP3   OH218948   6.950   2.588   4.700
 6332TIP3    H118949   6.877   2.584   4.764
 6332TIP3    H218950   7.026   2.555   4.753
 6333TIP3   OH218951   7.176   2.525   4.846
 6333TIP3    H118952   7.191   2.429   4.860
 6333TIP3    H218953   7.174   2.560   4.937
 6334TIP3   OH218954   6.169   2.464   5.041
 6334TIP3    H118955   6.171   2.372   5.010
 6334TIP3    H218956   6.210   2.453   5.130
 6335TIP3   OH218957   6.677   2.139   4.890
 6335TIP3    H118958   6.743   2.067   4.883
 6335TIP3    H218959   6.638   2.135   4.800
 6336TIP3   OH218960   6.747   2.354   5.045
 6336TIP3    H118961   6.726   2.281   4.982
 6336TIP3    H218962   6.667   2.410   5.039
 6337TIP3   OH218963   5.955   3.560   3.126
 6337TIP3    H118964   6.035   3.611   3.133
 6337TIP3    H218965   5.905   3.619   3.067
 6338TIP3   OH218966   5.444   2.962   3.357
 6338TIP3    H118967   5.540   2.980   3.345
 6338TIP3    H218968   5.435   2.874   3.314
 6339TIP3   OH218969   5.521   3.410   3.941
 6339TIP3    H118970   5.475   3.359   4.009
 6339TIP3    H218971   5.554   3.484   3.992
 6340TIP3   OH218972   7.231   3.819   3.768
 6340TIP3    H118973   7.253   3.854   3.856
 6340TIP3    H218974   7.291   3.870   3.710
 6341TIP3   OH218975   7.254   3.846   4.049
 6341TIP3    H118976   7.213   3.757   4.043
 6341TIP3    H218977   7.327   3.825   4.109
 6342TIP3   OH218978   7.295   3.525   4.618
 6342TIP3    H118979   7.227   3.536   4.687
 6342TIP3    H218980   7.343   3.610   4.623
 6343TIP3   OH218981   7.115   3.039   3.233
 6343TIP3    H118982   7.183   3.102   3.203
 6343TIP3    H218983   7.160   3.000   3.311
 6344TIP3   OH218984   7.237   2.904   3.437
 6344TIP3    H118985   7.174   2.861   3.498
 6344TIP3    H218986   7.304   2.940   3.499
 6345TIP3   OH218987   7.293   3.303   3.868
 6345TIP3    H118988   7.346   3.230   3.830
 6345TIP3    H218989   7.297   3.371   3.798
 6346TIP3   OH218990   7.130   3.597   4.061
 6346TIP3    H118991   7.057   3.638   4.112
 6346TIP3    H218992   7.082   3.551   3.989
 6347TIP3   OH218993   7.180   2.810   3.087
 6347TIP3    H118994   7.109   2.812   3.018
 6347TIP3    H218995   7.152   2.888   3.140
 6348TIP3   OH218996   7.048   2.483   3.037
 6348TIP3    H118997   7.018   2.515   2.951
 6348TIP3    H218998   7.024   2.388   3.030
 6349TIP3   OH218999   7.053   2.762   3.584
 6349TIP3    H119000   7.065   2.666   3.576
 6349TIP3    H219001   7.039   2.774   3.681
 6350TIP3   OH219002   5.681   2.833   4.335
 6350TIP3    H119003   5.677   2.797   4.244
 6350TIP3    H219004   5.779   2.834   4.350
 6351TIP3   OH219005   7.344   3.193   4.439
 6351TIP3    H119006   7.414   3.125   4.436
 6351TIP3    H219007   7.375   3.256   4.373
 6352TIP3   OH219008   7.528   3.001   4.479
 6352TIP3    H119009   7.450   2.945   4.502
 6352TIP3    H219010   7.598   2.933   4.482
 6353TIP3   OH219011   6.991   2.219   3.015
 6353TIP3    H119012   7.063   2.184   3.072
 6353TIP3    H219013   6.917   2.159   3.031
 6354TIP3   OH219014   7.055   2.479   3.472
 6354TIP3    H119015   7.097   2.390   3.487
 6354TIP3    H219016   7.113   2.512   3.401
 6355TIP3   OH219017   7.209   2.648   3.973
 6355TIP3    H119018   7.294   2.675   3.931
 6355TIP3    H219019   7.225   2.683   4.063
 6356TIP3   OH219020   7.280   2.797   4.202
 6356TIP3    H119021   7.206   2.837   4.253
 6356TIP3    H219022   7.317   2.876   4.155
 6357TIP3   OH219023   5.904   2.520   5.010
 6357TIP3    H119024   6.002   2.514   5.016
 6357TIP3    H219025   5.880   2.432   5.044
 6358TIP3   OH219026   7.738   2.384   4.749
 6358TIP3    H119027   7.802   2.334   4.697
 6358TIP3    H219028   7.697   2.442   4.681
 6359TIP3   OH219029   7.161   2.230   3.516
 6359TIP3    H119030   7.207   2.218   3.601
 6359TIP3    H219031   7.097   2.156   3.520
 6360TIP3   OH219032   5.863   2.214   4.338
 6360TIP3    H119033   5.924   2.137   4.345
 6360TIP3    H219034   5.927   2.287   4.327
 6361TIP3   OH219035   5.661   2.485   4.405
 6361TIP3    H119036   5.712   2.482   4.322
 6361TIP3    H219037   5.693   2.566   4.446
 6362TIP3   OH219038   7.597   2.520   4.565
 6362TIP3    H119039   7.511   2.563   4.584
 6362TIP3    H219040   7.566   2.450   4.504
 6363TIP3   OH219041   7.234   2.162   3.149
 6363TIP3    H119042   7.280   2.091   3.101
 6363TIP3    H219043   7.298   2.235   3.145
 6364TIP3   OH219044   5.651   1.988   3.910
 6364TIP3    H119045   5.559   1.981   3.940
 6364TIP3    H219046   5.642   2.047   3.832
 6365TIP3   OH219047   6.808   3.691   3.418
 6365TIP3    H119048   6.862   3.685   3.336
 6365TIP3    H219049   6.854   3.760   3.468
 6366TIP3   OH219050   5.871   2.072   4.725
 6366TIP3    H119051   5.818   2.063   4.806
 6366TIP3    H219052   5.804   2.107   4.663
 6367TIP3   OH219053   5.925   3.499   4.798
 6367TIP3    H119054   5.832   3.480   4.775
 6367TIP3    H219055   5.925   3.485   4.893
 6368TIP3   OH219056   6.106   3.540   4.364
 6368TIP3    H119057   6.044   3.607   4.327
 6368TIP3    H219058   6.183   3.559   4.307
 6369TIP3   OH219059   6.693   3.937   4.350
 6369TIP3    H119060   6.762   3.882   4.314
 6369TIP3    H219061   6.744   3.990   4.414
 6370TIP3   OH219062   7.491   2.276   4.456
 6370TIP3    H119063   7.404   2.257   4.417
 6370TIP3    H219064   7.534   2.187   4.445
 6371TIP3   OH219065   5.769   3.792   4.375
 6371TIP3    H119066   5.676   3.816   4.353
 6371TIP3    H219067   5.781   3.843   4.456
 6372TIP3   OH219068   6.002   3.768   4.233
 6372TIP3    H119069   5.915   3.779   4.278
 6372TIP3    H219070   5.981   3.797   4.142
 6373TIP3   OH219071   6.426   3.792   4.028
 6373TIP3    H119072   6.358   3.809   3.960
 6373TIP3    H219073   6.437   3.881   4.068
 6374TIP3   OH219074   6.695   3.723   4.091
 6374TIP3    H119075   6.603   3.746   4.070
 6374TIP3    H219076   6.743   3.792   4.042
 6375TIP3   OH219077   6.893   3.918   3.993
 6375TIP3    H119078   6.881   4.005   3.947
 6375TIP3    H219079   6.923   3.861   3.919
 6376TIP3   OH219080   5.676   3.582   4.117
 6376TIP3    H119081   5.703   3.551   4.207
 6376TIP3    H219082   5.746   3.538   4.064
 6377TIP3   OH219083   5.872   3.456   3.977
 6377TIP3    H119084   5.883   3.371   4.025
 6377TIP3    H219085   5.964   3.488   3.973
 6378TIP3   OH219086   6.140   3.544   3.979
 6378TIP3    H119087   6.167   3.449   3.973
 6378TIP3    H219088   6.185   3.567   4.063
 6379TIP3   OH219089   6.703   2.198   4.061
 6379TIP3    H119090   6.668   2.125   4.114
 6379TIP3    H219091   6.783   2.158   4.020
 6380TIP3   OH219092   7.224   2.078   3.966
 6380TIP3    H119093   7.263   2.135   3.896
 6380TIP3    H219094   7.131   2.105   3.965
 6381TIP3   OH219095   7.315   2.195   3.739
 6381TIP3    H119096   7.387   2.140   3.700
 6381TIP3    H219097   7.349   2.285   3.719
 6382TIP3   OH219098   5.958   1.908   4.079
 6382TIP3    H119099   5.865   1.875   4.084
 6382TIP3    H219100   6.006   1.823   4.074
 6383TIP3   OH219101   5.750   1.784   3.733
 6383TIP3    H119102   5.778   1.839   3.658
 6383TIP3    H219103   5.724   1.852   3.799
 6384TIP3   OH219104   6.408   1.942   3.964
 6384TIP3    H119105   6.461   1.987   3.897
 6384TIP3    H219106   6.443   1.979   4.046
 6385TIP3   OH219107   6.938   2.091   3.946
 6385TIP3    H119108   6.951   2.048   3.860
 6385TIP3    H219109   6.932   2.013   4.006
 6386TIP3   OH219110   6.972   2.024   3.522
 6386TIP3    H119111   6.886   2.066   3.543
 6386TIP3    H219112   6.958   1.935   3.560
 6387TIP3   OH219113   5.467   3.352   3.494
 6387TIP3    H119114   5.384   3.331   3.449
 6387TIP3    H219115   5.454   3.444   3.518
 6388TIP3   OH219116   5.869   1.938   3.490
 6388TIP3    H119117   5.915   1.874   3.432
 6388TIP3    H219118   5.944   1.991   3.525
 6389TIP3   OH219119   6.373   2.121   3.590
 6389TIP3    H119120   6.433   2.073   3.650
 6389TIP3    H219121   6.395   2.213   3.616
 6390TIP3   OH219122   6.244   3.481   3.077
 6390TIP3    H119123   6.339   3.495   3.055
 6390TIP3    H219124   6.201   3.529   3.005
 6391TIP3   OH219125   6.958   3.664   3.186
 6391TIP3    H119126   6.949   3.566   3.175
 6391TIP3    H219127   6.909   3.694   3.106
 6392TIP3   OH219128   6.166   2.192   4.973
 6392TIP3    H119129   6.130   2.121   5.028
 6392TIP3    H219130   6.260   2.190   5.002
 6393TIP3   OH219131   6.418   2.189   5.090
 6393TIP3    H119132   6.503   2.163   5.051
 6393TIP3    H219133   6.405   2.119   5.157
 6394TIP3   OH219134   5.545   3.376   3.146
 6394TIP3    H119135   5.551   3.391   3.241
 6394TIP3    H219136   5.628   3.328   3.127
 6395TIP3   OH219137   7.242   2.255   4.878
 6395TIP3    H119138   7.260   2.225   4.970
 6395TIP3    H219139   7.332   2.252   4.839
 6396TIP3   OH219140   7.177   3.804   4.367
 6396TIP3    H119141   7.099   3.776   4.316
 6396TIP3    H219142   7.159   3.899   4.378
 6397TIP3   OH219143   7.728   3.087   3.850
 6397TIP3    H119144   7.733   3.004   3.899
 6397TIP3    H219145   7.791   3.141   3.901
 6398TIP3   OH219146   7.712   3.472   3.590
 6398TIP3    H119147   7.716   3.375   3.576
 6398TIP3    H219148   7.749   3.479   3.681
 6399TIP3   OH219149   7.418   2.682   3.382
 6399TIP3    H119150   7.369   2.764   3.400
 6399TIP3    H219151   7.349   2.631   3.337
 6400TIP3   OH219152   7.466   2.977   3.566
 6400TIP3    H119153   7.513   2.897   3.600
 6400TIP3    H219154   7.529   3.011   3.501
 6401TIP3   OH219155   7.610   2.773   3.671
 6401TIP3    H119156   7.691   2.768   3.727
 6401TIP3    H219157   7.639   2.716   3.596
 6402TIP3   OH219158   7.832   3.512   3.830
 6402TIP3    H119159   7.844   3.609   3.839
 6402TIP3    H219160   7.784   3.495   3.914
 6403TIP3   OH219161   7.317   3.213   3.124
 6403TIP3    H119162   7.278   3.239   3.038
 6403TIP3    H219163   7.351   3.298   3.157
 6404TIP3   OH219164   7.842   3.236   4.107
 6404TIP3    H119165   7.861   3.312   4.166
 6404TIP3    H219166   7.763   3.200   4.152
 6405TIP3   OH219167   7.951   3.809   4.150
 6405TIP3    H119168   7.927   3.796   4.056
 6405TIP3    H219169   7.865   3.788   4.192
 6406TIP3   OH219170   7.496   3.346   4.062
 6406TIP3    H119171   7.427   3.319   3.999
 6406TIP3    H219172   7.524   3.261   4.101
 6407TIP3   OH219173   7.355   3.531   3.696
 6407TIP3    H119174   7.452   3.529   3.695
 6407TIP3    H219175   7.337   3.607   3.752
 6408TIP3   OH219176   7.520   3.742   3.246
 6408TIP3    H119177   7.573   3.731   3.327
 6408TIP3    H219178   7.472   3.657   3.242
 6409TIP3   OH219179   7.698   3.530   4.061
 6409TIP3    H119180   7.754   3.516   4.140
 6409TIP3    H219181   7.628   3.462   4.072
 6410TIP3   OH219182   7.728   2.931   4.104
 6410TIP3    H119183   7.822   2.952   4.089
 6410TIP3    H219184   7.735   2.840   4.141
 6411TIP3   OH219185   7.441   2.409   3.634
 6411TIP3    H119186   7.492   2.436   3.713
 6411TIP3    H219187   7.510   2.373   3.576
 6412TIP3   OH219188   7.407   2.394   3.154
 6412TIP3    H119189   7.483   2.444   3.116
 6412TIP3    H219190   7.346   2.467   3.177
 6413TIP3   OH219191   7.680   2.634   3.442
 6413TIP3    H119192   7.587   2.648   3.412
 6413TIP3    H219193   7.693   2.540   3.425
 6414TIP3   OH219194   7.875   3.446   4.279
 6414TIP3    H119195   7.963   3.429   4.319
 6414TIP3    H219196   7.818   3.447   4.358
 6415TIP3   OH219197   7.746   3.197   3.591
 6415TIP3    H119198   7.830   3.150   3.573
 6415TIP3    H219199   7.726   3.161   3.679
 6416TIP3   OH219200   7.596   3.153   4.223
 6416TIP3    H119201   7.633   3.139   4.313
 6416TIP3    H219202   7.598   3.061   4.188
 6417TIP3   OH219203   7.750   3.481   3.216
 6417TIP3    H119204   7.788   3.553   3.164
 6417TIP3    H219205   7.658   3.482   3.188
 6418TIP3   OH219206   7.403   2.800   2.918
 6418TIP3    H119207   7.454   2.879   2.946
 6418TIP3    H219208   7.330   2.803   2.983
 6419TIP3   OH219209   7.708   3.772   3.044
 6419TIP3    H119210   7.640   3.770   3.114
 6419TIP3    H219211   7.750   3.858   3.057
 6420TIP3   OH219212   7.787   2.670   4.183
 6420TIP3    H119213   7.693   2.644   4.193
 6420TIP3    H219214   7.829   2.617   4.251
 6421TIP3   OH219215   7.555   3.707   3.847
 6421TIP3    H119216   7.599   3.642   3.905
 6421TIP3    H219217   7.560   3.787   3.901
 6422TIP3   OH219218   7.507   3.040   3.008
 6422TIP3    H119219   7.442   3.094   3.058
 6422TIP3    H219220   7.549   3.106   2.952
 6423TIP3   OH219221   7.713   3.666   2.788
 6423TIP3    H119222   7.780   3.723   2.752
 6423TIP3    H219223   7.710   3.696   2.882
 6424TIP3   OH219224   7.524   3.274   2.808
 6424TIP3    H119225   7.565   3.355   2.840
 6424TIP3    H219226   7.599   3.230   2.766
 6425TIP3   OH219227   7.379   2.527   2.838
 6425TIP3    H119228   7.412   2.609   2.879
 6425TIP3    H219229   7.349   2.478   2.915
 6426TIP3   OH219230   7.379   3.484   3.189
 6426TIP3    H119231   7.321   3.506   3.263
 6426TIP3    H219232   7.335   3.529   3.113
 6427TIP3   OH219233   7.542   4.034   4.266
 6427TIP3    H119234   7.625   4.043   4.321
 6427TIP3    H219235   7.531   3.938   4.268
 6428TIP3   OH219236   8.002   4.011   4.335
 6428TIP3    H119237   8.065   3.993   4.407
 6428TIP3    H219238   7.993   3.926   4.288
 6429TIP3   OH219239   7.666   3.436   4.468
 6429TIP3    H119240   7.683   3.340   4.475
 6429TIP3    H219241   7.580   3.437   4.420
 6430TIP3   OH219242   7.785   3.176   4.436
 6430TIP3    H119243   7.780   3.086   4.472
 6430TIP3    H219244   7.832   3.219   4.510
 6431TIP3   OH219245   7.249   3.225   2.842
 6431TIP3    H119246   7.345   3.242   2.827
 6431TIP3    H219247   7.240   3.135   2.804
 6432TIP3   OH219248   7.163   3.831   3.265
 6432TIP3    H119249   7.097   3.772   3.223
 6432TIP3    H219250   7.206   3.770   3.328
 6433TIP3   OH219251   7.292   3.672   3.452
 6433TIP3    H119252   7.280   3.606   3.523
 6433TIP3    H219253   7.346   3.737   3.499
 6434TIP3   OH219254   7.458   3.099   3.811
 6434TIP3    H119255   7.450   3.057   3.722
 6434TIP3    H219256   7.556   3.098   3.822
 6435TIP3   OH219257   7.664   2.763   4.455
 6435TIP3    H119258   7.761   2.770   4.460
 6435TIP3    H219259   7.650   2.678   4.503
 6436TIP3   OH219260   7.598   2.447   3.860
 6436TIP3    H119261   7.652   2.385   3.913
 6436TIP3    H219262   7.670   2.501   3.825
 6437TIP3   OH219263   7.448   2.751   3.895
 6437TIP3    H119264   7.496   2.753   3.809
 6437TIP3    H219265   7.504   2.806   3.951
 6438TIP3   OH219266   7.456   2.241   3.376
 6438TIP3    H119267   7.378   2.235   3.433
 6438TIP3    H219268   7.427   2.304   3.307
 6439TIP3   OH219269   7.674   2.395   4.283
 6439TIP3    H119270   7.610   2.343   4.334
 6439TIP3    H219271   7.633   2.393   4.195
 6440TIP3   OH219272   7.711   3.761   4.287
 6440TIP3    H119273   7.619   3.735   4.270
 6440TIP3    H219274   7.720   3.741   4.381
 6441TIP3   OH219275   7.883   3.780   3.862
 6441TIP3    H119276   7.823   3.854   3.840
 6441TIP3    H219277   7.948   3.794   3.789
 6442TIP3   OH219278   7.556   4.043   3.871
 6442TIP3    H119279   7.465   4.071   3.849
 6442TIP3    H219280   7.576   4.105   3.944
 6443TIP3   OH219281   7.785   4.017   3.724
 6443TIP3    H119282   7.699   4.027   3.771
 6443TIP3    H219283   7.765   4.062   3.640
 6444TIP3   OH219284   7.472   3.834   3.602
 6444TIP3    H119285   7.499   3.806   3.692
 6444TIP3    H219286   7.546   3.792   3.552
 6445TIP3   OH219287   7.674   3.711   3.471
 6445TIP3    H119288   7.684   3.619   3.505
 6445TIP3    H219289   7.765   3.743   3.480
 6446TIP3   OH219290  -0.095   3.553   4.726
 6446TIP3    H119291  -0.018   3.602   4.694
 6446TIP3    H219292  -0.124   3.611   4.800
 6447TIP3   OH219293   7.256   3.617   2.988
 6447TIP3    H119294   7.170   3.584   2.956
 6447TIP3    H219295   7.250   3.710   2.960
 6448TIP3   OH219296   7.311   3.632   2.647
 6448TIP3    H119297   7.316   3.662   2.739
 6448TIP3    H219298   7.404   3.605   2.629
 6449TIP3   OH219299   0.898   3.963   5.215
 6449TIP3    H119300   0.939   3.947   5.302
 6449TIP3    H219301   0.857   3.877   5.197
 6450TIP3   OH219302   0.195   3.858   5.538
 6450TIP3    H119303   0.208   3.785   5.601
 6450TIP3    H219304   0.279   3.904   5.544
 6451TIP3   OH219305   1.147   4.282   4.887
 6451TIP3    H119306   1.132   4.208   4.946
 6451TIP3    H219307   1.179   4.351   4.948
 6452TIP3   OH219308   0.233   4.266   5.340
 6452TIP3    H119309   0.251   4.170   5.330
 6452TIP3    H219310   0.313   4.301   5.294
 6453TIP3   OH219311   0.802   4.729   4.915
 6453TIP3    H119312   0.836   4.657   4.858
 6453TIP3    H219313   0.788   4.682   4.998
 6454TIP3   OH219314   0.703   4.195   5.244
 6454TIP3    H119315   0.748   4.117   5.207
 6454TIP3    H219316   0.783   4.243   5.275
 6455TIP3   OH219317   1.717   3.509   5.254
 6455TIP3    H119318   1.746   3.594   5.293
 6455TIP3    H219319   1.745   3.521   5.161
 6456TIP3   OH219320   1.110   3.689   5.284
 6456TIP3    H119321   1.154   3.605   5.306
 6456TIP3    H219322   1.079   3.670   5.193
 6457TIP3   OH219323   0.458   3.354   5.249
 6457TIP3    H119324   0.436   3.425   5.185
 6457TIP3    H219325   0.411   3.278   5.209
 6458TIP3   OH219326   1.144   3.445   4.869
 6458TIP3    H119327   1.213   3.431   4.938
 6458TIP3    H219328   1.200   3.477   4.796
 6459TIP3   OH219329   0.087   3.537   5.360
 6459TIP3    H119330   0.168   3.522   5.412
 6459TIP3    H219331   0.115   3.500   5.275
 6460TIP3   OH219332   0.526   3.750   5.146
 6460TIP3    H119333   0.620   3.724   5.158
 6460TIP3    H219334   0.486   3.665   5.118
 6461TIP3   OH219335   1.790   3.722   5.422
 6461TIP3    H119336   1.703   3.765   5.403
 6461TIP3    H219337   1.805   3.753   5.513
 6462TIP3   OH219338   0.451   3.327   5.679
 6462TIP3    H119339   0.391   3.362   5.610
 6462TIP3    H219340   0.398   3.346   5.759
 6463TIP3   OH219341   0.576   4.098   5.460
 6463TIP3    H119342   0.526   4.169   5.506
 6463TIP3    H219343   0.615   4.147   5.384
 6464TIP3   OH219344   1.342   3.452   5.054
 6464TIP3    H119345   1.326   3.413   5.141
 6464TIP3    H219346   1.396   3.531   5.077
 6465TIP3   OH219347   0.324   3.448   5.468
 6465TIP3    H119348   0.386   3.519   5.496
 6465TIP3    H219349   0.374   3.409   5.393
 6466TIP3   OH219350   0.417   4.280   5.585
 6466TIP3    H119351   0.388   4.359   5.534
 6466TIP3    H219352   0.330   4.241   5.610
 6467TIP3   OH219353   1.208   4.504   5.055
 6467TIP3    H119354   1.118   4.502   5.094
 6467TIP3    H219355   1.206   4.592   5.010
 6468TIP3   OH219356   1.509   3.408   5.419
 6468TIP3    H119357   1.422   3.434   5.385
 6468TIP3    H219358   1.570   3.441   5.350
 6469TIP3   OH219359   0.796   3.047   5.403
 6469TIP3    H119360   0.780   2.953   5.423
 6469TIP3    H219361   0.720   3.088   5.450
 6470TIP3   OH219362   0.898   4.557   4.719
 6470TIP3    H119363   0.949   4.474   4.709
 6470TIP3    H219364   0.961   4.621   4.679
 6471TIP3   OH219365   1.050   4.346   4.638
 6471TIP3    H119366   1.027   4.260   4.599
 6471TIP3    H219367   1.093   4.317   4.722
 6472TIP3   OH219368   1.438   4.418   5.400
 6472TIP3    H119369   1.424   4.342   5.340
 6472TIP3    H219370   1.418   4.494   5.341
 6473TIP3   OH219371   1.634   4.067   5.248
 6473TIP3    H119372   1.548   4.115   5.251
 6473TIP3    H219373   1.662   4.087   5.156
 6474TIP3   OH219374   1.311   3.934   5.549
 6474TIP3    H119375   1.309   4.017   5.602
 6474TIP3    H219376   1.226   3.941   5.502
 6475TIP3   OH219377   0.316   3.884   5.027
 6475TIP3    H119378   0.284   3.821   4.960
 6475TIP3    H219379   0.394   3.836   5.064
 6476TIP3   OH219380   0.452   4.319   5.185
 6476TIP3    H119381   0.431   4.296   5.092
 6476TIP3    H219382   0.539   4.275   5.198
 6477TIP3   OH219383   0.468   3.857   5.395
 6477TIP3    H119384   0.503   3.827   5.308
 6477TIP3    H219385   0.518   3.940   5.410
 6478TIP3   OH219386   0.967   4.508   5.181
 6478TIP3    H119387   0.967   4.582   5.243
 6478TIP3    H219388   0.954   4.431   5.239
 6479TIP3   OH219389   0.604   4.427   5.721
 6479TIP3    H119390   0.544   4.472   5.782
 6479TIP3    H219391   0.541   4.371   5.669
 6480TIP3   OH219392   0.335   3.950   5.846
 6480TIP3    H119393   0.334   4.019   5.915
 6480TIP3    H219394   0.239   3.933   5.833
 6481TIP3   OH219395   0.634   4.471   4.730
 6481TIP3    H119396   0.729   4.489   4.732
 6481TIP3    H219397   0.598   4.548   4.682
 6482TIP3   OH219398   1.432   2.994   4.504
 6482TIP3    H119399   1.352   3.019   4.553
 6482TIP3    H219400   1.450   3.076   4.454
 6483TIP3   OH219401   0.165   3.733   4.832
 6483TIP3    H119402   0.086   3.787   4.828
 6483TIP3    H219403   0.138   3.660   4.890
 6484TIP3   OH219404   1.241   4.365   4.056
 6484TIP3    H119405   1.238   4.415   3.973
 6484TIP3    H219406   1.330   4.323   4.050
 6485TIP3   OH219407   1.681   4.773   5.456
 6485TIP3    H119408   1.678   4.677   5.471
 6485TIP3    H219409   1.597   4.800   5.499
 6486TIP3   OH219410   0.785   4.559   5.568
 6486TIP3    H119411   0.783   4.649   5.607
 6486TIP3    H219412   0.717   4.514   5.624
 6487TIP3   OH219413   0.545   4.682   4.532
 6487TIP3    H119414   0.493   4.673   4.450
 6487TIP3    H219415   0.521   4.772   4.562
 6488TIP3   OH219416   0.741   4.583   4.170
 6488TIP3    H119417   0.800   4.512   4.138
 6488TIP3    H219418   0.774   4.595   4.262
 6489TIP3   OH219419   0.791   4.626   4.437
 6489TIP3    H119420   0.703   4.641   4.478
 6489TIP3    H219421   0.837   4.581   4.510
 6490TIP3   OH219422   1.565   3.897   5.723
 6490TIP3    H119423   1.479   3.905   5.678
 6490TIP3    H219424   1.582   3.801   5.714
 6491TIP3   OH219425   0.564   3.124   5.532
 6491TIP3    H119426   0.476   3.093   5.501
 6491TIP3    H219427   0.535   3.203   5.582
 6492TIP3   OH219428   1.098   3.241   5.728
 6492TIP3    H119429   1.168   3.214   5.791
 6492TIP3    H219430   1.016   3.223   5.777
 6493TIP3   OH219431   1.329   3.673   5.645
 6493TIP3    H119432   1.278   3.671   5.730
 6493TIP3    H219433   1.307   3.761   5.609
 6494TIP3   OH219434   0.964   3.798   4.193
 6494TIP3    H119435   0.940   3.756   4.107
 6494TIP3    H219436   1.057   3.822   4.173
 6495TIP3   OH219437   0.704   3.180   4.502
 6495TIP3    H119438   0.670   3.174   4.594
 6495TIP3    H219439   0.666   3.097   4.466
 6496TIP3   OH219440   0.500   3.640   5.554
 6496TIP3    H119441   0.444   3.660   5.632
 6496TIP3    H219442   0.488   3.722   5.501
 6497TIP3   OH219443   0.376   3.536   5.061
 6497TIP3    H119444   0.287   3.502   5.084
 6497TIP3    H219445   0.388   3.491   4.974
 6498TIP3   OH219446   0.865   3.630   4.787
 6498TIP3    H119447   0.866   3.723   4.756
 6498TIP3    H219448   0.920   3.592   4.718
 6499TIP3   OH219449   1.042   3.889   5.874
 6499TIP3    H119450   1.019   3.817   5.938
 6499TIP3    H219451   1.135   3.905   5.899
 6500TIP3   OH219452   1.021   3.642   5.027
 6500TIP3    H119453   0.958   3.671   4.958
 6500TIP3    H219454   1.059   3.564   4.981
 6501TIP3   OH219455   0.309   3.663   5.750
 6501TIP3    H119456   0.334   3.731   5.815
 6501TIP3    H219457   0.308   3.583   5.805
 6502TIP3   OH219458   0.369   3.152   4.468
 6502TIP3    H119459   0.350   3.150   4.564
 6502TIP3    H219460   0.293   3.205   4.436
 6503TIP3   OH219461  -0.025   3.200   4.897
 6503TIP3    H119462   0.001   3.225   4.807
 6503TIP3    H219463  -0.121   3.216   4.897
 6504TIP3   OH219464   1.030   3.887   5.448
 6504TIP3    H119465   1.065   3.816   5.388
 6504TIP3    H219466   1.002   3.831   5.523
 6505TIP3   OH219467   0.713   3.353   5.121
 6505TIP3    H119468   0.634   3.352   5.178
 6505TIP3    H219469   0.785   3.341   5.186
 6506TIP3   OH219470   0.153   3.394   5.123
 6506TIP3    H119471   0.072   3.376   5.075
 6506TIP3    H219472   0.197   3.306   5.120
 6507TIP3   OH219473   0.398   3.401   4.826
 6507TIP3    H119474   0.491   3.415   4.803
 6507TIP3    H219475   0.350   3.425   4.743
 6508TIP3   OH219476   1.198   3.429   5.328
 6508TIP3    H119477   1.169   3.442   5.421
 6508TIP3    H219478   1.128   3.370   5.295
 6509TIP3   OH219479   0.244   3.447   4.606
 6509TIP3    H119480   0.173   3.390   4.572
 6509TIP3    H219481   0.288   3.473   4.523
 6510TIP3   OH219482   1.356   5.117   5.543
 6510TIP3    H119483   1.334   5.151   5.454
 6510TIP3    H219484   1.441   5.163   5.561
 6511TIP3   OH219485   0.333   4.184   6.014
 6511TIP3    H119486   0.418   4.232   6.020
 6511TIP3    H219487   0.311   4.183   6.108
 6512TIP3   OH219488   0.784   3.687   5.223
 6512TIP3    H119489   0.859   3.645   5.178
 6512TIP3    H219490   0.785   3.642   5.310
 6513TIP3   OH219491   0.308   3.165   5.114
 6513TIP3    H119492   0.266   3.091   5.165
 6513TIP3    H219493   0.346   3.116   5.040
 6514TIP3   OH219494   0.766   3.589   5.503
 6514TIP3    H119495   0.675   3.616   5.527
 6514TIP3    H219496   0.821   3.647   5.558
 6515TIP3   OH219497   0.478   3.985   4.584
 6515TIP3    H119498   0.420   3.907   4.586
 6515TIP3    H219499   0.475   4.010   4.680
 6516TIP3   OH219500   1.396   4.205   5.230
 6516TIP3    H119501   1.419   4.257   5.151
 6516TIP3    H219502   1.312   4.161   5.203
 6517TIP3   OH219503   0.960   3.277   4.490
 6517TIP3    H119504   0.863   3.259   4.489
 6517TIP3    H219505   0.966   3.374   4.487
 6518TIP3   OH219506   0.893   4.284   5.605
 6518TIP3    H119507   0.942   4.268   5.687
 6518TIP3    H219508   0.865   4.376   5.614
 6519TIP3   OH219509   1.042   3.547   4.545
 6519TIP3    H119510   1.125   3.520   4.589
 6519TIP3    H219511   1.064   3.639   4.524
 6520TIP3   OH219512   0.257   4.002   5.273
 6520TIP3    H119513   0.274   3.966   5.183
 6520TIP3    H219514   0.304   3.936   5.327
 6521TIP3   OH219515   0.647   4.110   4.407
 6521TIP3    H119516   0.607   4.199   4.419
 6521TIP3    H219517   0.604   4.065   4.483
 6522TIP3   OH219518   0.804   4.029   5.915
 6522TIP3    H119519   0.743   3.964   5.876
 6522TIP3    H219520   0.891   3.992   5.886
 6523TIP3   OH219521   1.054   4.544   5.501
 6523TIP3    H119522   0.957   4.549   5.516
 6523TIP3    H219523   1.086   4.599   5.575
 6524TIP3   OH219524   1.469   3.626   4.407
 6524TIP3    H119525   1.404   3.584   4.346
 6524TIP3    H219526   1.465   3.717   4.370
 6525TIP3   OH219527   1.688   4.481   5.488
 6525TIP3    H119528   1.590   4.474   5.480
 6525TIP3    H219529   1.714   4.451   5.398
 6526TIP3   OH219530   1.202   4.489   4.309
 6526TIP3    H119531   1.170   4.437   4.385
 6526TIP3    H219532   1.205   4.420   4.240
 6527TIP3   OH219533   1.164   4.069   5.148
 6527TIP3    H119534   1.071   4.044   5.163
 6527TIP3    H219535   1.198   3.988   5.105
 6528TIP3   OH219536   0.313   4.297   4.931
 6528TIP3    H119537   0.288   4.367   4.868
 6528TIP3    H219538   0.227   4.250   4.942
 6529TIP3   OH219539   0.427   4.059   4.838
 6529TIP3    H119540   0.410   4.150   4.867
 6529TIP3    H219541   0.395   4.007   4.914
 6530TIP3   OH219542   0.586   4.644   5.365
 6530TIP3    H119543   0.628   4.714   5.311
 6530TIP3    H219544   0.663   4.609   5.413
 6531TIP3   OH219545   0.210   4.516   4.762
 6531TIP3    H119546   0.123   4.558   4.769
 6531TIP3    H219547   0.268   4.593   4.779
 6532TIP3   OH219548   0.948   4.274   5.336
 6532TIP3    H119549   0.934   4.273   5.433
 6532TIP3    H219550   1.029   4.222   5.328
 6533TIP3   OH219551   0.925   4.173   4.222
 6533TIP3    H119552   0.984   4.150   4.297
 6533TIP3    H219553   0.838   4.161   4.263
 6534TIP3   OH219554   1.201   4.802   5.380
 6534TIP3    H119555   1.114   4.763   5.361
 6534TIP3    H219556   1.201   4.880   5.322
 6535TIP3   OH219557   0.312   3.408   5.902
 6535TIP3    H119558   0.228   3.410   5.952
 6535TIP3    H219559   0.369   3.371   5.972
 6536TIP3   OH219560   1.073   4.096   4.435
 6536TIP3    H119561   1.045   4.030   4.503
 6536TIP3    H219562   1.170   4.082   4.436
 6537TIP3   OH219563   0.288   4.146   4.209
 6537TIP3    H119564   0.297   4.051   4.190
 6537TIP3    H219565   0.276   4.144   4.307
 6538TIP3   OH219566   0.266   4.150   4.480
 6538TIP3    H119567   0.347   4.117   4.523
 6538TIP3    H219568   0.269   4.246   4.498
 6539TIP3   OH219569   1.127   3.478   5.588
 6539TIP3    H119570   1.206   3.519   5.627
 6539TIP3    H219571   1.116   3.398   5.643
 6540TIP3   OH219572   1.007   3.223   4.762
 6540TIP3    H119573   0.994   3.244   4.668
 6540TIP3    H219574   1.048   3.305   4.796
 6541TIP3   OH219575   0.510   4.348   4.426
 6541TIP3    H119576   0.428   4.368   4.475
 6541TIP3    H219577   0.527   4.435   4.387
 6542TIP3   OH219578   0.681   3.422   4.851
 6542TIP3    H119579   0.742   3.497   4.833
 6542TIP3    H219580   0.694   3.409   4.948
 6543TIP3   OH219581   0.963   3.726   5.658
 6543TIP3    H119582   0.989   3.778   5.737
 6543TIP3    H219583   1.014   3.644   5.669
 6544TIP3   OH219584   0.828   3.127   4.953
 6544TIP3    H119585   0.825   3.204   5.013
 6544TIP3    H219586   0.894   3.159   4.887
 6545TIP3   OH219587   0.254   4.423   4.504
 6545TIP3    H119588   0.210   4.491   4.449
 6545TIP3    H219589   0.233   4.455   4.595
 6546TIP3   OH219590   0.344   3.138   4.743
 6546TIP3    H119591   0.341   3.226   4.786
 6546TIP3    H219592   0.440   3.121   4.749
 6547TIP3   OH219593   1.596   3.630   5.642
 6547TIP3    H119594   1.498   3.630   5.651
 6547TIP3    H219595   1.606   3.581   5.560
 6548TIP3   OH219596   1.247   3.828   5.032
 6548TIP3    H119597   1.174   3.764   5.039
 6548TIP3    H219598   1.321   3.780   5.074
 6549TIP3   OH219599   0.006   4.057   4.556
 6549TIP3    H119600   0.074   4.125   4.564
 6549TIP3    H219601   0.043   4.007   4.480
 6550TIP3   OH219602  -0.024   3.319   4.609
 6550TIP3    H119603  -0.046   3.408   4.643
 6550TIP3    H219604  -0.112   3.279   4.601
 6551TIP3   OH219605   1.224   4.760   4.961
 6551TIP3    H119606   1.176   4.819   4.900
 6551TIP3    H219607   1.314   4.796   4.953
 6552TIP3   OH219608   0.302   3.044   5.497
 6552TIP3    H119609   0.267   3.011   5.412
 6552TIP3    H219610   0.289   2.968   5.557
 6553TIP3   OH219611   0.496   4.800   5.964
 6553TIP3    H119612   0.573   4.771   6.015
 6553TIP3    H219613   0.482   4.725   5.906
 6554TIP3   OH219614   0.453   4.351   4.123
 6554TIP3    H119615   0.397   4.280   4.163
 6554TIP3    H219616   0.530   4.300   4.093
 6555TIP3   OH219617   1.110   4.680   5.733
 6555TIP3    H119618   1.103   4.611   5.803
 6555TIP3    H219619   1.188   4.731   5.763
 6556TIP3   OH219620   0.887   4.383   4.047
 6556TIP3    H119621   0.921   4.312   4.105
 6556TIP3    H219622   0.940   4.371   3.965
 6557TIP3   OH219623   0.121   3.863   4.364
 6557TIP3    H119624   0.176   3.836   4.441
 6557TIP3    H219625   0.190   3.868   4.295
 6558TIP3   OH219626   0.728   4.301   5.935
 6558TIP3    H119627   0.702   4.324   5.843
 6558TIP3    H219628   0.763   4.210   5.924
 6559TIP3   OH219629   0.610   4.054   4.148
 6559TIP3    H119630   0.617   4.077   4.243
 6559TIP3    H219631   0.542   3.986   4.149
 6560TIP3   OH219632   1.219   4.321   5.540
 6560TIP3    H119633   1.298   4.359   5.498
 6560TIP3    H219634   1.153   4.392   5.521
 6561TIP3   OH219635   0.290   3.770   4.569
 6561TIP3    H119636   0.262   3.737   4.657
 6561TIP3    H219637   0.325   3.689   4.527
 6562TIP3   OH219638   0.584   3.827   5.802
 6562TIP3    H119639   0.504   3.883   5.804
 6562TIP3    H219640   0.636   3.866   5.727
 6563TIP3   OH219641   0.391   3.564   4.404
 6563TIP3    H119642   0.353   3.569   4.314
 6563TIP3    H219643   0.481   3.536   4.384
 6564TIP3   OH219644   1.093   4.237   5.931
 6564TIP3    H119645   1.174   4.204   5.890
 6564TIP3    H219646   1.085   4.177   6.008
 6565TIP3   OH219647   1.206   3.886   4.092
 6565TIP3    H119648   1.199   3.845   4.004
 6565TIP3    H219649   1.178   3.977   4.069
 6566TIP3   OH219650   0.712   3.619   5.919
 6566TIP3    H119651   0.708   3.541   5.860
 6566TIP3    H219652   0.665   3.687   5.866
 6567TIP3   OH219653   0.706   3.412   5.731
 6567TIP3    H119654   0.735   3.452   5.647
 6567TIP3    H219655   0.613   3.387   5.710
 6568TIP3   OH219656   0.733   3.941   5.613
 6568TIP3    H119657   0.823   3.953   5.578
 6568TIP3    H219658   0.681   4.003   5.558
 6569TIP3   OH219659   1.305   3.911   5.984
 6569TIP3    H119660   1.354   3.829   6.001
 6569TIP3    H219661   1.375   3.969   5.950
 6570TIP3   OH219662   1.349   4.166   5.719
 6570TIP3    H119663   1.292   4.224   5.664
 6570TIP3    H219664   1.437   4.188   5.683
 6571TIP3   OH219665   0.601   3.734   6.152
 6571TIP3    H119666   0.528   3.673   6.175
 6571TIP3    H219667   0.627   3.699   6.064
 6572TIP3   OH219668   0.836   3.174   5.808
 6572TIP3    H119669   0.785   3.254   5.783
 6572TIP3    H219670   0.768   3.104   5.795
 6573TIP3   OH219671   0.963   3.673   6.021
 6573TIP3    H119672   0.944   3.657   6.115
 6573TIP3    H219673   0.875   3.648   5.983
 6574TIP3   OH219674   1.197   3.625   5.875
 6574TIP3    H119675   1.124   3.627   5.939
 6574TIP3    H219676   1.273   3.597   5.930
 6575TIP3   OH219677   1.429   3.571   6.021
 6575TIP3    H119678   1.443   3.475   6.036
 6575TIP3    H219679   1.424   3.606   6.113
 6576TIP3   OH219680   0.440   3.514   6.206
 6576TIP3    H119681   0.411   3.424   6.184
 6576TIP3    H219682   0.472   3.504   6.297
 6577TIP3   OH219683   0.924   3.182   6.067
 6577TIP3    H119684   0.991   3.111   6.060
 6577TIP3    H219685   0.886   3.180   5.977
 6578TIP3   OH219686   0.997   3.397   6.223
 6578TIP3    H119687   0.973   3.325   6.159
 6578TIP3    H219688   0.918   3.455   6.217
 6579TIP3   OH219689   0.207   4.640   4.318
 6579TIP3    H119690   0.302   4.621   4.308
 6579TIP3    H219691   0.191   4.690   4.236
 6580TIP3   OH219692   1.476   4.867   4.934
 6580TIP3    H119693   1.493   4.878   5.030
 6580TIP3    H219694   1.534   4.937   4.899
 6581TIP3   OH219695   1.539   4.852   5.197
 6581TIP3    H119696   1.484   4.773   5.213
 6581TIP3    H219697   1.577   4.867   5.284
 6582TIP3   OH219698   1.548   4.565   5.794
 6582TIP3    H119699   1.477   4.579   5.860
 6582TIP3    H219700   1.592   4.653   5.795
 6583TIP3   OH219701   1.361   4.082   4.412
 6583TIP3    H119702   1.431   4.143   4.380
 6583TIP3    H219703   1.405   4.046   4.493
 6584TIP3   OH219704   1.492   3.966   4.620
 6584TIP3    H119705   1.431   3.911   4.675
 6584TIP3    H219706   1.559   3.993   4.686
 6585TIP3   OH219707   1.554   4.343   5.047
 6585TIP3    H119708   1.607   4.272   5.005
 6585TIP3    H219709   1.545   4.408   4.975
 6586TIP3   OH219710   1.375   4.634   5.243
 6586TIP3    H119711   1.307   4.683   5.293
 6586TIP3    H219712   1.323   4.593   5.171
 6587TIP3   OH219713   1.426   3.859   4.261
 6587TIP3    H119714   1.350   3.857   4.199
 6587TIP3    H219715   1.399   3.934   4.318
 6588TIP3   OH219716   1.298   3.530   4.214
 6588TIP3    H119717   1.250   3.558   4.136
 6588TIP3    H219718   1.279   3.433   4.212
 6589TIP3   OH219719   1.341   3.802   4.770
 6589TIP3    H119720   1.315   3.710   4.755
 6589TIP3    H219721   1.299   3.823   4.855
 6590TIP3   OH219722   1.598   4.232   5.620
 6590TIP3    H119723   1.668   4.164   5.606
 6590TIP3    H219724   1.622   4.300   5.556
 6591TIP3   OH219725   1.779   4.028   5.618
 6591TIP3    H119726   1.704   3.982   5.661
 6591TIP3    H219727   1.852   3.967   5.640
 6592TIP3   OH219728   1.250   3.260   4.187
 6592TIP3    H119729   1.322   3.231   4.247
 6592TIP3    H219730   1.173   3.209   4.215
 6593TIP3   OH219731   1.298   3.516   4.652
 6593TIP3    H119732   1.342   3.428   4.662
 6593TIP3    H219733   1.359   3.558   4.588
 6594TIP3   OH219734   1.460   3.691   5.149
 6594TIP3    H119735   1.546   3.714   5.106
 6594TIP3    H219736   1.477   3.729   5.237
 6595TIP3   OH219737   1.538   3.840   5.378
 6595TIP3    H119738   1.461   3.873   5.429
 6595TIP3    H219739   1.570   3.922   5.335
 6596TIP3   OH219740   1.986   3.437   5.934
 6596TIP3    H119741   2.048   3.373   5.893
 6596TIP3    H219742   1.954   3.486   5.856
 6597TIP3   OH219743   1.411   3.272   4.693
 6597TIP3    H119744   1.461   3.256   4.776
 6597TIP3    H219745   1.351   3.195   4.693
 6598TIP3   OH219746   0.121   3.257   5.528
 6598TIP3    H119747   0.177   3.178   5.520
 6598TIP3    H219748   0.181   3.327   5.502
 6599TIP3   OH219749   1.852   3.567   5.737
 6599TIP3    H119750   1.767   3.612   5.758
 6599TIP3    H219751   1.817   3.493   5.682
 6600TIP3   OH219752   1.484   3.202   4.328
 6600TIP3    H119753   1.530   3.135   4.274
 6600TIP3    H219754   1.551   3.274   4.332
 6601TIP3   OH219755   1.063   4.726   4.586
 6601TIP3    H119756   1.147   4.683   4.567
 6601TIP3    H219757   1.089   4.798   4.647
 6602TIP3   OH219758   0.382   4.549   5.529
 6602TIP3    H119759   0.352   4.633   5.569
 6602TIP3    H219760   0.454   4.581   5.469
 6603TIP3   OH219761   0.785   4.815   5.659
 6603TIP3    H119762   0.826   4.812   5.748
 6603TIP3    H219763   0.849   4.872   5.612
 6604TIP3   OH219764   0.962   4.977   5.527
 6604TIP3    H119765   1.033   4.921   5.492
 6604TIP3    H219766   1.013   5.035   5.588
 6605TIP3   OH219767   1.754   3.329   5.622
 6605TIP3    H119768   1.665   3.316   5.586
 6605TIP3    H219769   1.791   3.238   5.614
 6606TIP3   OH219770   0.691   4.839   5.204
 6606TIP3    H119771   0.617   4.855   5.141
 6606TIP3    H219772   0.703   4.929   5.242
 6607TIP3   OH219773   0.956   4.788   5.258
 6607TIP3    H119774   0.859   4.793   5.246
 6607TIP3    H219775   0.986   4.842   5.184
 6608TIP3   OH219776   0.404   4.601   5.144
 6608TIP3    H119777   0.406   4.504   5.133
 6608TIP3    H219778   0.466   4.609   5.219
 6609TIP3   OH219779   0.955   3.244   5.240
 6609TIP3    H119780   0.918   3.171   5.293
 6609TIP3    H219781   1.034   3.202   5.199
 6610TIP3   OH219782   1.476   3.129   5.144
 6610TIP3    H119783   1.513   3.179   5.069
 6610TIP3    H219784   1.381   3.152   5.139
 6611TIP3   OH219785   1.576   3.223   4.908
 6611TIP3    H119786   1.648   3.168   4.871
 6611TIP3    H219787   1.615   3.312   4.892
 6612TIP3   OH219788   0.208   2.951   5.252
 6612TIP3    H119789   0.116   2.916   5.257
 6612TIP3    H219790   0.258   2.866   5.249
 6613TIP3   OH219791   0.021   2.831   4.911
 6613TIP3    H119792   0.046   2.871   4.826
 6613TIP3    H219793  -0.012   2.907   4.959
 6614TIP3   OH219794   0.656   2.986   5.140
 6614TIP3    H119795   0.711   3.032   5.074
 6614TIP3    H219796   0.687   3.025   5.223
 6615TIP3   OH219797   1.189   3.135   5.122
 6615TIP3    H119798   1.200   3.092   5.036
 6615TIP3    H219799   1.182   3.057   5.181
 6616TIP3   OH219800   1.229   3.061   4.686
 6616TIP3    H119801   1.145   3.105   4.708
 6616TIP3    H219802   1.216   2.974   4.729
 6617TIP3   OH219803   0.109   2.977   4.675
 6617TIP3    H119804   0.155   2.916   4.613
 6617TIP3    H219805   0.183   3.031   4.708
 6618TIP3   OH219806   0.622   3.166   4.766
 6618TIP3    H119807   0.681   3.118   4.827
 6618TIP3    H219808   0.644   3.258   4.792
 6619TIP3   OH219809   0.478   4.585   4.264
 6619TIP3    H119810   0.566   4.606   4.228
 6619TIP3    H219811   0.457   4.506   4.209
 6620TIP3   OH219812   0.406   3.243   6.148
 6620TIP3    H119813   0.377   3.164   6.200
 6620TIP3    H219814   0.500   3.244   6.177
 6621TIP3   OH219815   0.661   3.235   6.267
 6621TIP3    H119816   0.746   3.214   6.225
 6621TIP3    H219817   0.651   3.161   6.330
 6622TIP3   OH219818   1.494   3.300   6.053
 6622TIP3    H119819   1.510   3.269   6.145
 6622TIP3    H219820   1.584   3.294   6.015
 6623TIP3   OH219821   1.430   4.850   5.541
 6623TIP3    H119822   1.351   4.817   5.495
 6623TIP3    H219823   1.408   4.946   5.547
 6624TIP3   OH219824   2.681   4.226   4.332
 6624TIP3    H119825   2.637   4.308   4.300
 6624TIP3    H219826   2.626   4.160   4.286
 6625TIP3   OH219827   2.705   4.232   4.692
 6625TIP3    H119828   2.730   4.192   4.778
 6625TIP3    H219829   2.665   4.158   4.644
 6626TIP3   OH219830   1.992   4.113   5.055
 6626TIP3    H119831   2.015   4.039   5.114
 6626TIP3    H219832   2.069   4.170   5.067
 6627TIP3   OH219833   2.914   4.569   4.425
 6627TIP3    H119834   2.958   4.487   4.452
 6627TIP3    H219835   2.824   4.539   4.406
 6628TIP3   OH219836   1.969   4.529   4.771
 6628TIP3    H119837   1.963   4.431   4.770
 6628TIP3    H219838   2.064   4.540   4.785
 6629TIP3   OH219839   1.662   3.739   4.601
 6629TIP3    H119840   1.603   3.816   4.595
 6629TIP3    H219841   1.618   3.677   4.542
 6630TIP3   OH219842   1.739   4.016   4.745
 6630TIP3    H119843   1.776   3.933   4.781
 6630TIP3    H219844   1.774   4.013   4.655
 6631TIP3   OH219845   2.588   4.990   4.393
 6631TIP3    H119846   2.640   4.917   4.354
 6631TIP3    H219847   2.568   4.956   4.481
 6632TIP3   OH219848   2.494   4.453   4.740
 6632TIP3    H119849   2.533   4.376   4.698
 6632TIP3    H219850   2.576   4.498   4.769
 6633TIP3   OH219851   3.517   3.762   4.745
 6633TIP3    H119852   3.543   3.852   4.774
 6633TIP3    H219853   3.531   3.767   4.649
 6634TIP3   OH219854   2.914   3.955   4.770
 6634TIP3    H119855   2.960   3.876   4.805
 6634TIP3    H219856   2.876   3.917   4.691
 6635TIP3   OH219857   1.867   3.795   4.836
 6635TIP3    H119858   1.959   3.773   4.858
 6635TIP3    H219859   1.856   3.751   4.750
 6636TIP3   OH219860   3.589   3.984   4.906
 6636TIP3    H119861   3.501   4.021   4.886
 6636TIP3    H219862   3.591   3.996   5.002
 6637TIP3   OH219863   2.237   3.594   5.168
 6637TIP3    H119864   2.181   3.627   5.096
 6637TIP3    H219865   2.180   3.613   5.246
 6638TIP3   OH219866   2.577   4.440   4.193
 6638TIP3    H119867   2.547   4.419   4.103
 6638TIP3    H219868   2.532   4.526   4.208
 6639TIP3   OH219869   2.349   4.373   4.963
 6639TIP3    H119870   2.288   4.441   5.000
 6639TIP3    H219871   2.389   4.421   4.888
 6640TIP3   OH219872   3.219   3.680   4.561
 6640TIP3    H119873   3.144   3.657   4.617
 6640TIP3    H219874   3.220   3.778   4.571
 6641TIP3   OH219875   2.122   3.698   4.922
 6641TIP3    H119876   2.184   3.766   4.955
 6641TIP3    H219877   2.155   3.686   4.831
 6642TIP3   OH219878   2.179   4.567   5.063
 6642TIP3    H119879   2.153   4.657   5.034
 6642TIP3    H219880   2.100   4.546   5.118
 6643TIP3   OH219881   1.562   4.250   4.299
 6643TIP3    H119882   1.527   4.267   4.210
 6643TIP3    H219883   1.579   4.340   4.332
 6644TIP3   OH219884   3.306   3.672   4.909
 6644TIP3    H119885   3.220   3.697   4.870
 6644TIP3    H219886   3.368   3.698   4.837
 6645TIP3   OH219887   2.583   3.284   4.915
 6645TIP3    H119888   2.559   3.192   4.938
 6645TIP3    H219889   2.508   3.334   4.953
 6646TIP3   OH219890   2.738   4.810   4.249
 6646TIP3    H119891   2.766   4.725   4.207
 6646TIP3    H219892   2.781   4.873   4.186
 6647TIP3   OH219893   2.852   4.590   4.132
 6647TIP3    H119894   2.828   4.528   4.061
 6647TIP3    H219895   2.921   4.541   4.176
 6648TIP3   OH219896   3.231   4.680   4.883
 6648TIP3    H119897   3.220   4.594   4.836
 6648TIP3    H219898   3.209   4.742   4.813
 6649TIP3   OH219899   2.538   4.104   4.131
 6649TIP3    H119900   2.448   4.141   4.129
 6649TIP3    H219901   2.559   4.098   4.038
 6650TIP3   OH219902   2.482   3.860   3.851
 6650TIP3    H119903   2.521   3.866   3.938
 6650TIP3    H219904   2.549   3.808   3.802
 6651TIP3   OH219905   3.427   4.327   4.739
 6651TIP3    H119906   3.341   4.375   4.742
 6651TIP3    H219907   3.454   4.345   4.647
 6652TIP3   OH219908   2.878   4.208   4.145
 6652TIP3    H119909   2.813   4.222   4.218
 6652TIP3    H219910   2.865   4.115   4.126
 6653TIP3   OH219911   3.106   4.194   5.035
 6653TIP3    H119912   3.104   4.275   5.089
 6653TIP3    H219913   3.018   4.198   4.993
 6654TIP3   OH219914   2.111   4.101   4.532
 6654TIP3    H119915   2.047   4.039   4.491
 6654TIP3    H219916   2.177   4.032   4.550
 6655TIP3   OH219917   2.244   4.577   4.672
 6655TIP3    H119918   2.217   4.535   4.589
 6655TIP3    H219919   2.330   4.533   4.691
 6656TIP3   OH219920   2.260   4.124   4.895
 6656TIP3    H119921   2.270   4.123   4.799
 6656TIP3    H219922   2.289   4.215   4.918
 6657TIP3   OH219923   2.818   4.758   4.660
 6657TIP3    H119924   2.784   4.838   4.706
 6657TIP3    H219925   2.789   4.688   4.722
 6658TIP3   OH219926   2.382   4.679   5.210
 6658TIP3    H119927   2.321   4.740   5.257
 6658TIP3    H219928   2.318   4.627   5.159
 6659TIP3   OH219929   2.137   4.236   5.315
 6659TIP3    H119930   2.141   4.324   5.356
 6659TIP3    H219931   2.043   4.213   5.334
 6660TIP3   OH219932   2.468   4.691   4.208
 6660TIP3    H119933   2.533   4.758   4.234
 6660TIP3    H219934   2.400   4.742   4.163
 6661TIP3   OH219935   2.175   4.840   5.301
 6661TIP3    H119936   2.136   4.847   5.212
 6661TIP3    H219937   2.096   4.820   5.356
 6662TIP3   OH219938   3.034   4.620   3.547
 6662TIP3    H119939   3.044   4.714   3.523
 6662TIP3    H219940   3.126   4.587   3.535
 6663TIP3   OH219941   1.753   4.381   5.245
 6663TIP3    H119942   1.683   4.362   5.180
 6663TIP3    H219943   1.790   4.292   5.264
 6664TIP3   OH219944   1.606   4.582   4.860
 6664TIP3    H119945   1.701   4.579   4.874
 6664TIP3    H219946   1.580   4.655   4.919
 6665TIP3   OH219947   3.473   5.023   4.944
 6665TIP3    H119948   3.473   4.929   4.969
 6665TIP3    H219949   3.390   5.053   4.987
 6666TIP3   OH219950   2.573   4.811   5.065
 6666TIP3    H119951   2.571   4.903   5.099
 6666TIP3    H219952   2.503   4.769   5.121
 6667TIP3   OH219953   2.344   4.936   4.020
 6667TIP3    H119954   2.295   4.913   3.939
 6667TIP3    H219955   2.304   5.021   4.046
 6668TIP3   OH219956   1.761   4.773   4.422
 6668TIP3    H119957   1.834   4.766   4.488
 6668TIP3    H219958   1.686   4.754   4.484
 6669TIP3   OH219959   2.541   4.843   3.656
 6669TIP3    H119960   2.597   4.770   3.619
 6669TIP3    H219961   2.577   4.850   3.746
 6670TIP3   OH219962   2.594   4.890   3.924
 6670TIP3    H119963   2.505   4.899   3.966
 6670TIP3    H219964   2.640   4.836   3.990
 6671TIP3   OH219965   3.359   4.152   5.209
 6671TIP3    H119966   3.273   4.157   5.164
 6671TIP3    H219967   3.378   4.057   5.201
 6672TIP3   OH219968   1.958   4.562   5.223
 6672TIP3    H119969   2.004   4.550   5.309
 6672TIP3    H219970   1.883   4.500   5.233
 6673TIP3   OH219971   2.349   3.384   5.026
 6673TIP3    H119972   2.259   3.356   4.998
 6673TIP3    H219973   2.326   3.466   5.073
 6674TIP3   OH219974   2.892   3.501   5.214
 6674TIP3    H119975   2.961   3.471   5.276
 6674TIP3    H219976   2.809   3.478   5.261
 6675TIP3   OH219977   3.130   3.934   5.138
 6675TIP3    H119978   3.076   3.929   5.220
 6675TIP3    H219979   3.101   4.018   5.098
 6676TIP3   OH219980   2.777   4.051   3.683
 6676TIP3    H119981   2.750   4.027   3.593
 6676TIP3    H219982   2.866   4.087   3.666
 6677TIP3   OH219983   2.504   3.432   3.989
 6677TIP3    H119984   2.467   3.433   4.079
 6677TIP3    H219985   2.462   3.352   3.953
 6678TIP3   OH219986   2.284   3.894   5.033
 6678TIP3    H119987   2.231   3.913   5.113
 6678TIP3    H219988   2.275   3.979   4.984
 6679TIP3   OH219989   2.838   4.147   5.365
 6679TIP3    H119990   2.814   4.074   5.427
 6679TIP3    H219991   2.932   4.159   5.388
 6680TIP3   OH219992   2.106   3.928   5.243
 6680TIP3    H119993   2.133   3.990   5.313
 6680TIP3    H219994   2.094   3.845   5.294
 6681TIP3   OH219995   2.158   3.414   3.947
 6681TIP3    H119996   2.144   3.411   4.044
 6681TIP3    H219997   2.081   3.469   3.921
 6682TIP3   OH219998   1.712   3.441   4.831
 6682TIP3    H119999   1.776   3.484   4.890
 6682TIP3    H220000   1.756   3.444   4.745
 6683TIP3   OH220001   1.659   3.426   4.341
 6683TIP3    H120002   1.715   3.460   4.268
 6683TIP3    H220003   1.605   3.505   4.360
 6684TIP3   OH220004   2.834   4.151   4.934
 6684TIP3    H120005   2.869   4.079   4.877
 6684TIP3    H220006   2.804   4.098   5.011
 6685TIP3   OH220007   2.995   3.689   4.808
 6685TIP3    H120008   2.959   3.697   4.900
 6685TIP3    H220009   2.973   3.597   4.786
 6686TIP3   OH220010   2.038   3.694   4.071
 6686TIP3    H120011   1.975   3.644   4.017
 6686TIP3    H220012   2.101   3.727   4.005
 6687TIP3   OH220013   3.186   5.400   5.025
 6687TIP3    H120014   3.183   5.417   4.929
 6687TIP3    H220015   3.228   5.485   5.054
 6688TIP3   OH220016   2.121   4.485   5.451
 6688TIP3    H120017   2.200   4.515   5.501
 6688TIP3    H220018   2.055   4.483   5.522
 6689TIP3   OH220019   2.097   3.366   4.540
 6689TIP3    H120020   2.054   3.326   4.617
 6689TIP3    H220021   2.146   3.439   4.577
 6690TIP3   OH220022   2.556   3.825   5.034
 6690TIP3    H120023   2.467   3.860   5.016
 6690TIP3    H220024   2.609   3.904   5.050
 6691TIP3   OH220025   2.283   4.227   4.092
 6691TIP3    H120026   2.219   4.153   4.086
 6691TIP3    H220027   2.267   4.257   4.185
 6692TIP3   OH220028   3.191   4.469   4.714
 6692TIP3    H120029   3.216   4.513   4.630
 6692TIP3    H220030   3.107   4.424   4.690
 6693TIP3   OH220031   2.747   3.546   3.972
 6693TIP3    H120032   2.655   3.512   3.977
 6693TIP3    H220033   2.734   3.635   3.938
 6694TIP3   OH220034   2.701   4.553   5.084
 6694TIP3    H120035   2.724   4.523   5.173
 6694TIP3    H220036   2.654   4.636   5.101
 6695TIP3   OH220037   2.008   4.257   4.759
 6695TIP3    H120038   2.033   4.203   4.682
 6695TIP3    H220039   2.009   4.192   4.831
 6696TIP3   OH220040   2.440   4.373   3.923
 6696TIP3    H120041   2.393   4.459   3.925
 6696TIP3    H220042   2.382   4.318   3.981
 6697TIP3   OH220043   1.875   4.164   5.380
 6697TIP3    H120044   1.885   4.149   5.476
 6697TIP3    H220045   1.802   4.103   5.359
 6698TIP3   OH220046   2.598   4.288   5.400
 6698TIP3    H120047   2.532   4.224   5.366
 6698TIP3    H220048   2.682   4.246   5.371
 6699TIP3   OH220049   2.853   4.816   4.979
 6699TIP3    H120050   2.758   4.807   4.998
 6699TIP3    H220051   2.882   4.861   5.061
 6700TIP3   OH220052   3.483   4.735   4.979
 6700TIP3    H120053   3.385   4.729   4.973
 6700TIP3    H220054   3.507   4.706   4.888
 6701TIP3   OH220055   2.965   4.692   3.807
 6701TIP3    H120056   2.942   4.611   3.855
 6701TIP3    H220057   2.984   4.657   3.718
 6702TIP3   OH220058   2.964   4.324   4.639
 6702TIP3    H120059   2.868   4.310   4.652
 6702TIP3    H220060   2.995   4.232   4.641
 6703TIP3   OH220061   2.096   4.552   4.396
 6703TIP3    H120062   2.087   4.631   4.340
 6703TIP3    H220063   2.004   4.531   4.416
 6704TIP3   OH220064   1.649   3.850   4.099
 6704TIP3    H120065   1.699   3.931   4.122
 6704TIP3    H220066   1.577   3.854   4.166
 6705TIP3   OH220067   2.220   4.305   4.342
 6705TIP3    H120068   2.185   4.393   4.367
 6705TIP3    H220069   2.186   4.246   4.411
 6706TIP3   OH220070   2.363   4.896   4.861
 6706TIP3    H120071   2.408   4.970   4.815
 6706TIP3    H220072   2.436   4.858   4.912
 6707TIP3   OH220073   2.001   4.794   4.245
 6707TIP3    H120074   1.917   4.802   4.293
 6707TIP3    H220075   2.036   4.885   4.251
 6708TIP3   OH220076   2.748   4.533   4.819
 6708TIP3    H120077   2.730   4.540   4.915
 6708TIP3    H220078   2.816   4.465   4.818
 6709TIP3   OH220079   2.727   4.432   3.706
 6709TIP3    H120080   2.779   4.410   3.786
 6709TIP3    H220081   2.643   4.388   3.725
 6710TIP3   OH220082   2.989   5.077   4.884
 6710TIP3    H120083   2.934   4.998   4.879
 6710TIP3    H220084   2.968   5.124   4.801
 6711TIP3   OH220085   3.060   4.895   3.521
 6711TIP3    H120086   3.094   4.967   3.466
 6711TIP3    H220087   2.980   4.938   3.558
 6712TIP3   OH220088   2.074   3.676   5.382
 6712TIP3    H120089   1.977   3.677   5.394
 6712TIP3    H220090   2.102   3.621   5.457
 6713TIP3   OH220091   2.885   4.387   3.932
 6713TIP3    H120092   2.873   4.319   4.002
 6713TIP3    H220093   2.980   4.370   3.912
 6714TIP3   OH220094   1.804   4.752   5.011
 6714TIP3    H120095   1.860   4.692   5.063
 6714TIP3    H220096   1.786   4.821   5.076
 6715TIP3   OH220097   2.083   4.403   3.708
 6715TIP3    H120098   2.095   4.311   3.681
 6715TIP3    H220099   2.059   4.392   3.802
 6716TIP3   OH220100   2.027   4.410   3.980
 6716TIP3    H120101   2.105   4.375   4.026
 6716TIP3    H220102   2.037   4.507   3.992
 6717TIP3   OH220103   1.752   4.093   4.162
 6717TIP3    H120104   1.699   4.131   4.235
 6717TIP3    H220105   1.778   4.173   4.113
 6718TIP3   OH220106   2.925   3.736   5.072
 6718TIP3    H120107   3.003   3.771   5.117
 6718TIP3    H220108   2.906   3.656   5.126
 6719TIP3   OH220109   2.826   3.480   4.238
 6719TIP3    H120110   2.798   3.489   4.145
 6719TIP3    H220111   2.876   3.563   4.248
 6720TIP3   OH220112   2.302   4.606   3.928
 6720TIP3    H120113   2.214   4.630   3.963
 6720TIP3    H220114   2.309   4.669   3.856
 6721TIP3   OH220115   2.766   3.991   5.140
 6721TIP3    H120116   2.789   4.034   5.225
 6721TIP3    H220117   2.803   3.902   5.150
 6722TIP3   OH220118   2.049   4.684   3.997
 6722TIP3    H120119   2.019   4.754   3.935
 6722TIP3    H220120   2.031   4.725   4.084
 6723TIP3   OH220121   2.125   3.397   4.216
 6723TIP3    H120122   2.092   3.453   4.288
 6723TIP3    H220123   2.219   3.390   4.239
 6724TIP3   OH220124   3.394   3.885   5.123
 6724TIP3    H120125   3.297   3.890   5.136
 6724TIP3    H220126   3.396   3.824   5.047
 6725TIP3   OH220127   1.765   4.314   3.977
 6725TIP3    H120128   1.849   4.363   3.986
 6725TIP3    H220129   1.796   4.245   3.914
 6726TIP3   OH220130   1.701   3.579   4.110
 6726TIP3    H120131   1.715   3.675   4.115
 6726TIP3    H220132   1.608   3.573   4.086
 6727TIP3   OH220133   3.025   5.001   4.443
 6727TIP3    H120134   2.981   5.065   4.383
 6727TIP3    H220135   3.116   5.038   4.441
 6728TIP3   OH220136   2.087   3.308   4.997
 6728TIP3    H120137   2.059   3.273   4.909
 6728TIP3    H220138   2.078   3.229   5.053
 6729TIP3   OH220139   1.595   4.526   4.354
 6729TIP3    H120140   1.579   4.553   4.445
 6729TIP3    H220141   1.670   4.582   4.330
 6730TIP3   OH220142   1.796   5.078   5.437
 6730TIP3    H120143   1.879   5.080   5.489
 6730TIP3    H220144   1.772   4.984   5.442
 6731TIP3   OH220145   2.267   5.025   5.488
 6731TIP3    H120146   2.361   5.003   5.492
 6731TIP3    H220147   2.237   4.962   5.419
 6732TIP3   OH220148   2.250   4.603   3.618
 6732TIP3    H120149   2.195   4.529   3.653
 6732TIP3    H220150   2.324   4.554   3.579
 6733TIP3   OH220151   2.913   4.932   5.217
 6733TIP3    H120152   2.904   4.866   5.290
 6733TIP3    H220153   2.984   4.989   5.250
 6734TIP3   OH220154   2.683   4.642   3.532
 6734TIP3    H120155   2.717   4.573   3.593
 6734TIP3    H220156   2.741   4.633   3.454
 6735TIP3   OH220157   1.919   4.475   5.642
 6735TIP3    H120158   1.933   4.379   5.652
 6735TIP3    H220159   1.831   4.478   5.598
 6736TIP3   OH220160   1.891   4.120   3.840
 6736TIP3    H120161   1.940   4.081   3.915
 6736TIP3    H220162   1.962   4.124   3.772
 6737TIP3   OH220163   2.526   4.564   5.417
 6737TIP3    H120164   2.481   4.584   5.333
 6737TIP3    H220165   2.555   4.471   5.405
 6738TIP3   OH220166   2.419   4.323   3.651
 6738TIP3    H120167   2.417   4.331   3.749
 6738TIP3    H220168   2.418   4.226   3.641
 6739TIP3   OH220169   3.016   4.572   5.027
 6739TIP3    H120170   3.088   4.623   4.988
 6739TIP3    H220171   2.940   4.632   5.014
 6740TIP3   OH220172   2.041   4.215   5.631
 6740TIP3    H120173   2.115   4.160   5.604
 6740TIP3    H220174   2.070   4.247   5.719
 6741TIP3   OH220175   2.104   4.018   4.068
 6741TIP3    H120176   2.058   3.965   4.135
 6741TIP3    H220177   2.143   3.948   4.012
 6742TIP3   OH220178   2.375   4.098   5.296
 6742TIP3    H120179   2.294   4.152   5.292
 6742TIP3    H220180   2.425   4.131   5.217
 6743TIP3   OH220181   2.205   3.828   3.894
 6743TIP3    H120182   2.178   3.836   3.801
 6743TIP3    H220183   2.303   3.825   3.884
 6744TIP3   OH220184   2.893   4.496   5.420
 6744TIP3    H120185   2.969   4.456   5.376
 6744TIP3    H220186   2.879   4.434   5.494
 6745TIP3   OH220187   3.009   4.153   3.569
 6745TIP3    H120188   2.996   4.104   3.485
 6745TIP3    H220189   2.974   4.241   3.542
 6746TIP3   OH220190   2.500   3.884   5.411
 6746TIP3    H120191   2.496   3.803   5.355
 6746TIP3    H220192   2.453   3.950   5.354
 6747TIP3   OH220193   2.494   3.660   5.240
 6747TIP3    H120194   2.526   3.709   5.160
 6747TIP3    H220195   2.402   3.640   5.213
 6748TIP3   OH220196   2.519   4.203   5.098
 6748TIP3    H120197   2.606   4.215   5.059
 6748TIP3    H220198   2.463   4.268   5.049
 6749TIP3   OH220199   3.102   4.166   5.471
 6749TIP3    H120200   3.145   4.081   5.488
 6749TIP3    H220201   3.175   4.219   5.435
 6750TIP3   OH220202   3.148   4.423   5.210
 6750TIP3    H120203   3.089   4.478   5.153
 6750TIP3    H220204   3.235   4.444   5.172
 6751TIP3   OH220205   2.379   3.983   5.649
 6751TIP3    H120206   2.311   3.914   5.666
 6751TIP3    H220207   2.409   3.959   5.559
 6752TIP3   OH220208   2.632   3.426   5.296
 6752TIP3    H120209   2.581   3.507   5.275
 6752TIP3    H220210   2.565   3.356   5.283
 6753TIP3   OH220211   2.755   3.929   5.506
 6753TIP3    H120212   2.736   3.912   5.601
 6753TIP3    H220213   2.667   3.907   5.468
 6754TIP3   OH220214   2.995   3.885   5.365
 6754TIP3    H120215   2.920   3.883   5.427
 6754TIP3    H220216   3.069   3.853   5.420
 6755TIP3   OH220217   3.229   3.829   5.510
 6755TIP3    H120218   3.241   3.732   5.523
 6755TIP3    H220219   3.222   3.862   5.602
 6756TIP3   OH220220   2.214   3.765   5.704
 6756TIP3    H120221   2.215   3.673   5.672
 6756TIP3    H220222   2.253   3.754   5.794
 6757TIP3   OH220223   2.723   3.440   5.554
 6757TIP3    H120224   2.788   3.367   5.546
 6757TIP3    H220225   2.683   3.437   5.465
 6758TIP3   OH220226   2.793   3.655   5.708
 6758TIP3    H120227   2.771   3.583   5.645
 6758TIP3    H220228   2.713   3.712   5.702
 6759TIP3   OH220229   2.018   4.891   3.812
 6759TIP3    H120230   2.112   4.876   3.788
 6759TIP3    H220231   1.989   4.939   3.733
 6760TIP3   OH220232   1.494   4.269   4.016
 6760TIP3    H120233   1.590   4.291   4.003
 6760TIP3    H220234   1.491   4.179   3.977
 6761TIP3   OH220235   1.571   4.713   4.601
 6761TIP3    H120236   1.545   4.647   4.668
 6761TIP3    H220237   1.601   4.784   4.660
 6762TIP3   OH220238   3.268   5.126   4.430
 6762TIP3    H120239   3.293   5.160   4.518
 6762TIP3    H220240   3.331   5.173   4.373
 6763TIP3   OH220241   3.302   5.153   4.708
 6763TIP3    H120242   3.262   5.074   4.747
 6763TIP3    H220243   3.384   5.159   4.760
 6764TIP3   OH220244   3.347   4.827   5.279
 6764TIP3    H120245   3.276   4.835   5.346
 6764TIP3    H220246   3.390   4.914   5.286
 6765TIP3   OH220247   3.154   4.348   3.912
 6765TIP3    H120248   3.226   4.405   3.879
 6765TIP3    H220249   3.195   4.310   3.993
 6766TIP3   OH220250   3.275   4.223   4.127
 6766TIP3    H120251   3.287   4.127   4.137
 6766TIP3    H220252   3.356   4.256   4.170
 6767TIP3   OH220253   3.324   4.602   4.513
 6767TIP3    H120254   3.388   4.533   4.486
 6767TIP3    H220255   3.351   4.677   4.456
 6768TIP3   OH220256   3.232   4.160   3.722
 6768TIP3    H120257   3.152   4.151   3.666
 6768TIP3    H220258   3.196   4.215   3.794
 6769TIP3   OH220259   1.726   4.135   4.995
 6769TIP3    H120260   1.724   4.098   4.903
 6769TIP3    H220261   1.823   4.134   5.012
 6770TIP3   OH220262   3.396   4.489   5.105
 6770TIP3    H120263   3.463   4.417   5.096
 6770TIP3    H220264   3.430   4.557   5.045
 6771TIP3   OH220265   3.574   4.285   5.109
 6771TIP3    H120266   3.499   4.235   5.149
 6771TIP3    H220267   3.648   4.223   5.131
 6772TIP3   OH220268   3.048   3.493   3.676
 6772TIP3    H120269   3.102   3.477   3.754
 6772TIP3    H220270   2.961   3.460   3.702
 6773TIP3   OH220271   3.250   3.943   4.646
 6773TIP3    H120272   3.330   3.970   4.598
 6773TIP3    H220273   3.267   3.984   4.732
 6774TIP3   OH220274   3.334   4.098   4.868
 6774TIP3    H120275   3.258   4.131   4.919
 6774TIP3    H220276   3.367   4.180   4.825
 6775TIP3   OH220277   1.948   3.820   5.672
 6775TIP3    H120278   2.046   3.815   5.678
 6775TIP3    H220279   1.924   3.732   5.707
 6776TIP3   OH220280   3.782   3.695   5.420
 6776TIP3    H120281   3.843   3.630   5.380
 6776TIP3    H220282   3.750   3.744   5.341
 6777TIP3   OH220283   1.909   3.521   5.011
 6777TIP3    H120284   1.967   3.442   5.015
 6777TIP3    H220285   1.973   3.589   4.985
 6778TIP3   OH220286   1.706   3.785   5.070
 6778TIP3    H120287   1.756   3.778   4.986
 6778TIP3    H220288   1.741   3.866   5.107
 6779TIP3   OH220289   3.649   3.824   5.220
 6779TIP3    H120290   3.564   3.868   5.240
 6779TIP3    H220291   3.615   3.748   5.167
 6780TIP3   OH220292   1.690   3.271   4.562
 6780TIP3    H120293   1.601   3.281   4.600
 6780TIP3    H220294   1.689   3.339   4.491
 6781TIP3   OH220295   2.852   4.991   4.081
 6781TIP3    H120296   2.903   4.983   3.998
 6781TIP3    H220297   2.901   5.061   4.128
 6782TIP3   OH220298   1.916   3.370   5.388
 6782TIP3    H120299   1.863   3.366   5.469
 6782TIP3    H220300   1.851   3.409   5.325
 6783TIP3   OH220301   1.956   4.797   5.463
 6783TIP3    H120302   1.861   4.782   5.449
 6783TIP3    H220303   1.964   4.783   5.558
 6784TIP3   OH220304   2.138   4.835   5.011
 6784TIP3    H120305   2.084   4.909   4.976
 6784TIP3    H220306   2.222   4.854   4.964
 6785TIP3   OH220307   2.574   5.076   5.145
 6785TIP3    H120308   2.614   5.073   5.235
 6785TIP3    H220309   2.642   5.128   5.097
 6786TIP3   OH220310   2.761   5.229   5.012
 6786TIP3    H120311   2.837   5.178   4.978
 6786TIP3    H220312   2.808   5.292   5.070
 6787TIP3   OH220313   3.551   3.585   5.109
 6787TIP3    H120314   3.461   3.570   5.073
 6787TIP3    H220315   3.588   3.494   5.101
 6788TIP3   OH220316   1.801   5.099   5.032
 6788TIP3    H120317   1.705   5.121   5.024
 6788TIP3    H220318   1.818   5.133   5.121
 6789TIP3   OH220319   2.041   5.070   4.899
 6789TIP3    H120320   1.954   5.082   4.943
 6789TIP3    H220321   2.022   5.101   4.809
 6790TIP3   OH220322   2.471   5.095   4.690
 6790TIP3    H120323   2.393   5.114   4.635
 6790TIP3    H220324   2.482   5.180   4.738
 6791TIP3   OH220325   2.739   5.019   4.715
 6791TIP3    H120326   2.646   5.047   4.711
 6791TIP3    H220327   2.786   5.102   4.699
 6792TIP3   OH220328   2.933   5.219   4.650
 6792TIP3    H120329   2.919   5.309   4.612
 6792TIP3    H220330   2.970   5.172   4.573
 6793TIP3   OH220331   1.725   4.881   4.769
 6793TIP3    H120332   1.741   4.853   4.862
 6793TIP3    H220333   1.800   4.835   4.726
 6794TIP3   OH220334   1.926   4.756   4.634
 6794TIP3    H120335   1.934   4.672   4.686
 6794TIP3    H220336   2.018   4.790   4.640
 6795TIP3   OH220337   2.190   4.847   4.647
 6795TIP3    H120338   2.215   4.751   4.642
 6795TIP3    H220339   2.238   4.870   4.729
 6796TIP3   OH220340   3.290   3.383   4.647
 6796TIP3    H120341   3.337   3.440   4.582
 6796TIP3    H220342   3.197   3.410   4.634
 6797TIP3   OH220343   3.417   3.481   4.426
 6797TIP3    H120344   3.403   3.434   4.343
 6797TIP3    H220345   3.356   3.557   4.419
 6798TIP3   OH220346   2.005   3.206   4.759
 6798TIP3    H120347   1.911   3.176   4.756
 6798TIP3    H220348   2.050   3.120   4.746
 6799TIP3   OH220349   1.790   3.080   4.390
 6799TIP3    H120350   1.823   3.140   4.321
 6799TIP3    H220351   1.763   3.144   4.460
 6800TIP3   OH220352   2.465   3.220   4.650
 6800TIP3    H120353   2.559   3.236   4.639
 6800TIP3    H220354   2.450   3.262   4.736
 6801TIP3   OH220355   3.017   3.413   4.626
 6801TIP3    H120356   2.996   3.382   4.538
 6801TIP3    H220357   2.986   3.336   4.680
 6802TIP3   OH220358   3.013   3.301   4.147
 6802TIP3    H120359   2.953   3.364   4.191
 6802TIP3    H220360   3.009   3.224   4.205
 6803TIP3   OH220361   1.906   3.235   4.150
 6803TIP3    H120362   1.956   3.175   4.093
 6803TIP3    H220363   1.978   3.292   4.185
 6804TIP3   OH220364   2.412   3.418   4.264
 6804TIP3    H120365   2.426   3.324   4.285
 6804TIP3    H220366   2.394   3.457   4.350
 6805TIP3   OH220367   2.281   4.838   3.752
 6805TIP3    H120368   2.369   4.859   3.715
 6805TIP3    H220369   2.258   4.763   3.692
 6806TIP3   OH220370   2.999   4.960   3.851
 6806TIP3    H120371   2.993   4.862   3.840
 6806TIP3    H220372   2.956   4.990   3.769
 6807TIP3   OH220373   2.211   3.493   5.637
 6807TIP3    H120374   2.174   3.421   5.692
 6807TIP3    H220375   2.305   3.491   5.665
 6808TIP3   OH220376   2.463   3.491   5.754
 6808TIP3    H120377   2.547   3.464   5.714
 6808TIP3    H220378   2.449   3.420   5.821
 6809TIP3   OH220379   1.591   4.675   3.806
 6809TIP3    H120380   1.615   4.692   3.898
 6809TIP3    H220381   1.671   4.627   3.775
 6810TIP3   OH220382   3.291   3.557   5.540
 6810TIP3    H120383   3.306   3.526   5.632
 6810TIP3    H220384   3.380   3.550   5.502
 6811TIP3   OH220385   3.225   5.119   5.028
 6811TIP3    H120386   3.139   5.098   4.987
 6811TIP3    H220387   3.217   5.216   5.038
 6812TIP3   OH220388   4.432   4.482   4.209
 6812TIP3    H120389   4.510   4.473   4.265
 6812TIP3    H220390   4.421   4.390   4.177
 6813TIP3   OH220391   3.781   4.371   4.550
 6813TIP3    H120392   3.806   4.301   4.613
 6813TIP3    H220393   3.867   4.413   4.536
 6814TIP3   OH220394   3.761   4.779   4.263
 6814TIP3    H120395   3.755   4.682   4.263
 6814TIP3    H220396   3.858   4.790   4.263
 6815TIP3   OH220397   3.520   4.290   4.233
 6815TIP3    H120398   3.576   4.221   4.274
 6815TIP3    H220399   3.575   4.320   4.159
 6816TIP3   OH220400   4.383   5.236   3.875
 6816TIP3    H120401   4.417   5.166   3.814
 6816TIP3    H220402   4.388   5.192   3.960
 6817TIP3   OH220403   4.281   4.712   4.231
 6817TIP3    H120404   4.324   4.625   4.211
 6817TIP3    H220405   4.363   4.763   4.249
 6818TIP3   OH220406   5.320   4.022   4.231
 6818TIP3    H120407   5.345   4.107   4.272
 6818TIP3    H220408   5.288   4.053   4.144
 6819TIP3   OH220409   4.731   4.214   4.286
 6819TIP3    H120410   4.776   4.131   4.308
 6819TIP3    H220411   4.769   4.233   4.199
 6820TIP3   OH220412   4.045   3.852   4.229
 6820TIP3    H120413   4.094   3.901   4.161
 6820TIP3    H220414   4.023   3.770   4.180
 6821TIP3   OH220415   3.674   4.103   4.358
 6821TIP3    H120416   3.759   4.076   4.398
 6821TIP3    H220417   3.642   4.019   4.322
 6822TIP3   OH220418   4.135   4.258   4.164
 6822TIP3    H120419   4.228   4.240   4.187
 6822TIP3    H220420   4.138   4.246   4.069
 6823TIP3   OH220421   5.384   4.236   4.398
 6823TIP3    H120422   5.299   4.280   4.374
 6823TIP3    H220423   5.393   4.264   4.490
 6824TIP3   OH220424   4.038   3.852   4.659
 6824TIP3    H120425   3.977   3.888   4.592
 6824TIP3    H220426   3.984   3.865   4.740
 6825TIP3   OH220427   4.347   4.711   3.626
 6825TIP3    H120428   4.354   4.616   3.628
 6825TIP3    H220429   4.379   4.737   3.713
 6826TIP3   OH220430   4.144   4.625   4.447
 6826TIP3    H120431   4.089   4.698   4.483
 6826TIP3    H220432   4.190   4.670   4.373
 6827TIP3   OH220433   3.910   3.970   4.437
 6827TIP3    H120434   3.976   4.037   4.463
 6827TIP3    H220435   3.959   3.925   4.363
 6828TIP3   OH220436   3.976   4.825   4.549
 6828TIP3    H120437   3.950   4.915   4.519
 6828TIP3    H220438   3.897   4.803   4.603
 6829TIP3   OH220439   3.352   4.512   3.798
 6829TIP3    H120440   3.331   4.520   3.703
 6829TIP3    H220441   3.397   4.596   3.816
 6830TIP3   OH220442   4.813   5.046   4.052
 6830TIP3    H120443   4.723   5.012   4.071
 6830TIP3    H220444   4.793   5.123   3.996
 6831TIP3   OH220445   5.106   3.920   4.395
 6831TIP3    H120446   5.014   3.944   4.368
 6831TIP3    H220447   5.157   3.957   4.321
 6832TIP3   OH220448   4.383   3.546   4.397
 6832TIP3    H120449   4.360   3.453   4.414
 6832TIP3    H220450   4.306   3.593   4.435
 6833TIP3   OH220451   4.489   5.069   3.685
 6833TIP3    H120452   4.542   4.986   3.678
 6833TIP3    H220453   4.545   5.131   3.635
 6834TIP3   OH220454   4.648   4.845   3.642
 6834TIP3    H120455   4.612   4.782   3.578
 6834TIP3    H220456   4.708   4.789   3.694
 6835TIP3   OH220457   5.030   4.932   4.370
 6835TIP3    H120458   5.012   4.857   4.309
 6835TIP3    H220459   5.013   5.009   4.313
 6836TIP3   OH220460   4.312   4.412   3.590
 6836TIP3    H120461   4.245   4.349   3.562
 6836TIP3    H220462   4.392   4.360   3.574
 6837TIP3   OH220463   4.282   4.117   3.343
 6837TIP3    H120464   4.349   4.174   3.387
 6837TIP3    H220465   4.341   4.055   3.297
 6838TIP3   OH220466   5.226   4.583   4.222
 6838TIP3    H120467   5.138   4.628   4.221
 6838TIP3    H220468   5.255   4.602   4.130
 6839TIP3   OH220469   4.903   4.449   4.526
 6839TIP3    H120470   4.900   4.532   4.576
 6839TIP3    H220471   4.815   4.451   4.482
 6840TIP3   OH220472   4.034   4.822   4.157
 6840TIP3    H120473   4.017   4.779   4.072
 6840TIP3    H220474   4.122   4.785   4.181
 6841TIP3   OH220475   4.023   4.385   4.379
 6841TIP3    H120476   4.064   4.346   4.299
 6841TIP3    H220477   4.076   4.467   4.393
 6842TIP3   OH220478   4.554   5.019   4.143
 6842TIP3    H120479   4.553   5.097   4.202
 6842TIP3    H220480   4.542   4.945   4.206
 6843TIP3   OH220481   4.178   4.937   4.699
 6843TIP3    H120482   4.115   4.997   4.744
 6843TIP3    H220483   4.115   4.883   4.646
 6844TIP3   OH220484   4.493   4.261   3.437
 6844TIP3    H120485   4.566   4.213   3.479
 6844TIP3    H220486   4.530   4.285   3.349
 6845TIP3   OH220487   3.936   4.491   4.807
 6845TIP3    H120488   3.939   4.581   4.846
 6845TIP3    H220489   3.841   4.470   4.820
 6846TIP3   OH220490   3.971   5.099   4.787
 6846TIP3    H120491   3.933   5.109   4.698
 6846TIP3    H220492   3.892   5.074   4.840
 6847TIP3   OH220493   5.046   3.522   3.483
 6847TIP3    H120494   4.962   3.535   3.533
 6847TIP3    H220495   5.044   3.600   3.424
 6848TIP3   OH220496   4.831   4.876   3.034
 6848TIP3    H120497   4.840   4.971   3.012
 6848TIP3    H220498   4.922   4.844   3.018
 6849TIP3   OH220499   3.548   4.633   4.735
 6849TIP3    H120500   3.496   4.600   4.660
 6849TIP3    H220501   3.593   4.551   4.767
 6850TIP3   OH220502   3.410   4.833   4.370
 6850TIP3    H120503   3.504   4.819   4.353
 6850TIP3    H220504   3.413   4.914   4.424
 6851TIP3   OH220505   5.265   5.286   4.419
 6851TIP3    H120506   5.266   5.190   4.435
 6851TIP3    H220507   5.182   5.310   4.468
 6852TIP3   OH220508   4.371   5.066   4.555
 6852TIP3    H120509   4.367   5.158   4.588
 6852TIP3    H220510   4.301   5.024   4.609
 6853TIP3   OH220511   3.579   5.039   3.892
 6853TIP3    H120512   3.620   5.031   3.981
 6853TIP3    H220513   3.532   4.953   3.884
 6854TIP3   OH220514   4.356   5.089   3.152
 6854TIP3    H120515   4.390   5.010   3.103
 6854TIP3    H220516   4.436   5.116   3.198
 6855TIP3   OH220517   5.156   4.409   4.695
 6855TIP3    H120518   5.073   4.417   4.646
 6855TIP3    H220519   5.173   4.313   4.687
 6856TIP3   OH220520   3.752   4.818   4.709
 6856TIP3    H120521   3.801   4.809   4.793
 6856TIP3    H220522   3.679   4.755   4.722
 6857TIP3   OH220523   4.145   3.638   4.510
 6857TIP3    H120524   4.055   3.613   4.481
 6857TIP3    H220525   4.123   3.721   4.557
 6858TIP3   OH220526   4.689   3.755   4.701
 6858TIP3    H120527   4.759   3.726   4.764
 6858TIP3    H220528   4.607   3.734   4.749
 6859TIP3   OH220529   4.921   4.185   4.621
 6859TIP3    H120530   4.871   4.187   4.705
 6859TIP3    H220531   4.900   4.272   4.582
 6860TIP3   OH220532   4.585   4.307   3.182
 6860TIP3    H120533   4.548   4.288   3.093
 6860TIP3    H220534   4.672   4.344   3.157
 6861TIP3   OH220535   4.304   3.687   3.496
 6861TIP3    H120536   4.260   3.668   3.581
 6861TIP3    H220537   4.265   3.619   3.439
 6862TIP3   OH220538   4.086   4.163   4.525
 6862TIP3    H120539   4.036   4.180   4.607
 6862TIP3    H220540   4.066   4.245   4.474
 6863TIP3   OH220541   4.635   4.403   4.850
 6863TIP3    H120542   4.612   4.330   4.912
 6863TIP3    H220543   4.729   4.415   4.873
 6864TIP3   OH220544   3.901   4.186   4.730
 6864TIP3    H120545   3.939   4.245   4.797
 6864TIP3    H220546   3.889   4.103   4.781
 6865TIP3   OH220547   3.962   3.668   3.457
 6865TIP3    H120548   3.920   3.645   3.542
 6865TIP3    H220549   3.888   3.717   3.416
 6866TIP3   OH220550   4.625   4.413   4.433
 6866TIP3    H120551   4.658   4.341   4.375
 6866TIP3    H220552   4.591   4.360   4.508
 6867TIP3   OH220553   4.832   3.952   4.343
 6867TIP3    H120554   4.774   3.961   4.421
 6867TIP3    H220555   4.802   3.869   4.304
 6868TIP3   OH220556   3.827   4.005   3.569
 6868TIP3    H120557   3.762   3.935   3.553
 6868TIP3    H220558   3.883   3.996   3.489
 6869TIP3   OH220559   4.964   5.631   4.523
 6869TIP3    H120560   4.962   5.656   4.430
 6869TIP3    H220561   5.046   5.676   4.553
 6870TIP3   OH220562   3.916   4.743   4.937
 6870TIP3    H120563   3.996   4.771   4.986
 6870TIP3    H220564   3.851   4.743   5.010
 6871TIP3   OH220565   4.395   4.195   4.203
 6871TIP3    H120566   4.428   4.131   4.138
 6871TIP3    H220567   4.403   4.147   4.287
 6872TIP3   OH220568   3.973   3.633   4.070
 6872TIP3    H120569   3.919   3.574   4.126
 6872TIP3    H220570   3.926   3.628   3.985
 6873TIP3   OH220571   4.355   4.099   4.481
 6873TIP3    H120572   4.264   4.133   4.497
 6873TIP3    H220573   4.410   4.161   4.533
 6874TIP3   OH220574   4.027   4.509   3.588
 6874TIP3    H120575   3.979   4.425   3.576
 6874TIP3    H220576   4.084   4.489   3.664
 6875TIP3   OH220577   4.988   4.722   4.192
 6875TIP3    H120578   5.024   4.778   4.120
 6875TIP3    H220579   4.921   4.671   4.142
 6876TIP3   OH220580   4.552   3.799   3.445
 6876TIP3    H120581   4.460   3.774   3.468
 6876TIP3    H220582   4.562   3.886   3.486
 6877TIP3   OH220583   4.489   4.803   4.579
 6877TIP3    H120584   4.525   4.786   4.666
 6877TIP3    H220585   4.451   4.892   4.588
 6878TIP3   OH220586   3.791   4.502   4.252
 6878TIP3    H120587   3.857   4.477   4.187
 6878TIP3    H220588   3.824   4.454   4.330
 6879TIP3   OH220589   4.196   4.629   3.388
 6879TIP3    H120590   4.242   4.686   3.452
 6879TIP3    H220591   4.167   4.558   3.448
 6880TIP3   OH220592   3.670   4.427   4.872
 6880TIP3    H120593   3.688   4.412   4.967
 6880TIP3    H220594   3.601   4.359   4.856
 6881TIP3   OH220595   4.397   4.544   4.887
 6881TIP3    H120596   4.334   4.484   4.844
 6881TIP3    H220597   4.482   4.505   4.859
 6882TIP3   OH220598   4.648   5.069   4.473
 6882TIP3    H120599   4.552   5.062   4.487
 6882TIP3    H220600   4.675   5.118   4.554
 6883TIP3   OH220601   5.280   5.000   4.458
 6883TIP3    H120602   5.182   4.988   4.451
 6883TIP3    H220603   5.307   4.966   4.370
 6884TIP3   OH220604   4.746   4.952   3.290
 6884TIP3    H120605   4.738   4.876   3.348
 6884TIP3    H220606   4.771   4.912   3.204
 6885TIP3   OH220607   3.863   4.803   3.871
 6885TIP3    H120608   3.860   4.885   3.820
 6885TIP3    H220609   3.774   4.795   3.905
 6886TIP3   OH220610   3.459   4.115   3.591
 6886TIP3    H120611   3.488   4.206   3.604
 6886TIP3    H220612   3.376   4.117   3.645
 6887TIP3   OH220613   4.159   5.151   4.347
 6887TIP3    H120614   4.203   5.224   4.298
 6887TIP3    H220615   4.234   5.111   4.393
 6888TIP3   OH220616   3.804   5.052   3.730
 6888TIP3    H120617   3.720   5.058   3.780
 6888TIP3    H220618   3.835   5.145   3.738
 6889TIP3   OH220619   4.531   4.794   4.309
 6889TIP3    H120620   4.521   4.791   4.407
 6889TIP3    H220621   4.599   4.727   4.296
 6890TIP3   OH220622   4.521   4.687   3.190
 6890TIP3    H120623   4.576   4.665   3.268
 6890TIP3    H220624   4.440   4.639   3.209
 6891TIP3   OH220625   4.789   5.318   4.362
 6891TIP3    H120626   4.712   5.258   4.359
 6891TIP3    H220627   4.770   5.379   4.288
 6892TIP3   OH220628   4.856   5.151   3.009
 6892TIP3    H120629   4.893   5.220   2.952
 6892TIP3    H220630   4.776   5.197   3.042
 6893TIP3   OH220631   3.870   3.932   4.870
 6893TIP3    H120632   3.773   3.937   4.880
 6893TIP3    H220633   3.895   3.877   4.945
 6894TIP3   OH220634   4.683   4.629   3.406
 6894TIP3    H120635   4.665   4.565   3.475
 6894TIP3    H220636   4.780   4.617   3.394
 6895TIP3   OH220637   3.591   5.015   4.510
 6895TIP3    H120638   3.652   4.952   4.554
 6895TIP3    H220639   3.610   5.097   4.557
 6896TIP3   OH220640   3.879   4.659   3.193
 6896TIP3    H120641   3.892   4.566   3.166
 6896TIP3    H220642   3.856   4.648   3.288
 6897TIP3   OH220643   3.830   4.672   3.468
 6897TIP3    H120644   3.903   4.623   3.511
 6897TIP3    H220645   3.856   4.764   3.483
 6898TIP3   OH220646   4.705   4.004   4.582
 6898TIP3    H120647   4.791   4.038   4.612
 6898TIP3    H220648   4.697   3.920   4.632
 6899TIP3   OH220649   4.550   4.240   4.630
 6899TIP3    H120650   4.583   4.283   4.712
 6899TIP3    H220651   4.601   4.157   4.628
 6900TIP3   OH220652   3.881   4.948   3.491
 6900TIP3    H120653   3.834   5.002   3.423
 6900TIP3    H220654   3.836   4.978   3.574
 6901TIP3   OH220655   3.931   3.661   3.746
 6901TIP3    H120656   3.900   3.749   3.775
 6901TIP3    H220657   4.027   3.672   3.735
 6902TIP3   OH220658   5.187   4.142   4.614
 6902TIP3    H120659   5.089   4.142   4.623
 6902TIP3    H220660   5.195   4.096   4.530
 6903TIP3   OH220661   3.552   4.574   3.454
 6903TIP3    H120662   3.632   4.628   3.469
 6903TIP3    H220663   3.592   4.501   3.402
 6904TIP3   OH220664   3.508   3.847   3.542
 6904TIP3    H120665   3.498   3.937   3.577
 6904TIP3    H220666   3.483   3.792   3.617
 6905TIP3   OH220667   4.811   5.308   3.950
 6905TIP3    H120668   4.769   5.352   3.873
 6905TIP3    H220669   4.906   5.321   3.928
 6906TIP3   OH220670   3.879   3.568   4.474
 6906TIP3    H120671   3.850   3.530   4.389
 6906TIP3    H220672   3.872   3.490   4.534
 6907TIP3   OH220673   3.430   4.793   3.853
 6907TIP3    H120674   3.365   4.808   3.923
 6907TIP3    H220675   3.385   4.833   3.774
 6908TIP3   OH220676   3.607   5.324   4.894
 6908TIP3    H120677   3.682   5.337   4.955
 6908TIP3    H220678   3.569   5.241   4.927
 6909TIP3   OH220679   4.061   5.279   4.977
 6909TIP3    H120680   4.156   5.260   4.980
 6909TIP3    H220681   4.033   5.217   4.907
 6910TIP3   OH220682   4.049   4.858   3.108
 6910TIP3    H120683   3.994   4.783   3.139
 6910TIP3    H220684   4.122   4.810   3.063
 6911TIP3   OH220685   4.699   5.197   4.712
 6911TIP3    H120686   4.695   5.125   4.781
 6911TIP3    H220687   4.778   5.247   4.741
 6912TIP3   OH220688   4.478   4.893   3.010
 6912TIP3    H120689   4.517   4.828   3.072
 6912TIP3    H220690   4.537   4.888   2.933
 6913TIP3   OH220691   3.716   4.733   5.133
 6913TIP3    H120692   3.733   4.637   5.141
 6913TIP3    H220693   3.628   4.733   5.087
 6914TIP3   OH220694   3.691   4.378   3.329
 6914TIP3    H120695   3.750   4.344   3.398
 6914TIP3    H220696   3.754   4.384   3.254
 6915TIP3   OH220697   4.320   4.820   4.906
 6915TIP3    H120698   4.279   4.842   4.820
 6915TIP3    H220699   4.351   4.728   4.893
 6916TIP3   OH220700   4.212   4.572   3.118
 6916TIP3    H120701   4.195   4.587   3.214
 6916TIP3    H220702   4.215   4.473   3.117
 6917TIP3   OH220703   4.814   4.835   4.516
 6917TIP3    H120704   4.891   4.873   4.469
 6917TIP3    H220705   4.745   4.900   4.494
 6918TIP3   OH220706   3.835   4.472   5.116
 6918TIP3    H120707   3.911   4.421   5.085
 6918TIP3    H220708   3.865   4.501   5.204
 6919TIP3   OH220709   3.898   4.269   3.535
 6919TIP3    H120710   3.840   4.198   3.569
 6919TIP3    H220711   3.952   4.213   3.474
 6920TIP3   OH220712   4.167   4.346   4.775
 6920TIP3    H120713   4.090   4.408   4.775
 6920TIP3    H220714   4.220   4.383   4.700
 6921TIP3   OH220715   4.014   4.082   3.376
 6921TIP3    H120716   3.987   4.089   3.282
 6921TIP3    H220717   4.112   4.080   3.366
 6922TIP3   OH220718   4.689   4.751   4.906
 6922TIP3    H120719   4.762   4.712   4.856
 6922TIP3    H220720   4.680   4.688   4.980
 6923TIP3   OH220721   4.805   4.408   3.056
 6923TIP3    H120722   4.794   4.363   2.969
 6923TIP3    H220723   4.773   4.498   3.030
 6924TIP3   OH220724   4.294   4.141   4.898
 6924TIP3    H120725   4.295   4.062   4.839
 6924TIP3    H220726   4.249   4.208   4.842
 6925TIP3   OH220727   4.297   3.927   4.709
 6925TIP3    H120728   4.326   3.967   4.625
 6925TIP3    H220729   4.204   3.904   4.689
 6926TIP3   OH220730   4.314   4.459   4.583
 6926TIP3    H120731   4.401   4.468   4.542
 6926TIP3    H220732   4.260   4.524   4.534
 6927TIP3   OH220733   4.899   4.424   4.957
 6927TIP3    H120734   4.944   4.339   4.970
 6927TIP3    H220735   4.969   4.478   4.918
 6928TIP3   OH220736   4.941   4.683   4.700
 6928TIP3    H120737   4.884   4.739   4.641
 6928TIP3    H220738   5.029   4.703   4.662
 6929TIP3   OH220739   4.174   4.240   5.136
 6929TIP3    H120740   4.107   4.171   5.153
 6929TIP3    H220741   4.205   4.216   5.047
 6930TIP3   OH220742   4.427   3.686   4.782
 6930TIP3    H120743   4.377   3.767   4.757
 6930TIP3    H220744   4.359   3.617   4.770
 6931TIP3   OH220745   4.552   4.186   4.994
 6931TIP3    H120746   4.533   4.169   5.088
 6931TIP3    H220747   4.464   4.165   4.957
 6932TIP3   OH220748   4.793   4.146   4.854
 6932TIP3    H120749   4.717   4.143   4.916
 6932TIP3    H220750   4.867   4.114   4.909
 6933TIP3   OH220751   5.023   4.084   4.998
 6933TIP3    H120752   5.036   3.988   5.012
 6933TIP3    H220753   5.018   4.118   5.090
 6934TIP3   OH220754   4.011   4.022   5.191
 6934TIP3    H120755   4.011   3.929   5.159
 6934TIP3    H220756   4.050   4.010   5.280
 6935TIP3   OH220757   4.520   3.695   5.040
 6935TIP3    H120758   4.584   3.622   5.031
 6935TIP3    H220759   4.479   3.694   4.951
 6936TIP3   OH220760   4.588   3.911   5.196
 6936TIP3    H120761   4.567   3.839   5.133
 6936TIP3    H220762   4.508   3.968   5.189
 6937TIP3   OH220763   3.823   5.137   3.297
 6937TIP3    H120764   3.914   5.141   3.265
 6937TIP3    H220765   3.779   5.184   3.224
 6938TIP3   OH220766   3.291   4.520   3.514
 6938TIP3    H120767   3.383   4.545   3.492
 6938TIP3    H220768   3.283   4.433   3.469
 6939TIP3   OH220769   3.202   5.135   3.929
 6939TIP3    H120770   3.141   5.073   3.886
 6939TIP3    H220771   3.249   5.075   3.991
 6940TIP3   OH220772   3.338   4.979   4.114
 6940TIP3    H120773   3.329   4.911   4.183
 6940TIP3    H220774   3.393   5.044   4.161
 6941TIP3   OH220775   5.072   5.385   3.915
 6941TIP3    H120776   5.098   5.410   4.005
 6941TIP3    H220777   5.142   5.424   3.860
 6942TIP3   OH220778   5.105   5.406   4.196
 6942TIP3    H120779   5.052   5.323   4.193
 6942TIP3    H220780   5.171   5.378   4.261
 6943TIP3   OH220781   5.142   5.083   4.768
 6943TIP3    H120782   5.072   5.093   4.836
 6943TIP3    H220783   5.186   5.170   4.773
 6944TIP3   OH220784   4.956   4.597   3.401
 6944TIP3    H120785   5.026   4.655   3.365
 6944TIP3    H220786   4.994   4.570   3.487
 6945TIP3   OH220787   5.055   4.502   3.643
 6945TIP3    H120788   5.015   4.485   3.731
 6945TIP3    H220789   5.149   4.506   3.666
 6946TIP3   OH220790   5.155   4.860   4.023
 6946TIP3    H120791   5.197   4.783   3.979
 6946TIP3    H220792   5.125   4.914   3.948
 6947TIP3   OH220793   4.978   5.166   4.225
 6947TIP3    H120794   4.905   5.203   4.278
 6947TIP3    H220795   4.928   5.118   4.154
 6948TIP3   OH220796   5.027   4.402   3.216
 6948TIP3    H120797   4.948   4.392   3.158
 6948TIP3    H220798   4.992   4.462   3.284
 6949TIP3   OH220799   4.898   4.043   3.180
 6949TIP3    H120800   4.860   4.076   3.098
 6949TIP3    H220801   4.869   3.949   3.178
 6950TIP3   OH220802   3.516   4.409   4.486
 6950TIP3    H120803   3.510   4.370   4.396
 6950TIP3    H220804   3.613   4.401   4.503
 6951TIP3   OH220805   5.190   4.745   4.595
 6951TIP3    H120806   5.259   4.676   4.582
 6951TIP3    H220807   5.211   4.809   4.526
 6952TIP3   OH220808   5.371   4.542   4.594
 6952TIP3    H120809   5.296   4.494   4.635
 6952TIP3    H220810   5.444   4.480   4.616
 6953TIP3   OH220811   4.832   3.779   3.174
 6953TIP3    H120812   4.907   3.745   3.226
 6953TIP3    H220813   4.761   3.716   3.190
 6954TIP3   OH220814   5.068   4.177   4.155
 6954TIP3    H120815   5.113   4.221   4.081
 6954TIP3    H220816   5.082   4.241   4.227
 6955TIP3   OH220817   5.135   4.362   4.359
 6955TIP3    H120818   5.054   4.393   4.404
 6955TIP3    H220819   5.165   4.443   4.312
 6956TIP3   OH220820   3.746   4.081   5.167
 6956TIP3    H120821   3.844   4.073   5.169
 6956TIP3    H220822   3.721   3.992   5.197
 6957TIP3   OH220823   5.576   3.949   4.907
 6957TIP3    H120824   5.638   3.886   4.866
 6957TIP3    H220825   5.545   4.000   4.829
 6958TIP3   OH220826   3.701   3.792   4.502
 6958TIP3    H120827   3.743   3.704   4.500
 6958TIP3    H220828   3.778   3.849   4.489
 6959TIP3   OH220829   3.494   4.052   4.577
 6959TIP3    H120830   3.546   4.036   4.497
 6959TIP3    H220831   3.541   4.126   4.616
 6960TIP3   OH220832   5.444   4.081   4.709
 6960TIP3    H120833   5.359   4.126   4.729
 6960TIP3    H220834   5.410   4.007   4.655
 6961TIP3   OH220835   5.088   3.715   3.291
 6961TIP3    H120836   5.110   3.635   3.238
 6961TIP3    H220837   5.156   3.776   3.260
 6962TIP3   OH220838   4.625   5.270   3.548
 6962TIP3    H120839   4.691   5.251   3.477
 6962TIP3    H220840   4.681   5.314   3.614
 6963TIP3   OH220841   3.713   3.624   4.876
 6963TIP3    H120842   3.660   3.620   4.957
 6963TIP3    H220843   3.649   3.666   4.814
 6964TIP3   OH220844   3.753   5.042   4.947
 6964TIP3    H120845   3.658   5.031   4.931
 6964TIP3    H220846   3.758   5.036   5.043
 6965TIP3   OH220847   3.932   5.094   4.497
 6965TIP3    H120848   3.885   5.172   4.460
 6965TIP3    H220849   4.018   5.108   4.452
 6966TIP3   OH220850   4.368   5.332   4.635
 6966TIP3    H120851   4.410   5.330   4.724
 6966TIP3    H220852   4.433   5.385   4.585
 6967TIP3   OH220853   4.548   5.490   4.499
 6967TIP3    H120854   4.616   5.436   4.457
 6967TIP3    H220855   4.602   5.545   4.560
 6968TIP3   OH220856   5.347   3.845   4.595
 6968TIP3    H120857   5.260   3.839   4.553
 6968TIP3    H220858   5.380   3.753   4.586
 6969TIP3   OH220859   3.603   5.340   4.530
 6969TIP3    H120860   3.511   5.371   4.512
 6969TIP3    H220861   3.622   5.391   4.610
 6970TIP3   OH220862   3.839   5.327   4.386
 6970TIP3    H120863   3.751   5.337   4.429
 6970TIP3    H220864   3.819   5.359   4.295
 6971TIP3   OH220865   4.266   5.350   4.181
 6971TIP3    H120866   4.195   5.367   4.117
 6971TIP3    H220867   4.276   5.438   4.223
 6972TIP3   OH220868   4.537   5.290   4.236
 6972TIP3    H120869   4.442   5.306   4.215
 6972TIP3    H220870   4.580   5.362   4.187
 6973TIP3   OH220871   4.744   5.484   4.146
 6973TIP3    H120872   4.728   5.566   4.095
 6973TIP3    H220873   4.769   5.421   4.075
 6974TIP3   OH220874   3.515   5.136   4.264
 6974TIP3    H120875   3.542   5.112   4.356
 6974TIP3    H220876   3.590   5.094   4.215
 6975TIP3   OH220877   3.714   5.011   4.128
 6975TIP3    H120878   3.728   4.926   4.177
 6975TIP3    H220879   3.806   5.046   4.127
 6976TIP3   OH220880   3.982   5.097   4.137
 6976TIP3    H120881   4.009   5.003   4.133
 6976TIP3    H220882   4.034   5.124   4.215
 6977TIP3   OH220883   5.071   3.631   4.135
 6977TIP3    H120884   5.115   3.684   4.064
 6977TIP3    H220885   4.977   3.657   4.124
 6978TIP3   OH220886   5.187   3.741   3.919
 6978TIP3    H120887   5.245   3.699   3.855
 6978TIP3    H220888   5.187   3.834   3.893
 6979TIP3   OH220889   3.807   3.470   4.222
 6979TIP3    H120890   3.716   3.445   4.202
 6979TIP3    H220891   3.851   3.382   4.224
 6980TIP3   OH220892   4.267   3.497   4.108
 6980TIP3    H120893   4.349   3.543   4.128
 6980TIP3    H220894   4.213   3.521   4.185
 6981TIP3   OH220895   4.801   3.646   4.096
 6981TIP3    H120896   4.807   3.596   4.014
 6981TIP3    H220897   4.772   3.577   4.159
 6982TIP3   OH220898   4.825   3.553   3.636
 6982TIP3    H120899   4.748   3.608   3.648
 6982TIP3    H220900   4.807   3.477   3.695
 6983TIP3   OH220901   3.303   4.921   3.651
 6983TIP3    H120902   3.218   4.884   3.621
 6983TIP3    H220903   3.293   5.012   3.617
 6984TIP3   OH220904   3.720   3.537   3.588
 6984TIP3    H120905   3.750   3.445   3.584
 6984TIP3    H220906   3.725   3.556   3.683
 6985TIP3   OH220907   4.212   3.658   3.773
 6985TIP3    H120908   4.198   3.575   3.820
 6985TIP3    H220909   4.205   3.723   3.844
 6986TIP3   OH220910   4.100   5.074   3.264
 6986TIP3    H120911   4.184   5.101   3.220
 6986TIP3    H220912   4.073   5.002   3.202
 6987TIP3   OH220913   4.795   5.218   3.336
 6987TIP3    H120914   4.785   5.121   3.324
 6987TIP3    H220915   4.755   5.250   3.252
 6988TIP3   OH220916   4.006   3.750   5.124
 6988TIP3    H120917   3.970   3.678   5.180
 6988TIP3    H220918   4.100   3.748   5.153
 6989TIP3   OH220919   4.258   3.747   5.242
 6989TIP3    H120920   4.343   3.721   5.203
 6989TIP3    H220921   4.245   3.677   5.308
 6990TIP3   OH220922   3.383   4.934   3.292
 6990TIP3    H120923   3.384   4.943   3.388
 6990TIP3    H220924   3.468   4.886   3.276
 6991TIP3   OH220925   5.087   3.813   5.027
 6991TIP3    H120926   5.103   3.782   5.119
 6991TIP3    H220927   5.176   3.808   4.988
 6992TIP3   OH220928   5.018   5.361   4.519
 6992TIP3    H120929   4.938   5.332   4.471
 6992TIP3    H220930   4.997   5.456   4.531
 6993TIP3   OH220931   6.288   4.736   3.283
 6993TIP3    H120932   6.253   4.825   3.260
 6993TIP3    H220933   6.221   4.681   3.238
 6994TIP3   OH220934   6.290   4.743   3.675
 6994TIP3    H120935   6.325   4.715   3.762
 6994TIP3    H220936   6.257   4.660   3.639
 6995TIP3   OH220937   5.586   4.625   4.029
 6995TIP3    H120938   5.611   4.553   4.090
 6995TIP3    H220939   5.662   4.683   4.037
 6996TIP3   OH220940   6.539   5.041   3.353
 6996TIP3    H120941   6.515   4.973   3.418
 6996TIP3    H220942   6.568   5.114   3.409
 6997TIP3   OH220943   5.563   5.045   3.758
 6997TIP3    H120944   5.555   4.947   3.756
 6997TIP3    H220945   5.660   5.053   3.745
 6998TIP3   OH220946   5.330   4.536   3.713
 6998TIP3    H120947   5.375   4.451   3.731
 6998TIP3    H220948   5.376   4.568   3.635
 6999TIP3   OH220949   6.190   5.496   3.374
 6999TIP3    H120950   6.223   5.430   3.310
 6999TIP3    H220951   6.188   5.444   3.455
 7000TIP3   OH220952   6.084   4.963   3.717
 7000TIP3    H120953   6.128   4.887   3.676
 7000TIP3    H220954   6.164   5.013   3.744
 7001TIP3   OH220955   7.104   4.280   3.717
 7001TIP3    H120956   7.133   4.364   3.758
 7001TIP3    H220957   7.122   4.297   3.623
 7002TIP3   OH220958   6.496   4.457   3.742
 7002TIP3    H120959   6.540   4.373   3.763
 7002TIP3    H220960   6.462   4.440   3.652
 7003TIP3   OH220961   6.535   4.217   3.336
 7003TIP3    H120962   6.612   4.204   3.397
 7003TIP3    H220963   6.581   4.250   3.256
 7004TIP3   OH220964   5.458   4.304   3.793
 7004TIP3    H120965   5.538   4.279   3.843
 7004TIP3    H220966   5.410   4.220   3.787
 7005TIP3   OH220967   5.921   4.520   3.612
 7005TIP3    H120968   6.016   4.528   3.633
 7005TIP3    H220969   5.920   4.427   3.586
 7006TIP3   OH220970   7.177   4.491   3.885
 7006TIP3    H120971   7.091   4.535   3.867
 7006TIP3    H220972   7.197   4.525   3.974
 7007TIP3   OH220973   5.830   4.107   4.149
 7007TIP3    H120974   5.766   4.149   4.089
 7007TIP3    H220975   5.782   4.118   4.233
 7008TIP3   OH220976   6.169   4.953   3.157
 7008TIP3    H120977   6.137   4.941   3.066
 7008TIP3    H220978   6.123   5.035   3.184
 7009TIP3   OH220979   5.940   4.882   3.935
 7009TIP3    H120980   5.883   4.953   3.971
 7009TIP3    H220981   5.985   4.928   3.860
 7010TIP3   OH220982   6.740   4.220   3.515
 7010TIP3    H120983   6.714   4.183   3.601
 7010TIP3    H220984   6.789   4.300   3.542
 7011TIP3   OH220985   5.706   4.222   3.921
 7011TIP3    H120986   5.756   4.301   3.951
 7011TIP3    H220987   5.776   4.172   3.879
 7012TIP3   OH220988   5.773   5.078   4.041
 7012TIP3    H120989   5.748   5.166   4.006
 7012TIP3    H220990   5.693   5.058   4.095
 7013TIP3   OH220991   5.155   4.766   3.274
 7013TIP3    H120992   5.120   4.788   3.186
 7013TIP3    H220993   5.191   4.852   3.303
 7014TIP3   OH220994   6.598   5.285   3.515
 7014TIP3    H120995   6.508   5.276   3.553
 7014TIP3    H220996   6.590   5.371   3.469
 7015TIP3   OH220997   6.897   4.173   3.880
 7015TIP3    H120998   6.810   4.201   3.846
 7015TIP3    H220999   6.958   4.209   3.812
 7016TIP3   OH221000   6.179   3.813   3.862
 7016TIP3    H121001   6.161   3.720   3.884
 7016TIP3    H221002   6.104   3.857   3.910
 7017TIP3   OH221003   6.292   5.328   3.178
 7017TIP3    H121004   6.342   5.244   3.163
 7017TIP3    H221005   6.358   5.392   3.143
 7018TIP3   OH221006   6.439   5.112   3.105
 7018TIP3    H121007   6.416   5.030   3.059
 7018TIP3    H221008   6.481   5.078   3.187
 7019TIP3   OH221009   6.826   5.190   3.859
 7019TIP3    H121010   6.812   5.113   3.799
 7019TIP3    H221011   6.807   5.265   3.799
 7020TIP3   OH221012   6.123   4.590   3.117
 7020TIP3    H121013   6.044   4.639   3.091
 7020TIP3    H221014   6.156   4.558   3.031
 7021TIP3   OH221015   6.093   4.342   2.898
 7021TIP3    H121016   6.176   4.387   2.878
 7021TIP3    H221017   6.037   4.362   2.821
 7022TIP3   OH221018   7.021   4.835   3.709
 7022TIP3    H121019   6.936   4.884   3.711
 7022TIP3    H221020   7.052   4.858   3.619
 7023TIP3   OH221021   6.472   4.682   3.087
 7023TIP3    H121022   6.415   4.700   3.165
 7023TIP3    H221023   6.554   4.653   3.131
 7024TIP3   OH221024   6.700   4.704   4.010
 7024TIP3    H121025   6.698   4.786   4.062
 7024TIP3    H221026   6.615   4.710   3.963
 7025TIP3   OH221027   5.696   4.659   3.511
 7025TIP3    H121028   5.653   4.598   3.449
 7025TIP3    H221029   5.777   4.611   3.536
 7026TIP3   OH221030   5.826   5.081   3.650
 7026TIP3    H121031   5.808   5.053   3.559
 7026TIP3    H221032   5.914   5.041   3.667
 7027TIP3   OH221033   5.842   4.636   3.861
 7027TIP3    H121034   5.871   4.618   3.770
 7027TIP3    H221035   5.880   4.725   3.880
 7028TIP3   OH221036   6.357   5.277   3.638
 7028TIP3    H121037   6.349   5.356   3.695
 7028TIP3    H221038   6.343   5.203   3.701
 7029TIP3   OH221039   5.976   5.194   4.185
 7029TIP3    H121040   5.914   5.253   4.233
 7029TIP3    H221041   5.912   5.139   4.135
 7030TIP3   OH221042   6.318   4.524   2.914
 7030TIP3    H121043   6.371   4.591   2.962
 7030TIP3    H221044   6.340   4.546   2.820
 7031TIP3   OH221045   5.728   4.745   4.291
 7031TIP3    H121046   5.734   4.834   4.330
 7031TIP3    H221047   5.635   4.724   4.310
 7032TIP3   OH221048   6.050   5.204   3.195
 7032TIP3    H121049   6.136   5.251   3.192
 7032TIP3    H221050   5.995   5.260   3.140
 7033TIP3   OH221051   5.767   5.354   4.275
 7033TIP3    H121052   5.733   5.356   4.184
 7033TIP3    H221053   5.686   5.336   4.327
 7034TIP3   OH221054   6.820   3.762   2.966
 7034TIP3    H121055   6.740   3.788   3.016
 7034TIP3    H221056   6.839   3.844   2.916
 7035TIP3   OH221057   5.551   4.480   3.332
 7035TIP3    H121058   5.518   4.549   3.272
 7035TIP3    H221059   5.492   4.408   3.303
 7036TIP3   OH221060   6.623   5.133   2.516
 7036TIP3    H121061   6.631   5.230   2.499
 7036TIP3    H221062   6.715   5.104   2.502
 7037TIP3   OH221063   5.348   4.895   4.219
 7037TIP3    H121064   5.279   4.879   4.151
 7037TIP3    H221065   5.383   4.806   4.236
 7038TIP3   OH221066   5.200   5.097   3.830
 7038TIP3    H121067   5.293   5.073   3.837
 7038TIP3    H221068   5.189   5.162   3.901
 7039TIP3   OH221069   7.064   5.544   3.911
 7039TIP3    H121070   7.064   5.448   3.925
 7039TIP3    H221071   6.979   5.568   3.955
 7040TIP3   OH221072   6.167   5.324   4.039
 7040TIP3    H121073   6.162   5.416   4.073
 7040TIP3    H221074   6.098   5.281   4.095
 7041TIP3   OH221075   5.937   5.446   2.996
 7041TIP3    H121076   5.890   5.428   2.913
 7041TIP3    H221077   5.902   5.534   3.021
 7042TIP3   OH221078   5.370   5.298   3.382
 7042TIP3    H121079   5.414   5.285   3.469
 7042TIP3    H221080   5.328   5.211   3.369
 7043TIP3   OH221081   6.132   5.354   2.630
 7043TIP3    H121082   6.189   5.283   2.594
 7043TIP3    H221083   6.169   5.365   2.720
 7044TIP3   OH221084   6.187   5.403   2.899
 7044TIP3    H121085   6.098   5.412   2.940
 7044TIP3    H221086   6.238   5.365   2.972
 7045TIP3   OH221087   6.954   4.667   4.183
 7045TIP3    H121088   6.869   4.675   4.139
 7045TIP3    H221089   6.971   4.571   4.176
 7046TIP3   OH221090   5.549   5.079   4.201
 7046TIP3    H121091   5.599   5.063   4.284
 7046TIP3    H221092   5.476   5.015   4.209
 7047TIP3   OH221093   5.947   3.907   3.995
 7047TIP3    H121094   5.860   3.870   3.968
 7047TIP3    H221095   5.917   3.979   4.054
 7048TIP3   OH221096   6.487   4.010   4.183
 7048TIP3    H121097   6.558   3.987   4.247
 7048TIP3    H221098   6.406   3.997   4.236
 7049TIP3   OH221099   6.715   4.441   4.103
 7049TIP3    H121100   6.665   4.440   4.189
 7049TIP3    H221101   6.695   4.531   4.069
 7050TIP3   OH221102   6.383   4.582   2.658
 7050TIP3    H121103   6.338   4.549   2.578
 7050TIP3    H221104   6.469   4.611   2.622
 7051TIP3   OH221105   6.085   3.941   2.989
 7051TIP3    H121106   6.020   3.978   3.051
 7051TIP3    H221107   6.034   3.867   2.951
 7052TIP3   OH221108   5.879   4.414   4.010
 7052TIP3    H121109   5.831   4.435   4.092
 7052TIP3    H221110   5.867   4.498   3.959
 7053TIP3   OH221111   6.254   4.392   3.260
 7053TIP3    H121112   6.205   4.460   3.209
 7053TIP3    H221113   6.309   4.352   3.189
 7054TIP3   OH221114   6.430   4.658   4.333
 7054TIP3    H121115   6.408   4.587   4.397
 7054TIP3    H221116   6.523   4.675   4.357
 7055TIP3   OH221117   6.405   4.411   3.488
 7055TIP3    H121118   6.344   4.435   3.415
 7055TIP3    H221119   6.446   4.333   3.444
 7056TIP3   OH221120   5.702   4.440   4.217
 7056TIP3    H121121   5.726   4.506   4.284
 7056TIP3    H221122   5.686   4.361   4.271
 7057TIP3   OH221123   6.420   4.655   3.909
 7057TIP3    H121124   6.454   4.584   3.849
 7057TIP3    H221125   6.389   4.600   3.984
 7058TIP3   OH221126   6.100   4.146   3.626
 7058TIP3    H121127   6.053   4.077   3.673
 7058TIP3    H221128   6.192   4.122   3.648
 7059TIP3   OH221129   6.587   4.198   3.787
 7059TIP3    H121130   6.557   4.214   3.880
 7059TIP3    H221131   6.518   4.138   3.756
 7060TIP3   OH221132   5.616   4.258   3.069
 7060TIP3    H121133   5.537   4.220   3.026
 7060TIP3    H221134   5.677   4.183   3.061
 7061TIP3   OH221135   6.757   5.888   4.006
 7061TIP3    H121136   6.753   5.909   3.910
 7061TIP3    H221137   6.827   5.948   4.036
 7062TIP3   OH221138   5.713   4.999   4.424
 7062TIP3    H121139   5.793   5.026   4.473
 7062TIP3    H221140   5.648   4.994   4.497
 7063TIP3   OH221141   6.180   4.464   3.681
 7063TIP3    H121142   6.248   4.423   3.625
 7063TIP3    H221143   6.184   4.409   3.761
 7064TIP3   OH221144   6.150   4.351   3.977
 7064TIP3    H121145   6.061   4.391   3.990
 7064TIP3    H221146   6.209   4.415   4.023
 7065TIP3   OH221147   5.878   4.741   3.065
 7065TIP3    H121148   5.812   4.669   3.058
 7065TIP3    H221149   5.860   4.774   3.156
 7066TIP3   OH221150   6.785   4.974   3.690
 7066TIP3    H121151   6.808   5.027   3.611
 7066TIP3    H221152   6.701   4.931   3.663
 7067TIP3   OH221153   6.339   4.035   2.945
 7067TIP3    H121154   6.243   4.016   2.957
 7067TIP3    H221155   6.339   4.132   2.936
 7068TIP3   OH221156   6.282   5.055   4.067
 7068TIP3    H121157   6.326   5.043   4.152
 7068TIP3    H221158   6.248   5.146   4.073
 7069TIP3   OH221159   6.414   4.304   3.053
 7069TIP3    H121160   6.510   4.313   3.047
 7069TIP3    H221161   6.383   4.372   2.989
 7070TIP3   OH221162   5.586   4.773   3.743
 7070TIP3    H121163   5.621   4.735   3.660
 7070TIP3    H221164   5.616   4.708   3.809
 7071TIP3   OH221165   6.033   4.888   2.893
 7071TIP3    H121166   5.985   4.974   2.894
 7071TIP3    H221167   5.976   4.834   2.953
 7072TIP3   OH221168   5.466   4.675   4.354
 7072TIP3    H121169   5.473   4.658   4.450
 7072TIP3    H221170   5.392   4.616   4.330
 7073TIP3   OH221171   6.193   4.800   4.374
 7073TIP3    H121172   6.130   4.738   4.334
 7073TIP3    H221173   6.279   4.762   4.345
 7074TIP3   OH221174   6.443   5.318   3.962
 7074TIP3    H121175   6.346   5.319   3.976
 7074TIP3    H221176   6.472   5.370   4.040
 7075TIP3   OH221177   6.855   4.394   2.864
 7075TIP3    H121178   6.796   4.349   2.799
 7075TIP3    H221179   6.846   4.485   2.828
 7076TIP3   OH221180   7.076   5.253   3.947
 7076TIP3    H121181   6.978   5.245   3.939
 7076TIP3    H221182   7.102   5.222   3.857
 7077TIP3   OH221183   6.563   5.207   2.781
 7077TIP3    H121184   6.527   5.138   2.838
 7077TIP3    H221185   6.572   5.163   2.695
 7078TIP3   OH221186   6.553   4.839   3.607
 7078TIP3    H121187   6.459   4.817   3.621
 7078TIP3    H221188   6.584   4.758   3.563
 7079TIP3   OH221189   5.686   5.074   3.377
 7079TIP3    H121190   5.681   5.150   3.316
 7079TIP3    H221191   5.595   5.042   3.373
 7080TIP3   OH221192   5.255   4.370   3.076
 7080TIP3    H121193   5.299   4.454   3.099
 7080TIP3    H221194   5.174   4.376   3.132
 7081TIP3   OH221195   5.807   4.829   3.311
 7081TIP3    H121196   5.783   4.921   3.332
 7081TIP3    H221197   5.771   4.781   3.388
 7082TIP3   OH221198   5.953   5.410   3.836
 7082TIP3    H121199   5.998   5.481   3.786
 7082TIP3    H221200   6.029   5.370   3.882
 7083TIP3   OH221201   5.600   5.307   3.220
 7083TIP3    H121202   5.514   5.318   3.266
 7083TIP3    H221203   5.633   5.399   3.222
 7084TIP3   OH221204   6.333   5.046   3.798
 7084TIP3    H121205   6.322   5.043   3.896
 7084TIP3    H221206   6.411   4.990   3.786
 7085TIP3   OH221207   6.319   4.944   2.679
 7085TIP3    H121208   6.371   4.919   2.758
 7085TIP3    H221209   6.234   4.902   2.698
 7086TIP3   OH221210   6.587   5.572   3.844
 7086TIP3    H121211   6.506   5.518   3.840
 7086TIP3    H221212   6.570   5.637   3.772
 7087TIP3   OH221213   6.652   5.408   2.496
 7087TIP3    H121214   6.686   5.481   2.441
 7087TIP3    H221215   6.573   5.452   2.533
 7088TIP3   OH221216   5.666   4.184   4.359
 7088TIP3    H121217   5.568   4.190   4.369
 7088TIP3    H221218   5.690   4.132   4.437
 7089TIP3   OH221219   6.481   4.881   2.896
 7089TIP3    H121220   6.467   4.812   2.964
 7089TIP3    H221221   6.577   4.870   2.880
 7090TIP3   OH221222   5.398   5.272   3.994
 7090TIP3    H121223   5.451   5.193   4.012
 7090TIP3    H221224   5.408   5.318   4.078
 7091TIP3   OH221225   5.676   4.919   2.682
 7091TIP3    H121226   5.679   4.825   2.653
 7091TIP3    H221227   5.653   4.908   2.776
 7092TIP3   OH221228   5.619   4.921   2.955
 7092TIP3    H121229   5.702   4.892   2.994
 7092TIP3    H221230   5.625   5.019   2.963
 7093TIP3   OH221231   5.365   4.617   3.163
 7093TIP3    H121232   5.293   4.657   3.215
 7093TIP3    H221233   5.375   4.683   3.092
 7094TIP3   OH221234   6.515   4.249   4.046
 7094TIP3    H121235   6.594   4.293   4.083
 7094TIP3    H221236   6.506   4.170   4.102
 7095TIP3   OH221237   6.405   3.988   3.214
 7095TIP3    H121238   6.378   4.009   3.122
 7095TIP3    H221239   6.430   4.077   3.247
 7096TIP3   OH221240   5.892   5.119   2.902
 7096TIP3    H121241   5.805   5.143   2.937
 7096TIP3    H221242   5.905   5.189   2.837
 7097TIP3   OH221243   6.112   4.171   3.351
 7097TIP3    H121244   6.154   4.249   3.309
 7097TIP3    H221245   6.111   4.195   3.445
 7098TIP3   OH221246   6.350   4.494   4.118
 7098TIP3    H121247   6.377   4.547   4.196
 7098TIP3    H221248   6.403   4.413   4.129
 7099TIP3   OH221249   6.234   3.904   3.416
 7099TIP3    H121250   6.181   3.986   3.414
 7099TIP3    H221251   6.296   3.925   3.343
 7100TIP3   OH221252   5.639   5.195   2.971
 7100TIP3    H121253   5.610   5.265   2.908
 7100TIP3    H221254   5.622   5.238   3.057
 7101TIP3   OH221255   6.982   4.400   4.104
 7101TIP3    H121256   6.884   4.399   4.110
 7101TIP3    H221257   6.994   4.354   4.020
 7102TIP3   OH221258   6.636   4.592   3.490
 7102TIP3    H121259   6.559   4.534   3.499
 7102TIP3    H221260   6.705   4.543   3.539
 7103TIP3   OH221261   5.356   4.815   2.960
 7103TIP3    H121262   5.434   4.874   2.967
 7103TIP3    H221263   5.391   4.752   2.893
 7104TIP3   OH221264   5.288   4.098   3.068
 7104TIP3    H121265   5.297   4.194   3.083
 7104TIP3    H221266   5.195   4.083   3.084
 7105TIP3   OH221267   6.609   5.555   3.436
 7105TIP3    H121268   6.566   5.603   3.362
 7105TIP3    H221269   6.703   5.572   3.415
 7106TIP3   OH221270   5.687   3.820   3.968
 7106TIP3    H121271   5.651   3.786   3.884
 7106TIP3    H221272   5.676   3.743   4.028
 7107TIP3   OH221273   5.221   5.043   3.339
 7107TIP3    H121274   5.165   5.068   3.413
 7107TIP3    H221275   5.177   5.088   3.263
 7108TIP3   OH221276   5.386   5.592   4.413
 7108TIP3    H121277   5.471   5.595   4.464
 7108TIP3    H221278   5.367   5.497   4.418
 7109TIP3   OH221279   5.853   5.540   4.461
 7109TIP3    H121280   5.948   5.526   4.471
 7109TIP3    H221281   5.832   5.474   4.392
 7110TIP3   OH221282   5.843   5.117   2.588
 7110TIP3    H121283   5.790   5.042   2.625
 7110TIP3    H221284   5.917   5.069   2.547
 7111TIP3   OH221285   6.498   5.451   4.196
 7111TIP3    H121286   6.492   5.381   4.265
 7111TIP3    H221287   6.575   5.503   4.226
 7112TIP3   OH221288   6.274   5.154   2.504
 7112TIP3    H121289   6.310   5.086   2.566
 7112TIP3    H221290   6.335   5.147   2.428
 7113TIP3   OH221291   5.510   4.989   4.616
 7113TIP3    H121292   5.526   4.893   4.625
 7113TIP3    H221293   5.423   4.991   4.571
 7114TIP3   OH221294   5.481   4.628   2.813
 7114TIP3    H121295   5.537   4.589   2.883
 7114TIP3    H221296   5.549   4.640   2.743
 7115TIP3   OH221297   6.116   5.076   4.393
 7115TIP3    H121298   6.078   5.098   4.306
 7115TIP3    H221299   6.149   4.985   4.380
 7116TIP3   OH221300   6.018   4.820   2.625
 7116TIP3    H121301   6.017   4.833   2.722
 7116TIP3    H221302   5.984   4.730   2.616
 7117TIP3   OH221303   6.608   5.092   4.001
 7117TIP3    H121304   6.687   5.130   3.957
 7117TIP3    H221305   6.542   5.160   3.982
 7118TIP3   OH221306   5.633   4.730   4.604
 7118TIP3    H121307   5.708   4.677   4.575
 7118TIP3    H221308   5.663   4.760   4.693
 7119TIP3   OH221309   5.700   4.525   3.028
 7119TIP3    H121310   5.657   4.448   3.070
 7119TIP3    H221311   5.752   4.480   2.960
 7120TIP3   OH221312   5.967   4.605   4.262
 7120TIP3    H121313   5.888   4.664   4.260
 7120TIP3    H221314   6.018   4.641   4.185
 7121TIP3   OH221315   6.482   5.007   4.393
 7121TIP3    H121316   6.562   4.973   4.349
 7121TIP3    H221317   6.475   4.947   4.469
 7122TIP3   OH221318   6.620   4.663   2.540
 7122TIP3    H121319   6.599   4.621   2.454
 7122TIP3    H221320   6.585   4.753   2.522
 7123TIP3   OH221321   6.091   4.398   4.385
 7123TIP3    H121322   6.090   4.320   4.325
 7123TIP3    H221323   6.046   4.466   4.329
 7124TIP3   OH221324   6.093   4.180   4.197
 7124TIP3    H121325   6.122   4.225   4.115
 7124TIP3    H221326   5.999   4.160   4.177
 7125TIP3   OH221327   6.113   4.713   4.066
 7125TIP3    H121328   6.201   4.734   4.032
 7125TIP3    H221329   6.057   4.779   4.019
 7126TIP3   OH221330   6.693   4.680   4.444
 7126TIP3    H121331   6.743   4.601   4.468
 7126TIP3    H221332   6.763   4.738   4.410
 7127TIP3   OH221333   6.738   4.936   4.181
 7127TIP3    H121334   6.680   4.993   4.125
 7127TIP3    H221335   6.826   4.958   4.144
 7128TIP3   OH221336   5.970   4.497   4.622
 7128TIP3    H121337   5.902   4.428   4.639
 7128TIP3    H221338   6.001   4.471   4.533
 7129TIP3   OH221339   6.224   3.942   4.272
 7129TIP3    H121340   6.175   4.023   4.246
 7129TIP3    H221341   6.154   3.874   4.258
 7130TIP3   OH221342   6.350   4.442   4.481
 7130TIP3    H121343   6.334   4.429   4.576
 7130TIP3    H221344   6.261   4.422   4.447
 7131TIP3   OH221345   6.584   4.393   4.333
 7131TIP3    H121346   6.511   4.398   4.398
 7131TIP3    H221347   6.660   4.366   4.389
 7132TIP3   OH221348   6.812   4.336   4.481
 7132TIP3    H121349   6.827   4.241   4.499
 7132TIP3    H221350   6.809   4.375   4.571
 7133TIP3   OH221351   5.807   4.278   4.678
 7133TIP3    H121352   5.808   4.185   4.647
 7133TIP3    H221353   5.845   4.268   4.767
 7134TIP3   OH221354   6.319   3.955   4.527
 7134TIP3    H121355   6.402   3.912   4.505
 7134TIP3    H221356   6.271   3.948   4.442
 7135TIP3   OH221357   6.380   4.169   4.686
 7135TIP3    H121358   6.354   4.100   4.622
 7135TIP3    H221359   6.303   4.231   4.681
 7136TIP3   OH221360   5.610   5.399   2.785
 7136TIP3    H121361   5.704   5.387   2.762
 7136TIP3    H221362   5.581   5.452   2.708
 7137TIP3   OH221363   5.086   4.779   2.996
 7137TIP3    H121364   5.180   4.800   2.979
 7137TIP3    H221365   5.079   4.690   2.955
 7138TIP3   OH221366   5.002   5.389   3.418
 7138TIP3    H121367   4.940   5.328   3.373
 7138TIP3    H221368   5.047   5.327   3.479
 7139TIP3   OH221369   5.134   5.234   3.602
 7139TIP3    H121370   5.130   5.165   3.671
 7139TIP3    H221371   5.182   5.302   3.650
 7140TIP3   OH221372   6.867   5.635   3.401
 7140TIP3    H121373   6.892   5.671   3.488
 7140TIP3    H221374   6.931   5.678   3.342
 7141TIP3   OH221375   6.889   5.660   3.684
 7141TIP3    H121376   6.843   5.573   3.678
 7141TIP3    H221377   6.965   5.634   3.739
 7142TIP3   OH221378   6.937   5.338   4.254
 7142TIP3    H121379   6.867   5.349   4.322
 7142TIP3    H221380   6.981   5.425   4.259
 7143TIP3   OH221381   6.758   4.847   2.871
 7143TIP3    H121382   6.821   4.915   2.841
 7143TIP3    H221383   6.803   4.811   2.951
 7144TIP3   OH221384   6.886   4.714   3.078
 7144TIP3    H121385   6.816   4.674   3.133
 7144TIP3    H221386   6.946   4.752   3.145
 7145TIP3   OH221387   6.944   5.116   3.510
 7145TIP3    H121388   6.993   5.045   3.464
 7145TIP3    H221389   6.942   5.187   3.443
 7146TIP3   OH221390   6.764   5.410   3.702
 7146TIP3    H121391   6.692   5.453   3.752
 7146TIP3    H221392   6.715   5.366   3.629
 7147TIP3   OH221393   6.819   4.626   2.720
 7147TIP3    H121394   6.748   4.627   2.652
 7147TIP3    H221395   6.789   4.701   2.775
 7148TIP3   OH221396   6.703   4.289   2.664
 7148TIP3    H121397   6.629   4.333   2.620
 7148TIP3    H221398   6.678   4.195   2.650
 7149TIP3   OH221399   6.695   4.577   3.219
 7149TIP3    H121400   6.697   4.480   3.207
 7149TIP3    H221401   6.679   4.585   3.316
 7150TIP3   OH221402   5.318   4.641   3.970
 7150TIP3    H121403   5.312   4.608   3.877
 7150TIP3    H221404   5.416   4.643   3.982
 7151TIP3   OH221405   6.987   5.002   4.080
 7151TIP3    H121406   7.056   4.934   4.067
 7151TIP3    H221407   7.010   5.069   4.014
 7152TIP3   OH221408   7.168   4.798   4.077
 7152TIP3    H121409   7.093   4.751   4.121
 7152TIP3    H221410   7.241   4.737   4.099
 7153TIP3   OH221411   6.644   4.014   2.638
 7153TIP3    H121412   6.697   3.995   2.717
 7153TIP3    H221413   6.554   3.985   2.664
 7154TIP3   OH221414   6.701   4.298   3.116
 7154TIP3    H121415   6.740   4.209   3.130
 7154TIP3    H221416   6.754   4.327   3.040
 7155TIP3   OH221417   6.850   4.458   3.612
 7155TIP3    H121418   6.934   4.482   3.569
 7155TIP3    H221419   6.865   4.499   3.700
 7156TIP3   OH221420   6.925   4.610   3.838
 7156TIP3    H121421   6.849   4.643   3.890
 7156TIP3    H221422   6.958   4.692   3.796
 7157TIP3   OH221423   5.541   4.336   4.650
 7157TIP3    H121424   5.639   4.329   4.654
 7157TIP3    H221425   5.517   4.247   4.683
 7158TIP3   OH221426   7.367   4.201   4.394
 7158TIP3    H121427   7.433   4.139   4.356
 7158TIP3    H221428   7.341   4.254   4.316
 7159TIP3   OH221429   6.806   4.044   3.150
 7159TIP3    H121430   6.849   4.026   3.236
 7159TIP3    H221431   6.741   3.970   3.147
 7160TIP3   OH221432   5.497   4.028   3.931
 7160TIP3    H121433   5.546   3.949   3.960
 7160TIP3    H221434   5.552   4.099   3.966
 7161TIP3   OH221435   5.316   4.302   4.051
 7161TIP3    H121436   5.338   4.314   3.958
 7161TIP3    H221437   5.316   4.392   4.084
 7162TIP3   OH221438   7.241   4.339   4.195
 7162TIP3    H121439   7.158   4.383   4.222
 7162TIP3    H221440   7.205   4.265   4.143
 7163TIP3   OH221441   6.880   3.969   2.797
 7163TIP3    H121442   6.916   3.905   2.733
 7163TIP3    H221443   6.943   4.044   2.789
 7164TIP3   OH221444   6.447   5.511   3.055
 7164TIP3    H121445   6.497   5.500   2.972
 7164TIP3    H221446   6.500   5.578   3.101
 7165TIP3   OH221447   5.511   3.876   4.360
 7165TIP3    H121448   5.459   3.877   4.442
 7165TIP3    H221449   5.449   3.920   4.298
 7166TIP3   OH221450   5.543   5.318   4.434
 7166TIP3    H121451   5.450   5.293   4.424
 7166TIP3    H221452   5.561   5.295   4.526
 7167TIP3   OH221453   5.729   5.349   3.988
 7167TIP3    H121454   5.671   5.412   3.943
 7167TIP3    H221455   5.814   5.368   3.943
 7168TIP3   OH221456   6.161   5.591   4.120
 7168TIP3    H121457   6.204   5.586   4.209
 7168TIP3    H221458   6.228   5.643   4.071
 7169TIP3   OH221459   6.344   5.747   3.985
 7169TIP3    H121460   6.413   5.696   3.942
 7169TIP3    H221461   6.398   5.802   4.047
 7170TIP3   OH221462   7.144   4.101   4.082
 7170TIP3    H121463   7.056   4.090   4.044
 7170TIP3    H221464   7.181   4.010   4.074
 7171TIP3   OH221465   5.403   5.636   3.995
 7171TIP3    H121466   5.305   5.647   3.993
 7171TIP3    H221467   5.421   5.651   4.089
 7172TIP3   OH221468   5.621   5.613   3.835
 7172TIP3    H121469   5.544   5.624   3.895
 7172TIP3    H221470   5.586   5.551   3.770
 7173TIP3   OH221471   6.064   5.605   3.673
 7173TIP3    H121472   6.013   5.624   3.593
 7173TIP3    H221473   6.078   5.694   3.711
 7174TIP3   OH221474   6.334   5.545   3.724
 7174TIP3    H121475   6.241   5.563   3.703
 7174TIP3    H221476   6.381   5.614   3.673
 7175TIP3   OH221477   6.531   5.733   3.629
 7175TIP3    H121478   6.520   5.819   3.582
 7175TIP3    H221479   6.561   5.675   3.556
 7176TIP3   OH221480   5.319   5.403   3.760
 7176TIP3    H121481   5.343   5.364   3.847
 7176TIP3    H221482   5.382   5.353   3.703
 7177TIP3   OH221483   5.508   5.270   3.620
 7177TIP3    H121484   5.520   5.184   3.667
 7177TIP3    H221485   5.601   5.297   3.610
 7178TIP3   OH221486   5.779   5.363   3.625
 7178TIP3    H121487   5.805   5.271   3.605
 7178TIP3    H221488   5.838   5.379   3.701
 7179TIP3   OH221489   6.335   4.025   3.709
 7179TIP3    H121490   6.302   3.949   3.759
 7179TIP3    H221491   6.401   3.984   3.650
 7180TIP3   OH221492   6.864   3.895   3.603
 7180TIP3    H121493   6.901   3.948   3.529
 7180TIP3    H221494   6.770   3.919   3.599
 7181TIP3   OH221495   6.964   3.993   3.370
 7181TIP3    H121496   7.039   3.943   3.333
 7181TIP3    H221497   6.996   4.085   3.356
 7182TIP3   OH221498   5.587   3.734   3.725
 7182TIP3    H121499   5.520   3.722   3.655
 7182TIP3    H221500   5.638   3.651   3.718
 7183TIP3   OH221501   6.059   3.746   3.606
 7183TIP3    H121502   6.094   3.797   3.532
 7183TIP3    H221503   6.109   3.781   3.682
 7184TIP3   OH221504   6.580   3.911   3.585
 7184TIP3    H121505   6.572   3.876   3.495
 7184TIP3    H221506   6.570   3.830   3.640
 7185TIP3   OH221507   6.621   3.834   3.145
 7185TIP3    H121508   6.540   3.886   3.165
 7185TIP3    H221509   6.599   3.749   3.189
 7186TIP3   OH221510   5.096   5.179   3.142
 7186TIP3    H121511   5.012   5.144   3.109
 7186TIP3    H221512   5.091   5.270   3.106
 7187TIP3   OH221513   5.507   3.780   3.107
 7187TIP3    H121514   5.561   3.712   3.064
 7187TIP3    H221515   5.577   3.839   3.144
 7188TIP3   OH221516   5.874   5.348   2.729
 7188TIP3    H121517   5.961   5.373   2.691
 7188TIP3    H221518   5.852   5.275   2.667
 7189TIP3   OH221519   6.593   5.475   2.824
 7189TIP3    H121520   6.587   5.377   2.813
 7189TIP3    H221521   6.546   5.506   2.743
 7190TIP3   OH221522   5.802   4.005   4.609
 7190TIP3    H121523   5.765   3.934   4.665
 7190TIP3    H221524   5.896   4.004   4.640
 7191TIP3   OH221525   6.053   4.002   4.729
 7191TIP3    H121526   6.139   3.974   4.696
 7191TIP3    H221527   6.036   3.934   4.798
 7192TIP3   OH221528   5.176   5.187   2.779
 7192TIP3    H121529   5.188   5.208   2.873
 7192TIP3    H221530   5.261   5.142   2.757
 7193TIP3   OH221531   6.879   4.064   4.515
 7193TIP3    H121532   6.900   4.035   4.606
 7193TIP3    H221533   6.968   4.063   4.473
 7194TIP3   OH221534   6.814   5.617   4.007
 7194TIP3    H121535   6.736   5.587   3.955
 7194TIP3    H221536   6.795   5.712   4.014
 7195TIP3   OH221537   8.036   4.985   3.159
 7195TIP3    H121538   8.097   4.930   3.212
 7195TIP3    H221539   8.032   4.935   3.076
 7196TIP3   OH221540   7.381   4.879   3.519
 7196TIP3    H121541   7.408   4.810   3.583
 7196TIP3    H221542   7.455   4.941   3.526
 7197TIP3   OH221543   7.358   5.299   3.242
 7197TIP3    H121544   7.350   5.201   3.242
 7197TIP3    H221545   7.455   5.308   3.229
 7198TIP3   OH221546   7.062   4.497   3.018
 7198TIP3    H121547   7.012   4.577   3.043
 7198TIP3    H221548   6.991   4.446   2.974
 7199TIP3   OH221549   7.117   4.786   3.212
 7199TIP3    H121550   7.169   4.708   3.242
 7199TIP3    H221551   7.174   4.824   3.144
 7200TIP3   OH221552   7.871   5.205   3.208
 7200TIP3    H121553   7.920   5.122   3.187
 7200TIP3    H221554   7.944   5.268   3.212
 7201TIP3   OH221555   7.629   4.377   3.199
 7201TIP3    H121556   7.611   4.449   3.135
 7201TIP3    H221557   7.582   4.303   3.156
 7202TIP3   OH221558   7.267   4.579   3.308
 7202TIP3    H121559   7.349   4.559   3.357
 7202TIP3    H221560   7.280   4.522   3.229
 7203TIP3   OH221561   7.704   4.775   3.100
 7203TIP3    H121562   7.798   4.746   3.113
 7203TIP3    H221563   7.662   4.690   3.073
 7204TIP3   OH221564   7.621   4.367   3.641
 7204TIP3    H121565   7.563   4.406   3.573
 7204TIP3    H221566   7.567   4.385   3.722
 7205TIP3   OH221567   7.736   5.138   3.433
 7205TIP3    H121568   7.675   5.208   3.466
 7205TIP3    H221569   7.771   5.180   3.352
 7206TIP3   OH221570   7.501   4.476   3.418
 7206TIP3    H121571   7.562   4.550   3.441
 7206TIP3    H221572   7.551   4.435   3.344
 7207TIP3   OH221573   7.568   5.336   3.526
 7207TIP3    H121574   7.543   5.424   3.489
 7207TIP3    H221575   7.487   5.319   3.579
 7208TIP3   OH221576   6.955   5.023   2.761
 7208TIP3    H121577   6.911   5.050   2.678
 7208TIP3    H221578   6.985   5.111   2.795
 7209TIP3   OH221579   7.925   4.110   3.314
 7209TIP3    H121580   7.971   4.029   3.343
 7209TIP3    H221581   7.860   4.126   3.385
 7210TIP3   OH221582   7.846   4.757   2.586
 7210TIP3    H121583   7.786   4.831   2.609
 7210TIP3    H221584   7.932   4.799   2.604
 7211TIP3   OH221585   7.494   4.918   2.992
 7211TIP3    H121586   7.459   4.860   2.921
 7211TIP3    H221587   7.571   4.867   3.025
 7212TIP3   OH221588   7.618   5.329   3.137
 7212TIP3    H121589   7.599   5.310   3.044
 7212TIP3    H221590   7.704   5.286   3.151
 7213TIP3   OH221591   7.635   4.893   3.346
 7213TIP3    H121592   7.668   4.869   3.257
 7213TIP3    H221593   7.676   4.981   3.362
 7214TIP3   OH221594   7.766   5.439   3.685
 7214TIP3    H121595   7.703   5.503   3.725
 7214TIP3    H221596   7.704   5.391   3.626
 7215TIP3   OH221597   7.526   5.003   3.776
 7215TIP3    H121598   7.531   5.092   3.817
 7215TIP3    H221599   7.432   4.981   3.795
 7216TIP3   OH221600   7.816   5.497   2.692
 7216TIP3    H121601   7.906   5.530   2.692
 7216TIP3    H221602   7.773   5.553   2.625
 7217TIP3   OH221603   7.564   5.611   3.759
 7217TIP3    H121604   7.529   5.620   3.668
 7217TIP3    H221605   7.482   5.593   3.810
 7218TIP3   OH221606   7.369   4.767   2.775
 7218TIP3    H121607   7.291   4.811   2.734
 7218TIP3    H221608   7.329   4.686   2.810
 7219TIP3   OH221609   7.142   5.150   3.706
 7219TIP3    H121610   7.072   5.133   3.639
 7219TIP3    H221611   7.179   5.061   3.722
 7220TIP3   OH221612   6.996   5.343   3.337
 7220TIP3    H121613   7.093   5.342   3.329
 7220TIP3    H221614   6.982   5.422   3.391
 7221TIP3   OH221615   7.946   5.573   3.526
 7221TIP3    H121616   7.954   5.665   3.559
 7221TIP3    H221617   7.883   5.534   3.589
 7222TIP3   OH221618   7.712   5.689   2.499
 7222TIP3    H121619   7.700   5.678   2.403
 7222TIP3    H221620   7.704   5.785   2.510
 7223TIP3   OH221621   7.165   5.554   2.868
 7223TIP3    H121622   7.212   5.547   2.954
 7223TIP3    H221623   7.116   5.471   2.865
 7224TIP3   OH221624   7.347   5.332   3.688
 7224TIP3    H121625   7.396   5.315   3.771
 7224TIP3    H221626   7.272   5.270   3.696
 7225TIP3   OH221627   7.722   4.156   3.499
 7225TIP3    H121628   7.634   4.130   3.466
 7225TIP3    H221629   7.697   4.237   3.549
 7226TIP3   OH221630   7.670   4.674   3.499
 7226TIP3    H121631   7.619   4.693   3.581
 7226TIP3    H221632   7.656   4.757   3.448
 7227TIP3   OH221633   7.552   4.560   3.013
 7227TIP3    H121634   7.462   4.535   3.043
 7227TIP3    H221635   7.552   4.516   2.925
 7228TIP3   OH221636   7.497   4.698   3.710
 7228TIP3    H121637   7.515   4.762   3.780
 7228TIP3    H221638   7.484   4.615   3.761
 7229TIP3   OH221639   7.574   4.203   2.417
 7229TIP3    H121640   7.545   4.184   2.508
 7229TIP3    H221641   7.490   4.237   2.379
 7230TIP3   OH221642   7.089   4.216   3.288
 7230TIP3    H121643   7.163   4.252   3.341
 7230TIP3    H221644   7.132   4.190   3.205
 7231TIP3   OH221645   7.050   4.202   2.802
 7231TIP3    H121646   7.096   4.240   2.724
 7231TIP3    H221647   6.988   4.275   2.822
 7232TIP3   OH221648   7.864   4.379   3.051
 7232TIP3    H121649   7.794   4.373   3.119
 7232TIP3    H221650   7.944   4.377   3.106
 7233TIP3   OH221651   7.320   4.438   3.079
 7233TIP3    H121652   7.226   4.447   3.049
 7233TIP3    H221653   7.341   4.345   3.056
 7234TIP3   OH221654   7.543   4.430   2.773
 7234TIP3    H121655   7.638   4.433   2.754
 7234TIP3    H221656   7.504   4.461   2.689
 7235TIP3   OH221657   7.438   4.490   2.529
 7235TIP3    H121658   7.350   4.451   2.522
 7235TIP3    H221659   7.484   4.442   2.458
 7236TIP3   OH221660   7.511   5.253   3.912
 7236TIP3    H121661   7.590   5.283   3.962
 7236TIP3    H221662   7.445   5.250   3.985
 7237TIP3   OH221663   7.954   4.678   3.159
 7237TIP3    H121664   8.047   4.664   3.138
 7237TIP3    H221665   7.949   4.643   3.251
 7238TIP3   OH221666   7.482   4.191   3.057
 7238TIP3    H121667   7.440   4.121   3.113
 7238TIP3    H221668   7.529   4.136   2.993
 7239TIP3   OH221669   7.925   4.608   3.428
 7239TIP3    H121670   7.832   4.631   3.451
 7239TIP3    H221671   7.975   4.663   3.490
 7240TIP3   OH221672   7.691   4.986   2.564
 7240TIP3    H121673   7.611   4.932   2.550
 7240TIP3    H221674   7.669   5.030   2.650
 7241TIP3   OH221675   8.130   5.356   3.598
 7241TIP3    H121676   8.063   5.298   3.634
 7241TIP3    H221677   8.079   5.429   3.561
 7242TIP3   OH221678   7.380   5.022   3.227
 7242TIP3    H121679   7.419   4.990   3.143
 7242TIP3    H221680   7.420   4.962   3.291
 7243TIP3   OH221681   7.832   5.149   2.384
 7243TIP3    H121682   7.783   5.235   2.387
 7243TIP3    H221683   7.786   5.098   2.453
 7244TIP3   OH221684   7.265   4.932   3.840
 7244TIP3    H121685   7.276   4.920   3.937
 7244TIP3    H221686   7.191   4.872   3.822
 7245TIP3   OH221687   7.985   5.043   3.858
 7245TIP3    H121688   7.912   4.982   3.836
 7245TIP3    H221689   8.062   4.987   3.837
 7246TIP3   OH221690   7.483   5.325   2.858
 7246TIP3    H121691   7.484   5.406   2.802
 7246TIP3    H221692   7.388   5.313   2.870
 7247TIP3   OH221693   7.050   4.625   2.571
 7247TIP3    H121694   7.086   4.714   2.588
 7247TIP3    H221695   6.968   4.629   2.626
 7248TIP3   OH221696   7.606   5.086   2.798
 7248TIP3    H121697   7.575   5.178   2.816
 7248TIP3    H221698   7.570   5.039   2.875
 7249TIP3   OH221699   7.748   5.655   3.324
 7249TIP3    H121700   7.786   5.727   3.268
 7249TIP3    H221701   7.827   5.625   3.371
 7250TIP3   OH221702   7.396   5.558   2.708
 7250TIP3    H121703   7.311   5.572   2.752
 7250TIP3    H221704   7.433   5.649   2.710
 7251TIP3   OH221705   7.463   4.444   3.850
 7251TIP3    H121706   7.366   4.445   3.864
 7251TIP3    H221707   7.493   4.393   3.927
 7252TIP3   OH221708   7.186   5.526   3.479
 7252TIP3    H121709   7.242   5.459   3.521
 7252TIP3    H221710   7.211   5.606   3.527
 7253TIP3   OH221711   7.451   5.198   2.170
 7253TIP3    H121712   7.505   5.123   2.140
 7253TIP3    H221713   7.439   5.176   2.265
 7254TIP3   OH221714   7.424   5.176   2.444
 7254TIP3    H121715   7.495   5.164   2.507
 7254TIP3    H221716   7.416   5.274   2.445
 7255TIP3   OH221717   7.152   4.874   2.644
 7255TIP3    H121718   7.084   4.917   2.700
 7255TIP3    H221719   7.158   4.941   2.573
 7256TIP3   OH221720   7.685   5.376   2.386
 7256TIP3    H121721   7.597   5.396   2.424
 7256TIP3    H221722   7.705   5.462   2.346
 7257TIP3   OH221723   7.822   4.451   2.795
 7257TIP3    H121724   7.823   4.547   2.803
 7257TIP3    H221725   7.842   4.424   2.888
 7258TIP3   OH221726   7.429   5.443   2.460
 7258TIP3    H121727   7.404   5.514   2.397
 7258TIP3    H221728   7.418   5.490   2.546
 7259TIP3   OH221729   7.484   4.172   2.678
 7259TIP3    H121730   7.473   4.253   2.731
 7259TIP3    H221731   7.579   4.155   2.696
 7260TIP3   OH221732   7.147   5.073   2.447
 7260TIP3    H121733   7.212   5.145   2.454
 7260TIP3    H221734   7.189   5.020   2.375
 7261TIP3   OH221735   7.096   4.357   2.574
 7261TIP3    H121736   7.088   4.454   2.579
 7261TIP3    H221737   7.009   4.333   2.539
 7262TIP3   OH221738   7.467   4.072   3.450
 7262TIP3    H121739   7.440   4.037   3.362
 7262TIP3    H221740   7.461   3.992   3.506
 7263TIP3   OH221741   7.008   5.288   2.826
 7263TIP3    H121742   6.955   5.320   2.900
 7263TIP3    H221743   6.969   5.337   2.750
 7264TIP3   OH221744   7.180   5.835   3.905
 7264TIP3    H121745   7.269   5.824   3.944
 7264TIP3    H221746   7.150   5.742   3.901
 7265TIP3   OH221747   7.642   5.792   3.955
 7265TIP3    H121748   7.739   5.788   3.959
 7265TIP3    H221749   7.623   5.729   3.883
 7266TIP3   OH221750   7.641   5.369   2.075
 7266TIP3    H121751   7.560   5.332   2.116
 7266TIP3    H221752   7.697   5.289   2.085
 7267TIP3   OH221753   7.307   5.247   4.103
 7267TIP3    H121754   7.320   5.151   4.117
 7267TIP3    H221755   7.220   5.249   4.058
 7268TIP3   OH221756   7.284   4.895   2.294
 7268TIP3    H121757   7.342   4.876   2.369
 7268TIP3    H221758   7.349   4.896   2.220
 7269TIP3   OH221759   7.923   5.331   3.880
 7269TIP3    H121760   7.869   5.357   3.801
 7269TIP3    H221761   7.941   5.237   3.864
 7270TIP3   OH221762   7.750   5.124   2.117
 7270TIP3    H121763   7.782   5.122   2.209
 7270TIP3    H221764   7.808   5.057   2.075
 7271TIP3   OH221765   7.431   4.982   4.089
 7271TIP3    H121766   7.507   4.927   4.066
 7271TIP3    H221767   7.458   5.015   4.178
 7272TIP3   OH221768   7.507   4.775   2.535
 7272TIP3    H121769   7.464   4.785   2.623
 7272TIP3    H221770   7.491   4.680   2.521
 7273TIP3   OH221771   7.770   4.875   3.749
 7273TIP3    H121772   7.686   4.927   3.746
 7273TIP3    H221773   7.817   4.907   3.668
 7274TIP3   OH221774   7.622   4.564   2.313
 7274TIP3    H121775   7.531   4.594   2.298
 7274TIP3    H221776   7.632   4.504   2.235
 7275TIP3   OH221777   7.843   4.645   3.872
 7275TIP3    H121778   7.856   4.571   3.810
 7275TIP3    H221779   7.810   4.716   3.813
 7276TIP3   OH221780   7.877   4.454   3.676
 7276TIP3    H121781   7.902   4.471   3.584
 7276TIP3    H221782   7.784   4.423   3.666
 7277TIP3   OH221783   7.914   4.962   3.537
 7277TIP3    H121784   7.983   4.967   3.470
 7277TIP3    H221785   7.851   5.030   3.505
 7278TIP3   OH221786   7.761   4.754   4.110
 7278TIP3    H121787   7.693   4.687   4.135
 7278TIP3    H221788   7.786   4.721   4.021
 7279TIP3   OH221789   8.005   4.204   3.710
 7279TIP3    H121790   7.975   4.296   3.717
 7279TIP3    H221791   7.933   4.154   3.750
 7280TIP3   OH221792   8.090   4.752   3.931
 7280TIP3    H121793   8.105   4.705   4.015
 7280TIP3    H221794   8.007   4.710   3.903
 7281TIP3   OH221795   7.600   4.534   4.164
 7281TIP3    H121796   7.608   4.443   4.130
 7281TIP3    H221797   7.634   4.522   4.255
 7282TIP3   OH221798   8.074   4.355   4.131
 7282TIP3    H121799   8.155   4.334   4.081
 7282TIP3    H221800   8.079   4.451   4.141
 7283TIP3   OH221801   7.405   5.638   2.272
 7283TIP3    H121802   7.502   5.640   2.259
 7283TIP3    H221803   7.377   5.695   2.197
 7284TIP3   OH221804   6.879   5.035   2.481
 7284TIP3    H121805   6.974   5.056   2.466
 7284TIP3    H221806   6.871   4.948   2.438
 7285TIP3   OH221807   6.799   5.645   2.902
 7285TIP3    H121808   6.734   5.585   2.859
 7285TIP3    H221809   6.843   5.582   2.963
 7286TIP3   OH221810   6.933   5.484   3.085
 7286TIP3    H121811   6.918   5.421   3.157
 7286TIP3    H221812   6.986   5.551   3.132
 7287TIP3   OH221813   7.115   4.903   3.461
 7287TIP3    H121814   7.109   4.868   3.369
 7287TIP3    H221815   7.213   4.903   3.473
 7288TIP3   OH221816   7.336   4.590   4.127
 7288TIP3    H121817   7.434   4.586   4.136
 7288TIP3    H221818   7.313   4.503   4.165
 7289TIP3   OH221819   7.294   4.287   3.458
 7289TIP3    H121820   7.353   4.209   3.467
 7289TIP3    H221821   7.360   4.359   3.451
 7290TIP3   OH221822   7.094   4.554   3.532
 7290TIP3    H121823   7.145   4.554   3.448
 7290TIP3    H221824   7.119   4.639   3.570
 7291TIP3   OH221825   7.084   4.059   3.031
 7291TIP3    H121826   6.992   4.052   3.063
 7291TIP3    H221827   7.074   4.119   2.954
 7292TIP3   OH221828   7.301   4.134   3.845
 7292TIP3    H121829   7.253   4.137   3.929
 7292TIP3    H221830   7.237   4.177   3.785
 7293TIP3   OH221831   7.343   5.575   3.925
 7293TIP3    H121832   7.249   5.552   3.910
 7293TIP3    H221833   7.355   5.547   4.016
 7294TIP3   OH221834   7.525   5.607   3.474
 7294TIP3    H121835   7.477   5.683   3.434
 7294TIP3    H221836   7.610   5.619   3.426
 7295TIP3   OH221837   7.976   5.846   3.609
 7295TIP3    H121838   8.009   5.839   3.701
 7295TIP3    H221839   8.050   5.892   3.567
 7296TIP3   OH221840   7.196   5.857   3.502
 7296TIP3    H121841   7.104   5.884   3.478
 7296TIP3    H221842   7.214   5.918   3.574
 7297TIP3   OH221843   7.431   5.837   3.358
 7297TIP3    H121844   7.343   5.849   3.400
 7297TIP3    H221845   7.414   5.868   3.267
 7298TIP3   OH221846   7.844   5.848   3.162
 7298TIP3    H121847   7.783   5.880   3.093
 7298TIP3    H221848   7.880   5.930   3.199
 7299TIP3   OH221849   7.106   5.650   3.239
 7299TIP3    H121850   7.133   5.621   3.328
 7299TIP3    H221851   7.179   5.610   3.187
 7300TIP3   OH221852   7.304   5.525   3.102
 7300TIP3    H121853   7.319   5.443   3.154
 7300TIP3    H221854   7.395   5.562   3.099
 7301TIP3   OH221855   7.568   5.617   3.110
 7301TIP3    H121856   7.602   5.527   3.095
 7301TIP3    H221857   7.621   5.641   3.189
 7302TIP3   OH221858   7.386   3.981   3.201
 7302TIP3    H121859   7.293   3.950   3.204
 7302TIP3    H221860   7.432   3.895   3.202
 7303TIP3   OH221861   7.186   3.854   2.861
 7303TIP3    H121862   7.205   3.909   2.783
 7303TIP3    H221863   7.156   3.921   2.926
 7304TIP3   OH221864   7.824   4.031   3.070
 7304TIP3    H121865   7.906   4.060   3.028
 7304TIP3    H221866   7.844   4.060   3.162
 7305TIP3   OH221867   6.895   5.433   2.628
 7305TIP3    H121868   6.808   5.402   2.597
 7305TIP3    H221869   6.891   5.525   2.595
 7306TIP3   OH221870   7.277   3.999   2.616
 7306TIP3    H121871   7.326   3.933   2.564
 7306TIP3    H221872   7.350   4.060   2.643
 7307TIP3   OH221873   7.748   4.184   2.743
 7307TIP3    H121874   7.769   4.151   2.831
 7307TIP3    H221875   7.784   4.274   2.745
 7308TIP3   OH221876   7.680   5.609   2.222
 7308TIP3    H121877   7.730   5.676   2.174
 7308TIP3    H221878   7.674   5.536   2.157
 7309TIP3   OH221879   7.596   4.256   4.087
 7309TIP3    H121880   7.558   4.190   4.148
 7309TIP3    H221881   7.688   4.259   4.122
 7310TIP3   OH221882   7.836   4.270   4.221
 7310TIP3    H121883   7.924   4.301   4.188
 7310TIP3    H221884   7.862   4.190   4.269
 7311TIP3   OH221885   6.969   5.442   2.266
 7311TIP3    H121886   6.977   5.470   2.358
 7311TIP3    H221887   7.057   5.399   2.250
 7312TIP3   OH221888   0.557   5.758   4.481
 7312TIP3    H121889   0.548   5.854   4.461
 7312TIP3    H221890   0.489   5.722   4.422
 7313TIP3   OH221891   0.561   5.800   4.845
 7313TIP3    H121892   0.595   5.775   4.934
 7313TIP3    H221893   0.482   5.745   4.839
 7314TIP3   OH221894   0.780   6.093   4.539
 7314TIP3    H121895   0.781   6.019   4.602
 7314TIP3    H221896   0.816   6.166   4.593
 7315TIP3   OH221897   1.377   5.329   4.867
 7315TIP3    H121898   1.395   5.394   4.937
 7315TIP3    H221899   1.394   5.379   4.786
 7316TIP3   OH221900   0.763   5.511   4.932
 7316TIP3    H121901   0.792   5.418   4.944
 7316TIP3    H221902   0.743   5.511   4.837
 7317TIP3   OH221903   0.788   5.254   4.510
 7317TIP3    H121904   0.855   5.236   4.580
 7317TIP3    H221905   0.845   5.290   4.439
 7318TIP3   OH221906   1.437   5.514   5.065
 7318TIP3    H121907   1.364   5.578   5.061
 7318TIP3    H221908   1.415   5.462   5.145
 7319TIP3   OH221909   0.504   5.993   4.353
 7319TIP3    H121910   0.428   5.988   4.295
 7319TIP3    H221911   0.523   6.088   4.358
 7320TIP3   OH221912   0.983   5.256   4.697
 7320TIP3    H121913   0.949   5.233   4.786
 7320TIP3    H221914   1.039   5.333   4.717
 7321TIP3   OH221915   0.835   6.332   4.692
 7321TIP3    H121916   0.751   6.337   4.741
 7321TIP3    H221917   0.836   6.419   4.646
 7322TIP3   OH221918   0.463   4.868   5.052
 7322TIP3    H121919   0.446   4.772   5.040
 7322TIP3    H221920   0.377   4.897   5.085
 7323TIP3   OH221921   0.553   6.352   4.372
 7323TIP3    H121922   0.614   6.285   4.336
 7323TIP3    H221923   0.602   6.433   4.347
 7324TIP3   OH221924   0.722   6.163   4.277
 7324TIP3    H121925   0.707   6.077   4.234
 7324TIP3    H221926   0.757   6.136   4.365
 7325TIP3   OH221927   1.070   6.235   5.036
 7325TIP3    H121928   1.062   6.157   4.977
 7325TIP3    H221929   1.057   6.309   4.973
 7326TIP3   OH221930   0.411   5.628   4.284
 7326TIP3    H121931   0.327   5.633   4.237
 7326TIP3    H221932   0.474   5.615   4.209
 7327TIP3   OH221933   0.357   5.434   4.013
 7327TIP3    H121934   0.436   5.475   4.052
 7327TIP3    H221935   0.396   5.359   3.965
 7328TIP3   OH221936   1.287   5.877   4.885
 7328TIP3    H121937   1.196   5.910   4.895
 7328TIP3    H221938   1.306   5.903   4.793
 7329TIP3   OH221939   0.727   5.721   4.267
 7329TIP3    H121940   0.677   5.734   4.351
 7329TIP3    H221941   0.813   5.690   4.305
 7330TIP3   OH221942   0.614   6.338   4.862
 7330TIP3    H121943   0.647   6.374   4.947
 7330TIP3    H221944   0.609   6.244   4.888
 7331TIP3   OH221945   0.589   5.569   4.087
 7331TIP3    H121946   0.650   5.633   4.130
 7331TIP3    H221947   0.604   5.592   3.991
 7332TIP3   OH221948   1.080   4.826   4.154
 7332TIP3    H121949   0.997   4.837   4.207
 7332TIP3    H221950   1.075   4.904   4.095
 7333TIP3   OH221951   0.875   6.177   3.695
 7333TIP3    H121952   0.883   6.273   3.675
 7333TIP3    H221953   0.967   6.147   3.680
 7334TIP3   OH221954   1.313   6.585   5.083
 7334TIP3    H121955   1.316   6.490   5.105
 7334TIP3    H221956   1.233   6.612   5.133
 7335TIP3   OH221957   0.376   6.349   3.836
 7335TIP3    H121958   0.450   6.304   3.789
 7335TIP3    H221959   0.423   6.403   3.902
 7336TIP3   OH221960   0.458   6.474   4.106
 7336TIP3    H121961   0.417   6.527   4.177
 7336TIP3    H221962   0.549   6.467   4.142
 7337TIP3   OH221963   0.755   5.054   5.362
 7337TIP3    H121964   0.832   5.030   5.418
 7337TIP3    H221965   0.680   5.028   5.419
 7338TIP3   OH221966   0.949   5.556   5.277
 7338TIP3    H121967   0.926   5.500   5.354
 7338TIP3    H221968   0.903   5.505   5.207
 7339TIP3   OH221969   0.634   5.623   3.831
 7339TIP3    H121970   0.593   5.599   3.745
 7339TIP3    H221971   0.721   5.657   3.801
 7340TIP3   OH221972   0.318   4.994   4.124
 7340TIP3    H121973   0.304   4.987   4.221
 7340TIP3    H221974   0.277   4.910   4.096
 7341TIP3   OH221975   0.530   5.433   4.437
 7341TIP3    H121976   0.488   5.504   4.386
 7341TIP3    H221977   0.584   5.389   4.368
 7342TIP3   OH221978   0.704   5.725   5.513
 7342TIP3    H121979   0.665   5.650   5.562
 7342TIP3    H221980   0.797   5.720   5.540
 7343TIP3   OH221981   0.677   5.461   4.673
 7343TIP3    H121982   0.612   5.486   4.605
 7343TIP3    H221983   0.709   5.378   4.632
 7344TIP3   OH221984   0.663   5.723   5.081
 7344TIP3    H121985   0.706   5.642   5.047
 7344TIP3    H221986   0.603   5.689   5.149
 7345TIP3   OH221987   0.367   5.193   4.744
 7345TIP3    H121988   0.341   5.140   4.820
 7345TIP3    H221989   0.414   5.267   4.788
 7346TIP3   OH221990   0.803   5.245   4.943
 7346TIP3    H121991   0.807   5.245   5.041
 7346TIP3    H221992   0.731   5.180   4.926
 7347TIP3   OH221993   1.026   6.935   5.161
 7347TIP3    H121994   1.029   6.949   5.064
 7347TIP3    H221995   1.112   6.977   5.187
 7348TIP3   OH221996   0.487   5.405   4.875
 7348TIP3    H121997   0.564   5.428   4.820
 7348TIP3    H221998   0.527   5.393   4.962
 7349TIP3   OH221999   0.419   5.402   5.167
 7349TIP3    H122000   0.351   5.470   5.177
 7349TIP3    H222001   0.496   5.447   5.208
 7350TIP3   OH222002   1.041   6.016   4.868
 7350TIP3    H122003   1.070   6.067   4.789
 7350TIP3    H222004   0.958   5.975   4.836
 7351TIP3   OH222005   0.580   5.092   4.113
 7351TIP3    H122006   0.483   5.077   4.119
 7351TIP3    H222007   0.591   5.185   4.140
 7352TIP3   OH222008   0.666   5.338   4.216
 7352TIP3    H122009   0.762   5.339   4.233
 7352TIP3    H222010   0.653   5.418   4.162
 7353TIP3   OH222011   0.673   6.407   5.125
 7353TIP3    H122012   0.607   6.350   5.168
 7353TIP3    H222013   0.719   6.439   5.206
 7354TIP3   OH222014   1.099   5.440   4.046
 7354TIP3    H122015   1.038   5.397   3.982
 7354TIP3    H222016   1.097   5.530   4.005
 7355TIP3   OH222017   1.323   6.295   5.123
 7355TIP3    H122018   1.226   6.288   5.118
 7355TIP3    H222019   1.348   6.268   5.031
 7356TIP3   OH222020   0.794   6.257   3.952
 7356TIP3    H122021   0.785   6.186   4.016
 7356TIP3    H222022   0.816   6.211   3.869
 7357TIP3   OH222023   0.806   5.897   4.762
 7357TIP3    H122024   0.718   5.862   4.786
 7357TIP3    H222025   0.846   5.815   4.725
 7358TIP3   OH222026   0.644   6.089   4.983
 7358TIP3    H122027   0.622   6.030   5.056
 7358TIP3    H222028   0.689   6.028   4.924
 7359TIP3   OH222029   0.570   5.984   3.850
 7359TIP3    H122030   0.614   5.957   3.933
 7359TIP3    H222031   0.481   5.945   3.861
 7360TIP3   OH222032   0.852   6.613   5.018
 7360TIP3    H122033   0.770   6.575   5.053
 7360TIP3    H222034   0.819   6.682   4.956
 7361TIP3   OH222035   0.902   6.452   3.671
 7361TIP3    H122036   0.938   6.525   3.619
 7361TIP3    H222037   0.822   6.496   3.706
 7362TIP3   OH222038   0.724   5.920   4.077
 7362TIP3    H122039   0.716   5.854   4.149
 7362TIP3    H222040   0.820   5.911   4.057
 7363TIP3   OH222041   0.807   5.282   5.221
 7363TIP3    H122042   0.876   5.293   5.287
 7363TIP3    H222043   0.762   5.204   5.260
 7364TIP3   OH222044   0.656   5.033   4.394
 7364TIP3    H122045   0.630   5.060   4.304
 7364TIP3    H222046   0.690   5.117   4.432
 7365TIP3   OH222047   0.383   5.204   4.473
 7365TIP3    H122048   0.436   5.286   4.467
 7365TIP3    H222049   0.363   5.205   4.569
 7366TIP3   OH222050   0.619   5.521   5.303
 7366TIP3    H122051   0.618   5.598   5.362
 7366TIP3    H222052   0.685   5.463   5.345
 7367TIP3   OH222053   0.480   4.939   4.597
 7367TIP3    H122054   0.479   5.011   4.662
 7367TIP3    H222055   0.536   4.980   4.527
 7368TIP3   OH222056   0.887   5.649   4.660
 7368TIP3    H122057   0.809   5.592   4.671
 7368TIP3    H222058   0.957   5.599   4.708
 7369TIP3   OH222059   0.853   6.598   4.612
 7369TIP3    H122060   0.809   6.648   4.539
 7369TIP3    H222061   0.947   6.620   4.594
 7370TIP3   OH222062   0.756   6.481   5.374
 7370TIP3    H122063   0.747   6.426   5.454
 7370TIP3    H222064   0.827   6.542   5.401
 7371TIP3   OH222065   0.531   6.199   3.671
 7371TIP3    H122066   0.576   6.134   3.728
 7371TIP3    H222067   0.583   6.195   3.589
 7372TIP3   OH222068   0.306   5.890   3.857
 7372TIP3    H122069   0.222   5.884   3.904
 7372TIP3    H222070   0.317   5.795   3.831
 7373TIP3   OH222071   0.865   6.138   5.191
 7373TIP3    H122072   0.944   6.176   5.146
 7373TIP3    H222073   0.794   6.185   5.147
 7374TIP3   OH222074   0.745   6.065   5.602
 7374TIP3    H122075   0.811   6.027   5.544
 7374TIP3    H222076   0.745   6.000   5.675
 7375TIP3   OH222077   0.866   5.709   3.718
 7375TIP3    H122078   0.848   5.666   3.632
 7375TIP3    H222079   0.832   5.799   3.698
 7376TIP3   OH222080   0.992   5.718   5.595
 7376TIP3    H122081   0.999   5.642   5.656
 7376TIP3    H222082   1.028   5.788   5.651
 7377TIP3   OH222083   1.006   5.975   5.349
 7377TIP3    H122084   0.937   6.027   5.300
 7377TIP3    H222085   1.086   6.016   5.308
 7378TIP3   OH222086   0.498   4.986   5.447
 7378TIP3    H122087   0.446   5.061   5.413
 7378TIP3    H222088   0.438   4.914   5.424
 7379TIP3   OH222089   0.620   5.491   5.633
 7379TIP3    H122090   0.629   5.500   5.729
 7379TIP3    H222091   0.530   5.456   5.625
 7380TIP3   OH222092   0.851   5.422   5.486
 7380TIP3    H122093   0.777   5.428   5.549
 7380TIP3    H222094   0.926   5.396   5.544
 7381TIP3   OH222095   1.063   5.381   5.651
 7381TIP3    H122096   1.083   5.286   5.672
 7381TIP3    H222097   1.054   5.420   5.739
 7382TIP3   OH222098   0.586   4.995   5.707
 7382TIP3    H122099   0.650   4.921   5.703
 7382TIP3    H222100   0.546   4.989   5.618
 7383TIP3   OH222101   0.582   5.221   5.850
 7383TIP3    H122102   0.601   5.132   5.812
 7383TIP3    H222103   0.509   5.245   5.791
 7384TIP3   OH222104   1.110   6.688   4.579
 7384TIP3    H122105   1.139   6.717   4.667
 7384TIP3    H222106   1.180   6.720   4.521
 7385TIP3   OH222107   1.150   6.702   4.862
 7385TIP3    H122108   1.102   6.617   4.855
 7385TIP3    H222109   1.223   6.675   4.920
 7386TIP3   OH222110   1.190   6.386   5.421
 7386TIP3    H122111   1.123   6.397   5.492
 7386TIP3    H222112   1.238   6.471   5.428
 7387TIP3   OH222113   1.001   5.896   4.049
 7387TIP3    H122114   1.067   5.960   4.016
 7387TIP3    H222115   1.048   5.859   4.127
 7388TIP3   OH222116   1.132   5.763   4.252
 7388TIP3    H122117   1.067   5.720   4.311
 7388TIP3    H222118   1.199   5.797   4.315
 7389TIP3   OH222119   1.186   6.157   4.681
 7389TIP3    H122120   1.242   6.087   4.640
 7389TIP3    H222121   1.191   6.228   4.614
 7390TIP3   OH222122   1.020   6.453   4.871
 7390TIP3    H122123   0.951   6.502   4.922
 7390TIP3    H222124   0.967   6.410   4.801
 7391TIP3   OH222125   1.069   5.672   3.898
 7391TIP3    H122126   0.998   5.673   3.830
 7391TIP3    H222127   1.039   5.748   3.953
 7392TIP3   OH222128   0.935   5.344   3.852
 7392TIP3    H122129   0.897   5.374   3.769
 7392TIP3    H222130   0.913   5.248   3.848
 7393TIP3   OH222131   0.946   5.620   4.395
 7393TIP3    H122132   0.952   5.523   4.389
 7393TIP3    H222133   0.930   5.634   4.491
 7394TIP3   OH222134   1.245   6.050   5.249
 7394TIP3    H122135   1.304   5.972   5.243
 7394TIP3    H222136   1.283   6.113   5.186
 7395TIP3   OH222137   1.387   5.815   5.294
 7395TIP3    H122138   1.401   5.736   5.349
 7395TIP3    H222139   1.478   5.820   5.261
 7396TIP3   OH222140   0.877   5.079   3.835
 7396TIP3    H122141   0.949   5.043   3.891
 7396TIP3    H222142   0.802   5.019   3.851
 7397TIP3   OH222143   0.941   5.338   4.286
 7397TIP3    H122144   0.983   5.249   4.300
 7397TIP3    H222145   0.998   5.371   4.214
 7398TIP3   OH222146   1.093   5.504   4.773
 7398TIP3    H122147   1.182   5.534   4.741
 7398TIP3    H222148   1.112   5.491   4.867
 7399TIP3   OH222149   1.616   5.244   5.565
 7399TIP3    H122150   1.682   5.182   5.528
 7399TIP3    H222151   1.598   5.302   5.489
 7400TIP3   OH222152   1.050   5.088   4.330
 7400TIP3    H122153   1.097   5.067   4.414
 7400TIP3    H222154   0.985   5.014   4.328
 7401TIP3   OH222155   1.502   5.414   5.385
 7401TIP3    H122156   1.439   5.442   5.454
 7401TIP3    H222157   1.446   5.349   5.335
 7402TIP3   OH222158   1.120   5.016   3.961
 7402TIP3    H122159   1.157   4.946   3.903
 7402TIP3    H222160   1.189   5.085   3.958
 7403TIP3   OH222161   0.694   6.545   4.229
 7403TIP3    H122162   0.756   6.541   4.153
 7403TIP3    H222163   0.738   6.610   4.287
 7404TIP3   OH222164   0.811   6.795   4.810
 7404TIP3    H122165   0.776   6.871   4.759
 7404TIP3    H222166   0.816   6.726   4.740
 7405TIP3   OH222167   0.610   5.054   4.887
 7405TIP3    H122168   0.564   4.980   4.931
 7405TIP3    H222169   0.683   5.008   4.840
 7406TIP3   OH222170   1.108   4.923   4.769
 7406TIP3    H122171   1.144   4.991   4.708
 7406TIP3    H222172   1.018   4.957   4.784
 7407TIP3   OH222173   1.221   5.041   4.543
 7407TIP3    H122174   1.307   5.009   4.571
 7407TIP3    H222175   1.244   5.135   4.522
 7408TIP3   OH222176   0.311   4.770   4.795
 7408TIP3    H122177   0.368   4.803   4.724
 7408TIP3    H222178   0.251   4.845   4.808
 7409TIP3   OH222179   0.828   4.943   4.757
 7409TIP3    H122180   0.832   4.899   4.671
 7409TIP3    H222181   0.820   4.867   4.819
 7410TIP3   OH222182   0.869   4.873   4.325
 7410TIP3    H122183   0.786   4.920   4.348
 7410TIP3    H222184   0.854   4.787   4.369
 7411TIP3   OH222185   0.290   4.958   4.393
 7411TIP3    H122186   0.344   4.928   4.467
 7411TIP3    H222187   0.293   5.054   4.409
 7412TIP3   OH222188   0.840   6.521   3.998
 7412TIP3    H122189   0.829   6.424   3.985
 7412TIP3    H222190   0.798   6.556   3.917
 7413TIP3   OH222191   1.127   5.116   5.696
 7413TIP3    H122192   1.146   5.083   5.787
 7413TIP3    H222193   1.215   5.108   5.654
 7414TIP3   OH222194   1.070   6.665   5.183
 7414TIP3    H122195   0.997   6.636   5.125
 7414TIP3    H222196   1.057   6.762   5.181
 7415TIP3   OH222197   2.337   6.039   3.939
 7415TIP3    H122198   2.307   6.130   3.920
 7415TIP3    H222199   2.257   5.990   3.915
 7416TIP3   OH222200   2.341   6.023   4.337
 7416TIP3    H122201   2.376   6.018   4.428
 7416TIP3    H222202   2.297   5.937   4.328
 7417TIP3   OH222203   1.626   5.924   4.699
 7417TIP3    H122204   1.655   5.853   4.760
 7417TIP3    H222205   1.703   5.983   4.702
 7418TIP3   OH222206   2.582   6.331   4.022
 7418TIP3    H122207   2.565   6.276   4.100
 7418TIP3    H222208   2.612   6.415   4.064
 7419TIP3   OH222209   1.604   6.341   4.414
 7419TIP3    H122210   1.597   6.243   4.416
 7419TIP3    H222211   1.701   6.351   4.410
 7420TIP3   OH222212   1.310   5.537   4.196
 7420TIP3    H122213   1.266   5.620   4.220
 7420TIP3    H222214   1.238   5.491   4.150
 7421TIP3   OH222215   1.365   5.828   4.384
 7421TIP3    H122216   1.417   5.752   4.416
 7421TIP3    H222217   1.430   5.874   4.328
 7422TIP3   OH222218   2.230   6.800   4.032
 7422TIP3    H122219   2.270   6.727   3.980
 7422TIP3    H222220   2.222   6.760   4.119
 7423TIP3   OH222221   2.127   6.265   4.378
 7423TIP3    H122222   2.169   6.192   4.330
 7423TIP3    H222223   2.209   6.311   4.409
 7424TIP3   OH222224   3.150   5.581   4.384
 7424TIP3    H122225   3.177   5.664   4.427
 7424TIP3    H222226   3.165   5.603   4.290
 7425TIP3   OH222227   2.562   5.774   4.410
 7425TIP3    H122228   2.603   5.688   4.434
 7425TIP3    H222229   2.502   5.746   4.341
 7426TIP3   OH222230   1.892   5.423   4.370
 7426TIP3    H122231   1.867   5.496   4.310
 7426TIP3    H222232   1.839   5.351   4.331
 7427TIP3   OH222233   1.517   5.625   4.484
 7427TIP3    H122234   1.599   5.607   4.533
 7427TIP3    H222235   1.532   5.569   4.405
 7428TIP3   OH222236   1.955   5.822   4.279
 7428TIP3    H122237   2.049   5.798   4.290
 7428TIP3    H222238   1.916   5.738   4.247
 7429TIP3   OH222239   3.226   5.795   4.547
 7429TIP3    H122240   3.136   5.832   4.535
 7429TIP3    H222241   3.236   5.805   4.643
 7430TIP3   OH222242   1.881   5.406   4.810
 7430TIP3    H122243   1.819   5.444   4.745
 7430TIP3    H222244   1.828   5.417   4.893
 7431TIP3   OH222245   2.222   6.257   3.812
 7431TIP3    H122246   2.180   6.248   3.725
 7431TIP3    H222247   2.176   6.337   3.845
 7432TIP3   OH222248   1.983   6.183   4.598
 7432TIP3    H122249   1.926   6.254   4.635
 7432TIP3    H222250   2.028   6.230   4.524
 7433TIP3   OH222251   2.728   5.574   4.139
 7433TIP3    H122252   2.733   5.505   4.207
 7433TIP3    H222253   2.794   5.637   4.177
 7434TIP3   OH222254   1.755   5.523   4.590
 7434TIP3    H122255   1.816   5.595   4.618
 7434TIP3    H222256   1.808   5.483   4.518
 7435TIP3   OH222257   1.816   6.382   4.701
 7435TIP3    H122258   1.792   6.471   4.668
 7435TIP3    H222259   1.737   6.363   4.756
 7436TIP3   OH222260   1.200   6.068   3.937
 7436TIP3    H122261   1.164   6.095   3.851
 7436TIP3    H222262   1.233   6.153   3.972
 7437TIP3   OH222263   2.641   6.580   4.167
 7437TIP3    H122264   2.553   6.575   4.211
 7437TIP3    H222265   2.636   6.670   4.128
 7438TIP3   OH222266   2.938   5.471   4.539
 7438TIP3    H122267   2.857   5.516   4.510
 7438TIP3    H222268   3.006   5.511   4.480
 7439TIP3   OH222269   2.225   5.117   4.527
 7439TIP3    H122270   2.210   5.024   4.552
 7439TIP3    H222271   2.150   5.160   4.576
 7440TIP3   OH222272   2.342   6.625   3.845
 7440TIP3    H122273   2.395   6.544   3.829
 7440TIP3    H222274   2.404   6.692   3.808
 7441TIP3   OH222275   2.491   6.408   3.771
 7441TIP3    H122276   2.443   6.332   3.737
 7441TIP3    H222277   2.528   6.373   3.855
 7442TIP3   OH222278   2.869   6.489   4.527
 7442TIP3    H122279   2.857   6.415   4.463
 7442TIP3    H222280   2.849   6.567   4.470
 7443TIP3   OH222281   2.167   5.876   3.795
 7443TIP3    H122282   2.087   5.930   3.779
 7443TIP3    H222283   2.205   5.873   3.705
 7444TIP3   OH222284   2.123   5.672   3.492
 7444TIP3    H122285   2.188   5.731   3.533
 7444TIP3    H222286   2.183   5.610   3.445
 7445TIP3   OH222287   3.066   6.136   4.369
 7445TIP3    H122288   2.982   6.186   4.372
 7445TIP3    H222289   3.097   6.159   4.279
 7446TIP3   OH222290   2.522   5.966   3.759
 7446TIP3    H122291   2.454   5.982   3.828
 7446TIP3    H222292   2.593   6.023   3.792
 7447TIP3   OH222293   2.745   6.006   4.678
 7447TIP3    H122294   2.746   6.089   4.731
 7447TIP3    H222295   2.658   6.013   4.635
 7448TIP3   OH222296   1.742   5.965   4.170
 7448TIP3    H122297   1.702   5.907   4.102
 7448TIP3    H222298   1.819   5.912   4.201
 7449TIP3   OH222299   1.872   6.379   4.315
 7449TIP3    H122300   1.855   6.350   4.224
 7449TIP3    H222301   1.960   6.342   4.334
 7450TIP3   OH222302   1.877   5.939   4.524
 7450TIP3    H122303   1.911   5.916   4.435
 7450TIP3    H222304   1.920   6.025   4.542
 7451TIP3   OH222305   2.406   6.576   4.301
 7451TIP3    H122306   2.392   6.660   4.349
 7451TIP3    H222307   2.385   6.509   4.369
 7452TIP3   OH222308   2.020   6.494   4.849
 7452TIP3    H122309   1.958   6.555   4.896
 7452TIP3    H222310   1.956   6.441   4.797
 7453TIP3   OH222311   2.350   5.823   3.578
 7453TIP3    H122312   2.410   5.885   3.624
 7453TIP3    H222313   2.373   5.843   3.484
 7454TIP3   OH222314   1.778   6.050   4.952
 7454TIP3    H122315   1.783   6.139   4.992
 7454TIP3    H222316   1.683   6.031   4.966
 7455TIP3   OH222317   2.100   6.500   3.854
 7455TIP3    H122318   2.183   6.552   3.857
 7455TIP3    H222319   2.039   6.561   3.812
 7456TIP3   OH222320   1.811   6.655   4.938
 7456TIP3    H122321   1.773   6.663   4.848
 7456TIP3    H222322   1.731   6.636   4.993
 7457TIP3   OH222323   2.870   5.066   3.631
 7457TIP3    H122324   2.787   5.090   3.677
 7457TIP3    H222325   2.885   5.145   3.576
 7458TIP3   OH222326   1.611   5.809   3.970
 7458TIP3    H122327   1.541   5.855   3.919
 7458TIP3    H222328   1.572   5.722   3.983
 7459TIP3   OH222329   2.668   6.434   3.180
 7459TIP3    H122330   2.676   6.530   3.162
 7459TIP3    H222331   2.761   6.404   3.166
 7460TIP3   OH222332   1.388   6.196   4.880
 7460TIP3    H122333   1.320   6.172   4.814
 7460TIP3    H222334   1.428   6.109   4.903
 7461TIP3   OH222335   1.248   6.387   4.512
 7461TIP3    H122336   1.344   6.379   4.502
 7461TIP3    H222337   1.242   6.461   4.574
 7462TIP3   OH222338   3.109   6.827   4.579
 7462TIP3    H122339   3.106   6.732   4.602
 7462TIP3    H222340   3.027   6.859   4.622
 7463TIP3   OH222341   2.213   6.623   4.705
 7463TIP3    H122342   2.208   6.716   4.738
 7463TIP3    H222343   2.142   6.581   4.760
 7464TIP3   OH222344   1.982   6.748   3.659
 7464TIP3    H122345   1.933   6.735   3.576
 7464TIP3    H222346   1.949   6.835   3.690
 7465TIP3   OH222347   1.415   6.599   4.045
 7465TIP3    H122348   1.462   6.592   4.131
 7465TIP3    H222349   1.368   6.513   4.043
 7466TIP3   OH222350   2.176   6.655   3.294
 7466TIP3    H122351   2.234   6.585   3.258
 7466TIP3    H222352   2.212   6.667   3.384
 7467TIP3   OH222353   2.231   6.705   3.562
 7467TIP3    H122354   2.143   6.713   3.604
 7467TIP3    H222355   2.285   6.675   3.637
 7468TIP3   OH222356   2.998   5.969   4.859
 7468TIP3    H122357   2.916   5.980   4.809
 7468TIP3    H222358   3.020   5.876   4.836
 7469TIP3   OH222359   1.595   6.377   4.862
 7469TIP3    H122360   1.643   6.364   4.947
 7469TIP3    H222361   1.520   6.315   4.872
 7470TIP3   OH222362   1.996   5.204   4.659
 7470TIP3    H122363   1.907   5.173   4.632
 7470TIP3    H222364   1.969   5.281   4.713
 7471TIP3   OH222365   2.532   5.309   4.854
 7471TIP3    H122366   2.602   5.286   4.919
 7471TIP3    H222367   2.450   5.295   4.904
 7472TIP3   OH222368   2.749   5.737   4.760
 7472TIP3    H122369   2.704   5.737   4.847
 7472TIP3    H222370   2.739   5.829   4.731
 7473TIP3   OH222371   2.431   5.868   3.327
 7473TIP3    H122372   2.389   5.851   3.240
 7473TIP3    H222373   2.516   5.908   3.299
 7474TIP3   OH222374   2.138   5.240   3.629
 7474TIP3    H122375   2.096   5.238   3.718
 7474TIP3    H222376   2.095   5.161   3.590
 7475TIP3   OH222377   1.929   5.718   4.675
 7475TIP3    H122378   1.879   5.737   4.757
 7475TIP3    H222379   1.911   5.801   4.624
 7476TIP3   OH222380   1.811   5.604   4.186
 7476TIP3    H122381   1.718   5.581   4.207
 7476TIP3    H222382   1.819   5.562   4.098
 7477TIP3   OH222383   2.345   5.684   3.921
 7477TIP3    H122384   2.285   5.760   3.906
 7477TIP3    H222385   2.353   5.651   3.829
 7478TIP3   OH222386   2.473   5.962   4.999
 7478TIP3    H122387   2.450   5.890   5.062
 7478TIP3    H222388   2.568   5.974   5.022
 7479TIP3   OH222389   1.746   5.741   4.882
 7479TIP3    H122390   1.783   5.800   4.949
 7479TIP3    H222391   1.733   5.658   4.933
 7480TIP3   OH222392   1.799   5.226   3.593
 7480TIP3    H122393   1.782   5.225   3.689
 7480TIP3    H222394   1.721   5.277   3.562
 7481TIP3   OH222395   1.340   5.267   4.462
 7481TIP3    H122396   1.407   5.304   4.524
 7481TIP3    H222397   1.389   5.267   4.379
 7482TIP3   OH222398   1.301   5.245   3.994
 7482TIP3    H122399   1.345   5.280   3.914
 7482TIP3    H222400   1.238   5.318   4.010
 7483TIP3   OH222401   2.464   5.961   4.577
 7483TIP3    H122402   2.504   5.892   4.519
 7483TIP3    H222403   2.432   5.905   4.651
 7484TIP3   OH222404   2.150   5.445   4.255
 7484TIP3    H122405   2.067   5.433   4.306
 7484TIP3    H222406   2.216   5.403   4.314
 7485TIP3   OH222407   1.572   5.486   4.252
 7485TIP3    H122408   1.478   5.493   4.223
 7485TIP3    H222409   1.596   5.394   4.227
 7486TIP3   OH222410   1.833   5.474   3.947
 7486TIP3    H122411   1.924   5.492   3.919
 7486TIP3    H222412   1.782   5.495   3.865
 7487TIP3   OH222413   2.618   5.503   4.444
 7487TIP3    H122414   2.597   5.515   4.540
 7487TIP3    H222415   2.552   5.438   4.419
 7488TIP3   OH222416   1.691   5.510   3.720
 7488TIP3    H122417   1.623   5.463   3.669
 7488TIP3    H222418   1.743   5.551   3.648
 7489TIP3   OH222419   2.817   7.191   4.649
 7489TIP3    H122420   2.770   7.219   4.570
 7489TIP3    H222421   2.900   7.243   4.633
 7490TIP3   OH222422   1.759   6.297   5.087
 7490TIP3    H122423   1.837   6.329   5.136
 7490TIP3    H222424   1.692   6.298   5.159
 7491TIP3   OH222425   2.223   5.743   4.354
 7491TIP3    H122426   2.227   5.652   4.320
 7491TIP3    H222427   2.215   5.725   4.450
 7492TIP3   OH222428   1.736   5.244   4.228
 7492TIP3    H122429   1.712   5.167   4.284
 7492TIP3    H222430   1.777   5.200   4.152
 7493TIP3   OH222431   2.196   5.673   4.618
 7493TIP3    H122432   2.106   5.697   4.647
 7493TIP3    H222433   2.253   5.722   4.680
 7494TIP3   OH222434   1.939   6.030   3.735
 7494TIP3    H122435   1.863   5.971   3.719
 7494TIP3    H222436   1.914   6.069   3.823
 7495TIP3   OH222437   2.830   6.280   4.349
 7495TIP3    H122438   2.861   6.334   4.273
 7495TIP3    H222439   2.743   6.248   4.318
 7496TIP3   OH222440   2.386   5.336   3.613
 7496TIP3    H122441   2.290   5.312   3.609
 7496TIP3    H222442   2.383   5.433   3.604
 7497TIP3   OH222443   2.322   6.356   4.731
 7497TIP3    H122444   2.365   6.345   4.817
 7497TIP3    H222445   2.291   6.448   4.734
 7498TIP3   OH222446   2.473   5.605   3.694
 7498TIP3    H122447   2.566   5.602   3.665
 7498TIP3    H222448   2.438   5.678   3.638
 7499TIP3   OH222449   1.624   6.062   4.403
 7499TIP3    H122450   1.665   6.034   4.319
 7499TIP3    H222451   1.673   6.009   4.468
 7500TIP3   OH222452   2.081   6.189   3.562
 7500TIP3    H122453   2.029   6.273   3.561
 7500TIP3    H222454   2.026   6.133   3.622
 7501TIP3   OH222455   1.515   5.988   5.018
 7501TIP3    H122456   1.543   5.973   5.110
 7501TIP3    H222457   1.447   5.920   5.001
 7502TIP3   OH222458   2.235   6.102   5.036
 7502TIP3    H122459   2.172   6.037   5.002
 7502TIP3    H222460   2.321   6.063   5.008
 7503TIP3   OH222461   2.487   6.610   4.633
 7503TIP3    H122462   2.391   6.617   4.643
 7503TIP3    H222463   2.517   6.667   4.706
 7504TIP3   OH222464   2.893   5.700   3.535
 7504TIP3    H122465   2.832   5.655   3.472
 7504TIP3    H222466   2.891   5.788   3.492
 7505TIP3   OH222467   3.119   6.540   4.618
 7505TIP3    H122468   3.022   6.537   4.606
 7505TIP3    H222469   3.147   6.517   4.527
 7506TIP3   OH222470   2.608   6.512   3.444
 7506TIP3    H122471   2.571   6.444   3.502
 7506TIP3    H222472   2.617   6.466   3.359
 7507TIP3   OH222473   2.589   6.147   4.271
 7507TIP3    H122474   2.494   6.127   4.276
 7507TIP3    H222475   2.626   6.061   4.293
 7508TIP3   OH222476   1.731   6.370   4.030
 7508TIP3    H122477   1.726   6.451   3.976
 7508TIP3    H222478   1.638   6.352   4.047
 7509TIP3   OH222479   1.298   5.667   3.743
 7509TIP3    H122480   1.339   5.754   3.763
 7509TIP3    H222481   1.218   5.672   3.801
 7510TIP3   OH222482   1.855   6.129   3.972
 7510TIP3    H122483   1.824   6.220   3.990
 7510TIP3    H222484   1.819   6.080   4.048
 7511TIP3   OH222485   2.000   6.709   4.496
 7511TIP3    H122486   2.042   6.783   4.447
 7511TIP3    H222487   2.076   6.673   4.545
 7512TIP3   OH222488   1.645   6.607   3.883
 7512TIP3    H122489   1.560   6.618   3.930
 7512TIP3    H222490   1.679   6.699   3.887
 7513TIP3   OH222491   2.376   6.341   4.465
 7513TIP3    H122492   2.362   6.342   4.562
 7513TIP3    H222493   2.466   6.305   4.460
 7514TIP3   OH222494   2.362   6.244   3.341
 7514TIP3    H122495   2.413   6.217   3.421
 7514TIP3    H222496   2.273   6.212   3.364
 7515TIP3   OH222497   2.632   6.875   4.504
 7515TIP3    H122498   2.549   6.824   4.497
 7515TIP3    H222499   2.618   6.942   4.433
 7516TIP3   OH222500   2.697   6.709   3.159
 7516TIP3    H122501   2.728   6.783   3.104
 7516TIP3    H222502   2.617   6.751   3.199
 7517TIP3   OH222503   1.715   5.486   5.020
 7517TIP3    H122504   1.618   5.488   5.033
 7517TIP3    H222505   1.743   5.436   5.098
 7518TIP3   OH222506   2.523   6.169   3.553
 7518TIP3    H122507   2.512   6.098   3.618
 7518TIP3    H222508   2.620   6.168   3.541
 7519TIP3   OH222509   1.433   6.570   4.657
 7519TIP3    H122510   1.490   6.504   4.700
 7519TIP3    H222511   1.457   6.650   4.706
 7520TIP3   OH222512   1.724   6.217   3.344
 7520TIP3    H122513   1.733   6.124   3.318
 7520TIP3    H222514   1.701   6.209   3.439
 7521TIP3   OH222515   1.664   6.224   3.616
 7521TIP3    H122516   1.740   6.199   3.670
 7521TIP3    H222517   1.665   6.322   3.623
 7522TIP3   OH222518   1.399   5.915   3.822
 7522TIP3    H122519   1.332   5.960   3.876
 7522TIP3    H222520   1.412   5.982   3.752
 7523TIP3   OH222521   2.559   5.541   4.704
 7523TIP3    H122522   2.633   5.593   4.740
 7523TIP3    H222523   2.553   5.466   4.767
 7524TIP3   OH222524   2.433   5.312   3.880
 7524TIP3    H122525   2.394   5.306   3.790
 7524TIP3    H222526   2.510   5.366   3.860
 7525TIP3   OH222527   1.936   6.416   3.563
 7525TIP3    H122528   1.848   6.441   3.599
 7525TIP3    H222529   1.952   6.493   3.506
 7526TIP3   OH222530   2.126   5.490   3.982
 7526TIP3    H122531   2.193   5.559   3.970
 7526TIP3    H222532   2.126   5.479   4.080
 7527TIP3   OH222533   2.396   5.797   4.784
 7527TIP3    H122534   2.419   5.854   4.861
 7527TIP3    H222535   2.449   5.718   4.803
 7528TIP3   OH222536   2.262   5.202   4.075
 7528TIP3    H122537   2.267   5.272   4.142
 7528TIP3    H222538   2.324   5.240   4.008
 7529TIP3   OH222539   1.683   6.494   3.636
 7529TIP3    H122540   1.654   6.565   3.575
 7529TIP3    H222541   1.668   6.537   3.723
 7530TIP3   OH222542   1.777   5.209   3.870
 7530TIP3    H122543   1.774   5.300   3.906
 7530TIP3    H222544   1.873   5.194   3.874
 7531TIP3   OH222545   3.023   5.720   4.746
 7531TIP3    H122546   2.927   5.706   4.749
 7531TIP3    H222547   3.055   5.634   4.717
 7532TIP3   OH222548   1.399   6.115   3.622
 7532TIP3    H122549   1.473   6.179   3.631
 7532TIP3    H222550   1.439   6.055   3.556
 7533TIP3   OH222551   1.334   5.394   3.767
 7533TIP3    H122552   1.339   5.492   3.764
 7533TIP3    H222553   1.267   5.377   3.699
 7534TIP3   OH222554   2.655   6.850   4.097
 7534TIP3    H122555   2.611   6.897   4.023
 7534TIP3    H222556   2.749   6.871   4.076
 7535TIP3   OH222557   1.734   5.122   4.631
 7535TIP3    H122558   1.708   5.084   4.545
 7535TIP3    H222559   1.725   5.045   4.691
 7536TIP3   OH222560   1.258   6.333   4.002
 7536TIP3    H122561   1.206   6.366   4.076
 7536TIP3    H222562   1.219   6.382   3.926
 7537TIP3   OH222563   1.433   6.891   5.082
 7537TIP3    H122564   1.518   6.896   5.132
 7537TIP3    H222565   1.419   6.795   5.082
 7538TIP3   OH222566   1.898   6.839   5.125
 7538TIP3    H122567   1.993   6.827   5.132
 7538TIP3    H222568   1.875   6.773   5.057
 7539TIP3   OH222569   1.886   6.420   3.249
 7539TIP3    H122570   1.834   6.345   3.288
 7539TIP3    H222571   1.961   6.371   3.211
 7540TIP3   OH222572   2.542   6.753   4.861
 7540TIP3    H122573   2.539   6.684   4.931
 7540TIP3    H222574   2.619   6.807   4.889
 7541TIP3   OH222575   2.320   6.457   3.166
 7541TIP3    H122576   2.359   6.391   3.226
 7541TIP3    H222577   2.376   6.451   3.086
 7542TIP3   OH222578   1.557   6.280   5.274
 7542TIP3    H122579   1.561   6.187   5.299
 7542TIP3    H222580   1.468   6.288   5.233
 7543TIP3   OH222581   1.534   5.931   3.480
 7543TIP3    H122582   1.594   5.906   3.552
 7543TIP3    H222583   1.599   5.938   3.406
 7544TIP3   OH222584   2.166   6.379   5.054
 7544TIP3    H122585   2.122   6.401   4.969
 7544TIP3    H222586   2.194   6.286   5.040
 7545TIP3   OH222587   2.060   6.139   3.291
 7545TIP3    H122588   2.055   6.149   3.388
 7545TIP3    H222589   2.059   6.041   3.282
 7546TIP3   OH222590   2.651   6.388   4.660
 7546TIP3    H122591   2.731   6.428   4.619
 7546TIP3    H222592   2.587   6.461   4.648
 7547TIP3   OH222593   1.659   5.997   5.270
 7547TIP3    H122594   1.743   5.957   5.246
 7547TIP3    H222595   1.685   6.044   5.352
 7548TIP3   OH222596   1.736   5.846   3.693
 7548TIP3    H122597   1.708   5.805   3.777
 7548TIP3    H222598   1.775   5.770   3.645
 7549TIP3   OH222599   2.009   5.905   4.922
 7549TIP3    H122600   1.933   5.966   4.924
 7549TIP3    H222601   2.061   5.941   4.847
 7550TIP3   OH222602   1.845   5.641   3.536
 7550TIP3    H122603   1.819   5.650   3.442
 7550TIP3    H222604   1.943   5.640   3.527
 7551TIP3   OH222605   2.530   6.308   5.057
 7551TIP3    H122606   2.603   6.269   5.008
 7551TIP3    H222607   2.519   6.246   5.131
 7552TIP3   OH222608   2.661   5.962   3.209
 7552TIP3    H122609   2.642   5.921   3.122
 7552TIP3    H222610   2.627   6.053   3.189
 7553TIP3   OH222611   2.136   5.698   5.046
 7553TIP3    H122612   2.135   5.620   4.987
 7553TIP3    H222613   2.089   5.765   4.991
 7554TIP3   OH222614   2.138   5.486   4.855
 7554TIP3    H122615   2.164   5.522   4.769
 7554TIP3    H222616   2.044   5.462   4.840
 7555TIP3   OH222617   2.156   6.013   4.726
 7555TIP3    H122618   2.245   6.040   4.698
 7555TIP3    H222619   2.100   6.080   4.683
 7556TIP3   OH222620   2.739   5.977   5.107
 7556TIP3    H122621   2.780   5.892   5.126
 7556TIP3    H222622   2.813   6.027   5.070
 7557TIP3   OH222623   2.782   6.239   4.846
 7557TIP3    H122624   2.725   6.296   4.788
 7557TIP3    H222625   2.870   6.260   4.809
 7558TIP3   OH222626   2.015   5.800   5.280
 7558TIP3    H122627   1.948   5.733   5.303
 7558TIP3    H222628   2.047   5.768   5.194
 7559TIP3   OH222629   2.266   5.242   4.928
 7559TIP3    H122630   2.216   5.324   4.907
 7559TIP3    H222631   2.196   5.174   4.922
 7560TIP3   OH222632   2.391   5.747   5.146
 7560TIP3    H122633   2.375   5.729   5.241
 7560TIP3    H222634   2.302   5.724   5.111
 7561TIP3   OH222635   2.616   5.697   4.990
 7561TIP3    H122636   2.544   5.701   5.057
 7561TIP3    H222637   2.691   5.667   5.047
 7562TIP3   OH222638   2.826   5.633   5.147
 7562TIP3    H122639   2.866   5.544   5.153
 7562TIP3    H222640   2.854   5.673   5.232
 7563TIP3   OH222641   1.859   5.581   5.337
 7563TIP3    H122642   1.854   5.488   5.308
 7563TIP3    H222643   1.897   5.570   5.427
 7564TIP3   OH222644   2.364   5.256   5.186
 7564TIP3    H122645   2.428   5.183   5.180
 7564TIP3    H222646   2.321   5.250   5.098
 7565TIP3   OH222647   2.429   5.471   5.346
 7565TIP3    H122648   2.408   5.399   5.282
 7565TIP3    H222649   2.349   5.527   5.341
 7566TIP3   OH222650   1.652   6.695   3.450
 7566TIP3    H122651   1.747   6.685   3.428
 7566TIP3    H222652   1.623   6.750   3.375
 7567TIP3   OH222653   1.130   6.080   3.657
 7567TIP3    H122654   1.225   6.100   3.642
 7567TIP3    H222655   1.122   5.991   3.616
 7568TIP3   OH222656   1.048   6.688   4.078
 7568TIP3    H122657   0.983   6.629   4.035
 7568TIP3    H222658   1.092   6.627   4.140
 7569TIP3   OH222659   1.181   6.529   4.263
 7569TIP3    H122660   1.170   6.465   4.335
 7569TIP3    H222661   1.234   6.597   4.308
 7570TIP3   OH222662   2.912   6.931   4.057
 7570TIP3    H122663   2.929   6.947   4.152
 7570TIP3    H222664   2.964   7.002   4.017
 7571TIP3   OH222665   2.961   6.936   4.323
 7571TIP3    H122666   2.920   6.850   4.346
 7571TIP3    H222667   3.006   6.959   4.405
 7572TIP3   OH222668   2.984   6.638   4.920
 7572TIP3    H122669   2.914   6.649   4.987
 7572TIP3    H222670   3.027   6.726   4.922
 7573TIP3   OH222671   2.801   6.148   3.541
 7573TIP3    H122672   2.862   6.216   3.506
 7573TIP3    H222673   2.849   6.116   3.620
 7574TIP3   OH222674   2.930   6.024   3.757
 7574TIP3    H122675   2.894   5.996   3.842
 7574TIP3    H222676   3.015   6.065   3.785
 7575TIP3   OH222677   2.987   6.415   4.169
 7575TIP3    H122678   3.041   6.348   4.123
 7575TIP3    H222679   2.988   6.490   4.106
 7576TIP3   OH222680   2.807   6.704   4.370
 7576TIP3    H122681   2.739   6.758   4.414
 7576TIP3    H222682   2.757   6.668   4.293
 7577TIP3   OH222683   2.865   5.929   3.386
 7577TIP3    H122684   2.794   5.928   3.317
 7577TIP3    H222685   2.835   6.005   3.439
 7578TIP3   OH222686   2.727   5.603   3.344
 7578TIP3    H122687   2.692   5.634   3.260
 7578TIP3    H222688   2.708   5.507   3.337
 7579TIP3   OH222689   1.363   5.955   4.631
 7579TIP3    H122690   1.360   5.916   4.541
 7579TIP3    H222691   1.460   5.953   4.649
 7580TIP3   OH222692   3.034   6.296   4.747
 7580TIP3    H122693   3.105   6.229   4.732
 7580TIP3    H222694   3.061   6.367   4.686
 7581TIP3   OH222695   3.215   6.088   4.744
 7581TIP3    H122696   3.139   6.047   4.790
 7581TIP3    H222697   3.284   6.021   4.766
 7582TIP3   OH222698   2.673   5.339   3.330
 7582TIP3    H122699   2.747   5.297   3.379
 7582TIP3    H222700   2.601   5.273   3.336
 7583TIP3   OH222701   2.742   5.603   3.787
 7583TIP3    H122702   2.785   5.515   3.802
 7583TIP3    H222703   2.804   5.640   3.721
 7584TIP3   OH222704   2.895   5.754   4.264
 7584TIP3    H122705   2.979   5.785   4.225
 7584TIP3    H222706   2.901   5.800   4.351
 7585TIP3   OH222707   2.963   5.910   4.491
 7585TIP3    H122708   2.894   5.943   4.551
 7585TIP3    H222709   3.000   5.993   4.455
 7586TIP3   OH222710   1.602   5.656   5.328
 7586TIP3    H122711   1.699   5.642   5.327
 7586TIP3    H222712   1.572   5.564   5.345
 7587TIP3   OH222713   2.834   5.352   3.828
 7587TIP3    H122714   2.888   5.333   3.908
 7587TIP3    H222715   2.781   5.270   3.821
 7588TIP3   OH222716   1.552   5.334   4.617
 7588TIP3    H122717   1.607   5.259   4.644
 7588TIP3    H222718   1.617   5.406   4.617
 7589TIP3   OH222719   1.346   5.597   4.711
 7589TIP3    H122720   1.397   5.606   4.628
 7589TIP3    H222721   1.373   5.677   4.759
 7590TIP3   OH222722   2.921   5.270   3.454
 7590TIP3    H122723   2.959   5.204   3.393
 7590TIP3    H222724   2.986   5.343   3.450
 7591TIP3   OH222725   1.324   5.088   4.215
 7591TIP3    H122726   1.235   5.094   4.254
 7591TIP3    H222727   1.317   5.154   4.142
 7592TIP3   OH222728   2.489   6.809   3.716
 7592TIP3    H122729   2.546   6.806   3.637
 7592TIP3    H222730   2.533   6.875   3.771
 7593TIP3   OH222731   1.535   5.169   5.033
 7593TIP3    H122732   1.473   5.166   5.110
 7593TIP3    H222733   1.476   5.212   4.968
 7594TIP3   OH222734   1.592   6.616   5.106
 7594TIP3    H122735   1.498   6.593   5.093
 7594TIP3    H222736   1.601   6.598   5.202
 7595TIP3   OH222737   1.774   6.651   4.647
 7595TIP3    H122738   1.727   6.729   4.609
 7595TIP3    H222739   1.860   6.664   4.602
 7596TIP3   OH222740   2.208   6.890   4.785
 7596TIP3    H122741   2.250   6.888   4.874
 7596TIP3    H222742   2.274   6.943   4.735
 7597TIP3   OH222743   2.389   7.048   4.651
 7597TIP3    H122744   2.458   7.001   4.603
 7597TIP3    H222745   2.444   7.105   4.710
 7598TIP3   OH222746   3.174   5.397   4.734
 7598TIP3    H122747   3.084   5.380   4.706
 7598TIP3    H222748   3.215   5.308   4.730
 7599TIP3   OH222749   1.446   6.901   4.678
 7599TIP3    H122750   1.354   6.931   4.658
 7599TIP3    H222751   1.466   6.959   4.753
 7600TIP3   OH222752   1.681   6.882   4.534
 7600TIP3    H122753   1.593   6.893   4.576
 7600TIP3    H222754   1.664   6.915   4.443
 7601TIP3   OH222755   2.107   6.907   4.332
 7601TIP3    H122756   2.038   6.925   4.265
 7601TIP3    H222757   2.119   6.996   4.371
 7602TIP3   OH222758   2.378   6.841   4.383
 7602TIP3    H122759   2.286   6.866   4.364
 7602TIP3    H222760   2.427   6.912   4.338
 7603TIP3   OH222761   2.564   7.033   4.293
 7603TIP3    H122762   2.568   7.126   4.261
 7603TIP3    H222763   2.603   6.984   4.218
 7604TIP3   OH222764   1.353   6.693   4.417
 7604TIP3    H122765   1.381   6.665   4.506
 7604TIP3    H222766   1.427   6.653   4.365
 7605TIP3   OH222767   1.553   6.571   4.279
 7605TIP3    H122768   1.567   6.487   4.329
 7605TIP3    H222769   1.645   6.606   4.278
 7606TIP3   OH222770   1.820   6.658   4.287
 7606TIP3    H122771   1.849   6.565   4.280
 7606TIP3    H222772   1.872   6.685   4.366
 7607TIP3   OH222773   2.378   5.307   4.355
 7607TIP3    H122774   2.348   5.239   4.418
 7607TIP3    H222775   2.462   5.269   4.321
 7608TIP3   OH222776   2.914   5.186   4.276
 7608TIP3    H122777   2.954   5.242   4.206
 7608TIP3    H222778   2.822   5.216   4.276
 7609TIP3   OH222779   3.004   5.295   4.039
 7609TIP3    H122780   3.077   5.242   4.000
 7609TIP3    H222781   3.041   5.385   4.024
 7610TIP3   OH222782   1.660   5.025   4.375
 7610TIP3    H122783   1.568   5.010   4.352
 7610TIP3    H222784   1.697   4.935   4.376
 7611TIP3   OH222785   1.412   4.877   4.063
 7611TIP3    H122786   1.446   4.911   3.978
 7611TIP3    H222787   1.397   4.962   4.111
 7612TIP3   OH222788   2.088   5.056   4.267
 7612TIP3    H122789   2.143   5.100   4.201
 7612TIP3    H222790   2.122   5.092   4.350
 7613TIP3   OH222791   2.626   5.207   4.241
 7613TIP3    H122792   2.638   5.161   4.157
 7613TIP3    H222793   2.613   5.131   4.302
 7614TIP3   OH222794   2.664   5.132   3.811
 7614TIP3    H122795   2.570   5.155   3.808
 7614TIP3    H222796   2.658   5.044   3.855
 7615TIP3   OH222797   1.143   6.478   3.805
 7615TIP3    H122798   1.057   6.446   3.773
 7615TIP3    H222799   1.138   6.570   3.776
 7616TIP3   OH222800   1.550   5.046   3.793
 7616TIP3    H122801   1.597   4.986   3.732
 7616TIP3    H222802   1.623   5.101   3.827
 7617TIP3   OH222803   2.053   5.240   3.891
 7617TIP3    H122804   2.111   5.190   3.951
 7617TIP3    H222805   2.077   5.331   3.916
 7618TIP3   OH222806   1.917   6.650   3.391
 7618TIP3    H122807   2.005   6.674   3.355
 7618TIP3    H222808   1.896   6.575   3.331
 7619TIP3   OH222809   2.643   6.780   3.487
 7619TIP3    H122810   2.634   6.682   3.477
 7619TIP3    H222811   2.592   6.809   3.408
 7620TIP3   OH222812   1.850   5.311   5.272
 7620TIP3    H122813   1.810   5.240   5.325
 7620TIP3    H222814   1.943   5.307   5.304
 7621TIP3   OH222815   2.100   5.301   5.393
 7621TIP3    H122816   2.186   5.270   5.360
 7621TIP3    H222817   2.081   5.233   5.461
 7622TIP3   OH222818   1.222   6.492   3.443
 7622TIP3    H122819   1.230   6.505   3.538
 7622TIP3    H222820   1.306   6.445   3.421
 7623TIP3   OH222821   2.937   5.373   5.169
 7623TIP3    H122822   2.952   5.345   5.262
 7623TIP3    H222823   3.028   5.376   5.134
 7624TIP3   OH222824   2.858   6.919   4.672
 7624TIP3    H122825   2.780   6.893   4.618
 7624TIP3    H222826   2.849   7.017   4.671
 7625TIP3   OH222827   4.135   6.286   3.440
 7625TIP3    H122828   4.104   6.377   3.420
 7625TIP3    H222829   4.061   6.235   3.401
 7626TIP3   OH222830   4.130   6.295   3.825
 7626TIP3    H122831   4.167   6.268   3.911
 7626TIP3    H222832   4.089   6.213   3.794
 7627TIP3   OH222833   3.424   6.181   4.186
 7627TIP3    H122834   3.453   6.110   4.247
 7627TIP3    H222835   3.498   6.242   4.192
 7628TIP3   OH222836   4.375   6.600   3.505
 7628TIP3    H122837   4.360   6.533   3.574
 7628TIP3    H222838   4.408   6.675   3.557
 7629TIP3   OH222839   3.402   6.594   3.895
 7629TIP3    H122840   3.392   6.497   3.900
 7629TIP3    H222841   3.498   6.604   3.905
 7630TIP3   OH222842   3.106   5.791   3.682
 7630TIP3    H122843   3.062   5.874   3.706
 7630TIP3    H222844   3.034   5.746   3.634
 7631TIP3   OH222845   3.171   6.088   3.859
 7631TIP3    H122846   3.218   6.010   3.896
 7631TIP3    H222847   3.243   6.139   3.819
 7632TIP3   OH222848   4.016   7.050   3.512
 7632TIP3    H122849   4.062   6.976   3.467
 7632TIP3    H222850   4.016   7.021   3.604
 7633TIP3   OH222851   3.925   6.520   3.865
 7633TIP3    H122852   3.970   6.442   3.826
 7633TIP3    H222853   4.006   6.569   3.892
 7634TIP3   OH222854   4.945   5.838   3.864
 7634TIP3    H122855   4.972   5.924   3.901
 7634TIP3    H222856   4.966   5.851   3.770
 7635TIP3   OH222857   4.341   6.014   3.893
 7635TIP3    H122858   4.383   5.928   3.913
 7635TIP3    H222859   4.307   5.998   3.802
 7636TIP3   OH222860   3.685   5.679   3.859
 7636TIP3    H122861   3.664   5.751   3.797
 7636TIP3    H222862   3.634   5.605   3.818
 7637TIP3   OH222863   4.377   5.772   3.478
 7637TIP3    H122864   4.449   5.760   3.545
 7637TIP3    H222865   4.430   5.807   3.403
 7638TIP3   OH222866   3.314   5.883   3.968
 7638TIP3    H122867   3.395   5.864   4.018
 7638TIP3    H222868   3.329   5.827   3.890
 7639TIP3   OH222869   3.751   6.077   3.768
 7639TIP3    H122870   3.846   6.054   3.779
 7639TIP3    H222871   3.713   5.993   3.734
 7640TIP3   OH222872   5.024   6.051   4.030
 7640TIP3    H122873   4.939   6.094   4.008
 7640TIP3    H222874   5.027   6.068   4.126
 7641TIP3   OH222875   3.674   5.662   4.299
 7641TIP3    H122876   3.614   5.700   4.232
 7641TIP3    H222877   3.621   5.677   4.380
 7642TIP3   OH222878   4.002   6.498   3.322
 7642TIP3    H122879   3.932   6.462   3.266
 7642TIP3    H222880   3.982   6.592   3.324
 7643TIP3   OH222881   3.782   6.439   4.084
 7643TIP3    H122882   3.724   6.510   4.121
 7643TIP3    H222883   3.825   6.486   4.009
 7644TIP3   OH222884   4.575   5.778   3.665
 7644TIP3    H122885   4.555   5.740   3.751
 7644TIP3    H222886   4.627   5.857   3.690
 7645TIP3   OH222887   3.548   5.778   4.079
 7645TIP3    H122888   3.610   5.850   4.104
 7645TIP3    H222889   3.599   5.738   4.005
 7646TIP3   OH222890   3.614   6.637   4.184
 7646TIP3    H122891   3.590   6.728   4.155
 7646TIP3    H222892   3.535   6.617   4.238
 7647TIP3   OH222893   2.994   6.323   3.425
 7647TIP3    H122894   2.955   6.350   3.339
 7647TIP3    H222895   3.026   6.410   3.459
 7648TIP3   OH222896   4.441   6.842   3.664
 7648TIP3    H122897   4.350   6.834   3.703
 7648TIP3    H222898   4.435   6.929   3.620
 7649TIP3   OH222899   4.736   5.741   4.031
 7649TIP3    H122900   4.648   5.762   3.995
 7649TIP3    H222901   4.796   5.773   3.960
 7650TIP3   OH222902   4.023   5.377   4.016
 7650TIP3    H122903   4.008   5.283   4.035
 7650TIP3    H222904   3.947   5.417   4.063
 7651TIP3   OH222905   4.128   6.873   3.326
 7651TIP3    H122906   4.184   6.793   3.311
 7651TIP3    H222907   4.192   6.941   3.297
 7652TIP3   OH222908   4.276   6.660   3.253
 7652TIP3    H122909   4.283   6.582   3.195
 7652TIP3    H222910   4.319   6.628   3.336
 7653TIP3   OH222911   4.664   6.744   4.018
 7653TIP3    H122912   4.654   6.670   3.953
 7653TIP3    H222913   4.645   6.822   3.961
 7654TIP3   OH222914   3.963   6.148   3.272
 7654TIP3    H122915   3.884   6.200   3.248
 7654TIP3    H222916   4.008   6.139   3.185
 7655TIP3   OH222917   3.919   5.933   2.977
 7655TIP3    H122918   3.986   5.987   3.022
 7655TIP3    H222919   3.977   5.869   2.930
 7656TIP3   OH222920   4.862   6.392   3.861
 7656TIP3    H122921   4.777   6.442   3.860
 7656TIP3    H222922   4.896   6.415   3.771
 7657TIP3   OH222923   4.306   6.225   3.235
 7657TIP3    H122924   4.256   6.247   3.317
 7657TIP3    H222925   4.394   6.203   3.274
 7658TIP3   OH222926   4.526   6.281   4.151
 7658TIP3    H122927   4.488   6.367   4.173
 7658TIP3    H222928   4.452   6.247   4.097
 7659TIP3   OH222929   3.543   6.223   3.656
 7659TIP3    H122930   3.501   6.164   3.589
 7659TIP3    H222931   3.617   6.168   3.688
 7660TIP3   OH222932   3.676   6.640   3.800
 7660TIP3    H122933   3.654   6.599   3.715
 7660TIP3    H222934   3.764   6.601   3.820
 7661TIP3   OH222935   3.672   6.196   4.009
 7661TIP3    H122936   3.708   6.168   3.922
 7661TIP3    H222937   3.718   6.281   4.025
 7662TIP3   OH222938   4.199   6.834   3.786
 7662TIP3    H122939   4.187   6.917   3.837
 7662TIP3    H222940   4.182   6.764   3.852
 7663TIP3   OH222941   3.815   6.748   4.337
 7663TIP3    H122942   3.753   6.809   4.382
 7663TIP3    H222943   3.752   6.697   4.283
 7664TIP3   OH222944   4.139   6.089   3.064
 7664TIP3    H122945   4.203   6.146   3.114
 7664TIP3    H222946   4.168   6.108   2.971
 7665TIP3   OH222947   3.571   6.304   4.441
 7665TIP3    H122948   3.576   6.394   4.480
 7665TIP3    H222949   3.477   6.283   4.458
 7666TIP3   OH222950   3.877   6.776   3.267
 7666TIP3    H122951   3.969   6.801   3.291
 7666TIP3    H222952   3.827   6.835   3.325
 7667TIP3   OH222953   3.609   6.909   4.424
 7667TIP3    H122954   3.572   6.922   4.335
 7667TIP3    H222955   3.529   6.885   4.476
 7668TIP3   OH222956   4.663   5.322   3.114
 7668TIP3    H122957   4.581   5.353   3.159
 7668TIP3    H222958   4.684   5.401   3.060
 7669TIP3   OH222959   3.408   6.068   3.457
 7669TIP3    H122960   3.335   6.111   3.407
 7669TIP3    H222961   3.375   5.979   3.467
 7670TIP3   OH222962   4.470   6.689   2.669
 7670TIP3    H122963   4.481   6.784   2.647
 7670TIP3    H222964   4.563   6.657   2.659
 7671TIP3   OH222965   3.186   6.450   4.371
 7671TIP3    H122966   3.117   6.431   4.304
 7671TIP3    H222967   3.223   6.362   4.391
 7672TIP3   OH222968   3.040   6.645   4.005
 7672TIP3    H122969   3.137   6.653   4.005
 7672TIP3    H222970   3.015   6.725   4.053
 7673TIP3   OH222971   4.907   7.103   4.066
 7673TIP3    H122972   4.898   7.007   4.072
 7673TIP3    H222973   4.823   7.132   4.108
 7674TIP3   OH222974   4.010   6.875   4.194
 7674TIP3    H122975   4.007   6.969   4.224
 7674TIP3    H222976   3.938   6.836   4.248
 7675TIP3   OH222977   3.756   7.006   3.139
 7675TIP3    H122978   3.724   7.035   3.052
 7675TIP3    H222979   3.742   7.088   3.191
 7676TIP3   OH222980   3.216   6.856   3.529
 7676TIP3    H122981   3.260   6.850   3.616
 7676TIP3    H222982   3.158   6.778   3.532
 7677TIP3   OH222983   3.975   6.905   2.782
 7677TIP3    H122984   4.031   6.836   2.741
 7677TIP3    H222985   4.019   6.917   2.868
 7678TIP3   OH222986   4.020   6.957   3.055
 7678TIP3    H122987   3.943   6.973   3.113
 7678TIP3    H222988   4.089   6.933   3.120
 7679TIP3   OH222989   4.781   6.225   4.307
 7679TIP3    H122990   4.693   6.215   4.268
 7679TIP3    H222991   4.810   6.131   4.309
 7680TIP3   OH222992   3.392   6.631   4.342
 7680TIP3    H122993   3.433   6.629   4.430
 7680TIP3    H222994   3.315   6.571   4.355
 7681TIP3   OH222995   3.788   5.457   4.147
 7681TIP3    H122996   3.700   5.427   4.116
 7681TIP3    H222997   3.761   5.536   4.198
 7682TIP3   OH222998   4.326   5.570   4.339
 7682TIP3    H122999   4.397   5.542   4.401
 7682TIP3    H223000   4.244   5.550   4.388
 7683TIP3   OH223001   4.563   6.011   4.262
 7683TIP3    H123002   4.512   5.998   4.345
 7683TIP3    H223003   4.520   6.088   4.223
 7684TIP3   OH223004   4.223   6.132   2.813
 7684TIP3    H123005   4.187   6.112   2.724
 7684TIP3    H223006   4.312   6.166   2.789
 7685TIP3   OH223007   3.934   5.501   3.116
 7685TIP3    H123008   3.898   5.496   3.207
 7685TIP3    H223009   3.891   5.422   3.078
 7686TIP3   OH223010   3.723   5.975   4.161
 7686TIP3    H123011   3.672   5.993   4.243
 7686TIP3    H223012   3.704   6.057   4.109
 7687TIP3   OH223013   3.606   5.860   3.674
 7687TIP3    H123014   3.513   5.834   3.694
 7687TIP3    H223015   3.617   5.818   3.585
 7688TIP3   OH223016   4.096   5.942   3.405
 7688TIP3    H123017   4.048   6.015   3.360
 7688TIP3    H223018   4.153   5.908   3.333
 7689TIP3   OH223019   4.273   6.216   4.486
 7689TIP3    H123020   4.246   6.146   4.549
 7689TIP3    H223021   4.367   6.225   4.511
 7690TIP3   OH223022   4.252   5.968   3.638
 7690TIP3    H123023   4.188   5.996   3.570
 7690TIP3    H223024   4.289   5.890   3.591
 7691TIP3   OH223025   3.543   5.997   4.368
 7691TIP3    H123026   3.565   6.062   4.437
 7691TIP3    H223027   3.529   5.916   4.421
 7692TIP3   OH223028   3.596   5.481   3.080
 7692TIP3    H123029   3.581   5.481   3.176
 7692TIP3    H223030   3.518   5.532   3.050
 7693TIP3   OH223031   3.132   5.515   3.953
 7693TIP3    H123032   3.205   5.552   4.007
 7693TIP3    H223033   3.176   5.491   3.870
 7694TIP3   OH223034   3.092   5.502   3.469
 7694TIP3    H123035   3.137   5.537   3.389
 7694TIP3    H223036   3.032   5.577   3.487
 7695TIP3   OH223037   4.272   6.210   4.060
 7695TIP3    H123038   4.298   6.137   3.998
 7695TIP3    H223039   4.235   6.157   4.134
 7696TIP3   OH223040   3.943   5.680   3.736
 7696TIP3    H123041   3.861   5.680   3.789
 7696TIP3    H223042   4.012   5.671   3.804
 7697TIP3   OH223043   3.368   5.739   3.740
 7697TIP3    H123044   3.274   5.744   3.711
 7697TIP3    H223045   3.392   5.647   3.720
 7698TIP3   OH223046   3.629   5.730   3.434
 7698TIP3    H123047   3.723   5.746   3.412
 7698TIP3    H223048   3.582   5.753   3.351
 7699TIP3   OH223049   4.429   5.756   3.940
 7699TIP3    H123050   4.398   5.770   4.033
 7699TIP3    H223051   4.359   5.697   3.908
 7700TIP3   OH223052   3.487   5.769   3.207
 7700TIP3    H123053   3.420   5.721   3.156
 7700TIP3    H223054   3.539   5.809   3.134
 7701TIP3   OH223055   4.604   7.442   4.160
 7701TIP3    H123056   4.599   7.472   4.068
 7701TIP3    H223057   4.683   7.491   4.191
 7702TIP3   OH223058   3.556   6.553   4.577
 7702TIP3    H123059   3.634   6.585   4.627
 7702TIP3    H223060   3.487   6.560   4.646
 7703TIP3   OH223061   4.014   6.012   3.834
 7703TIP3    H123062   4.088   5.970   3.787
 7703TIP3    H223063   4.014   5.966   3.920
 7704TIP3   OH223064   3.529   5.495   3.720
 7704TIP3    H123065   3.493   5.419   3.771
 7704TIP3    H223066   3.565   5.451   3.642
 7705TIP3   OH223067   3.990   5.916   4.115
 7705TIP3    H123068   3.899   5.946   4.134
 7705TIP3    H223069   4.045   5.977   4.169
 7706TIP3   OH223070   3.735   6.299   3.219
 7706TIP3    H123071   3.664   6.234   3.201
 7706TIP3    H223072   3.710   6.331   3.309
 7707TIP3   OH223073   4.625   6.533   3.842
 7707TIP3    H123074   4.651   6.585   3.763
 7707TIP3    H223075   4.542   6.490   3.812
 7708TIP3   OH223076   4.187   5.600   3.098
 7708TIP3    H123077   4.090   5.582   3.099
 7708TIP3    H223078   4.193   5.696   3.113
 7709TIP3   OH223079   4.131   6.617   4.216
 7709TIP3    H123080   4.148   6.603   4.310
 7709TIP3    H223081   4.091   6.706   4.215
 7710TIP3   OH223082   4.254   5.860   3.188
 7710TIP3    H123083   4.351   5.865   3.199
 7710TIP3    H223084   4.235   5.938   3.132
 7711TIP3   OH223085   3.419   6.312   3.889
 7711TIP3    H123086   3.463   6.287   3.805
 7711TIP3    H223087   3.473   6.263   3.954
 7712TIP3   OH223088   3.310   6.234   4.507
 7712TIP3    H123089   3.325   6.223   4.602
 7712TIP3    H223090   3.238   6.170   4.492
 7713TIP3   OH223091   4.031   6.357   4.524
 7713TIP3    H123092   3.965   6.295   4.489
 7713TIP3    H223093   4.115   6.316   4.493
 7714TIP3   OH223094   4.288   6.866   4.117
 7714TIP3    H123095   4.191   6.871   4.128
 7714TIP3    H223096   4.317   6.923   4.191
 7715TIP3   OH223097   4.688   5.943   3.031
 7715TIP3    H123098   4.628   5.900   2.966
 7715TIP3    H223099   4.684   6.034   2.990
 7716TIP3   OH223100   4.912   6.785   4.113
 7716TIP3    H123101   4.816   6.784   4.089
 7716TIP3    H223102   4.948   6.766   4.024
 7717TIP3   OH223103   4.386   6.767   2.923
 7717TIP3    H123104   4.388   6.691   2.982
 7717TIP3    H223105   4.414   6.728   2.838
 7718TIP3   OH223106   4.393   6.396   3.758
 7718TIP3    H123107   4.299   6.372   3.771
 7718TIP3    H223108   4.426   6.315   3.714
 7719TIP3   OH223109   3.520   6.626   3.509
 7719TIP3    H123110   3.506   6.710   3.460
 7719TIP3    H223111   3.432   6.610   3.545
 7720TIP3   OH223112   3.093   5.926   3.230
 7720TIP3    H123113   3.134   6.013   3.251
 7720TIP3    H223114   3.013   5.929   3.288
 7721TIP3   OH223115   3.652   6.390   3.458
 7721TIP3    H123116   3.612   6.477   3.478
 7721TIP3    H223117   3.620   6.336   3.533
 7722TIP3   OH223118   3.796   6.968   3.982
 7722TIP3    H123119   3.839   7.042   3.934
 7722TIP3    H223120   3.872   6.931   4.031
 7723TIP3   OH223121   3.443   6.861   3.363
 7723TIP3    H123122   3.357   6.869   3.411
 7723TIP3    H223123   3.475   6.954   3.370
 7724TIP3   OH223124   4.173   6.602   3.947
 7724TIP3    H123125   4.165   6.602   4.045
 7724TIP3    H223126   4.251   6.548   3.934
 7725TIP3   OH223127   4.160   6.493   2.826
 7725TIP3    H123128   4.208   6.475   2.910
 7725TIP3    H223129   4.084   6.435   2.833
 7726TIP3   OH223130   4.427   7.129   3.991
 7726TIP3    H123131   4.344   7.079   3.984
 7726TIP3    H223132   4.414   7.196   3.921
 7727TIP3   OH223133   4.493   6.965   2.646
 7727TIP3    H123134   4.533   7.039   2.598
 7727TIP3    H223135   4.412   7.009   2.679
 7728TIP3   OH223136   3.513   5.744   4.512
 7728TIP3    H123137   3.416   5.748   4.527
 7728TIP3    H223138   3.543   5.694   4.590
 7729TIP3   OH223139   4.313   6.437   3.056
 7729TIP3    H123140   4.304   6.362   3.118
 7729TIP3    H223141   4.409   6.429   3.034
 7730TIP3   OH223142   3.237   6.824   4.139
 7730TIP3    H123143   3.294   6.765   4.190
 7730TIP3    H223144   3.227   6.899   4.199
 7731TIP3   OH223145   3.539   6.457   2.831
 7731TIP3    H123146   3.523   6.366   2.800
 7731TIP3    H223147   3.501   6.454   2.922
 7732TIP3   OH223148   3.467   6.486   3.098
 7732TIP3    H123149   3.526   6.444   3.163
 7732TIP3    H223150   3.484   6.581   3.111
 7733TIP3   OH223151   3.194   6.172   3.309
 7733TIP3    H123152   3.126   6.217   3.364
 7733TIP3    H223153   3.205   6.239   3.239
 7734TIP3   OH223154   4.358   5.807   4.202
 7734TIP3    H123155   4.437   5.840   4.245
 7734TIP3    H223156   4.340   5.725   4.253
 7735TIP3   OH223157   4.242   5.549   3.371
 7735TIP3    H123158   4.221   5.570   3.278
 7735TIP3    H223159   4.279   5.634   3.403
 7736TIP3   OH223160   3.913   5.742   3.466
 7736TIP3    H123161   3.978   5.814   3.448
 7736TIP3    H223162   3.923   5.733   3.563
 7737TIP3   OH223163   4.192   6.053   4.267
 7737TIP3    H123164   4.216   6.103   4.348
 7737TIP3    H223165   4.239   5.969   4.279
 7738TIP3   OH223166   4.058   5.464   3.570
 7738TIP3    H123167   4.050   5.545   3.623
 7738TIP3    H223168   4.126   5.490   3.505
 7739TIP3   OH223169   3.527   6.759   3.120
 7739TIP3    H123170   3.475   6.816   3.057
 7739TIP3    H223171   3.492   6.791   3.206
 7740TIP3   OH223172   3.577   5.467   3.357
 7740TIP3    H123173   3.574   5.558   3.394
 7740TIP3    H223174   3.674   5.451   3.364
 7741TIP3   OH223175   4.827   5.953   4.248
 7741TIP3    H123176   4.730   5.960   4.261
 7741TIP3    H223177   4.829   5.893   4.172
 7742TIP3   OH223178   4.479   6.150   3.643
 7742TIP3    H123179   4.402   6.091   3.652
 7742TIP3    H223180   4.549   6.101   3.690
 7743TIP3   OH223181   3.193   6.371   3.109
 7743TIP3    H123182   3.257   6.445   3.110
 7743TIP3    H223183   3.239   6.312   3.045
 7744TIP3   OH223184   3.131   5.654   3.247
 7744TIP3    H123185   3.134   5.751   3.246
 7744TIP3    H223186   3.064   5.636   3.179
 7745TIP3   OH223187   4.450   7.110   3.586
 7745TIP3    H123188   4.408   7.156   3.510
 7745TIP3    H223189   4.545   7.130   3.567
 7746TIP3   OH223190   3.525   5.375   4.111
 7746TIP3    H123191   3.495   5.340   4.025
 7746TIP3    H223192   3.514   5.297   4.170
 7747TIP3   OH223193   3.051   6.586   3.489
 7747TIP3    H123194   3.003   6.620   3.566
 7747TIP3    H223195   3.010   6.636   3.415
 7748TIP3   OH223196   3.703   7.083   4.621
 7748TIP3    H123197   3.798   7.070   4.615
 7748TIP3    H223198   3.671   7.025   4.549
 7749TIP3   OH223199   3.702   6.669   2.777
 7749TIP3    H123200   3.647   6.589   2.791
 7749TIP3    H223201   3.774   6.633   2.721
 7750TIP3   OH223202   4.344   7.008   4.345
 7750TIP3    H123203   4.337   6.940   4.417
 7750TIP3    H223204   4.419   7.062   4.377
 7751TIP3   OH223205   4.116   6.712   2.649
 7751TIP3    H123206   4.162   6.652   2.710
 7751TIP3    H223207   4.173   6.708   2.569
 7752TIP3   OH223208   3.351   6.546   4.770
 7752TIP3    H123209   3.369   6.450   4.773
 7752TIP3    H223210   3.265   6.549   4.724
 7753TIP3   OH223211   3.334   6.190   2.967
 7753TIP3    H123212   3.392   6.159   3.039
 7753TIP3    H223213   3.398   6.191   2.893
 7754TIP3   OH223214   3.959   6.635   4.542
 7754TIP3    H123215   3.913   6.659   4.459
 7754TIP3    H223216   3.984   6.542   4.527
 7755TIP3   OH223217   3.864   6.385   2.799
 7755TIP3    H123218   3.778   6.377   2.842
 7755TIP3    H223219   3.882   6.290   2.779
 7756TIP3   OH223220   4.456   6.634   4.168
 7756TIP3    H123221   4.522   6.679   4.112
 7756TIP3    H223222   4.380   6.693   4.156
 7757TIP3   OH223223   3.471   6.284   4.753
 7757TIP3    H123224   3.548   6.234   4.725
 7757TIP3    H223225   3.500   6.315   4.842
 7758TIP3   OH223226   3.536   6.106   3.178
 7758TIP3    H123227   3.509   6.066   3.263
 7758TIP3    H223228   3.575   6.029   3.131
 7759TIP3   OH223229   3.810   6.167   4.416
 7759TIP3    H123230   3.728   6.222   4.414
 7759TIP3    H223231   3.858   6.201   4.337
 7760TIP3   OH223232   3.642   5.900   3.022
 7760TIP3    H123233   3.617   5.907   2.928
 7760TIP3    H223234   3.740   5.898   3.015
 7761TIP3   OH223235   4.327   6.566   4.553
 7761TIP3    H123236   4.389   6.517   4.498
 7761TIP3    H223237   4.311   6.503   4.625
 7762TIP3   OH223238   4.453   6.220   2.693
 7762TIP3    H123239   4.435   6.179   2.606
 7762TIP3    H223240   4.422   6.312   2.673
 7763TIP3   OH223241   3.934   5.956   4.533
 7763TIP3    H123242   3.930   5.877   4.474
 7763TIP3    H223243   3.887   6.024   4.479
 7764TIP3   OH223244   3.933   5.741   4.345
 7764TIP3    H123245   3.960   5.781   4.260
 7764TIP3    H223246   3.839   5.718   4.328
 7765TIP3   OH223247   3.953   6.273   4.217
 7765TIP3    H123248   4.039   6.294   4.180
 7765TIP3    H223249   3.894   6.337   4.171
 7766TIP3   OH223250   4.539   6.233   4.592
 7766TIP3    H123251   4.572   6.147   4.624
 7766TIP3    H223252   4.620   6.271   4.557
 7767TIP3   OH223253   4.670   6.538   4.307
 7767TIP3    H123254   4.588   6.587   4.283
 7767TIP3    H223255   4.658   6.456   4.256
 7768TIP3   OH223256   3.812   6.051   4.774
 7768TIP3    H123257   3.743   5.984   4.791
 7768TIP3    H223258   3.840   6.028   4.684
 7769TIP3   OH223259   4.063   5.500   4.418
 7769TIP3    H123260   4.013   5.581   4.395
 7769TIP3    H223261   3.995   5.431   4.408
 7770TIP3   OH223262   4.189   6.002   4.631
 7770TIP3    H123263   4.169   5.985   4.725
 7770TIP3    H223264   4.100   5.980   4.594
 7771TIP3   OH223265   4.427   5.952   4.487
 7771TIP3    H123266   4.353   5.953   4.551
 7771TIP3    H223267   4.502   5.922   4.543
 7772TIP3   OH223268   4.660   5.898   4.630
 7772TIP3    H123269   4.675   5.802   4.645
 7772TIP3    H223270   4.656   5.933   4.722
 7773TIP3   OH223271   3.642   5.839   4.830
 7773TIP3    H123272   3.645   5.747   4.797
 7773TIP3    H223273   3.672   5.826   4.922
 7774TIP3   OH223274   4.158   5.512   4.676
 7774TIP3    H123275   4.223   5.439   4.669
 7774TIP3    H223276   4.117   5.508   4.587
 7775TIP3   OH223277   4.226   5.726   4.833
 7775TIP3    H123278   4.205   5.654   4.770
 7775TIP3    H223279   4.146   5.783   4.827
 7776TIP3   OH223280   3.448   6.947   2.932
 7776TIP3    H123281   3.541   6.956   2.906
 7776TIP3    H223282   3.408   6.999   2.860
 7777TIP3   OH223283   2.924   6.335   3.144
 7777TIP3    H123284   3.020   6.354   3.129
 7777TIP3    H223285   2.916   6.247   3.102
 7778TIP3   OH223286   2.848   6.947   3.564
 7778TIP3    H123287   2.780   6.889   3.524
 7778TIP3    H223288   2.890   6.885   3.628
 7779TIP3   OH223289   2.982   6.788   3.748
 7779TIP3    H123290   2.963   6.726   3.820
 7779TIP3    H223291   3.030   6.857   3.798
 7780TIP3   OH223292   4.707   7.194   3.552
 7780TIP3    H123293   4.733   7.235   3.637
 7780TIP3    H223294   4.771   7.234   3.491
 7781TIP3   OH223295   4.728   7.219   3.836
 7781TIP3    H123296   4.687   7.131   3.831
 7781TIP3    H223297   4.810   7.198   3.884
 7782TIP3   OH223298   4.803   6.835   4.425
 7782TIP3    H123299   4.727   6.855   4.484
 7782TIP3    H223300   4.839   6.925   4.415
 7783TIP3   OH223301   4.584   6.413   3.026
 7783TIP3    H123302   4.645   6.483   2.993
 7783TIP3    H223303   4.639   6.373   3.097
 7784TIP3   OH223304   4.724   6.276   3.225
 7784TIP3    H123305   4.656   6.236   3.282
 7784TIP3    H223306   4.788   6.312   3.290
 7785TIP3   OH223307   4.785   6.671   3.661
 7785TIP3    H123308   4.832   6.602   3.611
 7785TIP3    H223309   4.785   6.745   3.597
 7786TIP3   OH223310   4.607   6.963   3.859
 7786TIP3    H123311   4.535   7.011   3.904
 7786TIP3    H223312   4.559   6.921   3.784
 7787TIP3   OH223313   4.638   6.168   2.892
 7787TIP3    H123314   4.582   6.177   2.812
 7787TIP3    H223315   4.632   6.258   2.927
 7788TIP3   OH223316   4.521   5.852   2.839
 7788TIP3    H123317   4.499   5.896   2.756
 7788TIP3    H223318   4.500   5.758   2.817
 7789TIP3   OH223319   4.533   6.139   3.370
 7789TIP3    H123320   4.543   6.043   3.357
 7789TIP3    H223321   4.519   6.146   3.467
 7790TIP3   OH223322   3.161   6.205   4.118
 7790TIP3    H123323   3.160   6.172   4.026
 7790TIP3    H223324   3.258   6.205   4.136
 7791TIP3   OH223325   4.963   6.433   4.316
 7791TIP3    H123326   4.901   6.356   4.309
 7791TIP3    H223327   5.049   6.389   4.306
 7792TIP3   OH223328   4.476   5.585   2.802
 7792TIP3    H123329   4.547   5.556   2.862
 7792TIP3    H223330   4.401   5.527   2.823
 7793TIP3   OH223331   4.535   5.857   3.260
 7793TIP3    H123332   4.579   5.769   3.273
 7793TIP3    H223333   4.590   5.891   3.186
 7794TIP3   OH223334   4.693   6.014   3.762
 7794TIP3    H123335   4.778   6.040   3.718
 7794TIP3    H223336   4.709   6.055   3.849
 7795TIP3   OH223337   4.767   6.168   3.985
 7795TIP3    H123338   4.692   6.205   4.034
 7795TIP3    H223339   4.802   6.248   3.940
 7796TIP3   OH223340   3.367   5.869   4.820
 7796TIP3    H123341   3.464   5.861   4.816
 7796TIP3    H223342   3.348   5.809   4.896
 7797TIP3   OH223343   5.210   5.762   4.541
 7797TIP3    H123344   5.275   5.699   4.504
 7797TIP3    H223345   5.185   5.814   4.463
 7798TIP3   OH223346   4.645   5.607   3.301
 7798TIP3    H123347   4.691   5.587   3.385
 7798TIP3    H223348   4.584   5.531   3.295
 7799TIP3   OH223349   3.342   5.586   4.118
 7799TIP3    H123350   3.403   5.510   4.130
 7799TIP3    H223351   3.405   5.660   4.113
 7800TIP3   OH223352   3.136   5.860   4.188
 7800TIP3    H123353   3.193   5.864   4.108
 7800TIP3    H223354   3.169   5.934   4.240
 7801TIP3   OH223355   5.084   5.899   4.338
 7801TIP3    H123356   4.998   5.939   4.358
 7801TIP3    H223357   5.054   5.820   4.289
 7802TIP3   OH223358   4.719   5.529   2.942
 7802TIP3    H123359   4.759   5.465   2.879
 7802TIP3    H223360   4.782   5.604   2.936
 7803TIP3   OH223361   3.131   5.361   3.696
 7803TIP3    H123362   3.039   5.355   3.725
 7803TIP3    H223363   3.124   5.420   3.618
 7804TIP3   OH223364   4.274   7.065   3.201
 7804TIP3    H123365   4.331   7.058   3.122
 7804TIP3    H223366   4.323   7.130   3.255
 7805TIP3   OH223367   3.346   5.433   4.512
 7805TIP3    H123368   3.299   5.439   4.597
 7805TIP3    H223369   3.281   5.477   4.453
 7806TIP3   OH223370   3.386   6.857   4.576
 7806TIP3    H123371   3.289   6.851   4.562
 7806TIP3    H223372   3.390   6.885   4.668
 7807TIP3   OH223373   3.573   6.906   4.134
 7807TIP3    H123374   3.519   6.980   4.099
 7807TIP3    H223375   3.656   6.926   4.087
 7808TIP3   OH223376   4.006   7.142   4.268
 7808TIP3    H123377   4.045   7.143   4.358
 7808TIP3    H223378   4.070   7.198   4.219
 7809TIP3   OH223379   4.186   7.304   4.138
 7809TIP3    H123380   4.258   7.256   4.094
 7809TIP3    H223381   4.237   7.362   4.198
 7810TIP3   OH223382   4.988   5.656   4.230
 7810TIP3    H123383   4.897   5.637   4.201
 7810TIP3    H223384   5.026   5.565   4.226
 7811TIP3   OH223385   3.244   7.163   4.170
 7811TIP3    H123386   3.154   7.189   4.143
 7811TIP3    H223387   3.240   7.188   4.264
 7812TIP3   OH223388   3.476   7.139   4.024
 7812TIP3    H123389   3.391   7.153   4.071
 7812TIP3    H223390   3.454   7.173   3.934
 7813TIP3   OH223391   3.905   7.164   3.816
 7813TIP3    H123392   3.832   7.181   3.754
 7813TIP3    H223393   3.915   7.252   3.858
 7814TIP3   OH223394   4.174   7.100   3.870
 7814TIP3    H123395   4.080   7.123   3.853
 7814TIP3    H223396   4.220   7.174   3.826
 7815TIP3   OH223397   4.372   7.291   3.779
 7815TIP3    H123398   4.362   7.378   3.734
 7815TIP3    H223399   4.403   7.234   3.705
 7816TIP3   OH223400   3.159   6.954   3.898
 7816TIP3    H123401   3.179   6.923   3.989
 7816TIP3    H223402   3.232   6.909   3.849
 7817TIP3   OH223403   3.353   6.824   3.761
 7817TIP3    H123404   3.365   6.741   3.813
 7817TIP3    H223405   3.445   6.860   3.764
 7818TIP3   OH223406   3.619   6.912   3.773
 7818TIP3    H123407   3.647   6.818   3.773
 7818TIP3    H223408   3.668   6.942   3.852
 7819TIP3   OH223409   4.190   5.577   3.860
 7819TIP3    H123410   4.148   5.503   3.908
 7819TIP3    H223411   4.265   5.532   3.815
 7820TIP3   OH223412   4.703   5.454   3.751
 7820TIP3    H123413   4.740   5.503   3.674
 7820TIP3    H223414   4.609   5.481   3.749
 7821TIP3   OH223415   4.802   5.549   3.518
 7821TIP3    H123416   4.876   5.496   3.483
 7821TIP3    H223417   4.839   5.639   3.505
 7822TIP3   OH223418   3.436   5.279   3.865
 7822TIP3    H123419   3.343   5.248   3.869
 7822TIP3    H223420   3.483   5.193   3.860
 7823TIP3   OH223421   3.233   5.157   3.522
 7823TIP3    H123422   3.260   5.210   3.445
 7823TIP3    H223423   3.206   5.225   3.586
 7824TIP3   OH223424   3.900   5.309   3.745
 7824TIP3    H123425   3.950   5.363   3.680
 7824TIP3    H223426   3.921   5.354   3.828
 7825TIP3   OH223427   4.420   5.466   3.739
 7825TIP3    H123428   4.432   5.426   3.652
 7825TIP3    H223429   4.411   5.385   3.795
 7826TIP3   OH223430   4.461   5.396   3.294
 7826TIP3    H123431   4.376   5.444   3.310
 7826TIP3    H223432   4.467   5.341   3.373
 7827TIP3   OH223433   2.942   6.733   3.289
 7827TIP3    H123434   2.854   6.702   3.259
 7827TIP3    H223435   2.935   6.826   3.259
 7828TIP3   OH223436   3.346   5.309   3.280
 7828TIP3    H123437   3.392   5.247   3.220
 7828TIP3    H223438   3.421   5.363   3.313
 7829TIP3   OH223439   3.855   5.489   3.381
 7829TIP3    H123440   3.917   5.446   3.442
 7829TIP3    H223441   3.874   5.583   3.404
 7830TIP3   OH223442   3.718   6.922   2.874
 7830TIP3    H123443   3.805   6.945   2.835
 7830TIP3    H223444   3.695   6.847   2.814
 7831TIP3   OH223445   4.429   7.032   2.974
 7831TIP3    H123446   4.419   6.935   2.961
 7831TIP3    H223447   4.388   7.065   2.891
 7832TIP3   OH223448   3.641   5.573   4.749
 7832TIP3    H123449   3.595   5.509   4.806
 7832TIP3    H223450   3.733   5.563   4.783
 7833TIP3   OH223451   3.892   5.560   4.877
 7833TIP3    H123452   3.978   5.530   4.842
 7833TIP3    H223453   3.874   5.490   4.944
 7834TIP3   OH223454   3.016   6.748   2.929
 7834TIP3    H123455   3.016   6.766   3.024
 7834TIP3    H223456   3.103   6.702   2.916
 7835TIP3   OH223457   4.724   5.628   4.664
 7835TIP3    H123458   4.739   5.597   4.756
 7835TIP3    H223459   4.814   5.621   4.626
 7836TIP3   OH223460   4.653   7.172   4.157
 7836TIP3    H123461   4.576   7.146   4.104
 7836TIP3    H223462   4.638   7.269   4.164
 7837TIP3   OH223463   5.925   6.549   2.920
 7837TIP3    H123464   5.892   6.639   2.898
 7837TIP3    H223465   5.853   6.496   2.883
 7838TIP3   OH223466   5.927   6.554   3.311
 7838TIP3    H123467   5.962   6.528   3.398
 7838TIP3    H223468   5.888   6.472   3.279
 7839TIP3   OH223469   5.222   6.444   3.674
 7839TIP3    H123470   5.255   6.376   3.736
 7839TIP3    H223471   5.304   6.487   3.646
 7840TIP3   OH223472   6.173   6.855   2.991
 7840TIP3    H123473   6.155   6.790   3.060
 7840TIP3    H223474   6.206   6.931   3.043
 7841TIP3   OH223475   5.200   6.855   3.393
 7841TIP3    H123476   5.192   6.757   3.392
 7841TIP3    H223477   5.296   6.865   3.377
 7842TIP3   OH223478   4.898   6.048   3.178
 7842TIP3    H123479   4.853   6.134   3.187
 7842TIP3    H223480   4.832   6.001   3.124
 7843TIP3   OH223481   4.959   6.342   3.361
 7843TIP3    H123482   5.011   6.263   3.384
 7843TIP3    H223483   5.008   6.379   3.287
 7844TIP3   OH223484   5.827   7.315   3.009
 7844TIP3    H123485   5.861   7.244   2.951
 7844TIP3    H223486   5.813   7.268   3.092
 7845TIP3   OH223487   5.720   6.775   3.356
 7845TIP3    H123488   5.765   6.702   3.310
 7845TIP3    H223489   5.801   6.825   3.384
 7846TIP3   OH223490   6.743   6.093   3.353
 7846TIP3    H123491   6.771   6.178   3.391
 7846TIP3    H223492   6.766   6.106   3.259
 7847TIP3   OH223493   6.130   6.270   3.383
 7847TIP3    H123494   6.178   6.187   3.402
 7847TIP3    H223495   6.101   6.254   3.291
 7848TIP3   OH223496   5.478   5.933   3.349
 7848TIP3    H123497   5.458   6.007   3.288
 7848TIP3    H223498   5.432   5.860   3.301
 7849TIP3   OH223499   6.173   6.031   2.968
 7849TIP3    H123500   6.245   6.017   3.034
 7849TIP3    H223501   6.226   6.064   2.892
 7850TIP3   OH223502   5.110   6.127   3.464
 7850TIP3    H123503   5.201   6.134   3.495
 7850TIP3    H223504   5.122   6.078   3.380
 7851TIP3   OH223505   5.545   6.332   3.262
 7851TIP3    H123506   5.640   6.310   3.266
 7851TIP3    H223507   5.508   6.250   3.223
 7852TIP3   OH223508   6.815   6.305   3.525
 7852TIP3    H123509   6.730   6.351   3.506
 7852TIP3    H223510   6.844   6.352   3.605
 7853TIP3   OH223511   5.805   6.765   2.793
 7853TIP3    H123512   5.772   6.759   2.702
 7853TIP3    H223513   5.762   6.848   2.823
 7854TIP3   OH223514   5.576   6.693   3.572
 7854TIP3    H123515   5.520   6.767   3.605
 7854TIP3    H223516   5.622   6.737   3.497
 7855TIP3   OH223517   6.373   6.037   3.152
 7855TIP3    H123518   6.359   5.995   3.238
 7855TIP3    H223519   6.425   6.116   3.176
 7856TIP3   OH223520   5.367   6.007   3.587
 7856TIP3    H123521   5.420   6.088   3.607
 7856TIP3    H223522   5.411   5.980   3.503
 7857TIP3   OH223523   5.411   6.896   3.675
 7857TIP3    H123524   5.386   6.982   3.637
 7857TIP3    H223525   5.330   6.878   3.728
 7858TIP3   OH223526   4.765   6.594   2.928
 7858TIP3    H123527   4.768   6.589   2.831
 7858TIP3    H223528   4.830   6.663   2.947
 7859TIP3   OH223529   6.235   7.098   3.150
 7859TIP3    H123530   6.145   7.090   3.188
 7859TIP3    H223531   6.229   7.185   3.105
 7860TIP3   OH223532   6.534   5.988   3.515
 7860TIP3    H123533   6.448   6.017   3.481
 7860TIP3    H223534   6.596   6.024   3.448
 7861TIP3   OH223535   5.831   5.622   3.486
 7861TIP3    H123536   5.821   5.527   3.506
 7861TIP3    H223537   5.767   5.662   3.546
 7862TIP3   OH223538   5.930   7.141   2.817
 7862TIP3    H123539   5.981   7.058   2.801
 7862TIP3    H223540   5.994   7.206   2.781
 7863TIP3   OH223541   6.077   6.925   2.742
 7863TIP3    H123542   6.056   6.843   2.695
 7863TIP3    H223543   6.117   6.891   2.825
 7864TIP3   OH223544   6.460   7.003   3.498
 7864TIP3    H123545   6.449   6.928   3.435
 7864TIP3    H223546   6.442   7.080   3.440
 7865TIP3   OH223547   5.758   6.402   2.759
 7865TIP3    H123548   5.677   6.455   2.741
 7865TIP3    H223549   5.800   6.399   2.671
 7866TIP3   OH223550   5.714   6.191   2.461
 7866TIP3    H123551   5.779   6.244   2.511
 7866TIP3    H223552   5.774   6.128   2.416
 7867TIP3   OH223553   6.659   6.648   3.347
 7867TIP3    H123554   6.574   6.698   3.347
 7867TIP3    H223555   6.690   6.670   3.256
 7868TIP3   OH223556   6.104   6.485   2.722
 7868TIP3    H123557   6.050   6.509   2.801
 7868TIP3    H223558   6.189   6.462   2.765
 7869TIP3   OH223559   6.338   6.518   3.648
 7869TIP3    H123560   6.337   6.601   3.699
 7869TIP3    H223561   6.253   6.526   3.599
 7870TIP3   OH223562   5.328   6.476   3.144
 7870TIP3    H123563   5.282   6.419   3.078
 7870TIP3    H223564   5.405   6.422   3.169
 7871TIP3   OH223565   5.461   6.888   3.290
 7871TIP3    H123566   5.444   6.865   3.197
 7871TIP3    H223567   5.549   6.850   3.305
 7872TIP3   OH223568   5.464   6.451   3.500
 7872TIP3    H123569   5.499   6.422   3.413
 7872TIP3    H223570   5.511   6.536   3.514
 7873TIP3   OH223571   5.996   7.091   3.275
 7873TIP3    H123572   5.983   7.172   3.327
 7873TIP3    H223573   5.978   7.020   3.340
 7874TIP3   OH223574   5.614   7.007   3.824
 7874TIP3    H123575   5.551   7.069   3.868
 7874TIP3    H223576   5.551   6.955   3.769
 7875TIP3   OH223577   5.940   6.342   2.552
 7875TIP3    H123578   5.999   6.404   2.600
 7875TIP3    H223579   5.966   6.361   2.458
 7876TIP3   OH223580   5.370   6.555   3.941
 7876TIP3    H123581   5.373   6.647   3.974
 7876TIP3    H223582   5.273   6.541   3.938
 7877TIP3   OH223583   5.690   7.016   2.831
 7877TIP3    H123584   5.775   7.065   2.830
 7877TIP3    H223585   5.632   7.075   2.782
 7878TIP3   OH223586   5.404   7.168   3.909
 7878TIP3    H123587   5.371   7.178   3.818
 7878TIP3    H223588   5.323   7.144   3.959
 7879TIP3   OH223589   6.460   5.578   2.604
 7879TIP3    H123590   6.378   5.603   2.651
 7879TIP3    H223591   6.476   5.659   2.551
 7880TIP3   OH223592   5.169   6.324   2.955
 7880TIP3    H123593   5.130   6.377   2.884
 7880TIP3    H223594   5.143   6.237   2.922
 7881TIP3   OH223595   6.262   6.945   2.154
 7881TIP3    H123596   6.273   7.042   2.143
 7881TIP3    H223597   6.354   6.914   2.142
 7882TIP3   OH223598   4.978   6.712   3.861
 7882TIP3    H123599   4.912   6.697   3.790
 7882TIP3    H223600   5.018   6.623   3.871
 7883TIP3   OH223601   4.840   6.896   3.495
 7883TIP3    H123602   4.935   6.894   3.477
 7883TIP3    H223603   4.832   6.979   3.545
 7884TIP3   OH223604   6.684   7.329   3.555
 7884TIP3    H123605   6.683   7.235   3.575
 7884TIP3    H223606   6.598   7.358   3.595
 7885TIP3   OH223607   5.806   7.136   3.679
 7885TIP3    H123608   5.801   7.229   3.711
 7885TIP3    H223609   5.737   7.094   3.734
 7886TIP3   OH223610   5.575   7.262   2.633
 7886TIP3    H123611   5.525   7.246   2.551
 7886TIP3    H223612   5.539   7.348   2.662
 7887TIP3   OH223613   5.009   7.114   3.019
 7887TIP3    H123614   5.053   7.103   3.105
 7887TIP3    H223615   4.967   7.026   3.007
 7888TIP3   OH223616   5.769   7.168   2.267
 7888TIP3    H123617   5.827   7.097   2.231
 7888TIP3    H223618   5.805   7.178   2.358
 7889TIP3   OH223619   5.823   7.216   2.535
 7889TIP3    H123620   5.735   7.225   2.578
 7889TIP3    H223621   5.875   7.178   2.608
 7890TIP3   OH223622   6.588   6.478   3.825
 7890TIP3    H123623   6.506   6.489   3.775
 7890TIP3    H223624   6.605   6.382   3.815
 7891TIP3   OH223625   5.188   6.888   3.836
 7891TIP3    H123626   5.233   6.876   3.922
 7891TIP3    H223627   5.112   6.827   3.844
 7892TIP3   OH223628   6.129   5.824   3.829
 7892TIP3    H123629   6.206   5.799   3.885
 7892TIP3    H223630   6.054   5.806   3.887
 7893TIP3   OH223631   6.353   6.254   3.739
 7893TIP3    H123632   6.305   6.255   3.825
 7893TIP3    H223633   6.336   6.344   3.704
 7894TIP3   OH223634   6.018   6.377   2.296
 7894TIP3    H123635   5.983   6.360   2.207
 7894TIP3    H223636   6.104   6.418   2.274
 7895TIP3   OH223637   5.731   5.757   2.602
 7895TIP3    H123638   5.692   5.755   2.691
 7895TIP3    H223639   5.689   5.677   2.564
 7896TIP3   OH223640   5.516   6.227   3.649
 7896TIP3    H123641   5.473   6.257   3.732
 7896TIP3    H223642   5.504   6.307   3.593
 7897TIP3   OH223643   5.403   6.115   3.165
 7897TIP3    H123644   5.307   6.098   3.174
 7897TIP3    H223645   5.418   6.077   3.075
 7898TIP3   OH223646   5.893   6.201   2.893
 7898TIP3    H123647   5.844   6.272   2.847
 7898TIP3    H223648   5.949   6.166   2.820
 7899TIP3   OH223649   6.070   6.472   3.969
 7899TIP3    H123650   6.049   6.401   4.034
 7899TIP3    H223651   6.162   6.491   3.993
 7900TIP3   OH223652   6.044   6.225   3.126
 7900TIP3    H123653   5.983   6.253   3.054
 7900TIP3    H223654   6.083   6.148   3.080
 7901TIP3   OH223655   5.335   6.268   3.861
 7901TIP3    H123656   5.376   6.338   3.914
 7901TIP3    H223657   5.320   6.198   3.926
 7902TIP3   OH223658   5.385   5.737   2.567
 7902TIP3    H123659   5.374   5.741   2.664
 7902TIP3    H223660   5.314   5.798   2.539
 7903TIP3   OH223661   4.933   5.770   3.447
 7903TIP3    H123662   5.004   5.822   3.485
 7903TIP3    H223663   4.960   5.757   3.354
 7904TIP3   OH223664   4.888   5.759   2.951
 7904TIP3    H123665   4.930   5.799   2.872
 7904TIP3    H223666   4.827   5.832   2.973
 7905TIP3   OH223667   6.051   6.466   3.549
 7905TIP3    H123668   6.087   6.397   3.489
 7905TIP3    H223669   6.021   6.411   3.623
 7906TIP3   OH223670   5.740   5.930   3.219
 7906TIP3    H123671   5.659   5.935   3.272
 7906TIP3    H223672   5.810   5.936   3.286
 7907TIP3   OH223673   5.158   5.989   3.237
 7907TIP3    H123674   5.067   6.002   3.200
 7907TIP3    H223675   5.186   5.905   3.197
 7908TIP3   OH223676   5.431   5.989   2.927
 7908TIP3    H123677   5.523   6.005   2.900
 7908TIP3    H223678   5.382   6.006   2.843
 7909TIP3   OH223679   6.224   6.013   3.428
 7909TIP3    H123680   6.193   6.027   3.520
 7909TIP3    H223681   6.154   5.954   3.395
 7910TIP3   OH223682   5.300   6.001   2.695
 7910TIP3    H123683   5.207   6.009   2.667
 7910TIP3    H223684   5.344   6.051   2.623
 7911TIP3   OH223685   6.392   7.697   3.647
 7911TIP3    H123686   6.393   7.727   3.554
 7911TIP3    H223687   6.474   7.739   3.680
 7912TIP3   OH223688   5.346   6.807   4.072
 7912TIP3    H123689   5.432   6.836   4.110
 7912TIP3    H223690   5.287   6.829   4.147
 7913TIP3   OH223691   5.814   6.265   3.312
 7913TIP3    H123692   5.889   6.236   3.258
 7913TIP3    H223693   5.831   6.220   3.397
 7914TIP3   OH223694   5.331   5.752   3.202
 7914TIP3    H123695   5.300   5.672   3.249
 7914TIP3    H223696   5.362   5.715   3.118
 7915TIP3   OH223697   5.788   6.152   3.622
 7915TIP3    H123698   5.699   6.188   3.637
 7915TIP3    H223699   5.846   6.214   3.671
 7916TIP3   OH223700   5.528   6.555   2.708
 7916TIP3    H123701   5.463   6.481   2.702
 7916TIP3    H223702   5.506   6.590   2.798
 7917TIP3   OH223703   6.424   6.790   3.325
 7917TIP3    H123704   6.449   6.842   3.246
 7917TIP3    H223705   6.339   6.748   3.297
 7918TIP3   OH223706   5.983   5.857   2.582
 7918TIP3    H123707   5.886   5.838   2.585
 7918TIP3    H223708   5.987   5.953   2.600
 7919TIP3   OH223709   5.914   6.867   3.707
 7919TIP3    H123710   5.968   6.866   3.787
 7919TIP3    H223711   5.884   6.960   3.703
 7920TIP3   OH223712   6.048   6.115   2.676
 7920TIP3    H123713   6.145   6.123   2.687
 7920TIP3    H223714   6.027   6.195   2.623
 7921TIP3   OH223715   5.220   6.578   3.377
 7921TIP3    H123716   5.252   6.552   3.287
 7921TIP3    H223717   5.275   6.520   3.432
 7922TIP3   OH223718   5.672   6.703   2.529
 7922TIP3    H123719   5.622   6.788   2.531
 7922TIP3    H223720   5.618   6.649   2.591
 7923TIP3   OH223721   5.103   6.496   3.991
 7923TIP3    H123722   5.127   6.478   4.084
 7923TIP3    H223723   5.031   6.432   3.974
 7924TIP3   OH223724   5.833   6.613   4.011
 7924TIP3    H123725   5.777   6.563   3.950
 7924TIP3    H223726   5.922   6.579   3.985
 7925TIP3   OH223727   6.080   7.125   3.607
 7925TIP3    H123728   5.983   7.132   3.617
 7925TIP3    H223729   6.110   7.181   3.681
 7926TIP3   OH223730   6.487   6.211   2.507
 7926TIP3    H123731   6.426   6.167   2.443
 7926TIP3    H223732   6.484   6.301   2.466
 7927TIP3   OH223733   6.709   7.051   3.590
 7927TIP3    H123734   6.612   7.047   3.576
 7927TIP3    H223735   6.739   7.027   3.499
 7928TIP3   OH223736   6.188   7.017   2.416
 7928TIP3    H123737   6.169   6.942   2.474
 7928TIP3    H223738   6.209   6.974   2.331
 7929TIP3   OH223739   6.189   6.654   3.244
 7929TIP3    H123740   6.095   6.632   3.258
 7929TIP3    H223741   6.221   6.573   3.200
 7930TIP3   OH223742   5.323   6.886   3.012
 7930TIP3    H123743   5.320   6.965   2.955
 7930TIP3    H223744   5.231   6.859   3.012
 7931TIP3   OH223745   5.448   6.644   2.950
 7931TIP3    H123746   5.418   6.735   2.970
 7931TIP3    H223747   5.409   6.593   3.023
 7932TIP3   OH223748   5.592   7.221   3.471
 7932TIP3    H123749   5.633   7.295   3.421
 7932TIP3    H223750   5.669   7.185   3.517
 7933TIP3   OH223751   5.237   7.121   2.858
 7933TIP3    H123752   5.152   7.131   2.905
 7933TIP3    H223753   5.271   7.214   2.861
 7934TIP3   OH223754   5.969   6.859   3.438
 7934TIP3    H123755   5.959   6.853   3.535
 7934TIP3    H223756   6.051   6.811   3.423
 7935TIP3   OH223757   5.957   6.756   2.318
 7935TIP3    H123758   6.009   6.732   2.398
 7935TIP3    H223759   5.869   6.724   2.344
 7936TIP3   OH223760   6.220   7.387   3.479
 7936TIP3    H123761   6.137   7.337   3.469
 7936TIP3    H223762   6.208   7.454   3.408
 7937TIP3   OH223763   6.298   7.219   2.138
 7937TIP3    H123764   6.327   7.261   2.056
 7937TIP3    H223765   6.219   7.274   2.160
 7938TIP3   OH223766   5.303   5.966   3.983
 7938TIP3    H123767   5.213   5.988   4.013
 7938TIP3    H223768   5.346   5.940   4.068
 7939TIP3   OH223769   6.118   6.690   2.534
 7939TIP3    H123770   6.106   6.620   2.602
 7939TIP3    H223771   6.214   6.683   2.519
 7940TIP3   OH223772   5.026   7.087   3.630
 7940TIP3    H123773   5.086   7.021   3.667
 7940TIP3    H223774   5.056   7.168   3.674
 7941TIP3   OH223775   5.314   6.729   2.318
 7941TIP3    H123776   5.325   6.635   2.294
 7941TIP3    H223777   5.288   6.721   2.412
 7942TIP3   OH223778   5.254   6.739   2.588
 7942TIP3    H123779   5.330   6.707   2.637
 7942TIP3    H223780   5.261   6.837   2.600
 7943TIP3   OH223781   6.151   6.065   3.689
 7943TIP3    H123782   6.234   6.108   3.719
 7943TIP3    H223783   6.147   5.985   3.745
 7944TIP3   OH223784   6.032   5.809   2.858
 7944TIP3    H123785   6.016   5.828   2.764
 7944TIP3    H223786   6.071   5.893   2.890
 7945TIP3   OH223787   5.531   6.934   2.536
 7945TIP3    H123788   5.443   6.956   2.574
 7945TIP3    H223789   5.543   7.009   2.476
 7946TIP3   OH223790   5.716   5.997   2.951
 7946TIP3    H123791   5.777   6.072   2.933
 7946TIP3    H223792   5.723   5.990   3.048
 7947TIP3   OH223793   5.984   6.305   3.760
 7947TIP3    H123794   6.016   6.360   3.834
 7947TIP3    H223795   6.044   6.227   3.763
 7948TIP3   OH223796   5.852   5.712   3.048
 7948TIP3    H123797   5.835   5.793   3.100
 7948TIP3    H223798   5.918   5.745   2.983
 7949TIP3   OH223799   5.279   7.011   2.610
 7949TIP3    H123800   5.248   7.081   2.549
 7949TIP3    H223801   5.262   7.052   2.697
 7950TIP3   OH223802   5.369   5.723   2.848
 7950TIP3    H123803   5.364   5.817   2.873
 7950TIP3    H223804   5.466   5.710   2.851
 7951TIP3   OH223805   6.622   6.213   3.747
 7951TIP3    H123806   6.524   6.207   3.747
 7951TIP3    H223807   6.642   6.181   3.658
 7952TIP3   OH223808   6.274   6.406   3.129
 7952TIP3    H123809   6.199   6.346   3.139
 7952TIP3    H223810   6.346   6.359   3.177
 7953TIP3   OH223811   4.983   6.656   2.573
 7953TIP3    H123812   5.068   6.700   2.593
 7953TIP3    H223813   5.018   6.579   2.523
 7954TIP3   OH223814   4.928   5.928   2.737
 7954TIP3    H123815   4.975   6.014   2.736
 7954TIP3    H223816   4.862   5.945   2.669
 7955TIP3   OH223817   6.255   7.370   3.074
 7955TIP3    H123818   6.209   7.418   3.001
 7955TIP3    H223819   6.348   7.386   3.049
 7956TIP3   OH223820   5.322   5.652   3.627
 7956TIP3    H123821   5.313   5.620   3.534
 7956TIP3    H223822   5.318   5.566   3.674
 7957TIP3   OH223823   4.870   6.868   2.978
 7957TIP3    H123824   4.801   6.878   3.044
 7957TIP3    H223825   4.826   6.905   2.897
 7958TIP3   OH223826   5.022   7.407   4.055
 7958TIP3    H123827   5.108   7.411   4.104
 7958TIP3    H223828   5.005   7.311   4.055
 7959TIP3   OH223829   5.488   7.350   4.103
 7959TIP3    H123830   5.585   7.347   4.108
 7959TIP3    H223831   5.471   7.285   4.031
 7960TIP3   OH223832   5.477   6.930   2.224
 7960TIP3    H123833   5.423   6.858   2.263
 7960TIP3    H223834   5.554   6.880   2.191
 7961TIP3   OH223835   6.134   7.266   3.836
 7961TIP3    H123836   6.130   7.197   3.906
 7961TIP3    H223837   6.213   7.318   3.864
 7962TIP3   OH223838   5.912   6.968   2.143
 7962TIP3    H123839   5.951   6.903   2.205
 7962TIP3    H223840   5.971   6.961   2.065
 7963TIP3   OH223841   5.136   6.786   4.269
 7963TIP3    H123842   5.168   6.696   4.249
 7963TIP3    H223843   5.063   6.797   4.204
 7964TIP3   OH223844   5.101   6.449   2.444
 7964TIP3    H123845   5.110   6.380   2.513
 7964TIP3    H223846   5.189   6.448   2.401
 7965TIP3   OH223847   5.751   6.889   4.032
 7965TIP3    H123848   5.717   6.916   3.944
 7965TIP3    H223849   5.788   6.801   4.014
 7966TIP3   OH223850   5.648   6.651   2.260
 7966TIP3    H123851   5.647   6.662   2.357
 7966TIP3    H223852   5.646   6.553   2.253
 7967TIP3   OH223853   6.245   6.905   3.638
 7967TIP3    H123854   6.324   6.941   3.593
 7967TIP3    H223855   6.180   6.977   3.621
 7968TIP3   OH223856   5.257   6.523   4.243
 7968TIP3    H123857   5.341   6.500   4.200
 7968TIP3    H223858   5.289   6.559   4.328
 7969TIP3   OH223859   5.357   6.343   2.693
 7969TIP3    H123860   5.272   6.305   2.720
 7969TIP3    H223861   5.385   6.278   2.625
 7970TIP3   OH223862   5.595   6.412   3.889
 7970TIP3    H123863   5.525   6.480   3.896
 7970TIP3    H223864   5.653   6.451   3.818
 7971TIP3   OH223865   5.437   6.152   2.507
 7971TIP3    H123866   5.409   6.164   2.414
 7971TIP3    H223867   5.534   6.155   2.498
 7972TIP3   OH223868   6.117   6.820   4.031
 7972TIP3    H123869   6.197   6.791   3.984
 7972TIP3    H223870   6.114   6.758   4.106
 7973TIP3   OH223871   6.247   6.476   2.184
 7973TIP3    H123872   6.234   6.435   2.096
 7973TIP3    H223873   6.215   6.567   2.163
 7974TIP3   OH223874   5.723   6.225   4.030
 7974TIP3    H123875   5.739   6.158   3.962
 7974TIP3    H223876   5.679   6.295   3.976
 7975TIP3   OH223877   5.751   6.535   3.712
 7975TIP3    H123878   5.838   6.550   3.673
 7975TIP3    H223879   5.695   6.597   3.660
 7976TIP3   OH223880   6.331   6.498   4.079
 7976TIP3    H123881   6.383   6.418   4.096
 7976TIP3    H223882   6.398   6.558   4.043
 7977TIP3   OH223883   6.373   6.750   3.818
 7977TIP3    H123884   6.316   6.808   3.761
 7977TIP3    H223885   6.461   6.773   3.781
 7978TIP3   OH223886   5.597   6.316   4.264
 7978TIP3    H123887   5.532   6.245   4.278
 7978TIP3    H223888   5.634   6.291   4.177
 7979TIP3   OH223889   5.853   5.763   3.899
 7979TIP3    H123890   5.829   5.832   3.836
 7979TIP3    H223891   5.782   5.697   3.884
 7980TIP3   OH223892   5.992   6.259   4.122
 7980TIP3    H123893   5.989   6.245   4.218
 7980TIP3    H223894   5.898   6.244   4.100
 7981TIP3   OH223895   6.225   6.209   3.972
 7981TIP3    H123896   6.152   6.213   4.037
 7981TIP3    H223897   6.301   6.182   4.027
 7982TIP3   OH223898   6.456   6.154   4.120
 7982TIP3    H123899   6.468   6.058   4.136
 7982TIP3    H223900   6.448   6.190   4.211
 7983TIP3   OH223901   5.433   6.095   4.316
 7983TIP3    H123902   5.438   6.001   4.288
 7983TIP3    H223903   5.476   6.088   4.403
 7984TIP3   OH223904   5.949   5.769   4.162
 7984TIP3    H123905   6.016   5.698   4.156
 7984TIP3    H223906   5.909   5.764   4.073
 7985TIP3   OH223907   6.019   5.983   4.320
 7985TIP3    H123908   5.999   5.911   4.257
 7985TIP3    H223909   5.939   6.039   4.314
 7986TIP3   OH223910   5.247   7.215   2.424
 7986TIP3    H123911   5.341   7.200   2.402
 7986TIP3    H223912   5.220   7.266   2.346
 7987TIP3   OH223913   4.726   6.594   2.635
 7987TIP3    H123914   4.819   6.622   2.616
 7987TIP3    H223915   4.724   6.507   2.590
 7988TIP3   OH223916   4.637   7.204   3.050
 7988TIP3    H123917   4.574   7.142   3.009
 7988TIP3    H223918   4.683   7.145   3.114
 7989TIP3   OH223919   4.767   7.051   3.239
 7989TIP3    H123920   4.759   6.980   3.305
 7989TIP3    H223921   4.824   7.114   3.287
 7990TIP3   OH223922   6.509   7.469   3.024
 7990TIP3    H123923   6.532   7.466   3.119
 7990TIP3    H223924   6.545   7.555   2.999
 7991TIP3   OH223925   6.523   7.470   3.308
 7991TIP3    H123926   6.486   7.379   3.317
 7991TIP3    H223927   6.609   7.458   3.352
 7992TIP3   OH223928   6.577   7.151   3.893
 7992TIP3    H123929   6.504   7.163   3.958
 7992TIP3    H223930   6.621   7.238   3.898
 7993TIP3   OH223931   6.393   6.665   2.507
 7993TIP3    H123932   6.458   6.730   2.473
 7993TIP3    H223933   6.442   6.629   2.585
 7994TIP3   OH223934   6.522   6.530   2.712
 7994TIP3    H123935   6.454   6.492   2.772
 7994TIP3    H223936   6.589   6.566   2.773
 7995TIP3   OH223937   6.581   6.930   3.143
 7995TIP3    H123938   6.631   6.861   3.095
 7995TIP3    H223939   6.583   7.004   3.080
 7996TIP3   OH223940   6.400   7.222   3.342
 7996TIP3    H123941   6.328   7.268   3.389
 7996TIP3    H223942   6.353   7.180   3.267
 7997TIP3   OH223943   6.456   6.441   2.357
 7997TIP3    H123944   6.384   6.443   2.290
 7997TIP3    H223945   6.430   6.518   2.411
 7998TIP3   OH223946   6.326   6.111   2.314
 7998TIP3    H123947   6.286   6.150   2.235
 7998TIP3    H223948   6.303   6.016   2.302
 7999TIP3   OH223949   6.329   6.394   2.858
 7999TIP3    H123950   6.338   6.298   2.847
 7999TIP3    H223951   6.315   6.404   2.954
 8000TIP3   OH223952   4.956   6.453   3.613
 8000TIP3    H123953   4.953   6.422   3.520
 8000TIP3    H223954   5.054   6.461   3.625
 8001TIP3   OH223955   6.621   6.815   3.720
 8001TIP3    H123956   6.691   6.747   3.704
 8001TIP3    H223957   6.648   6.886   3.659
 8002TIP3   OH223958   6.800   6.611   3.717
 8002TIP3    H123959   6.726   6.564   3.763
 8002TIP3    H223960   6.873   6.549   3.737
 8003TIP3   OH223961   6.272   5.844   2.290
 8003TIP3    H123962   6.341   5.812   2.351
 8003TIP3    H223963   6.195   5.788   2.310
 8004TIP3   OH223964   6.331   6.110   2.748
 8004TIP3    H123965   6.373   6.022   2.762
 8004TIP3    H223966   6.387   6.144   2.676
 8005TIP3   OH223967   6.488   6.273   3.250
 8005TIP3    H123968   6.573   6.297   3.206
 8005TIP3    H223969   6.504   6.314   3.337
 8006TIP3   OH223970   6.563   6.424   3.477
 8006TIP3    H123971   6.486   6.460   3.526
 8006TIP3    H223972   6.596   6.505   3.432
 8007TIP3   OH223973   5.166   6.169   4.291
 8007TIP3    H123974   5.264   6.161   4.293
 8007TIP3    H223975   5.143   6.079   4.322
 8008TIP3   OH223976   7.031   6.021   4.036
 8008TIP3    H123977   7.091   5.960   3.988
 8008TIP3    H223978   6.989   6.069   3.961
 8009TIP3   OH223979   6.439   5.859   2.791
 8009TIP3    H123980   6.486   5.841   2.874
 8009TIP3    H223981   6.377   5.783   2.787
 8010TIP3   OH223982   5.141   5.851   3.638
 8010TIP3    H123983   5.181   5.766   3.611
 8010TIP3    H223984   5.187   5.915   3.580
 8011TIP3   OH223985   4.938   6.115   3.684
 8011TIP3    H123986   4.989   6.111   3.601
 8011TIP3    H223987   4.955   6.206   3.712
 8012TIP3   OH223988   6.875   6.143   3.851
 8012TIP3    H123989   6.792   6.192   3.869
 8012TIP3    H223990   6.840   6.075   3.789
 8013TIP3   OH223991   6.513   5.785   2.429
 8013TIP3    H123992   6.553   5.720   2.369
 8013TIP3    H223993   6.577   5.859   2.427
 8014TIP3   OH223994   4.926   5.627   3.186
 8014TIP3    H123995   4.833   5.616   3.210
 8014TIP3    H223996   4.919   5.682   3.104
 8015TIP3   OH223997   6.080   7.328   2.693
 8015TIP3    H123998   6.129   7.313   2.610
 8015TIP3    H223999   6.141   7.383   2.744
 8016TIP3   OH224000   5.142   5.700   3.992
 8016TIP3    H124001   5.095   5.690   4.077
 8016TIP3    H224002   5.069   5.735   3.937
 8017TIP3   OH224003   5.185   7.114   4.074
 8017TIP3    H124004   5.089   7.105   4.064
 8017TIP3    H224005   5.194   7.130   4.169
 8018TIP3   OH224006   5.366   7.166   3.622
 8018TIP3    H124007   5.320   7.243   3.583
 8018TIP3    H224008   5.452   7.178   3.576
 8019TIP3   OH224009   5.799   7.404   3.757
 8019TIP3    H124010   5.842   7.402   3.845
 8019TIP3    H224011   5.866   7.457   3.707
 8020TIP3   OH224012   5.982   7.560   3.624
 8020TIP3    H124013   6.054   7.510   3.582
 8020TIP3    H224014   6.034   7.616   3.686
 8021TIP3   OH224015   6.778   5.913   3.719
 8021TIP3    H124016   6.691   5.904   3.678
 8021TIP3    H224017   6.814   5.822   3.709
 8022TIP3   OH224018   5.036   7.414   3.655
 8022TIP3    H124019   4.945   7.441   3.632
 8022TIP3    H224020   5.056   7.478   3.725
 8023TIP3   OH224021   5.272   7.396   3.509
 8023TIP3    H124022   5.184   7.407   3.550
 8023TIP3    H224023   5.256   7.428   3.418
 8024TIP3   OH224024   5.698   7.420   3.308
 8024TIP3    H124025   5.631   7.437   3.239
 8024TIP3    H224026   5.710   7.509   3.346
 8025TIP3   OH224027   5.969   7.358   3.359
 8025TIP3    H124028   5.875   7.377   3.339
 8025TIP3    H224029   6.014   7.429   3.312
 8026TIP3   OH224030   6.169   7.550   3.265
 8026TIP3    H124031   6.157   7.634   3.216
 8026TIP3    H224032   6.202   7.490   3.194
 8027TIP3   OH224033   4.946   7.207   3.390
 8027TIP3    H124034   4.974   7.179   3.480
 8027TIP3    H224035   5.020   7.167   3.338
 8028TIP3   OH224036   5.145   7.084   3.256
 8028TIP3    H124037   5.162   6.999   3.303
 8028TIP3    H224038   5.237   7.119   3.250
 8029TIP3   OH224039   5.413   7.174   3.259
 8029TIP3    H124040   5.443   7.082   3.246
 8029TIP3    H224041   5.465   7.196   3.339
 8030TIP3   OH224042   5.997   5.833   3.348
 8030TIP3    H124043   5.952   5.754   3.382
 8030TIP3    H224044   6.069   5.794   3.294
 8031TIP3   OH224045   6.501   5.717   3.246
 8031TIP3    H124046   6.538   5.765   3.169
 8031TIP3    H224047   6.406   5.736   3.237
 8032TIP3   OH224048   6.600   5.805   3.009
 8032TIP3    H124049   6.674   5.753   2.970
 8032TIP3    H224050   6.635   5.896   2.995
 8033TIP3   OH224051   5.238   5.544   3.375
 8033TIP3    H124052   5.145   5.514   3.371
 8033TIP3    H224053   5.283   5.458   3.363
 8034TIP3   OH224054   5.029   5.414   3.007
 8034TIP3    H124055   5.058   5.465   2.929
 8034TIP3    H224056   5.002   5.484   3.069
 8035TIP3   OH224057   5.688   5.569   3.236
 8035TIP3    H124058   5.731   5.612   3.161
 8035TIP3    H224059   5.738   5.606   3.311
 8036TIP3   OH224060   6.214   5.718   3.218
 8036TIP3    H124061   6.224   5.677   3.132
 8036TIP3    H224062   6.208   5.639   3.277
 8037TIP3   OH224063   6.255   5.648   2.784
 8037TIP3    H124064   6.170   5.692   2.802
 8037TIP3    H224065   6.240   5.560   2.825
 8038TIP3   OH224066   4.735   6.991   2.779
 8038TIP3    H124067   4.651   6.953   2.748
 8038TIP3    H224068   4.725   7.083   2.747
 8039TIP3   OH224069   5.142   5.560   2.772
 8039TIP3    H124070   5.189   5.502   2.708
 8039TIP3    H224071   5.215   5.618   2.802
 8040TIP3   OH224072   5.645   5.749   2.863
 8040TIP3    H124073   5.709   5.702   2.919
 8040TIP3    H224074   5.667   5.842   2.887
 8041TIP3   OH224075   5.510   7.162   2.364
 8041TIP3    H124076   5.598   7.186   2.328
 8041TIP3    H224077   5.488   7.088   2.303
 8042TIP3   OH224078   6.219   7.282   2.460
 8042TIP3    H124079   6.215   7.184   2.451
 8042TIP3    H224080   6.180   7.309   2.375
 8043TIP3   OH224081   5.442   5.823   4.243
 8043TIP3    H124082   5.405   5.753   4.300
 8043TIP3    H224083   5.536   5.821   4.273
 8044TIP3   OH224084   5.691   5.815   4.363
 8044TIP3    H124085   5.779   5.791   4.329
 8044TIP3    H224086   5.678   5.747   4.432
 8045TIP3   OH224087   4.815   7.005   2.418
 8045TIP3    H124088   4.823   7.010   2.514
 8045TIP3    H224089   4.899   6.959   2.394
 8046TIP3   OH224090   6.518   5.882   4.152
 8046TIP3    H124091   6.535   5.852   4.244
 8046TIP3    H224092   6.607   5.874   4.112
 8047TIP3   OH224093   6.443   7.427   3.645
 8047TIP3    H124094   6.364   7.403   3.591
 8047TIP3    H224095   6.430   7.524   3.651
 8048TIP3   OH224096   7.022   6.696   3.155
 8048TIP3    H124097   7.056   6.633   3.221
 8048TIP3    H224098   7.089   6.765   3.155
 8049TIP3   OH224099   6.911   7.083   2.938
 8049TIP3    H124100   6.943   6.992   2.922
 8049TIP3    H224101   6.984   7.134   2.898
 8050TIP3   OH224102   6.697   6.305   2.659
 8050TIP3    H124103   6.653   6.389   2.680
 8050TIP3    H224104   6.626   6.261   2.610
 8051TIP3   OH224105   6.753   6.598   2.844
 8051TIP3    H124106   6.807   6.522   2.874
 8051TIP3    H224107   6.817   6.649   2.792
 8052TIP3   OH224108   7.279   6.189   2.831
 8052TIP3    H124109   7.257   6.263   2.771
 8052TIP3    H224110   7.227   6.117   2.788
 8053TIP3   OH224111   6.904   6.391   2.947
 8053TIP3    H124112   6.989   6.375   2.992
 8053TIP3    H224113   6.918   6.338   2.865
 8054TIP3   OH224114   7.337   6.589   2.755
 8054TIP3    H124115   7.429   6.557   2.761
 8054TIP3    H224116   7.293   6.512   2.715
 8055TIP3   OH224117   7.264   6.176   3.272
 8055TIP3    H124118   7.208   6.212   3.201
 8055TIP3    H224119   7.209   6.195   3.350
 8056TIP3   OH224120   7.146   6.291   3.051
 8056TIP3    H124121   7.209   6.364   3.072
 8056TIP3    H224122   7.193   6.250   2.975
 8057TIP3   OH224123   7.200   7.135   3.163
 8057TIP3    H124124   7.158   7.184   3.091
 8057TIP3    H224125   7.130   7.140   3.231
 8058TIP3   OH224126   6.588   6.834   2.395
 8058TIP3    H124127   6.554   6.866   2.309
 8058TIP3    H224128   6.624   6.918   2.433
 8059TIP3   OH224129   7.615   5.897   2.986
 8059TIP3    H124130   7.600   5.802   3.000
 8059TIP3    H224131   7.537   5.934   3.033
 8060TIP3   OH224132   7.107   6.720   2.651
 8060TIP3    H124133   7.082   6.683   2.564
 8060TIP3    H224134   7.196   6.684   2.663
 8061TIP3   OH224135   7.292   6.722   2.989
 8061TIP3    H124136   7.303   6.677   2.902
 8061TIP3    H224137   7.325   6.810   2.969
 8062TIP3   OH224138   7.166   6.811   3.426
 8062TIP3    H124139   7.169   6.902   3.461
 8062TIP3    H224140   7.070   6.793   3.437
 8063TIP3   OH224141   7.008   6.578   2.417
 8063TIP3    H124142   6.936   6.628   2.372
 8063TIP3    H224143   6.964   6.494   2.435
 8064TIP3   OH224144   6.778   6.961   3.345
 8064TIP3    H124145   6.711   6.949   3.274
 8064TIP3    H224146   6.816   6.872   3.354
 8065TIP3   OH224147   6.653   7.155   2.975
 8065TIP3    H124148   6.744   7.126   2.954
 8065TIP3    H224149   6.673   7.227   3.038
 8066TIP3   OH224150   6.982   7.148   3.332
 8066TIP3    H124151   7.030   7.132   3.416
 8066TIP3    H224152   6.908   7.085   3.338
 8067TIP3   OH224153   7.382   5.969   3.121
 8067TIP3    H124154   7.295   5.939   3.088
 8067TIP3    H224155   7.355   6.050   3.168
 8068TIP3   OH224156   7.904   6.072   3.325
 8068TIP3    H124157   7.928   6.106   3.412
 8068TIP3    H224158   7.811   6.046   3.342
 8069TIP3   OH224159   7.489   6.033   2.046
 8069TIP3    H124160   7.534   6.045   2.130
 8069TIP3    H224161   7.458   5.941   2.051
 8070TIP3   OH224162   7.317   6.497   3.139
 8070TIP3    H124163   7.255   6.509   3.214
 8070TIP3    H224164   7.301   6.578   3.086
 8071TIP3   OH224165   7.200   6.375   2.652
 8071TIP3    H124166   7.106   6.355   2.669
 8071TIP3    H224167   7.210   6.333   2.563
 8072TIP3   OH224168   7.142   6.519   3.347
 8072TIP3    H124169   7.138   6.586   3.417
 8072TIP3    H224170   7.132   6.436   3.398
 8073TIP3   OH224171   7.174   5.977   2.055
 8073TIP3    H124172   7.169   5.987   2.152
 8073TIP3    H224173   7.104   6.038   2.026
 8074TIP3   OH224174   6.728   6.028   2.932
 8074TIP3    H124175   6.801   6.067   2.983
 8074TIP3    H224176   6.767   6.012   2.845
 8075TIP3   OH224177   6.683   6.014   2.442
 8075TIP3    H124178   6.728   6.051   2.363
 8075TIP3    H224179   6.624   6.089   2.462
 8076TIP3   OH224180   7.534   6.184   2.693
 8076TIP3    H124181   7.448   6.182   2.740
 8076TIP3    H224182   7.588   6.230   2.759
 8077TIP3   OH224183   6.959   6.253   2.717
 8077TIP3    H124184   6.866   6.260   2.686
 8077TIP3    H224185   6.984   6.163   2.689
 8078TIP3   OH224186   7.219   6.240   2.416
 8078TIP3    H124187   7.310   6.254   2.384
 8078TIP3    H224188   7.164   6.259   2.336
 8079TIP3   OH224189   7.066   6.261   2.196
 8079TIP3    H124190   6.995   6.220   2.143
 8079TIP3    H224191   7.124   6.294   2.124
 8080TIP3   OH224192   7.146   7.057   3.555
 8080TIP3    H124193   7.227   7.090   3.601
 8080TIP3    H224194   7.080   7.075   3.624
 8081TIP3   OH224195   7.583   6.472   2.791
 8081TIP3    H124196   7.668   6.497   2.752
 8081TIP3    H224197   7.603   6.468   2.886
 8082TIP3   OH224198   7.124   6.009   2.690
 8082TIP3    H124199   7.089   5.932   2.740
 8082TIP3    H224200   7.159   5.966   2.611
 8083TIP3   OH224201   7.571   6.392   3.078
 8083TIP3    H124202   7.488   6.440   3.097
 8083TIP3    H224203   7.636   6.438   3.136
 8084TIP3   OH224204   6.985   6.810   2.877
 8084TIP3    H124205   7.027   6.792   2.790
 8084TIP3    H224206   7.046   6.765   2.937
 8085TIP3   OH224207   6.906   6.739   3.478
 8085TIP3    H124208   6.915   6.731   3.575
 8085TIP3    H224209   6.827   6.685   3.461
 8086TIP3   OH224210   7.587   6.836   3.546
 8086TIP3    H124211   7.516   6.799   3.490
 8086TIP3    H224212   7.619   6.911   3.495
 8087TIP3   OH224213   6.683   6.438   2.196
 8087TIP3    H124214   6.729   6.522   2.216
 8087TIP3    H224215   6.606   6.444   2.256
 8088TIP3   OH224216   7.099   6.257   3.481
 8088TIP3    H124217   7.002   6.258   3.491
 8088TIP3    H224218   7.126   6.203   3.556
 8089TIP3   OH224219   6.801   7.319   3.146
 8089TIP3    H124220   6.858   7.242   3.163
 8089TIP3    H224221   6.860   7.392   3.169
 8090TIP3   OH224222   6.793   6.684   2.281
 8090TIP3    H124223   6.724   6.734   2.329
 8090TIP3    H224224   6.821   6.751   2.216
 8091TIP3   OH224225   7.935   6.297   3.145
 8091TIP3    H124226   8.013   6.287   3.202
 8091TIP3    H224227   7.884   6.218   3.168
 8092TIP3   OH224228   7.507   6.237   2.423
 8092TIP3    H124229   7.592   6.275   2.398
 8092TIP3    H224230   7.515   6.231   2.521
 8093TIP3   OH224231   7.741   6.499   3.253
 8093TIP3    H124232   7.760   6.592   3.275
 8093TIP3    H224233   7.826   6.455   3.268
 8094TIP3   OH224234   7.659   5.970   2.545
 8094TIP3    H124235   7.635   6.055   2.588
 8094TIP3    H224236   7.721   5.998   2.474
 8095TIP3   OH224237   7.162   5.977   2.333
 8095TIP3    H124238   7.161   6.068   2.370
 8095TIP3    H224239   7.259   5.959   2.340
 8096TIP3   OH224240   6.777   6.904   2.079
 8096TIP3    H124241   6.822   6.987   2.056
 8096TIP3    H224242   6.832   6.840   2.027
 8097TIP3   OH224243   6.724   6.167   2.219
 8097TIP3    H124244   6.733   6.265   2.220
 8097TIP3    H224245   6.655   6.156   2.153
 8098TIP3   OH224246   7.118   5.890   3.085
 8098TIP3    H124247   7.088   5.857   2.998
 8098TIP3    H224248   7.106   5.812   3.142
 8099TIP3   OH224249   6.656   7.085   2.473
 8099TIP3    H124250   6.621   7.135   2.548
 8099TIP3    H224251   6.615   7.132   2.396
 8100TIP3   OH224252   6.787   7.585   3.557
 8100TIP3    H124253   6.866   7.568   3.610
 8100TIP3    H224254   6.751   7.493   3.549
 8101TIP3   OH224255   6.939   7.051   3.746
 8101TIP3    H124256   6.958   6.955   3.748
 8101TIP3    H224257   6.853   7.053   3.700
 8102TIP3   OH224258   6.935   6.726   1.957
 8102TIP3    H124259   6.996   6.686   2.024
 8102TIP3    H224260   6.951   6.670   1.881
 8103TIP3   OH224261   7.065   6.787   3.732
 8103TIP3    H124262   7.150   6.762   3.694
 8103TIP3    H224263   7.094   6.825   3.818
 8104TIP3   OH224264   7.086   6.583   2.123
 8104TIP3    H124265   7.078   6.581   2.220
 8104TIP3    H224266   7.134   6.501   2.102
 8105TIP3   OH224267   7.413   6.713   3.368
 8105TIP3    H124268   7.324   6.749   3.388
 8105TIP3    H224269   7.405   6.690   3.274
 8106TIP3   OH224270   7.236   6.365   2.012
 8106TIP3    H124271   7.191   6.365   1.924
 8106TIP3    H224272   7.324   6.333   1.985
 8107TIP3   OH224273   7.493   6.467   3.503
 8107TIP3    H124274   7.509   6.389   3.445
 8107TIP3    H224275   7.478   6.538   3.439
 8108TIP3   OH224276   7.522   6.250   3.320
 8108TIP3    H124277   7.550   6.288   3.235
 8108TIP3    H224278   7.428   6.229   3.302
 8109TIP3   OH224279   7.395   6.572   3.742
 8109TIP3    H124280   7.322   6.508   3.750
 8109TIP3    H224281   7.433   6.545   3.655
 8110TIP3   OH224282   7.647   6.013   3.388
 8110TIP3    H124283   7.597   6.095   3.367
 8110TIP3    H224284   7.579   5.944   3.376
 8111TIP3   OH224285   7.761   6.483   3.587
 8111TIP3    H124286   7.760   6.469   3.683
 8111TIP3    H224287   7.668   6.475   3.564
 8112TIP3   OH224288   7.231   6.350   3.785
 8112TIP3    H124289   7.240   6.257   3.755
 8112TIP3    H224290   7.290   6.351   3.861
 8113TIP3   OH224291   7.755   6.023   3.640
 8113TIP3    H124292   7.815   5.947   3.630
 8113TIP3    H224293   7.706   6.019   3.555
 8114TIP3   OH224294   7.804   6.228   3.818
 8114TIP3    H124295   7.787   6.164   3.745
 8114TIP3    H224296   7.727   6.288   3.810
 8115TIP3   OH224297   6.515   6.846   2.122
 8115TIP3    H124298   6.608   6.873   2.102
 8115TIP3    H224299   6.514   6.754   2.087
 8116TIP3   OH224300   6.417   7.452   2.543
 8116TIP3    H124301   6.355   7.386   2.504
 8116TIP3    H224302   6.473   7.394   2.598
 8117TIP3   OH224303   6.564   7.300   2.724
 8117TIP3    H124304   6.564   7.224   2.786
 8117TIP3    H224305   6.586   7.371   2.786
 8118TIP3   OH224306   6.753   6.710   3.098
 8118TIP3    H124307   6.746   6.681   3.005
 8118TIP3    H224308   6.851   6.716   3.108
 8119TIP3   OH224309   6.962   6.393   3.759
 8119TIP3    H124310   7.060   6.394   3.763
 8119TIP3    H224311   6.943   6.309   3.804
 8120TIP3   OH224312   6.935   6.101   3.103
 8120TIP3    H124313   6.997   6.025   3.106
 8120TIP3    H224314   6.997   6.175   3.089
 8121TIP3   OH224315   6.732   6.370   3.170
 8121TIP3    H124316   6.783   6.368   3.086
 8121TIP3    H224317   6.752   6.459   3.201
 8122TIP3   OH224318   6.721   5.871   2.669
 8122TIP3    H124319   6.629   5.866   2.700
 8122TIP3    H224320   6.714   5.932   2.593
 8123TIP3   OH224321   6.941   5.951   3.484
 8123TIP3    H124322   6.889   5.952   3.566
 8123TIP3    H224323   6.877   5.992   3.422
 8124TIP3   OH224324   6.962   7.331   3.611
 8124TIP3    H124325   6.884   7.312   3.557
 8124TIP3    H224326   6.931   7.309   3.700
 8125TIP3   OH224327   7.802   6.067   2.817
 8125TIP3    H124328   7.738   6.034   2.883
 8125TIP3    H224329   7.801   5.995   2.752
 8126TIP3   OH224330   7.028   5.795   2.840
 8126TIP3    H124331   6.935   5.764   2.844
 8126TIP3    H224332   7.075   5.709   2.835
 8127TIP3   OH224333   6.827   5.669   2.493
 8127TIP3    H124334   6.853   5.725   2.417
 8127TIP3    H224335   6.797   5.736   2.558
 8128TIP3   OH224336   7.476   5.822   2.728
 8128TIP3    H124337   7.530   5.858   2.656
 8128TIP3    H224338   7.506   5.874   2.803
 8129TIP3   OH224339   6.532   7.235   2.288
 8129TIP3    H124340   6.452   7.214   2.235
 8129TIP3    H224341   6.537   7.330   2.279
 8130TIP3   OH224342   6.937   5.821   2.256
 8130TIP3    H124343   6.985   5.762   2.194
 8130TIP3    H224344   7.011   5.876   2.289
 8131TIP3   OH224345   7.435   5.983   2.362
 8131TIP3    H124346   7.509   5.946   2.412
 8131TIP3    H224347   7.454   6.079   2.372
 8132TIP3   OH224348   7.230   6.072   3.727
 8132TIP3    H124349   7.194   6.002   3.784
 8132TIP3    H224350   7.325   6.067   3.753
 8133TIP3   OH224351   7.479   6.056   3.833
 8133TIP3    H124352   7.571   6.049   3.805
 8133TIP3    H224353   7.481   6.015   3.921
 8134TIP3   OH224354   0.990   7.129   4.529
 8134TIP3    H124355   1.018   7.214   4.568
 8134TIP3    H224356   1.014   7.143   4.435
 8135TIP3   OH224357   1.061   7.335   4.716
 8135TIP3    H124358   0.990   7.392   4.681
 8135TIP3    H224359   1.107   7.396   4.777
 8136TIP3   OH224360   0.624   7.052   4.353
 8136TIP3    H124361   0.706   7.023   4.390
 8136TIP3    H224362   0.644   7.147   4.340
 8137TIP3   OH224363   0.777   7.048   4.686
 8137TIP3    H124364   0.705   7.090   4.638
 8137TIP3    H224365   0.854   7.072   4.630
 8138TIP3   OH224366   0.714   6.625   3.776
 8138TIP3    H124367   0.634   6.656   3.824
 8138TIP3    H224368   0.735   6.705   3.724
 8139TIP3   OH224369   0.836   7.485   5.062
 8139TIP3    H124370   0.777   7.525   4.997
 8139TIP3    H224371   0.834   7.391   5.035
 8140TIP3   OH224372   0.747   7.236   3.687
 8140TIP3    H124373   0.678   7.204   3.624
 8140TIP3    H224374   0.787   7.307   3.634
 8141TIP3   OH224375   0.847   7.251   4.917
 8141TIP3    H124376   0.773   7.202   4.878
 8141TIP3    H224377   0.911   7.251   4.844
 8142TIP3   OH224378   0.592   7.139   3.487
 8142TIP3    H124379   0.570   7.194   3.410
 8142TIP3    H224380   0.545   7.057   3.464
 8143TIP3   OH224381   0.607   7.411   4.044
 8143TIP3    H124382   0.605   7.318   4.012
 8143TIP3    H224383   0.621   7.399   4.139
 8144TIP3   OH224384   1.049   7.652   4.988
 8144TIP3    H124385   0.963   7.606   4.999
 8144TIP3    H224386   1.108   7.575   4.969
 8145TIP3   OH224387   0.537   6.852   3.469
 8145TIP3    H124388   0.619   6.851   3.524
 8145TIP3    H224389   0.468   6.842   3.536
 8146TIP3   OH224390   0.617   7.164   3.935
 8146TIP3    H124391   0.638   7.071   3.953
 8146TIP3    H224392   0.648   7.174   3.843
 8147TIP3   OH224393   0.750   7.289   4.389
 8147TIP3    H124394   0.829   7.331   4.349
 8147TIP3    H224395   0.758   7.326   4.478
 8148TIP3   OH224396   0.797   7.435   4.619
 8148TIP3    H124397   0.709   7.473   4.617
 8148TIP3    H224398   0.853   7.512   4.599
 8149TIP3   OH224399   1.261   7.059   5.206
 8149TIP3    H124400   1.327   6.996   5.171
 8149TIP3    H224401   1.240   7.114   5.128
 8150TIP3   OH224402   0.701   6.899   3.959
 8150TIP3    H124403   0.737   6.887   4.049
 8150TIP3    H224404   0.627   6.836   3.958
 8151TIP3   OH224405   1.123   7.195   5.009
 8151TIP3    H124406   1.042   7.227   5.051
 8151TIP3    H224407   1.088   7.127   4.948
 8152TIP3   OH224408   0.773   6.831   3.605
 8152TIP3    H124409   0.812   6.765   3.544
 8152TIP3    H224410   0.838   6.904   3.602
 8153TIP3   OH224411   1.035   6.951   4.886
 8153TIP3    H124412   0.945   6.924   4.858
 8153TIP3    H224413   1.080   6.864   4.880
 8154TIP3   OH224414   0.744   6.755   4.415
 8154TIP3    H124415   0.797   6.800   4.345
 8154TIP3    H224416   0.656   6.791   4.395
 8155TIP3   OH224417   0.854   6.851   4.190
 8155TIP3    H124418   0.926   6.799   4.148
 8155TIP3    H224419   0.889   6.942   4.171
 8156TIP3   OH224420   0.503   6.693   3.937
 8156TIP3    H124421   0.408   6.701   3.915
 8156TIP3    H224422   0.499   6.621   4.001
 8157TIP3   OH224423   0.937   7.361   3.853
 8157TIP3    H124424   0.900   7.431   3.908
 8157TIP3    H224425   0.857   7.313   3.825
 8158TIP3   OH224426   2.784   7.391   4.020
 8158TIP3    H124427   2.817   7.474   4.059
 8158TIP3    H224428   2.806   7.404   3.926
 8159TIP3   OH224429   2.208   7.596   4.018
 8159TIP3    H124430   2.242   7.518   4.066
 8159TIP3    H224431   2.149   7.552   3.954
 8160TIP3   OH224432   1.525   7.232   4.012
 8160TIP3    H124433   1.504   7.302   3.947
 8160TIP3    H224434   1.475   7.158   3.972
 8161TIP3   OH224435   2.219   7.322   3.632
 8161TIP3    H124436   2.290   7.312   3.699
 8161TIP3    H224437   2.268   7.365   3.560
 8162TIP3   OH224438   1.138   7.412   4.134
 8162TIP3    H124439   1.228   7.417   4.170
 8162TIP3    H224440   1.155   7.374   4.046
 8163TIP3   OH224441   2.864   7.604   4.177
 8163TIP3    H124442   2.786   7.656   4.151
 8163TIP3    H224443   2.848   7.594   4.273
 8164TIP3   OH224444   1.516   7.218   4.448
 8164TIP3    H124445   1.461   7.258   4.377
 8164TIP3    H224446   1.459   7.235   4.525
 8165TIP3   OH224447   2.418   7.328   3.813
 8165TIP3    H124448   2.394   7.302   3.903
 8165TIP3    H224449   2.467   7.412   3.830
 8166TIP3   OH224450   1.394   7.335   4.231
 8166TIP3    H124451   1.450   7.413   4.250
 8166TIP3    H224452   1.443   7.297   4.155
 8167TIP3   OH224453   2.572   7.293   4.182
 8167TIP3    H124454   2.487   7.317   4.142
 8167TIP3    H224455   2.637   7.327   4.118
 8168TIP3   OH224456   1.865   6.932   4.164
 8168TIP3    H124457   1.847   6.838   4.184
 8168TIP3    H224458   1.790   6.975   4.211
 8169TIP3   OH224459   1.779   7.483   3.173
 8169TIP3    H124460   1.727   7.467   3.252
 8169TIP3    H224461   1.744   7.416   3.111
 8170TIP3   OH224462   2.503   6.876   3.269
 8170TIP3    H124463   2.421   6.903   3.316
 8170TIP3    H224464   2.524   6.958   3.219
 8171TIP3   OH224465   2.653   7.744   4.554
 8171TIP3    H124466   2.600   7.784   4.483
 8171TIP3    H224467   2.670   7.655   4.516
 8172TIP3   OH224468   1.631   7.012   4.297
 8172TIP3    H124469   1.543   6.984   4.265
 8172TIP3    H224470   1.606   7.094   4.344
 8173TIP3   OH224471   2.168   7.129   4.487
 8173TIP3    H124472   2.239   7.103   4.550
 8173TIP3    H224473   2.086   7.110   4.537
 8174TIP3   OH224474   2.394   7.566   4.403
 8174TIP3    H124475   2.352   7.556   4.491
 8174TIP3    H224476   2.345   7.640   4.365
 8175TIP3   OH224477   1.764   7.063   3.265
 8175TIP3    H124478   1.741   7.054   3.360
 8175TIP3    H224479   1.739   6.974   3.234
 8176TIP3   OH224480   1.559   7.549   4.307
 8176TIP3    H124481   1.503   7.565   4.387
 8176TIP3    H224482   1.553   7.633   4.260
 8177TIP3   OH224483   1.430   7.390   3.817
 8177TIP3    H124484   1.339   7.356   3.831
 8177TIP3    H224485   1.452   7.351   3.730
 8178TIP3   OH224486   1.929   7.471   3.548
 8178TIP3    H124487   1.873   7.546   3.520
 8178TIP3    H224488   1.995   7.467   3.476
 8179TIP3   OH224489   2.125   7.755   4.761
 8179TIP3    H124490   2.083   7.669   4.774
 8179TIP3    H224491   2.221   7.730   4.756
 8180TIP3   OH224492   2.071   7.497   3.804
 8180TIP3    H124493   2.029   7.539   3.727
 8180TIP3    H224494   2.113   7.422   3.757
 8181TIP3   OH224495   1.416   7.551   4.547
 8181TIP3    H124496   1.405   7.601   4.628
 8181TIP3    H224497   1.395   7.460   4.577
 8182TIP3   OH224498   1.381   7.049   3.237
 8182TIP3    H124499   1.443   7.050   3.311
 8182TIP3    H224500   1.308   7.001   3.279
 8183TIP3   OH224501   0.981   7.071   4.106
 8183TIP3    H124502   1.051   7.112   4.161
 8183TIP3    H224503   1.025   7.052   4.023
 8184TIP3   OH224504   0.943   7.051   3.612
 8184TIP3    H124505   0.997   7.095   3.543
 8184TIP3    H224506   0.880   7.122   3.636
 8185TIP3   OH224507   1.783   7.219   3.888
 8185TIP3    H124508   1.703   7.230   3.944
 8185TIP3    H224509   1.854   7.242   3.951
 8186TIP3   OH224510   1.192   7.288   3.888
 8186TIP3    H124511   1.097   7.298   3.864
 8186TIP3    H224512   1.210   7.194   3.871
 8187TIP3   OH224513   1.479   7.275   3.577
 8187TIP3    H124514   1.575   7.299   3.576
 8187TIP3    H224515   1.439   7.334   3.512
 8188TIP3   OH224516   2.263   7.322   4.089
 8188TIP3    H124517   2.232   7.334   4.182
 8188TIP3    H224518   2.193   7.262   4.056
 8189TIP3   OH224519   1.271   7.292   3.375
 8189TIP3    H124520   1.177   7.267   3.373
 8189TIP3    H224521   1.308   7.243   3.300
 8190TIP3   OH224522   1.865   7.542   3.986
 8190TIP3    H124523   1.948   7.523   3.938
 8190TIP3    H224524   1.888   7.527   4.079
 8191TIP3   OH224525   1.369   7.052   3.869
 8191TIP3    H124526   1.335   6.974   3.919
 8191TIP3    H224527   1.415   7.009   3.796
 8192TIP3   OH224528   1.826   7.454   4.283
 8192TIP3    H124529   1.740   7.500   4.272
 8192TIP3    H224530   1.882   7.521   4.326
 8193TIP3   OH224531   2.022   7.162   3.242
 8193TIP3    H124532   1.924   7.150   3.244
 8193TIP3    H224533   2.032   7.257   3.263
 8194TIP3   OH224534   2.110   7.414   3.335
 8194TIP3    H124535   2.206   7.419   3.355
 8194TIP3    H224536   2.104   7.468   3.254
 8195TIP3   OH224537   2.539   7.496   3.183
 8195TIP3    H124538   2.470   7.467   3.118
 8195TIP3    H224539   2.585   7.563   3.128
 8196TIP3   OH224540   1.352   7.297   4.660
 8196TIP3    H124541   1.256   7.284   4.672
 8196TIP3    H224542   1.387   7.247   4.736
 8197TIP3   OH224543   2.189   7.373   4.352
 8197TIP3    H124544   2.272   7.408   4.387
 8197TIP3    H224545   2.179   7.289   4.403
 8198TIP3   OH224546   2.078   7.109   3.519
 8198TIP3    H124547   2.062   7.134   3.426
 8198TIP3    H224548   2.117   7.191   3.556
 8199TIP3   OH224549   1.748   7.285   3.623
 8199TIP3    H124550   1.816   7.354   3.600
 8199TIP3    H224551   1.760   7.280   3.721
 8200TIP3   OH224552   2.007   7.593   4.435
 8200TIP3    H124553   2.057   7.634   4.507
 8200TIP3    H224554   2.065   7.518   4.410
 8201TIP3   OH224555   1.899   7.011   3.714
 8201TIP3    H124556   1.883   7.090   3.770
 8201TIP3    H224557   1.965   7.048   3.650
 8202TIP3   OH224558   1.422   7.015   3.514
 8202TIP3    H124559   1.422   7.110   3.542
 8202TIP3    H224560   1.518   6.996   3.525
 8203TIP3   OH224561   2.664   7.525   4.381
 8203TIP3    H124562   2.566   7.535   4.378
 8203TIP3    H224563   2.676   7.438   4.342
 8204TIP3   OH224564   2.321   7.668   3.766
 8204TIP3    H124565   2.259   7.646   3.838
 8204TIP3    H224566   2.405   7.654   3.814
 8205TIP3   OH224567   0.989   7.215   3.385
 8205TIP3    H124568   0.954   7.290   3.437
 8205TIP3    H224569   0.908   7.181   3.344
 8206TIP3   OH224570   1.366   6.933   4.262
 8206TIP3    H124571   1.336   6.899   4.175
 8206TIP3    H224572   1.354   6.856   4.320
 8207TIP3   OH224573   1.755   7.491   4.686
 8207TIP3    H124574   1.762   7.403   4.642
 8207TIP3    H224575   1.746   7.548   4.608
 8208TIP3   OH224576   1.774   7.289   4.501
 8208TIP3    H124577   1.803   7.336   4.420
 8208TIP3    H224578   1.680   7.269   4.478
 8209TIP3   OH224579   2.399   7.770   4.717
 8209TIP3    H124580   2.451   7.688   4.720
 8209TIP3    H224581   2.455   7.833   4.765
 8210TIP3   OH224582   1.641   7.616   4.907
 8210TIP3    H124583   1.568   7.556   4.933
 8210TIP3    H224584   1.673   7.573   4.825
 8211TIP3   OH224585   1.906   7.056   4.569
 8211TIP3    H124586   1.857   7.137   4.544
 8211TIP3    H224587   1.837   6.987   4.557
 8212TIP3   OH224588   2.022   7.503   4.779
 8212TIP3    H124589   1.998   7.494   4.874
 8212TIP3    H224590   1.934   7.491   4.740
 8213TIP3   OH224591   2.264   7.505   4.633
 8213TIP3    H124592   2.187   7.487   4.691
 8213TIP3    H224593   2.340   7.481   4.691
 8214TIP3   OH224594   2.495   7.461   4.780
 8214TIP3    H124595   2.514   7.366   4.794
 8214TIP3    H224596   2.496   7.497   4.871
 8215TIP3   OH224597   1.479   7.391   4.974
 8215TIP3    H124598   1.487   7.297   4.948
 8215TIP3    H224599   1.518   7.388   5.064
 8216TIP3   OH224600   1.997   7.069   4.827
 8216TIP3    H124601   2.063   6.997   4.821
 8216TIP3    H224602   1.958   7.065   4.738
 8217TIP3   OH224603   2.061   7.280   4.990
 8217TIP3    H124604   2.044   7.210   4.924
 8217TIP3    H224605   1.979   7.333   4.985
 8218TIP3   OH224606   2.384   7.406   2.982
 8218TIP3    H124607   2.367   7.431   2.890
 8218TIP3    H224608   2.351   7.314   2.978
 8219TIP3   OH224609   2.445   7.663   3.516
 8219TIP3    H124610   2.441   7.566   3.511
 8219TIP3    H224611   2.424   7.679   3.610
 8220TIP3   OH224612   2.864   7.905   4.468
 8220TIP3    H124613   2.773   7.871   4.477
 8220TIP3    H224614   2.915   7.820   4.465
 8221TIP3   OH224615   2.325   7.133   2.971
 8221TIP3    H124616   2.392   7.103   3.034
 8221TIP3    H224617   2.246   7.081   2.992
 8222TIP3   OH224618   2.384   7.403   3.410
 8222TIP3    H124619   2.423   7.314   3.426
 8222TIP3    H224620   2.438   7.432   3.333
 8223TIP3   OH224621   2.542   7.558   3.886
 8223TIP3    H124622   2.625   7.595   3.848
 8223TIP3    H224623   2.556   7.585   3.979
 8224TIP3   OH224624   2.589   7.710   4.110
 8224TIP3    H124625   2.496   7.738   4.117
 8224TIP3    H224626   2.630   7.783   4.061
 8225TIP3   OH224627   1.212   7.443   4.925
 8225TIP3    H124628   1.309   7.448   4.937
 8225TIP3    H224629   1.195   7.353   4.961
 8226TIP3   OH224630   2.489   7.153   3.450
 8226TIP3    H124631   2.533   7.139   3.537
 8226TIP3    H224632   2.423   7.081   3.451
 8227TIP3   OH224633   1.181   7.142   4.285
 8227TIP3    H124634   1.247   7.070   4.287
 8227TIP3    H224635   1.238   7.219   4.267
 8228TIP3   OH224636   0.981   7.438   4.356
 8228TIP3    H124637   1.032   7.417   4.274
 8228TIP3    H224638   0.993   7.534   4.358
 8229TIP3   OH224639   2.567   7.081   3.100
 8229TIP3    H124640   2.601   7.017   3.034
 8229TIP3    H224641   2.629   7.156   3.090
 8230TIP3   OH224642   0.968   6.913   3.844
 8230TIP3    H124643   0.877   6.909   3.880
 8230TIP3    H224644   0.958   6.973   3.768
 8231TIP3   OH224645   1.194   6.999   4.661
 8231TIP3    H124646   1.139   6.994   4.741
 8231TIP3    H224647   1.128   7.034   4.597
 8232TIP3   OH224648   2.041   7.136   4.014
 8232TIP3    H124649   1.992   7.062   4.054
 8232TIP3    H224650   2.112   7.090   3.965
 8233TIP3   OH224651   2.546   7.005   3.901
 8233TIP3    H124652   2.584   7.062   3.830
 8233TIP3    H224653   2.454   7.036   3.903
 8234TIP3   OH224654   2.648   7.110   3.670
 8234TIP3    H124655   2.724   7.060   3.634
 8234TIP3    H224656   2.679   7.203   3.657
 8235TIP3   OH224657   1.276   6.838   4.016
 8235TIP3    H124658   1.184   6.805   4.021
 8235TIP3    H224659   1.325   6.752   4.012
 8236TIP3   OH224660   1.070   6.714   3.674
 8236TIP3    H124661   1.096   6.771   3.601
 8236TIP3    H224662   1.039   6.779   3.741
 8237TIP3   OH224663   1.728   6.870   3.902
 8237TIP3    H124664   1.779   6.918   3.835
 8237TIP3    H224665   1.758   6.913   3.983
 8238TIP3   OH224666   2.261   7.022   3.883
 8238TIP3    H124667   2.267   6.982   3.795
 8238TIP3    H224668   2.252   6.942   3.941
 8239TIP3   OH224669   2.298   6.950   3.447
 8239TIP3    H124670   2.215   6.996   3.469
 8239TIP3    H224671   2.282   6.862   3.489
 8240TIP3   OH224672   1.198   6.877   3.423
 8240TIP3    H124673   1.241   6.802   3.377
 8240TIP3    H224674   1.273   6.916   3.473
 8241TIP3   OH224675   1.696   7.036   3.529
 8241TIP3    H124676   1.761   6.996   3.590
 8241TIP3    H224677   1.707   7.130   3.557
 8242TIP3   OH224678   1.486   7.114   4.909
 8242TIP3    H124679   1.452   7.042   4.966
 8242TIP3    H224680   1.580   7.116   4.938
 8243TIP3   OH224681   1.736   7.120   5.027
 8243TIP3    H124682   1.823   7.095   4.990
 8243TIP3    H224683   1.725   7.052   5.096
 8244TIP3   OH224684   2.573   7.188   4.809
 8244TIP3    H124685   2.585   7.158   4.901
 8244TIP3    H224686   2.664   7.182   4.774
 8245TIP3   OH224687   2.735   7.623   3.341
 8245TIP3    H124688   2.695   7.688   3.400
 8245TIP3    H224689   2.657   7.575   3.309
 8246TIP3   OH224690   4.582   7.646   3.501
 8246TIP3    H124691   4.612   7.731   3.540
 8246TIP3    H224692   4.607   7.658   3.408
 8247TIP3   OH224693   4.006   7.850   3.503
 8247TIP3    H124694   4.041   7.774   3.553
 8247TIP3    H224695   3.946   7.804   3.441
 8248TIP3   OH224696   3.322   7.490   3.495
 8248TIP3    H124697   3.299   7.561   3.431
 8248TIP3    H224698   3.269   7.417   3.457
 8249TIP3   OH224699   4.014   7.578   3.118
 8249TIP3    H124700   4.086   7.570   3.186
 8249TIP3    H224701   4.064   7.621   3.046
 8250TIP3   OH224702   2.938   7.676   3.615
 8250TIP3    H124703   3.026   7.675   3.656
 8250TIP3    H224704   2.955   7.630   3.531
 8251TIP3   OH224705   4.660   7.856   3.671
 8251TIP3    H124706   4.583   7.908   3.641
 8251TIP3    H224707   4.678   7.897   3.757
 8252TIP3   OH224708   3.311   7.477   3.938
 8252TIP3    H124709   3.255   7.516   3.868
 8252TIP3    H224710   3.252   7.489   4.016
 8253TIP3   OH224711   4.212   7.584   3.301
 8253TIP3    H124712   4.189   7.562   3.392
 8253TIP3    H224713   4.262   7.668   3.314
 8254TIP3   OH224714   3.190   7.592   3.717
 8254TIP3    H124715   3.246   7.670   3.737
 8254TIP3    H224716   3.240   7.553   3.642
 8255TIP3   OH224717   4.375   7.544   3.665
 8255TIP3    H124718   4.288   7.574   3.632
 8255TIP3    H224719   4.436   7.581   3.597
 8256TIP3   OH224720   3.662   7.188   3.655
 8256TIP3    H124721   3.641   7.095   3.675
 8256TIP3    H224722   3.588   7.233   3.701
 8257TIP3   OH224723   3.541   7.700   2.717
 8257TIP3    H124724   3.633   7.728   2.698
 8257TIP3    H224725   3.523   7.652   2.633
 8258TIP3   OH224726   4.299   7.135   2.754
 8258TIP3    H124727   4.218   7.164   2.801
 8258TIP3    H224728   4.320   7.216   2.702
 8259TIP3   OH224729   4.442   8.010   4.042
 8259TIP3    H124730   4.395   8.041   3.963
 8259TIP3    H224731   4.449   7.914   4.026
 8260TIP3   OH224732   3.427   7.271   3.784
 8260TIP3    H124733   3.339   7.242   3.754
 8260TIP3    H224734   3.402   7.352   3.832
 8261TIP3   OH224735   3.963   7.384   3.974
 8261TIP3    H124736   4.032   7.360   4.039
 8261TIP3    H224737   3.880   7.367   4.023
 8262TIP3   OH224738   4.194   7.825   3.891
 8262TIP3    H124739   4.148   7.815   3.978
 8262TIP3    H224740   4.145   7.898   3.851
 8263TIP3   OH224741   3.567   7.317   2.755
 8263TIP3    H124742   3.537   7.309   2.848
 8263TIP3    H224743   3.528   7.236   2.718
 8264TIP3   OH224744   3.357   7.804   3.792
 8264TIP3    H124745   3.305   7.818   3.875
 8264TIP3    H224746   3.353   7.891   3.750
 8265TIP3   OH224747   3.222   7.649   3.299
 8265TIP3    H124748   3.132   7.613   3.320
 8265TIP3    H224749   3.236   7.610   3.211
 8266TIP3   OH224750   3.719   7.720   3.024
 8266TIP3    H124751   3.700   7.813   3.006
 8266TIP3    H224752   3.796   7.703   2.966
 8267TIP3   OH224753   3.916   8.014   4.253
 8267TIP3    H124754   3.875   7.927   4.265
 8267TIP3    H224755   4.010   7.988   4.238
 8268TIP3   OH224756   3.867   7.751   3.292
 8268TIP3    H124757   3.838   7.805   3.216
 8268TIP3    H224758   3.907   7.676   3.243
 8269TIP3   OH224759   3.220   7.802   4.034
 8269TIP3    H124760   3.176   7.858   4.099
 8269TIP3    H224761   3.194   7.713   4.065
 8270TIP3   OH224762   3.229   7.289   2.714
 8270TIP3    H124763   3.219   7.290   2.811
 8270TIP3    H224764   3.153   7.344   2.687
 8271TIP3   OH224765   2.771   7.335   3.585
 8271TIP3    H124766   2.842   7.370   3.642
 8271TIP3    H224767   2.819   7.301   3.508
 8272TIP3   OH224768   2.737   7.309   3.101
 8272TIP3    H124769   2.784   7.349   3.026
 8272TIP3    H224770   2.675   7.380   3.125
 8273TIP3   OH224771   3.577   7.472   3.370
 8273TIP3    H124772   3.497   7.485   3.426
 8273TIP3    H224773   3.647   7.503   3.431
 8274TIP3   OH224774   2.988   7.542   3.375
 8274TIP3    H124775   2.893   7.554   3.354
 8274TIP3    H224776   3.002   7.447   3.363
 8275TIP3   OH224777   3.258   7.531   3.055
 8275TIP3    H124778   3.355   7.543   3.062
 8275TIP3    H224779   3.235   7.568   2.968
 8276TIP3   OH224780   4.063   7.576   3.577
 8276TIP3    H124781   4.032   7.590   3.669
 8276TIP3    H224782   3.991   7.520   3.543
 8277TIP3   OH224783   3.145   7.594   2.805
 8277TIP3    H124784   3.070   7.589   2.865
 8277TIP3    H224785   3.105   7.556   2.725
 8278TIP3   OH224786   3.656   7.794   3.469
 8278TIP3    H124787   3.742   7.779   3.425
 8278TIP3    H224788   3.676   7.788   3.563
 8279TIP3   OH224789   3.167   7.306   3.357
 8279TIP3    H124790   3.129   7.233   3.410
 8279TIP3    H224791   3.205   7.258   3.283
 8280TIP3   OH224792   3.621   7.708   3.767
 8280TIP3    H124793   3.535   7.754   3.758
 8280TIP3    H224794   3.676   7.775   3.813
 8281TIP3   OH224795   3.823   7.413   2.728
 8281TIP3    H124796   3.725   7.402   2.732
 8281TIP3    H224797   3.835   7.508   2.748
 8282TIP3   OH224798   3.913   7.660   2.830
 8282TIP3    H124799   4.009   7.671   2.842
 8282TIP3    H224800   3.893   7.715   2.752
 8283TIP3   OH224801   4.332   7.754   2.672
 8283TIP3    H124802   4.263   7.727   2.606
 8283TIP3    H224803   4.381   7.819   2.616
 8284TIP3   OH224804   3.130   7.550   4.144
 8284TIP3    H124805   3.035   7.576   4.149
 8284TIP3    H224806   3.133   7.487   4.217
 8285TIP3   OH224807   3.989   7.626   3.839
 8285TIP3    H124808   4.068   7.663   3.882
 8285TIP3    H224809   3.974   7.544   3.889
 8286TIP3   OH224810   3.875   7.364   3.007
 8286TIP3    H124811   3.860   7.388   2.914
 8286TIP3    H224812   3.916   7.446   3.042
 8287TIP3   OH224813   3.525   7.549   3.105
 8287TIP3    H124814   3.596   7.612   3.078
 8287TIP3    H224815   3.543   7.542   3.201
 8288TIP3   OH224816   3.799   7.847   3.922
 8288TIP3    H124817   3.849   7.903   3.982
 8288TIP3    H224818   3.861   7.775   3.903
 8289TIP3   OH224819   3.700   7.269   3.203
 8289TIP3    H124820   3.685   7.346   3.261
 8289TIP3    H224821   3.764   7.307   3.139
 8290TIP3   OH224822   3.216   7.269   2.991
 8290TIP3    H124823   3.215   7.359   3.029
 8290TIP3    H224824   3.311   7.248   3.003
 8291TIP3   OH224825   4.459   7.767   3.893
 8291TIP3    H124826   4.362   7.780   3.890
 8291TIP3    H224827   4.475   7.731   3.805
 8292TIP3   OH224828   4.114   7.926   3.255
 8292TIP3    H124829   4.058   7.906   3.333
 8292TIP3    H224830   4.201   7.914   3.298
 8293TIP3   OH224831   2.788   7.468   2.881
 8293TIP3    H124832   2.750   7.544   2.930
 8293TIP3    H224833   2.714   7.440   2.826
 8294TIP3   OH224834   3.165   7.190   3.748
 8294TIP3    H124835   3.132   7.155   3.662
 8294TIP3    H224836   3.154   7.113   3.807
 8295TIP3   OH224837   3.553   7.750   4.177
 8295TIP3    H124838   3.558   7.662   4.134
 8295TIP3    H224839   3.530   7.805   4.101
 8296TIP3   OH224840   3.570   7.548   3.990
 8296TIP3    H124841   3.598   7.595   3.908
 8296TIP3    H224842   3.476   7.528   3.969
 8297TIP3   OH224843   4.191   8.028   4.206
 8297TIP3    H124844   4.242   7.947   4.211
 8297TIP3    H224845   4.248   8.091   4.253
 8298TIP3   OH224846   3.423   7.873   4.398
 8298TIP3    H124847   3.365   7.796   4.419
 8298TIP3    H224848   3.464   7.841   4.315
 8299TIP3   OH224849   3.701   7.311   4.053
 8299TIP3    H124850   3.651   7.393   4.030
 8299TIP3    H224851   3.630   7.243   4.044
 8300TIP3   OH224852   3.819   7.760   4.266
 8300TIP3    H124853   3.790   7.750   4.359
 8300TIP3    H224854   3.733   7.750   4.222
 8301TIP3   OH224855   4.060   7.761   4.118
 8301TIP3    H124856   3.982   7.744   4.175
 8301TIP3    H224857   4.134   7.736   4.177
 8302TIP3   OH224858   4.288   7.714   4.270
 8302TIP3    H124859   4.305   7.619   4.285
 8302TIP3    H224860   4.285   7.750   4.361
 8303TIP3   OH224861   3.292   7.642   4.467
 8303TIP3    H124862   3.303   7.554   4.428
 8303TIP3    H224863   3.317   7.623   4.559
 8304TIP3   OH224864   3.801   7.328   4.308
 8304TIP3    H124865   3.862   7.253   4.301
 8304TIP3    H224866   3.756   7.323   4.221
 8305TIP3   OH224867   3.861   7.535   4.477
 8305TIP3    H124868   3.844   7.466   4.410
 8305TIP3    H224869   3.778   7.588   4.473
 8306TIP3   OH224870   4.174   7.671   2.470
 8306TIP3    H124871   4.173   7.690   2.374
 8306TIP3    H224872   4.143   7.578   2.468
 8307TIP3   OH224873   4.237   7.923   3.003
 8307TIP3    H124874   4.239   7.826   2.997
 8307TIP3    H224875   4.217   7.936   3.098
 8308TIP3   OH224876   4.656   8.172   3.966
 8308TIP3    H124877   4.564   8.139   3.964
 8308TIP3    H224878   4.705   8.088   3.951
 8309TIP3   OH224879   4.118   7.400   2.466
 8309TIP3    H124880   4.194   7.366   2.517
 8309TIP3    H224881   4.048   7.336   2.481
 8310TIP3   OH224882   4.186   7.661   2.898
 8310TIP3    H124883   4.225   7.572   2.913
 8310TIP3    H224884   4.240   7.690   2.821
 8311TIP3   OH224885   4.338   7.814   3.369
 8311TIP3    H124886   4.423   7.850   3.334
 8311TIP3    H224887   4.348   7.844   3.462
 8312TIP3   OH224888   4.383   7.956   3.597
 8312TIP3    H124889   4.294   7.992   3.613
 8312TIP3    H224890   4.429   8.033   3.559
 8313TIP3   OH224891   3.010   7.677   4.446
 8313TIP3    H124892   3.108   7.675   4.448
 8313TIP3    H224893   2.994   7.581   4.462
 8314TIP3   OH224894   4.851   7.576   4.184
 8314TIP3    H124895   4.914   7.514   4.142
 8314TIP3    H224896   4.818   7.627   4.107
 8315TIP3   OH224897   4.284   7.410   2.939
 8315TIP3    H124898   4.330   7.396   3.024
 8315TIP3    H224899   4.220   7.336   2.939
 8316TIP3   OH224900   2.977   7.397   3.758
 8316TIP3    H124901   3.043   7.325   3.769
 8316TIP3    H224902   3.035   7.475   3.750
 8317TIP3   OH224903   2.773   7.690   3.836
 8317TIP3    H124904   2.825   7.682   3.753
 8317TIP3    H224905   2.796   7.780   3.863
 8318TIP3   OH224906   4.720   7.706   3.987
 8318TIP3    H124907   4.640   7.752   4.020
 8318TIP3    H224908   4.677   7.637   3.932
 8319TIP3   OH224909   4.362   7.339   2.582
 8319TIP3    H124910   4.400   7.272   2.520
 8319TIP3    H224911   4.427   7.412   2.576
 8320TIP3   OH224912   2.767   7.171   3.332
 8320TIP3    H124913   2.675   7.164   3.365
 8320TIP3    H224914   2.757   7.229   3.254
 8321TIP3   OH224915   2.987   7.246   4.152
 8321TIP3    H124916   2.966   7.268   4.245
 8321TIP3    H224917   2.911   7.284   4.105
 8322TIP3   OH224918   4.619   7.473   3.870
 8322TIP3    H124919   4.531   7.464   3.832
 8322TIP3    H224920   4.655   7.382   3.861
 8323TIP3   OH224921   3.837   7.392   3.499
 8323TIP3    H124922   3.788   7.320   3.542
 8323TIP3    H224923   3.910   7.346   3.454
 8324TIP3   OH224924   4.341   7.262   3.389
 8324TIP3    H124925   4.381   7.316   3.317
 8324TIP3    H224926   4.250   7.297   3.391
 8325TIP3   OH224927   4.442   7.366   3.159
 8325TIP3    H124928   4.516   7.314   3.121
 8325TIP3    H224929   4.476   7.457   3.145
 8326TIP3   OH224930   3.073   7.094   3.501
 8326TIP3    H124931   2.981   7.061   3.507
 8326TIP3    H224932   3.122   7.009   3.497
 8327TIP3   OH224933   2.873   6.971   3.159
 8327TIP3    H124934   2.893   7.028   3.083
 8327TIP3    H224935   2.839   7.036   3.225
 8328TIP3   OH224936   3.529   7.122   3.388
 8328TIP3    H124937   3.574   7.181   3.325
 8328TIP3    H224938   3.544   7.168   3.472
 8329TIP3   OH224939   4.056   7.277   3.373
 8329TIP3    H124940   4.071   7.243   3.284
 8329TIP3    H224941   4.045   7.195   3.426
 8330TIP3   OH224942   4.094   7.204   2.935
 8330TIP3    H124943   4.012   7.253   2.956
 8330TIP3    H224944   4.076   7.118   2.977
 8331TIP3   OH224945   2.984   7.125   2.915
 8331TIP3    H124946   3.028   7.062   2.856
 8331TIP3    H224947   3.060   7.175   2.952
 8332TIP3   OH224948   3.492   7.293   3.021
 8332TIP3    H124949   3.558   7.257   3.083
 8332TIP3    H224950   3.502   7.388   3.043
 8333TIP3   OH224951   3.521   7.403   4.529
 8333TIP3    H124952   3.596   7.363   4.482
 8333TIP3    H224953   3.498   7.332   4.592
 8334TIP3   OH224954   4.361   7.443   4.301
 8334TIP3    H124955   4.377   7.413   4.393
 8334TIP3    H224956   4.451   7.438   4.263
 8335TIP3   OH224957   4.531   7.874   2.827
 8335TIP3    H124958   4.496   7.946   2.881
 8335TIP3    H224959   4.450   7.831   2.795
 8336TIP3   OH224960   5.799   8.109   2.991
 8336TIP3    H124961   5.831   8.035   3.045
 8336TIP3    H224962   5.745   8.062   2.925
 8337TIP3   OH224963   5.118   7.745   2.985
 8337TIP3    H124964   5.096   7.815   2.920
 8337TIP3    H224965   5.068   7.670   2.945
 8338TIP3   OH224966   5.806   7.835   2.607
 8338TIP3    H124967   5.880   7.823   2.671
 8338TIP3    H224968   5.854   7.880   2.535
 8339TIP3   OH224969   4.732   7.928   3.106
 8339TIP3    H124970   4.822   7.930   3.143
 8339TIP3    H224971   4.749   7.887   3.019
 8340TIP3   OH224972   5.107   7.732   3.423
 8340TIP3    H124973   5.053   7.770   3.351
 8340TIP3    H224974   5.050   7.749   3.500
 8341TIP3   OH224975   6.011   7.827   2.784
 8341TIP3    H124976   5.978   7.802   2.872
 8341TIP3    H224977   6.091   7.876   2.802
 8342TIP3   OH224978   4.987   7.848   3.204
 8342TIP3    H124979   5.043   7.926   3.223
 8342TIP3    H224980   5.035   7.809   3.128
 8343TIP3   OH224981   6.177   7.805   3.149
 8343TIP3    H124982   6.089   7.831   3.117
 8343TIP3    H224983   6.234   7.821   3.071
 8344TIP3   OH224984   5.457   7.446   3.138
 8344TIP3    H124985   5.439   7.352   3.157
 8344TIP3    H224986   5.382   7.488   3.184
 8345TIP3   OH224987   5.361   8.001   2.154
 8345TIP3    H124988   5.310   7.983   2.234
 8345TIP3    H224989   5.305   7.961   2.085
 8346TIP3   OH224990   6.090   7.389   2.237
 8346TIP3    H124991   6.010   7.403   2.292
 8346TIP3    H224992   6.101   7.476   2.197
 8347TIP3   OH224993   5.223   7.525   3.272
 8347TIP3    H124994   5.135   7.497   3.238
 8347TIP3    H224995   5.197   7.607   3.318
 8348TIP3   OH224996   5.762   7.644   3.460
 8348TIP3    H124997   5.832   7.616   3.522
 8348TIP3    H224998   5.680   7.624   3.510
 8349TIP3   OH224999   6.009   8.076   3.376
 8349TIP3    H125000   5.957   8.075   3.460
 8349TIP3    H225001   5.986   8.161   3.338
 8350TIP3   OH225002   5.365   7.572   2.241
 8350TIP3    H125003   5.333   7.565   2.333
 8350TIP3    H225004   5.328   7.489   2.205
 8351TIP3   OH225005   5.152   8.061   3.280
 8351TIP3    H125006   5.099   8.077   3.361
 8351TIP3    H225007   5.144   8.146   3.233
 8352TIP3   OH225008   5.023   7.904   2.790
 8352TIP3    H125009   4.933   7.869   2.804
 8352TIP3    H225010   5.045   7.866   2.702
 8353TIP3   OH225011   5.523   7.990   2.530
 8353TIP3    H125012   5.459   8.057   2.497
 8353TIP3    H225013   5.581   7.976   2.452
 8354TIP3   OH225014   5.731   8.270   3.718
 8354TIP3    H125015   5.683   8.189   3.742
 8354TIP3    H225016   5.824   8.241   3.727
 8355TIP3   OH225017   5.669   8.013   2.775
 8355TIP3    H125018   5.625   8.055   2.699
 8355TIP3    H225019   5.706   7.936   2.728
 8356TIP3   OH225020   5.012   8.063   3.520
 8356TIP3    H125021   4.986   8.115   3.596
 8356TIP3    H225022   4.989   7.972   3.549
 8357TIP3   OH225023   5.019   7.553   2.203
 8357TIP3    H125024   5.011   7.546   2.300
 8357TIP3    H225025   4.933   7.591   2.177
 8358TIP3   OH225026   4.568   7.588   3.076
 8358TIP3    H125027   4.639   7.626   3.132
 8358TIP3    H225028   4.615   7.561   2.996
 8359TIP3   OH225029   4.532   7.564   2.586
 8359TIP3    H125030   4.583   7.599   2.511
 8359TIP3    H225031   4.477   7.640   2.610
 8360TIP3   OH225032   5.376   7.733   2.862
 8360TIP3    H125033   5.295   7.743   2.917
 8360TIP3    H225034   5.445   7.758   2.925
 8361TIP3   OH225035   4.787   7.800   2.863
 8361TIP3    H125036   4.692   7.810   2.839
 8361TIP3    H225037   4.805   7.706   2.845
 8362TIP3   OH225038   5.074   7.791   2.550
 8362TIP3    H125039   5.169   7.815   2.546
 8362TIP3    H225040   5.032   7.850   2.485
 8363TIP3   OH225041   5.859   7.828   3.063
 8363TIP3    H125042   5.829   7.845   3.155
 8363TIP3    H225043   5.787   7.771   3.032
 8364TIP3   OH225044   4.873   7.809   2.351
 8364TIP3    H125045   4.785   7.779   2.322
 8364TIP3    H225046   4.932   7.759   2.294
 8365TIP3   OH225047   5.459   8.055   2.958
 8365TIP3    H125048   5.544   8.039   2.913
 8365TIP3    H225049   5.479   8.040   3.051
 8366TIP3   OH225050   4.961   7.564   2.843
 8366TIP3    H125051   4.927   7.487   2.893
 8366TIP3    H225052   5.006   7.521   2.769
 8367TIP3   OH225053   5.415   7.963   3.252
 8367TIP3    H125054   5.330   8.010   3.245
 8367TIP3    H225055   5.473   8.029   3.297
 8368TIP3   OH225056   5.612   7.679   2.208
 8368TIP3    H125057   5.517   7.656   2.218
 8368TIP3    H225058   5.616   7.772   2.238
 8369TIP3   OH225059   5.689   7.926   2.315
 8369TIP3    H125060   5.785   7.922   2.332
 8369TIP3    H225061   5.686   7.973   2.229
 8370TIP3   OH225062   4.941   7.812   3.632
 8370TIP3    H125063   4.844   7.813   3.642
 8370TIP3    H225064   4.968   7.760   3.709
 8371TIP3   OH225065   5.786   7.888   3.324
 8371TIP3    H125066   5.868   7.926   3.362
 8371TIP3    H225067   5.776   7.805   3.376
 8372TIP3   OH225068   5.669   7.622   2.492
 8372TIP3    H125069   5.654   7.648   2.400
 8372TIP3    H225070   5.709   7.703   2.530
 8373TIP3   OH225071   5.342   7.801   2.597
 8373TIP3    H125072   5.410   7.870   2.578
 8373TIP3    H225073   5.351   7.794   2.695
 8374TIP3   OH225074   5.595   8.097   3.408
 8374TIP3    H125075   5.645   8.140   3.479
 8374TIP3    H225076   5.658   8.029   3.378
 8375TIP3   OH225077   5.490   7.526   2.688
 8375TIP3    H125078   5.472   7.606   2.742
 8375TIP3    H225079   5.556   7.562   2.624
 8376TIP3   OH225080   5.009   7.535   2.477
 8376TIP3    H125081   5.012   7.626   2.512
 8376TIP3    H225082   5.104   7.512   2.489
 8377TIP3   OH225083   6.281   8.021   3.319
 8377TIP3    H125084   6.197   8.056   3.354
 8377TIP3    H225085   6.246   7.944   3.269
 8378TIP3   OH225086   5.922   8.198   2.752
 8378TIP3    H125087   5.858   8.155   2.812
 8378TIP3    H225088   5.994   8.214   2.814
 8379TIP3   OH225089   4.576   7.722   2.355
 8379TIP3    H125090   4.561   7.801   2.410
 8379TIP3    H225091   4.488   7.702   2.322
 8380TIP3   OH225092   4.958   7.447   3.235
 8380TIP3    H125093   4.929   7.413   3.148
 8380TIP3    H225094   4.946   7.368   3.292
 8381TIP3   OH225095   5.348   8.004   3.660
 8381TIP3    H125096   5.355   7.917   3.616
 8381TIP3    H225097   5.333   8.060   3.583
 8382TIP3   OH225098   5.366   7.803   3.475
 8382TIP3    H125099   5.395   7.849   3.393
 8382TIP3    H225100   5.272   7.783   3.453
 8383TIP3   OH225101   6.006   8.282   3.699
 8383TIP3    H125102   6.055   8.201   3.715
 8383TIP3    H225103   6.051   8.346   3.758
 8384TIP3   OH225104   5.236   8.128   3.882
 8384TIP3    H125105   5.164   8.067   3.907
 8384TIP3    H225106   5.267   8.088   3.798
 8385TIP3   OH225107   5.498   7.570   3.543
 8385TIP3    H125108   5.449   7.651   3.517
 8385TIP3    H225109   5.430   7.501   3.530
 8386TIP3   OH225110   5.618   8.022   3.752
 8386TIP3    H125111   5.592   8.013   3.846
 8386TIP3    H225112   5.531   8.007   3.711
 8387TIP3   OH225113   5.858   8.024   3.601
 8387TIP3    H125114   5.782   8.004   3.658
 8387TIP3    H225115   5.934   7.998   3.657
 8388TIP3   OH225116   6.088   7.968   3.749
 8388TIP3    H125117   6.104   7.873   3.766
 8388TIP3    H225118   6.083   8.004   3.840
 8389TIP3   OH225119   5.076   7.904   3.949
 8389TIP3    H125120   5.081   7.812   3.919
 8389TIP3    H225121   5.115   7.896   4.039
 8390TIP3   OH225122   5.586   7.581   3.803
 8390TIP3    H125123   5.654   7.511   3.795
 8390TIP3    H225124   5.549   7.578   3.712
 8391TIP3   OH225125   5.653   7.793   3.963
 8391TIP3    H125126   5.636   7.723   3.897
 8391TIP3    H225127   5.573   7.849   3.955
 8392TIP3   OH225128   5.896   7.670   1.959
 8392TIP3    H125129   5.959   7.598   1.959
 8392TIP3    H225130   5.811   7.625   1.949
 8393TIP3   OH225131   5.955   7.908   2.384
 8393TIP3    H125132   5.992   7.818   2.398
 8393TIP3    H225133   6.035   7.958   2.361
 8394TIP3   OH225134   4.808   7.953   3.911
 8394TIP3    H125135   4.906   7.951   3.917
 8394TIP3    H225136   4.788   7.863   3.945
 8395TIP3   OH225137   6.638   7.819   3.678
 8395TIP3    H125138   6.703   7.763   3.632
 8395TIP3    H225139   6.605   7.874   3.603
 8396TIP3   OH225140   6.066   7.668   2.447
 8396TIP3    H125141   6.108   7.649   2.533
 8396TIP3    H225142   6.006   7.591   2.438
 8397TIP3   OH225143   4.772   7.654   3.256
 8397TIP3    H125144   4.838   7.583   3.258
 8397TIP3    H225145   4.828   7.732   3.239
 8398TIP3   OH225146   4.571   7.947   3.327
 8398TIP3    H125147   4.622   7.933   3.244
 8398TIP3    H225148   4.590   8.040   3.344
 8399TIP3   OH225149   6.502   7.949   3.483
 8399TIP3    H125150   6.436   8.019   3.470
 8399TIP3    H225151   6.469   7.881   3.421
 8400TIP3   OH225152   4.563   7.430   2.820
 8400TIP3    H125153   4.472   7.423   2.851
 8400TIP3    H225154   4.554   7.487   2.740
 8401TIP3   OH225155   4.781   7.506   3.634
 8401TIP3    H125156   4.730   7.511   3.717
 8401TIP3    H225157   4.718   7.547   3.571
 8402TIP3   OH225158   6.411   7.718   3.356
 8402TIP3    H125159   6.321   7.704   3.323
 8402TIP3    H225160   6.449   7.628   3.347
 8403TIP3   OH225161   5.637   7.649   2.991
 8403TIP3    H125162   5.584   7.577   3.029
 8403TIP3    H225163   5.703   7.601   2.938
 8404TIP3   OH225164   6.141   7.529   2.885
 8404TIP3    H125165   6.176   7.582   2.810
 8404TIP3    H225166   6.045   7.543   2.875
 8405TIP3   OH225167   6.251   7.636   2.655
 8405TIP3    H125168   6.309   7.569   2.614
 8405TIP3    H225169   6.310   7.712   2.653
 8406TIP3   OH225170   4.867   7.351   2.990
 8406TIP3    H125171   4.775   7.318   2.994
 8406TIP3    H225172   4.916   7.266   2.986
 8407TIP3   OH225173   4.658   7.226   2.645
 8407TIP3    H125174   4.690   7.280   2.571
 8407TIP3    H225175   4.634   7.294   2.711
 8408TIP3   OH225176   5.320   7.384   2.875
 8408TIP3    H125177   5.372   7.431   2.808
 8408TIP3    H225178   5.351   7.428   2.956
 8409TIP3   OH225179   5.859   7.532   2.853
 8409TIP3    H125180   5.860   7.488   2.767
 8409TIP3    H225181   5.849   7.456   2.914
 8410TIP3   OH225182   5.887   7.458   2.420
 8410TIP3    H125183   5.803   7.503   2.440
 8410TIP3    H225184   5.872   7.370   2.462
 8411TIP3   OH225185   4.780   7.384   2.401
 8411TIP3    H125186   4.826   7.317   2.346
 8411TIP3    H225187   4.856   7.432   2.440
 8412TIP3   OH225188   5.285   7.552   2.503
 8412TIP3    H125189   5.349   7.508   2.562
 8412TIP3    H225190   5.300   7.645   2.530
 8413TIP3   OH225191   5.079   7.629   3.881
 8413TIP3    H125192   5.042   7.559   3.938
 8413TIP3    H225193   5.172   7.629   3.911
 8414TIP3   OH225194   5.330   7.632   4.001
 8414TIP3    H125195   5.416   7.612   3.960
 8414TIP3    H225196   5.322   7.558   4.066
 8415TIP3   OH225197   6.155   7.698   3.790
 8415TIP3    H125198   6.172   7.668   3.882
 8415TIP3    H225199   6.244   7.692   3.751
 8416TIP3   OH225200   6.565   7.764   3.120
 8416TIP3    H125201   6.520   7.758   3.206
 8416TIP3    H225202   6.492   7.795   3.062
 8417TIP3   OH225203   2.094   0.585   6.981
 8417TIP3    H125204   2.188   0.597   6.996
 8417TIP3    H225205   2.090   0.589   6.884
 8418TIP3   OH225206   2.406   1.178   6.557
 8418TIP3    H125207   2.414   1.275   6.538
 8418TIP3    H225208   2.499   1.149   6.545
 8419TIP3   OH225209   1.716   1.500   7.027
 8419TIP3    H125210   1.669   1.494   6.942
 8419TIP3    H225211   1.688   1.589   7.058
 8420TIP3   OH225212   1.908   1.396   6.675
 8420TIP3    H125213   1.971   1.329   6.639
 8420TIP3    H225214   1.945   1.411   6.765
 8421TIP3   OH225215   1.972   1.455   6.941
 8421TIP3    H125216   1.885   1.461   6.986
 8421TIP3    H225217   2.035   1.463   7.015
 8422TIP3   OH225218   2.177   0.605   6.716
 8422TIP3    H125219   2.137   0.579   6.632
 8422TIP3    H225220   2.253   0.657   6.686
 8423TIP3   OH225221   1.821   0.941   6.908
 8423TIP3    H125222   1.777   1.029   6.919
 8423TIP3    H225223   1.809   0.903   6.995
 8424TIP3   OH225224   2.654   0.445   6.885
 8424TIP3    H125225   2.586   0.394   6.836
 8424TIP3    H225226   2.634   0.535   6.850
 8425TIP3   OH225227   2.341   1.246   6.819
 8425TIP3    H125228   2.310   1.166   6.864
 8425TIP3    H225229   2.356   1.214   6.728
 8426TIP3   OH225230   2.098   0.987   6.717
 8426TIP3    H125231   2.159   0.961   6.790
 8426TIP3    H225232   2.013   0.957   6.754
 8427TIP3   OH225233   2.433   1.453   6.539
 8427TIP3    H125234   2.466   1.526   6.484
 8427TIP3    H225235   2.353   1.498   6.577
 8428TIP3   OH225236   2.270   0.928   6.917
 8428TIP3    H125237   2.245   0.892   7.002
 8428TIP3    H225238   2.367   0.910   6.915
 8429TIP3   OH225239   1.686   1.173   6.928
 8429TIP3    H125240   1.609   1.170   6.986
 8429TIP3    H225241   1.689   1.268   6.904
 8430TIP3   OH225242   1.616   1.151   6.637
 8430TIP3    H125243   1.634   1.116   6.726
 8430TIP3    H225244   1.692   1.115   6.587
 8431TIP3   OH225245   2.061   1.204   6.546
 8431TIP3    H125246   2.096   1.135   6.606
 8431TIP3    H225247   2.118   1.197   6.467
 8432TIP3   OH225248   1.793   0.893   6.646
 8432TIP3    H125249   1.796   0.908   6.743
 8432TIP3    H225250   1.817   0.798   6.643
 8433TIP3   OH225251   2.398   0.708   6.583
 8433TIP3    H125252   2.377   0.668   6.496
 8433TIP3    H225253   2.365   0.800   6.566
 8434TIP3   OH225254   1.366   1.422   6.813
 8434TIP3    H125255   1.463   1.425   6.811
 8434TIP3    H225256   1.347   1.487   6.742
 8435TIP3   OH225257   2.541   0.893   6.917
 8435TIP3    H125258   2.606   0.960   6.886
 8435TIP3    H225259   2.585   0.860   6.999
 8436TIP3   OH225260   2.666   0.771   7.129
 8436TIP3    H125261   2.646   0.719   7.208
 8436TIP3    H225262   2.758   0.801   7.147
 8437TIP3   OH225263   2.599   0.677   6.759
 8437TIP3    H125264   2.527   0.685   6.692
 8437TIP3    H225265   2.573   0.751   6.818
 8438TIP3   OH225266   2.476   0.340   6.707
 8438TIP3    H125267   2.431   0.417   6.669
 8438TIP3    H225268   2.417   0.269   6.678
 8439TIP3   OH225269   2.208   1.558   7.092
 8439TIP3    H125270   2.259   1.547   7.009
 8439TIP3    H225271   2.278   1.546   7.158
 8440TIP3   OH225272   1.648   1.402   6.770
 8440TIP3    H125273   1.736   1.422   6.734
 8440TIP3    H225274   1.620   1.332   6.707
 8441TIP3   OH225275   2.373   1.516   6.867
 8441TIP3    H125276   2.367   1.419   6.856
 8441TIP3    H225277   2.327   1.548   6.787
 8442TIP3   OH225278   3.873   1.044   6.810
 8442TIP3    H125279   3.838   1.131   6.782
 8442TIP3    H225280   3.790   0.997   6.828
 8443TIP3   OH225281   3.871   1.071   7.180
 8443TIP3    H125282   3.901   1.012   7.253
 8443TIP3    H225283   3.800   1.018   7.141
 8444TIP3   OH225284   4.115   1.343   6.881
 8444TIP3    H125285   4.090   1.274   6.944
 8444TIP3    H225286   4.146   1.415   6.939
 8445TIP3   OH225287   3.155   1.311   7.282
 8445TIP3    H125288   3.166   1.216   7.260
 8445TIP3    H225289   3.244   1.343   7.258
 8446TIP3   OH225290   2.834   0.520   7.077
 8446TIP3    H125291   2.817   0.615   7.089
 8446TIP3    H225292   2.761   0.494   7.017
 8447TIP3   OH225293   2.934   0.806   7.167
 8447TIP3    H125294   2.971   0.778   7.252
 8447TIP3    H225295   2.999   0.871   7.138
 8448TIP3   OH225296   3.767   1.801   6.900
 8448TIP3    H125297   3.807   1.731   6.844
 8448TIP3    H225298   3.749   1.753   6.982
 8449TIP3   OH225299   3.655   1.280   7.245
 8449TIP3    H125300   3.610   1.207   7.196
 8449TIP3    H225301   3.746   1.267   7.216
 8450TIP3   OH225302   4.097   0.717   7.297
 8450TIP3    H125303   4.130   0.624   7.294
 8450TIP3    H225304   4.036   0.719   7.221
 8451TIP3   OH225305   3.408   0.446   7.278
 8451TIP3    H125306   3.385   0.504   7.202
 8451TIP3    H225307   3.405   0.360   7.232
 8452TIP3   OH225308   4.103   0.530   6.859
 8452TIP3    H125309   4.179   0.524   6.920
 8452TIP3    H225310   4.144   0.543   6.773
 8453TIP3   OH225311   4.735   0.766   7.437
 8453TIP3    H125312   4.664   0.824   7.402
 8453TIP3    H225313   4.745   0.800   7.527
 8454TIP3   OH225314   3.759   1.262   6.677
 8454TIP3    H125315   3.713   1.247   6.593
 8454TIP3    H225316   3.711   1.342   6.709
 8455TIP3   OH225317   2.730   1.073   6.806
 8455TIP3    H125318   2.693   1.100   6.720
 8455TIP3    H225319   2.763   1.159   6.840
 8456TIP3   OH225320   4.177   1.587   7.043
 8456TIP3    H125321   4.087   1.580   7.081
 8456TIP3    H225322   4.171   1.673   6.997
 8457TIP3   OH225323   3.876   1.628   6.713
 8457TIP3    H125324   3.927   1.545   6.697
 8457TIP3    H225325   3.939   1.693   6.675
 8458TIP3   OH225326   4.021   1.412   6.631
 8458TIP3    H125327   3.964   1.336   6.612
 8458TIP3    H225328   4.066   1.382   6.713
 8459TIP3   OH225329   4.393   1.493   7.387
 8459TIP3    H125330   4.393   1.423   7.318
 8459TIP3    H225331   4.374   1.573   7.333
 8460TIP3   OH225332   3.687   0.877   6.638
 8460TIP3    H125333   3.613   0.938   6.620
 8460TIP3    H225334   3.742   0.888   6.559
 8461TIP3   OH225335   3.645   0.681   6.359
 8461TIP3    H125336   3.709   0.731   6.412
 8461TIP3    H225337   3.704   0.615   6.318
 8462TIP3   OH225338   4.601   1.135   7.237
 8462TIP3    H125339   4.514   1.180   7.241
 8462TIP3    H225340   4.630   1.160   7.147
 8463TIP3   OH225341   4.047   0.972   6.614
 8463TIP3    H125342   3.990   0.995   6.691
 8463TIP3    H225343   4.131   0.951   6.660
 8464TIP3   OH225344   4.273   1.038   7.420
 8464TIP3    H125345   4.249   1.131   7.409
 8464TIP3    H225346   4.187   0.996   7.403
 8465TIP3   OH225347   3.400   1.383   7.183
 8465TIP3    H125348   3.386   1.334   7.099
 8465TIP3    H225349   3.484   1.340   7.211
 8466TIP3   OH225350   3.436   0.908   7.359
 8466TIP3    H125351   3.449   0.936   7.265
 8466TIP3    H225352   3.475   0.985   7.403
 8467TIP3   OH225353   3.936   1.582   7.167
 8467TIP3    H125354   3.929   1.664   7.220
 8467TIP3    H225355   3.926   1.513   7.234
 8468TIP3   OH225356   3.880   0.838   6.441
 8468TIP3    H125357   3.941   0.899   6.488
 8468TIP3    H225358   3.907   0.853   6.348
 8469TIP3   OH225359   3.632   1.505   6.715
 8469TIP3    H125360   3.715   1.556   6.721
 8469TIP3    H225361   3.572   1.568   6.675
 8470TIP3   OH225362   3.141   0.782   6.781
 8470TIP3    H125363   3.060   0.833   6.759
 8470TIP3    H225364   3.110   0.723   6.851
 8471TIP3   OH225365   4.201   1.434   6.044
 8471TIP3    H125366   4.209   1.530   6.028
 8471TIP3    H225367   4.294   1.405   6.031
 8472TIP3   OH225368   4.637   1.844   7.424
 8472TIP3    H125369   4.641   1.751   7.450
 8472TIP3    H225370   4.555   1.872   7.471
 8473TIP3   OH225371   3.515   1.751   6.525
 8473TIP3    H125372   3.465   1.735   6.443
 8473TIP3    H225373   3.479   1.837   6.554
 8474TIP3   OH225374   2.950   1.600   6.914
 8474TIP3    H125375   3.002   1.589   6.996
 8474TIP3    H225376   2.902   1.516   6.911
 8475TIP3   OH225377   3.710   1.657   6.160
 8475TIP3    H125378   3.768   1.586   6.125
 8475TIP3    H225379   3.745   1.668   6.250
 8476TIP3   OH225380   3.764   1.705   6.428
 8476TIP3    H125381   3.676   1.715   6.470
 8476TIP3    H225382   3.816   1.668   6.501
 8477TIP3   OH225383   3.962   0.862   6.184
 8477TIP3    H125384   3.925   0.848   6.095
 8477TIP3    H225385   4.045   0.910   6.162
 8478TIP3   OH225386   3.335   0.582   7.059
 8478TIP3    H125387   3.240   0.563   7.070
 8478TIP3    H225388   3.353   0.548   6.969
 8479TIP3   OH225389   3.830   0.705   6.792
 8479TIP3    H125390   3.777   0.768   6.739
 8479TIP3    H225391   3.884   0.661   6.724
 8480TIP3   OH225392   4.001   0.735   7.008
 8480TIP3    H125393   3.931   0.764   6.947
 8480TIP3    H225394   4.027   0.653   6.961
 8481TIP3   OH225395   3.369   0.262   6.467
 8481TIP3    H125396   3.328   0.329   6.525
 8481TIP3    H225397   3.292   0.215   6.432
 8482TIP3   OH225398   2.849   0.256   6.843
 8482TIP3    H125399   2.889   0.305   6.769
 8482TIP3    H225400   2.789   0.326   6.876
 8483TIP3   OH225401   4.003   0.955   7.391
 8483TIP3    H125402   4.017   0.863   7.360
 8483TIP3    H225403   3.978   0.944   7.485
 8484TIP3   OH225404   3.660   0.444   7.100
 8484TIP3    H125405   3.584   0.470   7.155
 8484TIP3    H225406   3.716   0.398   7.166
 8485TIP3   OH225407   3.086   0.463   7.143
 8485TIP3    H125408   2.994   0.486   7.118
 8485TIP3    H225409   3.095   0.377   7.101
 8486TIP3   OH225410   3.379   0.464   6.813
 8486TIP3    H125411   3.471   0.481   6.788
 8486TIP3    H225412   3.328   0.479   6.731
 8487TIP3   OH225413   3.232   0.488   6.575
 8487TIP3    H125414   3.157   0.464   6.518
 8487TIP3    H225415   3.279   0.551   6.516
 8488TIP3   OH225416   4.327   2.186   7.526
 8488TIP3    H125417   4.331   2.211   7.432
 8488TIP3    H225418   4.405   2.236   7.561
 8489TIP3   OH225419   3.806   0.760   7.232
 8489TIP3    H125420   3.800   0.729   7.141
 8489TIP3    H225421   3.733   0.712   7.275
 8490TIP3   OH225422   3.457   1.044   6.612
 8490TIP3    H125423   3.390   0.976   6.589
 8490TIP3    H225424   3.447   1.049   6.709
 8491TIP3   OH225425   4.363   1.278   7.217
 8491TIP3    H125426   4.390   1.328   7.137
 8491TIP3    H225427   4.281   1.233   7.187
 8492TIP3   OH225428   3.982   0.401   6.393
 8492TIP3    H125429   3.894   0.370   6.423
 8492TIP3    H225430   3.992   0.480   6.451
 8493TIP3   OH225431   3.991   0.616   6.568
 8493TIP3    H125432   4.086   0.635   6.582
 8493TIP3    H225433   3.958   0.698   6.527
 8494TIP3   OH225434   3.193   1.039   7.247
 8494TIP3    H125435   3.262   1.044   7.178
 8494TIP3    H225436   3.241   0.990   7.315
 8495TIP3   OH225437   3.604   1.185   6.425
 8495TIP3    H125438   3.558   1.273   6.424
 8495TIP3    H225439   3.549   1.136   6.488
 8496TIP3   OH225440   4.015   1.662   7.461
 8496TIP3    H125441   3.927   1.628   7.475
 8496TIP3    H225442   4.057   1.647   7.546
 8497TIP3   OH225443   4.436   0.691   6.388
 8497TIP3    H125444   4.381   0.645   6.321
 8497TIP3    H225445   4.425   0.782   6.352
 8498TIP3   OH225446   4.642   1.549   7.477
 8498TIP3    H125447   4.545   1.542   7.465
 8498TIP3    H225448   4.671   1.525   7.386
 8499TIP3   OH225449   4.138   1.513   6.311
 8499TIP3    H125450   4.106   1.445   6.373
 8499TIP3    H225451   4.149   1.463   6.228
 8500TIP3   OH225452   4.131   1.147   7.136
 8500TIP3    H125453   4.037   1.118   7.147
 8500TIP3    H225454   4.168   1.065   7.097
 8501TIP3   OH225455   3.233   1.399   6.933
 8501TIP3    H125456   3.250   1.462   6.861
 8501TIP3    H225457   3.172   1.336   6.893
 8502TIP3   OH225458   2.829   0.666   6.608
 8502TIP3    H125459   2.872   0.752   6.627
 8502TIP3    H225460   2.751   0.673   6.668
 8503TIP3   OH225461   3.515   1.743   7.375
 8503TIP3    H125462   3.572   1.794   7.313
 8503TIP3    H225463   3.575   1.729   7.450
 8504TIP3   OH225464   3.172   1.615   6.738
 8504TIP3    H125465   3.091   1.620   6.792
 8504TIP3    H225466   3.205   1.707   6.745
 8505TIP3   OH225467   3.957   1.341   7.342
 8505TIP3    H125468   3.904   1.279   7.394
 8505TIP3    H225469   3.987   1.283   7.270
 8506TIP3   OH225470   3.896   1.244   6.209
 8506TIP3    H125471   3.950   1.217   6.287
 8506TIP3    H225472   3.808   1.212   6.237
 8507TIP3   OH225473   4.168   1.881   7.374
 8507TIP3    H125474   4.091   1.820   7.377
 8507TIP3    H225475   4.143   1.942   7.301
 8508TIP3   OH225476   4.230   1.711   6.026
 8508TIP3    H125477   4.267   1.786   5.977
 8508TIP3    H225478   4.149   1.753   6.062
 8509TIP3   OH225479   4.059   1.165   6.414
 8509TIP3    H125480   4.048   1.106   6.491
 8509TIP3    H225481   4.156   1.165   6.407
 8510TIP3   OH225482   3.256   1.218   6.210
 8510TIP3    H125483   3.267   1.124   6.186
 8510TIP3    H225484   3.232   1.211   6.305
 8511TIP3   OH225485   3.198   1.224   6.481
 8511TIP3    H125486   3.277   1.197   6.530
 8511TIP3    H225487   3.202   1.322   6.490
 8512TIP3   OH225488   2.919   0.916   6.683
 8512TIP3    H125489   2.855   0.964   6.740
 8512TIP3    H225490   2.937   0.984   6.616
 8513TIP3   OH225491   3.469   1.419   6.427
 8513TIP3    H125492   3.381   1.442   6.464
 8513TIP3    H225493   3.485   1.498   6.373
 8514TIP3   OH225494   3.665   0.486   6.830
 8514TIP3    H125495   3.711   0.573   6.828
 8514TIP3    H225496   3.657   0.471   6.927
 8515TIP3   OH225497   3.217   1.495   6.498
 8515TIP3    H125498   3.187   1.566   6.436
 8515TIP3    H225499   3.199   1.539   6.584
 8516TIP3   OH225500   4.217   0.906   7.027
 8516TIP3    H125501   4.141   0.845   7.036
 8516TIP3    H225502   4.289   0.856   7.072
 8517TIP3   OH225503   2.933   1.118   6.487
 8517TIP3    H125504   3.007   1.181   6.495
 8517TIP3    H225505   2.974   1.056   6.422
 8518TIP3   OH225506   2.857   0.390   6.598
 8518TIP3    H125507   2.887   0.483   6.600
 8518TIP3    H225508   2.761   0.403   6.602
 8519TIP3   OH225509   4.188   1.856   6.965
 8519TIP3    H125510   4.145   1.903   6.891
 8519TIP3    H225511   4.282   1.876   6.946
 8520TIP3   OH225512   2.788   1.338   6.870
 8520TIP3    H125513   2.727   1.372   6.937
 8520TIP3    H225514   2.756   1.385   6.789
 8521TIP3   OH225515   3.418   1.419   6.115
 8521TIP3    H125516   3.364   1.347   6.155
 8521TIP3    H225517   3.494   1.368   6.083
 8522TIP3   OH225518   3.853   1.457   6.035
 8522TIP3    H125519   3.890   1.390   6.096
 8522TIP3    H225520   3.913   1.450   5.958
 8523TIP3   OH225521   3.069   0.930   6.349
 8523TIP3    H125522   3.129   0.905   6.422
 8523TIP3    H225523   3.135   0.938   6.276
 8524TIP3   OH225524   3.588   1.139   6.153
 8524TIP3    H125525   3.585   1.149   6.250
 8524TIP3    H225526   3.588   1.041   6.145
 8525TIP3   OH225527   4.205   1.317   7.487
 8525TIP3    H125528   4.279   1.370   7.453
 8525TIP3    H225529   4.129   1.356   7.441
 8526TIP3   OH225530   3.269   0.855   6.557
 8526TIP3    H125531   3.232   0.822   6.643
 8526TIP3    H225532   3.306   0.773   6.519
 8527TIP3   OH225533   3.373   0.645   6.404
 8527TIP3    H125534   3.352   0.650   6.308
 8527TIP3    H225535   3.471   0.646   6.400
 8528TIP3   OH225536   4.194   0.964   6.073
 8528TIP3    H125537   4.174   0.924   5.985
 8528TIP3    H225538   4.162   1.055   6.056
 8529TIP3   OH225539   3.187   1.699   6.312
 8529TIP3    H125540   3.281   1.688   6.292
 8529TIP3    H225541   3.160   1.754   6.235
 8530TIP3   OH225542   2.663   1.083   6.525
 8530TIP3    H125543   2.758   1.104   6.509
 8530TIP3    H225544   2.657   0.994   6.483
 8531TIP3   OH225545   2.577   1.696   6.932
 8531TIP3    H125546   2.510   1.634   6.895
 8531TIP3    H225547   2.623   1.638   6.995
 8532TIP3   OH225548   2.705   1.541   7.116
 8532TIP3    H125549   2.661   1.481   7.178
 8532TIP3    H225550   2.765   1.592   7.175
 8533TIP3   OH225551   4.445   1.939   6.931
 8533TIP3    H125552   4.468   1.974   7.019
 8533TIP3    H225553   4.509   1.984   6.874
 8534TIP3   OH225554   4.468   1.963   7.212
 8534TIP3    H125555   4.425   1.875   7.211
 8534TIP3    H225556   4.545   1.943   7.269
 8535TIP3   OH225557   4.338   1.148   6.401
 8535TIP3    H125558   4.400   1.217   6.371
 8535TIP3    H225559   4.384   1.113   6.480
 8536TIP3   OH225560   4.467   1.010   6.605
 8536TIP3    H125561   4.396   0.978   6.665
 8536TIP3    H225562   4.530   1.051   6.667
 8537TIP3   OH225563   4.520   1.416   7.038
 8537TIP3    H125564   4.571   1.346   6.992
 8537TIP3    H225565   4.519   1.489   6.972
 8538TIP3   OH225566   4.340   1.713   7.233
 8538TIP3    H125567   4.268   1.761   7.279
 8538TIP3    H225568   4.293   1.671   7.159
 8539TIP3   OH225569   4.397   0.926   6.250
 8539TIP3    H125570   4.326   0.931   6.182
 8539TIP3    H225571   4.370   1.002   6.307
 8540TIP3   OH225572   4.276   0.600   6.194
 8540TIP3    H125573   4.214   0.647   6.136
 8540TIP3    H225574   4.240   0.510   6.190
 8541TIP3   OH225575   4.273   0.892   6.758
 8541TIP3    H125576   4.277   0.795   6.751
 8541TIP3    H225577   4.255   0.904   6.854
 8542TIP3   OH225578   4.561   1.294   7.596
 8542TIP3    H125579   4.625   1.226   7.574
 8542TIP3    H225580   4.595   1.372   7.549
 8543TIP3   OH225581   4.268   0.617   6.619
 8543TIP3    H125582   4.336   0.577   6.677
 8543TIP3    H225583   4.320   0.631   6.537
 8544TIP3   OH225584   4.437   0.784   7.136
 8544TIP3    H125585   4.526   0.800   7.099
 8544TIP3    H225586   4.451   0.811   7.228
 8545TIP3   OH225587   4.515   0.911   7.372
 8545TIP3    H125588   4.427   0.942   7.404
 8545TIP3    H225589   4.544   0.991   7.324
 8546TIP3   OH225590   4.023   1.812   6.583
 8546TIP3    H125591   4.078   1.805   6.502
 8546TIP3    H225592   4.073   1.878   6.635
 8547TIP3   OH225593   3.919   2.041   7.524
 8547TIP3    H125594   3.959   1.985   7.455
 8547TIP3    H225595   3.998   2.071   7.574
 8548TIP3   OH225596   3.209   1.901   7.374
 8548TIP3    H125597   3.118   1.906   7.406
 8548TIP3    H225598   3.198   1.923   7.280
 8549TIP3   OH225599   3.643   1.913   7.192
 8549TIP3    H125600   3.569   1.920   7.128
 8549TIP3    H225601   3.645   2.004   7.227
 8550TIP3   OH225602   3.907   1.856   7.254
 8550TIP3    H125603   3.815   1.872   7.226
 8550TIP3    H225604   3.957   1.918   7.198
 8551TIP3   OH225605   4.106   2.035   7.157
 8551TIP3    H125606   4.097   2.121   7.111
 8551TIP3    H225607   4.140   1.978   7.085
 8552TIP3   OH225608   2.888   1.691   7.272
 8552TIP3    H125609   2.920   1.719   7.359
 8552TIP3    H225610   2.967   1.646   7.234
 8553TIP3   OH225611   3.095   1.567   7.149
 8553TIP3    H125612   3.116   1.474   7.170
 8553TIP3    H225613   3.185   1.602   7.133
 8554TIP3   OH225614   3.361   1.662   7.148
 8554TIP3    H125615   3.388   1.569   7.138
 8554TIP3    H225616   3.404   1.683   7.233
 8555TIP3   OH225617   2.677   1.478   6.668
 8555TIP3    H125618   2.590   1.447   6.639
 8555TIP3    H225619   2.671   1.571   6.639
 8556TIP3   OH225620   3.452   1.650   6.258
 8556TIP3    H125621   3.539   1.674   6.221
 8556TIP3    H225622   3.429   1.576   6.197
 8557TIP3   OH225623   4.173   1.780   6.352
 8557TIP3    H125624   4.166   1.682   6.343
 8557TIP3    H225625   4.125   1.809   6.272
 8558TIP3   OH225626   2.752   1.488   6.309
 8558TIP3    H125627   2.759   1.511   6.403
 8558TIP3    H225628   2.839   1.445   6.292
 8559TIP3   OH225629   4.395   1.916   7.529
 8559TIP3    H125630   4.314   1.895   7.478
 8559TIP3    H225631   4.378   2.010   7.548
 8560TIP3   OH225632   5.664   1.295   6.295
 8560TIP3    H125633   5.632   1.386   6.275
 8560TIP3    H225634   5.588   1.243   6.266
 8561TIP3   OH225635   5.655   1.295   6.691
 8561TIP3    H125636   5.693   1.280   6.780
 8561TIP3    H225637   5.619   1.206   6.672
 8562TIP3   OH225638   4.957   1.195   7.051
 8562TIP3    H125639   4.989   1.125   7.111
 8562TIP3    H225640   5.040   1.237   7.026
 8563TIP3   OH225641   5.911   1.599   6.372
 8563TIP3    H125642   5.893   1.532   6.440
 8563TIP3    H225643   5.941   1.675   6.425
 8564TIP3   OH225644   4.935   1.597   6.766
 8564TIP3    H125645   4.927   1.499   6.768
 8564TIP3    H225646   5.032   1.607   6.762
 8565TIP3   OH225647   4.629   0.776   6.563
 8565TIP3    H125648   4.587   0.861   6.588
 8565TIP3    H225649   4.563   0.744   6.498
 8566TIP3   OH225650   4.699   1.088   6.737
 8566TIP3    H125651   4.752   1.011   6.768
 8566TIP3    H225652   4.764   1.138   6.687
 8567TIP3   OH225653   5.563   2.059   6.388
 8567TIP3    H125654   5.600   1.987   6.333
 8567TIP3    H225655   5.550   2.014   6.472
 8568TIP3   OH225656   5.459   1.518   6.735
 8568TIP3    H125657   5.504   1.441   6.695
 8568TIP3    H225658   5.540   1.568   6.761
 8569TIP3   OH225659   5.870   1.009   6.776
 8569TIP3    H125660   5.914   0.927   6.803
 8569TIP3    H225661   5.841   0.990   6.685
 8570TIP3   OH225662   5.209   0.703   6.750
 8570TIP3    H125663   5.187   0.772   6.684
 8570TIP3    H225664   5.203   0.623   6.695
 8571TIP3   OH225665   5.892   0.792   6.355
 8571TIP3    H125666   5.969   0.781   6.415
 8571TIP3    H225667   5.933   0.795   6.268
 8572TIP3   OH225668   4.846   0.880   6.834
 8572TIP3    H125669   4.921   0.856   6.894
 8572TIP3    H225670   4.871   0.828   6.756
 8573TIP3   OH225671   5.283   1.080   6.640
 8573TIP3    H125672   5.378   1.059   6.651
 8573TIP3    H225673   5.249   0.996   6.602
 8574TIP3   OH225674   5.547   1.514   6.167
 8574TIP3    H125675   5.509   1.505   6.078
 8574TIP3    H225676   5.501   1.594   6.199
 8575TIP3   OH225677   5.314   1.437   6.951
 8575TIP3    H125678   5.259   1.510   6.986
 8575TIP3    H225679   5.361   1.481   6.877
 8576TIP3   OH225680   5.067   0.792   6.963
 8576TIP3    H125681   5.129   0.857   7.001
 8576TIP3    H225682   5.123   0.753   6.893
 8577TIP3   OH225683   5.150   1.640   7.051
 8577TIP3    H125684   5.125   1.729   7.019
 8577TIP3    H225685   5.068   1.619   7.103
 8578TIP3   OH225686   4.532   1.327   6.290
 8578TIP3    H125687   4.492   1.355   6.206
 8578TIP3    H225688   4.564   1.413   6.325
 8579TIP3   OH225689   5.972   1.844   6.527
 8579TIP3    H125690   5.883   1.834   6.568
 8579TIP3    H225691   5.963   1.931   6.484
 8580TIP3   OH225692   5.669   1.885   6.196
 8580TIP3    H125693   5.721   1.802   6.182
 8580TIP3    H225694   5.733   1.950   6.160
 8581TIP3   OH225695   5.818   1.669   6.122
 8581TIP3    H125696   5.777   1.588   6.088
 8581TIP3    H225697   5.859   1.637   6.205
 8582TIP3   OH225698   6.187   1.752   6.870
 8582TIP3    H125699   6.188   1.669   6.817
 8582TIP3    H225700   6.180   1.821   6.802
 8583TIP3   OH225701   5.490   1.148   6.135
 8583TIP3    H125702   5.411   1.203   6.115
 8583TIP3    H225703   5.536   1.148   6.049
 8584TIP3   OH225704   5.444   0.935   5.850
 8584TIP3    H125705   5.510   0.990   5.895
 8584TIP3    H225706   5.502   0.868   5.808
 8585TIP3   OH225707   6.405   1.396   6.711
 8585TIP3    H125708   6.318   1.440   6.722
 8585TIP3    H225709   6.427   1.419   6.619
 8586TIP3   OH225710   5.844   1.228   6.101
 8586TIP3    H125711   5.788   1.252   6.179
 8586TIP3    H225712   5.928   1.205   6.146
 8587TIP3   OH225713   6.064   1.284   6.992
 8587TIP3    H125714   6.080   1.353   7.059
 8587TIP3    H225715   5.977   1.308   6.958
 8588TIP3   OH225716   5.074   1.223   6.525
 8588TIP3    H125717   5.035   1.164   6.456
 8588TIP3    H225718   5.150   1.170   6.557
 8589TIP3   OH225719   5.203   1.637   6.668
 8589TIP3    H125720   5.187   1.608   6.577
 8589TIP3    H225721   5.291   1.598   6.687
 8590TIP3   OH225722   5.202   1.194   6.882
 8590TIP3    H125723   5.236   1.165   6.794
 8590TIP3    H225724   5.249   1.278   6.897
 8591TIP3   OH225725   5.734   1.835   6.655
 8591TIP3    H125726   5.722   1.915   6.710
 8591TIP3    H225727   5.715   1.762   6.717
 8592TIP3   OH225728   5.350   1.750   7.204
 8592TIP3    H125729   5.286   1.812   7.247
 8592TIP3    H225730   5.287   1.697   7.150
 8593TIP3   OH225731   5.672   1.095   5.931
 8593TIP3    H125732   5.734   1.156   5.978
 8593TIP3    H225733   5.700   1.110   5.838
 8594TIP3   OH225734   5.112   1.308   7.311
 8594TIP3    H125735   5.117   1.399   7.346
 8594TIP3    H225736   5.015   1.295   7.309
 8595TIP3   OH225737   5.428   1.760   6.208
 8595TIP3    H125738   5.512   1.810   6.208
 8595TIP3    H225739   5.369   1.821   6.163
 8596TIP3   OH225740   5.147   1.918   7.283
 8596TIP3    H125741   5.114   1.927   7.192
 8596TIP3    H225742   5.063   1.899   7.332
 8597TIP3   OH225743   4.941   1.069   6.323
 8597TIP3    H125744   4.871   1.115   6.273
 8597TIP3    H225745   4.903   0.981   6.332
 8598TIP3   OH225746   5.998   1.692   5.532
 8598TIP3    H125747   6.006   1.788   5.515
 8598TIP3    H225748   6.091   1.662   5.518
 8599TIP3   OH225749   4.713   1.457   7.235
 8599TIP3    H125750   4.647   1.438   7.165
 8599TIP3    H225751   4.751   1.369   7.253
 8600TIP3   OH225752   4.576   1.644   6.868
 8600TIP3    H125753   4.672   1.642   6.860
 8600TIP3    H225754   4.564   1.724   6.923
 8601TIP3   OH225755   6.437   2.114   6.941
 8601TIP3    H125756   6.437   2.015   6.937
 8601TIP3    H225757   6.345   2.129   6.974
 8602TIP3   OH225758   5.542   1.880   7.062
 8602TIP3    H125759   5.535   1.974   7.092
 8602TIP3    H225760   5.471   1.838   7.115
 8603TIP3   OH225761   5.311   2.007   6.011
 8603TIP3    H125762   5.262   1.990   5.929
 8603TIP3    H225763   5.275   2.093   6.040
 8604TIP3   OH225764   4.745   1.856   6.398
 8604TIP3    H125765   4.791   1.849   6.485
 8604TIP3    H225766   4.697   1.772   6.395
 8605TIP3   OH225767   5.506   1.914   5.647
 8605TIP3    H125768   5.563   1.842   5.611
 8605TIP3    H225769   5.542   1.924   5.738
 8606TIP3   OH225770   5.561   1.962   5.915
 8606TIP3    H125771   5.472   1.971   5.957
 8606TIP3    H225772   5.612   1.926   5.990
 8607TIP3   OH225773   4.923   1.632   7.204
 8607TIP3    H125774   4.971   1.626   7.289
 8607TIP3    H225775   4.847   1.572   7.219
 8608TIP3   OH225776   6.059   1.020   7.089
 8608TIP3    H125777   6.127   0.967   7.042
 8608TIP3    H225778   6.068   1.106   7.046
 8609TIP3   OH225779   5.763   1.118   5.679
 8609TIP3    H125780   5.720   1.104   5.592
 8609TIP3    H225781   5.843   1.167   5.652
 8610TIP3   OH225782   5.265   0.972   7.037
 8610TIP3    H125783   5.211   1.002   7.114
 8610TIP3    H225784   5.250   1.048   6.976
 8611TIP3   OH225785   5.139   0.863   6.542
 8611TIP3    H125786   5.045   0.838   6.554
 8611TIP3    H225787   5.157   0.818   6.456
 8612TIP3   OH225788   5.624   0.955   6.279
 8612TIP3    H125789   5.576   1.025   6.229
 8612TIP3    H225790   5.682   0.917   6.210
 8613TIP3   OH225791   5.770   1.210   7.353
 8613TIP3    H125792   5.763   1.147   7.427
 8613TIP3    H225793   5.865   1.203   7.334
 8614TIP3   OH225794   5.777   0.980   6.516
 8614TIP3    H125795   5.713   1.017   6.452
 8614TIP3    H225796   5.812   0.907   6.460
 8615TIP3   OH225797   5.072   1.016   7.227
 8615TIP3    H125798   5.108   1.066   7.303
 8615TIP3    H225799   5.033   0.938   7.269
 8616TIP3   OH225800   5.152   0.516   5.973
 8616TIP3    H125801   5.129   0.602   6.013
 8616TIP3    H225802   5.075   0.500   5.918
 8617TIP3   OH225803   4.680   0.536   6.332
 8617TIP3    H125804   4.685   0.570   6.240
 8617TIP3    H225805   4.593   0.573   6.356
 8618TIP3   OH225806   5.768   1.214   6.924
 8618TIP3    H125807   5.815   1.148   6.868
 8618TIP3    H225808   5.747   1.157   7.000
 8619TIP3   OH225809   5.442   0.705   6.586
 8619TIP3    H125810   5.373   0.717   6.653
 8619TIP3    H225811   5.516   0.678   6.644
 8620TIP3   OH225812   4.893   0.744   6.598
 8620TIP3    H125813   4.798   0.766   6.581
 8620TIP3    H225814   4.894   0.652   6.573
 8621TIP3   OH225815   5.174   0.719   6.309
 8621TIP3    H125816   5.267   0.738   6.285
 8621TIP3    H225817   5.126   0.735   6.224
 8622TIP3   OH225818   5.038   0.749   6.070
 8622TIP3    H125819   4.963   0.715   6.017
 8622TIP3    H225820   5.080   0.809   6.005
 8623TIP3   OH225821   6.132   2.444   7.025
 8623TIP3    H125822   6.126   2.471   6.931
 8623TIP3    H225823   6.215   2.490   7.051
 8624TIP3   OH225824   5.100   1.564   7.430
 8624TIP3    H125825   5.180   1.593   7.479
 8624TIP3    H225826   5.034   1.574   7.501
 8625TIP3   OH225827   5.543   1.013   6.703
 8625TIP3    H125828   5.617   0.972   6.655
 8625TIP3    H225829   5.546   0.965   6.789
 8626TIP3   OH225830   5.530   0.915   6.975
 8626TIP3    H125831   5.442   0.944   7.005
 8626TIP3    H225832   5.591   0.962   7.035
 8627TIP3   OH225833   5.258   1.297   6.081
 8627TIP3    H125834   5.185   1.233   6.068
 8627TIP3    H225835   5.237   1.331   6.172
 8628TIP3   OH225836   6.164   1.531   6.703
 8628TIP3    H125837   6.183   1.586   6.625
 8628TIP3    H225838   6.079   1.489   6.680
 8629TIP3   OH225839   5.781   0.656   5.882
 8629TIP3    H125840   5.691   0.628   5.910
 8629TIP3    H225841   5.790   0.736   5.939
 8630TIP3   OH225842   5.646   1.614   7.082
 8630TIP3    H125843   5.698   1.606   7.164
 8630TIP3    H225844   5.615   1.706   7.085
 8631TIP3   OH225845   5.785   0.873   6.057
 8631TIP3    H125846   5.881   0.889   6.068
 8631TIP3    H225847   5.754   0.955   6.014
 8632TIP3   OH225848   4.953   1.316   6.754
 8632TIP3    H125849   4.993   1.292   6.667
 8632TIP3    H225850   5.010   1.266   6.815
 8633TIP3   OH225851   5.410   1.448   5.913
 8633TIP3    H125852   5.359   1.532   5.912
 8633TIP3    H225853   5.354   1.392   5.971
 8634TIP3   OH225854   4.838   1.246   7.371
 8634TIP3    H125855   4.874   1.224   7.458
 8634TIP3    H225856   4.772   1.176   7.353
 8635TIP3   OH225857   5.549   1.362   7.405
 8635TIP3    H125858   5.483   1.307   7.358
 8635TIP3    H225859   5.632   1.321   7.372
 8636TIP3   OH225860   5.811   1.887   6.975
 8636TIP3    H125861   5.715   1.882   6.992
 8636TIP3    H225862   5.840   1.937   7.054
 8637TIP3   OH225863   6.226   0.954   5.878
 8637TIP3    H125864   6.172   0.908   5.809
 8637TIP3    H225865   6.216   1.045   5.842
 8638TIP3   OH225866   6.435   1.844   6.941
 8638TIP3    H125867   6.343   1.811   6.948
 8638TIP3    H225868   6.472   1.777   6.880
 8639TIP3   OH225869   5.935   1.769   5.797
 8639TIP3    H125870   5.902   1.701   5.858
 8639TIP3    H225871   5.945   1.722   5.713
 8640TIP3   OH225872   5.924   1.402   6.618
 8640TIP3    H125873   5.831   1.377   6.633
 8640TIP3    H225874   5.959   1.318   6.580
 8641TIP3   OH225875   5.060   1.628   6.386
 8641TIP3    H125876   5.055   1.708   6.330
 8641TIP3    H225877   4.966   1.609   6.400
 8642TIP3   OH225878   4.628   0.926   6.098
 8642TIP3    H125879   4.669   1.013   6.118
 8642TIP3    H225880   4.549   0.930   6.156
 8643TIP3   OH225881   5.181   1.386   6.323
 8643TIP3    H125882   5.151   1.477   6.344
 8643TIP3    H225883   5.150   1.337   6.402
 8644TIP3   OH225884   5.329   1.967   6.850
 8644TIP3    H125885   5.371   2.040   6.801
 8644TIP3    H225886   5.405   1.929   6.896
 8645TIP3   OH225887   4.972   1.866   6.235
 8645TIP3    H125888   4.888   1.875   6.283
 8645TIP3    H225889   5.006   1.958   6.239
 8646TIP3   OH225890   5.707   1.605   6.815
 8646TIP3    H125891   5.693   1.600   6.913
 8646TIP3    H225892   5.794   1.562   6.807
 8647TIP3   OH225893   5.693   1.502   5.696
 8647TIP3    H125894   5.745   1.475   5.775
 8647TIP3    H225895   5.605   1.469   5.720
 8648TIP3   OH225896   5.961   2.132   6.863
 8648TIP3    H125897   5.881   2.076   6.859
 8648TIP3    H225898   5.945   2.195   6.790
 8649TIP3   OH225899   6.027   1.968   5.512
 8649TIP3    H125900   6.064   2.045   5.465
 8649TIP3    H225901   5.946   2.010   5.548
 8650TIP3   OH225902   5.854   1.427   5.907
 8650TIP3    H125903   5.844   1.363   5.980
 8650TIP3    H225904   5.951   1.424   5.896
 8651TIP3   OH225905   4.765   1.828   7.010
 8651TIP3    H125906   4.823   1.763   7.054
 8651TIP3    H225907   4.785   1.909   7.060
 8652TIP3   OH225908   5.050   1.478   5.698
 8652TIP3    H125909   5.063   1.386   5.670
 8652TIP3    H225910   5.029   1.467   5.793
 8653TIP3   OH225911   4.993   1.481   5.971
 8653TIP3    H125912   5.072   1.456   6.020
 8653TIP3    H225913   4.997   1.579   5.978
 8654TIP3   OH225914   4.728   1.171   6.174
 8654TIP3    H125915   4.661   1.218   6.228
 8654TIP3    H225916   4.742   1.238   6.104
 8655TIP3   OH225917   5.265   1.675   5.916
 8655TIP3    H125918   5.178   1.700   5.953
 8655TIP3    H225919   5.279   1.748   5.855
 8656TIP3   OH225920   5.451   0.746   6.317
 8656TIP3    H125921   5.505   0.828   6.312
 8656TIP3    H225922   5.448   0.731   6.414
 8657TIP3   OH225923   5.721   1.047   7.135
 8657TIP3    H125924   5.724   1.108   7.211
 8657TIP3    H225925   5.803   0.996   7.147
 8658TIP3   OH225926   5.012   1.754   5.987
 8658TIP3    H125927   4.982   1.824   5.926
 8658TIP3    H225928   4.996   1.796   6.074
 8659TIP3   OH225929   6.013   1.154   6.511
 8659TIP3    H125930   5.938   1.095   6.530
 8659TIP3    H225931   6.087   1.109   6.557
 8660TIP3   OH225932   4.730   1.372   5.976
 8660TIP3    H125933   4.804   1.435   5.985
 8660TIP3    H225934   4.769   1.313   5.908
 8661TIP3   OH225935   4.655   0.653   6.089
 8661TIP3    H125936   4.665   0.750   6.097
 8661TIP3    H225937   4.570   0.647   6.042
 8662TIP3   OH225938   5.982   2.115   6.452
 8662TIP3    H125939   5.940   2.161   6.376
 8662TIP3    H225940   6.077   2.133   6.432
 8663TIP3   OH225941   4.587   1.593   6.356
 8663TIP3    H125942   4.534   1.624   6.430
 8663TIP3    H225943   4.548   1.640   6.280
 8664TIP3   OH225944   4.757   2.163   7.437
 8664TIP3    H125945   4.840   2.167   7.490
 8664TIP3    H225946   4.741   2.067   7.439
 8665TIP3   OH225947   5.235   2.095   7.477
 8665TIP3    H125948   5.329   2.073   7.481
 8665TIP3    H225949   5.206   2.035   7.405
 8666TIP3   OH225950   5.216   1.678   5.604
 8666TIP3    H125951   5.163   1.603   5.641
 8666TIP3    H225952   5.290   1.629   5.562
 8667TIP3   OH225953   5.866   2.017   7.214
 8667TIP3    H125954   5.870   1.944   7.280
 8667TIP3    H225955   5.942   2.072   7.239
 8668TIP3   OH225956   5.651   1.714   5.522
 8668TIP3    H125957   5.687   1.647   5.583
 8668TIP3    H225958   5.709   1.706   5.444
 8669TIP3   OH225959   4.886   1.544   7.609
 8669TIP3    H125960   4.915   1.451   7.594
 8669TIP3    H225961   4.798   1.546   7.564
 8670TIP3   OH225962   4.864   1.187   5.833
 8670TIP3    H125963   4.925   1.164   5.907
 8670TIP3    H225964   4.929   1.195   5.760
 8671TIP3   OH225965   5.495   1.640   7.407
 8671TIP3    H125966   5.452   1.663   7.322
 8671TIP3    H225967   5.518   1.546   7.394
 8672TIP3   OH225968   5.386   1.396   5.644
 8672TIP3    H125969   5.384   1.406   5.741
 8672TIP3    H225970   5.387   1.298   5.636
 8673TIP3   OH225971   5.964   1.654   6.990
 8673TIP3    H125972   6.050   1.685   6.955
 8673TIP3    H225973   5.908   1.732   6.974
 8674TIP3   OH225974   5.023   1.300   7.603
 8674TIP3    H125975   5.101   1.261   7.560
 8674TIP3    H225976   5.057   1.308   7.694
 8675TIP3   OH225977   5.060   1.105   6.044
 8675TIP3    H125978   5.043   1.066   6.131
 8675TIP3    H225979   5.104   1.033   5.995
 8676TIP3   OH225980   5.345   1.171   7.282
 8676TIP3    H125981   5.264   1.226   7.279
 8676TIP3    H225982   5.395   1.204   7.203
 8677TIP3   OH225983   5.171   0.903   5.890
 8677TIP3    H125984   5.149   0.907   5.795
 8677TIP3    H225985   5.269   0.903   5.885
 8678TIP3   OH225986   5.885   1.567   7.388
 8678TIP3    H125987   5.948   1.542   7.316
 8678TIP3    H225988   5.896   1.490   7.445
 8679TIP3   OH225989   5.991   1.220   5.560
 8679TIP3    H125990   5.970   1.181   5.472
 8679TIP3    H225991   5.958   1.312   5.543
 8680TIP3   OH225992   5.474   0.969   7.399
 8680TIP3    H125993   5.459   0.899   7.335
 8680TIP3    H225994   5.431   1.045   7.354
 8681TIP3   OH225995   5.491   1.276   7.086
 8681TIP3    H125996   5.577   1.287   7.042
 8681TIP3    H225997   5.435   1.341   7.038
 8682TIP3   OH225998   6.059   1.500   7.195
 8682TIP3    H125999   6.029   1.555   7.120
 8682TIP3    H226000   6.147   1.538   7.213
 8683TIP3   OH226001   5.263   1.054   7.604
 8683TIP3    H126002   5.306   1.022   7.685
 8683TIP3    H226003   5.332   1.044   7.538
 8684TIP3   OH226004   5.700   1.020   7.547
 8684TIP3    H126005   5.638   1.054   7.613
 8684TIP3    H226006   5.637   0.982   7.483
 8685TIP3   OH226007   4.983   1.959   5.800
 8685TIP3    H126008   5.078   1.944   5.780
 8685TIP3    H226009   4.958   2.011   5.721
 8686TIP3   OH226010   4.459   1.340   6.010
 8686TIP3    H126011   4.554   1.360   5.996
 8686TIP3    H226012   4.452   1.251   5.969
 8687TIP3   OH226013   4.378   1.949   6.432
 8687TIP3    H126014   4.312   1.889   6.390
 8687TIP3    H226015   4.422   1.887   6.494
 8688TIP3   OH226016   4.511   1.789   6.616
 8688TIP3    H126017   4.496   1.725   6.687
 8688TIP3    H226018   4.564   1.855   6.663
 8689TIP3   OH226019   6.240   2.198   6.418
 8689TIP3    H126020   6.265   2.229   6.507
 8689TIP3    H226021   6.307   2.239   6.362
 8690TIP3   OH226022   6.264   2.221   6.701
 8690TIP3    H126023   6.219   2.134   6.695
 8690TIP3    H226024   6.342   2.196   6.753
 8691TIP3   OH226025   6.288   1.898   7.233
 8691TIP3    H126026   6.217   1.901   7.301
 8691TIP3    H226027   6.307   1.991   7.217
 8692TIP3   OH226028   6.132   1.407   5.887
 8692TIP3    H126029   6.195   1.475   5.857
 8692TIP3    H226030   6.178   1.372   5.967
 8693TIP3   OH226031   6.259   1.274   6.093
 8693TIP3    H126032   6.190   1.238   6.154
 8693TIP3    H226033   6.326   1.309   6.156
 8694TIP3   OH226034   6.322   1.680   6.524
 8694TIP3    H126035   6.375   1.610   6.481
 8694TIP3    H226036   6.317   1.748   6.455
 8695TIP3   OH226037   6.139   1.975   6.709
 8695TIP3    H126038   6.067   2.009   6.765
 8695TIP3    H226039   6.089   1.928   6.639
 8696TIP3   OH226040   6.192   1.185   5.737
 8696TIP3    H126041   6.121   1.191   5.669
 8696TIP3    H226042   6.166   1.261   5.793
 8697TIP3   OH226043   6.073   0.855   5.681
 8697TIP3    H126044   6.018   0.915   5.629
 8697TIP3    H226045   6.028   0.771   5.665
 8698TIP3   OH226046   6.069   1.145   6.243
 8698TIP3    H126047   6.081   1.049   6.238
 8698TIP3    H226048   6.051   1.158   6.339
 8699TIP3   OH226049   4.692   1.205   6.988
 8699TIP3    H126050   4.689   1.170   6.896
 8699TIP3    H226051   4.789   1.212   7.002
 8700TIP3   OH226052   6.326   1.536   7.051
 8700TIP3    H126053   6.395   1.473   7.021
 8700TIP3    H226054   6.375   1.616   7.068
 8701TIP3   OH226055   6.059   0.870   6.096
 8701TIP3    H126056   6.123   0.832   6.160
 8701TIP3    H226057   6.116   0.888   6.019
 8702TIP3   OH226058   6.234   1.035   6.626
 8702TIP3    H126059   6.322   1.049   6.588
 8702TIP3    H226060   6.246   1.077   6.714
 8703TIP3   OH226061   6.284   1.181   6.852
 8703TIP3    H126062   6.211   1.225   6.901
 8703TIP3    H226063   6.336   1.258   6.821
 8704TIP3   OH226064   4.691   0.858   7.064
 8704TIP3    H126065   4.735   0.864   6.977
 8704TIP3    H226066   4.704   0.947   7.099
 8705TIP3   OH226067   5.818   2.070   6.070
 8705TIP3    H126068   5.873   2.062   5.989
 8705TIP3    H226069   5.869   2.133   6.123
 8706TIP3   OH226070   4.911   1.880   7.414
 8706TIP3    H126071   4.817   1.861   7.400
 8706TIP3    H226072   4.916   1.872   7.511
 8707TIP3   OH226073   5.105   1.910   7.000
 8707TIP3    H126074   5.055   1.986   6.963
 8707TIP3    H226075   5.189   1.924   6.953
 8708TIP3   OH226076   5.536   2.147   7.136
 8708TIP3    H126077   5.577   2.148   7.225
 8708TIP3    H226078   5.602   2.200   7.085
 8709TIP3   OH226079   5.718   2.304   7.004
 8709TIP3    H126080   5.787   2.255   6.958
 8709TIP3    H226081   5.772   2.361   7.063
 8710TIP3   OH226082   4.775   2.159   7.033
 8710TIP3    H126083   4.682   2.186   7.012
 8710TIP3    H226084   4.794   2.220   7.106
 8711TIP3   OH226085   5.009   2.141   6.888
 8711TIP3    H126086   4.922   2.152   6.931
 8711TIP3    H226087   4.991   2.173   6.798
 8712TIP3   OH226088   5.436   2.165   6.685
 8712TIP3    H126089   5.365   2.182   6.620
 8712TIP3    H226090   5.447   2.252   6.727
 8713TIP3   OH226091   5.706   2.104   6.739
 8713TIP3    H126092   5.613   2.123   6.718
 8713TIP3    H226093   5.752   2.175   6.692
 8714TIP3   OH226094   5.909   2.293   6.648
 8714TIP3    H126095   5.896   2.378   6.600
 8714TIP3    H226096   5.937   2.234   6.575
 8715TIP3   OH226097   4.686   1.952   6.768
 8715TIP3    H126098   4.711   1.924   6.859
 8715TIP3    H226099   4.759   1.911   6.718
 8716TIP3   OH226100   4.884   1.827   6.632
 8716TIP3    H126101   4.898   1.743   6.682
 8716TIP3    H226102   4.976   1.863   6.630
 8717TIP3   OH226103   5.151   1.916   6.639
 8717TIP3    H126104   5.180   1.824   6.631
 8717TIP3    H226105   5.202   1.941   6.719
 8718TIP3   OH226106   4.473   1.734   6.156
 8718TIP3    H126107   4.386   1.701   6.126
 8718TIP3    H226108   4.466   1.827   6.128
 8719TIP3   OH226109   5.247   1.908   5.744
 8719TIP3    H126110   5.335   1.931   5.707
 8719TIP3    H226111   5.225   1.833   5.684
 8720TIP3   OH226112   5.969   2.037   5.839
 8720TIP3    H126113   5.962   1.939   5.830
 8720TIP3    H226114   5.921   2.066   5.759
 8721TIP3   OH226115   4.551   1.747   5.796
 8721TIP3    H126116   4.557   1.761   5.891
 8721TIP3    H226117   4.637   1.703   5.776
 8722TIP3   OH226118   6.181   2.175   7.032
 8722TIP3    H126119   6.107   2.146   6.975
 8722TIP3    H226120   6.165   2.272   7.032
 8723TIP3   OH226121   7.458   1.573   5.785
 8723TIP3    H126122   7.418   1.654   5.748
 8723TIP3    H226123   7.390   1.507   5.761
 8724TIP3   OH226124   6.773   1.463   6.556
 8724TIP3    H126125   6.819   1.410   6.623
 8724TIP3    H226126   6.841   1.468   6.485
 8725TIP3   OH226127   7.726   1.831   5.845
 8725TIP3    H126128   7.645   1.804   5.890
 8725TIP3    H226129   7.743   1.918   5.888
 8726TIP3   OH226130   6.720   1.855   6.256
 8726TIP3    H126131   6.711   1.757   6.253
 8726TIP3    H226132   6.817   1.864   6.256
 8727TIP3   OH226133   6.420   1.042   6.051
 8727TIP3    H126134   6.382   1.127   6.076
 8727TIP3    H226135   6.350   1.008   5.992
 8728TIP3   OH226136   6.499   1.334   6.223
 8728TIP3    H126137   6.554   1.259   6.253
 8728TIP3    H226138   6.563   1.388   6.174
 8729TIP3   OH226139   7.355   2.312   5.871
 8729TIP3    H126140   7.398   2.238   5.823
 8729TIP3    H226141   7.358   2.281   5.962
 8730TIP3   OH226142   7.231   1.778   6.213
 8730TIP3    H126143   7.261   1.696   6.173
 8730TIP3    H226144   7.304   1.839   6.193
 8731TIP3   OH226145   6.971   0.967   6.250
 8731TIP3    H126146   6.952   1.038   6.186
 8731TIP3    H226147   6.981   0.891   6.189
 8732TIP3   OH226148   6.668   1.140   6.323
 8732TIP3    H126149   6.757   1.141   6.363
 8732TIP3    H226150   6.683   1.080   6.247
 8733TIP3   OH226151   7.058   1.353   6.119
 8733TIP3    H126152   7.155   1.341   6.109
 8733TIP3    H226153   7.025   1.266   6.088
 8734TIP3   OH226154   7.359   1.786   5.642
 8734TIP3    H126155   7.309   1.764   5.561
 8734TIP3    H226156   7.303   1.861   5.676
 8735TIP3   OH226157   7.086   1.706   6.448
 8735TIP3    H126158   7.032   1.787   6.463
 8735TIP3    H226159   7.155   1.738   6.387
 8736TIP3   OH226160   6.915   1.903   6.532
 8736TIP3    H126161   6.893   1.995   6.508
 8736TIP3    H226162   6.847   1.886   6.601
 8737TIP3   OH226163   6.328   1.584   5.777
 8737TIP3    H126164   6.288   1.612   5.693
 8737TIP3    H226165   6.360   1.669   5.812
 8738TIP3   OH226166   7.745   2.065   5.978
 8738TIP3    H126167   7.706   2.074   6.066
 8738TIP3    H226168   7.773   2.158   5.963
 8739TIP3   OH226169   7.467   2.133   5.681
 8739TIP3    H126170   7.525   2.056   5.662
 8739TIP3    H226171   7.527   2.205   5.648
 8740TIP3   OH226172   7.614   1.910   5.599
 8740TIP3    H126173   7.533   1.855   5.605
 8740TIP3    H226174   7.667   1.879   5.674
 8741TIP3   OH226175   7.296   1.413   5.624
 8741TIP3    H126176   7.212   1.460   5.606
 8741TIP3    H226177   7.335   1.405   5.536
 8742TIP3   OH226178   7.238   1.195   5.340
 8742TIP3    H126179   7.306   1.247   5.386
 8742TIP3    H226180   7.296   1.132   5.291
 8743TIP3   OH226181   7.648   1.485   5.610
 8743TIP3    H126182   7.582   1.517   5.676
 8743TIP3    H226183   7.717   1.452   5.670
 8744TIP3   OH226184   6.854   1.493   6.000
 8744TIP3    H126185   6.815   1.431   5.934
 8744TIP3    H226186   6.927   1.439   6.038
 8745TIP3   OH226187   6.986   1.897   6.154
 8745TIP3    H126188   6.974   1.867   6.062
 8745TIP3    H226189   7.071   1.856   6.179
 8746TIP3   OH226190   6.962   1.479   6.351
 8746TIP3    H126191   7.010   1.446   6.272
 8746TIP3    H226192   7.019   1.553   6.381
 8747TIP3   OH226193   7.465   2.068   6.159
 8747TIP3    H126194   7.466   2.166   6.171
 8747TIP3    H226195   7.544   2.045   6.211
 8748TIP3   OH226196   7.145   2.080   6.598
 8748TIP3    H126197   7.106   2.121   6.677
 8748TIP3    H226198   7.101   1.994   6.602
 8749TIP3   OH226199   7.478   1.351   5.416
 8749TIP3    H126200   7.536   1.414   5.462
 8749TIP3    H226201   7.505   1.368   5.322
 8750TIP3   OH226202   7.223   2.015   5.695
 8750TIP3    H126203   7.306   2.068   5.697
 8750TIP3    H226204   7.161   2.077   5.655
 8751TIP3   OH226205   6.931   2.174   6.770
 8751TIP3    H126206   6.884   2.178   6.685
 8751TIP3    H226207   6.859   2.158   6.834
 8752TIP3   OH226208   6.735   1.328   5.810
 8752TIP3    H126209   6.660   1.365   5.759
 8752TIP3    H226210   6.710   1.235   5.819
 8753TIP3   OH226211   7.780   1.943   5.011
 8753TIP3    H126212   7.764   2.039   5.001
 8753TIP3    H226213   7.875   1.939   4.994
 8754TIP3   OH226214   6.510   1.678   6.730
 8754TIP3    H126215   6.441   1.698   6.664
 8754TIP3    H226216   6.510   1.581   6.727
 8755TIP3   OH226217   6.372   1.904   6.347
 8755TIP3    H126218   6.468   1.898   6.340
 8755TIP3    H226219   6.362   1.980   6.408
 8756TIP3   OH226220   7.106   2.263   5.498
 8756TIP3    H126221   7.057   2.249   5.415
 8756TIP3    H226222   7.071   2.349   5.528
 8757TIP3   OH226223   6.541   2.113   5.885
 8757TIP3    H126224   6.587   2.106   5.971
 8757TIP3    H226225   6.494   2.028   5.881
 8758TIP3   OH226226   7.301   2.172   5.136
 8758TIP3    H126227   7.358   2.099   5.101
 8758TIP3    H226228   7.337   2.182   5.226
 8759TIP3   OH226229   7.356   2.218   5.404
 8759TIP3    H126230   7.267   2.226   5.445
 8759TIP3    H226231   7.409   2.190   5.480
 8760TIP3   OH226232   6.719   1.866   6.723
 8760TIP3    H126233   6.731   1.890   6.816
 8760TIP3    H226234   6.645   1.802   6.729
 8761TIP3   OH226235   7.563   1.401   5.161
 8761TIP3    H126236   7.529   1.365   5.076
 8761TIP3    H226237   7.602   1.484   5.130
 8762TIP3   OH226238   6.925   1.125   6.028
 8762TIP3    H126239   6.835   1.089   6.035
 8762TIP3    H226240   6.952   1.087   5.941
 8763TIP3   OH226241   7.410   1.183   5.741
 8763TIP3    H126242   7.372   1.266   5.705
 8763TIP3    H226243   7.482   1.162   5.679
 8764TIP3   OH226244   6.959   0.774   5.431
 8764TIP3    H126245   6.918   0.819   5.507
 8764TIP3    H226246   6.885   0.723   5.394
 8765TIP3   OH226247   6.434   0.774   5.812
 8765TIP3    H126248   6.465   0.824   5.733
 8765TIP3    H226249   6.376   0.842   5.851
 8766TIP3   OH226250   6.684   0.996   6.084
 8766TIP3    H126251   6.590   1.017   6.064
 8766TIP3    H226252   6.682   0.899   6.078
 8767TIP3   OH226253   6.970   1.008   5.788
 8767TIP3    H126254   7.063   0.992   5.763
 8767TIP3    H226255   6.921   1.002   5.704
 8768TIP3   OH226256   6.820   1.012   5.554
 8768TIP3    H126257   6.749   0.978   5.496
 8768TIP3    H226258   6.872   1.065   5.490
 8769TIP3   OH226259   7.057   1.553   5.570
 8769TIP3    H126260   6.984   1.488   5.557
 8769TIP3    H226261   7.036   1.587   5.661
 8770TIP3   OH226262   7.582   0.893   5.395
 8770TIP3    H126263   7.486   0.881   5.408
 8770TIP3    H226264   7.594   0.982   5.433
 8771TIP3   OH226265   7.602   1.135   5.533
 8771TIP3    H126266   7.692   1.169   5.541
 8771TIP3    H226267   7.556   1.209   5.488
 8772TIP3   OH226268   6.733   1.577   6.229
 8772TIP3    H126269   6.763   1.555   6.138
 8772TIP3    H226270   6.811   1.547   6.280
 8773TIP3   OH226271   7.205   1.704   5.400
 8773TIP3    H126272   7.154   1.789   5.398
 8773TIP3    H226273   7.148   1.649   5.457
 8774TIP3   OH226274   7.717   2.023   5.279
 8774TIP3    H126275   7.675   1.965   5.343
 8774TIP3    H226276   7.725   1.968   5.199
 8775TIP3   OH226277   6.855   1.883   5.870
 8775TIP3    H126278   6.849   1.965   5.816
 8775TIP3    H226279   6.762   1.865   5.888
 8776TIP3   OH226280   6.423   1.182   5.584
 8776TIP3    H126281   6.465   1.268   5.604
 8776TIP3    H226282   6.344   1.186   5.642
 8777TIP3   OH226283   6.987   1.647   5.812
 8777TIP3    H126284   6.952   1.737   5.830
 8777TIP3    H226285   6.944   1.596   5.884
 8778TIP3   OH226286   7.105   2.233   6.332
 8778TIP3    H126287   7.164   2.295   6.283
 8778TIP3    H226288   7.165   2.195   6.398
 8779TIP3   OH226289   6.769   2.122   5.722
 8779TIP3    H126290   6.684   2.131   5.770
 8779TIP3    H226291   6.802   2.215   5.726
 8780TIP3   OH226292   7.478   1.756   5.188
 8780TIP3    H126293   7.526   1.721   5.266
 8780TIP3    H226294   7.387   1.729   5.209
 8781TIP3   OH226295   7.772   2.222   5.013
 8781TIP3    H126296   7.822   2.305   5.005
 8781TIP3    H226297   7.685   2.260   5.036
 8782TIP3   OH226298   7.632   1.662   5.395
 8782TIP3    H126299   7.629   1.606   5.475
 8782TIP3    H226300   7.718   1.703   5.403
 8783TIP3   OH226301   6.556   2.088   6.493
 8783TIP3    H126302   6.618   2.020   6.525
 8783TIP3    H226303   6.587   2.166   6.540
 8784TIP3   OH226304   6.848   1.731   5.184
 8784TIP3    H126305   6.859   1.638   5.159
 8784TIP3    H226306   6.825   1.724   5.278
 8785TIP3   OH226307   6.790   1.739   5.455
 8785TIP3    H126308   6.866   1.711   5.507
 8785TIP3    H226309   6.793   1.837   5.464
 8786TIP3   OH226310   6.522   1.427   5.660
 8786TIP3    H126311   6.456   1.474   5.715
 8786TIP3    H226312   6.536   1.494   5.590
 8787TIP3   OH226313   7.062   1.932   5.402
 8787TIP3    H126314   6.974   1.955   5.439
 8787TIP3    H226315   7.077   2.010   5.347
 8788TIP3   OH226316   7.247   0.974   5.796
 8788TIP3    H126317   7.306   1.049   5.770
 8788TIP3    H226318   7.265   0.970   5.890
 8789TIP3   OH226319   6.809   2.010   5.475
 8789TIP3    H126320   6.779   2.081   5.413
 8789TIP3    H226321   6.793   2.052   5.562
 8790TIP3   OH226322   6.526   1.629   5.462
 8790TIP3    H126323   6.600   1.693   5.471
 8790TIP3    H226324   6.566   1.569   5.396
 8791TIP3   OH226325   6.455   0.908   5.580
 8791TIP3    H126326   6.477   1.003   5.582
 8791TIP3    H226327   6.365   0.912   5.545
 8792TIP3   OH226328   7.771   2.357   5.938
 8792TIP3    H126329   7.735   2.410   5.864
 8792TIP3    H226330   7.866   2.374   5.931
 8793TIP3   OH226331   6.385   1.850   5.843
 8793TIP3    H126332   6.331   1.881   5.918
 8793TIP3    H226333   6.344   1.898   5.767
 8794TIP3   OH226334   6.551   2.399   6.909
 8794TIP3    H126335   6.637   2.403   6.957
 8794TIP3    H226336   6.533   2.304   6.911
 8795TIP3   OH226337   7.010   1.933   5.089
 8795TIP3    H126338   6.957   1.860   5.128
 8795TIP3    H226339   7.087   1.883   5.053
 8796TIP3   OH226340   7.443   1.972   5.015
 8796TIP3    H126341   7.482   1.901   5.070
 8796TIP3    H226342   7.493   1.965   4.931
 8797TIP3   OH226343   6.661   1.444   5.320
 8797TIP3    H126344   6.720   1.418   5.394
 8797TIP3    H226345   6.726   1.451   5.248
 8798TIP3   OH226346   7.182   1.653   5.129
 8798TIP3    H126347   7.178   1.662   5.226
 8798TIP3    H226348   7.183   1.555   5.120
 8799TIP3   OH226349   6.860   1.361   5.533
 8799TIP3    H126350   6.839   1.320   5.618
 8799TIP3    H226351   6.901   1.287   5.483
 8800TIP3   OH226352   6.966   1.159   5.377
 8800TIP3    H126353   6.945   1.162   5.281
 8800TIP3    H226354   7.064   1.158   5.373
 8801TIP3   OH226355   6.779   2.214   5.286
 8801TIP3    H126356   6.874   2.200   5.266
 8801TIP3    H226357   6.753   2.267   5.209
 8802TIP3   OH226358   6.255   1.596   5.496
 8802TIP3    H126359   6.351   1.616   5.482
 8802TIP3    H226360   6.248   1.507   5.455
 8803TIP3   OH226361   6.174   2.205   5.919
 8803TIP3    H126362   6.108   2.145   5.878
 8803TIP3    H226363   6.218   2.143   5.982
 8804TIP3   OH226364   6.307   2.046   6.103
 8804TIP3    H126365   6.294   1.981   6.175
 8804TIP3    H226366   6.360   2.112   6.150
 8805TIP3   OH226367   8.022   2.495   5.880
 8805TIP3    H126368   8.013   2.588   5.909
 8805TIP3    H226369   8.028   2.502   5.784
 8806TIP3   OH226370   6.500   1.473   6.467
 8806TIP3    H126371   6.499   1.433   6.378
 8806TIP3    H226372   6.596   1.480   6.485
 8807TIP3   OH226373   6.489   1.109   6.546
 8807TIP3    H126374   6.545   1.123   6.468
 8807TIP3    H226375   6.495   1.194   6.592
 8808TIP3   OH226376   7.607   2.324   5.559
 8808TIP3    H126377   7.663   2.323   5.479
 8808TIP3    H226378   7.654   2.388   5.617
 8809TIP3   OH226379   6.720   2.116   6.951
 8809TIP3    H126380   6.624   2.101   6.951
 8809TIP3    H226381   6.747   2.077   7.036
 8810TIP3   OH226382   6.874   2.169   6.485
 8810TIP3    H126383   6.842   2.252   6.443
 8810TIP3    H226384   6.967   2.173   6.454
 8811TIP3   OH226385   6.569   2.417   6.516
 8811TIP3    H126386   6.477   2.446   6.496
 8811TIP3    H226387   6.587   2.472   6.594
 8812TIP3   OH226388   6.805   2.406   6.374
 8812TIP3    H126389   6.716   2.414   6.415
 8812TIP3    H226390   6.787   2.434   6.282
 8813TIP3   OH226391   7.226   2.429   6.169
 8813TIP3    H126392   7.155   2.446   6.105
 8813TIP3    H226393   7.240   2.517   6.209
 8814TIP3   OH226394   7.491   2.335   6.197
 8814TIP3    H126395   7.410   2.387   6.185
 8814TIP3    H226396   7.560   2.404   6.184
 8815TIP3   OH226397   7.647   2.545   6.120
 8815TIP3    H126398   7.679   2.634   6.097
 8815TIP3    H226399   7.705   2.487   6.068
 8816TIP3   OH226400   6.481   2.210   6.255
 8816TIP3    H126401   6.506   2.181   6.345
 8816TIP3    H226402   6.554   2.169   6.204
 8817TIP3   OH226403   6.679   2.085   6.119
 8817TIP3    H126404   6.692   2.001   6.168
 8817TIP3    H226405   6.771   2.120   6.117
 8818TIP3   OH226406   6.943   2.174   6.122
 8818TIP3    H126407   6.971   2.081   6.119
 8818TIP3    H226408   6.993   2.203   6.201
 8819TIP3   OH226409   6.270   1.991   5.643
 8819TIP3    H126410   6.183   1.958   5.612
 8819TIP3    H226411   6.262   2.084   5.615
 8820TIP3   OH226412   7.043   2.163   5.232
 8820TIP3    H126413   7.131   2.188   5.194
 8820TIP3    H226414   7.021   2.089   5.171
 8821TIP3   OH226415   7.746   2.289   5.324
 8821TIP3    H126416   7.738   2.192   5.311
 8821TIP3    H226417   7.699   2.323   5.246
 8822TIP3   OH226418   6.346   2.004   5.283
 8822TIP3    H126419   6.352   2.018   5.379
 8822TIP3    H226420   6.433   1.960   5.264
 8823TIP3   OH226421   7.938   2.463   5.405
 8823TIP3    H126422   7.878   2.388   5.383
 8823TIP3    H226423   7.978   2.437   5.490
 8824TIP3   OH226424   1.705   2.600   6.960
 8824TIP3    H126425   1.673   2.689   6.936
 8824TIP3    H226426   1.631   2.546   6.928
 8825TIP3   OH226427   1.948   2.905   7.032
 8825TIP3    H126428   1.946   2.828   7.092
 8825TIP3    H226429   1.995   2.970   7.086
 8826TIP3   OH226430   1.608   3.362   7.046
 8826TIP3    H126431   1.644   3.291   6.989
 8826TIP3    H226432   1.566   3.312   7.116
 8827TIP3   OH226433   2.451   2.116   7.335
 8827TIP3    H126434   2.479   2.189   7.391
 8827TIP3    H226435   2.509   2.128   7.258
 8828TIP3   OH226436   1.958   2.064   7.018
 8828TIP3    H126437   2.027   2.056   7.088
 8828TIP3    H226438   2.010   2.105   6.946
 8829TIP3   OH226439   1.590   2.817   6.830
 8829TIP3    H126440   1.552   2.805   6.742
 8829TIP3    H226441   1.543   2.898   6.860
 8830TIP3   OH226442   2.173   2.078   7.201
 8830TIP3    H126443   2.259   2.039   7.224
 8830TIP3    H226444   2.194   2.173   7.208
 8831TIP3   OH226445   0.595   2.625   6.950
 8831TIP3    H126446   0.546   2.649   6.869
 8831TIP3    H226447   0.613   2.712   6.990
 8832TIP3   OH226448   2.027   3.148   7.204
 8832TIP3    H126449   1.944   3.140   7.255
 8832TIP3    H226450   2.012   3.231   7.153
 8833TIP3   OH226451   1.716   3.184   6.865
 8833TIP3    H126452   1.766   3.101   6.848
 8833TIP3    H226453   1.780   3.249   6.826
 8834TIP3   OH226454   1.861   2.969   6.783
 8834TIP3    H126455   1.823   2.887   6.749
 8834TIP3    H226456   1.899   2.939   6.869
 8835TIP3   OH226457   2.278   3.068   7.539
 8835TIP3    H126458   2.260   2.999   7.472
 8835TIP3    H226459   2.262   3.149   7.486
 8836TIP3   OH226460   1.536   2.450   6.799
 8836TIP3    H126461   1.456   2.501   6.778
 8836TIP3    H226462   1.581   2.446   6.713
 8837TIP3   OH226463   1.496   2.239   6.507
 8837TIP3    H126464   1.563   2.290   6.556
 8837TIP3    H226465   1.553   2.175   6.459
 8838TIP3   OH226466   2.463   2.666   7.343
 8838TIP3    H126467   2.380   2.706   7.375
 8838TIP3    H226468   2.483   2.722   7.265
 8839TIP3   OH226469   1.886   2.533   6.766
 8839TIP3    H126470   1.831   2.555   6.846
 8839TIP3    H226471   1.970   2.508   6.809
 8840TIP3   OH226472   1.145   2.503   7.176
 8840TIP3    H126473   1.084   2.465   7.109
 8840TIP3    H226474   1.212   2.433   7.181
 8841TIP3   OH226475   1.794   3.141   7.367
 8841TIP3    H126476   1.745   3.223   7.354
 8841TIP3    H226477   1.729   3.072   7.347
 8842TIP3   OH226478   1.722   2.389   6.596
 8842TIP3    H126479   1.782   2.451   6.645
 8842TIP3    H226480   1.749   2.408   6.503
 8843TIP3   OH226481   1.472   3.065   6.871
 8843TIP3    H126482   1.557   3.113   6.868
 8843TIP3    H226483   1.412   3.125   6.825
 8844TIP3   OH226484   2.241   1.622   6.647
 8844TIP3    H126485   2.159   1.648   6.694
 8844TIP3    H226486   2.258   1.704   6.596
 8845TIP3   OH226487   0.994   2.375   6.983
 8845TIP3    H126488   0.917   2.407   6.932
 8845TIP3    H226489   0.965   2.286   7.008
 8846TIP3   OH226490   2.042   2.992   6.195
 8846TIP3    H126491   2.050   3.089   6.179
 8846TIP3    H226492   2.135   2.963   6.181
 8847TIP3   OH226493   2.480   3.389   7.579
 8847TIP3    H126494   2.483   3.300   7.543
 8847TIP3    H226495   2.396   3.382   7.631
 8848TIP3   OH226496   1.357   3.309   6.676
 8848TIP3    H126497   1.307   3.293   6.594
 8848TIP3    H226498   1.320   3.394   6.706
 8849TIP3   OH226499   0.803   3.139   7.038
 8849TIP3    H126500   0.805   3.149   7.135
 8849TIP3    H226501   0.756   3.054   7.029
 8850TIP3   OH226502   1.551   3.214   6.310
 8850TIP3    H126503   1.609   3.143   6.275
 8850TIP3    H226504   1.586   3.226   6.400
 8851TIP3   OH226505   1.606   3.264   6.577
 8851TIP3    H126506   1.517   3.273   6.620
 8851TIP3    H226507   1.658   3.227   6.650
 8852TIP3   OH226508   1.804   2.426   6.342
 8852TIP3    H126509   1.764   2.408   6.254
 8852TIP3    H226510   1.888   2.467   6.316
 8853TIP3   OH226511   1.517   1.803   6.645
 8853TIP3    H126512   1.480   1.796   6.736
 8853TIP3    H226513   1.473   1.725   6.605
 8854TIP3   OH226514   1.671   2.245   6.924
 8854TIP3    H126515   1.622   2.319   6.882
 8854TIP3    H226516   1.728   2.214   6.851
 8855TIP3   OH226517   1.832   2.288   7.142
 8855TIP3    H126518   1.765   2.298   7.071
 8855TIP3    H226519   1.865   2.200   7.121
 8856TIP3   OH226520   1.174   1.785   6.605
 8856TIP3    H126521   1.157   1.779   6.701
 8856TIP3    H226522   1.100   1.843   6.577
 8857TIP3   OH226523   1.211   2.015   6.957
 8857TIP3    H126524   1.296   2.057   6.938
 8857TIP3    H226525   1.153   2.051   6.886
 8858TIP3   OH226526   1.057   2.095   6.750
 8858TIP3    H126527   0.980   2.047   6.716
 8858TIP3    H226528   1.105   2.113   6.667
 8859TIP3   OH226529   2.271   3.732   7.639
 8859TIP3    H126530   2.251   3.735   7.544
 8859TIP3    H226531   2.286   3.827   7.656
 8860TIP3   OH226532   1.303   2.599   6.743
 8860TIP3    H126533   1.232   2.532   6.732
 8860TIP3    H226534   1.281   2.634   6.833
 8861TIP3   OH226535   2.226   2.839   7.382
 8861TIP3    H126536   2.243   2.883   7.296
 8861TIP3    H226537   2.135   2.805   7.370
 8862TIP3   OH226538   1.764   1.907   6.618
 8862TIP3    H126539   1.668   1.884   6.625
 8862TIP3    H226540   1.766   2.002   6.640
 8863TIP3   OH226541   1.832   2.161   6.717
 8863TIP3    H126542   1.928   2.168   6.732
 8863TIP3    H226543   1.812   2.242   6.665
 8864TIP3   OH226544   1.453   2.749   6.572
 8864TIP3    H126545   1.403   2.833   6.574
 8864TIP3    H226546   1.398   2.693   6.631
 8865TIP3   OH226547   2.271   2.255   6.548
 8865TIP3    H126548   2.210   2.212   6.484
 8865TIP3    H226549   2.267   2.346   6.510
 8866TIP3   OH226550   1.979   3.070   6.461
 8866TIP3    H126551   1.948   3.002   6.522
 8866TIP3    H226552   1.990   3.022   6.377
 8867TIP3   OH226553   1.977   2.719   7.228
 8867TIP3    H126554   1.968   2.704   7.324
 8867TIP3    H226555   1.990   2.628   7.194
 8868TIP3   OH226556   1.086   2.937   7.052
 8868TIP3    H126557   1.099   3.015   6.995
 8868TIP3    H226558   0.997   2.911   7.028
 8869TIP3   OH226559   0.647   2.236   6.757
 8869TIP3    H126560   0.715   2.305   6.774
 8869TIP3    H226561   0.574   2.271   6.810
 8870TIP3   OH226562   1.227   2.696   6.985
 8870TIP3    H126563   1.200   2.784   7.018
 8870TIP3    H226564   1.207   2.639   7.061
 8871TIP3   OH226565   1.033   3.167   6.891
 8871TIP3    H126566   0.947   3.172   6.938
 8871TIP3    H226567   1.063   3.260   6.897
 8872TIP3   OH226568   1.738   2.803   6.361
 8872TIP3    H126569   1.792   2.776   6.439
 8872TIP3    H226570   1.651   2.769   6.386
 8873TIP3   OH226571   1.981   3.416   7.507
 8873TIP3    H126572   1.901   3.381   7.464
 8873TIP3    H226573   1.997   3.495   7.450
 8874TIP3   OH226574   2.070   3.269   6.176
 8874TIP3    H126575   2.105   3.343   6.124
 8874TIP3    H226576   1.990   3.311   6.214
 8875TIP3   OH226577   1.898   2.730   6.572
 8875TIP3    H126578   1.887   2.665   6.644
 8875TIP3    H226579   1.996   2.725   6.561
 8876TIP3   OH226580   1.095   2.776   6.361
 8876TIP3    H126581   1.108   2.682   6.336
 8876TIP3    H226582   1.073   2.767   6.456
 8877TIP3   OH226583   1.039   2.782   6.633
 8877TIP3    H126584   1.117   2.754   6.682
 8877TIP3    H226585   1.044   2.880   6.641
 8878TIP3   OH226586   0.780   2.466   6.829
 8878TIP3    H126587   0.716   2.514   6.887
 8878TIP3    H226588   0.797   2.535   6.763
 8879TIP3   OH226589   1.822   1.851   6.890
 8879TIP3    H126590   1.803   1.877   6.798
 8879TIP3    H226591   1.860   1.934   6.927
 8880TIP3   OH226592   1.310   2.978   6.579
 8880TIP3    H126593   1.222   3.000   6.614
 8880TIP3    H226594   1.325   3.055   6.522
 8881TIP3   OH226595   1.500   2.041   6.984
 8881TIP3    H126596   1.563   2.110   6.953
 8881TIP3    H226597   1.474   2.080   7.069
 8882TIP3   OH226598   1.655   1.758   7.083
 8882TIP3    H126599   1.684   1.819   7.153
 8882TIP3    H226600   1.707   1.793   7.007
 8883TIP3   OH226601   1.057   3.053   6.646
 8883TIP3    H126602   1.028   3.125   6.586
 8883TIP3    H226603   1.047   3.097   6.734
 8884TIP3   OH226604   1.153   1.762   6.879
 8884TIP3    H126605   1.156   1.852   6.919
 8884TIP3    H226606   1.245   1.736   6.893
 8885TIP3   OH226607   2.045   2.461   7.156
 8885TIP3    H126608   1.969   2.399   7.173
 8885TIP3    H226609   2.119   2.417   7.204
 8886TIP3   OH226610   0.781   2.677   6.634
 8886TIP3    H126611   0.858   2.735   6.643
 8886TIP3    H226612   0.818   2.614   6.569
 8887TIP3   OH226613   0.753   1.977   6.763
 8887TIP3    H126614   0.707   2.062   6.773
 8887TIP3    H226615   0.683   1.911   6.759
 8888TIP3   OH226616   2.026   3.414   7.113
 8888TIP3    H126617   1.984   3.461   7.038
 8888TIP3    H226618   2.121   3.432   7.094
 8889TIP3   OH226619   0.637   2.911   7.012
 8889TIP3    H126620   0.565   2.941   7.069
 8889TIP3    H226621   0.605   2.943   6.925
 8890TIP3   OH226622   1.258   2.976   6.266
 8890TIP3    H126623   1.204   2.904   6.306
 8890TIP3    H226624   1.335   2.926   6.234
 8891TIP3   OH226625   1.694   3.014   6.185
 8891TIP3    H126626   1.730   2.947   6.247
 8891TIP3    H226627   1.754   3.007   6.108
 8892TIP3   OH226628   0.909   2.486   6.497
 8892TIP3    H126629   0.967   2.457   6.570
 8892TIP3    H226630   0.976   2.494   6.425
 8893TIP3   OH226631   1.429   2.697   6.303
 8893TIP3    H126632   1.428   2.708   6.400
 8893TIP3    H226633   1.430   2.599   6.295
 8894TIP3   OH226634   1.108   2.405   6.707
 8894TIP3    H126635   1.082   2.365   6.792
 8894TIP3    H226636   1.148   2.328   6.661
 8895TIP3   OH226637   1.220   2.204   6.552
 8895TIP3    H126638   1.193   2.207   6.458
 8895TIP3    H226639   1.317   2.202   6.544
 8896TIP3   OH226640   2.033   2.523   6.224
 8896TIP3    H126641   2.014   2.480   6.138
 8896TIP3    H226642   2.000   2.613   6.205
 8897TIP3   OH226643   1.027   3.258   6.463
 8897TIP3    H126644   1.122   3.246   6.442
 8897TIP3    H226645   1.001   3.311   6.385
 8898TIP3   OH226646   0.515   2.633   6.678
 8898TIP3    H126647   0.609   2.653   6.661
 8898TIP3    H226648   0.504   2.547   6.633
 8899TIP3   OH226649   0.437   3.236   7.103
 8899TIP3    H126650   0.369   3.196   7.048
 8899TIP3    H226651   0.399   3.226   7.193
 8900TIP3   OH226652   2.283   3.499   7.078
 8900TIP3    H126653   2.307   3.528   7.168
 8900TIP3    H226654   2.351   3.541   7.024
 8901TIP3   OH226655   2.305   3.532   7.355
 8901TIP3    H126656   2.268   3.440   7.358
 8901TIP3    H226657   2.375   3.523   7.421
 8902TIP3   OH226658   2.176   2.709   6.552
 8902TIP3    H126659   2.241   2.776   6.522
 8902TIP3    H226660   2.221   2.672   6.631
 8903TIP3   OH226661   2.303   2.576   6.756
 8903TIP3    H126662   2.235   2.535   6.813
 8903TIP3    H226663   2.368   2.612   6.820
 8904TIP3   OH226664   2.361   2.978   7.184
 8904TIP3    H126665   2.419   2.911   7.142
 8904TIP3    H226666   2.358   3.047   7.115
 8905TIP3   OH226667   2.195   3.283   7.384
 8905TIP3    H126668   2.122   3.316   7.441
 8905TIP3    H226669   2.146   3.234   7.315
 8906TIP3   OH226670   2.238   2.487   6.401
 8906TIP3    H126671   2.166   2.488   6.334
 8906TIP3    H226672   2.210   2.562   6.457
 8907TIP3   OH226673   2.112   2.156   6.351
 8907TIP3    H126674   2.061   2.191   6.277
 8907TIP3    H226675   2.091   2.061   6.344
 8908TIP3   OH226676   2.113   2.438   6.894
 8908TIP3    H126677   2.116   2.341   6.887
 8908TIP3    H226678   2.092   2.451   6.989
 8909TIP3   OH226679   2.053   1.890   6.332
 8909TIP3    H126680   2.118   1.856   6.397
 8909TIP3    H226681   1.973   1.838   6.350
 8910TIP3   OH226682   2.112   2.155   6.793
 8910TIP3    H126683   2.152   2.066   6.806
 8910TIP3    H226684   2.168   2.188   6.721
 8911TIP3   OH226685   2.269   2.344   7.260
 8911TIP3    H126686   2.364   2.366   7.250
 8911TIP3    H226687   2.261   2.342   7.357
 8912TIP3   OH226688   2.221   1.904   6.832
 8912TIP3    H126689   2.266   1.885   6.917
 8912TIP3    H226690   2.157   1.830   6.828
 8913TIP3   OH226691   2.296   1.830   6.474
 8913TIP3    H126692   2.334   1.765   6.411
 8913TIP3    H226693   2.360   1.903   6.469
 8914TIP3   OH226694   1.865   3.369   6.735
 8914TIP3    H126695   1.918   3.361   6.653
 8914TIP3    H226696   1.914   3.436   6.785
 8915TIP3   OH226697   1.494   3.533   7.311
 8915TIP3    H126698   1.429   3.510   7.242
 8915TIP3    H226699   1.466   3.623   7.333
 8916TIP3   OH226700   1.732   3.427   7.385
 8916TIP3    H126701   1.649   3.468   7.350
 8916TIP3    H226702   1.797   3.487   7.344
 8917TIP3   OH226703   1.940   3.593   7.301
 8917TIP3    H126704   1.929   3.680   7.257
 8917TIP3    H226705   1.973   3.538   7.227
 8918TIP3   OH226706   1.210   3.238   7.206
 8918TIP3    H126707   1.188   3.146   7.190
 8918TIP3    H226708   1.200   3.244   7.302
 8919TIP3   OH226709   2.294   1.764   7.285
 8919TIP3    H126710   2.339   1.804   7.208
 8919TIP3    H226711   2.214   1.733   7.241
 8920TIP3   OH226712   2.388   1.859   7.049
 8920TIP3    H126713   2.456   1.804   7.005
 8920TIP3    H226714   2.423   1.949   7.029
 8921TIP3   OH226715   2.037   1.696   6.820
 8921TIP3    H126716   1.955   1.744   6.843
 8921TIP3    H226717   2.020   1.610   6.866
 8922TIP3   OH226718   0.498   3.033   6.814
 8922TIP3    H126719   0.448   2.984   6.748
 8922TIP3    H226720   0.491   3.125   6.780
 8923TIP3   OH226721   0.920   1.634   6.770
 8923TIP3    H126722   0.983   1.571   6.729
 8923TIP3    H226723   0.980   1.678   6.834
 8924TIP3   OH226724   1.436   1.784   6.908
 8924TIP3    H126725   1.500   1.752   6.974
 8924TIP3    H226726   1.445   1.880   6.925
 8925TIP3   OH226727   1.292   3.207   6.409
 8925TIP3    H126728   1.379   3.232   6.371
 8925TIP3    H226729   1.270   3.134   6.347
 8926TIP3   OH226730   2.014   3.338   6.503
 8926TIP3    H126731   2.007   3.240   6.494
 8926TIP3    H226732   1.966   3.367   6.423
 8927TIP3   OH226733   0.601   3.050   6.464
 8927TIP3    H126734   0.618   3.080   6.554
 8927TIP3    H226735   0.685   3.003   6.442
 8928TIP3   OH226736   3.505   2.854   6.446
 8928TIP3    H126737   3.472   2.944   6.425
 8928TIP3    H226738   3.429   2.801   6.416
 8929TIP3   OH226739   3.503   2.854   6.842
 8929TIP3    H126740   3.543   2.834   6.929
 8929TIP3    H226741   3.462   2.769   6.820
 8930TIP3   OH226742   2.798   2.741   7.190
 8930TIP3    H126743   2.824   2.673   7.255
 8930TIP3    H226744   2.870   2.804   7.202
 8931TIP3   OH226745   3.751   3.159   6.521
 8931TIP3    H126746   3.733   3.091   6.588
 8931TIP3    H226747   3.783   3.233   6.575
 8932TIP3   OH226748   2.777   3.158   6.917
 8932TIP3    H126749   2.768   3.060   6.918
 8932TIP3    H226750   2.874   3.166   6.913
 8933TIP3   OH226751   2.481   2.355   6.700
 8933TIP3    H126752   2.434   2.437   6.724
 8933TIP3    H226753   2.409   2.307   6.654
 8934TIP3   OH226754   2.539   2.642   6.882
 8934TIP3    H126755   2.589   2.565   6.918
 8934TIP3    H226756   2.601   2.680   6.819
 8935TIP3   OH226757   3.405   3.618   6.538
 8935TIP3    H126758   3.442   3.546   6.483
 8935TIP3    H226759   3.389   3.572   6.622
 8936TIP3   OH226760   3.300   3.079   6.883
 8936TIP3    H126761   3.342   3.002   6.843
 8936TIP3    H226762   3.381   3.128   6.910
 8937TIP3   OH226763   4.318   2.396   6.885
 8937TIP3    H126764   4.346   2.478   6.930
 8937TIP3    H226765   4.339   2.416   6.793
 8938TIP3   OH226766   3.713   2.575   6.910
 8938TIP3    H126767   3.757   2.491   6.931
 8938TIP3    H226768   3.680   2.557   6.820
 8939TIP3   OH226769   3.059   2.237   6.876
 8939TIP3    H126770   3.038   2.310   6.814
 8939TIP3    H226771   3.009   2.164   6.834
 8940TIP3   OH226772   3.751   2.331   6.497
 8940TIP3    H126773   3.822   2.318   6.565
 8940TIP3    H226774   3.805   2.365   6.423
 8941TIP3   OH226775   2.685   2.438   6.991
 8941TIP3    H126776   2.769   2.421   7.037
 8941TIP3    H226777   2.699   2.383   6.911
 8942TIP3   OH226778   3.125   2.636   6.783
 8942TIP3    H126779   3.219   2.613   6.794
 8942TIP3    H226780   3.087   2.552   6.750
 8943TIP3   OH226781   4.386   2.603   7.059
 8943TIP3    H126782   4.304   2.654   7.043
 8943TIP3    H226783   4.429   2.657   7.129
 8944TIP3   OH226784   3.030   2.219   7.321
 8944TIP3    H126785   2.985   2.264   7.247
 8944TIP3    H226786   2.956   2.218   7.385
 8945TIP3   OH226787   3.391   3.073   6.316
 8945TIP3    H126788   3.349   3.061   6.229
 8945TIP3    H226789   3.344   3.153   6.348
 8946TIP3   OH226790   3.154   2.999   7.103
 8946TIP3    H126791   3.096   3.070   7.138
 8946TIP3    H226792   3.198   3.045   7.028
 8947TIP3   OH226793   3.950   2.339   6.682
 8947TIP3    H126794   3.930   2.300   6.768
 8947TIP3    H226795   4.001   2.419   6.708
 8948TIP3   OH226796   2.923   2.335   7.096
 8948TIP3    H126797   2.982   2.410   7.119
 8948TIP3    H226798   2.972   2.297   7.020
 8949TIP3   OH226799   2.983   3.198   7.208
 8949TIP3    H126800   2.961   3.286   7.173
 8949TIP3    H226801   2.899   3.178   7.254
 8950TIP3   OH226802   2.373   2.885   6.441
 8950TIP3    H126803   2.332   2.913   6.357
 8950TIP3    H226804   2.405   2.971   6.475
 8951TIP3   OH226805   3.813   3.403   6.679
 8951TIP3    H126806   3.724   3.392   6.719
 8951TIP3    H226807   3.803   3.490   6.635
 8952TIP3   OH226808   4.110   2.286   7.043
 8952TIP3    H126809   4.025   2.319   7.010
 8952TIP3    H226810   4.174   2.324   6.979
 8953TIP3   OH226811   3.401   1.931   7.032
 8953TIP3    H126812   3.382   1.837   7.053
 8953TIP3    H226813   3.323   1.975   7.072
 8954TIP3   OH226814   3.511   3.443   6.348
 8954TIP3    H126815   3.562   3.360   6.333
 8954TIP3    H226816   3.575   3.508   6.311
 8955TIP3   OH226817   3.659   3.227   6.270
 8955TIP3    H126818   3.612   3.147   6.242
 8955TIP3    H226819   3.701   3.197   6.354
 8956TIP3   OH226820   4.039   3.310   7.027
 8956TIP3    H126821   4.028   3.232   6.968
 8956TIP3    H226822   4.023   3.384   6.964
 8957TIP3   OH226823   3.333   2.703   6.288
 8957TIP3    H126824   3.254   2.756   6.269
 8957TIP3    H226825   3.378   2.702   6.202
 8958TIP3   OH226826   3.290   2.494   5.993
 8958TIP3    H126827   3.356   2.545   6.043
 8958TIP3    H226828   3.349   2.431   5.947
 8959TIP3   OH226829   4.221   2.932   6.853
 8959TIP3    H126830   4.145   2.993   6.866
 8959TIP3    H226831   4.262   2.971   6.773
 8960TIP3   OH226832   3.683   2.787   6.251
 8960TIP3    H126833   3.628   2.811   6.330
 8960TIP3    H226834   3.768   2.764   6.296
 8961TIP3   OH226835   3.915   2.821   7.178
 8961TIP3    H126836   3.915   2.904   7.230
 8961TIP3    H226837   3.829   2.829   7.131
 8962TIP3   OH226838   2.914   2.780   6.673
 8962TIP3    H126839   2.874   2.722   6.605
 8962TIP3    H226840   2.990   2.727   6.704
 8963TIP3   OH226841   3.046   3.199   6.817
 8963TIP3    H126842   3.025   3.165   6.729
 8963TIP3    H226843   3.134   3.158   6.835
 8964TIP3   OH226844   3.054   2.752   7.028
 8964TIP3    H126845   3.085   2.728   6.938
 8964TIP3    H226846   3.094   2.840   7.043
 8965TIP3   OH226847   3.575   3.393   6.805
 8965TIP3    H126848   3.563   3.472   6.860
 8965TIP3    H226849   3.558   3.320   6.868
 8966TIP3   OH226850   3.190   3.310   7.350
 8966TIP3    H126851   3.126   3.370   7.394
 8966TIP3    H226852   3.127   3.255   7.299
 8967TIP3   OH226853   3.518   2.645   6.082
 8967TIP3    H126854   3.578   2.706   6.131
 8967TIP3    H226855   3.545   2.664   5.989
 8968TIP3   OH226856   2.949   2.868   7.452
 8968TIP3    H126857   2.947   2.965   7.463
 8968TIP3    H226858   2.866   2.845   7.500
 8969TIP3   OH226859   3.270   3.317   6.357
 8969TIP3    H126860   3.353   3.368   6.359
 8969TIP3    H226861   3.209   3.377   6.314
 8970TIP3   OH226862   2.980   3.470   7.433
 8970TIP3    H126863   2.945   3.476   7.342
 8970TIP3    H226864   2.899   3.449   7.485
 8971TIP3   OH226865   4.036   1.880   6.133
 8971TIP3    H126866   3.955   1.904   6.182
 8971TIP3    H226867   4.052   1.963   6.082
 8972TIP3   OH226868   2.782   2.626   6.472
 8972TIP3    H126869   2.710   2.670   6.422
 8972TIP3    H226870   2.744   2.539   6.488
 8973TIP3   OH226871   3.837   3.249   5.681
 8973TIP3    H126872   3.845   3.346   5.666
 8973TIP3    H226873   3.930   3.220   5.667
 8974TIP3   OH226874   2.568   2.997   7.381
 8974TIP3    H126875   2.491   2.987   7.321
 8974TIP3    H226876   2.569   2.913   7.428
 8975TIP3   OH226877   2.417   3.207   7.009
 8975TIP3    H126878   2.513   3.198   7.009
 8975TIP3    H226879   2.405   3.281   7.071
 8976TIP3   OH226880   4.273   3.658   7.068
 8976TIP3    H126881   4.279   3.562   7.087
 8976TIP3    H226882   4.191   3.680   7.118
 8977TIP3   OH226883   3.384   3.439   7.208
 8977TIP3    H126884   3.377   3.532   7.240
 8977TIP3    H226885   3.312   3.397   7.261
 8978TIP3   OH226886   3.153   3.567   6.161
 8978TIP3    H126887   3.102   3.549   6.080
 8978TIP3    H226888   3.115   3.651   6.191
 8979TIP3   OH226889   2.586   3.414   6.548
 8979TIP3    H126890   2.631   3.406   6.635
 8979TIP3    H226891   2.539   3.329   6.543
 8980TIP3   OH226892   3.348   3.472   5.797
 8980TIP3    H126893   3.405   3.400   5.762
 8980TIP3    H226894   3.383   3.482   5.888
 8981TIP3   OH226895   3.402   3.520   6.065
 8981TIP3    H126896   3.313   3.530   6.106
 8981TIP3    H226897   3.452   3.482   6.140
 8982TIP3   OH226898   4.169   2.781   7.347
 8982TIP3    H126899   4.088   2.791   7.295
 8982TIP3    H226900   4.184   2.684   7.341
 8983TIP3   OH226901   2.744   3.200   7.351
 8983TIP3    H126902   2.790   3.189   7.436
 8983TIP3    H226903   2.679   3.127   7.357
 8984TIP3   OH226904   3.160   2.026   7.140
 8984TIP3    H126905   3.071   1.996   7.112
 8984TIP3    H226906   3.136   2.107   7.189
 8985TIP3   OH226907   3.710   2.139   7.358
 8985TIP3    H126908   3.770   2.089   7.415
 8985TIP3    H226909   3.620   2.112   7.387
 8986TIP3   OH226910   3.924   2.557   7.266
 8986TIP3    H126911   3.881   2.561   7.354
 8986TIP3    H226912   3.911   2.648   7.232
 8987TIP3   OH226913   3.599   2.681   5.827
 8987TIP3    H126914   3.561   2.663   5.739
 8987TIP3    H226915   3.683   2.724   5.803
 8988TIP3   OH226916   3.309   2.060   6.132
 8988TIP3    H126917   3.273   2.057   6.223
 8988TIP3    H226918   3.267   1.980   6.095
 8989TIP3   OH226919   3.095   2.532   7.180
 8989TIP3    H126920   3.042   2.552   7.260
 8989TIP3    H226921   3.081   2.613   7.127
 8990TIP3   OH226922   2.980   2.418   6.691
 8990TIP3    H126923   2.887   2.393   6.711
 8990TIP3    H226924   2.990   2.377   6.603
 8991TIP3   OH226925   3.470   2.502   6.423
 8991TIP3    H126926   3.421   2.574   6.377
 8991TIP3    H226927   3.525   2.467   6.351
 8992TIP3   OH226928   3.650   2.799   7.488
 8992TIP3    H126929   3.619   2.727   7.546
 8992TIP3    H226930   3.743   2.809   7.518
 8993TIP3   OH226931   3.624   2.526   6.656
 8993TIP3    H126932   3.560   2.553   6.587
 8993TIP3    H226933   3.662   2.448   6.610
 8994TIP3   OH226934   2.909   2.567   7.381
 8994TIP3    H126935   2.940   2.623   7.455
 8994TIP3    H226936   2.852   2.503   7.427
 8995TIP3   OH226937   2.968   2.040   6.096
 8995TIP3    H126938   2.954   2.040   6.193
 8995TIP3    H226939   2.891   2.093   6.067
 8996TIP3   OH226940   2.509   2.082   6.966
 8996TIP3    H126941   2.585   2.115   7.018
 8996TIP3    H226942   2.549   2.056   6.881
 8997TIP3   OH226943   2.467   2.060   6.484
 8997TIP3    H126944   2.512   2.097   6.405
 8997TIP3    H226945   2.406   2.134   6.504
 8998TIP3   OH226946   3.636   2.776   7.072
 8998TIP3    H126947   3.670   2.705   7.013
 8998TIP3    H226948   3.603   2.722   7.146
 8999TIP3   OH226949   3.317   2.234   6.750
 8999TIP3    H126950   3.236   2.236   6.804
 8999TIP3    H226951   3.387   2.230   6.817
 9000TIP3   OH226952   2.741   2.299   6.758
 9000TIP3    H126953   2.647   2.308   6.729
 9000TIP3    H226954   2.763   2.207   6.734
 9001TIP3   OH226955   3.003   2.289   6.452
 9001TIP3    H126956   3.096   2.305   6.429
 9001TIP3    H226957   2.955   2.311   6.369
 9002TIP3   OH226958   3.798   2.315   6.954
 9002TIP3    H126959   3.767   2.330   7.047
 9002TIP3    H226960   3.728   2.255   6.922
 9003TIP3   OH226961   2.861   2.326   6.225
 9003TIP3    H126962   2.791   2.280   6.175
 9003TIP3    H226963   2.913   2.365   6.151
 9004TIP3   OH226964   3.977   4.005   7.176
 9004TIP3    H126965   3.976   4.029   7.082
 9004TIP3    H226966   4.058   4.051   7.207
 9005TIP3   OH226967   2.899   3.123   7.574
 9005TIP3    H126968   2.982   3.166   7.603
 9005TIP3    H226969   2.872   3.083   7.658
 9006TIP3   OH226970   3.389   2.571   6.848
 9006TIP3    H126971   3.465   2.533   6.801
 9006TIP3    H226972   3.393   2.526   6.934
 9007TIP3   OH226973   2.907   2.053   6.735
 9007TIP3    H126974   2.869   1.978   6.785
 9007TIP3    H226975   2.946   2.008   6.660
 9008TIP3   OH226976   3.363   2.472   7.137
 9008TIP3    H126977   3.274   2.509   7.152
 9008TIP3    H226978   3.421   2.535   7.185
 9009TIP3   OH226979   3.103   2.853   6.233
 9009TIP3    H126980   3.030   2.788   6.220
 9009TIP3    H226981   3.081   2.888   6.323
 9010TIP3   OH226982   3.998   3.096   6.858
 9010TIP3    H126983   4.025   3.146   6.778
 9010TIP3    H226984   3.915   3.052   6.829
 9011TIP3   OH226985   3.559   2.163   6.105
 9011TIP3    H126986   3.463   2.142   6.114
 9011TIP3    H226987   3.564   2.257   6.130
 9012TIP3   OH226988   3.496   3.174   7.233
 9012TIP3    H126989   3.537   3.160   7.319
 9012TIP3    H226990   3.465   3.266   7.238
 9013TIP3   OH226991   3.626   2.417   6.206
 9013TIP3    H126992   3.722   2.423   6.220
 9013TIP3    H226993   3.606   2.498   6.155
 9014TIP3   OH226994   2.800   2.883   6.906
 9014TIP3    H126995   2.839   2.850   6.822
 9014TIP3    H226996   2.839   2.823   6.972
 9015TIP3   OH226997   3.248   3.005   6.060
 9015TIP3    H126998   3.198   3.090   6.061
 9015TIP3    H226999   3.193   2.950   6.120
 9016TIP3   OH227000   3.401   2.929   7.525
 9016TIP3    H127001   3.345   2.855   7.495
 9016TIP3    H227002   3.491   2.894   7.507
 9017TIP3   OH227003   3.657   3.437   7.127
 9017TIP3    H127004   3.561   3.434   7.142
 9017TIP3    H227005   3.686   3.494   7.201
 9018TIP3   OH227006   4.066   2.512   6.035
 9018TIP3    H127007   4.005   2.468   5.970
 9018TIP3    H227008   4.062   2.602   5.997
 9019TIP3   OH227009   4.291   3.372   7.110
 9019TIP3    H127010   4.194   3.361   7.102
 9019TIP3    H227011   4.320   3.332   7.025
 9020TIP3   OH227012   3.777   3.327   5.949
 9020TIP3    H127013   3.744   3.261   6.011
 9020TIP3    H227014   3.785   3.278   5.865
 9021TIP3   OH227015   3.766   2.958   6.769
 9021TIP3    H127016   3.673   2.933   6.785
 9021TIP3    H227017   3.800   2.875   6.728
 9022TIP3   OH227018   2.899   3.186   6.535
 9022TIP3    H127019   2.891   3.266   6.479
 9022TIP3    H227020   2.807   3.165   6.552
 9023TIP3   OH227021   2.466   2.485   6.246
 9023TIP3    H127022   2.508   2.571   6.267
 9023TIP3    H227023   2.387   2.488   6.305
 9024TIP3   OH227024   3.024   2.945   6.474
 9024TIP3    H127025   2.992   3.035   6.495
 9024TIP3    H227026   2.991   2.895   6.550
 9025TIP3   OH227027   3.171   3.525   7.001
 9025TIP3    H127028   3.214   3.598   6.951
 9025TIP3    H227029   3.247   3.486   7.047
 9026TIP3   OH227030   2.813   3.423   6.385
 9026TIP3    H127031   2.728   3.431   6.433
 9026TIP3    H227032   2.846   3.515   6.389
 9027TIP3   OH227033   3.549   3.162   6.965
 9027TIP3    H127034   3.536   3.159   7.062
 9027TIP3    H227035   3.629   3.109   6.955
 9028TIP3   OH227036   3.534   3.060   5.846
 9028TIP3    H127037   3.587   3.032   5.924
 9028TIP3    H227038   3.446   3.027   5.872
 9029TIP3   OH227039   3.800   3.688   7.013
 9029TIP3    H127040   3.720   3.633   7.008
 9029TIP3    H227041   3.784   3.752   6.940
 9030TIP3   OH227042   3.867   3.526   5.662
 9030TIP3    H127043   3.901   3.601   5.612
 9030TIP3    H227044   3.787   3.567   5.700
 9031TIP3   OH227045   3.695   2.984   6.055
 9031TIP3    H127046   3.683   2.920   6.129
 9031TIP3    H227047   3.792   2.981   6.046
 9032TIP3   OH227048   2.606   3.384   7.162
 9032TIP3    H127049   2.656   3.316   7.211
 9032TIP3    H227050   2.629   3.464   7.210
 9033TIP3   OH227051   2.893   3.033   5.847
 9033TIP3    H127052   2.904   2.939   5.822
 9033TIP3    H227053   2.871   3.025   5.942
 9034TIP3   OH227054   2.835   3.040   6.118
 9034TIP3    H127055   2.910   3.012   6.173
 9034TIP3    H227056   2.838   3.138   6.127
 9035TIP3   OH227057   2.569   2.730   6.325
 9035TIP3    H127058   2.502   2.775   6.380
 9035TIP3    H227059   2.581   2.797   6.255
 9036TIP3   OH227060   3.726   2.373   7.213
 9036TIP3    H127061   3.808   2.419   7.240
 9036TIP3    H227062   3.725   2.294   7.271
 9037TIP3   OH227063   3.611   2.111   6.387
 9037TIP3    H127064   3.596   2.133   6.293
 9037TIP3    H227065   3.651   2.194   6.421
 9038TIP3   OH227066   3.107   3.235   6.065
 9038TIP3    H127067   3.019   3.256   6.103
 9038TIP3    H227068   3.120   3.312   6.008
 9039TIP3   OH227069   3.288   2.302   6.483
 9039TIP3    H127070   3.352   2.375   6.466
 9039TIP3    H227071   3.296   2.291   6.580
 9040TIP3   OH227072   3.562   2.613   7.276
 9040TIP3    H127073   3.587   2.662   7.357
 9040TIP3    H227074   3.615   2.532   7.282
 9041TIP3   OH227075   3.432   2.015   6.580
 9041TIP3    H127076   3.421   2.095   6.635
 9041TIP3    H227077   3.497   2.048   6.514
 9042TIP3   OH227078   2.855   3.311   6.138
 9042TIP3    H127079   2.824   3.382   6.077
 9042TIP3    H227080   2.837   3.353   6.225
 9043TIP3   OH227081   2.949   2.026   6.372
 9043TIP3    H127082   2.946   2.116   6.411
 9043TIP3    H227083   3.046   2.010   6.379
 9044TIP3   OH227084   4.193   2.516   7.278
 9044TIP3    H127085   4.096   2.508   7.270
 9044TIP3    H227086   4.222   2.498   7.188
 9045TIP3   OH227087   3.853   2.710   6.657
 9045TIP3    H127088   3.776   2.651   6.671
 9045TIP3    H227089   3.924   2.664   6.707
 9046TIP3   OH227090   2.570   2.931   6.126
 9046TIP3    H127091   2.643   2.995   6.134
 9046TIP3    H227092   2.610   2.871   6.059
 9047TIP3   OH227093   2.506   2.213   6.261
 9047TIP3    H127094   2.510   2.311   6.262
 9047TIP3    H227095   2.426   2.198   6.210
 9048TIP3   OH227096   3.823   3.674   6.603
 9048TIP3    H127097   3.780   3.721   6.527
 9048TIP3    H227098   3.918   3.692   6.583
 9049TIP3   OH227099   2.898   1.933   7.125
 9049TIP3    H127100   2.869   1.906   7.035
 9049TIP3    H227101   2.882   1.850   7.174
 9050TIP3   OH227102   2.430   3.153   6.507
 9050TIP3    H127103   2.376   3.182   6.581
 9050TIP3    H227104   2.388   3.200   6.431
 9051TIP3   OH227105   2.597   3.700   7.567
 9051TIP3    H127106   2.683   3.702   7.616
 9051TIP3    H227107   2.577   3.605   7.571
 9052TIP3   OH227108   3.070   3.634   7.635
 9052TIP3    H127109   3.155   3.676   7.615
 9052TIP3    H227110   3.053   3.580   7.555
 9053TIP3   OH227111   3.055   3.234   5.753
 9053TIP3    H127112   3.001   3.162   5.792
 9053TIP3    H227113   3.131   3.183   5.720
 9054TIP3   OH227114   3.711   3.580   7.355
 9054TIP3    H127115   3.703   3.498   7.409
 9054TIP3    H227116   3.792   3.621   7.391
 9055TIP3   OH227117   3.491   3.271   5.672
 9055TIP3    H127118   3.526   3.203   5.734
 9055TIP3    H227119   3.551   3.263   5.595
 9056TIP3   OH227120   2.706   2.747   5.983
 9056TIP3    H127121   2.764   2.720   6.057
 9056TIP3    H227122   2.772   2.753   5.911
 9057TIP3   OH227123   3.358   3.200   7.536
 9057TIP3    H127124   3.312   3.219   7.452
 9057TIP3    H227125   3.381   3.105   7.526
 9058TIP3   OH227126   3.228   2.954   5.790
 9058TIP3    H127127   3.225   2.964   5.888
 9058TIP3    H227128   3.226   2.856   5.783
 9059TIP3   OH227129   3.823   3.209   7.169
 9059TIP3    H127130   3.902   3.246   7.124
 9059TIP3    H227131   3.757   3.277   7.149
 9060TIP3   OH227132   2.906   2.661   6.197
 9060TIP3    H127133   2.879   2.623   6.282
 9060TIP3    H227134   2.945   2.584   6.151
 9061TIP3   OH227135   3.189   2.718   7.440
 9061TIP3    H127136   3.109   2.774   7.433
 9061TIP3    H227137   3.238   2.746   7.359
 9062TIP3   OH227138   3.015   2.457   6.039
 9062TIP3    H127139   2.990   2.467   5.945
 9062TIP3    H227140   3.112   2.458   6.031
 9063TIP3   OH227141   3.702   3.119   7.569
 9063TIP3    H127142   3.772   3.086   7.512
 9063TIP3    H227143   3.705   3.056   7.643
 9064TIP3   OH227144   3.830   2.780   5.711
 9064TIP3    H127145   3.810   2.737   5.625
 9064TIP3    H227146   3.796   2.870   5.691
 9065TIP3   OH227147   3.286   2.487   7.569
 9065TIP3    H127148   3.290   2.422   7.495
 9065TIP3    H227149   3.240   2.562   7.526
 9066TIP3   OH227150   3.295   2.303   7.358
 9066TIP3    H127151   3.322   2.349   7.275
 9066TIP3    H227152   3.201   2.283   7.341
 9067TIP3   OH227153   3.323   2.824   7.232
 9067TIP3    H127154   3.411   2.849   7.201
 9067TIP3    H227155   3.266   2.890   7.187
 9068TIP3   OH227156   3.917   2.808   7.594
 9068TIP3    H127157   3.964   2.728   7.621
 9068TIP3    H227158   3.986   2.858   7.547
 9069TIP3   OH227159   3.956   3.052   7.347
 9069TIP3    H127160   3.899   3.110   7.291
 9069TIP3    H227161   4.044   3.075   7.310
 9070TIP3   OH227162   3.444   2.069   7.383
 9070TIP3    H127163   3.395   2.154   7.378
 9070TIP3    H227164   3.371   2.005   7.376
 9071TIP3   OH227165   3.549   2.572   7.597
 9071TIP3    H127166   3.571   2.555   7.691
 9071TIP3    H227167   3.456   2.540   7.591
 9072TIP3   OH227168   3.793   2.513   7.500
 9072TIP3    H127169   3.703   2.537   7.531
 9072TIP3    H227170   3.817   2.445   7.564
 9073TIP3   OH227171   4.102   2.447   7.688
 9073TIP3    H127172   4.055   2.363   7.676
 9073TIP3    H227173   4.042   2.498   7.745
 9074TIP3   OH227174   2.825   3.517   5.951
 9074TIP3    H127175   2.919   3.503   5.929
 9074TIP3    H227176   2.797   3.568   5.873
 9075TIP3   OH227177   2.299   2.897   6.159
 9075TIP3    H127178   2.395   2.917   6.146
 9075TIP3    H227179   2.292   2.808   6.118
 9076TIP3   OH227180   2.220   3.506   6.582
 9076TIP3    H127181   2.154   3.447   6.540
 9076TIP3    H227182   2.263   3.444   6.645
 9077TIP3   OH227183   2.352   3.347   6.767
 9077TIP3    H127184   2.340   3.281   6.838
 9077TIP3    H227185   2.404   3.414   6.815
 9078TIP3   OH227186   4.081   3.758   6.569
 9078TIP3    H127187   4.107   3.784   6.660
 9078TIP3    H227188   4.152   3.796   6.515
 9079TIP3   OH227189   4.109   3.775   6.851
 9079TIP3    H127190   4.061   3.690   6.846
 9079TIP3    H227191   4.180   3.747   6.912
 9080TIP3   OH227192   4.154   3.455   7.421
 9080TIP3    H127193   4.076   3.466   7.479
 9080TIP3    H227194   4.197   3.542   7.427
 9081TIP3   OH227195   3.973   2.965   6.039
 9081TIP3    H127196   4.037   3.032   6.010
 9081TIP3    H227197   4.018   2.929   6.119
 9082TIP3   OH227198   4.100   2.833   6.244
 9082TIP3    H127199   4.032   2.793   6.303
 9082TIP3    H227200   4.166   2.868   6.307
 9083TIP3   OH227201   4.149   3.227   6.669
 9083TIP3    H127202   4.209   3.160   6.629
 9083TIP3    H227203   4.150   3.297   6.601
 9084TIP3   OH227204   3.979   3.530   6.865
 9084TIP3    H127205   3.907   3.568   6.918
 9084TIP3    H227206   3.930   3.483   6.794
 9085TIP3   OH227207   4.034   2.743   5.888
 9085TIP3    H127208   3.961   2.745   5.822
 9085TIP3    H227209   4.006   2.819   5.944
 9086TIP3   OH227210   3.907   2.414   5.836
 9086TIP3    H127211   3.854   2.447   5.763
 9086TIP3    H227212   3.887   2.318   5.831
 9087TIP3   OH227213   3.908   2.695   6.387
 9087TIP3    H127214   3.916   2.599   6.380
 9087TIP3    H227215   3.893   2.707   6.484
 9088TIP3   OH227216   2.539   2.790   7.113
 9088TIP3    H127217   2.536   2.743   7.027
 9088TIP3    H227218   2.635   2.780   7.135
 9089TIP3   OH227219   4.203   3.119   7.244
 9089TIP3    H127220   4.279   3.055   7.245
 9089TIP3    H227221   4.234   3.186   7.180
 9090TIP3   OH227222   4.390   2.931   7.303
 9090TIP3    H127223   4.314   2.872   7.319
 9090TIP3    H227224   4.460   2.866   7.283
 9091TIP3   OH227225   3.849   2.147   5.819
 9091TIP3    H127226   3.918   2.115   5.880
 9091TIP3    H227227   3.772   2.092   5.841
 9092TIP3   OH227228   3.908   2.410   6.278
 9092TIP3    H127229   3.949   2.322   6.292
 9092TIP3    H227230   3.965   2.444   6.206
 9093TIP3   OH227231   4.064   2.576   6.779
 9093TIP3    H127232   4.149   2.598   6.736
 9093TIP3    H227233   4.080   2.616   6.867
 9094TIP3   OH227234   4.139   2.725   7.009
 9094TIP3    H127235   4.064   2.764   7.056
 9094TIP3    H227236   4.171   2.802   6.957
 9095TIP3   OH227237   4.565   2.318   7.562
 9095TIP3    H127238   4.638   2.262   7.529
 9095TIP3    H227239   4.544   2.373   7.484
 9096TIP3   OH227240   4.017   2.161   6.319
 9096TIP3    H127241   4.064   2.144   6.403
 9096TIP3    H227242   3.955   2.085   6.317
 9097TIP3   OH227243   2.713   2.141   7.139
 9097TIP3    H127244   2.778   2.069   7.147
 9097TIP3    H227245   2.771   2.219   7.136
 9098TIP3   OH227246   2.551   2.410   7.255
 9098TIP3    H127247   2.583   2.427   7.164
 9098TIP3    H227248   2.531   2.501   7.287
 9099TIP3   OH227249   4.455   2.457   7.355
 9099TIP3    H127250   4.370   2.501   7.375
 9099TIP3    H227251   4.421   2.381   7.303
 9100TIP3   OH227252   4.089   2.088   5.957
 9100TIP3    H127253   4.129   2.020   5.898
 9100TIP3    H227254   4.156   2.159   5.956
 9101TIP3   OH227255   2.503   1.921   6.713
 9101TIP3    H127256   2.411   1.913   6.743
 9101TIP3    H227257   2.494   1.979   6.635
 9102TIP3   OH227258   3.661   3.628   6.221
 9102TIP3    H127259   3.715   3.620   6.139
 9102TIP3    H227260   3.713   3.691   6.273
 9103TIP3   OH227261   2.761   3.428   7.600
 9103TIP3    H127262   2.667   3.402   7.593
 9103TIP3    H227263   2.779   3.414   7.693
 9104TIP3   OH227264   2.945   3.468   7.151
 9104TIP3    H127265   2.896   3.543   7.113
 9104TIP3    H227266   3.030   3.482   7.104
 9105TIP3   OH227267   3.378   3.706   7.287
 9105TIP3    H127268   3.421   3.705   7.375
 9105TIP3    H227269   3.443   3.758   7.236
 9106TIP3   OH227270   3.558   3.861   7.152
 9106TIP3    H127271   3.628   3.809   7.111
 9106TIP3    H227272   3.611   3.919   7.212
 9107TIP3   OH227273   4.358   2.218   7.245
 9107TIP3    H127274   4.270   2.208   7.205
 9107TIP3    H227275   4.393   2.126   7.237
 9108TIP3   OH227276   2.619   3.719   7.182
 9108TIP3    H127277   2.529   3.748   7.158
 9108TIP3    H227278   2.635   3.775   7.260
 9109TIP3   OH227279   2.853   3.700   7.038
 9109TIP3    H127280   2.765   3.710   7.082
 9109TIP3    H227281   2.832   3.730   6.947
 9110TIP3   OH227282   3.277   3.723   6.835
 9110TIP3    H127283   3.205   3.739   6.771
 9110TIP3    H227284   3.287   3.811   6.877
 9111TIP3   OH227285   3.547   3.662   6.889
 9111TIP3    H127286   3.453   3.680   6.868
 9111TIP3    H227287   3.591   3.734   6.842
 9112TIP3   OH227288   3.752   3.854   6.798
 9112TIP3    H127289   3.738   3.937   6.749
 9112TIP3    H227290   3.779   3.793   6.725
 9113TIP3   OH227291   2.527   3.511   6.921
 9113TIP3    H127292   2.553   3.479   7.010
 9113TIP3    H227293   2.599   3.469   6.869
 9114TIP3   OH227294   2.724   3.387   6.782
 9114TIP3    H127295   2.737   3.302   6.832
 9114TIP3    H227296   2.816   3.420   6.780
 9115TIP3   OH227297   2.994   3.475   6.789
 9115TIP3    H127298   3.020   3.381   6.780
 9115TIP3    H227299   3.044   3.498   6.869
 9116TIP3   OH227300   3.565   2.133   6.874
 9116TIP3    H127301   3.525   2.059   6.922
 9116TIP3    H227302   3.640   2.090   6.828
 9117TIP3   OH227303   4.080   2.012   6.771
 9117TIP3    H127304   4.117   2.065   6.697
 9117TIP3    H227305   3.985   2.037   6.767
 9118TIP3   OH227306   4.179   2.111   6.536
 9118TIP3    H127307   4.254   2.059   6.500
 9118TIP3    H227308   4.213   2.202   6.523
 9119TIP3   OH227309   2.810   1.840   6.881
 9119TIP3    H127310   2.717   1.810   6.882
 9119TIP3    H227311   2.857   1.754   6.879
 9120TIP3   OH227312   2.607   1.715   6.538
 9120TIP3    H127313   2.631   1.771   6.463
 9120TIP3    H227314   2.577   1.782   6.604
 9121TIP3   OH227315   3.261   1.874   6.768
 9121TIP3    H127316   3.315   1.920   6.701
 9121TIP3    H227317   3.294   1.914   6.850
 9122TIP3   OH227318   3.794   2.022   6.749
 9122TIP3    H127319   3.801   1.980   6.662
 9122TIP3    H227320   3.786   1.944   6.808
 9123TIP3   OH227321   3.833   1.949   6.314
 9123TIP3    H127322   3.748   1.994   6.335
 9123TIP3    H227323   3.818   1.862   6.356
 9124TIP3   OH227324   2.314   3.293   6.305
 9124TIP3    H127325   2.227   3.259   6.275
 9124TIP3    H227326   2.307   3.385   6.276
 9125TIP3   OH227327   2.721   1.868   6.295
 9125TIP3    H127328   2.768   1.806   6.236
 9125TIP3    H227329   2.795   1.923   6.330
 9126TIP3   OH227330   3.225   2.051   6.394
 9126TIP3    H127331   3.286   2.005   6.454
 9126TIP3    H227332   3.246   2.144   6.419
 9127TIP3   OH227333   3.089   3.465   5.894
 9127TIP3    H127334   3.176   3.489   5.857
 9127TIP3    H227335   3.066   3.390   5.833
 9128TIP3   OH227336   3.812   3.595   5.990
 9128TIP3    H127337   3.804   3.497   5.981
 9128TIP3    H227338   3.762   3.623   5.910
 9129TIP3   OH227339   2.391   3.306   5.946
 9129TIP3    H127340   2.395   3.320   6.042
 9129TIP3    H227341   2.478   3.261   5.929
 9130TIP3   OH227342   4.128   2.147   7.705
 9130TIP3    H127343   4.188   2.167   7.778
 9130TIP3    H227344   4.192   2.161   7.630
 9131TIP3   OH227345   4.027   3.733   7.173
 9131TIP3    H127346   3.948   3.704   7.123
 9131TIP3    H227347   4.008   3.828   7.184
 9132TIP3   OH227348   5.303   3.110   5.933
 9132TIP3    H127349   5.270   3.200   5.913
 9132TIP3    H227350   5.225   3.057   5.909
 9133TIP3   OH227351   5.299   3.108   6.331
 9133TIP3    H127352   5.339   3.090   6.418
 9133TIP3    H227353   5.257   3.023   6.311
 9134TIP3   OH227354   4.593   3.001   6.676
 9134TIP3    H127355   4.621   2.926   6.730
 9134TIP3    H227356   4.627   3.073   6.734
 9135TIP3   OH227357   5.547   3.416   6.008
 9135TIP3    H127358   5.530   3.348   6.075
 9135TIP3    H227359   5.578   3.490   6.063
 9136TIP3   OH227360   4.570   3.412   6.404
 9136TIP3    H127361   4.562   3.314   6.404
 9136TIP3    H227362   4.666   3.422   6.411
 9137TIP3   OH227363   4.278   2.611   6.185
 9137TIP3    H127364   4.232   2.693   6.210
 9137TIP3    H227365   4.204   2.563   6.142
 9138TIP3   OH227366   4.332   2.901   6.375
 9138TIP3    H127367   4.382   2.823   6.409
 9138TIP3    H227368   4.399   2.946   6.323
 9139TIP3   OH227369   5.200   3.873   6.024
 9139TIP3    H127370   5.238   3.801   5.970
 9139TIP3    H227371   5.188   3.829   6.110
 9140TIP3   OH227372   5.096   3.338   6.367
 9140TIP3    H127373   5.138   3.258   6.332
 9140TIP3    H227374   5.178   3.386   6.395
 9141TIP3   OH227375   6.116   2.653   6.369
 9141TIP3    H127376   6.145   2.737   6.411
 9141TIP3    H227377   6.138   2.669   6.276
 9142TIP3   OH227378   5.512   2.833   6.396
 9142TIP3    H127379   5.554   2.748   6.419
 9142TIP3    H227380   5.477   2.813   6.307
 9143TIP3   OH227381   4.855   2.494   6.363
 9143TIP3    H127382   4.834   2.568   6.301
 9143TIP3    H227383   4.803   2.422   6.322
 9144TIP3   OH227384   5.548   2.586   5.983
 9144TIP3    H127385   5.618   2.573   6.051
 9144TIP3    H227386   5.603   2.621   5.910
 9145TIP3   OH227387   4.482   2.696   6.475
 9145TIP3    H127388   4.565   2.681   6.524
 9145TIP3    H227389   4.499   2.640   6.396
 9146TIP3   OH227390   4.925   2.894   6.259
 9146TIP3    H127391   5.018   2.869   6.278
 9146TIP3    H227392   4.885   2.808   6.234
 9147TIP3   OH227393   6.188   2.864   6.538
 9147TIP3    H127394   6.101   2.908   6.522
 9147TIP3    H227395   6.211   2.901   6.625
 9148TIP3   OH227396   4.844   2.477   6.801
 9148TIP3    H127397   4.786   2.518   6.734
 9148TIP3    H227398   4.791   2.495   6.882
 9149TIP3   OH227399   5.186   3.329   5.805
 9149TIP3    H127400   5.144   3.319   5.719
 9149TIP3    H227401   5.142   3.411   5.838
 9150TIP3   OH227402   4.951   3.255   6.588
 9150TIP3    H127403   4.891   3.320   6.629
 9150TIP3    H227404   4.992   3.306   6.515
 9151TIP3   OH227405   5.745   2.595   6.169
 9151TIP3    H127406   5.723   2.558   6.256
 9151TIP3    H227407   5.797   2.674   6.195
 9152TIP3   OH227408   4.718   2.594   6.583
 9152TIP3    H127409   4.777   2.668   6.610
 9152TIP3    H227410   4.771   2.556   6.510
 9153TIP3   OH227411   4.781   3.453   6.693
 9153TIP3    H127412   4.747   3.541   6.668
 9153TIP3    H227413   4.708   3.422   6.752
 9154TIP3   OH227414   4.169   3.142   5.928
 9154TIP3    H127415   4.126   3.172   5.846
 9154TIP3    H227416   4.202   3.227   5.964
 9155TIP3   OH227417   5.609   3.659   6.165
 9155TIP3    H127418   5.519   3.649   6.206
 9155TIP3    H227419   5.600   3.746   6.123
 9156TIP3   OH227420   5.908   2.549   6.533
 9156TIP3    H127421   5.822   2.577   6.500
 9156TIP3    H227422   5.969   2.583   6.464
 9157TIP3   OH227423   5.193   2.191   6.518
 9157TIP3    H127424   5.176   2.097   6.539
 9157TIP3    H227425   5.118   2.233   6.565
 9158TIP3   OH227426   5.306   3.699   5.834
 9158TIP3    H127427   5.359   3.616   5.819
 9158TIP3    H227428   5.370   3.764   5.797
 9159TIP3   OH227429   5.456   3.483   5.757
 9159TIP3    H127430   5.411   3.402   5.729
 9159TIP3    H227431   5.497   3.454   5.841
 9160TIP3   OH227432   5.836   3.564   6.513
 9160TIP3    H127433   5.823   3.487   6.453
 9160TIP3    H227434   5.819   3.639   6.452
 9161TIP3   OH227435   5.129   2.957   5.774
 9161TIP3    H127436   5.051   3.012   5.754
 9161TIP3    H227437   5.177   2.957   5.690
 9162TIP3   OH227438   5.086   2.755   5.479
 9162TIP3    H127439   5.152   2.803   5.531
 9162TIP3    H227440   5.145   2.691   5.432
 9163TIP3   OH227441   6.031   3.205   6.360
 9163TIP3    H127442   5.947   3.256   6.363
 9163TIP3    H227443   6.063   3.230   6.271
 9164TIP3   OH227444   5.480   3.043   5.737
 9164TIP3    H127445   5.425   3.066   5.816
 9164TIP3    H227446   5.564   3.019   5.781
 9165TIP3   OH227447   5.710   3.078   6.663
 9165TIP3    H127448   5.709   3.161   6.715
 9165TIP3    H227449   5.624   3.083   6.617
 9166TIP3   OH227450   4.713   3.037   6.159
 9166TIP3    H127451   4.675   2.978   6.091
 9166TIP3    H227452   4.789   2.985   6.191
 9167TIP3   OH227453   4.846   3.459   6.302
 9167TIP3    H127454   4.824   3.417   6.218
 9167TIP3    H227455   4.933   3.419   6.323
 9168TIP3   OH227456   4.857   3.005   6.507
 9168TIP3    H127457   4.891   2.989   6.417
 9168TIP3    H227458   4.891   3.094   6.529
 9169TIP3   OH227459   5.370   3.649   6.291
 9169TIP3    H127460   5.359   3.729   6.347
 9169TIP3    H227461   5.354   3.576   6.354
 9170TIP3   OH227462   4.985   3.569   6.836
 9170TIP3    H127463   4.922   3.628   6.884
 9170TIP3    H227464   4.921   3.513   6.786
 9171TIP3   OH227465   5.312   2.905   5.568
 9171TIP3    H127466   5.374   2.964   5.617
 9171TIP3    H227467   5.339   2.924   5.475
 9172TIP3   OH227468   5.066   3.574   5.839
 9172TIP3    H127469   5.150   3.624   5.843
 9172TIP3    H227470   5.004   3.640   5.804
 9173TIP3   OH227471   4.777   3.733   6.926
 9173TIP3    H127472   4.742   3.735   6.835
 9173TIP3    H227473   4.696   3.714   6.979
 9174TIP3   OH227474   5.833   2.138   5.620
 9174TIP3    H127475   5.751   2.161   5.668
 9174TIP3    H227476   5.848   2.220   5.569
 9175TIP3   OH227477   4.583   2.883   5.949
 9175TIP3    H127478   4.505   2.924   5.906
 9175TIP3    H227479   4.548   2.798   5.978
 9176TIP3   OH227480   5.634   3.505   5.168
 9176TIP3    H127481   5.642   3.602   5.153
 9176TIP3    H227482   5.727   3.476   5.153
 9177TIP3   OH227483   4.366   3.254   6.877
 9177TIP3    H127484   4.306   3.221   6.809
 9177TIP3    H227485   4.441   3.192   6.876
 9178TIP3   OH227486   4.212   3.461   6.496
 9178TIP3    H127487   4.309   3.452   6.493
 9178TIP3    H227488   4.202   3.534   6.560
 9179TIP3   OH227489   6.074   3.914   6.565
 9179TIP3    H127490   6.074   3.818   6.582
 9179TIP3    H227491   5.991   3.941   6.610
 9180TIP3   OH227492   5.177   3.698   6.693
 9180TIP3    H127493   5.173   3.789   6.728
 9180TIP3    H227494   5.107   3.655   6.747
 9181TIP3   OH227495   4.947   3.822   5.649
 9181TIP3    H127496   4.899   3.808   5.566
 9181TIP3    H227497   4.913   3.908   5.679
 9182TIP3   OH227498   4.383   3.671   6.035
 9182TIP3    H127499   4.428   3.663   6.122
 9182TIP3    H227500   4.336   3.585   6.030
 9183TIP3   OH227501   5.144   3.728   5.284
 9183TIP3    H127502   5.202   3.656   5.249
 9183TIP3    H227503   5.180   3.739   5.375
 9184TIP3   OH227504   5.197   3.776   5.553
 9184TIP3    H127505   5.109   3.785   5.595
 9184TIP3    H227506   5.250   3.741   5.627
 9185TIP3   OH227507   5.962   3.041   6.836
 9185TIP3    H127508   5.877   3.046   6.790
 9185TIP3    H227509   5.979   2.945   6.834
 9186TIP3   OH227510   4.563   3.441   6.870
 9186TIP3    H127511   4.616   3.375   6.918
 9186TIP3    H227512   4.478   3.392   6.868
 9187TIP3   OH227513   4.959   2.272   6.651
 9187TIP3    H127514   4.872   2.242   6.619
 9187TIP3    H227515   4.932   2.351   6.701
 9188TIP3   OH227516   5.497   2.384   6.842
 9188TIP3    H127517   5.566   2.358   6.906
 9188TIP3    H227518   5.414   2.367   6.892
 9189TIP3   OH227519   5.727   2.816   6.759
 9189TIP3    H127520   5.676   2.814   6.843
 9189TIP3    H227521   5.705   2.904   6.723
 9190TIP3   OH227522   5.390   2.941   5.312
 9190TIP3    H127523   5.357   2.921   5.223
 9190TIP3    H227524   5.477   2.980   5.291
 9191TIP3   OH227525   5.101   2.321   5.617
 9191TIP3    H127526   5.069   2.316   5.709
 9191TIP3    H227527   5.064   2.236   5.583
 9192TIP3   OH227528   4.889   2.792   6.670
 9192TIP3    H127529   4.837   2.814   6.750
 9192TIP3    H227530   4.875   2.873   6.615
 9193TIP3   OH227531   4.775   2.675   6.178
 9193TIP3    H127532   4.683   2.648   6.200
 9193TIP3    H227533   4.785   2.632   6.090
 9194TIP3   OH227534   5.266   2.757   5.910
 9194TIP3    H127535   5.217   2.829   5.864
 9194TIP3    H227536   5.323   2.722   5.838
 9195TIP3   OH227537   5.442   3.031   6.988
 9195TIP3    H127538   5.418   2.961   7.052
 9195TIP3    H227539   5.535   3.046   7.013
 9196TIP3   OH227540   5.422   2.782   6.142
 9196TIP3    H127541   5.357   2.808   6.075
 9196TIP3    H227542   5.460   2.704   6.096
 9197TIP3   OH227543   4.707   2.824   6.874
 9197TIP3    H127544   4.698   2.906   6.926
 9197TIP3    H227545   4.706   2.754   6.943
 9198TIP3   OH227546   4.758   2.294   5.582
 9198TIP3    H127547   4.752   2.293   5.680
 9198TIP3    H227548   4.680   2.348   5.560
 9199TIP3   OH227549   4.306   2.333   6.454
 9199TIP3    H127550   4.377   2.369   6.511
 9199TIP3    H227551   4.353   2.308   6.373
 9200TIP3   OH227552   4.263   2.317   5.969
 9200TIP3    H127553   4.313   2.353   5.893
 9200TIP3    H227554   4.204   2.392   5.988
 9201TIP3   OH227555   5.433   3.031   6.561
 9201TIP3    H127556   5.467   2.960   6.502
 9201TIP3    H227557   5.401   2.976   6.636
 9202TIP3   OH227558   5.111   2.494   6.236
 9202TIP3    H127559   5.031   2.495   6.293
 9202TIP3    H227560   5.183   2.485   6.302
 9203TIP3   OH227561   4.538   2.555   6.244
 9203TIP3    H127562   4.444   2.562   6.215
 9203TIP3    H227563   4.561   2.463   6.223
 9204TIP3   OH227564   4.799   2.543   5.939
 9204TIP3    H127565   4.893   2.560   5.921
 9204TIP3    H227566   4.754   2.568   5.855
 9205TIP3   OH227567   5.597   2.572   6.439
 9205TIP3    H127568   5.570   2.585   6.532
 9205TIP3    H227569   5.525   2.514   6.408
 9206TIP3   OH227570   4.654   2.590   5.713
 9206TIP3    H127571   4.579   2.544   5.672
 9206TIP3    H227572   4.702   2.624   5.635
 9207TIP3   OH227573   5.771   4.261   6.664
 9207TIP3    H127574   5.771   4.286   6.570
 9207TIP3    H227575   5.854   4.304   6.695
 9208TIP3   OH227576   5.184   2.829   6.338
 9208TIP3    H127577   5.259   2.786   6.295
 9208TIP3    H227578   5.183   2.785   6.426
 9209TIP3   OH227579   4.700   2.310   6.224
 9209TIP3    H127580   4.661   2.236   6.276
 9209TIP3    H227581   4.748   2.262   6.156
 9210TIP3   OH227582   5.158   2.734   6.620
 9210TIP3    H127583   5.068   2.766   6.640
 9210TIP3    H227584   5.215   2.794   6.673
 9211TIP3   OH227585   4.899   3.110   5.716
 9211TIP3    H127586   4.826   3.046   5.705
 9211TIP3    H227587   4.879   3.145   5.807
 9212TIP3   OH227588   5.796   3.349   6.343
 9212TIP3    H127589   5.821   3.401   6.264
 9212TIP3    H227590   5.712   3.306   6.315
 9213TIP3   OH227591   5.353   2.420   5.591
 9213TIP3    H127592   5.257   2.400   5.600
 9213TIP3    H227593   5.359   2.515   5.616
 9214TIP3   OH227594   5.298   3.434   6.717
 9214TIP3    H127595   5.327   3.412   6.807
 9214TIP3    H227596   5.257   3.521   6.729
 9215TIP3   OH227597   5.422   2.674   5.691
 9215TIP3    H127598   5.519   2.678   5.707
 9215TIP3    H227599   5.405   2.755   5.640
 9216TIP3   OH227600   4.593   3.136   6.396
 9216TIP3    H127601   4.638   3.100   6.317
 9216TIP3    H227602   4.634   3.085   6.469
 9217TIP3   OH227603   5.042   3.260   5.537
 9217TIP3    H127604   4.993   3.346   5.543
 9217TIP3    H227605   4.991   3.207   5.602
 9218TIP3   OH227606   5.202   3.174   7.029
 9218TIP3    H127607   5.134   3.112   6.997
 9218TIP3    H227608   5.284   3.132   6.996
 9219TIP3   OH227609   5.454   3.697   6.613
 9219TIP3    H127610   5.358   3.691   6.629
 9219TIP3    H227611   5.483   3.746   6.693
 9220TIP3   OH227612   5.861   2.768   5.523
 9220TIP3    H127613   5.800   2.725   5.459
 9220TIP3    H227614   5.859   2.859   5.484
 9221TIP3   OH227615   6.086   3.625   6.602
 9221TIP3    H127616   5.989   3.617   6.594
 9221TIP3    H227617   6.113   3.595   6.512
 9222TIP3   OH227618   5.568   3.584   5.434
 9222TIP3    H127619   5.541   3.516   5.498
 9222TIP3    H227620   5.582   3.534   5.352
 9223TIP3   OH227621   5.563   3.214   6.255
 9223TIP3    H127622   5.470   3.189   6.273
 9223TIP3    H227623   5.596   3.131   6.215
 9224TIP3   OH227624   4.694   3.440   6.016
 9224TIP3    H127625   4.685   3.522   5.963
 9224TIP3    H227626   4.603   3.424   6.042
 9225TIP3   OH227627   4.260   2.743   5.732
 9225TIP3    H127628   4.302   2.828   5.755
 9225TIP3    H227629   4.182   2.745   5.792
 9226TIP3   OH227630   4.819   3.201   5.956
 9226TIP3    H127631   4.787   3.291   5.979
 9226TIP3    H227632   4.790   3.150   6.035
 9227TIP3   OH227633   4.966   3.781   6.489
 9227TIP3    H127634   5.011   3.853   6.440
 9227TIP3    H227635   5.040   3.741   6.537
 9228TIP3   OH227636   4.608   3.680   5.870
 9228TIP3    H127637   4.524   3.689   5.920
 9228TIP3    H227638   4.641   3.773   5.875
 9229TIP3   OH227639   5.346   3.418   6.451
 9229TIP3    H127640   5.333   3.419   6.548
 9229TIP3    H227641   5.426   3.364   6.443
 9230TIP3   OH227642   5.328   3.313   5.338
 9230TIP3    H127643   5.389   3.286   5.411
 9230TIP3    H227644   5.243   3.289   5.377
 9231TIP3   OH227645   5.598   3.945   6.499
 9231TIP3    H127646   5.518   3.888   6.498
 9231TIP3    H227647   5.578   4.008   6.427
 9232TIP3   OH227648   5.663   3.782   5.149
 9232TIP3    H127649   5.699   3.858   5.101
 9232TIP3    H227650   5.583   3.824   5.187
 9233TIP3   OH227651   4.685   2.552   7.018
 9233TIP3    H127652   4.589   2.555   7.032
 9233TIP3    H227653   4.715   2.502   7.096
 9234TIP3   OH227654   5.492   3.239   5.542
 9234TIP3    H127655   5.481   3.176   5.616
 9234TIP3    H227656   5.590   3.237   5.533
 9235TIP3   OH227657   4.400   3.641   6.647
 9235TIP3    H127658   4.456   3.571   6.684
 9235TIP3    H227659   4.422   3.715   6.705
 9236TIP3   OH227660   4.684   3.310   5.331
 9236TIP3    H127661   4.742   3.236   5.309
 9236TIP3    H227662   4.668   3.298   5.427
 9237TIP3   OH227663   4.640   3.293   5.601
 9237TIP3    H127664   4.706   3.266   5.666
 9237TIP3    H227665   4.638   3.391   5.614
 9238TIP3   OH227666   4.363   2.987   5.812
 9238TIP3    H127667   4.296   3.030   5.869
 9238TIP3    H227668   4.374   3.056   5.743
 9239TIP3   OH227669   5.530   2.618   6.698
 9239TIP3    H127670   5.605   2.663   6.740
 9239TIP3    H227671   5.516   2.540   6.756
 9240TIP3   OH227672   5.406   2.369   5.874
 9240TIP3    H127673   5.393   2.391   5.780
 9240TIP3    H227674   5.447   2.451   5.909
 9241TIP3   OH227675   4.901   3.491   5.547
 9241TIP3    H127676   4.814   3.511   5.587
 9241TIP3    H227677   4.919   3.575   5.502
 9242TIP3   OH227678   5.081   2.560   5.970
 9242TIP3    H127679   5.146   2.632   5.955
 9242TIP3    H227680   5.090   2.547   6.067
 9243TIP3   OH227681   5.363   2.871   6.770
 9243TIP3    H127682   5.386   2.924   6.849
 9243TIP3    H227683   5.412   2.789   6.786
 9244TIP3   OH227684   5.229   2.271   6.067
 9244TIP3    H127685   5.225   2.347   6.127
 9244TIP3    H227686   5.294   2.304   6.000
 9245TIP3   OH227687   4.648   3.564   5.625
 9245TIP3    H127688   4.619   3.635   5.564
 9245TIP3    H227689   4.632   3.607   5.712
 9246TIP3   OH227690   4.748   2.282   5.857
 9246TIP3    H127691   4.744   2.370   5.899
 9246TIP3    H227692   4.844   2.265   5.866
 9247TIP3   OH227693   5.993   2.772   6.759
 9247TIP3    H127694   5.895   2.773   6.765
 9247TIP3    H227695   6.005   2.728   6.674
 9248TIP3   OH227696   5.649   2.966   6.143
 9248TIP3    H127697   5.572   2.908   6.158
 9248TIP3    H227698   5.720   2.920   6.193
 9249TIP3   OH227699   4.364   3.189   5.615
 9249TIP3    H127700   4.431   3.259   5.624
 9249TIP3    H227701   4.408   3.132   5.548
 9250TIP3   OH227702   4.308   2.472   5.744
 9250TIP3    H127703   4.306   2.570   5.746
 9250TIP3    H227704   4.223   2.452   5.703
 9251TIP3   OH227705   5.620   3.929   6.089
 9251TIP3    H127706   5.577   3.976   6.014
 9251TIP3    H227707   5.715   3.948   6.070
 9252TIP3   OH227708   4.696   2.190   6.615
 9252TIP3    H127709   4.665   2.155   6.529
 9252TIP3    H227710   4.684   2.113   6.674
 9253TIP3   OH227711   4.226   3.410   5.994
 9253TIP3    H127712   4.173   3.439   6.069
 9253TIP3    H227713   4.183   3.457   5.918
 9254TIP3   OH227714   4.396   3.962   7.070
 9254TIP3    H127715   4.483   3.961   7.116
 9254TIP3    H227716   4.377   3.866   7.068
 9255TIP3   OH227717   4.868   3.912   7.115
 9255TIP3    H127718   4.962   3.890   7.123
 9255TIP3    H227719   4.840   3.849   7.045
 9256TIP3   OH227720   4.854   3.502   5.233
 9256TIP3    H127721   4.796   3.436   5.277
 9256TIP3    H227722   4.928   3.446   5.203
 9257TIP3   OH227723   5.508   3.826   6.851
 9257TIP3    H127724   5.504   3.756   6.920
 9257TIP3    H227725   5.586   3.877   6.879
 9258TIP3   OH227726   5.286   3.526   5.157
 9258TIP3    H127727   5.327   3.463   5.220
 9258TIP3    H227728   5.346   3.522   5.080
 9259TIP3   OH227729   4.518   3.384   7.277
 9259TIP3    H127730   4.572   3.309   7.250
 9259TIP3    H227731   4.437   3.371   7.224
 9260TIP3   OH227732   4.505   3.005   5.470
 9260TIP3    H127733   4.555   2.971   5.547
 9260TIP3    H227734   4.576   3.038   5.415
 9261TIP3   OH227735   5.126   3.449   7.045
 9261TIP3    H127736   5.080   3.467   6.961
 9261TIP3    H227737   5.153   3.356   7.035
 9262TIP3   OH227738   4.992   3.203   5.276
 9262TIP3    H127739   5.012   3.219   5.371
 9262TIP3    H227740   5.012   3.107   5.268
 9263TIP3   OH227741   5.620   3.463   6.654
 9263TIP3    H127742   5.697   3.504   6.611
 9263TIP3    H227743   5.551   3.530   6.637
 9264TIP3   OH227744   4.696   2.918   5.674
 9264TIP3    H127745   4.671   2.888   5.763
 9264TIP3    H227746   4.737   2.839   5.635
 9265TIP3   OH227747   4.983   2.995   6.932
 9265TIP3    H127748   4.898   3.043   6.930
 9265TIP3    H227749   5.025   3.025   6.848
 9266TIP3   OH227750   4.817   2.702   5.521
 9266TIP3    H127751   4.814   2.645   5.443
 9266TIP3    H227752   4.913   2.723   5.522
 9267TIP3   OH227753   5.497   3.383   7.048
 9267TIP3    H127754   5.571   3.343   7.000
 9267TIP3    H227755   5.485   3.319   7.121
 9268TIP3   OH227756   5.623   3.036   5.198
 9268TIP3    H127757   5.606   2.993   5.112
 9268TIP3    H227758   5.589   3.126   5.178
 9269TIP3   OH227759   5.106   2.771   7.034
 9269TIP3    H127760   5.101   2.695   6.973
 9269TIP3    H227761   5.059   2.841   6.984
 9270TIP3   OH227762   5.104   2.554   6.845
 9270TIP3    H127763   5.130   2.598   6.762
 9270TIP3    H227764   5.010   2.533   6.829
 9271TIP3   OH227765   5.122   3.086   6.720
 9271TIP3    H127766   5.208   3.108   6.683
 9271TIP3    H227767   5.063   3.150   6.675
 9272TIP3   OH227768   5.708   3.052   7.098
 9272TIP3    H127769   5.757   2.970   7.111
 9272TIP3    H227770   5.776   3.110   7.062
 9273TIP3   OH227771   5.749   3.310   6.837
 9273TIP3    H127772   5.692   3.367   6.780
 9273TIP3    H227773   5.837   3.332   6.800
 9274TIP3   OH227774   4.992   2.866   7.282
 9274TIP3    H127775   4.912   2.813   7.294
 9274TIP3    H227776   5.013   2.850   7.188
 9275TIP3   OH227777   5.233   2.316   6.922
 9275TIP3    H127778   5.184   2.397   6.896
 9275TIP3    H227779   5.164   2.247   6.911
 9276TIP3   OH227780   5.360   2.815   7.134
 9276TIP3    H127781   5.339   2.800   7.228
 9276TIP3    H227782   5.272   2.795   7.095
 9277TIP3   OH227783   5.595   2.768   6.988
 9277TIP3    H127784   5.521   2.771   7.052
 9277TIP3    H227785   5.670   2.740   7.045
 9278TIP3   OH227786   5.823   2.712   7.138
 9278TIP3    H127787   5.838   2.616   7.152
 9278TIP3    H227788   5.821   2.747   7.230
 9279TIP3   OH227789   4.808   2.653   7.333
 9279TIP3    H127790   4.816   2.560   7.304
 9279TIP3    H227791   4.849   2.647   7.422
 9280TIP3   OH227792   5.327   2.326   7.179
 9280TIP3    H127793   5.391   2.253   7.171
 9280TIP3    H227794   5.286   2.324   7.090
 9281TIP3   OH227795   5.398   2.540   7.334
 9281TIP3    H127796   5.373   2.470   7.270
 9281TIP3    H227797   5.319   2.599   7.331
 9282TIP3   OH227798   4.620   3.769   5.437
 9282TIP3    H127799   4.715   3.759   5.417
 9282TIP3    H227800   4.593   3.823   5.360
 9283TIP3   OH227801   4.094   3.155   5.642
 9283TIP3    H127802   4.190   3.173   5.632
 9283TIP3    H227803   4.087   3.065   5.603
 9284TIP3   OH227804   4.016   3.763   6.070
 9284TIP3    H127805   3.950   3.704   6.028
 9284TIP3    H227806   4.059   3.702   6.133
 9285TIP3   OH227807   4.148   3.604   6.254
 9285TIP3    H127808   4.136   3.538   6.325
 9285TIP3    H227809   4.200   3.670   6.303
 9286TIP3   OH227810   5.877   4.015   6.055
 9286TIP3    H127811   5.901   4.043   6.145
 9286TIP3    H227812   5.947   4.054   6.001
 9287TIP3   OH227813   5.903   4.033   6.337
 9287TIP3    H127814   5.857   3.946   6.335
 9287TIP3    H227815   5.978   4.010   6.394
 9288TIP3   OH227816   5.950   3.712   6.909
 9288TIP3    H127817   5.879   3.723   6.976
 9288TIP3    H227818   5.994   3.799   6.913
 9289TIP3   OH227819   5.769   3.223   5.525
 9289TIP3    H127820   5.834   3.289   5.496
 9289TIP3    H227821   5.813   3.186   5.605
 9290TIP3   OH227822   5.895   3.090   5.730
 9290TIP3    H127823   5.828   3.050   5.790
 9290TIP3    H227824   5.962   3.125   5.793
 9291TIP3   OH227825   5.952   3.487   6.160
 9291TIP3    H127826   6.006   3.417   6.118
 9291TIP3    H227827   5.951   3.557   6.091
 9292TIP3   OH227828   5.775   3.785   6.354
 9292TIP3    H127829   5.703   3.825   6.406
 9292TIP3    H227830   5.725   3.740   6.282
 9293TIP3   OH227831   5.830   3.001   5.374
 9293TIP3    H127832   5.757   3.002   5.309
 9293TIP3    H227833   5.803   3.076   5.431
 9294TIP3   OH227834   5.699   2.672   5.326
 9294TIP3    H127835   5.654   2.701   5.246
 9294TIP3    H227836   5.680   2.576   5.323
 9295TIP3   OH227837   5.704   2.952   5.874
 9295TIP3    H127838   5.713   2.855   5.866
 9295TIP3    H227839   5.688   2.964   5.970
 9296TIP3   OH227840   4.332   3.031   6.620
 9296TIP3    H127841   4.326   2.991   6.531
 9296TIP3    H227842   4.430   3.026   6.635
 9297TIP3   OH227843   5.998   3.376   6.735
 9297TIP3    H127844   6.067   3.307   6.722
 9297TIP3    H227845   6.023   3.444   6.670
 9298TIP3   OH227846   6.177   3.172   6.734
 9298TIP3    H127847   6.102   3.124   6.777
 9298TIP3    H227848   6.250   3.110   6.754
 9299TIP3   OH227849   5.645   2.406   5.308
 9299TIP3    H127850   5.717   2.373   5.366
 9299TIP3    H227851   5.570   2.347   5.329
 9300TIP3   OH227852   5.703   2.666   5.763
 9300TIP3    H127853   5.745   2.578   5.778
 9300TIP3    H227854   5.761   2.700   5.692
 9301TIP3   OH227855   5.861   2.832   6.265
 9301TIP3    H127856   5.946   2.856   6.222
 9301TIP3    H227857   5.876   2.872   6.353
 9302TIP3   OH227858   5.936   2.982   6.492
 9302TIP3    H127859   5.860   3.016   6.544
 9302TIP3    H227860   5.968   3.064   6.449
 9303TIP3   OH227861   4.546   2.704   7.269
 9303TIP3    H127862   4.643   2.705   7.283
 9303TIP3    H227863   4.523   2.620   7.314
 9304TIP3   OH227864   6.374   2.571   7.034
 9304TIP3    H127865   6.441   2.510   6.998
 9304TIP3    H227866   6.349   2.624   6.956
 9305TIP3   OH227867   5.812   2.418   5.806
 9305TIP3    H127868   5.859   2.401   5.890
 9305TIP3    H227869   5.750   2.341   5.805
 9306TIP3   OH227870   4.512   2.401   6.624
 9306TIP3    H127871   4.575   2.326   6.634
 9306TIP3    H227872   4.574   2.476   6.617
 9307TIP3   OH227873   4.309   2.667   6.700
 9307TIP3    H127874   4.363   2.676   6.619
 9307TIP3    H227875   4.327   2.750   6.746
 9308TIP3   OH227876   6.248   2.713   6.842
 9308TIP3    H127877   6.163   2.758   6.858
 9308TIP3    H227878   6.216   2.636   6.791
 9309TIP3   OH227879   5.885   2.345   5.442
 9309TIP3    H127880   5.926   2.276   5.385
 9309TIP3    H227881   5.953   2.415   5.442
 9310TIP3   OH227882   4.298   2.171   6.195
 9310TIP3    H127883   4.208   2.168   6.231
 9310TIP3    H227884   4.289   2.233   6.120
 9311TIP3   OH227885   5.455   3.885   5.706
 9311TIP3    H127886   5.510   3.877   5.626
 9311TIP3    H227887   5.506   3.947   5.761
 9312TIP3   OH227888   4.517   2.247   7.010
 9312TIP3    H127889   4.470   2.253   7.095
 9312TIP3    H227890   4.453   2.290   6.951
 9313TIP3   OH227891   4.556   3.700   7.088
 9313TIP3    H127892   4.469   3.662   7.069
 9313TIP3    H227893   4.583   3.649   7.166
 9314TIP3   OH227894   4.737   3.725   6.641
 9314TIP3    H127895   4.692   3.802   6.601
 9314TIP3    H227896   4.823   3.733   6.596
 9315TIP3   OH227897   5.175   3.964   6.777
 9315TIP3    H127898   5.217   3.960   6.865
 9315TIP3    H227899   5.242   4.016   6.727
 9316TIP3   OH227900   5.356   4.120   6.639
 9316TIP3    H127901   5.426   4.066   6.599
 9316TIP3    H227902   5.409   4.176   6.700
 9317TIP3   OH227903   6.154   2.473   6.736
 9317TIP3    H127904   6.065   2.459   6.699
 9317TIP3    H227905   6.191   2.382   6.728
 9318TIP3   OH227906   4.411   3.979   6.662
 9318TIP3    H127907   4.320   4.011   6.643
 9318TIP3    H227908   4.426   4.021   6.748
 9319TIP3   OH227909   4.649   3.958   6.525
 9319TIP3    H127910   4.560   3.968   6.567
 9319TIP3    H227911   4.630   3.986   6.434
 9320TIP3   OH227912   5.074   3.980   6.321
 9320TIP3    H127913   5.002   3.997   6.258
 9320TIP3    H227914   5.084   4.068   6.363
 9321TIP3   OH227915   5.344   3.919   6.374
 9321TIP3    H127916   5.250   3.938   6.354
 9321TIP3    H227917   5.390   3.991   6.329
 9322TIP3   OH227918   5.543   4.108   6.283
 9322TIP3    H127919   5.533   4.193   6.235
 9322TIP3    H227920   5.574   4.048   6.212
 9323TIP3   OH227921   4.324   3.768   6.408
 9323TIP3    H127922   4.350   3.738   6.497
 9323TIP3    H227923   4.396   3.725   6.356
 9324TIP3   OH227924   4.522   3.642   6.269
 9324TIP3    H127925   4.534   3.557   6.318
 9324TIP3    H227926   4.614   3.676   6.268
 9325TIP3   OH227927   4.790   3.731   6.277
 9325TIP3    H127928   4.817   3.637   6.270
 9325TIP3    H227929   4.842   3.755   6.357
 9326TIP3   OH227930   5.356   2.387   6.354
 9326TIP3    H127931   5.317   2.315   6.407
 9326TIP3    H227932   5.434   2.345   6.313
 9327TIP3   OH227933   5.875   2.271   6.257
 9327TIP3    H127934   5.912   2.323   6.182
 9327TIP3    H227935   5.781   2.294   6.253
 9328TIP3   OH227936   5.975   2.368   6.022
 9328TIP3    H127937   6.050   2.316   5.987
 9328TIP3    H227938   6.010   2.460   6.008
 9329TIP3   OH227939   4.606   2.096   6.368
 9329TIP3    H127940   4.514   2.063   6.374
 9329TIP3    H227941   4.654   2.010   6.365
 9330TIP3   OH227942   4.397   1.971   6.025
 9330TIP3    H127943   4.425   2.028   5.951
 9330TIP3    H227944   4.369   2.038   6.091
 9331TIP3   OH227945   5.055   2.129   6.254
 9331TIP3    H127946   5.109   2.175   6.188
 9331TIP3    H227947   5.087   2.169   6.337
 9332TIP3   OH227948   5.590   2.278   6.235
 9332TIP3    H127949   5.599   2.235   6.150
 9332TIP3    H227950   5.583   2.201   6.296
 9333TIP3   OH227951   5.629   2.206   5.800
 9333TIP3    H127952   5.544   2.249   5.822
 9333TIP3    H227953   5.616   2.118   5.843
 9334TIP3   OH227954   4.110   3.548   5.791
 9334TIP3    H127955   4.024   3.515   5.761
 9334TIP3    H227956   4.103   3.641   5.762
 9335TIP3   OH227957   4.519   2.128   5.779
 9335TIP3    H127958   4.565   2.063   5.723
 9335TIP3    H227959   4.594   2.180   5.815
 9336TIP3   OH227960   5.024   2.308   5.880
 9336TIP3    H127961   5.083   2.261   5.941
 9336TIP3    H227962   5.044   2.401   5.907
 9337TIP3   OH227963   4.887   3.725   5.384
 9337TIP3    H127964   4.974   3.749   5.347
 9337TIP3    H227965   4.864   3.652   5.322
 9338TIP3   OH227966   5.606   3.851   5.476
 9338TIP3    H127967   5.597   3.753   5.467
 9338TIP3    H227968   5.558   3.881   5.397
 9339TIP3   OH227969   4.815   2.372   7.259
 9339TIP3    H127970   4.778   2.303   7.319
 9339TIP3    H227971   4.908   2.374   7.290
 9340TIP3   OH227972   5.066   2.379   7.381
 9340TIP3    H127973   5.150   2.350   7.343
 9340TIP3    H227974   5.051   2.310   7.449
 9341TIP3   OH227975   4.186   3.562   5.434
 9341TIP3    H127976   4.189   3.578   5.529
 9341TIP3    H227977   4.273   3.518   5.417
 9342TIP3   OH227978   5.893   2.444   7.165
 9342TIP3    H127979   5.910   2.415   7.257
 9342TIP3    H227980   5.983   2.440   7.126
 9343TIP3   OH227981   5.825   3.990   6.661
 9343TIP3    H127982   5.746   3.962   6.609
 9343TIP3    H227983   5.806   4.086   6.670
 9344TIP3   OH227984   7.099   3.363   5.421
 9344TIP3    H127985   7.068   3.454   5.405
 9344TIP3    H227986   7.021   3.313   5.395
 9345TIP3   OH227987   7.090   3.365   5.818
 9345TIP3    H127988   7.132   3.350   5.905
 9345TIP3    H227989   7.052   3.277   5.799
 9346TIP3   OH227990   6.389   3.254   6.177
 9346TIP3    H127991   6.418   3.184   6.239
 9346TIP3    H227992   6.469   3.308   6.172
 9347TIP3   OH227993   7.342   3.669   5.492
 9347TIP3    H127994   7.329   3.606   5.564
 9347TIP3    H227995   7.370   3.749   5.542
 9348TIP3   OH227996   6.367   3.668   5.888
 9348TIP3    H127997   6.359   3.570   5.891
 9348TIP3    H227998   6.463   3.679   5.892
 9349TIP3   OH227999   6.073   2.868   5.672
 9349TIP3    H128000   6.027   2.950   5.697
 9349TIP3    H228001   6.001   2.819   5.629
 9350TIP3   OH228002   6.128   3.157   5.862
 9350TIP3    H128003   6.178   3.079   5.894
 9350TIP3    H228004   6.195   3.203   5.809
 9351TIP3   OH228005   6.990   4.124   5.510
 9351TIP3    H128006   7.033   4.052   5.459
 9351TIP3    H228007   6.994   4.088   5.600
 9352TIP3   OH228008   6.893   3.591   5.857
 9352TIP3    H128009   6.938   3.513   5.821
 9352TIP3    H228010   6.972   3.642   5.883
 9353TIP3   OH228011   7.893   2.916   5.857
 9353TIP3    H128012   7.923   3.004   5.887
 9353TIP3    H228013   7.924   2.917   5.764
 9354TIP3   OH228014   7.304   3.091   5.883
 9354TIP3    H128015   7.349   3.007   5.906
 9354TIP3    H228016   7.271   3.071   5.793
 9355TIP3   OH228017   6.649   2.751   5.851
 9355TIP3    H128018   6.630   2.824   5.788
 9355TIP3    H228019   6.599   2.678   5.809
 9356TIP3   OH228020   7.345   2.842   5.471
 9356TIP3    H128021   7.414   2.830   5.540
 9356TIP3    H228022   7.399   2.877   5.398
 9357TIP3   OH228023   6.279   2.952   5.960
 9357TIP3    H128024   6.361   2.934   6.009
 9357TIP3    H228025   6.295   2.897   5.881
 9358TIP3   OH228026   6.717   3.149   5.759
 9358TIP3    H128027   6.812   3.127   5.770
 9358TIP3    H228028   6.680   3.065   5.726
 9359TIP3   OH228029   7.978   3.121   6.035
 9359TIP3    H128030   7.905   3.177   6.002
 9359TIP3    H228031   7.938   3.095   6.121
 9360TIP3   OH228032   6.641   2.735   6.288
 9360TIP3    H128033   6.583   2.772   6.220
 9360TIP3    H228034   6.587   2.752   6.368
 9361TIP3   OH228035   6.979   3.583   5.296
 9361TIP3    H128036   6.943   3.574   5.207
 9361TIP3    H228037   6.938   3.667   5.324
 9362TIP3   OH228038   6.746   3.511   6.075
 9362TIP3    H128039   6.690   3.583   6.111
 9362TIP3    H228040   6.794   3.557   6.002
 9363TIP3   OH228041   7.541   2.853   5.657
 9363TIP3    H128042   7.521   2.819   5.745
 9363TIP3    H228043   7.592   2.934   5.680
 9364TIP3   OH228044   6.514   2.849   6.070
 9364TIP3    H128045   6.575   2.923   6.095
 9364TIP3    H228046   6.565   2.810   5.995
 9365TIP3   OH228047   6.578   3.711   6.177
 9365TIP3    H128048   6.555   3.801   6.146
 9365TIP3    H228049   6.499   3.692   6.232
 9366TIP3   OH228050   5.965   3.398   5.414
 9366TIP3    H128051   5.923   3.430   5.332
 9366TIP3    H228052   5.998   3.483   5.452
 9367TIP3   OH228053   7.395   3.895   5.638
 9367TIP3    H128054   7.308   3.896   5.685
 9367TIP3    H228055   7.396   3.986   5.600
 9368TIP3   OH228056   7.696   2.824   6.027
 9368TIP3    H128057   7.609   2.837   5.987
 9368TIP3    H228058   7.757   2.855   5.956
 9369TIP3   OH228059   6.985   2.447   6.000
 9369TIP3    H128060   6.972   2.353   6.024
 9369TIP3    H228061   6.910   2.488   6.049
 9370TIP3   OH228062   7.101   3.951   5.319
 9370TIP3    H128063   7.155   3.870   5.304
 9370TIP3    H228064   7.163   4.018   5.284
 9371TIP3   OH228065   7.253   3.738   5.243
 9371TIP3    H128066   7.218   3.654   5.212
 9371TIP3    H228067   7.294   3.711   5.328
 9372TIP3   OH228068   7.629   3.806   6.011
 9372TIP3    H128069   7.617   3.733   5.947
 9372TIP3    H228070   7.601   3.884   5.958
 9373TIP3   OH228071   6.923   3.214   5.260
 9373TIP3    H128072   6.847   3.270   5.237
 9373TIP3    H228073   6.974   3.213   5.177
 9374TIP3   OH228074   6.883   3.011   4.964
 9374TIP3    H128075   6.949   3.059   5.017
 9374TIP3    H228076   6.941   2.947   4.918
 9375TIP3   OH228077   7.819   3.454   5.833
 9375TIP3    H128078   7.737   3.507   5.842
 9375TIP3    H228079   7.845   3.480   5.742
 9376TIP3   OH228080   7.276   3.299   5.224
 9376TIP3    H128081   7.222   3.322   5.304
 9376TIP3    H228082   7.360   3.275   5.267
 9377TIP3   OH228083   7.507   3.334   6.154
 9377TIP3    H128084   7.504   3.418   6.203
 9377TIP3    H228085   7.424   3.340   6.103
 9378TIP3   OH228086   6.509   3.294   5.646
 9378TIP3    H128087   6.471   3.234   5.579
 9378TIP3    H228088   6.584   3.241   5.680
 9379TIP3   OH228089   6.640   3.710   5.792
 9379TIP3    H128090   6.624   3.671   5.705
 9379TIP3    H228091   6.729   3.674   5.814
 9380TIP3   OH228092   6.635   3.270   5.999
 9380TIP3    H128093   6.673   3.242   5.914
 9380TIP3    H228094   6.683   3.354   6.017
 9381TIP3   OH228095   7.160   3.904   5.775
 9381TIP3    H128096   7.159   3.988   5.825
 9381TIP3    H228097   7.148   3.836   5.844
 9382TIP3   OH228098   6.783   3.824   6.326
 9382TIP3    H128099   6.720   3.884   6.372
 9382TIP3    H228100   6.720   3.770   6.274
 9383TIP3   OH228101   7.107   3.164   5.055
 9383TIP3    H128102   7.170   3.220   5.105
 9383TIP3    H228103   7.135   3.182   4.962
 9384TIP3   OH228104   6.538   3.376   6.433
 9384TIP3    H128105   6.543   3.466   6.471
 9384TIP3    H228106   6.443   3.356   6.449
 9385TIP3   OH228107   6.858   3.833   5.307
 9385TIP3    H128108   6.945   3.877   5.320
 9385TIP3    H228109   6.798   3.909   5.304
 9386TIP3   OH228110   6.574   3.984   6.412
 9386TIP3    H128111   6.538   3.993   6.322
 9386TIP3    H228112   6.493   3.966   6.465
 9387TIP3   OH228113   7.606   2.412   5.112
 9387TIP3    H128114   7.528   2.437   5.167
 9387TIP3    H228115   7.624   2.496   5.065
 9388TIP3   OH228116   6.379   3.139   5.439
 9388TIP3    H128117   6.300   3.179   5.395
 9388TIP3    H228118   6.346   3.052   5.464
 9389TIP3   OH228119   7.433   3.761   4.655
 9389TIP3    H128120   7.441   3.858   4.640
 9389TIP3    H228121   7.525   3.732   4.641
 9390TIP3   OH228122   6.152   3.524   6.360
 9390TIP3    H128123   6.084   3.502   6.293
 9390TIP3    H228124   6.191   3.437   6.381
 9391TIP3   OH228125   6.010   3.718   5.985
 9391TIP3    H128126   6.106   3.709   5.980
 9391TIP3    H228127   6.002   3.792   6.048
 9392TIP3   OH228128   7.884   4.147   6.057
 9392TIP3    H128129   7.865   4.057   6.075
 9392TIP3    H228130   7.801   4.193   6.081
 9393TIP3   OH228131   6.970   3.956   6.177
 9393TIP3    H128132   6.968   4.047   6.213
 9393TIP3    H228133   6.904   3.911   6.235
 9394TIP3   OH228134   6.737   4.076   5.133
 9394TIP3    H128135   6.695   4.077   5.045
 9394TIP3    H228136   6.711   4.162   5.170
 9395TIP3   OH228137   6.179   3.927   5.522
 9395TIP3    H128138   6.226   3.921   5.609
 9395TIP3    H228139   6.131   3.843   5.522
 9396TIP3   OH228140   6.936   3.975   4.773
 9396TIP3    H128141   6.998   3.908   4.737
 9396TIP3    H228142   6.975   3.992   4.861
 9397TIP3   OH228143   6.991   4.032   5.039
 9397TIP3    H128144   6.906   4.040   5.087
 9397TIP3    H228145   7.051   4.007   5.112
 9398TIP3   OH228146   7.737   3.283   6.332
 9398TIP3    H128147   7.662   3.293   6.271
 9398TIP3    H228148   7.767   3.192   6.312
 9399TIP3   OH228149   6.357   3.706   6.338
 9399TIP3    H128150   6.405   3.693   6.422
 9399TIP3    H228151   6.282   3.643   6.349
 9400TIP3   OH228152   6.754   2.529   6.135
 9400TIP3    H128153   6.666   2.500   6.104
 9400TIP3    H228154   6.727   2.609   6.186
 9401TIP3   OH228155   7.281   2.652   6.328
 9401TIP3    H128156   7.343   2.628   6.398
 9401TIP3    H228157   7.194   2.630   6.368
 9402TIP3   OH228158   7.514   3.069   6.251
 9402TIP3    H128159   7.472   3.071   6.339
 9402TIP3    H228160   7.497   3.158   6.215
 9403TIP3   OH228161   7.184   3.200   4.799
 9403TIP3    H128162   7.155   3.175   4.710
 9403TIP3    H228163   7.273   3.236   4.779
 9404TIP3   OH228164   6.899   2.576   5.105
 9404TIP3    H128165   6.865   2.572   5.197
 9404TIP3    H228166   6.860   2.494   5.070
 9405TIP3   OH228167   6.687   3.048   6.149
 9405TIP3    H128168   6.639   3.068   6.232
 9405TIP3    H228169   6.670   3.130   6.098
 9406TIP3   OH228170   6.571   2.933   5.664
 9406TIP3    H128171   6.480   2.904   5.686
 9406TIP3    H228172   6.582   2.889   5.577
 9407TIP3   OH228173   7.062   3.014   5.396
 9407TIP3    H128174   7.013   3.086   5.350
 9407TIP3    H228175   7.119   2.979   5.324
 9408TIP3   OH228176   7.238   3.294   6.467
 9408TIP3    H128177   7.212   3.224   6.531
 9408TIP3    H228178   7.329   3.314   6.498
 9409TIP3   OH228179   7.216   3.037   5.630
 9409TIP3    H128180   7.153   3.064   5.560
 9409TIP3    H228181   7.254   2.960   5.584
 9410TIP3   OH228182   6.508   3.072   6.359
 9410TIP3    H128183   6.544   3.135   6.424
 9410TIP3    H228184   6.497   2.991   6.412
 9411TIP3   OH228185   6.558   2.553   5.069
 9411TIP3    H128186   6.547   2.551   5.166
 9411TIP3    H228187   6.480   2.606   5.043
 9412TIP3   OH228188   6.103   2.591   5.940
 9412TIP3    H128189   6.174   2.626   5.997
 9412TIP3    H228190   6.149   2.563   5.860
 9413TIP3   OH228191   6.059   2.572   5.458
 9413TIP3    H128192   6.107   2.608   5.380
 9413TIP3    H228193   5.999   2.647   5.477
 9414TIP3   OH228194   7.224   3.288   6.048
 9414TIP3    H128195   7.259   3.217   5.988
 9414TIP3    H228196   7.193   3.233   6.123
 9415TIP3   OH228197   6.906   2.753   5.723
 9415TIP3    H128198   6.829   2.752   5.783
 9415TIP3    H228199   6.980   2.738   5.785
 9416TIP3   OH228200   6.334   2.811   5.730
 9416TIP3    H128201   6.240   2.818   5.701
 9416TIP3    H228202   6.358   2.719   5.710
 9417TIP3   OH228203   6.594   2.801   5.426
 9417TIP3    H128204   6.689   2.817   5.407
 9417TIP3    H228205   6.549   2.824   5.341
 9418TIP3   OH228206   7.392   2.831   5.926
 9418TIP3    H128207   7.362   2.845   6.019
 9418TIP3    H228208   7.325   2.769   5.894
 9419TIP3   OH228209   6.452   2.843   5.197
 9419TIP3    H128210   6.382   2.795   5.150
 9419TIP3    H228211   6.504   2.879   5.122
 9420TIP3   OH228212   7.552   4.522   6.138
 9420TIP3    H128213   7.560   4.504   6.042
 9420TIP3    H228214   7.639   4.556   6.162
 9421TIP3   OH228215   6.520   3.628   6.565
 9421TIP3    H128216   6.600   3.657   6.613
 9421TIP3    H228217   6.455   3.627   6.638
 9422TIP3   OH228218   6.982   3.086   5.822
 9422TIP3    H128219   7.056   3.046   5.775
 9422TIP3    H228220   6.984   3.039   5.908
 9423TIP3   OH228221   6.495   2.567   5.711
 9423TIP3    H128222   6.458   2.492   5.762
 9423TIP3    H228223   6.544   2.520   5.642
 9424TIP3   OH228224   6.956   2.985   6.111
 9424TIP3    H128225   6.866   3.020   6.127
 9424TIP3    H228226   7.014   3.047   6.161
 9425TIP3   OH228227   6.692   3.371   5.198
 9425TIP3    H128228   6.622   3.303   5.191
 9425TIP3    H228229   6.674   3.405   5.290
 9426TIP3   OH228230   7.589   3.603   5.830
 9426TIP3    H128231   7.612   3.661   5.754
 9426TIP3    H228232   7.505   3.563   5.800
 9427TIP3   OH228233   7.150   2.677   5.077
 9427TIP3    H128234   7.055   2.657   5.087
 9427TIP3    H228235   7.156   2.772   5.102
 9428TIP3   OH228236   7.080   3.680   6.210
 9428TIP3    H128237   7.135   3.674   6.289
 9428TIP3    H228238   7.057   3.774   6.207
 9429TIP3   OH228239   7.219   2.931   5.178
 9429TIP3    H128240   7.315   2.934   5.194
 9429TIP3    H228241   7.204   3.012   5.126
 9430TIP3   OH228242   6.388   3.390   5.878
 9430TIP3    H128243   6.429   3.362   5.794
 9430TIP3    H228244   6.440   3.340   5.943
 9431TIP3   OH228245   6.834   3.516   5.015
 9431TIP3    H128246   6.785   3.601   5.018
 9431TIP3    H228247   6.787   3.464   5.084
 9432TIP3   OH228248   6.273   3.311   6.497
 9432TIP3    H128249   6.290   3.298   6.593
 9432TIP3    H228250   6.204   3.245   6.482
 9433TIP3   OH228251   7.000   3.430   6.516
 9433TIP3    H128252   6.939   3.370   6.471
 9433TIP3    H228253   7.086   3.395   6.485
 9434TIP3   OH228254   7.245   3.929   6.117
 9434TIP3    H128255   7.150   3.947   6.121
 9434TIP3    H228256   7.279   3.997   6.179
 9435TIP3   OH228257   7.655   3.024   5.007
 9435TIP3    H128258   7.590   2.982   4.946
 9435TIP3    H228259   7.652   3.114   4.968
 9436TIP3   OH228260   7.876   3.878   6.084
 9436TIP3    H128261   7.779   3.870   6.076
 9436TIP3    H228262   7.902   3.861   5.991
 9437TIP3   OH228263   7.356   3.842   4.918
 9437TIP3    H128264   7.340   3.774   4.985
 9437TIP3    H228265   7.378   3.791   4.839
 9438TIP3   OH228266   7.357   3.471   5.742
 9438TIP3    H128267   7.264   3.448   5.759
 9438TIP3    H228268   7.390   3.389   5.701
 9439TIP3   OH228269   6.490   3.696   5.500
 9439TIP3    H128270   6.482   3.780   5.451
 9439TIP3    H228271   6.400   3.683   5.532
 9440TIP3   OH228272   6.056   2.999   5.218
 9440TIP3    H128273   6.099   3.083   5.242
 9440TIP3    H228274   5.978   3.001   5.278
 9441TIP3   OH228275   6.616   3.456   5.442
 9441TIP3    H128276   6.583   3.546   5.464
 9441TIP3    H228277   6.588   3.406   5.521
 9442TIP3   OH228278   6.763   4.036   5.975
 9442TIP3    H128279   6.806   4.110   5.926
 9442TIP3    H228280   6.838   4.000   6.025
 9443TIP3   OH228281   6.404   3.938   5.357
 9443TIP3    H128282   6.321   3.946   5.407
 9443TIP3    H228283   6.438   4.030   5.363
 9444TIP3   OH228284   7.140   3.673   5.941
 9444TIP3    H128285   7.126   3.670   6.038
 9444TIP3    H228286   7.226   3.630   5.932
 9445TIP3   OH228287   7.123   3.568   4.827
 9445TIP3    H128288   7.187   3.543   4.898
 9445TIP3    H228289   7.041   3.541   4.871
 9446TIP3   OH228290   7.378   4.244   6.005
 9446TIP3    H128291   7.330   4.184   5.946
 9446TIP3    H228292   7.442   4.288   5.944
 9447TIP3   OH228293   7.460   4.039   4.637
 9447TIP3    H128294   7.502   4.116   4.594
 9447TIP3    H228295   7.379   4.082   4.671
 9448TIP3   OH228296   6.477   2.816   6.499
 9448TIP3    H128297   6.380   2.817   6.512
 9448TIP3    H228298   6.506   2.765   6.576
 9449TIP3   OH228299   7.288   3.496   5.030
 9449TIP3    H128300   7.278   3.431   5.103
 9449TIP3    H228301   7.385   3.495   5.019
 9450TIP3   OH228302   6.197   3.899   6.133
 9450TIP3    H128303   6.253   3.832   6.177
 9450TIP3    H228304   6.219   3.978   6.183
 9451TIP3   OH228305   6.422   3.556   5.067
 9451TIP3    H128306   6.488   3.519   5.128
 9451TIP3    H228307   6.424   3.651   5.093
 9452TIP3   OH228308   6.159   3.242   5.299
 9452TIP3    H128309   6.092   3.286   5.356
 9452TIP3    H228310   6.170   3.311   5.231
 9453TIP3   OH228311   7.318   2.886   6.185
 9453TIP3    H128312   7.402   2.926   6.213
 9453TIP3    H228313   7.312   2.805   6.240
 9454TIP3   OH228314   7.199   2.628   5.361
 9454TIP3    H128315   7.189   2.650   5.267
 9454TIP3    H228316   7.242   2.709   5.397
 9455TIP3   OH228317   6.684   3.746   4.994
 9455TIP3    H128318   6.602   3.764   5.044
 9455TIP3    H228319   6.732   3.829   5.011
 9456TIP3   OH228320   6.876   2.817   5.457
 9456TIP3    H128321   6.942   2.888   5.441
 9456TIP3    H228322   6.886   2.803   5.554
 9457TIP3   OH228323   7.155   3.125   6.255
 9457TIP3    H128324   7.185   3.174   6.334
 9457TIP3    H228325   7.208   3.043   6.258
 9458TIP3   OH228326   7.026   2.526   5.553
 9458TIP3    H128327   7.029   2.599   5.617
 9458TIP3    H228328   7.089   2.560   5.485
 9459TIP3   OH228329   6.447   3.824   5.110
 9459TIP3    H128330   6.417   3.898   5.053
 9459TIP3    H228331   6.432   3.863   5.200
 9460TIP3   OH228332   6.543   2.539   5.344
 9460TIP3    H128333   6.539   2.628   5.386
 9460TIP3    H228334   6.639   2.522   5.352
 9461TIP3   OH228335   7.782   3.029   6.214
 9461TIP3    H128336   7.686   3.036   6.231
 9461TIP3    H228337   7.782   2.945   6.166
 9462TIP3   OH228338   7.443   3.225   5.630
 9462TIP3    H128339   7.368   3.165   5.646
 9462TIP3    H228340   7.515   3.180   5.679
 9463TIP3   OH228341   6.164   3.441   5.102
 9463TIP3    H128342   6.236   3.506   5.111
 9463TIP3    H228343   6.205   3.383   5.034
 9464TIP3   OH228344   6.101   2.727   5.234
 9464TIP3    H128345   6.103   2.825   5.235
 9464TIP3    H228346   6.020   2.709   5.184
 9465TIP3   OH228347   7.420   4.154   5.561
 9465TIP3    H128348   7.376   4.218   5.502
 9465TIP3    H228349   7.511   4.189   5.563
 9466TIP3   OH228350   6.490   2.448   6.102
 9466TIP3    H128351   6.461   2.413   6.016
 9466TIP3    H228352   6.480   2.370   6.161
 9467TIP3   OH228353   6.020   3.663   5.480
 9467TIP3    H128354   5.969   3.695   5.556
 9467TIP3    H228355   5.979   3.711   5.405
 9468TIP3   OH228356   6.194   4.222   6.558
 9468TIP3    H128357   6.279   4.228   6.607
 9468TIP3    H228358   6.180   4.126   6.558
 9469TIP3   OH228359   6.658   4.166   6.606
 9469TIP3    H128360   6.755   4.162   6.612
 9469TIP3    H228361   6.641   4.102   6.534
 9470TIP3   OH228362   6.590   3.676   4.742
 9470TIP3    H128363   6.632   3.703   4.827
 9470TIP3    H228364   6.666   3.677   4.682
 9471TIP3   OH228365   7.301   4.087   6.340
 9471TIP3    H128366   7.299   4.013   6.405
 9471TIP3    H228367   7.381   4.136   6.368
 9472TIP3   OH228368   7.081   3.779   4.642
 9472TIP3    H128369   7.124   3.720   4.707
 9472TIP3    H228370   7.144   3.777   4.567
 9473TIP3   OH228371   6.317   3.619   6.758
 9473TIP3    H128372   6.333   3.523   6.766
 9473TIP3    H228373   6.231   3.621   6.712
 9474TIP3   OH228374   6.306   3.265   4.953
 9474TIP3    H128375   6.358   3.233   5.029
 9474TIP3    H228376   6.367   3.251   4.879
 9475TIP3   OH228377   6.923   3.706   6.534
 9475TIP3    H128378   6.887   3.730   6.446
 9475TIP3    H228379   6.956   3.615   6.519
 9476TIP3   OH228380   6.769   3.445   4.759
 9476TIP3    H128381   6.799   3.466   4.850
 9476TIP3    H228382   6.800   3.352   4.751
 9477TIP3   OH228383   7.411   3.712   6.146
 9477TIP3    H128384   7.491   3.749   6.103
 9477TIP3    H228385   7.348   3.786   6.130
 9478TIP3   OH228386   6.438   3.356   6.743
 9478TIP3    H128387   6.518   3.310   6.713
 9478TIP3    H228388   6.467   3.389   6.831
 9479TIP3   OH228389   6.493   3.177   5.164
 9479TIP3    H128390   6.468   3.145   5.253
 9479TIP3    H228391   6.535   3.097   5.126
 9480TIP3   OH228392   6.770   3.231   6.400
 9480TIP3    H128393   6.694   3.294   6.402
 9480TIP3    H228394   6.823   3.267   6.325
 9481TIP3   OH228395   6.608   2.972   5.011
 9481TIP3    H128396   6.586   2.976   4.916
 9481TIP3    H228397   6.706   2.970   5.007
 9482TIP3   OH228398   7.293   3.632   6.536
 9482TIP3    H128399   7.363   3.592   6.482
 9482TIP3    H228400   7.288   3.571   6.612
 9483TIP3   OH228401   7.417   3.293   4.685
 9483TIP3    H128402   7.404   3.250   4.598
 9483TIP3    H228403   7.383   3.383   4.664
 9484TIP3   OH228404   6.890   3.024   6.527
 9484TIP3    H128405   6.895   2.948   6.466
 9484TIP3    H228406   6.849   3.093   6.470
 9485TIP3   OH228407   6.900   2.812   6.337
 9485TIP3    H128408   6.929   2.854   6.253
 9485TIP3    H228409   6.807   2.790   6.317
 9486TIP3   OH228410   6.918   3.343   6.208
 9486TIP3    H128411   7.007   3.364   6.178
 9486TIP3    H228412   6.864   3.410   6.162
 9487TIP3   OH228413   7.495   3.315   6.564
 9487TIP3    H128414   7.521   3.223   6.549
 9487TIP3    H228415   7.573   3.364   6.531
 9488TIP3   OH228416   7.541   3.575   6.339
 9488TIP3    H128417   7.486   3.627   6.277
 9488TIP3    H228418   7.630   3.593   6.303
 9489TIP3   OH228419   6.771   3.130   6.760
 9489TIP3    H128420   6.705   3.060   6.779
 9489TIP3    H228421   6.804   3.102   6.673
 9490TIP3   OH228422   7.029   2.572   6.410
 9490TIP3    H128423   6.978   2.653   6.387
 9490TIP3    H228424   6.962   2.502   6.396
 9491TIP3   OH228425   7.152   3.078   6.604
 9491TIP3    H128426   7.159   3.058   6.699
 9491TIP3    H228427   7.059   3.053   6.588
 9492TIP3   OH228428   7.404   3.033   6.500
 9492TIP3    H128429   7.316   3.048   6.541
 9492TIP3    H228430   7.439   2.965   6.560
 9493TIP3   OH228431   6.611   2.909   6.818
 9493TIP3    H128432   6.614   2.817   6.786
 9493TIP3    H228433   6.647   2.899   6.908
 9494TIP3   OH228434   7.109   2.578   6.674
 9494TIP3    H128435   7.163   2.498   6.685
 9494TIP3    H228436   7.081   2.571   6.580
 9495TIP3   OH228437   7.178   2.799   6.820
 9495TIP3    H128438   7.161   2.722   6.761
 9495TIP3    H228439   7.097   2.853   6.807
 9496TIP3   OH228440   6.412   4.019   4.918
 9496TIP3    H128441   6.509   4.025   4.907
 9496TIP3    H228442   6.384   4.079   4.846
 9497TIP3   OH228443   5.891   3.412   5.128
 9497TIP3    H128444   5.987   3.430   5.119
 9497TIP3    H228445   5.885   3.322   5.090
 9498TIP3   OH228446   5.812   4.018   5.557
 9498TIP3    H128447   5.746   3.959   5.516
 9498TIP3    H228448   5.855   3.957   5.620
 9499TIP3   OH228449   5.946   3.859   5.740
 9499TIP3    H128450   5.933   3.794   5.812
 9499TIP3    H228451   5.998   3.926   5.787
 9500TIP3   OH228452   7.675   4.259   5.572
 9500TIP3    H128453   7.656   4.305   5.658
 9500TIP3    H228454   7.718   4.330   5.522
 9501TIP3   OH228455   7.753   3.973   6.406
 9501TIP3    H128456   7.671   3.982   6.458
 9501TIP3    H228457   7.787   4.064   6.407
 9502TIP3   OH228458   7.562   3.484   5.009
 9502TIP3    H128459   7.631   3.548   4.980
 9502TIP3    H228460   7.606   3.445   5.089
 9503TIP3   OH228461   7.682   3.347   5.213
 9503TIP3    H128462   7.618   3.307   5.276
 9503TIP3    H228463   7.750   3.384   5.273
 9504TIP3   OH228464   7.739   3.748   5.646
 9504TIP3    H128465   7.791   3.676   5.606
 9504TIP3    H228466   7.739   3.816   5.577
 9505TIP3   OH228467   7.561   4.013   5.848
 9505TIP3    H128468   7.576   4.108   5.829
 9505TIP3    H228469   7.515   3.982   5.768
 9506TIP3   OH228470   7.623   3.254   4.865
 9506TIP3    H128471   7.552   3.257   4.797
 9506TIP3    H228472   7.598   3.332   4.918
 9507TIP3   OH228473   7.488   2.928   4.817
 9507TIP3    H128474   7.467   2.962   4.729
 9507TIP3    H228475   7.466   2.833   4.807
 9508TIP3   OH228476   7.498   3.208   5.362
 9508TIP3    H128477   7.511   3.112   5.356
 9508TIP3    H228478   7.482   3.222   5.458
 9509TIP3   OH228479   6.126   3.280   6.111
 9509TIP3    H128480   6.123   3.242   6.021
 9509TIP3    H228481   6.223   3.280   6.128
 9510TIP3   OH228482   7.793   3.630   6.234
 9510TIP3    H128483   7.852   3.556   6.211
 9510TIP3    H228484   7.806   3.693   6.161
 9511TIP3   OH228485   7.956   3.410   6.222
 9511TIP3    H128486   7.881   3.361   6.262
 9511TIP3    H228487   8.025   3.391   6.288
 9512TIP3   OH228488   7.438   2.662   4.790
 9512TIP3    H128489   7.511   2.630   4.846
 9512TIP3    H228490   7.364   2.602   4.810
 9513TIP3   OH228491   7.498   2.923   5.250
 9513TIP3    H128492   7.541   2.834   5.263
 9513TIP3    H228493   7.557   2.958   5.180
 9514TIP3   OH228494   7.651   3.090   5.749
 9514TIP3    H128495   7.737   3.116   5.708
 9514TIP3    H228496   7.667   3.127   5.838
 9515TIP3   OH228497   7.728   3.239   5.972
 9515TIP3    H128498   7.657   3.275   6.027
 9515TIP3    H228499   7.763   3.320   5.928
 9516TIP3   OH228500   6.347   2.964   6.780
 9516TIP3    H128501   6.444   2.960   6.788
 9516TIP3    H228502   6.323   2.877   6.818
 9517TIP3   OH228503   7.604   2.674   5.292
 9517TIP3    H128504   7.653   2.663   5.376
 9517TIP3    H228505   7.541   2.600   5.298
 9518TIP3   OH228506   6.307   2.658   6.114
 9518TIP3    H128507   6.368   2.582   6.122
 9518TIP3    H228508   6.371   2.732   6.104
 9519TIP3   OH228509   6.105   2.928   6.184
 9519TIP3    H128510   6.157   2.929   6.101
 9519TIP3    H228511   6.135   3.009   6.227
 9520TIP3   OH228512   7.679   2.607   4.925
 9520TIP3    H128513   7.730   2.536   4.882
 9520TIP3    H228514   7.742   2.682   4.923
 9521TIP3   OH228515   6.095   2.428   5.685
 9521TIP3    H128516   6.004   2.424   5.719
 9521TIP3    H228517   6.086   2.490   5.609
 9522TIP3   OH228518   7.241   4.140   5.189
 9522TIP3    H128519   7.305   4.137   5.114
 9522TIP3    H228520   7.287   4.199   5.252
 9523TIP3   OH228521   6.314   2.511   6.501
 9523TIP3    H128522   6.263   2.509   6.583
 9523TIP3    H228523   6.249   2.551   6.440
 9524TIP3   OH228524   6.352   3.945   6.573
 9524TIP3    H128525   6.257   3.922   6.564
 9524TIP3    H228526   6.368   3.930   6.667
 9525TIP3   OH228527   6.536   3.980   6.124
 9525TIP3    H128528   6.490   4.058   6.086
 9525TIP3    H228529   6.623   3.993   6.080
 9526TIP3   OH228530   6.970   4.221   6.262
 9526TIP3    H128531   7.013   4.220   6.350
 9526TIP3    H228532   7.038   4.270   6.210
 9527TIP3   OH228533   7.153   4.368   6.121
 9527TIP3    H128534   7.229   4.318   6.083
 9527TIP3    H228535   7.202   4.430   6.179
 9528TIP3   OH228536   6.206   4.232   6.155
 9528TIP3    H128537   6.114   4.261   6.136
 9528TIP3    H228538   6.228   4.290   6.229
 9529TIP3   OH228539   6.442   4.211   6.011
 9529TIP3    H128540   6.354   4.222   6.054
 9529TIP3    H228541   6.424   4.244   5.921
 9530TIP3   OH228542   6.869   4.235   5.810
 9530TIP3    H128543   6.799   4.256   5.746
 9530TIP3    H228544   6.882   4.321   5.854
 9531TIP3   OH228545   7.142   4.172   5.846
 9531TIP3    H128546   7.046   4.189   5.841
 9531TIP3    H228547   7.178   4.252   5.808
 9532TIP3   OH228548   6.119   4.023   5.893
 9532TIP3    H128549   6.146   3.994   5.983
 9532TIP3    H228550   6.193   3.982   5.842
 9533TIP3   OH228551   6.318   3.899   5.755
 9533TIP3    H128552   6.331   3.815   5.805
 9533TIP3    H228553   6.410   3.934   5.756
 9534TIP3   OH228554   6.585   3.985   5.765
 9534TIP3    H128555   6.614   3.892   5.761
 9534TIP3    H228556   6.637   4.013   5.843
 9535TIP3   OH228557   7.144   2.642   5.834
 9535TIP3    H128558   7.111   2.569   5.889
 9535TIP3    H228559   7.226   2.604   5.796
 9536TIP3   OH228560   7.672   2.521   5.737
 9536TIP3    H128561   7.705   2.580   5.665
 9536TIP3    H228562   7.581   2.554   5.748
 9537TIP3   OH228563   7.763   2.640   5.511
 9537TIP3    H128564   7.835   2.586   5.472
 9537TIP3    H228565   7.797   2.730   5.491
 9538TIP3   OH228566   6.402   2.352   5.856
 9538TIP3    H128567   6.310   2.319   5.862
 9538TIP3    H228568   6.451   2.267   5.852
 9539TIP3   OH228569   6.192   2.228   5.510
 9539TIP3    H128570   6.222   2.285   5.437
 9539TIP3    H228571   6.166   2.295   5.577
 9540TIP3   OH228572   6.852   2.386   5.742
 9540TIP3    H128573   6.904   2.433   5.675
 9540TIP3    H228574   6.888   2.422   5.825
 9541TIP3   OH228575   7.379   2.536   5.726
 9541TIP3    H128576   7.397   2.493   5.641
 9541TIP3    H228577   7.372   2.458   5.785
 9542TIP3   OH228578   7.416   2.469   5.300
 9542TIP3    H128579   7.331   2.512   5.322
 9542TIP3    H228580   7.401   2.379   5.338
 9543TIP3   OH228581   5.907   3.805   5.278
 9543TIP3    H128582   5.820   3.773   5.247
 9543TIP3    H228583   5.900   3.899   5.254
 9544TIP3   OH228584   6.314   2.385   5.267
 9544TIP3    H128585   6.361   2.320   5.210
 9544TIP3    H228586   6.389   2.437   5.302
 9545TIP3   OH228587   6.819   2.565   5.368
 9545TIP3    H128588   6.880   2.519   5.429
 9545TIP3    H228589   6.839   2.658   5.393
 9546TIP3   OH228590   6.678   4.004   4.857
 9546TIP3    H128591   6.773   4.010   4.831
 9546TIP3    H228592   6.644   3.949   4.785
 9547TIP3   OH228593   7.403   4.108   4.963
 9547TIP3    H128594   7.391   4.011   4.954
 9547TIP3    H228595   7.356   4.139   4.882
 9548TIP3   OH228596   6.609   2.636   6.747
 9548TIP3    H128597   6.573   2.564   6.802
 9548TIP3    H228598   6.702   2.636   6.776
 9549TIP3   OH228599   6.859   2.634   6.866
 9549TIP3    H128600   6.942   2.611   6.822
 9549TIP3    H228601   6.847   2.559   6.929
 9550TIP3   OH228602   5.963   3.827   4.930
 9550TIP3    H128603   5.969   3.845   5.025
 9550TIP3    H228604   6.051   3.787   4.911
 9551TIP3   OH228605   7.622   4.236   6.157
 9551TIP3    H128606   7.539   4.207   6.115
 9551TIP3    H228607   7.629   4.324   6.116
 9552TIP3   OH228608   8.173   3.535   5.624
 9552TIP3    H128609   8.186   3.450   5.670
 9552TIP3    H228610   8.249   3.583   5.660
 9553TIP3   OH228611   8.164   3.914   5.361
 9553TIP3    H128612   8.160   3.818   5.349
 9553TIP3    H228613   8.197   3.920   5.454
 9554TIP3   OH228614   7.863   3.124   5.159
 9554TIP3    H128615   7.817   3.208   5.179
 9554TIP3    H228616   7.791   3.076   5.114
 9555TIP3   OH228617   7.912   3.419   5.341
 9555TIP3    H128618   7.960   3.341   5.375
 9555TIP3    H228619   7.979   3.461   5.285
 9556TIP3   OH228620   8.058   3.218   5.452
 9556TIP3    H128621   8.139   3.215   5.508
 9556TIP3    H228622   8.087   3.163   5.376
 9557TIP3   OH228623   8.283   3.948   5.603
 9557TIP3    H128624   8.291   4.045   5.607
 9557TIP3    H228625   8.233   3.934   5.686
 9558TIP3   OH228626   7.763   3.657   4.902
 9558TIP3    H128627   7.725   3.686   4.817
 9558TIP3    H228628   7.797   3.742   4.938
 9559TIP3   OH228629   8.294   3.664   5.912
 9559TIP3    H128630   8.299   3.753   5.954
 9559TIP3    H228631   8.200   3.643   5.924
 9560TIP3   OH228632   8.361   4.274   5.915
 9560TIP3    H128633   8.352   4.245   5.822
 9560TIP3    H228634   8.289   4.226   5.959
 9561TIP3   OH228635   7.936   3.798   5.833
 9561TIP3    H128636   7.860   3.780   5.772
 9561TIP3    H228637   7.957   3.710   5.868
 9562TIP3   OH228638   7.794   3.984   5.475
 9562TIP3    H128639   7.889   3.994   5.488
 9562TIP3    H228640   7.759   4.057   5.529
 9563TIP3   OH228641   7.964   4.187   5.025
 9563TIP3    H128642   8.019   4.178   5.106
 9563TIP3    H228643   7.913   4.104   5.028
 9564TIP3   OH228644   8.146   3.968   5.829
 9564TIP3    H128645   8.188   3.965   5.917
 9564TIP3    H228646   8.068   3.909   5.841
 9565TIP3   OH228647   8.181   3.367   5.892
 9565TIP3    H128648   8.270   3.389   5.862
 9565TIP3    H228649   8.196   3.291   5.951
 9566TIP3   OH228650   7.886   2.854   5.405
 9566TIP3    H128651   7.932   2.885   5.486
 9566TIP3    H228652   7.960   2.824   5.351
 9567TIP3   OH228653   7.851   2.839   4.931
 9567TIP3    H128654   7.928   2.888   4.894
 9567TIP3    H228655   7.791   2.913   4.956
 9568TIP3   OH228656   8.125   3.081   5.222
 9568TIP3    H128657   8.032   3.091   5.191
 9568TIP3    H228658   8.143   2.988   5.205
 9569TIP3   OH228659   8.309   3.896   6.054
 9569TIP3    H128660   8.392   3.939   6.077
 9569TIP3    H228661   8.254   3.912   6.134
 9570TIP3   OH228662   8.188   3.636   5.363
 9570TIP3    H128663   8.274   3.593   5.347
 9570TIP3    H228664   8.169   3.603   5.453
 9571TIP3   OH228665   8.027   3.591   5.991
 9571TIP3    H128666   8.021   3.555   6.081
 9571TIP3    H228667   8.011   3.509   5.939
 9572TIP3   OH228668   8.194   3.919   4.990
 9572TIP3    H128669   8.241   3.992   4.946
 9572TIP3    H228670   8.103   3.935   4.963
 9573TIP3   OH228671   7.845   3.243   4.694
 9573TIP3    H128672   7.896   3.322   4.719
 9573TIP3    H228673   7.774   3.246   4.761
 9574TIP3   OH228674   8.151   4.217   4.822
 9574TIP3    H128675   8.084   4.215   4.893
 9574TIP3    H228676   8.193   4.304   4.835
 9575TIP3   OH228677   8.251   3.124   6.021
 9575TIP3    H128678   8.153   3.113   6.027
 9575TIP3    H228679   8.282   3.031   6.022
 9576TIP3   OH228680   8.006   4.151   5.619
 9576TIP3    H128681   8.051   4.088   5.677
 9576TIP3    H228682   7.975   4.217   5.684
 9577TIP3   OH228683   7.949   3.483   4.783
 9577TIP3    H128684   7.887   3.538   4.834
 9577TIP3    H228685   7.996   3.548   4.731
 9578TIP3   OH228686   8.157   4.111   4.565
 9578TIP3    H128687   8.222   4.172   4.531
 9578TIP3    H228688   8.153   4.138   4.660
 9579TIP3   OH228689   7.967   3.721   4.583
 9579TIP3    H128690   8.007   3.802   4.619
 9579TIP3    H228691   8.044   3.679   4.543
 9580TIP3   OH228692   7.817   2.969   4.617
 9580TIP3    H128693   7.850   3.054   4.652
 9580TIP3    H228694   7.808   2.919   4.699
 9581TIP3   OH228695   7.822   3.923   4.968
 9581TIP3    H128696   7.766   3.948   5.044
 9581TIP3    H228697   7.778   3.970   4.893
 9582TIP3   OH228698   7.953   4.452   6.105
 9582TIP3    H128699   8.034   4.420   6.130
 9582TIP3    H228700   7.963   4.499   6.014
 9583TIP3   OH228701   8.099   3.873   6.241
 9583TIP3    H128702   8.105   3.777   6.250
 9583TIP3    H228703   8.016   3.882   6.188
 9584TIP3   OH228704   8.202   3.607   6.225
 9584TIP3    H128705   8.211   3.573   6.135
 9584TIP3    H228706   8.291   3.645   6.238
 9585TIP3   OH228707   7.694   3.671   4.619
 9585TIP3    H128708   7.789   3.688   4.604
 9585TIP3    H228709   7.686   3.580   4.582
 9586TIP3   OH228710   7.608   4.276   5.044
 9586TIP3    H128711   7.542   4.216   5.004
 9586TIP3    H228712   7.650   4.216   5.109
 9587TIP3   OH228713   7.737   4.117   5.231
 9587TIP3    H128714   7.726   4.053   5.303
 9587TIP3    H228715   7.791   4.184   5.277
 9588TIP3   OH228716   7.902   3.539   5.586
 9588TIP3    H128717   7.895   3.499   5.497
 9588TIP3    H228718   8.000   3.543   5.597
 9589TIP3   OH228719   8.040   2.899   5.625
 9589TIP3    H128720   8.098   2.846   5.684
 9589TIP3    H228721   8.109   2.955   5.586
 9590TIP3   OH228722   7.893   3.190   5.675
 9590TIP3    H128723   7.943   3.195   5.591
 9590TIP3    H228724   7.933   3.261   5.726
 9591TIP3   OH228725   7.898   2.682   5.151
 9591TIP3    H128726   7.822   2.682   5.211
 9591TIP3    H228727   7.872   2.748   5.084
 9592TIP3   OH228728   8.043   2.740   6.010
 9592TIP3    H128729   8.038   2.787   6.095
 9592TIP3    H228730   7.989   2.799   5.953
 9593TIP3   OH228731   8.155   4.182   6.070
 9593TIP3    H128732   8.056   4.170   6.057
 9593TIP3    H228733   8.156   4.234   6.151
 9594TIP3   OH228734   8.325   4.215   5.628
 9594TIP3    H128735   8.264   4.288   5.606
 9594TIP3    H228736   8.393   4.234   5.561
 9595TIP3   OH228737   7.994   4.495   5.634
 9595TIP3    H128738   7.910   4.530   5.610
 9595TIP3    H228739   7.982   4.499   5.733
 9596TIP3   OH228740   8.231   4.457   5.500
 9596TIP3    H128741   8.145   4.474   5.546
 9596TIP3    H228742   8.215   4.504   5.416
 9597TIP3   OH228743   7.920   4.279   5.374
 9597TIP3    H128744   7.942   4.252   5.466
 9597TIP3    H228745   7.994   4.236   5.327
 9598TIP3   OH228746   8.124   4.154   5.245
 9598TIP3    H128747   8.134   4.062   5.279
 9598TIP3    H228748   8.210   4.191   5.268
 9599TIP3   OH228749   0.349   3.997   6.499
 9599TIP3    H128750   0.431   4.042   6.472
 9599TIP3    H228751   0.320   4.055   6.573
 9600TIP3   OH228752   7.702   4.060   4.768
 9600TIP3    H128753   7.616   4.028   4.734
 9600TIP3    H228754   7.695   4.154   4.746
 9601TIP3   OH228755   7.757   4.072   4.425
 9601TIP3    H128756   7.767   4.102   4.516
 9601TIP3    H228757   7.849   4.046   4.402
 9602TIP3   OH228758   1.354   4.412   6.598
 9602TIP3    H128759   1.325   4.503   6.583
 9602TIP3    H228760   1.269   4.365   6.595
 9603TIP3   OH228761   0.632   4.326   7.309
 9603TIP3    H128762   0.618   4.266   7.383
 9603TIP3    H228763   0.728   4.338   7.311
 9604TIP3   OH228764   1.592   4.713   6.672
 9604TIP3    H128765   1.571   4.647   6.739
 9604TIP3    H228766   1.622   4.788   6.727
 9605TIP3   OH228767   0.683   4.713   7.122
 9605TIP3    H128768   0.699   4.617   7.108
 9605TIP3    H228769   0.760   4.749   7.073
 9606TIP3   OH228770   1.248   5.171   6.686
 9606TIP3    H128771   1.287   5.101   6.630
 9606TIP3    H228772   1.234   5.123   6.769
 9607TIP3   OH228773   2.158   3.955   7.034
 9607TIP3    H128774   2.187   4.038   7.077
 9607TIP3    H228775   2.174   3.976   6.940
 9608TIP3   OH228776   1.550   4.131   7.060
 9608TIP3    H128777   1.592   4.045   7.079
 9608TIP3    H228778   1.517   4.115   6.969
 9609TIP3   OH228779   0.910   3.792   7.021
 9609TIP3    H128780   0.887   3.867   6.962
 9609TIP3    H228781   0.856   3.720   6.981
 9610TIP3   OH228782   1.592   3.888   6.647
 9610TIP3    H128783   1.662   3.874   6.715
 9610TIP3    H228784   1.646   3.923   6.574
 9611TIP3   OH228785   0.530   3.998   7.132
 9611TIP3    H128786   0.609   3.983   7.187
 9611TIP3    H228787   0.560   3.958   7.049
 9612TIP3   OH228788   0.970   4.190   6.921
 9612TIP3    H128789   1.062   4.160   6.933
 9612TIP3    H228790   0.927   4.106   6.894
 9613TIP3   OH228791   2.233   4.165   7.205
 9613TIP3    H128792   2.146   4.209   7.193
 9613TIP3    H228793   2.268   4.214   7.282
 9614TIP3   OH228794   1.242   4.637   6.461
 9614TIP3    H128795   1.193   4.619   6.379
 9614TIP3    H228796   1.192   4.714   6.496
 9615TIP3   OH228797   1.014   4.527   7.271
 9615TIP3    H128798   0.973   4.610   7.304
 9615TIP3    H228799   1.064   4.562   7.192
 9616TIP3   OH228800   1.790   3.895   6.833
 9616TIP3    H128801   1.759   3.863   6.919
 9616TIP3    H228802   1.842   3.974   6.860
 9617TIP3   OH228803   0.769   3.896   7.233
 9617TIP3    H128804   0.835   3.951   7.280
 9617TIP3    H228805   0.826   3.853   7.167
 9618TIP3   OH228806   0.862   4.726   7.379
 9618TIP3    H128807   0.825   4.786   7.311
 9618TIP3    H228808   0.782   4.690   7.420
 9619TIP3   OH228809   1.658   4.965   6.830
 9619TIP3    H128810   1.570   4.951   6.873
 9619TIP3    H228811   1.643   5.049   6.783
 9620TIP3   OH228812   1.950   3.851   7.194
 9620TIP3    H128813   1.863   3.873   7.158
 9620TIP3    H228814   2.010   3.885   7.124
 9621TIP3   OH228815   1.266   3.499   7.155
 9621TIP3    H128816   1.250   3.402   7.156
 9621TIP3    H228817   1.183   3.529   7.199
 9622TIP3   OH228818   1.355   5.000   6.496
 9622TIP3    H128819   1.408   4.918   6.481
 9622TIP3    H228820   1.419   5.067   6.460
 9623TIP3   OH228821   1.498   4.779   6.422
 9623TIP3    H128822   1.431   4.710   6.412
 9623TIP3    H228823   1.544   4.750   6.504
 9624TIP3   OH228824   1.885   4.867   7.174
 9624TIP3    H128825   1.865   4.788   7.119
 9624TIP3    H228826   1.862   4.939   7.112
 9625TIP3   OH228827   1.169   4.251   6.435
 9625TIP3    H128828   1.092   4.308   6.414
 9625TIP3    H228829   1.222   4.258   6.354
 9626TIP3   OH228830   1.130   4.053   6.142
 9626TIP3    H128831   1.194   4.103   6.196
 9626TIP3    H228832   1.190   3.991   6.096
 9627TIP3   OH228833   2.078   4.511   7.028
 9627TIP3    H128834   1.992   4.558   7.030
 9627TIP3    H228835   2.107   4.534   6.936
 9628TIP3   OH228836   1.526   4.343   6.400
 9628TIP3    H128837   1.470   4.367   6.478
 9628TIP3    H228838   1.610   4.322   6.445
 9629TIP3   OH228839   1.770   4.371   7.328
 9629TIP3    H128840   1.768   4.452   7.383
 9629TIP3    H228841   1.682   4.378   7.283
 9630TIP3   OH228842   0.764   4.327   6.802
 9630TIP3    H128843   0.737   4.261   6.735
 9630TIP3    H228844   0.842   4.282   6.842
 9631TIP3   OH228845   0.893   4.767   6.960
 9631TIP3    H128846   0.880   4.735   6.869
 9631TIP3    H228847   0.979   4.724   6.983
 9632TIP3   OH228848   0.908   4.300   7.170
 9632TIP3    H128849   0.947   4.278   7.082
 9632TIP3    H228850   0.958   4.382   7.194
 9633TIP3   OH228851   1.425   4.957   6.961
 9633TIP3    H128852   1.413   5.034   7.018
 9633TIP3    H228853   1.417   4.881   7.023
 9634TIP3   OH228854   1.034   4.900   7.501
 9634TIP3    H128855   0.978   4.905   7.579
 9634TIP3    H228856   0.987   4.832   7.448
 9635TIP3   OH228857   1.360   4.203   6.232
 9635TIP3    H128858   1.420   4.264   6.280
 9635TIP3    H228859   1.386   4.221   6.139
 9636TIP3   OH228860   1.111   4.876   6.499
 9636TIP3    H128861   1.194   4.927   6.508
 9636TIP3    H228862   1.049   4.944   6.469
 9637TIP3   OH228863   1.877   3.438   6.284
 9637TIP3    H128864   1.796   3.462   6.332
 9637TIP3    H228865   1.893   3.520   6.232
 9638TIP3   OH228866   0.611   4.172   6.607
 9638TIP3    H128867   0.540   4.237   6.600
 9638TIP3    H228868   0.576   4.109   6.671
 9639TIP3   OH228869   1.678   4.804   5.821
 9639TIP3    H128870   1.684   4.902   5.814
 9639TIP3    H228871   1.773   4.779   5.811
 9640TIP3   OH228872   2.123   5.218   7.226
 9640TIP3    H128873   2.122   5.122   7.240
 9640TIP3    H228874   2.038   5.242   7.270
 9641TIP3   OH228875   1.230   4.997   7.343
 9641TIP3    H128876   1.229   5.091   7.370
 9641TIP3    H228877   1.158   4.962   7.401
 9642TIP3   OH228878   0.987   5.119   6.314
 9642TIP3    H128879   0.943   5.114   6.227
 9642TIP3    H228880   0.967   5.211   6.341
 9643TIP3   OH228881   1.180   5.022   5.950
 9643TIP3    H128882   1.242   4.954   5.913
 9643TIP3    H228883   1.222   5.040   6.036
 9644TIP3   OH228884   1.239   5.072   6.220
 9644TIP3    H128885   1.152   5.078   6.265
 9644TIP3    H228886   1.295   5.038   6.291
 9645TIP3   OH228887   2.019   4.337   7.492
 9645TIP3    H128888   1.927   4.365   7.477
 9645TIP3    H228889   2.016   4.243   7.465
 9646TIP3   OH228890   1.034   3.562   7.281
 9646TIP3    H128891   0.937   3.560   7.282
 9646TIP3    H228892   1.054   3.651   7.318
 9647TIP3   OH228893   1.757   4.117   7.438
 9647TIP3    H128894   1.730   4.153   7.523
 9647TIP3    H228895   1.748   4.197   7.381
 9648TIP3   OH228896   1.437   4.236   5.975
 9648TIP3    H128897   1.404   4.219   5.885
 9648TIP3    H228898   1.520   4.283   5.955
 9649TIP3   OH228899   1.150   3.618   6.283
 9649TIP3    H128900   1.113   3.615   6.374
 9649TIP3    H228901   1.109   3.538   6.246
 9650TIP3   OH228902   0.941   4.088   7.336
 9650TIP3    H128903   0.876   4.112   7.404
 9650TIP3    H228904   0.930   4.162   7.272
 9651TIP3   OH228905   0.825   3.975   6.836
 9651TIP3    H128906   0.735   3.943   6.861
 9651TIP3    H228907   0.834   3.931   6.748
 9652TIP3   OH228908   1.310   4.058   6.572
 9652TIP3    H128909   1.259   4.128   6.526
 9652TIP3    H228910   1.366   4.023   6.500
 9653TIP3   OH228911   1.467   4.090   6.803
 9653TIP3    H128912   1.400   4.116   6.737
 9653TIP3    H228913   1.499   4.009   6.758
 9654TIP3   OH228914   0.813   3.595   6.247
 9654TIP3    H128915   0.794   3.596   6.343
 9654TIP3    H228916   0.738   3.650   6.214
 9655TIP3   OH228917   0.416   3.631   6.669
 9655TIP3    H128918   0.447   3.666   6.584
 9655TIP3    H228919   0.324   3.662   6.672
 9656TIP3   OH228920   1.518   4.339   7.233
 9656TIP3    H128921   1.522   4.275   7.159
 9656TIP3    H228922   1.484   4.282   7.304
 9657TIP3   OH228923   1.159   3.779   6.895
 9657TIP3    H128924   1.076   3.780   6.948
 9657TIP3    H228925   1.218   3.829   6.954
 9658TIP3   OH228926   0.599   3.844   6.901
 9658TIP3    H128927   0.513   3.832   6.858
 9658TIP3    H228928   0.636   3.753   6.897
 9659TIP3   OH228929   0.843   3.844   6.598
 9659TIP3    H128930   0.936   3.862   6.577
 9659TIP3    H228931   0.795   3.872   6.516
 9660TIP3   OH228932   1.647   3.869   7.099
 9660TIP3    H128933   1.627   3.867   7.195
 9660TIP3    H228934   1.572   3.814   7.067
 9661TIP3   OH228935   0.693   3.893   6.375
 9661TIP3    H128936   0.630   3.836   6.328
 9661TIP3    H228937   0.747   3.927   6.300
 9662TIP3   OH228938   1.821   5.563   7.324
 9662TIP3    H128939   1.817   5.585   7.229
 9662TIP3    H228940   1.903   5.609   7.351
 9663TIP3   OH228941   1.213   4.078   6.986
 9663TIP3    H128942   1.299   4.108   6.954
 9663TIP3    H228943   1.227   4.066   7.082
 9664TIP3   OH228944   0.753   3.610   6.884
 9664TIP3    H128945   0.720   3.531   6.932
 9664TIP3    H228946   0.788   3.571   6.803
 9665TIP3   OH228947   1.213   4.046   7.272
 9665TIP3    H128948   1.120   4.065   7.296
 9665TIP3    H228949   1.260   4.119   7.317
 9666TIP3   OH228950   0.942   4.407   6.373
 9666TIP3    H128951   0.869   4.343   6.361
 9666TIP3    H228952   0.921   4.443   6.463
 9667TIP3   OH228953   1.841   4.649   7.013
 9667TIP3    H128954   1.864   4.701   6.933
 9667TIP3    H228955   1.758   4.605   6.984
 9668TIP3   OH228956   1.400   3.721   6.254
 9668TIP3    H128957   1.304   3.700   6.264
 9668TIP3    H228958   1.405   3.815   6.279
 9669TIP3   OH228959   1.337   4.743   7.389
 9669TIP3    H128960   1.330   4.732   7.484
 9669TIP3    H228961   1.294   4.829   7.375
 9670TIP3   OH228962   1.467   3.974   6.354
 9670TIP3    H128963   1.563   3.982   6.369
 9670TIP3    H228964   1.446   4.056   6.304
 9671TIP3   OH228965   0.700   4.452   7.041
 9671TIP3    H128966   0.721   4.416   6.952
 9671TIP3    H228967   0.749   4.390   7.098
 9672TIP3   OH228968   1.088   4.561   6.202
 9672TIP3    H128969   1.040   4.647   6.206
 9672TIP3    H228970   1.035   4.505   6.262
 9673TIP3   OH228971   1.500   5.054   7.259
 9673TIP3    H128972   1.417   5.004   7.267
 9673TIP3    H228973   1.524   5.064   7.353
 9674TIP3   OH228974   1.909   4.070   6.186
 9674TIP3    H128975   1.848   4.026   6.122
 9674TIP3    H228976   1.905   4.160   6.147
 9675TIP3   OH228977   2.135   4.934   7.257
 9675TIP3    H128978   2.038   4.921   7.249
 9675TIP3    H228979   2.164   4.902   7.168
 9676TIP3   OH228980   1.590   4.872   6.083
 9676TIP3    H128981   1.577   4.809   6.155
 9676TIP3    H228982   1.617   4.816   6.008
 9677TIP3   OH228983   1.626   4.515   6.910
 9677TIP3    H128984   1.546   4.497   6.962
 9677TIP3    H228985   1.643   4.428   6.869
 9678TIP3   OH228986   0.755   4.744   6.697
 9678TIP3    H128987   0.725   4.817   6.640
 9678TIP3    H228988   0.670   4.698   6.715
 9679TIP3   OH228989   0.864   4.506   6.609
 9679TIP3    H128990   0.849   4.598   6.640
 9679TIP3    H228991   0.846   4.455   6.690
 9680TIP3   OH228992   1.029   5.089   7.141
 9680TIP3    H128993   1.072   5.161   7.090
 9680TIP3    H228994   1.106   5.046   7.182
 9681TIP3   OH228995   0.654   4.963   6.538
 9681TIP3    H128996   0.568   5.005   6.549
 9681TIP3    H228997   0.713   5.040   6.557
 9682TIP3   OH228998   1.449   4.727   7.137
 9682TIP3    H128999   1.405   4.723   7.224
 9682TIP3    H229000   1.381   4.683   7.082
 9683TIP3   OH229001   1.372   4.613   5.997
 9683TIP3    H129002   1.430   4.585   6.072
 9683TIP3    H229003   1.286   4.588   6.033
 9684TIP3   OH229004   1.651   5.257   7.168
 9684TIP3    H129005   1.582   5.187   7.184
 9684TIP3    H229006   1.614   5.305   7.091
 9685TIP3   OH229007   1.706   5.082   5.817
 9685TIP3    H129008   1.740   5.160   5.769
 9685TIP3    H229009   1.626   5.123   5.857
 9686TIP3   OH229010   1.538   4.533   6.197
 9686TIP3    H129011   1.525   4.477   6.276
 9686TIP3    H229012   1.636   4.535   6.193
 9687TIP3   OH229013   0.724   4.589   5.988
 9687TIP3    H129014   0.748   4.497   5.967
 9687TIP3    H229015   0.717   4.585   6.086
 9688TIP3   OH229016   0.706   4.598   6.262
 9688TIP3    H129017   0.778   4.572   6.320
 9688TIP3    H229018   0.706   4.696   6.271
 9689TIP3   OH229019   1.593   3.896   7.371
 9689TIP3    H129020   1.648   3.975   7.387
 9689TIP3    H229021   1.523   3.909   7.436
 9690TIP3   OH229022   1.453   3.669   6.537
 9690TIP3    H129023   1.437   3.691   6.444
 9690TIP3    H229024   1.492   3.752   6.572
 9691TIP3   OH229025   0.951   4.794   6.212
 9691TIP3    H129026   0.865   4.820   6.249
 9691TIP3    H229027   0.977   4.877   6.170
 9692TIP3   OH229028   1.126   3.860   6.633
 9692TIP3    H129029   1.190   3.933   6.617
 9692TIP3    H229030   1.137   3.847   6.730
 9693TIP3   OH229031   1.437   4.184   7.450
 9693TIP3    H129032   1.399   4.260   7.495
 9693TIP3    H229033   1.397   4.109   7.500
 9694TIP3   OH229034   1.271   3.572   6.732
 9694TIP3    H129035   1.251   3.651   6.787
 9694TIP3    H229036   1.338   3.609   6.669
 9695TIP3   OH229037   0.696   4.869   6.281
 9695TIP3    H129038   0.655   4.938   6.226
 9695TIP3    H229039   0.676   4.902   6.371
 9696TIP3   OH229040   0.788   3.583   6.523
 9696TIP3    H129041   0.787   3.674   6.559
 9696TIP3    H229042   0.884   3.566   6.528
 9697TIP3   OH229043   2.031   4.069   7.423
 9697TIP3    H129044   1.934   4.056   7.432
 9697TIP3    H229045   2.048   4.029   7.337
 9698TIP3   OH229046   1.695   4.262   6.805
 9698TIP3    H129047   1.616   4.205   6.817
 9698TIP3    H229048   1.763   4.215   6.857
 9699TIP3   OH229049   0.447   4.500   6.330
 9699TIP3    H129050   0.511   4.572   6.335
 9699TIP3    H229051   0.489   4.448   6.259
 9700TIP3   OH229052   0.416   3.754   6.394
 9700TIP3    H129053   0.403   3.847   6.421
 9700TIP3    H229054   0.325   3.725   6.380
 9701TIP3   OH229055   1.662   5.239   6.747
 9701TIP3    H129056   1.623   5.285   6.669
 9701TIP3    H229057   1.758   5.248   6.727
 9702TIP3   OH229058   0.747   3.502   7.302
 9702TIP3    H129059   0.710   3.507   7.211
 9702TIP3    H229060   0.667   3.489   7.356
 9703TIP3   OH229061   0.895   4.792   5.904
 9703TIP3    H129062   0.840   4.719   5.941
 9703TIP3    H229063   0.976   4.743   5.880
 9704TIP3   OH229064   1.574   5.100   7.532
 9704TIP3    H129065   1.623   5.018   7.546
 9704TIP3    H229066   1.643   5.168   7.541
 9705TIP3   OH229067   1.330   4.828   5.819
 9705TIP3    H129068   1.371   4.769   5.885
 9705TIP3    H229069   1.395   4.828   5.746
 9706TIP3   OH229070   0.559   4.309   6.149
 9706TIP3    H129071   0.619   4.281   6.221
 9706TIP3    H229072   0.622   4.313   6.075
 9707TIP3   OH229073   1.053   4.510   5.935
 9707TIP3    H129074   1.061   4.522   6.032
 9707TIP3    H229075   1.059   4.412   5.930
 9708TIP3   OH229076   1.668   4.773   7.335
 9708TIP3    H129077   1.734   4.821   7.282
 9708TIP3    H229078   1.597   4.756   7.270
 9709TIP3   OH229079   0.738   4.219   6.343
 9709TIP3    H129080   0.712   4.182   6.429
 9709TIP3    H229081   0.781   4.143   6.299
 9710TIP3   OH229082   0.855   4.016   6.191
 9710TIP3    H129083   0.831   4.022   6.096
 9710TIP3    H229084   0.953   4.017   6.184
 9711TIP3   OH229085   1.671   4.336   5.861
 9711TIP3    H129086   1.651   4.295   5.775
 9711TIP3    H229087   1.637   4.427   5.842
 9712TIP3   OH229088   1.118   3.798   7.379
 9712TIP3    H129089   1.168   3.867   7.332
 9712TIP3    H229090   1.104   3.838   7.465
 9713TIP3   OH229091   1.210   4.373   7.371
 9713TIP3    H129092   1.278   4.416   7.318
 9713TIP3    H229093   1.133   4.429   7.346
 9714TIP3   OH229094   1.809   4.596   7.486
 9714TIP3    H129095   1.744   4.659   7.446
 9714TIP3    H229096   1.892   4.630   7.446
 9715TIP3   OH229097   0.651   5.082   6.096
 9715TIP3    H129098   0.747   5.064   6.086
 9715TIP3    H229099   0.636   5.135   6.015
 9716TIP3   OH229100   1.929   5.301   6.717
 9716TIP3    H129101   1.947   5.336   6.806
 9716TIP3    H229102   1.989   5.353   6.662
 9717TIP3   OH229103   1.949   5.333   7.000
 9717TIP3    H129104   1.896   5.250   6.995
 9717TIP3    H229105   2.017   5.305   7.063
 9718TIP3   OH229106   1.998   5.016   7.570
 9718TIP3    H129107   1.927   5.021   7.637
 9718TIP3    H229108   2.041   5.103   7.579
 9719TIP3   OH229109   1.816   4.523   6.189
 9719TIP3    H129110   1.879   4.591   6.159
 9719TIP3    H229111   1.861   4.488   6.269
 9720TIP3   OH229112   1.942   4.391   6.396
 9720TIP3    H129113   1.872   4.349   6.451
 9720TIP3    H229114   2.001   4.430   6.464
 9721TIP3   OH229115   2.003   4.789   6.835
 9721TIP3    H129116   2.048   4.719   6.785
 9721TIP3    H229117   2.004   4.864   6.771
 9722TIP3   OH229118   1.819   5.089   7.017
 9722TIP3    H129119   1.745   5.127   7.068
 9722TIP3    H229120   1.771   5.042   6.945
 9723TIP3   OH229121   1.875   4.301   6.038
 9723TIP3    H129122   1.803   4.302   5.972
 9723TIP3    H229123   1.848   4.377   6.093
 9724TIP3   OH229124   1.749   3.971   5.989
 9724TIP3    H129125   1.697   4.006   5.915
 9724TIP3    H229126   1.728   3.876   5.982
 9725TIP3   OH229127   1.751   4.253   6.537
 9725TIP3    H129128   1.756   4.156   6.528
 9725TIP3    H229129   1.734   4.265   6.633
 9726TIP3   OH229130   2.052   4.679   7.387
 9726TIP3    H129131   2.120   4.610   7.374
 9726TIP3    H229132   2.068   4.740   7.313
 9727TIP3   OH229133   2.231   4.475   7.394
 9727TIP3    H129134   2.154   4.424   7.429
 9727TIP3    H229135   2.303   4.412   7.414
 9728TIP3   OH229136   1.690   3.705   5.970
 9728TIP3    H129137   1.759   3.672   6.031
 9728TIP3    H229138   1.613   3.649   5.991
 9729TIP3   OH229139   1.749   3.969   6.429
 9729TIP3    H129140   1.790   3.881   6.443
 9729TIP3    H229141   1.806   4.002   6.357
 9730TIP3   OH229142   1.906   4.131   6.931
 9730TIP3    H129143   1.991   4.156   6.888
 9730TIP3    H229144   1.921   4.173   7.018
 9731TIP3   OH229145   1.983   4.284   7.157
 9731TIP3    H129146   1.908   4.317   7.211
 9731TIP3    H229147   2.013   4.367   7.113
 9732TIP3   OH229148   2.490   3.922   7.702
 9732TIP3    H129149   2.525   3.840   7.662
 9732TIP3    H229150   2.439   3.962   7.628
 9733TIP3   OH229151   1.858   3.719   6.469
 9733TIP3    H129152   1.904   3.702   6.554
 9733TIP3    H229153   1.796   3.643   6.467
 9734TIP3   OH229154   0.560   3.714   7.249
 9734TIP3    H129155   0.602   3.664   7.319
 9734TIP3    H229156   0.622   3.789   7.240
 9735TIP3   OH229157   2.285   4.004   7.516
 9735TIP3    H129158   2.195   4.044   7.514
 9735TIP3    H229159   2.270   3.933   7.451
 9736TIP3   OH229160   1.931   3.645   6.108
 9736TIP3    H129161   1.970   3.578   6.048
 9736TIP3    H229162   1.998   3.717   6.105
 9737TIP3   OH229163   1.504   5.187   6.372
 9737TIP3    H129164   1.554   5.162   6.291
 9737TIP3    H229165   1.561   5.257   6.406
 9738TIP3   OH229166   0.815   4.989   7.290
 9738TIP3    H129167   0.800   5.067   7.347
 9738TIP3    H229168   0.895   5.017   7.240
 9739TIP3   OH229169   1.220   5.260   7.424
 9739TIP3    H129170   1.269   5.253   7.509
 9739TIP3    H229171   1.283   5.315   7.372
 9740TIP3   OH229172   1.406   5.418   7.299
 9740TIP3    H129173   1.470   5.362   7.253
 9740TIP3    H229174   1.465   5.471   7.357
 9741TIP3   OH229175   2.196   3.779   7.369
 9741TIP3    H129176   2.106   3.781   7.332
 9741TIP3    H229177   2.221   3.685   7.355
 9742TIP3   OH229178   1.132   5.290   6.983
 9742TIP3    H129179   1.059   5.302   6.919
 9742TIP3    H229180   1.144   5.381   7.017
 9743TIP3   OH229181   1.394   5.232   7.036
 9743TIP3    H129182   1.299   5.245   7.014
 9743TIP3    H229183   1.437   5.300   6.982
 9744TIP3   OH229184   1.595   5.415   6.945
 9744TIP3    H129185   1.580   5.498   6.896
 9744TIP3    H229186   1.620   5.353   6.873
 9745TIP3   OH229187   0.848   5.042   6.923
 9745TIP3    H129188   0.853   4.945   6.915
 9745TIP3    H229189   0.910   5.054   6.998
 9746TIP3   OH229190   1.430   3.699   7.034
 9746TIP3    H129191   1.368   3.629   7.065
 9746TIP3    H229192   1.492   3.648   6.979
 9747TIP3   OH229193   1.921   3.573   6.922
 9747TIP3    H129194   1.958   3.625   6.847
 9747TIP3    H229195   1.826   3.596   6.915
 9748TIP3   OH229196   2.020   3.668   6.686
 9748TIP3    H129197   2.095   3.617   6.650
 9748TIP3    H229198   2.054   3.760   6.673
 9749TIP3   OH229199   0.659   3.390   7.044
 9749TIP3    H129200   0.568   3.355   7.055
 9749TIP3    H229201   0.706   3.308   7.021
 9750TIP3   OH229202   0.465   3.279   6.691
 9750TIP3    H129203   0.496   3.311   6.605
 9750TIP3    H229204   0.429   3.361   6.728
 9751TIP3   OH229205   1.095   3.432   6.912
 9751TIP3    H129206   1.154   3.479   6.851
 9751TIP3    H229207   1.112   3.478   6.995
 9752TIP3   OH229208   1.641   3.581   6.892
 9752TIP3    H129209   1.642   3.537   6.806
 9752TIP3    H229210   1.632   3.504   6.953
 9753TIP3   OH229211   1.674   3.508   6.464
 9753TIP3    H129212   1.589   3.553   6.485
 9753TIP3    H229213   1.658   3.421   6.505
 9754TIP3   OH229214   0.555   3.417   6.455
 9754TIP3    H129215   0.601   3.360   6.390
 9754TIP3    H229216   0.627   3.474   6.486
 9755TIP3   OH229217   1.066   3.608   6.545
 9755TIP3    H129218   1.127   3.562   6.604
 9755TIP3    H229219   1.086   3.701   6.570
 9756TIP3   OH229220   0.921   5.028   6.044
 9756TIP3    H129221   1.011   5.047   6.009
 9756TIP3    H229222   0.901   4.948   5.989
 9757TIP3   OH229223   1.647   5.129   6.153
 9757TIP3    H129224   1.628   5.041   6.116
 9757TIP3    H229225   1.631   5.189   6.079
 9758TIP3   OH229226   1.876   5.293   7.319
 9758TIP3    H129227   1.798   5.265   7.266
 9758TIP3    H229228   1.855   5.388   7.329
 9759TIP3   OH229229   3.142   4.671   6.084
 9759TIP3    H129230   3.107   4.759   6.060
 9759TIP3    H229231   3.069   4.615   6.053
 9760TIP3   OH229232   3.139   4.668   6.482
 9760TIP3    H129233   3.179   4.643   6.567
 9760TIP3    H229234   3.101   4.584   6.452
 9761TIP3   OH229235   2.439   4.549   6.834
 9761TIP3    H129236   2.462   4.477   6.895
 9761TIP3    H229237   2.510   4.612   6.853
 9762TIP3   OH229238   3.389   4.972   6.157
 9762TIP3    H129239   3.368   4.903   6.221
 9762TIP3    H229240   3.420   5.044   6.213
 9763TIP3   OH229241   2.420   4.978   6.555
 9763TIP3    H129242   2.408   4.880   6.557
 9763TIP3    H229243   2.515   4.984   6.534
 9764TIP3   OH229244   2.119   4.173   6.337
 9764TIP3    H129245   2.068   4.252   6.361
 9764TIP3    H229246   2.049   4.121   6.293
 9765TIP3   OH229247   2.178   4.461   6.527
 9765TIP3    H129248   2.227   4.382   6.558
 9765TIP3    H229249   2.226   4.486   6.447
 9766TIP3   OH229250   3.044   5.434   6.174
 9766TIP3    H129251   3.080   5.361   6.120
 9766TIP3    H229252   3.018   5.388   6.255
 9767TIP3   OH229253   2.932   4.882   6.525
 9767TIP3    H129254   2.978   4.807   6.482
 9767TIP3    H229255   3.012   4.934   6.551
 9768TIP3   OH229256   3.956   4.212   6.519
 9768TIP3    H129257   3.986   4.295   6.560
 9768TIP3    H229258   3.977   4.227   6.426
 9769TIP3   OH229259   3.353   4.394   6.546
 9769TIP3    H129260   3.394   4.308   6.569
 9769TIP3    H229261   3.318   4.374   6.457
 9770TIP3   OH229262   2.697   4.053   6.512
 9770TIP3    H129263   2.674   4.124   6.449
 9770TIP3    H229264   2.647   3.978   6.471
 9771TIP3   OH229265   3.389   4.146   6.133
 9771TIP3    H129266   3.459   4.131   6.201
 9771TIP3    H229267   3.443   4.179   6.059
 9772TIP3   OH229268   2.324   4.252   6.625
 9772TIP3    H129269   2.406   4.232   6.673
 9772TIP3    H229270   2.337   4.196   6.545
 9773TIP3   OH229271   2.759   4.449   6.427
 9773TIP3    H129272   2.854   4.426   6.436
 9773TIP3    H229273   2.721   4.366   6.392
 9774TIP3   OH229274   4.030   4.425   6.684
 9774TIP3    H129275   3.943   4.466   6.666
 9774TIP3    H229276   4.039   4.443   6.779
 9775TIP3   OH229277   2.686   4.034   6.951
 9775TIP3    H129278   2.627   4.071   6.882
 9775TIP3    H229279   2.632   4.049   7.031
 9776TIP3   OH229280   3.028   4.888   5.954
 9776TIP3    H129281   2.985   4.874   5.868
 9776TIP3    H229282   2.981   4.968   5.985
 9777TIP3   OH229283   2.789   4.864   6.757
 9777TIP3    H129284   2.698   4.853   6.726
 9777TIP3    H229285   2.837   4.880   6.673
 9778TIP3   OH229286   3.587   4.153   6.318
 9778TIP3    H129287   3.566   4.111   6.403
 9778TIP3    H229288   3.637   4.231   6.347
 9779TIP3   OH229289   2.561   4.150   6.732
 9779TIP3    H129290   2.622   4.222   6.758
 9779TIP3    H229291   2.611   4.110   6.657
 9780TIP3   OH229292   2.009   4.695   6.077
 9780TIP3    H129293   1.966   4.726   5.994
 9780TIP3    H229294   2.037   4.782   6.114
 9781TIP3   OH229295   3.456   5.215   6.316
 9781TIP3    H129296   3.366   5.205   6.356
 9781TIP3    H229297   3.446   5.302   6.272
 9782TIP3   OH229298   3.749   4.112   6.685
 9782TIP3    H129299   3.661   4.136   6.650
 9782TIP3    H229300   3.809   4.144   6.615
 9783TIP3   OH229301   3.035   3.749   6.669
 9783TIP3    H129302   3.018   3.654   6.689
 9783TIP3    H229303   2.959   3.789   6.716
 9784TIP3   OH229304   3.149   5.257   5.988
 9784TIP3    H129305   3.199   5.174   5.973
 9784TIP3    H229306   3.212   5.321   5.948
 9785TIP3   OH229307   3.296   5.042   5.907
 9785TIP3    H129308   3.252   4.963   5.874
 9785TIP3    H229309   3.338   5.010   5.990
 9786TIP3   OH229310   3.678   5.120   6.662
 9786TIP3    H129311   3.664   5.044   6.602
 9786TIP3    H229312   3.660   5.196   6.603
 9787TIP3   OH229313   2.973   4.519   5.926
 9787TIP3    H129314   2.892   4.571   5.907
 9787TIP3    H229315   3.015   4.515   5.839
 9788TIP3   OH229316   2.928   4.309   5.630
 9788TIP3    H129317   2.995   4.360   5.679
 9788TIP3    H229318   2.985   4.245   5.583
 9789TIP3   OH229319   3.874   4.769   6.513
 9789TIP3    H129320   3.788   4.816   6.516
 9789TIP3    H229321   3.902   4.790   6.422
 9790TIP3   OH229322   3.320   4.603   5.889
 9790TIP3    H129323   3.265   4.627   5.967
 9790TIP3    H229324   3.404   4.578   5.933
 9791TIP3   OH229325   3.552   4.635   6.814
 9791TIP3    H129326   3.550   4.717   6.868
 9791TIP3    H229327   3.467   4.642   6.767
 9792TIP3   OH229328   2.550   4.595   6.310
 9792TIP3    H129329   2.509   4.538   6.243
 9792TIP3    H229330   2.625   4.540   6.342
 9793TIP3   OH229331   2.679   5.003   6.455
 9793TIP3    H129332   2.656   4.980   6.364
 9793TIP3    H229333   2.768   4.962   6.466
 9794TIP3   OH229334   2.705   4.572   6.667
 9794TIP3    H129335   2.721   4.532   6.578
 9794TIP3    H229336   2.772   4.641   6.671
 9795TIP3   OH229337   3.217   5.205   6.441
 9795TIP3    H129338   3.192   5.287   6.485
 9795TIP3    H229339   3.190   5.135   6.503
 9796TIP3   OH229340   3.155   4.460   5.719
 9796TIP3    H129341   3.215   4.521   5.768
 9796TIP3    H229342   3.182   4.479   5.626
 9797TIP3   OH229343   2.581   4.684   7.082
 9797TIP3    H129344   2.587   4.765   7.137
 9797TIP3    H229345   2.490   4.657   7.106
 9798TIP3   OH229346   2.907   5.132   5.996
 9798TIP3    H129347   2.989   5.184   5.996
 9798TIP3    H229348   2.845   5.189   5.950
 9799TIP3   OH229349   2.612   5.278   7.090
 9799TIP3    H129350   2.561   5.327   7.024
 9799TIP3    H229351   2.541   5.260   7.157
 9800TIP3   OH229352   3.674   3.695   5.771
 9800TIP3    H129353   3.592   3.718   5.819
 9800TIP3    H229354   3.689   3.777   5.719
 9801TIP3   OH229355   2.418   4.442   6.111
 9801TIP3    H129356   2.345   4.485   6.061
 9801TIP3    H229357   2.382   4.353   6.124
 9802TIP3   OH229358   3.475   5.066   5.318
 9802TIP3    H129359   3.482   5.162   5.298
 9802TIP3    H229360   3.568   5.037   5.306
 9803TIP3   OH229361   2.210   4.833   7.017
 9803TIP3    H129362   2.134   4.815   6.956
 9803TIP3    H229363   2.241   4.742   7.037
 9804TIP3   OH229364   2.050   5.011   6.676
 9804TIP3    H129365   2.139   5.028   6.642
 9804TIP3    H229366   2.021   5.100   6.700
 9805TIP3   OH229367   3.919   5.473   6.715
 9805TIP3    H129368   3.918   5.377   6.733
 9805TIP3    H229369   3.836   5.500   6.760
 9806TIP3   OH229370   2.792   5.383   5.798
 9806TIP3    H129371   2.738   5.364   5.719
 9806TIP3    H229372   2.753   5.465   5.831
 9807TIP3   OH229373   2.222   5.231   6.185
 9807TIP3    H129374   2.269   5.225   6.271
 9807TIP3    H229375   2.150   5.168   6.202
 9808TIP3   OH229376   2.985   5.288   5.431
 9808TIP3    H129377   3.041   5.216   5.397
 9808TIP3    H229378   3.019   5.298   5.522
 9809TIP3   OH229379   3.040   5.334   5.701
 9809TIP3    H129380   2.951   5.346   5.740
 9809TIP3    H229381   3.088   5.293   5.775
 9810TIP3   OH229382   3.807   4.599   6.986
 9810TIP3    H129383   3.720   4.604   6.944
 9810TIP3    H229384   3.825   4.503   6.979
 9811TIP3   OH229385   2.421   5.017   6.997
 9811TIP3    H129386   2.462   4.992   7.082
 9811TIP3    H229387   2.344   4.955   6.996
 9812TIP3   OH229388   2.801   3.830   6.800
 9812TIP3    H129389   2.713   3.799   6.768
 9812TIP3    H229390   2.772   3.908   6.851
 9813TIP3   OH229391   3.337   3.943   6.992
 9813TIP3    H129392   3.408   3.916   7.054
 9813TIP3    H229393   3.255   3.924   7.042
 9814TIP3   OH229394   3.572   4.375   6.912
 9814TIP3    H129395   3.521   4.371   6.996
 9814TIP3    H229396   3.547   4.462   6.876
 9815TIP3   OH229397   3.235   4.498   5.464
 9815TIP3    H129398   3.199   4.477   5.376
 9815TIP3    H229399   3.321   4.538   5.441
 9816TIP3   OH229400   2.947   3.875   5.769
 9816TIP3    H129401   2.910   3.871   5.860
 9816TIP3    H229402   2.905   3.795   5.732
 9817TIP3   OH229403   2.734   4.347   6.819
 9817TIP3    H129404   2.681   4.365   6.899
 9817TIP3    H229405   2.721   4.431   6.769
 9818TIP3   OH229406   2.616   4.235   6.328
 9818TIP3    H129407   2.524   4.208   6.348
 9818TIP3    H229408   2.627   4.194   6.240
 9819TIP3   OH229409   3.108   4.318   6.062
 9819TIP3    H129410   3.059   4.389   6.015
 9819TIP3    H229411   3.163   4.281   5.990
 9820TIP3   OH229412   3.284   4.590   7.137
 9820TIP3    H129413   3.261   4.518   7.200
 9820TIP3    H229414   3.377   4.605   7.162
 9821TIP3   OH229415   3.264   4.342   6.292
 9821TIP3    H129416   3.198   4.365   6.223
 9821TIP3    H229417   3.303   4.263   6.247
 9822TIP3   OH229418   2.554   4.370   7.026
 9822TIP3    H129419   2.573   4.430   7.099
 9822TIP3    H229420   2.542   4.285   7.073
 9823TIP3   OH229421   2.606   3.856   5.733
 9823TIP3    H129422   2.592   3.854   5.829
 9823TIP3    H229423   2.528   3.907   5.704
 9824TIP3   OH229424   2.146   3.892   6.605
 9824TIP3    H129425   2.220   3.925   6.659
 9824TIP3    H229426   2.189   3.863   6.523
 9825TIP3   OH229427   2.104   3.874   6.122
 9825TIP3    H129428   2.151   3.911   6.043
 9825TIP3    H229429   2.044   3.948   6.140
 9826TIP3   OH229430   3.273   4.589   6.714
 9826TIP3    H129431   3.309   4.519   6.654
 9826TIP3    H229432   3.244   4.533   6.789
 9827TIP3   OH229433   2.954   4.054   6.388
 9827TIP3    H129434   2.873   4.053   6.442
 9827TIP3    H229435   3.024   4.041   6.455
 9828TIP3   OH229436   2.379   4.114   6.393
 9828TIP3    H129437   2.285   4.122   6.365
 9828TIP3    H229438   2.400   4.021   6.373
 9829TIP3   OH229439   2.640   4.105   6.090
 9829TIP3    H129440   2.733   4.119   6.065
 9829TIP3    H229441   2.592   4.126   6.006
 9830TIP3   OH229442   3.436   4.132   6.592
 9830TIP3    H129443   3.408   4.145   6.685
 9830TIP3    H229444   3.366   4.072   6.560
 9831TIP3   OH229445   2.497   4.143   5.863
 9831TIP3    H129446   2.427   4.095   5.816
 9831TIP3    H229447   2.548   4.179   5.787
 9832TIP3   OH229448   3.614   5.818   6.815
 9832TIP3    H129449   3.612   5.850   6.723
 9832TIP3    H229450   3.694   5.864   6.848
 9833TIP3   OH229451   2.575   4.937   7.225
 9833TIP3    H129452   2.649   4.957   7.286
 9833TIP3    H229453   2.503   4.926   7.291
 9834TIP3   OH229454   3.024   4.387   6.490
 9834TIP3    H129455   3.095   4.341   6.444
 9834TIP3    H229456   3.022   4.342   6.577
 9835TIP3   OH229457   2.543   3.867   6.375
 9835TIP3    H129458   2.504   3.793   6.427
 9835TIP3    H229459   2.582   3.819   6.301
 9836TIP3   OH229460   3.002   4.293   6.764
 9836TIP3    H129461   2.911   4.320   6.787
 9836TIP3    H229462   3.057   4.349   6.821
 9837TIP3   OH229463   2.741   4.668   5.873
 9837TIP3    H129464   2.669   4.603   5.859
 9837TIP3    H229465   2.718   4.703   5.962
 9838TIP3   OH229466   3.635   4.906   6.494
 9838TIP3    H129467   3.659   4.957   6.414
 9838TIP3    H229468   3.551   4.862   6.466
 9839TIP3   OH229469   3.196   3.978   5.743
 9839TIP3    H129470   3.100   3.955   5.751
 9839TIP3    H229471   3.199   4.072   5.768
 9840TIP3   OH229472   3.129   5.000   6.882
 9840TIP3    H129473   3.150   4.946   6.959
 9840TIP3    H229474   3.186   5.077   6.894
 9841TIP3   OH229475   3.262   4.232   5.844
 9841TIP3    H129476   3.359   4.237   5.857
 9841TIP3    H229477   3.243   4.312   5.792
 9842TIP3   OH229478   2.449   4.706   6.549
 9842TIP3    H129479   2.480   4.668   6.464
 9842TIP3    H229480   2.468   4.635   6.612
 9843TIP3   OH229481   2.884   4.820   5.697
 9843TIP3    H129482   2.835   4.905   5.698
 9843TIP3    H229483   2.829   4.765   5.757
 9844TIP3   OH229484   2.322   4.610   7.154
 9844TIP3    H129485   2.336   4.596   7.250
 9844TIP3    H229486   2.248   4.549   7.136
 9845TIP3   OH229487   3.042   4.720   7.169
 9845TIP3    H129488   2.979   4.649   7.149
 9845TIP3    H229489   3.127   4.678   7.143
 9846TIP3   OH229490   3.285   5.228   6.793
 9846TIP3    H129491   3.221   5.289   6.755
 9846TIP3    H229492   3.322   5.283   6.865
 9847TIP3   OH229493   3.704   4.326   5.673
 9847TIP3    H129494   3.643   4.283   5.609
 9847TIP3    H229495   3.701   4.416   5.634
 9848TIP3   OH229496   3.928   5.181   6.751
 9848TIP3    H129497   3.831   5.173   6.741
 9848TIP3    H229498   3.957   5.154   6.661
 9849TIP3   OH229499   3.420   5.148   5.587
 9849TIP3    H129500   3.382   5.082   5.647
 9849TIP3    H229501   3.425   5.099   5.502
 9850TIP3   OH229502   3.403   4.771   6.408
 9850TIP3    H129503   3.310   4.746   6.424
 9850TIP3    H229504   3.436   4.689   6.367
 9851TIP3   OH229505   2.536   5.003   6.181
 9851TIP3    H129506   2.527   5.081   6.123
 9851TIP3    H229507   2.443   4.979   6.193
 9852TIP3   OH229508   2.102   4.300   5.882
 9852TIP3    H129509   2.143   4.387   5.904
 9852TIP3    H229510   2.023   4.303   5.941
 9853TIP3   OH229511   2.661   4.762   6.113
 9853TIP3    H129512   2.629   4.852   6.135
 9853TIP3    H229513   2.626   4.710   6.187
 9854TIP3   OH229514   2.818   5.358   6.639
 9854TIP3    H129515   2.847   5.421   6.569
 9854TIP3    H229516   2.886   5.374   6.705
 9855TIP3   OH229517   2.451   5.232   6.025
 9855TIP3    H129518   2.364   5.241   6.070
 9855TIP3    H229519   2.483   5.325   6.027
 9856TIP3   OH229520   3.177   4.977   6.605
 9856TIP3    H129521   3.171   4.978   6.703
 9856TIP3    H229522   3.257   4.924   6.591
 9857TIP3   OH229523   3.172   4.873   5.482
 9857TIP3    H129524   3.225   4.846   5.561
 9857TIP3    H229525   3.085   4.840   5.507
 9858TIP3   OH229526   3.434   5.502   6.643
 9858TIP3    H129527   3.347   5.462   6.625
 9858TIP3    H229528   3.433   5.574   6.576
 9859TIP3   OH229529   3.505   5.343   5.290
 9859TIP3    H129530   3.541   5.412   5.232
 9859TIP3    H229531   3.427   5.391   5.325
 9860TIP3   OH229532   2.523   4.118   7.160
 9860TIP3    H129533   2.426   4.114   7.175
 9860TIP3    H229534   2.557   4.072   7.239
 9861TIP3   OH229535   3.331   4.800   5.694
 9861TIP3    H129536   3.320   4.736   5.767
 9861TIP3    H229537   3.429   4.797   5.684
 9862TIP3   OH229538   2.266   5.206   6.793
 9862TIP3    H129539   2.309   5.128   6.833
 9862TIP3    H229540   2.251   5.262   6.870
 9863TIP3   OH229541   2.530   4.846   5.482
 9863TIP3    H129542   2.541   4.752   5.459
 9863TIP3    H229543   2.509   4.840   5.578
 9864TIP3   OH229544   2.475   4.854   5.752
 9864TIP3    H129545   2.545   4.826   5.811
 9864TIP3    H229546   2.477   4.952   5.763
 9865TIP3   OH229547   2.206   4.545   5.962
 9865TIP3    H129548   2.139   4.590   6.018
 9865TIP3    H229549   2.216   4.612   5.892
 9866TIP3   OH229550   3.367   4.181   6.853
 9866TIP3    H129551   3.446   4.219   6.895
 9866TIP3    H229552   3.353   4.099   6.907
 9867TIP3   OH229553   3.248   3.926   6.024
 9867TIP3    H129554   3.233   3.947   5.930
 9867TIP3    H229555   3.287   4.009   6.058
 9868TIP3   OH229556   2.746   5.052   5.703
 9868TIP3    H129557   2.657   5.071   5.740
 9868TIP3    H229558   2.757   5.131   5.647
 9869TIP3   OH229559   2.927   4.117   6.121
 9869TIP3    H129560   2.990   4.190   6.105
 9869TIP3    H229561   2.934   4.106   6.218
 9870TIP3   OH229562   3.202   4.428   6.922
 9870TIP3    H129563   3.231   4.477   7.002
 9870TIP3    H229564   3.251   4.345   6.931
 9871TIP3   OH229565   3.070   3.830   6.218
 9871TIP3    H129566   3.062   3.909   6.274
 9871TIP3    H229567   3.134   3.862   6.151
 9872TIP3   OH229568   2.493   5.125   5.776
 9872TIP3    H129569   2.461   5.196   5.715
 9872TIP3    H229570   2.474   5.165   5.863
 9873TIP3   OH229571   2.586   3.841   6.008
 9873TIP3    H129572   2.582   3.930   6.049
 9873TIP3    H229573   2.683   3.824   6.015
 9874TIP3   OH229574   3.837   4.330   6.902
 9874TIP3    H129575   3.740   4.334   6.915
 9874TIP3    H229576   3.840   4.270   6.826
 9875TIP3   OH229577   3.490   4.525   6.294
 9875TIP3    H129578   3.413   4.467   6.305
 9875TIP3    H229579   3.560   4.477   6.343
 9876TIP3   OH229580   2.206   4.744   5.763
 9876TIP3    H129581   2.275   4.813   5.772
 9876TIP3    H229582   2.250   4.686   5.696
 9877TIP3   OH229583   2.145   4.029   5.898
 9877TIP3    H129584   2.147   4.127   5.898
 9877TIP3    H229585   2.065   4.011   5.848
 9878TIP3   OH229586   3.463   5.485   6.241
 9878TIP3    H129587   3.418   5.531   6.166
 9878TIP3    H229588   3.557   5.506   6.220
 9879TIP3   OH229589   2.538   3.748   6.765
 9879TIP3    H129590   2.507   3.713   6.679
 9879TIP3    H229591   2.526   3.671   6.825
 9880TIP3   OH229592   2.057   4.953   6.145
 9880TIP3    H129593   2.025   5.001   6.223
 9880TIP3    H229594   2.020   5.005   6.071
 9881TIP3   OH229595   2.236   5.521   7.220
 9881TIP3    H129596   2.322   5.522   7.269
 9881TIP3    H229597   2.215   5.426   7.222
 9882TIP3   OH229598   2.706   5.470   7.271
 9882TIP3    H129599   2.802   5.467   7.281
 9882TIP3    H229600   2.691   5.400   7.204
 9883TIP3   OH229601   2.692   5.045   5.388
 9883TIP3    H129602   2.634   4.977   5.429
 9883TIP3    H229603   2.769   4.992   5.366
 9884TIP3   OH229604   3.359   5.380   7.001
 9884TIP3    H129605   3.349   5.314   7.074
 9884TIP3    H229606   3.433   5.435   7.032
 9885TIP3   OH229607   3.127   5.085   5.309
 9885TIP3    H129608   3.163   5.017   5.369
 9885TIP3    H229609   3.188   5.083   5.233
 9886TIP3   OH229610   2.367   4.927   7.414
 9886TIP3    H129611   2.380   4.833   7.437
 9886TIP3    H229612   2.279   4.924   7.369
 9887TIP3   OH229613   2.344   4.562   5.619
 9887TIP3    H129614   2.400   4.533   5.693
 9887TIP3    H229615   2.411   4.568   5.548
 9888TIP3   OH229616   2.956   4.989   7.180
 9888TIP3    H129617   2.931   4.910   7.130
 9888TIP3    H229618   3.040   4.957   7.216
 9889TIP3   OH229619   2.865   4.770   5.427
 9889TIP3    H129620   2.862   4.780   5.524
 9889TIP3    H229621   2.864   4.672   5.419
 9890TIP3   OH229622   3.462   5.017   6.802
 9890TIP3    H129623   3.541   5.054   6.759
 9890TIP3    H229624   3.398   5.091   6.789
 9891TIP3   OH229625   2.494   4.660   7.399
 9891TIP3    H129626   2.532   4.572   7.411
 9891TIP3    H229627   2.519   4.699   7.486
 9892TIP3   OH229628   2.545   4.476   5.835
 9892TIP3    H129629   2.515   4.437   5.919
 9892TIP3    H229630   2.583   4.398   5.789
 9893TIP3   OH229631   2.825   4.546   7.066
 9893TIP3    H129632   2.741   4.596   7.065
 9893TIP3    H229633   2.869   4.579   6.984
 9894TIP3   OH229634   2.651   4.272   5.675
 9894TIP3    H129635   2.626   4.281   5.581
 9894TIP3    H229636   2.749   4.271   5.668
 9895TIP3   OH229637   3.329   4.937   7.197
 9895TIP3    H129638   3.412   4.908   7.156
 9895TIP3    H229639   3.326   4.876   7.274
 9896TIP3   OH229640   3.465   4.594   5.347
 9896TIP3    H129641   3.447   4.551   5.262
 9896TIP3    H229642   3.431   4.685   5.327
 9897TIP3   OH229643   2.944   4.327   7.182
 9897TIP3    H129644   2.942   4.249   7.123
 9897TIP3    H229645   2.898   4.395   7.128
 9898TIP3   OH229646   2.945   4.114   6.995
 9898TIP3    H129647   2.971   4.151   6.909
 9898TIP3    H229648   2.851   4.089   6.979
 9899TIP3   OH229649   2.954   4.652   6.856
 9899TIP3    H129650   3.046   4.656   6.825
 9899TIP3    H229651   2.917   4.738   6.827
 9900TIP3   OH229652   3.544   4.610   7.247
 9900TIP3    H129653   3.588   4.530   7.281
 9900TIP3    H229654   3.619   4.662   7.215
 9901TIP3   OH229655   3.591   4.868   6.985
 9901TIP3    H129656   3.533   4.924   6.928
 9901TIP3    H229657   3.679   4.890   6.947
 9902TIP3   OH229658   2.827   4.430   7.422
 9902TIP3    H129659   2.749   4.378   7.445
 9902TIP3    H229660   2.851   4.394   7.334
 9903TIP3   OH229661   3.075   3.875   7.073
 9903TIP3    H129662   3.025   3.955   7.048
 9903TIP3    H229663   3.007   3.805   7.062
 9904TIP3   OH229664   3.201   4.375   7.278
 9904TIP3    H129665   3.182   4.358   7.373
 9904TIP3    H229666   3.113   4.352   7.242
 9905TIP3   OH229667   3.437   4.325   7.138
 9905TIP3    H129668   3.364   4.327   7.203
 9905TIP3    H229669   3.513   4.296   7.194
 9906TIP3   OH229670   3.673   4.270   7.279
 9906TIP3    H129671   3.685   4.174   7.297
 9906TIP3    H229672   3.663   4.308   7.368
 9907TIP3   OH229673   2.653   4.210   7.466
 9907TIP3    H129674   2.658   4.116   7.444
 9907TIP3    H229675   2.701   4.210   7.552
 9908TIP3   OH229676   3.166   3.881   7.332
 9908TIP3    H129677   3.234   3.812   7.321
 9908TIP3    H229678   3.126   3.881   7.243
 9909TIP3   OH229679   3.237   4.099   7.485
 9909TIP3    H129680   3.215   4.026   7.423
 9909TIP3    H229681   3.159   4.158   7.478
 9910TIP3   OH229682   2.462   5.330   5.588
 9910TIP3    H129683   2.556   5.318   5.565
 9910TIP3    H229684   2.433   5.383   5.512
 9911TIP3   OH229685   1.936   4.712   5.793
 9911TIP3    H129686   2.032   4.730   5.782
 9911TIP3    H229687   1.930   4.622   5.753
 9912TIP3   OH229688   2.023   5.144   6.378
 9912TIP3    H129689   1.954   5.103   6.430
 9912TIP3    H229690   2.041   5.225   6.428
 9913TIP3   OH229691   3.719   5.571   6.206
 9913TIP3    H129692   3.736   5.601   6.297
 9913TIP3    H229693   3.794   5.610   6.158
 9914TIP3   OH229694   3.742   5.589   6.485
 9914TIP3    H129695   3.701   5.500   6.485
 9914TIP3    H229696   3.816   5.573   6.546
 9915TIP3   OH229697   3.788   5.269   7.059
 9915TIP3    H129698   3.718   5.280   7.127
 9915TIP3    H229699   3.832   5.356   7.063
 9916TIP3   OH229700   3.609   4.780   5.676
 9916TIP3    H129701   3.674   4.846   5.645
 9916TIP3    H229702   3.655   4.744   5.756
 9917TIP3   OH229703   3.736   4.649   5.883
 9917TIP3    H129704   3.667   4.607   5.940
 9917TIP3    H229705   3.799   4.683   5.950
 9918TIP3   OH229706   3.795   5.046   6.313
 9918TIP3    H129707   3.847   4.975   6.271
 9918TIP3    H229708   3.790   5.113   6.243
 9919TIP3   OH229709   3.617   5.341   6.506
 9919TIP3    H129710   3.545   5.384   6.555
 9919TIP3    H229711   3.569   5.297   6.433
 9920TIP3   OH229712   3.671   4.558   5.524
 9920TIP3    H129713   3.598   4.559   5.458
 9920TIP3    H229714   3.642   4.634   5.580
 9921TIP3   OH229715   3.542   4.229   5.477
 9921TIP3    H129716   3.495   4.259   5.398
 9921TIP3    H229717   3.523   4.133   5.473
 9922TIP3   OH229718   3.545   4.509   6.024
 9922TIP3    H129719   3.552   4.412   6.014
 9922TIP3    H229720   3.530   4.519   6.121
 9923TIP3   OH229721   2.171   4.574   6.777
 9923TIP3    H129722   2.166   4.541   6.685
 9923TIP3    H229723   2.269   4.573   6.790
 9924TIP3   OH229724   3.839   4.933   6.883
 9924TIP3    H129725   3.908   4.865   6.871
 9924TIP3    H229726   3.867   5.003   6.821
 9925TIP3   OH229727   4.021   4.730   6.881
 9925TIP3    H129728   3.946   4.683   6.923
 9925TIP3    H229729   4.094   4.668   6.903
 9926TIP3   OH229730   3.485   3.963   5.459
 9926TIP3    H129731   3.554   3.928   5.519
 9926TIP3    H229732   3.408   3.907   5.477
 9927TIP3   OH229733   3.546   4.226   5.915
 9927TIP3    H129734   3.586   4.137   5.930
 9927TIP3    H229735   3.603   4.258   5.842
 9928TIP3   OH229736   3.701   4.390   6.415
 9928TIP3    H129737   3.787   4.414   6.372
 9928TIP3    H229738   3.717   4.429   6.503
 9929TIP3   OH229739   3.777   4.541   6.641
 9929TIP3    H129740   3.702   4.573   6.695
 9929TIP3    H229741   3.810   4.625   6.601
 9930TIP3   OH229742   2.385   4.254   7.430
 9930TIP3    H129743   2.482   4.261   7.446
 9930TIP3    H229744   2.364   4.173   7.481
 9931TIP3   OH229745   4.229   4.137   7.198
 9931TIP3    H129746   4.290   4.072   7.157
 9931TIP3    H229747   4.197   4.186   7.119
 9932TIP3   OH229748   3.652   3.976   5.956
 9932TIP3    H129749   3.699   3.958   6.040
 9932TIP3    H229750   3.591   3.899   5.954
 9933TIP3   OH229751   2.354   3.958   6.775
 9933TIP3    H129752   2.415   3.882   6.783
 9933TIP3    H229753   2.417   4.032   6.767
 9934TIP3   OH229754   2.151   4.228   6.850
 9934TIP3    H129755   2.202   4.229   6.766
 9934TIP3    H229756   2.171   4.315   6.887
 9935TIP3   OH229757   4.094   4.268   7.000
 9935TIP3    H129758   4.010   4.312   7.026
 9935TIP3    H229759   4.058   4.195   6.946
 9936TIP3   OH229760   3.727   3.902   5.595
 9936TIP3    H129761   3.766   3.834   5.535
 9936TIP3    H229762   3.794   3.973   5.592
 9937TIP3   OH229763   2.140   3.733   6.350
 9937TIP3    H129764   2.049   3.726   6.382
 9937TIP3    H229765   2.130   3.792   6.273
 9938TIP3   OH229766   3.301   5.437   5.858
 9938TIP3    H129767   3.354   5.434   5.775
 9938TIP3    H229768   3.348   5.503   5.912
 9939TIP3   OH229769   2.366   3.815   7.150
 9939TIP3    H129770   2.311   3.812   7.230
 9939TIP3    H229771   2.303   3.854   7.087
 9940TIP3   OH229772   2.399   5.244   7.247
 9940TIP3    H129773   2.305   5.223   7.228
 9940TIP3    H229774   2.407   5.220   7.340
 9941TIP3   OH229775   2.618   5.264   6.798
 9941TIP3    H129776   2.536   5.303   6.764
 9941TIP3    H229777   2.682   5.309   6.738
 9942TIP3   OH229778   3.007   5.518   6.913
 9942TIP3    H129779   3.047   5.505   7.001
 9942TIP3    H229780   3.078   5.569   6.869
 9943TIP3   OH229781   3.200   5.673   6.792
 9943TIP3    H129782   3.276   5.629   6.753
 9943TIP3    H229783   3.245   5.733   6.856
 9944TIP3   OH229784   3.996   4.028   6.886
 9944TIP3    H129785   3.906   4.011   6.853
 9944TIP3    H229786   4.035   3.938   6.880
 9945TIP3   OH229787   2.259   5.537   6.818
 9945TIP3    H129788   2.168   5.563   6.791
 9945TIP3    H229789   2.266   5.590   6.899
 9946TIP3   OH229790   2.495   5.507   6.674
 9946TIP3    H129791   2.409   5.517   6.720
 9946TIP3    H229792   2.472   5.539   6.584
 9947TIP3   OH229793   2.916   5.539   6.465
 9947TIP3    H129794   2.842   5.557   6.404
 9947TIP3    H229795   2.925   5.626   6.511
 9948TIP3   OH229796   3.182   5.469   6.530
 9948TIP3    H129797   3.089   5.491   6.509
 9948TIP3    H229798   3.228   5.541   6.484
 9949TIP3   OH229799   3.386   5.666   6.434
 9949TIP3    H129800   3.373   5.751   6.387
 9949TIP3    H229801   3.415   5.607   6.361
 9950TIP3   OH229802   2.167   5.334   6.561
 9950TIP3    H129803   2.201   5.307   6.648
 9950TIP3    H229804   2.233   5.288   6.504
 9951TIP3   OH229805   2.359   5.205   6.420
 9951TIP3    H129806   2.371   5.121   6.471
 9951TIP3    H229807   2.451   5.236   6.413
 9952TIP3   OH229808   2.629   5.290   6.418
 9952TIP3    H129809   2.661   5.200   6.404
 9952TIP3    H229810   2.671   5.311   6.503
 9953TIP3   OH229811   3.199   3.946   6.510
 9953TIP3    H129812   3.158   3.873   6.560
 9953TIP3    H229813   3.274   3.902   6.466
 9954TIP3   OH229814   3.717   3.831   6.408
 9954TIP3    H129815   3.753   3.882   6.332
 9954TIP3    H229816   3.622   3.850   6.402
 9955TIP3   OH229817   3.816   3.927   6.172
 9955TIP3    H129818   3.891   3.875   6.137
 9955TIP3    H229819   3.850   4.018   6.158
 9956TIP3   OH229820   2.447   3.654   6.520
 9956TIP3    H129821   2.355   3.621   6.525
 9956TIP3    H229822   2.495   3.568   6.515
 9957TIP3   OH229823   2.241   3.530   6.175
 9957TIP3    H129824   2.267   3.586   6.100
 9957TIP3    H229825   2.213   3.597   6.241
 9958TIP3   OH229826   2.898   3.686   6.404
 9958TIP3    H129827   2.953   3.733   6.339
 9958TIP3    H229828   2.926   3.726   6.487
 9959TIP3   OH229829   3.433   3.837   6.385
 9959TIP3    H129830   3.438   3.793   6.299
 9959TIP3    H229831   3.425   3.760   6.446
 9960TIP3   OH229832   3.470   3.764   5.951
 9960TIP3    H129833   3.385   3.807   5.972
 9960TIP3    H229834   3.456   3.676   5.993
 9961TIP3   OH229835   1.955   5.102   5.939
 9961TIP3    H129836   1.866   5.070   5.911
 9961TIP3    H229837   1.942   5.197   5.925
 9962TIP3   OH229838   2.358   3.684   5.931
 9962TIP3    H129839   2.404   3.620   5.873
 9962TIP3    H229840   2.432   3.737   5.966
 9963TIP3   OH229841   2.862   3.867   6.031
 9963TIP3    H129842   2.921   3.818   6.091
 9963TIP3    H229843   2.885   3.959   6.057
 9964TIP3   OH229844   2.727   5.277   5.531
 9964TIP3    H129845   2.813   5.304   5.492
 9964TIP3    H229846   2.704   5.204   5.470
 9965TIP3   OH229847   3.449   5.417   5.621
 9965TIP3    H129848   3.443   5.318   5.613
 9965TIP3    H229849   3.401   5.444   5.540
 9966TIP3   OH229850   2.653   3.934   7.407
 9966TIP3    H129851   2.620   3.862   7.464
 9966TIP3    H229852   2.747   3.936   7.436
 9967TIP3   OH229853   2.903   3.936   7.523
 9967TIP3    H129854   2.992   3.914   7.492
 9967TIP3    H229855   2.887   3.866   7.590
 9968TIP3   OH229856   2.025   5.121   5.586
 9968TIP3    H129857   2.020   5.139   5.681
 9968TIP3    H229858   2.114   5.079   5.577
 9969TIP3   OH229859   3.734   4.001   7.311
 9969TIP3    H129860   3.753   3.971   7.403
 9969TIP3    H229861   3.824   3.996   7.272
 9970TIP3   OH229862   3.668   5.548   6.806
 9970TIP3    H129863   3.587   5.520   6.760
 9970TIP3    H229864   3.650   5.644   6.818
 9971TIP3   OH229865   4.937   4.925   5.572
 9971TIP3    H129866   4.903   5.014   5.549
 9971TIP3    H229867   4.864   4.870   5.538
 9972TIP3   OH229868   4.957   4.927   5.968
 9972TIP3    H129869   4.980   4.892   6.055
 9972TIP3    H229870   4.900   4.857   5.932
 9973TIP3   OH229871   4.232   4.806   6.323
 9973TIP3    H129872   4.258   4.737   6.386
 9973TIP3    H229873   4.304   4.869   6.334
 9974TIP3   OH229874   5.181   5.229   5.645
 9974TIP3    H129875   5.169   5.157   5.708
 9974TIP3    H229876   5.219   5.299   5.701
 9975TIP3   OH229877   4.192   5.226   6.030
 9975TIP3    H129878   4.166   5.131   6.029
 9975TIP3    H229879   4.285   5.215   6.052
 9976TIP3   OH229880   3.914   4.429   5.824
 9976TIP3    H129881   3.864   4.509   5.846
 9976TIP3    H229882   3.845   4.376   5.781
 9977TIP3   OH229883   3.971   4.715   6.013
 9977TIP3    H129884   4.022   4.637   6.046
 9977TIP3    H229885   4.024   4.743   5.938
 9978TIP3   OH229886   4.838   5.684   5.664
 9978TIP3    H129887   4.870   5.616   5.602
 9978TIP3    H229888   4.838   5.637   5.747
 9979TIP3   OH229889   5.751   4.468   6.005
 9979TIP3    H129890   5.782   4.550   6.048
 9979TIP3    H229891   5.778   4.482   5.913
 9980TIP3   OH229892   5.144   4.651   6.036
 9980TIP3    H129893   5.189   4.566   6.057
 9980TIP3    H229894   5.112   4.633   5.946
 9981TIP3   OH229895   4.491   4.310   6.000
 9981TIP3    H129896   4.470   4.381   5.936
 9981TIP3    H229897   4.442   4.235   5.959
 9982TIP3   OH229898   5.184   4.402   5.620
 9982TIP3    H129899   5.255   4.389   5.688
 9982TIP3    H229900   5.239   4.436   5.546
 9983TIP3   OH229901   4.120   4.508   6.111
 9983TIP3    H129902   4.203   4.488   6.159
 9983TIP3    H229903   4.134   4.453   6.031
 9984TIP3   OH229904   4.554   4.702   5.917
 9984TIP3    H129905   4.649   4.680   5.924
 9984TIP3    H229906   4.517   4.619   5.879
 9985TIP3   OH229907   5.825   4.676   6.176
 9985TIP3    H129908   5.738   4.720   6.163
 9985TIP3    H229909   5.852   4.714   6.262
 9986TIP3   OH229910   4.483   4.292   6.439
 9986TIP3    H129911   4.422   4.326   6.371
 9986TIP3    H229912   4.429   4.306   6.519
 9987TIP3   OH229913   4.815   5.141   5.447
 9987TIP3    H129914   4.782   5.134   5.356
 9987TIP3    H229915   4.770   5.222   5.477
 9988TIP3   OH229916   5.383   4.411   5.805
 9988TIP3    H129917   5.369   4.367   5.890
 9988TIP3    H229918   5.435   4.489   5.830
 9989TIP3   OH229919   4.357   4.407   6.220
 9989TIP3    H129920   4.421   4.478   6.244
 9989TIP3    H229921   4.406   4.366   6.144
 9990TIP3   OH229922   3.805   4.956   5.564
 9990TIP3    H129923   3.765   4.981   5.479
 9990TIP3    H229924   3.840   5.041   5.596
 9991TIP3   OH229925   5.239   5.475   5.810
 9991TIP3    H129926   5.145   5.466   5.836
 9991TIP3    H229927   5.237   5.560   5.761
 9992TIP3   OH229928   5.544   4.364   6.168
 9992TIP3    H129929   5.458   4.395   6.135
 9992TIP3    H229930   5.607   4.399   6.101
 9993TIP3   OH229931   4.829   4.003   6.154
 9993TIP3    H129932   4.815   3.909   6.177
 9993TIP3    H229933   4.753   4.044   6.202
 9994TIP3   OH229934   4.941   5.514   5.470
 9994TIP3    H129935   4.991   5.430   5.453
 9994TIP3    H229936   5.006   5.578   5.433
 9995TIP3   OH229937   5.088   5.298   5.394
 9995TIP3    H129938   5.067   5.215   5.350
 9995TIP3    H229939   5.127   5.266   5.479
 9996TIP3   OH229940   5.469   5.376   6.152
 9996TIP3    H129941   5.462   5.300   6.090
 9996TIP3    H229942   5.457   5.452   6.091
 9997TIP3   OH229943   4.767   4.775   5.412
 9997TIP3    H129944   4.688   4.829   5.392
 9997TIP3    H229945   4.812   4.771   5.325
 9998TIP3   OH229946   4.725   4.565   5.117
 9998TIP3    H129947   4.791   4.616   5.166
 9998TIP3    H229948   4.783   4.502   5.070
 9999TIP3   OH229949   5.666   5.019   5.997
 9999TIP3    H129950   5.583   5.071   5.998
 9999TIP3    H229951   5.700   5.043   5.908
10000TIP3   OH229952   5.116   4.859   5.375
10000TIP3    H129953   5.062   4.882   5.454
10000TIP3    H229954   5.201   4.834   5.418
10001TIP3   OH229955   5.351   4.892   6.303
10001TIP3    H129956   5.348   4.974   6.356
10001TIP3    H229957   5.266   4.897   6.256
10002TIP3   OH229958   4.346   4.851   5.800
10002TIP3    H129959   4.305   4.794   5.732
10002TIP3    H229960   4.421   4.795   5.830
10003TIP3   OH229961   4.504   4.829   6.154
10003TIP3    H129962   4.513   4.789   6.064
10003TIP3    H229963   4.591   4.869   6.167
10004TIP3   OH229964   4.990   5.467   5.926
10004TIP3    H129965   4.995   5.552   5.975
10004TIP3    H229966   4.996   5.400   5.996
10005TIP3   OH229967   4.598   5.372   6.453
10005TIP3    H129968   4.552   5.445   6.502
10005TIP3    H229969   4.520   5.315   6.442
10006TIP3   OH229970   4.950   4.718   5.206
10006TIP3    H129971   5.011   4.778   5.255
10006TIP3    H229972   4.977   4.736   5.113
10007TIP3   OH229973   4.381   4.935   6.577
10007TIP3    H129974   4.385   5.024   6.620
10007TIP3    H229975   4.287   4.913   6.596
10008TIP3   OH229976   4.699   5.394   5.488
10008TIP3    H129977   4.785   5.439   5.483
10008TIP3    H229978   4.643   5.451   5.435
10009TIP3   OH229979   4.419   5.544   6.568
10009TIP3    H129980   4.379   5.546   6.478
10009TIP3    H229981   4.340   5.524   6.623
10010TIP3   OH229982   5.469   3.951   5.257
10010TIP3    H129983   5.388   3.975   5.306
10010TIP3    H229984   5.485   4.033   5.206
10011TIP3   OH229985   4.213   4.698   5.602
10011TIP3    H129986   4.141   4.740   5.549
10011TIP3    H229987   4.181   4.608   5.610
10012TIP3   OH229988   5.273   5.321   4.806
10012TIP3    H129989   5.282   5.417   4.789
10012TIP3    H229990   5.365   5.291   4.792
10013TIP3   OH229991   4.001   5.084   6.508
10013TIP3    H129992   3.930   5.065   6.444
10013TIP3    H229993   4.036   4.995   6.529
10014TIP3   OH229994   3.851   5.279   6.137
10014TIP3    H129995   3.947   5.279   6.140
10014TIP3    H229996   3.830   5.352   6.197
10015TIP3   OH229997   5.706   5.726   6.206
10015TIP3    H129998   5.709   5.629   6.218
10015TIP3    H229999   5.622   5.749   6.251
10016TIP3   OH230000   4.804   5.513   6.336
10016TIP3    H130001   4.808   5.608   6.363
10016TIP3    H230002   4.739   5.479   6.403
10017TIP3   OH230003   4.586   5.634   5.287
10017TIP3    H130004   4.537   5.617   5.205
10017TIP3    H230005   4.550   5.721   5.315
10018TIP3   OH230006   4.007   5.511   5.675
10018TIP3    H130007   4.055   5.493   5.759
10018TIP3    H230008   3.966   5.424   5.659
10019TIP3   OH230009   4.781   5.542   4.920
10019TIP3    H130010   4.838   5.470   4.885
10019TIP3    H230011   4.816   5.553   5.011
10020TIP3   OH230012   4.835   5.592   5.188
10020TIP3    H130013   4.747   5.600   5.231
10020TIP3    H230014   4.889   5.556   5.261
10021TIP3   OH230015   5.597   4.853   6.475
10021TIP3    H130016   5.516   4.855   6.423
10021TIP3    H230017   5.618   4.757   6.472
10022TIP3   OH230018   4.203   5.273   6.480
10022TIP3    H130019   4.256   5.255   6.559
10022TIP3    H230020   4.132   5.206   6.488
10023TIP3   OH230021   4.596   4.087   6.286
10023TIP3    H130022   4.509   4.056   6.254
10023TIP3    H230023   4.567   4.164   6.339
10024TIP3   OH230024   5.136   4.202   6.478
10024TIP3    H130025   5.207   4.173   6.539
10024TIP3    H230026   5.054   4.181   6.529
10025TIP3   OH230027   5.360   4.626   6.392
10025TIP3    H130028   5.314   4.626   6.479
10025TIP3    H230029   5.345   4.717   6.360
10026TIP3   OH230030   5.032   4.755   4.953
10026TIP3    H130031   4.994   4.736   4.865
10026TIP3    H230032   5.118   4.794   4.927
10027TIP3   OH230033   4.742   4.132   5.256
10027TIP3    H130034   4.706   4.128   5.347
10027TIP3    H230035   4.700   4.051   5.219
10028TIP3   OH230036   4.531   4.606   6.307
10028TIP3    H130037   4.475   4.620   6.386
10028TIP3    H230038   4.511   4.688   6.255
10029TIP3   OH230039   4.412   4.491   5.815
10029TIP3    H130040   4.320   4.463   5.834
10029TIP3    H230041   4.423   4.449   5.726
10030TIP3   OH230042   4.904   4.574   5.548
10030TIP3    H130043   4.855   4.645   5.501
10030TIP3    H230044   4.960   4.537   5.476
10031TIP3   OH230045   5.076   4.849   6.627
10031TIP3    H130046   5.056   4.776   6.690
10031TIP3    H230047   5.170   4.863   6.651
10032TIP3   OH230048   5.059   4.598   5.780
10032TIP3    H130049   4.994   4.622   5.710
10032TIP3    H230050   5.098   4.520   5.735
10033TIP3   OH230051   4.352   4.626   6.513
10033TIP3    H130052   4.359   4.688   6.587
10033TIP3    H230053   4.338   4.541   6.559
10034TIP3   OH230054   4.401   4.111   5.219
10034TIP3    H130055   4.388   4.110   5.316
10034TIP3    H230056   4.323   4.163   5.192
10035TIP3   OH230057   3.942   4.150   6.090
10035TIP3    H130058   4.017   4.183   6.144
10035TIP3    H230059   3.984   4.119   6.009
10036TIP3   OH230060   3.901   4.130   5.609
10036TIP3    H130061   3.947   4.167   5.530
10036TIP3    H230062   3.840   4.204   5.627
10037TIP3   OH230063   5.073   4.844   6.209
10037TIP3    H130064   5.106   4.777   6.145
10037TIP3    H230065   5.045   4.785   6.282
10038TIP3   OH230066   4.750   4.312   5.875
10038TIP3    H130067   4.671   4.310   5.932
10038TIP3    H230068   4.822   4.295   5.938
10039TIP3   OH230069   4.175   4.369   5.881
10039TIP3    H130070   4.081   4.377   5.851
10039TIP3    H230071   4.198   4.277   5.860
10040TIP3   OH230072   4.436   4.361   5.576
10040TIP3    H130073   4.530   4.376   5.554
10040TIP3    H230074   4.389   4.383   5.492
10041TIP3   OH230075   5.231   4.391   6.083
10041TIP3    H130076   5.198   4.403   6.175
10041TIP3    H230077   5.165   4.329   6.048
10042TIP3   OH230078   4.293   4.401   5.348
10042TIP3    H130079   4.224   4.352   5.300
10042TIP3    H230080   4.345   4.438   5.274
10043TIP3   OH230081   5.412   6.078   6.298
10043TIP3    H130082   5.406   6.105   6.204
10043TIP3    H230083   5.491   6.128   6.326
10044TIP3   OH230084   4.368   5.187   6.712
10044TIP3    H130085   4.443   5.214   6.768
10044TIP3    H230086   4.297   5.185   6.778
10045TIP3   OH230087   4.819   4.643   5.977
10045TIP3    H130088   4.893   4.605   5.927
10045TIP3    H230089   4.821   4.592   6.060
10046TIP3   OH230090   4.338   4.124   5.862
10046TIP3    H130091   4.300   4.050   5.913
10046TIP3    H230092   4.381   4.077   5.790
10047TIP3   OH230093   4.797   4.547   6.249
10047TIP3    H130094   4.706   4.572   6.275
10047TIP3    H230095   4.853   4.596   6.312
10048TIP3   OH230096   4.533   4.927   5.358
10048TIP3    H130097   4.462   4.860   5.346
10048TIP3    H230098   4.511   4.962   5.448
10049TIP3   OH230099   5.431   5.166   5.980
10049TIP3    H130100   5.459   5.215   5.900
10049TIP3    H230101   5.349   5.121   5.950
10050TIP3   OH230102   4.993   4.233   5.232
10050TIP3    H130103   4.897   4.212   5.238
10050TIP3    H230104   4.997   4.328   5.254
10051TIP3   OH230105   4.889   5.242   6.370
10051TIP3    H130106   4.941   5.190   6.433
10051TIP3    H230107   4.924   5.331   6.386
10052TIP3   OH230108   5.059   4.488   5.330
10052TIP3    H130109   5.156   4.494   5.343
10052TIP3    H230110   5.040   4.569   5.277
10053TIP3   OH230111   4.231   4.953   6.032
10053TIP3    H130112   4.270   4.922   5.947
10053TIP3    H230113   4.272   4.894   6.096
10054TIP3   OH230114   4.682   5.076   5.184
10054TIP3    H130115   4.632   5.161   5.186
10054TIP3    H230116   4.627   5.021   5.245
10055TIP3   OH230117   4.119   4.863   6.642
10055TIP3    H130118   4.130   4.851   6.739
10055TIP3    H230119   4.044   4.804   6.625
10056TIP3   OH230120   4.838   4.989   6.656
10056TIP3    H130121   4.771   4.919   6.640
10056TIP3    H230122   4.921   4.941   6.637
10057TIP3   OH230123   5.081   5.496   6.271
10057TIP3    H130124   4.991   5.532   6.270
10057TIP3    H230125   5.121   5.549   6.343
10058TIP3   OH230126   5.497   4.583   5.160
10058TIP3    H130127   5.437   4.540   5.095
10058TIP3    H230128   5.495   4.673   5.121
10059TIP3   OH230129   5.722   5.440   6.237
10059TIP3    H130130   5.625   5.428   6.229
10059TIP3    H230131   5.750   5.409   6.148
10060TIP3   OH230132   5.206   5.398   5.070
10060TIP3    H130133   5.179   5.327   5.130
10060TIP3    H230134   5.220   5.351   4.986
10061TIP3   OH230135   5.200   5.031   5.893
10061TIP3    H130136   5.110   4.999   5.914
10061TIP3    H230137   5.236   4.949   5.852
10062TIP3   OH230138   4.331   5.268   5.659
10062TIP3    H130139   4.317   5.345   5.601
10062TIP3    H230140   4.242   5.235   5.672
10063TIP3   OH230141   3.897   4.556   5.367
10063TIP3    H130142   3.941   4.641   5.390
10063TIP3    H230143   3.819   4.559   5.427
10064TIP3   OH230144   4.453   5.020   5.599
10064TIP3    H130145   4.430   5.112   5.625
10064TIP3    H230146   4.421   4.969   5.676
10065TIP3   OH230147   4.636   5.563   6.113
10065TIP3    H130148   4.654   5.636   6.049
10065TIP3    H230149   4.681   5.600   6.191
10066TIP3   OH230150   4.241   5.499   5.512
10066TIP3    H130151   4.156   5.513   5.558
10066TIP3    H230152   4.279   5.589   5.515
10067TIP3   OH230153   4.968   5.246   6.103
10067TIP3    H130154   5.004   5.213   6.187
10067TIP3    H230155   5.018   5.190   6.040
10068TIP3   OH230156   4.968   5.131   4.972
10068TIP3    H130157   5.021   5.106   5.051
10068TIP3    H230158   4.881   5.096   4.997
10069TIP3   OH230159   5.232   5.762   6.133
10069TIP3    H130160   5.146   5.718   6.118
10069TIP3    H230161   5.227   5.830   6.062
10070TIP3   OH230162   5.302   5.599   4.786
10070TIP3    H130163   5.343   5.677   4.746
10070TIP3    H230164   5.220   5.639   4.821
10071TIP3   OH230165   4.316   4.376   6.647
10071TIP3    H130166   4.219   4.377   6.660
10071TIP3    H230167   4.344   4.323   6.724
10072TIP3   OH230168   5.128   5.063   5.188
10072TIP3    H130169   5.117   4.993   5.255
10072TIP3    H230170   5.225   5.056   5.173
10073TIP3   OH230171   4.047   5.457   6.283
10073TIP3    H130172   4.108   5.395   6.329
10073TIP3    H230173   4.051   5.533   6.342
10074TIP3   OH230174   4.325   5.104   4.971
10074TIP3    H130175   4.337   5.011   4.946
10074TIP3    H230176   4.303   5.096   5.066
10075TIP3   OH230177   4.269   5.111   5.242
10075TIP3    H130178   4.346   5.082   5.294
10075TIP3    H230179   4.273   5.208   5.252
10076TIP3   OH230180   4.002   4.800   5.448
10076TIP3    H130181   3.935   4.845   5.503
10076TIP3    H230182   4.015   4.867   5.378
10077TIP3   OH230183   5.152   4.444   6.344
10077TIP3    H130184   5.237   4.483   6.373
10077TIP3    H230185   5.147   4.362   6.397
10078TIP3   OH230186   5.044   4.182   5.511
10078TIP3    H130187   5.030   4.204   5.417
10078TIP3    H230188   5.084   4.266   5.545
10079TIP3   OH230189   4.541   5.307   5.191
10079TIP3    H130190   4.454   5.329   5.229
10079TIP3    H230191   4.553   5.381   5.131
10080TIP3   OH230192   4.720   4.374   5.607
10080TIP3    H130193   4.785   4.446   5.591
10080TIP3    H230194   4.730   4.362   5.704
10081TIP3   OH230195   4.989   4.684   6.412
10081TIP3    H130196   5.024   4.727   6.492
10081TIP3    H230197   5.041   4.601   6.411
10082TIP3   OH230198   4.867   4.085   5.703
10082TIP3    H130199   4.865   4.162   5.763
10082TIP3    H230200   4.931   4.117   5.635
10083TIP3   OH230201   4.288   5.383   5.263
10083TIP3    H130202   4.258   5.453   5.201
10083TIP3    H230203   4.269   5.426   5.350
10084TIP3   OH230204   4.383   4.098   5.495
10084TIP3    H130205   4.379   4.187   5.536
10084TIP3    H230206   4.479   4.081   5.503
10085TIP3   OH230207   5.630   4.588   6.398
10085TIP3    H130208   5.532   4.583   6.400
10085TIP3    H230209   5.648   4.540   6.316
10086TIP3   OH230210   5.286   4.784   5.783
10086TIP3    H130211   5.210   4.724   5.794
10086TIP3    H230212   5.357   4.736   5.830
10087TIP3   OH230213   4.004   5.002   5.250
10087TIP3    H130214   4.079   5.064   5.257
10087TIP3    H230215   4.042   4.941   5.183
10088TIP3   OH230216   3.940   4.284   5.386
10088TIP3    H130217   3.942   4.382   5.385
10088TIP3    H230218   3.864   4.265   5.331
10089TIP3   OH230219   5.257   5.741   5.726
10089TIP3    H130220   5.215   5.788   5.650
10089TIP3    H230221   5.352   5.762   5.708
10090TIP3   OH230222   4.332   4.006   6.253
10090TIP3    H130223   4.302   3.969   6.167
10090TIP3    H230224   4.322   3.928   6.313
10091TIP3   OH230225   3.867   5.228   5.626
10091TIP3    H130226   3.808   5.250   5.699
10091TIP3    H230227   3.824   5.276   5.550
10092TIP3   OH230228   4.031   5.776   6.711
10092TIP3    H130229   4.117   5.782   6.759
10092TIP3    H230230   4.016   5.680   6.712
10093TIP3   OH230231   4.500   5.728   6.760
10093TIP3    H130232   4.596   5.724   6.763
10093TIP3    H230233   4.478   5.664   6.690
10094TIP3   OH230234   4.489   5.305   4.878
10094TIP3    H130235   4.435   5.232   4.917
10094TIP3    H230236   4.565   5.255   4.844
10095TIP3   OH230237   5.150   5.631   6.506
10095TIP3    H130238   5.149   5.567   6.581
10095TIP3    H230239   5.230   5.683   6.526
10096TIP3   OH230240   4.924   5.341   4.796
10096TIP3    H130241   4.960   5.275   4.859
10096TIP3    H230242   4.985   5.334   4.720
10097TIP3   OH230243   4.162   5.178   6.902
10097TIP3    H130244   4.175   5.082   6.916
10097TIP3    H230245   4.074   5.179   6.859
10098TIP3   OH230246   4.138   4.817   5.107
10098TIP3    H130247   4.196   4.790   5.180
10098TIP3    H230248   4.204   4.824   5.034
10099TIP3   OH230249   4.764   5.262   6.675
10099TIP3    H130250   4.721   5.266   6.588
10099TIP3    H230251   4.801   5.171   6.676
10100TIP3   OH230252   4.659   5.024   4.915
10100TIP3    H130253   4.658   5.034   5.012
10100TIP3    H230254   4.660   4.926   4.907
10101TIP3   OH230255   5.252   5.280   6.291
10101TIP3    H130256   5.335   5.307   6.247
10101TIP3    H230257   5.196   5.358   6.273
10102TIP3   OH230258   4.285   4.914   6.893
10102TIP3    H130259   4.358   4.853   6.874
10102TIP3    H230260   4.311   4.948   6.981
10103TIP3   OH230261   4.340   4.731   5.320
10103TIP3    H130262   4.314   4.690   5.404
10103TIP3    H230263   4.380   4.656   5.271
10104TIP3   OH230264   4.632   4.815   6.545
10104TIP3    H130265   4.543   4.855   6.557
10104TIP3    H230266   4.654   4.846   6.455
10105TIP3   OH230267   4.449   4.529   5.162
10105TIP3    H130268   4.424   4.537   5.067
10105TIP3    H230269   4.547   4.528   5.155
10106TIP3   OH230270   5.138   5.199   6.680
10106TIP3    H130271   5.212   5.157   6.635
10106TIP3    H230272   5.127   5.139   6.757
10107TIP3   OH230273   5.261   4.851   4.835
10107TIP3    H130274   5.244   4.808   4.749
10107TIP3    H230275   5.228   4.941   4.815
10108TIP3   OH230276   4.734   4.587   6.675
10108TIP3    H130277   4.737   4.507   6.619
10108TIP3    H230278   4.696   4.653   6.615
10109TIP3   OH230279   4.740   4.375   6.487
10109TIP3    H130280   4.769   4.404   6.399
10109TIP3    H230281   4.647   4.348   6.470
10110TIP3   OH230282   4.754   4.925   6.315
10110TIP3    H130283   4.825   4.862   6.301
10110TIP3    H230284   4.802   5.002   6.347
10111TIP3   OH230285   5.343   4.867   6.734
10111TIP3    H130286   5.380   4.783   6.766
10111TIP3    H230287   5.422   4.910   6.698
10112TIP3   OH230288   5.383   5.131   6.477
10112TIP3    H130289   5.329   5.187   6.418
10112TIP3    H230290   5.473   5.147   6.440
10113TIP3   OH230291   4.615   4.686   6.909
10113TIP3    H130292   4.548   4.617   6.931
10113TIP3    H230293   4.649   4.653   6.824
10114TIP3   OH230294   4.872   4.131   6.558
10114TIP3    H130295   4.820   4.211   6.536
10114TIP3    H230296   4.804   4.061   6.548
10115TIP3   OH230297   4.995   4.634   6.773
10115TIP3    H130298   4.986   4.616   6.869
10115TIP3    H230299   4.906   4.608   6.743
10116TIP3   OH230300   5.233   4.589   6.626
10116TIP3    H130301   5.162   4.586   6.693
10116TIP3    H230302   5.310   4.558   6.678
10117TIP3   OH230303   5.458   4.524   6.770
10117TIP3    H130304   5.477   4.429   6.786
10117TIP3    H230305   5.457   4.561   6.860
10118TIP3   OH230306   4.456   4.467   6.970
10118TIP3    H130307   4.457   4.374   6.939
10118TIP3    H230308   4.496   4.456   7.059
10119TIP3   OH230309   4.964   4.142   6.817
10119TIP3    H130310   5.030   4.070   6.811
10119TIP3    H230311   4.925   4.137   6.727
10120TIP3   OH230312   5.032   4.357   6.973
10120TIP3    H130313   5.012   4.283   6.910
10120TIP3    H230314   4.951   4.411   6.967
10121TIP3   OH230315   4.258   5.588   5.076
10121TIP3    H130316   4.352   5.575   5.053
10121TIP3    H230317   4.229   5.639   4.998
10122TIP3   OH230318   3.733   4.969   5.284
10122TIP3    H130319   3.828   4.989   5.270
10122TIP3    H230320   3.726   4.880   5.244
10123TIP3   OH230321   3.644   5.576   5.720
10123TIP3    H130322   3.583   5.520   5.666
10123TIP3    H230323   3.682   5.506   5.777
10124TIP3   OH230324   3.782   5.425   5.898
10124TIP3    H130325   3.770   5.352   5.961
10124TIP3    H230326   3.839   5.483   5.953
10125TIP3   OH230327   5.513   5.830   5.693
10125TIP3    H130328   5.542   5.867   5.778
10125TIP3    H230329   5.581   5.863   5.632
10126TIP3   OH230330   5.535   5.848   5.979
10126TIP3    H130331   5.497   5.759   5.971
10126TIP3    H230332   5.619   5.827   6.024
10127TIP3   OH230333   5.594   5.520   6.539
10127TIP3    H130334   5.507   5.545   6.572
10127TIP3    H230335   5.641   5.606   6.538
10128TIP3   OH230336   5.405   5.038   5.163
10128TIP3    H130337   5.470   5.103   5.131
10128TIP3    H230338   5.451   5.001   5.241
10129TIP3   OH230339   5.532   4.905   5.368
10129TIP3    H130340   5.466   4.865   5.428
10129TIP3    H230341   5.600   4.939   5.430
10130TIP3   OH230342   5.585   5.300   5.794
10130TIP3    H130343   5.641   5.230   5.754
10130TIP3    H230344   5.591   5.372   5.728
10131TIP3   OH230345   5.413   5.596   5.993
10131TIP3    H130346   5.340   5.642   6.039
10131TIP3    H230347   5.366   5.552   5.919
10132TIP3   OH230348   5.467   4.815   5.012
10132TIP3    H130349   5.395   4.816   4.946
10132TIP3    H230350   5.439   4.891   5.068
10133TIP3   OH230351   5.337   4.486   4.963
10133TIP3    H130352   5.291   4.517   4.884
10133TIP3    H230353   5.317   4.390   4.958
10134TIP3   OH230354   5.340   4.766   5.512
10134TIP3    H130355   5.350   4.670   5.503
10134TIP3    H230356   5.326   4.777   5.608
10135TIP3   OH230357   3.966   4.837   6.261
10135TIP3    H130358   3.961   4.801   6.170
10135TIP3    H230359   4.063   4.835   6.276
10136TIP3   OH230360   5.632   5.188   6.368
10136TIP3    H130361   5.701   5.118   6.361
10136TIP3    H230362   5.664   5.253   6.305
10137TIP3   OH230363   5.812   4.987   6.380
10137TIP3    H130364   5.739   4.935   6.419
10137TIP3    H230365   5.887   4.925   6.396
10138TIP3   OH230366   5.282   4.219   4.945
10138TIP3    H130367   5.352   4.186   5.005
10138TIP3    H230368   5.206   4.162   4.966
10139TIP3   OH230369   5.341   4.482   5.401
10139TIP3    H130370   5.383   4.393   5.415
10139TIP3    H230371   5.399   4.515   5.329
10140TIP3   OH230372   5.497   4.649   5.901
10140TIP3    H130373   5.583   4.672   5.857
10140TIP3    H230374   5.516   4.686   5.990
10141TIP3   OH230375   5.574   4.796   6.130
10141TIP3    H130376   5.499   4.832   6.180
10141TIP3    H230377   5.608   4.877   6.085
10142TIP3   OH230378   4.191   4.523   6.938
10142TIP3    H130379   4.289   4.517   6.945
10142TIP3    H230380   4.166   4.435   6.972
10143TIP3   OH230381   6.016   4.388   6.685
10143TIP3    H130382   6.082   4.327   6.647
10143TIP3    H230383   5.991   4.442   6.607
10144TIP3   OH230384   5.449   4.232   5.443
10144TIP3    H130385   5.497   4.215   5.527
10144TIP3    H230386   5.387   4.156   5.442
10145TIP3   OH230387   4.149   4.216   6.263
10145TIP3    H130388   4.209   4.139   6.272
10145TIP3    H230389   4.214   4.288   6.254
10146TIP3   OH230390   3.946   4.486   6.334
10146TIP3    H130391   3.997   4.485   6.251
10146TIP3    H230392   3.978   4.566   6.376
10147TIP3   OH230393   5.889   4.525   6.485
10147TIP3    H130394   5.804   4.568   6.508
10147TIP3    H230395   5.856   4.449   6.433
10148TIP3   OH230396   5.523   4.159   5.081
10148TIP3    H130397   5.563   4.092   5.022
10148TIP3    H230398   5.589   4.230   5.080
10149TIP3   OH230399   3.936   3.990   5.838
10149TIP3    H130400   3.844   3.983   5.869
10149TIP3    H230401   3.927   4.049   5.761
10150TIP3   OH230402   5.091   5.697   5.344
10150TIP3    H130403   5.147   5.690   5.264
10150TIP3    H230404   5.141   5.762   5.397
10151TIP3   OH230405   4.156   4.075   6.653
10151TIP3    H130406   4.104   4.066   6.734
10151TIP3    H230407   4.089   4.110   6.592
10152TIP3   OH230408   4.199   5.499   6.728
10152TIP3    H130409   4.105   5.480   6.711
10152TIP3    H230410   4.204   5.485   6.824
10153TIP3   OH230411   4.390   5.536   6.282
10153TIP3    H130412   4.326   5.600   6.244
10153TIP3    H230413   4.467   5.557   6.229
10154TIP3   OH230414   4.813   5.769   6.401
10154TIP3    H130415   4.848   5.772   6.493
10154TIP3    H230416   4.877   5.828   6.355
10155TIP3   OH230417   4.995   5.930   6.280
10155TIP3    H130418   5.067   5.893   6.228
10155TIP3    H230419   5.045   5.989   6.340
10156TIP3   OH230420   5.792   4.286   6.374
10156TIP3    H130421   5.702   4.269   6.340
10156TIP3    H230422   5.831   4.196   6.366
10157TIP3   OH230423   4.054   5.793   6.308
10157TIP3    H130424   3.961   5.816   6.289
10157TIP3    H230425   4.075   5.861   6.376
10158TIP3   OH230426   4.287   5.759   6.163
10158TIP3    H130427   4.202   5.775   6.209
10158TIP3    H230428   4.270   5.800   6.076
10159TIP3   OH230429   4.703   5.783   5.965
10159TIP3    H130430   4.641   5.808   5.894
10159TIP3    H230431   4.716   5.870   6.009
10160TIP3   OH230432   4.981   5.729   6.016
10160TIP3    H130433   4.889   5.753   5.995
10160TIP3    H230434   5.029   5.800   5.968
10161TIP3   OH230435   5.176   5.918   5.920
10161TIP3    H130436   5.167   6.006   5.876
10161TIP3    H230437   5.209   5.863   5.845
10162TIP3   OH230438   3.954   5.588   6.047
10162TIP3    H130439   3.989   5.563   6.135
10162TIP3    H230440   4.027   5.553   5.991
10163TIP3   OH230441   4.148   5.464   5.905
10163TIP3    H130442   4.159   5.377   5.952
10163TIP3    H230443   4.241   5.494   5.900
10164TIP3   OH230444   4.417   5.562   5.892
10164TIP3    H130445   4.466   5.498   5.839
10164TIP3    H230446   4.463   5.558   5.978
10165TIP3   OH230447   4.989   4.200   5.991
10165TIP3    H130448   4.953   4.127   6.044
10165TIP3    H230449   5.068   4.160   5.950
10166TIP3   OH230450   5.512   4.084   5.893
10166TIP3    H130451   5.549   4.136   5.819
10166TIP3    H230452   5.418   4.108   5.889
10167TIP3   OH230453   5.612   4.182   5.659
10167TIP3    H130454   5.687   4.130   5.624
10167TIP3    H230455   5.648   4.273   5.645
10168TIP3   OH230456   4.244   3.910   6.007
10168TIP3    H130457   4.151   3.877   6.012
10168TIP3    H230458   4.292   3.825   6.003
10169TIP3   OH230459   4.037   3.787   5.661
10169TIP3    H130460   4.064   3.843   5.586
10169TIP3    H230461   4.009   3.854   5.727
10170TIP3   OH230462   4.694   3.943   5.892
10170TIP3    H130463   4.747   3.990   5.826
10170TIP3    H230464   4.727   3.980   5.975
10171TIP3   OH230465   5.226   4.094   5.874
10171TIP3    H130466   5.236   4.051   5.789
10171TIP3    H230467   5.219   4.016   5.934
10172TIP3   OH230468   5.266   4.020   5.437
10172TIP3    H130469   5.181   4.064   5.459
10172TIP3    H230470   5.252   3.933   5.481
10173TIP3   OH230471   3.744   5.369   5.431
10173TIP3    H130472   3.658   5.334   5.401
10173TIP3    H230473   3.741   5.457   5.387
10174TIP3   OH230474   4.154   3.941   5.418
10174TIP3    H130475   4.200   3.877   5.360
10174TIP3    H230476   4.229   3.994   5.453
10175TIP3   OH230477   4.659   4.123   5.519
10175TIP3    H130478   4.719   4.076   5.579
10175TIP3    H230479   4.680   4.215   5.543
10176TIP3   OH230480   4.522   5.536   5.019
10176TIP3    H130481   4.610   5.560   4.982
10176TIP3    H230482   4.500   5.462   4.958
10177TIP3   OH230483   5.242   5.665   5.114
10177TIP3    H130484   5.234   5.567   5.104
10177TIP3    H230485   5.195   5.694   5.033
10178TIP3   OH230486   4.452   4.196   6.902
10178TIP3    H130487   4.415   4.124   6.956
10178TIP3    H230488   4.546   4.193   6.930
10179TIP3   OH230489   4.704   4.192   7.017
10179TIP3    H130490   4.789   4.164   6.980
10179TIP3    H230491   4.690   4.123   7.086
10180TIP3   OH230492   3.824   5.376   5.069
10180TIP3    H130493   3.829   5.402   5.162
10180TIP3    H230494   3.911   5.332   5.055
10181TIP3   OH230495   5.531   4.257   6.804
10181TIP3    H130496   5.548   4.227   6.896
10181TIP3    H230497   5.621   4.252   6.766
10182TIP3   OH230498   5.448   5.805   6.308
10182TIP3    H130499   5.377   5.780   6.244
10182TIP3    H230500   5.441   5.902   6.305
10183TIP3   OH230501   6.736   5.180   5.055
10183TIP3    H130502   6.705   5.271   5.038
10183TIP3    H230503   6.656   5.130   5.031
10184TIP3   OH230504   6.720   5.180   5.454
10184TIP3    H130505   6.763   5.169   5.542
10184TIP3    H230506   6.686   5.090   5.440
10185TIP3   OH230507   6.024   5.068   5.818
10185TIP3    H130508   6.054   5.000   5.882
10185TIP3    H230509   6.107   5.117   5.805
10186TIP3   OH230510   6.980   5.484   5.132
10186TIP3    H130511   6.968   5.418   5.202
10186TIP3    H230512   7.008   5.562   5.184
10187TIP3   OH230513   6.004   5.482   5.528
10187TIP3    H130514   5.997   5.384   5.529
10187TIP3    H230515   6.101   5.493   5.526
10188TIP3   OH230516   5.709   4.681   5.310
10188TIP3    H130517   5.665   4.764   5.333
10188TIP3    H230518   5.637   4.633   5.265
10189TIP3   OH230519   5.765   4.972   5.500
10189TIP3    H130520   5.815   4.894   5.531
10189TIP3    H230521   5.831   5.019   5.448
10190TIP3   OH230522   6.631   5.939   5.149
10190TIP3    H130523   6.670   5.866   5.098
10190TIP3    H230524   6.622   5.900   5.236
10191TIP3   OH230525   6.530   5.404   5.494
10191TIP3    H130526   6.575   5.325   5.460
10191TIP3    H230527   6.610   5.454   5.520
10192TIP3   OH230528   7.553   4.725   5.487
10192TIP3    H130529   7.576   4.809   5.532
10192TIP3    H230530   7.577   4.746   5.395
10193TIP3   OH230531   6.941   4.906   5.519
10193TIP3    H130532   6.988   4.825   5.546
10193TIP3    H230533   6.909   4.882   5.430
10194TIP3   OH230534   6.285   4.566   5.489
10194TIP3    H130535   6.268   4.638   5.426
10194TIP3    H230536   6.234   4.493   5.446
10195TIP3   OH230537   6.982   4.654   5.108
10195TIP3    H130538   7.051   4.643   5.178
10195TIP3    H230539   7.037   4.691   5.036
10196TIP3   OH230540   5.915   4.766   5.597
10196TIP3    H130541   5.998   4.749   5.646
10196TIP3    H230542   5.932   4.712   5.517
10197TIP3   OH230543   6.353   4.963   5.398
10197TIP3    H130544   6.449   4.942   5.408
10197TIP3    H230545   6.317   4.879   5.364
10198TIP3   OH230546   7.613   4.941   5.657
10198TIP3    H130547   7.535   4.992   5.627
10198TIP3    H230548   7.578   4.908   5.742
10199TIP3   OH230549   6.278   4.548   5.924
10199TIP3    H130550   6.219   4.587   5.856
10199TIP3    H230551   6.226   4.565   6.005
10200TIP3   OH230552   6.623   5.404   4.925
10200TIP3    H130553   6.579   5.390   4.840
10200TIP3    H230554   6.575   5.482   4.958
10201TIP3   OH230555   6.385   5.324   5.712
10201TIP3    H130556   6.328   5.396   5.747
10201TIP3    H230557   6.431   5.369   5.638
10202TIP3   OH230558   7.176   4.666   5.298
10202TIP3    H130559   7.147   4.641   5.387
10202TIP3    H230560   7.230   4.745   5.318
10203TIP3   OH230561   6.150   4.664   5.707
10203TIP3    H130562   6.210   4.738   5.733
10203TIP3    H230563   6.201   4.625   5.633
10204TIP3   OH230564   6.215   5.524   5.814
10204TIP3    H130565   6.190   5.614   5.782
10204TIP3    H230566   6.136   5.506   5.870
10205TIP3   OH230567   5.601   5.213   5.052
10205TIP3    H130568   5.563   5.242   4.967
10205TIP3    H230569   5.635   5.297   5.088
10206TIP3   OH230570   7.033   5.718   5.282
10206TIP3    H130571   6.947   5.712   5.328
10206TIP3    H230572   7.028   5.809   5.246
10207TIP3   OH230573   7.335   4.673   5.666
10207TIP3    H130574   7.250   4.663   5.623
10207TIP3    H230575   7.399   4.671   5.593
10208TIP3   OH230576   6.623   4.260   5.638
10208TIP3    H130577   6.611   4.167   5.664
10208TIP3    H230578   6.549   4.302   5.687
10209TIP3   OH230579   6.739   5.766   4.958
10209TIP3    H130580   6.792   5.684   4.944
10209TIP3    H230581   6.801   5.831   4.919
10210TIP3   OH230582   6.892   5.552   4.881
10210TIP3    H130583   6.836   5.475   4.861
10210TIP3    H230584   6.934   5.524   4.965
10211TIP3   OH230585   7.242   5.612   5.658
10211TIP3    H130586   7.258   5.543   5.591
10211TIP3    H230587   7.247   5.693   5.605
10212TIP3   OH230588   6.560   5.028   4.897
10212TIP3    H130589   6.482   5.083   4.876
10212TIP3    H230590   6.609   5.030   4.813
10213TIP3   OH230591   6.519   4.823   4.603
10213TIP3    H130592   6.584   4.873   4.656
10213TIP3    H230593   6.579   4.760   4.556
10214TIP3   OH230594   7.465   5.262   5.468
10214TIP3    H130595   7.382   5.316   5.473
10214TIP3    H230596   7.502   5.299   5.385
10215TIP3   OH230597   6.914   5.114   4.861
10215TIP3    H130598   6.859   5.137   4.940
10215TIP3    H230599   6.998   5.090   4.906
10216TIP3   OH230600   7.130   5.128   5.756
10216TIP3    H130601   7.138   5.204   5.819
10216TIP3    H230602   7.045   5.151   5.714
10217TIP3   OH230603   6.145   5.108   5.284
10217TIP3    H130604   6.107   5.049   5.216
10217TIP3    H230605   6.221   5.056   5.318
10218TIP3   OH230606   6.275   5.522   5.431
10218TIP3    H130607   6.260   5.489   5.341
10218TIP3    H230608   6.364   5.485   5.450
10219TIP3   OH230609   6.268   5.087   5.636
10219TIP3    H130610   6.308   5.056   5.552
10219TIP3    H230611   6.318   5.169   5.655
10220TIP3   OH230612   6.800   5.725   5.419
10220TIP3    H130613   6.795   5.802   5.479
10220TIP3    H230614   6.784   5.650   5.480
10221TIP3   OH230615   6.419   5.636   5.963
10221TIP3    H130616   6.355   5.695   6.007
10221TIP3    H230617   6.357   5.582   5.910
10222TIP3   OH230618   6.747   4.974   4.693
10222TIP3    H130619   6.808   5.034   4.742
10222TIP3    H230620   6.774   4.993   4.600
10223TIP3   OH230621   6.176   5.196   6.070
10223TIP3    H130622   6.180   5.285   6.111
10223TIP3    H230623   6.082   5.174   6.084
10224TIP3   OH230624   6.497   5.646   4.964
10224TIP3    H130625   6.582   5.694   4.969
10224TIP3    H230626   6.438   5.713   4.929
10225TIP3   OH230627   6.206   5.793   6.043
10225TIP3    H130628   6.173   5.803   5.952
10225TIP3    H230629   6.123   5.778   6.094
10226TIP3   OH230630   7.264   4.209   4.742
10226TIP3    H130631   7.184   4.233   4.793
10226TIP3    H230632   7.281   4.292   4.693
10227TIP3   OH230633   6.014   4.953   5.080
10227TIP3    H130634   5.939   4.995   5.032
10227TIP3    H230635   5.979   4.866   5.100
10228TIP3   OH230636   7.068   5.577   4.291
10228TIP3    H130637   7.076   5.673   4.277
10228TIP3    H230638   7.161   5.548   4.277
10229TIP3   OH230639   5.788   5.338   5.996
10229TIP3    H130640   5.725   5.313   5.926
10229TIP3    H230641   5.829   5.253   6.021
10230TIP3   OH230642   5.649   5.529   5.629
10230TIP3    H130643   5.744   5.518   5.614
10230TIP3    H230644   5.648   5.606   5.687
10231TIP3   OH230645   6.594   5.768   5.802
10231TIP3    H130646   6.593   5.859   5.839
10231TIP3    H230647   6.533   5.722   5.863
10232TIP3   OH230648   6.380   5.892   4.772
10232TIP3    H130649   6.330   5.880   4.690
10232TIP3    H230650   6.348   5.978   4.804
10233TIP3   OH230651   5.815   5.741   5.160
10233TIP3    H130652   5.863   5.736   5.246
10233TIP3    H230653   5.771   5.655   5.158
10234TIP3   OH230654   6.576   5.798   4.408
10234TIP3    H130655   6.634   5.727   4.375
10234TIP3    H230656   6.610   5.810   4.500
10235TIP3   OH230657   6.630   5.847   4.676
10235TIP3    H130658   6.542   5.855   4.719
10235TIP3    H230659   6.683   5.815   4.750
10236TIP3   OH230660   7.387   5.098   5.928
10236TIP3    H130661   7.321   5.139   5.871
10236TIP3    H230662   7.412   5.020   5.876
10237TIP3   OH230663   5.994   5.522   5.980
10237TIP3    H130664   6.045   5.505   6.061
10237TIP3    H230665   5.921   5.457   5.988
10238TIP3   OH230666   6.391   4.342   5.774
10238TIP3    H130667   6.303   4.314   5.743
10238TIP3    H230668   6.366   4.422   5.824
10239TIP3   OH230669   6.934   4.453   5.964
10239TIP3    H130670   7.007   4.429   6.025
10239TIP3    H230671   6.855   4.439   6.019
10240TIP3   OH230672   7.168   4.882   5.881
10240TIP3    H130673   7.115   4.881   5.964
10240TIP3    H230674   7.143   4.967   5.840
10241TIP3   OH230675   6.825   5.008   4.436
10241TIP3    H130676   6.791   4.990   4.347
10241TIP3    H230677   6.911   5.051   4.416
10242TIP3   OH230678   6.537   4.390   4.743
10242TIP3    H130679   6.504   4.386   4.835
10242TIP3    H230680   6.495   4.309   4.708
10243TIP3   OH230681   6.322   4.863   5.784
10243TIP3    H130682   6.284   4.887   5.871
10243TIP3    H230683   6.305   4.944   5.733
10244TIP3   OH230684   6.209   4.746   5.301
10244TIP3    H130685   6.117   4.719   5.323
10244TIP3    H230686   6.219   4.703   5.214
10245TIP3   OH230687   6.698   4.827   5.031
10245TIP3    H130688   6.649   4.900   4.987
10245TIP3    H230689   6.755   4.794   4.959
10246TIP3   OH230690   6.881   5.097   6.105
10246TIP3    H130691   6.850   5.028   6.168
10246TIP3    H230692   6.976   5.099   6.130
10247TIP3   OH230693   6.852   4.850   5.267
10247TIP3    H130694   6.789   4.878   5.198
10247TIP3    H230695   6.890   4.773   5.220
10248TIP3   OH230696   6.140   4.888   6.000
10248TIP3    H130697   6.199   4.942   6.055
10248TIP3    H230698   6.134   4.805   6.052
10249TIP3   OH230699   6.195   4.367   4.707
10249TIP3    H130700   6.184   4.368   4.804
10249TIP3    H230701   6.119   4.421   4.679
10250TIP3   OH230702   5.740   4.404   5.578
10250TIP3    H130703   5.811   4.441   5.636
10250TIP3    H230704   5.787   4.380   5.498
10251TIP3   OH230705   5.695   4.387   5.095
10251TIP3    H130706   5.742   4.423   5.017
10251TIP3    H230707   5.636   4.462   5.114
10252TIP3   OH230708   6.840   5.097   5.682
10252TIP3    H130709   6.883   5.030   5.624
10252TIP3    H230710   6.822   5.041   5.761
10253TIP3   OH230711   6.540   4.567   5.359
10253TIP3    H130712   6.465   4.567   5.421
10253TIP3    H230713   6.616   4.552   5.418
10254TIP3   OH230714   5.971   4.626   5.367
10254TIP3    H130715   5.877   4.632   5.338
10254TIP3    H230716   5.995   4.534   5.346
10255TIP3   OH230717   6.232   4.614   5.063
10255TIP3    H130718   6.326   4.633   5.045
10255TIP3    H230719   6.187   4.638   4.979
10256TIP3   OH230720   7.030   4.644   5.557
10256TIP3    H130721   7.009   4.658   5.653
10256TIP3    H230722   6.957   4.586   5.532
10257TIP3   OH230723   6.091   4.654   4.834
10257TIP3    H130724   6.021   4.609   4.784
10257TIP3    H230725   6.142   4.694   4.761
10258TIP3   OH230726   6.158   5.447   6.205
10258TIP3    H130727   6.239   5.475   6.251
10258TIP3    H230728   6.096   5.442   6.280
10259TIP3   OH230729   6.618   4.899   5.460
10259TIP3    H130730   6.695   4.862   5.414
10259TIP3    H230731   6.622   4.855   5.546
10260TIP3   OH230732   6.131   4.382   5.348
10260TIP3    H130733   6.094   4.307   5.399
10260TIP3    H230734   6.182   4.336   5.280
10261TIP3   OH230735   6.595   4.800   5.746
10261TIP3    H130736   6.507   4.837   5.765
10261TIP3    H230737   6.655   4.857   5.798
10262TIP3   OH230738   6.330   5.182   4.840
10262TIP3    H130739   6.257   5.117   4.829
10262TIP3    H230740   6.309   5.216   4.931
10263TIP3   OH230741   7.239   5.411   5.464
10263TIP3    H130742   7.256   5.472   5.389
10263TIP3    H230743   7.150   5.376   5.443
10264TIP3   OH230744   6.787   4.494   4.706
10264TIP3    H130745   6.692   4.474   4.722
10264TIP3    H230746   6.796   4.587   4.737
10265TIP3   OH230747   6.734   5.500   5.854
10265TIP3    H130748   6.774   5.476   5.939
10265TIP3    H230749   6.693   5.586   5.872
10266TIP3   OH230750   6.856   4.743   4.814
10266TIP3    H130751   6.952   4.749   4.832
10266TIP3    H230752   6.839   4.825   4.765
10267TIP3   OH230753   6.024   5.203   5.515
10267TIP3    H130754   6.064   5.177   5.429
10267TIP3    H230755   6.082   5.156   5.577
10268TIP3   OH230756   6.476   5.332   4.666
10268TIP3    H130757   6.426   5.417   4.668
10268TIP3    H230758   6.422   5.277   4.727
10269TIP3   OH230759   5.908   5.132   6.138
10269TIP3    H130760   5.935   5.119   6.231
10269TIP3    H230761   5.848   5.057   6.125
10270TIP3   OH230762   6.628   5.229   6.160
10270TIP3    H130763   6.580   5.167   6.105
10270TIP3    H230764   6.719   5.218   6.126
10271TIP3   OH230765   6.872   5.777   5.752
10271TIP3    H130766   6.776   5.767   5.741
10271TIP3    H230767   6.881   5.774   5.848
10272TIP3   OH230768   7.294   4.839   4.647
10272TIP3    H130769   7.233   4.796   4.582
10272TIP3    H230770   7.292   4.930   4.609
10273TIP3   OH230771   7.004   5.655   4.561
10273TIP3    H130772   6.973   5.591   4.628
10273TIP3    H230773   7.013   5.601   4.481
10274TIP3   OH230774   6.995   5.290   5.370
10274TIP3    H130775   6.904   5.268   5.395
10274TIP3    H230776   7.026   5.204   5.334
10275TIP3   OH230777   6.129   5.512   5.143
10275TIP3    H130778   6.124   5.594   5.089
10275TIP3    H230779   6.037   5.497   5.163
10276TIP3   OH230780   5.694   4.812   4.856
10276TIP3    H130781   5.738   4.897   4.878
10276TIP3    H230782   5.616   4.816   4.916
10277TIP3   OH230783   6.252   5.271   5.082
10277TIP3    H130784   6.221   5.362   5.103
10277TIP3    H230785   6.223   5.222   5.160
10278TIP3   OH230786   6.396   5.852   5.609
10278TIP3    H130787   6.440   5.926   5.562
10278TIP3    H230788   6.472   5.811   5.655
10279TIP3   OH230789   6.042   5.752   4.995
10279TIP3    H130790   5.958   5.761   5.044
10279TIP3    H230791   6.075   5.845   5.000
10280TIP3   OH230792   6.774   5.492   5.581
10280TIP3    H130793   6.756   5.487   5.677
10280TIP3    H230794   6.867   5.463   5.583
10281TIP3   OH230795   6.763   5.387   4.458
10281TIP3    H130796   6.819   5.359   4.534
10281TIP3    H230797   6.676   5.356   4.488
10282TIP3   OH230798   7.049   6.004   5.574
10282TIP3    H130799   6.977   5.961   5.622
10282TIP3    H230800   7.009   6.089   5.551
10283TIP3   OH230801   7.091   5.859   4.262
10283TIP3    H130802   7.074   5.904   4.178
10283TIP3    H230803   7.021   5.900   4.317
10284TIP3   OH230804   6.117   4.630   6.137
10284TIP3    H130805   6.021   4.629   6.150
10284TIP3    H230806   6.149   4.581   6.214
10285TIP3   OH230807   6.925   5.307   4.662
10285TIP3    H130808   6.913   5.247   4.738
10285TIP3    H230809   7.022   5.307   4.655
10286TIP3   OH230810   5.831   5.715   5.773
10286TIP3    H130811   5.889   5.649   5.815
10286TIP3    H230812   5.863   5.797   5.814
10287TIP3   OH230813   6.120   5.361   4.458
10287TIP3    H130814   6.134   5.267   4.435
10287TIP3    H230815   6.100   5.354   4.554
10288TIP3   OH230816   6.064   5.367   4.729
10288TIP3    H130817   6.140   5.339   4.782
10288TIP3    H230818   6.067   5.465   4.740
10289TIP3   OH230819   5.797   5.056   4.936
10289TIP3    H130820   5.730   5.102   4.991
10289TIP3    H230821   5.812   5.124   4.867
10290TIP3   OH230822   6.966   4.690   5.818
10290TIP3    H130823   7.044   4.735   5.856
10290TIP3    H230824   6.956   4.614   5.878
10291TIP3   OH230825   6.843   4.439   4.997
10291TIP3    H130826   6.830   4.466   4.904
10291TIP3    H230827   6.884   4.519   5.035
10292TIP3   OH230828   6.333   5.561   4.673
10292TIP3    H130829   6.247   5.583   4.713
10292TIP3    H230830   6.352   5.644   4.627
10293TIP3   OH230831   6.513   4.630   5.093
10293TIP3    H130832   6.578   4.702   5.077
10293TIP3    H230833   6.523   4.616   5.190
10294TIP3   OH230834   6.794   4.933   5.895
10294TIP3    H130835   6.824   4.988   5.971
10294TIP3    H230836   6.850   4.854   5.905
10295TIP3   OH230837   6.667   4.339   5.190
10295TIP3    H130838   6.675   4.408   5.258
10295TIP3    H230839   6.730   4.374   5.123
10296TIP3   OH230840   6.082   5.639   4.749
10296TIP3    H130841   6.052   5.710   4.688
10296TIP3    H230842   6.066   5.681   4.837
10297TIP3   OH230843   6.181   4.353   4.982
10297TIP3    H130844   6.175   4.442   5.022
10297TIP3    H230845   6.277   4.338   4.991
10298TIP3   OH230846   7.440   4.833   5.860
10298TIP3    H130847   7.345   4.849   5.877
10298TIP3    H230848   7.428   4.751   5.807
10299TIP3   OH230849   7.082   5.037   5.266
10299TIP3    H130850   7.006   4.980   5.286
10299TIP3    H230851   7.154   4.993   5.316
10300TIP3   OH230852   5.800   5.259   4.736
10300TIP3    H130853   5.876   5.321   4.746
10300TIP3    H230854   5.841   5.198   4.670
10301TIP3   OH230855   5.736   4.540   4.871
10301TIP3    H130856   5.741   4.638   4.872
10301TIP3    H230857   5.656   4.525   4.820
10302TIP3   OH230858   7.044   5.987   5.212
10302TIP3    H130859   7.003   6.033   5.136
10302TIP3    H230860   7.135   6.018   5.204
10303TIP3   OH230861   6.126   4.263   5.740
10303TIP3    H130862   6.098   4.226   5.654
10303TIP3    H230863   6.117   4.185   5.799
10304TIP3   OH230864   5.659   5.479   5.118
10304TIP3    H130865   5.604   5.510   5.191
10304TIP3    H230866   5.620   5.526   5.040
10305TIP3   OH230867   5.832   6.032   6.212
10305TIP3    H130868   5.923   6.032   6.249
10305TIP3    H230869   5.820   5.937   6.195
10306TIP3   OH230870   6.296   5.959   6.243
10306TIP3    H130871   6.389   5.930   6.253
10306TIP3    H230872   6.269   5.905   6.167
10307TIP3   OH230873   6.283   5.561   4.361
10307TIP3    H130874   6.229   5.490   4.404
10307TIP3    H230875   6.361   5.510   4.333
10308TIP3   OH230876   6.719   5.598   4.283
10308TIP3    H130877   6.754   5.530   4.345
10308TIP3    H230878   6.779   5.589   4.206
10309TIP3   OH230879   5.953   5.430   6.395
10309TIP3    H130880   5.972   5.335   6.403
10309TIP3    H230881   5.867   5.429   6.346
10310TIP3   OH230882   5.935   5.073   4.595
10310TIP3    H130883   5.993   5.047   4.669
10310TIP3    H230884   6.001   5.080   4.523
10311TIP3   OH230885   6.560   5.523   6.173
10311TIP3    H130886   6.522   5.539   6.084
10311TIP3    H230887   6.601   5.435   6.162
10312TIP3   OH230888   6.451   5.280   4.398
10312TIP3    H130889   6.452   5.292   4.495
10312TIP3    H230890   6.452   5.182   4.392
10313TIP3   OH230891   7.016   5.474   5.718
10313TIP3    H130892   7.103   5.517   5.704
10313TIP3    H230893   6.971   5.541   5.770
10314TIP3   OH230894   6.076   5.170   6.375
10314TIP3    H130895   6.155   5.124   6.345
10314TIP3    H230896   6.104   5.198   6.465
10315TIP3   OH230897   6.131   4.990   4.805
10315TIP3    H130898   6.108   4.954   4.893
10315TIP3    H230899   6.173   4.913   4.761
10316TIP3   OH230900   6.393   5.034   6.025
10316TIP3    H130901   6.327   5.106   6.035
10316TIP3    H230902   6.455   5.074   5.959
10317TIP3   OH230903   6.245   4.785   4.649
10317TIP3    H130904   6.221   4.795   4.555
10317TIP3    H230905   6.343   4.786   4.643
10318TIP3   OH230906   6.852   5.411   6.101
10318TIP3    H130907   6.920   5.352   6.065
10318TIP3    H230908   6.860   5.392   6.196
10319TIP3   OH230909   7.057   5.107   4.322
10319TIP3    H130910   7.039   5.065   4.235
10319TIP3    H230911   7.023   5.198   4.302
10320TIP3   OH230912   6.528   4.841   6.165
10320TIP3    H130913   6.536   4.762   6.107
10320TIP3    H230914   6.484   4.905   6.105
10321TIP3   OH230915   6.537   4.628   5.974
10321TIP3    H130916   6.567   4.669   5.890
10321TIP3    H230917   6.444   4.605   5.953
10322TIP3   OH230918   6.557   5.157   5.852
10322TIP3    H130919   6.645   5.169   5.814
10322TIP3    H230920   6.505   5.223   5.802
10323TIP3   OH230921   7.133   5.114   6.228
10323TIP3    H130922   7.195   5.043   6.250
10323TIP3    H230923   7.194   5.182   6.197
10324TIP3   OH230924   7.190   5.328   5.926
10324TIP3    H130925   7.150   5.416   5.913
10324TIP3    H230926   7.283   5.352   5.939
10325TIP3   OH230927   6.407   4.946   6.397
10325TIP3    H130928   6.343   4.875   6.417
10325TIP3    H230929   6.445   4.915   6.312
10326TIP3   OH230930   6.666   4.386   6.045
10326TIP3    H130931   6.618   4.468   6.022
10326TIP3    H230932   6.597   4.318   6.035
10327TIP3   OH230933   6.794   4.889   6.260
10327TIP3    H130934   6.794   4.875   6.356
10327TIP3    H230935   6.702   4.863   6.239
10328TIP3   OH230936   7.018   4.831   6.101
10328TIP3    H130937   6.951   4.836   6.172
10328TIP3    H230938   7.099   4.806   6.151
10329TIP3   OH230939   7.241   4.776   6.242
10329TIP3    H130940   7.266   4.683   6.258
10329TIP3    H230941   7.249   4.815   6.331
10330TIP3   OH230942   6.248   4.723   6.456
10330TIP3    H130943   6.255   4.630   6.426
10330TIP3    H230944   6.288   4.716   6.545
10331TIP3   OH230945   6.756   4.394   6.305
10331TIP3    H130946   6.825   4.325   6.298
10331TIP3    H230947   6.719   4.391   6.214
10332TIP3   OH230948   6.822   4.610   6.461
10332TIP3    H130949   6.803   4.538   6.397
10332TIP3    H230950   6.742   4.666   6.453
10333TIP3   OH230951   6.053   5.841   4.559
10333TIP3    H130952   6.148   5.827   4.541
10333TIP3    H230953   6.029   5.897   4.483
10334TIP3   OH230954   5.529   5.226   4.768
10334TIP3    H130955   5.625   5.245   4.756
10334TIP3    H230956   5.523   5.136   4.729
10335TIP3   OH230957   5.448   5.833   5.193
10335TIP3    H130958   5.382   5.773   5.153
10335TIP3    H230959   5.492   5.772   5.256
10336TIP3   OH230960   5.580   5.674   5.378
10336TIP3    H130961   5.569   5.610   5.450
10336TIP3    H230962   5.636   5.740   5.423
10337TIP3   OH230963   7.369   6.044   5.138
10337TIP3    H130964   7.357   6.056   5.234
10337TIP3    H230965   7.363   6.136   5.108
10338TIP3   OH230966   7.201   5.294   4.649
10338TIP3    H130967   7.268   5.358   4.620
10338TIP3    H230968   7.244   5.256   4.729
10339TIP3   OH230969   7.325   5.160   4.852
10339TIP3    H130970   7.260   5.121   4.915
10339TIP3    H230971   7.395   5.194   4.912
10340TIP3   OH230972   7.389   5.562   5.279
10340TIP3    H130973   7.426   5.483   5.234
10340TIP3    H230974   7.383   5.627   5.206
10341TIP3   OH230975   7.218   5.819   5.472
10341TIP3    H130976   7.150   5.879   5.509
10341TIP3    H230977   7.166   5.774   5.403
10342TIP3   OH230978   7.263   5.071   4.499
10342TIP3    H130979   7.190   5.073   4.433
10342TIP3    H230980   7.236   5.147   4.556
10343TIP3   OH230981   7.134   4.742   4.448
10343TIP3    H130982   7.084   4.774   4.372
10343TIP3    H230983   7.115   4.646   4.443
10344TIP3   OH230984   7.137   5.022   4.999
10344TIP3    H130985   7.147   4.926   4.993
10344TIP3    H230986   7.121   5.036   5.095
10345TIP3   OH230987   5.763   5.097   5.749
10345TIP3    H130988   5.760   5.058   5.659
10345TIP3    H230989   5.860   5.096   5.766
10346TIP3   OH230990   7.081   4.474   4.429
10346TIP3    H130991   7.154   4.445   4.487
10346TIP3    H230992   7.007   4.417   4.455
10347TIP3   OH230993   7.136   4.736   4.887
10347TIP3    H130994   7.178   4.648   4.901
10347TIP3    H230995   7.194   4.772   4.818
10348TIP3   OH230996   7.293   4.902   5.383
10348TIP3    H130997   7.381   4.924   5.345
10348TIP3    H230998   7.307   4.936   5.474
10349TIP3   OH230999   7.361   5.051   5.608
10349TIP3    H131000   7.278   5.079   5.652
10349TIP3    H231001   7.391   5.134   5.566
10350TIP3   OH231002   5.982   4.776   6.415
10350TIP3    H131003   6.080   4.775   6.425
10350TIP3    H231004   5.961   4.689   6.455
10351TIP3   OH231005   7.800   4.631   6.220
10351TIP3    H131006   7.848   4.559   6.182
10351TIP3    H231007   7.825   4.707   6.163
10352TIP3   OH231008   7.245   4.488   4.928
10352TIP3    H131009   7.294   4.473   5.012
10352TIP3    H231010   7.185   4.411   4.929
10353TIP3   OH231011   5.943   4.474   5.754
10353TIP3    H131012   6.004   4.397   5.761
10353TIP3    H231013   6.007   4.547   5.743
10354TIP3   OH231014   5.741   4.744   5.818
10354TIP3    H131015   5.793   4.743   5.736
10354TIP3    H231016   5.779   4.820   5.865
10355TIP3   OH231017   7.319   4.417   4.565
10355TIP3    H131018   7.362   4.348   4.511
10355TIP3    H231019   7.386   4.488   4.568
10356TIP3   OH231020   5.732   4.240   5.320
10356TIP3    H131021   5.641   4.238   5.355
10356TIP3    H231022   5.723   4.303   5.245
10357TIP3   OH231023   6.885   5.947   4.824
10357TIP3    H131024   6.950   5.948   4.751
10357TIP3    H231025   6.922   6.012   4.886
10358TIP3   OH231026   5.951   4.326   6.138
10358TIP3    H131027   5.901   4.324   6.221
10358TIP3    H231028   5.884   4.364   6.077
10359TIP3   OH231029   5.984   5.770   6.208
10359TIP3    H131030   5.894   5.735   6.201
10359TIP3    H231031   6.010   5.745   6.298
10360TIP3   OH231032   6.172   5.791   5.760
10360TIP3    H131033   6.124   5.868   5.720
10360TIP3    H231034   6.258   5.804   5.715
10361TIP3   OH231035   6.612   6.043   5.852
10361TIP3    H131036   6.662   6.054   5.936
10361TIP3    H231037   6.683   6.046   5.787
10362TIP3   OH231038   5.843   6.042   5.797
10362TIP3    H131039   5.753   6.072   5.774
10362TIP3    H231040   5.869   6.113   5.858
10363TIP3   OH231041   6.075   6.015   5.644
10363TIP3    H131042   5.989   6.035   5.687
10363TIP3    H231043   6.060   6.051   5.554
10364TIP3   OH231044   6.502   6.051   5.440
10364TIP3    H131045   6.432   6.071   5.375
10364TIP3    H231046   6.515   6.139   5.482
10365TIP3   OH231047   6.763   5.996   5.511
10365TIP3    H131048   6.672   6.010   5.480
10365TIP3    H231049   6.812   6.062   5.458
10366TIP3   OH231050   6.929   6.184   5.376
10366TIP3    H131051   6.964   6.251   5.316
10366TIP3    H231052   6.974   6.106   5.339
10367TIP3   OH231053   5.754   5.836   5.530
10367TIP3    H131054   5.782   5.810   5.620
10367TIP3    H231055   5.829   5.797   5.479
10368TIP3   OH231056   5.954   5.713   5.393
10368TIP3    H131057   5.969   5.629   5.442
10368TIP3    H231058   6.045   5.749   5.392
10369TIP3   OH231059   6.221   5.798   5.400
10369TIP3    H131060   6.250   5.705   5.395
10369TIP3    H231061   6.273   5.827   5.478
10370TIP3   OH231062   6.776   4.453   5.463
10370TIP3    H131063   6.747   4.383   5.525
10370TIP3    H231064   6.862   4.417   5.431
10371TIP3   OH231065   7.310   4.329   5.375
10371TIP3    H131066   7.349   4.386   5.304
10371TIP3    H231067   7.224   4.371   5.389
10372TIP3   OH231068   7.409   4.442   5.144
10372TIP3    H131069   7.484   4.390   5.111
10372TIP3    H231070   7.443   4.533   5.130
10373TIP3   OH231071   6.040   4.166   5.492
10373TIP3    H131072   5.948   4.133   5.499
10373TIP3    H231073   6.088   4.081   5.489
10374TIP3   OH231074   5.832   4.043   5.146
10374TIP3    H131075   5.859   4.100   5.072
10374TIP3    H231076   5.803   4.109   5.213
10375TIP3   OH231077   6.490   4.200   5.380
10375TIP3    H131078   6.541   4.250   5.314
10375TIP3    H231079   6.524   4.236   5.463
10376TIP3   OH231080   7.014   4.348   5.364
10376TIP3    H131081   7.044   4.308   5.282
10376TIP3    H231082   7.008   4.270   5.423
10377TIP3   OH231083   7.061   4.276   4.923
10377TIP3    H131084   6.979   4.323   4.948
10377TIP3    H231085   7.048   4.190   4.969
10378TIP3   OH231086   5.544   5.618   4.917
10378TIP3    H131087   5.458   5.586   4.885
10378TIP3    H231088   5.537   5.712   4.894
10379TIP3   OH231089   5.950   4.199   4.905
10379TIP3    H131090   5.998   4.136   4.848
10379TIP3    H231091   6.024   4.253   4.941
10380TIP3   OH231092   6.458   4.377   5.007
10380TIP3    H131093   6.521   4.337   5.070
10380TIP3    H231094   6.474   4.472   5.030
10381TIP3   OH231095   6.317   5.792   4.504
10381TIP3    H131096   6.405   5.816   4.468
10381TIP3    H231097   6.296   5.716   4.445
10382TIP3   OH231098   7.049   5.920   4.596
10382TIP3    H131099   7.035   5.822   4.591
10382TIP3    H231100   6.989   5.950   4.524
10383TIP3   OH231101   6.248   4.446   6.382
10383TIP3    H131102   6.212   4.377   6.441
10383TIP3    H231103   6.342   4.447   6.412
10384TIP3   OH231104   6.497   4.446   6.502
10384TIP3    H131105   6.585   4.427   6.466
10384TIP3    H231106   6.488   4.376   6.570
10385TIP3   OH231107   5.619   5.633   4.558
10385TIP3    H131108   5.626   5.645   4.654
10385TIP3    H231109   5.706   5.590   4.538
10386TIP3   OH231110   7.317   4.515   6.284
10386TIP3    H131111   7.338   4.477   6.372
10386TIP3    H231112   7.405   4.508   6.238
10387TIP3   OH231113   7.813   5.306   5.291
10387TIP3    H131114   7.828   5.290   5.387
10387TIP3    H231115   7.876   5.379   5.278
10388TIP3   OH231116   7.794   5.732   5.028
10388TIP3    H131117   7.790   5.636   5.010
10388TIP3    H231118   7.869   5.737   5.088
10389TIP3   OH231119   7.508   4.940   4.794
10389TIP3    H131120   7.463   5.022   4.820
10389TIP3    H231121   7.433   4.891   4.755
10390TIP3   OH231122   7.564   5.225   4.970
10390TIP3    H131123   7.614   5.148   5.007
10390TIP3    H231124   7.634   5.273   4.925
10391TIP3   OH231125   8.067   4.817   4.979
10391TIP3    H131126   8.055   4.892   4.918
10391TIP3    H231127   8.020   4.746   4.930
10392TIP3   OH231128   7.710   5.025   5.082
10392TIP3    H131129   7.793   5.006   5.130
10392TIP3    H231130   7.724   4.967   5.004
10393TIP3   OH231131   8.158   5.215   4.885
10393TIP3    H131132   8.245   5.184   4.914
10393TIP3    H231133   8.115   5.132   4.855
10394TIP3   OH231134   8.069   4.795   5.418
10394TIP3    H131135   8.015   4.852   5.365
10394TIP3    H231136   8.009   4.777   5.494
10395TIP3   OH231137   7.942   4.921   5.200
10395TIP3    H131138   8.010   4.987   5.206
10395TIP3    H231139   7.982   4.866   5.126
10396TIP3   OH231140   7.396   5.462   4.536
10396TIP3    H131141   7.354   5.492   4.454
10396TIP3    H231142   7.428   5.548   4.573
10397TIP3   OH231143   8.373   4.551   5.085
10397TIP3    H131144   8.414   4.468   5.114
10397TIP3    H231145   8.304   4.566   5.155
10398TIP3   OH231146   8.272   5.188   4.336
10398TIP3    H131147   8.219   5.270   4.336
10398TIP3    H231148   8.362   5.223   4.341
10399TIP3   OH231149   7.945   5.363   4.768
10399TIP3    H131150   7.904   5.305   4.700
10399TIP3    H231151   8.019   5.307   4.800
10400TIP3   OH231152   8.069   5.353   5.108
10400TIP3    H131153   8.095   5.299   5.024
10400TIP3    H231154   8.139   5.421   5.104
10401TIP3   OH231155   7.813   5.211   4.564
10401TIP3    H131156   7.735   5.248   4.518
10401TIP3    H231157   7.781   5.123   4.588
10402TIP3   OH231158   7.639   5.554   5.418
10402TIP3    H131159   7.559   5.548   5.364
10402TIP3    H231160   7.600   5.574   5.507
10403TIP3   OH231161   7.438   5.777   5.093
10403TIP3    H131162   7.529   5.770   5.124
10403TIP3    H231163   7.413   5.866   5.124
10404TIP3   OH231164   8.098   6.180   4.253
10404TIP3    H131165   8.114   6.136   4.169
10404TIP3    H231166   8.170   6.244   4.258
10405TIP3   OH231167   7.599   6.001   4.645
10405TIP3    H131168   7.661   5.987   4.721
10405TIP3    H231169   7.535   5.933   4.668
10406TIP3   OH231170   8.174   4.590   5.269
10406TIP3    H131171   8.079   4.574   5.247
10406TIP3    H231172   8.166   4.676   5.315
10407TIP3   OH231173   8.130   5.105   5.223
10407TIP3    H131174   8.158   5.115   5.316
10407TIP3    H231175   8.109   5.197   5.198
10408TIP3   OH231176   7.999   5.007   4.794
10408TIP3    H131177   7.909   4.980   4.822
10408TIP3    H231178   8.001   4.964   4.706
10409TIP3   OH231179   7.906   5.051   5.470
10409TIP3    H131180   7.873   5.040   5.380
10409TIP3    H231181   7.838   5.105   5.512
10410TIP3   OH231182   8.013   4.641   4.184
10410TIP3    H131183   7.994   4.630   4.279
10410TIP3    H231184   7.932   4.688   4.156
10411TIP3   OH231185   7.533   4.663   5.054
10411TIP3    H131186   7.599   4.701   5.117
10411TIP3    H231187   7.588   4.634   4.980
10412TIP3   OH231188   7.492   4.644   4.582
10412TIP3    H131189   7.541   4.679   4.504
10412TIP3    H231190   7.434   4.720   4.601
10413TIP3   OH231191   8.306   4.825   4.832
10413TIP3    H131192   8.241   4.822   4.905
10413TIP3    H231193   8.389   4.813   4.879
10414TIP3   OH231194   7.767   4.881   4.856
10414TIP3    H131195   7.674   4.888   4.824
10414TIP3    H231196   7.792   4.790   4.831
10415TIP3   OH231197   7.980   4.872   4.556
10415TIP3    H131198   8.076   4.880   4.537
10415TIP3    H231199   7.939   4.895   4.469
10416TIP3   OH231200   7.867   4.918   4.315
10416TIP3    H131201   7.804   4.866   4.262
10416TIP3    H231202   7.924   4.954   4.244
10417TIP3   OH231203   8.422   5.133   4.977
10417TIP3    H131204   8.483   5.138   4.902
10417TIP3    H231205   8.468   5.069   5.034
10418TIP3   OH231206   7.921   4.636   4.831
10418TIP3    H131207   7.883   4.564   4.887
10418TIP3    H231208   7.974   4.584   4.770
10419TIP3   OH231209   8.125   5.439   4.327
10419TIP3    H131210   8.049   5.379   4.315
10419TIP3    H231211   8.109   5.472   4.419
10420TIP3   OH231212   7.813   5.455   4.994
10420TIP3    H131213   7.857   5.431   4.910
10420TIP3    H231214   7.867   5.404   5.057
10421TIP3   OH231215   8.270   5.599   4.152
10421TIP3    H131216   8.220   5.684   4.162
10421TIP3    H231217   8.224   5.543   4.218
10422TIP3   OH231218   7.557   5.340   5.720
10422TIP3    H131219   7.651   5.353   5.700
10422TIP3    H231220   7.526   5.310   5.633
10423TIP3   OH231221   7.921   5.768   4.611
10423TIP3    H131222   7.888   5.838   4.551
10423TIP3    H231223   7.843   5.752   4.665
10424TIP3   OH231224   7.488   5.070   4.340
10424TIP3    H131225   7.533   5.154   4.364
10424TIP3    H231226   7.411   5.072   4.402
10425TIP3   OH231227   8.056   5.530   4.572
10425TIP3    H131228   8.018   5.618   4.587
10425TIP3    H231229   8.021   5.480   4.648
10426TIP3   OH231230   7.827   5.994   4.481
10426TIP3    H131231   7.743   6.012   4.528
10426TIP3    H231232   7.883   6.068   4.509
10427TIP3   OH231233   7.923   4.835   5.733
10427TIP3    H131234   7.839   4.790   5.755
10427TIP3    H231235   7.897   4.901   5.674
10428TIP3   OH231236   7.922   5.615   3.944
10428TIP3    H131237   7.925   5.521   3.920
10428TIP3    H231238   7.898   5.610   4.039
10429TIP3   OH231239   7.861   5.619   4.213
10429TIP3    H131240   7.933   5.593   4.272
10429TIP3    H231241   7.861   5.717   4.224
10430TIP3   OH231242   7.595   5.312   4.421
10430TIP3    H131243   7.527   5.356   4.477
10430TIP3    H231244   7.607   5.381   4.353
10431TIP3   OH231245   8.129   5.829   4.169
10431TIP3    H131246   8.038   5.844   4.202
10431TIP3    H231247   8.147   5.916   4.129
10432TIP3   OH231248   8.252   4.888   4.570
10432TIP3    H131249   8.287   4.978   4.562
10432TIP3    H231250   8.283   4.867   4.662
10433TIP3   OH231251   7.871   5.888   4.234
10433TIP3    H131252   7.846   5.958   4.169
10433TIP3    H231253   7.854   5.934   4.319
10434TIP3   OH231254   7.930   4.616   4.453
10434TIP3    H131255   7.915   4.699   4.501
10434TIP3    H231256   8.024   4.601   4.474
10435TIP3   OH231257   7.598   5.514   4.221
10435TIP3    H131258   7.672   5.577   4.231
10435TIP3    H231259   7.638   5.454   4.155
10436TIP3   OH231260   7.534   4.798   4.356
10436TIP3    H131261   7.539   4.896   4.357
10436TIP3    H231262   7.448   4.783   4.315
10437TIP3   OH231263   7.910   4.520   5.231
10437TIP3    H131264   7.887   4.485   5.144
10437TIP3    H231265   7.907   4.440   5.287
10438TIP3   OH231266   7.449   5.727   4.593
10438TIP3    H131267   7.398   5.761   4.667
10438TIP3    H231268   7.423   5.785   4.519
10439TIP3   OH231269   8.086   5.813   3.856
10439TIP3    H131270   8.016   5.753   3.890
10439TIP3    H231271   8.163   5.757   3.873
10440TIP3   OH231272   7.736   5.330   4.080
10440TIP3    H131273   7.789   5.302   4.157
10440TIP3    H231274   7.806   5.336   4.012
10441TIP3   OH231275   8.268   5.508   3.895
10441TIP3    H131276   8.281   5.536   3.989
10441TIP3    H231277   8.192   5.448   3.906
10442TIP3   OH231278   7.927   5.249   4.294
10442TIP3    H131279   7.900   5.216   4.382
10442TIP3    H231280   7.965   5.169   4.253
10443TIP3   OH231281   8.031   5.041   4.135
10443TIP3    H131282   8.014   5.039   4.039
10443TIP3    H231283   8.127   5.050   4.139
10444TIP3   OH231284   8.342   4.850   5.366
10444TIP3    H131285   8.355   4.946   5.358
10444TIP3    H231286   8.246   4.847   5.384
10445TIP3   OH231287   8.488   4.641   5.473
10445TIP3    H131288   8.446   4.722   5.437
10445TIP3    H231289   8.422   4.616   5.540
10446TIP3   OH231290   7.846   6.080   4.044
10446TIP3    H131291   7.939   6.103   4.048
10446TIP3    H231292   7.818   6.136   3.968
10447TIP3   OH231293   7.326   5.485   4.251
10447TIP3    H131294   7.422   5.503   4.241
10447TIP3    H231295   7.319   5.395   4.213
10448TIP3   OH231296   7.252   6.078   4.673
10448TIP3    H131297   7.175   6.022   4.646
10448TIP3    H231298   7.293   6.021   4.742
10449TIP3   OH231299   7.380   5.924   4.858
10449TIP3    H131300   7.375   5.845   4.917
10449TIP3    H231301   7.413   5.987   4.924
10450TIP3   OH231302   7.545   5.345   5.217
10450TIP3    H131303   7.545   5.307   5.127
10450TIP3    H231304   7.641   5.346   5.238
10451TIP3   OH231305   7.730   4.730   5.232
10451TIP3    H131306   7.789   4.652   5.244
10451TIP3    H231307   7.798   4.802   5.228
10452TIP3   OH231308   7.541   4.998   5.310
10452TIP3    H131309   7.592   5.010   5.228
10452TIP3    H231310   7.543   5.085   5.351
10453TIP3   OH231311   7.528   4.494   4.804
10453TIP3    H131312   7.439   4.496   4.843
10453TIP3    H231313   7.520   4.559   4.731
10454TIP3   OH231314   7.742   4.585   5.638
10454TIP3    H131315   7.694   4.533   5.708
10454TIP3    H231316   7.666   4.622   5.587
10455TIP3   OH231317   7.748   5.940   4.855
10455TIP3    H131318   7.763   5.866   4.918
10455TIP3    H231319   7.797   6.012   4.896
10456TIP3   OH231320   7.831   4.426   4.980
10456TIP3    H131321   7.738   4.394   4.985
10456TIP3    H231322   7.878   4.340   4.983
10457TIP3   OH231323   7.620   4.296   4.631
10457TIP3    H131324   7.648   4.352   4.556
10457TIP3    H231325   7.595   4.364   4.698
10458TIP3   OH231326   8.267   4.475   4.845
10458TIP3    H131327   8.350   4.500   4.803
10458TIP3    H231328   8.286   4.505   4.936
10459TIP3   OH231329   7.334   5.906   4.405
10459TIP3    H131330   7.262   5.887   4.342
10459TIP3    H231331   7.286   5.952   4.476
10460TIP3   OH231332   7.719   4.446   4.396
10460TIP3    H131333   7.765   4.380   4.339
10460TIP3    H231334   7.793   4.506   4.419
10461TIP3   OH231335   8.194   4.623   4.518
10461TIP3    H131336   8.213   4.595   4.609
10461TIP3    H231337   8.220   4.718   4.522
10462TIP3   OH231338   8.132   6.055   4.001
10462TIP3    H131339   8.179   6.112   3.938
10462TIP3    H231340   8.108   5.979   3.943
10463TIP3   OH231341   8.023   4.573   5.877
10463TIP3    H131342   8.103   4.561   5.885
10463TIP3    H231343   8.017   4.677   5.823
10464TIP3   OH231344   7.429   5.899   4.075
10464TIP3    H131345   7.437   5.873   4.168
10464TIP3    H231346   7.511   5.859   4.037
10465TIP3   OH231347   0.987   6.209   6.265
10465TIP3    H131348   0.975   6.305   6.249
10465TIP3    H231349   0.926   6.171   6.200
10466TIP3   OH231350   1.006   6.217   6.628
10466TIP3    H131351   1.000   6.213   6.724
10466TIP3    H231352   0.924   6.170   6.603
10467TIP3   OH231353   1.216   6.516   6.296
10467TIP3    H131354   1.214   6.450   6.368
10467TIP3    H231355   1.249   6.595   6.345
10468TIP3   OH231356   1.799   5.765   6.670
10468TIP3    H131357   1.828   5.851   6.706
10468TIP3    H231358   1.835   5.771   6.579
10469TIP3   OH231359   1.194   5.949   6.713
10469TIP3    H131360   1.239   5.863   6.724
10469TIP3    H231361   1.183   5.952   6.616
10470TIP3   OH231362   1.231   5.700   6.285
10470TIP3    H131363   1.299   5.685   6.355
10470TIP3    H231364   1.289   5.726   6.211
10471TIP3   OH231365   1.874   5.979   6.836
10471TIP3    H131366   1.788   6.022   6.816
10471TIP3    H231367   1.892   6.015   6.924
10472TIP3   OH231368   0.932   6.456   6.142
10472TIP3    H131369   0.918   6.433   6.050
10472TIP3    H231370   0.998   6.526   6.134
10473TIP3   OH231371   1.429   5.707   6.470
10473TIP3    H131372   1.400   5.671   6.555
10473TIP3    H231373   1.478   5.787   6.499
10474TIP3   OH231374   1.296   6.736   6.435
10474TIP3    H131375   1.264   6.747   6.526
10474TIP3    H231376   1.289   6.827   6.399
10475TIP3   OH231377   1.587   5.672   6.834
10475TIP3    H131378   1.500   5.691   6.795
10475TIP3    H231379   1.649   5.703   6.764
10476TIP3   OH231380   0.907   5.314   6.829
10476TIP3    H131381   0.889   5.219   6.816
10476TIP3    H231382   0.820   5.344   6.858
10477TIP3   OH231383   0.986   6.802   6.122
10477TIP3    H131384   1.049   6.732   6.094
10477TIP3    H231385   1.044   6.880   6.121
10478TIP3   OH231386   1.150   6.595   6.045
10478TIP3    H131387   1.176   6.521   5.987
10478TIP3    H231388   1.192   6.569   6.129
10479TIP3   OH231389   1.524   6.619   6.800
10479TIP3    H131390   1.515   6.541   6.745
10479TIP3    H231391   1.490   6.689   6.741
10480TIP3   OH231392   0.857   6.070   6.062
10480TIP3    H131393   0.772   6.080   6.015
10480TIP3    H231394   0.920   6.062   5.987
10481TIP3   OH231395   0.805   5.876   5.781
10481TIP3    H131396   0.881   5.913   5.829
10481TIP3    H231397   0.823   5.782   5.779
10482TIP3   OH231398   1.723   6.320   6.662
10482TIP3    H131399   1.633   6.356   6.655
10482TIP3    H231400   1.756   6.344   6.572
10483TIP3   OH231401   1.155   6.163   6.048
10483TIP3    H131402   1.115   6.179   6.135
10483TIP3    H231403   1.243   6.128   6.078
10484TIP3   OH231404   1.407   6.198   6.962
10484TIP3    H131405   1.404   6.292   6.983
10484TIP3    H231406   1.314   6.184   6.931
10485TIP3   OH231407   1.035   6.007   5.862
10485TIP3    H131408   1.093   6.072   5.908
10485TIP3    H231409   1.049   6.034   5.768
10486TIP3   OH231410   1.518   5.254   5.924
10486TIP3    H131411   1.435   5.268   5.975
10486TIP3    H231412   1.542   5.346   5.903
10487TIP3   OH231413   1.316   6.624   5.464
10487TIP3    H131414   1.327   6.721   5.453
10487TIP3    H231415   1.407   6.593   5.442
10488TIP3   OH231416   0.846   6.859   5.562
10488TIP3    H131417   0.883   6.770   5.542
10488TIP3    H231418   0.852   6.861   5.659
10489TIP3   OH231419   0.895   6.903   5.869
10489TIP3    H131420   0.845   6.926   5.948
10489TIP3    H231421   0.979   6.878   5.911
10490TIP3   OH231422   1.669   6.157   7.117
10490TIP3    H131423   1.578   6.178   7.091
10490TIP3    H231424   1.670   6.059   7.110
10491TIP3   OH231425   1.201   5.508   7.143
10491TIP3    H131426   1.276   5.473   7.196
10491TIP3    H231427   1.124   5.479   7.195
10492TIP3   OH231428   1.417   5.934   7.062
10492TIP3    H131429   1.362   5.930   7.143
10492TIP3    H231430   1.398   6.023   7.026
10493TIP3   OH231431   1.073   6.057   5.603
10493TIP3    H131432   1.044   6.041   5.511
10493TIP3    H231433   1.160   6.099   5.586
10494TIP3   OH231434   0.768   5.440   5.906
10494TIP3    H131435   0.749   5.433   6.003
10494TIP3    H231436   0.730   5.355   5.878
10495TIP3   OH231437   0.972   5.876   6.217
10495TIP3    H131438   0.933   5.948   6.164
10495TIP3    H231439   1.032   5.834   6.151
10496TIP3   OH231440   1.128   5.908   6.447
10496TIP3    H131441   1.060   5.937   6.384
10496TIP3    H231442   1.156   5.826   6.401
10497TIP3   OH231443   1.144   6.151   6.894
10497TIP3    H131444   1.149   6.076   6.830
10497TIP3    H231445   1.050   6.150   6.923
10498TIP3   OH231446   0.811   5.629   6.522
10498TIP3    H131447   0.780   5.589   6.604
10498TIP3    H231448   0.858   5.708   6.557
10499TIP3   OH231449   1.281   5.684   6.729
10499TIP3    H131450   1.258   5.696   6.824
10499TIP3    H231451   1.209   5.622   6.703
10500TIP3   OH231452   0.928   5.843   6.642
10500TIP3    H131453   1.010   5.870   6.597
10500TIP3    H231454   0.958   5.831   6.734
10501TIP3   OH231455   0.857   5.844   6.927
10501TIP3    H131456   0.788   5.910   6.949
10501TIP3    H231457   0.927   5.871   6.991
10502TIP3   OH231458   1.479   6.429   6.616
10502TIP3    H131459   1.500   6.489   6.543
10502TIP3    H231460   1.390   6.394   6.588
10503TIP3   OH231461   0.999   5.581   5.841
10503TIP3    H131462   0.924   5.534   5.885
10503TIP3    H231463   1.034   5.639   5.912
10504TIP3   OH231464   1.119   5.778   6.000
10504TIP3    H131465   1.215   5.774   6.017
10504TIP3    H231466   1.111   5.861   5.950
10505TIP3   OH231467   1.551   5.878   5.837
10505TIP3    H131468   1.481   5.837   5.782
10505TIP3    H231469   1.555   5.965   5.790
10506TIP3   OH231470   1.753   6.722   6.905
10506TIP3    H131471   1.656   6.715   6.886
10506TIP3    H231472   1.787   6.708   6.815
10507TIP3   OH231473   1.240   6.697   5.731
10507TIP3    H131474   1.245   6.629   5.799
10507TIP3    H231475   1.266   6.648   5.651
10508TIP3   OH231476   1.239   6.325   6.530
10508TIP3    H131477   1.153   6.285   6.553
10508TIP3    H231478   1.286   6.244   6.497
10509TIP3   OH231479   1.028   6.496   6.692
10509TIP3    H131480   1.013   6.491   6.788
10509TIP3    H231481   1.061   6.407   6.670
10510TIP3   OH231482   1.018   6.432   5.626
10510TIP3    H131483   1.058   6.408   5.713
10510TIP3    H231484   0.928   6.393   5.633
10511TIP3   OH231485   1.348   6.902   5.449
10511TIP3    H131486   1.392   6.981   5.413
10511TIP3    H231487   1.265   6.943   5.481
10512TIP3   OH231488   1.149   6.370   5.871
10512TIP3    H131489   1.147   6.298   5.937
10512TIP3    H231490   1.245   6.365   5.847
10513TIP3   OH231491   1.230   5.732   6.990
10513TIP3    H131492   1.307   5.773   7.030
10513TIP3    H231493   1.213   5.655   7.049
10514TIP3   OH231494   1.100   5.482   6.178
10514TIP3    H131495   1.086   5.514   6.088
10514TIP3    H231496   1.139   5.561   6.221
10515TIP3   OH231497   0.825   5.648   6.250
10515TIP3    H131498   0.878   5.729   6.244
10515TIP3    H231499   0.804   5.648   6.345
10516TIP3   OH231500   1.025   5.929   7.120
10516TIP3    H131501   1.024   6.025   7.119
10516TIP3    H231502   1.117   5.906   7.105
10517TIP3   OH231503   0.925   5.381   6.373
10517TIP3    H131504   0.917   5.456   6.435
10517TIP3    H231505   0.982   5.421   6.304
10518TIP3   OH231506   1.681   5.885   7.059
10518TIP3    H131507   1.583   5.888   7.064
10518TIP3    H231508   1.690   5.835   6.976
10519TIP3   OH231509   1.342   6.088   6.446
10519TIP3    H131510   1.264   6.029   6.449
10519TIP3    H231511   1.410   6.036   6.494
10520TIP3   OH231512   1.273   6.998   6.340
10520TIP3    H131513   1.201   7.050   6.302
10520TIP3    H231514   1.350   7.023   6.285
10521TIP3   OH231515   0.969   6.641   5.455
10521TIP3    H131516   1.001   6.576   5.522
10521TIP3    H231517   1.036   6.631   5.385
10522TIP3   OH231518   0.757   6.337   5.619
10522TIP3    H131519   0.680   6.342   5.677
10522TIP3    H231520   0.758   6.240   5.602
10523TIP3   OH231521   1.305   6.153   5.495
10523TIP3    H131522   1.289   6.117   5.406
10523TIP3    H231523   1.276   6.246   5.481
10524TIP3   OH231524   0.945   5.441   7.229
10524TIP3    H131525   0.894   5.518   7.201
10524TIP3    H231526   0.888   5.371   7.195
10525TIP3   OH231527   1.279   5.858   7.286
10525TIP3    H131528   1.212   5.794   7.315
10525TIP3    H231529   1.359   5.828   7.336
10526TIP3   OH231530   1.498   5.811   7.438
10526TIP3    H131531   1.519   5.716   7.447
10526TIP3    H231532   1.530   5.848   7.522
10527TIP3   OH231533   1.010   5.424   7.496
10527TIP3    H131534   1.080   5.358   7.484
10527TIP3    H231535   0.975   5.428   7.404
10528TIP3   OH231536   1.078   5.686   7.562
10528TIP3    H131537   1.063   5.591   7.542
10528TIP3    H231538   0.987   5.717   7.572
10529TIP3   OH231539   1.529   7.133   6.297
10529TIP3    H131540   1.490   7.143   6.387
10529TIP3    H231541   1.538   7.224   6.268
10530TIP3   OH231542   1.637   6.605   6.465
10530TIP3    H131543   1.690   6.534   6.424
10530TIP3    H231544   1.626   6.667   6.390
10531TIP3   OH231545   1.515   6.099   5.673
10531TIP3    H131546   1.439   6.116   5.613
10531TIP3    H231547   1.505   6.178   5.732
10532TIP3   OH231548   1.357   5.796   5.656
10532TIP3    H131549   1.383   5.836   5.573
10532TIP3    H231550   1.349   5.701   5.634
10533TIP3   OH231551   1.358   6.042   6.176
10533TIP3    H131552   1.403   5.956   6.181
10533TIP3    H231553   1.363   6.073   6.269
10534TIP3   OH231554   1.661   6.486   7.054
10534TIP3    H131555   1.741   6.431   7.048
10534TIP3    H231556   1.683   6.558   6.992
10535TIP3   OH231557   1.875   6.297   7.021
10535TIP3    H131558   1.795   6.247   7.047
10535TIP3    H231559   1.944   6.230   7.040
10536TIP3   OH231560   1.332   5.528   5.588
10536TIP3    H131561   1.406   5.504   5.649
10536TIP3    H231562   1.261   5.469   5.617
10537TIP3   OH231563   1.400   5.753   6.068
10537TIP3    H131564   1.459   5.678   6.090
10537TIP3    H231565   1.453   5.797   5.999
10538TIP3   OH231566   1.544   5.944   6.569
10538TIP3    H131567   1.629   5.968   6.525
10538TIP3    H231568   1.562   5.984   6.656
10539TIP3   OH231569   1.624   6.097   6.793
10539TIP3    H131570   1.548   6.132   6.845
10539TIP3    H231571   1.658   6.178   6.750
10540TIP3   OH231572   2.066   5.696   7.345
10540TIP3    H131573   2.129   5.632   7.306
10540TIP3    H231574   2.035   5.745   7.266
10541TIP3   OH231575   1.932   5.825   7.146
10541TIP3    H131576   1.844   5.868   7.150
10541TIP3    H231577   1.908   5.746   7.093
10542TIP3   OH231578   1.558   5.473   5.725
10542TIP3    H131579   1.605   5.395   5.690
10542TIP3    H231580   1.633   5.537   5.739
10543TIP3   OH231581   1.148   7.002   6.007
10543TIP3    H131582   1.202   6.978   5.929
10543TIP3    H231583   1.179   7.092   6.024
10544TIP3   OH231584   1.837   5.585   7.036
10544TIP3    H131585   1.747   5.571   7.003
10544TIP3    H231586   1.874   5.494   7.028
10545TIP3   OH231587   1.070   5.503   6.670
10545TIP3    H131588   1.014   5.435   6.711
10545TIP3    H231589   1.135   5.450   6.619
10546TIP3   OH231590   1.569   5.401   6.545
10546TIP3    H131591   1.596   5.463   6.476
10546TIP3    H231592   1.471   5.409   6.543
10547TIP3   OH231593   0.754   5.215   6.574
10547TIP3    H131594   0.816   5.244   6.507
10547TIP3    H231595   0.692   5.290   6.578
10548TIP3   OH231596   1.286   5.387   6.532
10548TIP3    H131597   1.288   5.342   6.447
10548TIP3    H231598   1.276   5.312   6.594
10549TIP3   OH231599   1.291   5.302   6.076
10549TIP3    H131600   1.227   5.361   6.121
10549TIP3    H231601   1.285   5.222   6.132
10550TIP3   OH231602   0.733   5.401   6.172
10550TIP3    H131603   0.787   5.368   6.245
10550TIP3    H231604   0.739   5.497   6.190
10551TIP3   OH231605   1.285   6.960   5.771
10551TIP3    H131606   1.274   6.863   5.760
10551TIP3    H231607   1.241   6.992   5.690
10552TIP3   OH231608   1.582   5.557   7.458
10552TIP3    H131609   1.603   5.529   7.549
10552TIP3    H231610   1.671   5.553   7.416
10553TIP3   OH231611   2.780   6.487   5.721
10553TIP3    H131612   2.739   6.573   5.708
10553TIP3    H231613   2.711   6.427   5.683
10554TIP3   OH231614   2.761   6.478   6.122
10554TIP3    H131615   2.809   6.465   6.207
10554TIP3    H231616   2.725   6.389   6.108
10555TIP3   OH231617   2.073   6.369   6.469
10555TIP3    H131618   2.099   6.298   6.531
10555TIP3    H231619   2.153   6.423   6.469
10556TIP3   OH231620   3.000   6.785   5.809
10556TIP3    H131621   3.020   6.716   5.875
10556TIP3    H231622   3.042   6.863   5.850
10557TIP3   OH231623   2.047   6.793   6.196
10557TIP3    H131624   2.043   6.695   6.187
10557TIP3    H231625   2.135   6.801   6.235
10558TIP3   OH231626   1.749   6.030   5.985
10558TIP3    H131627   1.677   6.092   6.002
10558TIP3    H231628   1.699   5.951   5.959
10559TIP3   OH231629   1.861   6.294   6.167
10559TIP3    H131630   1.897   6.207   6.195
10559TIP3    H231631   1.819   6.273   6.083
10560TIP3   OH231632   2.667   7.244   5.804
10560TIP3    H131633   2.704   7.167   5.757
10560TIP3    H231634   2.682   7.223   5.897
10561TIP3   OH231635   2.615   6.718   6.076
10561TIP3    H131636   2.638   6.624   6.095
10561TIP3    H231637   2.678   6.760   6.139
10562TIP3   OH231638   3.594   6.038   6.156
10562TIP3    H131639   3.627   6.107   6.218
10562TIP3    H231640   3.582   6.092   6.076
10563TIP3   OH231641   2.995   6.207   6.181
10563TIP3    H131642   3.031   6.120   6.206
10563TIP3    H231643   2.955   6.186   6.094
10564TIP3   OH231644   2.338   5.868   6.146
10564TIP3    H131645   2.309   5.940   6.085
10564TIP3    H231646   2.290   5.792   6.106
10565TIP3   OH231647   3.030   5.961   5.772
10565TIP3    H131648   3.102   5.945   5.838
10565TIP3    H231649   3.083   5.994   5.697
10566TIP3   OH231650   1.956   6.057   6.268
10566TIP3    H131651   2.044   6.034   6.305
10566TIP3    H231652   1.950   5.992   6.195
10567TIP3   OH231653   2.395   6.267   6.056
10567TIP3    H131654   2.489   6.241   6.070
10567TIP3    H231655   2.356   6.182   6.025
10568TIP3   OH231656   3.659   6.234   6.333
10568TIP3    H131657   3.574   6.281   6.323
10568TIP3    H231658   3.697   6.278   6.411
10569TIP3   OH231659   2.324   5.849   6.590
10569TIP3    H131660   2.265   5.882   6.520
10569TIP3    H231661   2.269   5.867   6.669
10570TIP3   OH231662   2.642   6.732   5.641
10570TIP3    H131663   2.586   6.686   5.576
10570TIP3    H231664   2.701   6.783   5.580
10571TIP3   OH231665   2.434   6.637   6.372
10571TIP3    H131666   2.360   6.683   6.418
10571TIP3    H231667   2.482   6.712   6.336
10572TIP3   OH231668   3.229   5.967   5.960
10572TIP3    H131669   3.192   5.930   6.041
10572TIP3    H231670   3.270   6.049   5.993
10573TIP3   OH231671   2.197   5.958   6.368
10573TIP3    H131672   2.257   6.031   6.394
10573TIP3    H231673   2.248   5.920   6.293
10574TIP3   OH231674   2.255   6.821   6.472
10574TIP3    H131675   2.235   6.913   6.446
10574TIP3    H231676   2.181   6.807   6.535
10575TIP3   OH231677   1.668   6.519   5.698
10575TIP3    H131678   1.590   6.467   5.732
10575TIP3    H231679   1.690   6.570   5.776
10576TIP3   OH231680   3.075   7.029   5.954
10576TIP3    H131681   2.983   7.023   5.988
10576TIP3    H231682   3.074   7.118   5.912
10577TIP3   OH231683   3.386   5.917   6.318
10577TIP3    H131684   3.298   5.948   6.291
10577TIP3    H231685   3.444   5.956   6.249
10578TIP3   OH231686   2.677   5.567   6.312
10578TIP3    H131687   2.654   5.473   6.320
10578TIP3    H231688   2.599   5.608   6.356
10579TIP3   OH231689   2.791   7.054   5.646
10579TIP3    H131690   2.832   6.974   5.609
10579TIP3    H231691   2.847   7.123   5.603
10580TIP3   OH231692   2.900   6.822   5.548
10580TIP3    H131693   2.940   6.764   5.480
10580TIP3    H231694   2.950   6.800   5.629
10581TIP3   OH231695   3.315   6.936   6.301
10581TIP3    H131696   3.303   6.859   6.241
10581TIP3    H231697   3.296   7.011   6.242
10582TIP3   OH231698   2.613   6.340   5.562
10582TIP3    H131699   2.527   6.383   5.541
10582TIP3    H231700   2.651   6.327   5.473
10583TIP3   OH231701   2.566   6.123   5.266
10583TIP3    H131702   2.635   6.174   5.312
10583TIP3    H231703   2.622   6.057   5.220
10584TIP3   OH231704   3.507   6.567   6.139
10584TIP3    H131705   3.426   6.623   6.145
10584TIP3    H231706   3.544   6.599   6.054
10585TIP3   OH231707   2.959   6.416   5.524
10585TIP3    H131708   2.906   6.437   5.604
10585TIP3    H231709   3.044   6.389   5.566
10586TIP3   OH231710   3.188   6.450   6.451
10586TIP3    H131711   3.191   6.531   6.506
10586TIP3    H231712   3.102   6.460   6.407
10587TIP3   OH231713   2.197   6.417   5.932
10587TIP3    H131714   2.149   6.356   5.872
10587TIP3    H231715   2.264   6.359   5.972
10588TIP3   OH231716   2.347   6.835   6.068
10588TIP3    H131717   2.287   6.776   6.021
10588TIP3    H231718   2.423   6.778   6.088
10589TIP3   OH231719   2.343   6.376   6.311
10589TIP3    H131720   2.355   6.354   6.217
10589TIP3    H231721   2.372   6.470   6.315
10590TIP3   OH231722   2.822   7.011   6.066
10590TIP3    H131723   2.823   7.099   6.109
10590TIP3    H231724   2.828   6.951   6.144
10591TIP3   OH231725   2.483   6.912   6.614
10591TIP3    H131726   2.422   6.976   6.658
10591TIP3    H231727   2.416   6.856   6.569
10592TIP3   OH231728   2.790   6.275   5.355
10592TIP3    H131729   2.852   6.334   5.403
10592TIP3    H231730   2.817   6.293   5.261
10593TIP3   OH231731   2.219   6.486   6.717
10593TIP3    H131732   2.230   6.575   6.756
10593TIP3    H231733   2.128   6.466   6.747
10594TIP3   OH231734   2.274   7.074   6.678
10594TIP3    H131735   2.234   7.086   6.590
10594TIP3    H231736   2.208   7.115   6.737
10595TIP3   OH231737   3.316   5.520   5.390
10595TIP3    H131738   3.234   5.543   5.438
10595TIP3    H231739   3.306   5.573   5.308
10596TIP3   OH231740   2.059   6.256   5.743
10596TIP3    H131741   1.984   6.294   5.693
10596TIP3    H231742   2.021   6.173   5.776
10597TIP3   OH231743   3.113   6.877   4.960
10597TIP3    H131744   3.120   6.972   4.934
10597TIP3    H231745   3.205   6.847   4.946
10598TIP3   OH231746   1.838   6.652   6.658
10598TIP3    H131747   1.767   6.626   6.596
10598TIP3    H231748   1.875   6.565   6.686
10599TIP3   OH231749   1.690   6.830   6.277
10599TIP3    H131750   1.786   6.819   6.280
10599TIP3    H231751   1.677   6.904   6.338
10600TIP3   OH231752   3.556   7.287   6.350
10600TIP3    H131753   3.554   7.191   6.369
10600TIP3    H231754   3.471   7.315   6.393
10601TIP3   OH231755   2.656   7.067   6.469
10601TIP3    H131756   2.657   7.158   6.509
10601TIP3    H231757   2.593   7.021   6.529
10602TIP3   OH231758   2.432   7.209   5.423
10602TIP3    H131759   2.374   7.190   5.348
10602TIP3    H231760   2.392   7.290   5.461
10603TIP3   OH231761   1.865   7.052   5.819
10603TIP3    H131762   1.906   7.040   5.907
10603TIP3    H231763   1.820   6.965   5.808
10604TIP3   OH231764   2.621   7.101   5.069
10604TIP3    H131765   2.678   7.029   5.035
10604TIP3    H231766   2.656   7.112   5.160
10605TIP3   OH231767   2.679   7.151   5.337
10605TIP3    H131768   2.589   7.163   5.376
10605TIP3    H231769   2.731   7.129   5.417
10606TIP3   OH231770   3.443   6.410   6.627
10606TIP3    H131771   3.355   6.417   6.587
10606TIP3    H231772   3.459   6.314   6.624
10607TIP3   OH231773   2.036   6.837   6.638
10607TIP3    H131774   2.094   6.816   6.714
10607TIP3    H231775   1.964   6.772   6.650
10608TIP3   OH231776   2.440   5.645   6.437
10608TIP3    H131777   2.352   5.615   6.404
10608TIP3    H231778   2.410   5.723   6.488
10609TIP3   OH231779   2.974   5.754   6.629
10609TIP3    H131780   3.043   5.731   6.695
10609TIP3    H231781   2.891   5.740   6.678
10610TIP3   OH231782   3.204   6.189   6.545
10610TIP3    H131783   3.155   6.186   6.630
10610TIP3    H231784   3.183   6.278   6.512
10611TIP3   OH231785   2.872   6.313   5.101
10611TIP3    H131786   2.833   6.293   5.014
10611TIP3    H231787   2.958   6.351   5.075
10612TIP3   OH231788   2.585   5.693   5.406
10612TIP3    H131789   2.547   5.688   5.496
10612TIP3    H231790   2.546   5.612   5.367
10613TIP3   OH231791   2.375   6.153   6.457
10613TIP3    H131792   2.319   6.173   6.535
10613TIP3    H231793   2.364   6.236   6.405
10614TIP3   OH231794   2.251   6.049   5.964
10614TIP3    H131795   2.159   6.020   5.984
10614TIP3    H231796   2.262   6.006   5.876
10615TIP3   OH231797   2.746   6.136   5.699
10615TIP3    H131798   2.696   6.205   5.651
10615TIP3    H231799   2.801   6.097   5.627
10616TIP3   OH231800   2.919   6.402   6.771
10616TIP3    H131801   2.897   6.332   6.837
10616TIP3    H231802   3.009   6.425   6.799
10617TIP3   OH231803   2.902   6.154   5.928
10617TIP3    H131804   2.834   6.177   5.861
10617TIP3    H231805   2.941   6.077   5.883
10618TIP3   OH231806   2.189   6.185   6.657
10618TIP3    H131807   2.211   6.252   6.724
10618TIP3    H231808   2.176   6.105   6.711
10619TIP3   OH231809   2.240   5.669   5.370
10619TIP3    H131810   2.228   5.667   5.467
10619TIP3    H231811   2.163   5.723   5.344
10620TIP3   OH231812   1.832   5.784   6.198
10620TIP3    H131813   1.863   5.762   6.287
10620TIP3    H231814   1.793   5.698   6.170
10621TIP3   OH231815   1.748   5.670   5.740
10621TIP3    H131816   1.805   5.722   5.681
10621TIP3    H231817   1.707   5.739   5.794
10622TIP3   OH231818   2.907   6.403   6.344
10622TIP3    H131819   2.944   6.333   6.286
10622TIP3    H231820   2.878   6.349   6.420
10623TIP3   OH231821   2.591   5.865   6.024
10623TIP3    H131822   2.506   5.867   6.073
10623TIP3    H231823   2.656   5.860   6.097
10624TIP3   OH231824   2.013   5.929   6.020
10624TIP3    H131825   1.917   5.945   6.010
10624TIP3    H231826   2.016   5.833   6.033
10625TIP3   OH231827   2.279   5.919   5.725
10625TIP3    H131828   2.371   5.934   5.697
10625TIP3    H231829   2.227   5.940   5.644
10626TIP3   OH231830   3.071   5.942   6.220
10626TIP3    H131831   3.049   5.956   6.316
10626TIP3    H231832   2.997   5.884   6.195
10627TIP3   OH231833   2.134   5.956   5.501
10627TIP3    H131834   2.057   5.912   5.461
10627TIP3    H231835   2.181   5.989   5.422
10628TIP3   OH231836   3.243   7.632   6.446
10628TIP3    H131837   3.246   7.654   6.351
10628TIP3    H231838   3.328   7.672   6.477
10629TIP3   OH231839   2.213   6.738   6.833
10629TIP3    H131840   2.293   6.760   6.886
10629TIP3    H231841   2.147   6.731   6.906
10630TIP3   OH231842   2.662   6.204   6.128
10630TIP3    H131843   2.731   6.152   6.084
10630TIP3    H231844   2.658   6.161   6.216
10631TIP3   OH231845   2.198   5.674   6.016
10631TIP3    H131846   2.149   5.608   6.069
10631TIP3    H231847   2.213   5.625   5.934
10632TIP3   OH231848   2.642   6.108   6.400
10632TIP3    H131849   2.550   6.133   6.424
10632TIP3    H231850   2.695   6.167   6.457
10633TIP3   OH231851   2.378   6.487   5.519
10633TIP3    H131852   2.307   6.420   5.505
10633TIP3    H231853   2.356   6.520   5.609
10634TIP3   OH231854   3.277   6.721   6.130
10634TIP3    H131855   3.304   6.774   6.051
10634TIP3    H231856   3.193   6.681   6.100
10635TIP3   OH231857   2.837   5.792   5.384
10635TIP3    H131858   2.741   5.767   5.386
10635TIP3    H231859   2.836   5.887   5.406
10636TIP3   OH231860   2.771   6.800   6.505
10636TIP3    H131861   2.815   6.785   6.590
10636TIP3    H231862   2.736   6.890   6.516
10637TIP3   OH231863   2.900   6.049   5.484
10637TIP3    H131864   2.997   6.052   5.491
10637TIP3    H231865   2.880   6.126   5.427
10638TIP3   OH231866   2.093   6.527   6.181
10638TIP3    H131867   2.111   6.482   6.096
10638TIP3    H231868   2.072   6.452   6.239
10639TIP3   OH231869   2.522   6.631   5.337
10639TIP3    H131870   2.477   6.719   5.338
10639TIP3    H231871   2.463   6.579   5.396
10640TIP3   OH231872   1.945   6.429   6.783
10640TIP3    H131873   1.955   6.396   6.875
10640TIP3    H231874   1.872   6.372   6.752
10641TIP3   OH231875   2.681   6.543   6.810
10641TIP3    H131876   2.617   6.480   6.772
10641TIP3    H231877   2.766   6.505   6.779
10642TIP3   OH231878   2.929   7.057   6.389
10642TIP3    H131879   2.834   7.063   6.410
10642TIP3    H231880   2.966   7.109   6.464
10643TIP3   OH231881   3.338   6.139   5.309
10643TIP3    H131882   3.281   6.088   5.247
10643TIP3    H231883   3.331   6.226   5.265
10644TIP3   OH231884   3.565   6.998   6.390
10644TIP3    H131885   3.467   6.990   6.383
10644TIP3    H231886   3.591   6.968   6.300
10645TIP3   OH231887   3.053   6.953   5.220
10645TIP3    H131888   3.017   6.876   5.265
10645TIP3    H231889   3.067   6.920   5.130
10646TIP3   OH231890   3.041   6.589   6.032
10646TIP3    H131891   2.952   6.563   6.060
10646TIP3    H231892   3.075   6.504   5.997
10647TIP3   OH231893   2.164   6.810   5.795
10647TIP3    H131894   2.152   6.894   5.746
10647TIP3    H231895   2.073   6.791   5.820
10648TIP3   OH231896   1.731   6.118   5.506
10648TIP3    H131897   1.778   6.201   5.530
10648TIP3    H231898   1.659   6.119   5.572
10649TIP3   OH231899   2.331   6.594   5.766
10649TIP3    H131900   2.272   6.673   5.773
10649TIP3    H231901   2.286   6.532   5.827
10650TIP3   OH231902   2.446   7.156   6.275
10650TIP3    H131903   2.486   7.233   6.229
10650TIP3    H231904   2.522   7.126   6.328
10651TIP3   OH231905   2.091   7.052   5.661
10651TIP3    H131906   2.006   7.064   5.708
10651TIP3    H231907   2.125   7.144   5.664
10652TIP3   OH231908   2.823   6.783   6.240
10652TIP3    H131909   2.805   6.789   6.336
10652TIP3    H231910   2.913   6.746   6.243
10653TIP3   OH231911   2.812   6.685   5.125
10653TIP3    H131912   2.857   6.662   5.209
10653TIP3    H231913   2.722   6.653   5.142
10654TIP3   OH231914   3.075   7.314   6.283
10654TIP3    H131915   2.995   7.258   6.280
10654TIP3    H231916   3.057   7.378   6.210
10655TIP3   OH231917   3.141   7.151   4.932
10655TIP3    H131918   3.189   7.218   4.882
10655TIP3    H231919   3.065   7.203   4.965
10656TIP3   OH231920   2.156   5.932   6.799
10656TIP3    H131921   2.059   5.936   6.807
10656TIP3    H231922   2.180   5.875   6.873
10657TIP3   OH231923   2.976   6.633   5.354
10657TIP3    H131924   2.962   6.555   5.412
10657TIP3    H231925   3.070   6.620   5.330
10658TIP3   OH231926   1.891   6.986   6.436
10658TIP3    H131927   1.949   6.916   6.469
10658TIP3    H231928   1.903   7.052   6.505
10659TIP3   OH231929   2.171   6.658   5.118
10659TIP3    H131930   2.179   6.564   5.096
10659TIP3    H231931   2.147   6.654   5.212
10660TIP3   OH231932   2.112   6.669   5.386
10660TIP3    H131933   2.179   6.640   5.449
10660TIP3    H231934   2.114   6.767   5.398
10661TIP3   OH231935   1.852   6.359   5.587
10661TIP3    H131936   1.786   6.411   5.638
10661TIP3    H231937   1.862   6.422   5.512
10662TIP3   OH231938   3.013   5.986   6.482
10662TIP3    H131939   3.081   6.035   6.529
10662TIP3    H231940   2.996   5.909   6.540
10663TIP3   OH231941   2.886   5.739   5.661
10663TIP3    H131942   2.869   5.758   5.566
10663TIP3    H231943   2.923   5.824   5.692
10664TIP3   OH231944   2.388   6.866   5.347
10664TIP3    H131945   2.300   6.888   5.383
10664TIP3    H231946   2.401   6.944   5.291
10665TIP3   OH231947   2.569   5.930   5.757
10665TIP3    H131948   2.630   6.005   5.744
10665TIP3    H231949   2.571   5.920   5.855
10666TIP3   OH231950   2.842   6.246   6.557
10666TIP3    H131951   2.866   6.301   6.634
10666TIP3    H231952   2.890   6.164   6.577
10667TIP3   OH231953   2.706   5.647   5.858
10667TIP3    H131954   2.691   5.729   5.909
10667TIP3    H231955   2.771   5.678   5.791
10668TIP3   OH231956   2.131   6.938   5.414
10668TIP3    H131957   2.101   7.008   5.352
10668TIP3    H231958   2.114   6.981   5.501
10669TIP3   OH231959   2.225   5.655   5.646
10669TIP3    H131960   2.219   5.743   5.688
10669TIP3    H231961   2.322   5.641   5.654
10670TIP3   OH231962   3.470   6.142   6.553
10670TIP3    H131963   3.371   6.140   6.555
10670TIP3    H231964   3.487   6.108   6.465
10671TIP3   OH231965   3.126   6.337   5.931
10671TIP3    H131966   3.048   6.280   5.945
10671TIP3    H231967   3.194   6.290   5.983
10672TIP3   OH231968   1.846   6.560   5.396
10672TIP3    H131969   1.915   6.627   5.406
10672TIP3    H231970   1.886   6.505   5.326
10673TIP3   OH231971   1.802   5.853   5.532
10673TIP3    H131972   1.789   5.949   5.526
10673TIP3    H231973   1.715   5.818   5.507
10674TIP3   OH231974   3.098   7.295   5.874
10674TIP3    H131975   3.056   7.341   5.798
10674TIP3    H231976   3.192   7.315   5.856
10675TIP3   OH231977   2.177   5.568   6.401
10675TIP3    H131978   2.144   5.534   6.315
10675TIP3    H231979   2.165   5.490   6.459
10676TIP3   OH231980   1.728   6.815   5.796
10676TIP3    H131981   1.654   6.816   5.857
10676TIP3    H231982   1.683   6.826   5.709
10677TIP3   OH231983   2.331   6.861   5.026
10677TIP3    H131984   2.277   6.788   5.065
10677TIP3    H231985   2.407   6.812   4.991
10678TIP3   OH231986   3.005   7.191   6.607
10678TIP3    H131987   2.983   7.129   6.680
10678TIP3    H231988   3.068   7.252   6.652
10679TIP3   OH231989   2.764   6.900   4.942
10679TIP3    H131990   2.810   6.838   5.001
10679TIP3    H231991   2.818   6.898   4.861
10680TIP3   OH231992   2.007   6.710   7.011
10680TIP3    H131993   1.977   6.624   6.977
10680TIP3    H231994   1.925   6.761   7.007
10681TIP3   OH231995   1.979   6.374   5.251
10681TIP3    H131996   2.032   6.346   5.328
10681TIP3    H231997   2.049   6.381   5.182
10682TIP3   OH231998   2.619   6.816   6.835
10682TIP3    H131999   2.581   6.841   6.748
10682TIP3    H232000   2.650   6.724   6.818
10683TIP3   OH232001   2.508   6.582   5.067
10683TIP3    H132002   2.500   6.593   5.164
10683TIP3    H232003   2.503   6.485   5.058
10684TIP3   OH232004   3.094   6.834   6.434
10684TIP3    H132005   3.174   6.876   6.397
10684TIP3    H232006   3.029   6.906   6.423
10685TIP3   OH232007   2.133   6.430   7.007
10685TIP3    H132008   2.218   6.393   7.030
10685TIP3    H232009   2.085   6.438   7.091
10686TIP3   OH232010   2.189   6.290   5.479
10686TIP3    H132011   2.151   6.253   5.560
10686TIP3    H232012   2.221   6.210   5.432
10687TIP3   OH232013   2.460   6.353   6.708
10687TIP3    H132014   2.376   6.405   6.703
10687TIP3    H232015   2.507   6.386   6.628
10688TIP3   OH232016   2.287   6.086   5.312
10688TIP3    H132017   2.263   6.096   5.218
10688TIP3    H232018   2.385   6.085   5.305
10689TIP3   OH232019   2.968   6.743   6.829
10689TIP3    H132020   3.057   6.721   6.801
10689TIP3    H232021   2.958   6.686   6.908
10690TIP3   OH232022   3.102   6.407   4.986
10690TIP3    H132023   3.086   6.363   4.900
10690TIP3    H232024   3.070   6.497   4.965
10691TIP3   OH232025   2.578   6.143   6.829
10691TIP3    H132026   2.579   6.066   6.769
10691TIP3    H232027   2.535   6.212   6.774
10692TIP3   OH232028   2.583   5.930   6.635
10692TIP3    H132029   2.609   5.969   6.549
10692TIP3    H232030   2.489   5.907   6.618
10693TIP3   OH232031   2.599   6.458   6.507
10693TIP3    H132032   2.688   6.476   6.473
10693TIP3    H232033   2.543   6.521   6.457
10694TIP3   OH232034   3.185   6.425   6.884
10694TIP3    H132035   3.234   6.346   6.913
10694TIP3    H232036   3.257   6.483   6.854
10695TIP3   OH232037   3.228   6.678   6.612
10695TIP3    H132038   3.169   6.736   6.559
10695TIP3    H232039   3.316   6.704   6.575
10696TIP3   OH232040   2.446   6.242   7.065
10696TIP3    H132041   2.391   6.162   7.076
10696TIP3    H232042   2.485   6.226   6.977
10697TIP3   OH232043   2.710   5.689   6.708
10697TIP3    H132044   2.661   5.770   6.684
10697TIP3    H232045   2.642   5.620   6.696
10698TIP3   OH232046   2.841   6.188   6.921
10698TIP3    H132047   2.828   6.175   7.017
10698TIP3    H232048   2.750   6.165   6.890
10699TIP3   OH232049   3.072   6.132   6.771
10699TIP3    H132050   3.000   6.141   6.837
10699TIP3    H232051   3.149   6.109   6.828
10700TIP3   OH232052   3.303   6.083   6.920
10700TIP3    H132053   3.318   5.988   6.939
10700TIP3    H232054   3.297   6.123   7.009
10701TIP3   OH232055   2.296   6.020   7.122
10701TIP3    H132056   2.296   5.928   7.088
10701TIP3    H232057   2.337   6.006   7.210
10702TIP3   OH232058   2.801   5.697   6.967
10702TIP3    H132059   2.869   5.628   6.957
10702TIP3    H232060   2.762   5.696   6.878
10703TIP3   OH232061   2.872   5.913   7.124
10703TIP3    H132062   2.850   5.842   7.060
10703TIP3    H232063   2.794   5.972   7.117
10704TIP3   OH232064   2.098   7.138   5.225
10704TIP3    H132065   2.192   7.127   5.204
10704TIP3    H232066   2.071   7.194   5.151
10705TIP3   OH232067   1.564   6.541   5.376
10705TIP3    H132068   1.648   6.558   5.423
10705TIP3    H232069   1.568   6.444   5.367
10706TIP3   OH232070   1.506   7.112   5.834
10706TIP3    H132071   1.440   7.047   5.802
10706TIP3    H232072   1.551   7.060   5.904
10707TIP3   OH232073   1.617   6.982   6.049
10707TIP3    H132074   1.616   6.900   6.102
10707TIP3    H232075   1.641   7.045   6.119
10708TIP3   OH232076   3.356   7.380   5.843
10708TIP3    H132077   3.377   7.411   5.933
10708TIP3    H232078   3.419   7.430   5.789
10709TIP3   OH232079   3.381   7.401   6.122
10709TIP3    H132080   3.337   7.314   6.120
10709TIP3    H232081   3.454   7.381   6.182
10710TIP3   OH232082   3.424   7.084   6.697
10710TIP3    H132083   3.349   7.096   6.759
10710TIP3    H232084   3.468   7.171   6.704
10711TIP3   OH232085   3.245   6.595   5.312
10711TIP3    H132086   3.309   6.661   5.279
10711TIP3    H232087   3.294   6.558   5.389
10712TIP3   OH232088   3.374   6.461   5.516
10712TIP3    H132089   3.308   6.422   5.577
10712TIP3    H232090   3.442   6.496   5.578
10713TIP3   OH232091   3.426   6.857   5.943
10713TIP3    H132092   3.484   6.790   5.902
10713TIP3    H232093   3.432   6.932   5.879
10714TIP3   OH232094   3.252   7.154   6.141
10714TIP3    H132095   3.183   7.200   6.194
10714TIP3    H232096   3.199   7.112   6.070
10715TIP3   OH232097   3.307   6.371   5.162
10715TIP3    H132098   3.235   6.373   5.095
10715TIP3    H232099   3.279   6.447   5.217
10716TIP3   OH232100   3.182   6.022   5.118
10716TIP3    H132101   3.128   6.048   5.043
10716TIP3    H232102   3.197   5.928   5.102
10717TIP3   OH232103   3.182   6.323   5.660
10717TIP3    H132104   3.186   6.227   5.648
10717TIP3    H232105   3.166   6.331   5.757
10718TIP3   OH232106   1.810   6.397   6.414
10718TIP3    H132107   1.814   6.364   6.321
10718TIP3    H232108   1.906   6.396   6.434
10719TIP3   OH232109   3.477   6.749   6.519
10719TIP3    H132110   3.546   6.680   6.508
10719TIP3    H232111   3.507   6.818   6.457
10720TIP3   OH232112   3.654   6.544   6.523
10720TIP3    H132113   3.580   6.496   6.567
10720TIP3    H232114   3.727   6.480   6.539
10721TIP3   OH232115   3.185   6.045   5.551
10721TIP3    H132116   3.221   5.953   5.563
10721TIP3    H232117   3.239   6.074   5.475
10722TIP3   OH232118   3.337   6.203   6.054
10722TIP3    H132119   3.420   6.232   6.011
10722TIP3    H232120   3.350   6.242   6.143
10723TIP3   OH232121   3.408   6.352   6.280
10723TIP3    H132122   3.335   6.387   6.334
10723TIP3    H232123   3.441   6.434   6.236
10724TIP3   OH232124   2.033   6.076   7.073
10724TIP3    H132125   2.130   6.067   7.080
10724TIP3    H232126   2.005   5.993   7.116
10725TIP3   OH232127   3.861   5.949   6.838
10725TIP3    H132128   3.925   5.886   6.796
10725TIP3    H232129   3.831   6.001   6.761
10726TIP3   OH232130   3.281   5.793   5.597
10726TIP3    H132131   3.320   5.773   5.685
10726TIP3    H232132   3.222   5.715   5.586
10727TIP3   OH232133   1.986   5.770   6.448
10727TIP3    H132134   2.046   5.694   6.437
10727TIP3    H232135   2.044   5.843   6.420
10728TIP3   OH232136   1.786   6.044   6.487
10728TIP3    H132137   1.835   6.036   6.403
10728TIP3    H232138   1.820   6.128   6.520
10729TIP3   OH232139   3.727   6.080   6.644
10729TIP3    H132140   3.645   6.126   6.672
10729TIP3    H232141   3.689   6.011   6.587
10730TIP3   OH232142   2.931   7.238   5.502
10730TIP3    H132143   2.986   7.242   5.421
10730TIP3    H232144   2.969   7.309   5.556
10731TIP3   OH232145   2.000   5.627   6.803
10731TIP3    H132146   1.945   5.622   6.882
10731TIP3    H232147   1.937   5.667   6.740
10732TIP3   OH232148   2.212   7.092   6.406
10732TIP3    H132149   2.163   7.167   6.369
10732TIP3    H232150   2.299   7.106   6.362
10733TIP3   OH232151   2.667   7.328   6.553
10733TIP3    H132152   2.700   7.322   6.646
10733TIP3    H232153   2.740   7.378   6.511
10734TIP3   OH232154   2.848   7.487   6.416
10734TIP3    H132155   2.921   7.436   6.380
10734TIP3    H232156   2.894   7.539   6.486
10735TIP3   OH232157   3.633   5.847   6.519
10735TIP3    H132158   3.543   5.837   6.485
10735TIP3    H232159   3.667   5.755   6.513
10736TIP3   OH232160   2.090   7.325   6.306
10736TIP3    H132161   2.001   7.290   6.294
10736TIP3    H232162   2.097   7.383   6.227
10737TIP3   OH232163   2.557   7.350   6.103
10737TIP3    H132164   2.486   7.367   6.039
10737TIP3    H232165   2.559   7.436   6.151
10738TIP3   OH232166   2.823   7.280   6.142
10738TIP3    H132167   2.730   7.308   6.136
10738TIP3    H232168   2.869   7.361   6.113
10739TIP3   OH232169   3.021   7.477   6.070
10739TIP3    H132170   3.007   7.563   6.024
10739TIP3    H232171   3.050   7.420   5.995
10740TIP3   OH232172   1.831   7.142   6.220
10740TIP3    H132173   1.849   7.075   6.289
10740TIP3    H232174   1.883   7.102   6.146
10741TIP3   OH232175   2.000   7.016   6.053
10741TIP3    H132176   2.011   6.931   6.101
10741TIP3    H232177   2.092   7.049   6.051
10742TIP3   OH232178   2.267   7.098   6.070
10742TIP3    H132179   2.295   7.005   6.059
10742TIP3    H232180   2.328   7.126   6.141
10743TIP3   OH232181   2.843   5.763   6.155
10743TIP3    H132182   2.796   5.693   6.202
10743TIP3    H232183   2.911   5.714   6.105
10744TIP3   OH232184   3.352   5.639   6.046
10744TIP3    H132185   3.383   5.700   5.975
10744TIP3    H232186   3.256   5.658   6.046
10745TIP3   OH232187   3.448   5.751   5.814
10745TIP3    H132188   3.508   5.688   5.770
10745TIP3    H232189   3.494   5.836   5.804
10746TIP3   OH232190   2.077   5.476   6.162
10746TIP3    H132191   1.980   5.468   6.152
10746TIP3    H232192   2.108   5.384   6.152
10747TIP3   OH232193   1.861   5.347   5.807
10747TIP3    H132194   1.886   5.414   5.742
10747TIP3    H232195   1.826   5.402   5.880
10748TIP3   OH232196   2.540   5.494   6.037
10748TIP3    H132197   2.594   5.546   5.976
10748TIP3    H232198   2.543   5.547   6.118
10749TIP3   OH232199   3.073   5.651   6.019
10749TIP3    H132200   3.069   5.607   5.933
10749TIP3    H232201   3.063   5.574   6.080
10750TIP3   OH232202   3.110   5.578   5.586
10750TIP3    H132203   3.024   5.620   5.603
10750TIP3    H232204   3.095   5.490   5.627
10751TIP3   OH232205   1.593   6.910   5.577
10751TIP3    H132206   1.508   6.877   5.542
10751TIP3    H232207   1.579   7.006   5.572
10752TIP3   OH232208   1.998   5.506   5.559
10752TIP3    H132209   2.045   5.438   5.507
10752TIP3    H232210   2.072   5.555   5.600
10753TIP3   OH232211   2.501   5.680   5.668
10753TIP3    H132212   2.557   5.631   5.730
10753TIP3    H232213   2.524   5.772   5.694
10754TIP3   OH232214   2.361   7.093   5.167
10754TIP3    H132215   2.448   7.119   5.130
10754TIP3    H232216   2.341   7.017   5.107
10755TIP3   OH232217   3.082   7.223   5.266
10755TIP3    H132218   3.076   7.125   5.257
10755TIP3    H232219   3.035   7.252   5.186
10756TIP3   OH232220   2.291   5.750   7.054
10756TIP3    H132221   2.256   5.678   7.109
10756TIP3    H232222   2.385   5.749   7.081
10757TIP3   OH232223   2.543   5.749   7.170
10757TIP3    H132224   2.630   5.727   7.134
10757TIP3    H232225   2.530   5.678   7.236
10758TIP3   OH232226   1.666   6.937   5.222
10758TIP3    H132227   1.669   6.938   5.319
10758TIP3    H232228   1.750   6.891   5.200
10759TIP3   OH232229   3.371   5.814   6.956
10759TIP3    H132230   3.387   5.784   7.048
10759TIP3    H232231   3.462   5.810   6.918
10760TIP3   OH232232   3.308   7.365   6.438
10760TIP3    H132233   3.227   7.333   6.395
10760TIP3    H232234   3.284   7.459   6.453
10761TIP3   OH232235   4.574   6.741   5.208
10761TIP3    H132236   4.544   6.832   5.187
10761TIP3    H232237   4.494   6.690   5.186
10762TIP3   OH232238   4.575   6.735   5.604
10762TIP3    H132239   4.616   6.718   5.692
10762TIP3    H232240   4.530   6.650   5.588
10763TIP3   OH232241   3.866   6.622   5.966
10763TIP3    H132242   3.900   6.550   6.022
10763TIP3    H232243   3.924   6.694   5.997
10764TIP3   OH232244   4.820   7.043   5.283
10764TIP3    H132245   4.805   6.979   5.354
10764TIP3    H232246   4.850   7.122   5.332
10765TIP3   OH232247   3.845   7.038   5.677
10765TIP3    H132248   3.836   6.940   5.679
10765TIP3    H232249   3.941   7.048   5.678
10766TIP3   OH232250   3.540   6.229   5.477
10766TIP3    H132251   3.494   6.314   5.491
10766TIP3    H232252   3.476   6.186   5.415
10767TIP3   OH232253   3.609   6.528   5.650
10767TIP3    H132254   3.661   6.450   5.679
10767TIP3    H232255   3.676   6.582   5.606
10768TIP3   OH232256   4.472   7.499   5.296
10768TIP3    H132257   4.512   7.426   5.245
10768TIP3    H232258   4.461   7.459   5.383
10769TIP3   OH232259   4.370   6.966   5.643
10769TIP3    H132260   4.413   6.887   5.605
10769TIP3    H232261   4.451   7.014   5.669
10770TIP3   OH232262   5.389   6.281   5.645
10770TIP3    H132263   5.418   6.364   5.687
10770TIP3    H232264   5.415   6.297   5.552
10771TIP3   OH232265   4.786   6.460   5.670
10771TIP3    H132266   4.828   6.375   5.693
10771TIP3    H232267   4.752   6.440   5.581
10772TIP3   OH232268   4.125   6.111   5.638
10772TIP3    H132269   4.104   6.185   5.577
10772TIP3    H232270   4.076   6.038   5.596
10773TIP3   OH232271   4.822   6.214   5.258
10773TIP3    H132272   4.891   6.201   5.327
10773TIP3    H232273   4.878   6.249   5.186
10774TIP3   OH232274   3.753   6.311   5.747
10774TIP3    H132275   3.836   6.294   5.799
10774TIP3    H232276   3.777   6.266   5.664
10775TIP3   OH232277   4.199   6.522   5.535
10775TIP3    H132278   4.293   6.498   5.553
10775TIP3    H232279   4.160   6.435   5.511
10776TIP3   OH232280   5.456   6.489   5.820
10776TIP3    H132281   5.374   6.539   5.804
10776TIP3    H232282   5.496   6.541   5.893
10777TIP3   OH232283   4.103   6.100   6.072
10777TIP3    H132284   4.046   6.146   6.007
10777TIP3    H232285   4.055   6.121   6.155
10778TIP3   OH232286   4.472   6.967   5.070
10778TIP3    H132287   4.421   6.950   4.989
10778TIP3    H232288   4.421   7.043   5.106
10779TIP3   OH232289   4.225   6.880   5.866
10779TIP3    H132290   4.167   6.949   5.904
10779TIP3    H232291   4.269   6.928   5.793
10780TIP3   OH232292   5.019   6.223   5.446
10780TIP3    H132293   4.989   6.195   5.534
10780TIP3    H232294   5.072   6.302   5.469
10781TIP3   OH232295   3.993   6.228   5.852
10781TIP3    H132296   4.055   6.301   5.879
10781TIP3    H232297   4.047   6.185   5.782
10782TIP3   OH232298   4.058   7.083   5.965
10782TIP3    H132299   4.032   7.172   5.934
10782TIP3    H232300   3.980   7.060   6.020
10783TIP3   OH232301   3.440   6.768   5.203
10783TIP3    H132302   3.404   6.792   5.116
10783TIP3    H232303   3.473   6.855   5.235
10784TIP3   OH232304   4.874   7.282   5.426
10784TIP3    H132305   4.787   7.276   5.471
10784TIP3    H232306   4.870   7.372   5.388
10785TIP3   OH232307   5.184   6.171   5.807
10785TIP3    H132308   5.099   6.204   5.777
10785TIP3    H232309   5.246   6.209   5.740
10786TIP3   OH232310   4.467   5.825   5.786
10786TIP3    H132311   4.443   5.733   5.808
10786TIP3    H232312   4.400   5.873   5.838
10787TIP3   OH232313   4.585   7.323   5.108
10787TIP3    H132314   4.639   7.243   5.093
10787TIP3    H232315   4.646   7.391   5.072
10788TIP3   OH232316   4.726   7.099   5.030
10788TIP3    H132317   4.651   7.038   5.033
10788TIP3    H232318   4.775   7.075   5.112
10789TIP3   OH232319   5.096   7.192   5.782
10789TIP3    H132320   5.086   7.117   5.720
10789TIP3    H232321   5.083   7.269   5.721
10790TIP3   OH232322   4.401   6.583   5.046
10790TIP3    H132323   4.319   6.636   5.034
10790TIP3    H232324   4.444   6.595   4.960
10791TIP3   OH232325   4.362   6.374   4.753
10791TIP3    H132326   4.423   6.421   4.812
10791TIP3    H232327   4.424   6.315   4.706
10792TIP3   OH232328   5.304   6.831   5.631
10792TIP3    H132329   5.221   6.883   5.637
10792TIP3    H232330   5.334   6.857   5.541
10793TIP3   OH232331   4.754   6.666   5.021
10793TIP3    H132332   4.700   6.694   5.099
10793TIP3    H232333   4.840   6.646   5.066
10794TIP3   OH232334   4.983   6.708   5.932
10794TIP3    H132335   4.979   6.792   5.981
10794TIP3    H232336   4.895   6.708   5.890
10795TIP3   OH232337   3.986   6.666   5.434
10795TIP3    H132338   3.946   6.606   5.367
10795TIP3    H232339   4.063   6.614   5.465
10796TIP3   OH232340   4.117   7.083   5.579
10796TIP3    H132341   4.099   7.049   5.490
10796TIP3    H232342   4.204   7.044   5.599
10797TIP3   OH232343   4.116   6.641   5.778
10797TIP3    H132344   4.160   6.619   5.694
10797TIP3    H232345   4.163   6.723   5.807
10798TIP3   OH232346   4.644   7.279   5.565
10798TIP3    H132347   4.632   7.360   5.618
10798TIP3    H232348   4.628   7.207   5.629
10799TIP3   OH232349   4.259   7.195   6.114
10799TIP3    H132350   4.195   7.256   6.159
10799TIP3    H232351   4.197   7.142   6.060
10800TIP3   OH232352   4.598   6.543   4.838
10800TIP3    H132353   4.655   6.587   4.905
10800TIP3    H232354   4.608   6.605   4.764
10801TIP3   OH232355   3.981   6.767   6.187
10801TIP3    H132356   4.007   6.845   6.240
10801TIP3    H232357   3.896   6.743   6.230
10802TIP3   OH232358   4.341   7.202   5.117
10802TIP3    H132359   4.424   7.254   5.120
10802TIP3    H232360   4.279   7.264   5.077
10803TIP3   OH232361   4.053   7.360   6.202
10803TIP3    H132362   4.017   7.366   6.111
10803TIP3    H232363   3.972   7.339   6.254
10804TIP3   OH232364   5.106   5.767   4.893
10804TIP3    H132365   5.025   5.790   4.943
10804TIP3    H232366   5.122   5.850   4.843
10805TIP3   OH232367   3.853   6.509   5.230
10805TIP3    H132368   3.782   6.557   5.183
10805TIP3    H232369   3.812   6.422   5.242
10806TIP3   OH232370   4.904   7.118   4.439
10806TIP3    H132371   4.906   7.215   4.426
10806TIP3    H232372   4.999   7.096   4.429
10807TIP3   OH232373   3.630   6.898   6.146
10807TIP3    H132374   3.564   6.873   6.079
10807TIP3    H232375   3.667   6.812   6.175
10808TIP3   OH232376   3.488   7.086   5.780
10808TIP3    H132377   3.584   7.085   5.772
10808TIP3    H232378   3.475   7.165   5.835
10809TIP3   OH232379   5.272   7.481   5.792
10809TIP3    H132380   5.308   7.411   5.848
10809TIP3    H232381   5.210   7.526   5.853
10810TIP3   OH232382   4.454   7.323   5.972
10810TIP3    H132383   4.445   7.417   5.997
10810TIP3    H232384   4.383   7.281   6.025
10811TIP3   OH232385   4.222   7.450   4.924
10811TIP3    H132386   4.172   7.436   4.842
10811TIP3    H232387   4.189   7.537   4.954
10812TIP3   OH232388   3.657   7.301   5.310
10812TIP3    H132389   3.703   7.293   5.396
10812TIP3    H232390   3.611   7.215   5.305
10813TIP3   OH232391   4.417   7.356   4.558
10813TIP3    H132392   4.476   7.285   4.524
10813TIP3    H232393   4.453   7.369   4.648
10814TIP3   OH232394   4.472   7.405   4.826
10814TIP3    H132395   4.383   7.414   4.868
10814TIP3    H232396   4.525   7.375   4.901
10815TIP3   OH232397   5.249   6.676   6.102
10815TIP3    H132398   5.163   6.686   6.057
10815TIP3    H232399   5.262   6.579   6.096
10816TIP3   OH232400   3.835   7.080   6.126
10816TIP3    H132401   3.885   7.064   6.209
10816TIP3    H232402   3.762   7.016   6.135
10817TIP3   OH232403   4.245   5.901   5.931
10817TIP3    H132404   4.158   5.893   5.890
10817TIP3    H232405   4.233   5.984   5.982
10818TIP3   OH232406   4.771   6.003   6.117
10818TIP3    H132407   4.840   5.988   6.184
10818TIP3    H232408   4.688   5.995   6.168
10819TIP3   OH232409   5.003   6.448   6.033
10819TIP3    H132410   4.950   6.444   6.115
10819TIP3    H232411   4.978   6.535   5.996
10820TIP3   OH232412   4.381   5.946   4.894
10820TIP3    H132413   4.344   5.943   4.984
10820TIP3    H232414   4.339   5.866   4.857
10821TIP3   OH232415   4.163   6.424   5.935
10821TIP3    H132416   4.115   6.444   6.018
10821TIP3    H232417   4.147   6.506   5.884
10822TIP3   OH232418   4.049   6.298   5.457
10822TIP3    H132419   3.954   6.278   5.472
10822TIP3    H232420   4.060   6.262   5.366
10823TIP3   OH232421   4.540   6.387   5.184
10823TIP3    H132422   4.491   6.458   5.137
10823TIP3    H232423   4.597   6.352   5.112
10824TIP3   OH232424   4.737   6.674   6.260
10824TIP3    H132425   4.691   6.611   6.319
10824TIP3    H232426   4.827   6.669   6.295
10825TIP3   OH232427   4.695   6.410   5.418
10825TIP3    H132428   4.630   6.438   5.351
10825TIP3    H232429   4.732   6.333   5.370
10826TIP3   OH232430   3.998   6.453   6.152
10826TIP3    H132431   4.033   6.523   6.209
10826TIP3    H232432   3.995   6.376   6.213
10827TIP3   OH232433   4.039   5.926   4.857
10827TIP3    H132434   4.024   5.923   4.954
10827TIP3    H232435   3.960   5.976   4.829
10828TIP3   OH232436   3.656   5.943   5.728
10828TIP3    H132437   3.636   6.038   5.734
10828TIP3    H232438   3.617   5.921   5.640
10829TIP3   OH232439   3.587   5.984   5.282
10829TIP3    H132440   3.619   5.994   5.191
10829TIP3    H232441   3.502   6.030   5.274
10830TIP3   OH232442   4.714   6.662   5.833
10830TIP3    H132443   4.744   6.588   5.776
10830TIP3    H232444   4.674   6.611   5.907
10831TIP3   OH232445   4.385   6.118   5.511
10831TIP3    H132446   4.307   6.122   5.569
10831TIP3    H232447   4.459   6.119   5.575
10832TIP3   OH232448   3.803   6.178   5.508
10832TIP3    H132449   3.708   6.194   5.486
10832TIP3    H232450   3.814   6.086   5.478
10833TIP3   OH232451   4.073   6.170   5.216
10833TIP3    H132452   4.166   6.190   5.195
10833TIP3    H232453   4.025   6.197   5.134
10834TIP3   OH232454   4.874   6.197   5.701
10834TIP3    H132455   4.855   6.209   5.797
10834TIP3    H232456   4.797   6.143   5.675
10835TIP3   OH232457   3.932   6.211   4.989
10835TIP3    H132458   3.859   6.165   4.944
10835TIP3    H232459   3.981   6.248   4.913
10836TIP3   OH232460   3.996   7.006   6.353
10836TIP3    H132461   4.077   7.030   6.402
10836TIP3    H232462   3.932   7.000   6.426
10837TIP3   OH232463   4.458   6.456   5.612
10837TIP3    H132464   4.538   6.418   5.573
10837TIP3    H232465   4.459   6.419   5.702
10838TIP3   OH232466   3.990   5.916   5.486
10838TIP3    H132467   3.988   5.821   5.469
10838TIP3    H232468   4.027   5.948   5.402
10839TIP3   OH232469   4.436   6.368   5.897
10839TIP3    H132470   4.348   6.405   5.918
10839TIP3    H232471   4.496   6.428   5.947
10840TIP3   OH232472   4.175   6.736   4.996
10840TIP3    H132473   4.101   6.674   4.981
10840TIP3    H232474   4.151   6.773   5.085
10841TIP3   OH232475   5.070   6.973   5.615
10841TIP3    H132476   5.096   7.026   5.536
10841TIP3    H232477   4.986   6.932   5.586
10842TIP3   OH232478   4.627   6.052   4.858
10842TIP3    H132479   4.533   6.027   4.873
10842TIP3    H232480   4.632   6.144   4.891
10843TIP3   OH232481   4.568   7.059   5.989
10843TIP3    H132482   4.602   7.040   6.077
10843TIP3    H232483   4.533   7.149   5.999
10844TIP3   OH232484   4.696   6.303   4.965
10844TIP3    H132485   4.791   6.305   4.984
10844TIP3    H232486   4.684   6.383   4.911
10845TIP3   OH232487   3.863   6.755   5.669
10845TIP3    H132488   3.907   6.730   5.586
10845TIP3    H232489   3.919   6.712   5.735
10846TIP3   OH232490   4.319   6.890   4.821
10846TIP3    H132491   4.269   6.975   4.821
10846TIP3    H232492   4.263   6.835   4.881
10847TIP3   OH232493   3.738   6.690   6.294
10847TIP3    H132494   3.767   6.677   6.387
10847TIP3    H232495   3.679   6.613   6.283
10848TIP3   OH232496   4.726   7.320   5.890
10848TIP3    H132497   4.630   7.317   5.905
10848TIP3    H232498   4.756   7.371   5.969
10849TIP3   OH232499   5.128   6.394   4.794
10849TIP3    H132500   5.064   6.352   4.732
10849TIP3    H232501   5.132   6.482   4.752
10850TIP3   OH232502   5.341   7.227   5.888
10850TIP3    H132503   5.247   7.228   5.860
10850TIP3    H232504   5.384   7.209   5.802
10851TIP3   OH232505   4.840   7.213   4.705
10851TIP3    H132506   4.814   7.150   4.773
10851TIP3    H232507   4.855   7.158   4.626
10852TIP3   OH232508   4.835   6.844   5.527
10852TIP3    H132509   4.743   6.818   5.547
10852TIP3    H232510   4.868   6.761   5.488
10853TIP3   OH232511   3.970   7.070   5.292
10853TIP3    H132512   3.964   7.152   5.239
10853TIP3    H232513   3.878   7.054   5.313
10854TIP3   OH232514   3.534   6.368   5.006
10854TIP3    H132515   3.576   6.454   5.025
10854TIP3    H232516   3.456   6.372   5.065
10855TIP3   OH232517   4.095   6.830   5.234
10855TIP3    H132518   4.063   6.921   5.254
10855TIP3    H232519   4.063   6.781   5.312
10856TIP3   OH232520   4.239   7.411   5.761
10856TIP3    H132521   4.282   7.485   5.711
10856TIP3    H232522   4.316   7.372   5.805
10857TIP3   OH232523   3.885   7.310   5.147
10857TIP3    H132524   3.800   7.319   5.195
10857TIP3    H232525   3.918   7.402   5.151
10858TIP3   OH232526   4.621   7.047   5.723
10858TIP3    H132527   4.607   7.047   5.820
10858TIP3    H232528   4.703   6.995   5.715
10859TIP3   OH232529   4.607   6.922   4.600
10859TIP3    H132530   4.656   6.900   4.683
10859TIP3    H232531   4.515   6.918   4.631
10860TIP3   OH232532   4.861   7.585   5.778
10860TIP3    H132533   4.786   7.523   5.765
10860TIP3    H232534   4.851   7.642   5.699
10861TIP3   OH232535   4.935   7.404   4.425
10861TIP3    H132536   4.973   7.479   4.375
10861TIP3    H232537   4.856   7.448   4.462
10862TIP3   OH232538   3.961   6.183   6.295
10862TIP3    H132539   3.866   6.191   6.315
10862TIP3    H232540   3.994   6.135   6.373
10863TIP3   OH232541   4.764   6.841   4.807
10863TIP3    H132542   4.755   6.798   4.894
10863TIP3    H232543   4.860   6.860   4.807
10864TIP3   OH232544   3.676   7.270   5.920
10864TIP3    H132545   3.732   7.205   5.967
10864TIP3    H232546   3.696   7.350   5.971
10865TIP3   OH232547   3.967   6.917   4.607
10865TIP3    H132548   3.976   6.823   4.584
10865TIP3    H232549   3.944   6.911   4.702
10866TIP3   OH232550   3.908   6.925   4.877
10866TIP3    H132551   3.979   6.900   4.938
10866TIP3    H232552   3.908   7.023   4.885
10867TIP3   OH232553   3.639   6.616   5.086
10867TIP3    H132554   3.572   6.660   5.142
10867TIP3    H232555   3.650   6.683   5.016
10868TIP3   OH232556   4.821   6.230   5.961
10868TIP3    H132557   4.875   6.292   6.014
10868TIP3    H232558   4.796   6.161   6.025
10869TIP3   OH232559   4.681   5.997   5.148
10869TIP3    H132560   4.668   6.021   5.055
10869TIP3    H232561   4.722   6.078   5.185
10870TIP3   OH232562   4.178   7.120   4.825
10870TIP3    H132563   4.090   7.140   4.863
10870TIP3    H232564   4.193   7.201   4.774
10871TIP3   OH232565   4.356   6.189   5.246
10871TIP3    H132566   4.421   6.261   5.230
10871TIP3    H232567   4.367   6.176   5.342
10872TIP3   OH232568   4.640   6.501   6.045
10872TIP3    H132569   4.628   6.573   6.110
10872TIP3    H232570   4.686   6.435   6.098
10873TIP3   OH232571   4.502   5.899   5.340
10873TIP3    H132572   4.496   5.975   5.400
10873TIP3    H232573   4.568   5.932   5.275
10874TIP3   OH232574   3.926   7.194   4.901
10874TIP3    H132575   3.896   7.265   4.839
10874TIP3    H232576   3.909   7.238   4.987
10875TIP3   OH232577   4.023   5.911   5.135
10875TIP3    H132578   4.020   6.004   5.164
10875TIP3    H232579   4.120   5.896   5.139
10876TIP3   OH232580   5.269   6.404   6.044
10876TIP3    H132581   5.171   6.402   6.043
10876TIP3    H232582   5.289   6.378   5.953
10877TIP3   OH232583   4.923   6.594   5.417
10877TIP3    H132584   4.846   6.537   5.435
10877TIP3    H232585   4.994   6.549   5.468
10878TIP3   OH232586   3.639   6.817   4.887
10878TIP3    H132587   3.709   6.885   4.893
10878TIP3    H232588   3.680   6.758   4.820
10879TIP3   OH232589   3.582   6.095   5.027
10879TIP3    H132590   3.574   6.192   5.021
10879TIP3    H232591   3.507   6.065   4.974
10880TIP3   OH232592   4.895   7.554   5.363
10880TIP3    H132593   4.854   7.602   5.287
10880TIP3    H232594   4.990   7.569   5.345
10881TIP3   OH232595   3.501   7.036   5.269
10881TIP3    H132596   3.447   7.068   5.342
10881TIP3    H232597   3.461   7.083   5.191
10882TIP3   OH232598   3.676   7.591   6.337
10882TIP3    H132599   3.760   7.595   6.388
10882TIP3    H232600   3.660   7.496   6.338
10883TIP3   OH232601   4.141   7.539   6.396
10883TIP3    H132602   4.237   7.535   6.388
10883TIP3    H232603   4.113   7.476   6.327
10884TIP3   OH232604   4.125   7.120   4.511
10884TIP3    H132605   4.071   7.048   4.552
10884TIP3    H232606   4.202   7.069   4.480
10885TIP3   OH232607   4.791   7.441   6.128
10885TIP3    H132608   4.779   7.379   6.204
10885TIP3    H232609   4.887   7.454   6.129
10886TIP3   OH232610   4.564   7.157   4.431
10886TIP3    H132611   4.617   7.098   4.488
10886TIP3    H232612   4.616   7.157   4.348
10887TIP3   OH232613   3.796   6.992   6.546
10887TIP3    H132614   3.811   6.897   6.558
10887TIP3    H232615   3.709   6.993   6.500
10888TIP3   OH232616   3.777   6.633   4.744
10888TIP3    H132617   3.835   6.609   4.819
10888TIP3    H232618   3.844   6.641   4.672
10889TIP3   OH232619   4.400   7.080   6.319
10889TIP3    H132620   4.355   7.101   6.234
10889TIP3    H232621   4.431   6.989   6.306
10890TIP3   OH232622   4.297   6.840   4.551
10890TIP3    H132623   4.293   6.853   4.648
10890TIP3    H232624   4.296   6.742   4.546
10891TIP3   OH232625   4.889   7.091   5.932
10891TIP3    H132626   4.966   7.129   5.884
10891TIP3    H232627   4.822   7.159   5.914
10892TIP3   OH232628   3.921   6.727   6.524
10892TIP3    H132629   4.004   6.688   6.492
10892TIP3    H232630   3.948   6.757   6.613
10893TIP3   OH232631   3.977   6.546   4.959
10893TIP3    H132632   3.949   6.509   5.044
10893TIP3    H232633   4.015   6.468   4.912
10894TIP3   OH232634   4.083   6.341   4.799
10894TIP3    H132635   4.057   6.352   4.705
10894TIP3    H232636   4.181   6.341   4.791
10895TIP3   OH232637   4.769   7.010   6.322
10895TIP3    H132638   4.825   6.962   6.259
10895TIP3    H232639   4.752   6.941   6.388
10896TIP3   OH232640   4.383   6.138   6.074
10896TIP3    H132641   4.409   6.214   6.019
10896TIP3    H232642   4.288   6.156   6.089
10897TIP3   OH232643   4.424   6.706   5.952
10897TIP3    H132644   4.495   6.766   5.930
10897TIP3    H232645   4.346   6.763   5.946
10898TIP3   OH232646   4.999   6.676   6.380
10898TIP3    H132647   5.048   6.593   6.373
10898TIP3    H232648   5.059   6.739   6.338
10899TIP3   OH232649   5.021   6.939   6.111
10899TIP3    H132650   4.964   6.997   6.055
10899TIP3    H232651   5.107   6.952   6.066
10900TIP3   OH232652   4.509   5.931   6.200
10900TIP3    H132653   4.467   6.008   6.156
10900TIP3    H232654   4.437   5.866   6.193
10901TIP3   OH232655   4.637   6.455   6.398
10901TIP3    H132656   4.629   6.418   6.488
10901TIP3    H232657   4.544   6.489   6.389
10902TIP3   OH232658   4.868   6.391   6.259
10902TIP3    H132659   4.792   6.405   6.319
10902TIP3    H232660   4.940   6.366   6.320
10903TIP3   OH232661   5.106   6.341   6.408
10903TIP3    H132662   5.119   6.245   6.423
10903TIP3    H232663   5.102   6.377   6.499
10904TIP3   OH232664   4.068   6.274   6.620
10904TIP3    H132665   4.124   6.214   6.569
10904TIP3    H232666   4.119   6.280   6.703
10905TIP3   OH232667   4.604   5.952   6.456
10905TIP3    H132668   4.667   5.878   6.443
10905TIP3    H232669   4.559   5.952   6.369
10906TIP3   OH232670   4.676   6.167   6.609
10906TIP3    H132671   4.648   6.098   6.546
10906TIP3    H232672   4.596   6.225   6.611
10907TIP3   OH232673   3.895   7.398   4.716
10907TIP3    H132674   3.989   7.389   4.693
10907TIP3    H232675   3.863   7.449   4.639
10908TIP3   OH232676   3.370   6.779   4.928
10908TIP3    H132677   3.463   6.801   4.908
10908TIP3    H232678   3.361   6.693   4.880
10909TIP3   OH232679   3.288   7.398   5.339
10909TIP3    H132680   3.221   7.337   5.301
10909TIP3    H232681   3.331   7.337   5.403
10910TIP3   OH232682   3.420   7.238   5.525
10910TIP3    H132683   3.405   7.172   5.595
10910TIP3    H232684   3.474   7.303   5.575
10911TIP3   OH232685   5.157   7.629   5.331
10911TIP3    H132686   5.163   7.659   5.424
10911TIP3    H232687   5.198   7.705   5.286
10912TIP3   OH232688   5.166   7.663   5.605
10912TIP3    H132689   5.144   7.569   5.619
10912TIP3    H232690   5.246   7.669   5.660
10913TIP3   OH232691   5.040   6.865   4.807
10913TIP3    H132692   5.107   6.929   4.773
10913TIP3    H232693   5.085   6.832   4.887
10914TIP3   OH232694   5.169   6.717   4.999
10914TIP3    H132695   5.104   6.678   5.062
10914TIP3    H232696   5.238   6.752   5.060
10915TIP3   OH232697   5.228   7.117   5.438
10915TIP3    H132698   5.280   7.048   5.392
10915TIP3    H232699   5.230   7.191   5.374
10916TIP3   OH232700   5.034   7.405   5.619
10916TIP3    H132701   4.967   7.452   5.670
10916TIP3    H232702   4.983   7.364   5.547
10917TIP3   OH232703   5.111   6.642   4.656
10917TIP3    H132704   5.033   6.688   4.622
10917TIP3    H232705   5.122   6.693   4.739
10918TIP3   OH232706   4.963   6.306   4.599
10918TIP3    H132707   4.963   6.324   4.504
10918TIP3    H232708   4.939   6.210   4.600
10919TIP3   OH232709   4.982   6.580   5.150
10919TIP3    H132710   4.989   6.484   5.144
10919TIP3    H232711   4.966   6.594   5.246
10920TIP3   OH232712   3.606   6.655   5.897
10920TIP3    H132713   3.603   6.618   5.807
10920TIP3    H232714   3.703   6.653   5.914
10921TIP3   OH232715   5.259   6.982   5.981
10921TIP3    H132716   5.339   6.928   5.968
10921TIP3    H232717   5.286   7.067   5.941
10922TIP3   OH232718   5.468   6.811   6.011
10922TIP3    H132719   5.391   6.763   6.048
10922TIP3    H232720   5.538   6.744   6.027
10923TIP3   OH232721   4.916   6.040   4.588
10923TIP3    H132722   4.990   6.006   4.642
10923TIP3    H232723   4.844   5.977   4.607
10924TIP3   OH232724   4.976   6.293   5.038
10924TIP3    H132725   5.019   6.206   5.053
10924TIP3    H232726   5.034   6.327   4.967
10925TIP3   OH232727   5.135   6.462   5.539
10925TIP3    H132728   5.221   6.487   5.497
10925TIP3    H232729   5.150   6.501   5.628
10926TIP3   OH232730   5.209   6.613   5.770
10926TIP3    H132731   5.132   6.648   5.817
10926TIP3    H232732   5.241   6.693   5.723
10927TIP3   OH232733   3.813   6.324   6.549
10927TIP3    H132734   3.910   6.324   6.567
10927TIP3    H232735   3.790   6.242   6.598
10928TIP3   OH232736   5.660   6.210   6.321
10928TIP3    H132737   5.725   6.151   6.276
10928TIP3    H232738   5.627   6.264   6.245
10929TIP3   OH232739   5.087   6.046   5.080
10929TIP3    H132740   5.135   6.030   5.164
10929TIP3    H232741   5.026   5.969   5.079
10930TIP3   OH232742   3.585   6.289   5.975
10930TIP3    H132743   3.639   6.307   5.895
10930TIP3    H232744   3.602   6.368   6.028
10931TIP3   OH232745   5.517   6.333   6.129
10931TIP3    H132746   5.431   6.380   6.129
10931TIP3    H232747   5.493   6.258   6.072
10932TIP3   OH232748   5.159   5.974   4.715
10932TIP3    H132749   5.202   5.905   4.660
10932TIP3    H232750   5.228   6.044   4.718
10933TIP3   OH232751   3.557   5.838   5.506
10933TIP3    H132752   3.463   5.813   5.498
10933TIP3    H232753   3.571   5.888   5.422
10934TIP3   OH232754   4.729   7.510   4.981
10934TIP3    H132755   4.786   7.508   4.901
10934TIP3    H232756   4.774   7.577   5.036
10935TIP3   OH232757   3.791   5.874   6.279
10935TIP3    H132758   3.747   5.879   6.366
10935TIP3    H232759   3.727   5.920   6.222
10936TIP3   OH232760   3.832   7.318   6.361
10936TIP3    H132761   3.738   7.295   6.348
10936TIP3    H232762   3.844   7.299   6.455
10937TIP3   OH232763   4.015   7.353   5.914
10937TIP3    H132764   3.966   7.430   5.876
10937TIP3    H232765   4.100   7.367   5.867
10938TIP3   OH232766   4.446   7.594   6.038
10938TIP3    H132767   4.484   7.596   6.128
10938TIP3    H232768   4.514   7.644   5.988
10939TIP3   OH232769   4.638   7.743   5.909
10939TIP3    H132770   4.708   7.688   5.870
10939TIP3    H232771   4.688   7.819   5.941
10940TIP3   OH232772   5.427   6.102   6.010
10940TIP3    H132773   5.340   6.094   5.966
10940TIP3    H232774   5.463   6.010   5.999
10941TIP3   OH232775   3.685   7.603   5.942
10941TIP3    H132776   3.593   7.631   5.921
10941TIP3    H232777   3.704   7.661   6.017
10942TIP3   OH232778   3.920   7.584   5.799
10942TIP3    H132779   3.832   7.594   5.841
10942TIP3    H232780   3.903   7.616   5.708
10943TIP3   OH232781   4.347   7.608   5.595
10943TIP3    H132782   4.277   7.626   5.529
10943TIP3    H232783   4.358   7.697   5.635
10944TIP3   OH232784   4.616   7.544   5.647
10944TIP3    H132785   4.523   7.566   5.627
10944TIP3    H232786   4.664   7.617   5.601
10945TIP3   OH232787   4.813   7.734   5.557
10945TIP3    H132788   4.802   7.819   5.508
10945TIP3    H232789   4.847   7.676   5.484
10946TIP3   OH232790   3.598   7.395   5.680
10946TIP3    H132791   3.623   7.365   5.770
10946TIP3    H232792   3.671   7.353   5.630
10947TIP3   OH232793   3.796   7.270   5.543
10947TIP3    H132794   3.809   7.185   5.592
10947TIP3    H232795   3.887   7.305   5.542
10948TIP3   OH232796   4.062   7.359   5.551
10948TIP3    H132797   4.091   7.265   5.545
10948TIP3    H232798   4.113   7.385   5.631
10949TIP3   OH232799   4.635   6.020   5.627
10949TIP3    H132800   4.595   5.948   5.678
10949TIP3    H232801   4.712   5.977   5.585
10950TIP3   OH232802   5.149   5.897   5.530
10950TIP3    H132803   5.188   5.951   5.458
10950TIP3    H232804   5.056   5.926   5.529
10951TIP3   OH232805   5.250   5.997   5.296
10951TIP3    H132806   5.325   5.945   5.261
10951TIP3    H232807   5.285   6.088   5.283
10952TIP3   OH232808   3.687   5.596   5.287
10952TIP3    H132809   3.704   5.643   5.203
10952TIP3    H232810   3.621   5.655   5.327
10953TIP3   OH232811   4.332   5.760   5.531
10953TIP3    H132812   4.382   5.803   5.460
10953TIP3    H232813   4.370   5.802   5.610
10954TIP3   OH232814   4.860   5.905   5.508
10954TIP3    H132815   4.875   5.863   5.423
10954TIP3    H232816   4.855   5.827   5.568
10955TIP3   OH232817   4.903   5.835   5.074
10955TIP3    H132818   4.818   5.879   5.097
10955TIP3    H232819   4.890   5.747   5.116
10956TIP3   OH232820   3.384   7.170   5.068
10956TIP3    H132821   3.297   7.137   5.040
10956TIP3    H232822   3.380   7.260   5.028
10957TIP3   OH232823   3.795   5.751   5.058
10957TIP3    H132824   3.839   5.692   4.994
10957TIP3    H232825   3.870   5.805   5.091
10958TIP3   OH232826   4.297   5.938   5.156
10958TIP3    H132827   4.360   5.892   5.214
10958TIP3    H232828   4.318   6.031   5.181
10959TIP3   OH232829   4.159   7.350   4.657
10959TIP3    H132830   4.246   7.375   4.619
10959TIP3    H232831   4.136   7.277   4.595
10960TIP3   OH232832   4.880   7.480   4.750
10960TIP3    H132833   4.870   7.383   4.739
10960TIP3    H232834   4.831   7.512   4.671
10961TIP3   OH232835   4.093   5.976   6.514
10961TIP3    H132836   4.051   5.922   6.583
10961TIP3    H232837   4.181   5.991   6.555
10962TIP3   OH232838   4.333   6.006   6.654
10962TIP3    H132839   4.422   5.983   6.622
10962TIP3    H232840   4.318   5.937   6.723
10963TIP3   OH232841   3.487   7.216   4.721
10963TIP3    H132842   3.488   7.205   4.816
10963TIP3    H232843   3.567   7.165   4.693
10964TIP3   OH232844   5.170   6.070   6.439
10964TIP3    H132845   5.189   6.041   6.532
10964TIP3    H232846   5.260   6.070   6.401
10965TIP3   OH232847   5.084   7.629   5.935
10965TIP3    H132848   5.002   7.612   5.883
10965TIP3    H232849   5.099   7.723   5.920
10966TIP3   OH232850   6.368   6.992   4.691
10966TIP3    H132851   6.336   7.082   4.672
10966TIP3    H232852   6.293   6.939   4.659
10967TIP3   OH232853   6.325   6.997   5.045
10967TIP3    H132854   6.234   6.987   5.075
10967TIP3    H232855   6.335   6.924   4.983
10968TIP3   OH232856   5.658   6.879   5.449
10968TIP3    H132857   5.677   6.807   5.512
10968TIP3    H232858   5.741   6.929   5.452
10969TIP3   OH232859   5.656   7.292   5.185
10969TIP3    H132860   5.641   7.196   5.172
10969TIP3    H232861   5.742   7.303   5.137
10970TIP3   OH232862   5.347   6.492   4.944
10970TIP3    H132863   5.306   6.576   4.972
10970TIP3    H232864   5.270   6.445   4.909
10971TIP3   OH232865   5.403   6.785   5.130
10971TIP3    H132866   5.454   6.708   5.165
10971TIP3    H232867   5.472   6.836   5.086
10972TIP3   OH232868   6.143   7.228   5.082
10972TIP3    H132869   6.220   7.203   5.030
10972TIP3    H232870   6.183   7.267   5.162
10973TIP3   OH232871   6.605   6.737   5.147
10973TIP3    H132872   6.643   6.651   5.176
10973TIP3    H232873   6.546   6.704   5.078
10974TIP3   OH232874   5.923   6.378   5.121
10974TIP3    H132875   5.905   6.453   5.061
10974TIP3    H232876   5.869   6.308   5.079
10975TIP3   OH232877   6.612   6.475   4.749
10975TIP3    H132878   6.678   6.455   4.819
10975TIP3    H232879   6.669   6.518   4.683
10976TIP3   OH232880   5.552   6.582   5.233
10976TIP3    H132881   5.635   6.566   5.283
10976TIP3    H232882   5.570   6.526   5.155
10977TIP3   OH232883   5.983   6.771   5.030
10977TIP3    H132884   6.073   6.735   5.045
10977TIP3    H232885   5.937   6.692   4.995
10978TIP3   OH232886   5.885   6.356   5.568
10978TIP3    H132887   5.834   6.401   5.499
10978TIP3    H232888   5.840   6.387   5.649
10979TIP3   OH232889   6.265   7.224   4.574
10979TIP3    H132890   6.228   7.214   4.485
10979TIP3    H232891   6.216   7.304   4.604
10980TIP3   OH232892   6.024   7.115   5.373
10980TIP3    H132893   5.946   7.168   5.399
10980TIP3    H232894   6.085   7.188   5.348
10981TIP3   OH232895   6.813   6.450   4.931
10981TIP3    H132896   6.790   6.441   5.025
10981TIP3    H232897   6.894   6.503   4.937
10982TIP3   OH232898   5.786   6.478   5.339
10982TIP3    H132899   5.849   6.548   5.369
10982TIP3    H232900   5.840   6.437   5.268
10983TIP3   OH232901   5.802   7.276   5.413
10983TIP3    H132902   5.755   7.280   5.327
10983TIP3    H232903   5.728   7.259   5.472
10984TIP3   OH232904   5.238   7.025   4.688
10984TIP3    H132905   5.201   7.057   4.604
10984TIP3    H232906   5.271   7.109   4.727
10985TIP3   OH232907   6.955   6.452   5.210
10985TIP3    H132908   6.890   6.463   5.280
10985TIP3    H232909   7.038   6.467   5.255
10986TIP3   OH232910   6.265   6.073   5.272
10986TIP3    H132911   6.250   5.979   5.295
10986TIP3    H232912   6.189   6.114   5.320
10987TIP3   OH232913   6.374   7.586   4.555
10987TIP3    H132914   6.448   7.525   4.539
10987TIP3    H232915   6.421   7.644   4.622
10988TIP3   OH232916   6.541   7.345   4.547
10988TIP3    H132917   6.518   7.310   4.460
10988TIP3    H232918   6.473   7.304   4.603
10989TIP3   OH232919   6.196   6.843   4.532
10989TIP3    H132920   6.117   6.897   4.512
10989TIP3    H232921   6.244   6.844   4.447
10990TIP3   OH232922   6.157   6.635   4.242
10990TIP3    H132923   6.221   6.687   4.293
10990TIP3    H232924   6.217   6.574   4.194
10991TIP3   OH232925   6.549   6.927   4.495
10991TIP3    H132926   6.497   6.949   4.575
10991TIP3    H232927   6.635   6.901   4.536
10992TIP3   OH232928   5.779   6.925   4.921
10992TIP3    H132929   5.741   6.867   4.852
10992TIP3    H232930   5.855   6.872   4.954
10993TIP3   OH232931   5.890   7.321   5.058
10993TIP3    H132932   5.885   7.305   4.963
10993TIP3    H232933   5.977   7.282   5.080
10994TIP3   OH232934   5.902   6.895   5.265
10994TIP3    H132935   5.941   6.864   5.181
10994TIP3    H232936   5.961   6.971   5.289
10995TIP3   OH232937   6.383   6.787   4.329
10995TIP3    H132938   6.444   6.848   4.377
10995TIP3    H232939   6.410   6.805   4.235
10996TIP3   OH232940   5.769   7.023   5.697
10996TIP3    H132941   5.766   7.079   5.775
10996TIP3    H232942   5.685   6.972   5.709
10997TIP3   OH232943   6.141   7.464   4.608
10997TIP3    H132944   6.223   7.516   4.599
10997TIP3    H232945   6.077   7.522   4.566
10998TIP3   OH232946   6.904   6.024   4.385
10998TIP3    H132947   6.820   6.045   4.433
10998TIP3    H232948   6.916   6.106   4.333
10999TIP3   OH232949   5.651   6.769   4.717
10999TIP3    H132950   5.577   6.810   4.668
10999TIP3    H232951   5.616   6.682   4.737
11000TIP3   OH232952   6.710   7.388   3.933
11000TIP3    H132953   6.715   7.486   3.920
11000TIP3    H232954   6.803   7.363   3.921
11001TIP3   OH232955   5.427   7.153   5.636
11001TIP3    H132956   5.353   7.133   5.574
11001TIP3    H232957   5.458   7.063   5.662
11002TIP3   OH232958   5.276   7.348   5.268
11002TIP3    H132959   5.371   7.364   5.260
11002TIP3    H232960   5.246   7.431   5.310
11003TIP3   OH232961   6.009   7.696   4.408
11003TIP3    H132962   5.972   7.681   4.319
11003TIP3    H232963   5.978   7.787   4.427
11004TIP3   OH232964   5.450   7.558   4.798
11004TIP3    H132965   5.503   7.551   4.880
11004TIP3    H232966   5.394   7.479   4.805
11005TIP3   OH232967   6.210   7.607   4.048
11005TIP3    H132968   6.271   7.539   4.012
11005TIP3    H232969   6.251   7.625   4.136
11006TIP3   OH232970   6.265   7.663   4.320
11006TIP3    H132971   6.176   7.670   4.361
11006TIP3    H232972   6.318   7.641   4.399
11007TIP3   OH232973   5.617   7.344   5.629
11007TIP3    H132974   5.689   7.292   5.669
11007TIP3    H232975   5.543   7.279   5.630
11008TIP3   OH232976   6.034   6.143   5.405
11008TIP3    H132977   5.937   6.141   5.391
11008TIP3    H232978   6.046   6.231   5.445
11009TIP3   OH232979   6.552   6.275   5.601
11009TIP3    H132980   6.606   6.281   5.681
11009TIP3    H232981   6.466   6.244   5.638
11010TIP3   OH232982   6.462   6.817   4.073
11010TIP3    H132983   6.427   6.803   3.983
11010TIP3    H232984   6.546   6.864   4.052
11011TIP3   OH232985   6.170   6.205   4.378
11011TIP3    H132986   6.140   6.202   4.471
11011TIP3    H232987   6.133   6.121   4.345
11012TIP3   OH232988   5.956   6.679   5.421
11012TIP3    H132989   5.907   6.698   5.503
11012TIP3    H232990   5.933   6.757   5.366
11013TIP3   OH232991   5.840   6.560   4.935
11013TIP3    H132992   5.750   6.529   4.958
11013TIP3    H232993   5.852   6.516   4.848
11014TIP3   OH232994   6.332   6.642   4.669
11014TIP3    H132995   6.284   6.713   4.621
11014TIP3    H232996   6.392   6.608   4.599
11015TIP3   OH232997   6.458   6.656   4.918
11015TIP3    H132998   6.402   6.677   4.840
11015TIP3    H232999   6.509   6.583   4.880
11016TIP3   OH233000   5.747   6.683   5.627
11016TIP3    H133001   5.823   6.728   5.668
11016TIP3    H233002   5.739   6.605   5.684
11017TIP3   OH233003   5.825   6.178   4.343
11017TIP3    H133004   5.820   6.177   4.441
11017TIP3    H233005   5.752   6.238   4.322
11018TIP3   OH233006   5.378   6.219   5.213
11018TIP3    H133007   5.446   6.256   5.273
11018TIP3    H233008   5.429   6.192   5.136
11019TIP3   OH233009   5.333   6.200   4.734
11019TIP3    H133010   5.380   6.235   4.656
11019TIP3    H233011   5.274   6.275   4.752
11020TIP3   OH233012   6.176   6.359   4.990
11020TIP3    H133013   6.096   6.365   5.047
11020TIP3    H233014   6.247   6.370   5.056
11021TIP3   OH233015   5.608   6.438   5.005
11021TIP3    H133016   5.514   6.443   4.974
11021TIP3    H233017   5.634   6.346   4.984
11022TIP3   OH233018   5.868   6.428   4.698
11022TIP3    H133019   5.963   6.446   4.681
11022TIP3    H233020   5.825   6.452   4.613
11023TIP3   OH233021   6.640   6.463   5.182
11023TIP3    H133022   6.620   6.473   5.278
11023TIP3    H233023   6.573   6.398   5.158
11024TIP3   OH233024   5.727   6.468   4.469
11024TIP3    H133025   5.658   6.424   4.416
11024TIP3    H233026   5.780   6.510   4.398
11025TIP3   OH233027   6.233   6.674   5.087
11025TIP3    H133028   6.316   6.649   5.041
11025TIP3    H233029   6.262   6.681   5.179
11026TIP3   OH233030   5.766   6.196   4.982
11026TIP3    H133031   5.731   6.121   5.035
11026TIP3    H233032   5.822   6.151   4.919
11027TIP3   OH233033   6.230   6.610   5.428
11027TIP3    H133034   6.138   6.641   5.422
11027TIP3    H233035   6.282   6.692   5.423
11028TIP3   OH233036   5.967   6.995   4.480
11028TIP3    H133037   5.892   6.933   4.466
11028TIP3    H233038   5.946   7.031   4.569
11029TIP3   OH233039   6.424   6.306   4.350
11029TIP3    H133040   6.328   6.288   4.360
11029TIP3    H233041   6.432   6.400   4.376
11030TIP3   OH233042   6.493   6.558   4.451
11030TIP3    H133043   6.589   6.566   4.468
11030TIP3    H233044   6.474   6.640   4.401
11031TIP3   OH233045   5.659   7.018   5.153
11031TIP3    H133046   5.699   6.992   5.067
11031TIP3    H233047   5.715   6.969   5.215
11032TIP3   OH233048   6.116   7.145   4.305
11032TIP3    H133049   6.066   7.231   4.307
11032TIP3    H233050   6.062   7.092   4.367
11033TIP3   OH233051   5.524   6.926   5.765
11033TIP3    H133052   5.526   6.901   5.859
11033TIP3    H233053   5.458   6.864   5.729
11034TIP3   OH233054   6.943   6.650   4.276
11034TIP3    H133055   6.880   6.606   4.214
11034TIP3    H233056   6.938   6.740   4.238
11035TIP3   OH233057   6.616   7.462   4.187
11035TIP3    H133058   6.626   7.387   4.247
11035TIP3    H233059   6.650   7.427   4.102
11036TIP3   OH233060   5.769   7.329   4.785
11036TIP3    H133061   5.767   7.410   4.730
11036TIP3    H233062   5.674   7.313   4.796
11037TIP3   OH233063   5.330   6.626   4.484
11037TIP3    H133064   5.378   6.709   4.507
11037TIP3    H233065   5.254   6.633   4.546
11038TIP3   OH233066   5.889   7.087   4.720
11038TIP3    H133067   5.860   7.178   4.741
11038TIP3    H233068   5.858   7.039   4.799
11039TIP3   OH233069   5.678   7.557   4.634
11039TIP3    H133070   5.594   7.570   4.681
11039TIP3    H233071   5.706   7.651   4.621
11040TIP3   OH233072   6.400   7.191   4.096
11040TIP3    H133073   6.454   7.170   4.175
11040TIP3    H233074   6.311   7.172   4.128
11041TIP3   OH233075   6.735   7.661   3.916
11041TIP3    H133076   6.765   7.710   3.838
11041TIP3    H233077   6.661   7.718   3.947
11042TIP3   OH233078   5.739   6.442   5.784
11042TIP3    H133079   5.644   6.443   5.807
11042TIP3    H233080   5.778   6.394   5.859
11043TIP3   OH233081   6.561   7.134   4.311
11043TIP3    H133082   6.550   7.065   4.380
11043TIP3    H233083   6.657   7.125   4.294
11044TIP3   OH233084   5.480   7.530   5.403
11044TIP3    H133085   5.513   7.451   5.449
11044TIP3    H233086   5.465   7.591   5.476
11045TIP3   OH233087   5.759   7.175   4.095
11045TIP3    H133088   5.774   7.082   4.072
11045TIP3    H233089   5.738   7.169   4.191
11046TIP3   OH233090   5.702   7.180   4.367
11046TIP3    H133091   5.781   7.157   4.418
11046TIP3    H233092   5.703   7.279   4.375
11047TIP3   OH233093   5.433   6.869   4.571
11047TIP3    H133094   5.369   6.918   4.627
11047TIP3    H233095   5.451   6.937   4.503
11048TIP3   OH233096   6.575   6.503   5.441
11048TIP3    H133097   6.614   6.568   5.502
11048TIP3    H233098   6.562   6.426   5.499
11049TIP3   OH233099   6.482   6.255   4.634
11049TIP3    H133100   6.466   6.280   4.541
11049TIP3    H233101   6.519   6.337   4.672
11050TIP3   OH233102   5.971   7.373   4.314
11050TIP3    H133103   5.883   7.399   4.349
11050TIP3    H233104   5.994   7.453   4.265
11051TIP3   OH233105   6.149   6.443   4.728
11051TIP3    H133106   6.214   6.516   4.714
11051TIP3    H233107   6.160   6.427   4.824
11052TIP3   OH233108   6.299   6.153   4.824
11052TIP3    H133109   6.287   6.228   4.886
11052TIP3    H233110   6.367   6.189   4.763
11053TIP3   OH233111   5.717   7.450   4.385
11053TIP3    H133112   5.690   7.523   4.325
11053TIP3    H233113   5.704   7.492   4.473
11054TIP3   OH233114   5.817   6.168   4.618
11054TIP3    H133115   5.814   6.256   4.659
11054TIP3    H233116   5.914   6.150   4.627
11055TIP3   OH233117   6.711   6.797   4.868
11055TIP3    H133118   6.626   6.774   4.908
11055TIP3    H233119   6.757   6.841   4.942
11056TIP3   OH233120   5.434   7.073   4.373
11056TIP3    H133121   5.505   7.140   4.384
11056TIP3    H233122   5.479   7.015   4.307
11057TIP3   OH233123   5.372   6.354   4.512
11057TIP3    H133124   5.385   6.451   4.509
11057TIP3    H233125   5.302   6.341   4.448
11058TIP3   OH233126   5.757   6.080   5.380
11058TIP3    H133127   5.735   6.043   5.292
11058TIP3    H233128   5.753   6.001   5.437
11059TIP3   OH233129   5.290   7.284   4.755
11059TIP3    H133130   5.241   7.321   4.830
11059TIP3    H233131   5.254   7.335   4.679
11060TIP3   OH233132   5.920   7.377   3.998
11060TIP3    H133133   5.869   7.304   4.039
11060TIP3    H233134   5.999   7.330   3.966
11061TIP3   OH233135   6.356   7.413   3.917
11061TIP3    H133136   6.407   7.360   3.981
11061TIP3    H233137   6.412   7.410   3.837
11062TIP3   OH233138   5.571   6.886   4.233
11062TIP3    H133139   5.632   6.864   4.307
11062TIP3    H233140   5.637   6.894   4.160
11063TIP3   OH233141   6.086   7.093   4.037
11063TIP3    H133142   6.089   7.106   4.134
11063TIP3    H233143   6.086   6.995   4.031
11064TIP3   OH233144   5.766   6.804   4.441
11064TIP3    H133145   5.747   6.768   4.529
11064TIP3    H233146   5.810   6.729   4.396
11065TIP3   OH233147   5.972   6.820   5.681
11065TIP3    H133148   5.944   6.914   5.682
11065TIP3    H233149   6.059   6.826   5.633
11066TIP3   OH233150   5.882   6.599   4.287
11066TIP3    H133151   5.858   6.609   4.192
11066TIP3    H233152   5.980   6.600   4.281
11067TIP3   OH233153   6.694   6.919   3.961
11067TIP3    H133154   6.676   6.879   3.874
11067TIP3    H233155   6.663   7.011   3.943
11068TIP3   OH233156   6.071   6.570   5.803
11068TIP3    H133157   6.168   6.555   5.807
11068TIP3    H233158   6.086   6.656   5.758
11069TIP3   OH233159   6.159   6.361   5.540
11069TIP3    H133160   6.195   6.448   5.514
11069TIP3    H233161   6.070   6.385   5.573
11070TIP3   OH233162   6.364   6.854   5.304
11070TIP3    H133163   6.370   6.940   5.260
11070TIP3    H233164   6.453   6.819   5.291
11071TIP3   OH233165   6.304   6.174   5.670
11071TIP3    H133166   6.252   6.242   5.621
11071TIP3    H233167   6.241   6.099   5.666
11072TIP3   OH233168   5.870   6.535   6.087
11072TIP3    H133169   5.894   6.447   6.054
11072TIP3    H233170   5.942   6.554   6.148
11073TIP3   OH233171   6.384   6.194   5.931
11073TIP3    H133172   6.451   6.124   5.917
11073TIP3    H233173   6.341   6.191   5.843
11074TIP3   OH233174   5.688   7.648   4.196
11074TIP3    H133175   5.784   7.640   4.181
11074TIP3    H233176   5.665   7.706   4.121
11075TIP3   OH233177   5.165   7.035   4.406
11075TIP3    H133178   5.260   7.058   4.394
11075TIP3    H233179   5.162   6.944   4.371
11076TIP3   OH233180   5.086   7.647   4.828
11076TIP3    H133181   5.019   7.588   4.787
11076TIP3    H233182   5.130   7.586   4.890
11077TIP3   OH233183   5.219   7.486   5.009
11077TIP3    H133184   5.199   7.425   5.082
11077TIP3    H233185   5.273   7.553   5.057
11078TIP3   OH233186   6.836   7.107   4.281
11078TIP3    H133187   6.895   7.177   4.245
11078TIP3    H233188   6.887   7.078   4.359
11079TIP3   OH233189   6.968   6.987   4.498
11079TIP3    H133190   6.896   6.931   4.533
11079TIP3    H233191   6.981   7.048   4.572
11080TIP3   OH233192   6.900   6.882   4.136
11080TIP3    H133193   6.829   6.884   4.068
11080TIP3    H233194   6.873   6.960   4.190
11081TIP3   OH233195   6.776   6.552   4.087
11081TIP3    H133196   6.726   6.595   4.017
11081TIP3    H233197   6.749   6.459   4.074
11082TIP3   OH233198   6.779   6.826   4.610
11082TIP3    H133199   6.787   6.730   4.594
11082TIP3    H233200   6.759   6.826   4.707
11083TIP3   OH233201   5.397   6.906   5.382
11083TIP3    H133202   5.394   6.869   5.292
11083TIP3    H233203   5.494   6.906   5.399
11084TIP3   OH233204   6.710   6.287   4.068
11084TIP3    H133205   6.775   6.256   4.133
11084TIP3    H233206   6.631   6.233   4.087
11085TIP3   OH233207   6.778   6.552   4.523
11085TIP3    H133208   6.815   6.462   4.539
11085TIP3    H233209   6.836   6.581   4.451
11086TIP3   OH233210   5.608   6.581   6.040
11086TIP3    H133211   5.706   6.584   6.047
11086TIP3    H233212   5.591   6.498   6.088
11087TIP3   OH233213   6.888   6.299   4.564
11087TIP3    H133214   6.932   6.286   4.651
11087TIP3    H233215   6.822   6.227   4.565
11088TIP3   OH233216   5.578   6.290   5.389
11088TIP3    H133217   5.639   6.214   5.399
11088TIP3    H233218   5.642   6.363   5.377
11089TIP3   OH233219   5.378   6.559   5.457
11089TIP3    H133220   5.432   6.558   5.375
11089TIP3    H233221   5.413   6.636   5.503
11090TIP3   OH233222   6.956   6.230   4.205
11090TIP3    H133223   6.996   6.165   4.145
11090TIP3    H233224   7.014   6.307   4.194
11091TIP3   OH233225   5.368   6.051   4.957
11091TIP3    H133226   5.279   6.052   4.995
11091TIP3    H233227   5.361   6.116   4.884
11092TIP3   OH233228   5.586   6.135   5.775
11092TIP3    H133229   5.537   6.141   5.857
11092TIP3    H233230   5.525   6.178   5.712
11093TIP3   OH233231   5.395   7.647   5.157
11093TIP3    H133232   5.421   7.624   5.248
11093TIP3    H233233   5.471   7.607   5.108
11094TIP3   OH233234   5.593   7.517   5.028
11094TIP3    H133235   5.611   7.440   5.086
11094TIP3    H233236   5.681   7.561   5.027
11095TIP3   OH233237   5.852   7.603   5.046
11095TIP3    H133238   5.885   7.513   5.032
11095TIP3    H233239   5.919   7.640   5.105
11096TIP3   OH233240   6.428   6.273   5.114
11096TIP3    H133241   6.388   6.201   5.166
11096TIP3    H233242   6.507   6.229   5.074
11097TIP3   OH233243   6.947   6.139   5.005
11097TIP3    H133244   6.984   6.203   4.940
11097TIP3    H233245   6.862   6.182   5.027
11098TIP3   OH233246   7.061   6.258   4.776
11098TIP3    H133247   7.132   6.199   4.744
11098TIP3    H233248   7.107   6.344   4.769
11099TIP3   OH233249   5.677   5.981   5.129
11099TIP3    H133250   5.585   5.947   5.136
11099TIP3    H233251   5.726   5.896   5.127
11100TIP3   OH233252   5.460   5.856   4.781
11100TIP3    H133253   5.495   5.914   4.711
11100TIP3    H233254   5.436   5.921   4.851
11101TIP3   OH233255   6.122   6.015   5.017
11101TIP3    H133256   6.176   6.062   4.952
11101TIP3    H233257   6.156   6.052   5.101
11102TIP3   OH233258   6.654   6.161   4.999
11102TIP3    H133259   6.672   6.119   4.915
11102TIP3    H233260   6.648   6.082   5.059
11103TIP3   OH233261   6.699   6.092   4.562
11103TIP3    H133262   6.616   6.138   4.586
11103TIP3    H233263   6.683   6.005   4.606
11104TIP3   OH233264   5.180   7.432   4.558
11104TIP3    H133265   5.093   7.403   4.527
11104TIP3    H233266   5.177   7.526   4.530
11105TIP3   OH233267   5.588   6.017   4.537
11105TIP3    H133268   5.637   5.952   4.483
11105TIP3    H233269   5.661   6.070   4.575
11106TIP3   OH233270   6.094   6.191   4.641
11106TIP3    H133271   6.155   6.147   4.702
11106TIP3    H233272   6.112   6.284   4.666
11107TIP3   OH233273   5.955   7.606   4.146
11107TIP3    H133274   6.043   7.629   4.110
11107TIP3    H233275   5.933   7.532   4.084
11108TIP3   OH233276   6.657   7.728   4.259
11108TIP3    H133277   6.642   7.633   4.242
11108TIP3    H233278   6.625   7.767   4.176
11109TIP3   OH233279   5.873   6.251   6.007
11109TIP3    H133280   5.833   6.188   6.069
11109TIP3    H233281   5.967   6.245   6.036
11110TIP3   OH233282   6.114   6.221   6.128
11110TIP3    H133283   6.208   6.211   6.108
11110TIP3    H233284   6.108   6.181   6.217
11111TIP3   OH233285   5.253   7.440   4.194
11111TIP3    H133286   5.264   7.468   4.287
11111TIP3    H233287   5.341   7.400   4.175
11112TIP3   OH233288   7.124   6.735   4.470
11112TIP3    H133289   7.089   6.825   4.484
11112TIP3    H233290   7.062   6.702   4.402
11113TIP3   OH233291   7.018   7.288   4.166
11113TIP3    H133292   6.988   7.303   4.074
11113TIP3    H233293   7.038   7.378   4.193
11114TIP3   OH233294   7.452   7.000   4.160
11114TIP3    H133295   7.367   7.046   4.140
11114TIP3    H233296   7.427   6.938   4.230
11115TIP3   OH233297   7.940   6.477   3.819
11115TIP3    H133298   7.972   6.497   3.908
11115TIP3    H233299   7.905   6.386   3.830
11116TIP3   OH233300   7.614   6.424   3.836
11116TIP3    H133301   7.606   6.421   3.933
11116TIP3    H233302   7.552   6.496   3.814
11117TIP3   OH233303   7.214   6.477   4.707
11117TIP3    H133304   7.227   6.570   4.730
11117TIP3    H233305   7.225   6.478   4.612
11118TIP3   OH233306   7.141   6.458   4.211
11118TIP3    H133307   7.176   6.497   4.128
11118TIP3    H233308   7.080   6.531   4.236
11119TIP3   OH233309   7.415   6.708   4.424
11119TIP3    H133310   7.323   6.709   4.455
11119TIP3    H233311   7.440   6.614   4.424
11120TIP3   OH233312   7.713   6.663   4.155
11120TIP3    H133313   7.727   6.752   4.190
11120TIP3    H233314   7.637   6.679   4.094
11121TIP3   OH233315   7.509   6.690   3.978
11121TIP3    H133316   7.438   6.665   3.917
11121TIP3    H233317   7.565   6.745   3.918
11122TIP3   OH233318   7.538   6.445   4.432
11122TIP3    H133319   7.538   6.384   4.509
11122TIP3    H233320   7.631   6.469   4.424
11123TIP3   OH233321   7.130   6.882   3.979
11123TIP3    H133322   7.173   6.968   4.000
11123TIP3    H233323   7.052   6.887   4.040
11124TIP3   OH233324   7.223   7.128   4.062
11124TIP3    H133325   7.157   7.177   4.114
11124TIP3    H233326   7.244   7.196   3.993
11125TIP3   OH233327   7.613   6.401   4.117
11125TIP3    H133328   7.621   6.495   4.140
11125TIP3    H233329   7.708   6.378   4.113
11126TIP3   OH233330   7.238   7.329   3.866
11126TIP3    H133331   7.286   7.414   3.853
11126TIP3    H233332   7.280   7.276   3.796
11127TIP3   OH233333   7.164   6.609   3.988
11127TIP3    H133334   7.184   6.704   3.995
11127TIP3    H233335   7.083   6.612   3.935
11128TIP3   OH233336   7.369   7.145   3.705
11128TIP3    H133337   7.418   7.107   3.783
11128TIP3    H233338   7.443   7.187   3.658
11129TIP3   OH233339   7.525   7.054   3.904
11129TIP3    H133340   7.503   7.037   3.999
11129TIP3    H233341   7.575   6.974   3.881
11130TIP3   OH233342   7.664   6.831   3.807
11130TIP3    H133343   7.629   6.830   3.715
11130TIP3    H233344   7.757   6.810   3.789
11131TIP3   OH233345   6.965   7.287   3.894
11131TIP3    H133346   7.057   7.318   3.877
11131TIP3    H233347   6.968   7.196   3.858
11132TIP3   OH233348   7.174   6.313   4.437
11132TIP3    H133349   7.092   6.285   4.481
11132TIP3    H233350   7.138   6.368   4.364
11133TIP3   OH233351   7.462   6.224   4.571
11133TIP3    H133352   7.382   6.199   4.624
11133TIP3    H233353   7.520   6.149   4.597
11134TIP3   OH233354   6.970   7.626   4.070
11134TIP3    H133355   6.889   7.640   4.016
11134TIP3    H233356   6.986   7.714   4.104
11135TIP3   OH233357   7.887   6.435   4.129
11135TIP3    H133358   7.945   6.422   4.204
11135TIP3    H233359   7.854   6.526   4.141
11136TIP3   OH233360   1.151   7.070   5.547
11136TIP3    H133361   1.074   7.095   5.602
11136TIP3    H233362   1.172   7.156   5.503
11137TIP3   OH233363   1.182   7.668   5.469
11137TIP3    H133364   1.117   7.646   5.399
11137TIP3    H233365   1.229   7.745   5.431
11138TIP3   OH233366   1.021   7.583   5.257
11138TIP3    H133367   1.038   7.637   5.178
11138TIP3    H233368   0.953   7.524   5.222
11139TIP3   OH233369   0.956   7.251   5.288
11139TIP3    H133370   1.053   7.264   5.300
11139TIP3    H233371   0.924   7.322   5.345
11140TIP3   OH233372   1.080   7.617   5.734
11140TIP3    H133373   1.085   7.520   5.729
11140TIP3    H233374   1.104   7.641   5.642
11141TIP3   OH233375   1.127   7.340   5.721
11141TIP3    H133376   1.178   7.312   5.800
11141TIP3    H233377   1.053   7.276   5.723
11142TIP3   OH233378   1.214   7.281   5.371
11142TIP3    H133379   1.268   7.212   5.328
11142TIP3    H233380   1.276   7.356   5.374
11143TIP3   OH233381   1.304   7.279   5.924
11143TIP3    H133382   1.370   7.214   5.891
11143TIP3    H233383   1.355   7.362   5.910
11144TIP3   OH233384   0.941   7.129   5.712
11144TIP3    H133385   0.845   7.131   5.690
11144TIP3    H233386   0.940   7.056   5.777
11145TIP3   OH233387   3.232   7.841   5.799
11145TIP3    H133388   3.259   7.924   5.843
11145TIP3    H233389   3.243   7.864   5.705
11146TIP3   OH233390   2.647   8.045   5.785
11146TIP3    H133391   2.679   7.977   5.846
11146TIP3    H233392   2.589   7.993   5.727
11147TIP3   OH233393   1.992   7.662   5.797
11147TIP3    H133394   1.959   7.742   5.752
11147TIP3    H233395   1.925   7.599   5.766
11148TIP3   OH233396   2.664   7.763   5.416
11148TIP3    H133397   2.735   7.756   5.483
11148TIP3    H233398   2.711   7.809   5.345
11149TIP3   OH233399   3.306   8.051   5.969
11149TIP3    H133400   3.228   8.104   5.945
11149TIP3    H233401   3.344   8.105   6.042
11150TIP3   OH233402   2.867   7.781   5.598
11150TIP3    H133403   2.824   7.756   5.682
11150TIP3    H233404   2.910   7.865   5.623
11151TIP3   OH233405   3.015   7.723   5.941
11151TIP3    H133406   2.927   7.747   5.907
11151TIP3    H233407   3.075   7.763   5.876
11152TIP3   OH233408   2.311   7.376   5.942
11152TIP3    H133409   2.290   7.283   5.958
11152TIP3    H233410   2.245   7.420   5.999
11153TIP3   OH233411   2.210   7.931   4.950
11153TIP3    H133412   2.157   7.918   5.029
11153TIP3    H233413   2.160   7.881   4.884
11154TIP3   OH233414   2.953   7.329   5.041
11154TIP3    H133415   2.869   7.349   5.088
11154TIP3    H233416   2.975   7.414   5.000
11155TIP3   OH233417   2.079   7.474   6.072
11155TIP3    H133418   1.990   7.435   6.058
11155TIP3    H233419   2.072   7.553   6.017
11156TIP3   OH233420   2.634   7.571   6.263
11156TIP3    H133421   2.712   7.544   6.315
11156TIP3    H233422   2.563   7.559   6.329
11157TIP3   OH233423   2.216   7.505   5.043
11157TIP3    H133424   2.184   7.498   5.136
11157TIP3    H233425   2.178   7.422   5.008
11158TIP3   OH233426   1.870   7.823   5.604
11158TIP3    H133427   1.776   7.797   5.593
11158TIP3    H233428   1.905   7.793   5.518
11159TIP3   OH233429   2.369   7.916   5.324
11159TIP3    H133430   2.306   7.986   5.301
11159TIP3    H233431   2.434   7.921   5.251
11160TIP3   OH233432   2.514   7.945   5.570
11160TIP3    H133433   2.481   7.989   5.489
11160TIP3    H233434   2.554   7.866   5.527
11161TIP3   OH233435   1.867   7.478   5.008
11161TIP3    H133436   1.862   7.477   5.106
11161TIP3    H233437   1.788   7.529   4.984
11162TIP3   OH233438   1.442   7.512   5.882
11162TIP3    H133439   1.513   7.577   5.897
11162TIP3    H233440   1.458   7.486   5.789
11163TIP3   OH233441   1.386   7.492   5.390
11163TIP3    H133442   1.450   7.534   5.329
11163TIP3    H233443   1.330   7.567   5.417
11164TIP3   OH233444   2.234   7.668   5.663
11164TIP3    H133445   2.151   7.660   5.715
11164TIP3    H233446   2.281   7.736   5.715
11165TIP3   OH233447   1.620   7.710   5.621
11165TIP3    H133448   1.601   7.726   5.715
11165TIP3    H233449   1.679   7.632   5.625
11166TIP3   OH233450   1.926   7.731   5.351
11166TIP3    H133451   2.022   7.750   5.350
11166TIP3    H233452   1.888   7.807   5.304
11167TIP3   OH233453   2.718   7.757   5.851
11167TIP3    H133454   2.694   7.773   5.946
11167TIP3    H233455   2.642   7.700   5.827
11168TIP3   OH233456   1.704   7.729   5.158
11168TIP3    H133457   1.635   7.700   5.097
11168TIP3    H233458   1.785   7.716   5.107
11169TIP3   OH233459   2.318   7.939   5.760
11169TIP3    H133460   2.392   7.945   5.697
11169TIP3    H233461   2.340   8.009   5.825
11170TIP3   OH233462   1.805   7.506   5.657
11170TIP3    H133463   1.772   7.426   5.704
11170TIP3    H233464   1.854   7.466   5.583
11171TIP3   OH233465   2.467   7.606   5.018
11171TIP3    H133466   2.371   7.588   5.023
11171TIP3    H233467   2.473   7.701   5.039
11172TIP3   OH233468   2.548   7.862   5.104
11172TIP3    H133469   2.641   7.864   5.134
11172TIP3    H233470   2.551   7.912   5.021
11173TIP3   OH233471   2.651   7.803   6.110
11173TIP3    H133472   2.683   7.868   6.175
11173TIP3    H233473   2.638   7.723   6.165
11174TIP3   OH233474   2.525   7.552   5.297
11174TIP3    H133475   2.506   7.577   5.204
11174TIP3    H233476   2.561   7.636   5.334
11175TIP3   OH233477   2.192   7.728   5.399
11175TIP3    H133478   2.259   7.796   5.376
11175TIP3    H233479   2.205   7.722   5.497
11176TIP3   OH233480   2.338   7.461   5.495
11176TIP3    H133481   2.317   7.540   5.550
11176TIP3    H233482   2.405   7.499   5.434
11177TIP3   OH233483   1.861   7.469   5.282
11177TIP3    H133484   1.861   7.563   5.312
11177TIP3    H233485   1.956   7.448   5.295
11178TIP3   OH233486   3.098   7.943   6.174
11178TIP3    H133487   3.022   8.000   6.154
11178TIP3    H233488   3.121   7.912   6.086
11179TIP3   OH233489   2.771   8.109   5.538
11179TIP3    H133490   2.705   8.087   5.608
11179TIP3    H233491   2.851   8.107   5.595
11180TIP3   OH233492   1.414   7.653   5.142
11180TIP3    H133493   1.432   7.727   5.203
11180TIP3    H233494   1.320   7.642   5.154
11181TIP3   OH233495   1.833   7.367   6.039
11181TIP3    H133496   1.786   7.352   5.955
11181TIP3    H233497   1.802   7.292   6.093
11182TIP3   OH233498   2.350   7.474   6.281
11182TIP3    H133499   2.319   7.553   6.327
11182TIP3    H233500   2.277   7.412   6.292
11183TIP3   OH233501   2.827   7.866   4.767
11183TIP3    H133502   2.824   7.874   4.671
11183TIP3    H233503   2.791   7.776   4.778
11184TIP3   OH233504   2.902   8.097   5.292
11184TIP3    H133505   2.876   8.003   5.291
11184TIP3    H233506   2.880   8.120   5.385
11185TIP3   OH233507   2.763   7.592   4.797
11185TIP3    H133508   2.814   7.511   4.810
11185TIP3    H233509   2.684   7.559   4.752
11186TIP3   OH233510   2.819   7.842   5.196
11186TIP3    H133511   2.859   7.754   5.215
11186TIP3    H233512   2.858   7.860   5.109
11187TIP3   OH233513   2.983   8.019   5.692
11187TIP3    H133514   3.070   8.049   5.657
11187TIP3    H233515   2.986   8.061   5.780
11188TIP3   OH233516   3.036   8.161   5.928
11188TIP3    H133517   2.961   8.200   5.975
11188TIP3    H233518   3.092   8.240   5.913
11189TIP3   OH233519   3.493   7.738   6.474
11189TIP3    H133520   3.557   7.692   6.415
11189TIP3    H233521   3.471   7.818   6.423
11190TIP3   OH233522   2.936   7.597   5.229
11190TIP3    H133523   2.977   7.582   5.316
11190TIP3    H233524   2.870   7.525   5.227
11191TIP3   OH233525   3.352   7.899   6.276
11191TIP3    H133526   3.266   7.938   6.254
11191TIP3    H233527   3.343   7.814   6.230
11192TIP3   OH233528   3.051   7.534   4.846
11192TIP3    H133529   3.078   7.473   4.776
11192TIP3    H233530   3.008   7.604   4.794
11193TIP3   OH233531   1.404   7.374   5.633
11193TIP3    H133532   1.308   7.364   5.646
11193TIP3    H233533   1.407   7.426   5.550
11194TIP3   OH233534   3.276   7.658   6.162
11194TIP3    H133535   3.186   7.655   6.126
11194TIP3    H233536   3.306   7.565   6.150
11195TIP3   OH233537   2.502   7.581   5.804
11195TIP3    H133538   2.436   7.517   5.837
11195TIP3    H233539   2.558   7.527   5.746
11196TIP3   OH233540   2.992   7.445   5.673
11196TIP3    H133541   3.028   7.507   5.606
11196TIP3    H233542   2.898   7.474   5.677
11197TIP3   OH233543   3.095   7.566   5.449
11197TIP3    H133544   3.171   7.515   5.415
11197TIP3    H233545   3.126   7.658   5.436
11198TIP3   OH233546   1.720   7.284   5.793
11198TIP3    H133547   1.631   7.242   5.795
11198TIP3    H233548   1.775   7.203   5.792
11199TIP3   OH233549   1.491   7.163   5.437
11199TIP3    H133550   1.534   7.215   5.367
11199TIP3    H233551   1.481   7.229   5.508
11200TIP3   OH233552   2.173   7.316   5.679
11200TIP3    H133553   2.226   7.362   5.612
11200TIP3    H233554   2.199   7.361   5.760
11201TIP3   OH233555   2.712   7.461   5.653
11201TIP3    H133556   2.698   7.423   5.566
11201TIP3    H233557   2.696   7.384   5.712
11202TIP3   OH233558   2.746   7.395   5.223
11202TIP3    H133559   2.662   7.442   5.245
11202TIP3    H233560   2.727   7.308   5.263
11203TIP3   OH233561   1.632   7.315   5.207
11203TIP3    H133562   1.679   7.252   5.150
11203TIP3    H233563   1.706   7.367   5.243
11204TIP3   OH233564   2.137   7.480   5.306
11204TIP3    H133565   2.202   7.440   5.366
11204TIP3    H233566   2.149   7.574   5.332
11205TIP3   OH233567   3.016   7.595   6.603
11205TIP3    H133568   3.039   7.536   6.677
11205TIP3    H233569   3.103   7.605   6.559
11206TIP3   OH233570   3.151   8.052   5.115
11206TIP3    H133571   3.124   8.145   5.122
11206TIP3    H233572   3.107   8.017   5.195
11207TIP3   OH233573   5.024   8.115   5.274
11207TIP3    H133574   5.011   8.210   5.267
11207TIP3    H233575   5.066   8.097   5.188
11208TIP3   OH233576   4.444   8.294   5.276
11208TIP3    H133577   4.482   8.221   5.329
11208TIP3    H233578   4.389   8.244   5.213
11209TIP3   OH233579   3.764   7.936   5.280
11209TIP3    H133580   3.742   8.003   5.212
11209TIP3    H233581   3.721   7.858   5.243
11210TIP3   OH233582   4.461   8.023   4.896
11210TIP3    H133583   4.532   8.015   4.965
11210TIP3    H233584   4.511   8.066   4.825
11211TIP3   OH233585   3.387   8.111   5.379
11211TIP3    H133586   3.461   8.111   5.442
11211TIP3    H233587   3.431   8.145   5.300
11212TIP3   OH233588   3.756   7.918   5.712
11212TIP3    H133589   3.700   7.960   5.643
11212TIP3    H233590   3.699   7.933   5.791
11213TIP3   OH233591   4.659   8.038   5.084
11213TIP3    H133592   4.631   8.008   5.172
11213TIP3    H233593   4.707   8.121   5.106
11214TIP3   OH233594   3.633   8.040   5.499
11214TIP3    H133595   3.689   8.118   5.518
11214TIP3    H233596   3.684   8.000   5.425
11215TIP3   OH233597   4.808   7.977   5.431
11215TIP3    H133598   4.724   8.021   5.410
11215TIP3    H233599   4.873   8.030   5.381
11216TIP3   OH233600   4.104   7.632   5.427
11216TIP3    H133601   4.087   7.538   5.450
11216TIP3    H233602   4.029   7.675   5.475
11217TIP3   OH233603   4.009   8.187   4.439
11217TIP3    H133604   3.962   8.163   4.519
11217TIP3    H233605   3.958   8.139   4.371
11218TIP3   OH233606   4.743   7.577   4.532
11218TIP3    H133607   4.662   7.605   4.580
11218TIP3    H233608   4.764   7.659   4.483
11219TIP3   OH233609   3.872   7.714   5.562
11219TIP3    H133610   3.784   7.684   5.531
11219TIP3    H233611   3.846   7.795   5.611
11220TIP3   OH233612   4.407   7.830   5.751
11220TIP3    H133613   4.475   7.801   5.815
11220TIP3    H233614   4.323   7.809   5.798
11221TIP3   OH233615   4.644   8.208   5.678
11221TIP3    H133616   4.609   8.207   5.770
11221TIP3    H233617   4.641   8.302   5.654
11222TIP3   OH233618   4.017   7.761   4.532
11222TIP3    H133619   3.982   7.753   4.623
11222TIP3    H233620   3.977   7.680   4.493
11223TIP3   OH233621   3.799   8.252   5.572
11223TIP3    H133622   3.747   8.266   5.655
11223TIP3    H233623   3.798   8.340   5.531
11224TIP3   OH233624   3.658   8.082   5.077
11224TIP3    H133625   3.572   8.037   5.069
11224TIP3    H233626   3.698   8.061   4.990
11225TIP3   OH233627   4.163   8.168   4.804
11225TIP3    H133628   4.111   8.246   4.781
11225TIP3    H233629   4.233   8.167   4.737
11226TIP3   OH233630   4.306   8.192   5.064
11226TIP3    H133631   4.274   8.242   4.988
11226TIP3    H233632   4.349   8.119   5.017
11227TIP3   OH233633   3.660   8.253   5.813
11227TIP3    H133634   3.628   8.303   5.888
11227TIP3    H233635   3.640   8.162   5.841
11228TIP3   OH233636   3.667   7.734   4.496
11228TIP3    H133637   3.661   7.732   4.594
11228TIP3    H233638   3.588   7.785   4.473
11229TIP3   OH233639   3.217   7.793   5.349
11229TIP3    H133640   3.287   7.819   5.414
11229TIP3    H233641   3.267   7.749   5.279
11230TIP3   OH233642   4.023   7.923   5.155
11230TIP3    H133643   3.948   7.934   5.217
11230TIP3    H233644   4.098   7.945   5.212
11231TIP3   OH233645   3.419   7.948   5.102
11231TIP3    H133646   3.360   7.950   5.180
11231TIP3    H233647   3.479   7.873   5.124
11232TIP3   OH233648   3.723   8.003   4.821
11232TIP3    H133649   3.820   7.995   4.837
11232TIP3    H233650   3.717   8.094   4.788
11233TIP3   OH233651   4.503   8.020   5.351
11233TIP3    H133652   4.468   8.032   5.442
11233TIP3    H233653   4.436   7.960   5.315
11234TIP3   OH233654   3.462   7.959   4.662
11234TIP3    H133655   3.435   7.950   4.569
11234TIP3    H233656   3.557   7.974   4.650
11235TIP3   OH233657   4.105   8.238   5.250
11235TIP3    H133658   4.187   8.223   5.200
11235TIP3    H233659   4.132   8.233   5.342
11236TIP3   OH233660   3.605   7.755   5.138
11236TIP3    H133661   3.573   7.676   5.188
11236TIP3    H233662   3.652   7.712   5.064
11237TIP3   OH233663   4.066   8.157   5.553
11237TIP3    H133664   3.981   8.203   5.537
11237TIP3    H233665   4.121   8.226   5.596
11238TIP3   OH233666   4.266   7.865   4.502
11238TIP3    H133667   4.170   7.846   4.510
11238TIP3    H233668   4.273   7.960   4.526
11239TIP3   OH233669   4.352   8.119   4.593
11239TIP3    H133670   4.446   8.120   4.618
11239TIP3    H233671   4.351   8.171   4.511
11240TIP3   OH233672   4.778   8.199   4.450
11240TIP3    H133673   4.711   8.168   4.384
11240TIP3    H233674   4.826   8.264   4.394
11241TIP3   OH233675   3.590   7.998   5.920
11241TIP3    H133676   3.493   8.000   5.935
11241TIP3    H233677   3.620   7.951   5.999
11242TIP3   OH233678   4.418   8.072   5.609
11242TIP3    H133679   4.505   8.107   5.635
11242TIP3    H233680   4.412   7.989   5.663
11243TIP3   OH233681   4.319   7.811   4.784
11243TIP3    H133682   4.304   7.836   4.691
11243TIP3    H233683   4.360   7.893   4.821
11244TIP3   OH233684   3.982   7.987   4.892
11244TIP3    H133685   4.049   8.054   4.865
11244TIP3    H233686   4.000   7.982   4.989
11245TIP3   OH233687   4.249   8.295   5.705
11245TIP3    H133688   4.310   8.341   5.765
11245TIP3    H233689   4.305   8.225   5.667
11246TIP3   OH233690   4.142   7.713   4.978
11246TIP3    H133691   4.130   7.790   5.037
11246TIP3    H233692   4.206   7.748   4.913
11247TIP3   OH233693   3.661   7.727   4.774
11247TIP3    H133694   3.667   7.822   4.797
11247TIP3    H233695   3.755   7.702   4.783
11248TIP3   OH233696   4.913   8.209   5.598
11248TIP3    H133697   4.824   8.185   5.630
11248TIP3    H233698   4.956   8.122   5.592
11249TIP3   OH233699   4.558   8.370   5.033
11249TIP3    H133700   4.502   8.349   5.111
11249TIP3    H233701   4.644   8.370   5.079
11250TIP3   OH233702   3.610   7.631   5.527
11250TIP3    H133703   3.579   7.595   5.442
11250TIP3    H233704   3.599   7.555   5.587
11251TIP3   OH233705   4.010   8.208   5.934
11251TIP3    H133706   4.017   8.113   5.914
11251TIP3    H233707   4.002   8.243   5.845
11252TIP3   OH233708   4.015   7.987   5.766
11252TIP3    H133709   4.043   8.036   5.685
11252TIP3    H233710   3.921   7.970   5.745
11253TIP3   OH233711   3.887   8.307   6.166
11253TIP3    H133712   3.813   8.244   6.172
11253TIP3    H233713   3.921   8.289   6.075
11254TIP3   OH233714   4.145   7.754   5.827
11254TIP3    H133715   4.096   7.836   5.804
11254TIP3    H233716   4.075   7.686   5.818
11255TIP3   OH233717   4.270   8.249   6.038
11255TIP3    H133718   4.250   8.229   6.131
11255TIP3    H233719   4.181   8.237   6.000
11256TIP3   OH233720   4.524   8.161   5.927
11256TIP3    H133721   4.432   8.149   5.958
11256TIP3    H233722   4.571   8.153   6.013
11257TIP3   OH233723   3.716   8.090   6.215
11257TIP3    H133724   3.724   7.994   6.199
11257TIP3    H233725   3.746   8.096   6.308
11258TIP3   OH233726   4.229   7.760   6.084
11258TIP3    H133727   4.297   7.692   6.074
11258TIP3    H233728   4.190   7.760   5.994
11259TIP3   OH233729   4.287   7.961   6.258
11259TIP3    H133730   4.272   7.895   6.186
11259TIP3    H233731   4.216   8.026   6.241
11260TIP3   OH233732   4.626   8.106   4.247
11260TIP3    H133733   4.615   8.137   4.156
11260TIP3    H233734   4.588   8.017   4.239
11261TIP3   OH233735   4.682   8.365   4.781
11261TIP3    H133736   4.682   8.268   4.776
11261TIP3    H233737   4.664   8.380   4.875
11262TIP3   OH233738   4.571   7.827   4.226
11262TIP3    H133739   4.639   7.807   4.292
11262TIP3    H233740   4.491   7.784   4.259
11263TIP3   OH233741   4.623   8.104   4.674
11263TIP3    H133742   4.663   8.015   4.689
11263TIP3    H233743   4.678   8.134   4.599
11264TIP3   OH233744   4.774   8.282   5.179
11264TIP3    H133745   4.861   8.313   5.145
11264TIP3    H233746   4.765   8.335   5.260
11265TIP3   OH233747   3.447   8.148   6.185
11265TIP3    H133748   3.545   8.148   6.193
11265TIP3    H233749   3.425   8.066   6.234
11266TIP3   OH233750   4.728   7.855   4.715
11266TIP3    H133751   4.774   7.840   4.801
11266TIP3    H233752   4.663   7.782   4.716
11267TIP3   OH233753   3.423   7.837   5.528
11267TIP3    H133754   3.489   7.766   5.543
11267TIP3    H233755   3.480   7.915   5.526
11268TIP3   OH233756   3.224   8.125   5.617
11268TIP3    H133757   3.267   8.119   5.529
11268TIP3    H233758   3.235   8.219   5.638
11269TIP3   OH233759   4.806   7.784   4.364
11269TIP3    H133760   4.844   7.719   4.301
11269TIP3    H233761   4.870   7.858   4.358
11270TIP3   OH233762   3.174   7.646   5.074
11270TIP3    H133763   3.108   7.640   5.146
11270TIP3    H233764   3.121   7.616   4.998
11271TIP3   OH233765   3.430   7.694   5.923
11271TIP3    H133766   3.381   7.693   6.007
11271TIP3    H233767   3.364   7.737   5.864
11272TIP3   OH233768   5.053   7.911   5.624
11272TIP3    H133769   4.962   7.880   5.621
11272TIP3    H233770   5.101   7.825   5.627
11273TIP3   OH233771   4.278   7.835   5.273
11273TIP3    H133772   4.231   7.762   5.316
11273TIP3    H233773   4.352   7.789   5.227
11274TIP3   OH233774   4.788   7.707   5.165
11274TIP3    H133775   4.825   7.764   5.094
11274TIP3    H233776   4.696   7.739   5.169
11275TIP3   OH233777   4.888   7.811   4.933
11275TIP3    H133778   4.964   7.760   4.897
11275TIP3    H233779   4.922   7.903   4.920
11276TIP3   OH233780   3.517   7.538   5.279
11276TIP3    H133781   3.427   7.501   5.288
11276TIP3    H233782   3.569   7.455   5.275
11277TIP3   OH233783   3.323   7.399   4.934
11277TIP3    H133784   3.353   7.445   4.853
11277TIP3    H233785   3.287   7.473   4.986
11278TIP3   OH233786   3.966   7.574   5.169
11278TIP3    H133787   4.017   7.621   5.101
11278TIP3    H233788   4.003   7.612   5.250
11279TIP3   OH233789   4.501   7.722   5.148
11279TIP3    H133790   4.508   7.683   5.061
11279TIP3    H233791   4.493   7.642   5.205
11280TIP3   OH233792   4.539   7.650   4.711
11280TIP3    H133793   4.456   7.697   4.734
11280TIP3    H233794   4.523   7.563   4.754
11281TIP3   OH233795   3.423   7.573   4.716
11281TIP3    H133796   3.463   7.513   4.650
11281TIP3    H233797   3.501   7.626   4.742
11282TIP3   OH233798   3.935   7.739   4.795
11282TIP3    H133799   3.999   7.694   4.852
11282TIP3    H233800   3.952   7.832   4.822
11283TIP3   OH233801   3.726   7.813   6.171
11283TIP3    H133802   3.692   7.741   6.227
11283TIP3    H233803   3.820   7.814   6.200
11284TIP3   OH233804   3.976   7.815   6.289
11284TIP3    H133805   4.065   7.801   6.252
11284TIP3    H233806   3.969   7.740   6.350
11285TIP3   OH233807   4.973   8.322   4.609
11285TIP3    H133808   4.932   8.395   4.656
11285TIP3    H233809   4.895   8.274   4.575
11286TIP3   OH233810   5.519   8.194   4.781
11286TIP3    H133811   5.500   8.271   4.726
11286TIP3    H233812   5.467   8.125   4.735
11287TIP3   OH233813   5.222   8.365   4.899
11287TIP3    H133814   5.292   8.430   4.884
11287TIP3    H233815   5.212   8.326   4.811
11288TIP3   OH233816   5.873   7.853   4.840
11288TIP3    H133817   5.890   7.802   4.921
11288TIP3    H233818   5.840   7.937   4.878
11289TIP3   OH233819   5.797   8.447   3.927
11289TIP3    H133820   5.748   8.433   4.008
11289TIP3    H233821   5.741   8.403   3.860
11290TIP3   OH233822   6.540   7.837   4.018
11290TIP3    H133823   6.457   7.846   4.071
11290TIP3    H233824   6.552   7.928   3.990
11291TIP3   OH233825   5.643   7.919   5.135
11291TIP3    H133826   5.555   7.886   5.109
11291TIP3    H233827   5.644   8.003   5.087
11292TIP3   OH233828   5.804   8.021   4.014
11292TIP3    H133829   5.770   8.016   4.105
11292TIP3    H233830   5.773   7.935   3.980
11293TIP3   OH233831   5.468   8.356   4.568
11293TIP3    H133832   5.377   8.320   4.577
11293TIP3    H233833   5.496   8.314   4.484
11294TIP3   OH233834   5.461   7.994   3.980
11294TIP3    H133835   5.453   7.990   4.078
11294TIP3    H233836   5.378   8.038   3.954
11295TIP3   OH233837   5.014   8.035   4.850
11295TIP3    H133838   5.081   8.069   4.912
11295TIP3    H233839   5.066   8.005   4.774
11296TIP3   OH233840   4.976   8.008   4.364
11296TIP3    H133841   5.028   8.044   4.290
11296TIP3    H233842   4.920   8.084   4.388
11297TIP3   OH233843   5.771   8.145   4.681
11297TIP3    H133844   5.679   8.171   4.702
11297TIP3    H233845   5.795   8.107   4.767
11298TIP3   OH233846   5.231   8.249   4.637
11298TIP3    H133847   5.135   8.258   4.615
11298TIP3    H233848   5.251   8.156   4.615
11299TIP3   OH233849   5.520   8.241   4.331
11299TIP3    H133850   5.613   8.271   4.320
11299TIP3    H233851   5.470   8.293   4.265
11300TIP3   OH233852   5.317   8.252   4.134
11300TIP3    H133853   5.231   8.224   4.099
11300TIP3    H233854   5.378   8.209   4.072
11301TIP3   OH233855   5.395   8.011   4.615
11301TIP3    H133856   5.365   7.932   4.666
11301TIP3    H233857   5.465   7.971   4.561
11302TIP3   OH233858   6.057   8.115   3.976
11302TIP3    H133859   5.960   8.103   3.991
11302TIP3    H233860   6.075   8.205   4.010
11303TIP3   OH233861   6.155   8.347   4.087
11303TIP3    H133862   6.240   8.385   4.111
11303TIP3    H233863   6.127   8.406   4.014
11304TIP3   OH233864   6.118   8.082   4.253
11304TIP3    H133865   6.107   8.081   4.157
11304TIP3    H233866   6.155   8.171   4.266
11305TIP3   OH233867   5.794   8.260   4.364
11305TIP3    H133868   5.865   8.322   4.340
11305TIP3    H233869   5.817   8.244   4.457
11306TIP3   OH233870   5.946   7.964   4.436
11306TIP3    H133871   5.994   7.988   4.518
11306TIP3    H233872   6.004   8.009   4.370
11307TIP3   OH233873   5.447   7.982   4.253
11307TIP3    H133874   5.447   8.071   4.293
11307TIP3    H233875   5.542   7.961   4.265
11308TIP3   OH233876   5.017   8.166   4.132
11308TIP3    H133877   5.005   8.245   4.188
11308TIP3    H233878   4.926   8.148   4.105
11309TIP3   OH233879   5.381   7.887   5.018
11309TIP3    H133880   5.365   7.857   4.926
11309TIP3    H233881   5.368   7.804   5.069
11310TIP3   OH233882   6.338   8.114   3.727
11310TIP3    H133883   6.404   8.049   3.748
11310TIP3    H233884   6.256   8.062   3.724
11311TIP3   OH233885   5.204   8.102   5.041
11311TIP3    H133886   5.276   8.034   5.040
11311TIP3    H233887   5.248   8.179   5.002
11312TIP3   OH233888   5.021   8.382   5.113
11312TIP3    H133889   5.086   8.367   5.042
11312TIP3    H233890   5.029   8.478   5.125
11313TIP3   OH233891   5.005   7.868   4.595
11313TIP3    H133892   4.914   7.866   4.629
11313TIP3    H233893   4.998   7.928   4.519
11314TIP3   OH233894   5.202   7.932   5.385
11314TIP3    H133895   5.172   7.931   5.478
11314TIP3    H233896   5.132   7.986   5.344
11315TIP3   OH233897   5.312   7.796   4.760
11315TIP3    H133898   5.220   7.760   4.767
11315TIP3    H233899   5.363   7.712   4.757
11316TIP3   OH233900   5.106   7.669   4.420
11316TIP3    H133901   5.134   7.727   4.348
11316TIP3    H233902   5.077   7.734   4.488
11317TIP3   OH233903   5.733   7.823   4.611
11317TIP3    H133904   5.772   7.896   4.561
11317TIP3    H233905   5.784   7.829   4.694
11318TIP3   OH233906   6.322   7.887   4.177
11318TIP3    H133907   6.260   7.948   4.221
11318TIP3    H233908   6.313   7.808   4.235
11319TIP3   OH233909   5.222   7.826   4.179
11319TIP3    H133910   5.271   7.763   4.123
11319TIP3    H233911   5.296   7.878   4.218
11320TIP3   OH233912   5.723   8.008   4.276
11320TIP3    H133913   5.793   7.969   4.331
11320TIP3    H233914   5.735   8.103   4.301
11321TIP3   OH233915   4.725   2.161   7.769
11321TIP3    H133916   4.757   2.253   7.756
11321TIP3    H233917   4.630   2.177   7.782
11322TIP3   OH233918   5.941   2.246   7.896
11322TIP3    H133919   5.908   2.198   7.975
11322TIP3    H233920   5.861   2.292   7.867
11323TIP3   OH233921   6.422   2.149   7.269
11323TIP3    H133922   6.408   2.246   7.264
11323TIP3    H233923   6.473   2.133   7.189
11324TIP3   OH233924   5.751   2.457   7.777
11324TIP3    H133925   5.697   2.442   7.698
11324TIP3    H233926   5.714   2.540   7.813
11325TIP3   OH233927   5.949   2.366   7.423
11325TIP3    H133928   6.007   2.294   7.389
11325TIP3    H233929   5.985   2.381   7.512
11326TIP3   OH233930   6.002   2.424   7.687
11326TIP3    H133931   5.910   2.448   7.714
11326TIP3    H233932   6.023   2.364   7.761
11327TIP3   OH233933   5.654   1.833   7.860
11327TIP3    H133934   5.629   1.741   7.843
11327TIP3    H233935   5.717   1.824   7.934
11328TIP3   OH233936   5.861   1.894   7.692
11328TIP3    H133937   5.824   1.985   7.684
11328TIP3    H233938   5.793   1.859   7.753
11329TIP3   OH233939   6.114   1.939   7.447
11329TIP3    H133940   6.130   1.917   7.540
11329TIP3    H233941   6.024   1.902   7.435
11330TIP3   OH233942   6.440   2.421   7.280
11330TIP3    H133943   6.508   2.488   7.261
11330TIP3    H233944   6.363   2.481   7.292
11331TIP3   OH233945   5.506   1.916   7.469
11331TIP3    H133946   5.508   1.821   7.448
11331TIP3    H233947   5.475   1.915   7.562
11332TIP3   OH233948   5.431   1.933   7.731
11332TIP3    H133949   5.508   1.900   7.782
11332TIP3    H233950   5.436   2.030   7.748
11333TIP3   OH233951   5.721   2.126   7.686
11333TIP3    H133952   5.631   2.134   7.724
11333TIP3    H233953   5.722   2.205   7.629
11334TIP3   OH233954   5.461   2.203   7.754
11334TIP3    H133955   5.437   2.265   7.681
11334TIP3    H233956   5.415   2.244   7.828
11335TIP3   OH233957   5.168   1.825   7.745
11335TIP3    H133958   5.240   1.890   7.759
11335TIP3    H233959   5.216   1.762   7.688
11336TIP3   OH233960   5.660   2.123   7.377
11336TIP3    H133961   5.608   2.048   7.415
11336TIP3    H233962   5.734   2.076   7.335
11337TIP3   OH233963   6.092   2.170   7.298
11337TIP3    H133964   6.127   2.095   7.351
11337TIP3    H233965   6.142   2.162   7.214
11338TIP3   OH233966   5.308   1.642   7.603
11338TIP3    H133967   5.368   1.630   7.680
11338TIP3    H233968   5.377   1.645   7.532
11339TIP3   OH233969   5.862   1.840   7.418
11339TIP3    H133970   5.831   1.847   7.511
11339TIP3    H233971   5.858   1.742   7.405
11340TIP3   OH233972   5.506   1.598   7.783
11340TIP3    H133973   5.503   1.564   7.873
11340TIP3    H233974   5.583   1.551   7.747
11341TIP3   OH233975   5.617   1.345   7.676
11341TIP3    H133976   5.589   1.358   7.582
11341TIP3    H233977   5.713   1.354   7.670
11342TIP3   OH233978   5.428   2.401   7.571
11342TIP3    H133979   5.522   2.393   7.547
11342TIP3    H233980   5.397   2.454   7.495
11343TIP3   OH233981   4.906   1.819   7.676
11343TIP3    H133982   4.999   1.833   7.707
11343TIP3    H233983   4.902   1.722   7.674
11344TIP3   OH233984   5.691   2.354   7.516
11344TIP3    H133985   5.778   2.379   7.479
11344TIP3    H233986   5.669   2.279   7.455
11345TIP3   OH233987   6.344   2.446   7.563
11345TIP3    H133988   6.316   2.369   7.512
11345TIP3    H233989   6.305   2.516   7.508
11346TIP3   OH233990   4.998   2.195   7.572
11346TIP3    H133991   4.987   2.192   7.668
11346TIP3    H233992   5.085   2.151   7.559
11347TIP3   OH233993   6.773   2.456   7.063
11347TIP3    H133994   6.732   2.501   7.139
11347TIP3    H233995   6.832   2.392   7.105
11348TIP3   OH233996   3.759   2.943   7.774
11348TIP3    H133997   3.825   3.002   7.818
11348TIP3    H233998   3.818   2.885   7.722
11349TIP3   OH233999   3.966   3.091   7.856
11349TIP3    H134000   4.034   3.024   7.877
11349TIP3    H234001   3.994   3.120   7.767
11350TIP3   OH234002   4.286   3.694   7.462
11350TIP3    H134003   4.295   3.789   7.439
11350TIP3    H234004   4.378   3.662   7.451
11351TIP3   OH234005   3.475   4.031   7.892
11351TIP3    H134006   3.512   4.009   7.804
11351TIP3    H234007   3.555   4.049   7.945
11352TIP3   OH234008   3.802   3.920   7.560
11352TIP3    H134009   3.862   3.848   7.530
11352TIP3    H234010   3.834   3.937   7.651
11353TIP3   OH234011   3.838   3.970   7.827
11353TIP3    H134012   3.762   3.996   7.882
11353TIP3    H234013   3.873   3.900   7.886
11354TIP3   OH234014   4.041   3.128   7.601
11354TIP3    H134015   4.005   3.108   7.513
11354TIP3    H234016   4.129   3.163   7.576
11355TIP3   OH234017   3.702   3.490   7.761
11355TIP3    H134018   3.661   3.576   7.786
11355TIP3    H234019   3.633   3.430   7.793
11356TIP3   OH234020   4.530   2.966   7.799
11356TIP3    H134021   4.459   2.920   7.748
11356TIP3    H234022   4.526   3.051   7.750
11357TIP3   OH234023   4.218   3.752   7.725
11357TIP3    H134024   4.184   3.669   7.762
11357TIP3    H234025   4.235   3.724   7.633
11358TIP3   OH234026   3.959   3.509   7.610
11358TIP3    H134027   4.029   3.492   7.677
11358TIP3    H234028   3.879   3.502   7.665
11359TIP3   OH234029   4.313   3.968   7.438
11359TIP3    H134030   4.347   4.040   7.383
11359TIP3    H234031   4.232   4.013   7.473
11360TIP3   OH234032   4.151   3.484   7.801
11360TIP3    H134033   4.100   3.435   7.869
11360TIP3    H234034   4.240   3.445   7.813
11361TIP3   OH234035   3.352   3.468   7.620
11361TIP3    H134036   3.374   3.383   7.578
11361TIP3    H234037   3.293   3.441   7.691
11362TIP3   OH234038   3.534   3.701   7.840
11362TIP3    H134039   3.497   3.759   7.908
11362TIP3    H234040   3.536   3.760   7.763
11363TIP3   OH234041   3.503   3.675   7.525
11363TIP3    H134042   3.452   3.601   7.566
11363TIP3    H234043   3.575   3.626   7.480
11364TIP3   OH234044   3.942   3.718   7.444
11364TIP3    H134045   3.967   3.644   7.503
11364TIP3    H234046   4.000   3.705   7.366
11365TIP3   OH234047   3.140   3.174   7.693
11365TIP3    H134048   3.180   3.103   7.745
11365TIP3    H234049   3.215   3.196   7.633
11366TIP3   OH234050   3.640   3.378   7.516
11366TIP3    H134051   3.669   3.413   7.602
11366TIP3    H234052   3.650   3.282   7.531
11367TIP3   OH234053   4.270   3.222   7.488
11367TIP3    H134054   4.261   3.179   7.401
11367TIP3    H234055   4.236   3.312   7.464
11368TIP3   OH234056   3.257   3.922   7.706
11368TIP3    H134057   3.352   3.937   7.713
11368TIP3    H234058   3.233   3.993   7.645
11369TIP3   OH234059   4.426   3.408   7.836
11369TIP3    H134060   4.484   3.476   7.794
11369TIP3    H234061   4.489   3.365   7.896
11370TIP3   OH234062   4.476   3.196   7.661
11370TIP3    H134063   4.407   3.188   7.592
11370TIP3    H234064   4.441   3.272   7.711
11371TIP3   OH234065   4.338   2.869   7.629
11371TIP3    H134066   4.326   2.901   7.539
11371TIP3    H234067   4.325   2.772   7.616
11372TIP3   OH234068   4.310   2.601   7.600
11372TIP3    H134069   4.387   2.570   7.653
11372TIP3    H234070   4.241   2.537   7.626
11373TIP3   OH234071   4.539   2.536   7.744
11373TIP3    H134072   4.580   2.467   7.689
11373TIP3    H234073   4.609   2.605   7.744
11374TIP3   OH234074   4.131   4.086   7.982
11374TIP3    H134075   4.167   4.069   7.893
11374TIP3    H234076   4.206   4.129   8.025
11375TIP3   OH234077   3.544   3.912   7.653
11375TIP3    H134078   3.633   3.929   7.616
11375TIP3    H234079   3.515   3.841   7.591
11376TIP3   OH234080   4.270   4.024   7.752
11376TIP3    H134081   4.254   3.927   7.746
11376TIP3    H234082   4.218   4.056   7.676
11377TIP3   OH234083   2.830   3.740   7.702
11377TIP3    H134084   2.852   3.779   7.790
11377TIP3    H234085   2.913   3.691   7.683
11378TIP3   OH234086   5.740   3.551   7.717
11378TIP3    H134087   5.711   3.641   7.694
11378TIP3    H234088   5.668   3.499   7.677
11379TIP3   OH234089   5.731   3.550   8.103
11379TIP3    H134090   5.750   3.495   8.181
11379TIP3    H234091   5.689   3.484   8.046
11380TIP3   OH234092   5.990   3.842   7.784
11380TIP3    H134093   5.988   3.782   7.862
11380TIP3    H234094   6.007   3.928   7.828
11381TIP3   OH234095   5.053   3.840   8.211
11381TIP3    H134096   5.049   3.742   8.200
11381TIP3    H234097   5.141   3.854   8.169
11382TIP3   OH234098   4.709   3.041   7.996
11382TIP3    H134099   4.654   3.107   8.041
11382TIP3    H234100   4.648   3.008   7.927
11383TIP3   OH234101   5.636   4.313   7.797
11383TIP3    H134102   5.670   4.245   7.734
11383TIP3    H234103   5.663   4.276   7.881
11384TIP3   OH234104   5.529   3.758   8.126
11384TIP3    H134105   5.580   3.685   8.087
11384TIP3    H234106   5.600   3.809   8.166
11385TIP3   OH234107   5.938   3.278   8.170
11385TIP3    H134108   5.949   3.180   8.167
11385TIP3    H234109   5.904   3.292   8.080
11386TIP3   OH234110   5.971   3.036   7.746
11386TIP3    H134111   6.046   3.018   7.807
11386TIP3    H234112   6.020   3.075   7.670
11387TIP3   OH234113   5.371   3.342   8.013
11387TIP3    H134114   5.462   3.322   8.042
11387TIP3    H234115   5.335   3.252   7.998
11388TIP3   OH234116   5.619   3.768   7.588
11388TIP3    H134117   5.591   3.762   7.496
11388TIP3    H234118   5.576   3.851   7.617
11389TIP3   OH234119   6.194   2.993   7.889
11389TIP3    H134120   6.190   2.904   7.929
11389TIP3    H234121   6.244   3.042   7.957
11390TIP3   OH234122   4.604   3.583   7.710
11390TIP3    H134123   4.570   3.597   7.618
11390TIP3    H234124   4.639   3.671   7.731
11391TIP3   OH234125   6.018   4.080   7.917
11391TIP3    H134126   5.994   4.105   8.006
11391TIP3    H234127   6.042   4.167   7.878
11392TIP3   OH234128   5.746   4.142   7.609
11392TIP3    H134129   5.798   4.059   7.595
11392TIP3    H234130   5.811   4.207   7.575
11393TIP3   OH234131   5.894   3.925   7.540
11393TIP3    H134132   5.877   3.844   7.492
11393TIP3    H234133   5.934   3.891   7.623
11394TIP3   OH234134   5.573   3.408   7.550
11394TIP3    H134135   5.493   3.460   7.530
11394TIP3    H234136   5.617   3.404   7.463
11395TIP3   OH234137   5.533   3.195   7.256
11395TIP3    H134138   5.599   3.247   7.305
11395TIP3    H234139   5.591   3.131   7.210
11396TIP3   OH234140   5.920   3.490   7.517
11396TIP3    H134141   5.867   3.513   7.598
11396TIP3    H234142   6.006   3.466   7.558
11397TIP3   OH234143   5.155   3.488   7.931
11397TIP3    H134144   5.111   3.427   7.867
11397TIP3    H234145   5.233   3.434   7.958
11398TIP3   OH234146   5.288   3.889   8.079
11398TIP3    H134147   5.272   3.863   7.987
11398TIP3    H234148   5.370   3.838   8.100
11399TIP3   OH234149   5.758   3.347   7.346
11399TIP3    H134150   5.817   3.409   7.395
11399TIP3    H234151   5.785   3.366   7.253
11400TIP3   OH234152   5.502   4.026   7.630
11400TIP3    H134153   5.590   4.068   7.625
11400TIP3    H234154   5.449   4.085   7.574
11401TIP3   OH234155   6.245   2.610   7.370
11401TIP3    H134156   6.168   2.645   7.420
11401TIP3    H234157   6.272   2.688   7.318
11402TIP3   OH234158   5.024   3.328   7.741
11402TIP3    H134159   4.949   3.364   7.688
11402TIP3    H234160   4.995   3.238   7.760
11403TIP3   OH234161   6.080   3.951   6.946
11403TIP3    H134162   6.089   4.047   6.930
11403TIP3    H234163   6.173   3.921   6.933
11404TIP3   OH234164   5.392   4.262   7.430
11404TIP3    H134165   5.346   4.247   7.345
11404TIP3    H234166   5.360   4.350   7.455
11405TIP3   OH234167   4.820   4.117   7.819
11405TIP3    H134168   4.863   4.103   7.904
11405TIP3    H234169   4.776   4.031   7.804
11406TIP3   OH234170   5.586   4.171   7.061
11406TIP3    H134171   5.645   4.100   7.026
11406TIP3    H234172   5.624   4.183   7.151
11407TIP3   OH234173   5.642   4.222   7.329
11407TIP3    H134174   5.555   4.229   7.374
11407TIP3    H234175   5.698   4.191   7.401
11408TIP3   OH234176   5.838   3.382   7.092
11408TIP3    H134177   5.801   3.365   7.003
11408TIP3    H234178   5.924   3.423   7.068
11409TIP3   OH234179   5.552   2.760   7.396
11409TIP3    H134180   5.511   2.759   7.485
11409TIP3    H234181   5.509   2.681   7.357
11410TIP3   OH234182   5.246   3.103   7.969
11410TIP3    H134183   5.150   3.085   7.974
11410TIP3    H234184   5.263   3.058   7.884
11411TIP3   OH234185   5.708   3.208   7.682
11411TIP3    H134186   5.659   3.279   7.635
11411TIP3    H234187   5.763   3.170   7.610
11412TIP3   OH234188   5.856   3.234   7.908
11412TIP3    H134189   5.797   3.256   7.832
11412TIP3    H234190   5.894   3.152   7.870
11413TIP3   OH234191   5.216   2.740   7.365
11413TIP3    H134192   5.198   2.741   7.460
11413TIP3    H234193   5.138   2.790   7.332
11414TIP3   OH234194   4.714   2.750   7.756
11414TIP3    H134195   4.758   2.786   7.677
11414TIP3    H234196   4.659   2.826   7.779
11415TIP3   OH234197   5.541   2.943   7.999
11415TIP3    H134198   5.466   2.973   8.053
11415TIP3    H234199   5.609   2.922   8.066
11416TIP3   OH234200   4.986   3.035   7.988
11416TIP3    H134201   4.888   3.039   7.992
11416TIP3    H234202   5.001   2.942   8.012
11417TIP3   OH234203   5.250   2.987   7.715
11417TIP3    H134204   5.341   3.009   7.687
11417TIP3    H234205   5.196   3.014   7.637
11418TIP3   OH234206   5.992   3.014   8.159
11418TIP3    H134207   6.024   2.980   8.243
11418TIP3    H234208   5.909   2.964   8.146
11419TIP3   OH234209   5.104   3.033   7.493
11419TIP3    H134210   5.032   2.985   7.448
11419TIP3    H234211   5.153   3.068   7.417
11420TIP3   OH234212   5.640   3.276   8.080
11420TIP3    H134213   5.706   3.248   8.013
11420TIP3    H234214   5.672   3.231   8.159
11421TIP3   OH234215   5.192   2.763   7.984
11421TIP3    H134216   5.130   2.704   8.032
11421TIP3    H234217   5.177   2.739   7.892
11422TIP3   OH234218   5.341   3.558   7.498
11422TIP3    H134219   5.272   3.489   7.487
11422TIP3    H234220   5.318   3.594   7.587
11423TIP3   OH234221   5.801   2.862   7.373
11423TIP3    H134222   5.705   2.841   7.378
11423TIP3    H234223   5.805   2.957   7.393
11424TIP3   OH234224   5.865   3.119   7.466
11424TIP3    H134225   5.962   3.127   7.475
11424TIP3    H234226   5.843   3.200   7.415
11425TIP3   OH234227   5.048   3.574   8.170
11425TIP3    H134228   5.081   3.545   8.081
11425TIP3    H234229   5.059   3.492   8.221
11426TIP3   OH234230   5.490   3.706   7.325
11426TIP3    H134231   5.440   3.791   7.327
11426TIP3    H234232   5.436   3.651   7.385
11427TIP3   OH234233   6.301   3.215   7.298
11427TIP3    H134234   6.244   3.168   7.233
11427TIP3    H234235   6.299   3.304   7.256
11428TIP3   OH234236   6.010   4.027   7.209
11428TIP3    H134237   5.986   3.954   7.269
11428TIP3    H234238   6.027   3.982   7.125
11429TIP3   OH234239   5.977   3.663   8.013
11429TIP3    H134240   5.891   3.630   8.043
11429TIP3    H234241   6.018   3.582   7.975
11430TIP3   OH234242   5.123   3.902   7.827
11430TIP3    H134243   5.130   3.976   7.764
11430TIP3    H234244   5.059   3.845   7.782
11431TIP3   OH234245   4.716   3.180   7.521
11431TIP3    H134246   4.754   3.270   7.529
11431TIP3    H234247   4.630   3.191   7.566
11432TIP3   OH234248   5.260   3.656   7.738
11432TIP3    H134249   5.240   3.742   7.777
11432TIP3    H234250   5.231   3.594   7.808
11433TIP3   OH234251   5.057   4.127   7.656
11433TIP3    H134252   4.970   4.140   7.697
11433TIP3    H234253   5.092   4.219   7.655
11434TIP3   OH234254   5.775   3.760   7.113
11434TIP3    H134255   5.828   3.735   7.192
11434TIP3    H234256   5.688   3.726   7.137
11435TIP3   OH234257   6.111   4.229   6.929
11435TIP3    H134258   6.152   4.306   6.887
11435TIP3    H234259   6.028   4.270   6.961
11436TIP3   OH234260   5.934   3.693   7.328
11436TIP3    H134261   5.923   3.624   7.397
11436TIP3    H234262   6.031   3.686   7.313
11437TIP3   OH234263   5.131   3.731   7.115
11437TIP3    H134264   5.141   3.638   7.087
11437TIP3    H234265   5.102   3.719   7.208
11438TIP3   OH234266   5.072   3.746   7.390
11438TIP3    H134267   5.156   3.713   7.426
11438TIP3    H234268   5.083   3.843   7.396
11439TIP3   OH234269   4.813   3.436   7.590
11439TIP3    H134270   4.743   3.481   7.641
11439TIP3    H234271   4.827   3.500   7.518
11440TIP3   OH234272   5.846   2.808   7.646
11440TIP3    H134273   5.829   2.826   7.552
11440TIP3    H234274   5.880   2.895   7.678
11441TIP3   OH234275   5.349   3.936   7.333
11441TIP3    H134276   5.262   3.962   7.368
11441TIP3    H234277   5.364   4.010   7.272
11442TIP3   OH234278   5.533   3.003   7.736
11442TIP3    H134279   5.595   3.078   7.725
11442TIP3    H234280   5.534   2.991   7.834
11443TIP3   OH234281   5.668   2.721   7.838
11443TIP3    H134282   5.662   2.799   7.897
11443TIP3    H234283   5.736   2.752   7.775
11444TIP3   OH234284   5.099   4.018   7.404
11444TIP3    H134285   5.067   4.087   7.341
11444TIP3    H234286   5.082   4.062   7.490
11445TIP3   OH234287   5.188   2.728   7.643
11445TIP3    H134288   5.186   2.820   7.674
11445TIP3    H234289   5.285   2.713   7.645
11446TIP3   OH234290   6.078   3.420   7.905
11446TIP3    H134291   6.016   3.348   7.923
11446TIP3    H234292   6.161   3.392   7.948
11447TIP3   OH234293   4.811   3.640   7.391
11447TIP3    H134294   4.891   3.696   7.399
11447TIP3    H234295   4.847   3.574   7.328
11448TIP3   OH234296   4.751   2.909   7.528
11448TIP3    H134297   4.758   3.007   7.529
11448TIP3    H234298   4.687   2.898   7.457
11449TIP3   OH234299   6.060   4.343   7.851
11449TIP3    H134300   6.015   4.405   7.789
11449TIP3    H234301   6.138   4.395   7.874
11450TIP3   OH234302   4.676   3.861   7.772
11450TIP3    H134303   4.604   3.884   7.832
11450TIP3    H234304   4.643   3.900   7.687
11451TIP3   OH234305   5.295   3.932   7.020
11451TIP3    H134306   5.241   3.860   7.059
11451TIP3    H234307   5.372   3.882   6.988
11452TIP3   OH234308   5.731   3.971   6.936
11452TIP3    H134309   5.769   3.907   6.999
11452TIP3    H234310   5.792   3.966   6.860
11453TIP3   OH234311   4.960   3.464   7.261
11453TIP3    H134312   5.018   3.417   7.323
11453TIP3    H234313   5.013   3.459   7.179
11454TIP3   OH234314   5.467   3.656   7.055
11454TIP3    H134315   5.465   3.665   7.152
11454TIP3    H234316   5.466   3.558   7.046
11455TIP3   OH234317   5.157   3.358   7.468
11455TIP3    H134318   5.122   3.316   7.549
11455TIP3    H234319   5.192   3.281   7.419
11456TIP3   OH234320   5.257   3.158   7.302
11456TIP3    H134321   5.230   3.168   7.209
11456TIP3    H234322   5.354   3.159   7.293
11457TIP3   OH234323   6.068   3.480   6.976
11457TIP3    H134324   6.050   3.438   6.890
11457TIP3    H234325   6.035   3.571   6.957
11458TIP3   OH234326   5.065   4.219   7.215
11458TIP3    H134327   5.160   4.205   7.195
11458TIP3    H234328   5.039   4.271   7.137
11459TIP3   OH234329   4.543   3.598   7.442
11459TIP3    H134330   4.635   3.620   7.416
11459TIP3    H234331   4.530   3.514   7.391
11460TIP3   OH234332   4.461   4.209   7.838
11460TIP3    H134333   4.400   4.151   7.788
11460TIP3    H234334   4.511   4.143   7.890
11461TIP3   OH234335   4.576   4.046   8.038
11461TIP3    H134336   4.487   4.026   8.071
11461TIP3    H234337   4.619   4.091   8.111
11462TIP3   OH234338   6.384   4.418   7.809
11462TIP3    H134339   6.369   4.434   7.904
11462TIP3    H234340   6.371   4.506   7.771
11463TIP3   OH234341   6.209   3.670   7.300
11463TIP3    H134342   6.274   3.735   7.266
11463TIP3    H234343   6.255   3.638   7.381
11464TIP3   OH234344   6.334   3.550   7.513
11464TIP3    H134345   6.265   3.506   7.568
11464TIP3    H234346   6.400   3.577   7.580
11465TIP3   OH234347   6.418   3.967   7.956
11465TIP3    H134348   6.434   3.875   7.930
11465TIP3    H234349   6.404   4.011   7.870
11466TIP3   OH234350   6.273   3.446   7.153
11466TIP3    H134351   6.201   3.447   7.086
11466TIP3    H234352   6.246   3.523   7.207
11467TIP3   OH234353   6.141   3.119   7.103
11467TIP3    H134354   6.098   3.153   7.024
11467TIP3    H234355   6.116   3.024   7.097
11468TIP3   OH234356   6.148   3.398   7.643
11468TIP3    H134357   6.160   3.302   7.639
11468TIP3    H234358   6.124   3.413   7.737
11469TIP3   OH234359   6.069   2.858   7.075
11469TIP3    H134360   6.151   2.825   7.118
11469TIP3    H234361   6.002   2.792   7.097
11470TIP3   OH234362   6.146   3.115   7.537
11470TIP3    H134363   6.194   3.030   7.554
11470TIP3    H234364   6.202   3.152   7.466
11471TIP3   OH234365   6.329   3.370   8.002
11471TIP3    H134366   6.410   3.401   7.960
11471TIP3    H234367   6.336   3.412   8.091
11472TIP3   OH234368   6.264   2.867   7.603
11472TIP3    H134369   6.258   2.892   7.697
11472TIP3    H234370   6.197   2.795   7.597
11473TIP3   OH234371   6.314   2.797   7.181
11473TIP3    H134372   6.358   2.723   7.134
11473TIP3    H234373   6.390   2.845   7.219
11474TIP3   OH234374   5.895   4.328   7.485
11474TIP3    H134375   5.951   4.321   7.405
11474TIP3    H234376   5.947   4.387   7.542
11475TIP3   OH234377   4.802   4.178   8.228
11475TIP3    H134378   4.783   4.267   8.264
11475TIP3    H234379   4.844   4.195   8.143
11476TIP3   OH234380   4.988   4.081   8.049
11476TIP3    H134381   5.010   3.994   8.012
11476TIP3    H234382   5.072   4.130   8.032
11477TIP3   OH234383   5.244   4.175   8.047
11477TIP3    H134384   5.274   4.085   8.023
11477TIP3    H234385   5.316   4.205   8.102
11478TIP3   OH234386   5.770   2.850   8.122
11478TIP3    H134387   5.771   2.820   8.215
11478TIP3    H234388   5.833   2.786   8.082
11479TIP3   OH234389   4.820   2.422   7.753
11479TIP3    H134390   4.863   2.476   7.684
11479TIP3    H234391   4.831   2.478   7.831
11480TIP3   OH234392   5.476   2.604   8.004
11480TIP3    H134393   5.529   2.646   7.934
11480TIP3    H234394   5.400   2.664   8.010
11481TIP3   OH234395   5.952   2.667   8.043
11481TIP3    H134396   6.031   2.701   7.996
11481TIP3    H234397   5.989   2.586   8.082
11482TIP3   OH234398   6.072   2.669   7.580
11482TIP3    H134399   5.986   2.710   7.604
11482TIP3    H234400   6.060   2.580   7.619
11483TIP3   OH234401   4.555   3.997   7.574
11483TIP3    H134402   4.470   3.960   7.546
11483TIP3    H234403   4.545   4.087   7.537
11484TIP3   OH234404   4.963   2.570   7.559
11484TIP3    H134405   5.009   2.509   7.499
11484TIP3    H234406   5.037   2.624   7.594
11485TIP3   OH234407   5.463   2.752   7.655
11485TIP3    H134408   5.531   2.710   7.711
11485TIP3    H234409   5.482   2.846   7.678
11486TIP3   OH234410   5.329   4.166   7.160
11486TIP3    H134411   5.417   4.189   7.123
11486TIP3    H234412   5.306   4.092   7.099
11487TIP3   OH234413   6.045   4.293   7.255
11487TIP3    H134414   6.037   4.196   7.244
11487TIP3    H234415   6.001   4.324   7.173
11488TIP3   OH234416   4.634   4.011   7.211
11488TIP3    H134417   4.639   4.020   7.307
11488TIP3    H234418   4.718   3.964   7.191
11489TIP3   OH234419   6.802   4.104   7.692
11489TIP3    H134420   6.804   4.008   7.676
11489TIP3    H234421   6.887   4.117   7.739
11490TIP3   OH234422   6.483   3.314   7.475
11490TIP3    H134423   6.434   3.397   7.488
11490TIP3    H234424   6.422   3.265   7.418
11491TIP3   OH234425   6.586   3.579   7.640
11491TIP3    H134426   6.641   3.500   7.651
11491TIP3    H234427   6.627   3.621   7.563
11492TIP3   OH234428   7.452   4.049   7.046
11492TIP3    H134429   7.445   3.952   7.041
11492TIP3    H234430   7.359   4.075   7.038
11493TIP3   OH234431   6.405   3.837   7.190
11493TIP3    H134432   6.369   3.868   7.105
11493TIP3    H234433   6.438   3.922   7.228
11494TIP3   OH234434   7.374   3.730   7.007
11494TIP3    H134435   7.283   3.754   6.988
11494TIP3    H234436   7.389   3.653   6.951
11495TIP3   OH234437   7.321   3.437   6.744
11495TIP3    H134438   7.390   3.489   6.792
11495TIP3    H234439   7.380   3.374   6.699
11496TIP3   OH234440   6.922   3.769   7.407
11496TIP3    H134441   6.888   3.709   7.337
11496TIP3    H234442   6.976   3.707   7.460
11497TIP3   OH234443   7.532   3.581   6.828
11497TIP3    H134444   7.580   3.638   6.889
11497TIP3    H234445   7.576   3.602   6.742
11498TIP3   OH234446   6.818   3.587   7.217
11498TIP3    H134447   6.739   3.619   7.168
11498TIP3    H234448   6.790   3.500   7.248
11499TIP3   OH234449   7.867   4.227   6.438
11499TIP3    H134450   7.871   4.284   6.361
11499TIP3    H234451   7.952   4.179   6.431
11500TIP3   OH234452   6.450   4.160   7.748
11500TIP3    H134453   6.546   4.166   7.754
11500TIP3    H234454   6.422   4.250   7.776
11501TIP3   OH234455   7.091   4.579   6.888
11501TIP3    H134456   7.103   4.518   6.813
11501TIP3    H234457   7.168   4.636   6.880
11502TIP3   OH234458   6.612   4.372   7.283
11502TIP3    H134459   6.659   4.361   7.369
11502TIP3    H234460   6.547   4.301   7.290
11503TIP3   OH234461   7.378   4.431   6.539
11503TIP3    H134462   7.439   4.358   6.512
11503TIP3    H234463   7.419   4.468   6.619
11504TIP3   OH234464   7.641   3.656   6.594
11504TIP3    H134465   7.594   3.634   6.511
11504TIP3    H234466   7.729   3.682   6.559
11505TIP3   OH234467   7.349   3.022   6.812
11505TIP3    H134468   7.333   3.085   6.887
11505TIP3    H234469   7.291   2.947   6.834
11506TIP3   OH234470   7.005   3.390   7.394
11506TIP3    H134471   6.918   3.354   7.421
11506TIP3    H234472   7.017   3.343   7.309
11507TIP3   OH234473   6.996   2.999   6.842
11507TIP3    H134474   6.983   2.996   6.938
11507TIP3    H234475   6.922   3.057   6.815
11508TIP3   OH234476   6.533   3.103   7.767
11508TIP3    H134477   6.598   3.174   7.771
11508TIP3    H234478   6.570   3.047   7.696
11509TIP3   OH234479   6.524   3.036   7.247
11509TIP3    H134480   6.566   3.067   7.163
11509TIP3    H234481   6.462   3.108   7.262
11510TIP3   OH234482   6.753   3.298   7.450
11510TIP3    H134483   6.655   3.297   7.455
11510TIP3    H234484   6.775   3.212   7.489
11511TIP3   OH234485   7.076   3.246   7.165
11511TIP3    H134486   7.137   3.303   7.115
11511TIP3    H234487   6.999   3.250   7.103
11512TIP3   OH234488   6.890   3.284   6.975
11512TIP3    H134489   6.818   3.240   6.925
11512TIP3    H234490   6.941   3.324   6.901
11513TIP3   OH234491   7.104   3.836   6.966
11513TIP3    H134492   7.040   3.761   6.961
11513TIP3    H234493   7.095   3.861   7.061
11514TIP3   OH234494   6.840   3.822   7.665
11514TIP3    H134495   6.856   3.823   7.569
11514TIP3    H234496   6.898   3.748   7.691
11515TIP3   OH234497   7.274   3.962   6.794
11515TIP3    H134498   7.238   4.053   6.804
11515TIP3    H234499   7.217   3.914   6.858
11516TIP3   OH234500   6.931   4.144   7.269
11516TIP3    H134501   6.901   4.212   7.205
11516TIP3    H234502   6.848   4.116   7.307
11517TIP3   OH234503   6.498   3.444   6.994
11517TIP3    H134504   6.542   3.529   7.015
11517TIP3    H234505   6.422   3.447   7.055
11518TIP3   OH234506   7.072   3.912   7.221
11518TIP3    H134507   7.037   4.002   7.239
11518TIP3    H234508   7.033   3.862   7.295
11519TIP3   OH234509   6.841   4.360   7.126
11519TIP3    H134510   6.756   4.381   7.172
11519TIP3    H234511   6.894   4.439   7.141
11520TIP3   OH234512   7.553   4.015   6.590
11520TIP3    H134513   7.583   4.023   6.682
11520TIP3    H234514   7.463   3.980   6.600
11521TIP3   OH234515   7.712   3.935   6.806
11521TIP3    H134516   7.663   3.861   6.767
11521TIP3    H234517   7.793   3.935   6.753
11522TIP3   OH234518   6.932   3.987   6.598
11522TIP3    H134519   6.942   3.892   6.576
11522TIP3    H234520   6.905   3.981   6.692
11523TIP3   OH234521   6.872   3.990   6.867
11523TIP3    H134522   6.956   3.960   6.906
11523TIP3    H234523   6.879   4.088   6.878
11524TIP3   OH234524   6.602   3.686   7.074
11524TIP3    H134525   6.535   3.733   7.129
11524TIP3    H234526   6.617   3.753   7.005
11525TIP3   OH234527   7.153   4.200   6.826
11525TIP3    H134528   7.061   4.217   6.858
11525TIP3    H234529   7.161   4.275   6.764
11526TIP3   OH234530   6.891   4.261   6.877
11526TIP3    H134531   6.863   4.333   6.816
11526TIP3    H234532   6.869   4.301   6.964
11527TIP3   OH234533   6.971   2.969   7.115
11527TIP3    H134534   7.003   3.049   7.160
11527TIP3    H234535   7.051   2.911   7.118
11528TIP3   OH234536   6.606   3.889   6.877
11528TIP3    H134537   6.681   3.951   6.887
11528TIP3    H234538   6.647   3.829   6.810
11529TIP3   OH234539   6.545   3.173   7.007
11529TIP3    H134540   6.548   3.271   7.007
11529TIP3    H234541   6.464   3.156   6.958
11530TIP3   OH234542   6.459   4.094   7.257
11530TIP3    H134543   6.409   4.133   7.330
11530TIP3    H234544   6.427   4.146   7.179
11531TIP3   OH234545   7.091   4.190   6.504
11531TIP3    H134546   7.039   4.115   6.541
11531TIP3    H234547   7.167   4.143   6.464
11532TIP3   OH234548   7.530   4.236   6.419
11532TIP3    H134549   7.579   4.169   6.471
11532TIP3    H234550   7.577   4.235   6.333
11533TIP3   OH234551   6.741   3.703   6.735
11533TIP3    H134552   6.800   3.678   6.808
11533TIP3    H234553   6.807   3.710   6.662
11534TIP3   OH234554   7.265   3.904   6.533
11534TIP3    H134555   7.256   3.919   6.629
11534TIP3    H234556   7.263   3.806   6.530
11535TIP3   OH234557   6.935   3.617   6.946
11535TIP3    H134558   6.911   3.581   7.033
11535TIP3    H234559   6.978   3.540   6.903
11536TIP3   OH234560   7.050   3.413   6.792
11536TIP3    H134561   7.026   3.424   6.698
11536TIP3    H234562   7.148   3.411   6.785
11537TIP3   OH234563   7.872   3.743   6.479
11537TIP3    H134564   7.863   3.695   6.394
11537TIP3    H234565   7.840   3.831   6.450
11538TIP3   OH234566   6.854   4.464   6.694
11538TIP3    H134567   6.952   4.465   6.690
11538TIP3    H234568   6.834   4.521   6.617
11539TIP3   OH234569   6.336   3.855   6.911
11539TIP3    H134570   6.432   3.876   6.897
11539TIP3    H234571   6.331   3.766   6.870
11540TIP3   OH234572   6.252   4.460   7.333
11540TIP3    H134573   6.187   4.398   7.293
11540TIP3    H234574   6.300   4.399   7.393
11541TIP3   OH234575   6.387   4.298   7.510
11541TIP3    H134576   6.378   4.227   7.576
11541TIP3    H234577   6.438   4.362   7.561
11542TIP3   OH234578   6.605   3.720   7.880
11542TIP3    H134579   6.582   3.665   7.803
11542TIP3    H234580   6.674   3.775   7.843
11543TIP3   OH234581   6.479   2.823   7.410
11543TIP3    H134582   6.410   2.854   7.472
11543TIP3    H234583   6.513   2.908   7.375
11544TIP3   OH234584   6.741   4.307   7.513
11544TIP3    H134585   6.764   4.234   7.574
11544TIP3    H234586   6.800   4.379   7.541
11545TIP3   OH234587   6.612   2.649   7.229
11545TIP3    H134588   6.651   2.718   7.172
11545TIP3    H234589   6.577   2.704   7.303
11546TIP3   OH234590   6.353   4.249   7.064
11546TIP3    H134591   6.266   4.221   7.030
11546TIP3    H234592   6.350   4.343   7.041
11547TIP3   OH234593   6.748   2.823   7.044
11547TIP3    H134594   6.799   2.766   6.982
11547TIP3    H234595   6.818   2.883   7.077
11548TIP3   OH234596   7.126   4.418   6.651
11548TIP3    H134597   7.210   4.444   6.609
11548TIP3    H234598   7.100   4.346   6.590
11549TIP3   OH234599   6.425   4.261   6.698
11549TIP3    H134600   6.436   4.281   6.792
11549TIP3    H234601   6.512   4.217   6.677
11550TIP3   OH234602   8.098   4.101   6.388
11550TIP3    H134603   8.190   4.127   6.378
11550TIP3    H234604   8.095   4.017   6.337
11551TIP3   OH234605   2.124   5.254   7.619
11551TIP3    H134606   2.132   5.349   7.593
11551TIP3    H234607   2.215   5.223   7.600
11552TIP3   OH234608   1.654   5.469   7.704
11552TIP3    H134609   1.696   5.392   7.660
11552TIP3    H234610   1.703   5.469   7.789
11553TIP3   OH234611   1.890   4.721   7.735
11553TIP3    H134612   1.850   4.665   7.665
11553TIP3    H234613   1.978   4.739   7.696
11554TIP3   OH234614   2.074   5.315   7.888
11554TIP3    H134615   1.977   5.311   7.894
11554TIP3    H234616   2.091   5.279   7.798
11555TIP3   OH234617   1.819   5.060   7.774
11555TIP3    H134618   1.847   4.999   7.844
11555TIP3    H234619   1.724   5.067   7.792
11556TIP3   OH234620   2.157   5.524   7.582
11556TIP3    H134621   2.201   5.599   7.537
11556TIP3    H234622   2.077   5.571   7.616
11557TIP3   OH234623   1.353   5.252   7.658
11557TIP3    H134624   1.325   5.225   7.747
11557TIP3    H234625   1.434   5.199   7.646
11558TIP3   OH234626   1.787   5.266   7.582
11558TIP3    H134627   1.835   5.211   7.647
11558TIP3    H234628   1.844   5.262   7.503
11559TIP3   OH234629   2.133   4.790   7.622
11559TIP3    H134630   2.114   4.743   7.537
11559TIP3    H234631   2.094   4.878   7.600
11560TIP3   OH234632   2.339   4.810   7.803
11560TIP3    H134633   2.262   4.807   7.742
11560TIP3    H234634   2.313   4.747   7.872
11561TIP3   OH234635   2.150   4.370   7.734
11561TIP3    H134636   2.197   4.418   7.665
11561TIP3    H234637   2.066   4.352   7.689
11562TIP3   OH234638   1.387   5.500   7.768
11562TIP3    H134639   1.483   5.502   7.750
11562TIP3    H234640   1.361   5.428   7.707
11563TIP3   OH234641   2.099   5.592   7.909
11563TIP3    H134642   2.094   5.495   7.906
11563TIP3    H234643   2.050   5.618   7.829
11564TIP3   OH234644   3.581   5.115   7.860
11564TIP3    H134645   3.553   5.206   7.837
11564TIP3    H234646   3.503   5.064   7.831
11565TIP3   OH234647   3.828   5.407   7.922
11565TIP3    H134648   3.814   5.339   7.992
11565TIP3    H234649   3.852   5.485   7.977
11566TIP3   OH234650   3.483   5.874   7.946
11566TIP3    H134651   3.522   5.805   7.889
11566TIP3    H234652   3.457   5.824   8.023
11567TIP3   OH234653   3.839   4.577   7.919
11567TIP3    H134654   3.906   4.571   7.990
11567TIP3    H234655   3.887   4.627   7.852
11568TIP3   OH234656   3.471   5.336   7.731
11568TIP3    H134657   3.425   5.320   7.647
11568TIP3    H234658   3.425   5.417   7.762
11569TIP3   OH234659   4.047   4.603   8.102
11569TIP3    H134660   4.096   4.593   8.185
11569TIP3    H234661   4.074   4.695   8.082
11570TIP3   OH234662   2.441   5.167   7.845
11570TIP3    H134663   2.410   5.168   7.752
11570TIP3    H234664   2.506   5.238   7.849
11571TIP3   OH234665   3.871   5.638   8.065
11571TIP3    H134666   3.828   5.647   8.149
11571TIP3    H234667   3.885   5.731   8.039
11572TIP3   OH234668   3.593   5.698   7.764
11572TIP3    H134669   3.646   5.616   7.750
11572TIP3    H234670   3.656   5.764   7.727
11573TIP3   OH234671   3.740   5.483   7.682
11573TIP3    H134672   3.686   5.405   7.663
11573TIP3    H234673   3.784   5.454   7.765
11574TIP3   OH234674   3.412   4.967   7.697
11574TIP3    H134675   3.330   5.017   7.677
11574TIP3    H234676   3.457   4.965   7.611
11575TIP3   OH234677   3.373   4.758   7.403
11575TIP3    H134678   3.438   4.804   7.459
11575TIP3    H234679   3.431   4.694   7.357
11576TIP3   OH234680   3.763   5.047   7.669
11576TIP3    H134681   3.709   5.070   7.748
11576TIP3    H234682   3.848   5.023   7.712
11577TIP3   OH234683   2.963   5.086   8.033
11577TIP3    H134684   2.917   5.023   7.975
11577TIP3    H234685   3.024   5.025   8.080
11578TIP3   OH234686   3.601   4.906   7.497
11578TIP3    H134687   3.660   4.967   7.548
11578TIP3    H234688   3.629   4.926   7.404
11579TIP3   OH234689   3.350   5.579   7.769
11579TIP3    H134690   3.434   5.627   7.769
11579TIP3    H234691   3.288   5.644   7.734
11580TIP3   OH234692   4.124   4.138   7.546
11580TIP3    H134693   4.043   4.162   7.596
11580TIP3    H234694   4.137   4.221   7.495
11581TIP3   OH234695   2.871   4.872   7.876
11581TIP3    H134696   2.784   4.895   7.838
11581TIP3    H234697   2.848   4.800   7.938
11582TIP3   OH234698   3.918   5.507   7.093
11582TIP3    H134699   3.926   5.605   7.081
11582TIP3    H234700   4.012   5.479   7.080
11583TIP3   OH234701   3.233   5.823   7.577
11583TIP3    H134702   3.183   5.812   7.494
11583TIP3    H234703   3.200   5.910   7.608
11584TIP3   OH234704   2.675   5.675   7.938
11584TIP3    H134705   2.666   5.695   8.034
11584TIP3    H234706   2.639   5.584   7.934
11585TIP3   OH234707   3.428   5.728   7.212
11585TIP3    H134708   3.488   5.659   7.178
11585TIP3    H234709   3.463   5.743   7.302
11586TIP3   OH234710   3.482   5.778   7.478
11586TIP3    H134711   3.395   5.787   7.523
11586TIP3    H234712   3.537   5.747   7.552
11587TIP3   OH234713   3.676   4.941   7.240
11587TIP3    H134714   3.644   4.920   7.150
11587TIP3    H234715   3.762   4.984   7.219
11588TIP3   OH234716   3.394   4.317   7.538
11588TIP3    H134717   3.360   4.315   7.630
11588TIP3    H234718   3.351   4.236   7.504
11589TIP3   OH234719   3.564   4.777   7.825
11589TIP3    H134720   3.513   4.850   7.784
11589TIP3    H234721   3.618   4.744   7.750
11590TIP3   OH234722   3.721   4.807   8.050
11590TIP3    H134723   3.648   4.820   7.985
11590TIP3    H234724   3.743   4.715   8.031
11591TIP3   OH234725   3.053   4.301   7.498
11591TIP3    H134726   3.041   4.299   7.595
11591TIP3    H234727   2.975   4.353   7.472
11592TIP3   OH234728   3.106   4.538   7.868
11592TIP3    H134729   3.184   4.579   7.827
11592TIP3    H234730   3.035   4.571   7.808
11593TIP3   OH234731   2.955   4.599   7.651
11593TIP3    H134732   2.875   4.551   7.625
11593TIP3    H234733   2.993   4.624   7.564
11594TIP3   OH234734   3.182   5.116   7.644
11594TIP3    H134735   3.110   5.049   7.643
11594TIP3    H234736   3.168   5.157   7.734
11595TIP3   OH234737   3.633   4.437   7.494
11595TIP3    H134738   3.541   4.407   7.515
11595TIP3    H234739   3.637   4.527   7.533
11596TIP3   OH234740   3.713   4.676   7.613
11596TIP3    H134741   3.809   4.682   7.632
11596TIP3    H234742   3.695   4.758   7.564
11597TIP3   OH234743   3.324   5.262   7.464
11597TIP3    H134744   3.277   5.349   7.469
11597TIP3    H234745   3.272   5.209   7.528
11598TIP3   OH234746   4.149   4.770   7.449
11598TIP3    H134747   4.088   4.727   7.385
11598TIP3    H234748   4.145   4.861   7.412
11599TIP3   OH234749   3.855   5.587   7.363
11599TIP3    H134750   3.825   5.522   7.429
11599TIP3    H234751   3.866   5.533   7.282
11600TIP3   OH234752   3.815   5.231   8.126
11600TIP3    H134753   3.843   5.237   8.220
11600TIP3    H234754   3.844   5.142   8.100
11601TIP3   OH234755   2.972   5.459   7.944
11601TIP3    H134756   2.967   5.540   7.889
11601TIP3    H234757   2.881   5.427   7.939
11602TIP3   OH234758   2.554   4.759   7.645
11602TIP3    H134759   2.610   4.834   7.672
11602TIP3    H234760   2.479   4.774   7.706
11603TIP3   OH234761   3.129   5.236   7.881
11603TIP3    H134762   3.096   5.325   7.904
11603TIP3    H234763   3.071   5.181   7.937
11604TIP3   OH234764   2.907   5.686   7.793
11604TIP3    H134765   2.821   5.694   7.839
11604TIP3    H234766   2.939   5.779   7.798
11605TIP3   OH234767   3.615   5.316   7.264
11605TIP3    H134768   3.673   5.288   7.339
11605TIP3    H234769   3.529   5.290   7.299
11606TIP3   OH234770   3.949   5.785   7.079
11606TIP3    H134771   3.985   5.861   7.031
11606TIP3    H234772   3.868   5.826   7.116
11607TIP3   OH234773   3.777   5.236   7.467
11607TIP3    H134774   3.765   5.178   7.545
11607TIP3    H234775   3.875   5.237   7.461
11608TIP3   OH234776   2.970   5.289   7.255
11608TIP3    H134777   2.990   5.197   7.233
11608TIP3    H234778   2.950   5.283   7.351
11609TIP3   OH234779   2.918   5.297   7.526
11609TIP3    H134780   2.990   5.267   7.583
11609TIP3    H234781   2.922   5.395   7.539
11610TIP3   OH234782   2.650   4.992   7.748
11610TIP3    H134783   2.578   5.020   7.808
11610TIP3    H234784   2.654   5.067   7.686
11611TIP3   OH234785   3.720   4.378   7.765
11611TIP3    H134786   3.696   4.409   7.675
11611TIP3    H234787   3.753   4.460   7.808
11612TIP3   OH234788   3.188   5.494   7.476
11612TIP3    H134789   3.100   5.513   7.514
11612TIP3    H234790   3.205   5.579   7.432
11613TIP3   OH234791   3.393   4.567   7.834
11613TIP3    H134792   3.450   4.647   7.832
11613TIP3    H234793   3.395   4.546   7.929
11614TIP3   OH234794   3.554   4.330   7.972
11614TIP3    H134795   3.609   4.383   8.031
11614TIP3    H234796   3.611   4.328   7.892
11615TIP3   OH234797   2.935   5.567   7.549
11615TIP3    H134798   2.905   5.639   7.489
11615TIP3    H234799   2.924   5.612   7.637
11616TIP3   OH234800   3.035   4.289   7.769
11616TIP3    H134801   3.032   4.378   7.809
11616TIP3    H234802   3.129   4.267   7.788
11617TIP3   OH234803   3.929   4.982   8.059
11617TIP3    H134804   3.854   4.920   8.075
11617TIP3    H234805   4.003   4.938   8.106
11618TIP3   OH234806   2.650   5.193   7.543
11618TIP3    H134807   2.723   5.257   7.550
11618TIP3    H234808   2.693   5.129   7.482
11619TIP3   OH234809   2.566   4.478   7.619
11619TIP3    H134810   2.598   4.568   7.636
11619TIP3    H234811   2.535   4.453   7.707
11620TIP3   OH234812   3.908   5.906   8.020
11620TIP3    H134813   3.864   5.966   7.957
11620TIP3    H234814   4.001   5.932   8.009
11621TIP3   OH234815   2.538   5.434   7.925
11621TIP3    H134816   2.473   5.396   7.987
11621TIP3    H234817   2.480   5.472   7.856
11622TIP3   OH234818   3.129   5.492   7.159
11622TIP3    H134819   3.075   5.421   7.201
11622TIP3    H234820   3.210   5.443   7.138
11623TIP3   OH234821   3.575   5.529   7.088
11623TIP3    H134822   3.610   5.464   7.151
11623TIP3    H234823   3.638   5.524   7.014
11624TIP3   OH234824   2.787   5.008   7.400
11624TIP3    H134825   2.842   4.975   7.474
11624TIP3    H234826   2.853   5.011   7.328
11625TIP3   OH234827   3.298   5.209   7.199
11625TIP3    H134828   3.302   5.223   7.296
11625TIP3    H234829   3.305   5.111   7.194
11626TIP3   OH234830   2.985   4.920   7.615
11626TIP3    H134831   2.953   4.888   7.702
11626TIP3    H234832   3.023   4.838   7.577
11627TIP3   OH234833   3.096   4.720   7.445
11627TIP3    H134834   3.074   4.721   7.350
11627TIP3    H234835   3.194   4.719   7.442
11628TIP3   OH234836   3.909   5.038   7.125
11628TIP3    H134837   3.890   4.996   7.039
11628TIP3    H234838   3.876   5.129   7.106
11629TIP3   OH234839   2.903   5.768   7.360
11629TIP3    H134840   2.999   5.759   7.343
11629TIP3    H234841   2.879   5.826   7.286
11630TIP3   OH234842   2.380   5.159   7.570
11630TIP3    H134843   2.475   5.177   7.557
11630TIP3    H234844   2.373   5.068   7.533
11631TIP3   OH234845   2.296   5.750   8.013
11631TIP3    H134846   2.220   5.722   7.958
11631TIP3    H234847   2.324   5.664   8.046
11632TIP3   OH234848   4.167   6.006   7.997
11632TIP3    H134849   4.163   6.083   8.055
11632TIP3    H234850   4.198   6.043   7.913
11633TIP3   OH234851   4.054   5.225   7.452
11633TIP3    H134852   4.120   5.292   7.425
11633TIP3    H234853   4.097   5.188   7.533
11634TIP3   OH234854   4.179   5.091   7.655
11634TIP3    H134855   4.112   5.051   7.714
11634TIP3    H234856   4.245   5.127   7.718
11635TIP3   OH234857   4.264   5.516   8.089
11635TIP3    H134858   4.296   5.424   8.083
11635TIP3    H234859   4.203   5.522   8.015
11636TIP3   OH234860   4.115   5.002   7.302
11636TIP3    H134861   4.042   5.005   7.237
11636TIP3    H234862   4.089   5.078   7.359
11637TIP3   OH234863   3.988   4.672   7.251
11637TIP3    H134864   3.936   4.704   7.177
11637TIP3    H234865   3.969   4.576   7.247
11638TIP3   OH234866   3.990   4.954   7.795
11638TIP3    H134867   3.994   4.857   7.793
11638TIP3    H234868   3.970   4.971   7.891
11639TIP3   OH234869   3.931   4.405   7.233
11639TIP3    H134870   3.999   4.373   7.295
11639TIP3    H234871   3.853   4.351   7.253
11640TIP3   OH234872   3.988   4.670   7.693
11640TIP3    H134873   4.029   4.582   7.707
11640TIP3    H234874   4.046   4.704   7.623
11641TIP3   OH234875   4.153   4.847   8.150
11641TIP3    H134876   4.244   4.883   8.149
11641TIP3    H234877   4.149   4.806   8.239
11642TIP3   OH234878   4.104   4.423   7.730
11642TIP3    H134879   4.145   4.406   7.817
11642TIP3    H234880   4.041   4.348   7.725
11643TIP3   OH234881   4.172   4.347   7.371
11643TIP3    H134882   4.211   4.280   7.311
11643TIP3    H234883   4.239   4.418   7.369
11644TIP3   OH234884   3.737   5.884   7.634
11644TIP3    H134885   3.796   5.881   7.556
11644TIP3    H234886   3.784   5.948   7.692
11645TIP3   OH234887   3.087   5.759   8.102
11645TIP3    H134888   3.066   5.666   8.094
11645TIP3    H234889   3.091   5.772   8.199
11646TIP3   OH234890   4.217   4.268   8.198
11646TIP3    H134891   4.226   4.320   8.115
11646TIP3    H234892   4.121   4.264   8.206
11647TIP3   OH234893   4.266   4.374   7.949
11647TIP3    H134894   4.337   4.325   7.903
11647TIP3    H234895   4.297   4.467   7.934
11648TIP3   OH234896   3.925   4.212   7.718
11648TIP3    H134897   3.846   4.267   7.736
11648TIP3    H234898   3.899   4.129   7.764
11649TIP3   OH234899   2.389   5.543   7.726
11649TIP3    H134900   2.304   5.514   7.690
11649TIP3    H234901   2.394   5.631   7.684
11650TIP3   OH234902   2.801   4.162   7.689
11650TIP3    H134903   2.841   4.080   7.657
11650TIP3    H234904   2.879   4.207   7.729
11651TIP3   OH234905   3.320   4.308   7.801
11651TIP3    H134906   3.393   4.271   7.853
11651TIP3    H234907   3.341   4.404   7.805
11652TIP3   OH234908   3.169   5.722   7.309
11652TIP3    H134909   3.257   5.746   7.273
11652TIP3    H234910   3.146   5.649   7.247
11653TIP3   OH234911   3.892   5.854   7.404
11653TIP3    H134912   3.883   5.757   7.395
11653TIP3    H234913   3.843   5.884   7.325
11654TIP3   OH234914   2.468   5.564   7.360
11654TIP3    H134915   2.471   5.589   7.454
11654TIP3    H234916   2.557   5.522   7.348
11655TIP3   OH234917   5.315   5.361   7.719
11655TIP3    H134918   5.375   5.355   7.793
11655TIP3    H234919   5.304   5.269   7.691
11656TIP3   OH234920   4.667   5.671   7.831
11656TIP3    H134921   4.653   5.574   7.831
11656TIP3    H234922   4.761   5.675   7.803
11657TIP3   OH234923   4.359   4.870   7.601
11657TIP3    H134924   4.314   4.953   7.626
11657TIP3    H234925   4.285   4.823   7.558
11658TIP3   OH234926   4.415   5.157   7.777
11658TIP3    H134927   4.464   5.080   7.814
11658TIP3    H234928   4.483   5.199   7.723
11659TIP3   OH234929   5.159   5.590   7.750
11659TIP3    H134930   5.217   5.513   7.732
11659TIP3    H234931   5.179   5.612   7.843
11660TIP3   OH234932   5.580   5.082   7.801
11660TIP3    H134933   5.617   4.992   7.810
11660TIP3    H234934   5.555   5.081   7.706
11661TIP3   OH234935   4.937   4.756   7.786
11661TIP3    H134936   4.918   4.827   7.722
11661TIP3    H234937   4.888   4.683   7.743
11662TIP3   OH234938   5.622   4.846   7.396
11662TIP3    H134939   5.692   4.832   7.465
11662TIP3    H234940   5.677   4.885   7.325
11663TIP3   OH234941   4.563   4.955   7.886
11663TIP3    H134942   4.645   4.936   7.935
11663TIP3    H234943   4.577   4.900   7.806
11664TIP3   OH234944   5.000   5.145   7.690
11664TIP3    H134945   5.096   5.122   7.694
11664TIP3    H234946   4.962   5.064   7.652
11665TIP3   OH234947   5.247   5.594   7.184
11665TIP3    H134948   5.250   5.546   7.268
11665TIP3    H234949   5.197   5.674   7.211
11666TIP3   OH234950   5.817   4.837   7.587
11666TIP3    H134951   5.792   4.826   7.681
11666TIP3    H234952   5.889   4.900   7.592
11667TIP3   OH234953   4.796   4.863   7.999
11667TIP3    H134954   4.851   4.934   8.035
11667TIP3    H234955   4.853   4.827   7.928
11668TIP3   OH234956   4.252   5.401   7.343
11668TIP3    H134957   4.208   5.432   7.262
11668TIP3    H234958   4.284   5.486   7.380
11669TIP3   OH234959   5.260   4.463   7.900
11669TIP3    H134960   5.271   4.371   7.927
11669TIP3    H234961   5.190   4.493   7.961
11670TIP3   OH234962   5.400   5.951   7.204
11670TIP3    H134963   5.444   5.865   7.210
11670TIP3    H234964   5.467   6.001   7.150
11671TIP3   OH234965   5.563   5.715   7.185
11671TIP3    H134966   5.557   5.641   7.123
11671TIP3    H234967   5.562   5.668   7.269
11672TIP3   OH234968   5.194   5.196   7.167
11672TIP3    H134969   5.129   5.267   7.154
11672TIP3    H234970   5.267   5.218   7.106
11673TIP3   OH234971   5.165   5.014   6.888
11673TIP3    H134972   5.217   5.052   6.961
11673TIP3    H234973   5.232   4.956   6.846
11674TIP3   OH234974   4.793   5.300   7.572
11674TIP3    H134975   4.757   5.239   7.504
11674TIP3    H234976   4.867   5.248   7.609
11675TIP3   OH234977   4.916   5.699   7.716
11675TIP3    H134978   4.904   5.668   7.626
11675TIP3    H234979   5.005   5.662   7.737
11676TIP3   OH234980   4.908   5.288   7.907
11676TIP3    H134981   4.946   5.237   7.832
11676TIP3    H234982   4.985   5.311   7.958
11677TIP3   OH234983   5.409   5.186   6.995
11677TIP3    H134984   5.476   5.233   7.050
11677TIP3    H234985   5.442   5.201   6.904
11678TIP3   OH234986   5.147   5.835   7.257
11678TIP3    H134987   5.223   5.895   7.266
11678TIP3    H234988   5.076   5.894   7.229
11679TIP3   OH234989   5.913   4.397   7.033
11679TIP3    H134990   5.833   4.422   7.083
11679TIP3    H234991   5.930   4.479   6.982
11680TIP3   OH234992   4.663   5.142   7.369
11680TIP3    H134993   4.587   5.183   7.322
11680TIP3    H234994   4.628   5.055   7.392
11681TIP3   OH234995   5.718   5.760   6.581
11681TIP3    H134996   5.728   5.855   6.557
11681TIP3    H234997   5.810   5.729   6.564
11682TIP3   OH234998   4.296   5.744   7.888
11682TIP3    H134999   4.365   5.691   7.930
11682TIP3    H235000   4.248   5.782   7.963
11683TIP3   OH235001   5.023   6.075   7.059
11683TIP3    H135002   4.978   6.052   6.976
11683TIP3    H235003   4.979   6.159   7.082
11684TIP3   OH235004   4.465   5.927   7.447
11684TIP3    H135005   4.510   5.918   7.534
11684TIP3    H235006   4.413   5.845   7.444
11685TIP3   OH235007   5.229   5.977   6.692
11685TIP3    H135008   5.291   5.906   6.667
11685TIP3    H235009   5.258   5.997   6.784
11686TIP3   OH235010   5.269   6.022   6.963
11686TIP3    H135011   5.179   6.041   6.999
11686TIP3    H235012   5.311   5.988   7.044
11687TIP3   OH235013   5.049   4.525   8.064
11687TIP3    H135014   4.957   4.493   8.052
11687TIP3    H235015   5.036   4.620   8.068
11688TIP3   OH235016   5.473   5.221   6.731
11688TIP3    H135017   5.438   5.188   6.647
11688TIP3    H235018   5.565   5.242   6.706
11689TIP3   OH235019   5.181   4.580   7.032
11689TIP3    H135020   5.149   4.575   7.125
11689TIP3    H235021   5.144   4.496   6.998
11690TIP3   OH235022   4.858   4.930   7.594
11690TIP3    H135023   4.766   4.904   7.614
11690TIP3    H235024   4.869   4.889   7.506
11691TIP3   OH235025   5.337   5.011   7.309
11691TIP3    H135026   5.287   5.083   7.264
11691TIP3    H235027   5.400   4.984   7.239
11692TIP3   OH235028   5.477   5.034   7.550
11692TIP3    H135029   5.440   5.077   7.471
11692TIP3    H235030   5.519   4.958   7.506
11693TIP3   OH235031   4.841   4.554   6.998
11693TIP3    H135032   4.833   4.552   7.095
11693TIP3    H235033   4.764   4.610   6.974
11694TIP3   OH235034   4.391   4.596   7.866
11694TIP3    H135035   4.463   4.633   7.921
11694TIP3    H235036   4.435   4.577   7.782
11695TIP3   OH235037   4.346   4.575   7.386
11695TIP3    H135038   4.393   4.612   7.308
11695TIP3    H235039   4.286   4.650   7.405
11696TIP3   OH235040   5.194   4.742   7.647
11696TIP3    H135041   5.116   4.747   7.705
11696TIP3    H235042   5.267   4.744   7.711
11697TIP3   OH235043   4.619   4.815   7.656
11697TIP3    H135044   4.525   4.823   7.628
11697TIP3    H235045   4.641   4.722   7.635
11698TIP3   OH235046   4.878   4.802   7.355
11698TIP3    H135047   4.973   4.818   7.337
11698TIP3    H235048   4.835   4.826   7.270
11699TIP3   OH235049   5.651   4.824   7.847
11699TIP3    H135050   5.653   4.807   7.942
11699TIP3    H235051   5.577   4.766   7.818
11700TIP3   OH235052   4.738   4.842   7.126
11700TIP3    H135053   4.665   4.799   7.079
11700TIP3    H235054   4.789   4.880   7.051
11701TIP3   OH235055   5.270   5.071   7.725
11701TIP3    H135056   5.336   5.044   7.658
11701TIP3    H235057   5.318   5.052   7.807
11702TIP3   OH235058   4.788   4.573   7.639
11702TIP3    H135059   4.749   4.496   7.686
11702TIP3    H235060   4.829   4.531   7.562
11703TIP3   OH235061   4.979   5.372   7.126
11703TIP3    H135062   4.908   5.305   7.118
11703TIP3    H235063   4.961   5.408   7.216
11704TIP3   OH235064   5.433   4.680   6.996
11704TIP3    H135065   5.338   4.661   7.013
11704TIP3    H235066   5.444   4.773   7.026
11705TIP3   OH235067   5.501   4.930   7.095
11705TIP3    H135068   5.597   4.926   7.119
11705TIP3    H235069   5.495   5.020   7.057
11706TIP3   OH235070   4.677   5.394   7.811
11706TIP3    H135071   4.701   5.368   7.720
11706TIP3    H235072   4.757   5.363   7.859
11707TIP3   OH235073   5.953   5.028   6.930
11707TIP3    H135074   5.883   4.985   6.876
11707TIP3    H235075   5.947   5.118   6.890
11708TIP3   OH235076   5.622   5.817   6.828
11708TIP3    H135077   5.623   5.734   6.877
11708TIP3    H235078   5.661   5.790   6.743
11709TIP3   OH235079   4.773   5.700   7.432
11709TIP3    H135080   4.763   5.783   7.381
11709TIP3    H235081   4.681   5.681   7.454
11710TIP3   OH235082   4.340   5.001   7.145
11710TIP3    H135083   4.384   5.086   7.168
11710TIP3    H235084   4.263   5.004   7.205
11711TIP3   OH235085   4.905   5.465   7.370
11711TIP3    H135086   4.869   5.553   7.393
11711TIP3    H235087   4.877   5.413   7.447
11712TIP3   OH235088   4.693   5.934   7.286
11712TIP3    H135089   4.607   5.943   7.332
11712TIP3    H235090   4.731   6.024   7.299
11713TIP3   OH235091   5.720   6.026   6.536
11713TIP3    H135092   5.769   6.068   6.464
11713TIP3    H235093   5.648   6.092   6.549
11714TIP3   OH235094   5.525   5.541   6.958
11714TIP3    H135095   5.531   5.476   7.032
11714TIP3    H235096   5.612   5.517   6.919
11715TIP3   OH235097   4.806   5.527   6.748
11715TIP3    H135098   4.783   5.434   6.729
11715TIP3    H235099   4.769   5.537   6.839
11716TIP3   OH235100   4.720   5.555   7.007
11716TIP3    H135101   4.789   5.520   7.066
11716TIP3    H235102   4.724   5.651   7.025
11717TIP3   OH235103   4.445   5.244   7.227
11717TIP3    H135104   4.378   5.289   7.283
11717TIP3    H235105   4.456   5.312   7.158
11718TIP3   OH235106   5.489   4.628   7.288
11718TIP3    H135107   5.477   4.653   7.195
11718TIP3    H235108   5.531   4.710   7.325
11719TIP3   OH235109   5.018   5.747   6.948
11719TIP3    H135110   4.939   5.747   7.004
11719TIP3    H235111   5.006   5.832   6.903
11720TIP3   OH235112   5.157   4.817   7.382
11720TIP3    H135113   5.223   4.887   7.360
11720TIP3    H235114   5.173   4.806   7.478
11721TIP3   OH235115   5.310   4.527   7.478
11721TIP3    H135116   5.297   4.605   7.535
11721TIP3    H235117   5.377   4.562   7.414
11722TIP3   OH235118   4.747   5.823   7.039
11722TIP3    H135119   4.713   5.892   6.979
11722TIP3    H235120   4.726   5.862   7.126
11723TIP3   OH235121   4.829   4.541   7.273
11723TIP3    H135122   4.826   4.631   7.312
11723TIP3    H235123   4.925   4.524   7.281
11724TIP3   OH235124   4.447   5.446   7.028
11724TIP3    H135125   4.515   5.516   7.037
11724TIP3    H235126   4.493   5.388   6.963
11725TIP3   OH235127   4.385   4.730   7.161
11725TIP3    H135128   4.387   4.828   7.162
11725TIP3    H235129   4.301   4.712   7.119
11726TIP3   OH235130   4.782   4.429   8.032
11726TIP3    H135131   4.766   4.426   7.935
11726TIP3    H235132   4.708   4.377   8.063
11727TIP3   OH235133   4.305   5.666   7.410
11727TIP3    H135134   4.255   5.698   7.486
11727TIP3    H235135   4.263   5.714   7.335
11728TIP3   OH235136   4.928   5.753   6.645
11728TIP3    H135137   4.886   5.678   6.693
11728TIP3    H235138   5.011   5.712   6.615
11729TIP3   OH235139   5.395   5.770   6.575
11729TIP3    H135140   5.480   5.798   6.612
11729TIP3    H235141   5.415   5.775   6.479
11730TIP3   OH235142   4.588   5.261   6.887
11730TIP3    H135143   4.642   5.234   6.964
11730TIP3    H235144   4.656   5.264   6.817
11731TIP3   OH235145   5.112   5.471   6.726
11731TIP3    H135146   5.019   5.473   6.754
11731TIP3    H235147   5.125   5.375   6.710
11732TIP3   OH235148   4.776   5.179   7.093
11732TIP3    H135149   4.754   5.148   7.183
11732TIP3    H235150   4.820   5.100   7.055
11733TIP3   OH235151   4.892   4.972   6.938
11733TIP3    H135152   4.871   4.981   6.844
11733TIP3    H235153   4.990   4.973   6.936
11734TIP3   OH235154   5.709   5.288   6.610
11734TIP3    H135155   5.692   5.244   6.525
11734TIP3    H235156   5.679   5.378   6.588
11735TIP3   OH235157   4.701   6.024   6.849
11735TIP3    H135158   4.796   6.019   6.828
11735TIP3    H235159   4.671   6.081   6.777
11736TIP3   OH235160   4.176   5.414   7.055
11736TIP3    H135161   4.272   5.433   7.047
11736TIP3    H235162   4.171   5.324   7.016
11737TIP3   OH235163   4.099   6.022   7.479
11737TIP3    H135164   4.031   5.964   7.439
11737TIP3    H235165   4.140   5.959   7.543
11738TIP3   OH235166   4.228   5.862   7.657
11738TIP3    H135167   4.229   5.797   7.732
11738TIP3    H235168   4.284   5.929   7.699
11739TIP3   OH235169   5.819   5.495   6.926
11739TIP3    H135170   5.897   5.541   6.890
11739TIP3    H235171   5.856   5.455   7.007
11740TIP3   OH235172   5.947   5.392   7.153
11740TIP3    H135173   5.862   5.360   7.189
11740TIP3    H235174   6.004   5.388   7.232
11741TIP3   OH235175   5.912   5.263   6.790
11741TIP3    H135176   5.842   5.255   6.721
11741TIP3    H235177   5.873   5.335   6.843
11742TIP3   OH235178   5.774   4.935   6.743
11742TIP3    H135179   5.742   4.956   6.655
11742TIP3    H235180   5.756   4.839   6.746
11743TIP3   OH235181   4.421   5.288   8.018
11743TIP3    H135182   4.404   5.247   7.931
11743TIP3    H235183   4.509   5.323   8.005
11744TIP3   OH235184   5.728   4.667   6.723
11744TIP3    H135185   5.804   4.636   6.777
11744TIP3    H235186   5.657   4.606   6.747
11745TIP3   OH235187   5.770   4.906   7.167
11745TIP3    H135188   5.819   4.822   7.179
11745TIP3    H235189   5.838   4.963   7.128
11746TIP3   OH235190   5.899   4.671   7.219
11746TIP3    H135191   5.946   4.658   7.304
11746TIP3    H235192   5.836   4.596   7.221
11747TIP3   OH235193   4.611   4.657   8.018
11747TIP3    H135194   4.677   4.590   8.042
11747TIP3    H235195   4.664   4.739   8.024
11748TIP3   OH235196   4.415   4.955   8.129
11748TIP3    H135197   4.459   4.945   8.043
11748TIP3    H235198   4.412   5.051   8.138
11749TIP3   OH235199   5.966   4.605   6.855
11749TIP3    H135200   6.012   4.536   6.803
11749TIP3    H235201   6.032   4.677   6.858
11750TIP3   OH235202   4.380   4.429   7.612
11750TIP3    H135203   4.289   4.427   7.646
11750TIP3    H235204   4.371   4.491   7.536
11751TIP3   OH235205   4.403   6.028   7.805
11751TIP3    H135206   4.424   6.011   7.897
11751TIP3    H235207   4.473   5.976   7.759
11752TIP3   OH235208   4.597   5.888   7.682
11752TIP3    H135209   4.614   5.806   7.735
11752TIP3    H235210   4.689   5.925   7.681
11753TIP3   OH235211   4.857   5.966   7.703
11753TIP3    H135212   4.890   5.873   7.700
11753TIP3    H235213   4.932   6.012   7.744
11754TIP3   OH235214   5.441   4.652   7.776
11754TIP3    H135215   5.394   4.578   7.818
11754TIP3    H235216   5.514   4.606   7.728
11755TIP3   OH235217   5.954   4.527   7.670
11755TIP3    H135218   5.993   4.578   7.596
11755TIP3    H235219   5.863   4.561   7.672
11756TIP3   OH235220   6.062   4.628   7.439
11756TIP3    H135221   6.131   4.569   7.401
11756TIP3    H235222   6.107   4.715   7.424
11757TIP3   OH235223   4.689   4.361   7.783
11757TIP3    H135224   4.595   4.333   7.782
11757TIP3    H235225   4.733   4.274   7.778
11758TIP3   OH235226   4.487   4.230   7.444
11758TIP3    H135227   4.511   4.284   7.367
11758TIP3    H235228   4.454   4.298   7.508
11759TIP3   OH235229   5.138   4.388   7.667
11759TIP3    H135230   5.187   4.433   7.596
11759TIP3    H235231   5.180   4.427   7.746
11760TIP3   OH235232   5.661   4.537   7.649
11760TIP3    H135233   5.686   4.501   7.563
11760TIP3    H235234   5.655   4.456   7.705
11761TIP3   OH235235   5.710   4.465   7.214
11761TIP3    H135236   5.626   4.510   7.237
11761TIP3    H235237   5.695   4.378   7.256
11762TIP3   OH235238   4.193   5.807   7.208
11762TIP3    H135239   4.105   5.776   7.176
11762TIP3    H235240   4.187   5.901   7.183
11763TIP3   OH235241   4.600   4.387   7.195
11763TIP3    H135242   4.646   4.322   7.138
11763TIP3    H235243   4.675   4.439   7.230
11764TIP3   OH235244   5.104   4.564   7.295
11764TIP3    H135245   5.168   4.519   7.353
11764TIP3    H235246   5.122   4.657   7.321
11765TIP3   OH235247   4.969   5.981   6.795
11765TIP3    H135248   5.055   6.006   6.756
11765TIP3    H235249   4.942   5.910   6.731
11766TIP3   OH235250   5.718   6.100   6.827
11766TIP3    H135251   5.734   6.005   6.836
11766TIP3    H235252   5.667   6.104   6.744
11767TIP3   OH235253   4.263   5.822   6.849
11767TIP3    H135254   4.263   5.845   6.943
11767TIP3    H235255   4.351   5.780   6.836
11768TIP3   OH235256   6.120   5.134   7.127
11768TIP3    H135257   6.077   5.218   7.110
11768TIP3    H235258   6.078   5.076   7.062
11769TIP3   OH235259   6.024   5.636   6.804
11769TIP3    H135260   5.999   5.661   6.713
11769TIP3    H235261   6.054   5.720   6.842
11770TIP3   OH235262   6.947   5.246   6.378
11770TIP3    H135263   7.007   5.301   6.431
11770TIP3    H235264   7.011   5.191   6.329
11771TIP3   OH235265   6.470   5.370   6.817
11771TIP3    H135266   6.382   5.402   6.787
11771TIP3    H235267   6.447   5.308   6.887
11772TIP3   OH235268   6.959   4.845   6.521
11772TIP3    H135269   6.935   4.836   6.616
11772TIP3    H235270   6.930   4.757   6.489
11773TIP3   OH235271   6.629   4.804   6.482
11773TIP3    H135272   6.624   4.801   6.579
11773TIP3    H235273   6.558   4.868   6.462
11774TIP3   OH235274   6.210   4.839   7.355
11774TIP3    H135275   6.252   4.926   7.355
11774TIP3    H235276   6.234   4.803   7.268
11775TIP3   OH235277   6.139   4.825   6.869
11775TIP3    H135278   6.197   4.859   6.798
11775TIP3    H235279   6.086   4.905   6.887
11776TIP3   OH235280   6.409   5.075   7.054
11776TIP3    H135281   6.340   5.082   7.122
11776TIP3    H235282   6.453   4.990   7.074
11777TIP3   OH235283   6.693   5.025   6.824
11777TIP3    H135284   6.776   5.074   6.819
11777TIP3    H235285   6.637   5.065   6.753
11778TIP3   OH235286   6.533   5.099   6.616
11778TIP3    H135287   6.461   5.058   6.566
11778TIP3    H235288   6.584   5.142   6.543
11779TIP3   OH235289   6.565   4.848   7.117
11779TIP3    H135290   6.529   4.772   7.169
11779TIP3    H235291   6.609   4.802   7.045
11780TIP3   OH235292   7.237   4.914   6.483
11780TIP3    H135293   7.142   4.934   6.490
11780TIP3    H235294   7.282   5.000   6.501
11781TIP3   OH235295   6.134   5.254   6.626
11781TIP3    H135296   6.185   5.334   6.650
11781TIP3    H235297   6.062   5.259   6.692
11782TIP3   OH235298   6.542   5.809   6.250
11782TIP3    H135299   6.548   5.720   6.212
11782TIP3    H235300   6.603   5.803   6.325
11783TIP3   OH235301   6.242   5.492   6.707
11783TIP3    H135302   6.170   5.538   6.755
11783TIP3    H235303   6.258   5.554   6.634
11784TIP3   OH235304   6.625   4.772   6.756
11784TIP3    H135305   6.632   4.864   6.790
11784TIP3    H235306   6.719   4.746   6.766
11785TIP3   OH235307   6.234   5.706   6.521
11785TIP3    H135308   6.289   5.784   6.547
11785TIP3    H235309   6.293   5.664   6.454
11786TIP3   OH235310   6.185   4.984   6.647
11786TIP3    H135311   6.193   5.081   6.647
11786TIP3    H235312   6.101   4.971   6.603
11787TIP3   OH235313   6.375   5.529   6.372
11787TIP3    H135314   6.430   5.492   6.446
11787TIP3    H235315   6.445   5.530   6.302
11788TIP3   OH235316   6.537   5.433   6.559
11788TIP3    H135317   6.523   5.402   6.650
11788TIP3    H235318   6.596   5.364   6.523
11789TIP3   OH235319   6.682   5.228   6.431
11789TIP3    H135320   6.652   5.229   6.338
11789TIP3    H235321   6.779   5.218   6.416
11790TIP3   OH235322   5.969   5.667   6.533
11790TIP3    H135323   6.065   5.688   6.521
11790TIP3    H235324   5.965   5.577   6.493
11791TIP3   OH235325   6.168   4.687   7.101
11791TIP3    H135326   6.075   4.683   7.129
11791TIP3    H235327   6.164   4.747   7.023
11792TIP3   OH235328   6.472   4.621   7.235
11792TIP3    H135329   6.385   4.582   7.259
11792TIP3    H235330   6.532   4.549   7.261
11793TIP3   OH235331   6.265   4.487   6.920
11793TIP3    H135332   6.302   4.543   6.850
11793TIP3    H235333   6.246   4.552   6.991
11794TIP3   OH235334   6.392   4.640   6.681
11794TIP3    H135335   6.439   4.578   6.623
11794TIP3    H235336   6.467   4.691   6.718
11795TIP3   OH235337   6.905   4.810   6.791
11795TIP3    H135338   6.973   4.758   6.838
11795TIP3    H235339   6.905   4.895   6.838
11796TIP3   OH235340   6.083   6.072   6.364
11796TIP3    H135341   6.115   6.090   6.454
11796TIP3    H235342   6.162   6.027   6.325
11797TIP3   OH235343   1.969   5.689   7.686
11797TIP3    H135344   1.886   5.710   7.734
11797TIP3    H235345   1.981   5.771   7.633
11798TIP3   OH235346   1.893   6.203   7.317
11798TIP3    H135347   1.836   6.220   7.241
11798TIP3    H235348   1.862   6.114   7.343
11799TIP3   OH235349   1.776   5.973   7.395
11799TIP3    H135350   1.846   5.940   7.456
11799TIP3    H235351   1.710   5.902   7.397
11800TIP3   OH235352   2.012   5.902   7.521
11800TIP3    H135353   2.052   5.839   7.457
11800TIP3    H235354   2.074   5.978   7.518
11801TIP3   OH235355   3.483   6.383   7.551
11801TIP3    H135356   3.551   6.377   7.622
11801TIP3    H235357   3.529   6.442   7.489
11802TIP3   OH235358   3.670   6.401   7.751
11802TIP3    H135359   3.654   6.384   7.845
11802TIP3    H235360   3.726   6.481   7.758
11803TIP3   OH235361   3.102   6.019   8.042
11803TIP3    H135362   3.099   5.922   8.058
11803TIP3    H235363   3.091   6.053   8.133
11804TIP3   OH235364   3.052   6.709   7.299
11804TIP3    H135365   2.998   6.791   7.301
11804TIP3    H235366   3.124   6.733   7.238
11805TIP3   OH235367   3.002   6.560   7.036
11805TIP3    H135368   3.045   6.602   7.113
11805TIP3    H235369   3.075   6.508   6.997
11806TIP3   OH235370   3.410   6.863   7.281
11806TIP3    H135371   3.364   6.914   7.352
11806TIP3    H235372   3.487   6.828   7.330
11807TIP3   OH235373   3.258   6.706   7.122
11807TIP3    H135374   3.316   6.772   7.167
11807TIP3    H235375   3.274   6.729   7.027
11808TIP3   OH235376   3.754   5.954   7.184
11808TIP3    H135377   3.673   5.979   7.234
11808TIP3    H235378   3.771   6.037   7.135
11809TIP3   OH235379   3.558   7.320   6.739
11809TIP3    H135380   3.569   7.413   6.710
11809TIP3    H235381   3.649   7.285   6.725
11810TIP3   OH235382   3.313   6.758   6.864
11810TIP3    H135383   3.281   6.738   6.774
11810TIP3    H235384   3.399   6.799   6.845
11811TIP3   OH235385   3.028   6.134   7.183
11811TIP3    H135386   2.995   6.130   7.275
11811TIP3    H235387   2.987   6.052   7.148
11812TIP3   OH235388   3.200   6.555   7.470
11812TIP3    H135389   3.144   6.617   7.418
11812TIP3    H235390   3.260   6.522   7.400
11813TIP3   OH235391   3.323   6.577   7.711
11813TIP3    H135392   3.273   6.560   7.628
11813TIP3    H235393   3.383   6.502   7.708
11814TIP3   OH235394   2.683   6.111   7.145
11814TIP3    H135395   2.676   6.109   7.243
11814TIP3    H235396   2.605   6.165   7.123
11815TIP3   OH235397   2.179   6.129   7.538
11815TIP3    H135398   2.226   6.155   7.456
11815TIP3    H235399   2.142   6.215   7.563
11816TIP3   OH235400   3.034   6.318   7.793
11816TIP3    H135401   2.963   6.309   7.858
11816TIP3    H235402   3.113   6.301   7.848
11817TIP3   OH235403   2.726   6.340   7.488
11817TIP3    H135404   2.814   6.382   7.489
11817TIP3    H235405   2.675   6.394   7.425
11818TIP3   OH235406   3.506   6.359   8.006
11818TIP3    H135407   3.435   6.423   8.025
11818TIP3    H235408   3.461   6.295   7.950
11819TIP3   OH235409   2.563   6.404   7.259
11819TIP3    H135410   2.509   6.350   7.199
11819TIP3    H235411   2.634   6.433   7.197
11820TIP3   OH235412   2.630   6.134   7.798
11820TIP3    H135413   2.596   6.048   7.831
11820TIP3    H235414   2.683   6.107   7.722
11821TIP3   OH235415   3.275   6.240   7.143
11821TIP3    H135416   3.180   6.218   7.161
11821TIP3    H235417   3.285   6.331   7.179
11822TIP3   OH235418   3.351   6.481   7.255
11822TIP3    H135419   3.447   6.492   7.270
11822TIP3    H235420   3.329   6.563   7.204
11823TIP3   OH235421   2.977   7.077   7.065
11823TIP3    H135422   2.963   7.164   7.105
11823TIP3    H235423   2.943   7.018   7.136
11824TIP3   OH235424   3.778   6.586   7.089
11824TIP3    H135425   3.720   6.542   7.023
11824TIP3    H235426   3.777   6.676   7.049
11825TIP3   OH235427   3.521   7.371   7.015
11825TIP3    H135428   3.470   7.291   7.036
11825TIP3    H235429   3.529   7.363   6.918
11826TIP3   OH235430   3.244   7.137   6.895
11826TIP3    H135431   3.299   7.108   6.971
11826TIP3    H235432   3.157   7.105   6.923
11827TIP3   OH235433   3.594   7.588   6.692
11827TIP3    H135434   3.589   7.637   6.608
11827TIP3    H235435   3.535   7.644   6.745
11828TIP3   OH235436   3.410   7.076   7.103
11828TIP3    H135437   3.398   7.006   7.171
11828TIP3    H235438   3.508   7.067   7.090
11829TIP3   OH235439   2.645   7.082   6.915
11829TIP3    H135440   2.651   6.988   6.892
11829TIP3    H235441   2.565   7.086   6.970
11830TIP3   OH235442   3.333   6.181   7.437
11830TIP3    H135443   3.318   6.212   7.346
11830TIP3    H235444   3.381   6.258   7.477
11831TIP3   OH235445   3.006   6.373   7.528
11831TIP3    H135446   3.075   6.441   7.511
11831TIP3    H235447   3.015   6.361   7.625
11832TIP3   OH235448   3.154   6.087   7.627
11832TIP3    H135449   3.156   6.161   7.690
11832TIP3    H235450   3.218   6.119   7.560
11833TIP3   OH235451   2.670   6.085   7.418
11833TIP3    H135452   2.672   6.178   7.452
11833TIP3    H235453   2.764   6.064   7.431
11834TIP3   OH235454   3.586   6.692   7.679
11834TIP3    H135455   3.505   6.675   7.730
11834TIP3    H235456   3.657   6.680   7.746
11835TIP3   OH235457   2.221   6.280   7.304
11835TIP3    H135458   2.274   6.330   7.241
11835TIP3    H235459   2.145   6.248   7.253
11836TIP3   OH235460   2.769   7.295   6.800
11836TIP3    H135461   2.716   7.226   6.846
11836TIP3    H235462   2.858   7.272   6.828
11837TIP3   OH235463   3.202   7.354   6.712
11837TIP3    H135464   3.231   7.297   6.786
11837TIP3    H235465   3.269   7.338   6.644
11838TIP3   OH235466   2.409   6.810   7.010
11838TIP3    H135467   2.437   6.801   7.102
11838TIP3    H235468   2.495   6.809   6.962
11839TIP3   OH235469   2.941   7.015   6.803
11839TIP3    H135470   2.936   7.037   6.899
11839TIP3    H235471   2.940   6.917   6.808
11840TIP3   OH235472   2.619   6.692   7.261
11840TIP3    H135473   2.551   6.629   7.292
11840TIP3    H235474   2.670   6.636   7.200
11841TIP3   OH235475   2.738   6.508   7.082
11841TIP3    H135476   2.714   6.525   6.988
11841TIP3    H235477   2.836   6.513   7.076
11842TIP3   OH235478   3.549   6.854   6.760
11842TIP3    H135479   3.530   6.813   6.674
11842TIP3    H235480   3.514   6.945   6.742
11843TIP3   OH235481   3.681   7.048   7.077
11843TIP3    H135482   3.753   7.109   7.051
11843TIP3    H235483   3.720   7.007   7.159
11844TIP3   OH235484   3.792   6.916   7.283
11844TIP3    H135485   3.736   6.862   7.343
11844TIP3    H235486   3.872   6.931   7.336
11845TIP3   OH235487   3.753   6.818   6.939
11845TIP3    H135488   3.680   6.820   6.873
11845TIP3    H235489   3.725   6.893   6.995
11846TIP3   OH235490   3.621   6.486   6.889
11846TIP3    H135491   3.574   6.520   6.813
11846TIP3    H235492   3.603   6.390   6.881
11847TIP3   OH235493   3.621   6.753   7.422
11847TIP3    H135494   3.633   6.659   7.399
11847TIP3    H235495   3.611   6.746   7.520
11848TIP3   OH235496   3.570   6.218   6.867
11848TIP3    H135497   3.641   6.190   6.929
11848TIP3    H235498   3.494   6.164   6.894
11849TIP3   OH235499   3.629   6.486   7.322
11849TIP3    H135500   3.668   6.397   7.342
11849TIP3    H235501   3.688   6.513   7.249
11850TIP3   OH235502   3.795   6.628   7.845
11850TIP3    H135503   3.884   6.668   7.836
11850TIP3    H235504   3.773   6.646   7.939
11851TIP3   OH235505   3.737   6.235   7.370
11851TIP3    H135506   3.783   6.219   7.455
11851TIP3    H235507   3.674   6.160   7.370
11852TIP3   OH235508   3.807   6.163   7.008
11852TIP3    H135509   3.851   6.096   6.951
11852TIP3    H235510   3.873   6.235   7.009
11853TIP3   OH235511   2.225   5.950   7.740
11853TIP3    H135512   2.133   5.939   7.768
11853TIP3    H235513   2.219   6.024   7.676
11854TIP3   OH235514   3.263   6.202   7.901
11854TIP3    H135515   3.224   6.131   7.957
11854TIP3    H235516   3.345   6.160   7.869
11855TIP3   OH235517   3.802   6.079   7.823
11855TIP3    H135518   3.838   6.133   7.750
11855TIP3    H235519   3.713   6.116   7.832
11856TIP3   OH235520   3.899   6.182   7.588
11856TIP3    H135521   3.974   6.132   7.550
11856TIP3    H235522   3.932   6.274   7.573
11857TIP3   OH235523   2.516   5.914   7.917
11857TIP3    H135524   2.426   5.879   7.934
11857TIP3    H235525   2.567   5.832   7.908
11858TIP3   OH235526   2.335   5.765   7.567
11858TIP3    H135527   2.362   5.827   7.496
11858TIP3    H235528   2.304   5.828   7.635
11859TIP3   OH235529   2.981   5.947   7.809
11859TIP3    H135530   3.030   5.998   7.742
11859TIP3    H235531   3.030   5.971   7.891
11860TIP3   OH235532   3.501   6.103   7.805
11860TIP3    H135533   3.523   6.067   7.718
11860TIP3    H235534   3.498   6.021   7.860
11861TIP3   OH235535   3.551   6.023   7.365
11861TIP3    H135536   3.468   6.069   7.388
11861TIP3    H235537   3.536   5.936   7.408
11862TIP3   OH235538   2.440   5.942   7.347
11862TIP3    H135539   2.489   5.881   7.288
11862TIP3    H235540   2.513   5.996   7.383
11863TIP3   OH235541   2.948   6.118   7.444
11863TIP3    H135542   3.013   6.084   7.509
11863TIP3    H235543   2.954   6.214   7.465
11864TIP3   OH235544   4.001   6.671   7.234
11864TIP3    H135545   3.979   6.757   7.272
11864TIP3    H235546   3.917   6.643   7.195
11865TIP3   OH235547   4.034   6.942   7.403
11865TIP3    H135548   4.079   6.872   7.454
11865TIP3    H235549   4.091   7.017   7.424
11866TIP3   OH235550   4.579   6.570   7.420
11866TIP3    H135551   4.558   6.650   7.369
11866TIP3    H235552   4.515   6.507   7.383
11867TIP3   OH235553   4.205   6.761   7.514
11867TIP3    H135554   4.292   6.766   7.554
11867TIP3    H235555   4.221   6.702   7.438
11868TIP3   OH235556   3.883   7.212   6.977
11868TIP3    H135557   3.841   7.238   6.893
11868TIP3    H235558   3.900   7.299   7.019
11869TIP3   OH235559   4.855   6.998   6.828
11869TIP3    H135560   4.778   7.058   6.821
11869TIP3    H235561   4.902   7.018   6.746
11870TIP3   OH235562   4.813   6.815   6.529
11870TIP3    H135563   4.869   6.864   6.589
11870TIP3    H235564   4.877   6.759   6.481
11871TIP3   OH235565   5.060   6.981   6.633
11871TIP3    H135566   5.083   7.072   6.653
11871TIP3    H235567   5.064   6.983   6.534
11872TIP3   OH235568   5.537   6.205   6.644
11872TIP3    H135569   5.464   6.226   6.707
11872TIP3    H235570   5.555   6.293   6.605
11873TIP3   OH235571   4.304   6.941   6.977
11873TIP3    H135572   4.222   6.982   6.943
11873TIP3    H235573   4.271   6.882   7.045
11874TIP3   OH235574   5.092   6.995   6.371
11874TIP3    H135575   5.045   6.988   6.286
11874TIP3    H235576   5.178   7.028   6.338
11875TIP3   OH235577   4.825   6.389   6.661
11875TIP3    H135578   4.782   6.393   6.749
11875TIP3    H235579   4.784   6.307   6.627
11876TIP3   OH235580   4.492   6.755   7.222
11876TIP3    H135581   4.403   6.722   7.247
11876TIP3    H235582   4.502   6.707   7.137
11877TIP3   OH235583   4.484   6.354   6.631
11877TIP3    H135584   4.449   6.376   6.719
11877TIP3    H235585   4.434   6.419   6.575
11878TIP3   OH235586   4.024   6.402   7.498
11878TIP3    H135587   4.093   6.444   7.554
11878TIP3    H235588   4.072   6.384   7.417
11879TIP3   OH235589   3.979   6.391   7.023
11879TIP3    H135590   4.029   6.430   6.949
11879TIP3    H235591   3.922   6.467   7.046
11880TIP3   OH235592   4.262   6.626   7.284
11880TIP3    H135593   4.167   6.629   7.256
11880TIP3    H235594   4.286   6.532   7.268
11881TIP3   OH235595   4.515   6.615   6.988
11881TIP3    H135596   4.605   6.640   6.963
11881TIP3    H235597   4.463   6.640   6.907
11882TIP3   OH235598   4.367   6.652   6.769
11882TIP3    H135599   4.282   6.613   6.745
11882TIP3    H235600   4.401   6.673   6.679
11883TIP3   OH235601   4.417   6.386   7.276
11883TIP3    H135602   4.382   6.312   7.330
11883TIP3    H235603   4.442   6.341   7.195
11884TIP3   OH235604   4.631   7.162   6.794
11884TIP3    H135605   4.557   7.105   6.762
11884TIP3    H235606   4.597   7.192   6.879
11885TIP3   OH235607   5.073   6.491   6.637
11885TIP3    H135608   4.976   6.470   6.639
11885TIP3    H235609   5.075   6.588   6.634
11886TIP3   OH235610   5.194   6.752   6.708
11886TIP3    H135611   5.274   6.737   6.654
11886TIP3    H235612   5.162   6.838   6.674
11887TIP3   OH235613   3.975   6.815   6.777
11887TIP3    H135614   4.021   6.898   6.802
11887TIP3    H235615   3.899   6.818   6.840
11888TIP3   OH235616   4.410   7.352   6.386
11888TIP3    H135617   4.413   7.257   6.362
11888TIP3    H235618   4.375   7.349   6.477
11889TIP3   OH235619   4.350   7.382   6.657
11889TIP3    H135620   4.447   7.379   6.665
11889TIP3    H235621   4.335   7.478   6.671
11890TIP3   OH235622   4.080   7.058   6.862
11890TIP3    H135623   4.012   7.103   6.917
11890TIP3    H235624   4.092   7.126   6.792
11891TIP3   OH235625   5.116   6.403   6.893
11891TIP3    H135626   5.102   6.427   6.799
11891TIP3    H235627   5.154   6.484   6.930
11892TIP3   OH235628   4.800   6.633   7.013
11892TIP3    H135629   4.866   6.693   6.972
11892TIP3    H235630   4.827   6.638   7.107
11893TIP3   OH235631   4.934   6.331   7.091
11893TIP3    H135632   4.985   6.361   7.168
11893TIP3    H235633   4.992   6.359   7.017
11894TIP3   OH235634   4.333   7.651   6.688
11894TIP3    H135635   4.349   7.686   6.597
11894TIP3    H235636   4.273   7.720   6.719
11895TIP3   OH235637   4.449   6.356   6.915
11895TIP3    H135638   4.447   6.447   6.951
11895TIP3    H235639   4.546   6.343   6.909
11896TIP3   OH235640   4.087   7.261   6.665
11896TIP3    H135641   4.166   7.318   6.671
11896TIP3    H235642   4.121   7.197   6.598
11897TIP3   OH235643   4.039   6.550   6.806
11897TIP3    H135644   4.029   6.647   6.803
11897TIP3    H235645   3.973   6.521   6.741
11898TIP3   OH235646   4.401   6.269   7.671
11898TIP3    H135647   4.389   6.236   7.580
11898TIP3    H235648   4.404   6.186   7.723
11899TIP3   OH235649   3.934   7.473   7.042
11899TIP3    H135650   3.868   7.519   6.984
11899TIP3    H235651   4.015   7.517   7.014
11900TIP3   OH235652   4.574   7.544   6.274
11900TIP3    H135653   4.517   7.472   6.311
11900TIP3    H235654   4.637   7.493   6.220
11901TIP3   OH235655   4.219   7.075   6.522
11901TIP3    H135656   4.275   7.044   6.596
11901TIP3    H235657   4.286   7.079   6.451
11902TIP3   OH235658   4.725   7.279   6.330
11902TIP3    H135659   4.686   7.288   6.417
11902TIP3    H235660   4.743   7.182   6.327
11903TIP3   OH235661   4.418   6.999   6.733
11903TIP3    H135662   4.384   6.962   6.818
11903TIP3    H235663   4.455   6.919   6.689
11904TIP3   OH235664   4.534   6.804   6.579
11904TIP3    H135665   4.490   6.738   6.522
11904TIP3    H235666   4.628   6.791   6.557
11905TIP3   OH235667   5.305   7.081   6.236
11905TIP3    H135668   5.320   7.023   6.160
11905TIP3    H235669   5.255   7.154   6.193
11906TIP3   OH235670   4.349   7.822   6.482
11906TIP3    H135671   4.424   7.875   6.516
11906TIP3    H235672   4.329   7.870   6.399
11907TIP3   OH235673   3.813   7.226   6.699
11907TIP3    H135674   3.908   7.246   6.684
11907TIP3    H235675   3.806   7.137   6.658
11908TIP3   OH235676   5.374   6.762   6.394
11908TIP3    H135677   5.376   6.790   6.302
11908TIP3    H235678   5.361   6.665   6.382
11909TIP3   OH235679   5.353   6.495   6.373
11909TIP3    H135680   5.431   6.456   6.416
11909TIP3    H235681   5.287   6.424   6.375
11910TIP3   OH235682   4.238   6.483   7.643
11910TIP3    H135683   4.299   6.407   7.658
11910TIP3    H235684   4.275   6.551   7.700
11911TIP3   OH235685   4.055   6.739   7.766
11911TIP3    H135686   4.080   6.718   7.675
11911TIP3    H235687   4.070   6.836   7.766
11912TIP3   OH235688   5.604   6.421   6.489
11912TIP3    H135689   5.636   6.350   6.430
11912TIP3    H235690   5.677   6.486   6.478
11913TIP3   OH235691   4.017   6.236   7.243
11913TIP3    H135692   3.929   6.239   7.284
11913TIP3    H235693   4.007   6.302   7.171
11914TIP3   OH235694   4.330   6.169   7.417
11914TIP3    H135695   4.236   6.139   7.426
11914TIP3    H235696   4.375   6.083   7.415
11915TIP3   OH235697   4.117   6.042   7.071
11915TIP3    H135698   4.145   6.101   6.998
11915TIP3    H235699   4.087   6.108   7.138
11916TIP3   OH235700   4.778   6.195   7.321
11916TIP3    H135701   4.797   6.255   7.247
11916TIP3    H235702   4.750   6.255   7.392
11917TIP3   OH235703   5.349   6.258   6.840
11917TIP3    H135704   5.268   6.310   6.859
11917TIP3    H235705   5.330   6.178   6.892
11918TIP3   OH235706   3.797   7.630   6.872
11918TIP3    H135707   3.729   7.602   6.807
11918TIP3    H235708   3.837   7.704   6.822
11919TIP3   OH235709   4.234   6.196   6.842
11919TIP3    H135710   4.280   6.138   6.777
11919TIP3    H235711   4.308   6.253   6.873
11920TIP3   OH235712   4.724   6.387   6.917
11920TIP3    H135713   4.785   6.342   6.978
11920TIP3    H235714   4.738   6.480   6.948
11921TIP3   OH235715   3.899   7.632   6.482
11921TIP3    H135716   3.897   7.685   6.563
11921TIP3    H235717   3.990   7.593   6.481
11922TIP3   OH235718   4.098   8.156   6.246
11922TIP3    H135719   4.100   8.180   6.340
11922TIP3    H235720   4.025   8.213   6.214
11923TIP3   OH235721   3.823   7.823   6.674
11923TIP3    H135722   3.834   7.897   6.612
11923TIP3    H235723   3.733   7.839   6.708
11924TIP3   OH235724   3.872   8.011   6.458
11924TIP3    H135725   3.913   7.949   6.394
11924TIP3    H235726   3.948   8.069   6.480
   7.90000   7.44819   6.45032   0.00000   0.00000  -2.63333   0.00000  -2.63333  -3.72410
